FOO
141312
    1MOL0     O    1   4.227   3.869   6.198  0.6675 -0.3734 -0.9433
    1MOL0     C    2   4.256   3.810   6.307 -0.7700 -0.5776  0.1711
    1MOL0     O    3   4.162   3.791   6.404 -0.5893  0.6165  0.0904
    1MOL0     C    4   4.043   3.851   6.404  0.1485 -0.1772  0.3977
    1MOL0     C    5   3.939   3.795   6.326  0.6511  0.4713 -0.9812
    1MOL0     C    6   3.812   3.851   6.342 -0.2252  1.1266 -0.0468
    1MOL0     C    7   3.773   3.949   6.437 -0.1528  0.8374  0.4487
    1MOL0     O    8   3.648   3.991   6.435  0.2265  0.1763 -0.1405
    1MOL0     C    9   3.613   4.093   6.529  0.5289  0.3408 -0.2344
    1MOL0     C   10   3.474   4.128   6.503 -0.0634  0.6793 -0.0921
    1MOL0     C   11   3.419   4.242   6.595 -0.0313 -0.2459 -0.5328
    1MOL0     C   12   3.498   4.373   6.579 -0.2273 -0.8042  0.2534
    1MOL0     C   13   3.425   4.509   6.598 -0.1682 -0.2101 -0.5762
    1MOL0     C   14   3.303   4.526   6.512 -0.2889 -0.2327  0.1357
    1MOL0     C   15   3.340   4.513   6.361 -0.4461  0.2274  0.5707
    1MOL0     C   16   3.228   4.560   6.273  0.7784  0.1102  0.1495
    1MOL0     N   17   3.262   4.559   6.130  0.5330  0.7814 -0.7705
    1MOL0     C   18   3.328   4.656   6.060 -0.3109  0.2121  0.6014
    1MOL0     C   19   3.309   4.632   5.928 -1.2590  0.4344 -0.2419
    1MOL0     C   20   3.364   4.720   5.814 -0.6225 -0.0051  0.3526
    1MOL0     C   21   3.496   4.818   5.813  0.0180 -0.4418  0.3946
    1MOL0     C   22   3.613   4.745   5.888 -1.1109 -0.3237 -0.2349
    1MOL0     C   23   3.760   4.773   5.841 -0.0104 -0.3532  0.5134
    1MOL0     O   24   3.855   4.690   5.899  0.3575  0.2196  0.1266
    1MOL0     C   25   3.985   4.714   5.875 -0.4197 -0.1927  0.0946
    1MOL0     C   26   4.077   4.613   5.920 -0.5983 -0.6086 -0.1593
    1MOL0     C   27   4.220   4.625   5.897  0.3184 -1.0048  0.4156
    1MOL0     C   28   4.307   4.515   5.957  0.3194  0.3462  0.3244
    1MOL0     C   29   4.270   4.734   5.828 -0.8814 -0.7216  0.2680
    1MOL0     C   30   4.414   4.759   5.803 -0.0818  0.3979  0.0540
    1MOL0     O   31   4.439   4.892   5.770  0.1621 -0.2291 -0.2158
    1MOL0     C   32   4.559   4.927   5.706  0.0749  0.1410  0.2116
    1MOL0     C   33   4.563   4.984   5.580  0.3051 -0.7548  0.5828
    1MOL0     C   34   4.684   5.011   5.515 -0.1560 -0.0453 -0.1420
    1MOL0     C   35   4.802   4.999   5.586  0.1032 -0.4924  0.7041
    1MOL0     O   36   4.919   5.019   5.512  0.6525  0.1022  0.0750
    1MOL0     C   37   5.043   4.955   5.555  0.4068  0.1381 -0.3686
    1MOL0     C   38   5.137   4.982   5.437  1.4926  0.0649 -0.5261
    1MOL0     C   39   5.278   4.919   5.450 -0.1075 -0.0702 -0.2597
    1MOL0     C   40   5.349   4.912   5.313  0.1177 -0.6369  0.2582
    1MOL0     C   41   5.452   4.800   5.323  0.1893  0.6966  0.4439
    1MOL0     C   42   5.567   4.836   5.420 -0.0048  0.0873  0.0708
    1MOL0     C   43   5.672   4.725   5.438 -0.0440  0.9676  0.6158
    1MOL0     C   44   5.822   4.756   5.449 -0.5628 -0.1256  0.1336
    1MOL0    Cl   45   5.842   4.867   5.582 -0.4271  0.1096 -0.5668
    1MOL0     C   46   4.797   4.956   5.717  0.6524 -0.7878  0.3469
    1MOL0     C   47   4.677   4.915   5.778 -0.3690 -0.2096 -0.4162
    1MOL0     O   48   4.502   4.678   5.788 -0.3306  1.1496 -0.5048
    1MOL0     C   49   4.174   4.829   5.784 -0.3167  0.0316  0.0137
    1MOL0     C   50   4.041   4.814   5.797 -0.5810  0.1280 -0.5530
    1MOL0     N   51   3.237   4.509   5.917 -0.2574  0.4899  0.1191
    1MOL0     N   52   3.214   4.467   6.038  0.7401  0.4454  0.4680
    1MOL0     C   53   3.875   3.990   6.521 -1.5286  0.1808 -0.2701
    1MOL0     C   54   4.011   3.945   6.505  0.2515  0.4051 -0.1573
    1MOL0     C   55   4.389   3.747   6.322 -0.0160  0.1740 -0.7262
    1MOL0     C   56   4.438   3.678   6.207  0.4180  0.3186 -0.8034
    1MOL0     C   57   4.557   3.615   6.218 -0.3341 -0.3826  0.4182
    1MOL0     C   58   4.644   3.624   6.329  0.8253 -0.6684 -0.9981
    1MOL0     O   59   4.768   3.577   6.344  0.2527  0.6876 -1.0001
    1MOL0     C   60   4.830   3.510   6.232  0.0564 -0.0846 -0.2192
    1MOL0     C   61   4.865   3.598   6.106 -0.1270  0.2406 -0.2105
    1MOL0     C   62   4.960   3.710   6.147 -0.0235 -0.3209  0.0907
    1MOL0     C   63   4.989   3.806   6.036 -0.3407  0.4766  0.3018
    1MOL0     C   64   4.872   3.874   5.982  0.2758  0.2950  0.4781
    1MOL0     C   65   4.774   3.921   5.935 -0.0088 -0.5864  0.5025
    1MOL0     C   66   4.594   3.691   6.437  0.0652  0.4743 -0.5754
    1MOL0     C   67   4.468   3.756   6.438 -0.4867 -0.1704  0.6373
    1MOL0     C   68   4.430   3.848   6.556 -0.0175 -0.2362 -0.6749
    1MOL0     H   69   3.965   3.709   6.265 -0.7094 -1.5122  1.0856
    1MOL0     H   70   3.741   3.819   6.266  0.5281 -1.8731  0.3892
    1MOL0     H   71   3.668   4.186   6.512  1.1994  0.3996  1.9263
    1MOL0     H   72   3.638   4.066   6.632  1.5399 -1.5092 -0.9348
    1MOL0     H   73   3.478   4.167   6.400  0.0895  1.2913  0.1407
    1MOL0     H   74   3.414   4.038   6.518  3.4939 -1.5718  2.2470
    1MOL0     H   75   3.314   4.262   6.574  0.2460  3.0248  0.5766
    1MOL0     H   76   3.428   4.214   6.700 -0.2900 -0.4336 -0.5632
    1MOL0     H   77   3.584   4.374   6.646 -0.6617  0.2561  0.8307
    1MOL0     H   78   3.537   4.372   6.477 -0.9960  1.7032 -0.1264
    1MOL0     H   79   3.497   4.588   6.579 -0.5224  0.0675 -0.7739
    1MOL0     H   80   3.392   4.523   6.701 -0.8893 -0.2501 -0.7922
    1MOL0     H   81   3.231   4.448   6.538  0.7870 -1.8275 -1.4353
    1MOL0     H   82   3.258   4.625   6.527 -0.6903 -0.4696  0.5175
    1MOL0     H   83   3.355   4.407   6.338 -2.2290  0.3638 -1.4546
    1MOL0     H   84   3.428   4.569   6.328  0.3227 -3.4133 -4.9846
    1MOL0     H   85   3.142   4.497   6.296  0.1388  0.7422 -0.4879
    1MOL0     H   86   3.198   4.659   6.308 -0.5210 -0.3979  0.5221
    1MOL0     H   87   3.378   4.743   6.102  0.3120 -1.5404  3.8308
    1MOL0     H   88   3.279   4.776   5.774 -0.2019  1.2182  1.1482
    1MOL0     H   89   3.377   4.644   5.736 -0.1424 -0.4573  0.8581
    1MOL0     H   90   3.526   4.847   5.712 -1.3127 -1.0341 -0.1972
    1MOL0     H   91   3.472   4.917   5.854 -0.5530  0.7189 -2.4516
    1MOL0     H   92   3.605   4.742   5.997 -1.4737 -2.1362 -0.2932
    1MOL0     H   93   3.592   4.641   5.862 -1.1838  0.5993 -4.5665
    1MOL0     H   94   3.774   4.772   5.733  0.7394  1.6834  0.5403
    1MOL0     H   95   3.771   4.880   5.860  2.1966 -0.4595  0.1217
    1MOL0     H   96   4.039   4.527   5.974 -0.1664  0.8052  2.5598
    1MOL0     H   97   4.360   4.454   5.883 -0.1897 -0.3824  0.5491
    1MOL0     H   98   4.237   4.450   6.010 -1.8731  0.3914 -2.2548
    1MOL0     H   99   4.377   4.543   6.036 -0.8034 -3.1122  2.8246
    1MOL0     H  100   4.470   5.001   5.526  1.4249 -1.7803 -1.8507
    1MOL0     H  101   4.682   5.024   5.407 -2.0246 -2.6684 -0.5096
    1MOL0     H  102   5.084   5.004   5.643 -0.8807 -0.8289  0.8018
    1MOL0     H  103   5.029   4.849   5.578 -0.1408  0.1282 -0.7389
    1MOL0     H  104   5.092   4.950   5.343  1.1533  1.3589 -0.8317
    1MOL0     H  105   5.143   5.091   5.427 -2.7609  0.7377  1.7166
    1MOL0     H  106   5.260   4.816   5.482  2.2225 -0.9476 -1.5446
    1MOL0     H  107   5.333   4.981   5.522 -1.6814 -0.0034  0.9546
    1MOL0     H  108   5.392   5.006   5.277  1.5846 -2.4159 -3.1250
    1MOL0     H  109   5.285   4.865   5.237 -1.4464 -0.5921  1.5031
    1MOL0     H  110   5.406   4.709   5.362  0.4506 -0.6477 -2.1419
    1MOL0     H  111   5.489   4.781   5.222  2.6339  0.0938  1.4020
    1MOL0     H  112   5.520   4.868   5.513 -2.7976  2.0767 -1.8390
    1MOL0     H  113   5.621   4.925   5.388  0.4110  0.2452  1.1911
    1MOL0     H  114   5.668   4.665   5.346 -0.6024  0.8368  0.7212
    1MOL0     H  115   5.649   4.658   5.521  1.1284  1.5961  1.4783
    1MOL0     H  116   5.863   4.791   5.354  0.6729 -0.4932  0.5080
    1MOL0     H  117   5.880   4.663   5.457 -0.8316 -0.3730 -0.6590
    1MOL0     H  118   4.888   4.927   5.769  0.7842 -1.1031 -0.0514
    1MOL0     H  119   4.676   4.891   5.884 -0.5334 -0.4022 -0.4633
    1MOL0     H  120   4.198   4.917   5.725  2.6322 -0.4007  0.4070
    1MOL0     H  121   3.972   4.894   5.770 -2.5108 -0.6783  1.6685
    1MOL0     H  122   3.854   4.058   6.603 -0.3438 -2.0797  2.0783
    1MOL0     H  123   4.086   3.992   6.568  0.1269 -1.2001  1.2253
    1MOL0     H  124   4.381   3.684   6.115  1.9401 -1.8537 -1.9617
    1MOL0     H  125   4.583   3.573   6.121 -1.2500 -1.2770  0.5430
    1MOL0     H  126   4.926   3.471   6.268  0.8121  1.0735 -0.9179
    1MOL0     H  127   4.767   3.427   6.202 -0.2299  0.2409 -0.5230
    1MOL0     H  128   4.770   3.632   6.063 -1.8279  1.0280  3.7207
    1MOL0     H  129   4.914   3.528   6.038  0.5476 -1.1646  1.6410
    1MOL0     H  130   4.913   3.770   6.225 -0.0478 -0.5173  0.2282
    1MOL0     H  131   5.049   3.668   6.193  1.3044  0.5834 -1.5557
    1MOL0     H  132   5.053   3.748   5.970 -2.4132 -2.4248  0.6639
    1MOL0     H  133   5.044   3.891   6.079  3.0697 -1.4089 -0.0009
    1MOL0     H  134   4.687   3.966   5.892  0.8606  0.4343 -0.2441
    1MOL0     H  135   4.654   3.726   6.520  0.8921  2.7036 -2.0082
    1MOL0     H  136   4.326   3.860   6.589  0.9204  2.2202  1.7018
    1MOL0     H  137   4.483   3.819   6.647  1.5846  0.3456 -1.3878
    1MOL0     H  138   4.479   3.940   6.524  1.4079 -1.6187 -2.7644
    2MOL0     O  139  11.206   5.700   2.438 -0.4375 -0.1199  0.1049
    2MOL0     C  140  11.191   5.809   2.390  0.0872 -0.0417 -0.7804
    2MOL0     O  141  11.279   5.917   2.411  0.8515  0.8164 -0.5895
    2MOL0     C  142  11.379   5.905   2.499 -0.1906  0.3498  0.3419
    2MOL0     C  143  11.364   5.983   2.617  1.3807 -0.6249  0.2471
    2MOL0     C  144  11.463   5.962   2.715  0.5174  0.0679 -0.1048
    2MOL0     C  145  11.567   5.873   2.700  0.1476  0.9508  0.2830
    2MOL0     O  146  11.670   5.877   2.795 -0.0338 -0.4100  0.0082
    2MOL0     C  147  11.752   5.764   2.817  0.7144 -0.1577 -0.5904
    2MOL0     C  148  11.833   5.802   2.943 -0.6519  0.4888  0.3626
    2MOL0     C  149  11.925   5.922   2.925 -0.3900  0.2254 -0.0586
    2MOL0     C  150  12.063   5.910   3.002 -0.4708 -0.8220 -0.2495
    2MOL0     C  151  12.138   6.044   2.981 -1.0005 -1.0319  0.0881
    2MOL0     C  152  12.271   6.027   3.051 -0.3876 -0.4064  0.2963
    2MOL0     C  153  12.382   6.130   3.037  0.1030  0.2928 -0.1814
    2MOL0     C  154  12.425   6.166   2.894  0.0797 -0.3715  0.3889
    2MOL0     N  155  12.565   6.214   2.902 -0.1869 -0.6438  0.4555
    2MOL0     C  156  12.607   6.348   2.917  0.4335 -0.6344  0.3158
    2MOL0     C  157  12.742   6.350   2.893  1.0684  0.2862  0.4481
    2MOL0     C  158  12.841   6.466   2.920 -0.6233 -1.1431 -0.3876
    2MOL0     C  159  12.869   6.480   3.075  0.0156  0.3338  0.4986
    2MOL0     C  160  12.926   6.365   3.156  1.0451 -0.6538  0.7138
    2MOL0     C  161  13.040   6.306   3.092  0.0141  0.0407 -0.6747
    2MOL0     O  162  13.154   6.386   3.087 -0.2227 -0.6336  0.1826
    2MOL0     C  163  13.271   6.327   3.066  0.1652  0.3104  0.4438
    2MOL0     C  164  13.298   6.205   3.005  0.0316  0.1553  0.9082
    2MOL0     C  165  13.428   6.149   3.001  0.0686 -0.1021  0.2023
    2MOL0     C  166  13.442   6.009   2.941 -0.0015  0.0917 -0.3448
    2MOL0     C  167  13.540   6.218   3.049  0.6983 -0.6408 -0.4495
    2MOL0     C  168  13.681   6.183   3.035  0.0258 -0.3447  0.1837
    2MOL0     O  169  13.764   6.291   3.070  0.5869 -0.7325 -0.3932
    2MOL0     C  170  13.901   6.310   3.043 -0.2449 -0.4287  0.3284
    2MOL0     C  171  13.986   6.211   2.981 -0.9611 -0.4765  0.0912
    2MOL0     C  172  14.124   6.235   2.968 -0.0268  0.1745 -0.2986
    2MOL0     C  173  14.177   6.350   3.018 -0.5113 -0.4804  0.6346
    2MOL0     O  174  14.311   6.363   3.044  0.1476 -0.1210  0.2455
    2MOL0     C  175  14.401   6.299   2.946  1.1033 -0.4058  0.0811
    2MOL0     C  176  14.541   6.353   2.962 -0.3521 -0.2116 -0.8226
    2MOL0     C  177  14.597   6.339   3.104  1.1594 -0.2780 -0.2885
    2MOL0     C  178  14.739   6.391   3.121 -0.5258 -0.0459 -0.3684
    2MOL0     C  179  14.782   6.373   3.271  0.3423  0.1512 -0.4301
    2MOL0     C  180  14.924   6.331   3.297 -0.1392  0.4706  0.4815
    2MOL0     C  181  15.017   6.446   3.237  0.3922 -0.0582  0.7206
    2MOL0     C  182  15.166   6.422   3.264  0.6022  0.1295 -0.9921
    2MOL0    Cl  183  15.225   6.271   3.196  0.3871  0.2583  0.0278
    2MOL0     C  184  14.093   6.452   3.067 -0.9102  0.4724  0.0340
    2MOL0     C  185  13.954   6.428   3.081 -0.4023  0.1279  1.1340
    2MOL0     O  186  13.718   6.074   3.006 -0.4635 -0.0459 -0.2872
    2MOL0     C  187  13.511   6.348   3.106 -0.3574  0.1506 -0.0148
    2MOL0     C  188  13.381   6.396   3.108  0.3633 -0.5678 -1.3519
    2MOL0     N  189  12.782   6.220   2.857  0.2560 -0.2829  0.4374
    2MOL0     N  190  12.676   6.142   2.868  0.2970  0.9000  1.1028
    2MOL0     C  191  11.571   5.783   2.596  0.3442 -0.2859  0.2102
    2MOL0     C  192  11.482   5.803   2.491 -0.3407 -0.2592  0.1238
    2MOL0     C  193  11.084   5.839   2.292  0.5126 -0.6871  0.5394
    2MOL0     C  194  11.102   5.943   2.196 -0.8612  0.8716 -0.8067
    2MOL0     C  195  11.003   5.970   2.099  0.0861 -0.5478  0.0834
    2MOL0     C  196  10.883   5.898   2.098 -0.2688  0.3655 -0.1258
    2MOL0     O  197  10.796   5.933   1.992  0.1345  0.2536  0.9351
    2MOL0     C  198  10.686   5.845   1.959  0.0846  0.7128 -0.7943
    2MOL0     C  199  10.614   5.892   1.833 -0.3026  0.9421  0.2934
    2MOL0     C  200  10.499   5.997   1.848 -0.2786 -0.3798  0.2331
    2MOL0     C  201  10.405   6.034   1.728  0.0251  0.0861 -0.0853
    2MOL0     C  202  10.486   6.099   1.623 -0.9123  0.5051  0.5018
    2MOL0     C  203  10.545   6.155   1.529  0.1748  0.5703 -0.3520
    2MOL0     C  204  10.862   5.798   2.191  0.7987  0.1663  0.2392
    2MOL0     C  205  10.961   5.777   2.289  0.1062  0.9180  0.2651
    2MOL0     C  206  10.931   5.667   2.393  0.5478 -0.4119 -0.8755
    2MOL0     H  207  11.275   6.044   2.624  1.6117 -0.4336  1.7503
    2MOL0     H  208  11.467   6.030   2.799  1.4972 -0.3271  0.1898
    2MOL0     H  209  11.814   5.743   2.730 -0.7913 -0.0301 -1.7199
    2MOL0     H  210  11.691   5.675   2.835 -1.2493  1.3531  0.6809
    2MOL0     H  211  11.774   5.790   3.034  1.5798 -2.5784  1.5923
    2MOL0     H  212  11.906   5.721   2.947  0.0492  1.1478  1.6364
    2MOL0     H  213  11.951   5.930   2.820  3.0228  1.4721  0.7454
    2MOL0     H  214  11.870   6.008   2.964 -2.2409  0.1528 -2.3322
    2MOL0     H  215  12.043   5.895   3.108 -3.6881 -0.5634 -0.7067
    2MOL0     H  216  12.120   5.833   2.949 -2.4434 -0.8932 -2.4823
    2MOL0     H  217  12.086   6.135   3.012  0.7853  0.1891 -0.3096
    2MOL0     H  218  12.157   6.054   2.874  0.1161  0.5865  0.3957
    2MOL0     H  219  12.245   6.017   3.157 -1.7673 -2.3512 -0.1762
    2MOL0     H  220  12.311   5.929   3.023  0.0110  0.0541 -0.7951
    2MOL0     H  221  12.471   6.101   3.095  0.4092  2.5632  0.5850
    2MOL0     H  222  12.348   6.222   3.085 -1.9383  0.8301 -2.4931
    2MOL0     H  223  12.411   6.076   2.834  0.8836 -1.8570  2.2964
    2MOL0     H  224  12.362   6.244   2.850  1.3392 -0.3066 -1.3668
    2MOL0     H  225  12.548   6.430   2.957 -0.4217 -0.5716 -1.0154
    2MOL0     H  226  12.813   6.561   2.872  2.1794 -1.3299 -2.7300
    2MOL0     H  227  12.934   6.446   2.864  1.1535  1.5097  1.3508
    2MOL0     H  228  12.929   6.569   3.097  0.3558  0.7788 -1.9504
    2MOL0     H  229  12.767   6.502   3.107 -1.1417 -1.7286 -1.4814
    2MOL0     H  230  12.949   6.404   3.255  0.8340  0.0401  0.4975
    2MOL0     H  231  12.854   6.282   3.157  2.0351 -1.5819 -0.6688
    2MOL0     H  232  13.070   6.215   3.145 -0.2332  1.6043  2.3022
    2MOL0     H  233  13.016   6.279   2.988  0.1783 -0.5519 -0.5607
    2MOL0     H  234  13.215   6.141   2.978  0.2812 -0.6506  2.0110
    2MOL0     H  235  13.489   5.949   3.019 -1.8116  2.2636  2.6280
    2MOL0     H  236  13.504   6.019   2.851 -0.1322  1.5097 -0.2970
    2MOL0     H  237  13.341   5.974   2.915 -0.3968  0.6406  0.4357
    2MOL0     H  238  13.947   6.116   2.946 -2.7371  0.2754 -0.0712
    2MOL0     H  239  14.171   6.144   2.933 -2.5768 -2.1435  1.7362
    2MOL0     H  240  14.414   6.191   2.960  0.1018 -0.6334 -0.6761
    2MOL0     H  241  14.377   6.314   2.841  1.1371  2.6825  0.4171
    2MOL0     H  242  14.610   6.296   2.899  0.7561 -0.0621  0.2160
    2MOL0     H  243  14.539   6.458   2.933 -1.3771  0.7559  2.3618
    2MOL0     H  244  14.592   6.237   3.143 -0.1725  0.7576  2.4689
    2MOL0     H  245  14.530   6.393   3.170 -0.9611 -2.5433 -0.4459
    2MOL0     H  246  14.746   6.494   3.088 -0.8374  0.1103  0.0448
    2MOL0     H  247  14.801   6.328   3.056  2.1050  2.1572 -0.1349
    2MOL0     H  248  14.764   6.467   3.323  0.3591 -1.0077  1.7977
    2MOL0     H  249  14.720   6.295   3.315 -0.1144  1.0997  0.6463
    2MOL0     H  250  14.943   6.234   3.250 -2.4172 -0.0919  0.6048
    2MOL0     H  251  14.938   6.312   3.403  0.8616  0.0187  0.2801
    2MOL0     H  252  14.983   6.544   3.272  0.9132  0.2214  0.4598
    2MOL0     H  253  14.989   6.448   3.131 -1.8254  3.4306  1.2069
    2MOL0     H  254  15.178   6.424   3.373 -1.7264  2.1980 -0.7004
    2MOL0     H  255  15.221   6.502   3.213 -1.2447  0.9440 -1.8007
    2MOL0     H  256  14.136   6.545   3.103 -2.8020  0.3261  3.1130
    2MOL0     H  257  13.883   6.502   3.118 -3.0924 -1.7420  0.0339
    2MOL0     H  258  13.587   6.417   3.144 -1.0223  0.1869  1.3098
    2MOL0     H  259  13.368   6.491   3.159  1.2855  1.0005 -3.8805
    2MOL0     H  260  11.661   5.725   2.576  0.8617  0.4287  0.4328
    2MOL0     H  261  11.487   5.741   2.402  1.0242  0.6948 -0.5010
    2MOL0     H  262  11.198   5.994   2.194 -0.1163 -0.4376  0.3275
    2MOL0     H  263  11.023   6.051   2.029 -0.8132  0.9411  1.4674
    2MOL0     H  264  10.731   5.748   1.935  0.1760  1.2403 -2.9093
    2MOL0     H  265  10.625   5.850   2.050  1.1714 -0.9024  0.0702
    2MOL0     H  266  10.562   5.804   1.793  0.2746  0.6428  0.1958
    2MOL0     H  267  10.687   5.926   1.759 -2.5065 -0.0737 -2.5485
    2MOL0     H  268  10.433   5.947   1.920 -1.0817 -3.1320 -2.2626
    2MOL0     H  269  10.528   6.092   1.894 -0.3264 -0.2403 -0.0247
    2MOL0     H  270  10.342   6.112   1.771  1.5622  1.6871 -0.6313
    2MOL0     H  271  10.344   5.945   1.710 -2.4589  1.5838  0.5858
    2MOL0     H  272  10.587   6.197   1.440 -0.8960  3.6836  0.4760
    2MOL0     H  273  10.768   5.743   2.191  0.8325  0.0402 -1.9049
    2MOL0     H  274  10.934   5.715   2.491 -0.3788  0.3292 -1.1870
    2MOL0     H  275  10.835   5.621   2.366  0.8012 -1.1358 -0.5658
    2MOL0     H  276  11.010   5.591   2.390  1.7222  0.7195  0.2111
    3MOL0     O  277   2.526   2.709   6.202 -0.5302 -0.0869 -0.5572
    3MOL0     C  278   2.469   2.808   6.239  0.7787  0.5877 -0.4846
    3MOL0     O  279   2.510   2.902   6.332  0.6881  0.9502  0.2319
    3MOL0     C  280   2.629   2.905   6.394 -0.9701 -0.2053 -0.1693
    3MOL0     C  281   2.678   3.035   6.428  0.0542  0.7080  0.6547
    3MOL0     C  282   2.799   3.042   6.488 -0.4904  0.0937 -0.2613
    3MOL0     C  283   2.873   2.926   6.515  0.0541  0.2171  0.9761
    3MOL0     O  284   2.991   2.942   6.588 -0.2897 -0.0332 -0.1232
    3MOL0     C  285   3.104   2.879   6.519 -0.6535 -0.1995 -0.3345
    3MOL0     C  286   3.228   2.974   6.499  0.0134  0.9039 -0.2830
    3MOL0     C  287   3.183   3.117   6.448 -0.3197  0.3379 -0.1396
    3MOL0     C  288   3.111   3.112   6.316 -0.2236 -0.3996  0.7233
    3MOL0     C  289   3.036   3.245   6.288  0.1415 -0.0218  0.4708
    3MOL0     C  290   3.136   3.344   6.235  0.1699 -0.1887 -0.5579
    3MOL0     C  291   3.057   3.470   6.189  0.2597 -0.6567  0.1114
    3MOL0     C  292   2.983   3.458   6.066  0.3584 -0.0090 -0.0608
    3MOL0     N  293   3.068   3.401   5.961 -0.9410  0.8074  0.0226
    3MOL0     C  294   3.071   3.279   5.913 -0.3320 -0.4238  0.1530
    3MOL0     C  295   3.158   3.268   5.805  0.1028 -0.1545 -0.2833
    3MOL0     C  296   3.181   3.153   5.711 -0.0443  0.3841  0.5282
    3MOL0     C  297   3.314   3.079   5.746 -0.5171 -0.3953 -0.1617
    3MOL0     C  298   3.449   3.161   5.733 -0.3873 -0.2197  0.6337
    3MOL0     C  299   3.469   3.225   5.601 -0.7164 -0.6731  0.9475
    3MOL0     O  300   3.596   3.289   5.581 -0.0878 -0.1215  0.5967
    3MOL0     C  301   3.613   3.413   5.628  0.0641 -0.0893 -1.0401
    3MOL0     C  302   3.506   3.495   5.673 -0.1725  0.5457 -0.2056
    3MOL0     C  303   3.528   3.625   5.722  0.0938  0.2039 -1.1244
    3MOL0     C  304   3.406   3.701   5.768  0.2723 -0.4220 -0.5762
    3MOL0     C  305   3.658   3.676   5.728  0.0488  0.4424  1.0888
    3MOL0     C  306   3.698   3.798   5.791 -0.0673  0.0736  1.0256
    3MOL0     O  307   3.814   3.861   5.762 -0.9213 -0.3009  0.0344
    3MOL0     C  308   3.855   3.956   5.845  1.0098 -1.0094 -0.0677
    3MOL0     C  309   3.865   3.940   5.985 -1.0258  0.4473  0.2111
    3MOL0     C  310   3.903   4.046   6.066  0.0308  0.0132  0.0184
    3MOL0     C  311   3.940   4.173   6.008 -0.2866  0.1603 -0.9225
    3MOL0     O  312   3.985   4.278   6.087 -0.5864  0.0526  0.5063
    3MOL0     C  313   3.993   4.267   6.230  0.5198  0.4115  0.7274
    3MOL0     C  314   4.114   4.184   6.276  0.4525  1.1619  0.3702
    3MOL0     C  315   4.241   4.249   6.265  0.4016  0.2417  0.6398
    3MOL0     C  316   4.355   4.163   6.310 -0.0149 -0.0730 -0.5406
    3MOL0     C  317   4.501   4.215   6.320 -0.0051  0.1810 -0.0345
    3MOL0     C  318   4.564   4.249   6.182 -0.3759 -0.4287 -0.1678
    3MOL0     C  319   4.712   4.298   6.193 -0.1005 -0.6507 -0.2587
    3MOL0     C  320   4.782   4.267   6.060 -0.1585 -0.6981  0.2729
    3MOL0    Cl  321   4.692   4.328   5.918 -0.1841 -0.0364 -0.2062
    3MOL0     C  322   3.944   4.194   5.878  0.0340 -0.1741  0.1110
    3MOL0     C  323   3.904   4.084   5.800  0.6641 -0.4443 -0.9023
    3MOL0     O  324   3.623   3.828   5.880  0.2890 -0.1565 -0.3644
    3MOL0     C  325   3.766   3.605   5.668 -0.3116 -0.3063 -0.0177
    3MOL0     C  326   3.740   3.475   5.621  0.4467  0.1886  0.4434
    3MOL0     N  327   3.218   3.397   5.805 -0.0352  0.6511 -0.4482
    3MOL0     N  328   3.161   3.470   5.901 -0.3998 -0.3839  0.2841
    3MOL0     C  329   2.816   2.799   6.497  0.1111  0.8547 -1.1430
    3MOL0     C  330   2.691   2.787   6.426  0.2501 -0.3253 -1.2403
    3MOL0     C  331   2.331   2.846   6.184 -0.5135 -0.7609 -1.1478
    3MOL0     C  332   2.249   2.935   6.258  0.7031  0.9368 -0.8302
    3MOL0     C  333   2.117   2.960   6.220  0.1530  0.4442 -0.3499
    3MOL0     C  334   2.059   2.897   6.108  0.5802 -0.4583  0.6999
    3MOL0     O  335   1.927   2.916   6.078 -0.0758  0.2860 -0.3693
    3MOL0     C  336   1.895   2.962   5.946 -0.0631  0.1246  0.3073
    3MOL0     C  337   1.859   3.107   5.946 -0.6145 -0.0502 -0.4268
    3MOL0     C  338   1.717   3.135   5.989 -0.0252 -0.6555 -0.0705
    3MOL0     C  339   1.725   3.279   6.038  0.6093 -0.6715 -0.0513
    3MOL0     C  340   1.776   3.308   6.174  0.5176 -0.3075  0.5206
    3MOL0     C  341   1.808   3.326   6.288  0.0346 -0.3510 -0.0190
    3MOL0     C  342   2.141   2.804   6.037 -0.1573  0.2566  0.2677
    3MOL0     C  343   2.277   2.788   6.068 -0.3992  0.0201 -0.5724
    3MOL0     C  344   2.356   2.704   5.977 -1.5443  0.5984 -0.2748
    3MOL0     H  345   2.621   3.125   6.403  0.3227  0.8143  0.4169
    3MOL0     H  346   2.847   3.129   6.531 -1.6527  0.5965  0.0368
    3MOL0     H  347   3.069   2.831   6.427 -3.0100 -1.2581  1.0189
    3MOL0     H  348   3.137   2.797   6.582  0.8611 -0.0359 -0.8707
    3MOL0     H  349   3.276   2.976   6.597 -1.8612  0.0788  0.6820
    3MOL0     H  350   3.289   2.923   6.423 -1.0531  0.0002 -0.5534
    3MOL0     H  351   3.113   3.167   6.516 -0.2050  2.1211 -1.2493
    3MOL0     H  352   3.273   3.177   6.437  0.2955 -0.6204 -0.4443
    3MOL0     H  353   3.182   3.092   6.235 -2.5011  2.3215 -2.2271
    3MOL0     H  354   3.034   3.034   6.314 -0.0297 -0.5864  0.2688
    3MOL0     H  355   2.980   3.293   6.370  0.1491  2.2392 -0.7871
    3MOL0     H  356   2.961   3.221   6.212  0.7924  0.5005 -0.3487
    3MOL0     H  357   3.200   3.383   6.315  1.2139  1.8559 -2.2906
    3MOL0     H  358   3.207   3.300   6.165 -1.2213 -2.6494 -0.5255
    3MOL0     H  359   3.127   3.554   6.177  1.4603 -1.3492  1.7483
    3MOL0     H  360   2.986   3.490   6.269  1.0847 -2.4140  1.3545
    3MOL0     H  361   2.891   3.401   6.078 -2.4620  4.2792  0.8773
    3MOL0     H  362   2.942   3.551   6.025 -0.6934  0.0285  1.0340
    3MOL0     H  363   3.004   3.196   5.935  3.0922 -3.6416 -0.4583
    3MOL0     H  364   3.187   3.190   5.608 -0.3249 -1.4305 -0.1794
    3MOL0     H  365   3.088   3.095   5.715 -1.2426  2.2926  1.7662
    3MOL0     H  366   3.314   3.056   5.853 -1.6635  0.6289  0.0784
    3MOL0     H  367   3.330   2.986   5.691  1.2681  0.5311 -1.3371
    3MOL0     H  368   3.446   3.228   5.819 -1.8866 -2.1627  2.2262
    3MOL0     H  369   3.537   3.099   5.754  0.7707  0.9338 -0.6374
    3MOL0     H  370   3.469   3.141   5.530 -2.3626 -0.4440  0.6153
    3MOL0     H  371   3.391   3.297   5.575  1.4412  1.5792  0.3429
    3MOL0     H  372   3.399   3.477   5.661 -0.0039  0.2129 -1.3281
    3MOL0     H  373   3.404   3.801   5.721  2.1801  0.3141  0.7823
    3MOL0     H  374   3.421   3.718   5.875 -1.5133  4.3765 -0.8322
    3MOL0     H  375   3.311   3.653   5.742 -1.3068  2.9507 -1.6144
    3MOL0     H  376   3.847   3.838   6.020 -0.2575  0.2104 -0.0665
    3MOL0     H  377   3.912   4.023   6.172  0.6718 -3.7128 -0.7166
    3MOL0     H  378   4.004   4.371   6.264  1.9735  1.8338 -3.4421
    3MOL0     H  379   3.897   4.233   6.271 -0.1384  2.6064  1.1446
    3MOL0     H  380   4.089   4.161   6.380 -4.9847  1.3407 -0.6232
    3MOL0     H  381   4.115   4.087   6.223 -2.2585 -1.6672  4.8246
    3MOL0     H  382   4.233   4.338   6.329 -2.0393 -0.6023  1.6131
    3MOL0     H  383   4.262   4.282   6.162 -1.2506 -0.8975 -0.1017
    3MOL0     H  384   4.361   4.076   6.244 -1.3471 -0.1813 -0.5487
    3MOL0     H  385   4.324   4.132   6.410 -0.5336  1.6825 -0.1242
    3MOL0     H  386   4.505   4.305   6.382 -0.2910 -0.5753  1.1081
    3MOL0     H  387   4.560   4.136   6.367 -0.3686 -0.0022  0.1093
    3MOL0     H  388   4.505   4.334   6.146  2.9261  1.5255 -1.3539
    3MOL0     H  389   4.561   4.178   6.099 -0.6103  1.5033 -1.8950
    3MOL0     H  390   4.771   4.243   6.267  1.6337  2.0979  0.5480
    3MOL0     H  391   4.713   4.405   6.215 -0.3515 -0.6648 -0.1654
    3MOL0     H  392   4.803   4.160   6.061 -1.8312 -1.1018  2.6769
    3MOL0     H  393   4.881   4.313   6.060  0.5094 -2.0213 -1.6484
    3MOL0     H  394   3.984   4.289   5.843  0.5699 -1.5353 -3.2906
    3MOL0     H  395   3.904   4.105   5.694  2.4626 -0.7467 -0.9983
    3MOL0     H  396   3.864   3.647   5.648 -0.0898 -1.0329 -0.4866
    3MOL0     H  397   3.827   3.437   5.568 -1.1876  0.5504 -2.6854
    3MOL0     H  398   2.856   2.717   6.556 -1.8769  1.2555  0.8883
    3MOL0     H  399   2.651   2.690   6.401 -2.8834  0.9204 -1.5926
    3MOL0     H  400   2.271   2.967   6.359 -2.9565 -0.7196  0.6552
    3MOL0     H  401   2.052   3.028   6.275  1.0021  1.8177 -0.9917
    3MOL0     H  402   1.968   2.959   5.865 -0.8751  0.8919 -0.4736
    3MOL0     H  403   1.816   2.902   5.901 -0.2920  0.7477 -0.1449
    3MOL0     H  404   1.872   3.155   5.849 -2.1588  1.8960  0.2626
    3MOL0     H  405   1.934   3.156   6.010 -0.6803  0.1493 -0.5021
    3MOL0     H  406   1.645   3.127   5.908 -0.0390  3.4532 -0.6690
    3MOL0     H  407   1.684   3.063   6.065  0.6674 -2.1790 -1.1619
    3MOL0     H  408   1.620   3.308   6.038  0.6954 -0.0943 -2.7755
    3MOL0     H  409   1.778   3.338   5.962 -0.0828  1.2692  0.9116
    3MOL0     H  410   1.827   3.328   6.393 -3.1227 -5.3794  1.0058
    3MOL0     H  411   2.097   2.745   5.957  1.3887 -1.6455  0.7411
    3MOL0     H  412   2.461   2.734   5.972 -1.7094  1.8627  2.3349
    3MOL0     H  413   2.349   2.597   6.000  1.7281  0.6434  1.6071
    3MOL0     H  414   2.319   2.722   5.876 -1.4446  0.8198 -0.2724
    4MOL0     O  415   4.756   3.969   2.472 -0.0390 -0.0303 -0.6572
    4MOL0     C  416   4.788   3.903   2.571 -0.0864  0.2612 -0.5633
    4MOL0     O  417   4.917   3.862   2.594 -0.1373 -0.2009  0.3779
    4MOL0     C  418   5.017   3.910   2.522 -0.1465  0.2787  0.8488
    4MOL0     C  419   5.061   4.041   2.531 -1.1255 -0.6116 -0.3325
    4MOL0     C  420   5.155   4.098   2.439  0.5320 -0.1958 -0.3963
    4MOL0     C  421   5.218   4.016   2.345  0.2202 -0.1916  0.5801
    4MOL0     O  422   5.322   4.078   2.280 -0.8197  0.2569 -0.4761
    4MOL0     C  423   5.412   3.995   2.198 -0.1638  0.5065 -0.2807
    4MOL0     C  424   5.510   4.086   2.120  0.5120  0.5356 -0.6209
    4MOL0     C  425   5.615   4.015   2.043  0.8610 -0.2235  0.0707
    4MOL0     C  426   5.677   4.113   1.949  0.4019  0.6860 -0.1629
    4MOL0     C  427   5.813   4.067   1.891 -0.3962  0.5374  0.3052
    4MOL0     C  428   5.883   4.174   1.799 -0.8045 -0.0209  0.5263
    4MOL0     C  429   5.815   4.181   1.661  0.6445  0.3769 -0.6331
    4MOL0     C  430   5.840   4.310   1.587 -0.0448  0.2456 -0.7500
    4MOL0     N  431   5.973   4.309   1.534  0.3059 -0.6882  0.3879
    4MOL0     C  432   6.018   4.413   1.457 -0.0510  0.2526 -0.1878
    4MOL0     C  433   6.137   4.369   1.401  0.6490 -0.0660  0.6633
    4MOL0     C  434   6.235   4.425   1.302 -0.0230  0.6077  0.4747
    4MOL0     C  435   6.319   4.534   1.361  0.4360 -0.3159  0.6268
    4MOL0     C  436   6.387   4.623   1.253  0.4983  0.2300  0.2800
    4MOL0     C  437   6.465   4.736   1.323  0.4602 -0.0931 -0.7123
    4MOL0     O  438   6.581   4.688   1.395  0.0683 -0.3678 -0.6951
    4MOL0     C  439   6.701   4.737   1.352  0.2181  0.9383  0.3336
    4MOL0     C  440   6.735   4.854   1.281 -0.2673  0.3317  0.5049
    4MOL0     C  441   6.870   4.895   1.279  0.1811  0.2230  0.9226
    4MOL0     C  442   6.897   5.043   1.254 -0.3828  0.6109 -0.5936
    4MOL0     C  443   6.980   4.810   1.312  0.3815  0.4494  0.1008
    4MOL0     C  444   7.120   4.833   1.296  0.4562 -0.3229 -0.0565
    4MOL0     O  445   7.202   4.747   1.355 -0.1249 -0.2037 -0.2408
    4MOL0     C  446   7.337   4.775   1.359  0.0409 -0.5854  0.1603
    4MOL0     C  447   7.378   4.897   1.419 -0.4817 -0.3698 -0.4804
    4MOL0     C  448   7.516   4.924   1.449  0.0349 -0.1088  0.1473
    4MOL0     C  449   7.615   4.838   1.390  0.0222  0.1389  0.3099
    4MOL0     O  450   7.749   4.880   1.403 -0.2365 -0.2970  0.1553
    4MOL0     C  451   7.853   4.803   1.345  0.8778 -0.5655  0.0151
    4MOL0     C  452   7.983   4.847   1.397  0.5212 -0.7503 -0.7432
    4MOL0     C  453   8.095   4.739   1.377 -0.0611 -0.8246 -0.9793
    4MOL0     C  454   8.230   4.793   1.355 -0.3711 -0.0442  0.0267
    4MOL0     C  455   8.323   4.677   1.340  0.4667  0.8294 -0.3161
    4MOL0     C  456   8.458   4.728   1.324 -0.3080  0.1348 -0.2906
    4MOL0     C  457   8.550   4.603   1.304  0.1907 -0.3516  0.6738
    4MOL0     C  458   8.695   4.642   1.286  0.5692 -0.9303 -0.1574
    4MOL0    Cl  459   8.720   4.715   1.122  0.1164 -0.2885  0.2045
    4MOL0     C  460   7.567   4.722   1.322  0.2690  0.5963 -0.5803
    4MOL0     C  461   7.436   4.687   1.308  0.9372  0.5574  0.0160
    4MOL0     O  462   7.157   4.922   1.217  0.5369 -0.2568  0.0201
    4MOL0     C  463   6.940   4.685   1.364  0.0003  0.4726 -0.6102
    4MOL0     C  464   6.804   4.650   1.385 -0.1642 -0.7383  0.4604
    4MOL0     N  465   6.159   4.247   1.454 -0.5779  0.2055 -0.1243
    4MOL0     N  466   6.066   4.210   1.537  0.7262  0.1141 -0.1516
    4MOL0     C  467   5.186   3.879   2.345 -0.4456  0.7528 -0.7195
    4MOL0     C  468   5.085   3.828   2.430 -0.1322 -0.1231  0.2631
    4MOL0     C  469   4.681   3.854   2.662 -0.5216  0.0155  0.0960
    4MOL0     C  470   4.718   3.819   2.793 -0.0521  0.5450 -0.3688
    4MOL0     C  471   4.624   3.763   2.880  0.3224 -0.3068  0.1781
    4MOL0     C  472   4.495   3.737   2.837 -0.9419  0.5164 -0.5086
    4MOL0     O  473   4.406   3.673   2.917 -0.2988 -0.3426  0.4950
    4MOL0     C  474   4.445   3.610   3.038  0.0610  0.4423 -0.5172
    4MOL0     C  475   4.332   3.532   3.087  1.0034  0.0461  0.4560
    4MOL0     C  476   4.212   3.610   3.142 -0.4550 -0.3500  0.0073
    4MOL0     C  477   4.109   3.658   3.035 -0.2759  0.0629 -0.5411
    4MOL0     C  478   4.017   3.766   3.078 -0.6186  0.0235 -0.7332
    4MOL0     C  479   3.962   3.864   3.122  0.5046  0.4082 -0.2065
    4MOL0     C  480   4.457   3.765   2.706 -0.3137  0.7583 -0.9902
    4MOL0     C  481   4.551   3.823   2.623  0.6241  0.2068  0.9081
    4MOL0     C  482   4.499   3.847   2.480 -0.1069 -0.3583  0.1304
    4MOL0     H  483   5.015   4.106   2.605 -0.7685 -0.1811 -0.4863
    4MOL0     H  484   5.184   4.202   2.429  3.8145 -0.7708  1.8375
    4MOL0     H  485   5.361   3.931   2.126  0.0494  0.7470 -0.6469
    4MOL0     H  486   5.467   3.927   2.265 -3.0890  1.5120  3.4772
    4MOL0     H  487   5.454   4.146   2.047 -0.4001  1.2783  0.6341
    4MOL0     H  488   5.553   4.152   2.197  0.0074  2.3853 -1.8478
    4MOL0     H  489   5.686   3.976   2.117 -0.4179  1.3506  2.2541
    4MOL0     H  490   5.564   3.936   1.986 -0.3621 -0.3494  1.2813
    4MOL0     H  491   5.604   4.110   1.867 -1.4359 -0.8878  1.4383
    4MOL0     H  492   5.684   4.209   2.001  0.9877  1.3679 -1.4386
    4MOL0     H  493   5.813   3.977   1.829  4.4600 -0.2472  0.9882
    4MOL0     H  494   5.880   4.035   1.972 -1.3049  0.0203  0.8629
    4MOL0     H  495   5.876   4.270   1.852  1.3496  1.1602 -1.1944
    4MOL0     H  496   5.990   4.154   1.787 -0.6325  1.5304 -0.8470
    4MOL0     H  497   5.707   4.173   1.673  0.7032 -0.8081 -0.8149
    4MOL0     H  498   5.840   4.094   1.600 -1.1702 -1.6830  1.3837
    4MOL0     H  499   5.765   4.315   1.507  0.5205  1.8082 -1.2305
    4MOL0     H  500   5.831   4.391   1.660 -1.3444  0.1069 -0.7376
    4MOL0     H  501   5.971   4.510   1.443 -0.2510  0.4101  1.3729
    4MOL0     H  502   6.178   4.455   1.213  2.3828  2.2919 -0.6186
    4MOL0     H  503   6.309   4.348   1.278  0.1035  0.8705 -0.0133
    4MOL0     H  504   6.252   4.597   1.421 -0.1729 -0.4580  0.1156
    4MOL0     H  505   6.395   4.495   1.429  0.9340 -3.0429 -1.3606
    4MOL0     H  506   6.461   4.572   1.190  2.9668  3.9078 -0.1176
    4MOL0     H  507   6.317   4.670   1.184  0.9358  0.4462 -0.0235
    4MOL0     H  508   6.495   4.812   1.251 -0.8206  1.9622  0.7996
    4MOL0     H  509   6.398   4.794   1.387  0.4409 -1.1362  0.2401
    4MOL0     H  510   6.657   4.915   1.237  1.0592  1.5640 -0.2290
    4MOL0     H  511   6.893   5.054   1.145  0.2180 -4.0817 -1.2927
    4MOL0     H  512   6.993   5.073   1.296  0.3277 -0.9328 -1.0497
    4MOL0     H  513   6.812   5.091   1.305 -1.0697 -2.5079  1.4211
    4MOL0     H  514   7.306   4.974   1.443  1.0109  0.6726  0.8023
    4MOL0     H  515   7.539   5.017   1.501 -0.5976 -0.1034  0.4307
    4MOL0     H  516   7.838   4.698   1.370 -1.0926 -0.7548 -1.6905
    4MOL0     H  517   7.871   4.816   1.238  1.8360  1.3739  0.3792
    4MOL0     H  518   8.014   4.938   1.345 -0.5990  0.5264  0.7058
    4MOL0     H  519   7.979   4.872   1.504  1.0472  2.2557 -1.3420
    4MOL0     H  520   8.070   4.678   1.290  1.3372  0.8097 -2.5918
    4MOL0     H  521   8.098   4.675   1.466 -0.5959  0.6265  0.1249
    4MOL0     H  522   8.262   4.858   1.437 -3.7229  0.0222  1.4274
    4MOL0     H  523   8.222   4.858   1.267  0.2397 -0.5719 -0.4332
    4MOL0     H  524   8.329   4.607   1.424  1.3179 -0.6527 -1.5511
    4MOL0     H  525   8.274   4.620   1.261 -2.5897  1.1024  1.2595
    4MOL0     H  526   8.489   4.781   1.414  1.9034 -0.7932 -0.4476
    4MOL0     H  527   8.461   4.804   1.245  1.3596  0.5139  0.0979
    4MOL0     H  528   8.527   4.549   1.211  1.6702 -2.5922  1.5345
    4MOL0     H  529   8.538   4.535   1.389  2.2281 -1.3353  0.2394
    4MOL0     H  530   8.764   4.558   1.291  1.6483 -0.0432  0.4337
    4MOL0     H  531   8.723   4.705   1.371  0.3002 -2.0607  0.7924
    4MOL0     H  532   7.631   4.646   1.279 -2.4413 -3.2039  1.4824
    4MOL0     H  533   7.410   4.587   1.277  2.8127  0.8543 -2.7893
    4MOL0     H  534   7.016   4.609   1.375 -0.1161  0.3242 -0.8205
    4MOL0     H  535   6.777   4.550   1.416  1.6269 -1.6573 -0.8096
    4MOL0     H  536   5.247   3.813   2.283  1.1820  0.0768  1.4721
    4MOL0     H  537   5.052   3.725   2.423 -0.8057 -0.2879  3.9346
    4MOL0     H  538   4.810   3.855   2.839 -0.9451  1.6299  0.6275
    4MOL0     H  539   4.662   3.748   2.980 -2.4348  0.9528  1.5438
    4MOL0     H  540   4.524   3.535   3.026  0.1898  0.3040  1.0591
    4MOL0     H  541   4.481   3.690   3.103  1.0048 -0.1509 -0.2914
    4MOL0     H  542   4.367   3.476   3.174  0.7614 -2.0936 -0.7726
    4MOL0     H  543   4.297   3.461   3.012 -0.0052  0.2189  0.7562
    4MOL0     H  544   4.159   3.545   3.212 -1.6995  0.9818  0.3465
    4MOL0     H  545   4.246   3.691   3.206  1.9973 -0.7808 -0.6502
    4MOL0     H  546   4.068   3.566   2.993  0.1431 -0.6663  0.5918
    4MOL0     H  547   4.165   3.713   2.958 -1.0057  1.1352 -0.3204
    4MOL0     H  548   3.923   3.953   3.166  0.4783 -1.6047  4.4364
    4MOL0     H  549   4.353   3.739   2.685 -0.8680  0.5442  1.6020
    4MOL0     H  550   4.396   3.811   2.471 -1.0331  2.4728 -1.9918
    4MOL0     H  551   4.496   3.956   2.471  0.4251 -0.5146 -2.9758
    4MOL0     H  552   4.561   3.805   2.401  1.0343 -1.1535  1.4134
    5MOL0     O  553   2.243   7.573   0.009 -0.2656  0.3341 -0.3671
    5MOL0     C  554   2.296   7.612  -0.096  0.8246  0.9143  0.6374
    5MOL0     O  555   2.297   7.740  -0.132 -0.4669 -0.1583 -0.0563
    5MOL0     C  556   2.358   7.777  -0.250  0.4036 -0.4447 -0.3363
    5MOL0     C  557   2.284   7.869  -0.324  0.8528  0.0087 -0.1914
    5MOL0     C  558   2.334   7.933  -0.435 -0.3823  0.4914  0.2685
    5MOL0     C  559   2.470   7.925  -0.460  0.4170  0.5798  0.0352
    5MOL0     O  560   2.512   7.997  -0.567 -0.6819  0.1947  0.5192
    5MOL0     C  561   2.615   8.094  -0.547  0.6908  0.3370 -0.2770
    5MOL0     C  562   2.641   8.194  -0.664  0.2946 -0.0192 -0.7086
    5MOL0     C  563   2.742   8.133  -0.760  0.1332 -0.4688  0.0235
    5MOL0     C  564   2.730   8.202  -0.898  0.4950  0.0103 -0.5134
    5MOL0     C  565   2.862   8.195  -0.991 -0.5110 -0.6096 -0.1952
    5MOL0     C  566   2.996   8.242  -0.922 -0.0502  0.0046  0.6393
    5MOL0     C  567   3.095   8.306  -1.025 -0.3254  0.0531  0.3426
    5MOL0     C  568   3.140   8.209  -1.137 -0.1911  0.2569 -0.8636
    5MOL0     N  569   3.224   8.112  -1.075  0.3744  0.2535 -0.8192
    5MOL0     C  570   3.179   7.996  -1.030  0.5788 -0.0926  0.6616
    5MOL0     C  571   3.290   7.924  -1.014  0.4885  0.4589 -0.0481
    5MOL0     C  572   3.303   7.779  -0.963 -0.4487  0.1027  0.2343
    5MOL0     C  573   3.438   7.719  -0.931 -0.1357  0.3782  0.5855
    5MOL0     C  574   3.439   7.567  -0.919  0.6491  1.0656 -0.5198
    5MOL0     C  575   3.364   7.515  -0.790 -0.5096  0.1610 -0.3650
    5MOL0     O  576   3.322   7.377  -0.795 -0.0042  0.1464  0.2015
    5MOL0     C  577   3.256   7.319  -0.694 -0.4259  0.3150 -0.4502
    5MOL0     C  578   3.200   7.190  -0.702 -0.9304 -0.1138  0.5097
    5MOL0     C  579   3.139   7.116  -0.604 -0.2406 -0.6977 -0.3321
    5MOL0     C  580   3.087   6.977  -0.633  0.0062  0.2890  0.5887
    5MOL0     C  581   3.127   7.187  -0.479 -0.2198 -0.7159  0.4883
    5MOL0     C  582   3.040   7.131  -0.373  0.1335  0.4377  0.0541
    5MOL0     O  583   3.066   7.180  -0.252 -0.1287 -0.8941 -0.5749
    5MOL0     C  584   3.005   7.133  -0.142 -0.4200  0.6456  0.5164
    5MOL0     C  585   3.069   7.026  -0.080 -0.6140  0.0044  1.1709
    5MOL0     C  586   3.018   6.975   0.037 -0.2248  0.5014  0.0510
    5MOL0     C  587   2.901   7.023   0.092  0.3348  0.0113  0.1329
    5MOL0     O  588   2.843   6.973   0.213 -0.4026  0.2127  0.8008
    5MOL0     C  589   2.915   6.859   0.276  0.6777 -0.2557  0.8867
    5MOL0     C  590   2.826   6.804   0.388 -0.2574  0.9402 -0.1162
    5MOL0     C  591   2.786   6.899   0.502 -0.3613  0.1946  0.3227
    5MOL0     C  592   2.682   6.829   0.594 -0.3685 -0.1183 -1.6678
    5MOL0     C  593   2.646   6.933   0.713 -0.4136  0.5848  0.1297
    5MOL0     C  594   2.573   6.857   0.832  0.8262 -0.3256 -0.1758
    5MOL0     C  595   2.592   6.924   0.971  0.1357 -0.2233  0.2263
    5MOL0     C  596   2.487   7.011   1.020 -0.4795  0.4079 -0.4843
    5MOL0    Cl  597   2.465   7.148   0.897 -0.1809 -0.1714 -0.2475
    5MOL0     C  598   2.830   7.124   0.029  0.1205 -0.5878  0.7927
    5MOL0     C  599   2.884   7.190  -0.083 -0.4843  0.3086 -0.1191
    5MOL0     O  600   2.939   7.069  -0.399 -0.2068 -0.3058 -0.3419
    5MOL0     C  601   3.183   7.317  -0.464  1.3280  0.0041  0.9544
    5MOL0     C  602   3.235   7.389  -0.569 -0.0076  0.2232 -0.2072
    5MOL0     N  603   3.395   7.994  -1.072 -0.0847  0.3175  0.3915
    5MOL0     N  604   3.354   8.102  -1.115 -0.6525 -0.4593 -0.1446
    5MOL0     C  605   2.546   7.825  -0.392  0.1401  0.1404 -0.3537
    5MOL0     C  606   2.488   7.753  -0.279 -0.5152  0.0495 -0.3345
    5MOL0     C  607   2.297   7.505  -0.199 -0.5790 -0.0101 -0.0601
    5MOL0     C  608   2.205   7.506  -0.302 -1.3090  0.2680 -0.5326
    5MOL0     C  609   2.201   7.404  -0.401 -0.1582 -0.0247  0.0947
    5MOL0     C  610   2.288   7.297  -0.385  0.0901 -0.4424 -0.9947
    5MOL0     O  611   2.296   7.192  -0.474 -0.2236  0.3564 -0.4738
    5MOL0     C  612   2.194   7.153  -0.565 -0.1280  0.8150 -0.3082
    5MOL0     C  613   2.201   6.997  -0.577 -1.3352 -0.5070  0.3890
    5MOL0     C  614   2.162   6.928  -0.450 -0.1496 -0.0661  0.1108
    5MOL0     C  615   2.135   6.782  -0.460  0.8892 -0.0477 -0.0529
    5MOL0     C  616   2.240   6.695  -0.512 -0.0676 -0.3548  1.1421
    5MOL0     C  617   2.331   6.625  -0.554  0.1257  0.1379 -0.8766
    5MOL0     C  618   2.384   7.296  -0.288 -0.9679 -0.5393 -0.6377
    5MOL0     C  619   2.393   7.399  -0.188  0.7244  0.5244 -0.1288
    5MOL0     C  620   2.498   7.389  -0.082 -0.6992 -0.7176  0.4507
    5MOL0     H  621   2.181   7.882  -0.291  0.8430 -3.2290  1.4978
    5MOL0     H  622   2.270   7.991  -0.500  0.4942  0.4157 -0.6846
    5MOL0     H  623   2.704   8.033  -0.533 -0.6400 -1.2298  1.9183
    5MOL0     H  624   2.590   8.148  -0.456 -0.3422  1.6759 -1.3060
    5MOL0     H  625   2.546   8.213  -0.714 -0.0454  5.0338  1.2151
    5MOL0     H  626   2.678   8.293  -0.633  1.8983 -1.0338  0.7934
    5MOL0     H  627   2.840   8.136  -0.712 -0.4204 -2.3298  1.3953
    5MOL0     H  628   2.721   8.026  -0.772 -0.0397 -0.4159 -0.1500
    5MOL0     H  629   2.642   8.162  -0.950 -0.5498  0.6537  0.6905
    5MOL0     H  630   2.710   8.310  -0.897 -0.6268 -0.1344 -2.5079
    5MOL0     H  631   2.845   8.260  -1.077  0.2291 -0.1678 -0.0229
    5MOL0     H  632   2.876   8.094  -1.030 -1.7959 -0.8797  0.0148
    5MOL0     H  633   2.964   8.313  -0.846 -1.7898 -0.1131  0.0676
    5MOL0     H  634   3.047   8.163  -0.866  2.5922  0.1684 -1.3380
    5MOL0     H  635   3.188   8.334  -0.974  1.0089 -2.3065 -0.6061
    5MOL0     H  636   3.054   8.395  -1.074 -0.6155 -0.7872 -0.9950
    5MOL0     H  637   3.061   8.146  -1.180 -0.4959 -0.0630  0.1507
    5MOL0     H  638   3.198   8.263  -1.212  2.5693 -2.7956 -1.1016
    5MOL0     H  639   3.087   7.953  -0.991 -0.2452 -0.2964 -1.3689
    5MOL0     H  640   3.247   7.712  -1.029  2.3775 -1.3019 -0.8912
    5MOL0     H  641   3.252   7.782  -0.866  1.0213 -0.6001  1.0541
    5MOL0     H  642   3.497   7.729  -1.023 -0.8604  0.3189  0.1019
    5MOL0     H  643   3.487   7.764  -0.845 -0.1028  2.8465 -0.6208
    5MOL0     H  644   3.408   7.510  -1.008 -0.2290  0.2724  0.2738
    5MOL0     H  645   3.541   7.529  -0.913  0.3840  0.4815  0.3983
    5MOL0     H  646   3.427   7.522  -0.701 -0.4755  0.7704 -0.4351
    5MOL0     H  647   3.276   7.576  -0.767  0.0559 -0.0626  2.9309
    5MOL0     H  648   3.204   7.140  -0.798  1.6179 -2.2467  1.6085
    5MOL0     H  649   3.128   6.940  -0.727 -0.2612 -0.6371  0.8232
    5MOL0     H  650   2.981   6.997  -0.646 -0.3457 -2.5223 -1.6469
    5MOL0     H  651   3.094   6.896  -0.560  0.1945 -0.8215 -0.6299
    5MOL0     H  652   3.156   6.977  -0.121 -2.0927 -3.6514  1.9894
    5MOL0     H  653   3.077   6.901   0.091  1.7421 -0.9823 -3.7365
    5MOL0     H  654   2.946   6.780   0.207 -1.7657 -1.9053  1.5298
    5MOL0     H  655   3.010   6.885   0.322  2.8169  0.1444 -3.2660
    5MOL0     H  656   2.732   6.766   0.346  1.8012 -1.0079 -3.3735
    5MOL0     H  657   2.874   6.721   0.441 -2.7559  0.2565  1.2770
    5MOL0     H  658   2.739   6.983   0.449  0.4294  1.1358  1.0662
    5MOL0     H  659   2.874   6.925   0.562  1.8532 -1.1930 -2.0963
    5MOL0     H  660   2.712   6.734   0.638 -1.9917  0.1145  0.0950
    5MOL0     H  661   2.591   6.805   0.538 -1.2454  1.6018 -1.0582
    5MOL0     H  662   2.737   6.985   0.744  0.3647 -0.2182 -0.7396
    5MOL0     H  663   2.584   7.009   0.665  0.6334  1.4995  0.1766
    5MOL0     H  664   2.622   6.759   0.833  1.3789 -0.0695  1.7228
    5MOL0     H  665   2.466   6.838   0.820  1.0355 -2.3699  0.7802
    5MOL0     H  666   2.685   6.981   0.966  0.5875 -0.2972  4.4068
    5MOL0     H  667   2.609   6.846   1.046 -0.4354 -1.3271 -0.7713
    5MOL0     H  668   2.528   7.049   1.115  0.9765  1.0567 -1.3424
    5MOL0     H  669   2.393   6.956   1.026  0.0323 -0.3265  1.8096
    5MOL0     H  670   2.730   7.157   0.054 -0.8098 -1.4780 -1.4479
    5MOL0     H  671   2.841   7.279  -0.128  3.7416  1.1244 -3.2120
    5MOL0     H  672   3.167   7.374  -0.373  0.4348 -0.2443  0.9628
    5MOL0     H  673   3.255   7.494  -0.548  0.0068 -0.3279  3.1873
    5MOL0     H  674   2.651   7.812  -0.417  0.8677  0.1119  2.4597
    5MOL0     H  675   2.556   7.697  -0.216 -1.9084 -0.3202  0.8736
    5MOL0     H  676   2.127   7.582  -0.298 -2.2240 -0.6792  1.7212
    5MOL0     H  677   2.127   7.407  -0.480 -0.5315 -0.2719  0.4236
    5MOL0     H  678   2.099   7.180  -0.519 -2.0067  1.0210 -3.9949
    5MOL0     H  679   2.203   7.202  -0.662 -0.1827 -1.7503 -1.6904
    5MOL0     H  680   2.304   6.969  -0.601 -0.7860 -0.5180  2.5610
    5MOL0     H  681   2.135   6.969  -0.660 -0.2885 -1.0818 -0.2727
    5MOL0     H  682   2.235   6.953  -0.372  4.2508  1.2601 -3.9046
    5MOL0     H  683   2.074   6.974  -0.405  0.3238  0.5849  0.3989
    5MOL0     H  684   2.042   6.765  -0.515 -0.5380  0.2614  2.1451
    5MOL0     H  685   2.116   6.752  -0.357 -1.1687  1.2453 -0.0008
    5MOL0     H  686   2.407   6.567  -0.603  0.2763 -0.1490 -0.3104
    5MOL0     H  687   2.453   7.213  -0.283  4.1660  3.1830 -1.6559
    5MOL0     H  688   2.478   7.448   0.008  2.4077  0.5927  0.4091
    5MOL0     H  689   2.507   7.285  -0.048  1.9327 -1.5096 -2.1891
    5MOL0     H  690   2.600   7.421  -0.105 -0.1762 -0.0911  3.3075
    6MOL0     O  691   7.312  11.076   4.173 -0.2361 -0.3520  0.3067
    6MOL0     C  692   7.387  11.170   4.123  0.0854  0.8090 -0.3926
    6MOL0     O  693   7.393  11.203   3.987 -0.0410 -0.0856 -0.1389
    6MOL0     C  694   7.309  11.132   3.903  0.4332 -0.2362  0.1499
    6MOL0     C  695   7.360  11.021   3.839 -1.0900 -0.6898  0.0285
    6MOL0     C  696   7.286  10.954   3.742 -0.7069  0.1358  0.7786
    6MOL0     C  697   7.182  11.012   3.680  0.8939 -0.0807 -0.0220
    6MOL0     O  698   7.118  10.949   3.580 -0.4306 -0.1404 -0.2577
    6MOL0     C  699   7.181  10.948   3.449 -0.1912 -0.3226  0.0048
    6MOL0     C  700   7.079  10.905   3.346 -0.4796  1.1931 -1.2880
    6MOL0     C  701   7.017  10.757   3.366  0.6076  0.2009  0.2551
    6MOL0     C  702   7.112  10.641   3.345 -0.1898  0.4523 -0.5966
    6MOL0     C  703   7.034  10.510   3.326 -0.1787  0.3150  0.1175
    6MOL0     C  704   7.118  10.381   3.335  1.0715 -0.4646  0.5944
    6MOL0     C  705   7.033  10.264   3.389  0.6780  0.4647  0.7262
    6MOL0     C  706   7.112  10.134   3.391 -1.1882  0.4962 -0.1150
    6MOL0     N  707   7.151  10.092   3.531 -0.8299  0.0722  0.2955
    6MOL0     C  708   7.281  10.089   3.583 -0.3839  0.3339  0.5019
    6MOL0     C  709   7.271   9.992   3.678 -0.4195  0.0519 -0.6556
    6MOL0     C  710   7.380   9.940   3.767  0.2135 -0.0400 -0.9850
    6MOL0     C  711   7.457   9.835   3.683  0.3797 -0.0013 -0.0255
    6MOL0     C  712   7.592   9.799   3.759 -0.0515  0.3590 -0.1480
    6MOL0     C  713   7.679   9.700   3.679  0.7115  0.0014 -0.3083
    6MOL0     O  714   7.809   9.700   3.733 -0.1029 -0.1476  0.4488
    6MOL0     C  715   7.894   9.616   3.681 -0.4783  0.4440  0.1890
    6MOL0     C  716   7.920   9.501   3.758 -0.2893 -0.4964  0.1526
    6MOL0     C  717   8.028   9.423   3.719 -1.6289  0.6644 -0.6220
    6MOL0     C  718   8.056   9.297   3.798 -0.0826 -0.0955 -0.2589
    6MOL0     C  719   8.109   9.458   3.605 -0.4450 -0.2498 -0.4548
    6MOL0     C  720   8.237   9.388   3.570 -0.1372  0.1787 -0.3210
    6MOL0     O  721   8.233   9.255   3.547  0.8219  0.1287 -0.2354
    6MOL0     C  722   8.345   9.190   3.522 -0.3548 -0.3274 -0.2005
    6MOL0     C  723   8.344   9.101   3.417 -0.4136  0.3178  0.0518
    6MOL0     C  724   8.453   9.018   3.397  1.0441  0.2937  0.6861
    6MOL0     C  725   8.569   9.027   3.480  0.3616  0.7363  0.6645
    6MOL0     O  726   8.682   8.954   3.469 -0.7374 -0.2929  0.5662
    6MOL0     C  727   8.674   8.812   3.427 -0.5170 -0.5433  0.3182
    6MOL0     C  728   8.766   8.732   3.508  0.4805  0.2401  1.0813
    6MOL0     C  729   8.915   8.761   3.497  0.3670 -0.3287  0.0936
    6MOL0     C  730   8.961   8.777   3.351  0.1448 -0.1546  0.5293
    6MOL0     C  731   9.115   8.788   3.331 -0.5592 -0.3819  0.0568
    6MOL0     C  732   9.186   8.919   3.393  0.5228  0.8363  0.2432
    6MOL0     C  733   9.302   8.977   3.315  0.0509  0.1930  0.0484
    6MOL0     C  734   9.340   9.117   3.371  0.4658  0.7378  0.4980
    6MOL0    Cl  735   9.410   9.092   3.533 -0.1642 -0.0289  0.0658
    6MOL0     C  736   8.569   9.114   3.581  0.4570 -0.2609  0.3225
    6MOL0     C  737   8.457   9.202   3.604 -0.0085 -0.6651 -0.3004
    6MOL0     O  738   8.328   9.461   3.543 -1.1039  0.0051 -0.5765
    6MOL0     C  739   8.073   9.570   3.532 -0.4734 -0.6262  0.2848
    6MOL0     C  740   7.971   9.652   3.569  0.7131  0.7058  0.4150
    6MOL0     N  741   7.136   9.949   3.685 -0.0954  0.2117 -0.0710
    6MOL0     N  742   7.066  10.018   3.604 -0.4154  0.4902 -0.5832
    6MOL0     C  743   7.131  11.135   3.730  1.1054  0.3797 -0.1792
    6MOL0     C  744   7.188  11.195   3.845 -0.6538  0.2649  0.0331
    6MOL0     C  745   7.466  11.249   4.228  0.5270  0.2618  0.3147
    6MOL0     C  746   7.419  11.245   4.360  0.3861 -0.9837  0.1726
    6MOL0     C  747   7.472  11.314   4.468 -0.3754  0.2635  0.5209
    6MOL0     C  748   7.596  11.368   4.453  0.3610  0.2551 -0.3984
    6MOL0     O  749   7.663  11.436   4.553  0.1742 -0.7988 -0.6023
    6MOL0     C  750   7.662  11.370   4.679  0.5624  0.0958 -1.0389
    6MOL0     C  751   7.745  11.446   4.780 -0.6092  0.2535  0.1030
    6MOL0     C  752   7.892  11.479   4.732 -0.5400  0.5958  0.2066
    6MOL0     C  753   7.944  11.603   4.812  0.3810  0.5697  0.0417
    6MOL0     C  754   7.923  11.581   4.956 -0.4532 -0.0099 -0.2373
    6MOL0     C  755   7.901  11.582   5.077 -0.0153  0.6211 -0.3394
    6MOL0     C  756   7.652  11.369   4.322  1.7096  0.6357 -0.4847
    6MOL0     C  757   7.587  11.315   4.212 -0.3265 -0.0047 -0.4072
    6MOL0     C  758   7.661  11.308   4.085 -0.4821 -0.2955  0.0612
    6MOL0     H  759   7.453  10.981   3.879 -1.5023  0.4856  2.3888
    6MOL0     H  760   7.319  10.859   3.702 -1.9527 -0.1560  0.3787
    6MOL0     H  761   7.270  10.884   3.449  0.0812 -0.0113  1.8471
    6MOL0     H  762   7.222  11.045   3.421 -1.1143 -0.2361 -1.0744
    6MOL0     H  763   7.001  10.981   3.346 -0.6562  1.0585  0.6367
    6MOL0     H  764   7.132  10.921   3.252  1.8291  0.6194 -0.1591
    6MOL0     H  765   6.961  10.754   3.460  0.1397 -1.3766 -0.0470
    6MOL0     H  766   6.936  10.749   3.293  0.5719  1.5829  0.1239
    6MOL0     H  767   7.176  10.654   3.257 -0.1690 -2.2850 -1.0676
    6MOL0     H  768   7.172  10.631   3.435 -2.3546 -1.5544  0.7269
    6MOL0     H  769   6.974  10.513   3.234  0.8026  0.4761 -0.5364
    6MOL0     H  770   6.974  10.504   3.417 -1.0682 -0.0669 -0.4721
    6MOL0     H  771   7.161  10.364   3.236  1.7454 -0.6099  0.9090
    6MOL0     H  772   7.196  10.395   3.410 -0.4493 -0.3467  2.2359
    6MOL0     H  773   6.947  10.243   3.325  3.9666 -2.1274 -3.3767
    6MOL0     H  774   7.008  10.290   3.492 -0.4294 -0.9186  0.8431
    6MOL0     H  775   7.054  10.058   3.337 -0.9128 -0.2931  0.6874
    6MOL0     H  776   7.204  10.147   3.334 -0.0624  0.3989  1.6086
    6MOL0     H  777   7.368  10.132   3.535 -0.7407 -0.9155 -1.3597
    6MOL0     H  778   7.344   9.896   3.860  1.6469 -0.8545 -0.7711
    6MOL0     H  779   7.455  10.013   3.798  1.4758 -2.9693  4.1303
    6MOL0     H  780   7.402   9.740   3.678 -2.6175  1.3016  3.5187
    6MOL0     H  781   7.476   9.877   3.584 -3.1762  1.5660 -0.1640
    6MOL0     H  782   7.647   9.892   3.776  3.1653 -1.0678 -1.8194
    6MOL0     H  783   7.561   9.762   3.857  0.1388  0.7173  0.0475
    6MOL0     H  784   7.628   9.605   3.700  2.1372 -0.7346 -0.0856
    6MOL0     H  785   7.682   9.716   3.571  0.2668 -0.1435 -0.3468
    6MOL0     H  786   7.871   9.485   3.854 -2.1529 -0.0807 -0.6949
    6MOL0     H  787   8.100   9.217   3.738 -2.3617 -0.6516 -1.3081
    6MOL0     H  788   7.959   9.255   3.825  0.2216 -0.9612 -0.4843
    6MOL0     H  789   8.123   9.313   3.883  1.1333  1.4122 -1.4343
    6MOL0     H  790   8.257   9.079   3.356  0.4584 -2.4205 -0.3557
    6MOL0     H  791   8.446   8.942   3.320  2.4978  0.0442  0.7606
    6MOL0     H  792   8.573   8.774   3.445 -0.5990 -0.9139 -0.8218
    6MOL0     H  793   8.700   8.801   3.321 -2.5129 -0.6199 -0.2168
    6MOL0     H  794   8.746   8.745   3.615  3.6366 -0.0683  1.8085
    6MOL0     H  795   8.738   8.628   3.492  1.7437  0.2665 -1.9766
    6MOL0     H  796   8.971   8.679   3.542  0.2322 -0.7139 -0.4222
    6MOL0     H  797   8.937   8.854   3.549  1.6821 -0.0598 -0.8870
    6MOL0     H  798   8.918   8.874   3.323  1.3759  0.3463  0.3028
    6MOL0     H  799   8.920   8.702   3.282  1.6680 -0.5011 -0.0249
    6MOL0     H  800   9.167   8.703   3.376  0.9259 -0.4367 -1.6517
    6MOL0     H  801   9.127   8.786   3.222 -1.8200 -4.4111 -0.1668
    6MOL0     H  802   9.221   8.891   3.493  1.0212  0.8437  0.0726
    6MOL0     H  803   9.106   8.993   3.403 -1.4336 -1.0227 -0.5956
    6MOL0     H  804   9.273   8.986   3.210  0.9175 -0.3403 -0.2474
    6MOL0     H  805   9.388   8.909   3.318  0.5638  0.8733  1.9088
    6MOL0     H  806   9.259   9.191   3.370  0.9074  1.2758  1.8847
    6MOL0     H  807   9.417   9.150   3.301 -1.6336  1.8832 -1.4081
    6MOL0     H  808   8.656   9.117   3.645  2.4733 -1.2201 -2.1838
    6MOL0     H  809   8.464   9.277   3.682 -1.6146 -0.9469  0.1391
    6MOL0     H  810   8.134   9.579   3.443  0.1048 -3.1875  0.3370
    6MOL0     H  811   7.947   9.738   3.507 -0.6087  2.6014  3.3393
    6MOL0     H  812   7.041  11.183   3.693  1.6664  1.9003  0.3673
    6MOL0     H  813   7.152  11.286   3.891  0.3050  1.0704 -0.7602
    6MOL0     H  814   7.333  11.192   4.400 -0.2953  0.6717  0.9870
    6MOL0     H  815   7.415  11.311   4.560  1.4677 -1.5196  1.6750
    6MOL0     H  816   7.560  11.359   4.716  1.5175 -1.9987  1.2814
    6MOL0     H  817   7.710  11.272   4.669 -1.9148 -1.8911  3.4385
    6MOL0     H  818   7.759  11.388   4.871  1.8912  1.2038  0.4214
    6MOL0     H  819   7.693  11.540   4.798  1.1379  1.4186 -0.5674
    6MOL0     H  820   7.963  11.397   4.740 -1.9075 -0.8246 -1.4516
    6MOL0     H  821   7.903  11.494   4.624  1.1246 -0.7971  0.1418
    6MOL0     H  822   7.887  11.692   4.782  0.3466  0.5229 -0.0346
    6MOL0     H  823   8.051  11.620   4.800  0.7568  0.2169  2.3751
    6MOL0     H  824   7.884  11.562   5.181 -0.6400 -2.5466 -0.9497
    6MOL0     H  825   7.753  11.404   4.302  1.9783  1.7245  2.2009
    6MOL0     H  826   7.768  11.303   4.109 -0.0782 -0.6491 -1.7358
    6MOL0     H  827   7.640  11.220   4.024 -0.2906  1.5383 -2.8466
    6MOL0     H  828   7.649  11.404   4.033  0.5158 -0.0356  0.2933
    7MOL0     O  829   3.568   1.814  10.180 -0.8216 -0.7150  0.0017
    7MOL0     C  830   3.617   1.910  10.237  0.2599  0.1580 -0.4785
    7MOL0     O  831   3.696   2.004  10.178  0.6026 -0.1255  0.2750
    7MOL0     C  832   3.730   1.967  10.051 -0.7379 -0.4726  0.7966
    7MOL0     C  833   3.863   1.924  10.032  0.5569 -0.6418  0.0315
    7MOL0     C  834   3.913   1.905   9.900 -0.0655  0.2979  0.8301
    7MOL0     C  835   3.831   1.931   9.788 -0.0780  0.0252  0.3595
    7MOL0     O  836   3.896   1.925   9.666 -0.0528 -0.0860  0.2367
    7MOL0     C  837   3.824   1.930   9.551 -0.5133 -0.3678  0.3319
    7MOL0     C  838   3.920   1.930   9.433 -0.2327  0.4064  0.0647
    7MOL0     C  839   3.955   2.071   9.393 -0.0989 -0.3914  0.1402
    7MOL0     C  840   4.050   2.082   9.271  0.4012  0.2237 -0.7097
    7MOL0     C  841   4.187   2.034   9.296 -1.0243 -0.3581  0.0898
    7MOL0     C  842   4.286   2.053   9.180 -0.1876 -1.2316  0.1637
    7MOL0     C  843   4.409   1.964   9.192  0.2112  0.1170 -0.3178
    7MOL0     C  844   4.503   2.002   9.313 -0.0551  0.4844 -0.1593
    7MOL0     N  845   4.623   1.932   9.291  0.5253  0.2758  0.1886
    7MOL0     C  846   4.663   1.809   9.340  0.4946  0.0792  0.2005
    7MOL0     C  847   4.790   1.799   9.304 -0.1143  1.0822  0.2452
    7MOL0     C  848   4.885   1.688   9.340  0.0699  0.0885 -0.3178
    7MOL0     C  849   5.014   1.725   9.291  0.5686  0.5027 -0.0715
    7MOL0     C  850   5.113   1.623   9.353 -0.1908 -0.3548  0.7131
    7MOL0     C  851   5.261   1.649   9.316 -0.5017 -0.1378 -0.1931
    7MOL0     O  852   5.346   1.581   9.414  0.3080  0.3305 -0.3153
    7MOL0     C  853   5.480   1.597   9.407 -0.2298  0.0812 -0.3223
    7MOL0     C  854   5.552   1.638   9.293  0.3409 -0.6746 -0.2270
    7MOL0     C  855   5.689   1.658   9.289  0.5091 -0.6911  0.3086
    7MOL0     C  856   5.757   1.702   9.163  0.5100 -0.5083  0.6528
    7MOL0     C  857   5.759   1.618   9.399 -0.5363 -0.0460  0.0229
    7MOL0     C  858   5.906   1.604   9.407 -0.1251  0.0233  0.2734
    7MOL0     O  859   5.950   1.505   9.493 -0.1538  0.2003  0.2414
    7MOL0     C  860   6.080   1.501   9.532 -0.1581 -0.4162  0.7916
    7MOL0     C  861   6.161   1.389   9.517  0.9487  0.2861  1.1855
    7MOL0     C  862   6.291   1.381   9.552  0.3329 -0.4223 -0.5244
    7MOL0     C  863   6.350   1.500   9.599 -0.0039 -0.0707  0.4050
    7MOL0     O  864   6.484   1.486   9.638 -0.5903 -0.3942  0.0474
    7MOL0     C  865   6.547   1.601   9.702  0.0889  0.1344 -0.3647
    7MOL0     C  866   6.697   1.561   9.730  0.6120  0.8029  0.3950
    7MOL0     C  867   6.771   1.644   9.835  0.3314 -0.3205 -0.2724
    7MOL0     C  868   6.925   1.630   9.828  0.1509  0.8871  0.4541
    7MOL0     C  869   6.978   1.730   9.725 -0.5003  0.3616 -0.5386
    7MOL0     C  870   7.130   1.728   9.715  0.2199 -0.9380 -0.7790
    7MOL0     C  871   7.202   1.810   9.827  0.3508  0.5641 -0.3397
    7MOL0     C  872   7.345   1.760   9.846 -0.5684 -0.0084 -0.1274
    7MOL0    Cl  873   7.450   1.804   9.712  0.2209  0.1568 -0.2700
    7MOL0     C  874   6.279   1.618   9.621  0.9665 -0.0322  0.1401
    7MOL0     C  875   6.141   1.612   9.592 -0.4038 -0.0603 -0.3177
    7MOL0     O  876   5.982   1.690   9.348 -0.5635  0.6509 -0.8741
    7MOL0     C  877   5.688   1.579   9.517  0.0217  0.7707  0.7682
    7MOL0     C  878   5.545   1.561   9.520 -0.3864  0.0222 -0.4479
    7MOL0     N  879   4.817   1.897   9.210  0.1727  0.0248 -0.0042
    7MOL0     N  880   4.714   1.973   9.200 -0.3149  0.3410 -0.5339
    7MOL0     C  881   3.694   1.971   9.808 -0.6730  0.3039  0.0728
    7MOL0     C  882   3.645   1.979   9.940  0.2243  1.3434  0.4989
    7MOL0     C  883   3.626   1.917  10.382 -1.2560  0.4411 -0.2110
    7MOL0     C  884   3.734   1.994  10.430 -0.3250 -0.2682 -0.0050
    7MOL0     C  885   3.735   2.031  10.566 -0.6595 -1.0488  0.1213
    7MOL0     C  886   3.635   1.985  10.649  0.6258  0.5389 -0.4561
    7MOL0     O  887   3.643   2.029  10.775  0.7223  0.1679  0.1434
    7MOL0     C  888   3.527   2.028  10.865  0.2828 -0.3475 -0.1380
    7MOL0     C  889   3.421   2.133  10.825  1.2016 -0.4999 -0.2288
    7MOL0     C  890   3.317   2.161  10.948  0.6421  0.1369 -0.1995
    7MOL0     C  891   3.215   2.278  10.915 -0.2903  0.1441 -0.0529
    7MOL0     C  892   3.119   2.233  10.818  0.7855  0.1336  1.3941
    7MOL0     C  893   3.034   2.193  10.741  1.1735  0.5687 -0.2641
    7MOL0     C  894   3.533   1.894  10.594 -0.6629 -0.1061 -1.1027
    7MOL0     C  895   3.528   1.859  10.464 -0.1409  0.4839 -0.1658
    7MOL0     C  896   3.428   1.753  10.422  0.2883  0.6972 -0.4742
    7MOL0     H  897   3.933   1.904  10.112  1.3131 -1.3512 -0.7936
    7MOL0     H  898   4.011   1.868   9.872 -1.2339 -0.4775 -2.6530
    7MOL0     H  899   3.770   2.026   9.550  1.0918  0.6474  2.6323
    7MOL0     H  900   3.748   1.852   9.552 -3.1554  1.8921  4.2353
    7MOL0     H  901   4.014   1.883   9.463 -1.5036 -1.8748  0.7805
    7MOL0     H  902   3.878   1.870   9.352  1.0770  2.7495 -2.5081
    7MOL0     H  903   3.863   2.122   9.363 -0.4598 -1.4720 -0.6528
    7MOL0     H  904   3.986   2.141   9.471 -3.5118  2.3040 -0.6854
    7MOL0     H  905   4.000   2.013   9.202 -2.8485 -0.4161  2.0174
    7MOL0     H  906   4.049   2.183   9.229  2.6361  1.0419  1.0234
    7MOL0     H  907   4.188   1.925   9.307  1.7090 -0.6463 -1.9426
    7MOL0     H  908   4.226   2.085   9.384 -0.3637  1.0451 -0.9804
    7MOL0     H  909   4.233   2.038   9.086 -1.7693  1.0067  0.6328
    7MOL0     H  910   4.323   2.156   9.192  1.8336 -2.0943  2.1912
    7MOL0     H  911   4.460   1.989   9.099  0.4552  2.0905  0.3089
    7MOL0     H  912   4.379   1.858   9.196 -2.4032  0.7320 -1.5238
    7MOL0     H  913   4.516   2.110   9.314 -2.6965  0.8896  1.4007
    7MOL0     H  914   4.455   1.970   9.407 -0.5715  0.2081 -0.5125
    7MOL0     H  915   4.602   1.738   9.394  0.4490  1.1409  1.5947
    7MOL0     H  916   4.852   1.591   9.300  0.4180 -0.8235  1.4971
    7MOL0     H  917   4.886   1.682   9.449 -1.5409 -1.9572 -0.3465
    7MOL0     H  918   5.023   1.715   9.182  1.4197 -1.0473  0.1143
    7MOL0     H  919   5.039   1.824   9.331 -0.6336 -0.1314  2.4013
    7MOL0     H  920   5.100   1.634   9.461 -1.5445  4.1469  0.3271
    7MOL0     H  921   5.083   1.526   9.314  2.0626 -0.9556  0.3015
    7MOL0     H  922   5.285   1.610   9.217  1.6564 -1.3209  0.7170
    7MOL0     H  923   5.282   1.757   9.314 -1.5628  0.1752  2.2189
    7MOL0     H  924   5.504   1.657   9.197  0.4879 -0.4723 -0.2621
    7MOL0     H  925   5.823   1.787   9.179 -0.8870  0.5238  1.1131
    7MOL0     H  926   5.680   1.737   9.094 -0.2584  1.7338  2.5267
    7MOL0     H  927   5.805   1.615   9.117 -1.9847 -1.5766 -0.1284
    7MOL0     H  928   6.105   1.304   9.481  1.8411 -0.0568  0.5684
    7MOL0     H  929   6.344   1.287   9.559  1.6074  0.3956  3.5854
    7MOL0     H  930   6.555   1.691   9.641  2.0006 -0.3653 -0.9608
    7MOL0     H  931   6.508   1.608   9.804  0.9508 -2.2969  0.2251
    7MOL0     H  932   6.701   1.456   9.759 -3.2068  0.8840  1.7715
    7MOL0     H  933   6.747   1.563   9.633  0.1560 -1.8731  0.0178
    7MOL0     H  934   6.746   1.591   9.928 -0.9725 -0.1325 -0.4927
    7MOL0     H  935   6.731   1.745   9.847 -0.9320 -1.0738  3.1144
    7MOL0     H  936   6.948   1.527   9.798 -0.7119  0.3369  1.5999
    7MOL0     H  937   6.973   1.645   9.925 -1.3400 -1.8432  1.7293
    7MOL0     H  938   6.934   1.692   9.632  1.9153 -0.4338 -1.4466
    7MOL0     H  939   6.945   1.831   9.751  1.8757  0.5374  2.3393
    7MOL0     H  940   7.167   1.780   9.626 -1.4447  3.1278  0.6801
    7MOL0     H  941   7.165   1.625   9.728  1.8773 -0.4824 -1.3930
    7MOL0     H  942   7.142   1.816   9.919  0.5042 -0.6225 -0.1402
    7MOL0     H  943   7.199   1.913   9.791 -3.2420  0.1438 -1.6332
    7MOL0     H  944   7.364   1.654   9.866 -0.3630  0.3598  1.8353
    7MOL0     H  945   7.376   1.812   9.937 -2.2528  1.0025 -0.1078
    7MOL0     H  946   6.308   1.710   9.672 -1.0339  0.3133  0.7626
    7MOL0     H  947   6.078   1.699   9.613 -0.1123 -0.3899  2.3216
    7MOL0     H  948   5.740   1.544   9.606 -2.3175 -3.7761  0.6473
    7MOL0     H  949   5.493   1.523   9.607  1.6549 -0.7597  0.4950
    7MOL0     H  950   3.627   1.997   9.726  0.6737 -2.7321 -2.1946
    7MOL0     H  951   3.541   2.007   9.947 -0.0235  0.9359 -1.2082
    7MOL0     H  952   3.816   2.021  10.365  2.2212 -3.3659  1.6877
    7MOL0     H  953   3.818   2.084  10.611 -1.2411 -0.8055  0.9445
    7MOL0     H  954   3.480   1.929  10.865 -1.2076  0.3252  1.2291
    7MOL0     H  955   3.556   2.061  10.965 -0.6314 -1.0329  0.3657
    7MOL0     H  956   3.355   2.092  10.748 -1.4676 -0.9522  2.1601
    7MOL0     H  957   3.469   2.223  10.786  1.8900 -1.6616 -2.1863
    7MOL0     H  958   3.263   2.067  10.961  0.2105  0.6079  1.7864
    7MOL0     H  959   3.377   2.170  11.039 -2.4176 -2.1174  2.2670
    7MOL0     H  960   3.262   2.371  10.881 -0.5862  0.6622  0.8886
    7MOL0     H  961   3.158   2.295  11.007  1.0843  0.8828  0.7124
    7MOL0     H  962   2.966   2.160  10.666  1.6136  1.7877 -1.2427
    7MOL0     H  963   3.456   1.848  10.655  1.1577 -0.1509  1.2805
    7MOL0     H  964   3.477   1.666  10.377 -0.6402  0.5281 -1.2005
    7MOL0     H  965   3.371   1.714  10.506 -1.7263  0.4493 -1.8769
    7MOL0     H  966   3.355   1.793  10.351 -0.7044  0.7633  0.5544
    8MOL0     O  967   3.485   7.706   0.392  0.0225  0.8304  0.6191
    8MOL0     C  968   3.521   7.695   0.274  0.0310  0.0496  0.6313
    8MOL0     O  969   3.446   7.736   0.168 -0.4874  0.6384  0.8999
    8MOL0     C  970   3.337   7.822   0.190 -0.3958  1.1028 -0.0603
    8MOL0     C  971   3.348   7.959   0.180  0.4901  0.4808  0.6244
    8MOL0     C  972   3.236   8.046   0.207  0.0204  0.1396  0.4738
    8MOL0     C  973   3.109   7.990   0.245 -0.2733 -0.4400 -0.0833
    8MOL0     O  974   3.004   8.076   0.267 -0.1662 -0.1555 -0.1074
    8MOL0     C  975   2.949   8.061   0.400  0.4113 -0.0639 -0.0568
    8MOL0     C  976   2.966   8.194   0.480 -0.0846 -0.4030  0.5250
    8MOL0     C  977   2.928   8.320   0.405 -0.1466  0.5468 -0.5313
    8MOL0     C  978   2.788   8.314   0.334 -0.1327 -0.2336  0.3778
    8MOL0     C  979   2.668   8.301   0.425 -0.1992 -0.1941 -0.3070
    8MOL0     C  980   2.617   8.446   0.463  0.3060  0.5012  0.2831
    8MOL0     C  981   2.494   8.438   0.548 -0.9631 -0.1100 -0.4594
    8MOL0     C  982   2.373   8.386   0.469  0.7598  0.7925  0.7153
    8MOL0     N  983   2.337   8.470   0.358 -0.2361  0.3270  0.2484
    8MOL0     C  984   2.286   8.601   0.372 -0.5574 -0.5805  0.3460
    8MOL0     C  985   2.251   8.635   0.248  0.0599  0.1610  0.2888
    8MOL0     C  986   2.178   8.757   0.204  0.1836 -0.3361  0.0316
    8MOL0     C  987   2.268   8.849   0.124 -0.4179 -0.4818 -0.0996
    8MOL0     C  988   2.207   8.992   0.124  0.0752  0.4750 -0.3759
    8MOL0     C  989   2.304   9.083   0.057  1.1461  0.0253 -0.2079
    8MOL0     O  990   2.412   9.110   0.150  0.5458  0.3624  0.3178
    8MOL0     C  991   2.527   9.157   0.097  0.3050  0.0882  0.2612
    8MOL0     C  992   2.651   9.155   0.163  0.5136  0.1893 -0.5981
    8MOL0     C  993   2.774   9.217   0.109  0.3642 -0.3412  0.1663
    8MOL0     C  994   2.901   9.210   0.194 -0.0725 -0.4427 -0.1752
    8MOL0     C  995   2.774   9.265  -0.022  0.9112  0.3172  0.3776
    8MOL0     C  996   2.903   9.321  -0.080  0.4090 -0.7166  0.2807
    8MOL0     O  997   3.028   9.278  -0.046 -0.0628  0.7245 -0.5930
    8MOL0     C  998   3.147   9.318  -0.110 -0.7333  0.2041 -0.3491
    8MOL0     C  999   3.261   9.277  -0.040  1.0737  0.1985 -0.7128
    8MOL0     C 1000   3.388   9.296  -0.089 -0.2614  0.4004 -0.4070
    8MOL0     C 1001   3.399   9.358  -0.214  0.0257  0.7670  1.0669
    8MOL0     O 1002   3.530   9.379  -0.241 -0.3265  0.2236 -0.1276
    8MOL0     C 1003   3.563   9.416  -0.371 -0.5233 -0.5723  0.4175
    8MOL0     C 1004   3.715   9.441  -0.388  1.1493 -0.2420 -0.6034
    8MOL0     C 1005   3.773   9.567  -0.314 -1.4342 -0.3875  0.1136
    8MOL0     C 1006   3.790   9.676  -0.416  0.4456 -0.1689  0.1251
    8MOL0     C 1007   3.927   9.652  -0.489  0.1756  0.7011 -0.6331
    8MOL0     C 1008   3.961   9.763  -0.589  0.7186  0.8056 -0.3171
    8MOL0     C 1009   3.960   9.900  -0.521 -0.0703 -0.0881 -1.0551
    8MOL0     C 1010   4.050   9.997  -0.598  0.3120 -0.0234 -0.6691
    8MOL0    Cl 1011   3.988  10.025  -0.761  0.3044  0.3142  0.3961
    8MOL0     C 1012   3.296   9.410  -0.287  0.2213  0.0978 -0.2360
    8MOL0     C 1013   3.169   9.390  -0.228  0.0933 -0.1230 -0.2466
    8MOL0     O 1014   2.884   9.410  -0.167 -0.2105  0.8500  0.0423
    8MOL0     C 1015   2.660   9.260  -0.092  0.6908  0.3932  0.2671
    8MOL0     C 1016   2.540   9.218  -0.029  0.6887  0.9794 -0.4870
    8MOL0     N 1017   2.286   8.528   0.164  0.0467 -0.1628  0.5697
    8MOL0     N 1018   2.326   8.428   0.231  0.5382  0.2774 -0.0768
    8MOL0     C 1019   3.104   7.849   0.273 -0.0099 -0.0600  0.1763
    8MOL0     C 1020   3.220   7.779   0.250  0.0952  0.6883  0.0938
    8MOL0     C 1021   3.656   7.647   0.245 -0.5661 -0.5646 -0.4285
    8MOL0     C 1022   3.727   7.576   0.343  0.7160  0.0958 -0.0023
    8MOL0     C 1023   3.858   7.537   0.327 -0.0281  0.0994  0.8356
    8MOL0     C 1024   3.924   7.551   0.203  0.3770  0.3192 -0.1252
    8MOL0     O 1025   4.058   7.511   0.202  0.7893 -0.3943  0.3087
    8MOL0     C 1026   4.072   7.400   0.111 -0.4018 -0.0323  0.4213
    8MOL0     C 1027   4.212   7.348   0.121  0.1152  0.3060  0.4080
    8MOL0     C 1028   4.222   7.267   0.257  0.4942  0.6957  0.9518
    8MOL0     C 1029   4.360   7.210   0.284  0.1218  0.4723  0.3833
    8MOL0     C 1030   4.456   7.308   0.335  0.6079  0.9970 -0.4239
    8MOL0     C 1031   4.534   7.391   0.379 -0.2316  0.8552  0.2732
    8MOL0     C 1032   3.861   7.630   0.103  0.3712 -0.8343 -0.4875
    8MOL0     C 1033   3.728   7.684   0.124 -0.8141  0.9306 -0.5474
    8MOL0     C 1034   3.680   7.759   0.006  0.3873 -0.7135 -0.4755
    8MOL0     H 1035   3.444   7.998   0.149  1.1069 -3.0688 -2.5596
    8MOL0     H 1036   3.258   8.152   0.202 -0.8555  0.2633 -2.5325
    8MOL0     H 1037   2.997   7.987   0.464 -2.7648 -0.9980  1.4505
    8MOL0     H 1038   2.843   8.033   0.400  0.5256 -0.5007 -0.2578
    8MOL0     H 1039   2.919   8.172   0.576  0.4889  1.7357  1.3542
    8MOL0     H 1040   3.071   8.211   0.505 -0.2355  0.3079  0.7123
    8MOL0     H 1041   2.932   8.404   0.475  3.0898  0.0598  0.0370
    8MOL0     H 1042   3.004   8.344   0.330  0.3145 -0.6845 -0.4811
    8MOL0     H 1043   2.786   8.405   0.272 -1.8444 -1.5099 -1.5690
    8MOL0     H 1044   2.783   8.223   0.274  0.7290  0.5137 -0.8676
    8MOL0     H 1045   2.684   8.250   0.521  2.0381 -0.8083 -0.9430
    8MOL0     H 1046   2.592   8.239   0.376  0.1731  0.2218 -1.4337
    8MOL0     H 1047   2.692   8.507   0.514 -0.6005  0.2050  2.0580
    8MOL0     H 1048   2.591   8.498   0.370  1.0511  2.7047  1.2369
    8MOL0     H 1049   2.481   8.537   0.594  1.8572  0.7854 -1.4168
    8MOL0     H 1050   2.511   8.377   0.637 -0.2170  1.1415  0.2868
    8MOL0     H 1051   2.397   8.284   0.439 -1.3979  1.1990 -2.9249
    8MOL0     H 1052   2.289   8.388   0.538  0.0546  0.4497 -0.1163
    8MOL0     H 1053   2.271   8.665   0.458  0.9878  0.6693 -0.2594
    8MOL0     H 1054   2.135   8.810   0.289 -0.3881 -0.3904 -0.2175
    8MOL0     H 1055   2.098   8.721   0.138  1.6005 -1.0667 -1.3816
    8MOL0     H 1056   2.362   8.857   0.180 -0.6103 -0.8547  0.2775
    8MOL0     H 1057   2.285   8.804   0.025  1.5015  1.9368 -0.9832
    8MOL0     H 1058   2.117   8.979   0.064  1.8644 -1.0167 -2.9532
    8MOL0     H 1059   2.187   9.024   0.226  1.5841  0.4561 -0.0478
    8MOL0     H 1060   2.333   9.033  -0.036 -0.6948 -1.0635 -0.2306
    8MOL0     H 1061   2.264   9.184   0.043 -0.9171 -0.5589  1.0326
    8MOL0     H 1062   2.651   9.115   0.263  2.7238 -0.0726 -0.6617
    8MOL0     H 1063   2.940   9.308   0.219  1.0684 -1.1766  1.0554
    8MOL0     H 1064   2.963   9.143   0.134  1.8743  1.2447 -0.1176
    8MOL0     H 1065   2.871   9.166   0.289  1.5968 -1.9212 -0.2850
    8MOL0     H 1066   3.246   9.217   0.049 -1.4978 -2.0286 -2.4795
    8MOL0     H 1067   3.478   9.262  -0.039  0.1228  3.2900  1.0723
    8MOL0     H 1068   3.540   9.342  -0.447  0.8473 -2.6571  1.9232
    8MOL0     H 1069   3.508   9.508  -0.396  0.4902 -0.2861 -0.8979
    8MOL0     H 1070   3.762   9.351  -0.349  1.1531 -0.2459 -0.6165
    8MOL0     H 1071   3.753   9.447  -0.490 -0.6194 -1.0886 -1.3609
    8MOL0     H 1072   3.863   9.536  -0.261 -1.4234 -1.2632 -0.3872
    8MOL0     H 1073   3.702   9.593  -0.235  0.4011 -0.3746  1.8146
    8MOL0     H 1074   3.791   9.775  -0.370  2.4459  0.3087 -0.8419
    8MOL0     H 1075   3.706   9.670  -0.486 -0.4674  0.2360  1.1581
    8MOL0     H 1076   3.999   9.643  -0.407  1.7579  1.5451 -1.8687
    8MOL0     H 1077   3.943   9.556  -0.539  2.2020  1.5449 -1.7169
    8MOL0     H 1078   3.889   9.762  -0.671  1.2239  0.9476 -0.7656
    8MOL0     H 1079   4.064   9.745  -0.621  1.6374  0.6530  2.4023
    8MOL0     H 1080   3.997   9.886  -0.419 -0.4365  1.7915 -0.6130
    8MOL0     H 1081   3.854   9.930  -0.517 -0.9994 -2.8311 -2.7968
    8MOL0     H 1082   4.149   9.951  -0.601  0.5351  0.4885 -3.0720
    8MOL0     H 1083   4.067  10.099  -0.562 -0.7080  0.7553 -2.2773
    8MOL0     H 1084   3.304   9.468  -0.378 -0.1257  0.1623 -0.2293
    8MOL0     H 1085   3.090   9.428  -0.292  1.9917  0.7054 -2.2383
    8MOL0     H 1086   2.651   9.298  -0.194 -0.6431 -1.3014 -0.3055
    8MOL0     H 1087   2.452   9.234  -0.090 -0.4457 -0.3428  0.7577
    8MOL0     H 1088   3.019   7.799   0.317  0.7781 -0.7428  0.9668
    8MOL0     H 1089   3.214   7.671   0.257  0.0494  0.6941  0.1397
    8MOL0     H 1090   3.673   7.562   0.437 -0.4272 -0.0685 -0.6577
    8MOL0     H 1091   3.916   7.485   0.403 -0.0447 -0.0500  0.7468
    8MOL0     H 1092   4.001   7.322   0.141 -1.1042  0.1430 -0.7590
    8MOL0     H 1093   4.038   7.435   0.013 -1.9773 -0.9922  0.5725
    8MOL0     H 1094   4.290   7.424   0.124 -0.0782  0.4683  2.0980
    8MOL0     H 1095   4.245   7.285   0.038  1.1149  0.4113  0.7149
    8MOL0     H 1096   4.177   7.330   0.334 -1.3164  0.4827  0.1275
    8MOL0     H 1097   4.148   7.187   0.261 -1.0620  2.0161 -0.1887
    8MOL0     H 1098   4.395   7.167   0.190  0.4851 -1.4948  1.3606
    8MOL0     H 1099   4.349   7.127   0.355  1.2392 -0.3753 -0.4011
    8MOL0     H 1100   4.615   7.452   0.413 -0.0872  0.7587  0.1035
    8MOL0     H 1101   3.910   7.654   0.009  2.7188 -1.9852  0.3687
    8MOL0     H 1102   3.765   7.785  -0.058  1.0886  0.7775  1.0084
    8MOL0     H 1103   3.613   7.700  -0.058 -0.2969  1.1140 -1.5314
    8MOL0     H 1104   3.638   7.853   0.042 -0.2385 -2.5329  4.1388
    9MOL0     O 1105  11.253   4.327   5.447 -0.3005 -0.1332  0.5236
    9MOL0     C 1106  11.221   4.324   5.568  0.6657 -0.0681  0.1396
    9MOL0     O 1107  11.306   4.356   5.678  0.8193 -0.6868 -0.2354
    9MOL0     C 1108  11.435   4.389   5.646  0.3589  0.0247 -0.3650
    9MOL0     C 1109  11.544   4.292   5.653  0.3092 -0.4241 -0.1280
    9MOL0     C 1110  11.666   4.312   5.594  0.2502 -0.8970  0.1047
    9MOL0     C 1111  11.692   4.433   5.532  0.3204 -0.1738 -0.6863
    9MOL0     O 1112  11.812   4.444   5.458 -0.1435  0.2654 -0.0394
    9MOL0     C 1113  11.901   4.548   5.495 -0.0274 -0.4568  0.1359
    9MOL0     C 1114  12.032   4.519   5.431 -0.4876  0.7889  1.0680
    9MOL0     C 1115  12.134   4.622   5.484  0.1515  0.2870  0.1525
    9MOL0     C 1116  12.280   4.568   5.480  0.4482 -0.0427  0.1892
    9MOL0     C 1117  12.350   4.584   5.344  0.6565 -0.0288  0.4393
    9MOL0     C 1118  12.490   4.532   5.343 -0.8503  0.4145  0.4858
    9MOL0     C 1119  12.581   4.586   5.453 -0.1407  0.4107 -0.1068
    9MOL0     C 1120  12.727   4.540   5.419  0.1346  0.0151 -0.0550
    9MOL0     N 1121  12.817   4.592   5.511  0.6256  0.8377 -0.5324
    9MOL0     C 1122  12.828   4.548   5.640 -0.4045  0.5918 -0.3755
    9MOL0     C 1123  12.892   4.650   5.705  0.7193 -0.7965 -0.2177
    9MOL0     C 1124  12.909   4.666   5.856 -0.2645 -1.3674 -0.4114
    9MOL0     C 1125  13.049   4.717   5.909 -0.7215 -0.4442  0.5558
    9MOL0     C 1126  13.167   4.655   5.835  0.4691 -0.7164  0.4940
    9MOL0     C 1127  13.295   4.669   5.922 -0.7669  0.1873 -0.2523
    9MOL0     O 1128  13.399   4.591   5.855  0.2856  0.3858 -0.2899
    9MOL0     C 1129  13.513   4.565   5.929  0.5726 -1.0001  0.3106
    9MOL0     C 1130  13.551   4.430   5.956 -0.4398 -0.2494  0.3622
    9MOL0     C 1131  13.674   4.402   6.028  1.2616  0.8014 -0.7210
    9MOL0     C 1132  13.708   4.255   6.050  0.2575 -0.2632  0.4480
    9MOL0     C 1133  13.749   4.507   6.075 -0.8588  0.1892  0.2413
    9MOL0     C 1134  13.880   4.484   6.144 -0.1102  0.5714  0.0115
    9MOL0     O 1135  13.910   4.372   6.213  0.0833 -0.0081  0.0591
    9MOL0     C 1136  14.044   4.342   6.240 -0.3259 -0.6435  0.7170
    9MOL0     C 1137  14.160   4.393   6.170  0.3665  0.0845 -1.1832
    9MOL0     C 1138  14.286   4.348   6.207  0.5426 -0.2277 -0.3043
    9MOL0     C 1139  14.307   4.254   6.311 -0.5768  0.4180  0.2123
    9MOL0     O 1140  14.430   4.212   6.358  0.3753  0.4310 -0.5352
    9MOL0     C 1141  14.531   4.176   6.274  0.1078 -0.5157 -0.1298
    9MOL0     C 1142  14.487   4.080   6.158  0.3502 -0.7735  0.5407
    9MOL0     C 1143  14.594   4.078   6.046  1.0173  0.1793  0.4846
    9MOL0     C 1144  14.748   4.081   6.087  0.2693  0.5087 -0.1558
    9MOL0     C 1145  14.841   4.128   5.978 -0.0061  0.1463  0.9193
    9MOL0     C 1146  14.985   4.142   6.019 -0.5542 -0.1289 -0.1031
    9MOL0     C 1147  15.024   4.257   6.117  0.2849  0.1998 -0.3213
    9MOL0     C 1148  15.010   4.397   6.049 -0.5672  0.0005  0.2118
    9MOL0    Cl 1149  15.112   4.502   6.159 -0.1134  0.2808  0.1268
    9MOL0     C 1150  14.198   4.195   6.371  0.2365  0.0412 -0.2043
    9MOL0     C 1151  14.068   4.240   6.333  0.1560  0.4768 -0.0864
    9MOL0     O 1152  13.951   4.585   6.145 -0.5778  0.8128 -0.6482
    9MOL0     C 1153  13.712   4.644   6.052  0.9981  0.6874  0.1886
    9MOL0     C 1154  13.588   4.672   5.984 -0.1614 -0.0133 -0.5541
    9MOL0     N 1155  12.917   4.748   5.608  1.0696  0.1865 -0.2024
    9MOL0     N 1156  12.884   4.705   5.494  0.3371 -0.3718  0.4851
    9MOL0     C 1157  11.594   4.533   5.526  0.1797 -0.8200 -0.4089
    9MOL0     C 1158  11.465   4.512   5.581 -1.0271  0.5377 -0.1952
    9MOL0     C 1159  11.083   4.301   5.609 -0.0637  0.3882 -0.4620
    9MOL0     C 1160  11.059   4.285   5.741 -0.4401 -0.0960  0.0212
    9MOL0     C 1161  10.929   4.272   5.787 -0.3892  0.1420 -1.0422
    9MOL0     C 1162  10.820   4.256   5.703  0.2346 -0.5275 -0.0643
    9MOL0     O 1163  10.698   4.248   5.766 -0.0317 -0.2638  0.2310
    9MOL0     C 1164  10.576   4.252   5.687  0.1111  1.0825 -0.4007
    9MOL0     C 1165  10.465   4.207   5.785 -0.6097 -0.8017 -0.4285
    9MOL0     C 1166  10.469   4.051   5.795  0.8354  0.5272 -0.5060
    9MOL0     C 1167  10.458   4.003   5.949  0.1195  0.7332 -0.0561
    9MOL0     C 1168  10.344   4.051   6.010  0.6750 -0.3816 -0.2573
    9MOL0     C 1169  10.240   4.086   6.071 -0.3971 -0.2230 -0.2937
    9MOL0     C 1170  10.844   4.270   5.565  0.6016 -0.3242 -0.0853
    9MOL0     C 1171  10.972   4.297   5.516  0.3393 -0.2280  0.4386
    9MOL0     C 1172  10.985   4.300   5.363  0.0091  0.1978  0.3979
    9MOL0     H 1173  11.526   4.202   5.712 -0.6873 -0.3996 -0.3697
    9MOL0     H 1174  11.747   4.241   5.607  0.5487 -0.3933  1.1111
    9MOL0     H 1175  11.910   4.570   5.601 -1.5076 -3.4307  0.9824
    9MOL0     H 1176  11.860   4.639   5.450 -0.6642 -1.4701 -1.4273
    9MOL0     H 1177  12.057   4.417   5.461  0.0712  1.2451  2.2011
    9MOL0     H 1178  12.027   4.518   5.322  2.0833 -1.2086  0.8763
    9MOL0     H 1179  12.117   4.716   5.430  0.6729  0.3258  0.0494
    9MOL0     H 1180  12.117   4.653   5.588 -3.0537  1.8395 -0.6935
    9MOL0     H 1181  12.334   4.610   5.565 -0.4672 -1.3996  1.4992
    9MOL0     H 1182  12.269   4.461   5.497 -1.6216  0.0121 -0.4757
    9MOL0     H 1183  12.346   4.688   5.311  2.2312 -0.8543 -2.7182
    9MOL0     H 1184  12.295   4.531   5.266  2.4325  0.1876 -1.0117
    9MOL0     H 1185  12.492   4.423   5.351  0.0761  0.4346  0.6579
    9MOL0     H 1186  12.542   4.557   5.250  1.4614 -1.4445  1.1582
    9MOL0     H 1187  12.553   4.538   5.547 -0.1607  0.2685 -0.1864
    9MOL0     H 1188  12.566   4.694   5.453 -0.6518  0.3952 -2.7060
    9MOL0     H 1189  12.744   4.432   5.413 -5.0262 -1.0229 -1.1585
    9MOL0     H 1190  12.750   4.582   5.320  0.0642 -1.6075 -0.7915
    9MOL0     H 1191  12.790   4.460   5.690 -1.4415 -0.3821 -2.7516
    9MOL0     H 1192  12.882   4.583   5.922  1.6769  0.2240  2.5913
    9MOL0     H 1193  12.837   4.744   5.882  1.6489 -0.3705  2.3627
    9MOL0     H 1194  13.044   4.826   5.899 -1.3759 -0.3668  1.5155
    9MOL0     H 1195  13.063   4.702   6.017 -1.2739  1.1665  0.8786
    9MOL0     H 1196  13.156   4.548   5.819  2.4443 -0.9301  0.3856
    9MOL0     H 1197  13.190   4.717   5.747 -2.3607  1.2995  1.0154
    9MOL0     H 1198  13.334   4.771   5.929 -0.1958 -0.1728  3.2085
    9MOL0     H 1199  13.270   4.630   6.020  1.8506 -3.2684 -0.7435
    9MOL0     H 1200  13.484   4.351   5.923 -0.3263 -0.2245  0.0681
    9MOL0     H 1201  13.727   4.238   6.157 -0.1004  0.4295  0.6253
    9MOL0     H 1202  13.799   4.222   6.000  0.0907  0.2634 -0.2122
    9MOL0     H 1203  13.634   4.184   6.014  0.1669 -0.8753  1.7789
    9MOL0     H 1204  14.143   4.452   6.081  1.0305  1.6577 -0.3118
    9MOL0     H 1205  14.363   4.395   6.146 -0.6935  1.7934 -0.3833
    9MOL0     H 1206  14.579   4.267   6.236 -1.9546  0.6612 -0.0725
    9MOL0     H 1207  14.610   4.131   6.335  0.7331 -1.9993 -1.9563
    9MOL0     H 1208  14.464   3.982   6.203 -0.8550 -1.4667 -1.4460
    9MOL0     H 1209  14.398   4.111   6.103 -0.0898 -5.7198 -2.1065
    9MOL0     H 1210  14.567   4.162   5.982 -0.7056 -0.3430  0.4682
    9MOL0     H 1211  14.586   3.987   5.986  2.7259 -1.8937  3.1659
    9MOL0     H 1212  14.771   3.978   6.115 -0.2020 -0.7391 -3.9371
    9MOL0     H 1213  14.767   4.149   6.171  1.4790  0.7754 -0.6127
    9MOL0     H 1214  14.841   4.062   5.891  0.9993 -0.2557  1.2008
    9MOL0     H 1215  14.801   4.224   5.946 -1.5661  0.1375  2.6730
    9MOL0     H 1216  15.051   4.156   5.932 -0.4304 -3.5480 -0.7082
    9MOL0     H 1217  15.018   4.049   6.066 -0.3505 -0.1607 -0.3068
    9MOL0     H 1218  15.124   4.257   6.161  0.1840  1.2467 -0.0770
    9MOL0     H 1219  14.958   4.243   6.203 -1.4793 -0.1293 -1.6667
    9MOL0     H 1220  14.905   4.417   6.030 -0.4087  2.1644  1.3574
    9MOL0     H 1221  15.065   4.393   5.954  1.2103 -1.2764  1.2291
    9MOL0     H 1222  14.214   4.119   6.447 -0.2721 -0.6931 -0.8148
    9MOL0     H 1223  13.979   4.193   6.374  0.8947 -0.8650  0.0329
    9MOL0     H 1224  13.778   4.724   6.083  0.6749  0.7310  0.7787
    9MOL0     H 1225  13.560   4.775   5.968  1.6056  0.8095  1.2229
    9MOL0     H 1226  11.597   4.624   5.467  1.1150 -1.2511 -1.0528
    9MOL0     H 1227  11.394   4.594   5.582 -0.0793  1.3904  0.7027
    9MOL0     H 1228  11.136   4.280   5.817  0.7431 -1.0063 -1.1939
    9MOL0     H 1229  10.905   4.271   5.892  3.0429  2.7606 -0.0435
    9MOL0     H 1230  10.561   4.355   5.653 -0.9414  0.8254 -0.7773
    9MOL0     H 1231  10.578   4.187   5.599 -0.9140  3.0225 -1.9362
    9MOL0     H 1232  10.371   4.235   5.737 -0.1105 -2.2240 -2.4020
    9MOL0     H 1233  10.480   4.264   5.877 -2.2952  1.0159 -1.2101
    9MOL0     H 1234  10.393   4.000   5.735  2.1196 -3.2494  0.8211
    9MOL0     H 1235  10.564   4.011   5.759  0.1721  0.4313 -2.2490
    9MOL0     H 1236  10.543   4.036   6.010 -0.5560  1.5882  0.4471
    9MOL0     H 1237  10.455   3.894   5.949 -1.7232  0.7288  1.6991
    9MOL0     H 1238  10.159   4.111   6.137 -1.1573 -4.0099  0.3969
    9MOL0     H 1239  10.758   4.274   5.499 -1.8164 -0.9280  2.7912
    9MOL0     H 1240  10.894   4.299   5.302  0.1733 -2.3848  0.1010
    9MOL0     H 1241  11.047   4.385   5.331  0.9668 -1.3930 -2.3105
    9MOL0     H 1242  11.044   4.214   5.332  0.2523  0.5751 -0.2016
   10MOL0     O 1243   5.476   7.426   3.890 -0.1933 -0.1145 -0.2622
   10MOL0     C 1244   5.375   7.364   3.896  1.0849  0.3940  0.0609
   10MOL0     O 1245   5.348   7.269   3.991  0.2036  0.5107  0.4522
   10MOL0     C 1246   5.439   7.244   4.092  0.5671 -0.1860 -0.9736
   10MOL0     C 1247   5.448   7.103   4.125 -0.7151  0.7225 -0.9095
   10MOL0     C 1248   5.543   7.067   4.214  0.1183 -0.5414 -0.8419
   10MOL0     C 1249   5.634   7.171   4.270 -0.2327 -0.4485 -0.3731
   10MOL0     O 1250   5.744   7.148   4.356  0.8223  0.0642  0.4548
   10MOL0     C 1251   5.843   7.048   4.318  0.1044  0.6251 -1.0380
   10MOL0     C 1252   5.924   7.092   4.193  0.1922 -0.0917 -0.0769
   10MOL0     C 1253   6.026   6.986   4.147 -0.2278 -0.5862 -0.0143
   10MOL0     C 1254   6.139   7.050   4.068 -1.0594 -1.0599  0.4385
   10MOL0     C 1255   6.269   7.049   4.141  0.4240 -0.0770  0.3412
   10MOL0     C 1256   6.278   7.160   4.251  0.0844  0.1020 -0.3470
   10MOL0     C 1257   6.418   7.185   4.310 -0.5154  0.2355  0.1902
   10MOL0     C 1258   6.492   7.067   4.358 -0.3199 -0.6331 -0.4656
   10MOL0     N 1259   6.641   7.092   4.345  0.5800  0.5910  0.0996
   10MOL0     C 1260   6.722   7.074   4.235  0.6150  0.0296 -0.3492
   10MOL0     C 1261   6.842   7.133   4.267 -0.1836  0.1729 -0.2433
   10MOL0     C 1262   6.976   7.130   4.197  0.5063  0.3242  0.5406
   10MOL0     C 1263   7.085   7.112   4.306 -0.7096  0.6066 -0.1522
   10MOL0     C 1264   7.097   6.965   4.342  0.2047  0.0026 -0.0804
   10MOL0     C 1265   7.170   6.946   4.472  1.2335  0.0563  1.1688
   10MOL0     O 1266   7.192   6.804   4.465  0.0777  0.4509 -0.1462
   10MOL0     C 1267   7.299   6.752   4.526  0.8761  0.8354  0.6012
   10MOL0     C 1268   7.370   6.819   4.625  0.8046  0.5297 -0.6132
   10MOL0     C 1269   7.492   6.775   4.680  0.3822 -0.4911  0.1851
   10MOL0     C 1270   7.564   6.871   4.777 -0.1088 -0.4485  0.4041
   10MOL0     C 1271   7.540   6.651   4.633 -0.1525 -1.1193  0.2339
   10MOL0     C 1272   7.656   6.581   4.697  0.6197 -1.2756  0.1726
   10MOL0     O 1273   7.676   6.616   4.832  0.5629 -0.8545  0.0384
   10MOL0     C 1274   7.795   6.579   4.880  1.4207 -0.5288 -0.7149
   10MOL0     C 1275   7.804   6.455   4.954  0.2677 -0.4765 -0.2411
   10MOL0     C 1276   7.929   6.422   5.000  1.0186 -0.3993  0.3577
   10MOL0     C 1277   8.037   6.501   4.971 -0.1873 -0.1655 -0.1371
   10MOL0     O 1278   8.164   6.470   5.009  0.1525 -0.4269  0.1520
   10MOL0     C 1279   8.202   6.336   4.998 -0.1082 -0.0726  1.0557
   10MOL0     C 1280   8.352   6.311   5.004 -1.1429  0.5082  0.1225
   10MOL0     C 1281   8.390   6.171   4.960 -0.5146  0.2957  0.9025
   10MOL0     C 1282   8.367   6.068   5.069  0.1561 -0.0329  0.6327
   10MOL0     C 1283   8.397   5.920   5.034  0.0698  0.4276 -0.6280
   10MOL0     C 1284   8.545   5.893   5.013 -0.5915  0.9530  0.3852
   10MOL0     C 1285   8.574   5.742   4.999 -0.6688 -0.1983 -0.0630
   10MOL0     C 1286   8.717   5.712   4.957  0.5999 -0.6911 -0.3086
   10MOL0    Cl 1287   8.744   5.744   4.789  0.0395  0.2643  0.1247
   10MOL0     C 1288   8.025   6.619   4.900 -0.4971  0.7888 -0.8386
   10MOL0     C 1289   7.905   6.662   4.848 -0.1722  0.5111 -0.0281
   10MOL0     O 1290   7.728   6.502   4.640 -0.0533  0.1924  0.2422
   10MOL0     C 1291   7.473   6.584   4.533 -0.2979  0.5086 -0.3420
   10MOL0     C 1292   7.352   6.628   4.487 -1.0410  0.1699 -0.4603
   10MOL0     N 1293   6.827   7.188   4.396 -0.3601  0.7121  1.4810
   10MOL0     N 1294   6.706   7.172   4.434  0.0076 -0.0574 -0.8896
   10MOL0     C 1295   5.603   7.303   4.247 -0.1491  0.3194 -0.0211
   10MOL0     C 1296   5.513   7.346   4.151  0.1519 -0.1094 -0.2371
   10MOL0     C 1297   5.259   7.379   3.799 -0.0701 -0.4024  0.4762
   10MOL0     C 1298   5.153   7.292   3.806 -0.7918  0.1022  0.2226
   10MOL0     C 1299   5.044   7.302   3.720  0.9590  0.4005 -0.0188
   10MOL0     C 1300   5.037   7.398   3.619  0.5399  0.2640 -0.6184
   10MOL0     O 1301   4.919   7.411   3.545  0.4935  0.6661  0.3724
   10MOL0     C 1302   4.904   7.519   3.452  0.3038 -0.0445  0.2825
   10MOL0     C 1303   4.978   7.500   3.312 -0.0633  0.0928 -0.0959
   10MOL0     C 1304   4.978   7.633   3.230  0.7458 -0.5403  0.1456
   10MOL0     C 1305   5.031   7.603   3.085  0.1812 -0.5943 -0.6231
   10MOL0     C 1306   4.928   7.540   3.009  0.4204 -0.3430 -0.0811
   10MOL0     C 1307   4.840   7.481   2.945 -0.0228 -0.2120  0.0877
   10MOL0     C 1308   5.152   7.485   3.605 -0.2194  0.4260 -0.7374
   10MOL0     C 1309   5.259   7.479   3.697  0.5153  1.6072 -0.4052
   10MOL0     C 1310   5.374   7.575   3.675  0.7252 -0.4112 -0.5241
   10MOL0     H 1311   5.390   7.022   4.083  2.2156 -2.7005  1.0323
   10MOL0     H 1312   5.560   6.961   4.234  3.6671 -0.1678 -1.2168
   10MOL0     H 1313   5.791   6.957   4.291 -0.9470  1.0207 -0.3885
   10MOL0     H 1314   5.915   7.024   4.397 -0.4569  1.9514 -0.0748
   10MOL0     H 1315   5.858   7.113   4.108  2.5736 -0.8752 -2.2694
   10MOL0     H 1316   5.970   7.186   4.226  0.6416 -0.6558  0.9273
   10MOL0     H 1317   6.063   6.933   4.235  1.3867 -2.0138 -1.4635
   10MOL0     H 1318   5.962   6.913   4.098 -1.7517 -0.3303  1.5126
   10MOL0     H 1319   6.153   7.006   3.969  0.6305  1.4880 -0.5653
   10MOL0     H 1320   6.117   7.157   4.056 -1.0928 -0.5426  3.9953
   10MOL0     H 1321   6.342   7.063   4.061  0.7224 -0.5991  0.5177
   10MOL0     H 1322   6.274   6.948   4.184  1.2484 -0.2277 -0.0905
   10MOL0     H 1323   6.243   7.256   4.211  1.4128  0.9408  0.4174
   10MOL0     H 1324   6.215   7.130   4.335 -4.2481  1.6418 -2.7339
   10MOL0     H 1325   6.410   7.272   4.376  1.4871  1.8483 -1.5571
   10MOL0     H 1326   6.474   7.219   4.222 -1.5236 -1.3990 -1.1492
   10MOL0     H 1327   6.457   7.062   4.462  1.0394  2.1726  0.2157
   10MOL0     H 1328   6.466   6.973   4.308  0.2536 -1.4767  0.7696
   10MOL0     H 1329   6.707   7.006   4.152 -1.9723 -0.9792  0.8457
   10MOL0     H 1330   6.994   7.225   4.145 -2.1621  0.9279  0.5602
   10MOL0     H 1331   6.987   7.066   4.109  0.2492  2.6279 -1.2648
   10MOL0     H 1332   7.176   7.153   4.259 -0.8163  1.1582  0.1185
   10MOL0     H 1333   7.065   7.174   4.394  0.5078  0.7297  0.0573
   10MOL0     H 1334   6.991   6.941   4.352 -0.0944  1.7836  1.5063
   10MOL0     H 1335   7.149   6.909   4.263  3.7921  0.5227  1.7003
   10MOL0     H 1336   7.267   6.997   4.466  0.7176  0.9234  0.0657
   10MOL0     H 1337   7.109   6.965   4.560 -0.2517  0.8313  0.0068
   10MOL0     H 1338   7.329   6.912   4.662 -2.4079 -0.6806 -0.8075
   10MOL0     H 1339   7.666   6.888   4.742  0.0317 -0.6815  0.6934
   10MOL0     H 1340   7.566   6.836   4.880 -2.7341  0.0946  0.6957
   10MOL0     H 1341   7.506   6.964   4.775  0.6508  0.0421  0.7558
   10MOL0     H 1342   7.712   6.399   4.971 -1.8285  2.6520 -0.4091
   10MOL0     H 1343   7.929   6.330   5.058 -2.8167 -1.6177 -1.2035
   10MOL0     H 1344   8.157   6.282   5.082 -2.0212  1.3887  1.0349
   10MOL0     H 1345   8.163   6.307   4.900 -0.4824  2.5428  0.3762
   10MOL0     H 1346   8.408   6.383   4.943  0.7535 -0.9011  0.1460
   10MOL0     H 1347   8.385   6.315   5.107  0.6001 -0.1202 -0.3851
   10MOL0     H 1348   8.492   6.166   4.924 -0.8356  3.4692 -0.7759
   10MOL0     H 1349   8.330   6.140   4.874  1.0408  0.4556 -0.2788
   10MOL0     H 1350   8.262   6.061   5.098  0.5055 -2.5536  1.5251
   10MOL0     H 1351   8.424   6.106   5.154  0.4220  0.8723  0.0632
   10MOL0     H 1352   8.359   5.860   5.117  0.1443 -0.0160 -0.9153
   10MOL0     H 1353   8.341   5.889   4.945 -0.4934  0.4828 -0.2986
   10MOL0     H 1354   8.595   5.926   5.104  0.6127  0.1999  0.0305
   10MOL0     H 1355   8.577   5.960   4.932 -1.2595 -1.3400 -1.9113
   10MOL0     H 1356   8.506   5.696   4.927  1.3899 -0.0010 -2.2250
   10MOL0     H 1357   8.553   5.687   5.091 -0.5668 -1.9823 -1.0690
   10MOL0     H 1358   8.738   5.605   4.968  1.4892 -0.6641 -1.5059
   10MOL0     H 1359   8.782   5.766   5.026 -2.8105  1.7313  1.3025
   10MOL0     H 1360   8.115   6.676   4.881  0.4681 -1.3670 -3.4104
   10MOL0     H 1361   7.908   6.754   4.790  1.7454  1.6126  1.6616
   10MOL0     H 1362   7.521   6.495   4.495 -0.7317 -0.6317  1.6270
   10MOL0     H 1363   7.305   6.565   4.412  0.3759 -1.2051 -0.2389
   10MOL0     H 1364   5.662   7.371   4.307 -3.9693  1.8878  2.3336
   10MOL0     H 1365   5.498   7.453   4.148 -0.6411 -0.2324 -1.0953
   10MOL0     H 1366   5.154   7.224   3.891  0.6644 -0.0424  0.1250
   10MOL0     H 1367   4.955   7.241   3.733 -1.2573  3.2126 -0.9688
   10MOL0     H 1368   4.796   7.518   3.436  0.3103  0.7931  0.1423
   10MOL0     H 1369   4.932   7.616   3.493 -0.6161 -0.5848  2.2789
   10MOL0     H 1370   4.946   7.406   3.266 -1.4534  1.0317 -1.1270
   10MOL0     H 1371   5.084   7.480   3.327  0.1833 -1.6109 -3.3072
   10MOL0     H 1372   4.881   7.682   3.232  1.8599  1.7841  0.2475
   10MOL0     H 1373   5.044   7.696   3.290  1.5781 -0.7602 -0.5218
   10MOL0     H 1374   5.119   7.540   3.099  1.4364  1.4334  1.2591
   10MOL0     H 1375   5.049   7.702   3.041 -1.6652  0.4553  0.8358
   10MOL0     H 1376   4.755   7.441   2.894 -0.2908  0.1983  0.2058
   10MOL0     H 1377   5.161   7.565   3.532  1.3279 -1.1432 -2.3802
   10MOL0     H 1378   5.358   7.640   3.588  1.1432 -0.9437 -1.0100
   10MOL0     H 1379   5.391   7.632   3.766 -0.9214 -1.0005  0.1813
   10MOL0     H 1380   5.467   7.525   3.646  2.0665  1.4479  0.4264
   11MOL0     O 1381   6.995   0.942   0.260 -0.8051  0.2654 -0.4228
   11MOL0     C 1382   6.952   0.994   0.362  0.1773 -0.3646 -1.0995
   11MOL0     O 1383   7.019   1.018   0.484 -0.9162 -0.4039  0.5380
   11MOL0     C 1384   7.151   0.987   0.471 -0.1626 -0.5279 -0.1923
   11MOL0     C 1385   7.194   0.881   0.549 -0.8933  0.1502 -0.3544
   11MOL0     C 1386   7.333   0.839   0.545  0.2606 -0.5863  0.1053
   11MOL0     C 1387   7.433   0.913   0.476  0.1422 -0.1162 -0.0041
   11MOL0     O 1388   7.559   0.862   0.492  0.1142  0.4825 -0.2016
   11MOL0     C 1389   7.667   0.901   0.412 -0.8348  0.2183 -0.1362
   11MOL0     C 1390   7.792   0.841   0.470  0.7325 -0.0568 -0.2555
   11MOL0     C 1391   7.912   0.872   0.379  0.3053  0.3947  0.4406
   11MOL0     C 1392   8.041   0.828   0.443  0.1738  0.1900  0.0878
   11MOL0     C 1393   8.161   0.858   0.351  0.2756  0.5723 -0.1496
   11MOL0     C 1394   8.287   0.806   0.407  0.4218  0.3817 -1.0016
   11MOL0     C 1395   8.405   0.833   0.317  0.3499 -0.1428 -0.7465
   11MOL0     C 1396   8.466   0.970   0.339  0.1929 -0.1194 -0.4820
   11MOL0     N 1397   8.600   0.970   0.274  0.6449 -0.3722  0.3886
   11MOL0     C 1398   8.614   1.027   0.154 -0.7953 -0.6585  0.5583
   11MOL0     C 1399   8.746   1.018   0.116 -0.2734 -0.1412 -1.1974
   11MOL0     C 1400   8.802   1.048  -0.010  0.1039  0.1719  1.2088
   11MOL0     C 1401   8.947   1.109  -0.014 -0.2066 -0.1896 -0.4658
   11MOL0     C 1402   8.979   1.155  -0.152 -0.3466  0.4648 -0.5287
   11MOL0     C 1403   9.132   1.172  -0.161  0.5151 -0.5311 -0.6962
   11MOL0     O 1404   9.163   1.210  -0.300 -0.4038  1.0602 -0.0914
   11MOL0     C 1405   9.299   1.224  -0.337 -0.1456 -0.0932  0.7260
   11MOL0     C 1406   9.334   1.246  -0.471 -0.0813  1.1056 -0.3120
   11MOL0     C 1407   9.466   1.273  -0.502  0.6423 -0.2686 -0.1089
   11MOL0     C 1408   9.500   1.297  -0.643  0.7176 -0.1475 -0.0097
   11MOL0     C 1409   9.570   1.266  -0.399  0.5766 -0.7339  0.2005
   11MOL0     C 1410   9.712   1.322  -0.428  0.4057 -0.5329 -0.2851
   11MOL0     O 1411   9.725   1.418  -0.518  0.4499  0.0233 -0.1005
   11MOL0     C 1412   9.846   1.472  -0.526 -0.4364  0.6666 -0.3597
   11MOL0     C 1413   9.921   1.450  -0.635 -0.1155  0.0579  0.2698
   11MOL0     C 1414  10.055   1.492  -0.639 -0.0684  1.1281 -0.3116
   11MOL0     C 1415  10.109   1.559  -0.528 -0.2867 -0.4124 -1.3462
   11MOL0     O 1416  10.232   1.614  -0.539  0.5148  0.0199 -0.3238
   11MOL0     C 1417  10.337   1.532  -0.475  0.8154  0.0149  0.0935
   11MOL0     C 1418  10.473   1.565  -0.536  0.0284 -0.2350 -0.4618
   11MOL0     C 1419  10.485   1.494  -0.679 -0.0008 -0.8386 -0.8808
   11MOL0     C 1420  10.634   1.504  -0.719  0.0085  0.0673  0.2077
   11MOL0     C 1421  10.648   1.447  -0.859  0.3637  0.0366  0.5745
   11MOL0     C 1422  10.784   1.456  -0.924 -0.8313 -0.2323 -0.1502
   11MOL0     C 1423  10.865   1.330  -0.884  1.0963 -0.3372 -0.5120
   11MOL0     C 1424  11.008   1.362  -0.908 -0.1187 -0.7033  0.5517
   11MOL0    Cl 1425  11.098   1.446  -0.772  0.6001  0.3172 -0.5127
   11MOL0     C 1426  10.031   1.576  -0.412  0.5000  0.0542 -0.6920
   11MOL0     C 1427   9.900   1.532  -0.405 -0.0834  0.7316  0.2979
   11MOL0     O 1428   9.795   1.264  -0.367  0.0377 -0.7920  0.1990
   11MOL0     C 1429   9.537   1.255  -0.262 -0.6628  0.2607  0.1169
   11MOL0     C 1430   9.398   1.229  -0.235 -0.2405  0.3236  0.0854
   11MOL0     N 1431   8.812   0.959   0.226 -0.4583 -0.0016 -0.2677
   11MOL0     N 1432   8.723   0.932   0.324  0.7340 -0.2634  0.1733
   11MOL0     C 1433   7.385   1.026   0.403 -0.3147  0.8880  0.1524
   11MOL0     C 1434   7.247   1.058   0.402 -0.0729  0.1039 -0.0237
   11MOL0     C 1435   6.826   1.064   0.364 -0.7102  0.4561 -0.1990
   11MOL0     C 1436   6.753   1.080   0.483  0.5807  0.2497  0.6287
   11MOL0     C 1437   6.623   1.128   0.479 -0.3182 -0.0689 -0.0118
   11MOL0     C 1438   6.574   1.179   0.359 -0.0341 -0.1508 -0.8737
   11MOL0     O 1439   6.455   1.252   0.360  0.0088 -0.1382 -0.2569
   11MOL0     C 1440   6.336   1.174   0.347 -0.8417  0.4422  0.5148
   11MOL0     C 1441   6.216   1.262   0.345 -0.3344 -0.5075  0.6047
   11MOL0     C 1442   6.206   1.341   0.221 -0.1071 -0.1713  0.3854
   11MOL0     C 1443   6.164   1.252   0.095 -0.2941 -0.0653  0.1731
   11MOL0     C 1444   6.024   1.227   0.103 -0.5098 -0.3231 -1.0828
   11MOL0     C 1445   5.906   1.199   0.107  0.6393  0.0931  0.1137
   11MOL0     C 1446   6.648   1.175   0.246  0.4756 -0.6961 -0.0555
   11MOL0     C 1447   6.768   1.118   0.243  0.1344 -0.7749  0.5838
   11MOL0     C 1448   6.847   1.116   0.110 -0.6801  0.1449 -0.1814
   11MOL0     H 1449   7.131   0.824   0.617  0.9526 -1.2498  0.2827
   11MOL0     H 1450   7.364   0.754   0.605  2.0226  0.3751  0.6530
   11MOL0     H 1451   7.682   1.009   0.408  2.3176  0.0747  3.0384
   11MOL0     H 1452   7.647   0.850   0.317 -1.3605 -1.4779  0.8295
   11MOL0     H 1453   7.803   0.897   0.563 -0.8062  1.6462 -1.0373
   11MOL0     H 1454   7.783   0.733   0.485  0.7186 -0.2248 -1.3897
   11MOL0     H 1455   7.897   0.818   0.285 -1.9456 -0.4309  1.1992
   11MOL0     H 1456   7.915   0.979   0.361  1.4569 -0.0582 -2.5620
   11MOL0     H 1457   8.057   0.869   0.543  0.4857 -1.1537  0.6096
   11MOL0     H 1458   8.026   0.721   0.458 -0.3372  0.2724  0.1638
   11MOL0     H 1459   8.166   0.965   0.326 -1.7850  1.0022  0.9845
   11MOL0     H 1460   8.149   0.810   0.253  2.0676 -0.2349 -0.0041
   11MOL0     H 1461   8.311   0.856   0.501  2.7224 -2.2656 -0.0492
   11MOL0     H 1462   8.273   0.699   0.424 -1.7537  0.3946 -2.2561
   11MOL0     H 1463   8.372   0.831   0.212  0.2467 -0.7699 -0.7098
   11MOL0     H 1464   8.474   0.750   0.335  0.6141  0.4636  1.2343
   11MOL0     H 1465   8.415   1.055   0.293 -0.4492  0.1582  0.6839
   11MOL0     H 1466   8.484   0.994   0.445  0.2570  3.2604 -1.1430
   11MOL0     H 1467   8.537   1.081   0.100  0.3512  1.3774  0.8353
   11MOL0     H 1468   8.727   1.116  -0.050  1.0190  1.2702  1.2961
   11MOL0     H 1469   8.809   0.953  -0.064  0.0121  1.3222 -0.9214
   11MOL0     H 1470   8.947   1.187   0.062 -0.7348 -0.3022 -0.3467
   11MOL0     H 1471   9.009   1.027   0.025 -0.1523 -0.1482 -0.4658
   11MOL0     H 1472   8.972   1.084  -0.235  2.2419 -2.2995  1.3937
   11MOL0     H 1473   8.919   1.240  -0.185  2.3285  2.6946 -0.0413
   11MOL0     H 1474   9.173   1.247  -0.092 -0.0232 -0.7773 -0.0979
   11MOL0     H 1475   9.189   1.082  -0.139  1.9119  0.5522  0.2994
   11MOL0     H 1476   9.273   1.237  -0.560 -0.3598  0.6043 -0.0722
   11MOL0     H 1477   9.487   1.404  -0.665  2.2750 -0.1127 -0.9067
   11MOL0     H 1478   9.439   1.248  -0.718 -0.5139  3.3439 -1.5224
   11MOL0     H 1479   9.605   1.272  -0.658  1.2630  1.1060  1.4328
   11MOL0     H 1480   9.871   1.408  -0.721 -0.2676 -0.5641  0.6544
   11MOL0     H 1481  10.120   1.477  -0.725  1.8302  0.0224  1.2211
   11MOL0     H 1482  10.339   1.560  -0.370  0.6690  0.5659 -0.0473
   11MOL0     H 1483  10.308   1.427  -0.489  1.6967 -0.0029 -2.0275
   11MOL0     H 1484  10.490   1.673  -0.527 -0.7020 -0.1019 -0.6898
   11MOL0     H 1485  10.544   1.523  -0.463 -0.3781  0.3322  0.2814
   11MOL0     H 1486  10.405   1.524  -0.748 -1.2991 -0.9296  0.5282
   11MOL0     H 1487  10.472   1.386  -0.671  1.8042 -0.9696  1.2971
   11MOL0     H 1488  10.687   1.439  -0.648 -1.7007 -0.8653  0.6799
   11MOL0     H 1489  10.681   1.603  -0.715  1.0622 -0.4079  0.0099
   11MOL0     H 1490  10.623   1.340  -0.860  0.8678 -0.0898  0.9734
   11MOL0     H 1491  10.581   1.506  -0.922 -0.1267  0.4526  1.4689
   11MOL0     H 1492  10.834   1.542  -0.880 -0.0563  0.5455 -2.4184
   11MOL0     H 1493  10.785   1.476  -1.031  0.5443  0.8677  0.0475
   11MOL0     H 1494  10.843   1.248  -0.953  0.7779  1.6965 -2.9744
   11MOL0     H 1495  10.842   1.311  -0.779 -0.7219 -1.6440 -1.0933
   11MOL0     H 1496  11.020   1.424  -0.998  0.1331  0.7642  1.5724
   11MOL0     H 1497  11.061   1.267  -0.926 -1.7409 -1.5586  0.0745
   11MOL0     H 1498  10.067   1.640  -0.332 -1.2112  0.0597  0.1192
   11MOL0     H 1499   9.840   1.550  -0.317  1.2233  1.2912  1.1078
   11MOL0     H 1500   9.603   1.285  -0.181  0.8070 -2.3355 -0.0011
   11MOL0     H 1501   9.379   1.220  -0.129 -0.8509  1.0263  0.0475
   11MOL0     H 1502   7.462   1.082   0.351  2.2833 -0.5635  2.1737
   11MOL0     H 1503   7.214   1.148   0.351  1.1929 -0.4343 -1.9221
   11MOL0     H 1504   6.797   1.051   0.578  1.5583 -0.3518  0.0102
   11MOL0     H 1505   6.582   1.144   0.579  0.5283 -3.8354  1.1138
   11MOL0     H 1506   6.337   1.111   0.257  0.2819 -0.8060  1.3560
   11MOL0     H 1507   6.330   1.099   0.427  1.1215 -0.6755 -0.3115
   11MOL0     H 1508   6.226   1.334   0.427  1.9923  0.2408 -0.2553
   11MOL0     H 1509   6.122   1.209   0.363 -1.5063  1.1640 -0.3355
   11MOL0     H 1510   6.141   1.428   0.231  1.3317  0.9960 -0.0161
   11MOL0     H 1511   6.305   1.382   0.198  0.2122 -1.2158 -0.1599
   11MOL0     H 1512   6.216   1.156   0.081 -0.5955 -0.0056 -1.7506
   11MOL0     H 1513   6.182   1.305   0.000  0.8524 -0.1361  0.3291
   11MOL0     H 1514   5.806   1.162   0.097  1.1128 -1.2852  0.2944
   11MOL0     H 1515   6.606   1.217   0.154 -0.8616  0.0148  0.8350
   11MOL0     H 1516   6.946   1.160   0.126  0.2339 -1.7881 -0.2192
   11MOL0     H 1517   6.859   1.009   0.086  3.5771 -0.0965  1.9532
   11MOL0     H 1518   6.793   1.185   0.045  1.9541  0.6891 -1.9753
   12MOL0     O 1519   1.666   8.885   5.209 -0.0049 -0.0966  0.1080
   12MOL0     C 1520   1.542   8.872   5.212  0.0954 -0.0857 -0.7511
   12MOL0     O 1521   1.467   8.886   5.318  0.0072 -0.4734  0.7657
   12MOL0     C 1522   1.525   8.872   5.441  0.8611  0.1436 -0.7570
   12MOL0     C 1523   1.461   8.933   5.547  0.2006 -0.6550 -0.0678
   12MOL0     C 1524   1.504   8.927   5.679 -0.5409  0.4347 -0.6106
   12MOL0     C 1525   1.609   8.848   5.708  0.3400 -0.1707  0.2875
   12MOL0     O 1526   1.653   8.844   5.833 -0.0507  0.1685  0.1682
   12MOL0     C 1527   1.563   8.772   5.921  0.2610 -0.2635 -0.1323
   12MOL0     C 1528   1.597   8.780   6.071  0.1076 -0.1494 -0.4219
   12MOL0     C 1529   1.720   8.697   6.101 -0.0732  0.3365  1.0482
   12MOL0     C 1530   1.709   8.639   6.241 -0.1896 -0.2412 -0.5775
   12MOL0     C 1531   1.842   8.565   6.280 -0.5738  0.2141  0.7178
   12MOL0     C 1532   1.835   8.421   6.229 -0.2267  0.4984  1.0406
   12MOL0     C 1533   1.946   8.323   6.284  0.3498 -0.1321  0.0718
   12MOL0     C 1534   2.086   8.357   6.243  0.7594  1.1818 -0.0492
   12MOL0     N 1535   2.187   8.254   6.276  0.3425  0.6270 -0.0444
   12MOL0     C 1536   2.172   8.129   6.340  0.3753 -0.4075 -0.0827
   12MOL0     C 1537   2.287   8.067   6.318 -0.2840  1.0466 -0.5317
   12MOL0     C 1538   2.321   7.930   6.366 -0.2214  1.0141 -0.8291
   12MOL0     C 1539   2.469   7.922   6.404 -0.2748 -0.6311 -0.6478
   12MOL0     C 1540   2.487   7.773   6.436  0.2175  0.7120  0.1163
   12MOL0     C 1541   2.637   7.738   6.452 -0.1635 -0.1372 -0.2032
   12MOL0     O 1542   2.697   7.705   6.320 -0.1184  0.2796 -0.5423
   12MOL0     C 1543   2.835   7.695   6.320  0.5234  0.4831 -1.1692
   12MOL0     C 1544   2.897   7.734   6.200  0.0403  0.4008 -0.2099
   12MOL0     C 1545   3.035   7.713   6.182 -0.4573  0.1198 -1.0294
   12MOL0     C 1546   3.088   7.755   6.046 -0.4781  0.5496  0.4001
   12MOL0     C 1547   3.117   7.664   6.292  0.3951  1.5229 -1.1950
   12MOL0     C 1548   3.260   7.637   6.289  0.0294 -0.1559  0.3286
   12MOL0     O 1549   3.326   7.665   6.405  0.0080  0.0239  0.6429
   12MOL0     C 1550   3.458   7.630   6.410 -0.6669 -0.6543 -0.0542
   12MOL0     C 1551   3.501   7.531   6.500 -0.2528  0.7592  1.0986
   12MOL0     C 1552   3.634   7.492   6.502 -0.4609 -0.3010  0.1635
   12MOL0     C 1553   3.735   7.567   6.452 -0.5263  0.4635  0.9067
   12MOL0     O 1554   3.867   7.533   6.473 -0.1201 -0.6047 -0.6357
   12MOL0     C 1555   3.963   7.563   6.373  0.4513  0.1924 -0.0133
   12MOL0     C 1556   4.106   7.556   6.439 -0.3524 -0.0803  0.2893
   12MOL0     C 1557   4.149   7.429   6.497  0.5547 -0.7386  0.1879
   12MOL0     C 1558   4.268   7.441   6.589 -0.7245 -0.8785  0.8521
   12MOL0     C 1559   4.336   7.303   6.628  0.5759  0.0572  0.0751
   12MOL0     C 1560   4.472   7.320   6.685  0.1324  0.0718 -0.1724
   12MOL0     C 1561   4.549   7.190   6.720 -0.3725  0.0079 -0.3494
   12MOL0     C 1562   4.554   7.159   6.871  0.9341  1.1922 -0.0491
   12MOL0    Cl 1563   4.628   7.290   6.970  0.0014 -0.0075  0.0608
   12MOL0     C 1564   3.688   7.673   6.367 -1.0580  0.5661 -0.0797
   12MOL0     C 1565   3.557   7.700   6.341  0.4041 -0.3038  0.7526
   12MOL0     O 1566   3.308   7.615   6.179 -0.0279  0.3518  0.1063
   12MOL0     C 1567   3.050   7.633   6.414 -0.4593 -0.3329  0.0621
   12MOL0     C 1568   2.912   7.644   6.426  0.5475  0.2675  0.9039
   12MOL0     N 1569   2.375   8.154   6.253  0.4436  0.4480  0.2127
   12MOL0     N 1570   2.314   8.262   6.222  0.2670  0.2394  0.4794
   12MOL0     C 1571   1.674   8.774   5.611  0.3912 -0.0702  0.2658
   12MOL0     C 1572   1.638   8.790   5.475  1.2270  0.6743 -0.0381
   12MOL0     C 1573   1.473   8.889   5.090  0.6794  0.0272  0.9738
   12MOL0     C 1574   1.377   8.991   5.074  0.6891  0.2604  0.4761
   12MOL0     C 1575   1.317   9.013   4.957  0.7012  0.3982 -0.4409
   12MOL0     C 1576   1.364   8.950   4.840  0.0397 -0.3107  0.6789
   12MOL0     O 1577   1.305   8.990   4.723  0.1333  0.1428 -0.7992
   12MOL0     C 1578   1.390   9.029   4.610 -0.6506  0.2820  0.2841
   12MOL0     C 1579   1.320   9.000   4.485 -0.1165 -0.2751  0.0150
   12MOL0     C 1580   1.253   8.861   4.481 -0.3952 -1.0703  0.3249
   12MOL0     C 1581   1.177   8.845   4.344  0.4351  0.1534 -0.0625
   12MOL0     C 1582   1.080   8.728   4.339  0.5105  0.3239  0.4991
   12MOL0     C 1583   1.030   8.618   4.339 -0.0437  0.0559 -0.5588
   12MOL0     C 1584   1.455   8.847   4.851 -0.1555  0.8537  0.8394
   12MOL0     C 1585   1.508   8.811   4.978  0.6973  0.5478  0.5914
   12MOL0     C 1586   1.592   8.694   4.997 -0.1395  0.5954  0.2568
   12MOL0     H 1587   1.380   9.001   5.527  1.2600  0.7684  0.2928
   12MOL0     H 1588   1.442   8.975   5.754 -0.2468  1.6914 -1.1538
   12MOL0     H 1589   1.571   8.668   5.887 -3.1155 -1.5516  2.4090
   12MOL0     H 1590   1.459   8.801   5.906 -0.0669  0.6547  3.0351
   12MOL0     H 1591   1.605   8.879   6.117  0.1162 -0.9933  1.4996
   12MOL0     H 1592   1.507   8.738   6.118 -0.5186  0.8930 -0.6673
   12MOL0     H 1593   1.737   8.613   6.034  2.5432  2.3737 -1.1029
   12MOL0     H 1594   1.814   8.748   6.075  1.5683 -2.9801 -0.0088
   12MOL0     H 1595   1.701   8.720   6.314 -2.6247 -0.5372 -0.4483
   12MOL0     H 1596   1.629   8.566   6.256  0.7873 -1.8078 -2.5036
   12MOL0     H 1597   1.857   8.556   6.388 -1.1587 -0.3182  0.7624
   12MOL0     H 1598   1.936   8.611   6.248 -0.6859  0.5040  0.8061
   12MOL0     H 1599   1.740   8.381   6.265 -0.1136 -1.8293 -0.9897
   12MOL0     H 1600   1.840   8.417   6.119  3.8098 -1.4509  1.1204
   12MOL0     H 1601   1.923   8.222   6.248  0.0476  0.2784 -0.9224
   12MOL0     H 1602   1.936   8.326   6.393 -0.4342  1.3051 -0.0197
   12MOL0     H 1603   2.086   8.379   6.136  0.9703 -3.0404 -1.1148
   12MOL0     H 1604   2.108   8.449   6.297 -1.4379  0.7924  1.7015
   12MOL0     H 1605   2.094   8.079   6.396 -0.1078  0.7778  0.3502
   12MOL0     H 1606   2.290   7.862   6.287  1.5633  2.5386 -2.9625
   12MOL0     H 1607   2.261   7.906   6.454 -0.7702 -2.8641 -2.0576
   12MOL0     H 1608   2.531   7.946   6.317 -0.0478 -0.1588 -0.3599
   12MOL0     H 1609   2.495   7.964   6.501  0.1054 -2.7738  0.2324
   12MOL0     H 1610   2.449   7.748   6.535 -1.4259 -1.5808 -0.9908
   12MOL0     H 1611   2.435   7.708   6.364 -0.0816 -0.0943  1.0411
   12MOL0     H 1612   2.688   7.827   6.488 -1.8416  0.9941 -0.5276
   12MOL0     H 1613   2.656   7.658   6.525 -0.4292 -0.5803 -0.6107
   12MOL0     H 1614   2.839   7.777   6.119  1.3895  2.5077 -0.1546
   12MOL0     H 1615   3.174   7.823   6.051  0.6074 -0.4909 -2.2233
   12MOL0     H 1616   3.003   7.800   5.993 -0.8062 -0.3661  0.1332
   12MOL0     H 1617   3.110   7.672   5.979  0.5563  2.6703 -2.0721
   12MOL0     H 1618   3.421   7.469   6.540 -1.5872 -0.5650 -3.0476
   12MOL0     H 1619   3.662   7.402   6.557  1.3487  0.3598  0.3936
   12MOL0     H 1620   3.972   7.499   6.284 -0.6125  0.7783 -0.5572
   12MOL0     H 1621   3.953   7.667   6.341  2.5306  0.4666  0.0349
   12MOL0     H 1622   4.178   7.579   6.360  1.5158  2.6176  2.5658
   12MOL0     H 1623   4.104   7.633   6.517 -1.1063  1.5538 -1.2564
   12MOL0     H 1624   4.181   7.369   6.411 -2.0047  0.1320 -1.4763
   12MOL0     H 1625   4.069   7.373   6.548 -0.1616  1.6357  1.8521
   12MOL0     H 1626   4.238   7.499   6.677  1.3802  1.9388 -0.1344
   12MOL0     H 1627   4.343   7.504   6.541  2.6505 -3.2674  2.5769
   12MOL0     H 1628   4.275   7.241   6.694  0.9846 -1.1910 -0.6958
   12MOL0     H 1629   4.332   7.246   6.535  1.5293 -0.9343  0.6339
   12MOL0     H 1630   4.477   7.392   6.767 -2.6710 -0.2418  0.3539
   12MOL0     H 1631   4.526   7.372   6.605 -2.1945  3.4289  0.1845
   12MOL0     H 1632   4.652   7.185   6.681 -0.6303 -1.4363 -0.9274
   12MOL0     H 1633   4.501   7.110   6.663 -0.0189 -0.6925  0.3080
   12MOL0     H 1634   4.608   7.067   6.892 -0.2454  0.1087 -1.4956
   12MOL0     H 1635   4.453   7.138   6.907  0.9846  1.2501  0.1265
   12MOL0     H 1636   3.765   7.733   6.319  2.4808 -1.6248  2.3087
   12MOL0     H 1637   3.527   7.773   6.266 -0.1063 -2.6395 -1.4508
   12MOL0     H 1638   3.097   7.590   6.502 -0.5856 -0.2115  0.1888
   12MOL0     H 1639   2.859   7.605   6.512 -1.3160  0.6181 -0.0397
   12MOL0     H 1640   1.765   8.718   5.632  1.3366  0.9002 -1.0676
   12MOL0     H 1641   1.692   8.730   5.403  1.0725 -2.0388  1.9513
   12MOL0     H 1642   1.338   9.062   5.147 -0.4183  2.2054 -1.8549
   12MOL0     H 1643   1.245   9.094   4.950  0.8147  0.4978 -0.4704
   12MOL0     H 1644   1.425   9.132   4.607  0.9968 -0.2539 -2.3887
   12MOL0     H 1645   1.479   8.965   4.611  0.0929  1.2983  1.4387
   12MOL0     H 1646   1.389   9.010   4.401 -1.8437  3.0074 -1.1976
   12MOL0     H 1647   1.236   9.070   4.475 -0.2902 -0.6828 -1.8737
   12MOL0     H 1648   1.324   8.778   4.480  1.7383  0.6375 -1.4092
   12MOL0     H 1649   1.178   8.845   4.559 -0.1196 -1.7909  0.4498
   12MOL0     H 1650   1.254   8.825   4.269  1.6224  2.5904  0.4178
   12MOL0     H 1651   1.129   8.940   4.320 -0.3460 -0.0022  0.8036
   12MOL0     H 1652   0.983   8.522   4.337  0.8062 -0.3518 -1.5473
   12MOL0     H 1653   1.486   8.797   4.760 -0.9026  2.6693 -0.4796
   12MOL0     H 1654   1.542   8.608   4.952  0.5696  1.5472 -2.5227
   12MOL0     H 1655   1.688   8.707   4.948  1.2292 -0.2722  2.5651
   12MOL0     H 1656   1.621   8.657   5.096  1.9524  0.4441 -0.3734
   13MOL0     O 1657   4.249   4.982   8.007  0.4746  0.4202 -0.3572
   13MOL0     C 1658   4.250   4.860   8.012 -0.7403  0.4611  0.0333
   13MOL0     O 1659   4.365   4.779   7.985 -0.0294 -0.0623 -0.3271
   13MOL0     C 1660   4.487   4.824   7.948  0.1158 -0.8682  0.2145
   13MOL0     C 1661   4.528   4.951   7.901  0.2858  1.2607  0.0260
   13MOL0     C 1662   4.665   4.972   7.875  0.4288  0.3612  0.2164
   13MOL0     C 1663   4.765   4.867   7.892  0.0475 -0.1402  0.5467
   13MOL0     O 1664   4.898   4.887   7.869  0.0056  0.2537  0.4010
   13MOL0     C 1665   4.930   4.960   7.755 -0.2417  0.1787 -0.1363
   13MOL0     C 1666   5.068   4.914   7.702 -0.8689  0.9286  0.0505
   13MOL0     C 1667   5.065   4.779   7.639  0.4669  0.3178  1.0922
   13MOL0     C 1668   5.208   4.729   7.635  0.6223  0.2380  0.6715
   13MOL0     C 1669   5.222   4.582   7.571 -0.1643  0.1039 -0.6588
   13MOL0     C 1670   5.237   4.603   7.419  0.0763  0.3521 -0.0708
   13MOL0     C 1671   5.287   4.482   7.336  0.5220 -0.1542  0.5958
   13MOL0     C 1672   5.443   4.477   7.341 -0.3148  0.9478  0.0139
   13MOL0     N 1673   5.500   4.371   7.257  0.2944 -0.1407 -0.0111
   13MOL0     C 1674   5.592   4.389   7.151  0.2667 -0.1346 -0.6470
   13MOL0     C 1675   5.620   4.261   7.112  0.0858  0.3637 -0.4549
   13MOL0     C 1676   5.717   4.226   7.012  0.0339 -0.0130 -0.0673
   13MOL0     C 1677   5.856   4.214   7.071  0.7039  0.5211  0.3925
   13MOL0     C 1678   5.873   4.087   7.147 -0.6793  0.0052  0.0386
   13MOL0     C 1679   6.016   4.073   7.189  0.1197  0.4956 -0.6629
   13MOL0     O 1680   6.088   4.065   7.070  0.1301 -0.2983  0.0001
   13MOL0     C 1681   6.224   4.050   7.071  0.6991  0.2015 -0.1978
   13MOL0     C 1682   6.290   3.959   7.151 -0.3225  0.6988  1.0852
   13MOL0     C 1683   6.435   3.963   7.163  0.3415 -1.3230 -0.4498
   13MOL0     C 1684   6.489   3.838   7.234 -0.0340 -0.0472  0.4544
   13MOL0     C 1685   6.503   4.059   7.080 -0.4197 -0.4220  0.5135
   13MOL0     C 1686   6.646   4.071   7.083 -0.2845  0.1625  0.4348
   13MOL0     O 1687   6.707   4.091   6.967  0.1396 -0.2653 -0.1143
   13MOL0     C 1688   6.841   4.139   6.965 -0.8422  0.0889  0.2718
   13MOL0     C 1689   6.927   4.080   6.872 -0.1833  0.2086 -0.2400
   13MOL0     C 1690   7.057   4.119   6.865 -0.4236 -0.0829 -0.5749
   13MOL0     C 1691   7.116   4.214   6.951  0.3099 -0.3287 -0.0606
   13MOL0     O 1692   7.251   4.236   6.936  0.1895  0.0819 -0.1094
   13MOL0     C 1693   7.320   4.320   7.035 -0.6720 -0.2438 -0.7983
   13MOL0     C 1694   7.473   4.280   7.038 -0.4938  0.4416  0.2106
   13MOL0     C 1695   7.535   4.278   6.887  0.3116  0.8028  0.0529
   13MOL0     C 1696   7.667   4.204   6.873  0.8957  0.2438  0.2918
   13MOL0     C 1697   7.683   4.154   6.731 -0.7664 -0.2333  0.1734
   13MOL0     C 1698   7.834   4.152   6.708 -0.5308  0.4410 -0.2685
   13MOL0     C 1699   7.865   4.109   6.563 -0.5680 -0.0068  0.5506
   13MOL0     C 1700   8.025   4.091   6.545  0.0625  0.5763 -0.4630
   13MOL0    Cl 1701   8.109   4.241   6.609  0.1374  0.1175 -0.0312
   13MOL0     C 1702   7.024   4.278   7.038 -0.5702  0.3143  0.2022
   13MOL0     C 1703   6.888   4.248   7.044 -0.4345 -0.0111  0.1701
   13MOL0     O 1704   6.704   4.058   7.195  0.3576 -0.3619  0.8275
   13MOL0     C 1705   6.430   4.139   6.989  0.8460  0.1694  0.4645
   13MOL0     C 1706   6.288   4.134   6.975 -0.1589 -0.6822 -0.7763
   13MOL0     N 1707   5.541   4.172   7.181  0.4688  0.1845 -0.3675
   13MOL0     N 1708   5.478   4.236   7.277 -0.3045 -0.3955 -0.0573
   13MOL0     C 1709   4.718   4.746   7.938  1.2147  0.5683  0.4670
   13MOL0     C 1710   4.582   4.726   7.963  0.8833  0.0859  0.0028
   13MOL0     C 1711   4.125   4.787   8.034 -0.4713  0.2930 -0.5506
   13MOL0     C 1712   4.142   4.659   8.089  0.0999  0.1007  0.0960
   13MOL0     C 1713   4.036   4.570   8.094  0.0763 -0.5104  0.3983
   13MOL0     C 1714   3.906   4.615   8.050 -0.3899  0.1124 -0.4596
   13MOL0     O 1715   3.817   4.517   8.026 -0.2586 -0.1379 -0.1364
   13MOL0     C 1716   3.746   4.527   7.901  0.0711  0.0176 -0.4321
   13MOL0     C 1717   3.833   4.531   7.777 -0.3673 -0.9374 -0.1836
   13MOL0     C 1718   3.912   4.415   7.743 -1.2782  0.8484  0.2812
   13MOL0     C 1719   4.031   4.453   7.647  0.2976  0.8811 -0.2096
   13MOL0     C 1720   4.134   4.529   7.721  0.3988 -0.1334 -0.2048
   13MOL0     C 1721   4.242   4.540   7.779 -0.5392 -0.8643  0.7029
   13MOL0     C 1722   3.887   4.745   8.002 -0.6634 -0.1726 -0.6532
   13MOL0     C 1723   3.997   4.837   8.000  0.4338 -0.2923 -1.0913
   13MOL0     C 1724   3.970   4.984   7.960  0.0994 -0.1024  0.2049
   13MOL0     H 1725   4.454   5.027   7.878  1.0629  1.8609 -0.5507
   13MOL0     H 1726   4.700   5.067   7.835 -0.4788  0.0419 -1.4326
   13MOL0     H 1727   4.924   5.065   7.784  1.2000  0.1982  0.1314
   13MOL0     H 1728   4.859   4.953   7.672  0.8480  1.6819 -1.2400
   13MOL0     H 1729   5.096   4.995   7.635 -0.5690  0.5695 -0.2580
   13MOL0     H 1730   5.138   4.909   7.786 -0.0152  0.3587 -0.6762
   13MOL0     H 1731   5.001   4.709   7.693  0.9973 -1.5959 -0.6467
   13MOL0     H 1732   5.023   4.779   7.538 -2.4222  2.6013  2.1602
   13MOL0     H 1733   5.275   4.794   7.578  0.3196 -1.1807 -1.3843
   13MOL0     H 1734   5.243   4.720   7.738 -1.3790 -1.5572  1.2812
   13MOL0     H 1735   5.128   4.531   7.591 -0.1925  0.7458  1.0270
   13MOL0     H 1736   5.312   4.527   7.600 -0.8626 -1.5622 -1.5743
   13MOL0     H 1737   5.139   4.631   7.381  0.7512  2.8822 -0.0916
   13MOL0     H 1738   5.304   4.686   7.396  2.1658 -1.1534  0.3105
   13MOL0     H 1739   5.241   4.488   7.236  1.8547 -3.7523 -0.3837
   13MOL0     H 1740   5.245   4.393   7.383 -0.0511  0.7644  1.8831
   13MOL0     H 1741   5.475   4.574   7.303  1.1669  1.0814  1.5052
   13MOL0     H 1742   5.472   4.460   7.445 -0.7090 -2.3709 -0.2883
   13MOL0     H 1743   5.645   4.482   7.128 -0.3205 -0.0380 -1.6840
   13MOL0     H 1744   5.712   4.306   6.938 -1.9655  1.5861  1.6807
   13MOL0     H 1745   5.693   4.132   6.961  2.4478 -2.0886  2.3150
   13MOL0     H 1746   5.922   4.210   6.984  0.1851 -2.9033  0.0201
   13MOL0     H 1747   5.881   4.304   7.129 -0.6911  1.1698  0.0285
   13MOL0     H 1748   5.820   4.091   7.243  0.5698  0.4763  0.7299
   13MOL0     H 1749   5.848   3.995   7.094  0.6155  0.0776 -0.7277
   13MOL0     H 1750   6.057   4.152   7.253  1.2377 -0.9210  0.4618
   13MOL0     H 1751   6.029   3.982   7.248 -1.6030  1.3259  1.1069
   13MOL0     H 1752   6.230   3.888   7.207  2.8599 -0.9334  2.7395
   13MOL0     H 1753   6.486   3.764   7.154 -2.1339  0.6148 -0.1385
   13MOL0     H 1754   6.418   3.812   7.313 -1.6544  3.2248  0.2474
   13MOL0     H 1755   6.591   3.857   7.269 -0.3304  1.7547  0.4451
   13MOL0     H 1756   6.890   3.997   6.812 -2.3668  1.8553 -1.3592
   13MOL0     H 1757   7.110   4.058   6.792 -1.2824  2.5471 -3.6532
   13MOL0     H 1758   7.315   4.427   7.010 -3.3302  0.4101  1.8200
   13MOL0     H 1759   7.277   4.305   7.135 -1.8842 -1.6040 -1.4878
   13MOL0     H 1760   7.536   4.345   7.099 -0.3861 -0.4883  1.1253
   13MOL0     H 1761   7.498   4.181   7.076  2.5841  0.0497 -2.4391
   13MOL0     H 1762   7.525   4.378   6.843 -1.4080  1.2900  1.4452
   13MOL0     H 1763   7.463   4.223   6.825 -2.1468  3.6047  0.1486
   13MOL0     H 1764   7.668   4.121   6.944 -0.0136 -1.2032 -1.3229
   13MOL0     H 1765   7.742   4.277   6.906 -0.6514  1.2820  1.7048
   13MOL0     H 1766   7.641   4.057   6.703 -0.1230 -0.1272 -1.2765
   13MOL0     H 1767   7.645   4.230   6.662  0.2120 -1.9181 -2.4150
   13MOL0     H 1768   7.878   4.083   6.780  0.4966  0.6682 -0.6647
   13MOL0     H 1769   7.878   4.249   6.732  1.6124 -0.4396 -0.4573
   13MOL0     H 1770   7.829   4.187   6.495 -2.2577  1.5010  2.9838
   13MOL0     H 1771   7.817   4.011   6.556 -0.3859 -0.3906  3.4197
   13MOL0     H 1772   8.041   4.067   6.439  0.0698 -0.7980 -0.1752
   13MOL0     H 1773   8.058   4.011   6.612 -0.8725  2.2745  2.1688
   13MOL0     H 1774   7.061   4.359   7.099 -1.0334  2.3261 -2.0355
   13MOL0     H 1775   6.832   4.310   7.114  1.3611  0.1620  1.5396
   13MOL0     H 1776   6.483   4.200   6.916 -1.4144 -0.7309 -2.0895
   13MOL0     H 1777   6.234   4.200   6.907  1.9260 -1.3071 -3.1840
   13MOL0     H 1778   4.796   4.670   7.939 -1.1203 -1.9934 -0.4830
   13MOL0     H 1779   4.541   4.635   8.004  0.6465  1.0407  2.0404
   13MOL0     H 1780   4.244   4.631   8.113 -0.6039 -2.2492  0.6284
   13MOL0     H 1781   4.052   4.467   8.126 -0.0186 -0.5339  0.3692
   13MOL0     H 1782   3.670   4.448   7.898 -2.6963  2.3944  1.6538
   13MOL0     H 1783   3.675   4.610   7.902  2.3497  2.0917  1.9094
   13MOL0     H 1784   3.892   4.623   7.777  0.3287 -1.3681 -0.9823
   13MOL0     H 1785   3.759   4.531   7.696 -1.4276  0.2780  0.7470
   13MOL0     H 1786   3.941   4.360   7.833 -1.4318 -0.6275 -0.5336
   13MOL0     H 1787   3.856   4.338   7.689  1.6318 -0.0486 -1.7245
   13MOL0     H 1788   3.992   4.515   7.566  0.8274  1.7383  0.1879
   13MOL0     H 1789   4.066   4.356   7.610  0.4766  0.2419  1.5077
   13MOL0     H 1790   4.334   4.537   7.834 -0.8744 -1.9663  1.2316
   13MOL0     H 1791   3.797   4.782   7.955 -0.2742  0.5952 -0.8147
   13MOL0     H 1792   4.021   5.020   7.870  0.2166 -0.2732  0.2028
   13MOL0     H 1793   3.864   5.001   7.938  0.8028  5.4716 -0.3505
   13MOL0     H 1794   3.998   5.054   8.039 -0.9273  1.1510 -0.5079
   14MOL0     O 1795   0.509   6.631   7.109  0.0166 -0.3198 -0.3017
   14MOL0     C 1796   0.512   6.511   7.088 -0.0552  0.1898  0.0994
   14MOL0     O 1797   0.618   6.422   7.114  0.9851  0.7736  0.0880
   14MOL0     C 1798   0.712   6.446   7.209  0.2644 -0.1408  0.7296
   14MOL0     C 1799   0.688   6.519   7.319 -0.4436 -0.5492  0.5307
   14MOL0     C 1800   0.795   6.534   7.416 -0.3358 -0.0372 -0.1366
   14MOL0     C 1801   0.927   6.480   7.399  0.1892 -0.2966 -0.2850
   14MOL0     O 1802   1.032   6.508   7.488 -0.5040  0.1419 -0.1008
   14MOL0     C 1803   1.126   6.608   7.447 -0.1097  0.1860  0.3081
   14MOL0     C 1804   1.234   6.620   7.554 -0.2437 -1.1434 -0.2638
   14MOL0     C 1805   1.304   6.486   7.582 -0.8294 -0.5224 -0.2845
   14MOL0     C 1806   1.401   6.452   7.466  0.4350 -1.1401  0.2864
   14MOL0     C 1807   1.534   6.399   7.509  0.1304 -0.5729  0.1885
   14MOL0     C 1808   1.633   6.523   7.556 -0.0051 -0.1065 -0.7957
   14MOL0     C 1809   1.764   6.475   7.625  0.0954 -0.7235  0.4648
   14MOL0     C 1810   1.835   6.599   7.691 -1.0383  0.0958 -0.8170
   14MOL0     N 1811   1.941   6.566   7.792  0.7061 -0.0245 -0.5323
   14MOL0     C 1812   2.049   6.502   7.751 -1.0019 -0.5836 -0.4181
   14MOL0     C 1813   2.112   6.458   7.862  0.3369  0.3056  0.0080
   14MOL0     C 1814   2.237   6.375   7.857 -0.2187 -0.5785  0.5251
   14MOL0     C 1815   2.362   6.460   7.900  0.4761  0.8693  0.3732
   14MOL0     C 1816   2.491   6.370   7.910 -0.1396 -0.1344 -0.0997
   14MOL0     C 1817   2.615   6.456   7.918 -0.2845  0.4062 -0.6467
   14MOL0     O 1818   2.640   6.525   7.798  0.1310 -0.4278 -0.0413
   14MOL0     C 1819   2.761   6.597   7.794  0.5748 -0.2642  0.5329
   14MOL0     C 1820   2.838   6.641   7.904  0.7519 -1.1792  0.3610
   14MOL0     C 1821   2.947   6.729   7.892 -0.2265 -0.1417  0.7004
   14MOL0     C 1822   3.008   6.777   8.015 -0.1676  0.1800  0.0305
   14MOL0     C 1823   2.986   6.781   7.761  0.2643 -0.6710 -0.8335
   14MOL0     C 1824   3.078   6.882   7.737  0.6068 -0.1107 -0.0033
   14MOL0     O 1825   3.157   6.862   7.637 -1.0128  0.0023 -0.1357
   14MOL0     C 1826   3.267   6.944   7.609  0.1420  0.1566  0.1497
   14MOL0     C 1827   3.306   6.933   7.475 -0.2782 -0.3256 -0.2419
   14MOL0     C 1828   3.411   7.012   7.424 -0.1827  0.2959  0.1270
   14MOL0     C 1829   3.470   7.113   7.507 -0.4962  0.8498  0.0916
   14MOL0     O 1830   3.570   7.200   7.465  0.5397  0.0461 -0.5005
   14MOL0     C 1831   3.625   7.194   7.329 -0.0668 -0.0905  0.3491
   14MOL0     C 1832   3.669   7.330   7.290 -0.7479  0.7264  0.6360
   14MOL0     C 1833   3.545   7.420   7.259 -0.3051 -0.0756  0.3473
   14MOL0     C 1834   3.600   7.555   7.198 -0.1704  1.0721  0.3339
   14MOL0     C 1835   3.596   7.553   7.053  0.8329  0.1262  0.3142
   14MOL0     C 1836   3.643   7.668   6.972  0.4412  0.5742 -0.3123
   14MOL0     C 1837   3.617   7.645   6.820 -0.0186 -0.7053  0.2993
   14MOL0     C 1838   3.627   7.786   6.748 -0.7344 -0.4718  0.4279
   14MOL0    Cl 1839   3.486   7.881   6.781  0.2365  0.5103  0.1735
   14MOL0     C 1840   3.427   7.125   7.635 -0.0605 -0.5546  1.1814
   14MOL0     C 1841   3.330   7.038   7.692  0.8341  0.6283  0.2594
   14MOL0     O 1842   3.068   6.991   7.801 -0.7591 -0.7675  0.2378
   14MOL0     C 1843   2.918   6.723   7.651  0.9118 -0.8681 -0.5459
   14MOL0     C 1844   2.809   6.626   7.667 -0.7796  0.1277  0.0199
   14MOL0     N 1845   2.029   6.497   7.973 -0.7098 -0.3001  0.4642
   14MOL0     N 1846   1.932   6.566   7.927 -0.4255 -0.2933  0.3679
   14MOL0     C 1847   0.942   6.404   7.283  0.3245 -0.2991  0.4649
   14MOL0     C 1848   0.839   6.382   7.194 -0.2097  0.7967  0.3736
   14MOL0     C 1849   0.389   6.455   7.021  0.1410 -0.2453  0.0013
   14MOL0     C 1850   0.268   6.524   7.040 -0.2906  0.3295 -0.6316
   14MOL0     C 1851   0.149   6.465   6.990  0.2038 -0.2275  0.2885
   14MOL0     C 1852   0.154   6.347   6.917 -0.3725  0.3195 -0.1344
   14MOL0     O 1853   0.043   6.290   6.865 -0.1794 -0.6919  0.2522
   14MOL0     C 1854  -0.064   6.245   6.950 -0.2749  0.9358 -0.2998
   14MOL0     C 1855  -0.016   6.142   7.048 -0.0424 -0.6100  0.1943
   14MOL0     C 1856   0.065   6.032   6.982  0.2630  0.4028  0.3699
   14MOL0     C 1857   0.138   5.937   7.085  0.6504 -0.7944 -0.5562
   14MOL0     C 1858   0.181   5.810   7.033 -0.8737  0.4726  0.3941
   14MOL0     C 1859   0.240   5.649   6.959 -0.3739 -0.6583  1.5937
   14MOL0     C 1860   0.273   6.279   6.902 -0.0831 -0.4490 -0.7869
   14MOL0     C 1861   0.391   6.328   6.961 -0.0894 -0.4206 -0.1768
   14MOL0     C 1862   0.509   6.232   6.934  0.2401 -0.4778 -0.4955
   14MOL0     H 1863   0.589   6.561   7.328 -0.0239  0.8679 -0.8987
   14MOL0     H 1864   0.779   6.596   7.504 -0.9298 -1.6495  0.9444
   14MOL0     H 1865   1.066   6.699   7.447 -3.3360 -1.7067  3.1356
   14MOL0     H 1866   1.161   6.599   7.343 -2.1092  1.3294 -0.5308
   14MOL0     H 1867   1.307   6.695   7.524 -1.0312 -0.9782 -1.9033
   14MOL0     H 1868   1.174   6.653   7.639  0.3222 -0.0574 -0.2694
   14MOL0     H 1869   1.370   6.495   7.669 -0.0159  0.7292 -1.0009
   14MOL0     H 1870   1.242   6.399   7.607  1.9179 -2.6072 -0.2629
   14MOL0     H 1871   1.357   6.368   7.411 -0.1833 -0.0546 -0.9124
   14MOL0     H 1872   1.411   6.545   7.411  0.4250 -0.5518  1.2524
   14MOL0     H 1873   1.585   6.344   7.429  1.2554  0.2669  0.3011
   14MOL0     H 1874   1.511   6.338   7.597 -5.4532 -1.5283 -1.5479
   14MOL0     H 1875   1.667   6.579   7.469  0.5102 -3.4909 -2.9638
   14MOL0     H 1876   1.574   6.586   7.622  2.2403  1.8797 -0.5582
   14MOL0     H 1877   1.814   6.420   7.544 -1.7119 -2.7761  0.6582
   14MOL0     H 1878   1.733   6.412   7.709 -0.7959 -2.2737 -0.9555
   14MOL0     H 1879   1.883   6.661   7.615 -0.9292 -0.3754 -1.1409
   14MOL0     H 1880   1.764   6.657   7.750  2.4219  3.3661  0.5272
   14MOL0     H 1881   2.086   6.480   7.651  0.9030  2.9138 -0.6440
   14MOL0     H 1882   2.251   6.343   7.754 -2.0854 -1.4140  0.4993
   14MOL0     H 1883   2.212   6.289   7.919  1.5265 -0.7549  1.0547
   14MOL0     H 1884   2.387   6.533   7.823 -1.3359  0.5551 -0.5618
   14MOL0     H 1885   2.342   6.499   8.000  0.8546 -1.0264  1.2397
   14MOL0     H 1886   2.473   6.313   8.002 -3.5711  2.8719  1.3831
   14MOL0     H 1887   2.499   6.301   7.826  0.1529  0.4416 -0.5532
   14MOL0     H 1888   2.617   6.518   8.008  1.1160 -3.5228  2.3355
   14MOL0     H 1889   2.694   6.381   7.923 -1.2960 -0.6407  0.2218
   14MOL0     H 1890   2.788   6.619   7.997 -2.6405  3.2387 -0.0901
   14MOL0     H 1891   2.963   6.868   8.056 -0.0062  0.5552 -0.6040
   14MOL0     H 1892   3.117   6.771   8.006 -0.2801  0.0302 -1.7021
   14MOL0     H 1893   2.969   6.707   8.089 -1.9633 -0.2123 -1.2083
   14MOL0     H 1894   3.261   6.865   7.403  1.7522 -0.7715 -1.1656
   14MOL0     H 1895   3.439   7.003   7.319 -0.1890 -2.4215  0.3073
   14MOL0     H 1896   3.699   7.114   7.336  1.0730  0.9465  0.3593
   14MOL0     H 1897   3.546   7.177   7.255  1.0252  1.9285 -1.3837
   14MOL0     H 1898   3.737   7.375   7.362  1.8435  1.8320 -2.2583
   14MOL0     H 1899   3.731   7.322   7.200  2.4796  1.6016  2.6335
   14MOL0     H 1900   3.493   7.451   7.351 -3.3511  0.1133 -1.3157
   14MOL0     H 1901   3.468   7.367   7.203  0.3069  0.0553 -0.6403
   14MOL0     H 1902   3.706   7.559   7.228 -0.0501 -0.3629  0.1998
   14MOL0     H 1903   3.550   7.643   7.237 -0.3327  1.7177 -1.2480
   14MOL0     H 1904   3.655   7.466   7.021 -0.0113 -0.1151 -0.6062
   14MOL0     H 1905   3.493   7.533   7.024  1.6520 -0.1310 -2.6989
   14MOL0     H 1906   3.753   7.670   6.971  0.4549  0.1015 -1.2194
   14MOL0     H 1907   3.609   7.764   7.010 -0.3983  0.7042 -1.3614
   14MOL0     H 1908   3.518   7.601   6.809 -0.5382 -0.4308  3.1284
   14MOL0     H 1909   3.684   7.570   6.778  0.8668 -0.1455  0.6698
   14MOL0     H 1910   3.637   7.773   6.640  1.7518 -0.1032  0.5522
   14MOL0     H 1911   3.717   7.840   6.779  1.4611 -2.3092 -2.1859
   14MOL0     H 1912   3.472   7.204   7.695 -0.0388  0.3820 -0.0406
   14MOL0     H 1913   3.305   7.050   7.796  0.7021 -0.9880  0.4374
   14MOL0     H 1914   2.941   6.754   7.550 -2.5834  0.9370 -0.9468
   14MOL0     H 1915   2.747   6.586   7.588 -0.3482  2.2869 -1.4791
   14MOL0     H 1916   1.038   6.356   7.269 -0.4970 -2.1289  0.8365
   14MOL0     H 1917   0.854   6.312   7.113 -1.1555 -0.4268  1.2154
   14MOL0     H 1918   0.261   6.613   7.102 -0.7848  0.6303 -1.1121
   14MOL0     H 1919   0.052   6.509   7.007  0.0635 -0.0439 -0.9351
   14MOL0     H 1920  -0.101   6.328   7.011 -0.4066 -0.8400  2.1905
   14MOL0     H 1921  -0.155   6.217   6.897 -0.8156  4.1946 -1.3013
   14MOL0     H 1922  -0.103   6.105   7.103 -0.7951  2.7973  1.5203
   14MOL0     H 1923   0.034   6.193   7.131  0.0423  0.1217 -0.2969
   14MOL0     H 1924  -0.012   5.985   6.920  2.9590 -2.7227 -0.8770
   14MOL0     H 1925   0.141   6.067   6.912  0.2587 -1.2123 -0.4782
   14MOL0     H 1926   0.075   5.922   7.174  1.1699  1.0909  0.1772
   14MOL0     H 1927   0.227   5.991   7.118  1.2931 -1.5774 -0.9782
   14MOL0     H 1928   0.282   5.565   6.907 -0.4970  0.2222  0.0210
   14MOL0     H 1929   0.276   6.196   6.832  2.0123 -0.3800 -0.8425
   14MOL0     H 1930   0.538   6.178   7.025 -1.3624 -2.0070 -0.8439
   14MOL0     H 1931   0.492   6.160   6.854 -1.1230  0.3535 -0.9982
   14MOL0     H 1932   0.597   6.286   6.897  1.2219  0.7396  3.1470
   15MOL0     O 1933   6.618   8.694   6.220  0.6220 -0.6271 -0.3841
   15MOL0     C 1934   6.539   8.606   6.238  0.1989 -0.8936  0.2832
   15MOL0     O 1935   6.572   8.476   6.267 -0.9080  0.9403  0.2572
   15MOL0     C 1936   6.692   8.413   6.233  0.1864  0.3885 -0.3718
   15MOL0     C 1937   6.765   8.471   6.126 -0.1990  0.2874  0.8913
   15MOL0     C 1938   6.883   8.406   6.085 -0.2320  0.2543  0.3208
   15MOL0     C 1939   6.926   8.281   6.140 -0.2369 -0.5346  0.0684
   15MOL0     O 1940   7.033   8.210   6.094 -0.1173 -0.4320  0.4483
   15MOL0     C 1941   7.163   8.274   6.070  0.5464  0.0697  0.2097
   15MOL0     C 1942   7.229   8.288   6.203 -0.1043 -1.1558  0.3951
   15MOL0     C 1943   7.361   8.363   6.189  0.0331 -0.6314 -0.9541
   15MOL0     C 1944   7.441   8.366   6.319  0.5064 -0.1087 -0.7820
   15MOL0     C 1945   7.590   8.404   6.306  0.0163  0.3488  0.1567
   15MOL0     C 1946   7.661   8.390   6.438  0.1050  0.0929 -0.7665
   15MOL0     C 1947   7.811   8.363   6.433  0.8698 -0.0944  0.7318
   15MOL0     C 1948   7.841   8.226   6.370 -0.0865 -0.6605 -0.0382
   15MOL0     N 1949   7.986   8.207   6.372 -0.1726  0.1407  0.2821
   15MOL0     C 1950   8.046   8.119   6.285 -0.4363 -0.2110  0.0161
   15MOL0     C 1951   8.176   8.122   6.319 -0.3999 -0.0723  0.4801
   15MOL0     C 1952   8.288   8.047   6.243  0.0175  0.4135 -0.9146
   15MOL0     C 1953   8.365   8.132   6.148 -0.6314 -0.6533  0.3255
   15MOL0     C 1954   8.433   8.246   6.222  0.1260  0.0828  0.6381
   15MOL0     C 1955   8.531   8.317   6.136 -0.8057 -0.9617  0.6856
   15MOL0     O 1956   8.639   8.238   6.089 -0.4769  0.3476 -0.5171
   15MOL0     C 1957   8.753   8.306   6.074 -0.5702 -0.3927  0.8735
   15MOL0     C 1958   8.864   8.239   6.127 -0.2433 -0.0341 -0.2144
   15MOL0     C 1959   8.990   8.301   6.135 -0.4090 -1.0274 -0.4104
   15MOL0     C 1960   9.107   8.228   6.202  0.0725 -0.7595 -0.2606
   15MOL0     C 1961   9.005   8.436   6.086 -0.1630  1.0814 -0.2693
   15MOL0     C 1962   9.131   8.525   6.099 -0.6714 -0.1856 -0.4802
   15MOL0     O 1963   9.139   8.626   6.010 -0.7207  0.2568  1.1347
   15MOL0     C 1964   9.218   8.733   6.023  0.2469  0.0025 -0.5143
   15MOL0     C 1965   9.269   8.789   5.912 -0.1886  0.5594  1.0206
   15MOL0     C 1966   9.343   8.905   5.913 -0.3490 -0.5984  0.0866
   15MOL0     C 1967   9.352   8.979   6.031 -0.4835 -0.2386 -0.3395
   15MOL0     O 1968   9.408   9.103   6.042  0.1927  0.2925  0.2422
   15MOL0     C 1969   9.389   9.188   5.933 -0.0620  0.2354  0.2374
   15MOL0     C 1970   9.506   9.292   5.933  0.2162  0.4658 -0.0547
   15MOL0     C 1971   9.627   9.235   5.864 -0.1659  0.2707 -0.1264
   15MOL0     C 1972   9.744   9.334   5.856  0.2646  0.0970  0.3544
   15MOL0     C 1973   9.795   9.379   5.994 -1.0910 -0.3267 -0.0929
   15MOL0     C 1974   9.941   9.424   5.977  0.4549  0.4026 -0.2376
   15MOL0     C 1975   9.993   9.525   6.067  0.9524  0.0109 -1.0467
   15MOL0     C 1976  10.141   9.536   6.049  0.2928 -1.1014  0.2552
   15MOL0    Cl 1977  10.245   9.414   6.122 -0.4919  0.2099  0.1253
   15MOL0     C 1978   9.284   8.932   6.145 -0.1886 -0.2876 -0.6458
   15MOL0     C 1979   9.220   8.809   6.146 -0.6598 -0.1182  0.6342
   15MOL0     O 1980   9.223   8.510   6.185 -0.8955  0.0582  0.2035
   15MOL0     C 1981   8.899   8.494   6.021  0.8824 -0.1943  0.5957
   15MOL0     C 1982   8.775   8.431   6.004  0.8027  0.0800 -0.6680
   15MOL0     N 1983   8.192   8.202   6.436  0.3257  0.1127  0.0250
   15MOL0     N 1984   8.078   8.248   6.466  0.0742  0.3964  0.1057
   15MOL0     C 1985   6.853   8.228   6.244 -0.3431  0.4601 -0.3333
   15MOL0     C 1986   6.744   8.300   6.301 -0.0235  0.0698  0.5981
   15MOL0     C 1987   6.406   8.643   6.276  1.1381 -0.1210  0.1450
   15MOL0     C 1988   6.336   8.580   6.381  0.2733 -0.5335 -0.8250
   15MOL0     C 1989   6.200   8.599   6.406  0.3220 -0.2581 -0.7903
   15MOL0     C 1990   6.129   8.699   6.335  0.0734  0.7153  0.0672
   15MOL0     O 1991   6.000   8.732   6.375  0.1800  0.0437 -0.5716
   15MOL0     C 1992   5.979   8.873   6.398  0.3885  0.3761 -0.1417
   15MOL0     C 1993   6.033   8.913   6.536 -0.1423 -0.0756  0.5651
   15MOL0     C 1994   5.970   9.043   6.591  0.3192  0.8940 -0.0235
   15MOL0     C 1995   5.991   9.059   6.744  0.0146 -0.4473  0.2950
   15MOL0     C 1996   6.127   9.063   6.781 -0.6379 -0.1709  1.2382
   15MOL0     C 1997   6.245   9.063   6.807  0.2373  0.3228  0.1520
   15MOL0     C 1998   6.200   8.780   6.250  0.0822 -0.2941 -0.2340
   15MOL0     C 1999   6.337   8.747   6.212 -0.4286  0.1730  1.0241
   15MOL0     C 2000   6.396   8.827   6.094  0.2916 -0.2255 -0.6880
   15MOL0     H 2001   6.743   8.552   6.057  0.7764 -1.6833 -1.9136
   15MOL0     H 2002   6.951   8.449   6.011  3.1427 -1.0010  2.4391
   15MOL0     H 2003   7.147   8.366   6.014  1.9989 -0.7837 -1.7298
   15MOL0     H 2004   7.221   8.201   6.012 -0.1465 -1.2987  1.1683
   15MOL0     H 2005   7.170   8.346   6.275 -0.3548 -0.1800 -0.5603
   15MOL0     H 2006   7.239   8.189   6.248 -2.6849 -1.3571  0.6502
   15MOL0     H 2007   7.408   8.316   6.103 -1.7454  0.7637 -2.7983
   15MOL0     H 2008   7.341   8.466   6.155 -1.2758  0.1075  1.7705
   15MOL0     H 2009   7.398   8.440   6.388  1.7388 -0.6623  0.6479
   15MOL0     H 2010   7.441   8.269   6.371  0.3851  0.8112  1.0330
   15MOL0     H 2011   7.596   8.510   6.282  0.5995  0.3216  0.1741
   15MOL0     H 2012   7.643   8.350   6.227  0.0764  0.8066 -0.1175
   15MOL0     H 2013   7.662   8.486   6.490 -1.2798 -0.0343 -0.4906
   15MOL0     H 2014   7.607   8.318   6.500  0.1499  0.3215 -0.4597
   15MOL0     H 2015   7.858   8.370   6.532  2.6944  1.3243 -0.1805
   15MOL0     H 2016   7.862   8.438   6.373  1.3659 -0.5119  0.6236
   15MOL0     H 2017   7.790   8.150   6.429  1.8603 -2.1901 -0.2272
   15MOL0     H 2018   7.794   8.216   6.271 -1.4392 -2.1855  0.7274
   15MOL0     H 2019   8.004   8.074   6.195  2.1930  2.1301 -2.6049
   15MOL0     H 2020   8.254   7.951   6.204 -0.9424 -1.1508  3.1876
   15MOL0     H 2021   8.354   8.019   6.327  1.0848 -0.7864 -2.0921
   15MOL0     H 2022   8.441   8.060   6.117 -1.2078 -2.8795  3.5809
   15MOL0     H 2023   8.299   8.162   6.067 -2.7479 -3.7720  0.7353
   15MOL0     H 2024   8.363   8.319   6.263 -2.1148 -1.4049 -0.3108
   15MOL0     H 2025   8.492   8.205   6.304  1.2396  0.4333  0.0243
   15MOL0     H 2026   8.483   8.356   6.046 -1.3088 -3.4386 -0.1863
   15MOL0     H 2027   8.578   8.395   6.197  0.1102 -1.6059  0.8199
   15MOL0     H 2028   8.851   8.136   6.160  1.0674  0.2153  1.2385
   15MOL0     H 2029   9.189   8.257   6.136 -0.5984 -2.2170 -1.7941
   15MOL0     H 2030   9.093   8.120   6.198  1.5247 -1.0901  1.7239
   15MOL0     H 2031   9.123   8.248   6.308  1.9528  0.5198 -0.7245
   15MOL0     H 2032   9.257   8.734   5.819  0.4004  1.4178  0.4210
   15MOL0     H 2033   9.396   8.929   5.821  1.1947 -2.0645  0.5643
   15MOL0     H 2034   9.396   9.134   5.838  1.4087 -3.0725  2.0490
   15MOL0     H 2035   9.289   9.231   5.946  1.0430  3.0400  0.1857
   15MOL0     H 2036   9.485   9.387   5.885  4.3293  1.0205 -1.1510
   15MOL0     H 2037   9.529   9.320   6.036 -2.6374  1.2573  0.4569
   15MOL0     H 2038   9.595   9.205   5.764 -0.3261 -3.2430  0.8464
   15MOL0     H 2039   9.662   9.150   5.922 -1.4293 -0.6236 -0.6123
   15MOL0     H 2040   9.709   9.423   5.802  4.0050  1.6823  0.2768
   15MOL0     H 2041   9.825   9.280   5.807 -0.8858 -5.3788  3.6120
   15MOL0     H 2042   9.731   9.458   6.032  1.5772  1.1834  1.5925
   15MOL0     H 2043   9.798   9.301   6.071  0.0553 -0.9472 -0.7256
   15MOL0     H 2044   9.953   9.449   5.871  0.6031  0.2142 -0.2675
   15MOL0     H 2045  10.001   9.333   5.993 -0.8818 -0.1237  2.1161
   15MOL0     H 2046   9.962   9.500   6.169 -1.3452  0.4943 -1.5814
   15MOL0     H 2047   9.948   9.619   6.035  1.1591  0.4120 -0.1894
   15MOL0     H 2048  10.165   9.638   6.079 -1.0698 -0.0026 -2.0958
   15MOL0     H 2049  10.151   9.520   5.941 -3.2748 -2.4057 -0.0357
   15MOL0     H 2050   9.261   9.001   6.226 -0.9098  0.3186 -1.3512
   15MOL0     H 2051   9.159   8.770   6.228 -0.6048 -0.9879  0.2762
   15MOL0     H 2052   8.924   8.582   5.964  2.9085 -0.7334  0.5854
   15MOL0     H 2053   8.693   8.479   5.952 -0.2345  0.7218  1.4282
   15MOL0     H 2054   6.882   8.137   6.296 -2.0246  0.8367  1.3684
   15MOL0     H 2055   6.691   8.260   6.388 -1.7921  1.8614  0.4180
   15MOL0     H 2056   6.382   8.508   6.446 -1.5583 -0.1169  1.0378
   15MOL0     H 2057   6.156   8.534   6.481  2.2037  1.3796  1.9135
   15MOL0     H 2058   6.006   8.947   6.322 -1.9339 -1.8008 -3.3480
   15MOL0     H 2059   5.873   8.898   6.400  0.9493  3.6069 -2.1802
   15MOL0     H 2060   6.141   8.923   6.527 -0.2155 -0.9760 -3.1488
   15MOL0     H 2061   5.999   8.833   6.601  0.5798  0.6419  1.8621
   15MOL0     H 2062   6.001   9.135   6.540 -0.0900  0.5170 -0.9791
   15MOL0     H 2063   5.862   9.029   6.576  0.7144 -1.5310 -0.9935
   15MOL0     H 2064   5.933   8.986   6.801  1.1839 -0.9937  0.8139
   15MOL0     H 2065   5.952   9.158   6.771 -1.8708 -1.6470  2.3941
   15MOL0     H 2066   6.350   9.083   6.802  0.1939  0.2945 -1.9185
   15MOL0     H 2067   6.146   8.859   6.198 -1.3802 -0.3863  1.0812
   15MOL0     H 2068   6.462   8.762   6.036  1.8465 -1.2835  2.0854
   15MOL0     H 2069   6.320   8.865   6.025  0.7713  1.0440 -0.5377
   15MOL0     H 2070   6.452   8.908   6.141 -1.5524  0.0073  1.2614
   16MOL0     O 2071   8.995  10.278   7.408 -0.1346  0.0808 -0.2223
   16MOL0     C 2072   8.880  10.244   7.399  0.2571 -0.1940 -0.2145
   16MOL0     O 2073   8.846  10.112   7.395  1.0771  1.1954 -0.4257
   16MOL0     C 2074   8.943  10.018   7.430  0.5943 -1.0672  0.2797
   16MOL0     C 2075   8.996  10.002   7.561  0.3820 -0.0697 -0.1649
   16MOL0     C 2076   9.061   9.876   7.599  0.2158  0.2230  0.8300
   16MOL0     C 2077   9.080   9.782   7.498  0.0442  0.4278 -0.2513
   16MOL0     O 2078   9.144   9.664   7.520  0.2878 -0.0504  0.3013
   16MOL0     C 2079   9.078   9.566   7.597  0.6072  0.2195  0.2022
   16MOL0     C 2080   9.148   9.548   7.729 -0.4938 -0.9004 -0.2127
   16MOL0     C 2081   9.294   9.524   7.718 -1.1472 -0.3596  0.0438
   16MOL0     C 2082   9.373   9.530   7.850  0.8033  0.5392 -0.0875
   16MOL0     C 2083   9.510   9.457   7.855  0.1869 -1.0373  0.2625
   16MOL0     C 2084   9.568   9.445   8.010 -0.3158  1.2195 -0.3221
   16MOL0     C 2085   9.720   9.421   8.006  1.3104 -0.0759  0.6878
   16MOL0     C 2086   9.770   9.436   8.149  0.0554  1.1542 -0.6769
   16MOL0     N 2087   9.906   9.423   8.146  0.4333 -0.1078 -0.3148
   16MOL0     C 2088   9.995   9.530   8.139  0.3615  0.2892  0.5713
   16MOL0     C 2089  10.118   9.484   8.151  0.1282 -0.1530 -0.1086
   16MOL0     C 2090  10.239   9.574   8.135  0.0861  0.0706  0.9173
   16MOL0     C 2091  10.375   9.513   8.194  0.2595  0.8022 -0.0738
   16MOL0     C 2092  10.487   9.618   8.189 -0.9085 -0.8791 -0.2200
   16MOL0     C 2093  10.622   9.555   8.222 -0.9959  0.6983  0.2262
   16MOL0     O 2094  10.719   9.658   8.196  0.6519 -0.4384 -0.1804
   16MOL0     C 2095  10.821   9.656   8.288 -0.4567 -0.2487 -0.3029
   16MOL0     C 2096  10.798   9.705   8.412  0.5148 -0.2134 -0.3981
   16MOL0     C 2097  10.898   9.719   8.514 -0.1718 -0.5824  0.0447
   16MOL0     C 2098  10.859   9.783   8.643  0.1235 -0.4768  0.3347
   16MOL0     C 2099  11.030   9.680   8.484  0.1187 -0.4074 -1.3527
   16MOL0     C 2100  11.134   9.674   8.589 -0.3482  0.4022 -0.1025
   16MOL0     O 2101  11.090   9.662   8.722  0.4319 -0.0360  0.6416
   16MOL0     C 2102  11.167   9.674   8.833 -0.3283  0.1313  0.2416
   16MOL0     C 2103  11.296   9.636   8.824 -0.5364 -0.4033 -0.3317
   16MOL0     C 2104  11.372   9.633   8.940  0.2372  0.1088 -0.3159
   16MOL0     C 2105  11.315   9.670   9.064 -0.1496 -0.6366  1.0511
   16MOL0     O 2106  11.379   9.677   9.189 -0.5980  1.0740  0.0140
   16MOL0     C 2107  11.517   9.721   9.198 -0.3120  0.2624 -0.4430
   16MOL0     C 2108  11.520   9.835   9.300 -0.0501  0.2300  0.3001
   16MOL0     C 2109  11.661   9.874   9.342  1.1424 -0.7795  0.2519
   16MOL0     C 2110  11.773   9.827   9.247  0.5645  0.3121  0.1151
   16MOL0     C 2111  11.913   9.872   9.298  0.7068 -0.4893  0.3431
   16MOL0     C 2112  12.021   9.860   9.187  0.1881  0.2058  0.0125
   16MOL0     C 2113  12.146   9.925   9.240 -0.3680 -0.1064 -0.0519
   16MOL0     C 2114  12.252   9.919   9.140  0.0363 -0.7124 -0.4482
   16MOL0    Cl 2115  12.413   9.954   9.224  0.1308  0.2997  0.0572
   16MOL0     C 2116  11.183   9.701   9.069 -0.3335  0.5010 -0.8396
   16MOL0     C 2117  11.106   9.699   8.952  0.4768  0.3664 -0.4519
   16MOL0     O 2118  11.253   9.711   8.557  0.1943  0.0453  0.2114
   16MOL0     C 2119  11.058   9.636   8.354 -0.0329  0.6907  0.3695
   16MOL0     C 2120  10.956   9.632   8.255 -0.4066  0.2460 -0.3339
   16MOL0     N 2121  10.108   9.345   8.180 -0.0022  0.4255 -0.0206
   16MOL0     N 2122   9.982   9.312   8.167 -0.8016 -0.6788 -0.1632
   16MOL0     C 2123   9.039   9.818   7.367  0.0044  0.3512 -0.4727
   16MOL0     C 2124   8.978   9.931   7.331  0.4770  0.7003  0.7156
   16MOL0     C 2125   8.783  10.355   7.399  0.4954  0.2329 -0.4156
   16MOL0     C 2126   8.826  10.479   7.350  0.0915  1.2344 -0.3425
   16MOL0     C 2127   8.741  10.583   7.348  0.3987 -0.0278 -0.3209
   16MOL0     C 2128   8.610  10.570   7.395 -0.6059 -0.2590  0.1076
   16MOL0     O 2129   8.530  10.686   7.401 -0.2637 -0.4191  0.5737
   16MOL0     C 2130   8.386  10.690   7.429 -0.9641  0.2703 -0.3988
   16MOL0     C 2131   8.311  10.629   7.318 -0.0838  0.0656  0.3822
   16MOL0     C 2132   8.171  10.590   7.372  0.1190  0.1436  0.2208
   16MOL0     C 2133   8.103  10.507   7.263  0.1146  0.4515  0.0152
   16MOL0     C 2134   8.071  10.566   7.128 -1.0900 -0.3867 -0.9283
   16MOL0     C 2135   8.048  10.609   7.017 -0.7323  0.3677  0.1296
   16MOL0     C 2136   8.566  10.450   7.442 -0.5622  0.5928 -0.9272
   16MOL0     C 2137   8.650  10.344   7.442 -0.5335 -0.5501  0.2213
   16MOL0     C 2138   8.593  10.213   7.501 -0.0704 -0.3283  0.1691
   16MOL0     H 2139   8.970  10.071   7.642  2.8597  0.8798 -0.0935
   16MOL0     H 2140   9.091   9.861   7.702 -1.4088  0.4509  1.3718
   16MOL0     H 2141   9.081   9.469   7.545  0.1662  0.6926 -0.7214
   16MOL0     H 2142   8.973   9.591   7.608  0.9836  1.6406  0.6887
   16MOL0     H 2143   9.147   9.650   7.769  2.0066 -1.5322  1.7167
   16MOL0     H 2144   9.106   9.470   7.793 -0.6211 -1.2500 -0.7135
   16MOL0     H 2145   9.314   9.425   7.677 -3.7965 -1.6005  1.5219
   16MOL0     H 2146   9.346   9.601   7.661  2.1113  0.9212  4.1775
   16MOL0     H 2147   9.384   9.630   7.893  2.2273  0.8567 -1.1439
   16MOL0     H 2148   9.307   9.474   7.917 -0.4106  1.3764 -0.5356
   16MOL0     H 2149   9.579   9.513   7.791 -0.2956 -1.8262 -0.9901
   16MOL0     H 2150   9.506   9.357   7.812 -3.0165 -0.4918 -0.9560
   16MOL0     H 2151   9.534   9.533   8.066  2.5394  2.9869 -1.1857
   16MOL0     H 2152   9.528   9.355   8.059  1.6308 -0.6302 -1.9411
   16MOL0     H 2153   9.771   9.493   7.941  0.7490 -1.7938 -1.8032
   16MOL0     H 2154   9.741   9.324   7.960  0.3864  0.8559 -1.8843
   16MOL0     H 2155   9.742   9.535   8.186 -0.4976  0.5440  0.5943
   16MOL0     H 2156   9.723   9.360   8.213  0.4355  1.2197 -0.3108
   16MOL0     H 2157   9.973   9.630   8.104  0.3956 -0.6717 -2.4561
   16MOL0     H 2158  10.217   9.674   8.174  1.0501 -0.5000  3.0699
   16MOL0     H 2159  10.249   9.583   8.026  1.7296  2.8764  1.2181
   16MOL0     H 2160  10.348   9.491   8.297  0.5401  1.6953  0.2066
   16MOL0     H 2161  10.403   9.420   8.144 -2.9279 -0.8143  0.9258
   16MOL0     H 2162  10.493   9.659   8.087 -1.1981 -1.3942 -0.4503
   16MOL0     H 2163  10.466   9.695   8.263  2.3811 -3.3374  3.6764
   16MOL0     H 2164  10.618   9.510   8.322  0.1051  2.3506  1.0652
   16MOL0     H 2165  10.636   9.478   8.147 -0.9844  0.2537  0.6769
   16MOL0     H 2166  10.694   9.732   8.431  0.6800 -1.8259  3.7983
   16MOL0     H 2167  10.866   9.720   8.733  0.9874 -1.2664 -0.2603
   16MOL0     H 2168  10.759   9.825   8.636  2.1359  4.9213 -0.2541
   16MOL0     H 2169  10.927   9.866   8.664  0.5239 -0.4771 -0.8950
   16MOL0     H 2170  11.335   9.585   8.736  0.7682 -0.9295  0.5230
   16MOL0     H 2171  11.479   9.614   8.938  0.3845  0.1018  2.8765
   16MOL0     H 2172  11.572   9.643   9.251 -1.4272 -1.0248 -1.1244
   16MOL0     H 2173  11.565   9.754   9.105  1.5536 -4.5213 -1.4884
   16MOL0     H 2174  11.476   9.929   9.263 -0.8004 -0.1797  0.1234
   16MOL0     H 2175  11.457   9.795   9.379 -1.4928 -1.6138 -1.6686
   16MOL0     H 2176  11.683   9.828   9.439  0.2715  1.3456  1.5410
   16MOL0     H 2177  11.668   9.983   9.350  2.9397 -0.5891 -2.6025
   16MOL0     H 2178  11.745   9.864   9.148  0.1527 -0.1604  0.0568
   16MOL0     H 2179  11.765   9.718   9.243  1.3964  0.2839 -2.5366
   16MOL0     H 2180  11.899   9.974   9.333  1.0490 -0.1808 -0.4085
   16MOL0     H 2181  11.945   9.808   9.381 -2.2854 -1.9601  0.4830
   16MOL0     H 2182  11.981   9.916   9.102  0.4488 -0.8121 -0.8082
   16MOL0     H 2183  12.026   9.757   9.150  0.2165 -0.6865  2.3502
   16MOL0     H 2184  12.187   9.862   9.319 -1.5468 -3.1985 -1.7546
   16MOL0     H 2185  12.131  10.029   9.271 -0.2135 -0.0966 -0.0057
   16MOL0     H 2186  12.241  10.002   9.070  0.5880  1.4723  1.8861
   16MOL0     H 2187  12.250   9.819   9.096  0.1968 -0.1913 -1.6831
   16MOL0     H 2188  11.136   9.743   9.158 -0.8499 -0.0676 -0.8353
   16MOL0     H 2189  11.000   9.718   8.958  0.2462 -1.3214  3.2569
   16MOL0     H 2190  11.162   9.620   8.328 -0.0635  0.2453  0.5280
   16MOL0     H 2191  10.999   9.617   8.157  0.0904  0.9419 -0.2261
   16MOL0     H 2192   9.061   9.745   7.290 -1.4325 -1.0997  0.4462
   16MOL0     H 2193   8.943   9.949   7.230 -0.7655 -0.7397  0.8475
   16MOL0     H 2194   8.927  10.497   7.315  0.6758  1.4693  1.3992
   16MOL0     H 2195   8.778  10.682   7.326  1.9329 -0.6349 -0.5769
   16MOL0     H 2196   8.357  10.635   7.519 -2.8050  1.2937 -0.3193
   16MOL0     H 2197   8.351  10.792   7.448 -4.3654 -0.4892 -1.9362
   16MOL0     H 2198   8.362  10.539   7.282 -2.4072 -0.7248 -1.2138
   16MOL0     H 2199   8.305  10.698   7.233 -0.3754  1.9589  1.8668
   16MOL0     H 2200   8.171  10.523   7.459 -1.3175  0.9232  0.8561
   16MOL0     H 2201   8.098  10.667   7.399  0.6519 -0.1338  2.7749
   16MOL0     H 2202   8.011  10.465   7.304  1.0533 -1.7266  0.0522
   16MOL0     H 2203   8.166  10.420   7.243  1.8267  1.3839  1.1133
   16MOL0     H 2204   8.002  10.619   6.921 -2.7980  4.0622  1.2843
   16MOL0     H 2205   8.472  10.447   7.495  0.3656  1.5353  0.8642
   16MOL0     H 2206   8.658  10.172   7.579  0.3106  1.0104  0.5947
   16MOL0     H 2207   8.500  10.235   7.554  0.9892  1.0546  1.5771
   16MOL0     H 2208   8.585  10.141   7.420  1.7080  1.2171 -1.4865
   17MOL0     O 2209   7.352   4.739   9.539 -0.5995 -0.4820  0.6208
   17MOL0     C 2210   7.429   4.831   9.499  0.1983 -0.6769  0.3541
   17MOL0     O 2211   7.383   4.950   9.438  0.6875  0.4729 -0.2237
   17MOL0     C 2212   7.249   4.984   9.443  0.5768 -0.5631 -0.8766
   17MOL0     C 2213   7.177   4.991   9.568 -0.8049 -0.1770  0.4342
   17MOL0     C 2214   7.038   5.021   9.582 -0.7723  0.1592  0.0371
   17MOL0     C 2215   6.962   5.029   9.462  0.6866  0.4736  0.4848
   17MOL0     O 2216   6.829   5.063   9.440 -0.6936  0.2339 -0.1287
   17MOL0     C 2217   6.742   5.061   9.553  0.2136 -0.6742  0.1693
   17MOL0     C 2218   6.609   5.131   9.542 -0.1633  0.2591 -0.0887
   17MOL0     C 2219   6.606   5.279   9.531 -0.0695  0.0462 -0.0644
   17MOL0     C 2220   6.488   5.332   9.450 -0.2086  0.7004  0.0779
   17MOL0     C 2221   6.356   5.325   9.531  0.7853 -0.4175 -0.7977
   17MOL0     C 2222   6.251   5.342   9.426 -0.0775 -0.7112 -0.2155
   17MOL0     C 2223   6.113   5.335   9.478  1.0815 -0.0655  0.0379
   17MOL0     C 2224   6.008   5.319   9.369 -0.1572 -0.6126 -0.0959
   17MOL0     N 2225   6.026   5.205   9.283  0.4880 -0.5252  0.5471
   17MOL0     C 2226   5.979   5.082   9.317 -0.7338  0.1291 -0.8097
   17MOL0     C 2227   5.999   5.010   9.203  0.4399  0.1613 -0.5651
   17MOL0     C 2228   5.954   4.873   9.172  0.2872  0.8104  0.5193
   17MOL0     C 2229   6.068   4.773   9.166 -0.7764 -0.7571 -0.1054
   17MOL0     C 2230   6.149   4.762   9.299 -0.1376  0.1683  0.8976
   17MOL0     C 2231   6.226   4.632   9.297 -0.6662  0.5612 -0.5864
   17MOL0     O 2232   6.318   4.633   9.403  0.0308  0.1838 -1.2663
   17MOL0     C 2233   6.435   4.592   9.367  0.1275 -0.1449 -0.0729
   17MOL0     C 2234   6.540   4.676   9.334 -0.1184 -0.1874 -0.6855
   17MOL0     C 2235   6.665   4.625   9.312 -1.6622 -0.2909 -0.5238
   17MOL0     C 2236   6.772   4.714   9.267  0.4789  0.3134 -0.6187
   17MOL0     C 2237   6.691   4.486   9.318  0.3210 -0.3682 -0.0614
   17MOL0     C 2238   6.815   4.421   9.289 -0.4515  0.3022  1.2209
   17MOL0     O 2239   6.898   4.469   9.187 -0.7565  0.4093  0.1868
   17MOL0     C 2240   7.019   4.404   9.184 -0.7563  0.1321  0.2742
   17MOL0     C 2241   7.065   4.340   9.069  0.1960  0.0973 -0.4668
   17MOL0     C 2242   7.178   4.271   9.058  0.8870  0.7349  0.3794
   17MOL0     C 2243   7.276   4.276   9.160  0.0749 -0.4578  0.1603
   17MOL0     O 2244   7.394   4.210   9.136 -0.6865 -0.4423 -0.9640
   17MOL0     C 2245   7.509   4.271   9.193 -0.1346  0.3726  0.0702
   17MOL0     C 2246   7.624   4.188   9.137  0.3546 -0.6189 -0.6943
   17MOL0     C 2247   7.773   4.232   9.155 -0.1649  0.0584  0.5508
   17MOL0     C 2248   7.804   4.268   9.302 -0.1171  0.3663 -0.1713
   17MOL0     C 2249   7.960   4.269   9.328 -0.4216 -0.2724  0.1512
   17MOL0     C 2250   8.026   4.403   9.259  0.0522 -0.2833 -0.1552
   17MOL0     C 2251   8.178   4.399   9.287  0.6466 -0.0290 -0.4158
   17MOL0     C 2252   8.230   4.504   9.185  0.3657 -0.4624  0.1251
   17MOL0    Cl 2253   8.408   4.517   9.205 -0.2309 -0.4188  0.0183
   17MOL0     C 2254   7.245   4.342   9.277 -0.0045  0.4573  0.7818
   17MOL0     C 2255   7.117   4.408   9.291 -1.0250  0.6840 -0.1207
   17MOL0     O 2256   6.840   4.323   9.362 -0.0208  0.5198 -0.1251
   17MOL0     C 2257   6.580   4.405   9.343 -0.4108  0.0929  0.1700
   17MOL0     C 2258   6.459   4.452   9.376 -0.3097 -0.6483 -0.5873
   17MOL0     N 2259   6.058   5.094   9.107 -0.1653 -0.3659 -0.0525
   17MOL0     N 2260   6.068   5.214   9.158 -0.6408  0.3215  0.4228
   17MOL0     C 2261   7.029   5.021   9.338  0.4204  0.0740  0.3390
   17MOL0     C 2262   7.170   4.999   9.324  0.3539  0.2820  0.7396
   17MOL0     C 2263   7.569   4.820   9.515 -0.9786  0.2613 -0.0350
   17MOL0     C 2264   7.654   4.945   9.497  0.2288  0.4604 -0.9540
   17MOL0     C 2265   7.794   4.927   9.494 -0.4819 -0.1330  0.2981
   17MOL0     C 2266   7.859   4.806   9.509 -0.1201 -0.5539  0.7181
   17MOL0     O 2267   7.997   4.803   9.504 -0.1026 -0.7418 -1.0647
   17MOL0     C 2268   8.071   4.680   9.499  0.0434 -0.1154  0.0199
   17MOL0     C 2269   8.126   4.640   9.633  0.1403  0.1425  0.1903
   17MOL0     C 2270   8.249   4.714   9.683 -0.2190 -0.0228  0.0143
   17MOL0     C 2271   8.375   4.693   9.600  0.1475 -0.8139  0.6841
   17MOL0     C 2272   8.413   4.549   9.577 -0.0744  0.3773  0.7316
   17MOL0     C 2273   8.434   4.429   9.551 -0.2577 -1.1107  0.0622
   17MOL0     C 2274   7.774   4.697   9.524 -0.6672  0.5933 -0.1068
   17MOL0     C 2275   7.635   4.695   9.532 -0.1829 -0.0396  0.0445
   17MOL0     C 2276   7.571   4.562   9.561 -0.1508  0.9396 -0.0574
   17MOL0     H 2277   7.239   4.979   9.656  0.2086 -1.4830 -0.4239
   17MOL0     H 2278   6.993   5.045   9.678 -2.6704  0.4307 -0.8735
   17MOL0     H 2279   6.792   5.113   9.635  0.2019  0.1119 -0.3100
   17MOL0     H 2280   6.719   4.957   9.576 -0.9978  0.0184  2.3353
   17MOL0     H 2281   6.561   5.080   9.459 -0.4140  0.4424 -0.0576
   17MOL0     H 2282   6.545   5.104   9.627  1.1123 -0.9188  0.5353
   17MOL0     H 2283   6.608   5.327   9.629  0.5456  1.7349 -0.8581
   17MOL0     H 2284   6.699   5.309   9.481  2.5759 -3.2020  2.4174
   17MOL0     H 2285   6.510   5.435   9.419 -2.1881  0.6930 -1.5338
   17MOL0     H 2286   6.471   5.280   9.355 -0.5965  0.9439  0.0088
   17MOL0     H 2287   6.354   5.405   9.605  2.0156 -0.0413 -1.1336
   17MOL0     H 2288   6.351   5.222   9.568 -2.3862 -1.3813 -3.4200
   17MOL0     H 2289   6.264   5.442   9.385  0.5151 -1.3505 -1.6832
   17MOL0     H 2290   6.267   5.259   9.356 -0.7896 -1.1726  0.1554
   17MOL0     H 2291   6.096   5.433   9.523  0.8072  0.7661 -1.7702
   17MOL0     H 2292   6.105   5.254   9.550 -0.5060 -0.6828 -0.7896
   17MOL0     H 2293   5.912   5.314   9.422 -0.0265 -0.2936  0.1750
   17MOL0     H 2294   5.999   5.410   9.309 -1.7192 -1.0169 -0.5296
   17MOL0     H 2295   5.923   5.044   9.402 -2.3981 -0.4975 -2.1283
   17MOL0     H 2296   5.897   4.873   9.079  0.5228 -1.4201  0.3161
   17MOL0     H 2297   5.877   4.840   9.242  1.8628 -2.1850  1.0040
   17MOL0     H 2298   6.033   4.679   9.123  1.0048 -1.4086 -0.2179
   17MOL0     H 2299   6.134   4.823   9.094 -1.4759 -0.0172 -0.2486
   17MOL0     H 2300   6.213   4.850   9.313 -0.6855  0.7680 -0.1916
   17MOL0     H 2301   6.079   4.757   9.383  1.6631  1.3539  2.5724
   17MOL0     H 2302   6.152   4.554   9.315 -1.5725  1.3240 -0.8931
   17MOL0     H 2303   6.268   4.607   9.199  1.7405  1.3875  0.1621
   17MOL0     H 2304   6.531   4.784   9.322  0.5345 -0.1117 -0.5512
   17MOL0     H 2305   6.757   4.814   9.310  0.9009 -1.2380  3.6845
   17MOL0     H 2306   6.770   4.719   9.158 -1.9437 -1.4464 -0.7469
   17MOL0     H 2307   6.867   4.681   9.309  0.1049 -1.2072 -0.9111
   17MOL0     H 2308   7.007   4.336   8.977  2.0085 -1.3767 -1.6166
   17MOL0     H 2309   7.202   4.224   8.963  3.0286  2.9882 -0.3058
   17MOL0     H 2310   7.504   4.376   9.162 -0.3525 -0.2044 -1.9529
   17MOL0     H 2311   7.511   4.270   9.303 -1.5340 -0.8734  0.1079
   17MOL0     H 2312   7.620   4.086   9.175  1.1036  0.1206  1.5210
   17MOL0     H 2313   7.614   4.176   9.028 -1.0011 -1.4999 -0.4849
   17MOL0     H 2314   7.794   4.311   9.082  0.5881 -1.0996 -0.5060
   17MOL0     H 2315   7.831   4.144   9.128 -1.2680 -0.8773  1.1374
   17MOL0     H 2316   7.763   4.189   9.366  2.2840 -1.0417 -0.2721
   17MOL0     H 2317   7.771   4.368   9.331  0.9277  1.1193 -1.4605
   17MOL0     H 2318   7.975   4.269   9.436  0.7661  2.7210  0.0748
   17MOL0     H 2319   8.005   4.182   9.278  0.9142  0.6625 -0.3308
   17MOL0     H 2320   7.985   4.496   9.298  0.9671  1.0243 -2.1496
   17MOL0     H 2321   8.002   4.395   9.152 -1.3548  6.6655 -0.8257
   17MOL0     H 2322   8.207   4.295   9.274  0.0533 -0.3296  0.5556
   17MOL0     H 2323   8.211   4.431   9.386 -0.9842  2.2704 -0.5333
   17MOL0     H 2324   8.184   4.602   9.201 -0.4215 -0.1403 -3.4027
   17MOL0     H 2325   8.209   4.458   9.089 -0.7570  0.1226  0.0701
   17MOL0     H 2326   7.304   4.354   9.368 -0.6869  1.4285  1.1132
   17MOL0     H 2327   7.093   4.445   9.390 -2.7874 -0.0397 -0.2433
   17MOL0     H 2328   6.595   4.298   9.337 -0.4325 -0.1134  2.7465
   17MOL0     H 2329   6.381   4.391   9.421  0.2509 -1.0776 -0.1887
   17MOL0     H 2330   6.972   5.034   9.246 -1.6037 -1.3098  1.3155
   17MOL0     H 2331   7.219   4.984   9.228  0.8409  1.5615  0.7716
   17MOL0     H 2332   7.624   5.048   9.486 -1.6173 -0.0471 -1.0009
   17MOL0     H 2333   7.850   5.019   9.482  1.6323 -1.0678  2.2805
   17MOL0     H 2334   8.000   4.606   9.460 -0.6978  1.6268 -2.1150
   17MOL0     H 2335   8.148   4.690   9.422  0.9018  0.8956  0.9674
   17MOL0     H 2336   8.147   4.533   9.617  0.8470  0.6905 -3.2229
   17MOL0     H 2337   8.051   4.641   9.713 -0.9452  0.2211 -0.8022
   17MOL0     H 2338   8.225   4.820   9.680  0.6052  0.1502 -0.8628
   17MOL0     H 2339   8.270   4.679   9.785 -1.4285  0.8851  0.5903
   17MOL0     H 2340   8.455   4.747   9.651 -1.5355  0.6716  1.8921
   17MOL0     H 2341   8.352   4.733   9.501  0.0445  1.1067  1.4344
   17MOL0     H 2342   8.459   4.328   9.522 -2.7706 -1.9341  0.5709
   17MOL0     H 2343   7.823   4.601   9.535  2.8071  2.2321  0.0517
   17MOL0     H 2344   7.644   4.489   9.598 -2.0650 -0.1334  1.8257
   17MOL0     H 2345   7.494   4.572   9.638  0.1959 -1.8091  0.7552
   17MOL0     H 2346   7.532   4.513   9.471 -1.0723  2.0219 -0.2700
   18MOL0     O 2347   2.680   2.225   9.637 -0.7144  0.8605  0.2251
   18MOL0     C 2348   2.753   2.126   9.665 -0.1123 -0.0037 -0.2446
   18MOL0     O 2349   2.826   2.058   9.571  0.3840  0.5318 -0.1304
   18MOL0     C 2350   2.821   2.089   9.437 -0.7927 -0.4304 -0.7736
   18MOL0     C 2351   2.845   2.223   9.383  0.0113  1.2498 -0.2202
   18MOL0     C 2352   2.843   2.246   9.253  0.2998  0.4383 -0.0109
   18MOL0     C 2353   2.802   2.144   9.168 -0.9412 -0.1127  0.8681
   18MOL0     O 2354   2.811   2.151   9.034  0.5043 -0.4441 -0.8102
   18MOL0     C 2355   2.940   2.199   9.000 -0.3501 -0.2191 -0.1826
   18MOL0     C 2356   2.979   2.177   8.861  0.1699 -0.1927  0.1677
   18MOL0     C 2357   3.131   2.224   8.848 -0.2540 -0.4415  0.8534
   18MOL0     C 2358   3.214   2.109   8.797  0.2903 -0.9509 -0.4469
   18MOL0     C 2359   3.359   2.148   8.780 -0.6488  1.0079  0.1241
   18MOL0     C 2360   3.459   2.038   8.765  0.8412  0.0850 -0.1950
   18MOL0     C 2361   3.441   1.958   8.627 -0.3987  0.0694 -0.9660
   18MOL0     C 2362   3.523   2.021   8.510 -0.0020 -0.8123  0.7336
   18MOL0     N 2363   3.667   1.989   8.517 -0.6715  0.3617  0.1928
   18MOL0     C 2364   3.766   2.083   8.555  0.5359  0.2986 -0.2967
   18MOL0     C 2365   3.884   2.018   8.530 -0.2866  0.5315  0.4096
   18MOL0     C 2366   4.018   2.084   8.526 -0.5351  0.2633 -0.1275
   18MOL0     C 2367   4.080   2.079   8.385  0.0210  0.5755 -1.2549
   18MOL0     C 2368   4.219   2.144   8.388 -0.4238  0.6494 -0.5418
   18MOL0     C 2369   4.286   2.155   8.255 -0.2597  0.3758  0.0949
   18MOL0     O 2370   4.390   2.250   8.264  0.1013  1.2341 -0.6046
   18MOL0     C 2371   4.513   2.214   8.298 -0.1042 -0.9838 -0.2667
   18MOL0     C 2372   4.567   2.083   8.293 -0.3169 -0.5535  0.5994
   18MOL0     C 2373   4.692   2.054   8.341 -1.0339  0.0655  0.7681
   18MOL0     C 2374   4.744   1.913   8.333  0.0445 -0.1495 -0.2824
   18MOL0     C 2375   4.770   2.148   8.406  0.5319  0.9171  0.8340
   18MOL0     C 2376   4.909   2.126   8.460  0.4229 -0.1927 -0.3255
   18MOL0     O 2377   4.967   2.240   8.506  0.4029 -0.7387 -0.4116
   18MOL0     C 2378   5.082   2.243   8.582  0.2971  0.0182 -0.4703
   18MOL0     C 2379   5.096   2.350   8.670  0.7323  0.3262  0.3018
   18MOL0     C 2380   5.213   2.371   8.738 -0.2120  0.0236  0.3757
   18MOL0     C 2381   5.323   2.283   8.728  0.4685 -0.8444 -0.6416
   18MOL0     O 2382   5.432   2.322   8.808 -0.4109 -0.3913  0.2589
   18MOL0     C 2383   5.499   2.206   8.861 -0.2463  0.7673 -1.0736
   18MOL0     C 2384   5.589   2.259   8.970 -0.3683 -0.1432 -0.5270
   18MOL0     C 2385   5.701   2.158   9.010  1.0675  0.3869  0.0285
   18MOL0     C 2386   5.768   2.217   9.138  0.2215  0.2865  0.4056
   18MOL0     C 2387   5.893   2.135   9.189  1.2308  0.4078 -0.4920
   18MOL0     C 2388   6.002   2.095   9.094  0.0802  0.1931 -0.2363
   18MOL0     C 2389   6.118   2.025   9.168 -0.2440 -0.0244  0.0960
   18MOL0     C 2390   6.242   2.008   9.085 -0.2521 -0.7054 -0.0288
   18MOL0    Cl 2391   6.384   1.949   9.177  0.1190 -0.1055  0.2407
   18MOL0     C 2392   5.313   2.173   8.646 -0.0861 -0.1641  0.4277
   18MOL0     C 2393   5.192   2.156   8.576 -0.8435  0.4551 -0.0304
   18MOL0     O 2394   4.937   2.011   8.489 -0.0380 -0.1081 -0.7261
   18MOL0     C 2395   4.719   2.278   8.408 -0.1620 -0.3476 -0.9990
   18MOL0     C 2396   4.590   2.315   8.360  0.3000  0.6816  1.1994
   18MOL0     N 2397   3.846   1.890   8.480  0.0309 -0.3879  0.2987
   18MOL0     N 2398   3.723   1.871   8.485  0.1449  0.4723 -0.1406
   18MOL0     C 2399   2.773   2.014   9.218  0.5962  0.2978  0.6728
   18MOL0     C 2400   2.775   1.992   9.346 -0.6787  0.4429 -0.8188
   18MOL0     C 2401   2.745   2.064   9.799  0.3432 -0.1660  0.0469
   18MOL0     C 2402   2.799   1.936   9.818 -0.2133  0.5449 -0.2284
   18MOL0     C 2403   2.793   1.879   9.951  1.2292 -0.2296  0.4738
   18MOL0     C 2404   2.724   1.945  10.051 -0.5620  0.1142 -0.1282
   18MOL0     O 2405   2.697   1.882  10.170  0.3914  0.3773 -0.1843
   18MOL0     C 2406   2.679   1.735  10.175 -0.0175  0.2429 -0.3031
   18MOL0     C 2407   2.565   1.690  10.078  0.1398  0.5145 -0.2725
   18MOL0     C 2408   2.544   1.539  10.115  0.7014 -0.0752  0.8882
   18MOL0     C 2409   2.398   1.493  10.071 -1.2057 -0.5283  0.3992
   18MOL0     C 2410   2.394   1.345  10.066  0.3758 -0.4392  0.1733
   18MOL0     C 2411   2.351   1.229  10.074  0.8783 -0.3231  1.3007
   18MOL0     C 2412   2.681   2.069  10.030  0.6454  0.6039  0.4455
   18MOL0     C 2413   2.682   2.126   9.906  0.1344  0.2891 -0.3426
   18MOL0     C 2414   2.600   2.251   9.900 -0.0225 -0.0372  0.1375
   18MOL0     H 2415   2.869   2.308   9.446  0.8673  1.2954 -0.5989
   18MOL0     H 2416   2.865   2.339   9.202 -1.5268 -0.0547 -1.8191
   18MOL0     H 2417   3.009   2.139   9.060  1.3921  0.6659 -1.2226
   18MOL0     H 2418   2.960   2.302   9.029 -0.5520  0.0333 -0.9059
   18MOL0     H 2419   2.969   2.074   8.824  4.1328 -0.5797 -0.2595
   18MOL0     H 2420   2.915   2.244   8.802 -1.6426 -1.0785  1.0396
   18MOL0     H 2421   3.134   2.313   8.786 -2.9364  0.2505  1.5783
   18MOL0     H 2422   3.165   2.267   8.943 -0.8056  0.4917  0.6347
   18MOL0     H 2423   3.201   2.033   8.874 -3.1427  1.1151  1.2967
   18MOL0     H 2424   3.182   2.073   8.698  0.7735  1.0926 -1.4045
   18MOL0     H 2425   3.391   2.196   8.873  0.4640  1.9491 -0.7166
   18MOL0     H 2426   3.367   2.221   8.698 -0.0630  2.9289  1.8141
   18MOL0     H 2427   3.560   2.079   8.758 -0.2747  3.2093  0.3344
   18MOL0     H 2428   3.457   1.970   8.850 -1.4135 -2.2141 -1.9392
   18MOL0     H 2429   3.335   1.951   8.598  0.0380 -0.0554 -2.6527
   18MOL0     H 2430   3.463   1.852   8.640 -2.0902 -0.1837  0.2046
   18MOL0     H 2431   3.494   1.978   8.413  1.8200 -0.3338 -0.0585
   18MOL0     H 2432   3.493   2.126   8.503 -1.8819 -1.2563  1.6557
   18MOL0     H 2433   3.748   2.178   8.604 -0.4724  0.4941 -1.0215
   18MOL0     H 2434   4.088   2.021   8.581 -3.6001 -0.9776  2.7375
   18MOL0     H 2435   4.009   2.184   8.569  0.3253 -0.3429  1.5252
   18MOL0     H 2436   4.101   1.974   8.360 -1.4502  0.1103 -0.6321
   18MOL0     H 2437   4.010   2.117   8.311 -1.8176 -1.7413 -0.8266
   18MOL0     H 2438   4.218   2.241   8.439  1.3746 -0.5065  1.8966
   18MOL0     H 2439   4.288   2.077   8.439  0.8724  1.8563 -0.6640
   18MOL0     H 2440   4.315   2.059   8.210 -1.9654 -0.3408  0.4372
   18MOL0     H 2441   4.218   2.190   8.178 -0.0211 -0.7558 -0.6624
   18MOL0     H 2442   4.522   1.998   8.243  2.0302  0.1244 -3.0621
   18MOL0     H 2443   4.683   1.856   8.263 -0.0874 -0.3312 -0.0208
   18MOL0     H 2444   4.739   1.872   8.434  0.6147 -0.2509 -0.2927
   18MOL0     H 2445   4.846   1.917   8.295 -0.0823  0.2632 -0.5871
   18MOL0     H 2446   5.023   2.430   8.674  2.5233  2.0229  0.5617
   18MOL0     H 2447   5.227   2.464   8.793 -0.2630 -1.1348  2.4269
   18MOL0     H 2448   5.435   2.134   8.912  0.3445  0.3189 -0.9584
   18MOL0     H 2449   5.559   2.149   8.789 -0.4614 -2.4919  1.1237
   18MOL0     H 2450   5.638   2.347   8.928 -1.1861  0.7737  0.3793
   18MOL0     H 2451   5.541   2.303   9.057  1.4131  1.3938 -0.2682
   18MOL0     H 2452   5.774   2.151   8.929  1.6536  0.7779  0.5150
   18MOL0     H 2453   5.659   2.061   9.039 -0.6850  0.4380 -2.0801
   18MOL0     H 2454   5.688   2.236   9.211 -0.5372  0.2168 -0.3934
   18MOL0     H 2455   5.806   2.315   9.110 -0.9310  0.5217 -0.4095
   18MOL0     H 2456   5.952   2.185   9.266  1.9346 -0.6957 -0.2778
   18MOL0     H 2457   5.852   2.040   9.224 -0.1704  1.0952 -0.2091
   18MOL0     H 2458   6.041   2.187   9.049  0.6576  0.2112  0.2869
   18MOL0     H 2459   5.953   2.032   9.020  0.7633 -0.7229  0.0690
   18MOL0     H 2460   6.084   1.927   9.203 -3.5754  0.7947 -0.5113
   18MOL0     H 2461   6.152   2.092   9.247  1.4443  0.0861 -0.6708
   18MOL0     H 2462   6.262   2.109   9.047  0.5386 -1.3326 -1.3402
   18MOL0     H 2463   6.212   1.943   9.002 -1.4755  0.4959 -0.5847
   18MOL0     H 2464   5.393   2.104   8.619 -0.7865  0.4324 -4.0160
   18MOL0     H 2465   5.199   2.082   8.496  1.5529  1.2443 -0.6427
   18MOL0     H 2466   4.784   2.350   8.457  0.3395 -0.6450 -1.2178
   18MOL0     H 2467   4.558   2.418   8.360 -1.1227  0.3039 -0.5539
   18MOL0     H 2468   2.749   1.930   9.154  2.4022 -0.1034  0.4725
   18MOL0     H 2469   2.756   1.893   9.387 -1.7438  1.4010  1.1465
   18MOL0     H 2470   2.834   1.876   9.735 -0.5695  0.7925 -0.5650
   18MOL0     H 2471   2.841   1.784   9.972  5.6513  1.8733  0.9259
   18MOL0     H 2472   2.772   1.689  10.141 -1.7733 -3.1792 -0.9313
   18MOL0     H 2473   2.664   1.709  10.281 -2.3995  0.5510 -0.5152
   18MOL0     H 2474   2.573   1.704   9.970  1.3761  0.7855 -0.1593
   18MOL0     H 2475   2.477   1.747  10.111  0.8510  1.1857  0.5065
   18MOL0     H 2476   2.618   1.473  10.069  2.3984  0.8214  2.2061
   18MOL0     H 2477   2.554   1.523  10.223 -0.7966  0.6537  1.1671
   18MOL0     H 2478   2.375   1.532   9.972  1.7396  3.9817  1.2101
   18MOL0     H 2479   2.321   1.531  10.139 -2.1153  1.6101 -1.7266
   18MOL0     H 2480   2.310   1.131  10.070  2.0400 -0.8709  2.3350
   18MOL0     H 2481   2.627   2.116  10.112  1.2775 -2.3291  2.6847
   18MOL0     H 2482   2.586   2.290  10.001 -3.0961 -1.0734  0.1925
   18MOL0     H 2483   2.643   2.331   9.839 -0.4731 -1.0552 -1.5825
   18MOL0     H 2484   2.503   2.216   9.865  0.0767  0.4528 -0.6648
   19MOL0     O 2485  11.128   1.587   6.281  0.7515  0.4602  0.0860
   19MOL0     C 2486  11.205   1.495   6.309  0.0821 -0.2094  0.1755
   19MOL0     O 2487  11.338   1.486   6.269 -0.6808  0.1221  1.1135
   19MOL0     C 2488  11.416   1.577   6.200  0.3583  0.7217  0.8545
   19MOL0     C 2489  11.546   1.527   6.158  0.3555  1.1533 -0.8293
   19MOL0     C 2490  11.636   1.607   6.086 -0.4309 -0.3393  0.5077
   19MOL0     C 2491  11.594   1.740   6.065 -0.8235 -0.3032  0.3829
   19MOL0     O 2492  11.683   1.816   5.992  0.0656  1.0103 -0.1727
   19MOL0     C 2493  11.648   1.817   5.854 -0.2606  0.1608  0.3989
   19MOL0     C 2494  11.783   1.848   5.778  0.3052 -0.6869 -0.5046
   19MOL0     C 2495  11.886   1.736   5.814  0.0130 -0.3576 -0.2175
   19MOL0     C 2496  12.034   1.770   5.758  0.3630  0.1233  0.4329
   19MOL0     C 2497  12.148   1.685   5.829  0.6196 -0.6788 -0.7433
   19MOL0     C 2498  12.274   1.777   5.863 -0.4826  0.4124 -0.4227
   19MOL0     C 2499  12.377   1.698   5.953 -0.1261 -0.5932  0.7004
   19MOL0     C 2500  12.320   1.710   6.092 -0.2700 -0.1062 -1.0981
   19MOL0     N 2501  12.399   1.622   6.179 -0.0579 -0.3483  0.2695
   19MOL0     C 2502  12.516   1.674   6.231  0.7624 -0.1289  0.5418
   19MOL0     C 2503  12.567   1.562   6.289  0.1980 -0.7382 -0.3947
   19MOL0     C 2504  12.697   1.560   6.358 -0.4558  0.3000 -0.4058
   19MOL0     C 2505  12.800   1.498   6.272 -0.4319 -0.2808  0.5748
   19MOL0     C 2506  12.805   1.546   6.128 -0.4151 -0.3427  0.2739
   19MOL0     C 2507  12.920   1.485   6.046  0.1164 -0.1125  0.9237
   19MOL0     O 2508  13.046   1.500   6.110 -0.0869  0.0284 -0.3171
   19MOL0     C 2509  13.149   1.406   6.081 -0.2118  0.3762  0.0844
   19MOL0     C 2510  13.160   1.325   5.966 -0.4650  0.1569 -0.1557
   19MOL0     C 2511  13.260   1.230   5.941 -0.1538 -0.5526  1.1344
   19MOL0     C 2512  13.246   1.152   5.816 -0.6321 -0.0429  0.8473
   19MOL0     C 2513  13.364   1.218   6.036 -1.1577 -0.2634  0.3047
   19MOL0     C 2514  13.483   1.130   6.026  0.2376  0.3734 -0.1923
   19MOL0     O 2515  13.592   1.160   6.100 -0.0838  0.5744  0.0390
   19MOL0     C 2516  13.710   1.092   6.088 -0.6359  0.5292  0.0556
   19MOL0     C 2517  13.745   0.997   6.191  0.5455 -0.3584  0.6771
   19MOL0     C 2518  13.875   0.937   6.191 -0.1996 -0.4130  0.5911
   19MOL0     C 2519  13.966   0.952   6.080  0.4460  0.6788  0.7705
   19MOL0     O 2520  14.088   0.893   6.067  0.3356  0.2932  0.6207
   19MOL0     C 2521  14.135   0.832   6.183  0.2159  0.0086  0.6881
   19MOL0     C 2522  14.286   0.794   6.151 -0.0846 -0.3914  0.0208
   19MOL0     C 2523  14.380   0.915   6.118 -0.9819 -0.1326 -0.5868
   19MOL0     C 2524  14.383   1.021   6.228 -0.1548  0.5205 -0.3802
   19MOL0     C 2525  14.480   1.134   6.199  0.1170 -0.5732 -0.1889
   19MOL0     C 2526  14.472   1.250   6.302  0.1676  0.5125 -0.9311
   19MOL0     C 2527  14.500   1.202   6.449 -0.3048 -0.2336  0.6404
   19MOL0     C 2528  14.548   1.320   6.538  0.2398  0.0329  0.4602
   19MOL0    Cl 2529  14.702   1.371   6.476  0.3482 -0.0396 -0.6934
   19MOL0     C 2530  13.919   1.032   5.975 -0.0647 -0.4046 -0.7499
   19MOL0     C 2531  13.795   1.097   5.977 -0.2020 -0.9164  0.7720
   19MOL0     O 2532  13.474   1.032   5.961  0.3296 -0.3902  0.4787
   19MOL0     C 2533  13.356   1.305   6.152  1.1733  0.0329 -0.0608
   19MOL0     C 2534  13.254   1.398   6.171 -0.3780  0.5960 -0.5608
   19MOL0     N 2535  12.487   1.455   6.277 -0.2301  0.2966 -0.4493
   19MOL0     N 2536  12.379   1.486   6.211 -0.1946  0.3609  0.7942
   19MOL0     C 2537  11.470   1.786   6.114  0.4919 -0.9722  0.1705
   19MOL0     C 2538  11.378   1.707   6.175  0.9644  0.3632  0.5026
   19MOL0     C 2539  11.134   1.380   6.378 -0.1543  0.1597  0.2768
   19MOL0     C 2540  10.993   1.375   6.410 -0.5944 -0.4936  0.7224
   19MOL0     C 2541  10.929   1.267   6.471 -0.9898 -0.7955 -0.1628
   19MOL0     C 2542  10.997   1.147   6.515  0.0011 -1.0237 -0.0449
   19MOL0     O 2543  10.929   1.049   6.582 -0.4504  0.4660  0.4936
   19MOL0     C 2544  10.996   0.919   6.589 -0.1117  0.4742 -0.4023
   19MOL0     C 2545  10.895   0.816   6.635  0.4505 -0.1353 -0.2938
   19MOL0     C 2546  10.765   0.804   6.556 -1.0420 -0.0676  0.7008
   19MOL0     C 2547  10.650   0.730   6.635  0.8640 -0.0751 -0.8265
   19MOL0     C 2548  10.536   0.714   6.549  0.4645 -0.8442 -0.3708
   19MOL0     C 2549  10.443   0.689   6.469  0.2301  0.4364 -0.5232
   19MOL0     C 2550  11.135   1.159   6.490  0.4619  0.2609 -0.2129
   19MOL0     C 2551  11.209   1.266   6.432  0.2243 -0.3876 -0.1795
   19MOL0     C 2552  11.360   1.260   6.430 -0.1099  0.1769 -0.3045
   19MOL0     H 2553  11.581   1.428   6.183  0.8230  1.1253 -1.5604
   19MOL0     H 2554  11.732   1.568   6.054  0.7592  3.2127 -0.7307
   19MOL0     H 2555  11.567   1.889   5.839 -3.3830 -3.0142  0.6070
   19MOL0     H 2556  11.612   1.718   5.822  0.0857  0.5550 -1.3253
   19MOL0     H 2557  11.771   1.865   5.671  0.6862  0.9790 -0.3134
   19MOL0     H 2558  11.808   1.949   5.811  0.7486 -0.5755 -1.1751
   19MOL0     H 2559  11.904   1.722   5.920  1.7546  0.0500 -0.4260
   19MOL0     H 2560  11.855   1.637   5.780  0.2397 -0.9618  1.2847
   19MOL0     H 2561  12.030   1.760   5.649 -2.0478  1.2102  0.3758
   19MOL0     H 2562  12.042   1.879   5.765 -0.6740  0.3193 -1.1209
   19MOL0     H 2563  12.170   1.596   5.770  0.8183 -1.0434 -0.1351
   19MOL0     H 2564  12.103   1.655   5.924  0.3415 -1.0262 -0.9833
   19MOL0     H 2565  12.317   1.807   5.767  1.4876 -1.2362 -0.1217
   19MOL0     H 2566  12.250   1.869   5.916  2.4866  0.2296  1.5073
   19MOL0     H 2567  12.476   1.743   5.944 -0.7459  0.5604 -0.9408
   19MOL0     H 2568  12.380   1.592   5.927  1.2652 -0.0210 -1.8336
   19MOL0     H 2569  12.319   1.812   6.132 -0.8326 -0.5837  0.1391
   19MOL0     H 2570  12.215   1.682   6.093 -0.3304 -0.0393 -2.5939
   19MOL0     H 2571  12.570   1.768   6.227  3.6231 -1.4264  3.5802
   19MOL0     H 2572  12.685   1.500   6.448 -0.0395 -0.0634 -0.5897
   19MOL0     H 2573  12.737   1.658   6.385  0.4991 -0.0400 -0.5582
   19MOL0     H 2574  12.898   1.523   6.313  0.5802 -0.9535 -1.3381
   19MOL0     H 2575  12.790   1.389   6.275  2.5405 -0.8136 -2.7468
   19MOL0     H 2576  12.708   1.532   6.080 -0.5214 -1.0806  0.6806
   19MOL0     H 2577  12.828   1.653   6.123 -0.4106 -0.2835  1.2906
   19MOL0     H 2578  12.893   1.386   6.007  1.7878  0.4559 -2.0168
   19MOL0     H 2579  12.934   1.544   5.955  0.3122  0.5777  1.3963
   19MOL0     H 2580  13.068   1.329   5.909 -2.0110  3.0130  2.2509
   19MOL0     H 2581  13.334   1.094   5.788  0.0760  1.6842 -0.7728
   19MOL0     H 2582  13.215   1.212   5.730 -0.3548 -3.0707 -1.5221
   19MOL0     H 2583  13.160   1.089   5.839 -2.2079  0.9153 -1.8985
   19MOL0     H 2584  13.671   0.989   6.270  0.3665 -1.4420  0.4056
   19MOL0     H 2585  13.913   0.868   6.265  1.7239 -0.4716 -0.3913
   19MOL0     H 2586  14.111   0.899   6.266 -1.4512  1.8739 -1.1840
   19MOL0     H 2587  14.083   0.736   6.192  1.3480 -0.9470 -2.0689
   19MOL0     H 2588  14.325   0.742   6.239 -1.6706  0.5986  1.3701
   19MOL0     H 2589  14.289   0.720   6.071  0.4198 -0.2299 -0.1129
   19MOL0     H 2590  14.353   0.958   6.021  0.9762  3.0198  0.1363
   19MOL0     H 2591  14.485   0.886   6.109 -0.9874 -0.2150 -0.3892
   19MOL0     H 2592  14.418   0.978   6.322  0.1458  2.1881  0.3147
   19MOL0     H 2593  14.280   1.057   6.234  0.0737  2.5398 -4.6867
   19MOL0     H 2594  14.583   1.100   6.181  1.0675  1.5184  0.9463
   19MOL0     H 2595  14.460   1.174   6.099  1.1503  2.3773  0.6766
   19MOL0     H 2596  14.375   1.300   6.294 -0.3095 -0.3303 -0.5216
   19MOL0     H 2597  14.543   1.326   6.268  0.6632 -0.1028 -1.3100
   19MOL0     H 2598  14.577   1.125   6.457 -0.5566 -0.5866 -0.2263
   19MOL0     H 2599  14.422   1.143   6.497  1.7235 -2.9982  0.7833
   19MOL0     H 2600  14.557   1.285   6.641  3.8519  1.4786  0.7871
   19MOL0     H 2601  14.472   1.398   6.547  0.2875  0.2275 -0.6836
   19MOL0     H 2602  13.980   1.050   5.887 -0.2764 -1.0970 -1.0505
   19MOL0     H 2603  13.762   1.145   5.885  1.8553  0.6059  0.7578
   19MOL0     H 2604  13.424   1.294   6.235  0.9836 -2.2407 -0.1295
   19MOL0     H 2605  13.263   1.460   6.259  1.1625  1.1935 -1.0921
   19MOL0     H 2606  11.438   1.887   6.092  0.4990 -1.0580 -0.2358
   19MOL0     H 2607  11.286   1.756   6.206  0.4508  0.6047 -1.2650
   19MOL0     H 2608  10.931   1.459   6.378  0.9149  0.2716 -0.3285
   19MOL0     H 2609  10.821   1.269   6.475 -0.9554  1.0863  0.6190
   19MOL0     H 2610  11.032   0.887   6.491  1.9722  0.0473  0.4450
   19MOL0     H 2611  11.077   0.916   6.663  1.3985  1.6345 -1.9302
   19MOL0     H 2612  10.885   0.842   6.741 -0.4720  0.4073 -0.5099
   19MOL0     H 2613  10.936   0.714   6.635 -0.7915 -0.7129 -2.8914
   19MOL0     H 2614  10.728   0.904   6.533 -1.2428  0.3668  2.7543
   19MOL0     H 2615  10.788   0.752   6.462  1.0617  1.2667  0.4109
   19MOL0     H 2616  10.620   0.784   6.725  2.6042 -0.3904 -0.0095
   19MOL0     H 2617  10.688   0.634   6.671 -2.6520 -0.5758  2.0132
   19MOL0     H 2618  10.360   0.678   6.402  0.8444  0.3499 -1.2840
   19MOL0     H 2619  11.188   1.073   6.531  2.3730  2.6629  2.7693
   19MOL0     H 2620  11.389   1.205   6.340  1.8851 -1.0784  1.0386
   19MOL0     H 2621  11.419   1.351   6.442  0.8046 -0.6088  1.4010
   19MOL0     H 2622  11.391   1.204   6.519  1.6644 -0.7468 -1.4421
   20MOL0     O 2623   7.608   5.278   4.328 -0.0331 -0.0436  0.4870
   20MOL0     C 2624   7.587   5.166   4.357 -0.2713 -0.0061 -0.2009
   20MOL0     O 2625   7.654   5.052   4.303  0.1447 -1.1326 -0.1346
   20MOL0     C 2626   7.768   5.064   4.229  0.3269 -0.2971 -0.3783
   20MOL0     C 2627   7.753   5.118   4.100  0.4104  0.2128 -0.4800
   20MOL0     C 2628   7.869   5.129   4.018 -0.1091  0.1893 -0.0266
   20MOL0     C 2629   7.995   5.084   4.058  0.2379 -0.8587 -0.4209
   20MOL0     O 2630   8.095   5.118   3.970 -0.5845 -0.1450 -0.0617
   20MOL0     C 2631   8.230   5.076   3.997 -0.2440  0.0434 -0.0393
   20MOL0     C 2632   8.285   5.108   3.865 -0.1315  0.0950  1.0148
   20MOL0     C 2633   8.432   5.068   3.853 -0.0979 -0.5474  0.1819
   20MOL0     C 2634   8.504   5.125   3.728  0.0870 -0.5116  0.5865
   20MOL0     C 2635   8.643   5.062   3.723  0.2739 -0.4065 -0.4331
   20MOL0     C 2636   8.736   5.139   3.635  0.3435  0.2140 -0.5918
   20MOL0     C 2637   8.869   5.065   3.636 -0.0474  0.1527  0.2229
   20MOL0     C 2638   8.972   5.133   3.546  0.6691 -0.4580 -0.2690
   20MOL0     N 2639   9.094   5.055   3.532 -0.2214  0.6356  0.0437
   20MOL0     C 2640   9.219   5.112   3.556 -0.3067  0.1334 -0.2227
   20MOL0     C 2641   9.303   5.002   3.560 -0.4901  0.3622 -0.0008
   20MOL0     C 2642   9.444   5.003   3.590  0.2760 -0.7979 -0.3512
   20MOL0     C 2643   9.532   5.035   3.469  0.6017 -0.0914  0.1460
   20MOL0     C 2644   9.675   5.029   3.512 -0.1979 -1.2033 -0.4463
   20MOL0     C 2645   9.783   5.061   3.406 -0.8347 -0.4938 -0.3901
   20MOL0     O 2646   9.915   5.049   3.455  0.2271 -0.2641  0.2638
   20MOL0     C 2647  10.019   5.127   3.420 -0.0976  0.2598  0.7520
   20MOL0     C 2648  10.013   5.239   3.334 -0.3544 -0.9015 -0.1801
   20MOL0     C 2649  10.130   5.308   3.317  0.6670  0.0725 -0.2551
   20MOL0     C 2650  10.127   5.424   3.229 -0.3628 -0.3366  0.3392
   20MOL0     C 2651  10.253   5.275   3.387  0.3135  0.2041  0.1221
   20MOL0     C 2652  10.380   5.354   3.380  0.2448 -0.2690 -0.4187
   20MOL0     O 2653  10.470   5.334   3.479  0.5694 -0.1998  0.0882
   20MOL0     C 2654  10.586   5.398   3.478 -0.5572 -0.7900 -0.0164
   20MOL0     C 2655  10.594   5.527   3.535 -0.7197  0.1329 -0.0191
   20MOL0     C 2656  10.719   5.588   3.535 -0.6546 -0.2174  0.3763
   20MOL0     C 2657  10.837   5.525   3.480 -0.2254 -0.1132 -0.4598
   20MOL0     O 2658  10.956   5.593   3.484 -0.7504 -0.1616 -0.0838
   20MOL0     C 2659  10.948   5.730   3.438  0.4581 -0.0923  0.1293
   20MOL0     C 2660  11.099   5.776   3.415  0.1842 -0.0652 -0.2445
   20MOL0     C 2661  11.155   5.731   3.285  0.5634 -0.2764  0.0756
   20MOL0     C 2662  11.294   5.778   3.268  0.0899  0.6392 -0.5060
   20MOL0     C 2663  11.354   5.716   3.143  0.0914  0.2269 -0.0781
   20MOL0     C 2664  11.292   5.760   3.010  0.2301  0.1218  0.0539
   20MOL0     C 2665  11.341   5.675   2.893 -0.3114 -0.0177 -0.2347
   20MOL0     C 2666  11.317   5.520   2.894 -1.0813 -0.3865 -0.1280
   20MOL0    Cl 2667  11.144   5.467   2.871 -0.0646 -0.0121 -0.7156
   20MOL0     C 2668  10.817   5.398   3.419  0.7164  0.0136 -0.0581
   20MOL0     C 2669  10.695   5.332   3.428 -0.2778  0.0143 -0.0419
   20MOL0     O 2670  10.413   5.412   3.275  1.2561 -0.3788  0.1067
   20MOL0     C 2671  10.252   5.162   3.466 -0.1786 -0.8703 -0.3571
   20MOL0     C 2672  10.141   5.091   3.479 -0.4736  0.3301  0.1306
   20MOL0     N 2673   9.227   4.892   3.533 -0.0735 -0.0540 -0.4863
   20MOL0     N 2674   9.110   4.923   3.508 -0.2671 -0.3227  0.0633
   20MOL0     C 2675   8.010   5.009   4.171 -0.3624  0.1716 -0.1004
   20MOL0     C 2676   7.898   5.002   4.257 -0.1408 -0.3549  0.3891
   20MOL0     C 2677   7.480   5.139   4.453 -0.6942 -0.5062 -0.0082
   20MOL0     C 2678   7.460   5.243   4.544  0.3833  1.3040 -0.3084
   20MOL0     C 2679   7.361   5.232   4.642 -0.3606  0.2728 -0.1219
   20MOL0     C 2680   7.277   5.118   4.650 -0.0947 -0.0651 -0.1992
   20MOL0     O 2681   7.177   5.121   4.745 -0.3968  0.3622 -0.2752
   20MOL0     C 2682   7.060   5.042   4.720 -0.2206 -0.0575  0.0067
   20MOL0     C 2683   6.943   5.105   4.788 -0.5590  0.3482 -0.2420
   20MOL0     C 2684   6.930   5.044   4.935  0.3235 -0.4834  0.0439
   20MOL0     C 2685   6.833   5.110   5.037  0.5795  0.1057  0.0543
   20MOL0     C 2686   6.880   5.237   5.090  0.4750  0.1350 -0.1494
   20MOL0     C 2687   6.918   5.329   5.157 -0.3578  0.1929 -0.1318
   20MOL0     C 2688   7.307   5.006   4.567  0.1580  0.2734 -1.2658
   20MOL0     C 2689   7.408   5.018   4.472 -0.3966 -0.6734 -0.0745
   20MOL0     C 2690   7.420   4.890   4.396  0.1645  0.6106 -0.2960
   20MOL0     H 2691   7.664   5.152   4.049 -0.3336 -1.7692 -0.6017
   20MOL0     H 2692   7.861   5.178   3.921  2.6031 -1.5843 -1.2677
   20MOL0     H 2693   8.229   4.968   4.016  2.4850  0.5895  4.5028
   20MOL0     H 2694   8.277   5.121   4.085  1.6640 -0.3516 -0.8101
   20MOL0     H 2695   8.236   5.051   3.785 -0.4132  0.7372  0.7244
   20MOL0     H 2696   8.262   5.214   3.849 -3.0891 -0.1651  2.7339
   20MOL0     H 2697   8.481   5.110   3.941 -1.3235 -0.7370  0.9833
   20MOL0     H 2698   8.426   4.959   3.852  0.1009 -0.5693 -1.0236
   20MOL0     H 2699   8.455   5.099   3.634  2.6147 -2.7370 -0.2563
   20MOL0     H 2700   8.514   5.234   3.731  2.5559 -0.4592 -2.8207
   20MOL0     H 2701   8.633   4.953   3.715 -2.0667 -0.6024  2.9709
   20MOL0     H 2702   8.682   5.068   3.825 -0.0475 -1.1810 -0.2545
   20MOL0     H 2703   8.696   5.147   3.534 -0.4113 -0.0723 -0.3205
   20MOL0     H 2704   8.748   5.239   3.679  0.9675 -1.2302  2.8544
   20MOL0     H 2705   8.863   4.959   3.610  1.6443  0.7604 -3.2735
   20MOL0     H 2706   8.909   5.070   3.738 -0.7033  1.0332  0.4521
   20MOL0     H 2707   8.941   5.143   3.441  1.2206 -2.2260 -0.6312
   20MOL0     H 2708   8.996   5.234   3.580  0.8511  1.2613 -4.7687
   20MOL0     H 2709   9.241   5.218   3.568 -3.2442  1.1923 -2.7330
   20MOL0     H 2710   9.474   4.913   3.645  3.5100  0.5809  0.3761
   20MOL0     H 2711   9.465   5.072   3.673 -0.0740 -0.2479 -0.7172
   20MOL0     H 2712   9.518   4.977   3.377  1.4021 -0.7217  0.4074
   20MOL0     H 2713   9.496   5.133   3.435 -2.7056 -1.6046 -1.2526
   20MOL0     H 2714   9.686   5.108   3.587 -1.0814 -2.9035  1.5595
   20MOL0     H 2715   9.702   4.932   3.555 -2.5873 -0.3742  3.4612
   20MOL0     H 2716   9.763   5.002   3.316 -0.3467  1.3353 -1.7512
   20MOL0     H 2717   9.761   5.165   3.381 -2.4708 -0.8631 -0.5990
   20MOL0     H 2718   9.917   5.256   3.288 -0.5377 -3.2253 -0.8075
   20MOL0     H 2719  10.023   5.449   3.203 -1.5110 -2.6530  2.2666
   20MOL0     H 2720  10.188   5.407   3.140 -0.0148 -1.0160  0.6999
   20MOL0     H 2721  10.166   5.512   3.281  0.8730  0.7891 -2.2864
   20MOL0     H 2722  10.504   5.578   3.568 -1.8533 -2.0842  0.4964
   20MOL0     H 2723  10.727   5.692   3.566  1.6473  0.6009 -2.4800
   20MOL0     H 2724  10.892   5.742   3.344  2.4272  2.8741 -0.8053
   20MOL0     H 2725  10.896   5.785   3.517  1.9642  1.6230 -0.0216
   20MOL0     H 2726  11.098   5.885   3.401 -0.6614 -0.1071 -0.5904
   20MOL0     H 2727  11.163   5.749   3.499 -1.1280  0.5169  0.9883
   20MOL0     H 2728  11.091   5.773   3.208 -1.0617 -1.1731  0.8765
   20MOL0     H 2729  11.144   5.622   3.280 -3.0357  0.0499 -2.3096
   20MOL0     H 2730  11.344   5.731   3.353  0.6251 -0.6200 -1.4711
   20MOL0     H 2731  11.299   5.887   3.265 -0.2634  0.7633  1.9613
   20MOL0     H 2732  11.461   5.739   3.145 -0.6229  4.2886 -0.0077
   20MOL0     H 2733  11.335   5.609   3.142  0.5635  0.1461 -0.2756
   20MOL0     H 2734  11.324   5.861   2.981  1.6816  0.1742  1.7044
   20MOL0     H 2735  11.183   5.753   3.015  0.3223 -0.8335  1.2185
   20MOL0     H 2736  11.449   5.682   2.877 -0.2938 -0.8580 -0.5369
   20MOL0     H 2737  11.300   5.725   2.805  1.5969  1.7218 -0.2188
   20MOL0     H 2738  11.347   5.483   2.992 -2.8864 -0.6626  0.3512
   20MOL0     H 2739  11.374   5.474   2.812 -0.3351 -0.9507  0.6941
   20MOL0     H 2740  10.897   5.347   3.366 -0.6522 -2.3130 -0.0074
   20MOL0     H 2741  10.670   5.235   3.385 -4.3163 -0.1045  2.0493
   20MOL0     H 2742  10.323   5.150   3.547 -2.8379  0.3545  2.3709
   20MOL0     H 2743  10.145   5.008   3.549  2.2544  1.6330  1.6852
   20MOL0     H 2744   8.099   4.954   4.199  0.7377  0.1537 -3.1907
   20MOL0     H 2745   7.918   4.960   4.356 -0.1771 -1.1736  0.0551
   20MOL0     H 2746   7.504   5.342   4.546  0.5160  1.2545  1.7531
   20MOL0     H 2747   7.338   5.316   4.706  2.5478  1.0819 -0.0016
   20MOL0     H 2748   7.040   5.065   4.615  2.6891 -1.2898 -0.9469
   20MOL0     H 2749   7.049   4.934   4.734 -2.6003  0.2771  1.1092
   20MOL0     H 2750   6.852   5.076   4.734 -0.2990 -0.6393 -0.1651
   20MOL0     H 2751   6.958   5.213   4.782  1.2044  0.0716 -1.8253
   20MOL0     H 2752   6.879   4.948   4.932 -0.4558 -0.1633  1.7204
   20MOL0     H 2753   7.029   5.027   4.978  0.4123 -1.2691 -0.4458
   20MOL0     H 2754   6.828   5.051   5.129  0.1648  4.0376  2.8446
   20MOL0     H 2755   6.730   5.114   5.001  0.5283 -2.2326 -0.1647
   20MOL0     H 2756   6.966   5.415   5.200 -0.7411  1.3603 -1.9288
   20MOL0     H 2757   7.257   4.912   4.583  0.4374  0.5693  2.3073
   20MOL0     H 2758   7.494   4.827   4.446 -2.7623 -0.5158  2.9541
   20MOL0     H 2759   7.330   4.830   4.386  1.1313 -0.8605 -0.5172
   20MOL0     H 2760   7.452   4.894   4.291 -0.5715  0.7025 -0.5199
   21MOL0     O 2761   0.581   8.557   0.068 -0.6629  0.0584  0.8508
   21MOL0     C 2762   0.462   8.580   0.086 -1.0431 -0.3253  0.4052
   21MOL0     O 2763   0.405   8.704   0.069 -0.4923  0.0835  0.3530
   21MOL0     C 2764   0.499   8.797   0.023 -0.0335  0.2992 -1.1591
   21MOL0     C 2765   0.520   8.822  -0.110  0.4419 -0.2528  1.0058
   21MOL0     C 2766   0.610   8.924  -0.149 -0.3917  0.0131 -0.7235
   21MOL0     C 2767   0.686   8.987  -0.053 -0.1824 -1.3013 -0.4178
   21MOL0     O 2768   0.779   9.078  -0.106 -0.9068 -0.1842  0.0008
   21MOL0     C 2769   0.826   9.189  -0.035  0.6529  0.7230  0.3992
   21MOL0     C 2770   0.949   9.257  -0.107  0.0494  0.5253  0.1264
   21MOL0     C 2771   0.993   9.393  -0.037 -0.6072 -0.8515 -0.6506
   21MOL0     C 2772   1.111   9.455  -0.106  0.3645  0.4418  0.2209
   21MOL0     C 2773   1.128   9.592  -0.058  0.1422 -0.0340 -0.2109
   21MOL0     C 2774   1.271   9.643  -0.059  0.8490 -0.1980 -0.0694
   21MOL0     C 2775   1.368   9.571   0.039 -0.1025  0.5668  0.3016
   21MOL0     C 2776   1.498   9.542  -0.024 -0.5886  0.2635  0.4908
   21MOL0     N 2777   1.574   9.657  -0.027 -0.2487 -0.3649 -0.5585
   21MOL0     C 2778   1.560   9.764  -0.120  0.1794  0.6678 -0.0498
   21MOL0     C 2779   1.678   9.829  -0.093 -0.6163  1.1909  0.6696
   21MOL0     C 2780   1.725   9.943  -0.175 -0.4845 -0.0721 -0.7044
   21MOL0     C 2781   1.832   9.912  -0.278  0.5018  0.3829 -0.2225
   21MOL0     C 2782   1.769   9.849  -0.404 -0.4946 -0.8692 -0.0288
   21MOL0     C 2783   1.870   9.835  -0.511  1.0657  0.5632  0.8156
   21MOL0     O 2784   1.940   9.951  -0.540  0.2278 -0.5641  0.5118
   21MOL0     C 2785   2.060   9.983  -0.488 -0.2953  0.1982 -0.5417
   21MOL0     C 2786   2.094  10.113  -0.512  0.7650  0.0311  0.0667
   21MOL0     C 2787   2.229  10.160  -0.485 -0.3303 -1.7845  0.6227
   21MOL0     C 2788   2.256  10.303  -0.516  0.0480  0.8557 -0.1644
   21MOL0     C 2789   2.326  10.086  -0.416 -0.2350  0.2604 -0.5922
   21MOL0     C 2790   2.463  10.127  -0.367  0.2166 -0.1321  0.8246
   21MOL0     O 2791   2.542  10.039  -0.296  0.7632  0.1356 -0.6530
   21MOL0     C 2792   2.670  10.072  -0.263  0.5102  0.1422 -0.1235
   21MOL0     C 2793   2.682  10.146  -0.140 -0.4505  0.7274  0.0597
   21MOL0     C 2794   2.814  10.181  -0.098  0.7100 -0.5763  1.0719
   21MOL0     C 2795   2.926  10.152  -0.180  0.0139 -0.4306 -0.0546
   21MOL0     O 2796   3.046  10.202  -0.150 -0.1508 -0.2396  0.0006
   21MOL0     C 2797   3.054  10.328  -0.100  0.0046 -1.1076 -0.2667
   21MOL0     C 2798   3.198  10.388  -0.118  0.2039 -0.1234  0.3420
   21MOL0     C 2799   3.309  10.289  -0.057  0.8748  0.1811 -0.2621
   21MOL0     C 2800   3.449  10.341  -0.095  1.0468 -0.1901 -0.2294
   21MOL0     C 2801   3.545  10.254  -0.029 -1.3532  0.7200 -0.7107
   21MOL0     C 2802   3.693  10.299  -0.039  0.6520  0.6197  0.6534
   21MOL0     C 2803   3.793  10.209   0.041 -0.1046  0.5612 -0.4119
   21MOL0     C 2804   3.935  10.241  -0.002  0.3048  0.3860 -0.5602
   21MOL0    Cl 2805   3.974  10.397   0.085  0.4042  0.1957  0.1043
   21MOL0     C 2806   2.911  10.055  -0.290 -0.5048 -0.3246 -0.1442
   21MOL0     C 2807   2.780  10.019  -0.333 -0.4734 -0.5346 -0.0716
   21MOL0     O 2808   2.490  10.243  -0.401  0.1801  0.6225  0.0349
   21MOL0     C 2809   2.281   9.952  -0.374 -0.1112 -0.9565 -0.1512
   21MOL0     C 2810   2.152   9.903  -0.408  0.5201 -0.0987  0.4596
   21MOL0     N 2811   1.754   9.780   0.015 -0.1280  0.0381 -0.0835
   21MOL0     N 2812   1.682   9.683   0.055 -0.3063  0.6713 -0.2123
   21MOL0     C 2813   0.667   8.955   0.084  0.7369 -0.7215  0.8100
   21MOL0     C 2814   0.578   8.862   0.120  0.2915  0.0755 -0.0508
   21MOL0     C 2815   0.383   8.461   0.133  0.1067  0.3259 -0.1589
   21MOL0     C 2816   0.449   8.335   0.136 -0.5851 -0.0904  0.3034
   21MOL0     C 2817   0.394   8.218   0.185 -1.0990 -0.7382  0.4962
   21MOL0     C 2818   0.264   8.213   0.231 -0.8595  0.0862 -0.9682
   21MOL0     O 2819   0.205   8.101   0.284 -0.1311  0.3074 -0.2280
   21MOL0     C 2820   0.271   7.972   0.295 -0.7044  0.6781  0.1280
   21MOL0     C 2821   0.365   7.975   0.412  0.0514 -0.3580  0.5019
   21MOL0     C 2822   0.290   8.005   0.540 -1.0426 -0.3443  0.3136
   21MOL0     C 2823   0.372   7.991   0.671  0.8244  1.1659  0.7892
   21MOL0     C 2824   0.460   7.869   0.662  0.4266  0.3791 -0.0020
   21MOL0     C 2825   0.526   7.763   0.657  0.5486 -0.6544 -0.0771
   21MOL0     C 2826   0.196   8.336   0.231  0.2612 -0.7398 -0.0326
   21MOL0     C 2827   0.247   8.463   0.188 -0.5165  0.5116  0.0447
   21MOL0     C 2828   0.171   8.593   0.215  0.5680  0.2674 -0.1645
   21MOL0     H 2829   0.454   8.766  -0.177  1.8905 -1.3885  0.4838
   21MOL0     H 2830   0.624   8.942  -0.255  3.3044 -0.6559 -0.4807
   21MOL0     H 2831   0.854   9.154   0.065  3.8056 -0.5906 -0.8281
   21MOL0     H 2832   0.741   9.259  -0.037 -2.3970 -2.6754 -1.6310
   21MOL0     H 2833   1.035   9.189  -0.104 -1.3149 -1.5680 -2.9235
   21MOL0     H 2834   0.933   9.277  -0.213  0.1271 -0.0130  0.0067
   21MOL0     H 2835   0.912   9.466  -0.039  0.6715  0.7488  1.3858
   21MOL0     H 2836   1.017   9.359   0.064 -1.3273 -1.6755 -0.7472
   21MOL0     H 2837   1.193   9.386  -0.087 -1.3841 -1.5155  1.0948
   21MOL0     H 2838   1.106   9.456  -0.216  2.1529 -0.4998  0.0865
   21MOL0     H 2839   1.094   9.609   0.045 -0.0896  1.7402 -0.5416
   21MOL0     H 2840   1.070   9.653  -0.128  0.4128 -1.6490 -1.9021
   21MOL0     H 2841   1.303   9.651  -0.164  1.4628 -0.8598  0.0589
   21MOL0     H 2842   1.276   9.744  -0.018  0.9894 -1.4149  3.2147
   21MOL0     H 2843   1.327   9.473   0.067  1.6311 -0.3068 -0.0617
   21MOL0     H 2844   1.395   9.638   0.121 -0.3318 -0.1900  1.0122
   21MOL0     H 2845   1.559   9.468   0.029  1.2607  1.4058  0.0363
   21MOL0     H 2846   1.471   9.510  -0.125 -0.6380 -1.7482  1.0823
   21MOL0     H 2847   1.485   9.783  -0.196 -0.4105  1.2465  0.6640
   21MOL0     H 2848   1.778  10.011  -0.108 -0.1143  0.0662 -1.1320
   21MOL0     H 2849   1.637   9.993  -0.215  0.7659  2.3496 -0.6276
   21MOL0     H 2850   1.885  10.003  -0.306  0.3448 -0.0689 -2.0879
   21MOL0     H 2851   1.906   9.841  -0.238 -3.2213 -3.0344  1.3001
   21MOL0     H 2852   1.733   9.748  -0.380  4.4788 -2.5897  1.5462
   21MOL0     H 2853   1.694   9.920  -0.441  1.0931  0.5620 -0.6067
   21MOL0     H 2854   1.931   9.746  -0.493 -0.3928 -0.7242 -0.3092
   21MOL0     H 2855   1.816   9.805  -0.602 -0.5025  1.7166  1.3149
   21MOL0     H 2856   2.013  10.167  -0.561 -0.8087 -1.0487  1.3502
   21MOL0     H 2857   2.175  10.348  -0.574  0.3595  0.7652 -0.6807
   21MOL0     H 2858   2.335  10.295  -0.592 -1.7511 -2.0172 -1.9300
   21MOL0     H 2859   2.277  10.364  -0.428  2.9372  0.9152 -0.7943
   21MOL0     H 2860   2.589  10.167  -0.088 -0.1481 -0.5053  1.1710
   21MOL0     H 2861   2.823  10.255  -0.019 -2.1900  1.1387 -0.0753
   21MOL0     H 2862   2.984  10.388  -0.159 -2.5574 -0.4129  3.1397
   21MOL0     H 2863   3.028  10.336   0.006  1.3491 -2.0952  0.1727
   21MOL0     H 2864   3.209  10.393  -0.227  0.4351 -1.2838  0.3032
   21MOL0     H 2865   3.216  10.486  -0.073  2.7049  0.2414 -1.2590
   21MOL0     H 2866   3.303  10.190  -0.103  0.0114  0.0193  0.1851
   21MOL0     H 2867   3.294  10.275   0.050  1.8716 -1.7330 -0.3164
   21MOL0     H 2868   3.458  10.445  -0.064  3.5639  0.2523 -2.1510
   21MOL0     H 2869   3.466  10.343  -0.203 -0.5475  3.0896 -0.5332
   21MOL0     H 2870   3.521  10.232   0.075  1.1636  0.6531 -0.0654
   21MOL0     H 2871   3.531  10.159  -0.081 -0.0027 -0.6403  1.2319
   21MOL0     H 2872   3.696  10.402  -0.002  0.6106  0.2619  1.6841
   21MOL0     H 2873   3.717  10.288  -0.145 -0.5116  0.9822  0.3293
   21MOL0     H 2874   3.769  10.106   0.016  0.8153 -0.2639  1.8445
   21MOL0     H 2875   3.774  10.223   0.148  0.4193  1.1800 -0.3933
   21MOL0     H 2876   3.957  10.244  -0.110 -0.4080 -2.7486 -0.8967
   21MOL0     H 2877   4.002  10.170   0.047 -2.9618 -1.9193  0.8734
   21MOL0     H 2878   3.006  10.030  -0.336  0.8474  5.2158 -1.0768
   21MOL0     H 2879   2.778   9.959  -0.424  1.1224  0.0253 -0.5090
   21MOL0     H 2880   2.350   9.897  -0.310  2.0126 -0.6293 -2.0148
   21MOL0     H 2881   2.129   9.801  -0.382 -2.7234  0.2706 -0.5031
   21MOL0     H 2882   0.710   9.020   0.159  0.4979  2.3561 -1.5316
   21MOL0     H 2883   0.533   8.849   0.218  0.4812 -2.3789 -0.2315
   21MOL0     H 2884   0.553   8.322   0.109 -0.4945 -3.8358  1.8599
   21MOL0     H 2885   0.463   8.134   0.181  0.8120  0.8156 -0.4450
   21MOL0     H 2886   0.200   7.892   0.320  1.6829 -1.2633  1.1525
   21MOL0     H 2887   0.311   7.942   0.198  0.4535  1.3037  0.3951
   21MOL0     H 2888   0.449   8.044   0.397 -0.8195  0.9641  1.5007
   21MOL0     H 2889   0.407   7.874   0.414 -2.5230 -1.4863  0.6274
   21MOL0     H 2890   0.264   8.112   0.535 -1.4863 -0.4780 -0.3231
   21MOL0     H 2891   0.198   7.946   0.530 -1.0279 -0.1388 -1.2244
   21MOL0     H 2892   0.317   7.969   0.763  0.6793 -2.1952  0.0468
   21MOL0     H 2893   0.434   8.081   0.674  3.7842 -0.6295 -1.3645
   21MOL0     H 2894   0.568   7.665   0.666 -2.7036 -2.2268 -0.2422
   21MOL0     H 2895   0.093   8.334   0.262  0.5638  0.4481  1.1264
   21MOL0     H 2896   0.219   8.660   0.286  1.6451 -0.4874 -0.1483
   21MOL0     H 2897   0.171   8.651   0.122 -2.0836  2.8059  1.2635
   21MOL0     H 2898   0.065   8.580   0.236  0.6692  0.2991  0.3656
   22MOL0     O 2899  10.186   5.916   1.136 -0.7386 -0.1738 -0.0996
   22MOL0     C 2900  10.095   5.920   1.213 -0.4982 -0.9581 -0.5300
   22MOL0     O 2901  10.093   5.861   1.335 -0.6458  0.1124  0.6994
   22MOL0     C 2902  10.201   5.787   1.371  0.6847  0.1729 -0.1754
   22MOL0     C 2903  10.334   5.839   1.373  0.4005 -0.2298 -0.5700
   22MOL0     C 2904  10.433   5.764   1.428  0.6090 -0.1258  0.1485
   22MOL0     C 2905  10.415   5.637   1.484 -0.9620 -0.0849  0.1333
   22MOL0     O 2906  10.518   5.563   1.526 -0.1663  1.0321  0.1369
   22MOL0     C 2907  10.647   5.610   1.497  1.1019  0.0651 -0.3839
   22MOL0     C 2908  10.744   5.504   1.545 -0.4449 -0.6750  0.2115
   22MOL0     C 2909  10.744   5.482   1.699 -0.7783  0.7386  0.1232
   22MOL0     C 2910  10.842   5.372   1.728 -0.2073  0.0152  0.3795
   22MOL0     C 2911  10.865   5.366   1.878  0.2390 -1.2608 -0.3422
   22MOL0     C 2912  10.977   5.469   1.916 -0.3240  0.0246  0.0305
   22MOL0     C 2913  11.017   5.479   2.064  0.3854  0.0107 -0.2978
   22MOL0     C 2914  11.140   5.571   2.072  0.6460  0.8110 -0.0718
   22MOL0     N 2915  11.256   5.514   2.006 -0.0268  0.2225  0.7327
   22MOL0     C 2916  11.352   5.442   2.055 -0.6011  1.4508 -0.0695
   22MOL0     C 2917  11.453   5.440   1.960  0.3279  0.5817  0.2553
   22MOL0     C 2918  11.576   5.361   1.958  0.3444 -0.9667  0.8416
   22MOL0     C 2919  11.688   5.436   2.020 -1.0372 -0.4843  0.3656
   22MOL0     C 2920  11.809   5.345   2.024 -0.5496  0.7522 -0.1343
   22MOL0     C 2921  11.937   5.405   2.095  0.0090  0.2143 -0.1073
   22MOL0     O 2922  11.964   5.539   2.042  0.2369 -0.8396  0.2443
   22MOL0     C 2923  12.074   5.609   2.084 -1.1719  0.2866 -0.2473
   22MOL0     C 2924  12.086   5.738   2.040 -0.1085  0.1174 -0.0390
   22MOL0     C 2925  12.187   5.824   2.079  0.4880 -1.1333  0.2953
   22MOL0     C 2926  12.181   5.967   2.036 -0.4699  0.2802  0.3582
   22MOL0     C 2927  12.280   5.776   2.177 -0.1678 -0.2229 -0.8633
   22MOL0     C 2928  12.399   5.850   2.228  0.4879  0.2730 -0.0393
   22MOL0     O 2929  12.416   5.846   2.368 -0.0459 -0.5046  0.7193
   22MOL0     C 2930  12.542   5.869   2.410  0.6395  0.0815  0.1934
   22MOL0     C 2931  12.577   5.963   2.501 -0.5722  0.1810 -1.4142
   22MOL0     C 2932  12.711   5.984   2.535 -0.5652  0.9188  0.7286
   22MOL0     C 2933  12.813   5.897   2.486  0.0129  0.1261 -0.4945
   22MOL0     O 2934  12.946   5.902   2.524  0.3019 -0.3172  0.0211
   22MOL0     C 2935  12.982   6.022   2.596 -0.6316 -0.5539  0.1717
   22MOL0     C 2936  13.128   6.009   2.642  1.1408  0.2942 -0.1809
   22MOL0     C 2937  13.225   6.043   2.525  1.1095 -1.2151  0.3268
   22MOL0     C 2938  13.371   6.035   2.568 -0.2612  0.5282 -0.6300
   22MOL0     C 2939  13.463   6.090   2.461  0.5303  0.5400  0.3990
   22MOL0     C 2940  13.612   6.091   2.507  0.0215  0.6630  0.5660
   22MOL0     C 2941  13.638   6.211   2.597  0.2502  0.2187  0.0895
   22MOL0     C 2942  13.777   6.232   2.657 -0.4669  0.3606 -0.0722
   22MOL0    Cl 2943  13.896   6.248   2.529  0.3520 -0.2624  0.2734
   22MOL0     C 2944  12.769   5.787   2.414  0.3167 -0.4651 -0.2709
   22MOL0     C 2945  12.639   5.775   2.371 -0.4073 -0.5176  0.5612
   22MOL0     O 2946  12.464   5.911   2.141 -0.7627  0.2334 -0.1140
   22MOL0     C 2947  12.264   5.650   2.229  0.8071  0.1362  0.1875
   22MOL0     C 2948  12.171   5.563   2.176 -0.3237 -0.0738  0.1139
   22MOL0     N 2949  11.412   5.520   1.860  0.6366  0.0724 -0.5345
   22MOL0     N 2950  11.291   5.565   1.884 -0.3143  0.4162 -0.4095
   22MOL0     C 2951  10.282   5.596   1.495 -0.0026 -0.0290 -0.2675
   22MOL0     C 2952  10.179   5.668   1.439 -0.1399 -0.4076  0.0671
   22MOL0     C 2953   9.975   5.986   1.152  0.5521 -0.2351  0.2731
   22MOL0     C 2954   9.984   6.069   1.037  0.1449  0.5545  0.0791
   22MOL0     C 2955   9.880   6.127   0.975 -0.0242 -0.8245  0.3007
   22MOL0     C 2956   9.751   6.096   1.016  0.5113  0.0728 -0.4336
   22MOL0     O 2957   9.635   6.158   0.958  0.3598 -0.1145  0.6355
   22MOL0     C 2958   9.627   6.208   0.819 -0.3415  0.6635 -0.9757
   22MOL0     C 2959   9.546   6.117   0.728 -0.3382  0.0347 -0.0087
   22MOL0     C 2960   9.400   6.107   0.766  0.3688 -0.2296 -0.2047
   22MOL0     C 2961   9.324   6.056   0.644 -0.2887 -0.1938 -0.1341
   22MOL0     C 2962   9.181   6.029   0.680 -0.6203 -0.1368  0.3878
   22MOL0     C 2963   9.071   6.010   0.732  0.2011  0.3212 -0.1825
   22MOL0     C 2964   9.736   6.018   1.131 -0.3322  0.1891 -0.7720
   22MOL0     C 2965   9.843   5.966   1.205 -0.7554  0.4265  0.4986
   22MOL0     C 2966   9.815   5.890   1.329 -0.1289  0.2422  0.4561
   22MOL0     H 2967  10.347   5.939   1.333 -3.4638  0.9318  0.6474
   22MOL0     H 2968  10.530   5.811   1.416  1.4233 -1.5687  0.8257
   22MOL0     H 2969  10.661   5.702   1.554  2.1805 -0.8392  0.8992
   22MOL0     H 2970  10.659   5.636   1.392  1.0488  0.8811 -0.1952
   22MOL0     H 2971  10.732   5.403   1.503  1.3087 -1.6031  1.7908
   22MOL0     H 2972  10.841   5.543   1.515  0.1837 -1.4771  1.1429
   22MOL0     H 2973  10.788   5.573   1.739 -1.2063  0.1126  2.1361
   22MOL0     H 2974  10.645   5.457   1.739 -1.2760 -0.1695 -1.5517
   22MOL0     H 2975  10.805   5.280   1.683 -1.3281  0.5109  0.2437
   22MOL0     H 2976  10.936   5.381   1.673 -1.7880  0.4417 -2.4246
   22MOL0     H 2977  10.891   5.267   1.916 -0.8121 -0.2248  3.4583
   22MOL0     H 2978  10.776   5.388   1.937  1.6064 -0.1687  1.4130
   22MOL0     H 2979  11.063   5.420   1.868 -1.4660 -2.0868  0.0153
   22MOL0     H 2980  10.948   5.566   1.874 -0.0919 -0.7415 -2.0134
   22MOL0     H 2981  11.046   5.383   2.105 -0.8889 -0.4191 -0.3559
   22MOL0     H 2982  10.928   5.510   2.119 -1.6199 -1.8017 -2.2801
   22MOL0     H 2983  11.104   5.662   2.022  2.9094  2.3355  0.9034
   22MOL0     H 2984  11.158   5.589   2.179  1.2202 -1.6431  0.2874
   22MOL0     H 2985  11.349   5.386   2.148  1.4539  0.0394 -0.7858
   22MOL0     H 2986  11.610   5.344   1.855  0.8006 -4.1734  1.4416
   22MOL0     H 2987  11.558   5.262   1.999 -0.2019 -2.1059 -1.9089
   22MOL0     H 2988  11.711   5.534   1.976 -2.3007 -0.3283  0.0020
   22MOL0     H 2989  11.658   5.453   2.124  0.1453 -0.5506  0.7325
   22MOL0     H 2990  11.787   5.249   2.072  5.9902 -2.6741 -2.7493
   22MOL0     H 2991  11.836   5.318   1.922  3.5697 -2.9844  1.5877
   22MOL0     H 2992  11.930   5.400   2.204  1.0639 -1.3543 -0.0802
   22MOL0     H 2993  12.029   5.348   2.075  0.6556  1.7414 -1.7605
   22MOL0     H 2994  12.007   5.776   1.976 -1.7813 -0.6104  1.4991
   22MOL0     H 2995  12.074   5.989   2.021 -0.9921 -3.0036 -1.7703
   22MOL0     H 2996  12.227   5.986   1.939 -0.8197  0.6389  0.2539
   22MOL0     H 2997  12.236   6.036   2.101  0.7203  1.0501 -1.4051
   22MOL0     H 2998  12.501   6.028   2.543 -1.2774 -2.3887  1.6842
   22MOL0     H 2999  12.736   6.054   2.615  0.1227 -1.9366  3.1835
   22MOL0     H 3000  12.962   6.114   2.540  0.7404  0.9517  1.9954
   22MOL0     H 3001  12.926   6.028   2.689 -3.5288 -1.5478 -1.3917
   22MOL0     H 3002  13.144   6.083   2.720 -0.5914 -1.2888  1.7762
   22MOL0     H 3003  13.135   5.910   2.687  1.2733  0.5076  0.2665
   22MOL0     H 3004  13.205   6.148   2.499  0.4020 -1.4476 -0.0673
   22MOL0     H 3005  13.211   5.981   2.436  1.4270 -1.1392  0.2193
   22MOL0     H 3006  13.388   5.927   2.573  0.3474  0.5831 -1.3818
   22MOL0     H 3007  13.386   6.075   2.669  0.0327  0.8415 -0.7956
   22MOL0     H 3008  13.448   6.022   2.376  3.4463  1.7882 -1.2697
   22MOL0     H 3009  13.427   6.190   2.433 -3.3424 -0.8877 -0.2778
   22MOL0     H 3010  13.671   6.100   2.415 -0.4671  0.6978  0.2477
   22MOL0     H 3011  13.632   6.000   2.565 -2.3420 -0.1038  0.2930
   22MOL0     H 3012  13.566   6.197   2.678 -0.4720 -2.6552 -0.9348
   22MOL0     H 3013  13.605   6.297   2.537 -0.3111  0.4549  0.7160
   22MOL0     H 3014  13.800   6.149   2.723 -1.0874  0.2722  0.0428
   22MOL0     H 3015  13.773   6.318   2.724 -2.4693 -1.3054  2.0911
   22MOL0     H 3016  12.846   5.714   2.391 -0.0693 -0.4622 -1.6534
   22MOL0     H 3017  12.604   5.699   2.302  0.2100 -1.2521  1.0317
   22MOL0     H 3018  12.330   5.620   2.311  0.2981  2.4429  1.5069
   22MOL0     H 3019  12.167   5.463   2.220  0.6148 -0.5187 -0.7722
   22MOL0     H 3020  10.238   5.512   1.548  0.3615  1.1958  2.1099
   22MOL0     H 3021  10.086   5.614   1.456 -0.1051 -0.1124  1.2715
   22MOL0     H 3022  10.079   6.089   0.989  0.7511 -0.0132  1.0014
   22MOL0     H 3023   9.896   6.194   0.891  0.8799 -0.2273  0.9272
   22MOL0     H 3024   9.576   6.304   0.807 -1.9813 -0.2201 -1.3546
   22MOL0     H 3025   9.729   6.215   0.778  0.4964 -1.1257  0.6771
   22MOL0     H 3026   9.590   6.017   0.732  0.5309  0.3780 -0.8170
   22MOL0     H 3027   9.547   6.156   0.626 -0.2890  1.2691  0.4435
   22MOL0     H 3028   9.401   6.034   0.847  0.9261  0.0363  0.0304
   22MOL0     H 3029   9.351   6.195   0.808  0.0684 -1.1365  1.4251
   22MOL0     H 3030   9.376   5.963   0.618 -1.0300 -0.6025 -0.1842
   22MOL0     H 3031   9.338   6.129   0.563  3.5022 -0.6427 -0.0538
   22MOL0     H 3032   8.979   5.982   0.781  0.7453  1.3389  1.5236
   22MOL0     H 3033   9.635   6.001   1.166 -1.6440  1.8858 -3.4744
   22MOL0     H 3034   9.708   5.881   1.350 -0.4205 -3.2164 -1.6719
   22MOL0     H 3035   9.848   5.786   1.328  2.1894  0.9265 -0.7187
   22MOL0     H 3036   9.871   5.954   1.398  0.3902  0.7027 -0.3789
   23MOL0     O 3037   3.873  10.194  10.277 -0.2654  0.0348  0.8516
   23MOL0     C 3038   3.820  10.178  10.165 -0.2878 -0.2146 -0.4986
   23MOL0     O 3039   3.878  10.206  10.039 -0.1714  0.0817  0.0559
   23MOL0     C 3040   3.974  10.304  10.043 -0.1295  0.3126  0.7611
   23MOL0     C 3041   3.958  10.425  10.112 -0.4409 -0.3660 -0.6668
   23MOL0     C 3042   4.064  10.514  10.131 -0.4402 -0.0662 -0.2664
   23MOL0     C 3043   4.184  10.502  10.058 -0.4665  0.3501  0.5755
   23MOL0     O 3044   4.290  10.588  10.070 -0.5758  0.1903  0.3647
   23MOL0     C 3045   4.421  10.528  10.078 -0.0328  0.0208  0.3462
   23MOL0     C 3046   4.534  10.622  10.135  0.8665  0.6824 -0.6111
   23MOL0     C 3047   4.667  10.556  10.111 -0.8042  0.4931 -0.1437
   23MOL0     C 3048   4.781  10.613  10.199  0.5772 -0.3700  0.3314
   23MOL0     C 3049   4.905  10.527  10.214 -0.3018  0.4286  0.2545
   23MOL0     C 3050   4.970  10.513  10.074  0.5327  0.9280  0.7850
   23MOL0     C 3051   5.110  10.461  10.098 -0.5557  0.1751  0.5097
   23MOL0     C 3052   5.208  10.570  10.131 -0.2211 -0.0421  0.0734
   23MOL0     N 3053   5.346  10.512  10.130 -0.4255  0.0549 -0.6612
   23MOL0     C 3054   5.418  10.501  10.020  0.5524  0.0630 -0.0415
   23MOL0     C 3055   5.544  10.471  10.053 -0.5899 -0.7856 -0.0711
   23MOL0     C 3056   5.657  10.449   9.953 -0.0352 -0.0944 -0.0190
   23MOL0     C 3057   5.754  10.573   9.952  0.2344  0.4469 -0.1960
   23MOL0     C 3058   5.822  10.560   9.818  0.2796 -0.5841  0.5028
   23MOL0     C 3059   5.937  10.659   9.806 -0.4121 -0.4533 -0.1157
   23MOL0     O 3060   6.015  10.653   9.924  0.4696 -0.4242  0.1648
   23MOL0     C 3061   6.146  10.608   9.910  0.6398  0.0352  0.9476
   23MOL0     C 3062   6.228  10.672   9.826  0.4343  0.1411  0.6559
   23MOL0     C 3063   6.364  10.645   9.816 -0.1488  0.4411  0.0401
   23MOL0     C 3064   6.444  10.736   9.716  0.6550  0.2858  0.4786
   23MOL0     C 3065   6.413  10.537   9.897  0.1193 -0.4303  0.0614
   23MOL0     C 3066   6.550  10.491   9.904  0.5803 -0.0952 -0.4359
   23MOL0     O 3067   6.569  10.371   9.965 -0.3941  0.3061 -0.0667
   23MOL0     C 3068   6.679  10.307   9.915  0.6002 -0.4072  0.6561
   23MOL0     C 3069   6.805  10.335   9.976  0.1663  0.0587 -0.5736
   23MOL0     C 3070   6.915  10.251   9.938 -0.4975  0.5038  0.0828
   23MOL0     C 3071   6.912  10.184   9.816 -1.0794 -0.0622 -0.7770
   23MOL0     O 3072   7.018  10.108   9.772 -0.3895  0.1912  0.5379
   23MOL0     C 3073   7.119  10.053   9.861 -0.0456 -1.0100  0.0990
   23MOL0     C 3074   7.186   9.928   9.797 -0.4149  0.1260 -0.3197
   23MOL0     C 3075   7.314   9.898   9.874  0.0127  0.9915 -0.4210
   23MOL0     C 3076   7.371   9.762   9.841  0.5500 -0.6641  0.4154
   23MOL0     C 3077   7.517   9.749   9.889  0.8869  0.1797 -0.6273
   23MOL0     C 3078   7.545   9.601   9.891  0.2834  0.1528  0.0273
   23MOL0     C 3079   7.689   9.564   9.898 -0.5269  0.2888 -0.4132
   23MOL0     C 3080   7.707   9.418   9.905 -0.9625  0.0455  0.2716
   23MOL0    Cl 3081   7.657   9.333   9.756 -0.1430  0.2844  0.4470
   23MOL0     C 3082   6.789  10.164   9.754 -0.0220 -1.0994  0.0578
   23MOL0     C 3083   6.671  10.224   9.804  0.0838 -0.3203 -0.1195
   23MOL0     O 3084   6.636  10.562   9.854 -0.4351 -0.2466 -0.9833
   23MOL0     C 3085   6.323  10.463   9.974  0.5996 -0.0679 -0.3050
   23MOL0     C 3086   6.190  10.511   9.991 -0.4509 -0.0220  0.1825
   23MOL0     N 3087   5.543  10.468  10.191  0.4787  0.4458 -0.5125
   23MOL0     N 3088   5.426  10.492  10.234  0.2261  0.5317 -0.8602
   23MOL0     C 3089   4.187  10.395   9.964  0.2017 -0.2018  0.3591
   23MOL0     C 3090   4.086  10.301   9.961 -0.5636  0.2937 -0.6831
   23MOL0     C 3091   3.672  10.159  10.180 -0.5331  0.4544  0.4914
   23MOL0     C 3092   3.584  10.215  10.078 -0.1338 -0.4134  0.3090
   23MOL0     C 3093   3.444  10.201  10.079 -0.4875  1.0104  0.2128
   23MOL0     C 3094   3.392  10.112  10.167  0.5141 -0.1953 -0.5194
   23MOL0     O 3095   3.256  10.083  10.140 -1.1462  0.1999 -0.0832
   23MOL0     C 3096   3.185   9.999  10.232  0.5065 -0.3674  0.4447
   23MOL0     C 3097   3.036   9.988  10.193  0.3348  0.0678 -1.1298
   23MOL0     C 3098   2.949  10.108  10.190 -0.2403  0.1504 -0.3419
   23MOL0     C 3099   2.794  10.083  10.189 -0.2292  0.0682 -0.5459
   23MOL0     C 3100   2.724  10.212  10.209 -0.5682 -0.4949 -0.5013
   23MOL0     C 3101   2.684  10.320  10.247  0.0250 -0.4726  0.1752
   23MOL0     C 3102   3.475  10.062  10.268  1.9269 -0.3810  0.0646
   23MOL0     C 3103   3.607  10.087  10.284  0.5217 -0.0932  0.6327
   23MOL0     C 3104   3.673  10.035  10.408  1.2609  0.4025 -0.6810
   23MOL0     H 3105   3.872  10.433  10.177 -0.8463 -3.0641 -0.7676
   23MOL0     H 3106   4.053  10.596  10.201  1.7339  1.7452 -1.9084
   23MOL0     H 3107   4.452  10.518   9.973  0.2970  1.7394  0.2599
   23MOL0     H 3108   4.415  10.431  10.129 -1.9102 -0.5189 -0.8238
   23MOL0     H 3109   4.534  10.714  10.076  1.6410 -0.0099 -1.7208
   23MOL0     H 3110   4.528  10.640  10.243  2.0338  1.3414 -0.6430
   23MOL0     H 3111   4.664  10.449  10.133 -1.9331  1.2323  4.2238
   23MOL0     H 3112   4.693  10.580  10.008  1.9052 -0.5957  0.2147
   23MOL0     H 3113   4.802  10.710  10.151 -2.0022 -1.3229 -3.1609
   23MOL0     H 3114   4.739  10.643  10.295 -1.6939  1.3419 -1.0653
   23MOL0     H 3115   4.886  10.432  10.264  0.3471 -0.0955 -0.4545
   23MOL0     H 3116   4.971  10.585  10.279 -0.1665  0.5970 -0.0292
   23MOL0     H 3117   4.905  10.444  10.019  1.3434  0.9216 -0.1906
   23MOL0     H 3118   4.976  10.602  10.011 -0.5177 -1.1283 -2.4915
   23MOL0     H 3119   5.147  10.413  10.007 -1.3523  0.5987 -0.0447
   23MOL0     H 3120   5.120  10.382  10.174  1.8388  2.5419  2.8772
   23MOL0     H 3121   5.207  10.657  10.065  0.0316  0.2712  0.4759
   23MOL0     H 3122   5.185  10.604  10.232  0.8918  0.0593  0.3075
   23MOL0     H 3123   5.378  10.520   9.921 -0.2999  0.8956  0.4350
   23MOL0     H 3124   5.614  10.431   9.854 -2.3844 -0.5176  0.9997
   23MOL0     H 3125   5.715  10.364   9.988 -0.4727 -1.1090 -1.6388
   23MOL0     H 3126   5.689  10.661   9.958 -0.1576  0.2457 -1.2621
   23MOL0     H 3127   5.823  10.569  10.037  1.7496 -0.9505 -1.4468
   23MOL0     H 3128   5.859  10.458   9.803 -0.2975 -0.4489 -2.3872
   23MOL0     H 3129   5.749  10.580   9.740 -0.2942 -0.6759  1.0046
   23MOL0     H 3130   5.998  10.653   9.715 -1.2341 -3.2042 -0.5616
   23MOL0     H 3131   5.899  10.761   9.788  0.1711 -0.3295 -0.7058
   23MOL0     H 3132   6.191  10.755   9.766  4.9147  1.3794 -0.7256
   23MOL0     H 3133   6.463  10.674   9.628 -1.3054  2.1305 -1.3837
   23MOL0     H 3134   6.534  10.769   9.768  0.7572  0.9986 -0.1321
   23MOL0     H 3135   6.390  10.827   9.686  1.0734  1.1969  2.3411
   23MOL0     H 3136   6.813  10.413  10.051 -0.4735  1.4748 -1.9156
   23MOL0     H 3137   7.012  10.252   9.987 -0.5832 -2.2829  0.4963
   23MOL0     H 3138   7.196  10.130   9.873  0.1369 -1.0533 -0.7517
   23MOL0     H 3139   7.073  10.028   9.957  0.5257 -0.0963  0.6242
   23MOL0     H 3140   7.115   9.845   9.805 -1.1961  0.9593  3.2815
   23MOL0     H 3141   7.212   9.946   9.692 -0.5034  0.3212 -0.3082
   23MOL0     H 3142   7.300   9.896   9.983 -0.0667 -2.2765 -0.3900
   23MOL0     H 3143   7.395   9.971   9.859 -0.2489  1.3991  0.0916
   23MOL0     H 3144   7.368   9.742   9.734  1.9478  0.8468  0.0572
   23MOL0     H 3145   7.313   9.680   9.885 -0.5053 -0.2749 -0.2133
   23MOL0     H 3146   7.589   9.812   9.836  0.9220  2.9787  2.3861
   23MOL0     H 3147   7.519   9.786   9.992  4.3546 -1.2752 -0.0301
   23MOL0     H 3148   7.499   9.566   9.798 -1.0090 -0.9209  1.0300
   23MOL0     H 3149   7.484   9.558   9.970 -0.7905  3.1358  0.9486
   23MOL0     H 3150   7.744   9.603   9.984  1.0585  0.4781 -1.4630
   23MOL0     H 3151   7.737   9.603   9.807 -2.4257  0.2398 -1.4987
   23MOL0     H 3152   7.653   9.382   9.993  0.5453  0.4443  1.3965
   23MOL0     H 3153   7.813   9.400   9.924 -0.8740  1.3188  1.1171
   23MOL0     H 3154   6.778  10.100   9.667 -1.9581 -1.3034  0.4265
   23MOL0     H 3155   6.574  10.203   9.760  0.5490  2.4702 -2.9007
   23MOL0     H 3156   6.351  10.368  10.020  0.7326 -0.4062 -1.0708
   23MOL0     H 3157   6.124  10.458  10.059  0.6364 -0.8918  0.5973
   23MOL0     H 3158   4.274  10.375   9.902 -0.5008 -0.1248 -0.6637
   23MOL0     H 3159   4.095  10.209   9.904 -0.4370  0.3615 -0.7720
   23MOL0     H 3160   3.631  10.280  10.006  0.1093 -0.4741  0.4109
   23MOL0     H 3161   3.392  10.243   9.994  1.4917  3.1608 -0.0264
   23MOL0     H 3162   3.216   9.895  10.225 -3.6733 -1.9036  1.4720
   23MOL0     H 3163   3.194  10.025  10.338  1.7875 -1.9162  0.7468
   23MOL0     H 3164   3.005   9.915  10.269  1.1748  0.7969 -0.0360
   23MOL0     H 3165   3.020   9.940  10.096 -0.9237 -1.8029 -0.0726
   23MOL0     H 3166   2.976  10.163  10.281 -1.2592 -1.9711  1.3039
   23MOL0     H 3167   2.976  10.169  10.103  1.4563  0.1632  0.1593
   23MOL0     H 3168   2.772  10.024  10.278  0.5707  1.0509  0.3290
   23MOL0     H 3169   2.773  10.038  10.091 -0.7820  1.1943 -0.9682
   23MOL0     H 3170   2.661  10.419  10.280 -2.0799 -1.8300  3.2029
   23MOL0     H 3171   3.431   9.979  10.323 -1.0721 -0.5540 -2.2820
   23MOL0     H 3172   3.767   9.989  10.377  1.8087  1.9034 -1.3493
   23MOL0     H 3173   3.687  10.108  10.489 -2.7648 -0.3889  0.9924
   23MOL0     H 3174   3.612   9.955  10.451  1.2972 -0.5621 -2.3636
   24MOL0     O 3175   8.485   0.335   8.946 -0.0202 -0.6470  0.0856
   24MOL0     C 3176   8.532   0.388   9.047 -0.4874 -0.7000 -0.5320
   24MOL0     O 3177   8.654   0.435   9.058  0.1920 -0.5882 -0.0149
   24MOL0     C 3178   8.732   0.479   8.955 -0.0921  0.4474 -0.3658
   24MOL0     C 3179   8.875   0.473   8.963  0.5573  0.5663 -0.4737
   24MOL0     C 3180   8.958   0.522   8.855 -0.6993  0.8903 -0.4894
   24MOL0     C 3181   8.904   0.572   8.741  0.3040  0.8488 -0.7216
   24MOL0     O 3182   8.969   0.626   8.630 -0.0202  0.4450 -0.1765
   24MOL0     C 3183   9.110   0.586   8.611  0.5689  0.1866 -0.6990
   24MOL0     C 3184   9.197   0.696   8.678  0.1429  0.1075  0.3862
   24MOL0     C 3185   9.182   0.835   8.603  0.3794  0.0142 -0.2947
   24MOL0     C 3186   9.294   0.929   8.659 -0.3264  0.5079  0.0854
   24MOL0     C 3187   9.292   1.052   8.567 -0.0455  0.2442 -0.2126
   24MOL0     C 3188   9.400   1.148   8.601  0.0765 -0.0904  0.1387
   24MOL0     C 3189   9.404   1.261   8.504 -0.4122 -0.2392  0.9465
   24MOL0     C 3190   9.450   1.400   8.547  0.2449  0.2542 -0.1307
   24MOL0     N 3191   9.589   1.402   8.597  0.6690 -0.3905 -0.4109
   24MOL0     C 3192   9.694   1.337   8.536 -0.0189 -0.3317 -0.2592
   24MOL0     C 3193   9.805   1.372   8.602  0.4062 -0.2381 -0.0236
   24MOL0     C 3194   9.945   1.339   8.588  0.0549 -0.3858 -0.4112
   24MOL0     C 3195  10.042   1.412   8.678  0.9170  0.0873 -1.6073
   24MOL0     C 3196  10.058   1.549   8.620 -0.3373 -1.2828  0.0966
   24MOL0     C 3197  10.180   1.629   8.671 -0.5231 -0.2374 -0.8829
   24MOL0     O 3198  10.300   1.557   8.634  0.3026 -0.0898  0.0370
   24MOL0     C 3199  10.412   1.595   8.691 -0.0747  0.4241  0.0341
   24MOL0     C 3200  10.531   1.536   8.650  0.9461  0.9542  1.0487
   24MOL0     C 3201  10.658   1.566   8.704 -0.1757 -0.2333 -0.2006
   24MOL0     C 3202  10.773   1.498   8.636 -0.4402  0.1398  0.3519
   24MOL0     C 3203  10.665   1.651   8.808 -0.6925 -0.2535 -0.5726
   24MOL0     C 3204  10.783   1.677   8.893  0.3554  0.2217  0.2027
   24MOL0     O 3205  10.768   1.768   8.991 -0.6868 -0.1861  0.0594
   24MOL0     C 3206  10.879   1.828   9.053 -0.2235  0.1064 -0.7182
   24MOL0     C 3207  10.870   1.875   9.182  0.0128  0.0672 -0.0572
   24MOL0     C 3208  10.987   1.939   9.235 -0.2451 -0.1937  0.2622
   24MOL0     C 3209  11.105   1.961   9.158  0.6753  0.6208 -0.3885
   24MOL0     O 3210  11.210   2.027   9.215  0.1287 -0.0674 -0.0881
   24MOL0     C 3211  11.256   2.141   9.151 -1.0164 -0.5911 -0.2482
   24MOL0     C 3212  11.381   2.191   9.226  0.5462 -0.3364  0.5458
   24MOL0     C 3213  11.437   2.315   9.160 -0.0101  0.5680 -0.2645
   24MOL0     C 3214  11.525   2.269   9.041  0.4049  0.3776  0.5945
   24MOL0     C 3215  11.604   2.381   8.971  0.6287 -1.1357  0.1119
   24MOL0     C 3216  11.511   2.487   8.920 -0.1783  0.0244  0.3050
   24MOL0     C 3217  11.596   2.596   8.843  0.1205  0.3286  0.1858
   24MOL0     C 3218  11.653   2.546   8.710  0.0184 -0.8096  0.4345
   24MOL0    Cl 3219  11.543   2.466   8.593 -0.3658  0.2231  0.2912
   24MOL0     C 3220  11.111   1.911   9.028 -0.4176 -0.8084  1.0950
   24MOL0     C 3221  11.004   1.841   8.979 -0.0547  0.2030  0.5387
   24MOL0     O 3222  10.888   1.622   8.861 -0.6094  0.5285 -0.4756
   24MOL0     C 3223  10.540   1.710   8.854  0.1120  0.0629  0.5919
   24MOL0     C 3224  10.422   1.682   8.796  0.6126  0.0639 -0.2605
   24MOL0     N 3225   9.761   1.449   8.708 -0.7538 -0.5294 -0.3044
   24MOL0     N 3226   9.634   1.471   8.705 -0.0303  0.8126  0.1308
   24MOL0     C 3227   8.768   0.586   8.741  0.1526  0.1493  1.2040
   24MOL0     C 3228   8.682   0.546   8.841 -0.6242  0.1873  0.0953
   24MOL0     C 3229   8.435   0.418   9.157 -0.3229 -0.1111  0.5561
   24MOL0     C 3230   8.480   0.462   9.282 -0.5641  0.4437 -0.4885
   24MOL0     C 3231   8.398   0.482   9.390 -0.5428  0.9916  0.1333
   24MOL0     C 3232   8.265   0.474   9.377  0.4941  0.5810 -0.2470
   24MOL0     O 3233   8.178   0.481   9.482  0.1129 -0.1183  0.0761
   24MOL0     C 3234   8.034   0.477   9.461  0.1647  0.1239  0.3221
   24MOL0     C 3235   7.973   0.499   9.603  0.2784  1.0001  0.1848
   24MOL0     C 3236   7.820   0.484   9.592  0.1572 -0.0372 -0.4694
   24MOL0     C 3237   7.749   0.523   9.723  0.9108 -0.4664  0.2687
   24MOL0     C 3238   7.603   0.499   9.720  0.0318  1.0673  1.0388
   24MOL0     C 3239   7.481   0.474   9.700 -0.1475  0.7033 -0.8030
   24MOL0     C 3240   8.220   0.443   9.247  0.3075 -0.3881  0.2109
   24MOL0     C 3241   8.294   0.417   9.135 -0.4945 -0.1582 -0.1003
   24MOL0     C 3242   8.226   0.391   9.000  0.3831  1.1242  0.4145
   24MOL0     H 3243   8.921   0.419   9.046 -0.4109 -0.1046 -0.3591
   24MOL0     H 3244   9.065   0.525   8.873 -0.4270  2.1488 -2.1361
   24MOL0     H 3245   9.131   0.574   8.504  2.4811 -1.7114 -0.1755
   24MOL0     H 3246   9.128   0.487   8.653  3.4731  1.1229  0.4827
   24MOL0     H 3247   9.184   0.699   8.787  1.3160  1.4876  0.5210
   24MOL0     H 3248   9.302   0.667   8.669 -0.0353 -1.0306  1.6930
   24MOL0     H 3249   9.188   0.833   8.494  1.4711  2.8534 -0.3646
   24MOL0     H 3250   9.089   0.882   8.636  1.8014  2.1993  0.8932
   24MOL0     H 3251   9.269   0.967   8.759 -0.9490  5.1500 -1.5868
   24MOL0     H 3252   9.395   0.888   8.663 -0.4054  0.3408  0.4817
   24MOL0     H 3253   9.193   1.095   8.586 -1.2960 -1.3942 -2.5694
   24MOL0     H 3254   9.300   1.032   8.460  0.7894  0.6184 -0.2306
   24MOL0     H 3255   9.378   1.177   8.705  0.2086 -0.6652  0.3325
   24MOL0     H 3256   9.495   1.095   8.597 -0.8490 -1.9516  1.1302
   24MOL0     H 3257   9.304   1.274   8.462  0.0884  1.5261  0.2090
   24MOL0     H 3258   9.468   1.238   8.419 -2.4380  1.1686 -1.0746
   24MOL0     H 3259   9.434   1.467   8.462 -1.2616 -1.3870 -1.2272
   24MOL0     H 3260   9.381   1.432   8.625 -1.3894 -2.3769 -0.3587
   24MOL0     H 3261   9.688   1.251   8.470 -4.4226  0.6049 -1.3855
   24MOL0     H 3262   9.972   1.355   8.483 -1.1024  1.3716 -0.4822
   24MOL0     H 3263   9.958   1.232   8.606 -0.9126 -0.5560 -0.7059
   24MOL0     H 3264  10.005   1.417   8.780  0.0517 -0.5560 -1.8742
   24MOL0     H 3265  10.128   1.347   8.693 -2.2754 -4.2596 -0.2726
   24MOL0     H 3266  10.068   1.540   8.512 -0.7082 -2.1952  0.1298
   24MOL0     H 3267   9.968   1.609   8.636  0.8125  0.4538  0.3156
   24MOL0     H 3268  10.172   1.733   8.636  0.5053  0.4199  0.7124
   24MOL0     H 3269  10.171   1.632   8.780 -1.2194  0.2154 -0.9445
   24MOL0     H 3270  10.522   1.473   8.561 -0.3866  1.5239  0.7565
   24MOL0     H 3271  10.756   1.467   8.533 -2.3685  3.6770 -0.5426
   24MOL0     H 3272  10.801   1.407   8.691 -1.8597 -0.2082  0.5543
   24MOL0     H 3273  10.862   1.561   8.629  0.8076 -1.3577  1.7796
   24MOL0     H 3274  10.777   1.876   9.238  0.0701  1.1880  0.0430
   24MOL0     H 3275  10.991   1.982   9.334  0.1047  0.5451 -0.0711
   24MOL0     H 3276  11.284   2.116   9.048 -0.1201  1.8587 -0.6901
   24MOL0     H 3277  11.190   2.228   9.151  3.3314  3.0901  0.9633
   24MOL0     H 3278  11.354   2.218   9.329  1.8297  0.9830  0.5606
   24MOL0     H 3279  11.457   2.112   9.228  1.1742  0.2663  1.7763
   24MOL0     H 3280  11.502   2.369   9.231 -0.6685 -1.7507  2.2644
   24MOL0     H 3281  11.356   2.382   9.131  0.2922  3.6217  4.6811
   24MOL0     H 3282  11.471   2.226   8.956  0.8786  0.5566  0.1966
   24MOL0     H 3283  11.596   2.190   9.070 -0.0873 -0.0416  0.6747
   24MOL0     H 3284  11.683   2.417   9.037  1.2663  1.4909 -1.9501
   24MOL0     H 3285  11.667   2.330   8.897 -1.8478 -1.9394 -1.5901
   24MOL0     H 3286  11.453   2.538   8.997  0.0654 -3.0595  2.7442
   24MOL0     H 3287  11.435   2.430   8.866  1.4874  0.0201 -2.2043
   24MOL0     H 3288  11.687   2.624   8.896  1.6848 -0.6714 -1.8419
   24MOL0     H 3289  11.532   2.682   8.821 -2.2611 -1.3631  0.0020
   24MOL0     H 3290  11.726   2.468   8.734 -0.7626 -1.0328  2.2436
   24MOL0     H 3291  11.713   2.629   8.671  0.7480 -0.9598  1.2051
   24MOL0     H 3292  11.202   1.924   8.971  0.6219 -0.7806  2.6736
   24MOL0     H 3293  11.014   1.800   8.879  0.1049  3.7577 -1.0538
   24MOL0     H 3294  10.525   1.769   8.944 -1.7676 -1.7643  1.5758
   24MOL0     H 3295  10.330   1.726   8.833  0.2921 -1.0046  0.2632
   24MOL0     H 3296   8.718   0.641   8.662 -1.2358  1.7925  3.1083
   24MOL0     H 3297   8.575   0.553   8.822 -0.1669  1.0123 -2.5055
   24MOL0     H 3298   8.588   0.463   9.288 -0.4778  1.2630 -1.8355
   24MOL0     H 3299   8.448   0.505   9.483 -0.0998  0.5548  0.0109
   24MOL0     H 3300   8.004   0.562   9.400  1.4758 -0.5074 -1.2607
   24MOL0     H 3301   7.996   0.388   9.412  0.2562  0.7613 -0.9582
   24MOL0     H 3302   8.009   0.595   9.641  1.4271  0.9564 -0.7370
   24MOL0     H 3303   8.006   0.415   9.665 -0.5487  0.0364 -0.6398
   24MOL0     H 3304   7.777   0.546   9.514 -3.2004 -0.8009  0.5998
   24MOL0     H 3305   7.792   0.379   9.575 -1.4191  0.0414  1.2826
   24MOL0     H 3306   7.771   0.626   9.750  1.4298 -0.6389  0.5106
   24MOL0     H 3307   7.785   0.451   9.798  0.3759 -0.3185  0.6750
   24MOL0     H 3308   7.380   0.444   9.682 -0.6673 -0.6188  3.2795
   24MOL0     H 3309   8.114   0.428   9.232  0.0156  1.1950  0.5452
   24MOL0     H 3310   8.249   0.287   8.971 -0.5151  1.7812 -3.0549
   24MOL0     H 3311   8.120   0.417   9.001  0.6353  2.2010  1.0725
   24MOL0     H 3312   8.276   0.445   8.920 -2.3441  1.1176 -1.4127
   25MOL0     O 3313  10.715   8.040   3.615 -0.0188 -1.0462  0.5306
   25MOL0     C 3314  10.642   8.136   3.611 -0.6920  0.1072 -0.5312
   25MOL0     O 3315  10.679   8.257   3.581  0.7264 -0.0687 -0.5622
   25MOL0     C 3316  10.805   8.291   3.538 -0.1087  0.3701 -0.2610
   25MOL0     C 3317  10.826   8.332   3.402 -0.0241 -0.4342 -0.5614
   25MOL0     C 3318  10.956   8.351   3.354  0.9787 -0.0134 -0.3560
   25MOL0     C 3319  11.067   8.331   3.433 -0.0517 -0.2178  0.1751
   25MOL0     O 3320  11.195   8.352   3.380 -0.1918 -0.1856  0.3572
   25MOL0     C 3321  11.221   8.470   3.297  0.1326  0.1143  0.5065
   25MOL0     C 3322  11.342   8.537   3.352  0.0530  0.3252  0.0809
   25MOL0     C 3323  11.473   8.463   3.321 -0.0469 -0.4676 -0.2280
   25MOL0     C 3324  11.593   8.526   3.399 -0.5686  0.9401 -0.2569
   25MOL0     C 3325  11.732   8.485   3.351 -0.3891 -0.6459  0.3128
   25MOL0     C 3326  11.843   8.573   3.415 -0.8378 -0.4651  0.2899
   25MOL0     C 3327  11.987   8.519   3.399  0.2523 -0.0376 -0.5813
   25MOL0     C 3328  12.043   8.533   3.259 -1.0593  1.1653  0.0006
   25MOL0     N 3329  12.083   8.675   3.224 -0.2966  0.6528  0.5976
   25MOL0     C 3330  12.161   8.753   3.308  0.1079 -0.1434  0.4145
   25MOL0     C 3331  12.142   8.878   3.262 -0.5739  0.6813  0.0246
   25MOL0     C 3332  12.208   9.007   3.308  0.4568  0.6526 -0.1836
   25MOL0     C 3333  12.343   8.985   3.364 -0.4801 -0.0793  0.2701
   25MOL0     C 3334  12.449   8.955   3.251 -0.1835 -0.0492 -0.4190
   25MOL0     C 3335  12.469   9.067   3.145 -0.9616 -0.4406  0.7431
   25MOL0     O 3336  12.519   9.003   3.018 -0.6132  0.2114 -0.2431
   25MOL0     C 3337  12.548   9.088   2.914 -0.3344 -0.0595  0.9419
   25MOL0     C 3338  12.602   9.024   2.800  0.8019 -0.4524  0.5639
   25MOL0     C 3339  12.666   9.103   2.697 -0.0730 -0.2895  0.2781
   25MOL0     C 3340  12.733   9.021   2.599 -0.6387 -1.3819  0.1046
   25MOL0     C 3341  12.672   9.242   2.712 -0.3840  0.6240 -1.2960
   25MOL0     C 3342  12.746   9.333   2.631  0.0699 -0.1307 -0.8741
   25MOL0     O 3343  12.697   9.464   2.608 -0.1578 -0.2009 -0.8919
   25MOL0     C 3344  12.775   9.555   2.543 -0.3642 -0.3296  0.1036
   25MOL0     C 3345  12.900   9.598   2.579 -0.9787 -0.3243  1.2063
   25MOL0     C 3346  12.958   9.702   2.501  0.4081  0.1631 -0.5670
   25MOL0     C 3347  12.895   9.752   2.388 -0.3592  0.6071 -0.2831
   25MOL0     O 3348  12.959   9.841   2.307 -0.5032 -0.3392 -0.4116
   25MOL0     C 3349  12.892   9.888   2.188  0.3675  0.0949 -0.4456
   25MOL0     C 3350  12.969   9.999   2.122 -0.0280 -0.2028 -0.6947
   25MOL0     C 3351  13.008  10.126   2.209 -0.1696 -0.4170  1.0165
   25MOL0     C 3352  13.065  10.235   2.116 -0.5167 -0.1081  0.2440
   25MOL0     C 3353  13.096  10.360   2.194  0.1596  0.4410 -0.1588
   25MOL0     C 3354  13.170  10.469   2.120  0.0582  0.1352  0.6119
   25MOL0     C 3355  13.131  10.593   2.197  0.1330  0.0213  0.5089
   25MOL0     C 3356  13.226  10.707   2.157  0.8897 -0.2200 -0.1674
   25MOL0    Cl 3357  13.399  10.672   2.169 -0.1690  0.3568  0.1648
   25MOL0     C 3358  12.767   9.709   2.362  0.0776 -0.0298  0.3013
   25MOL0     C 3359  12.705   9.609   2.438 -0.2868 -1.0845  0.9331
   25MOL0     O 3360  12.852   9.293   2.589 -1.3840 -0.3164 -0.3547
   25MOL0     C 3361  12.613   9.302   2.821  1.2225 -0.1063  0.7049
   25MOL0     C 3362  12.548   9.226   2.918 -0.3065  0.6141 -0.0068
   25MOL0     N 3363  12.038   8.874   3.170 -0.5638  0.1363  0.1447
   25MOL0     N 3364  12.012   8.750   3.133 -0.0579 -0.4208 -0.8979
   25MOL0     C 3365  11.057   8.290   3.571  0.4950 -0.2380 -0.1191
   25MOL0     C 3366  10.922   8.270   3.617  0.2037  0.7802 -0.2075
   25MOL0     C 3367  10.510   8.106   3.679  0.4071 -0.5709 -0.3310
   25MOL0     C 3368  10.499   7.989   3.758  0.0291 -0.2642  0.3113
   25MOL0     C 3369  10.385   7.965   3.844  0.3972 -0.4497 -0.6670
   25MOL0     C 3370  10.288   8.068   3.859 -0.5452  0.2821 -1.3038
   25MOL0     O 3371  10.188   8.050   3.950 -0.2837  0.0338  0.1266
   25MOL0     C 3372  10.084   8.155   3.966 -0.2227  0.7351  1.1680
   25MOL0     C 3373   9.985   8.117   4.073  1.3734  0.3400  0.1438
   25MOL0     C 3374   9.900   7.985   4.031  0.6403  0.2448  0.3004
   25MOL0     C 3375   9.779   7.962   4.122  0.2213 -0.3805  0.6107
   25MOL0     C 3376   9.825   7.921   4.255 -0.0283  1.0084 -0.8054
   25MOL0     C 3377   9.873   7.895   4.363 -0.8568 -0.2981  0.2171
   25MOL0     C 3378  10.304   8.183   3.786 -0.3288 -0.7655  0.3198
   25MOL0     C 3379  10.410   8.202   3.697  1.7707  0.4047 -0.2518
   25MOL0     C 3380  10.410   8.338   3.631  0.4441 -0.6148  0.5849
   25MOL0     H 3381  10.741   8.350   3.338  1.6443 -1.2021 -3.1319
   25MOL0     H 3382  10.975   8.375   3.250  1.0699 -1.0728 -0.5901
   25MOL0     H 3383  11.134   8.535   3.301 -1.8892 -2.2419 -1.6118
   25MOL0     H 3384  11.239   8.451   3.191  2.2196  0.4222  0.7637
   25MOL0     H 3385  11.344   8.635   3.304  2.4355 -0.3248 -1.3221
   25MOL0     H 3386  11.330   8.552   3.460 -0.4272  0.1430  0.0543
   25MOL0     H 3387  11.475   8.355   3.333  2.4734 -0.4051  0.4424
   25MOL0     H 3388  11.503   8.485   3.218 -0.1216 -0.8208 -0.3243
   25MOL0     H 3389  11.586   8.635   3.392 -1.9258  1.0218  1.5724
   25MOL0     H 3390  11.593   8.498   3.505 -0.5067  2.0129  0.0342
   25MOL0     H 3391  11.738   8.492   3.242 -2.9896  3.5362  0.2126
   25MOL0     H 3392  11.747   8.380   3.374  0.3508 -0.4191  0.8745
   25MOL0     H 3393  11.842   8.672   3.368  0.1165 -1.8749 -2.9837
   25MOL0     H 3394  11.823   8.584   3.522  1.0681 -3.4689  1.0926
   25MOL0     H 3395  11.998   8.412   3.418  5.7008  0.3178 -0.0322
   25MOL0     H 3396  12.059   8.574   3.460 -0.4629 -0.2245  0.4507
   25MOL0     H 3397  12.125   8.462   3.244 -2.3460 -0.5726  0.7628
   25MOL0     H 3398  11.969   8.503   3.185  0.2501  0.5508 -1.1001
   25MOL0     H 3399  12.236   8.722   3.381  0.0228  2.2683  1.5936
   25MOL0     H 3400  12.148   9.049   3.389  0.1563 -1.6042  0.8465
   25MOL0     H 3401  12.202   9.082   3.228  0.6798  3.1004  1.9859
   25MOL0     H 3402  12.380   9.075   3.414  0.0791 -0.3742  0.3959
   25MOL0     H 3403  12.345   8.907   3.441 -0.4384 -0.9755 -0.6219
   25MOL0     H 3404  12.542   8.945   3.307 -1.5513 -1.9354  1.7024
   25MOL0     H 3405  12.429   8.861   3.198  5.2437 -0.4233 -2.4441
   25MOL0     H 3406  12.377   9.120   3.121 -0.0011  2.3362  2.7774
   25MOL0     H 3407  12.538   9.143   3.182  0.7721 -0.6100 -1.8427
   25MOL0     H 3408  12.588   8.917   2.800  0.8613 -0.5616 -2.6467
   25MOL0     H 3409  12.690   8.922   2.585 -1.7024 -0.5156 -4.2473
   25MOL0     H 3410  12.840   9.003   2.614 -0.8135 -1.8751  0.8063
   25MOL0     H 3411  12.723   9.076   2.505  0.6660 -1.1607  0.0710
   25MOL0     H 3412  12.951   9.548   2.661  0.5471 -1.5814 -0.4276
   25MOL0     H 3413  13.055   9.735   2.537  0.0725  2.3250 -1.4704
   25MOL0     H 3414  12.884   9.811   2.111  0.7766 -0.7026  0.2977
   25MOL0     H 3415  12.796   9.927   2.223 -1.4240 -0.2156 -4.4842
   25MOL0     H 3416  13.066   9.963   2.084  1.9959  2.5062  1.5229
   25MOL0     H 3417  12.910  10.034   2.037 -0.7766  4.6795  1.5138
   25MOL0     H 3418  13.074  10.099   2.292 -1.7677  1.1561  2.9118
   25MOL0     H 3419  12.925  10.186   2.248  0.7602  2.7626 -1.4426
   25MOL0     H 3420  12.996  10.252   2.033  1.7148 -2.4118 -2.2744
   25MOL0     H 3421  13.158  10.205   2.068 -1.2762 -2.1962 -0.0202
   25MOL0     H 3422  12.999  10.407   2.212  0.8406  2.7980 -2.0730
   25MOL0     H 3423  13.158  10.348   2.283  1.1759 -1.0807 -1.0384
   25MOL0     H 3424  13.149  10.478   2.013  0.5879  0.1124  0.5013
   25MOL0     H 3425  13.278  10.450   2.117  0.2275  1.0874  0.3127
   25MOL0     H 3426  13.129  10.583   2.306  0.2535  0.4197  0.5494
   25MOL0     H 3427  13.028  10.618   2.172  0.8372  0.9119 -1.7469
   25MOL0     H 3428  13.219  10.788   2.231  1.9572 -1.3423  1.2305
   25MOL0     H 3429  13.193  10.751   2.063 -0.5904  0.7746  0.7739
   25MOL0     H 3430  12.704   9.742   2.280 -0.2095 -1.6214 -0.1615
   25MOL0     H 3431  12.603   9.578   2.418  0.1951 -2.4790  0.5447
   25MOL0     H 3432  12.601   9.409   2.820 -1.5896 -0.1606 -4.2519
   25MOL0     H 3433  12.516   9.277   3.008  2.7619  0.1878  1.4723
   25MOL0     H 3434  11.145   8.273   3.633 -0.7423  0.3597  1.8911
   25MOL0     H 3435  10.895   8.247   3.720 -3.1747  2.6726 -0.5528
   25MOL0     H 3436  10.576   7.913   3.757  0.6635  0.1715  3.6891
   25MOL0     H 3437  10.378   7.878   3.908  1.0545  2.1555  3.3116
   25MOL0     H 3438  10.130   8.247   4.006 -0.9709  1.4111  0.5023
   25MOL0     H 3439  10.041   8.168   3.867  0.7927  2.2293  0.8754
   25MOL0     H 3440   9.920   8.203   4.093  2.9203  2.1740 -2.1308
   25MOL0     H 3441  10.045   8.100   4.162  0.2938 -1.1108  0.6343
   25MOL0     H 3442   9.878   7.990   3.924  0.6728  2.2269  0.3419
   25MOL0     H 3443   9.957   7.893   4.043 -0.3503 -0.6403 -1.3597
   25MOL0     H 3444   9.708   7.890   4.080 -0.4669  0.0496  1.0304
   25MOL0     H 3445   9.721   8.054   4.119 -0.2801 -0.6668  1.3888
   25MOL0     H 3446   9.924   7.876   4.455 -1.2180  1.4415  0.8161
   25MOL0     H 3447  10.231   8.262   3.775  0.6307 -0.2343 -3.9947
   25MOL0     H 3448  10.440   8.316   3.527  0.4882  1.1452  0.1918
   25MOL0     H 3449  10.320   8.399   3.641  1.7774  1.3780  1.0702
   25MOL0     H 3450  10.489   8.406   3.665  2.7611 -2.5185 -0.6604
   26MOL0     O 3451   7.219   6.060   0.263  0.7593  0.4463  0.4063
   26MOL0     C 3452   7.202   6.131   0.359  0.6382  0.3035  0.5301
   26MOL0     O 3453   7.215   6.087   0.486  0.0029  0.4057 -0.3217
   26MOL0     C 3454   7.266   5.962   0.508 -0.3721 -0.2249  0.4412
   26MOL0     C 3455   7.184   5.861   0.553 -0.3743 -0.2253 -0.3084
   26MOL0     C 3456   7.242   5.739   0.582  0.6935 -0.6846  0.0631
   26MOL0     C 3457   7.380   5.711   0.580  0.5162 -0.1791  0.3226
   26MOL0     O 3458   7.432   5.585   0.614  0.0163 -0.0095 -0.0601
   26MOL0     C 3459   7.350   5.469   0.634  0.4587 -0.7670  0.0735
   26MOL0     C 3460   7.437   5.364   0.687 -0.3253  0.4277 -0.0938
   26MOL0     C 3461   7.558   5.336   0.590  0.2602 -0.6132  0.1580
   26MOL0     C 3462   7.630   5.216   0.640  0.0227  0.5432 -0.3964
   26MOL0     C 3463   7.741   5.166   0.544  0.6012 -0.2638  1.3055
   26MOL0     C 3464   7.840   5.088   0.624  1.2228  0.4113  0.9602
   26MOL0     C 3465   7.970   5.095   0.545  0.0639 -0.1849  0.6893
   26MOL0     C 3466   8.065   4.981   0.600  0.1690 -1.1455  0.2491
   26MOL0     N 3467   8.175   4.959   0.500  0.2346  0.5364  0.2411
   26MOL0     C 3468   8.308   4.930   0.538 -0.0673 -0.3717 -0.1343
   26MOL0     C 3469   8.370   4.884   0.428 -0.6886  0.6704  0.5159
   26MOL0     C 3470   8.508   4.814   0.425 -0.0244  0.2452  0.2548
   26MOL0     C 3471   8.557   4.747   0.297  0.4066 -0.4457  0.1739
   26MOL0     C 3472   8.677   4.656   0.312 -0.6253 -1.0043  0.6046
   26MOL0     C 3473   8.804   4.736   0.263 -0.7535 -0.4862 -0.5777
   26MOL0     O 3474   8.845   4.811   0.375 -0.9495 -0.6987 -0.5241
   26MOL0     C 3475   8.974   4.846   0.402 -0.2799  0.3691 -0.0306
   26MOL0     C 3476   8.997   4.954   0.494  0.0646  0.3388  0.4045
   26MOL0     C 3477   9.137   4.989   0.525 -0.3581  0.5681 -0.0045
   26MOL0     C 3478   9.143   5.098   0.628 -0.1974  0.6710  0.6546
   26MOL0     C 3479   9.247   4.923   0.464  0.0438  0.0175  0.1717
   26MOL0     C 3480   9.396   4.954   0.507  0.3531 -0.6146  0.7842
   26MOL0     O 3481   9.491   4.885   0.436  0.5034  0.3623  0.1365
   26MOL0     C 3482   9.622   4.921   0.439  0.2486  0.0441 -0.3987
   26MOL0     C 3483   9.719   4.820   0.467 -1.0557 -0.5470  0.0784
   26MOL0     C 3484   9.848   4.855   0.463  0.0330  0.6241 -0.4389
   26MOL0     C 3485   9.890   4.986   0.449 -0.2695  0.0680  0.1661
   26MOL0     O 3486  10.027   4.998   0.448 -0.8085 -0.0689 -0.1652
   26MOL0     C 3487  10.087   5.124   0.413 -0.7478  0.7918  0.9449
   26MOL0     C 3488  10.237   5.092   0.388  0.1237  0.0852  0.7609
   26MOL0     C 3489  10.322   5.218   0.399  0.6229 -0.4736 -0.3070
   26MOL0     C 3490  10.462   5.197   0.334 -0.0847 -0.2930  1.3624
   26MOL0     C 3491  10.552   5.305   0.374  0.3488 -0.1297 -0.0336
   26MOL0     C 3492  10.690   5.299   0.323 -1.2014  0.1759  0.8648
   26MOL0     C 3493  10.795   5.227   0.409 -0.0822  0.2248 -0.2228
   26MOL0     C 3494  10.921   5.207   0.327 -0.6550 -0.1697  0.2565
   26MOL0    Cl 3495  11.066   5.165   0.435  0.0790  0.1734 -0.1604
   26MOL0     C 3496   9.788   5.085   0.425  0.2841 -0.4592 -0.1662
   26MOL0     C 3497   9.656   5.054   0.412 -0.1562 -0.0669  0.2880
   26MOL0     O 3498   9.415   5.040   0.594  0.7417 -0.1093  0.4358
   26MOL0     C 3499   9.215   4.823   0.368  0.6106  0.7527 -0.4837
   26MOL0     C 3500   9.085   4.790   0.336  0.3187  1.0040 -0.7078
   26MOL0     N 3501   8.283   4.887   0.315  0.2110 -0.1905  0.5100
   26MOL0     N 3502   8.166   4.926   0.363 -0.3628 -0.3167  0.6854
   26MOL0     C 3503   7.459   5.825   0.556 -0.5871 -0.4204  0.0700
   26MOL0     C 3504   7.402   5.944   0.514 -0.4731 -0.4620  0.0327
   26MOL0     C 3505   7.137   6.263   0.355 -0.0326  0.2967 -0.2163
   26MOL0     C 3506   7.074   6.318   0.467  0.1467  0.4766 -0.2369
   26MOL0     C 3507   7.010   6.443   0.460 -0.4971 -0.6290  0.7903
   26MOL0     C 3508   7.000   6.505   0.328  0.5586 -0.7179  0.4021
   26MOL0     O 3509   6.938   6.624   0.314  0.3224 -0.4666  0.0058
   26MOL0     C 3510   6.795   6.603   0.346 -0.5226 -0.1831 -0.3085
   26MOL0     C 3511   6.684   6.662   0.250  0.4268 -0.8729 -0.8308
   26MOL0     C 3512   6.701   6.589   0.116 -0.1287 -0.1819 -0.1863
   26MOL0     C 3513   6.594   6.618   0.011 -0.2147 -0.3149 -0.1642
   26MOL0     C 3514   6.623   6.569  -0.118 -0.0175 -0.2689  0.9103
   26MOL0     C 3515   6.647   6.523  -0.238  0.2555  0.0014  0.0467
   26MOL0     C 3516   7.070   6.453   0.214 -0.2058 -0.1325 -0.0535
   26MOL0     C 3517   7.139   6.338   0.228 -0.1550  0.4798  0.0084
   26MOL0     C 3518   7.220   6.302   0.111  0.4782 -0.5170  0.9449
   26MOL0     H 3519   7.077   5.879   0.559 -0.5201 -1.4637  2.1188
   26MOL0     H 3520   7.170   5.661   0.605 -0.1297  0.2700  0.8593
   26MOL0     H 3521   7.310   5.435   0.538 -0.6630  1.0258 -0.1377
   26MOL0     H 3522   7.273   5.484   0.710 -0.1096 -1.0179 -0.4443
   26MOL0     H 3523   7.495   5.393   0.776  1.5762 -1.5406 -0.5815
   26MOL0     H 3524   7.388   5.271   0.718 -2.1324  0.5144 -2.4253
   26MOL0     H 3525   7.524   5.322   0.487  2.2473 -0.0388 -0.6284
   26MOL0     H 3526   7.625   5.423   0.582 -0.6638  0.1612  0.5626
   26MOL0     H 3527   7.688   5.253   0.725 -0.9215  3.3419 -0.8667
   26MOL0     H 3528   7.565   5.130   0.658  2.5130 -1.5255 -0.6723
   26MOL0     H 3529   7.786   5.255   0.499 -0.8743  0.2172  0.6926
   26MOL0     H 3530   7.703   5.109   0.458  4.0600  0.0291 -0.5744
   26MOL0     H 3531   7.858   5.122   0.727  1.8875  2.1719  0.2952
   26MOL0     H 3532   7.800   4.986   0.625 -0.4401  0.9440 -1.7141
   26MOL0     H 3533   8.010   5.197   0.552 -3.5374  1.5298 -0.8910
   26MOL0     H 3534   7.956   5.077   0.438 -0.2340 -1.5855  0.9453
   26MOL0     H 3535   8.112   4.992   0.698  1.2823 -2.1054 -0.1483
   26MOL0     H 3536   8.005   4.889   0.604 -1.0260 -0.3342  1.7246
   26MOL0     H 3537   8.348   4.932   0.639 -2.9177 -0.6600  1.0967
   26MOL0     H 3538   8.500   4.728   0.492  1.8066 -1.2505 -1.3435
   26MOL0     H 3539   8.583   4.878   0.474 -1.1072  1.4643  0.3848
   26MOL0     H 3540   8.477   4.687   0.253  0.3618  0.2899 -0.7829
   26MOL0     H 3541   8.580   4.826   0.225  2.4434  1.9651  3.1954
   26MOL0     H 3542   8.695   4.600   0.404  1.0888  2.7015  2.7634
   26MOL0     H 3543   8.654   4.586   0.231  1.2113 -0.8075 -0.1207
   26MOL0     H 3544   8.869   4.657   0.225  0.1316 -0.4490  0.7674
   26MOL0     H 3545   8.788   4.805   0.180  2.0413  2.4362  1.0775
   26MOL0     H 3546   8.907   4.985   0.547  0.4858 -0.1701  1.4414
   26MOL0     H 3547   9.049   5.130   0.675 -0.4848  0.9718 -0.1110
   26MOL0     H 3548   9.197   5.180   0.579  1.4734 -2.1555 -2.6734
   26MOL0     H 3549   9.200   5.060   0.713 -0.5032  1.3573  1.1861
   26MOL0     H 3550   9.686   4.724   0.506  0.1710 -0.9778  0.0797
   26MOL0     H 3551   9.920   4.775   0.482  0.2859  0.4430 -2.0325
   26MOL0     H 3552  10.044   5.186   0.334 -1.0569  1.4813  1.6341
   26MOL0     H 3553  10.078   5.186   0.503 -3.9114 -0.9483  2.0136
   26MOL0     H 3554  10.272   5.015   0.457 -0.0026  0.2413  1.0006
   26MOL0     H 3555  10.244   5.054   0.285  0.6641 -0.9636  1.1705
   26MOL0     H 3556  10.336   5.237   0.506 -0.8890  1.1707 -0.3533
   26MOL0     H 3557  10.269   5.305   0.359  0.9451  0.6035  1.4954
   26MOL0     H 3558  10.459   5.190   0.225  0.5840 -0.3860  1.3497
   26MOL0     H 3559  10.513   5.109   0.375  0.4713 -0.0031  1.2885
   26MOL0     H 3560  10.508   5.405   0.363 -1.5506 -0.8324  0.7435
   26MOL0     H 3561  10.569   5.285   0.480  0.9014 -1.5339 -0.3640
   26MOL0     H 3562  10.726   5.401   0.315  1.2272 -0.7442 -1.3192
   26MOL0     H 3563  10.697   5.251   0.224 -0.3348  3.7000 -0.9264
   26MOL0     H 3564  10.765   5.125   0.436 -0.9101  0.3951 -0.4875
   26MOL0     H 3565  10.814   5.278   0.504  0.0154  1.0635 -0.6906
   26MOL0     H 3566  10.952   5.297   0.274 -0.8055  0.4911  1.2602
   26MOL0     H 3567  10.902   5.133   0.248  1.4087 -0.1776 -0.2756
   26MOL0     H 3568   9.802   5.188   0.393  1.9982  0.0134  1.8854
   26MOL0     H 3569   9.578   5.126   0.389  1.8374  2.6539  1.5079
   26MOL0     H 3570   9.289   4.765   0.314 -2.7406 -1.2674 -3.3191
   26MOL0     H 3571   9.082   4.718   0.254 -2.4036  0.3751 -0.1250
   26MOL0     H 3572   7.566   5.810   0.570 -0.0292  3.2950  0.6439
   26MOL0     H 3573   7.463   6.026   0.476 -1.4341  0.3780  0.2767
   26MOL0     H 3574   7.078   6.271   0.565  0.8964 -0.6889 -0.8168
   26MOL0     H 3575   6.963   6.499   0.540 -2.6672 -2.2328  0.7404
   26MOL0     H 3576   6.764   6.501   0.371  0.1465 -0.0162  1.2998
   26MOL0     H 3577   6.778   6.644   0.445  2.1480  2.3403 -0.7530
   26MOL0     H 3578   6.702   6.770   0.242  1.3216 -0.5309  3.4532
   26MOL0     H 3579   6.583   6.649   0.289  1.3146 -1.3085  1.4967
   26MOL0     H 3580   6.791   6.633   0.072  0.6969 -1.5697  0.0490
   26MOL0     H 3581   6.726   6.482   0.124 -0.8925 -0.4645 -1.3296
   26MOL0     H 3582   6.565   6.724   0.012 -2.1196 -0.7108 -2.5621
   26MOL0     H 3583   6.503   6.568   0.046  0.7069 -1.9762 -0.0336
   26MOL0     H 3584   6.656   6.487  -0.338 -2.2214  1.1902 -0.6725
   26MOL0     H 3585   7.076   6.502   0.118 -0.5205  0.8078  0.3945
   26MOL0     H 3586   7.309   6.268   0.164  0.7858 -0.6070  0.3739
   26MOL0     H 3587   7.184   6.215   0.056  0.5548  0.3502 -0.5423
   26MOL0     H 3588   7.235   6.387   0.044  1.0121 -0.7676  0.7408
   27MOL0     O 3589  10.174   5.613  10.184 -0.3583  0.3070 -0.3729
   27MOL0     C 3590  10.059   5.612  10.224 -0.4544 -0.8267  0.3291
   27MOL0     O 3591  10.011   5.540  10.328  0.3499  0.1336 -0.4383
   27MOL0     C 3592  10.099   5.464  10.396  0.3300  0.8429 -0.7847
   27MOL0     C 3593  10.195   5.525  10.479  0.2478 -0.2894  0.0231
   27MOL0     C 3594  10.296   5.446  10.532  0.7010 -0.1798 -0.2019
   27MOL0     C 3595  10.315   5.310  10.499  0.1951  0.0755 -0.2077
   27MOL0     O 3596  10.431   5.242  10.544 -0.3038 -0.7673 -0.0713
   27MOL0     C 3597  10.455   5.116  10.481  0.0285  0.4254  0.2145
   27MOL0     C 3598  10.579   5.052  10.552  0.5997 -0.8703 -0.1869
   27MOL0     C 3599  10.553   4.993  10.690 -0.0194 -0.1614  0.1440
   27MOL0     C 3600  10.679   4.914  10.733  0.7081 -0.2966 -0.6927
   27MOL0     C 3601  10.698   4.765  10.698  0.1136  0.5289  0.3382
   27MOL0     C 3602  10.809   4.716  10.797  0.7875 -0.2081 -0.4597
   27MOL0     C 3603  10.800   4.567  10.824 -0.1903  0.1150 -0.2598
   27MOL0     C 3604  10.684   4.514  10.920  0.2694 -0.1826  0.3100
   27MOL0     N 3605  10.676   4.368  10.918 -0.0794  0.2263 -0.1970
   27MOL0     C 3606  10.766   4.281  10.980  0.3637  0.1816  0.6542
   27MOL0     C 3607  10.699   4.162  10.989  0.6207 -0.3966 -0.1305
   27MOL0     C 3608  10.758   4.048  11.066 -0.2244  1.3010 -0.2202
   27MOL0     C 3609  10.774   3.922  10.978 -0.9630  0.8687 -0.4063
   27MOL0     C 3610  10.835   3.806  11.063  1.0576 -0.0331  0.3352
   27MOL0     C 3611  10.829   3.676  10.991 -0.2384 -0.1897  0.0384
   27MOL0     O 3612  10.911   3.666  10.870 -0.0705 -0.0601  0.3369
   27MOL0     C 3613  11.035   3.644  10.894 -0.1279  0.1661 -0.7331
   27MOL0     C 3614  11.091   3.517  10.880 -0.1578  0.1604 -0.2818
   27MOL0     C 3615  11.229   3.495  10.883  0.8020  0.1489  0.9568
   27MOL0     C 3616  11.277   3.356  10.895 -0.7404  0.2080 -0.1542
   27MOL0     C 3617  11.319   3.608  10.893  0.2814 -0.4069  0.3064
   27MOL0     C 3618  11.467   3.597  10.885 -0.0647 -0.5920  0.9504
   27MOL0     O 3619  11.519   3.490  10.950  0.5354  0.1053  0.2187
   27MOL0     C 3620  11.654   3.505  10.983 -0.4378 -0.3705 -1.0367
   27MOL0     C 3621  11.734   3.395  10.961 -0.2874 -0.2030 -0.5176
   27MOL0     C 3622  11.870   3.402  10.997 -0.4264 -0.0374 -0.0582
   27MOL0     C 3623  11.926   3.512  11.068 -0.4392 -0.5913 -1.1004
   27MOL0     O 3624  12.055   3.520  11.120  0.0354  0.7150  0.4101
   27MOL0     C 3625  12.153   3.419  11.096 -0.9794  0.4872 -0.2464
   27MOL0     C 3626  12.260   3.447  11.201 -0.0571  0.2226 -0.4788
   27MOL0     C 3627  12.202   3.401  11.336 -1.0090 -0.9062  0.6054
   27MOL0     C 3628  12.300   3.429  11.459  0.1702 -0.4074 -0.3505
   27MOL0     C 3629  12.263   3.371  11.595 -1.2725  0.8522  0.3722
   27MOL0     C 3630  12.391   3.358  11.690  0.0848  0.5079  0.6170
   27MOL0     C 3631  12.439   3.487  11.734  0.8053  0.7410 -0.3815
   27MOL0     C 3632  12.578   3.483  11.797  0.3871  0.7039  0.1472
   27MOL0    Cl 3633  12.707   3.421  11.680 -0.0414 -0.1790  0.1669
   27MOL0     C 3634  11.843   3.625  11.084 -0.0026  0.0646 -0.0955
   27MOL0     C 3635  11.707   3.622  11.038 -0.6864  0.7676  0.5427
   27MOL0     O 3636  11.532   3.670  10.803  1.3592 -1.4478 -0.6356
   27MOL0     C 3637  11.263   3.736  10.879  0.0690 -0.3899 -0.0931
   27MOL0     C 3638  11.125   3.749  10.883  0.0041  0.2683 -0.5033
   27MOL0     N 3639  10.571   4.184  10.936 -1.0451 -0.2655 -0.0668
   27MOL0     N 3640  10.562   4.304  10.896  0.5902  0.2970 -0.4021
   27MOL0     C 3641  10.215   5.256  10.428  0.5365  0.2124 -0.1696
   27MOL0     C 3642  10.100   5.323  10.382  0.2446 -0.8410 -0.0751
   27MOL0     C 3643   9.949   5.682  10.147  0.4920 -0.0293  0.8192
   27MOL0     C 3644   9.812   5.649  10.166 -0.9614 -0.4962 -0.1524
   27MOL0     C 3645   9.702   5.694  10.089  0.3807  0.2976 -0.1130
   27MOL0     C 3646   9.713   5.802  10.003  0.1031  0.4871 -0.1984
   27MOL0     O 3647   9.599   5.840   9.940 -0.7543  0.5271  0.2622
   27MOL0     C 3648   9.617   5.934   9.830 -0.6450  0.2305  0.1159
   27MOL0     C 3649   9.480   5.956   9.766  0.0419  0.4979  0.3270
   27MOL0     C 3650   9.374   6.014   9.871  0.2876 -0.2910 -0.1158
   27MOL0     C 3651   9.248   6.075   9.797 -0.5559  0.5302  0.0059
   27MOL0     C 3652   9.277   6.213   9.735 -0.1480  1.3291  0.7369
   27MOL0     C 3653   9.283   6.321   9.687  1.0983 -0.5143  0.6268
   27MOL0     C 3654   9.843   5.844   9.983 -0.1976 -0.0777 -0.3840
   27MOL0     C 3655   9.960   5.787  10.052 -0.2619 -0.2822  0.7787
   27MOL0     C 3656  10.096   5.836  10.018  0.3349  0.3577  0.3682
   27MOL0     H 3657  10.197   5.633  10.488 -1.0018 -0.3925  2.5645
   27MOL0     H 3658  10.369   5.497  10.595 -0.6895  0.4216  0.9722
   27MOL0     H 3659  10.469   5.131  10.373 -2.5992  3.1776  0.0966
   27MOL0     H 3660  10.373   5.044  10.489  1.0238 -0.8446 -0.6564
   27MOL0     H 3661  10.614   4.967  10.493  2.5897 -1.6129  1.8786
   27MOL0     H 3662  10.653   5.133  10.561  1.1394 -1.0284 -2.5148
   27MOL0     H 3663  10.540   5.079  10.756  1.0164  1.2333 -1.3953
   27MOL0     H 3664  10.465   4.929  10.690 -0.4679  0.4467 -0.1686
   27MOL0     H 3665  10.764   4.976  10.704 -0.4274  1.7195  0.0911
   27MOL0     H 3666  10.679   4.920  10.842  0.5467  0.6145 -0.7393
   27MOL0     H 3667  10.729   4.745  10.596 -1.2602 -2.4195  0.3861
   27MOL0     H 3668  10.603   4.711  10.709  0.2657  0.2343  0.2063
   27MOL0     H 3669  10.904   4.734  10.746 -0.2250 -3.9161 -4.1630
   27MOL0     H 3670  10.802   4.764  10.895 -0.6120 -1.6955  0.2018
   27MOL0     H 3671  10.893   4.529  10.867 -0.7990  0.8911  1.8921
   27MOL0     H 3672  10.775   4.520  10.729 -1.3992  1.4468 -0.6406
   27MOL0     H 3673  10.706   4.534  11.025  0.3233  0.1515  0.2353
   27MOL0     H 3674  10.583   4.550  10.896  0.8995  1.5021  0.0705
   27MOL0     H 3675  10.858   4.309  11.030  2.3784 -1.2419 -2.0105
   27MOL0     H 3676  10.685   4.011  11.139 -1.3755  0.8063 -1.5526
   27MOL0     H 3677  10.858   4.068  11.105  0.8384 -1.9445 -0.9608
   27MOL0     H 3678  10.674   3.897  10.943 -1.2091 -0.7201  1.2797
   27MOL0     H 3679  10.843   3.944  10.895  1.9864  1.2603  1.9623
   27MOL0     H 3680  10.941   3.820  11.089  0.6294 -1.2419  2.9978
   27MOL0     H 3681  10.777   3.802  11.155  2.0273 -0.8004  0.9324
   27MOL0     H 3682  10.861   3.596  11.059 -0.8962 -0.9726 -0.5515
   27MOL0     H 3683  10.726   3.660  10.959  0.5708 -0.1305 -2.8619
   27MOL0     H 3684  11.032   3.426  10.880 -0.0331  0.0643 -1.7455
   27MOL0     H 3685  11.332   3.329  10.804  0.3580  0.8723  0.2929
   27MOL0     H 3686  11.192   3.287  10.897  1.1404 -2.1990  0.7488
   27MOL0     H 3687  11.329   3.336  10.989 -3.2798 -0.1940  1.2735
   27MOL0     H 3688  11.695   3.312  10.902  0.9351 -1.4382  0.3419
   27MOL0     H 3689  11.933   3.317  10.970 -0.5026 -0.5250  1.2671
   27MOL0     H 3690  12.114   3.317  11.110 -1.7838  0.9543  1.1061
   27MOL0     H 3691  12.202   3.428  10.999 -2.6891 -0.0683 -1.2067
   27MOL0     H 3692  12.351   3.389  11.182  0.4488  1.3766 -1.7860
   27MOL0     H 3693  12.289   3.552  11.197  1.9289 -0.2681  0.1098
   27MOL0     H 3694  12.158   3.301  11.345 -1.5193 -0.5061  4.5938
   27MOL0     H 3695  12.122   3.472  11.362  0.2752  0.9128 -0.2209
   27MOL0     H 3696  12.303   3.539  11.458 -0.0036 -0.3769 -2.5277
   27MOL0     H 3697  12.398   3.384  11.443  0.7657  0.1517  1.4401
   27MOL0     H 3698  12.183   3.421  11.650 -0.2711  0.8670  1.8768
   27MOL0     H 3699  12.225   3.271  11.569 -4.4199  1.4405  2.1317
   27MOL0     H 3700  12.461   3.301  11.629 -0.9388  1.1430 -1.2528
   27MOL0     H 3701  12.364   3.296  11.776  0.5020 -0.0797  0.3295
   27MOL0     H 3702  12.366   3.530  11.803 -0.5378  0.2051 -1.4387
   27MOL0     H 3703  12.447   3.557  11.651 -0.3402 -0.4765 -1.5659
   27MOL0     H 3704  12.580   3.414  11.882  0.8859 -0.2739 -0.6336
   27MOL0     H 3705  12.612   3.580  11.833  0.7715 -0.0131  1.7715
   27MOL0     H 3706  11.877   3.713  11.137 -0.0945 -0.7807  1.4236
   27MOL0     H 3707  11.640   3.708  11.045 -1.3928  0.3814 -1.0071
   27MOL0     H 3708  11.326   3.824  10.873 -0.9522  0.3298 -0.6023
   27MOL0     H 3709  11.077   3.843  10.860 -1.7767 -0.7351 -1.1198
   27MOL0     H 3710  10.225   5.149  10.408  1.3513  0.5635 -1.7818
   27MOL0     H 3711  10.028   5.270  10.321  1.8863  0.3929 -3.3316
   27MOL0     H 3712   9.786   5.580  10.245  1.0046 -1.5314 -0.3520
   27MOL0     H 3713   9.606   5.645  10.098  0.3453  0.6073  1.4346
   27MOL0     H 3714   9.653   6.030   9.868 -4.4344  0.7237  3.0221
   27MOL0     H 3715   9.685   5.887   9.758 -0.9853  1.5554 -1.1092
   27MOL0     H 3716   9.458   5.859   9.722  0.6004 -0.0431  1.1975
   27MOL0     H 3717   9.489   6.028   9.684  0.3164  1.4080  1.1336
   27MOL0     H 3718   9.332   5.939   9.939 -0.8140 -1.1470 -1.6606
   27MOL0     H 3719   9.415   6.096   9.930 -0.0236 -0.9898  1.1223
   27MOL0     H 3720   9.167   6.093   9.868 -0.6106  0.5671 -0.0667
   27MOL0     H 3721   9.219   6.002   9.721  1.7997  0.4718 -0.9313
   27MOL0     H 3722   9.301   6.417   9.643 -0.3623 -0.5408 -0.0781
   27MOL0     H 3723   9.851   5.918   9.903 -2.0500  1.6476  0.9239
   27MOL0     H 3724  10.146   5.847  10.115  0.4037 -0.6494  0.4484
   27MOL0     H 3725  10.135   5.749   9.965 -2.0350 -0.8148  0.4412
   27MOL0     H 3726  10.097   5.931   9.963  1.3913  0.9668  1.3653
   28MOL0     O 3727   9.121   6.703   3.919  0.3890  0.5852  0.5057
   28MOL0     C 3728   9.134   6.662   3.801 -0.6209  0.0392  0.3492
   28MOL0     O 3729   9.030   6.616   3.723 -0.3030  0.8286 -0.1958
   28MOL0     C 3730   8.909   6.596   3.784  0.3254 -0.5114 -0.1723
   28MOL0     C 3731   8.892   6.483   3.867 -0.5970  0.4813  0.7681
   28MOL0     C 3732   8.780   6.470   3.956 -0.0858 -0.5597  0.6167
   28MOL0     C 3733   8.693   6.581   3.973 -0.1424  0.0770  0.8703
   28MOL0     O 3734   8.600   6.563   4.073 -0.0888 -0.7215  0.3830
   28MOL0     C 3735   8.495   6.659   4.072  0.0376 -0.1934 -0.6115
   28MOL0     C 3736   8.397   6.628   4.175  0.4079  0.5779  0.0264
   28MOL0     C 3737   8.272   6.708   4.129  0.3239 -0.5819  0.4521
   28MOL0     C 3738   8.164   6.729   4.236 -0.0060  0.3633  0.3110
   28MOL0     C 3739   8.044   6.796   4.167 -0.3777  0.7246 -1.1234
   28MOL0     C 3740   7.964   6.873   4.271  0.0144 -0.5699  0.5627
   28MOL0     C 3741   7.889   6.774   4.363  0.3080  0.0965 -0.2505
   28MOL0     C 3742   7.800   6.849   4.468 -0.6821  0.3975 -0.0686
   28MOL0     N 3743   7.687   6.928   4.412 -0.8321  0.3651 -0.4913
   28MOL0     C 3744   7.588   6.870   4.330 -0.8978 -0.0640 -0.4326
   28MOL0     C 3745   7.545   6.976   4.268 -0.0477 -0.1325 -0.6328
   28MOL0     C 3746   7.435   6.968   4.158 -1.2377 -0.9261 -0.5548
   28MOL0     C 3747   7.473   6.902   4.025 -0.5045  0.7922 -0.8300
   28MOL0     C 3748   7.629   6.906   4.001  0.3024  0.5915  0.1824
   28MOL0     C 3749   7.681   6.828   3.874  0.0518  0.6083 -0.6910
   28MOL0     O 3750   7.824   6.836   3.863 -1.0639 -0.1866  0.0529
   28MOL0     C 3751   7.887   6.808   3.751  0.7411 -0.5480  1.2069
   28MOL0     C 3752   7.839   6.714   3.659 -0.3403 -0.4955 -0.7324
   28MOL0     C 3753   7.904   6.694   3.531  0.0230 -0.4537 -0.1530
   28MOL0     C 3754   7.844   6.586   3.443  0.3541 -0.1833 -0.5279
   28MOL0     C 3755   8.015   6.773   3.500 -0.2155 -0.3401 -0.5397
   28MOL0     C 3756   8.096   6.752   3.378 -0.1055  0.6104  0.8946
   28MOL0     O 3757   8.153   6.859   3.316 -0.2836  0.6021 -0.4342
   28MOL0     C 3758   8.263   6.835   3.236  0.0691 -0.2801  1.5483
   28MOL0     C 3759   8.248   6.850   3.099  0.1254 -1.2753  0.6927
   28MOL0     C 3760   8.352   6.819   3.012  0.4700 -0.0238 -0.6620
   28MOL0     C 3761   8.477   6.784   3.068 -0.1211 -0.5555  0.5027
   28MOL0     O 3762   8.590   6.765   2.985 -0.5999 -0.0530  0.5141
   28MOL0     C 3763   8.573   6.768   2.844  0.4606 -0.0490 -0.2357
   28MOL0     C 3764   8.712   6.790   2.796  0.0513 -0.3096 -0.0769
   28MOL0     C 3765   8.778   6.927   2.831 -0.0723  0.2224 -0.1360
   28MOL0     C 3766   8.694   7.053   2.820 -0.8417  0.3445 -0.3151
   28MOL0     C 3767   8.642   7.085   2.688  0.2248  0.3797 -0.0525
   28MOL0     C 3768   8.532   7.187   2.693  0.7444 -0.7836 -0.8386
   28MOL0     C 3769   8.396   7.153   2.749  0.6502  0.1821  0.0048
   28MOL0     C 3770   8.321   7.277   2.795  0.1709  0.2197  0.4610
   28MOL0    Cl 3771   8.286   7.384   2.653  0.1787  0.0838 -0.1303
   28MOL0     C 3772   8.491   6.759   3.204  0.3799 -0.6688 -0.0021
   28MOL0     C 3773   8.385   6.791   3.294  0.5269  0.5394 -0.9245
   28MOL0     O 3774   8.124   6.633   3.349 -0.4266 -0.0485  0.3107
   28MOL0     C 3775   8.066   6.867   3.594 -0.1303 -0.1949  0.1601
   28MOL0     C 3776   7.999   6.884   3.716  0.2629  0.7141  0.6937
   28MOL0     N 3777   7.609   7.081   4.316 -0.2705 -0.5686 -0.1134
   28MOL0     N 3778   7.709   7.058   4.399  0.2832 -0.0641 -0.1672
   28MOL0     C 3779   8.705   6.693   3.888 -0.1799  0.2225 -0.4578
   28MOL0     C 3780   8.811   6.694   3.793  0.4972  0.5245 -0.2959
   28MOL0     C 3781   9.272   6.665   3.741 -0.7267 -0.6766  0.5884
   28MOL0     C 3782   9.371   6.754   3.793  0.0457 -1.0454 -0.3509
   28MOL0     C 3783   9.501   6.752   3.742 -0.0466  0.2282 -1.1268
   28MOL0     C 3784   9.544   6.668   3.640  0.2420 -0.2382 -0.1652
   28MOL0     O 3785   9.666   6.660   3.569 -0.8638 -0.7364 -0.4856
   28MOL0     C 3786   9.759   6.776   3.573  1.0346  0.3735 -0.1651
   28MOL0     C 3787   9.715   6.888   3.477  0.0566 -1.7273 -0.4486
   28MOL0     C 3788   9.695   6.841   3.332 -0.7488 -0.6085  0.2466
   28MOL0     C 3789   9.630   6.944   3.248 -0.3018 -0.1454 -0.6230
   28MOL0     C 3790   9.498   6.988   3.293 -0.6178 -0.1544 -0.1937
   28MOL0     C 3791   9.392   7.032   3.326  0.9249  0.6621  0.1809
   28MOL0     C 3792   9.445   6.583   3.594 -0.0882  0.2600  0.3644
   28MOL0     C 3793   9.312   6.575   3.640 -0.4307 -0.8138  0.1439
   28MOL0     C 3794   9.226   6.468   3.576  0.3111 -1.1845 -0.3391
   28MOL0     H 3795   8.955   6.396   3.864 -0.5511  0.5341  0.1312
   28MOL0     H 3796   8.766   6.384   4.020  1.2965 -0.8122  0.6103
   28MOL0     H 3797   8.451   6.656   3.972 -1.0349  0.2332 -0.1725
   28MOL0     H 3798   8.524   6.763   4.091  1.2476 -0.9279  2.0436
   28MOL0     H 3799   8.375   6.521   4.180 -2.7917  1.0322 -1.7150
   28MOL0     H 3800   8.428   6.666   4.273 -1.4492 -1.7367  1.6134
   28MOL0     H 3801   8.299   6.810   4.103  0.0696 -0.7454 -0.4875
   28MOL0     H 3802   8.230   6.659   4.040  1.7808  0.4562 -0.8439
   28MOL0     H 3803   8.131   6.632   4.273 -1.3479  0.3567 -0.8109
   28MOL0     H 3804   8.208   6.793   4.314 -0.2380  1.3311 -0.3293
   28MOL0     H 3805   7.984   6.721   4.114 -0.4953  0.5261 -0.7138
   28MOL0     H 3806   8.071   6.869   4.090 -0.4612 -0.5212 -2.3821
   28MOL0     H 3807   8.034   6.939   4.324  2.2087 -1.3110 -1.2403
   28MOL0     H 3808   7.894   6.938   4.217 -1.2061 -1.5215  0.9496
   28MOL0     H 3809   7.958   6.703   4.409 -0.1756 -1.7346 -2.2003
   28MOL0     H 3810   7.822   6.714   4.300 -1.2582 -0.3434  1.7543
   28MOL0     H 3811   7.769   6.778   4.546  0.6856  1.1030  1.1665
   28MOL0     H 3812   7.870   6.919   4.514 -1.5389  0.9309  0.4426
   28MOL0     H 3813   7.582   6.766   4.299  3.9306 -0.4263 -0.9279
   28MOL0     H 3814   7.408   7.072   4.140 -2.5512 -1.6382 -3.1203
   28MOL0     H 3815   7.352   6.910   4.198 -2.2716  0.6883 -0.2858
   28MOL0     H 3816   7.443   6.797   4.032  0.3725  0.3105 -3.2183
   28MOL0     H 3817   7.414   6.947   3.945  1.1802  0.6071 -2.2500
   28MOL0     H 3818   7.652   7.013   3.993 -1.8517  1.0495 -0.4370
   28MOL0     H 3819   7.684   6.859   4.083  3.1076  1.3121 -1.1769
   28MOL0     H 3820   7.641   6.726   3.876  0.2164  0.4785  2.8753
   28MOL0     H 3821   7.638   6.884   3.790  0.9568  1.3070 -0.7050
   28MOL0     H 3822   7.755   6.651   3.687 -0.0177 -0.4444  0.3676
   28MOL0     H 3823   7.854   6.600   3.335 -1.2265 -2.2701 -0.9960
   28MOL0     H 3824   7.744   6.549   3.466  0.0223  0.6924 -0.4977
   28MOL0     H 3825   7.917   6.507   3.461  0.4849 -0.2245 -1.2156
   28MOL0     H 3826   8.158   6.890   3.054  1.2680  1.0643  0.3163
   28MOL0     H 3827   8.335   6.820   2.904 -1.7625  0.0586 -0.3600
   28MOL0     H 3828   8.542   6.671   2.805 -0.8747 -0.2985  1.3375
   28MOL0     H 3829   8.510   6.849   2.804  0.9141  0.5838  0.3119
   28MOL0     H 3830   8.779   6.721   2.848 -2.2437  0.1793  3.9999
   28MOL0     H 3831   8.720   6.771   2.689  1.5350 -2.2066  0.3123
   28MOL0     H 3832   8.863   6.947   2.765 -0.8926  2.0909 -0.6853
   28MOL0     H 3833   8.828   6.918   2.928 -0.0217 -0.3668 -0.2129
   28MOL0     H 3834   8.754   7.133   2.864  0.2694 -0.4846 -0.2666
   28MOL0     H 3835   8.616   7.036   2.895 -2.1915  0.2775 -1.6901
   28MOL0     H 3836   8.726   7.141   2.645  1.7456 -0.9305  1.1271
   28MOL0     H 3837   8.619   6.996   2.629  0.2235  0.3429  0.0044
   28MOL0     H 3838   8.521   7.230   2.593  2.9850 -0.6409 -1.0709
   28MOL0     H 3839   8.579   7.268   2.750  1.1817  1.8051 -4.5294
   28MOL0     H 3840   8.410   7.089   2.837 -0.5584 -0.9854 -0.6012
   28MOL0     H 3841   8.340   7.091   2.678 -0.2830  1.0926 -0.0892
   28MOL0     H 3842   8.374   7.339   2.867 -0.9947 -0.1344  1.6569
   28MOL0     H 3843   8.231   7.245   2.848 -0.9189  4.2621  1.3839
   28MOL0     H 3844   8.575   6.706   3.249  0.8332  0.0093 -0.0410
   28MOL0     H 3845   8.391   6.779   3.401 -0.9472  2.3709 -0.5825
   28MOL0     H 3846   8.155   6.921   3.564 -0.5387  0.2276 -0.2850
   28MOL0     H 3847   8.024   6.962   3.788 -1.9768  1.4111  0.8198
   28MOL0     H 3848   8.634   6.773   3.899 -1.5548 -1.1564  1.3395
   28MOL0     H 3849   8.823   6.784   3.733 -2.8365  2.1674  1.2372
   28MOL0     H 3850   9.335   6.821   3.870 -1.8798  0.1685 -2.1973
   28MOL0     H 3851   9.578   6.810   3.792  0.0272  0.4243 -1.4673
   28MOL0     H 3852   9.775   6.815   3.674  0.2141 -0.0347  0.1324
   28MOL0     H 3853   9.861   6.752   3.541  1.2096  1.8290 -0.8348
   28MOL0     H 3854   9.788   6.970   3.475  2.2073 -3.4409  1.4028
   28MOL0     H 3855   9.625   6.932   3.520  1.0173  0.5757 -0.6892
   28MOL0     H 3856   9.793   6.820   3.288 -1.6378 -0.2292 -2.0372
   28MOL0     H 3857   9.634   6.750   3.325 -0.4503 -0.6885 -2.3202
   28MOL0     H 3858   9.622   6.908   3.146  0.9849 -2.2341 -0.0440
   28MOL0     H 3859   9.697   7.031   3.252  0.7079 -0.9409  0.6384
   28MOL0     H 3860   9.292   7.064   3.346  1.0892  0.4236  1.4364
   28MOL0     H 3861   9.478   6.506   3.525 -3.7708 -1.8626  0.7604
   28MOL0     H 3862   9.157   6.526   3.514  3.1667 -0.5014 -3.1483
   28MOL0     H 3863   9.276   6.399   3.508  0.5612  0.2171 -1.6478
   28MOL0     H 3864   9.188   6.402   3.654  1.4263  1.2907  2.4822
   29MOL0     O 3865  10.619   3.387   2.265  1.1143 -0.2457  0.7729
   29MOL0     C 3866  10.536   3.380   2.175 -0.4006 -0.6544 -0.1143
   29MOL0     O 3867  10.568   3.394   2.038  0.3226  0.1990 -0.0065
   29MOL0     C 3868  10.700   3.362   2.011  0.9719 -0.0945  0.3371
   29MOL0     C 3869  10.784   3.469   1.966 -0.0736 -0.5539 -0.1377
   29MOL0     C 3870  10.912   3.442   1.932 -0.1097  0.6537 -0.1949
   29MOL0     C 3871  10.968   3.312   1.922 -0.0193  0.3280 -0.3794
   29MOL0     O 3872  11.097   3.303   1.876 -0.7176  0.2236 -0.0655
   29MOL0     C 3873  11.157   3.170   1.872 -0.1536 -0.6278  1.0174
   29MOL0     C 3874  11.309   3.189   1.834 -0.2830 -0.6717  0.1761
   29MOL0     C 3875  11.388   3.275   1.941 -0.8790 -0.0957 -0.0103
   29MOL0     C 3876  11.534   3.305   1.902 -0.6154  0.9751  0.0460
   29MOL0     C 3877  11.598   3.408   1.998  0.1278 -0.0156  0.3637
   29MOL0     C 3878  11.754   3.390   2.011  0.5070 -0.5670  0.1329
   29MOL0     C 3879  11.830   3.411   1.882  0.1492  0.0351  0.0118
   29MOL0     C 3880  11.976   3.372   1.899 -0.1123 -0.0730 -1.0254
   29MOL0     N 3881  12.051   3.462   1.986 -0.7603  0.3272 -0.1349
   29MOL0     C 3882  12.097   3.416   2.104 -0.2224 -0.0945 -0.3043
   29MOL0     C 3883  12.154   3.533   2.159 -0.2225  0.3802 -0.5247
   29MOL0     C 3884  12.219   3.540   2.297 -0.3086 -0.1147  0.6086
   29MOL0     C 3885  12.303   3.420   2.321 -0.2517 -0.0854  0.2707
   29MOL0     C 3886  12.393   3.436   2.448 -0.2897  0.0718 -0.9824
   29MOL0     C 3887  12.464   3.310   2.497 -0.0561 -0.6643  0.0050
   29MOL0     O 3888  12.559   3.274   2.395 -0.9765 -0.2548 -0.6822
   29MOL0     C 3889  12.677   3.345   2.384  0.1672  0.2354 -0.1221
   29MOL0     C 3890  12.747   3.388   2.499  0.2387 -0.2190  0.0285
   29MOL0     C 3891  12.877   3.432   2.496 -0.5592  0.0717  0.1557
   29MOL0     C 3892  12.959   3.443   2.621 -0.7752  0.1273  0.3772
   29MOL0     C 3893  12.941   3.449   2.367 -0.7080  0.8481 -0.0583
   29MOL0     C 3894  13.083   3.500   2.349 -0.1870 -0.6247 -0.0431
   29MOL0     O 3895  13.164   3.526   2.454 -0.5188 -0.4207 -0.7681
   29MOL0     C 3896  13.298   3.554   2.442  0.2468  0.3424 -0.2069
   29MOL0     C 3897  13.387   3.492   2.349  0.5309 -0.2037  0.3461
   29MOL0     C 3898  13.516   3.526   2.328  0.9889  0.0807  0.2040
   29MOL0     C 3899  13.572   3.618   2.417 -0.8386  0.1153  0.3261
   29MOL0     O 3900  13.711   3.632   2.432 -0.7092  0.3698 -0.1463
   29MOL0     C 3901  13.806   3.601   2.324  0.2247 -0.2503 -1.1806
   29MOL0     C 3902  13.911   3.715   2.301  0.8178 -0.7009  0.1794
   29MOL0     C 3903  14.008   3.734   2.422 -0.8444 -0.5191  0.2306
   29MOL0     C 3904  14.067   3.878   2.435 -0.0426 -0.0814  0.5609
   29MOL0     C 3905  14.172   3.864   2.551 -0.1064  0.1426 -0.0491
   29MOL0     C 3906  14.108   3.836   2.692 -0.2029  0.0825 -0.0330
   29MOL0     C 3907  14.213   3.861   2.797 -0.1412 -0.2353 -0.1758
   29MOL0     C 3908  14.140   3.870   2.933  0.2284 -0.5084  0.9146
   29MOL0    Cl 3909  14.022   4.008   2.950 -0.2002 -0.1645 -0.1352
   29MOL0     C 3910  13.495   3.668   2.521 -0.1525  0.0417  0.1077
   29MOL0     C 3911  13.359   3.642   2.530 -0.4869  0.1933 -0.1861
   29MOL0     O 3912  13.115   3.523   2.234  0.0364 -0.0675 -0.1724
   29MOL0     C 3913  12.867   3.408   2.256  0.1367  0.6229  0.7695
   29MOL0     C 3914  12.739   3.354   2.263 -0.5745 -0.1072  0.2385
   29MOL0     N 3915  12.134   3.643   2.077  0.2146  0.1184  0.5209
   29MOL0     N 3916  12.077   3.595   1.967  0.0440 -0.0394  0.4092
   29MOL0     C 3917  10.891   3.210   1.979  1.1953 -0.0323  0.7419
   29MOL0     C 3918  10.759   3.236   2.029  0.1866  0.2844  0.8051
   29MOL0     C 3919  10.397   3.360   2.230 -0.2212  0.9943 -0.5258
   29MOL0     C 3920  10.311   3.315   2.127 -0.4795 -0.8540 -0.5783
   29MOL0     C 3921  10.180   3.279   2.158 -0.4197  0.4270  0.0819
   29MOL0     C 3922  10.130   3.277   2.286 -0.4863 -0.6905 -0.3024
   29MOL0     O 3923  10.006   3.233   2.321  0.0479 -0.3174 -1.4902
   29MOL0     C 3924   9.919   3.179   2.225  0.0145  0.6701 -0.1527
   29MOL0     C 3925   9.784   3.135   2.282  0.2615  1.0593  0.0633
   29MOL0     C 3926   9.724   3.258   2.359  0.0854  1.3512 -0.9895
   29MOL0     C 3927   9.584   3.229   2.404 -0.7090  0.0658  0.2284
   29MOL0     C 3928   9.492   3.191   2.293  0.7142 -0.5642  0.3743
   29MOL0     C 3929   9.419   3.159   2.203  0.9376 -0.9260  0.4799
   29MOL0     C 3930  10.213   3.326   2.384 -0.5667 -0.6445  0.4157
   29MOL0     C 3931  10.346   3.375   2.362 -0.4852 -0.4440  0.4500
   29MOL0     C 3932  10.414   3.414   2.485  0.1156 -0.3291  0.3906
   29MOL0     H 3933  10.747   3.570   1.967 -2.8759 -1.3852  3.4378
   29MOL0     H 3934  10.973   3.523   1.893  0.6228  0.4031  0.3981
   29MOL0     H 3935  11.109   3.107   1.796 -1.0553  0.4503  0.6579
   29MOL0     H 3936  11.143   3.115   1.965 -0.9069 -2.4659 -0.1327
   29MOL0     H 3937  11.355   3.090   1.831  1.1388 -0.0397  0.4376
   29MOL0     H 3938  11.328   3.234   1.736  1.5021  1.1575  1.3032
   29MOL0     H 3939  11.336   3.370   1.959 -1.2901 -0.7350  2.4854
   29MOL0     H 3940  11.384   3.212   2.030  0.8701  1.7168  1.4507
   29MOL0     H 3941  11.581   3.207   1.919 -0.5443  1.4281  2.9637
   29MOL0     H 3942  11.534   3.334   1.797  1.2455  2.1083  0.3217
   29MOL0     H 3943  11.551   3.418   2.096 -0.0818 -0.9582  0.3697
   29MOL0     H 3944  11.596   3.505   1.946 -1.8091 -0.8192 -1.1984
   29MOL0     H 3945  11.773   3.466   2.087 -2.0437 -3.0804  3.6755
   29MOL0     H 3946  11.784   3.296   2.057  2.0431 -0.0170  0.2825
   29MOL0     H 3947  11.831   3.519   1.865 -0.2914 -0.1630 -1.4248
   29MOL0     H 3948  11.790   3.355   1.797  2.6232 -2.0236  0.0635
   29MOL0     H 3949  11.998   3.270   1.931  0.5702  0.9097  2.0039
   29MOL0     H 3950  12.028   3.396   1.806  0.8653  2.6198  0.1001
   29MOL0     H 3951  12.085   3.318   2.149  3.5021  0.1410  1.5367
   29MOL0     H 3952  12.152   3.560   2.381 -0.4594  0.6911  0.3049
   29MOL0     H 3953  12.290   3.623   2.297  0.8928 -1.0934 -0.3551
   29MOL0     H 3954  12.242   3.330   2.332  1.2951 -1.3831 -1.2859
   29MOL0     H 3955  12.370   3.412   2.235 -0.4196  0.3833  0.0930
   29MOL0     H 3956  12.464   3.517   2.429 -1.1392  0.8150 -1.0778
   29MOL0     H 3957  12.320   3.462   2.526 -0.2688 -1.9072 -0.2362
   29MOL0     H 3958  12.489   3.326   2.602 -1.0831  1.9082 -0.0698
   29MOL0     H 3959  12.393   3.227   2.508  1.1567 -1.5339  1.5815
   29MOL0     H 3960  12.702   3.381   2.598  1.1955  1.7456  0.6614
   29MOL0     H 3961  13.030   3.360   2.625 -1.2883 -0.2573  3.0761
   29MOL0     H 3962  12.904   3.427   2.714 -1.2688  1.2460  0.2902
   29MOL0     H 3963  12.994   3.545   2.640 -0.9064  0.0675  0.9705
   29MOL0     H 3964  13.355   3.414   2.281  2.0833  0.3248 -1.0321
   29MOL0     H 3965  13.574   3.485   2.247 -0.6641 -3.2711  0.5415
   29MOL0     H 3966  13.861   3.508   2.341  2.8549  0.8546 -2.8982
   29MOL0     H 3967  13.747   3.592   2.233 -2.7784 -2.8458  0.7895
   29MOL0     H 3968  13.958   3.685   2.207 -0.9321  0.6424 -1.2037
   29MOL0     H 3969  13.859   3.811   2.292  2.5504  0.6820  3.3377
   29MOL0     H 3970  14.093   3.667   2.404 -1.4430 -0.9215 -1.3282
   29MOL0     H 3971  13.949   3.725   2.513 -3.5095 -0.9376 -1.4321
   29MOL0     H 3972  13.992   3.955   2.458 -0.0039  0.2604 -0.3918
   29MOL0     H 3973  14.120   3.899   2.341  0.3680 -3.3780 -0.0590
   29MOL0     H 3974  14.241   3.782   2.529 -1.3286 -0.8454 -0.3378
   29MOL0     H 3975  14.229   3.958   2.552  0.9476 -0.4806  0.7702
   29MOL0     H 3976  14.071   3.734   2.691 -0.7125  0.2170  1.9802
   29MOL0     H 3977  14.026   3.906   2.711 -0.8330 -1.4724  3.9439
   29MOL0     H 3978  14.264   3.958   2.789  0.4227 -0.5990 -1.0482
   29MOL0     H 3979  14.288   3.782   2.797 -0.1170 -0.3360  2.5709
   29MOL0     H 3980  14.220   3.882   3.007  1.1605  3.2269 -0.4712
   29MOL0     H 3981  14.084   3.778   2.947 -0.4209  0.0596  2.2740
   29MOL0     H 3982  13.541   3.746   2.581 -1.5051  0.1207  1.1014
   29MOL0     H 3983  13.303   3.694   2.608 -0.3219 -1.1915  0.8917
   29MOL0     H 3984  12.916   3.403   2.160  1.9825 -0.9190  1.7078
   29MOL0     H 3985  12.672   3.319   2.185 -3.2030  2.1697  1.3174
   29MOL0     H 3986  10.917   3.106   2.000 -2.8388 -1.0287  1.6228
   29MOL0     H 3987  10.698   3.164   2.082  0.7012  0.9100  2.3137
   29MOL0     H 3988  10.340   3.299   2.023 -0.0790  0.5089 -0.7069
   29MOL0     H 3989  10.128   3.231   2.075  0.1827  0.4489 -0.3213
   29MOL0     H 3990   9.905   3.272   2.169  0.5237  2.6348  2.7579
   29MOL0     H 3991   9.960   3.098   2.164 -0.3114 -0.6357  1.2747
   29MOL0     H 3992   9.798   3.052   2.352 -2.5695 -0.3873 -0.9255
   29MOL0     H 3993   9.713   3.095   2.209 -0.1373 -0.4202  1.1987
   29MOL0     H 3994   9.787   3.281   2.446  0.2695  0.3362 -0.8387
   29MOL0     H 3995   9.720   3.348   2.298 -1.3900  2.2717  0.3866
   29MOL0     H 3996   9.545   3.317   2.456 -0.0165  0.2485  0.4453
   29MOL0     H 3997   9.602   3.154   2.482  1.3260 -0.9730 -1.1505
   29MOL0     H 3998   9.349   3.137   2.124  1.3199 -2.3636  0.5211
   29MOL0     H 3999  10.162   3.310   2.479 -0.8714 -0.7352  0.2380
   29MOL0     H 4000  10.489   3.491   2.467 -1.8478  1.1752 -2.0416
   29MOL0     H 4001  10.334   3.453   2.549  1.1880  2.2362  0.2728
   29MOL0     H 4002  10.474   3.342   2.541  2.8297 -0.0562 -1.9422
   30MOL0     O 4003   1.089   8.015   1.621 -0.0639  0.2372 -0.2582
   30MOL0     C 4004   1.050   8.030   1.738 -0.0636 -0.6497 -0.4650
   30MOL0     O 4005   1.114   8.103   1.834 -0.6099  0.2758  0.7102
   30MOL0     C 4006   1.219   8.182   1.797  0.5672  0.0525 -0.0143
   30MOL0     C 4007   1.189   8.320   1.770  0.7548  0.1872 -0.2586
   30MOL0     C 4008   1.294   8.397   1.711 -0.4952 -0.3059  1.2925
   30MOL0     C 4009   1.421   8.338   1.691  0.7066 -0.4057 -0.8647
   30MOL0     O 4010   1.530   8.389   1.626 -0.4795 -0.1153  0.0607
   30MOL0     C 4011   1.517   8.522   1.566  0.8501  0.1453  0.5376
   30MOL0     C 4012   1.648   8.580   1.518 -0.6880 -0.7152 -0.0192
   30MOL0     C 4013   1.743   8.624   1.633 -1.0897 -0.2099  0.8597
   30MOL0     C 4014   1.860   8.716   1.590  0.0633  0.5882  1.0903
   30MOL0     C 4015   1.966   8.724   1.706  0.8248 -0.2195  0.9851
   30MOL0     C 4016   2.059   8.850   1.678  0.2128 -0.0071 -1.0113
   30MOL0     C 4017   2.127   8.855   1.546 -0.2909 -0.5251 -0.2470
   30MOL0     C 4018   2.194   8.726   1.501  1.3349 -0.8297 -0.2842
   30MOL0     N 4019   2.302   8.753   1.409 -1.2905 -0.1416  0.0440
   30MOL0     C 4020   2.290   8.804   1.280 -0.4589  0.2241 -0.1284
   30MOL0     C 4021   2.414   8.801   1.233  0.2967  0.4712  0.1022
   30MOL0     C 4022   2.462   8.822   1.093 -0.2366  0.7130 -0.3888
   30MOL0     C 4023   2.467   8.976   1.054 -0.2147  0.3744  0.6762
   30MOL0     C 4024   2.556   9.065   1.146 -0.0545  0.5376  0.6915
   30MOL0     C 4025   2.701   9.024   1.172  0.6846  0.4013 -0.5960
   30MOL0     O 4026   2.763   9.058   1.044  0.4151 -0.5200 -0.2998
   30MOL0     C 4027   2.897   9.047   1.022 -0.3646  1.2811 -0.1688
   30MOL0     C 4028   2.992   8.981   1.112  1.0996 -0.3352 -0.2922
   30MOL0     C 4029   3.128   8.963   1.077 -0.7389  0.3491 -1.2190
   30MOL0     C 4030   3.209   8.880   1.166  0.9611  0.0390 -0.0962
   30MOL0     C 4031   3.182   9.013   0.960 -0.0961  0.4750 -1.0218
   30MOL0     C 4032   3.325   9.014   0.911  0.4725 -0.3089 -0.7845
   30MOL0     O 4033   3.344   9.033   0.776  0.4387  0.2341  0.2361
   30MOL0     C 4034   3.466   9.003   0.728 -0.8225 -0.0985 -0.0406
   30MOL0     C 4035   3.508   9.078   0.616 -1.3163  0.8571 -0.0379
   30MOL0     C 4036   3.632   9.059   0.555  0.4704  0.5248  1.0206
   30MOL0     C 4037   3.719   8.958   0.603  0.0834  0.9417  1.1873
   30MOL0     O 4038   3.839   8.939   0.530 -0.4043 -0.3546  0.6928
   30MOL0     C 4039   3.937   8.851   0.580  0.3505  0.4429 -0.3156
   30MOL0     C 4040   3.918   8.723   0.495 -0.2288  0.1481 -0.4123
   30MOL0     C 4041   3.905   8.737   0.346  0.0885  0.1891  0.3301
   30MOL0     C 4042   3.926   8.604   0.275  0.9496  0.8594  0.2137
   30MOL0     C 4043   3.905   8.612   0.118  0.9440  0.2254 -0.0915
   30MOL0     C 4044   3.940   8.481   0.064  0.2714 -0.2744 -0.6662
   30MOL0     C 4045   3.891   8.459  -0.071  1.6365  0.0033  0.0473
   30MOL0     C 4046   3.928   8.573  -0.163  0.4869  0.5787 -0.3495
   30MOL0    Cl 4047   4.104   8.598  -0.149 -0.0752 -0.0391  0.2422
   30MOL0     C 4048   3.681   8.885   0.717  1.0393  0.5144 -0.4127
   30MOL0     C 4049   3.557   8.911   0.782  0.2175  0.2976  0.2067
   30MOL0     O 4050   3.411   9.018   1.001  0.1749 -0.1274 -0.0865
   30MOL0     C 4051   3.078   9.078   0.875 -0.1118  0.2297 -0.5115
   30MOL0     C 4052   2.941   9.088   0.897  1.0902 -0.3294 -0.1702
   30MOL0     N 4053   2.496   8.782   1.345 -0.2668  1.0270  0.9316
   30MOL0     N 4054   2.429   8.763   1.450 -1.0643  0.8280  0.4748
   30MOL0     C 4055   1.447   8.207   1.728 -0.6442 -0.3709 -0.5518
   30MOL0     C 4056   1.343   8.126   1.772  0.1339  0.2019 -0.8409
   30MOL0     C 4057   0.912   7.981   1.768 -0.5123 -0.2670 -0.0934
   30MOL0     C 4058   0.812   7.977   1.672 -0.8037  0.0743 -0.2232
   30MOL0     C 4059   0.680   7.958   1.709 -0.9757  0.1656  0.4844
   30MOL0     C 4060   0.644   7.927   1.839 -0.1032 -0.9600 -0.2819
   30MOL0     O 4061   0.516   7.898   1.855 -0.1960  0.1356  0.0928
   30MOL0     C 4062   0.460   7.866   1.986 -0.7168 -0.0094  0.7834
   30MOL0     C 4063   0.308   7.884   1.973 -0.0078 -0.9089 -0.3871
   30MOL0     C 4064   0.236   7.799   1.860  0.0859 -0.3559 -1.1528
   30MOL0     C 4065   0.090   7.768   1.869 -0.1584  0.4179  0.4420
   30MOL0     C 4066   0.056   7.695   1.744  0.4197 -0.7216 -0.1499
   30MOL0     C 4067   0.045   7.623   1.648 -0.0728  0.3973 -0.0049
   30MOL0     C 4068   0.745   7.914   1.933  0.2973 -0.1108  0.5198
   30MOL0     C 4069   0.877   7.943   1.899  0.0638 -0.5346 -0.9899
   30MOL0     C 4070   0.970   7.936   2.019 -0.6333  0.2403 -0.3991
   30MOL0     H 4071   1.087   8.356   1.781 -0.2851 -0.9125 -4.4364
   30MOL0     H 4072   1.275   8.497   1.675  1.9819 -1.2379 -3.3505
   30MOL0     H 4073   1.470   8.598   1.629  1.4190  2.4163 -1.6213
   30MOL0     H 4074   1.467   8.509   1.470  1.5221 -2.1009  0.4306
   30MOL0     H 4075   1.696   8.507   1.453  1.6388 -0.8785  1.7187
   30MOL0     H 4076   1.631   8.668   1.455  0.5690  0.1533  0.7864
   30MOL0     H 4077   1.688   8.675   1.712  2.3025  1.4125  2.3732
   30MOL0     H 4078   1.779   8.526   1.665 -3.0963 -1.6382 -0.8846
   30MOL0     H 4079   1.911   8.684   1.498  0.4125  0.8678  1.1852
   30MOL0     H 4080   1.825   8.816   1.566  2.9003  0.8561 -2.9847
   30MOL0     H 4081   2.023   8.630   1.708  0.4694 -0.4263  1.5713
   30MOL0     H 4082   1.936   8.743   1.809  0.7753  2.7827  0.5061
   30MOL0     H 4083   2.016   8.947   1.701  0.4512 -0.1575  0.1348
   30MOL0     H 4084   2.129   8.849   1.763 -1.4136 -0.6773  0.3938
   30MOL0     H 4085   2.208   8.926   1.565 -2.6557  2.7348 -1.4097
   30MOL0     H 4086   2.056   8.896   1.473 -0.1149  2.9705  1.3338
   30MOL0     H 4087   2.232   8.669   1.587 -0.0789 -2.9402 -0.9555
   30MOL0     H 4088   2.127   8.650   1.458 -0.5637  0.6481 -0.0542
   30MOL0     H 4089   2.199   8.820   1.223 -0.9791 -0.8839  0.3532
   30MOL0     H 4090   2.398   8.775   1.018 -2.2402  1.4453  0.7630
   30MOL0     H 4091   2.562   8.778   1.098 -0.7282 -0.4215 -0.3227
   30MOL0     H 4092   2.502   8.984   0.951  0.6463  1.0850  1.0068
   30MOL0     H 4093   2.365   9.015   1.057  0.1457  1.9863 -2.9696
   30MOL0     H 4094   2.559   9.168   1.110 -0.9809 -0.0223 -1.1118
   30MOL0     H 4095   2.506   9.061   1.243 -1.1338  0.0110  0.1276
   30MOL0     H 4096   2.746   9.082   1.254  1.3414  1.4319 -1.6631
   30MOL0     H 4097   2.714   8.919   1.196  2.0160  0.0084 -2.7912
   30MOL0     H 4098   2.960   8.947   1.210  1.8704  2.4774  1.0321
   30MOL0     H 4099   3.279   8.943   1.221  1.6299  0.2443 -1.1452
   30MOL0     H 4100   3.259   8.802   1.107  1.6786  0.9159 -0.6877
   30MOL0     H 4101   3.146   8.839   1.245  0.7702  2.7964  1.3141
   30MOL0     H 4102   3.448   9.155   0.569  0.5191  1.7080 -1.0877
   30MOL0     H 4103   3.665   9.114   0.468 -1.5713  1.3668  0.7201
   30MOL0     H 4104   4.033   8.893   0.549  1.1159 -1.7997 -1.1521
   30MOL0     H 4105   3.945   8.848   0.689  0.4192 -0.4281 -0.3347
   30MOL0     H 4106   4.000   8.656   0.523 -0.6336  0.4591  1.7186
   30MOL0     H 4107   3.824   8.673   0.519 -0.5895  1.1360  0.3174
   30MOL0     H 4108   3.989   8.793   0.303  0.5787 -1.1259 -0.5023
   30MOL0     H 4109   3.807   8.780   0.323  0.3799  1.0960  0.7421
   30MOL0     H 4110   3.842   8.543   0.311 -0.8357  0.8501 -3.4715
   30MOL0     H 4111   4.020   8.551   0.294  1.0351  0.8028 -0.3636
   30MOL0     H 4112   3.802   8.633   0.088  0.5400  0.6676  1.5307
   30MOL0     H 4113   3.977   8.685   0.080  1.4333  1.2177  2.5676
   30MOL0     H 4114   3.887   8.405   0.123 -0.7117  0.1040 -1.0358
   30MOL0     H 4115   4.047   8.462   0.076  0.0276 -0.3496  2.2385
   30MOL0     H 4116   3.782   8.469  -0.064  1.6490 -0.6138  1.3452
   30MOL0     H 4117   3.915   8.361  -0.115  1.6106 -0.7396  1.6273
   30MOL0     H 4118   3.871   8.659  -0.125  0.4634 -0.6443  2.6607
   30MOL0     H 4119   3.898   8.554  -0.266 -3.5786 -0.0415  0.7703
   30MOL0     H 4120   3.742   8.813   0.771 -0.8396  0.9940  2.6258
   30MOL0     H 4121   3.537   8.857   0.874  1.6482 -2.1266 -0.8237
   30MOL0     H 4122   3.106   9.122   0.780 -2.1153 -1.8093 -2.1717
   30MOL0     H 4123   2.870   9.148   0.842 -1.3861 -1.0455  2.0174
   30MOL0     H 4124   1.551   8.177   1.719 -0.8301 -1.9772  1.8338
   30MOL0     H 4125   1.355   8.022   1.799 -2.0332  0.3984  1.2599
   30MOL0     H 4126   0.832   8.015   1.573 -0.4994 -0.6403 -0.4473
   30MOL0     H 4127   0.594   7.964   1.643 -0.1987  2.4603 -0.4754
   30MOL0     H 4128   0.478   7.765   2.024 -0.8371 -1.1658 -1.9938
   30MOL0     H 4129   0.485   7.942   2.061 -2.6352  0.8786  0.5980
   30MOL0     H 4130   0.300   7.990   1.948 -3.5170 -0.5200  1.6559
   30MOL0     H 4131   0.257   7.868   2.069  0.7673 -0.5235  0.1016
   30MOL0     H 4132   0.260   7.849   1.766 -1.3008  1.9555 -0.3708
   30MOL0     H 4133   0.298   7.709   1.862  2.0315  0.9358 -0.8987
   30MOL0     H 4134   0.028   7.857   1.882  1.0074  1.1328  1.2227
   30MOL0     H 4135   0.080   7.702   1.956  1.5414  1.1444  1.2345
   30MOL0     H 4136   0.059   7.565   1.558 -1.0962  1.0737 -0.6290
   30MOL0     H 4137   0.722   7.908   2.039  0.4154 -0.1542  0.5437
   30MOL0     H 4138   1.075   7.926   1.993 -0.6177 -1.6070  0.2606
   30MOL0     H 4139   0.955   8.023   2.085 -3.7665 -0.3349 -0.1924
   30MOL0     H 4140   0.941   7.853   2.084  0.3220  0.5442  0.4362
   31MOL0     O 4141   1.126   6.446   3.953 -0.2214  0.3315  0.3703
   31MOL0     C 4142   1.068   6.369   3.883  0.3776  0.9738  0.2260
   31MOL0     O 4143   1.117   6.287   3.781 -1.1213  1.0150  0.3569
   31MOL0     C 4144   1.243   6.319   3.741  0.1845  0.3533  0.3959
   31MOL0     C 4145   1.353   6.251   3.800  0.2347 -0.2325  0.4721
   31MOL0     C 4146   1.486   6.276   3.759  0.2025  0.4354 -1.1981
   31MOL0     C 4147   1.511   6.384   3.670 -0.2175 -0.1211  0.2864
   31MOL0     O 4148   1.637   6.437   3.649  0.4777 -0.2100 -0.0304
   31MOL0     C 4149   1.727   6.429   3.756 -0.3358  0.1345 -0.3755
   31MOL0     C 4150   1.866   6.493   3.722  0.1744 -0.8482  0.4306
   31MOL0     C 4151   1.932   6.405   3.614 -0.3701 -0.3140  0.2501
   31MOL0     C 4152   2.073   6.468   3.586  0.3438  0.2463  0.4254
   31MOL0     C 4153   2.123   6.408   3.453 -0.2337  0.0675 -0.6756
   31MOL0     C 4154   2.283   6.423   3.432 -0.5655  0.0539  0.5704
   31MOL0     C 4155   2.313   6.572   3.394  0.2234  0.4891  0.2752
   31MOL0     C 4156   2.465   6.611   3.400 -0.9996 -0.1623 -0.3606
   31MOL0     N 4157   2.533   6.567   3.529  0.7107  0.3041 -0.3478
   31MOL0     C 4158   2.483   6.595   3.660  0.4887 -0.3842  1.0492
   31MOL0     C 4159   2.573   6.537   3.737  0.2379 -1.0856  0.2182
   31MOL0     C 4160   2.569   6.555   3.884  0.8534  1.1826  1.0051
   31MOL0     C 4161   2.685   6.640   3.926 -0.5304  0.6563  0.1228
   31MOL0     C 4162   2.695   6.663   4.078 -0.5632 -0.7609 -0.4532
   31MOL0     C 4163   2.705   6.531   4.169  0.3609  0.7453  0.7240
   31MOL0     O 4164   2.829   6.515   4.238  0.1068  0.4532 -0.3458
   31MOL0     C 4165   2.925   6.427   4.189 -1.3576  1.3098 -0.1656
   31MOL0     C 4166   2.920   6.363   4.063  0.6119 -0.4410 -0.3758
   31MOL0     C 4167   3.027   6.298   4.014  0.3129 -0.2275 -0.0839
   31MOL0     C 4168   3.014   6.216   3.880  0.8182  0.0333  0.1737
   31MOL0     C 4169   3.148   6.293   4.092  0.2964 -0.9565  0.1100
   31MOL0     C 4170   3.269   6.218   4.039 -0.5853 -0.2121 -0.4354
   31MOL0     O 4171   3.353   6.172   4.131 -0.1320  0.4158 -0.6196
   31MOL0     C 4172   3.462   6.100   4.094 -0.7480 -0.3361 -0.0550
   31MOL0     C 4173   3.573   6.161   4.027 -0.0643  0.3415  1.3015
   31MOL0     C 4174   3.678   6.083   3.980  0.1166  0.1880  0.0722
   31MOL0     C 4175   3.683   5.943   4.003  0.5942 -0.3823 -0.0837
   31MOL0     O 4176   3.779   5.861   3.952  0.3837 -0.0529  0.5370
   31MOL0     C 4177   3.863   5.925   3.844 -1.3007  0.5080  0.2381
   31MOL0     C 4178   3.914   5.805   3.755  1.0893  0.2218  0.3030
   31MOL0     C 4179   4.037   5.730   3.792  0.1873 -0.0143 -0.1219
   31MOL0     C 4180   4.161   5.815   3.787 -0.7286  0.2772  0.5957
   31MOL0     C 4181   4.278   5.725   3.777 -1.7252 -0.1387 -0.5756
   31MOL0     C 4182   4.408   5.788   3.836 -0.5457  0.5694  0.1543
   31MOL0     C 4183   4.528   5.688   3.818 -0.2644 -0.4143 -0.3148
   31MOL0     C 4184   4.648   5.738   3.895 -0.1075  0.2148 -0.0369
   31MOL0    Cl 4185   4.736   5.860   3.798 -0.1311  0.1831  0.3035
   31MOL0     C 4186   3.577   5.886   4.073  0.5303 -0.0599 -0.2209
   31MOL0     C 4187   3.469   5.962   4.121 -0.3976 -0.5827  0.4255
   31MOL0     O 4188   3.297   6.220   3.922 -0.1825  0.0817  0.9479
   31MOL0     C 4189   3.148   6.347   4.216 -0.0378  1.1653 -1.0024
   31MOL0     C 4190   3.041   6.419   4.267 -0.2821  0.2196  0.7027
   31MOL0     N 4191   2.675   6.482   3.671  0.4893  0.9098  0.0951
   31MOL0     N 4192   2.652   6.506   3.547  0.7144 -0.2777  0.1059
   31MOL0     C 4193   1.396   6.462   3.617 -0.4278  0.3954  0.0719
   31MOL0     C 4194   1.269   6.429   3.655  0.1052 -0.0268 -0.1733
   31MOL0     C 4195   0.933   6.329   3.926  0.0406  0.8880 -0.0221
   31MOL0     C 4196   0.851   6.266   3.832 -0.1138 -0.1980 -0.5214
   31MOL0     C 4197   0.719   6.236   3.856 -0.5893 -0.0633  0.7291
   31MOL0     C 4198   0.662   6.273   3.977 -0.2286 -0.1238 -0.0589
   31MOL0     O 4199   0.528   6.245   3.988 -1.0036  0.8157  0.7314
   31MOL0     C 4200   0.470   6.233   4.116  0.3017 -0.0922 -0.5193
   31MOL0     C 4201   0.336   6.164   4.103 -0.4651 -0.4572  0.1799
   31MOL0     C 4202   0.272   6.145   4.235  1.6176  0.0968  0.2286
   31MOL0     C 4203   0.153   6.052   4.209  0.8975 -0.7111 -0.3531
   31MOL0     C 4204   0.100   5.996   4.331  0.6411 -0.0004 -0.0585
   31MOL0     C 4205   0.050   5.945   4.436 -0.0996 -0.9143  0.5692
   31MOL0     C 4206   0.740   6.338   4.077 -0.7412  0.0289 -0.0671
   31MOL0     C 4207   0.878   6.361   4.055 -0.0302  0.8185 -1.4893
   31MOL0     C 4208   0.959   6.408   4.173  0.2751 -0.1597  0.5028
   31MOL0     H 4209   1.343   6.181   3.882 -1.6180 -0.7114 -0.1050
   31MOL0     H 4210   1.564   6.212   3.801  1.4511  0.5254 -3.2374
   31MOL0     H 4211   1.747   6.327   3.788 -2.6261 -0.1728  0.2270
   31MOL0     H 4212   1.668   6.472   3.837 -1.7937 -2.3586 -0.0127
   31MOL0     H 4213   1.850   6.593   3.682 -0.5510 -1.8845 -2.0518
   31MOL0     H 4214   1.925   6.495   3.814  0.5651  1.8887  0.2187
   31MOL0     H 4215   1.935   6.302   3.651 -1.6423 -1.1739 -1.8490
   31MOL0     H 4216   1.866   6.403   3.527 -3.1314  2.9612  2.0139
   31MOL0     H 4217   2.057   6.576   3.591 -2.6275 -0.0690 -0.0219
   31MOL0     H 4218   2.129   6.432   3.673 -2.5244 -2.1836  1.4455
   31MOL0     H 4219   2.069   6.453   3.370  0.9952  1.0742 -0.9666
   31MOL0     H 4220   2.103   6.300   3.453 -0.1000  0.0379 -1.6587
   31MOL0     H 4221   2.335   6.381   3.518  0.2256 -0.1433  0.0012
   31MOL0     H 4222   2.309   6.358   3.348 -4.3774  0.7701 -1.4159
   31MOL0     H 4223   2.259   6.638   3.462  0.1365  0.0459  0.6423
   31MOL0     H 4224   2.259   6.590   3.300  2.5313  1.5808 -0.9323
   31MOL0     H 4225   2.514   6.562   3.316 -1.6940 -1.4031 -0.0731
   31MOL0     H 4226   2.484   6.719   3.398 -0.8882 -0.0771  1.9095
   31MOL0     H 4227   2.395   6.652   3.685  0.5396 -0.4227  1.3275
   31MOL0     H 4228   2.561   6.458   3.934  2.4541  0.5798  0.1603
   31MOL0     H 4229   2.472   6.602   3.905  0.4534  1.3013 -0.9235
   31MOL0     H 4230   2.770   6.575   3.901 -2.7942 -2.2242 -0.6781
   31MOL0     H 4231   2.690   6.734   3.872  0.9689 -0.1374 -1.2080
   31MOL0     H 4232   2.783   6.723   4.107 -2.5331  0.4871  3.8685
   31MOL0     H 4233   2.612   6.721   4.119 -2.0918 -1.2718 -2.6970
   31MOL0     H 4234   2.615   6.529   4.232 -2.5445 -1.9311 -3.0705
   31MOL0     H 4235   2.689   6.452   4.095 -3.4566  3.5949 -1.8585
   31MOL0     H 4236   2.842   6.376   3.989  0.5683 -1.3259 -0.4887
   31MOL0     H 4237   2.911   6.187   3.857 -0.0415  2.2349  1.0172
   31MOL0     H 4238   3.068   6.121   3.887 -0.0236 -0.6702 -1.9516
   31MOL0     H 4239   3.042   6.277   3.794 -3.4763  1.3991 -0.4934
   31MOL0     H 4240   3.575   6.268   4.005  0.1044  0.0103 -0.3886
   31MOL0     H 4241   3.761   6.140   3.940 -0.5145  1.1649  0.1074
   31MOL0     H 4242   3.800   5.989   3.781 -1.8436 -1.3984 -1.2442
   31MOL0     H 4243   3.955   5.979   3.866 -0.6503 -0.8394  0.9727
   31MOL0     H 4244   3.827   5.739   3.746 -2.4596  4.1285  2.4081
   31MOL0     H 4245   3.935   5.835   3.652 -0.1933  1.9916  0.5086
   31MOL0     H 4246   4.058   5.649   3.721  1.5252  1.0707 -1.0174
   31MOL0     H 4247   4.026   5.675   3.886 -0.6317 -0.4710 -0.4784
   31MOL0     H 4248   4.174   5.881   3.874 -2.2803 -1.1592  1.9977
   31MOL0     H 4249   4.160   5.872   3.694 -0.6315 -0.6959 -0.0223
   31MOL0     H 4250   4.259   5.642   3.846 -0.8557 -0.6640 -0.9460
   31MOL0     H 4251   4.298   5.686   3.677  0.5264 -0.7406  0.0434
   31MOL0     H 4252   4.384   5.794   3.942  2.7629 -1.6559  1.1921
   31MOL0     H 4253   4.430   5.888   3.795 -2.3019  1.2702  0.8419
   31MOL0     H 4254   4.561   5.691   3.713  1.5611 -0.2449  0.2476
   31MOL0     H 4255   4.487   5.593   3.854 -0.9196  0.2500  0.7411
   31MOL0     H 4256   4.716   5.659   3.929 -0.4559  0.1142  0.4337
   31MOL0     H 4257   4.610   5.785   3.987 -0.0533 -0.5324  0.3775
   31MOL0     H 4258   3.584   5.784   4.110 -3.4935 -0.2247  0.5416
   31MOL0     H 4259   3.397   5.922   4.192  0.3646  2.5026  3.1892
   31MOL0     H 4260   3.238   6.325   4.273 -0.8925  0.4225  0.0819
   31MOL0     H 4261   3.035   6.473   4.362  1.0392 -0.7394  1.3631
   31MOL0     H 4262   1.420   6.549   3.556 -0.4035 -0.7573 -1.6497
   31MOL0     H 4263   1.182   6.482   3.618 -0.1913 -0.9411 -0.8303
   31MOL0     H 4264   0.894   6.255   3.733  1.4082  2.6169 -0.2674
   31MOL0     H 4265   0.662   6.182   3.781  0.3270  0.9054 -0.7084
   31MOL0     H 4266   0.547   6.175   4.166  0.7405  1.2667  0.4378
   31MOL0     H 4267   0.466   6.335   4.156  0.1229  1.5555 -4.2807
   31MOL0     H 4268   0.362   6.064   4.066  1.1644  0.1840 -0.5150
   31MOL0     H 4269   0.270   6.223   4.040 -0.8909 -1.6203 -0.4906
   31MOL0     H 4270   0.346   6.107   4.306  0.0113  1.1751  2.6217
   31MOL0     H 4271   0.236   6.241   4.274  0.8111  0.1607 -0.6280
   31MOL0     H 4272   0.181   5.966   4.148 -0.0536 -1.4514  0.2349
   31MOL0     H 4273   0.075   6.110   4.158  1.2976 -0.9484 -1.2567
   31MOL0     H 4274   0.017   5.901   4.528 -0.2340 -1.8475  0.0828
   31MOL0     H 4275   0.694   6.367   4.171 -1.1229 -0.2649 -0.1598
   31MOL0     H 4276   1.051   6.351   4.191  1.0007  1.7207  3.5680
   31MOL0     H 4277   0.980   6.515   4.165 -0.0806 -0.2408 -3.5195
   31MOL0     H 4278   0.905   6.378   4.264 -0.5084 -2.7832 -0.7258
   32MOL0     O 4279   0.942   9.645   0.795 -0.5345  0.5172 -0.0358
   32MOL0     C 4280   0.831   9.590   0.792  0.5218 -0.3381  0.0348
   32MOL0     O 4281   0.802   9.475   0.848 -0.6897  0.1373 -0.0169
   32MOL0     C 4282   0.900   9.426   0.927 -0.8572  0.7790  0.6290
   32MOL0     C 4283   0.916   9.487   1.054 -0.0923  1.1134 -0.0901
   32MOL0     C 4284   0.999   9.426   1.152  0.7135 -0.0662  0.5665
   32MOL0     C 4285   1.066   9.313   1.121  0.0377 -0.2911 -0.7587
   32MOL0     O 4286   1.154   9.259   1.207  0.4338 -0.1119  0.2815
   32MOL0     C 4287   1.257   9.357   1.243  0.3003  0.1926 -1.0480
   32MOL0     C 4288   1.382   9.276   1.277 -0.3772  0.6848  0.4952
   32MOL0     C 4289   1.503   9.349   1.331  0.2325 -0.1562  0.1163
   32MOL0     C 4290   1.607   9.240   1.383 -0.0066  0.0165  0.9274
   32MOL0     C 4291   1.721   9.293   1.465 -0.1230 -0.2828 -0.5298
   32MOL0     C 4292   1.806   9.399   1.379 -0.6313  0.0792  0.1101
   32MOL0     C 4293   1.918   9.459   1.474  0.0675  0.2308  0.1145
   32MOL0     C 4294   2.008   9.566   1.403  0.4359  0.3564  0.1939
   32MOL0     N 4295   2.077   9.637   1.503  0.1037 -0.4869  0.1153
   32MOL0     C 4296   2.181   9.600   1.585 -0.1276  0.2001 -0.1782
   32MOL0     C 4297   2.213   9.705   1.664 -0.4750  1.5502 -0.0899
   32MOL0     C 4298   2.319   9.707   1.774  0.5566 -0.2287  0.1078
   32MOL0     C 4299   2.349   9.847   1.821  0.2089 -0.4806 -0.0280
   32MOL0     C 4300   2.463   9.832   1.925  0.3412  0.2157 -0.9385
   32MOL0     C 4301   2.517   9.968   1.956  0.5793 -0.4909  0.0178
   32MOL0     O 4302   2.594   9.967   2.075  0.1031 -1.0429 -0.1374
   32MOL0     C 4303   2.731   9.972   2.058  0.0951 -0.9396 -0.0128
   32MOL0     C 4304   2.791   9.863   2.098 -0.5388 -0.3454  0.3581
   32MOL0     C 4305   2.931   9.866   2.114 -0.5096 -0.5553 -0.8349
   32MOL0     C 4306   3.001   9.738   2.151  0.0392  0.3045 -0.3382
   32MOL0     C 4307   3.012   9.987   2.086 -0.2735  0.2877  0.0056
   32MOL0     C 4308   3.160  10.001   2.108 -0.2986 -0.3270  1.1540
   32MOL0     O 4309   3.210   9.941   2.221  0.1162  0.0745  0.2051
   32MOL0     C 4310   3.344   9.932   2.238 -0.4403 -0.6621  0.4152
   32MOL0     C 4311   3.431   9.921   2.130 -0.7715  0.6114 -0.5011
   32MOL0     C 4312   3.571   9.942   2.148  0.1609 -0.2601  0.4392
   32MOL0     C 4313   3.629   9.975   2.272  0.6932 -0.2347  0.1076
   32MOL0     O 4314   3.758   9.996   2.304  0.4235  0.3331 -0.4125
   32MOL0     C 4315   3.845   9.894   2.263 -0.4734  0.2338  0.9349
   32MOL0     C 4316   3.934   9.956   2.155  0.5278  0.4311  0.0578
   32MOL0     C 4317   4.000  10.085   2.213 -0.1132  0.7957 -0.5703
   32MOL0     C 4318   4.127  10.105   2.140  0.0235 -0.2406 -0.4656
   32MOL0     C 4319   4.192  10.226   2.172 -0.1068 -0.2908  0.3594
   32MOL0     C 4320   4.296  10.267   2.074  0.4296  0.3400  1.0121
   32MOL0     C 4321   4.400  10.373   2.121  0.3157  0.5503 -1.2049
   32MOL0     C 4322   4.464  10.340   2.255 -0.2789 -0.1739  0.1175
   32MOL0    Cl 4323   4.512  10.163   2.277  0.5636 -0.0254  0.1514
   32MOL0     C 4324   3.533   9.990   2.382 -0.8379 -0.2193  0.8651
   32MOL0     C 4325   3.399   9.963   2.372 -0.4876 -0.5130 -0.2336
   32MOL0     O 4326   3.221  10.074   2.029 -1.3105  0.0034 -0.4173
   32MOL0     C 4327   2.940  10.092   2.028  0.1873  0.1318 -0.4653
   32MOL0     C 4328   2.800  10.086   2.017 -0.3225 -0.4212  0.2051
   32MOL0     N 4329   2.140   9.810   1.621  0.8557 -0.0614  0.6062
   32MOL0     N 4330   2.056   9.765   1.525  0.1287  0.0383 -0.9062
   32MOL0     C 4331   1.030   9.237   1.013 -0.0189  0.2684  0.4831
   32MOL0     C 4332   0.951   9.299   0.911 -0.2766 -0.2262 -0.2269
   32MOL0     C 4333   0.715   9.663   0.726 -0.6063  0.4677 -0.8497
   32MOL0     C 4334   0.616   9.591   0.665 -0.6479  0.3776 -0.4228
   32MOL0     C 4335   0.505   9.650   0.609 -0.3254 -0.8839  0.6898
   32MOL0     C 4336   0.495   9.782   0.602 -0.4038 -0.1578  0.0299
   32MOL0     O 4337   0.382   9.818   0.520 -0.7566 -0.5236 -0.2973
   32MOL0     C 4338   0.339   9.959   0.525  0.8867 -0.1196 -0.1062
   32MOL0     C 4339   0.278  10.007   0.651 -0.2706 -1.3701 -0.6264
   32MOL0     C 4340   0.135   9.968   0.679  0.1402 -0.9522  0.4489
   32MOL0     C 4341   0.051  10.070   0.767 -0.8277 -0.3877  0.1596
   32MOL0     C 4342   0.104  10.062   0.910 -0.0177 -0.6926 -0.1598
   32MOL0     C 4343   0.124  10.073   1.025 -0.0830  0.0194 -0.2425
   32MOL0     C 4344   0.585   9.868   0.675 -0.3165  0.2118  0.5681
   32MOL0     C 4345   0.687   9.803   0.746 -0.3288 -0.4923  0.0679
   32MOL0     C 4346   0.792   9.888   0.821  0.1400 -0.2077  0.3553
   32MOL0     H 4347   0.853   9.573   1.073 -1.0498  0.1217  1.4782
   32MOL0     H 4348   1.015   9.476   1.247  0.1842 -0.4184  0.8442
   32MOL0     H 4349   1.230   9.413   1.333 -2.5433  0.5584 -2.0587
   32MOL0     H 4350   1.273   9.437   1.170 -0.8022  2.9805  1.5721
   32MOL0     H 4351   1.375   9.193   1.348  2.8651 -1.8992 -1.8014
   32MOL0     H 4352   1.417   9.227   1.185 -2.0983 -1.9312  1.1379
   32MOL0     H 4353   1.550   9.402   1.247 -0.3358 -0.6410 -0.5170
   32MOL0     H 4354   1.478   9.427   1.404  0.0190 -0.8773  0.8279
   32MOL0     H 4355   1.550   9.164   1.436  0.6738 -0.7415  0.5793
   32MOL0     H 4356   1.650   9.196   1.293 -2.2621 -0.3579 -0.0525
   32MOL0     H 4357   1.785   9.217   1.512  1.0083 -1.1151 -3.2396
   32MOL0     H 4358   1.689   9.346   1.555  1.5935 -1.0176  0.5901
   32MOL0     H 4359   1.861   9.359   1.294 -1.7386 -0.0556 -0.5652
   32MOL0     H 4360   1.746   9.480   1.336  1.2868 -0.1714 -3.4129
   32MOL0     H 4361   1.978   9.374   1.506 -1.9558 -1.0479  0.7329
   32MOL0     H 4362   1.870   9.496   1.565  0.3860  0.5450  0.1562
   32MOL0     H 4363   2.082   9.532   1.330  1.3037  1.0208  0.7285
   32MOL0     H 4364   1.947   9.629   1.337  0.5405 -2.0806 -2.4139
   32MOL0     H 4365   2.229   9.504   1.598  0.4755  0.6180  0.7555
   32MOL0     H 4366   2.411   9.659   1.738 -0.4890 -0.4763 -2.4814
   32MOL0     H 4367   2.283   9.656   1.864 -0.7065  0.7705  0.1900
   32MOL0     H 4368   2.387   9.890   1.728  0.1262  0.3308  0.3093
   32MOL0     H 4369   2.259   9.900   1.851  0.8988  1.9020 -1.9216
   32MOL0     H 4370   2.415   9.790   2.014 -3.0259  1.7814 -1.8524
   32MOL0     H 4371   2.540   9.764   1.887 -0.1791 -0.8124 -0.2219
   32MOL0     H 4372   2.572   9.988   1.864 -0.2984 -1.0318 -0.6410
   32MOL0     H 4373   2.439  10.044   1.959  1.3887  0.3595  0.0875
   32MOL0     H 4374   2.730   9.775   2.116 -0.8147 -0.2472 -0.1143
   32MOL0     H 4375   2.948   9.643   2.136  0.8102 -0.3023  0.6734
   32MOL0     H 4376   3.019   9.743   2.258 -0.8158 -1.0822 -0.1060
   32MOL0     H 4377   3.095   9.726   2.097  0.3888  0.0335  0.3306
   32MOL0     H 4378   3.405   9.912   2.024  1.9653 -0.0864 -1.1885
   32MOL0     H 4379   3.634   9.952   2.060  0.2443  0.5125  0.5796
   32MOL0     H 4380   3.909   9.858   2.344  0.3661  0.8504  0.5578
   32MOL0     H 4381   3.801   9.808   2.210 -0.4776  2.6540 -3.4605
   32MOL0     H 4382   4.016   9.886   2.134  0.0919 -0.7857  2.1010
   32MOL0     H 4383   3.873   9.974   2.067 -0.0692 -0.8060  0.1927
   32MOL0     H 4384   4.019  10.073   2.320 -0.9457  1.8647 -0.2783
   32MOL0     H 4385   3.927  10.167   2.210 -2.9965 -1.2571  3.5563
   32MOL0     H 4386   4.100  10.113   2.034  0.1579  0.1987 -0.4698
   32MOL0     H 4387   4.197  10.025   2.165 -1.7792 -3.2578 -4.1149
   32MOL0     H 4388   4.120  10.309   2.165 -2.8602 -2.5194  0.2787
   32MOL0     H 4389   4.234  10.218   2.273  2.7276 -2.9801 -0.8792
   32MOL0     H 4390   4.237  10.305   1.990  1.1557 -0.3875  0.1548
   32MOL0     H 4391   4.359  10.183   2.044 -1.0128 -0.6786  0.7578
   32MOL0     H 4392   4.344  10.467   2.123 -0.2957  0.2007  0.9725
   32MOL0     H 4393   4.481  10.380   2.049 -0.3302 -2.4344 -2.3841
   32MOL0     H 4394   4.394  10.365   2.334  1.1894  1.9921  0.8368
   32MOL0     H 4395   4.557  10.393   2.280  0.6276 -1.8930  0.5273
   32MOL0     H 4396   3.574  10.018   2.478  2.1533 -0.7205 -0.1465
   32MOL0     H 4397   3.328   9.962   2.453  0.0274 -0.7254  0.2238
   32MOL0     H 4398   2.987  10.181   1.989 -1.0660  0.5264 -1.1185
   32MOL0     H 4399   2.737  10.159   1.968  0.7260  0.9201  0.7914
   32MOL0     H 4400   1.054   9.134   0.988 -3.1962  0.0255 -2.2657
   32MOL0     H 4401   0.931   9.250   0.816 -0.5184 -0.1465 -0.2158
   32MOL0     H 4402   0.632   9.483   0.663 -5.3958 -0.5378 -1.9644
   32MOL0     H 4403   0.434   9.586   0.558  2.3248 -2.1986 -1.6624
   32MOL0     H 4404   0.428  10.021   0.509  2.8854 -1.9322  2.9247
   32MOL0     H 4405   0.262   9.969   0.448  3.4725  3.4723 -2.5583
   32MOL0     H 4406   0.290  10.115   0.664  1.2572 -1.4360 -1.2991
   32MOL0     H 4407   0.334   9.979   0.741  0.8724 -1.3003 -1.2868
   32MOL0     H 4408   0.083   9.948   0.585 -0.2746 -1.8306  0.8560
   32MOL0     H 4409   0.142   9.877   0.740 -2.0534 -1.8009 -0.4503
   32MOL0     H 4410  -0.053  10.034   0.769 -0.6149 -0.9800  1.6447
   32MOL0     H 4411   0.057  10.169   0.722  0.6731 -1.4381 -2.2070
   32MOL0     H 4412   0.127  10.087   1.131  0.3411 -0.9864 -0.1129
   32MOL0     H 4413   0.574   9.976   0.686  3.5613  0.6163  2.3333
   32MOL0     H 4414   0.821   9.841   0.916  0.9707  2.9212  1.8216
   32MOL0     H 4415   0.876   9.915   0.757 -0.3933 -0.0821 -0.2984
   32MOL0     H 4416   0.757   9.985   0.859  0.4762 -0.2637  0.8217
   33MOL0     O 4417   6.313   9.404   1.792 -0.0107 -0.2822 -0.1626
   33MOL0     C 4418   6.258   9.522   1.784 -0.6581  0.2655  0.6002
   33MOL0     O 4419   6.323   9.635   1.736 -0.5135  0.1387 -0.7807
   33MOL0     C 4420   6.455   9.625   1.709 -0.1313  0.1531  0.1139
   33MOL0     C 4421   6.499   9.597   1.577  0.5874 -0.2465 -0.7169
   33MOL0     C 4422   6.632   9.572   1.565 -0.0225  0.0816  0.0934
   33MOL0     C 4423   6.717   9.578   1.672 -0.0380  0.0682 -0.0074
   33MOL0     O 4424   6.853   9.545   1.660 -0.1610 -0.2365 -1.5102
   33MOL0     C 4425   6.917   9.612   1.551  0.1573 -0.2475  0.5774
   33MOL0     C 4426   7.070   9.612   1.570  0.6958  0.0211  0.1335
   33MOL0     C 4427   7.143   9.698   1.465 -0.8374  0.3536  0.2663
   33MOL0     C 4428   7.266   9.775   1.520  0.4262  0.2479  0.2701
   33MOL0     C 4429   7.349   9.835   1.401  0.3485  0.2022 -0.6377
   33MOL0     C 4430   7.476   9.894   1.455 -1.1095  0.3974  0.1372
   33MOL0     C 4431   7.566   9.946   1.347 -0.3713  0.0011  0.9000
   33MOL0     C 4432   7.712   9.966   1.384  0.9358 -0.5541  0.3974
   33MOL0     N 4433   7.790  10.036   1.283 -0.1628  0.8101 -0.2985
   33MOL0     C 4434   7.815   9.991   1.156 -0.2699  0.9257 -0.4551
   33MOL0     C 4435   7.898  10.086   1.105 -0.7949 -0.1984  0.8618
   33MOL0     C 4436   7.946  10.099   0.962 -0.6779  0.6904 -0.6290
   33MOL0     C 4437   8.086  10.154   0.967 -0.0968  0.0270 -0.1299
   33MOL0     C 4438   8.104  10.311   0.966 -0.3094 -0.4964  0.1990
   33MOL0     C 4439   8.247  10.359   0.924  0.7226 -0.0905 -0.4059
   33MOL0     O 4440   8.345  10.302   1.022  0.3840 -1.2747  0.7789
   33MOL0     C 4441   8.468  10.270   0.972  1.4132  0.6991  0.5024
   33MOL0     C 4442   8.526  10.321   0.861 -0.2783 -0.0254  0.2034
   33MOL0     C 4443   8.648  10.282   0.806  0.2209 -0.5493 -0.2517
   33MOL0     C 4444   8.697  10.367   0.697 -0.2854 -0.0986  1.1207
   33MOL0     C 4445   8.729  10.193   0.885 -0.6743 -0.2434  1.9697
   33MOL0     C 4446   8.867  10.162   0.842 -0.0825 -0.5170 -0.1448
   33MOL0     O 4447   8.926  10.209   0.731  0.4346 -0.2590 -0.1252
   33MOL0     C 4448   9.061  10.232   0.728  0.2794 -0.1236  0.0460
   33MOL0     C 4449   9.110  10.366   0.734 -0.1791  0.8460 -0.6225
   33MOL0     C 4450   9.246  10.389   0.723 -0.3712  0.1881  0.3984
   33MOL0     C 4451   9.339  10.284   0.720 -0.7700 -0.7009  0.0312
   33MOL0     O 4452   9.464  10.324   0.687  0.4237 -0.2524 -0.5986
   33MOL0     C 4453   9.572  10.234   0.726  0.4837  0.6699 -0.1431
   33MOL0     C 4454   9.692  10.333   0.747 -0.1130 -0.2161  0.2265
   33MOL0     C 4455   9.820  10.257   0.773  0.6532  0.0930 -0.4053
   33MOL0     C 4456   9.937  10.343   0.816  0.2101 -0.1618 -0.6539
   33MOL0     C 4457  10.055  10.274   0.885  0.2377  0.4361 -0.5020
   33MOL0     C 4458  10.146  10.376   0.962 -0.0106 -0.1462  0.3067
   33MOL0     C 4459  10.279  10.307   0.991 -0.2360  0.7052 -0.5962
   33MOL0     C 4460  10.390  10.407   1.007  0.3945 -0.7509 -0.6548
   33MOL0    Cl 4461  10.378  10.484   1.167 -0.1382 -0.1904  0.2071
   33MOL0     C 4462   9.293  10.155   0.730  0.8950 -0.3712  0.3928
   33MOL0     C 4463   9.153  10.128   0.727  0.9954  0.3665 -0.2363
   33MOL0     O 4464   8.921  10.089   0.926  0.3226  0.6002 -0.1944
   33MOL0     C 4465   8.677  10.153   1.011 -0.0819 -0.8445  0.3953
   33MOL0     C 4466   8.545  10.179   1.048  0.8357  0.1547  0.3118
   33MOL0     N 4467   7.926  10.179   1.209  0.0046 -0.0614 -0.1898
   33MOL0     N 4468   7.862  10.145   1.316 -0.7959 -1.0543 -0.2554
   33MOL0     C 4469   6.676   9.607   1.801  0.0737  0.1628 -0.1031
   33MOL0     C 4470   6.540   9.629   1.821 -0.0307 -0.2107  0.5104
   33MOL0     C 4471   6.121   9.539   1.846  0.2911 -1.2023 -0.2909
   33MOL0     C 4472   6.086   9.672   1.876  0.3532 -0.3479  0.3871
   33MOL0     C 4473   5.968   9.707   1.931  1.8394  0.2454 -0.4433
   33MOL0     C 4474   5.883   9.613   1.986  0.6524 -0.8356 -0.2326
   33MOL0     O 4475   5.770   9.663   2.057 -0.0980  0.7381 -0.5714
   33MOL0     C 4476   5.675   9.565   2.114 -0.0097 -0.6516  0.3190
   33MOL0     C 4477   5.546   9.629   2.118 -0.6339 -0.3587 -1.0202
   33MOL0     C 4478   5.544   9.741   2.225  1.1889  0.1988 -0.0743
   33MOL0     C 4479   5.469   9.690   2.358 -0.3743 -1.3954  0.7216
   33MOL0     C 4480   5.538   9.598   2.444 -1.0202 -0.0844  0.5928
   33MOL0     C 4481   5.611   9.535   2.524  0.2026 -0.7074 -0.0554
   33MOL0     C 4482   5.916   9.479   1.964  0.3771 -0.1161  0.0794
   33MOL0     C 4483   6.034   9.440   1.894 -1.0831 -0.0201  0.3301
   33MOL0     C 4484   6.034   9.290   1.848  0.0741  0.2030  0.5528
   33MOL0     H 4485   6.430   9.595   1.493 -3.5895 -1.8007  2.4433
   33MOL0     H 4486   6.662   9.556   1.462  0.2092  1.1353 -0.0140
   33MOL0     H 4487   6.882   9.715   1.538 -0.8665 -0.8966 -2.5523
   33MOL0     H 4488   6.903   9.567   1.453  0.9609 -1.9835  1.2162
   33MOL0     H 4489   7.105   9.643   1.669  2.8158  2.6058 -1.3042
   33MOL0     H 4490   7.113   9.512   1.558 -0.4052 -0.1537 -3.9466
   33MOL0     H 4491   7.169   9.631   1.383 -4.2609 -2.5264  1.2542
   33MOL0     H 4492   7.071   9.771   1.426 -1.0481 -1.0232 -2.0685
   33MOL0     H 4493   7.245   9.853   1.594  2.8972  2.0578 -0.7945
   33MOL0     H 4494   7.324   9.692   1.562 -0.5978 -0.1737  0.8942
   33MOL0     H 4495   7.292   9.917   1.356 -0.6892  0.3878  0.9295
   33MOL0     H 4496   7.365   9.756   1.327  0.1872  1.4106 -2.0049
   33MOL0     H 4497   7.440   9.980   1.513  1.3702  1.5124  0.1718
   33MOL0     H 4498   7.528   9.830   1.526  0.8229  1.0620 -0.6258
   33MOL0     H 4499   7.527  10.047   1.331  0.0318 -0.1100 -1.0815
   33MOL0     H 4500   7.551   9.892   1.253  3.2497  1.0048 -0.4632
   33MOL0     H 4501   7.712  10.026   1.476 -3.5033  1.5114 -0.7054
   33MOL0     H 4502   7.750   9.866   1.411 -1.9557 -1.9102 -0.2164
   33MOL0     H 4503   7.755   9.914   1.109  1.9961 -0.0222 -1.9351
   33MOL0     H 4504   7.871  10.160   0.910 -2.1857  0.5546  1.2918
   33MOL0     H 4505   7.956  10.005   0.907  2.7347  1.6510 -1.8471
   33MOL0     H 4506   8.147  10.114   1.048 -0.7302  1.4662  1.1094
   33MOL0     H 4507   8.131  10.116   0.874 -1.1186  0.3808 -0.7920
   33MOL0     H 4508   8.033  10.350   0.892  0.5128  1.6793  0.4814
   33MOL0     H 4509   8.075  10.359   1.060 -1.5051  3.3243 -1.8904
   33MOL0     H 4510   8.265  10.338   0.818 -0.2893  1.4690 -0.9225
   33MOL0     H 4511   8.253  10.469   0.929 -2.6420  0.2482 -1.4941
   33MOL0     H 4512   8.473  10.406   0.821 -0.5372  0.2890  1.1781
   33MOL0     H 4513   8.724  10.315   0.605 -1.7888 -1.0125  1.1675
   33MOL0     H 4514   8.767  10.442   0.736 -2.6648  1.3381  2.9475
   33MOL0     H 4515   8.612  10.426   0.660 -1.2606 -1.1206  1.6590
   33MOL0     H 4516   9.045  10.452   0.718 -2.4378 -0.8485 -1.1356
   33MOL0     H 4517   9.290  10.488   0.713 -1.2970  0.4701 -1.4538
   33MOL0     H 4518   9.544  10.195   0.824 -0.3684  1.8031  0.0806
   33MOL0     H 4519   9.580  10.152   0.654 -4.9060 -0.0078 -0.3970
   33MOL0     H 4520   9.704  10.402   0.663  1.1167  0.1384  0.6704
   33MOL0     H 4521   9.663  10.397   0.831  2.4430  0.4195  0.6942
   33MOL0     H 4522   9.856  10.203   0.686  1.3893 -1.9434  1.0767
   33MOL0     H 4523   9.789  10.191   0.854  0.2965 -0.6582 -1.1530
   33MOL0     H 4524   9.901  10.425   0.878 -0.4406  0.7396 -2.1796
   33MOL0     H 4525   9.973  10.404   0.733  0.1360  0.2571 -0.3796
   33MOL0     H 4526  10.027  10.197   0.956  1.5738 -1.0888 -1.5690
   33MOL0     H 4527  10.109  10.217   0.809 -0.2525 -1.7979  0.7429
   33MOL0     H 4528  10.106  10.418   1.055 -0.4907  3.4713 -1.3779
   33MOL0     H 4529  10.150  10.461   0.895 -3.3390  0.3714  0.6262
   33MOL0     H 4530  10.306  10.246   0.904  0.5527 -0.0391  0.1498
   33MOL0     H 4531  10.269  10.243   1.079 -4.9506 -0.1060 -1.4646
   33MOL0     H 4532  10.393  10.473   0.919 -0.0108  0.3444  0.1277
   33MOL0     H 4533  10.484  10.352   1.002  1.1194  0.3145  0.6832
   33MOL0     H 4534   9.363  10.073   0.740 -0.1887 -1.9424 -3.3687
   33MOL0     H 4535   9.112  10.029   0.744  0.3918  1.2054  4.5972
   33MOL0     H 4536   8.744  10.098   1.076  0.9707  1.8506  1.7768
   33MOL0     H 4537   8.503  10.139   1.140  0.0731  1.7208  0.6869
   33MOL0     H 4538   6.739   9.621   1.889 -1.0167  3.5739  0.2688
   33MOL0     H 4539   6.498   9.650   1.919  1.3622  1.3373  0.8199
   33MOL0     H 4540   6.142   9.753   1.829  1.0439 -0.6548  0.6666
   33MOL0     H 4541   5.947   9.814   1.937  2.2716  0.3027  0.1911
   33MOL0     H 4542   5.666   9.480   2.046  2.7721  1.0206 -2.4329
   33MOL0     H 4543   5.717   9.534   2.210  0.5501 -2.5944 -0.5082
   33MOL0     H 4544   5.476   9.546   2.135  0.3146 -1.4455 -2.2119
   33MOL0     H 4545   5.523   9.676   2.022  1.3037  2.6267 -0.1548
   33MOL0     H 4546   5.641   9.783   2.252  1.1832  0.0964  0.1012
   33MOL0     H 4547   5.490   9.834   2.203 -1.2424 -0.0296  3.9562
   33MOL0     H 4548   5.368   9.658   2.330  0.1052 -1.8352 -0.6151
   33MOL0     H 4549   5.461   9.782   2.417 -3.7186  0.3408 -2.0221
   33MOL0     H 4550   5.688   9.476   2.569  1.3486 -0.7353 -1.9250
   33MOL0     H 4551   5.859   9.395   2.003  2.2339 -0.0573  3.2748
   33MOL0     H 4552   6.055   9.227   1.935 -1.9384 -0.5528  0.5466
   33MOL0     H 4553   5.929   9.266   1.830 -0.1710  1.1562  0.6769
   33MOL0     H 4554   6.106   9.258   1.772 -0.4762 -0.0756  0.1496
   34MOL0     O 4555   3.259   3.896   6.784 -0.3398  0.5572  0.8211
   34MOL0     C 4556   3.352   3.813   6.779 -0.3650  0.8209  0.0060
   34MOL0     O 4557   3.338   3.679   6.761 -0.6560  0.4007  0.1153
   34MOL0     C 4558   3.215   3.616   6.778  0.5853 -0.6726 -0.7260
   34MOL0     C 4559   3.200   3.500   6.706 -0.9229  0.0691 -0.1687
   34MOL0     C 4560   3.082   3.418   6.712 -0.1259 -0.1111 -0.6787
   34MOL0     C 4561   2.973   3.463   6.789 -0.5271 -0.0155  0.2215
   34MOL0     O 4562   2.874   3.373   6.797  0.5119 -0.2245 -0.1392
   34MOL0     C 4563   2.778   3.387   6.904  0.0023 -0.0268  0.0343
   34MOL0     C 4564   2.658   3.305   6.860 -0.0421  0.2683 -0.2527
   34MOL0     C 4565   2.553   3.287   6.973  1.0196 -0.7859 -0.1575
   34MOL0     C 4566   2.435   3.208   6.935  1.4799  0.9930 -0.0946
   34MOL0     C 4567   2.354   3.181   7.064  0.2453  0.4172 -0.2592
   34MOL0     C 4568   2.217   3.140   7.013  0.3713 -0.4410  0.5386
   34MOL0     C 4569   2.123   3.113   7.138 -0.8173 -0.1053  0.2494
   34MOL0     C 4570   2.145   2.973   7.193  0.1628 -0.7239  0.4263
   34MOL0     N 4571   2.092   2.945   7.327 -0.0702  0.0270  0.1204
   34MOL0     C 4572   2.157   2.978   7.444  0.6454  0.2232  0.1685
   34MOL0     C 4573   2.056   2.967   7.541 -0.0556  0.0023  0.4246
   34MOL0     C 4574   2.072   3.000   7.691  0.1265 -0.4573  0.3440
   34MOL0     C 4575   2.180   2.911   7.747  0.9379 -0.7406  0.5259
   34MOL0     C 4576   2.226   2.925   7.890 -0.3708 -0.1807 -0.2629
   34MOL0     C 4577   2.276   3.070   7.927  1.4253  0.4845 -0.3502
   34MOL0     O 4578   2.378   3.118   7.840 -0.3030  0.1619  0.0217
   34MOL0     C 4579   2.442   3.241   7.855 -1.2921 -0.1113  1.4253
   34MOL0     C 4580   2.534   3.293   7.757  0.2329  0.0596  0.3100
   34MOL0     C 4581   2.573   3.433   7.759 -0.6602 -0.0176 -0.3263
   34MOL0     C 4582   2.632   3.484   7.631  0.5453  0.4860 -0.3188
   34MOL0     C 4583   2.556   3.510   7.879  0.6415 -0.5994 -0.3120
   34MOL0     C 4584   2.611   3.642   7.918 -0.2955 -0.1883 -0.6189
   34MOL0     O 4585   2.540   3.713   8.008  0.1947 -0.6099 -0.2885
   34MOL0     C 4586   2.584   3.826   8.075 -0.3929 -0.0525  0.2684
   34MOL0     C 4587   2.490   3.882   8.159 -0.1094  0.0475  0.1342
   34MOL0     C 4588   2.525   3.999   8.239 -0.3103  0.7609  0.4532
   34MOL0     C 4589   2.651   4.061   8.221  0.4851  0.4141  0.4014
   34MOL0     O 4590   2.687   4.181   8.280  0.3845 -0.3565  0.5787
   34MOL0     C 4591   2.584   4.272   8.327 -0.1291 -0.6728 -0.7624
   34MOL0     C 4592   2.639   4.412   8.304  0.8324  0.0101 -0.0232
   34MOL0     C 4593   2.754   4.454   8.405 -0.2711  0.1453 -0.4842
   34MOL0     C 4594   2.709   4.562   8.515 -0.3017 -0.9629 -0.1592
   34MOL0     C 4595   2.838   4.625   8.563 -0.2039 -0.0353  0.1451
   34MOL0     C 4596   2.819   4.724   8.677 -0.0886  0.2274 -0.5894
   34MOL0     C 4597   2.700   4.831   8.669  0.3335  0.1156  0.8032
   34MOL0     C 4598   2.713   4.928   8.789  0.9206  0.0298 -0.6065
   34MOL0    Cl 4599   2.572   5.052   8.795 -0.5027  0.2053 -0.1781
   34MOL0     C 4600   2.739   4.015   8.121 -0.2919 -0.1173 -1.8216
   34MOL0     C 4601   2.712   3.894   8.060  0.7645 -0.1084 -0.6019
   34MOL0     O 4602   2.711   3.681   7.853 -0.3449 -0.3944 -0.4926
   34MOL0     C 4603   2.485   3.448   7.983  0.2040 -0.2262  0.3350
   34MOL0     C 4604   2.426   3.324   7.965 -0.1250  0.0984  0.4778
   34MOL0     N 4605   1.942   2.907   7.476 -0.0966  0.3786 -0.1292
   34MOL0     N 4606   1.962   2.900   7.349  0.0227 -0.5333 -0.0864
   34MOL0     C 4607   2.992   3.569   6.876 -0.2848 -0.1747  0.2971
   34MOL0     C 4608   3.109   3.647   6.864 -0.2028 -0.3999  0.0883
   34MOL0     C 4609   3.495   3.855   6.798 -0.0924 -0.2882 -0.4444
   34MOL0     C 4610   3.523   3.975   6.881 -0.5484 -0.1336  0.4329
   34MOL0     C 4611   3.654   4.015   6.900  0.0093 -0.4644 -0.2752
   34MOL0     C 4612   3.754   3.942   6.844  0.6668 -0.3783  0.7232
   34MOL0     O 4613   3.891   3.975   6.849  0.5372  0.3124 -0.4052
   34MOL0     C 4614   3.923   4.073   6.951 -0.2759 -0.0212 -0.5667
   34MOL0     C 4615   4.076   4.109   6.945 -0.1482  0.1966 -0.8343
   34MOL0     C 4616   4.160   3.989   7.002  0.3227  0.0090 -0.7595
   34MOL0     C 4617   4.186   3.886   6.888  0.1936  0.0704 -0.5805
   34MOL0     C 4618   4.259   3.762   6.926  0.3312 -0.6508  0.4488
   34MOL0     C 4619   4.314   3.663   6.969  0.1453  0.5218  0.1146
   34MOL0     C 4620   3.727   3.826   6.764  0.0614  0.1031 -0.5658
   34MOL0     C 4621   3.599   3.782   6.740 -0.5910 -1.0478 -0.7620
   34MOL0     C 4622   3.591   3.673   6.643  0.6612  0.2023 -0.0224
   34MOL0     H 4623   3.280   3.462   6.644 -0.5478  0.6067 -0.0179
   34MOL0     H 4624   3.079   3.334   6.644  1.1472  1.5741 -2.9488
   34MOL0     H 4625   2.750   3.493   6.911  1.0586  0.2011  1.3562
   34MOL0     H 4626   2.825   3.349   6.995  1.1126 -1.2743 -1.0239
   34MOL0     H 4627   2.611   3.359   6.777  0.2724 -0.0900 -0.6675
   34MOL0     H 4628   2.676   3.200   6.833 -2.3729 -0.7456  1.7382
   34MOL0     H 4629   2.593   3.236   7.061  0.6376  0.3112  0.6740
   34MOL0     H 4630   2.532   3.386   7.014  2.2360  0.0655 -1.4905
   34MOL0     H 4631   2.370   3.270   6.873  1.4919  2.8956  1.7123
   34MOL0     H 4632   2.465   3.113   6.889 -1.7005 -0.0958 -0.1683
   34MOL0     H 4633   2.347   3.276   7.118  2.6915  0.6292 -0.1962
   34MOL0     H 4634   2.402   3.102   7.123  0.2771 -0.9384 -2.0068
   34MOL0     H 4635   2.169   3.223   6.960  0.8332 -0.2653  0.3888
   34MOL0     H 4636   2.223   3.063   6.936 -0.7546  1.0699 -1.1366
   34MOL0     H 4637   2.020   3.127   7.103 -0.3825  1.7658 -0.3972
   34MOL0     H 4638   2.148   3.190   7.212 -1.1437  0.0580  0.1898
   34MOL0     H 4639   2.089   2.906   7.128 -0.2453 -0.2083  0.2462
   34MOL0     H 4640   2.250   2.942   7.203  0.3717 -0.5138 -0.9853
   34MOL0     H 4641   2.261   3.002   7.462  0.8464 -0.9002  0.5894
   34MOL0     H 4642   1.981   2.979   7.748 -1.4538 -0.5516 -2.0885
   34MOL0     H 4643   2.097   3.106   7.704 -0.2328 -0.2909 -0.2933
   34MOL0     H 4644   2.151   2.807   7.728 -1.1497  0.1736 -1.9780
   34MOL0     H 4645   2.265   2.933   7.682  0.1939  0.6317 -0.0240
   34MOL0     H 4646   2.158   2.887   7.966 -1.2369  2.7733  0.5801
   34MOL0     H 4647   2.312   2.858   7.903 -0.2333 -0.2010 -1.2554
   34MOL0     H 4648   2.202   3.149   7.915  2.9493  1.9990 -0.2345
   34MOL0     H 4649   2.319   3.072   8.028  1.0814  2.1090 -0.2248
   34MOL0     H 4650   2.547   3.216   7.681 -1.6078 -1.1468  1.1373
   34MOL0     H 4651   2.600   3.589   7.630 -2.5747 -0.3413  0.6289
   34MOL0     H 4652   2.596   3.427   7.545 -1.8967  0.4859  0.6274
   34MOL0     H 4653   2.741   3.478   7.640  0.4730  0.4495  0.6599
   34MOL0     H 4654   2.400   3.835   8.199 -0.1492 -1.3810 -1.5178
   34MOL0     H 4655   2.447   4.032   8.307  1.7820  4.1401  1.4805
   34MOL0     H 4656   2.483   4.265   8.286 -1.1657 -1.8086  1.8064
   34MOL0     H 4657   2.571   4.259   8.434  0.5807 -1.5733 -0.7679
   34MOL0     H 4658   2.657   4.423   8.197 -2.9612 -2.6326 -1.1542
   34MOL0     H 4659   2.559   4.485   8.322  1.2936  0.6993 -0.7289
   34MOL0     H 4660   2.833   4.493   8.340 -0.5700 -0.8067 -1.4565
   34MOL0     H 4661   2.799   4.364   8.448 -0.8380 -1.2521 -2.6414
   34MOL0     H 4662   2.656   4.524   8.602 -0.2397  3.4033  2.0811
   34MOL0     H 4663   2.647   4.638   8.466  1.6072  0.1822 -0.9459
   34MOL0     H 4664   2.911   4.549   8.591 -2.3834 -2.4277 -0.2892
   34MOL0     H 4665   2.882   4.679   8.479 -0.2629  2.5669  1.6557
   34MOL0     H 4666   2.912   4.779   8.694  1.0710 -1.9257  0.4371
   34MOL0     H 4667   2.802   4.656   8.762  2.3011 -0.2603 -0.4371
   34MOL0     H 4668   2.606   4.775   8.662  1.1581 -1.3311  0.8710
   34MOL0     H 4669   2.702   4.895   8.580  1.0900  0.6843  1.2183
   34MOL0     H 4670   2.806   4.984   8.799  2.4718 -2.5895  0.5821
   34MOL0     H 4671   2.705   4.866   8.878  3.8729 -0.5572 -0.6793
   34MOL0     H 4672   2.835   4.063   8.109 -0.6364  0.6864 -1.4800
   34MOL0     H 4673   2.787   3.863   7.989  1.4053 -1.3431  0.5696
   34MOL0     H 4674   2.461   3.509   8.069 -0.1553  1.3117 -0.8125
   34MOL0     H 4675   2.360   3.296   8.047 -2.6301  2.0842 -0.6938
   34MOL0     H 4676   2.926   3.600   6.955 -1.4356 -1.0372 -0.2924
   34MOL0     H 4677   3.137   3.718   6.941  2.4297 -0.3276 -0.8682
   34MOL0     H 4678   3.448   4.047   6.912 -2.0866 -1.4004 -0.1626
   34MOL0     H 4679   3.656   4.094   6.974 -0.9211 -2.2805  1.8185
   34MOL0     H 4680   3.862   4.164   6.941  1.1779  1.1430  0.6633
   34MOL0     H 4681   3.900   4.036   7.052  3.7676 -0.6261  0.2905
   34MOL0     H 4682   4.120   4.191   7.003 -0.2244 -0.0807 -0.3767
   34MOL0     H 4683   4.101   4.141   6.843  0.2990 -3.3039 -1.9505
   34MOL0     H 4684   4.257   4.026   7.035  1.1703 -2.5878 -0.0978
   34MOL0     H 4685   4.108   3.946   7.088 -0.6045 -0.9590 -1.7616
   34MOL0     H 4686   4.235   3.924   6.797  2.0027 -2.2262 -0.6443
   34MOL0     H 4687   4.087   3.848   6.861  0.0422  0.6996 -0.9426
   34MOL0     H 4688   4.359   3.581   7.022  3.1229 -0.1562 -3.1067
   34MOL0     H 4689   3.811   3.779   6.713  1.7711  1.1022  1.1691
   34MOL0     H 4690   3.611   3.579   6.695 -1.4306  0.4534  1.3811
   34MOL0     H 4691   3.492   3.672   6.597 -0.0376  2.4901  1.2691
   34MOL0     H 4692   3.664   3.688   6.564  0.2068  4.9001  0.1623
   35MOL0     O 4693   3.502   4.464   3.671  0.3094 -0.1800 -0.2716
   35MOL0     C 4694   3.412   4.425   3.596  0.0283  1.0428  0.1289
   35MOL0     O 4695   3.443   4.359   3.480  0.2967  0.4722  0.2858
   35MOL0     C 4696   3.345   4.332   3.385 -0.1059 -0.4181 -0.5114
   35MOL0     C 4697   3.258   4.427   3.330  0.1008  0.0868  0.0427
   35MOL0     C 4698   3.158   4.394   3.243 -0.1514 -0.3044 -0.0990
   35MOL0     C 4699   3.142   4.261   3.207  0.2080 -0.3690  0.1545
   35MOL0     O 4700   3.034   4.217   3.133 -0.2408 -0.5589 -0.2410
   35MOL0     C 4701   3.003   4.292   3.015  0.7162  0.2625 -0.2115
   35MOL0     C 4702   2.887   4.219   2.933 -0.1371  0.4347  0.6105
   35MOL0     C 4703   2.866   4.305   2.807 -0.0777  0.9750 -0.0607
   35MOL0     C 4704   2.760   4.236   2.717 -0.6934 -0.3106 -0.5049
   35MOL0     C 4705   2.750   4.328   2.593  0.0324 -0.7276 -0.1490
   35MOL0     C 4706   2.625   4.280   2.526  0.0901 -0.3647  1.1864
   35MOL0     C 4707   2.599   4.349   2.396  0.6354 -0.2078  0.2884
   35MOL0     C 4708   2.545   4.493   2.404  0.2605  0.0563  0.2303
   35MOL0     N 4709   2.660   4.584   2.412  0.1085  0.1590  0.2395
   35MOL0     C 4710   2.746   4.621   2.309  1.0385  0.2147  0.9977
   35MOL0     C 4711   2.835   4.707   2.364  1.0324  0.1172  0.9406
   35MOL0     C 4712   2.945   4.768   2.286  0.1288  0.0405  0.1305
   35MOL0     C 4713   3.077   4.711   2.339 -0.2381  0.8428  0.0828
   35MOL0     C 4714   3.191   4.811   2.311  0.2828 -0.8674 -0.7440
   35MOL0     C 4715   3.320   4.778   2.383 -0.0294 -0.9271 -0.3062
   35MOL0     O 4716   3.294   4.784   2.524 -0.1968 -0.2310 -0.3152
   35MOL0     C 4717   3.409   4.797   2.594  0.8443 -0.9759 -0.0412
   35MOL0     C 4718   3.485   4.915   2.579  0.6611  0.6607 -0.9050
   35MOL0     C 4719   3.602   4.934   2.655 -0.7674  0.2330  0.4798
   35MOL0     C 4720   3.686   5.057   2.627  1.0672  0.2119  0.0405
   35MOL0     C 4721   3.638   4.836   2.750 -0.2855 -1.3342  0.2279
   35MOL0     C 4722   3.751   4.848   2.846  0.5390 -0.2071  0.4152
   35MOL0     O 4723   3.764   4.750   2.942 -0.4524 -0.1383 -0.0543
   35MOL0     C 4724   3.840   4.786   3.053 -0.3968 -0.2436  0.8417
   35MOL0     C 4725   3.941   4.702   3.098  0.3082 -0.3167  0.4755
   35MOL0     C 4726   4.021   4.745   3.200 -0.0894  0.0770 -0.4422
   35MOL0     C 4727   3.993   4.875   3.254  0.2538 -0.0395 -0.3084
   35MOL0     O 4728   4.079   4.928   3.338 -0.1268  0.2914  0.1303
   35MOL0     C 4729   4.040   5.037   3.425  0.5373  0.1915  0.6709
   35MOL0     C 4730   4.147   5.044   3.522 -1.0052 -0.6912 -0.3344
   35MOL0     C 4731   4.282   5.096   3.471  0.2100  0.1698 -0.3274
   35MOL0     C 4732   4.394   5.082   3.574  0.7978  0.6073 -0.4600
   35MOL0     C 4733   4.524   5.137   3.524  0.2556 -0.1707  0.0769
   35MOL0     C 4734   4.642   5.098   3.610 -0.2381 -0.1384  0.4818
   35MOL0     C 4735   4.771   5.120   3.535  0.4715  0.2958  0.1966
   35MOL0     C 4736   4.878   5.020   3.571 -0.3435 -0.1430 -0.4796
   35MOL0    Cl 4737   4.933   5.025   3.745 -0.4208  0.3383 -0.3355
   35MOL0     C 4738   3.876   4.950   3.216 -0.0466  0.3841 -0.1217
   35MOL0     C 4739   3.798   4.907   3.111 -0.8756  0.3494 -0.5137
   35MOL0     O 4740   3.833   4.938   2.837  0.4840 -1.1112  0.2848
   35MOL0     C 4741   3.563   4.720   2.762  0.8434  0.0813  0.0427
   35MOL0     C 4742   3.448   4.703   2.686  0.9049 -0.8386 -0.7468
   35MOL0     N 4743   2.792   4.744   2.486  0.5284 -0.1676  0.0875
   35MOL0     N 4744   2.692   4.663   2.518 -0.9591 -0.1199 -0.1617
   35MOL0     C 4745   3.233   4.161   3.253 -0.6706  0.6028  0.1614
   35MOL0     C 4746   3.337   4.204   3.346 -0.2569  0.0750 -0.3869
   35MOL0     C 4747   3.278   4.454   3.640 -0.4707 -0.1661  1.1524
   35MOL0     C 4748   3.179   4.353   3.622  0.1695  0.0970 -0.2649
   35MOL0     C 4749   3.046   4.374   3.652  0.7350 -0.6995  0.1758
   35MOL0     C 4750   3.000   4.501   3.692 -0.4237  0.3496  0.8098
   35MOL0     O 4751   2.873   4.513   3.735 -0.3920 -0.3988 -0.3355
   35MOL0     C 4752   2.812   4.644   3.741  0.9245  0.6841 -0.1186
   35MOL0     C 4753   2.810   4.683   3.885 -0.4647 -0.1696  0.2346
   35MOL0     C 4754   2.686   4.633   3.958 -0.1448  0.3392  0.5174
   35MOL0     C 4755   2.679   4.684   4.100  0.2861  0.9309 -0.2384
   35MOL0     C 4756   2.672   4.831   4.106 -0.1050 -0.3003 -0.2415
   35MOL0     C 4757   2.666   4.952   4.106  0.0915 -0.2798  0.8501
   35MOL0     C 4758   3.097   4.594   3.712  0.5525  0.1171 -0.2931
   35MOL0     C 4759   3.232   4.582   3.679  0.2922 -0.6617 -0.4445
   35MOL0     C 4760   3.320   4.706   3.697 -0.2660 -0.9534 -0.2397
   35MOL0     H 4761   3.257   4.533   3.356 -0.4075  0.5098 -1.5954
   35MOL0     H 4762   3.077   4.459   3.213  0.8880  0.5275 -1.1901
   35MOL0     H 4763   3.091   4.294   2.950  0.4982 -0.7189 -0.5485
   35MOL0     H 4764   2.988   4.397   3.042  3.1545  0.9455 -1.1609
   35MOL0     H 4765   2.911   4.117   2.905  2.0976  0.4899  2.1213
   35MOL0     H 4766   2.790   4.227   2.983 -0.6770  0.5968 -0.4380
   35MOL0     H 4767   2.828   4.406   2.824  1.4143  1.7759 -1.2875
   35MOL0     H 4768   2.954   4.305   2.742 -1.1340 -1.4074 -1.6646
   35MOL0     H 4769   2.786   4.137   2.680 -2.9057  0.0112 -3.2838
   35MOL0     H 4770   2.665   4.236   2.771 -1.1503 -3.3900 -1.1618
   35MOL0     H 4771   2.840   4.312   2.534  0.3505  0.8865 -0.1468
   35MOL0     H 4772   2.747   4.435   2.615  1.5697 -0.6304 -0.3624
   35MOL0     H 4773   2.631   4.172   2.507 -0.4869 -0.2772  0.4420
   35MOL0     H 4774   2.534   4.282   2.587 -1.9023  1.8704 -1.5727
   35MOL0     H 4775   2.518   4.290   2.354  0.2557 -0.4850  1.3857
   35MOL0     H 4776   2.682   4.346   2.324  0.4552 -1.3708  0.1177
   35MOL0     H 4777   2.493   4.501   2.308  2.0230  0.3157 -0.7470
   35MOL0     H 4778   2.489   4.508   2.496 -0.8172 -1.2759 -0.1835
   35MOL0     H 4779   2.733   4.573   2.212 -2.3794  0.7280  1.0897
   35MOL0     H 4780   2.940   4.876   2.298  2.8649  0.1797  0.8196
   35MOL0     H 4781   2.931   4.738   2.182 -0.8687 -0.4818  0.4046
   35MOL0     H 4782   3.079   4.684   2.445  2.1912  0.2095 -0.0622
   35MOL0     H 4783   3.106   4.615   2.295  1.8803  0.9016  1.2143
   35MOL0     H 4784   3.212   4.804   2.204 -1.0594  0.1375 -1.0902
   35MOL0     H 4785   3.158   4.913   2.334 -1.0722 -0.9851 -2.0553
   35MOL0     H 4786   3.351   4.677   2.356  2.1057 -0.5250  0.4764
   35MOL0     H 4787   3.398   4.843   2.343 -0.6641  0.1549  0.1677
   35MOL0     H 4788   3.442   4.991   2.515 -0.7218  0.5400 -0.1676
   35MOL0     H 4789   3.786   5.032   2.590  0.4819 -1.4245 -0.5255
   35MOL0     H 4790   3.676   5.101   2.726 -1.3691  0.3973 -0.2073
   35MOL0     H 4791   3.633   5.115   2.550 -0.5482 -0.4286  0.6279
   35MOL0     H 4792   3.952   4.610   3.041  0.9972  0.1925 -0.2255
   35MOL0     H 4793   4.105   4.680   3.227 -0.2271  0.2251  0.3441
   35MOL0     H 4794   4.039   5.132   3.371 -0.0658  0.5650  1.3233
   35MOL0     H 4795   3.946   5.018   3.478  0.7793  1.1468  1.4833
   35MOL0     H 4796   4.122   5.121   3.595 -3.2498  0.9415 -2.6700
   35MOL0     H 4797   4.151   4.946   3.572 -1.7842 -1.0749 -1.0112
   35MOL0     H 4798   4.269   5.201   3.443 -0.5413 -0.0119 -0.6807
   35MOL0     H 4799   4.313   5.045   3.380  2.4319  0.6063  0.1286
   35MOL0     H 4800   4.408   4.976   3.592 -0.8351  0.2410 -1.1282
   35MOL0     H 4801   4.358   5.124   3.669 -0.7448 -1.4121 -0.0713
   35MOL0     H 4802   4.532   5.100   3.421 -3.3321  1.1573 -0.8342
   35MOL0     H 4803   4.516   5.246   3.514  1.7345 -0.1256 -1.2020
   35MOL0     H 4804   4.624   4.999   3.652  1.0041 -0.0879  1.1767
   35MOL0     H 4805   4.647   5.154   3.704 -0.6466 -1.2991  1.2210
   35MOL0     H 4806   4.812   5.221   3.545 -0.4758  0.7769 -0.5184
   35MOL0     H 4807   4.746   5.086   3.434  0.2129 -2.8152  1.2110
   35MOL0     H 4808   4.964   5.043   3.508 -0.5242  0.4094 -0.5270
   35MOL0     H 4809   4.848   4.919   3.539 -0.3114 -0.5074  0.6127
   35MOL0     H 4810   3.854   5.046   3.261 -1.3586 -0.1668  0.4531
   35MOL0     H 4811   3.710   4.966   3.086 -2.9371 -0.6075  3.5984
   35MOL0     H 4812   3.577   4.644   2.838 -1.3615 -0.5215 -0.0744
   35MOL0     H 4813   3.390   4.615   2.711 -0.0118 -0.7173 -2.3171
   35MOL0     H 4814   3.221   4.056   3.226  1.3393 -0.6587  3.4471
   35MOL0     H 4815   3.402   4.132   3.394 -0.9265 -0.4632 -0.2536
   35MOL0     H 4816   3.203   4.251   3.593 -2.5029 -0.9543  0.9743
   35MOL0     H 4817   2.978   4.291   3.639  1.9180 -1.5097 -1.0403
   35MOL0     H 4818   2.858   4.722   3.679 -2.4300  1.7045 -1.5319
   35MOL0     H 4819   2.712   4.621   3.705  1.5362 -2.3011 -0.1537
   35MOL0     H 4820   2.805   4.792   3.891 -2.5560 -0.0466 -2.2192
   35MOL0     H 4821   2.897   4.650   3.942 -0.6515 -2.1284 -0.5363
   35MOL0     H 4822   2.595   4.669   3.909 -0.4345  0.6111  1.2444
   35MOL0     H 4823   2.669   4.525   3.960 -0.0310  0.2725 -0.8750
   35MOL0     H 4824   2.775   4.645   4.137  0.7801 -0.8692 -3.0997
   35MOL0     H 4825   2.590   4.646   4.150  0.6057 -0.6977 -0.8353
   35MOL0     H 4826   2.663   5.059   4.099 -0.0473 -0.3745 -3.0301
   35MOL0     H 4827   3.073   4.689   3.757 -0.6921  1.3988 -3.4051
   35MOL0     H 4828   3.416   4.670   3.734 -1.0637 -1.6648  1.2154
   35MOL0     H 4829   3.333   4.746   3.596 -1.2918  1.7581  0.6248
   35MOL0     H 4830   3.277   4.784   3.760  3.8490  1.5848 -0.2189
   36MOL0     O 4831   3.333   4.077   5.461 -0.1042 -0.0805 -0.2189
   36MOL0     C 4832   3.290   4.167   5.536 -0.3668 -0.3795  0.4266
   36MOL0     O 4833   3.372   4.273   5.588 -0.1212  0.4488  0.2344
   36MOL0     C 4834   3.508   4.285   5.559 -0.7406  0.0343  0.2395
   36MOL0     C 4835   3.581   4.345   5.662  0.1849  0.3539  0.6006
   36MOL0     C 4836   3.722   4.356   5.645 -0.0568  0.3209 -0.3146
   36MOL0     C 4837   3.779   4.320   5.531 -1.2870 -0.4336  0.3213
   36MOL0     O 4838   3.914   4.328   5.512 -0.7504  0.1332  0.2869
   36MOL0     C 4839   3.954   4.467   5.518 -0.3283 -0.1088 -0.1525
   36MOL0     C 4840   4.108   4.472   5.477  0.3831  0.3242 -0.1281
   36MOL0     C 4841   4.196   4.406   5.586 -0.1546 -0.5477 -0.6693
   36MOL0     C 4842   4.277   4.289   5.530  0.9469 -0.2664 -1.0427
   36MOL0     C 4843   4.384   4.244   5.621  1.1402 -1.1766  0.3576
   36MOL0     C 4844   4.322   4.178   5.747  0.4715  0.0186  0.0492
   36MOL0     C 4845   4.420   4.104   5.836  0.4326 -0.4307  0.9829
   36MOL0     C 4846   4.351   4.004   5.936 -0.6157 -0.2847  0.1619
   36MOL0     N 4847   4.345   3.873   5.880 -0.4370  0.2992  0.1888
   36MOL0     C 4848   4.225   3.799   5.859  1.0384  0.2565  0.1673
   36MOL0     C 4849   4.269   3.671   5.854  0.9009  0.2587 -0.5171
   36MOL0     C 4850   4.178   3.544   5.852  0.7514 -0.7055  0.8652
   36MOL0     C 4851   4.065   3.547   5.953 -0.7529 -0.2541  0.2056
   36MOL0     C 4852   4.015   3.407   5.994  0.6230 -0.2590 -1.4340
   36MOL0     C 4853   3.926   3.401   6.122 -0.2741  0.4373 -0.3395
   36MOL0     O 4854   4.001   3.448   6.227  0.5425 -0.5797  0.2861
   36MOL0     C 4855   3.970   3.420   6.358 -1.0478 -0.2576 -0.2100
   36MOL0     C 4856   4.059   3.473   6.447 -0.6096  0.2484 -0.6405
   36MOL0     C 4857   4.032   3.486   6.582 -0.3843  0.9060 -0.4396
   36MOL0     C 4858   4.137   3.555   6.676 -0.1069  0.1331  0.8349
   36MOL0     C 4859   3.913   3.418   6.632 -0.7786  0.0254 -0.3477
   36MOL0     C 4860   3.876   3.409   6.778 -0.1794  0.6428 -0.9803
   36MOL0     O 4861   3.761   3.347   6.804 -0.1979 -0.6192 -0.1463
   36MOL0     C 4862   3.727   3.307   6.929 -0.5188  0.9148 -0.9404
   36MOL0     C 4863   3.819   3.253   7.023 -0.4212 -0.0976  0.6490
   36MOL0     C 4864   3.775   3.200   7.140 -0.0236 -1.2925 -0.2542
   36MOL0     C 4865   3.640   3.202   7.182 -0.6343 -0.3903  0.4866
   36MOL0     O 4866   3.612   3.151   7.306 -0.2808 -0.1259  0.3205
   36MOL0     C 4867   3.480   3.139   7.353  0.6579 -0.0045  0.1931
   36MOL0     C 4868   3.410   3.022   7.275  0.3821 -0.1742  0.1551
   36MOL0     C 4869   3.291   2.961   7.346  0.2108  0.4444 -0.4289
   36MOL0     C 4870   3.243   2.831   7.275 -0.2183  0.4046 -0.1314
   36MOL0     C 4871   3.127   2.772   7.350 -0.0757  0.3023 -0.0651
   36MOL0     C 4872   3.004   2.843   7.372  0.3739 -0.1093  0.0823
   36MOL0     C 4873   2.884   2.762   7.422 -1.1738  0.0227 -0.2273
   36MOL0     C 4874   2.755   2.845   7.430 -0.0577 -0.3556 -0.3822
   36MOL0    Cl 4875   2.691   2.885   7.265 -0.0589  0.4811 -0.1913
   36MOL0     C 4876   3.551   3.270   7.092 -0.5150  0.4913  0.0476
   36MOL0     C 4877   3.593   3.322   6.967 -0.0397 -0.4216  0.3307
   36MOL0     O 4878   3.946   3.462   6.872 -0.7126  0.9454  0.0435
   36MOL0     C 4879   3.833   3.362   6.536  0.0822 -0.2649 -0.2218
   36MOL0     C 4880   3.859   3.361   6.400  0.2732 -0.5189  0.2825
   36MOL0     N 4881   4.407   3.672   5.863  0.9893  0.7407  0.3161
   36MOL0     N 4882   4.454   3.791   5.884  0.6124 -0.0608  0.2225
   36MOL0     C 4883   3.710   4.256   5.430  0.2352  0.6078  0.4414
   36MOL0     C 4884   3.572   4.243   5.438  0.4354  0.0522  0.4060
   36MOL0     C 4885   3.143   4.178   5.573  0.4832  0.3954  0.0405
   36MOL0     C 4886   3.103   4.251   5.686  0.1387 -0.5075 -0.1460
   36MOL0     C 4887   2.974   4.263   5.749  0.1445  0.0436  0.6052
   36MOL0     C 4888   2.879   4.184   5.684  0.9429 -0.9883 -0.3650
   36MOL0     O 4889   2.753   4.178   5.732  0.0777  0.3174  0.7270
   36MOL0     C 4890   2.719   4.183   5.872 -0.8580  0.3471  0.3109
   36MOL0     C 4891   2.679   4.043   5.916 -0.0705 -0.7445 -0.3233
   36MOL0     C 4892   2.801   3.947   5.902  0.0156 -0.5364  0.7784
   36MOL0     C 4893   2.791   3.816   5.987  0.1826 -0.4182  0.3679
   36MOL0     C 4894   2.664   3.753   5.952 -0.2237  0.8570 -0.3128
   36MOL0     C 4895   2.556   3.689   5.946  0.5743 -0.1474  0.0182
   36MOL0     C 4896   2.904   4.123   5.556  0.3013 -0.8914 -0.2044
   36MOL0     C 4897   3.036   4.116   5.505 -0.6070  0.2892 -0.1946
   36MOL0     C 4898   3.051   4.059   5.366  0.0352  0.1252 -0.5841
   36MOL0     H 4899   3.525   4.371   5.751 -2.3804 -0.8739 -0.5685
   36MOL0     H 4900   3.780   4.391   5.730  1.8472 -3.0950  0.0027
   36MOL0     H 4901   3.934   4.513   5.615  1.2564  0.1639  0.0629
   36MOL0     H 4902   3.889   4.512   5.442 -1.9560 -2.3540 -0.1781
   36MOL0     H 4903   4.118   4.424   5.380 -2.1470  0.1147 -0.3684
   36MOL0     H 4904   4.139   4.574   5.453  2.2297 -0.3883 -0.9273
   36MOL0     H 4905   4.262   4.485   5.623  1.7656 -2.7775  0.9346
   36MOL0     H 4906   4.130   4.370   5.665 -1.0942 -0.1211 -1.2346
   36MOL0     H 4907   4.223   4.198   5.501 -1.5626  1.2746 -1.5412
   36MOL0     H 4908   4.309   4.318   5.430  0.0911 -0.8535 -1.4968
   36MOL0     H 4909   4.463   4.316   5.644  1.5341 -1.4525 -0.1094
   36MOL0     H 4910   4.421   4.159   5.562 -1.8840 -1.7877 -0.9027
   36MOL0     H 4911   4.277   4.252   5.813  0.6875 -0.2677  0.5234
   36MOL0     H 4912   4.244   4.107   5.718  0.3141 -1.9160  4.4718
   36MOL0     H 4913   4.469   4.181   5.897  2.7121 -0.6958 -0.3869
   36MOL0     H 4914   4.488   4.048   5.772  1.8986  1.4586  0.7849
   36MOL0     H 4915   4.412   3.999   6.027 -1.2782 -0.6495  0.5846
   36MOL0     H 4916   4.256   4.046   5.971 -0.4075  1.5177 -1.2653
   36MOL0     H 4917   4.121   3.820   5.883  0.9272 -1.4525  1.4100
   36MOL0     H 4918   4.238   3.455   5.875  0.4331 -1.3216 -0.5845
   36MOL0     H 4919   4.141   3.537   5.749 -0.4993  2.8535  0.9581
   36MOL0     H 4920   4.113   3.597   6.038 -0.5198 -0.2239  0.0568
   36MOL0     H 4921   3.985   3.613   5.918 -1.7687 -0.2558  2.3536
   36MOL0     H 4922   3.959   3.370   5.908 -3.1036  3.0189 -0.6623
   36MOL0     H 4923   4.098   3.342   6.027  0.9168  2.1829  3.6651
   36MOL0     H 4924   3.848   3.473   6.094  0.7530  0.4803 -3.4774
   36MOL0     H 4925   3.882   3.302   6.140 -0.6485  0.7523  0.5155
   36MOL0     H 4926   4.155   3.508   6.410 -1.7941  2.3664 -1.8554
   36MOL0     H 4927   4.196   3.479   6.726 -4.0520 -3.0101  1.2152
   36MOL0     H 4928   4.086   3.625   6.744 -2.3320  0.6831 -1.2408
   36MOL0     H 4929   4.199   3.616   6.609  1.7705 -0.9270  1.5575
   36MOL0     H 4930   3.926   3.245   7.012 -0.1839 -1.5428  3.1847
   36MOL0     H 4931   3.855   3.164   7.203  0.5157  0.8897  0.4143
   36MOL0     H 4932   3.505   3.111   7.455  0.3957 -1.4387 -0.1242
   36MOL0     H 4933   3.428   3.236   7.357  2.7463  1.1196  1.7738
   36MOL0     H 4934   3.384   3.037   7.170  0.5002 -3.0443 -0.3515
   36MOL0     H 4935   3.480   2.939   7.266 -0.8103 -0.9312 -3.3742
   36MOL0     H 4936   3.205   3.028   7.352  0.1795  0.3392  0.4314
   36MOL0     H 4937   3.318   2.941   7.450  1.2477 -1.7492 -1.0430
   36MOL0     H 4938   3.324   2.758   7.279  1.1481  1.9127  2.7042
   36MOL0     H 4939   3.215   2.849   7.170 -0.5830 -1.8773 -0.4853
   36MOL0     H 4940   3.111   2.678   7.294  1.1578 -1.1793  1.9478
   36MOL0     H 4941   3.170   2.729   7.441  2.0196 -2.3909 -2.1399
   36MOL0     H 4942   2.976   2.900   7.283  1.4021  2.0530  1.0561
   36MOL0     H 4943   3.016   2.914   7.455  0.6547 -2.2966  1.9983
   36MOL0     H 4944   2.911   2.731   7.523 -1.4977  3.7560  1.1566
   36MOL0     H 4945   2.863   2.679   7.354  2.0400  1.1904 -2.9499
   36MOL0     H 4946   2.765   2.946   7.473 -0.1978  0.2027 -1.6253
   36MOL0     H 4947   2.687   2.781   7.486 -0.0387 -0.3142 -0.3111
   36MOL0     H 4948   3.447   3.286   7.118 -1.0401  0.9305 -2.1379
   36MOL0     H 4949   3.527   3.369   6.894  0.5333  1.0598  0.7290
   36MOL0     H 4950   3.743   3.308   6.561  1.3287 -2.3145  0.1409
   36MOL0     H 4951   3.792   3.318   6.327  2.1060 -0.2982 -1.6386
   36MOL0     H 4952   3.750   4.219   5.336  0.8057 -0.6024  1.1280
   36MOL0     H 4953   3.519   4.199   5.354  2.6792  1.5676 -1.9585
   36MOL0     H 4954   3.176   4.305   5.745  0.4939 -2.6280  1.4733
   36MOL0     H 4955   2.953   4.331   5.831 -0.1840  0.6868 -0.0011
   36MOL0     H 4956   2.811   4.210   5.924 -1.6550  0.0590  1.9154
   36MOL0     H 4957   2.644   4.257   5.901 -1.6822  0.5114 -1.9769
   36MOL0     H 4958   2.590   4.011   5.861  1.8914 -0.4517 -3.9311
   36MOL0     H 4959   2.656   4.054   6.023  2.2198  0.6822  0.0848
   36MOL0     H 4960   2.805   3.910   5.799  1.2824 -2.4228  1.4460
   36MOL0     H 4961   2.888   4.007   5.929  0.2542 -1.0384  1.1636
   36MOL0     H 4962   2.792   3.842   6.093  1.2700  2.2034 -0.1967
   36MOL0     H 4963   2.878   3.756   5.958 -0.2402 -1.0231  0.3210
   36MOL0     H 4964   2.454   3.655   5.943 -0.2078  1.8916  1.5100
   36MOL0     H 4965   2.819   4.080   5.504 -0.2229  0.6965 -0.7138
   36MOL0     H 4966   3.131   3.986   5.357  2.5199  2.8540 -2.4566
   36MOL0     H 4967   2.959   4.017   5.322  0.7406 -2.7643  0.4912
   36MOL0     H 4968   3.080   4.140   5.298  0.8916 -0.0832 -0.4675
   37MOL0     O 4969  10.892   0.054   8.008 -0.3741  0.3520  0.3336
   37MOL0     C 4970  10.832   0.160   8.021  0.1322 -0.6588  0.6171
   37MOL0     O 4971  10.891   0.286   8.002 -0.7671 -0.6451  0.0964
   37MOL0     C 4972  11.018   0.297   7.952 -0.0172 -0.3907 -0.6533
   37MOL0     C 4973  11.106   0.381   8.026  0.1357  0.3245  0.3790
   37MOL0     C 4974  11.241   0.401   7.997 -0.0600  0.6211  0.0952
   37MOL0     C 4975  11.284   0.343   7.873 -0.1561 -0.2557  0.6786
   37MOL0     O 4976  11.413   0.378   7.832 -0.3036 -0.1340 -0.5699
   37MOL0     C 4977  11.445   0.362   7.694  0.2962  0.1007  0.6544
   37MOL0     C 4978  11.552   0.242   7.687 -0.1342 -0.5024 -0.7047
   37MOL0     C 4979  11.688   0.265   7.753 -0.3837 -0.0855  0.2294
   37MOL0     C 4980  11.775   0.373   7.675  0.2404 -0.1468 -0.3948
   37MOL0     C 4981  11.916   0.369   7.739  0.2687  0.1250 -0.9486
   37MOL0     C 4982  12.019   0.444   7.664  0.8248  0.5466  0.7141
   37MOL0     C 4983  12.155   0.458   7.728 -0.5757 -0.1278  0.1279
   37MOL0     C 4984  12.255   0.518   7.625  0.1450 -0.2058  0.0890
   37MOL0     N 4985  12.395   0.507   7.677  1.0924  0.1011  0.3237
   37MOL0     C 4986  12.433   0.513   7.813  1.0981 -0.3400  0.3104
   37MOL0     C 4987  12.560   0.461   7.802 -0.3009 -0.3788 -0.3943
   37MOL0     C 4988  12.654   0.451   7.918  0.4245 -0.5074  0.4536
   37MOL0     C 4989  12.652   0.577   8.007  0.0524  0.0678 -0.9213
   37MOL0     C 4990  12.718   0.712   7.964  0.9340  0.0060  0.4103
   37MOL0     C 4991  12.635   0.789   7.856  1.1310 -0.6289 -0.9308
   37MOL0     O 4992  12.499   0.812   7.917 -0.3036 -0.9517  0.6023
   37MOL0     C 4993  12.387   0.838   7.830  0.5172  0.1988 -0.0338
   37MOL0     C 4994  12.400   0.865   7.690  0.3952 -0.6737  0.4647
   37MOL0     C 4995  12.286   0.906   7.616  0.0905  0.2255  0.2680
   37MOL0     C 4996  12.307   0.958   7.476 -0.2976 -0.1126  0.3374
   37MOL0     C 4997  12.160   0.928   7.688  0.1098 -0.0344  0.1290
   37MOL0     C 4998  12.037   0.986   7.636 -0.1214 -0.4312 -0.1812
   37MOL0     O 4999  12.049   1.117   7.584  0.5914  0.3621 -1.0527
   37MOL0     C 5000  11.930   1.179   7.561 -0.2316 -0.0858  0.0337
   37MOL0     C 5001  11.845   1.142   7.455 -0.7430  0.2730  0.3226
   37MOL0     C 5002  11.723   1.200   7.431  1.0856 -0.2310 -0.0336
   37MOL0     C 5003  11.681   1.313   7.504 -0.4493 -1.0086 -0.5838
   37MOL0     O 5004  11.567   1.371   7.482 -0.0215  0.1807  0.1020
   37MOL0     C 5005  11.509   1.485   7.563  0.4238 -0.1531  0.0837
   37MOL0     C 5006  11.383   1.536   7.503 -0.1895  0.4255 -0.2915
   37MOL0     C 5007  11.394   1.582   7.361  0.3810 -0.6982 -0.1327
   37MOL0     C 5008  11.265   1.600   7.280  0.2458 -0.1078 -0.2947
   37MOL0     C 5009  11.310   1.588   7.131  0.4406 -0.3508 -0.2918
   37MOL0     C 5010  11.198   1.566   7.024 -0.1313 -0.5517 -0.2434
   37MOL0     C 5011  11.119   1.437   7.037  0.3341 -0.4406 -0.7066
   37MOL0     C 5012  11.026   1.408   6.920  0.4127  0.4867  0.0655
   37MOL0    Cl 5013  11.111   1.376   6.766  0.2560 -0.2853 -0.1562
   37MOL0     C 5014  11.761   1.348   7.613  0.7434 -1.0018  0.6988
   37MOL0     C 5015  11.887   1.286   7.636 -0.4607  0.9803  0.5583
   37MOL0     O 5016  11.935   0.920   7.634 -0.4460  0.5174 -0.2299
   37MOL0     C 5017  12.151   0.890   7.822 -0.0950  1.0066  0.8582
   37MOL0     C 5018  12.262   0.843   7.893 -0.3003 -0.3689  0.2125
   37MOL0     N 5019  12.599   0.449   7.675 -0.1416  0.8267 -0.3228
   37MOL0     N 5020  12.502   0.480   7.597  0.8505 -0.4113 -0.3555
   37MOL0     C 5021  11.195   0.266   7.791  0.4358 -0.0351  0.0357
   37MOL0     C 5022  11.058   0.248   7.825 -0.6512 -0.3630  0.6766
   37MOL0     C 5023  10.684   0.167   8.045 -0.1713  0.0759 -0.1408
   37MOL0     C 5024  10.633   0.294   8.084 -0.0569  1.0751 -0.5130
   37MOL0     C 5025  10.499   0.303   8.125 -0.7079  0.3936  0.1051
   37MOL0     C 5026  10.412   0.192   8.127 -0.5599  0.0632 -0.8401
   37MOL0     O 5027  10.283   0.187   8.175  0.1647 -0.3028 -0.3963
   37MOL0     C 5028  10.207   0.306   8.199  0.0435 -1.0241 -0.1137
   37MOL0     C 5029  10.062   0.290   8.240 -0.2377 -1.1916  0.3260
   37MOL0     C 5030  10.030   0.174   8.332  0.7403  1.1524 -0.4063
   37MOL0     C 5031  10.121   0.169   8.460 -1.0315  0.1561 -0.7592
   37MOL0     C 5032  10.132   0.030   8.512  0.5032 -0.2014 -0.2705
   37MOL0     C 5033  10.147  -0.085   8.549  0.0021 -0.9761 -0.5236
   37MOL0     C 5034  10.471   0.071   8.079  0.8288 -0.2199 -0.5943
   37MOL0     C 5035  10.598   0.054   8.032 -0.5039 -0.1490 -1.2889
   37MOL0     C 5036  10.641  -0.076   7.973 -0.2044  0.4209  0.3416
   37MOL0     H 5037  11.070   0.429   8.117  0.4964  4.7615 -1.5983
   37MOL0     H 5038  11.305   0.452   8.068 -0.2805  2.4418 -0.9566
   37MOL0     H 5039  11.486   0.454   7.649  1.9408 -0.8228  0.1899
   37MOL0     H 5040  11.365   0.350   7.620  0.1831  0.9233  0.6308
   37MOL0     H 5041  11.496   0.163   7.737 -3.7112  2.5904  0.6447
   37MOL0     H 5042  11.565   0.226   7.580 -1.2058  1.5846 -1.2075
   37MOL0     H 5043  11.676   0.288   7.859 -1.9832 -3.4660  0.9310
   37MOL0     H 5044  11.741   0.169   7.750  2.0083  1.1591  0.5165
   37MOL0     H 5045  11.782   0.338   7.571  0.2516  0.5383 -0.6292
   37MOL0     H 5046  11.731   0.473   7.671  1.9272  0.6095 -1.4035
   37MOL0     H 5047  11.950   0.266   7.739 -1.4724 -0.4967  0.0641
   37MOL0     H 5048  11.913   0.411   7.840 -0.5367 -0.6958 -0.6181
   37MOL0     H 5049  12.042   0.401   7.566  0.2395  4.9045 -1.5836
   37MOL0     H 5050  11.975   0.541   7.639  0.6535 -0.0434 -1.5130
   37MOL0     H 5051  12.184   0.360   7.767 -3.6995 -0.5255  1.8198
   37MOL0     H 5052  12.142   0.521   7.817 -3.6760  2.2249 -1.7919
   37MOL0     H 5053  12.242   0.469   7.528  1.7200  0.6558 -0.5896
   37MOL0     H 5054  12.232   0.624   7.614  0.2636 -0.0240  1.4408
   37MOL0     H 5055  12.372   0.539   7.898 -0.8640 -1.5756 -0.6283
   37MOL0     H 5056  12.752   0.422   7.879  0.3822  1.2077 -1.0361
   37MOL0     H 5057  12.617   0.372   7.985  1.1621 -3.6942 -2.6130
   37MOL0     H 5058  12.556   0.593   8.057  0.1329  1.2010 -1.1028
   37MOL0     H 5059  12.702   0.552   8.101 -1.8344  1.4571  0.5238
   37MOL0     H 5060  12.738   0.767   8.056  2.8291 -1.3942  0.8861
   37MOL0     H 5061  12.819   0.693   7.927  1.7212  1.4041  1.7220
   37MOL0     H 5062  12.683   0.886   7.838  1.9166 -0.8929 -0.3134
   37MOL0     H 5063  12.629   0.732   7.764  3.3027  0.6108 -1.9143
   37MOL0     H 5064  12.499   0.861   7.648 -0.6975 -2.7732 -2.1738
   37MOL0     H 5065  12.414   0.953   7.452 -0.6343 -1.0279 -1.0964
   37MOL0     H 5066  12.281   1.064   7.466 -1.3409 -0.1985  1.8450
   37MOL0     H 5067  12.259   0.900   7.397  1.7635 -1.6487  0.1147
   37MOL0     H 5068  11.884   1.062   7.393  0.8213  1.4892 -0.3174
   37MOL0     H 5069  11.644   1.172   7.363  1.7608  0.9708 -1.3843
   37MOL0     H 5070  11.488   1.463   7.668  0.9904 -3.4054 -0.3947
   37MOL0     H 5071  11.584   1.565   7.556 -0.7483  0.9815  0.2340
   37MOL0     H 5072  11.304   1.462   7.511  0.6601 -0.3572  1.2796
   37MOL0     H 5073  11.353   1.623   7.562 -0.8383  1.1404 -1.6228
   37MOL0     H 5074  11.454   1.502   7.317 -0.1456 -1.0205 -0.2694
   37MOL0     H 5075  11.439   1.682   7.360  2.2450 -1.4862  0.9620
   37MOL0     H 5076  11.233   1.703   7.296  2.7515  1.1574 -2.5736
   37MOL0     H 5077  11.190   1.523   7.300  0.4207 -0.7249 -1.8882
   37MOL0     H 5078  11.358   1.684   7.111 -1.0000  0.5563  0.4796
   37MOL0     H 5079  11.378   1.504   7.112  0.3002 -0.1568 -1.6790
   37MOL0     H 5080  11.254   1.557   6.931 -0.1143 -1.2218 -0.1770
   37MOL0     H 5081  11.131   1.652   7.018 -0.8097 -1.0093  0.5034
   37MOL0     H 5082  11.058   1.435   7.127  1.9721 -0.5668  0.4471
   37MOL0     H 5083  11.184   1.349   7.041  0.4523 -0.3262 -0.1085
   37MOL0     H 5084  10.964   1.496   6.897  0.3258  0.6446  0.8705
   37MOL0     H 5085  10.967   1.317   6.930  0.1834  0.1668 -3.1516
   37MOL0     H 5086  11.734   1.420   7.689  0.5024 -2.1345  1.7168
   37MOL0     H 5087  11.958   1.313   7.714 -0.4526 -0.6775  1.1652
   37MOL0     H 5088  12.059   0.910   7.876 -0.8252  1.1052 -0.3830
   37MOL0     H 5089  12.249   0.819   7.998 -0.3888 -0.4142  0.1914
   37MOL0     H 5090  11.225   0.220   7.698  3.1398  1.9693 -0.2252
   37MOL0     H 5091  10.986   0.196   7.763 -0.0296  0.8106 -1.0916
   37MOL0     H 5092  10.688   0.388   8.095  0.4184  1.0170 -2.2413
   37MOL0     H 5093  10.465   0.398   8.165 -0.6881 -0.8075  3.2595
   37MOL0     H 5094  10.257   0.377   8.266 -0.0115 -0.5162 -0.6048
   37MOL0     H 5095  10.207   0.361   8.105  2.7934 -1.5096 -0.4892
   37MOL0     H 5096  10.006   0.277   8.147  2.4709 -2.2426 -1.2666
   37MOL0     H 5097  10.031   0.383   8.290 -1.6096 -0.0526 -2.4504
   37MOL0     H 5098   9.924   0.183   8.356  0.7794 -0.7589  0.6734
   37MOL0     H 5099  10.044   0.078   8.282  1.1248  0.1114  1.5836
   37MOL0     H 5100  10.084   0.246   8.529 -0.6376  0.6345 -1.0714
   37MOL0     H 5101  10.223   0.201   8.438  0.1113 -1.0761  2.1382
   37MOL0     H 5102  10.163  -0.185   8.585 -0.6069 -0.8508  0.1270
   37MOL0     H 5103  10.407  -0.016   8.089 -1.3508  1.4167  0.4195
   37MOL0     H 5104  10.678  -0.153   8.040 -0.6243 -0.8937 -0.8848
   37MOL0     H 5105  10.551  -0.122   7.932 -0.2641  1.1439 -0.3623
   37MOL0     H 5106  10.718  -0.069   7.895  1.7076  1.4301  2.2211
   38MOL0     O 5107   8.922   7.807   3.625 -0.7357 -0.5543 -0.0499
   38MOL0     C 5108   8.838   7.720   3.631  0.6520  0.2187 -0.8807
   38MOL0     O 5109   8.861   7.588   3.602  0.6602  0.4863 -0.5420
   38MOL0     C 5110   8.983   7.526   3.597  0.8921 -0.3909 -0.5310
   38MOL0     C 5111   8.977   7.390   3.574  0.6608  0.1210  0.3212
   38MOL0     C 5112   9.086   7.298   3.589  0.7549 -0.0169 -0.2649
   38MOL0     C 5113   9.219   7.355   3.606 -0.0728  0.4297 -0.6324
   38MOL0     O 5114   9.329   7.275   3.625 -0.9821  0.3079 -0.5529
   38MOL0     C 5115   9.323   7.163   3.718 -0.0478  1.0483 -0.4411
   38MOL0     C 5116   9.297   7.214   3.864 -0.0301  1.1433  0.0828
   38MOL0     C 5117   9.312   7.100   3.972  0.0991 -0.6239  0.5840
   38MOL0     C 5118   9.183   7.011   3.960  0.0529  0.0242  0.5394
   38MOL0     C 5119   9.053   7.068   4.008  0.6827 -0.6395  0.4805
   38MOL0     C 5120   8.934   6.988   3.949 -0.3237 -0.8064  0.4456
   38MOL0     C 5121   8.798   7.050   4.000 -0.3088 -0.9442 -0.1159
   38MOL0     C 5122   8.770   7.039   4.152  0.3161 -0.7790 -0.3537
   38MOL0     N 5123   8.633   7.090   4.174 -0.2397  0.2255  0.2323
   38MOL0     C 5124   8.577   7.217   4.184 -0.0645 -0.2836  0.4077
   38MOL0     C 5125   8.447   7.201   4.207 -0.3621 -1.0913 -0.5108
   38MOL0     C 5126   8.336   7.302   4.217  0.4200 -0.2186 -0.3708
   38MOL0     C 5127   8.199   7.254   4.162 -0.0756  0.6027 -0.8305
   38MOL0     C 5128   8.179   7.255   4.008  0.4788  0.8269  0.2258
   38MOL0     C 5129   8.255   7.137   3.943 -0.2112  0.3870  0.2506
   38MOL0     O 5130   8.224   7.119   3.801  0.4869  0.1669  0.0275
   38MOL0     C 5131   8.341   7.090   3.737 -0.4428  0.6645  0.4323
   38MOL0     C 5132   8.425   7.198   3.704  0.7327 -0.5907 -0.4834
   38MOL0     C 5133   8.550   7.184   3.648  1.0988 -0.5628 -0.3881
   38MOL0     C 5134   8.623   7.319   3.632 -0.3029  0.7331  0.7904
   38MOL0     C 5135   8.585   7.057   3.602 -0.2672  0.3919  0.5959
   38MOL0     C 5136   8.718   7.023   3.539 -0.2886 -0.1615  0.1448
   38MOL0     O 5137   8.729   6.910   3.468  0.5141  0.7345  0.3695
   38MOL0     C 5138   8.849   6.877   3.413 -0.4379 -0.0244 -0.4415
   38MOL0     C 5139   8.857   6.867   3.283 -0.1198  0.4535 -0.3263
   38MOL0     C 5140   8.978   6.864   3.209  0.1507  0.3381  0.0201
   38MOL0     C 5141   9.099   6.853   3.277 -0.1798  0.4413 -0.0411
   38MOL0     O 5142   9.207   6.825   3.197 -0.6034  0.1609  0.2704
   38MOL0     C 5143   9.277   6.709   3.239 -0.3239  0.6404  0.4085
   38MOL0     C 5144   9.334   6.623   3.131 -0.9908  0.2033 -0.3270
   38MOL0     C 5145   9.429   6.707   3.049  0.4250 -0.4139 -0.0117
   38MOL0     C 5146   9.488   6.640   2.918 -0.3757  0.7129 -0.6923
   38MOL0     C 5147   9.582   6.733   2.838  0.1702  0.0693  0.4164
   38MOL0     C 5148   9.615   6.664   2.705  0.1946  0.6366  0.0335
   38MOL0     C 5149   9.689   6.762   2.610  0.7333 -0.7559 -0.0168
   38MOL0     C 5150   9.781   6.696   2.504 -0.2229 -0.1313 -0.2720
   38MOL0    Cl 5151   9.669   6.593   2.399 -0.2002  0.2859 -0.0171
   38MOL0     C 5152   9.096   6.854   3.416 -0.4130  0.9648  0.4181
   38MOL0     C 5153   8.969   6.867   3.484 -0.9122 -0.6044  0.5791
   38MOL0     O 5154   8.808   7.101   3.553  0.4630  0.2625 -0.1065
   38MOL0     C 5155   8.509   6.947   3.633 -0.5420  0.1327  0.1927
   38MOL0     C 5156   8.384   6.965   3.700  0.1965 -0.5190 -0.7944
   38MOL0     N 5157   8.418   7.066   4.213 -0.0244 -0.9768 -0.5747
   38MOL0     N 5158   8.531   7.001   4.207 -0.2573 -0.9672  0.0024
   38MOL0     C 5159   9.226   7.500   3.630  0.1817  0.0780 -0.5246
   38MOL0     C 5160   9.110   7.580   3.633  0.1859 -0.0927  0.5296
   38MOL0     C 5161   8.694   7.771   3.653  0.2507 -0.6815  0.3468
   38MOL0     C 5162   8.583   7.699   3.599 -0.3585 -0.1646 -0.3044
   38MOL0     C 5163   8.454   7.753   3.574  0.1102  0.3075 -0.2556
   38MOL0     C 5164   8.416   7.872   3.639 -0.2912  0.4618 -0.4197
   38MOL0     O 5165   8.294   7.936   3.636 -0.7876  0.4677  0.1726
   38MOL0     C 5166   8.211   7.950   3.519 -0.2370  0.1804 -0.3598
   38MOL0     C 5167   8.075   8.014   3.545  0.1639  0.0585 -0.1838
   38MOL0     C 5168   7.986   7.922   3.648 -0.0995 -0.0317  0.1521
   38MOL0     C 5169   7.851   7.980   3.669 -0.0765 -0.0809 -0.4914
   38MOL0     C 5170   7.837   8.040   3.802 -0.1217 -0.9145 -0.6065
   38MOL0     C 5171   7.813   8.099   3.901 -0.5116  0.9804  0.0473
   38MOL0     C 5172   8.518   7.945   3.708  0.3897  0.5947 -0.1092
   38MOL0     C 5173   8.658   7.895   3.712  0.1647  0.1844  1.1435
   38MOL0     C 5174   8.755   7.992   3.781  0.1388  0.2597  0.0427
   38MOL0     H 5175   8.878   7.360   3.539  0.5273  1.0810 -0.1456
   38MOL0     H 5176   9.065   7.191   3.585  1.1914 -0.1993  1.6124
   38MOL0     H 5177   9.420   7.113   3.718  0.8986  2.8013 -0.7313
   38MOL0     H 5178   9.254   7.088   3.678  1.1051  0.2180 -0.9205
   38MOL0     H 5179   9.363   7.297   3.891 -1.4726  2.0297  1.0207
   38MOL0     H 5180   9.196   7.254   3.871  0.6246  2.9771 -0.2873
   38MOL0     H 5181   9.403   7.040   3.974  1.9897  2.0948  1.3678
   38MOL0     H 5182   9.300   7.151   4.068 -1.1725 -1.2316  0.7726
   38MOL0     H 5183   9.180   6.978   3.855 -0.9986 -1.3702  0.9750
   38MOL0     H 5184   9.204   6.919   4.016 -1.5296  0.2520  1.5580
   38MOL0     H 5185   9.036   7.175   3.993 -2.1097 -0.7813  1.9307
   38MOL0     H 5186   9.058   7.054   4.117 -0.0613 -2.3613  0.3298
   38MOL0     H 5187   8.935   6.997   3.840  0.2554 -0.5322  0.4675
   38MOL0     H 5188   8.943   6.882   3.973  0.1893 -0.3687  2.3472
   38MOL0     H 5189   8.719   6.993   3.949  0.6093 -0.4322 -2.2187
   38MOL0     H 5190   8.806   7.152   3.961 -0.1317 -1.3636 -1.2183
   38MOL0     H 5191   8.778   6.935   4.185  2.5586 -1.3318 -2.3255
   38MOL0     H 5192   8.842   7.095   4.212 -0.8778  0.2813  0.1067
   38MOL0     H 5193   8.633   7.308   4.168  0.8742 -0.7919  0.7293
   38MOL0     H 5194   8.366   7.384   4.150 -1.0198  0.0449 -0.7373
   38MOL0     H 5195   8.319   7.336   4.319  1.3479  0.6665 -0.4953
   38MOL0     H 5196   8.181   7.152   4.199 -0.6578  1.2226  0.6820
   38MOL0     H 5197   8.120   7.318   4.201  0.9382  0.7900  1.0747
   38MOL0     H 5198   8.076   7.232   3.980  0.7338 -2.3126  1.4885
   38MOL0     H 5199   8.212   7.351   3.966  0.2723  1.2959  1.1147
   38MOL0     H 5200   8.362   7.157   3.953 -0.1726  0.9511 -1.0740
   38MOL0     H 5201   8.232   7.042   3.993  1.2028 -0.4420 -0.5995
   38MOL0     H 5202   8.383   7.290   3.744  2.2659 -1.5385  3.8030
   38MOL0     H 5203   8.668   7.318   3.532  0.0182 -0.6524  0.9329
   38MOL0     H 5204   8.697   7.325   3.712 -1.3825  0.8628  1.8130
   38MOL0     H 5205   8.546   7.396   3.639 -0.9243  0.8651 -4.2256
   38MOL0     H 5206   8.763   6.862   3.230  0.5028 -1.8246 -1.3520
   38MOL0     H 5207   8.979   6.854   3.101 -1.8877 -1.0807  0.0971
   38MOL0     H 5208   9.366   6.744   3.291  0.1457  0.4942 -0.2851
   38MOL0     H 5209   9.226   6.645   3.312 -1.9302  0.5540 -0.7487
   38MOL0     H 5210   9.392   6.548   3.184  0.5298  2.3938  1.3127
   38MOL0     H 5211   9.257   6.583   3.065 -0.6900  0.0201 -0.5716
   38MOL0     H 5212   9.517   6.722   3.112  1.3146  1.9233 -1.6610
   38MOL0     H 5213   9.392   6.808   3.027  1.3817  0.1879  1.0430
   38MOL0     H 5214   9.407   6.605   2.853 -0.3210 -1.0064  0.0950
   38MOL0     H 5215   9.544   6.555   2.958 -2.0296 -0.1898 -0.1942
   38MOL0     H 5216   9.544   6.834   2.819  1.0700 -0.2190 -4.0604
   38MOL0     H 5217   9.677   6.748   2.890  0.3334  1.1200 -0.1583
   38MOL0     H 5218   9.524   6.631   2.654 -0.6820  1.7775  0.7919
   38MOL0     H 5219   9.675   6.574   2.722 -1.2704 -0.4547 -0.3837
   38MOL0     H 5220   9.743   6.843   2.660  0.0448  0.6652 -1.4752
   38MOL0     H 5221   9.617   6.821   2.553  1.1402  2.0109  2.1110
   38MOL0     H 5222   9.865   6.653   2.560 -1.0445  0.1502  1.2378
   38MOL0     H 5223   9.837   6.767   2.443  1.7780 -1.6214 -0.2798
   38MOL0     H 5224   9.189   6.850   3.472 -0.8261 -2.0692  1.0869
   38MOL0     H 5225   8.980   6.887   3.590 -2.1863  0.3036  0.5621
   38MOL0     H 5226   8.545   6.846   3.617  0.5415  0.7099 -1.3524
   38MOL0     H 5227   8.337   6.870   3.726 -2.8006  1.2968  1.0129
   38MOL0     H 5228   9.325   7.536   3.655  0.8636 -1.8383 -0.2429
   38MOL0     H 5229   9.125   7.686   3.649 -1.5375  0.2456  0.0904
   38MOL0     H 5230   8.619   7.617   3.537  2.3364  0.3872  0.3997
   38MOL0     H 5231   8.381   7.699   3.515  0.0428  1.4629 -1.2600
   38MOL0     H 5232   8.254   8.021   3.447 -2.0253  1.4277 -0.2869
   38MOL0     H 5233   8.213   7.857   3.462  2.0660  0.2369 -0.4381
   38MOL0     H 5234   8.015   8.032   3.454  1.8266 -0.9393 -1.5262
   38MOL0     H 5235   8.097   8.110   3.592  2.1834 -0.2594 -0.4075
   38MOL0     H 5236   7.962   7.829   3.596 -2.2681  0.7206 -0.3089
   38MOL0     H 5237   8.037   7.909   3.744  2.6050 -1.2173 -1.3421
   38MOL0     H 5238   7.776   7.901   3.665  0.5941 -0.8964  1.5991
   38MOL0     H 5239   7.830   8.051   3.588  1.8159  0.9721 -0.1259
   38MOL0     H 5240   7.783   8.151   3.991 -0.7008 -0.0736  0.6069
   38MOL0     H 5241   8.483   8.040   3.747 -5.2127  0.1519 -3.0160
   38MOL0     H 5242   8.741   8.017   3.887  1.0644  3.0568 -0.4256
   38MOL0     H 5243   8.860   7.963   3.782  1.1888  3.6428 -0.1414
   38MOL0     H 5244   8.761   8.087   3.727  0.8645  0.7388  0.9393
   39MOL0     O 5245   3.006   0.753   0.064 -0.6475 -0.6699  0.1577
   39MOL0     C 5246   2.890   0.800   0.079 -0.0155 -0.9899 -0.0857
   39MOL0     O 5247   2.852   0.923   0.046  0.1036  0.2325  0.0627
   39MOL0     C 5248   2.937   1.029   0.050  0.2377 -0.1273 -0.0299
   39MOL0     C 5249   2.922   1.104  -0.072 -0.4332  1.0707  0.0572
   39MOL0     C 5250   2.990   1.226  -0.087  1.8086 -0.8314 -0.4572
   39MOL0     C 5251   3.073   1.268   0.018 -0.7276  1.2422  0.3326
   39MOL0     O 5252   3.138   1.385   0.001  0.2833 -0.0541  0.2923
   39MOL0     C 5253   3.207   1.404  -0.120  0.5611 -0.5462  0.3331
   39MOL0     C 5254   3.274   1.541  -0.126 -1.0214  0.2625 -0.7376
   39MOL0     C 5255   3.410   1.535  -0.194  0.4482  0.5612 -0.5744
   39MOL0     C 5256   3.490   1.665  -0.182 -0.9126 -0.2276 -0.4518
   39MOL0     C 5257   3.607   1.661  -0.280 -0.0316 -0.8321 -0.0927
   39MOL0     C 5258   3.696   1.785  -0.250  0.1513  0.0996 -0.5712
   39MOL0     C 5259   3.813   1.799  -0.346 -0.2216 -0.7926  0.3550
   39MOL0     C 5260   3.936   1.879  -0.298 -0.2166  0.8231 -0.5956
   39MOL0     N 5261   3.977   1.834  -0.169  0.1842 -0.4354  0.1952
   39MOL0     C 5262   4.017   1.701  -0.157  0.1304 -0.1545 -0.4475
   39MOL0     C 5263   4.027   1.688  -0.018 -0.1966  0.1971 -0.2256
   39MOL0     C 5264   4.046   1.555   0.056  0.3590  0.2866 -0.0351
   39MOL0     C 5265   4.190   1.525   0.046 -0.9887 -0.5931 -1.0389
   39MOL0     C 5266   4.221   1.411   0.136  0.1219  0.3794 -0.0291
   39MOL0     C 5267   4.371   1.382   0.156 -0.4029 -0.8663  0.8857
   39MOL0     O 5268   4.417   1.315   0.041  0.8143 -0.1879 -0.1673
   39MOL0     C 5269   4.544   1.264   0.041 -0.4933  0.2127 -0.4591
   39MOL0     C 5270   4.640   1.258   0.153  0.1518  0.1592  0.2384
   39MOL0     C 5271   4.768   1.205   0.138  0.9220 -0.7487  0.0979
   39MOL0     C 5272   4.864   1.199   0.257  0.9553 -0.1588 -0.6681
   39MOL0     C 5273   4.811   1.155   0.010 -0.4747 -0.2753 -0.9045
   39MOL0     C 5274   4.948   1.102  -0.009  0.1281  0.3946 -0.1638
   39MOL0     O 5275   5.014   1.038   0.089  1.1607  0.0435 -0.2879
   39MOL0     C 5276   5.147   1.018   0.066 -0.4230  0.7933  0.3897
   39MOL0     C 5277   5.240   1.120   0.111 -0.5098  0.5997  0.6259
   39MOL0     C 5278   5.371   1.097   0.078  0.4451 -0.4900  0.5019
   39MOL0     C 5279   5.423   0.989  -0.001  0.2973  0.2892  0.4476
   39MOL0     O 5280   5.558   1.003  -0.040 -0.0907 -0.1119 -0.7061
   39MOL0     C 5281   5.605   0.894  -0.116 -0.2298 -0.6622 -0.5797
   39MOL0     C 5282   5.753   0.935  -0.133 -0.1476 -0.4248  0.2350
   39MOL0     C 5283   5.829   0.835  -0.210 -1.5958  0.3954  0.8316
   39MOL0     C 5284   5.951   0.899  -0.282  0.7541 -1.0136  0.6936
   39MOL0     C 5285   6.069   0.918  -0.182  0.4567  0.0795 -0.1088
   39MOL0     C 5286   6.157   1.031  -0.220 -0.2102  0.6882 -0.6444
   39MOL0     C 5287   6.297   1.002  -0.180 -0.5316 -0.8844 -0.2873
   39MOL0     C 5288   6.389   1.125  -0.195  0.4858  0.5698 -0.5635
   39MOL0    Cl 5289   6.527   1.116  -0.085 -0.1570 -0.2577  0.5904
   39MOL0     C 5290   5.331   0.881  -0.035 -0.1046  0.3065  0.7639
   39MOL0     C 5291   5.193   0.898  -0.005 -0.6889 -0.2778  0.0724
   39MOL0     O 5292   4.986   1.107  -0.126  0.1600  0.0589 -0.4137
   39MOL0     C 5293   4.715   1.161  -0.099  0.8055 -0.3962  0.7696
   39MOL0     C 5294   4.584   1.210  -0.081 -0.2700  0.1452  0.5160
   39MOL0     N 5295   3.999   1.818   0.040  0.3314  0.7479  0.7804
   39MOL0     N 5296   3.957   1.896  -0.047 -0.6009  0.1146 -0.3373
   39MOL0     C 5297   3.079   1.190   0.134  0.0178 -0.1059 -0.5594
   39MOL0     C 5298   3.026   1.062   0.143 -0.7933 -0.0485  0.4288
   39MOL0     C 5299   2.786   0.700   0.120 -0.8875 -0.3258 -0.1999
   39MOL0     C 5300   2.825   0.569   0.105 -0.7409  1.1777  0.0520
   39MOL0     C 5301   2.733   0.460   0.141  0.5040 -0.2439  0.0485
   39MOL0     C 5302   2.609   0.488   0.196  0.0364 -0.0751  0.8932
   39MOL0     O 5303   2.530   0.376   0.220  0.2958  0.0085  0.4378
   39MOL0     C 5304   2.393   0.396   0.270 -0.5288  0.2165 -0.1057
   39MOL0     C 5305   2.327   0.262   0.311  0.4836 -0.3437  0.5623
   39MOL0     C 5306   2.182   0.299   0.359 -0.6054  0.1829 -0.6967
   39MOL0     C 5307   2.167   0.301   0.513  0.2105 -0.5163  0.4550
   39MOL0     C 5308   2.226   0.197   0.593 -0.2593 -0.5712  0.5536
   39MOL0     C 5309   2.265   0.103   0.659  0.0344  1.0256  0.0706
   39MOL0     C 5310   2.575   0.631   0.209 -0.7615 -0.2283 -0.8405
   39MOL0     C 5311   2.661   0.732   0.172 -0.0105  0.7208  0.3752
   39MOL0     C 5312   2.627   0.879   0.200  0.2422  0.2882  0.2083
   39MOL0     H 5313   2.863   1.067  -0.155  3.6081 -0.1068 -2.5468
   39MOL0     H 5314   2.965   1.284  -0.176  1.2844 -1.3729 -0.6647
   39MOL0     H 5315   3.127   1.416  -0.194  0.8720 -1.1593 -0.1169
   39MOL0     H 5316   3.275   1.322  -0.147  0.7543 -0.2038 -0.2490
   39MOL0     H 5317   3.207   1.610  -0.180 -0.7106 -0.5531 -2.2367
   39MOL0     H 5318   3.285   1.565  -0.020 -1.0829 -0.0788 -0.6541
   39MOL0     H 5319   3.464   1.454  -0.144 -0.3431  0.2720 -0.1812
   39MOL0     H 5320   3.402   1.507  -0.300  0.1649  1.4861 -0.8043
   39MOL0     H 5321   3.440   1.761  -0.198  1.2841  0.4499 -4.4095
   39MOL0     H 5322   3.531   1.675  -0.081  1.6773 -0.8891 -1.3555
   39MOL0     H 5323   3.582   1.663  -0.386 -1.6112 -1.7412  0.2367
   39MOL0     H 5324   3.666   1.572  -0.259  1.6955  0.1415 -0.6123
   39MOL0     H 5325   3.635   1.876  -0.248  0.8188  0.5562 -0.5543
   39MOL0     H 5326   3.744   1.775  -0.152  0.3587 -2.5957 -0.8816
   39MOL0     H 5327   3.777   1.850  -0.435 -0.0250  2.0474  1.7787
   39MOL0     H 5328   3.839   1.702  -0.390  0.6100 -0.2382 -0.4246
   39MOL0     H 5329   4.017   1.867  -0.370 -0.8628 -0.1144 -1.2066
   39MOL0     H 5330   3.913   1.986  -0.301 -0.5015  0.7757 -4.3922
   39MOL0     H 5331   4.020   1.620  -0.229  2.3881 -0.4838 -0.0803
   39MOL0     H 5332   3.983   1.477   0.012  0.0972 -1.9192  3.7981
   39MOL0     H 5333   4.011   1.569   0.158  0.4991 -2.3504  0.4519
   39MOL0     H 5334   4.207   1.487  -0.055  0.4105 -1.5761 -0.4687
   39MOL0     H 5335   4.252   1.611   0.073 -2.1548  0.9283 -2.9390
   39MOL0     H 5336   4.186   1.437   0.236  0.6536  0.4875  0.1349
   39MOL0     H 5337   4.171   1.317   0.110 -0.3370  1.0504 -1.7480
   39MOL0     H 5338   4.420   1.480   0.156  0.2818 -1.1925  0.1209
   39MOL0     H 5339   4.408   1.346   0.253 -0.3992  0.7946  1.5367
   39MOL0     H 5340   4.604   1.300   0.246  0.8593  2.2495 -0.3593
   39MOL0     H 5341   4.822   1.259   0.338 -0.3551 -0.2285 -1.2779
   39MOL0     H 5342   4.966   1.229   0.234  0.2537  0.2328 -3.5606
   39MOL0     H 5343   4.849   1.095   0.291 -1.9045  0.6195  0.8174
   39MOL0     H 5344   5.203   1.212   0.155 -2.8403 -0.8629  1.8949
   39MOL0     H 5345   5.443   1.173   0.104  1.4198 -0.7484 -1.2516
   39MOL0     H 5346   5.590   0.799  -0.063  0.9979  0.8921  2.8447
   39MOL0     H 5347   5.556   0.890  -0.213  0.0675  1.7791 -0.8837
   39MOL0     H 5348   5.767   1.039  -0.163  2.3909  0.2976  3.3804
   39MOL0     H 5349   5.797   0.933  -0.032 -1.2060  1.1139  0.7590
   39MOL0     H 5350   5.761   0.787  -0.280 -0.7259 -0.7823  0.7644
   39MOL0     H 5351   5.872   0.753  -0.151  1.3719 -1.0931 -2.9612
   39MOL0     H 5352   5.926   0.992  -0.334  1.1078 -0.4215  1.5519
   39MOL0     H 5353   5.980   0.833  -0.363  0.1689  2.0134 -2.2173
   39MOL0     H 5354   6.023   0.927  -0.083 -0.4036 -0.4967 -0.4366
   39MOL0     H 5355   6.129   0.827  -0.178  0.4184  0.0871  1.2803
   39MOL0     H 5356   6.117   1.129  -0.191  0.3922  0.8141 -0.2235
   39MOL0     H 5357   6.162   1.035  -0.329 -0.6918  3.8515 -0.6510
   39MOL0     H 5358   6.339   0.922  -0.242  1.1869  0.0403 -0.3690
   39MOL0     H 5359   6.290   0.967  -0.076 -0.5882  0.2789  0.1076
   39MOL0     H 5360   6.325   1.207  -0.163  0.5897 -0.3891  2.3909
   39MOL0     H 5361   6.416   1.137  -0.301  0.1699 -4.1344 -1.4030
   39MOL0     H 5362   5.345   0.793  -0.097 -1.7190 -0.3877  1.3116
   39MOL0     H 5363   5.122   0.827  -0.047  0.5816  0.8535 -4.6367
   39MOL0     H 5364   4.723   1.133  -0.203  0.0668  2.5840 -0.1781
   39MOL0     H 5365   4.513   1.214  -0.163 -0.0328 -3.4988 -0.0055
   39MOL0     H 5366   3.137   1.224   0.220 -0.0352 -2.9369  0.7160
   39MOL0     H 5367   3.029   1.000   0.232 -0.1986 -1.8170 -0.7757
   39MOL0     H 5368   2.920   0.535   0.066 -0.3274 -0.4236  2.3304
   39MOL0     H 5369   2.760   0.359   0.113 -1.3458 -0.7981  0.1555
   39MOL0     H 5370   2.399   0.458   0.360 -0.8628 -0.8704  0.6963
   39MOL0     H 5371   2.329   0.442   0.194  1.4818  1.0978 -1.3682
   39MOL0     H 5372   2.382   0.218   0.395 -1.1846 -3.1288  0.3143
   39MOL0     H 5373   2.320   0.197   0.224  1.2220  2.5919 -1.8695
   39MOL0     H 5374   2.138   0.387   0.311  0.9029  1.0040 -0.6432
   39MOL0     H 5375   2.122   0.214   0.324  0.9497 -1.0897 -0.4017
   39MOL0     H 5376   2.061   0.292   0.537  0.2418 -3.6464 -0.2274
   39MOL0     H 5377   2.195   0.401   0.549  4.0161 -1.9305  1.9372
   39MOL0     H 5378   2.304   0.023   0.718  0.5433  0.6975 -0.6963
   39MOL0     H 5379   2.477   0.651   0.251 -0.7578  0.1802 -1.0184
   39MOL0     H 5380   2.719   0.919   0.245  1.9661 -2.0651 -0.9943
   39MOL0     H 5381   2.599   0.928   0.106  1.1021  0.1195 -0.1558
   39MOL0     H 5382   2.548   0.881   0.275  1.4787  0.6969  1.5491
   40MOL0     O 5383   1.157   2.638   7.148  0.1079  0.2540  0.4313
   40MOL0     C 5384   1.119   2.549   7.227  0.7992 -0.4559 -1.6793
   40MOL0     O 5385   1.176   2.427   7.263  0.4173  0.3717 -0.9532
   40MOL0     C 5386   1.297   2.379   7.215  0.3804  0.9282  0.3014
   40MOL0     C 5387   1.319   2.248   7.250 -0.1514  0.3419 -0.0660
   40MOL0     C 5388   1.442   2.187   7.208  0.9220  0.1889 -0.7423
   40MOL0     C 5389   1.528   2.257   7.123  0.8803 -0.5998  0.7774
   40MOL0     O 5390   1.641   2.205   7.081 -0.8367  0.6298 -0.4175
   40MOL0     C 5391   1.732   2.168   7.184  0.0586 -0.1052 -0.9944
   40MOL0     C 5392   1.872   2.151   7.124 -0.2735  0.7896 -0.0645
   40MOL0     C 5393   1.976   2.096   7.223 -0.6214 -0.5399 -0.1212
   40MOL0     C 5394   2.109   2.150   7.161 -0.1182  0.5310 -0.1803
   40MOL0     C 5395   2.227   2.081   7.231  0.1391 -0.6811  0.1142
   40MOL0     C 5396   2.362   2.127   7.180 -1.3590  0.6898 -0.3565
   40MOL0     C 5397   2.479   2.027   7.214  0.1533  0.0325  0.8714
   40MOL0     C 5398   2.615   2.089   7.172  0.0301  0.9164 -0.7320
   40MOL0     N 5399   2.710   1.981   7.143 -0.6434 -0.2121 -0.0051
   40MOL0     C 5400   2.761   1.903   7.238  1.5815  0.3117 -0.4670
   40MOL0     C 5401   2.860   1.828   7.194 -0.5621  0.5047  0.8017
   40MOL0     C 5402   2.949   1.720   7.253  0.1784 -0.8609 -0.1204
   40MOL0     C 5403   3.062   1.765   7.347 -0.4289  0.8703 -0.5461
   40MOL0     C 5404   3.155   1.870   7.278 -0.4231  0.3729  0.1094
   40MOL0     C 5405   3.263   1.906   7.378 -0.0557  0.1060 -0.7530
   40MOL0     O 5406   3.354   1.997   7.304 -0.1407 -0.1321 -0.7532
   40MOL0     C 5407   3.472   2.041   7.355  0.2214  0.3354 -0.0561
   40MOL0     C 5408   3.518   2.026   7.485 -0.1873  1.3951 -0.4841
   40MOL0     C 5409   3.632   2.087   7.530  0.3183  0.5711 -0.1177
   40MOL0     C 5410   3.662   2.079   7.677  0.2929  0.6667  0.3550
   40MOL0     C 5411   3.721   2.145   7.428  0.5023 -0.2925 -0.0173
   40MOL0     C 5412   3.852   2.195   7.461 -0.6264 -0.1148 -0.2908
   40MOL0     O 5413   3.879   2.316   7.408 -1.5186 -0.3055  0.2724
   40MOL0     C 5414   4.003   2.372   7.405  1.1957 -0.3482 -0.6506
   40MOL0     C 5415   4.116   2.303   7.365 -0.0235  0.3633  0.1286
   40MOL0     C 5416   4.245   2.350   7.360 -0.0535  0.2505  0.2524
   40MOL0     C 5417   4.267   2.473   7.421 -0.3894  0.4487  0.4545
   40MOL0     O 5418   4.393   2.531   7.446  0.0096 -0.4019  0.4639
   40MOL0     C 5419   4.513   2.456   7.446 -0.3299 -0.3892  0.3166
   40MOL0     C 5420   4.628   2.554   7.399  0.1246 -0.4748 -0.5693
   40MOL0     C 5421   4.755   2.481   7.363 -0.1868  0.6319  0.0446
   40MOL0     C 5422   4.866   2.573   7.320 -0.0750  0.8377  0.0538
   40MOL0     C 5423   4.993   2.490   7.306  0.0864 -0.1159 -0.5176
   40MOL0     C 5424   5.109   2.578   7.243 -0.2316  0.2621  0.4104
   40MOL0     C 5425   5.246   2.516   7.246  0.0259 -0.2614  0.2517
   40MOL0     C 5426   5.349   2.609   7.165 -0.7454  0.3675 -0.1120
   40MOL0    Cl 5427   5.526   2.578   7.185 -0.2926 -0.4283 -0.0086
   40MOL0     C 5428   4.162   2.550   7.466  0.6537 -0.0055  0.9210
   40MOL0     C 5429   4.033   2.498   7.462 -0.2716  0.1976 -0.1509
   40MOL0     O 5430   3.926   2.127   7.537  0.4048  0.6812  1.0201
   40MOL0     C 5431   3.683   2.152   7.296 -0.3113  0.1755 -0.6704
   40MOL0     C 5432   3.560   2.097   7.254 -1.1614  0.0305  0.0179
   40MOL0     N 5433   2.880   1.879   7.065 -0.8678  0.6291  0.3013
   40MOL0     N 5434   2.793   1.972   7.037 -0.0710  0.2397  0.3244
   40MOL0     C 5435   1.493   2.381   7.064 -0.4249 -0.5086 -0.2221
   40MOL0     C 5436   1.381   2.441   7.118  0.4516  0.4094  1.0755
   40MOL0     C 5437   1.001   2.583   7.312 -0.2630 -0.3706 -0.3715
   40MOL0     C 5438   0.936   2.482   7.376  0.4126  0.3159 -0.3379
   40MOL0     C 5439   0.810   2.508   7.435 -0.4494  0.8834  0.2244
   40MOL0     C 5440   0.754   2.632   7.445 -0.0257 -0.2765 -0.1706
   40MOL0     O 5441   0.629   2.637   7.512 -0.2788  0.4209  0.2257
   40MOL0     C 5442   0.544   2.758   7.494 -0.0793  0.0706  0.3094
   40MOL0     C 5443   0.571   2.858   7.611  0.2045 -0.0832  0.5729
   40MOL0     C 5444   0.531   2.799   7.746 -0.3106 -0.1282 -0.3589
   40MOL0     C 5445   0.535   2.903   7.859 -0.3055 -0.7145  0.5106
   40MOL0     C 5446   0.482   2.874   7.990 -0.1976  0.2555  0.1370
   40MOL0     C 5447   0.423   2.839   8.092 -0.5454  0.6941 -0.9223
   40MOL0     C 5448   0.830   2.737   7.401  0.0757  0.2034 -0.5932
   40MOL0     C 5449   0.950   2.720   7.329 -0.5360  0.5625 -0.1268
   40MOL0     C 5450   1.020   2.841   7.265 -0.9894 -0.5706  0.1271
   40MOL0     H 5451   1.250   2.208   7.323  0.6201  0.8957  1.0063
   40MOL0     H 5452   1.460   2.084   7.239 -1.8753 -0.3417 -0.6498
   40MOL0     H 5453   1.694   2.074   7.225 -0.3030  0.1699 -0.6844
   40MOL0     H 5454   1.736   2.238   7.268  2.9660 -0.8073 -0.4363
   40MOL0     H 5455   1.857   2.082   7.040 -3.7721  1.8165 -0.4493
   40MOL0     H 5456   1.904   2.251   7.093  0.8555 -0.1048 -1.9461
   40MOL0     H 5457   1.959   2.132   7.325 -0.0384 -0.0129 -0.2058
   40MOL0     H 5458   1.977   1.986   7.226 -0.8085 -0.5441 -0.2286
   40MOL0     H 5459   2.111   2.125   7.054  0.6369  0.0424 -0.0657
   40MOL0     H 5460   2.119   2.257   7.179  0.1683  0.0487  3.1122
   40MOL0     H 5461   2.223   1.973   7.211  1.3640 -0.6055 -0.6889
   40MOL0     H 5462   2.220   2.095   7.339  0.2371 -0.6741  0.1202
   40MOL0     H 5463   2.360   2.151   7.073 -1.5598  1.0263 -0.2802
   40MOL0     H 5464   2.383   2.227   7.219 -0.6603  0.7030 -0.7490
   40MOL0     H 5465   2.460   1.935   7.158 -1.8584  0.2253  1.1680
   40MOL0     H 5466   2.473   2.005   7.321 -2.3866  0.2751  0.8516
   40MOL0     H 5467   2.585   2.158   7.093 -0.0998  1.1052 -0.5192
   40MOL0     H 5468   2.661   2.149   7.251 -0.2430  0.2974 -0.0890
   40MOL0     H 5469   2.731   1.893   7.342 -0.4883  0.8129 -0.9681
   40MOL0     H 5470   2.981   1.657   7.169 -2.3760 -1.1348 -0.9694
   40MOL0     H 5471   2.895   1.647   7.314 -0.8623  0.2371  0.3170
   40MOL0     H 5472   3.020   1.803   7.441 -3.2069  0.8315 -1.6639
   40MOL0     H 5473   3.119   1.673   7.365  0.5871  1.3343 -1.3511
   40MOL0     H 5474   3.205   1.818   7.196  0.0188  0.3732  0.3773
   40MOL0     H 5475   3.099   1.958   7.245 -0.7750 -0.2347 -0.9663
   40MOL0     H 5476   3.224   1.958   7.466  0.8651  1.4363 -1.1041
   40MOL0     H 5477   3.320   1.817   7.406 -0.2053 -0.3406 -1.8143
   40MOL0     H 5478   3.456   1.979   7.561  0.5794  0.5055 -0.3763
   40MOL0     H 5479   3.651   2.183   7.708 -5.2675  0.8708 -1.2140
   40MOL0     H 5480   3.758   2.034   7.703 -0.8040 -1.9969  0.1250
   40MOL0     H 5481   3.591   2.019   7.735 -0.4446 -0.2483 -1.4021
   40MOL0     H 5482   4.111   2.208   7.313  1.9787  0.0599  0.4392
   40MOL0     H 5483   4.322   2.290   7.312  1.2363  1.8286  0.2939
   40MOL0     H 5484   4.537   2.430   7.550  1.4278  1.5512  0.4806
   40MOL0     H 5485   4.508   2.370   7.379 -0.1791 -0.6732  0.6610
   40MOL0     H 5486   4.591   2.610   7.312  1.6028  2.1233  0.3628
   40MOL0     H 5487   4.647   2.621   7.483 -0.9611  0.5384 -1.0863
   40MOL0     H 5488   4.724   2.427   7.272  0.8111  0.5090 -0.2336
   40MOL0     H 5489   4.786   2.418   7.447  1.3125 -0.8121 -1.5072
   40MOL0     H 5490   4.876   2.648   7.400 -2.6591  0.6888  0.5877
   40MOL0     H 5491   4.838   2.617   7.224 -2.7069  1.3872  1.0028
   40MOL0     H 5492   5.023   2.455   7.405 -0.9628 -1.2116 -0.5665
   40MOL0     H 5493   4.974   2.407   7.237 -2.6771 -0.0899  0.0969
   40MOL0     H 5494   5.117   2.676   7.290 -2.8379  1.4554 -1.3911
   40MOL0     H 5495   5.085   2.594   7.137  1.8092 -2.1770 -0.5282
   40MOL0     H 5496   5.237   2.424   7.187 -1.1252 -1.0779  1.6262
   40MOL0     H 5497   5.283   2.493   7.347 -0.4899  2.7925  1.2270
   40MOL0     H 5498   5.327   2.707   7.207 -0.5016  0.6657 -0.6702
   40MOL0     H 5499   5.328   2.616   7.058  0.0374 -0.4829 -0.3323
   40MOL0     H 5500   4.180   2.648   7.508 -2.8147 -0.6573  4.5037
   40MOL0     H 5501   3.952   2.557   7.502  0.0152  0.5781 -0.1217
   40MOL0     H 5502   3.748   2.197   7.221  2.6820  0.8878  2.1556
   40MOL0     H 5503   3.532   2.096   7.149 -0.0542 -0.1715 -0.2857
   40MOL0     H 5504   1.550   2.429   6.986 -0.8444  0.9970  0.3498
   40MOL0     H 5505   1.349   2.536   7.077  2.8942  1.0716  0.5555
   40MOL0     H 5506   0.976   2.382   7.379 -1.0912 -0.3094  0.1990
   40MOL0     H 5507   0.754   2.420   7.463  0.0188  1.5681  3.7304
   40MOL0     H 5508   0.575   2.809   7.403 -0.2073  1.2673  0.9174
   40MOL0     H 5509   0.439   2.736   7.474 -0.6981  1.9950  1.1919
   40MOL0     H 5510   0.509   2.942   7.581 -0.6218 -1.3463 -1.4600
   40MOL0     H 5511   0.674   2.895   7.610 -0.1696  0.9733 -0.0966
   40MOL0     H 5512   0.433   2.751   7.738  0.4458 -1.4103 -2.9112
   40MOL0     H 5513   0.607   2.728   7.777  0.6371  0.2136 -1.7784
   40MOL0     H 5514   0.474   2.989   7.831 -0.6351  0.1167  3.3935
   40MOL0     H 5515   0.637   2.940   7.874 -0.1423  0.0378 -2.0332
   40MOL0     H 5516   0.366   2.808   8.178  0.9987  0.5850  0.1208
   40MOL0     H 5517   0.790   2.838   7.397  0.1317  0.1970 -1.4150
   40MOL0     H 5518   1.112   2.876   7.313 -1.7055  1.7291 -0.0497
   40MOL0     H 5519   1.031   2.830   7.157  3.0887 -1.7993  0.4857
   40MOL0     H 5520   0.954   2.927   7.278  0.4267  0.6657 -0.5356
   41MOL0     O 5521  10.098   5.818   0.788  0.4394  0.2192 -0.1669
   41MOL0     C 5522  10.068   5.742   0.868 -0.6438 -0.1784 -0.7574
   41MOL0     O 5523  10.155   5.655   0.933 -0.5790 -0.2869 -0.6187
   41MOL0     C 5524  10.271   5.637   0.853  0.5114  1.0415 -0.9224
   41MOL0     C 5525  10.389   5.707   0.877  0.7608 -0.4043  0.1631
   41MOL0     C 5526  10.507   5.669   0.801  0.7490  0.2165 -0.4819
   41MOL0     C 5527  10.508   5.575   0.703  0.6534 -0.2062  0.0035
   41MOL0     O 5528  10.620   5.532   0.631  0.0093 -0.9359  0.1975
   41MOL0     C 5529  10.739   5.540   0.710  0.0489 -0.3341  0.1392
   41MOL0     C 5530  10.818   5.673   0.673 -0.0419 -0.4190 -0.8267
   41MOL0     C 5531  10.965   5.660   0.726  0.4430 -0.2679 -0.1197
   41MOL0     C 5532  10.985   5.677   0.875  0.1290  0.3293  0.1290
   41MOL0     C 5533  11.126   5.711   0.929 -0.3588 -0.9359 -0.3808
   41MOL0     C 5534  11.225   5.627   0.850  0.0544 -0.4418 -0.4575
   41MOL0     C 5535  11.370   5.638   0.898 -0.3174  0.7225  0.1458
   41MOL0     C 5536  11.415   5.783   0.894 -0.7945  0.3771  0.4537
   41MOL0     N 5537  11.554   5.797   0.943  0.0664 -0.5950  0.3587
   41MOL0     C 5538  11.602   5.775   1.066 -0.5453 -0.3777 -0.8497
   41MOL0     C 5539  11.732   5.789   1.069 -0.2405 -0.3045  0.2632
   41MOL0     C 5540  11.826   5.753   1.182 -0.4119 -0.7475  0.0399
   41MOL0     C 5541  11.970   5.776   1.125 -0.0393 -0.9665 -0.9062
   41MOL0     C 5542  12.075   5.741   1.221 -0.7536 -0.4959 -1.0274
   41MOL0     C 5543  12.220   5.754   1.180  0.3430  0.7699 -0.8642
   41MOL0     O 5544  12.221   5.858   1.085 -1.4392 -0.2279  0.2277
   41MOL0     C 5545  12.321   5.948   1.085 -0.4250 -0.2674 -0.2185
   41MOL0     C 5546  12.445   5.925   1.136 -0.9109 -0.0329  0.2383
   41MOL0     C 5547  12.548   6.034   1.138  0.5465 -0.3238  0.2269
   41MOL0     C 5548  12.673   6.030   1.218  0.1259  0.8014 -0.6042
   41MOL0     C 5549  12.510   6.161   1.084 -0.0481 -0.5596  0.5347
   41MOL0     C 5550  12.596   6.285   1.078  0.4920  0.8813  0.1021
   41MOL0     O 5551  12.668   6.317   1.189  0.7996  0.1045 -0.2356
   41MOL0     C 5552  12.746   6.430   1.195 -0.5339 -0.0125  0.1920
   41MOL0     C 5553  12.716   6.558   1.241  1.0340  0.3987  0.1523
   41MOL0     C 5554  12.812   6.660   1.244  0.4759 -0.2568  0.5363
   41MOL0     C 5555  12.946   6.632   1.209 -0.2305 -0.3411 -0.0532
   41MOL0     O 5556  13.054   6.718   1.218  0.4764 -0.4323  0.1925
   41MOL0     C 5557  13.031   6.860   1.218  0.3916  0.8880 -0.1510
   41MOL0     C 5558  13.047   6.912   1.073  0.5118  0.2584  0.2060
   41MOL0     C 5559  13.052   7.064   1.054 -0.1930 -0.0513 -0.1549
   41MOL0     C 5560  13.089   7.102   0.911  0.0151  0.9108 -0.1723
   41MOL0     C 5561  13.241   7.101   0.878  1.0557  0.0869  0.2328
   41MOL0     C 5562  13.329   7.177   0.972  0.1312 -0.4754  0.1274
   41MOL0     C 5563  13.475   7.209   0.918  0.3936  0.5100 -0.4687
   41MOL0     C 5564  13.492   7.348   0.855 -1.2089 -0.0506 -0.1625
   41MOL0    Cl 5565  13.361   7.358   0.734 -0.2236 -0.0494 -0.1034
   41MOL0     C 5566  12.976   6.503   1.159 -0.3790  0.4680 -0.0014
   41MOL0     C 5567  12.881   6.403   1.152  0.4253 -0.5940 -0.3124
   41MOL0     O 5568  12.597   6.353   0.980 -0.2844 -0.5828 -0.7105
   41MOL0     C 5569  12.381   6.174   1.028 -0.1406  0.4193  0.1473
   41MOL0     C 5570  12.292   6.066   1.028  0.2806  0.8449 -0.2942
   41MOL0     N 5571  11.766   5.837   0.940  0.9097 -0.6455  0.0769
   41MOL0     N 5572  11.659   5.844   0.867 -0.6360 -0.1814 -0.0478
   41MOL0     C 5573  10.385   5.510   0.674  0.3801  0.1376  0.2764
   41MOL0     C 5574  10.268   5.544   0.748  1.0219 -0.7266  0.1396
   41MOL0     C 5575   9.924   5.721   0.891  0.8712  0.5265  0.2463
   41MOL0     C 5576   9.881   5.675   1.017 -0.2518 -1.1327 -0.4845
   41MOL0     C 5577   9.750   5.667   1.056 -0.8357  0.4846  0.2867
   41MOL0     C 5578   9.647   5.700   0.973  0.4641 -0.1901 -0.8511
   41MOL0     O 5579   9.523   5.695   1.031  0.3288  0.4433  0.7892
   41MOL0     C 5580   9.433   5.799   0.980 -0.3320  0.3281  0.4644
   41MOL0     C 5581   9.308   5.778   1.065  0.6912 -0.0997 -0.0638
   41MOL0     C 5582   9.194   5.863   1.009 -0.0287 -0.2449  0.4579
   41MOL0     C 5583   9.086   5.872   1.108 -0.1240 -0.2813 -0.5462
   41MOL0     C 5584   9.029   5.735   1.125 -0.1828 -0.2819  0.0960
   41MOL0     C 5585   8.980   5.617   1.127 -0.3164 -0.0485 -0.1839
   41MOL0     C 5586   9.682   5.742   0.846 -0.6877 -0.4179  0.5677
   41MOL0     C 5587   9.815   5.750   0.796 -0.9830  0.7638 -0.8999
   41MOL0     C 5588   9.841   5.768   0.642 -0.2648 -0.3669  0.0100
   41MOL0     H 5589  10.394   5.778   0.958 -1.1853  0.2830 -0.2622
   41MOL0     H 5590  10.589   5.734   0.828 -0.5881  1.8578 -0.1733
   41MOL0     H 5591  10.794   5.459   0.660  1.0737  1.2545 -1.4128
   41MOL0     H 5592  10.730   5.522   0.817  2.3381 -4.1645 -0.1193
   41MOL0     H 5593  10.824   5.697   0.567 -0.6914  2.5497 -0.2713
   41MOL0     H 5594  10.775   5.759   0.725  0.1414 -0.3199 -0.8377
   41MOL0     H 5595  11.005   5.560   0.705  3.1288  1.2487 -3.0532
   41MOL0     H 5596  11.020   5.741   0.678  0.6209 -0.4313 -0.1948
   41MOL0     H 5597  10.920   5.757   0.914  0.7152  1.3771 -0.9781
   41MOL0     H 5598  10.947   5.583   0.916  1.2364 -0.1593  0.0593
   41MOL0     H 5599  11.134   5.695   1.037 -1.6265  3.6979  0.6117
   41MOL0     H 5600  11.151   5.816   0.912  0.9434 -0.9742  1.0998
   41MOL0     H 5601  11.203   5.520   0.856  0.6534 -0.5978 -0.9771
   41MOL0     H 5602  11.220   5.672   0.751  5.5123  1.8411 -0.0230
   41MOL0     H 5603  11.427   5.576   0.828  0.1747  1.2136  0.1120
   41MOL0     H 5604  11.394   5.595   0.995  1.3383 -1.1806 -1.0338
   41MOL0     H 5605  11.420   5.824   0.793 -0.3446 -2.2484 -0.6787
   41MOL0     H 5606  11.359   5.853   0.957 -0.3910  1.4808 -0.3901
   41MOL0     H 5607  11.551   5.743   1.156  3.3985  1.7837  2.4568
   41MOL0     H 5608  11.803   5.652   1.216 -1.1364 -0.1542  1.3893
   41MOL0     H 5609  11.793   5.823   1.260 -0.6417 -0.2022 -0.5309
   41MOL0     H 5610  11.977   5.713   1.036 -0.7872  1.3695 -2.7275
   41MOL0     H 5611  11.977   5.876   1.080 -0.4833 -0.9441 -0.9350
   41MOL0     H 5612  12.061   5.788   1.318  2.5206  0.3601 -0.8277
   41MOL0     H 5613  12.062   5.632   1.230 -1.5506 -0.2787  0.8103
   41MOL0     H 5614  12.274   5.772   1.273 -1.4266  1.2177  0.1047
   41MOL0     H 5615  12.260   5.660   1.140  0.3866  0.2935  0.2550
   41MOL0     H 5616  12.469   5.833   1.189 -1.4693 -0.0563  0.4631
   41MOL0     H 5617  12.714   5.931   1.241 -1.4945  0.3190  0.3527
   41MOL0     H 5618  12.643   6.078   1.312 -4.0151 -0.8847 -0.8600
   41MOL0     H 5619  12.746   6.088   1.160 -0.6358 -0.0654 -2.5210
   41MOL0     H 5620  12.612   6.573   1.269  1.1762 -0.4199  1.1263
   41MOL0     H 5621  12.775   6.753   1.285 -1.9251  1.2153 -4.1954
   41MOL0     H 5622  12.933   6.882   1.260  1.3530  1.4277  1.9544
   41MOL0     H 5623  13.094   6.912   1.291 -0.3833 -0.4137  1.5083
   41MOL0     H 5624  13.143   6.874   1.036  0.4203  2.4303 -2.5848
   41MOL0     H 5625  12.962   6.881   1.012  0.0918  0.9877  0.4158
   41MOL0     H 5626  13.130   7.104   1.119 -0.0117 -1.1185  0.3042
   41MOL0     H 5627  12.962   7.116   1.087 -1.3497 -2.6364  1.1141
   41MOL0     H 5628  13.049   7.203   0.898  0.4455  1.2521  1.0338
   41MOL0     H 5629  13.042   7.039   0.835  2.1444  2.0557 -2.5995
   41MOL0     H 5630  13.271   6.997   0.867  0.2281 -0.1460  0.1292
   41MOL0     H 5631  13.256   7.147   0.780 -1.3965  1.2527  0.3358
   41MOL0     H 5632  13.339   7.120   1.065 -3.8671 -2.0581 -0.2130
   41MOL0     H 5633  13.280   7.274   0.986  0.2133 -0.1862 -1.3856
   41MOL0     H 5634  13.508   7.140   0.840  0.1702 -0.3109  0.1441
   41MOL0     H 5635  13.536   7.205   1.009  0.1264 -0.3764 -0.3184
   41MOL0     H 5636  13.588   7.361   0.806 -0.1294  1.2152  2.1284
   41MOL0     H 5637  13.496   7.423   0.935  2.2550  0.9679 -1.1261
   41MOL0     H 5638  13.079   6.480   1.133  0.1553  2.2757  0.4205
   41MOL0     H 5639  12.906   6.305   1.112 -1.0062 -0.3828 -1.8723
   41MOL0     H 5640  12.347   6.269   0.988 -3.2599 -0.2806  0.8437
   41MOL0     H 5641  12.191   6.083   0.994 -0.0908  2.4323  1.5105
   41MOL0     H 5642  10.372   5.441   0.591 -3.1691  1.4189 -0.4152
   41MOL0     H 5643  10.172   5.493   0.743 -0.4259  1.9161 -0.7249
   41MOL0     H 5644   9.960   5.657   1.089 -1.9621  2.9164  2.8386
   41MOL0     H 5645   9.733   5.630   1.157  0.8963  2.3663  1.3525
   41MOL0     H 5646   9.471   5.900   0.997  0.8406  0.2708 -1.4473
   41MOL0     H 5647   9.404   5.782   0.876 -0.1916 -0.0320  0.4793
   41MOL0     H 5648   9.334   5.817   1.164 -0.2997  2.3183 -0.6863
   41MOL0     H 5649   9.283   5.671   1.069 -1.5286  0.2905 -1.6122
   41MOL0     H 5650   9.232   5.963   0.986  2.1294 -0.3102  3.1275
   41MOL0     H 5651   9.160   5.816   0.916 -0.3452  2.4086 -0.8515
   41MOL0     H 5652   9.005   5.933   1.068 -0.3368 -0.0382  0.2524
   41MOL0     H 5653   9.130   5.919   1.196 -3.3080  1.4761  0.2262
   41MOL0     H 5654   8.935   5.520   1.124 -1.9857  0.7023 -0.8166
   41MOL0     H 5655   9.598   5.783   0.791  1.7277  3.2458 -0.7666
   41MOL0     H 5656   9.748   5.773   0.583 -0.3083  1.2703  0.1889
   41MOL0     H 5657   9.908   5.849   0.614 -1.5879  1.0661  0.8755
   41MOL0     H 5658   9.872   5.671   0.602 -0.9589  0.5226 -3.0165
   42MOL0     O 5659   3.722   6.281   4.614 -0.1500 -0.3357  0.6956
   42MOL0     C 5660   3.660   6.349   4.531 -0.1520  0.3255  0.3267
   42MOL0     O 5661   3.711   6.398   4.422 -0.0805  0.1198 -0.8879
   42MOL0     C 5662   3.835   6.342   4.380 -0.0053 -0.6460 -1.2458
   42MOL0     C 5663   3.832   6.219   4.319  0.0440 -0.8777  0.6763
   42MOL0     C 5664   3.943   6.158   4.273 -0.1842 -0.7865 -0.3835
   42MOL0     C 5665   4.073   6.223   4.286 -0.5115  0.0253  0.7197
   42MOL0     O 5666   4.193   6.189   4.219  0.6770  0.0450  0.3282
   42MOL0     C 5667   4.207   6.058   4.167  0.0878  0.0073 -0.1589
   42MOL0     C 5668   4.349   6.036   4.114 -0.3787  0.5982  0.2631
   42MOL0     C 5669   4.445   6.080   4.220  0.7099 -0.0537  0.0337
   42MOL0     C 5670   4.587   6.030   4.192  0.1170  0.1074  0.1805
   42MOL0     C 5671   4.682   6.050   4.319  0.1703  0.9465 -0.4658
   42MOL0     C 5672   4.719   6.195   4.347 -0.4325 -0.0500 -0.3216
   42MOL0     C 5673   4.782   6.216   4.484  0.1617 -0.4943 -0.5034
   42MOL0     C 5674   4.799   6.363   4.519 -0.0285 -0.2023 -0.0606
   42MOL0     N 5675   4.935   6.404   4.462  0.6919  0.0757 -0.1201
   42MOL0     C 5676   4.941   6.465   4.336 -0.1517 -0.3597  0.1735
   42MOL0     C 5677   5.071   6.488   4.329 -0.2433 -0.5960 -0.6095
   42MOL0     C 5678   5.146   6.554   4.209  0.2678  0.4958 -0.2131
   42MOL0     C 5679   5.275   6.483   4.159 -0.1234 -0.1847  0.4473
   42MOL0     C 5680   5.393   6.467   4.252  0.4355 -0.5900  0.5555
   42MOL0     C 5681   5.517   6.406   4.173  0.1294 -0.1399 -0.1506
   42MOL0     O 5682   5.484   6.287   4.098  0.1376  0.0148 -0.0959
   42MOL0     C 5683   5.591   6.196   4.088 -0.4932 -0.0166 -1.0217
   42MOL0     C 5684   5.553   6.078   4.046 -0.3049  0.1962  0.3673
   42MOL0     C 5685   5.645   5.978   4.015 -0.5777  0.5660 -0.3549
   42MOL0     C 5686   5.594   5.849   3.956  0.5439  0.1315  0.7411
   42MOL0     C 5687   5.788   6.003   4.035  0.1511 -0.4610 -0.0529
   42MOL0     C 5688   5.896   5.899   4.024 -0.0494 -0.0406  0.1908
   42MOL0     O 5689   6.025   5.949   4.009 -0.5773 -0.5989 -0.2011
   42MOL0     C 5690   6.122   5.857   3.987 -0.1673  0.0706 -0.6783
   42MOL0     C 5691   6.132   5.802   3.858 -0.2306  0.4136  0.2023
   42MOL0     C 5692   6.239   5.730   3.811 -0.1115 -0.0439 -0.1189
   42MOL0     C 5693   6.353   5.701   3.900  0.8780  0.3916  0.3061
   42MOL0     O 5694   6.455   5.630   3.851  0.3467  0.5314  0.6120
   42MOL0     C 5695   6.463   5.504   3.917 -0.1792  0.3797 -0.0498
   42MOL0     C 5696   6.583   5.421   3.860 -0.2973  0.6841  0.1076
   42MOL0     C 5697   6.593   5.286   3.927  0.1633 -0.5035 -0.3543
   42MOL0     C 5698   6.724   5.213   3.900 -0.0500 -0.6823  0.0481
   42MOL0     C 5699   6.739   5.073   3.944  0.0838 -0.3664 -0.0368
   42MOL0     C 5700   6.837   4.987   3.863  0.1762 -0.5772 -0.4715
   42MOL0     C 5701   6.855   4.853   3.935  0.3809 -0.3721 -0.1330
   42MOL0     C 5702   6.982   4.775   3.876 -0.1385 -0.0779  0.6118
   42MOL0    Cl 5703   6.970   4.593   3.911  0.3045 -0.3617 -0.0861
   42MOL0     C 5704   6.349   5.755   4.034  0.3284 -0.6925  0.0973
   42MOL0     C 5705   6.237   5.836   4.074  0.6791 -0.1176  0.5752
   42MOL0     O 5706   5.863   5.782   4.014 -0.2594 -0.1683  0.0019
   42MOL0     C 5707   5.833   6.134   4.072  0.1166  0.1928  0.6905
   42MOL0     C 5708   5.728   6.229   4.092 -0.2646 -0.5929 -0.5815
   42MOL0     N 5709   5.141   6.448   4.441  0.9940  0.4139  0.0619
   42MOL0     N 5710   5.053   6.407   4.529  0.0158 -0.6407  0.1121
   42MOL0     C 5711   4.065   6.353   4.344 -0.2928 -0.3165  0.2453
   42MOL0     C 5712   3.954   6.415   4.393 -0.1939  0.0643  0.2118
   42MOL0     C 5713   3.515   6.391   4.555 -0.3602 -0.1089 -0.5995
   42MOL0     C 5714   3.452   6.483   4.465  0.6838 -0.2364 -0.2096
   42MOL0     C 5715   3.322   6.531   4.471 -0.6260  0.2622 -0.2616
   42MOL0     C 5716   3.240   6.488   4.583  0.0828  0.2187  1.3899
   42MOL0     O 5717   3.117   6.532   4.609  0.0852 -0.4440  0.2097
   42MOL0     C 5718   3.072   6.657   4.560 -0.2389 -0.6910  0.0571
   42MOL0     C 5719   2.918   6.658   4.577  0.2883  0.1609 -0.1979
   42MOL0     C 5720   2.853   6.793   4.559  0.4162 -0.4576  0.1566
   42MOL0     C 5721   2.803   6.822   4.421 -0.2155 -0.0130  0.3616
   42MOL0     C 5722   2.696   6.927   4.427 -0.7042  0.0701  0.4528
   42MOL0     C 5723   2.606   7.011   4.439  0.4569  0.2610 -0.3397
   42MOL0     C 5724   3.294   6.398   4.671 -0.0598 -0.1794 -0.5166
   42MOL0     C 5725   3.428   6.343   4.658  0.0904 -0.4971  0.4619
   42MOL0     C 5726   3.470   6.248   4.767  0.0725 -0.5091  0.3840
   42MOL0     H 5727   3.732   6.184   4.294 -0.4246  0.4215  0.6673
   42MOL0     H 5728   3.937   6.074   4.206  1.7947 -2.5493  1.5006
   42MOL0     H 5729   4.127   6.041   4.095 -2.2013  3.6826  1.2165
   42MOL0     H 5730   4.189   5.997   4.256 -1.0305  0.1403 -0.2845
   42MOL0     H 5731   4.362   5.929   4.094 -2.7394  0.4651 -0.8686
   42MOL0     H 5732   4.356   6.084   4.016  0.4780 -1.0150 -0.4983
   42MOL0     H 5733   4.448   6.189   4.211 -1.3310  0.2848  2.4640
   42MOL0     H 5734   4.417   6.050   4.321  0.3322  0.6707  0.1471
   42MOL0     H 5735   4.577   5.925   4.163 -1.7739  0.6882 -1.5349
   42MOL0     H 5736   4.620   6.086   4.104 -0.9665  1.5800  0.6582
   42MOL0     H 5737   4.778   5.999   4.309 -1.9604 -3.6827 -0.0585
   42MOL0     H 5738   4.627   6.006   4.403  0.2659 -1.6576 -1.6854
   42MOL0     H 5739   4.789   6.226   4.269  0.9569  1.4174  1.4158
   42MOL0     H 5740   4.638   6.267   4.336  0.5746  1.2600  0.5357
   42MOL0     H 5741   4.878   6.163   4.494 -1.1305 -2.9182 -0.2011
   42MOL0     H 5742   4.720   6.174   4.564 -0.1571  0.0327 -0.4678
   42MOL0     H 5743   4.713   6.416   4.478  0.4777  1.1879  0.5998
   42MOL0     H 5744   4.802   6.382   4.627 -1.8073  0.1574 -0.0444
   42MOL0     H 5745   4.863   6.489   4.265  1.1754  2.3473 -0.4728
   42MOL0     H 5746   5.174   6.655   4.243  1.5490  0.8076 -2.0676
   42MOL0     H 5747   5.082   6.557   4.120  0.2466  0.9790 -0.1881
   42MOL0     H 5748   5.244   6.382   4.131  1.5780 -1.5457  3.0263
   42MOL0     H 5749   5.305   6.545   4.073 -0.6099  0.2579  0.5951
   42MOL0     H 5750   5.410   6.568   4.291 -0.7443  0.1244 -0.6796
   42MOL0     H 5751   5.375   6.396   4.333 -2.1423 -1.2327 -0.4581
   42MOL0     H 5752   5.565   6.488   4.118 -2.2132  0.5603 -1.3253
   42MOL0     H 5753   5.589   6.378   4.249  0.1694 -0.6982 -0.3947
   42MOL0     H 5754   5.447   6.057   4.059  0.0683  0.1756  6.3540
   42MOL0     H 5755   5.629   5.764   4.015 -0.5226 -1.9734 -1.5247
   42MOL0     H 5756   5.635   5.839   3.855 -2.1339 -1.0341 -0.3211
   42MOL0     H 5757   5.486   5.855   3.943  0.5746  2.1196  0.9893
   42MOL0     H 5758   6.059   5.841   3.788  1.5134  3.4589 -0.1214
   42MOL0     H 5759   6.248   5.699   3.707  1.7985  1.1772 -0.3686
   42MOL0     H 5760   6.486   5.519   4.022 -0.3834  1.0153 -0.0889
   42MOL0     H 5761   6.367   5.453   3.905 -2.0681  4.0973 -3.1877
   42MOL0     H 5762   6.572   5.423   3.751 -3.9303  3.7289  0.3342
   42MOL0     H 5763   6.665   5.488   3.885 -0.7752  2.6653 -3.0432
   42MOL0     H 5764   6.518   5.223   3.879  0.4900  0.2111 -1.8547
   42MOL0     H 5765   6.576   5.296   4.035  1.5860 -2.3550  0.0910
   42MOL0     H 5766   6.815   5.265   3.934  0.5929 -0.2948 -2.0948
   42MOL0     H 5767   6.733   5.205   3.791  2.6887  2.0617 -0.0704
   42MOL0     H 5768   6.763   5.074   4.051 -1.7300 -1.0008  0.4069
   42MOL0     H 5769   6.639   5.028   3.936  0.2896 -1.0626  1.1033
   42MOL0     H 5770   6.929   5.047   3.861 -0.1275  0.1795  3.1565
   42MOL0     H 5771   6.811   4.979   3.757 -0.0557  0.8116 -0.5382
   42MOL0     H 5772   6.754   4.813   3.921 -1.2738  3.0940  0.7644
   42MOL0     H 5773   6.877   4.867   4.042 -0.4724  0.6854 -0.0854
   42MOL0     H 5774   7.076   4.821   3.909 -0.0428  0.8380 -0.8533
   42MOL0     H 5775   6.974   4.791   3.768  0.3341  0.5596  0.6685
   42MOL0     H 5776   6.432   5.749   4.104 -0.4951 -1.4646  1.0391
   42MOL0     H 5777   6.237   5.867   4.178  3.8527  0.0766  0.6275
   42MOL0     H 5778   5.940   6.150   4.084  0.3574 -1.9448  1.8747
   42MOL0     H 5779   5.758   6.332   4.109  0.6223 -1.1171  1.2746
   42MOL0     H 5780   4.160   6.406   4.347  0.4007 -1.5706  1.7912
   42MOL0     H 5781   3.956   6.510   4.446 -2.0001  0.7290 -0.8353
   42MOL0     H 5782   3.504   6.529   4.383 -3.0781  0.7527 -2.2800
   42MOL0     H 5783   3.291   6.606   4.399 -0.4473 -4.1203 -5.5850
   42MOL0     H 5784   3.111   6.740   4.620  1.6949 -0.4597 -1.4284
   42MOL0     H 5785   3.097   6.672   4.455  0.8036  4.0679  0.7773
   42MOL0     H 5786   2.890   6.622   4.677  0.3761 -1.6589 -0.7870
   42MOL0     H 5787   2.862   6.583   4.521 -0.4837  1.4755 -1.2502
   42MOL0     H 5788   2.770   6.808   4.630 -1.1225  1.1457 -1.8535
   42MOL0     H 5789   2.929   6.867   4.585  2.1714 -2.0009 -0.4026
   42MOL0     H 5790   2.767   6.726   4.381  0.8515  0.1344 -1.0554
   42MOL0     H 5791   2.888   6.847   4.358 -0.4970  2.1183  0.7705
   42MOL0     H 5792   2.523   7.077   4.450  1.3661  1.2506  0.9435
   42MOL0     H 5793   3.226   6.362   4.748  2.4497  1.1991  2.6033
   42MOL0     H 5794   3.540   6.307   4.827  1.1731 -0.1049 -1.2501
   42MOL0     H 5795   3.377   6.208   4.810 -0.2860 -0.6216 -0.4841
   42MOL0     H 5796   3.528   6.161   4.735 -1.8832 -0.7997 -2.7945
   43MOL0     O 5797  10.770   4.225   2.732 -0.4824  0.3658  0.0073
   43MOL0     C 5798  10.668   4.249   2.783  0.7177 -0.7173  0.6103
   43MOL0     O 5799  10.625   4.371   2.806 -0.0081 -0.4193 -0.6987
   43MOL0     C 5800  10.710   4.481   2.821  0.2965  0.1632 -0.5513
   43MOL0     C 5801  10.640   4.608   2.815 -0.2877  0.3275  0.1370
   43MOL0     C 5802  10.723   4.723   2.830 -0.2974  1.3546  0.0000
   43MOL0     C 5803  10.862   4.719   2.849  1.2398 -0.9721 -0.1842
   43MOL0     O 5804  10.919   4.849   2.846 -0.7862 -0.0493 -0.3325
   43MOL0     C 5805  11.062   4.844   2.857  0.6440  0.4541  0.3968
   43MOL0     C 5806  11.092   4.993   2.875 -0.2184  0.2197  0.0844
   43MOL0     C 5807  11.239   5.020   2.869  0.2183  0.7342 -0.0489
   43MOL0     C 5808  11.320   4.971   2.986 -0.3298 -0.0975 -0.7944
   43MOL0     C 5809  11.466   5.020   2.987 -0.2322 -0.1404 -0.0454
   43MOL0     C 5810  11.471   5.178   3.011  0.5189 -0.7596  0.0051
   43MOL0     C 5811  11.607   5.254   3.039  0.0802  0.0935  0.7287
   43MOL0     C 5812  11.721   5.204   2.947 -0.1367 -0.1446 -0.4910
   43MOL0     N 5813  11.832   5.306   2.928  0.4415 -0.0465  0.6288
   43MOL0     C 5814  11.955   5.286   2.979 -0.1767 -0.0380  0.4802
   43MOL0     C 5815  12.019   5.402   2.952  0.2772 -0.4659  0.1177
   43MOL0     C 5816  12.155   5.467   2.980  0.0541 -0.0936 -0.1001
   43MOL0     C 5817  12.229   5.384   3.090  0.6307  0.0161 -0.0904
   43MOL0     C 5818  12.352   5.461   3.118 -0.9232 -0.0691  0.1111
   43MOL0     C 5819  12.427   5.382   3.226 -0.1008 -0.5724  0.1888
   43MOL0     O 5820  12.521   5.468   3.297 -0.7314 -0.1164  0.1076
   43MOL0     C 5821  12.651   5.484   3.249 -0.4911  0.2451  0.9019
   43MOL0     C 5822  12.707   5.433   3.124  0.9873  0.1245 -0.0218
   43MOL0     C 5823  12.842   5.442   3.079  1.5923 -0.6714 -0.6523
   43MOL0     C 5824  12.886   5.368   2.954 -0.1111 -0.0730 -0.3775
   43MOL0     C 5825  12.926   5.517   3.164 -0.0364  0.9716 -0.0542
   43MOL0     C 5826  13.074   5.541   3.140  0.0862 -0.4200  1.3039
   43MOL0     O 5827  13.126   5.519   3.013  0.8281  0.2479 -0.6259
   43MOL0     C 5828  13.238   5.574   2.969 -0.1011  0.0785  0.3882
   43MOL0     C 5829  13.234   5.649   2.851 -0.6448 -0.1815  0.5144
   43MOL0     C 5830  13.353   5.702   2.800  0.3311  0.9005  0.9529
   43MOL0     C 5831  13.475   5.689   2.865  0.1297  0.2304 -0.3200
   43MOL0     O 5832  13.583   5.740   2.798 -0.0783 -0.3369  0.5250
   43MOL0     C 5833  13.702   5.749   2.869  0.5515 -0.2686 -0.1753
   43MOL0     C 5834  13.808   5.825   2.792  0.7202 -0.3149 -0.9557
   43MOL0     C 5835  13.849   5.780   2.653  0.2627  0.7020  0.3021
   43MOL0     C 5836  13.936   5.874   2.582 -0.6819  0.0775  0.9528
   43MOL0     C 5837  14.001   5.838   2.446 -0.5609  0.6078 -0.3542
   43MOL0     C 5838  14.075   5.958   2.376 -0.1952  0.3957 -0.3028
   43MOL0     C 5839  14.152   5.893   2.262  0.1679 -0.2097  0.5942
   43MOL0     C 5840  14.229   6.000   2.192 -0.2983 -0.0827  0.0681
   43MOL0    Cl 5841  14.310   5.914   2.064  0.5029  0.1297  0.0071
   43MOL0     C 5842  13.469   5.613   2.983 -0.2075  0.8881 -0.5282
   43MOL0     C 5843  13.361   5.547   3.031  1.1238 -0.4013  0.2499
   43MOL0     O 5844  13.141   5.583   3.232  0.5109  0.3233  0.9214
   43MOL0     C 5845  12.881   5.566   3.295 -0.8800  0.4022  0.4641
   43MOL0     C 5846  12.745   5.552   3.332  0.4701  0.6624 -0.8913
   43MOL0     N 5847  11.925   5.481   2.880 -0.6050  0.2956  0.0214
   43MOL0     N 5848  11.813   5.426   2.874 -0.0327  0.0487 -0.3099
   43MOL0     C 5849  10.922   4.597   2.849 -0.1436 -0.1845 -0.0943
   43MOL0     C 5850  10.851   4.476   2.846  0.5784 -0.1319  0.2981
   43MOL0     C 5851  10.572   4.137   2.806 -0.0136 -0.1383 -0.6440
   43MOL0     C 5852  10.461   4.157   2.882  0.8623  0.5087 -0.2912
   43MOL0     C 5853  10.359   4.052   2.888 -0.0546  0.3776 -0.8399
   43MOL0     C 5854  10.379   3.926   2.846  0.1679  0.9836  0.5277
   43MOL0     O 5855  10.283   3.834   2.840  0.1038  0.3270 -0.0789
   43MOL0     C 5856  10.160   3.855   2.767 -1.1991  0.2588  0.0351
   43MOL0     C 5857  10.135   3.724   2.695  0.0256 -0.4329  0.0119
   43MOL0     C 5858  10.040   3.760   2.574 -0.1796  0.8077  0.6742
   43MOL0     C 5859  10.027   3.644   2.469 -0.5425 -0.5158 -1.3283
   43MOL0     C 5860   9.921   3.682   2.373  0.4881 -0.1480 -0.8469
   43MOL0     C 5861   9.837   3.730   2.299  0.2460  0.3060 -0.5821
   43MOL0     C 5862  10.504   3.906   2.778 -0.2857 -0.5110 -0.2988
   43MOL0     C 5863  10.602   4.001   2.761 -0.7073 -0.2603 -0.7769
   43MOL0     C 5864  10.735   3.958   2.711 -0.0401  0.1119  0.2807
   43MOL0     H 5865  10.532   4.616   2.803 -0.1559 -0.9590 -2.5672
   43MOL0     H 5866  10.664   4.812   2.811 -2.9473  0.0596  1.6026
   43MOL0     H 5867  11.105   4.815   2.761 -0.6689  4.5089 -1.6736
   43MOL0     H 5868  11.095   4.779   2.939 -3.7563 -2.6320  0.0877
   43MOL0     H 5869  11.052   5.064   2.802 -1.2531  0.3478  0.7558
   43MOL0     H 5870  11.047   5.031   2.967 -0.3318  1.1169 -0.3369
   43MOL0     H 5871  11.282   4.983   2.775  0.9320  0.3222  0.4368
   43MOL0     H 5872  11.239   5.129   2.872 -0.2598  0.7121  0.9742
   43MOL0     H 5873  11.267   5.010   3.074 -1.5795 -0.9380 -1.1430
   43MOL0     H 5874  11.327   4.862   2.989  1.5913  0.0285  0.9770
   43MOL0     H 5875  11.509   4.997   2.889  0.9080  0.4404  0.2971
   43MOL0     H 5876  11.509   4.976   3.078 -0.5462 -2.7636 -1.0766
   43MOL0     H 5877  11.402   5.230   2.943 -2.2728  0.8640  3.6850
   43MOL0     H 5878  11.407   5.191   3.098 -2.9208  0.7001 -2.4896
   43MOL0     H 5879  11.633   5.247   3.145 -3.0086  0.9167  1.6256
   43MOL0     H 5880  11.578   5.359   3.027 -0.4341 -0.1489 -0.2881
   43MOL0     H 5881  11.747   5.104   2.982  4.1584  1.1245  0.5122
   43MOL0     H 5882  11.680   5.182   2.848 -1.9058  0.6041  0.0284
   43MOL0     H 5883  11.991   5.201   3.035  1.5936  2.5538  3.6267
   43MOL0     H 5884  12.144   5.572   3.006  2.0153 -0.2593  1.5963
   43MOL0     H 5885  12.211   5.450   2.888  0.7550 -0.9356  0.4596
   43MOL0     H 5886  12.164   5.372   3.176 -0.1081  1.4350 -0.4161
   43MOL0     H 5887  12.256   5.282   3.063 -2.3893 -1.3949  1.7612
   43MOL0     H 5888  12.418   5.464   3.031 -1.0007  0.6737  0.0678
   43MOL0     H 5889  12.333   5.564   3.150 -2.6935 -1.0791  2.5980
   43MOL0     H 5890  12.356   5.332   3.292  0.0924 -0.1689  0.7094
   43MOL0     H 5891  12.483   5.302   3.176 -2.7216 -2.0119 -0.6222
   43MOL0     H 5892  12.635   5.385   3.058  0.5048 -1.7683  1.7787
   43MOL0     H 5893  12.802   5.315   2.907 -1.0224  0.7852  0.2282
   43MOL0     H 5894  12.961   5.295   2.984 -1.2668 -0.4939  1.6580
   43MOL0     H 5895  12.936   5.439   2.887 -1.1021  1.5745  0.5519
   43MOL0     H 5896  13.143   5.669   2.796 -1.0741  1.4431  1.7272
   43MOL0     H 5897  13.345   5.755   2.705 -2.9255  2.3554  1.8770
   43MOL0     H 5898  13.701   5.809   2.961 -1.4220 -1.8997  0.9273
   43MOL0     H 5899  13.742   5.653   2.903  1.8554  0.1677 -0.3814
   43MOL0     H 5900  13.776   5.929   2.780  1.6336 -0.0121 -0.8285
   43MOL0     H 5901  13.897   5.830   2.856  0.9509 -2.5152 -1.0575
   43MOL0     H 5902  13.761   5.774   2.589  0.1020 -0.5445  0.6094
   43MOL0     H 5903  13.902   5.684   2.666 -1.3445 -0.2442  0.1169
   43MOL0     H 5904  14.023   5.896   2.644 -0.0671  2.1012 -0.5308
   43MOL0     H 5905  13.882   5.969   2.570  0.0987  0.7002  2.1082
   43MOL0     H 5906  14.074   5.758   2.462 -1.9786 -1.2690 -2.7826
   43MOL0     H 5907  13.919   5.794   2.389  0.0380 -2.9063  1.2457
   43MOL0     H 5908  14.135   6.014   2.450 -1.5401  1.3198  0.1367
   43MOL0     H 5909  13.999   6.027   2.337 -2.6202 -2.5419 -1.1472
   43MOL0     H 5910  14.079   5.852   2.192  0.2453  1.7506 -0.6929
   43MOL0     H 5911  14.214   5.812   2.303 -2.8592 -1.2760  3.5189
   43MOL0     H 5912  14.304   6.051   2.253  0.7159  0.3075 -1.4545
   43MOL0     H 5913  14.159   6.072   2.148  1.8165  0.7321 -2.1215
   43MOL0     H 5914  13.560   5.595   3.041 -0.7030 -0.2054 -0.0698
   43MOL0     H 5915  13.363   5.489   3.122  2.4420 -1.8152 -0.6307
   43MOL0     H 5916  12.954   5.610   3.363 -0.6934 -0.6090  0.9329
   43MOL0     H 5917  12.711   5.596   3.425 -1.0112 -2.1356 -0.0061
   43MOL0     H 5918  11.029   4.585   2.860  0.3515  2.3665 -1.3918
   43MOL0     H 5919  10.898   4.378   2.845  0.5194 -0.1660  0.6641
   43MOL0     H 5920  10.433   4.253   2.923  1.6989 -0.3783  2.6592
   43MOL0     H 5921  10.265   4.076   2.936  0.5023  1.0972 -0.0655
   43MOL0     H 5922  10.076   3.864   2.836 -1.3264 -2.3575  0.3273
   43MOL0     H 5923  10.182   3.943   2.706  1.2097 -0.9331 -0.9526
   43MOL0     H 5924  10.088   3.668   2.777 -0.7906 -1.2572 -0.9890
   43MOL0     H 5925  10.234   3.692   2.662 -0.5556 -1.5352 -0.7275
   43MOL0     H 5926   9.942   3.792   2.609 -1.1975 -1.5377  0.1323
   43MOL0     H 5927  10.080   3.849   2.526 -1.7262  1.1396 -0.0566
   43MOL0     H 5928  10.011   3.544   2.511 -0.9957  0.3617  0.7051
   43MOL0     H 5929  10.123   3.650   2.418  0.8115  1.9932  1.1812
   43MOL0     H 5930   9.753   3.777   2.252 -1.2615  0.3046  1.8869
   43MOL0     H 5931  10.521   3.805   2.741  1.1637  0.0118 -1.1381
   43MOL0     H 5932  10.744   3.849   2.706  1.7687  0.2195  0.5740
   43MOL0     H 5933  10.763   4.004   2.616 -0.6931  1.2066  0.5930
   43MOL0     H 5934  10.815   3.992   2.777  1.1564  1.0281 -1.5746
   44MOL0     O 5935   7.998   1.018   1.783  0.4033 -0.0204 -0.0080
   44MOL0     C 5936   7.966   1.072   1.680 -0.5488 -0.2600  0.1142
   44MOL0     O 5937   8.019   1.055   1.553  0.1813 -0.7885 -0.6458
   44MOL0     C 5938   8.140   0.989   1.531 -0.7327 -1.2549  0.4797
   44MOL0     C 5939   8.157   0.930   1.403 -0.3533  0.0051 -0.8491
   44MOL0     C 5940   8.273   0.872   1.370  0.0701  0.1619 -0.6030
   44MOL0     C 5941   8.382   0.866   1.464  0.0199 -1.3753 -0.0031
   44MOL0     O 5942   8.512   0.832   1.427 -0.2050 -0.2103 -0.2097
   44MOL0     C 5943   8.543   0.796   1.291 -0.5413 -0.1792 -0.1099
   44MOL0     C 5944   8.682   0.729   1.274  0.5468  0.0905  1.1741
   44MOL0     C 5945   8.711   0.698   1.124  0.8561 -0.1204  0.7768
   44MOL0     C 5946   8.857   0.654   1.120  0.2579  0.0217 -0.0916
   44MOL0     C 5947   8.900   0.611   0.979 -0.0212 -0.5728 -0.0360
   44MOL0     C 5948   8.952   0.725   0.893  0.3311 -0.3347  0.2732
   44MOL0     C 5949   9.001   0.668   0.757 -0.3197 -0.3857  0.2373
   44MOL0     C 5950   9.051   0.782   0.668 -0.5670  0.4341 -0.3269
   44MOL0     N 5951   9.102   0.742   0.538 -0.0518  0.1585 -0.4019
   44MOL0     C 5952   9.047   0.780   0.420 -0.6864  0.1212  0.2418
   44MOL0     C 5953   9.090   0.693   0.327  0.7994  0.5614 -1.2233
   44MOL0     C 5954   9.051   0.688   0.181 -0.8026 -0.3234 -0.1963
   44MOL0     C 5955   9.169   0.671   0.093 -0.6932 -0.5809  0.5777
   44MOL0     C 5956   9.249   0.798   0.090  0.1016 -0.1788 -0.6474
   44MOL0     C 5957   9.393   0.772   0.040 -0.0127 -0.0288  0.4111
   44MOL0     O 5958   9.466   0.892   0.067 -0.5171 -0.3846  0.4397
   44MOL0     C 5959   9.594   0.900   0.016 -0.3012  0.0858  0.5093
   44MOL0     C 5960   9.662   0.796  -0.048 -0.7946 -0.2632 -1.2079
   44MOL0     C 5961   9.804   0.802  -0.069  0.8874  0.0632  1.0173
   44MOL0     C 5962   9.862   0.681  -0.126  0.8850 -0.5840  0.1175
   44MOL0     C 5963   9.874   0.922  -0.034  0.6105 -0.7440 -0.0563
   44MOL0     C 5964  10.016   0.940  -0.067  0.9682 -0.0158  0.0342
   44MOL0     O 5965  10.059   1.063  -0.104  0.2637  0.0281 -0.8554
   44MOL0     C 5966  10.187   1.092  -0.131 -0.2087  0.4278  0.0702
   44MOL0     C 5967  10.290   1.073  -0.030  0.1521 -0.4844 -0.3050
   44MOL0     C 5968  10.423   1.111  -0.044  0.1366 -0.1840 -0.1457
   44MOL0     C 5969  10.459   1.178  -0.165  0.1832 -0.7405  0.1199
   44MOL0     O 5970  10.588   1.219  -0.184  0.0665  0.1655  0.0127
   44MOL0     C 5971  10.695   1.119  -0.216  0.8088  0.0585  0.3205
   44MOL0     C 5972  10.672   1.054  -0.353 -0.3662  0.1388  0.9953
   44MOL0     C 5973  10.699   1.140  -0.477  0.3602  0.7221  0.0827
   44MOL0     C 5974  10.639   1.085  -0.605  0.5119  0.4693  0.8638
   44MOL0     C 5975  10.697   0.952  -0.651  0.5947 -0.0865 -0.2893
   44MOL0     C 5976  10.627   0.906  -0.786  0.3416  0.1945 -0.8956
   44MOL0     C 5977  10.674   0.763  -0.830  1.2449 -0.3961  0.6837
   44MOL0     C 5978  10.601   0.713  -0.957 -0.7895 -0.0783  0.2023
   44MOL0    Cl 5979  10.627   0.825  -1.096 -0.1939 -0.1808  0.3322
   44MOL0     C 5980  10.356   1.205  -0.262  0.3212  0.4962 -0.2189
   44MOL0     C 5981  10.221   1.161  -0.246 -0.0464  0.7681 -0.0524
   44MOL0     O 5982  10.089   0.844  -0.042  0.0448  0.7929  0.2501
   44MOL0     C 5983   9.805   1.021   0.029  0.4080 -0.6459 -0.4779
   44MOL0     C 5984   9.666   1.016   0.051  0.7437 -0.1560 -0.4461
   44MOL0     N 5985   9.169   0.599   0.391  0.5198  0.9324  0.2786
   44MOL0     N 5986   9.172   0.624   0.515 -0.1880 -0.0537 -0.2478
   44MOL0     C 5987   8.364   0.924   1.592  0.7318 -0.2985  0.0404
   44MOL0     C 5988   8.247   0.987   1.632  0.0811  0.0096  0.6659
   44MOL0     C 5989   7.856   1.179   1.675  0.2994  0.1600 -0.3778
   44MOL0     C 5990   7.831   1.255   1.553 -0.2531 -0.1566  0.6406
   44MOL0     C 5991   7.707   1.325   1.537 -0.8673  0.4574 -0.3825
   44MOL0     C 5992   7.616   1.332   1.649 -0.2999  0.1607  0.8555
   44MOL0     O 5993   7.493   1.400   1.637  0.0566 -0.3128 -0.5699
   44MOL0     C 5994   7.442   1.436   1.507  0.1294  0.5697 -0.5749
   44MOL0     C 5995   7.495   1.570   1.465 -0.3720 -0.8770 -0.2460
   44MOL0     C 5996   7.455   1.594   1.318 -0.2098  0.1347 -0.6515
   44MOL0     C 5997   7.491   1.738   1.275 -0.4751 -0.3950 -0.2392
   44MOL0     C 5998   7.366   1.808   1.232  0.1647  0.2336  0.2154
   44MOL0     C 5999   7.265   1.871   1.197  0.1355  0.1361  0.1498
   44MOL0     C 6000   7.654   1.283   1.768  0.2410  0.2772 -0.4661
   44MOL0     C 6001   7.771   1.197   1.792 -0.9123  0.1827  0.8087
   44MOL0     C 6002   7.789   1.138   1.932  0.2259 -0.3641 -0.5437
   44MOL0     H 6003   8.080   0.932   1.327 -0.7528 -1.6948 -0.5513
   44MOL0     H 6004   8.282   0.835   1.269  2.1331  1.6574 -1.0493
   44MOL0     H 6005   8.549   0.888   1.231 -1.2737  0.8255  1.2925
   44MOL0     H 6006   8.464   0.732   1.252 -2.3881  2.1835 -0.4559
   44MOL0     H 6007   8.764   0.787   1.316  1.3563  2.4315 -3.0576
   44MOL0     H 6008   8.683   0.631   1.323 -3.1246 -0.1097  1.1506
   44MOL0     H 6009   8.643   0.613   1.110 -0.8184  1.4798 -1.7245
   44MOL0     H 6010   8.689   0.776   1.050  0.4332 -1.3114 -0.4012
   44MOL0     H 6011   8.932   0.729   1.149  1.3133 -1.5844  1.5282
   44MOL0     H 6012   8.861   0.573   1.193  1.0939  1.7936  1.9452
   44MOL0     H 6013   8.815   0.563   0.930 -0.4927  0.1836  0.0227
   44MOL0     H 6014   8.979   0.536   0.986  0.6446  0.2655  2.5551
   44MOL0     H 6015   8.875   0.797   0.865  0.7046 -0.1731 -0.3660
   44MOL0     H 6016   9.027   0.785   0.947  0.5027  0.0368 -0.3695
   44MOL0     H 6017   8.932   0.602   0.704  1.8331 -1.9435 -0.7749
   44MOL0     H 6018   9.093   0.613   0.782 -1.4106 -1.1528  2.8571
   44MOL0     H 6019   8.971   0.856   0.664  1.7534  3.3429  2.2946
   44MOL0     H 6020   9.129   0.842   0.714 -0.3853  2.1918 -2.7685
   44MOL0     H 6021   8.967   0.852   0.409 -1.2782 -0.6169 -0.3701
   44MOL0     H 6022   9.008   0.782   0.145 -0.6495 -1.1439 -2.7180
   44MOL0     H 6023   8.984   0.601   0.174 -1.4717 -0.0507  2.0653
   44MOL0     H 6024   9.223   0.583   0.130  1.1829  0.8165  1.2928
   44MOL0     H 6025   9.118   0.647  -0.001  0.5466 -0.4070 -0.1598
   44MOL0     H 6026   9.198   0.875   0.032 -1.6989 -0.7382  0.1298
   44MOL0     H 6027   9.261   0.843   0.189 -0.0320 -0.0582 -0.6846
   44MOL0     H 6028   9.430   0.684   0.094 -0.2366  1.7323  3.7032
   44MOL0     H 6029   9.398   0.745  -0.066  0.3792 -0.0005  0.4227
   44MOL0     H 6030   9.613   0.702  -0.068 -1.3460 -0.6676  1.6633
   44MOL0     H 6031   9.787   0.619  -0.176  3.8050 -1.9726 -2.9529
   44MOL0     H 6032   9.894   0.613  -0.047 -1.2485 -0.0215  1.5444
   44MOL0     H 6033   9.943   0.707  -0.195  1.9055  0.3409  1.6009
   44MOL0     H 6034  10.262   1.026   0.064  0.5064  0.4780  0.2971
   44MOL0     H 6035  10.495   1.084   0.032  1.0387  0.0664 -0.8835
   44MOL0     H 6036  10.792   1.171  -0.215  1.2323 -0.7138  1.6927
   44MOL0     H 6037  10.692   1.044  -0.137  0.1302 -1.8623 -1.4587
   44MOL0     H 6038  10.728   0.960  -0.360 -0.4521  0.1710 -0.4721
   44MOL0     H 6039  10.568   1.019  -0.361  0.4286 -2.2601  0.1057
   44MOL0     H 6040  10.806   1.163  -0.475  0.6922 -0.7365  1.8165
   44MOL0     H 6041  10.650   1.238  -0.464 -1.7555 -0.3122  0.4335
   44MOL0     H 6042  10.653   1.164  -0.680  2.1831  1.1700  1.8589
   44MOL0     H 6043  10.531   1.076  -0.589  0.2077  1.3032 -0.5166
   44MOL0     H 6044  10.805   0.964  -0.669  0.9804  0.9434  2.3054
   44MOL0     H 6045  10.692   0.880  -0.569 -0.8937  1.5280  1.1143
   44MOL0     H 6046  10.649   0.974  -0.869 -1.0339  2.9055  0.8317
   44MOL0     H 6047  10.519   0.915  -0.771  0.6534 -0.8752  2.9517
   44MOL0     H 6048  10.646   0.689  -0.755  1.0731 -0.8416  0.1871
   44MOL0     H 6049  10.783   0.768  -0.844  0.9583  4.6526 -2.4319
   44MOL0     H 6050  10.494   0.703  -0.938 -0.5014 -0.6880  1.6144
   44MOL0     H 6051  10.627   0.614  -0.995  0.3503 -0.2017  1.2113
   44MOL0     H 6052  10.382   1.274  -0.342  0.3029  2.1145  1.1090
   44MOL0     H 6053  10.137   1.180  -0.312 -2.2065  1.2756  2.6223
   44MOL0     H 6054   9.879   1.093   0.059  0.8342 -0.7241 -1.3028
   44MOL0     H 6055   9.619   1.097   0.106 -0.4005 -0.6403 -0.6644
   44MOL0     H 6056   8.447   0.940   1.660 -0.8592  0.4034  1.9095
   44MOL0     H 6057   8.240   1.026   1.733 -1.6138  0.4040  0.4322
   44MOL0     H 6058   7.898   1.255   1.469 -2.0877  0.6574 -0.8987
   44MOL0     H 6059   7.687   1.371   1.441  0.4984 -0.0425 -0.9190
   44MOL0     H 6060   7.459   1.357   1.433  1.7209 -1.3981  1.6971
   44MOL0     H 6061   7.334   1.447   1.516  0.2697  0.9067  1.1109
   44MOL0     H 6062   7.604   1.568   1.472 -0.2168  0.7324 -1.4727
   44MOL0     H 6063   7.461   1.655   1.525  0.0474 -0.5230 -0.5015
   44MOL0     H 6064   7.511   1.533   1.247  3.1113  3.7434 -1.4221
   44MOL0     H 6065   7.349   1.572   1.303 -1.0135  1.7071  2.0170
   44MOL0     H 6066   7.561   1.728   1.192  1.6115 -1.1730  1.4996
   44MOL0     H 6067   7.546   1.792   1.353 -1.4117  1.0235 -0.5176
   44MOL0     H 6068   7.188   1.941   1.174 -0.9917 -1.6100 -1.6902
   44MOL0     H 6069   7.586   1.298   1.851  3.0751  1.0834  1.8597
   44MOL0     H 6070   7.891   1.155   1.967  0.1589 -0.4179 -0.3215
   44MOL0     H 6071   7.725   1.191   2.003 -0.7970 -0.9059 -1.0378
   44MOL0     H 6072   7.778   1.030   1.931  0.2784 -0.3816 -1.8407
   45MOL0     O 6073   5.033  11.268   3.803  0.8534  0.0567  0.0855
   45MOL0     C 6074   4.930  11.225   3.848  0.3677 -0.0572 -0.0170
   45MOL0     O 6075   4.923  11.136   3.948  0.0163  0.4964 -0.2491
   45MOL0     C 6076   5.037  11.085   4.002 -0.0874  1.2931  0.4724
   45MOL0     C 6077   5.096  10.967   3.948  0.1417 -0.2463 -0.6582
   45MOL0     C 6078   5.222  10.928   4.002 -0.0831  0.4603  0.5517
   45MOL0     C 6079   5.282  10.986   4.113 -0.4448 -0.3012 -0.3351
   45MOL0     O 6080   5.404  10.945   4.165 -0.6637 -1.0551  0.4532
   45MOL0     C 6081   5.476  11.029   4.259  0.6730  0.2538 -1.2116
   45MOL0     C 6082   5.421  11.003   4.403  0.0284 -0.0230 -0.7041
   45MOL0     C 6083   5.458  11.116   4.496  0.6153  0.9447 -0.9124
   45MOL0     C 6084   5.420  11.078   4.638 -0.0251  0.0702  0.0507
   45MOL0     C 6085   5.466  11.197   4.731  0.3263  0.0801 -0.0959
   45MOL0     C 6086   5.456  11.148   4.884 -0.1066  0.4417  0.6996
   45MOL0     C 6087   5.315  11.126   4.940  0.1828  0.4039  0.3906
   45MOL0     C 6088   5.304  11.047   5.069 -0.0087 -0.3160 -1.1475
   45MOL0     N 6089   5.344  10.907   5.037 -0.5054 -0.0496  0.8373
   45MOL0     C 6090   5.255  10.807   5.000 -0.7938 -0.1359  0.0181
   45MOL0     C 6091   5.340  10.706   4.979 -0.1236  0.2010  0.4730
   45MOL0     C 6092   5.288  10.573   4.928 -0.7651  0.0515  0.2882
   45MOL0     C 6093   5.343  10.547   4.786 -0.1656 -0.1733  0.1951
   45MOL0     C 6094   5.324  10.656   4.683 -0.7984  0.5162 -0.0163
   45MOL0     C 6095   5.185  10.700   4.663 -0.2202  0.3474  0.3301
   45MOL0     O 6096   5.106  10.594   4.630  0.5718  0.7417  0.2986
   45MOL0     C 6097   4.970  10.608   4.643  0.4213 -0.2928  0.6272
   45MOL0     C 6098   4.902  10.716   4.579  0.1050 -0.4565 -0.2727
   45MOL0     C 6099   4.758  10.724   4.590  0.0675  0.2098  0.2475
   45MOL0     C 6100   4.684  10.832   4.518 -0.7975 -0.0339  0.3810
   45MOL0     C 6101   4.686  10.622   4.661  0.7151  0.3868  0.0448
   45MOL0     C 6102   4.537  10.609   4.662  0.1523 -0.4093  0.1832
   45MOL0     O 6103   4.468  10.719   4.637 -0.3351 -0.2185  0.1574
   45MOL0     C 6104   4.344  10.698   4.576 -0.7004 -0.4420 -0.3852
   45MOL0     C 6105   4.226  10.665   4.644  0.1083 -0.1895 -0.0895
   45MOL0     C 6106   4.106  10.649   4.580 -0.0292  0.6875 -0.0143
   45MOL0     C 6107   4.097  10.661   4.444  0.1204  0.5105 -0.0183
   45MOL0     O 6108   3.972  10.671   4.391  0.1298  0.2558  0.4772
   45MOL0     C 6109   3.934  10.801   4.338  0.6674 -0.3778  0.4396
   45MOL0     C 6110   3.777  10.816   4.321  0.3602 -0.7057 -0.2558
   45MOL0     C 6111   3.706  10.862   4.452  0.6813  0.5097 -0.2921
   45MOL0     C 6112   3.550  10.860   4.447  0.5669  0.3743  0.2746
   45MOL0     C 6113   3.500  10.947   4.559 -0.1578 -0.3364 -0.0328
   45MOL0     C 6114   3.352  10.923   4.595 -0.8943  0.0541  0.5684
   45MOL0     C 6115   3.271  11.018   4.506  0.1017  0.0789 -0.4376
   45MOL0     C 6116   3.124  10.997   4.508 -0.2663 -0.3507  0.1432
   45MOL0    Cl 6117   3.068  11.006   4.684  0.5650 -0.0231 -0.2860
   45MOL0     C 6118   4.214  10.685   4.373  0.9568  0.0175 -0.1796
   45MOL0     C 6119   4.338  10.705   4.432 -0.2048 -0.2705 -0.0788
   45MOL0     O 6120   4.489  10.496   4.686 -0.3076  0.0597  0.1328
   45MOL0     C 6121   4.761  10.512   4.727  0.1548 -0.3779  0.0553
   45MOL0     C 6122   4.898  10.509   4.717 -0.4278  0.8147  0.2069
   45MOL0     N 6123   5.472  10.737   5.004  0.4633 -0.7245 -0.6561
   45MOL0     N 6124   5.470  10.857   5.051  0.2871  0.0043 -0.1165
   45MOL0     C 6125   5.214  11.103   4.159 -0.0106  0.4275 -0.2863
   45MOL0     C 6126   5.094  11.151   4.107  0.0623 -0.3486 -0.1457
   45MOL0     C 6127   4.794  11.257   3.784  0.8016  1.0228  0.3851
   45MOL0     C 6128   4.679  11.202   3.847  0.5405 -0.4061 -0.2446
   45MOL0     C 6129   4.548  11.218   3.804  0.3460 -1.0544  0.1201
   45MOL0     C 6130   4.521  11.298   3.688  0.7562 -0.1595  0.0992
   45MOL0     O 6131   4.386  11.317   3.645 -0.0092 -0.4123  0.0520
   45MOL0     C 6132   4.344  11.433   3.582  0.6031  0.1815  0.7349
   45MOL0     C 6133   4.197  11.491   3.601 -0.6046  0.4938 -0.2172
   45MOL0     C 6134   4.087  11.375   3.612  0.2677  0.5651 -0.4947
   45MOL0     C 6135   3.946  11.434   3.601 -0.0086  0.1459  0.4111
   45MOL0     C 6136   3.923  11.520   3.716 -0.3257 -0.2962 -0.9160
   45MOL0     C 6137   3.888  11.594   3.806 -0.5973 -0.7754 -0.4611
   45MOL0     C 6138   4.636  11.348   3.615 -0.0107 -0.1388  0.5536
   45MOL0     C 6139   4.771  11.340   3.667 -0.1678 -0.2706 -0.6468
   45MOL0     C 6140   4.890  11.390   3.581  0.3481 -0.0544 -0.0916
   45MOL0     H 6141   5.039  10.931   3.863 -2.8176  0.4609  0.8876
   45MOL0     H 6142   5.259  10.839   3.952 -2.6645  1.4252 -3.5868
   45MOL0     H 6143   5.461  11.136   4.242  2.7429  0.6917 -0.5691
   45MOL0     H 6144   5.581  10.998   4.255  0.1353 -1.5439 -2.6725
   45MOL0     H 6145   5.311  10.998   4.405 -0.1982  2.3282 -2.3140
   45MOL0     H 6146   5.457  10.909   4.443 -0.0596  0.5124  0.6671
   45MOL0     H 6147   5.557  11.156   4.474  0.3763  0.9265 -2.0470
   45MOL0     H 6148   5.388  11.198   4.477 -0.0474  0.9486  1.2444
   45MOL0     H 6149   5.312  11.065   4.642 -0.1858  1.4230  0.5832
   45MOL0     H 6150   5.475  10.990   4.674 -1.7460 -0.2000  2.2592
   45MOL0     H 6151   5.403  11.285   4.715  0.8255  0.3701 -0.5061
   45MOL0     H 6152   5.570  11.221   4.704  0.2427 -0.2409 -0.7058
   45MOL0     H 6153   5.522  11.060   4.886  0.7631  1.0361 -0.5787
   45MOL0     H 6154   5.509  11.221   4.946  0.6029 -0.4864  1.2229
   45MOL0     H 6155   5.249  11.085   4.864 -0.1058 -1.4149  1.5778
   45MOL0     H 6156   5.277  11.226   4.963  0.5026  0.3628  1.1216
   45MOL0     H 6157   5.362  11.087   5.152 -0.7832 -2.3098  0.4414
   45MOL0     H 6158   5.199  11.034   5.099 -0.2495  0.9096 -1.4381
   45MOL0     H 6159   5.147  10.795   4.994 -1.0274 -0.6311  3.3783
   45MOL0     H 6160   5.180  10.564   4.916 -0.7341  2.3876 -3.1810
   45MOL0     H 6161   5.317  10.495   4.999  2.3316  0.0079 -0.8467
   45MOL0     H 6162   5.452  10.545   4.793 -0.2126 -1.0723  0.8209
   45MOL0     H 6163   5.320  10.448   4.745  3.6932 -1.5928  1.0495
   45MOL0     H 6164   5.404  10.727   4.707 -0.5420  1.2369 -2.6345
   45MOL0     H 6165   5.343  10.604   4.588 -3.9584 -2.5597  0.8350
   45MOL0     H 6166   5.150  10.744   4.757 -0.4283 -1.3941  1.0962
   45MOL0     H 6167   5.193  10.760   4.571 -0.2413 -1.9319 -1.2439
   45MOL0     H 6168   4.944  10.802   4.527  2.6175 -1.3955  0.0996
   45MOL0     H 6169   4.620  10.797   4.437  1.3383 -0.2868 -1.3114
   45MOL0     H 6170   4.757  10.896   4.468  0.4314 -0.5062  1.5060
   45MOL0     H 6171   4.639  10.904   4.587 -2.5713  0.1798 -0.9460
   45MOL0     H 6172   4.234  10.646   4.751  0.7035 -4.6624 -0.7408
   45MOL0     H 6173   4.025  10.621   4.646  1.0722 -2.6995  0.1046
   45MOL0     H 6174   3.988  10.882   4.390  2.4331 -0.4265 -1.1891
   45MOL0     H 6175   3.975  10.824   4.239 -0.0153 -0.9946  0.0067
   45MOL0     H 6176   3.751  10.892   4.247  1.4143 -1.7236 -1.7097
   45MOL0     H 6177   3.733  10.721   4.290 -1.6631 -0.2934  1.1208
   45MOL0     H 6178   3.744  10.961   4.481  0.6656  0.9086 -1.5604
   45MOL0     H 6179   3.728  10.792   4.533 -0.1086  1.5563  0.8495
   45MOL0     H 6180   3.516  10.756   4.455 -1.9152  1.0145 -1.0665
   45MOL0     H 6181   3.514  10.901   4.352 -4.6988  0.6796  2.0711
   45MOL0     H 6182   3.558  10.921   4.648 -0.7112  0.3566  0.5495
   45MOL0     H 6183   3.518  11.050   4.529  0.7222  0.1857  2.0876
   45MOL0     H 6184   3.336  10.935   4.703 -1.3089  0.7470  0.4371
   45MOL0     H 6185   3.329  10.816   4.586 -2.5875  0.4690 -0.5912
   45MOL0     H 6186   3.296  11.014   4.399 -0.3017  0.2613 -0.5422
   45MOL0     H 6187   3.283  11.122   4.538 -0.4345  0.1246 -0.3809
   45MOL0     H 6188   3.098  10.898   4.468 -1.8223  0.4864 -1.0722
   45MOL0     H 6189   3.077  11.073   4.445  0.3050  0.3023  0.5022
   45MOL0     H 6190   4.209  10.707   4.267 -0.2662 -1.6915 -0.5073
   45MOL0     H 6191   4.425  10.741   4.377  0.3386  1.4202  1.7839
   45MOL0     H 6192   4.715  10.427   4.776  2.3028 -1.5110  0.2659
   45MOL0     H 6193   4.936  10.423   4.771 -1.4586  0.1333 -0.1235
   45MOL0     H 6194   5.249  11.166   4.241 -4.8159  2.9386  0.2054
   45MOL0     H 6195   5.064  11.247   4.148  3.0959  1.1864 -1.2096
   45MOL0     H 6196   4.698  11.137   3.932  1.9443 -0.4513 -0.5702
   45MOL0     H 6197   4.460  11.171   3.848 -0.0346 -0.7295 -0.2844
   45MOL0     H 6198   4.410  11.518   3.599  0.2932 -0.0498  3.6366
   45MOL0     H 6199   4.341  11.399   3.478 -2.9763 -0.7213  0.9989
   45MOL0     H 6200   4.174  11.549   3.511 -0.7264 -1.3398 -1.4256
   45MOL0     H 6201   4.193  11.551   3.693  1.6229 -0.1154  0.3178
   45MOL0     H 6202   4.090  11.300   3.533  0.3272  0.2542 -0.1958
   45MOL0     H 6203   4.098  11.311   3.699 -1.9311  1.1154  0.2353
   45MOL0     H 6204   3.872  11.354   3.598  2.7439 -2.5424 -1.6077
   45MOL0     H 6205   3.940  11.488   3.506 -1.8029 -1.4554 -0.4501
   45MOL0     H 6206   3.858  11.655   3.889  2.4637 -0.1800  0.3002
   45MOL0     H 6207   4.606  11.406   3.528 -0.2125  1.5675  1.7043
   45MOL0     H 6208   4.848  11.463   3.511 -2.5771 -2.4823 -1.0846
   45MOL0     H 6209   4.962  11.441   3.646 -0.4718  1.6424 -0.4560
   45MOL0     H 6210   4.941  11.309   3.528 -1.3348 -2.2099  1.4102
   46MOL0     O 6211   4.952   9.954   7.065  0.3466  0.3527  0.9695
   46MOL0     C 6212   4.899   9.945   6.953  0.5206 -0.6961 -0.6851
   46MOL0     O 6213   4.939   9.878   6.844 -0.7958  0.2193  0.2269
   46MOL0     C 6214   5.051   9.800   6.859  0.4112 -0.9651 -0.2024
   46MOL0     C 6215   5.043   9.683   6.934 -0.8478 -0.9155 -0.2380
   46MOL0     C 6216   5.166   9.608   6.945 -0.2426  0.1967  0.4530
   46MOL0     C 6217   5.282   9.640   6.885 -0.6564  0.1404 -0.1728
   46MOL0     O 6218   5.397   9.562   6.889  0.0959 -0.0923 -0.3451
   46MOL0     C 6219   5.428   9.528   7.021 -1.3007  0.7602  0.2138
   46MOL0     C 6220   5.564   9.447   7.013  0.0382  0.4310  0.5966
   46MOL0     C 6221   5.630   9.421   7.143 -0.0192 -0.0066 -0.2819
   46MOL0     C 6222   5.758   9.341   7.113 -0.0697 -0.1372 -0.3486
   46MOL0     C 6223   5.856   9.333   7.242  0.0977 -0.2182  0.4727
   46MOL0     C 6224   5.838   9.195   7.313 -0.3280  0.4581 -0.3075
   46MOL0     C 6225   5.901   9.186   7.448 -0.5391 -0.2579 -0.0239
   46MOL0     C 6226   5.903   9.037   7.493 -0.1357 -0.6182  0.4132
   46MOL0     N 6227   6.005   8.944   7.438  0.0758  0.8421 -0.5261
   46MOL0     C 6228   6.136   8.965   7.447  0.2396 -0.7679 -0.6859
   46MOL0     C 6229   6.199   8.861   7.394 -0.2744 -0.2051 -0.2475
   46MOL0     C 6230   6.347   8.857   7.376  0.1595  0.7140  0.7428
   46MOL0     C 6231   6.370   8.807   7.235 -0.2651  0.3151  0.0810
   46MOL0     C 6232   6.518   8.803   7.195 -0.0632 -0.2332  0.1712
   46MOL0     C 6233   6.612   8.707   7.270  0.1818 -0.6230 -0.2916
   46MOL0     O 6234   6.637   8.752   7.404 -0.2522 -0.2489 -0.3280
   46MOL0     C 6235   6.763   8.738   7.463  0.7004  0.6007  0.1443
   46MOL0     C 6236   6.866   8.665   7.406  0.3131 -0.4835  0.0950
   46MOL0     C 6237   6.988   8.646   7.469 -0.3285 -0.1717  0.5733
   46MOL0     C 6238   7.073   8.547   7.397  0.2931  0.2835 -0.1287
   46MOL0     C 6239   7.015   8.708   7.592 -0.3611  0.8132  0.1250
   46MOL0     C 6240   7.150   8.718   7.651 -0.6033  0.3068  1.2925
   46MOL0     O 6241   7.162   8.811   7.745  0.8452 -0.5730 -0.0226
   46MOL0     C 6242   7.276   8.822   7.818 -0.3294 -0.2645  0.0677
   46MOL0     C 6243   7.407   8.828   7.762  0.9093 -0.3632 -0.4459
   46MOL0     C 6244   7.521   8.823   7.834  0.0530 -0.4909  0.4920
   46MOL0     C 6245   7.522   8.806   7.971 -0.2593 -0.5595 -0.5376
   46MOL0     O 6246   7.633   8.767   8.050  0.3656 -0.3888 -0.3503
   46MOL0     C 6247   7.760   8.740   7.986  0.5639  0.3207  0.2704
   46MOL0     C 6248   7.856   8.707   8.102 -0.1619 -0.4680  0.1356
   46MOL0     C 6249   7.874   8.829   8.200  0.1465  0.1176  0.5358
   46MOL0     C 6250   8.006   8.823   8.280  0.2727  0.4161  0.2491
   46MOL0     C 6251   8.020   8.947   8.360  0.5240  0.3084  0.0352
   46MOL0     C 6252   8.075   9.072   8.289  0.1269 -0.4451 -0.2609
   46MOL0     C 6253   8.100   9.187   8.389  0.3672  0.6535 -0.2735
   46MOL0     C 6254   8.175   9.306   8.327 -0.1948  0.3622  0.0968
   46MOL0    Cl 6255   8.342   9.259   8.277 -0.2055  0.3868 -0.3755
   46MOL0     C 6256   7.390   8.801   8.030  0.1179 -0.7347 -0.4607
   46MOL0     C 6257   7.266   8.816   7.960  0.1543 -0.0449  0.2452
   46MOL0     O 6258   7.231   8.635   7.616  0.5457  0.6642 -0.6694
   46MOL0     C 6259   6.906   8.772   7.658 -0.2976  0.4259 -0.6393
   46MOL0     C 6260   6.783   8.788   7.593 -0.4905 -1.2613 -0.5733
   46MOL0     N 6261   6.098   8.776   7.355  0.3097 -0.2066 -0.0189
   46MOL0     N 6262   5.988   8.832   7.371  0.1199 -0.3406 -0.0956
   46MOL0     C 6263   5.286   9.752   6.796  0.6927  0.3869 -0.8652
   46MOL0     C 6264   5.167   9.834   6.790  0.0318  0.8210 -0.5610
   46MOL0     C 6265   4.795  10.039   6.934 -0.0056 -0.8650 -0.2190
   46MOL0     C 6266   4.820  10.171   6.969  0.3491  0.0757 -0.2847
   46MOL0     C 6267   4.721  10.267   6.935 -0.8348 -0.5519  0.7611
   46MOL0     C 6268   4.606  10.236   6.868  0.4734 -0.0290  0.1474
   46MOL0     O 6269   4.520  10.340   6.846  0.0186 -0.0047 -0.0623
   46MOL0     C 6270   4.431  10.342   6.735 -0.4193  0.2492  0.6006
   46MOL0     C 6271   4.407  10.489   6.695  0.2231  0.3150  0.6776
   46MOL0     C 6272   4.527  10.582   6.705  0.7539 -0.5778 -0.4243
   46MOL0     C 6273   4.652  10.547   6.613 -0.3554  0.8079  0.2384
   46MOL0     C 6274   4.776  10.578   6.681  0.3532 -0.0788  0.1091
   46MOL0     C 6275   4.879  10.595   6.739 -0.7456  0.5984  0.1197
   46MOL0     C 6276   4.571  10.098   6.852 -0.0558  0.0680  0.1301
   46MOL0     C 6277   4.664   9.997   6.877 -0.9520 -0.6755  0.3295
   46MOL0     C 6278   4.629   9.860   6.826  0.2893 -0.5555  0.3047
   46MOL0     H 6279   4.956   9.650   6.989 -0.5769  2.2106  2.3349
   46MOL0     H 6280   5.161   9.522   7.010 -0.7863  1.9250  2.8432
   46MOL0     H 6281   5.354   9.481   7.085 -0.3186  1.2614  1.7825
   46MOL0     H 6282   5.454   9.624   7.066 -0.6397  1.3901 -1.3993
   46MOL0     H 6283   5.541   9.347   6.975 -1.9536 -0.1364  3.0320
   46MOL0     H 6284   5.639   9.499   6.952 -2.1522  3.3578  0.2087
   46MOL0     H 6285   5.656   9.518   7.188 -1.4180  0.8689 -1.2861
   46MOL0     H 6286   5.566   9.366   7.213 -0.6309  3.7170  2.4441
   46MOL0     H 6287   5.736   9.239   7.081 -1.6327 -0.3456  1.2596
   46MOL0     H 6288   5.809   9.385   7.027  0.6338 -2.5383 -1.2449
   46MOL0     H 6289   5.836   9.419   7.307  0.4608 -0.3570  0.7652
   46MOL0     H 6290   5.959   9.342   7.209 -0.8497  3.5683 -2.1694
   46MOL0     H 6291   5.736   9.155   7.314 -0.3795  0.4873  2.2753
   46MOL0     H 6292   5.885   9.120   7.248  0.9155  0.8511  0.0967
   46MOL0     H 6293   5.839   9.241   7.520 -1.9430  0.1361 -1.4781
   46MOL0     H 6294   6.004   9.224   7.453 -0.1079 -1.5122  1.4064
   46MOL0     H 6295   5.905   9.030   7.602 -1.7501 -1.9856  0.4011
   46MOL0     H 6296   5.805   8.995   7.470 -2.3145  1.9188  3.9843
   46MOL0     H 6297   6.182   9.056   7.485  0.8896 -2.6583  3.6668
   46MOL0     H 6298   6.391   8.775   7.434 -1.1396  0.2879  1.1423
   46MOL0     H 6299   6.395   8.954   7.395 -1.6734  1.0531  4.6084
   46MOL0     H 6300   6.331   8.706   7.217  0.1985 -0.2399  1.9757
   46MOL0     H 6301   6.311   8.870   7.168  0.6947 -0.5505 -1.6470
   46MOL0     H 6302   6.525   8.772   7.091  3.6492 -2.2051  0.8340
   46MOL0     H 6303   6.570   8.899   7.199  1.8242 -1.2192  0.4518
   46MOL0     H 6304   6.567   8.608   7.256  1.9038 -1.2347 -1.9283
   46MOL0     H 6305   6.706   8.708   7.214  0.0194  3.2486 -0.7597
   46MOL0     H 6306   6.845   8.605   7.318  1.3186 -0.9878  0.1898
   46MOL0     H 6307   7.040   8.509   7.300  4.2652 -0.6454 -1.3050
   46MOL0     H 6308   7.095   8.465   7.466  2.0748  1.7243  1.1126
   46MOL0     H 6309   7.160   8.608   7.372  0.3503 -0.1918 -1.1437
   46MOL0     H 6310   7.411   8.844   7.654 -2.5478  5.1435 -0.1123
   46MOL0     H 6311   7.618   8.818   7.785 -0.4118  1.4322 -0.7305
   46MOL0     H 6312   7.749   8.651   7.924 -1.3400 -0.6599  1.8944
   46MOL0     H 6313   7.795   8.829   7.932  2.1241 -0.3676  0.0950
   46MOL0     H 6314   7.819   8.616   8.149 -3.3337 -0.1458 -1.4362
   46MOL0     H 6315   7.950   8.682   8.052 -0.9770 -1.3070 -1.0332
   46MOL0     H 6316   7.795   8.828   8.276 -0.1347 -0.1727  0.2417
   46MOL0     H 6317   7.861   8.916   8.134  2.2366 -0.3177 -0.5327
   46MOL0     H 6318   8.092   8.789   8.221  0.1214 -0.8927  0.7497
   46MOL0     H 6319   7.997   8.736   8.346  0.4094 -0.4605 -0.8635
   46MOL0     H 6320   7.926   8.971   8.411  0.2014  2.6344 -1.5065
   46MOL0     H 6321   8.093   8.933   8.440 -1.1110  1.5559  1.8256
   46MOL0     H 6322   8.004   9.107   8.213 -1.4323 -1.3457  0.7072
   46MOL0     H 6323   8.170   9.044   8.242  1.3258 -0.3078  1.9464
   46MOL0     H 6324   8.149   9.144   8.477 -4.3946  0.1566  2.4921
   46MOL0     H 6325   7.999   9.218   8.418  1.2026 -0.0084  4.0611
   46MOL0     H 6326   8.188   9.390   8.397  2.5181 -0.5400  0.7809
   46MOL0     H 6327   8.121   9.339   8.238  1.2391  1.5437 -0.3730
   46MOL0     H 6328   7.396   8.776   8.136  1.0724  1.3623  0.0267
   46MOL0     H 6329   7.164   8.818   7.999  0.7283  0.4203  1.7566
   46MOL0     H 6330   6.919   8.822   7.753 -0.4739 -0.5958 -0.0601
   46MOL0     H 6331   6.708   8.847   7.644 -2.2948 -3.2458 -0.7567
   46MOL0     H 6332   5.379   9.768   6.743  1.3206 -1.6368 -0.4302
   46MOL0     H 6333   5.172   9.929   6.736 -1.9961  0.9386 -0.6323
   46MOL0     H 6334   4.911  10.209   7.015 -0.4172  0.0411  1.3090
   46MOL0     H 6335   4.742  10.370   6.963 -1.0656 -0.0797 -0.7161
   46MOL0     H 6336   4.478  10.293   6.649 -0.3398 -0.0747  0.8298
   46MOL0     H 6337   4.338  10.289   6.758  0.3421 -1.8039 -0.7638
   46MOL0     H 6338   4.332  10.530   6.764  0.4803 -1.8243  2.3374
   46MOL0     H 6339   4.366  10.498   6.594 -3.9645  1.7544  2.2951
   46MOL0     H 6340   4.511  10.683   6.666  1.2149 -0.4201 -0.2138
   46MOL0     H 6341   4.561  10.584   6.809 -0.4600 -1.2770  0.0086
   46MOL0     H 6342   4.654  10.601   6.518  2.3622 -0.6111 -0.5978
   46MOL0     H 6343   4.659  10.439   6.596  2.8050  1.0379 -0.4163
   46MOL0     H 6344   4.970  10.629   6.784 -0.5114  0.1378  0.0000
   46MOL0     H 6345   4.471  10.074   6.818 -0.0434  0.4038 -0.1507
   46MOL0     H 6346   4.698   9.789   6.872  3.4299  0.9624 -1.6395
   46MOL0     H 6347   4.527   9.824   6.837 -0.7649  0.2644 -4.5099
   46MOL0     H 6348   4.646   9.861   6.718 -4.9496  1.6655 -0.8038
   47MOL0     O 6349  11.146   8.086   4.931  0.3239 -0.5407  0.1370
   47MOL0     C 6350  11.140   8.185   5.001  0.1460 -0.3130 -0.4654
   47MOL0     O 6351  11.234   8.283   5.009  0.0064 -0.4433  0.6648
   47MOL0     C 6352  11.363   8.257   4.973  0.3258  0.4444  1.1331
   47MOL0     C 6353  11.425   8.322   4.870  0.1553 -0.8354  0.0569
   47MOL0     C 6354  11.558   8.299   4.827  1.3695 -0.5149 -0.6655
   47MOL0     C 6355  11.631   8.202   4.893  0.3074 -0.5392 -0.4708
   47MOL0     O 6356  11.765   8.184   4.858 -0.1667  0.1124 -0.3378
   47MOL0     C 6357  11.835   8.076   4.907 -0.7330  0.3430  0.2555
   47MOL0     C 6358  11.979   8.082   4.831 -0.4932 -1.1772 -0.4914
   47MOL0     C 6359  12.043   8.208   4.888  0.1057  0.1875  0.1908
   47MOL0     C 6360  12.197   8.205   4.873  0.6145  0.2877 -0.6796
   47MOL0     C 6361  12.283   8.120   4.975 -0.4368  0.1391 -0.3484
   47MOL0     C 6362  12.430   8.125   4.936  0.2249  0.1458  0.2366
   47MOL0     C 6363  12.512   8.068   5.050 -0.0769 -0.3898  0.0335
   47MOL0     C 6364  12.663   8.069   5.002  0.8439 -0.9435 -0.4470
   47MOL0     N 6365  12.719   8.189   5.046  0.1511 -0.6718  0.2382
   47MOL0     C 6366  12.751   8.228   5.176 -0.3135  0.7527  0.4039
   47MOL0     C 6367  12.811   8.350   5.153 -0.0202  0.5889  0.6742
   47MOL0     C 6368  12.872   8.445   5.254  0.0874 -0.2514  0.1677
   47MOL0     C 6369  13.022   8.425   5.268 -0.7354  0.0356 -0.4648
   47MOL0     C 6370  13.060   8.282   5.307 -0.4831 -0.1045 -1.2610
   47MOL0     C 6371  13.191   8.276   5.382  1.0052  0.1927  1.1089
   47MOL0     O 6372  13.185   8.352   5.504 -0.3989  0.9047  1.3941
   47MOL0     C 6373  13.304   8.356   5.579 -0.0048 -0.2152 -0.3113
   47MOL0     C 6374  13.309   8.452   5.685  0.5476 -0.1446 -0.1350
   47MOL0     C 6375  13.431   8.456   5.768 -0.1795 -0.4228 -0.3787
   47MOL0     C 6376  13.443   8.570   5.876  0.8451  0.4928  0.2468
   47MOL0     C 6377  13.537   8.376   5.737 -0.4239  0.2997  0.2506
   47MOL0     C 6378  13.663   8.388   5.809 -0.0348  0.1141  0.9267
   47MOL0     O 6379  13.732   8.505   5.805  0.0538  0.7218  0.2061
   47MOL0     C 6380  13.857   8.519   5.856 -0.7322  0.3155  0.1277
   47MOL0     C 6381  13.918   8.458   5.966  0.5016 -0.2351  0.2395
   47MOL0     C 6382  14.053   8.479   5.990  0.3438  0.6870 -0.5207
   47MOL0     C 6383  14.126   8.562   5.911 -0.5039  0.2008  0.8557
   47MOL0     O 6384  14.258   8.583   5.946  0.2112 -0.3105 -0.5628
   47MOL0     C 6385  14.327   8.702   5.898 -0.2878 -0.4973  0.5712
   47MOL0     C 6386  14.274   8.836   5.948  0.5309 -0.0748  0.1368
   47MOL0     C 6387  14.311   8.866   6.092  0.1887 -0.6922  0.2974
   47MOL0     C 6388  14.220   8.778   6.181  0.0923 -0.2317  0.6446
   47MOL0     C 6389  14.199   8.852   6.315  0.6335  1.2175  0.0120
   47MOL0     C 6390  14.325   8.873   6.402 -0.8560 -0.6876  0.1479
   47MOL0     C 6391  14.305   8.962   6.527  0.0443  0.4811  1.2732
   47MOL0     C 6392  14.417   8.940   6.629 -1.0812 -0.1947  0.3353
   47MOL0    Cl 6393  14.440   8.775   6.705  0.2387  0.2280  0.4949
   47MOL0     C 6394  14.077   8.619   5.795 -0.6087 -0.1199 -0.5716
   47MOL0     C 6395  13.942   8.587   5.773  0.1929 -0.3874  0.0100
   47MOL0     O 6396  13.710   8.277   5.835  0.1229  0.3968  0.3145
   47MOL0     C 6397  13.521   8.279   5.636  0.3328  0.1611  0.2057
   47MOL0     C 6398  13.403   8.262   5.555 -0.0040 -0.8177  0.1115
   47MOL0     N 6399  12.813   8.385   5.022  0.0231 -0.1310  0.0420
   47MOL0     N 6400  12.752   8.289   4.956 -0.2762 -0.0502  0.1818
   47MOL0     C 6401  11.571   8.126   4.994  0.7373  0.0251  0.5778
   47MOL0     C 6402  11.440   8.157   5.035  0.5445 -0.1831  0.1861
   47MOL0     C 6403  11.033   8.195   5.105 -0.8280 -0.1711  0.1383
   47MOL0     C 6404  11.060   8.272   5.224  0.0390  0.2575 -0.2035
   47MOL0     C 6405  10.966   8.274   5.326  0.1048 -0.0233 -0.3435
   47MOL0     C 6406  10.837   8.226   5.310 -0.1773 -0.2814 -0.0522
   47MOL0     O 6407  10.736   8.243   5.404  0.2865 -0.9770  0.7043
   47MOL0     C 6408  10.776   8.321   5.519 -0.3006  0.4824 -0.3914
   47MOL0     C 6409  10.659   8.354   5.618 -0.2263 -0.7991  0.1242
   47MOL0     C 6410  10.554   8.238   5.623 -0.8427  0.5269 -0.1127
   47MOL0     C 6411  10.436   8.279   5.718  1.1389 -0.6286  0.0237
   47MOL0     C 6412  10.470   8.261   5.864  0.9545  0.5135  0.7348
   47MOL0     C 6413  10.481   8.245   5.980 -0.3587 -0.0789 -1.1998
   47MOL0     C 6414  10.811   8.158   5.191 -0.3499 -0.1615 -0.1194
   47MOL0     C 6415  10.907   8.138   5.095  0.7265  0.4984 -0.2337
   47MOL0     C 6416  10.873   8.057   4.976 -0.4024 -0.0477 -1.2418
   47MOL0     H 6417  11.370   8.405   4.826  2.1268  0.2913 -0.4098
   47MOL0     H 6418  11.603   8.357   4.748  1.9373  0.4225  0.3134
   47MOL0     H 6419  11.786   7.988   4.864  1.4624 -2.4154  2.9777
   47MOL0     H 6420  11.840   8.063   5.015 -0.0391 -1.5739  0.0246
   47MOL0     H 6421  12.031   7.989   4.855  2.7677  0.5676 -0.1865
   47MOL0     H 6422  11.966   8.093   4.723 -1.9282  1.9781 -0.1089
   47MOL0     H 6423  12.010   8.290   4.825 -1.5966  2.2461  3.4882
   47MOL0     H 6424  12.013   8.229   4.991 -3.4819 -0.4992 -0.5787
   47MOL0     H 6425  12.215   8.155   4.777 -3.6811 -2.5716 -0.2616
   47MOL0     H 6426  12.229   8.309   4.862 -0.3968  0.9964  2.2871
   47MOL0     H 6427  12.249   8.016   4.977  0.3602 -0.1410 -1.0424
   47MOL0     H 6428  12.278   8.161   5.076  3.7864  2.0848 -0.7431
   47MOL0     H 6429  12.450   8.067   4.845  0.3401  2.8421 -1.5805
   47MOL0     H 6430  12.457   8.228   4.912  1.7085 -0.6076 -1.5475
   47MOL0     H 6431  12.488   7.963   5.067 -1.9567  0.2786  1.9971
   47MOL0     H 6432  12.492   8.117   5.146 -1.1750 -2.1296  0.7284
   47MOL0     H 6433  12.711   7.990   5.061  0.7244 -0.1887  0.6728
   47MOL0     H 6434  12.677   8.049   4.895  2.8407 -1.2778 -0.1601
   47MOL0     H 6435  12.731   8.178   5.270  0.3640 -1.3160 -0.5099
   47MOL0     H 6436  12.812   8.444   5.346  0.4690  1.3785  0.4478
   47MOL0     H 6437  12.861   8.543   5.209 -0.3200 -0.5943 -0.4975
   47MOL0     H 6438  13.078   8.442   5.176  2.4115 -1.8591  0.9392
   47MOL0     H 6439  13.057   8.501   5.338  0.6654 -0.2853 -0.7955
   47MOL0     H 6440  12.987   8.247   5.381 -1.1949  1.9142 -0.9562
   47MOL0     H 6441  13.059   8.210   5.225  3.7404  0.6471 -2.1860
   47MOL0     H 6442  13.207   8.169   5.397  1.3148  0.3292  1.8094
   47MOL0     H 6443  13.264   8.325   5.317  0.8260 -1.4617 -0.3987
   47MOL0     H 6444  13.224   8.516   5.707 -1.0589 -2.4662  0.8110
   47MOL0     H 6445  13.349   8.625   5.890  1.5430  2.2260 -1.5101
   47MOL0     H 6446  13.515   8.648   5.851 -0.2180  0.8089 -2.1072
   47MOL0     H 6447  13.463   8.519   5.971  0.4657 -0.0818  0.0236
   47MOL0     H 6448  13.851   8.393   6.021 -2.6840  1.8190 -0.9416
   47MOL0     H 6449  14.095   8.431   6.078 -2.2425  1.3346  1.1829
   47MOL0     H 6450  14.432   8.707   5.928  0.3356 -2.2905 -1.0976
   47MOL0     H 6451  14.335   8.696   5.789  1.7589 -0.1073  0.6652
   47MOL0     H 6452  14.320   8.911   5.884  1.0221 -2.8625 -3.0853
   47MOL0     H 6453  14.164   8.839   5.947  0.5058 -0.8421 -0.3711
   47MOL0     H 6454  14.288   8.971   6.113  2.2187 -0.1152 -0.1539
   47MOL0     H 6455  14.415   8.858   6.122  0.2331  1.6816  0.9881
   47MOL0     H 6456  14.264   8.683   6.211 -0.3820 -0.5752  0.2532
   47MOL0     H 6457  14.124   8.756   6.133  0.4768 -3.8163  1.2430
   47MOL0     H 6458  14.141   8.939   6.284  0.7389  1.0345 -0.7034
   47MOL0     H 6459  14.133   8.795   6.381  0.5345  1.9232  0.5362
   47MOL0     H 6460  14.407   8.915   6.344 -1.0885  0.0633  0.3560
   47MOL0     H 6461  14.349   8.773   6.439  3.3085  0.7018  1.7120
   47MOL0     H 6462  14.209   8.931   6.569  0.0554 -2.0925 -0.3767
   47MOL0     H 6463  14.293   9.069   6.505 -0.1612  0.7180  2.4507
   47MOL0     H 6464  14.402   9.019   6.703  0.1494 -0.7900  1.2573
   47MOL0     H 6465  14.506   8.973   6.575 -2.3782  2.0906 -0.5549
   47MOL0     H 6466  14.136   8.681   5.729 -2.0710  4.1161  1.7385
   47MOL0     H 6467  13.902   8.635   5.684  1.8720 -1.6297 -1.4736
   47MOL0     H 6468  13.604   8.208   5.630  0.1303  0.0278 -3.2976
   47MOL0     H 6469  13.388   8.173   5.495  0.1067 -1.2868  0.7593
   47MOL0     H 6470  11.624   8.054   5.056  1.7927  0.8055  0.5995
   47MOL0     H 6471  11.392   8.093   5.108  0.3869 -0.9564 -0.5806
   47MOL0     H 6472  11.156   8.322   5.217  0.5559 -0.6053  0.5100
   47MOL0     H 6473  11.004   8.322   5.415 -1.3927  2.8628 -1.1292
   47MOL0     H 6474  10.847   8.251   5.563 -1.5672 -2.7272 -3.0695
   47MOL0     H 6475  10.823   8.418   5.498 -0.0367  1.1854  2.9335
   47MOL0     H 6476  10.611   8.444   5.578 -1.1870 -1.6612 -0.7415
   47MOL0     H 6477  10.691   8.378   5.720 -2.4135 -0.5011  0.8067
   47MOL0     H 6478  10.508   8.214   5.527 -0.9440 -0.3604  0.1493
   47MOL0     H 6479  10.604   8.154   5.671  1.6521  0.7649 -2.0906
   47MOL0     H 6480  10.351   8.213   5.694 -0.0470  0.6657  0.5153
   47MOL0     H 6481  10.402   8.381   5.699  1.1033 -0.7147 -0.3920
   47MOL0     H 6482  10.485   8.244   6.088 -2.1070  2.2651 -1.0572
   47MOL0     H 6483  10.715   8.109   5.187 -0.3409 -0.1295 -0.9494
   47MOL0     H 6484  10.891   8.115   4.885 -2.0039 -0.1631 -1.6724
   47MOL0     H 6485  10.928   7.963   4.978  0.2705  0.3292 -1.6231
   47MOL0     H 6486  10.766   8.033   4.975 -0.6588  1.0402 -2.6534
   48MOL0     O 6487   5.648   9.628   2.976 -0.3014 -0.7420  0.9810
   48MOL0     C 6488   5.571   9.689   3.043  0.8079 -0.4887 -0.2447
   48MOL0     O 6489   5.601   9.740   3.163 -0.2309  0.6496 -0.0119
   48MOL0     C 6490   5.699   9.674   3.229 -0.0135  1.0003 -0.3028
   48MOL0     C 6491   5.830   9.684   3.194 -0.5290 -0.4473  1.0594
   48MOL0     C 6492   5.934   9.618   3.265 -0.8973  0.1310  0.1559
   48MOL0     C 6493   5.906   9.543   3.381  0.2880  0.4328  0.2401
   48MOL0     O 6494   5.993   9.451   3.437  0.7621 -0.2496  0.1190
   48MOL0     C 6495   6.134   9.488   3.437 -0.0365 -0.5269 -0.3919
   48MOL0     C 6496   6.219   9.397   3.343 -0.7724  0.2515 -0.7391
   48MOL0     C 6497   6.365   9.404   3.386 -0.2517  0.7162 -0.5815
   48MOL0     C 6498   6.427   9.543   3.373  0.8111 -0.0784  0.3882
   48MOL0     C 6499   6.576   9.550   3.410 -0.2496  0.5544 -0.1752
   48MOL0     C 6500   6.631   9.695   3.375 -0.2264 -0.3910  0.0216
   48MOL0     C 6501   6.763   9.711   3.444  0.0966 -0.3706 -0.5306
   48MOL0     C 6502   6.826   9.851   3.435  0.2722  0.6031 -0.0725
   48MOL0     N 6503   6.866   9.877   3.300  0.0614 -0.1255  0.4184
   48MOL0     C 6504   6.795   9.959   3.217  0.5448 -0.3027 -0.0261
   48MOL0     C 6505   6.852   9.953   3.101 -0.6684 -0.1720  0.9627
   48MOL0     C 6506   6.804  10.033   2.985 -0.4197  0.0555 -0.4921
   48MOL0     C 6507   6.909  10.059   2.872 -0.5726 -0.0745 -0.3088
   48MOL0     C 6508   7.004  10.178   2.901  0.5013 -0.4345  0.0713
   48MOL0     C 6509   7.105  10.142   3.010 -0.3235 -0.0629  0.9675
   48MOL0     O 6510   7.203  10.247   3.002 -0.1027  0.3010  0.1946
   48MOL0     C 6511   7.330  10.226   3.060  1.0988 -0.5768 -0.2221
   48MOL0     C 6512   7.399  10.338   3.046 -0.4022 -0.2040  0.3581
   48MOL0     C 6513   7.530  10.339   3.095  0.5274 -0.7102 -0.2676
   48MOL0     C 6514   7.616  10.454   3.061  0.0724 -0.6289 -0.2610
   48MOL0     C 6515   7.576  10.240   3.180 -0.2697  0.5379 -0.5687
   48MOL0     C 6516   7.707  10.238   3.252 -1.1748  0.3444 -0.5695
   48MOL0     O 6517   7.719  10.151   3.351 -0.0432  0.3444  0.4300
   48MOL0     C 6518   7.842  10.123   3.392 -1.0317  0.3757 -0.8218
   48MOL0     C 6519   7.892  10.163   3.523  0.3415  0.1427 -0.4489
   48MOL0     C 6520   8.020  10.126   3.562  0.2966  0.0194 -0.8638
   48MOL0     C 6521   8.107  10.053   3.490 -0.0273 -1.1058  0.7922
   48MOL0     O 6522   8.227  10.044   3.533 -0.1338 -0.2675 -0.4698
   48MOL0     C 6523   8.333  10.013   3.438 -0.7216 -0.5356 -0.0540
   48MOL0     C 6524   8.467  10.068   3.474 -0.7032 -0.1073 -0.4139
   48MOL0     C 6525   8.520  10.005   3.610  0.8673 -0.5867 -0.4964
   48MOL0     C 6526   8.656  10.067   3.643 -0.0595  0.9279  0.5558
   48MOL0     C 6527   8.714   9.995   3.765  0.0973  0.3938  0.1084
   48MOL0     C 6528   8.838  10.067   3.835  0.2582 -0.2339 -0.0733
   48MOL0     C 6529   8.945  10.125   3.737 -0.4270  0.7483 -0.0513
   48MOL0     C 6530   9.081  10.137   3.801  0.3069 -0.1397  0.4563
   48MOL0    Cl 6531   9.198  10.195   3.671  0.0210 -0.3981 -0.3659
   48MOL0     C 6532   8.058  10.008   3.371 -0.4685  0.2686  0.8166
   48MOL0     C 6533   7.929  10.044   3.314  0.2198 -0.4247  0.7358
   48MOL0     O 6534   7.802  10.298   3.206 -0.3009  0.3396  0.1189
   48MOL0     C 6535   7.494  10.122   3.199  0.2001 -0.6626  0.8290
   48MOL0     C 6536   7.370  10.122   3.135  0.1530  0.8457  0.6114
   48MOL0     N 6537   6.972   9.885   3.117  0.3517  0.2686  0.1104
   48MOL0     N 6538   6.979   9.842   3.236  0.2575  0.1286 -0.7507
   48MOL0     C 6539   5.775   9.551   3.429  0.2454 -0.7997  0.3436
   48MOL0     C 6540   5.672   9.617   3.350 -0.1513  0.2127  0.3041
   48MOL0     C 6541   5.439   9.723   2.985 -0.9071 -0.4568 -0.2914
   48MOL0     C 6542   5.410   9.690   2.848  0.5244  0.5722  0.4422
   48MOL0     C 6543   5.286   9.709   2.790 -1.1081 -0.3342  0.1024
   48MOL0     C 6544   5.185   9.764   2.864  0.4228  0.0101  0.1760
   48MOL0     O 6545   5.067   9.787   2.795 -0.6782 -0.0339 -0.1282
   48MOL0     C 6546   4.954   9.837   2.873  0.8927  0.2538  0.4656
   48MOL0     C 6547   4.850   9.901   2.780 -0.0396  0.1763  0.7423
   48MOL0     C 6548   4.802   9.788   2.682 -0.5156 -0.3550 -0.3811
   48MOL0     C 6549   4.721   9.846   2.569  0.2368 -0.5186 -0.6699
   48MOL0     C 6550   4.606   9.924   2.620  0.3868  0.5365  0.3264
   48MOL0     C 6551   4.505   9.979   2.665  0.7208 -0.5054  0.1888
   48MOL0     C 6552   5.208   9.801   2.995 -0.3192  0.6213 -0.7869
   48MOL0     C 6553   5.331   9.778   3.061  0.4324 -0.3994 -0.3987
   48MOL0     C 6554   5.341   9.833   3.201 -0.5469  0.3905 -0.1869
   48MOL0     H 6555   5.849   9.748   3.108  1.9004 -1.0808  1.0363
   48MOL0     H 6556   6.031   9.618   3.215 -1.3543 -3.0271 -0.9370
   48MOL0     H 6557   6.178   9.481   3.537 -1.8995  1.7225  0.6734
   48MOL0     H 6558   6.152   9.594   3.416  0.6033 -0.8921 -1.7899
   48MOL0     H 6559   6.186   9.295   3.362  1.1757 -0.0385  1.5292
   48MOL0     H 6560   6.222   9.425   3.237 -1.5062 -2.1273 -1.4399
   48MOL0     H 6561   6.375   9.367   3.488  0.1134  0.8073 -0.5821
   48MOL0     H 6562   6.426   9.335   3.327 -1.3437 -2.1187  1.3967
   48MOL0     H 6563   6.410   9.567   3.268  0.0582 -1.4779  0.1584
   48MOL0     H 6564   6.376   9.615   3.437 -0.1244  0.0156 -0.4379
   48MOL0     H 6565   6.618   9.470   3.348  0.2831 -0.3024  1.2473
   48MOL0     H 6566   6.582   9.530   3.518  2.2338 -1.0925 -0.5253
   48MOL0     H 6567   6.640   9.700   3.267 -0.0400  0.4466  0.0716
   48MOL0     H 6568   6.570   9.775   3.419  2.3074  0.4517  2.2547
   48MOL0     H 6569   6.836   9.634   3.417  1.2865 -0.1703  1.8635
   48MOL0     H 6570   6.750   9.696   3.551  1.1640 -0.2755 -0.3782
   48MOL0     H 6571   6.759   9.928   3.473 -0.7148  1.3211 -2.9654
   48MOL0     H 6572   6.910   9.850   3.505 -1.8166  0.3656  2.5828
   48MOL0     H 6573   6.718  10.029   3.247  0.8969  0.1048 -0.0570
   48MOL0     H 6574   6.756  10.127   3.013 -2.0061 -0.8268 -0.1749
   48MOL0     H 6575   6.728   9.968   2.942  1.7926  0.0742 -5.0999
   48MOL0     H 6576   6.970   9.971   2.849 -0.0262  0.1387  0.2894
   48MOL0     H 6577   6.851  10.091   2.785 -0.1107  2.9593  0.3866
   48MOL0     H 6578   7.054  10.202   2.807  0.1254  0.2470  0.0379
   48MOL0     H 6579   6.951  10.271   2.922  1.5709  0.2389 -0.1423
   48MOL0     H 6580   7.052  10.128   3.105 -0.1944 -2.9329  0.6938
   48MOL0     H 6581   7.156  10.047   2.994  1.6360  0.7432  2.0880
   48MOL0     H 6582   7.365  10.424   2.989 -0.0566  1.4341  2.5104
   48MOL0     H 6583   7.699  10.419   2.999 -1.1698 -0.2672 -2.2207
   48MOL0     H 6584   7.651  10.512   3.147 -1.3191 -0.1120 -0.0089
   48MOL0     H 6585   7.555  10.519   2.998 -1.1468 -3.4727 -2.1981
   48MOL0     H 6586   7.831  10.221   3.592  0.1428 -0.9388  0.3178
   48MOL0     H 6587   8.044  10.168   3.659  0.9211 -4.1489  1.0424
   48MOL0     H 6588   8.344   9.905   3.432  0.2126 -0.7486  3.3958
   48MOL0     H 6589   8.314  10.042   3.334 -0.4149 -2.1464 -0.5890
   48MOL0     H 6590   8.540  10.040   3.397  0.2016 -0.7226  0.6446
   48MOL0     H 6591   8.485  10.176   3.480  1.6494 -0.5132  4.3715
   48MOL0     H 6592   8.536   9.897   3.603  0.3625 -0.7492  0.6373
   48MOL0     H 6593   8.449  10.017   3.692  1.3702  0.3852 -0.1911
   48MOL0     H 6594   8.652  10.175   3.654  3.1055  1.3095 -1.0082
   48MOL0     H 6595   8.734  10.040   3.571  0.5635 -0.5504  1.7246
   48MOL0     H 6596   8.638   9.984   3.843 -0.9617  1.6424 -0.7007
   48MOL0     H 6597   8.729   9.889   3.742 -0.2148  0.0564  1.3878
   48MOL0     H 6598   8.874   9.990   3.904 -0.7572 -0.2035  0.5112
   48MOL0     H 6599   8.791  10.146   3.894 -2.0608 -1.9073  0.4325
   48MOL0     H 6600   8.907  10.224   3.712 -0.5796  0.3658 -1.3876
   48MOL0     H 6601   8.936  10.065   3.647  0.2246  2.0752 -1.0395
   48MOL0     H 6602   9.108  10.037   3.838  0.5303 -1.2969 -2.4921
   48MOL0     H 6603   9.076  10.206   3.885 -2.1792 -0.5876  0.7698
   48MOL0     H 6604   8.124   9.951   3.307 -0.4215  3.2042 -1.9608
   48MOL0     H 6605   7.875  10.021   3.223  0.3795 -3.0714  1.2287
   48MOL0     H 6606   7.534  10.035   3.250  0.0339  0.0542  2.2561
   48MOL0     H 6607   7.312  10.030   3.138 -0.3529  1.1562  0.4341
   48MOL0     H 6608   5.746   9.493   3.516  1.0664 -0.6583  0.7219
   48MOL0     H 6609   5.568   9.604   3.378 -0.5625  1.2456 -0.6570
   48MOL0     H 6610   5.487   9.647   2.784 -0.8609 -1.6436  0.1779
   48MOL0     H 6611   5.263   9.695   2.684 -0.8589  0.6048 -0.0874
   48MOL0     H 6612   4.897   9.754   2.915  1.1379  0.6628  1.6409
   48MOL0     H 6613   4.983   9.907   2.953  3.8136 -0.4403  0.1266
   48MOL0     H 6614   4.901   9.980   2.725  2.3164 -0.3768  2.0098
   48MOL0     H 6615   4.765   9.948   2.832 -2.4141 -2.5972 -0.3429
   48MOL0     H 6616   4.887   9.739   2.634  0.0146  1.3126 -1.2215
   48MOL0     H 6617   4.737   9.717   2.734  0.6584 -0.0358  1.6079
   48MOL0     H 6618   4.680   9.764   2.510 -0.1926  0.5964 -1.9779
   48MOL0     H 6619   4.784   9.902   2.500 -0.5461 -0.4078 -1.3100
   48MOL0     H 6620   4.417  10.028   2.703  1.7665  1.8765 -0.2658
   48MOL0     H 6621   5.146   9.861   3.061  1.1614  0.6863  0.5966
   48MOL0     H 6622   5.251   9.883   3.237  0.9094  3.2619 -0.1969
   48MOL0     H 6623   5.378   9.751   3.263  4.4594  2.0644 -0.4946
   48MOL0     H 6624   5.425   9.903   3.210 -0.7836  0.7414 -0.6767
   49MOL0     O 6625   5.209   3.644   8.000 -0.6375 -0.0511 -0.3489
   49MOL0     C 6626   5.131   3.561   8.036  0.2687  0.9376  0.0906
   49MOL0     O 6627   5.147   3.423   8.022 -0.2177 -0.1708 -0.6079
   49MOL0     C 6628   5.270   3.360   7.993 -0.6325  0.0701  0.3919
   49MOL0     C 6629   5.398   3.418   8.033 -0.1924 -0.0020 -0.2167
   49MOL0     C 6630   5.513   3.349   7.990 -0.5701  0.8696  1.0329
   49MOL0     C 6631   5.506   3.230   7.909  0.6525 -0.4585 -0.1421
   49MOL0     O 6632   5.609   3.162   7.852 -0.2854  0.3492  0.0561
   49MOL0     C 6633   5.743   3.200   7.876  0.3331 -1.1448 -0.0020
   49MOL0     C 6634   5.834   3.073   7.853  0.3356 -0.5119  0.4331
   49MOL0     C 6635   5.843   2.967   7.958 -0.2433 -1.1627  0.0053
   49MOL0     C 6636   5.947   3.007   8.064 -0.2590 -0.3964 -0.7425
   49MOL0     C 6637   5.945   2.926   8.198 -0.3591  1.0706  0.3353
   49MOL0     C 6638   6.018   3.008   8.302  0.4509  0.5699 -0.4767
   49MOL0     C 6639   6.045   2.926   8.423  0.5960  0.3090 -0.6024
   49MOL0     C 6640   6.121   2.980   8.535  0.1581 -0.1615 -0.1717
   49MOL0     N 6641   6.058   3.104   8.585  0.2614  0.5309  0.4741
   49MOL0     C 6642   6.124   3.195   8.650  0.2125 -0.2324  0.4325
   49MOL0     C 6643   6.037   3.268   8.720  0.2276 -0.7050 -0.6862
   49MOL0     C 6644   6.065   3.367   8.830 -0.6413 -0.1073 -0.0529
   49MOL0     C 6645   6.026   3.517   8.784 -0.1174 -0.0096 -0.1886
   49MOL0     C 6646   6.048   3.606   8.909 -0.0526 -0.7005  0.7387
   49MOL0     C 6647   6.049   3.759   8.884 -0.0795  0.1191  0.4656
   49MOL0     O 6648   6.073   3.842   9.002  0.0884 -0.1841  0.1367
   49MOL0     C 6649   6.049   3.980   8.987 -0.0522  1.2052  0.1065
   49MOL0     C 6650   6.060   4.062   9.100  0.1954  0.2361 -0.2038
   49MOL0     C 6651   6.016   4.196   9.093  0.4567  0.0310  1.1412
   49MOL0     C 6652   6.053   4.266   9.215 -0.0051 -1.2948  1.0480
   49MOL0     C 6653   5.970   4.257   8.969 -0.1601  0.5987 -0.2635
   49MOL0     C 6654   5.929   4.396   8.953 -0.0132  0.8847  0.4791
   49MOL0     O 6655   5.921   4.440   8.818 -0.2129 -0.5876 -0.7393
   49MOL0     C 6656   5.889   4.573   8.803 -0.0333 -0.1037 -0.4447
   49MOL0     C 6657   5.994   4.665   8.813  1.2759  0.8169 -0.1889
   49MOL0     C 6658   5.969   4.806   8.796 -0.4250  0.3840 -0.2609
   49MOL0     C 6659   5.833   4.851   8.772 -0.7481  0.4337 -0.1191
   49MOL0     O 6660   5.810   4.985   8.759 -0.7411 -0.2314  0.9117
   49MOL0     C 6661   5.823   5.060   8.876  0.3663  0.3583 -1.1893
   49MOL0     C 6662   5.746   5.193   8.861 -0.1618 -0.5617 -1.1171
   49MOL0     C 6663   5.740   5.279   8.994  0.1146  0.2872  0.1616
   49MOL0     C 6664   5.660   5.416   8.973 -0.5927 -0.6734 -0.8486
   49MOL0     C 6665   5.662   5.522   9.085 -0.0129 -0.5782  0.2910
   49MOL0     C 6666   5.629   5.469   9.219  0.3505  0.3669  0.3583
   49MOL0     C 6667   5.600   5.577   9.317  0.8727 -0.9633  0.7857
   49MOL0     C 6668   5.626   5.539   9.455 -0.9804 -0.3622  0.6404
   49MOL0    Cl 6669   5.610   5.685   9.557 -0.0188 -0.3265 -0.5923
   49MOL0     C 6670   5.729   4.754   8.779 -0.6269 -0.6005  0.0568
   49MOL0     C 6671   5.758   4.614   8.781 -0.3298 -0.5801 -0.6637
   49MOL0     O 6672   5.904   4.463   9.056 -0.2787  0.1711  0.1977
   49MOL0     C 6673   5.968   4.174   8.856  0.0414  0.3040 -0.0881
   49MOL0     C 6674   6.002   4.037   8.864  0.0604  0.1435 -1.1006
   49MOL0     N 6675   5.916   3.212   8.714 -0.1543  0.4789  0.1258
   49MOL0     N 6676   5.930   3.117   8.624  0.7487  0.2460 -0.3089
   49MOL0     C 6677   5.383   3.190   7.861  0.9381  0.7714 -0.0203
   49MOL0     C 6678   5.265   3.253   7.904  0.0453  0.1700  0.2111
   49MOL0     C 6679   5.005   3.617   8.088  0.3243  0.2856  0.0659
   49MOL0     C 6680   5.009   3.730   8.175  0.2236  0.9432  0.2208
   49MOL0     C 6681   4.893   3.771   8.235 -0.4166  0.4665  0.3716
   49MOL0     C 6682   4.764   3.719   8.196 -0.4736  0.2185 -0.5270
   49MOL0     O 6683   4.650   3.789   8.247 -0.0792 -0.2172 -0.0894
   49MOL0     C 6684   4.529   3.764   8.177  0.4681 -0.1239  0.1549
   49MOL0     C 6685   4.452   3.643   8.231  0.4289 -0.2610 -0.5658
   49MOL0     C 6686   4.324   3.617   8.151 -0.1768  0.0812  0.4712
   49MOL0     C 6687   4.267   3.485   8.201 -0.1613 -0.5527  0.3845
   49MOL0     C 6688   4.124   3.488   8.172  0.8674  0.2605  0.6056
   49MOL0     C 6689   4.012   3.480   8.127  0.3085  0.1275 -0.1006
   49MOL0     C 6690   4.758   3.606   8.111 -0.0086 -0.3976  0.3773
   49MOL0     C 6691   4.874   3.557   8.063 -0.6726  0.8233  0.6389
   49MOL0     C 6692   4.854   3.441   7.970  0.1811 -0.1901 -0.5532
   49MOL0     H 6693   5.409   3.516   8.078  3.0621 -0.9534  1.2992
   49MOL0     H 6694   5.611   3.392   8.008 -0.5867  0.7731  1.3581
   49MOL0     H 6695   5.760   3.241   7.976  0.6601 -2.4941  0.5235
   49MOL0     H 6696   5.777   3.269   7.799  1.5726 -0.6736  0.9341
   49MOL0     H 6697   5.797   3.022   7.764  0.4790  1.5268 -0.8550
   49MOL0     H 6698   5.936   3.107   7.832  0.1644 -0.9064 -1.1933
   49MOL0     H 6699   5.744   2.940   7.998  0.2081 -1.8743  0.6669
   49MOL0     H 6700   5.867   2.872   7.909 -2.8926  0.1042 -4.2722
   49MOL0     H 6701   6.052   3.014   8.035 -0.5777  0.7669 -1.7457
   49MOL0     H 6702   5.925   3.107   8.104 -2.1268 -2.2078  3.3538
   49MOL0     H 6703   5.999   2.832   8.179 -0.5733  0.1879  3.5051
   49MOL0     H 6704   5.846   2.915   8.242 -0.4097  4.2623  1.2525
   49MOL0     H 6705   6.114   3.038   8.257  1.4302 -0.8870  0.5471
   49MOL0     H 6706   5.957   3.097   8.322  0.5750  0.3254  1.1391
   49MOL0     H 6707   6.107   2.845   8.384  1.3961  0.9564 -0.7124
   49MOL0     H 6708   5.950   2.886   8.459  1.9728 -1.0459  1.7733
   49MOL0     H 6709   6.121   2.917   8.625 -3.4884  1.2063  0.9890
   49MOL0     H 6710   6.222   2.988   8.495  0.5716 -1.5784  0.5329
   49MOL0     H 6711   6.233   3.199   8.651  0.3476 -2.7487  1.1099
   49MOL0     H 6712   6.174   3.365   8.841 -0.6267  2.1279  0.6623
   49MOL0     H 6713   6.006   3.333   8.915 -0.7973 -0.0487 -0.1388
   49MOL0     H 6714   6.081   3.541   8.693 -1.7192 -0.9794 -1.4699
   49MOL0     H 6715   5.922   3.528   8.754  0.2715  1.1139 -1.1876
   49MOL0     H 6716   5.975   3.589   8.988 -0.7028 -0.5547  0.1824
   49MOL0     H 6717   6.145   3.581   8.953  0.9564 -1.2677 -1.6133
   49MOL0     H 6718   6.125   3.786   8.809  0.1748  1.7344  1.2527
   49MOL0     H 6719   5.950   3.782   8.845 -0.5831 -4.5042 -1.6163
   49MOL0     H 6720   6.089   4.030   9.199  0.2550  2.4297  0.5362
   49MOL0     H 6721   6.064   4.196   9.298  0.1850 -3.9766 -1.0694
   49MOL0     H 6722   5.967   4.325   9.249 -1.1973 -2.5920  0.4287
   49MOL0     H 6723   6.136   4.335   9.199 -1.7972  0.3760 -2.0882
   49MOL0     H 6724   6.094   4.628   8.833  2.1257  2.0569 -1.8632
   49MOL0     H 6725   6.048   4.881   8.792 -2.8618  3.2789  1.7657
   49MOL0     H 6726   5.781   5.015   8.966  1.1677  3.2474  0.7615
   49MOL0     H 6727   5.927   5.074   8.905 -0.2135 -0.1137  1.3025
   49MOL0     H 6728   5.789   5.254   8.781  1.9116 -0.2387  0.1581
   49MOL0     H 6729   5.644   5.162   8.838 -1.3687  1.1386  1.5624
   49MOL0     H 6730   5.841   5.282   9.037 -0.5222 -0.0708  1.7704
   49MOL0     H 6731   5.692   5.228   9.078 -0.7070  2.7756  1.3208
   49MOL0     H 6732   5.555   5.399   8.951 -0.5249 -3.8203  0.6934
   49MOL0     H 6733   5.703   5.454   8.880 -1.1418  2.6833  0.1357
   49MOL0     H 6734   5.762   5.564   9.096 -0.2173  1.3140 -3.5226
   49MOL0     H 6735   5.601   5.604   9.047  1.6190 -0.1771 -1.6457
   49MOL0     H 6736   5.707   5.398   9.247  3.2762  2.8447 -1.0022
   49MOL0     H 6737   5.530   5.425   9.199  0.7890 -0.9313  0.8979
   49MOL0     H 6738   5.497   5.615   9.317  1.7028  1.4976  0.7383
   49MOL0     H 6739   5.656   5.666   9.286  3.4355 -3.2918 -1.9365
   49MOL0     H 6740   5.729   5.501   9.459 -1.1505 -0.7491  3.6126
   49MOL0     H 6741   5.553   5.461   9.478 -2.3285  0.0540 -1.9290
   49MOL0     H 6742   5.628   4.788   8.758  0.3660  1.5305 -1.6636
   49MOL0     H 6743   5.679   4.540   8.781 -1.9571  0.9245  2.8743
   49MOL0     H 6744   5.946   4.221   8.761  3.9124  1.1559 -0.7373
   49MOL0     H 6745   5.994   3.982   8.770  0.8281 -3.8278  0.9148
   49MOL0     H 6746   5.372   3.101   7.800  1.0657  1.2420 -0.7496
   49MOL0     H 6747   5.171   3.218   7.861 -0.1389  0.1877  0.5935
   49MOL0     H 6748   5.101   3.788   8.183  1.1788 -0.1162 -2.0787
   49MOL0     H 6749   4.888   3.853   8.305 -0.4670 -0.5489  1.6025
   49MOL0     H 6750   4.468   3.853   8.192  0.2210 -0.4029  0.7993
   49MOL0     H 6751   4.537   3.760   8.068 -0.1260  3.7615 -0.1823
   49MOL0     H 6752   4.423   3.663   8.334  0.1506  1.4391 -0.9481
   49MOL0     H 6753   4.518   3.556   8.229 -0.1375 -0.7653  0.9936
   49MOL0     H 6754   4.258   3.704   8.156  1.1074  1.1246 -0.0395
   49MOL0     H 6755   4.356   3.604   8.047  1.6666 -2.4126  1.2491
   49MOL0     H 6756   4.280   3.473   8.309 -1.4082 -0.1545  0.6025
   49MOL0     H 6757   4.305   3.399   8.145 -2.1389  0.6659 -3.1585
   49MOL0     H 6758   3.921   3.470   8.072  1.2274 -1.7454 -1.4116
   49MOL0     H 6759   4.666   3.555   8.082  0.2394 -1.6667  1.7241
   49MOL0     H 6760   4.901   3.347   8.003 -3.0964 -1.3838  1.2284
   49MOL0     H 6761   4.750   3.410   7.961  0.1300 -0.3903  0.5427
   49MOL0     H 6762   4.900   3.454   7.872 -0.0144 -2.0395 -0.9306
   50MOL0     O 6763   0.988   9.632   5.741  0.5812 -0.2576 -0.6815
   50MOL0     C 6764   0.915   9.700   5.819  0.1318  0.6595  0.3170
   50MOL0     O 6765   0.943   9.831   5.851  0.5841 -0.0614  0.2155
   50MOL0     C 6766   1.038   9.899   5.780 -0.5965  0.0233 -0.6078
   50MOL0     C 6767   1.154   9.936   5.843  0.8678 -0.5856  0.1830
   50MOL0     C 6768   1.246  10.011   5.773  0.1838  0.1567  0.5466
   50MOL0     C 6769   1.228  10.041   5.638  0.2710  0.2785  0.2314
   50MOL0     O 6770   1.307  10.119   5.566 -0.3840 -0.2734  0.2115
   50MOL0     C 6771   1.437  10.161   5.607  0.3320 -0.2569  0.4338
   50MOL0     C 6772   1.498  10.258   5.503  1.0900 -0.0612  0.2690
   50MOL0     C 6773   1.409  10.385   5.485 -0.6938  0.3463 -0.4170
   50MOL0     C 6774   1.462  10.480   5.377 -0.4011 -1.2345  0.0953
   50MOL0     C 6775   1.388  10.619   5.384  0.7232  0.1184 -0.4311
   50MOL0     C 6776   1.419  10.723   5.273  0.2990  0.3137  0.1122
   50MOL0     C 6777   1.570  10.743   5.251  0.0217  1.1520 -0.0899
   50MOL0     C 6778   1.602  10.877   5.184  1.0574  0.2395 -0.0474
   50MOL0     N 6779   1.746  10.902   5.182 -0.8308 -0.5536 -0.2055
   50MOL0     C 6780   1.839  10.857   5.096  0.3301  0.2051  0.2605
   50MOL0     C 6781   1.956  10.909   5.138 -0.9807  0.0987  0.0430
   50MOL0     C 6782   2.081  10.884   5.068  0.1009  0.4534  0.1112
   50MOL0     C 6783   2.192  10.980   5.126  0.0053 -0.3043  0.5506
   50MOL0     C 6784   2.336  10.957   5.066  0.1321  0.2188 -0.4375
   50MOL0     C 6785   2.434  11.060   5.109 -0.4829  0.0068 -0.3108
   50MOL0     O 6786   2.439  11.104   5.246 -0.0454  0.1870 -0.7121
   50MOL0     C 6787   2.552  11.158   5.297  0.5496  0.0027  1.3562
   50MOL0     C 6788   2.536  11.279   5.362 -0.4179 -0.5067 -0.0984
   50MOL0     C 6789   2.650  11.349   5.410 -0.0530  0.2024  0.2629
   50MOL0     C 6790   2.617  11.468   5.482  0.2280 -0.1119 -0.5391
   50MOL0     C 6791   2.779  11.292   5.389 -0.1012 -0.0300  0.0328
   50MOL0     C 6792   2.905  11.356   5.447  0.1596  0.7793 -0.1567
   50MOL0     O 6793   3.002  11.267   5.468 -0.6331 -0.6656  0.1936
   50MOL0     C 6794   3.123  11.294   5.533  0.5618  0.3617  0.0744
   50MOL0     C 6795   3.235  11.271   5.458 -0.5463  0.3077  0.2551
   50MOL0     C 6796   3.362  11.264   5.522 -0.1551 -1.3115 -0.3031
   50MOL0     C 6797   3.374  11.302   5.662 -0.1596  0.3883  0.7389
   50MOL0     O 6798   3.498  11.290   5.723  0.5280  0.1673 -0.1287
   50MOL0     C 6799   3.494  11.236   5.853  0.5344 -0.1593  0.0648
   50MOL0     C 6800   3.633  11.198   5.903  0.1798  0.2236  0.2502
   50MOL0     C 6801   3.698  11.103   5.801 -0.0151  0.5017 -0.9127
   50MOL0     C 6802   3.809  11.015   5.865  0.8086  0.2299 -0.3540
   50MOL0     C 6803   3.945  11.089   5.865 -0.4093 -0.5994  0.1724
   50MOL0     C 6804   4.056  10.997   5.834  0.4566 -0.3751  0.0298
   50MOL0     C 6805   4.098  10.891   5.940 -0.4449  0.0310  0.5832
   50MOL0     C 6806   4.238  10.819   5.899 -0.4222 -0.8489  0.0809
   50MOL0    Cl 6807   4.364  10.939   5.880 -0.2155  0.3717 -0.0345
   50MOL0     C 6808   3.257  11.328   5.731  0.1261  0.4262 -0.1614
   50MOL0     C 6809   3.134  11.321   5.668  0.3292  0.1217 -1.1623
   50MOL0     O 6810   2.916  11.476   5.471 -0.3202 -0.4498  0.1633
   50MOL0     C 6811   2.787  11.166   5.327 -0.1359 -0.1643  1.1566
   50MOL0     C 6812   2.676  11.101   5.272 -0.0187 -0.4637  0.4373
   50MOL0     N 6813   1.938  10.988   5.256 -0.5410  0.3976  0.8736
   50MOL0     N 6814   1.808  10.976   5.282 -0.3582  0.2160 -0.5861
   50MOL0     C 6815   1.105  10.004   5.580  0.5198  0.2355 -0.3840
   50MOL0     C 6816   1.006   9.937   5.649 -0.1870 -0.7092  0.0466
   50MOL0     C 6817   0.797   9.643   5.878 -0.9550  0.2359 -0.3930
   50MOL0     C 6818   0.688   9.720   5.894 -0.3421 -0.2685 -0.0974
   50MOL0     C 6819   0.579   9.672   5.958 -0.7173  0.2114  0.4928
   50MOL0     C 6820   0.573   9.537   6.006  0.8194 -0.5227 -0.8865
   50MOL0     O 6821   0.451   9.507   6.061 -0.1872 -0.1754  0.3200
   50MOL0     C 6822   0.442   9.378   6.136 -0.7922  0.3733  0.4972
   50MOL0     C 6823   0.414   9.252   6.035  0.5390  0.1776 -0.7550
   50MOL0     C 6824   0.277   9.279   5.967 -0.4860  1.7364 -0.6600
   50MOL0     C 6825   0.240   9.167   5.872 -0.9570 -0.0221 -0.4226
   50MOL0     C 6826   0.320   9.179   5.754 -0.0223  0.1026  0.4047
   50MOL0     C 6827   0.386   9.196   5.651 -0.3598 -0.3491 -0.0134
   50MOL0     C 6828   0.689   9.455   5.993  0.3247  0.1749 -0.0027
   50MOL0     C 6829   0.804   9.512   5.934 -0.9579 -0.5215  0.2280
   50MOL0     C 6830   0.935   9.442   5.944  1.1346 -0.6212  0.5088
   50MOL0     H 6831   1.185   9.908   5.943 -2.1462 -0.9288  1.1050
   50MOL0     H 6832   1.335  10.026   5.833  0.1347  1.1858  0.3759
   50MOL0     H 6833   1.503  10.075   5.623 -0.4770 -0.6878  1.7025
   50MOL0     H 6834   1.440  10.216   5.702  2.2515 -1.7000  1.2916
   50MOL0     H 6835   1.605  10.277   5.515  1.7480 -2.4768 -1.0645
   50MOL0     H 6836   1.490  10.200   5.410 -0.3792 -3.2329  2.1902
   50MOL0     H 6837   1.308  10.355   5.456 -1.1285 -1.9019  2.9045
   50MOL0     H 6838   1.413  10.430   5.585  0.6544 -2.1559  0.7471
   50MOL0     H 6839   1.569  10.500   5.392 -0.9183  1.4252  0.7016
   50MOL0     H 6840   1.471  10.440   5.276  0.7924 -0.7753 -0.0044
   50MOL0     H 6841   1.409  10.667   5.479  1.4536  0.0432 -0.5497
   50MOL0     H 6842   1.281  10.597   5.371  0.7297  1.1188 -2.7534
   50MOL0     H 6843   1.377  10.685   5.180  0.3228 -2.5319  1.1534
   50MOL0     H 6844   1.368  10.816   5.298  0.7650  0.2246  1.4632
   50MOL0     H 6845   1.615  10.658   5.200  1.4953  1.4013  0.7282
   50MOL0     H 6846   1.627  10.756   5.344 -2.5478 -0.2184  1.7870
   50MOL0     H 6847   1.558  10.861   5.085 -1.7384 -0.6792  1.2371
   50MOL0     H 6848   1.537  10.949   5.236  1.3668  1.4110 -1.2212
   50MOL0     H 6849   1.823  10.799   5.006  0.0144 -0.6999  0.8863
   50MOL0     H 6850   2.073  10.915   4.963  0.4390 -0.6789 -0.2567
   50MOL0     H 6851   2.116  10.781   5.080 -0.7477  0.2372  0.8190
   50MOL0     H 6852   2.170  11.081   5.090 -0.4853 -0.4558  0.4190
   50MOL0     H 6853   2.205  10.980   5.234  1.0834  3.2559  0.5516
   50MOL0     H 6854   2.373  10.856   5.087 -2.0379 -1.4159 -3.5877
   50MOL0     H 6855   2.332  10.971   4.957  0.1465 -2.1235 -0.7834
   50MOL0     H 6856   2.524  11.015   5.067 -0.6335 -0.9490  0.3425
   50MOL0     H 6857   2.422  11.154   5.055  2.5386  0.5362 -0.2187
   50MOL0     H 6858   2.436  11.317   5.378 -1.6937 -2.1541 -3.1083
   50MOL0     H 6859   2.517  11.502   5.453  0.3311  0.3514 -0.3594
   50MOL0     H 6860   2.673  11.560   5.461  1.6715  0.0537  3.2740
   50MOL0     H 6861   2.620  11.449   5.590 -0.8789  1.3012 -0.2207
   50MOL0     H 6862   3.230  11.225   5.360  2.5667 -1.4791  0.8178
   50MOL0     H 6863   3.455  11.233   5.475  0.8323 -0.1876  0.8383
   50MOL0     H 6864   3.443  11.303   5.924  2.4275 -0.0687  1.4145
   50MOL0     H 6865   3.434  11.145   5.851  2.2429 -1.3599  1.2909
   50MOL0     H 6866   3.685  11.294   5.897  1.7813 -0.5957  0.6292
   50MOL0     H 6867   3.619  11.175   6.009  1.1723  3.1701  1.1114
   50MOL0     H 6868   3.741  11.164   5.721  0.9361  2.6145  1.0817
   50MOL0     H 6869   3.625  11.042   5.747 -0.1880  0.0840 -0.2203
   50MOL0     H 6870   3.809  10.921   5.809  1.8069  0.9906 -1.7052
   50MOL0     H 6871   3.784  10.999   5.970 -0.2297  1.6489 -0.3437
   50MOL0     H 6872   3.948  11.172   5.794 -2.6980 -1.9572 -1.6592
   50MOL0     H 6873   3.974  11.137   5.959  0.5258 -1.7755  0.5147
   50MOL0     H 6874   4.147  11.055   5.815  2.1262 -2.0978  2.2113
   50MOL0     H 6875   4.031  10.949   5.739 -1.6004 -0.0885  0.3829
   50MOL0     H 6876   4.033  10.803   5.937  0.6925 -0.9048  2.0852
   50MOL0     H 6877   4.095  10.928   6.043  2.6436 -0.8941  1.1066
   50MOL0     H 6878   4.223  10.748   5.817  2.3644  1.2625 -2.5286
   50MOL0     H 6879   4.269  10.757   5.984 -2.0951 -1.2612  0.4217
   50MOL0     H 6880   3.275  11.353   5.835  2.4329  2.0378 -0.8599
   50MOL0     H 6881   3.044  11.330   5.729 -0.3487 -2.2051 -1.7069
   50MOL0     H 6882   2.885  11.120   5.316  0.7291  2.0964 -2.8332
   50MOL0     H 6883   2.675  10.999   5.236  0.1190 -1.3422  2.7247
   50MOL0     H 6884   1.079  10.029   5.478  3.9233 -1.1220 -1.7242
   50MOL0     H 6885   0.915   9.902   5.600 -0.4312 -1.7915  1.2009
   50MOL0     H 6886   0.683   9.818   5.846 -5.3465 -0.3398 -0.1845
   50MOL0     H 6887   0.487   9.730   5.960 -1.5177 -0.9732  3.7544
   50MOL0     H 6888   0.539   9.362   6.182  0.1713  2.5030 -0.6553
   50MOL0     H 6889   0.369   9.385   6.217 -0.0229  1.1812  1.1205
   50MOL0     H 6890   0.410   9.160   6.094  0.0228  0.1594 -0.8113
   50MOL0     H 6891   0.498   9.235   5.968  1.0741  0.3244 -0.1298
   50MOL0     H 6892   0.206   9.269   6.049 -0.5330  2.2538 -0.6325
   50MOL0     H 6893   0.278   9.378   5.922 -0.5956  1.6439 -0.8662
   50MOL0     H 6894   0.135   9.171   5.844 -0.9227 -1.3618 -0.8237
   50MOL0     H 6895   0.259   9.072   5.922 -3.6650  1.0418  3.0509
   50MOL0     H 6896   0.425   9.211   5.553  1.5525  1.3747  0.9292
   50MOL0     H 6897   0.699   9.363   6.050  1.0830  1.6403  2.3980
   50MOL0     H 6898   0.916   9.346   5.994  1.2184 -0.9834 -0.1500
   50MOL0     H 6899   0.980   9.427   5.846 -0.8578  1.2930 -0.7884
   50MOL0     H 6900   0.991   9.510   6.009 -2.0426  1.2618  1.4964
   51MOL0     O 6901   4.019   0.189   1.454  0.0506  0.2431  1.0164
   51MOL0     C 6902   3.989   0.239   1.564 -0.8455  0.0484 -0.1410
   51MOL0     O 6903   4.079   0.286   1.648 -0.4204 -0.1790  0.4354
   51MOL0     C 6904   4.214   0.273   1.644  1.1315  0.1671 -0.0955
   51MOL0     C 6905   4.271   0.153   1.594 -0.1199 -0.0893  0.1959
   51MOL0     C 6906   4.409   0.146   1.576  0.1589  0.6626  0.0667
   51MOL0     C 6907   4.494   0.257   1.620  0.3752 -0.6700  0.4876
   51MOL0     O 6908   4.630   0.267   1.607  0.2850 -0.1180  0.3756
   51MOL0     C 6909   4.704   0.172   1.672 -0.2358  0.1089  0.5954
   51MOL0     C 6910   4.711   0.193   1.826 -0.3469 -1.0645 -0.4063
   51MOL0     C 6911   4.777   0.080   1.894 -0.2752  0.9525 -0.7561
   51MOL0     C 6912   4.928   0.055   1.852  0.2791 -0.0495 -0.6783
   51MOL0     C 6913   4.968  -0.079   1.914 -0.1776  0.4927 -0.3919
   51MOL0     C 6914   5.099  -0.142   1.852  0.2565  0.3923  0.4658
   51MOL0     C 6915   5.209  -0.035   1.849  0.8871 -0.1456 -0.3358
   51MOL0     C 6916   5.351  -0.103   1.830  0.9647  0.0260  0.6374
   51MOL0     N 6917   5.459  -0.010   1.863  0.4206 -0.3352 -0.3344
   51MOL0     C 6918   5.477   0.054   1.985  0.4545 -0.0604  0.3148
   51MOL0     C 6919   5.571   0.151   1.969  0.4864  0.3695  0.7456
   51MOL0     C 6920   5.615   0.251   2.073 -0.5672  0.0125  0.4669
   51MOL0     C 6921   5.736   0.209   2.147 -0.1251  0.1637  0.2503
   51MOL0     C 6922   5.857   0.200   2.051 -0.3896  1.0599  0.3828
   51MOL0     C 6923   5.989   0.189   2.133 -0.5650  0.0154 -0.2271
   51MOL0     O 6924   6.087   0.243   2.053  0.3084  0.0791  0.0349
   51MOL0     C 6925   6.211   0.257   2.114 -0.6262 -0.2094 -0.2990
   51MOL0     C 6926   6.254   0.192   2.232 -0.3628  0.0578  0.0565
   51MOL0     C 6927   6.394   0.211   2.269 -0.0486 -0.1847  1.6020
   51MOL0     C 6928   6.449   0.136   2.392 -0.1559  0.2690  0.2049
   51MOL0     C 6929   6.478   0.299   2.190 -0.2147  0.5793 -0.4709
   51MOL0     C 6930   6.617   0.316   2.210  0.2175  0.1809 -0.6034
   51MOL0     O 6931   6.658   0.431   2.163 -0.2414 -1.0153  0.3032
   51MOL0     C 6932   6.790   0.466   2.162 -0.4578 -0.0802 -0.1970
   51MOL0     C 6933   6.892   0.390   2.105 -0.2901 -0.4183 -0.0845
   51MOL0     C 6934   7.024   0.424   2.114 -0.6386 -0.4624  0.1088
   51MOL0     C 6935   7.070   0.532   2.195 -0.2736  0.3042  0.1048
   51MOL0     O 6936   7.199   0.555   2.202 -1.1394 -0.0805  0.7274
   51MOL0     C 6937   7.248   0.589   2.336  0.1982  0.8859 -0.3707
   51MOL0     C 6938   7.391   0.543   2.347 -0.1444  0.1719 -0.8348
   51MOL0     C 6939   7.416   0.393   2.324  0.2045  0.2827 -1.0366
   51MOL0     C 6940   7.468   0.365   2.186 -0.1069 -1.3574 -0.8056
   51MOL0     C 6941   7.475   0.214   2.148  0.7766 -0.7491  0.0580
   51MOL0     C 6942   7.585   0.143   2.221  0.0423  0.6521 -0.2126
   51MOL0     C 6943   7.717   0.200   2.179 -0.1104 -1.2937 -0.4312
   51MOL0     C 6944   7.838   0.133   2.242  0.3014 -0.2829 -0.1744
   51MOL0    Cl 6945   7.854  -0.024   2.165  0.2028  0.0231 -0.1808
   51MOL0     C 6946   6.970   0.614   2.253  0.5409  0.3154  0.1672
   51MOL0     C 6947   6.828   0.591   2.228  0.2610  0.9028  0.3633
   51MOL0     O 6948   6.682   0.242   2.283  0.0026 -0.6998 -0.4516
   51MOL0     C 6949   6.424   0.363   2.073  0.0815  0.0491  0.1948
   51MOL0     C 6950   6.296   0.339   2.039 -0.3625 -0.4886  0.3125
   51MOL0     N 6951   5.611   0.145   1.838 -0.1859 -0.4655  0.7366
   51MOL0     N 6952   5.545   0.053   1.776  0.1007  0.3764 -0.1032
   51MOL0     C 6953   4.428   0.367   1.677  0.6519  1.0452  0.6745
   51MOL0     C 6954   4.292   0.372   1.689  0.7200  0.1926 -0.4625
   51MOL0     C 6955   3.851   0.255   1.620 -0.1861  0.4688  0.0273
   51MOL0     C 6956   3.834   0.335   1.733 -0.6104 -0.3953 -0.4095
   51MOL0     C 6957   3.703   0.331   1.806 -0.6716  0.1566  0.2506
   51MOL0     C 6958   3.600   0.259   1.743  0.2183  0.4230 -0.1196
   51MOL0     O 6959   3.469   0.236   1.809 -0.2528 -0.0578  0.0772
   51MOL0     C 6960   3.457   0.286   1.942 -0.1023  0.8386 -0.1771
   51MOL0     C 6961   3.345   0.225   2.022 -0.2712  0.6957 -0.0862
   51MOL0     C 6962   3.321   0.300   2.155  0.2268 -0.7516  0.5633
   51MOL0     C 6963   3.211   0.254   2.243 -0.2173  0.2389  0.0746
   51MOL0     C 6964   3.066   0.281   2.201 -0.6552 -0.0759  0.5302
   51MOL0     C 6965   2.953   0.278   2.163 -0.7723  0.1240 -0.2089
   51MOL0     C 6966   3.623   0.183   1.628 -1.5860  0.3389 -0.1225
   51MOL0     C 6967   3.745   0.186   1.555 -0.4379 -0.0934  0.2928
   51MOL0     C 6968   3.748   0.110   1.424 -0.5840 -0.8082 -0.3712
   51MOL0     H 6969   4.215   0.075   1.544 -0.0608 -1.7353  2.5391
   51MOL0     H 6970   4.451   0.059   1.526 -1.5519  0.2200 -0.6950
   51MOL0     H 6971   4.805   0.165   1.631 -0.1034 -0.8183  1.0318
   51MOL0     H 6972   4.666   0.073   1.646  2.6385 -0.9076 -0.1154
   51MOL0     H 6973   4.768   0.286   1.838  0.0463 -1.1464 -1.5808
   51MOL0     H 6974   4.609   0.203   1.866 -0.3570  0.4227 -0.7392
   51MOL0     H 6975   4.774   0.104   2.000  2.5076  0.5146 -0.5130
   51MOL0     H 6976   4.719  -0.009   1.869  0.7745 -0.2501  0.9681
   51MOL0     H 6977   4.937   0.039   1.744 -2.6800 -1.3528 -0.8197
   51MOL0     H 6978   4.985   0.139   1.893 -0.5635 -0.7712  2.2324
   51MOL0     H 6979   4.886  -0.150   1.898 -0.5091 -0.0561  2.9450
   51MOL0     H 6980   4.972  -0.060   2.022 -1.5799  0.3897 -0.3042
   51MOL0     H 6981   5.130  -0.222   1.920  1.1893  0.9489  0.7112
   51MOL0     H 6982   5.080  -0.177   1.750 -0.5787  0.7954  0.4744
   51MOL0     H 6983   5.210   0.016   1.945  0.0180 -1.8070  0.6072
   51MOL0     H 6984   5.186   0.043   1.776 -1.4459 -0.3864  0.0966
   51MOL0     H 6985   5.344  -0.184   1.902 -2.2966  0.3639  0.8538
   51MOL0     H 6986   5.366  -0.135   1.727  5.2737  0.4670  0.9210
   51MOL0     H 6987   5.411   0.025   2.067 -0.7767 -1.4825 -1.1101
   51MOL0     H 6988   5.534   0.280   2.140 -0.6404  0.3062  0.2529
   51MOL0     H 6989   5.632   0.343   2.017 -1.9420  1.8529  2.8991
   51MOL0     H 6990   5.754   0.280   2.229 -3.4859  0.2386  1.0823
   51MOL0     H 6991   5.721   0.115   2.202 -0.2940  1.3608  2.3671
   51MOL0     H 6992   5.846   0.110   1.990  1.1339  0.8340  0.3957
   51MOL0     H 6993   5.862   0.281   1.977  2.3976  2.3152  1.7964
   51MOL0     H 6994   5.986   0.250   2.223 -0.1059  0.2946 -0.3941
   51MOL0     H 6995   6.007   0.083   2.155 -1.1398  0.0246  0.2897
   51MOL0     H 6996   6.188   0.131   2.292 -0.9031  0.7328  0.1577
   51MOL0     H 6997   6.379   0.062   2.431 -0.1279 -0.0236 -0.2816
   51MOL0     H 6998   6.479   0.205   2.471  0.6466 -0.6179  0.7051
   51MOL0     H 6999   6.533   0.076   2.354  1.4560  2.2769  0.4227
   51MOL0     H 7000   6.862   0.296   2.059 -1.3759  0.4431 -1.1842
   51MOL0     H 7001   7.091   0.365   2.053 -1.6936 -1.8036  0.2231
   51MOL0     H 7002   7.264   0.696   2.349  0.3069  0.5830  2.8719
   51MOL0     H 7003   7.191   0.533   2.411 -0.9193 -0.0980 -1.8882
   51MOL0     H 7004   7.468   0.594   2.288  2.2247  1.9440  3.3734
   51MOL0     H 7005   7.430   0.563   2.447  0.6140 -0.7320 -0.9295
   51MOL0     H 7006   7.317   0.346   2.331  0.3189  0.0564 -0.9332
   51MOL0     H 7007   7.481   0.348   2.400 -0.2387 -1.8836 -1.8657
   51MOL0     H 7008   7.566   0.413   2.175 -0.6379 -0.4599 -1.9308
   51MOL0     H 7009   7.411   0.418   2.108  0.8757  3.5022  1.4047
   51MOL0     H 7010   7.376   0.177   2.175  1.0529 -0.7401  1.0944
   51MOL0     H 7011   7.490   0.198   2.040 -0.5964  1.3612 -0.4933
   51MOL0     H 7012   7.575   0.034   2.212 -3.8357  0.9307 -0.7425
   51MOL0     H 7013   7.568   0.155   2.328  2.3394 -0.8051  0.3912
   51MOL0     H 7014   7.723   0.305   2.207 -1.3152 -1.0922 -0.8811
   51MOL0     H 7015   7.720   0.206   2.070 -0.1546  0.9407 -0.3538
   51MOL0     H 7016   7.828   0.135   2.351 -0.7873 -0.6981 -0.2489
   51MOL0     H 7017   7.931   0.186   2.218  2.1385 -2.3730  1.8232
   51MOL0     H 7018   7.005   0.702   2.306  0.0998  0.0646  0.8839
   51MOL0     H 7019   6.759   0.656   2.280 -2.7107 -2.8821  1.5946
   51MOL0     H 7020   6.483   0.428   2.010 -0.8731  1.2667  0.5196
   51MOL0     H 7021   6.268   0.390   1.948  0.4738  0.9930  0.8483
   51MOL0     H 7022   4.482   0.455   1.710 -0.3890  1.7669  0.4994
   51MOL0     H 7023   4.235   0.459   1.720  2.0005  0.9609 -0.1650
   51MOL0     H 7024   3.907   0.399   1.780 -0.1752 -0.1796 -1.3520
   51MOL0     H 7025   3.697   0.390   1.897  0.3244  1.0748 -0.2551
   51MOL0     H 7026   3.551   0.274   1.997 -0.1672  2.0115  0.2136
   51MOL0     H 7027   3.435   0.393   1.937 -0.5275  0.9393  2.4538
   51MOL0     H 7028   3.365   0.119   2.038 -1.1092  0.5477  0.0575
   51MOL0     H 7029   3.258   0.227   1.956  0.0089 -1.0771 -0.5564
   51MOL0     H 7030   3.412   0.303   2.215  2.5982 -0.5644 -2.7889
   51MOL0     H 7031   3.307   0.404   2.125 -0.6138 -1.0058  0.0500
   51MOL0     H 7032   3.228   0.284   2.347 -2.8762  1.1919  0.2916
   51MOL0     H 7033   3.212   0.144   2.237  1.4463  0.2562 -0.5292
   51MOL0     H 7034   2.852   0.270   2.128 -1.4056 -1.1126  1.7773
   51MOL0     H 7035   3.537   0.130   1.590 -0.1839 -2.0875 -0.1031
   51MOL0     H 7036   3.650   0.063   1.406  0.3894 -2.3874 -1.8915
   51MOL0     H 7037   3.786   0.170   1.341 -1.4655  2.1129  1.2346
   51MOL0     H 7038   3.813   0.024   1.443  0.1058 -0.2084 -0.0307
   52MOL0     O 7039  11.028   1.627   4.991 -0.6632  0.2525  0.1773
   52MOL0     C 7040  10.991   1.700   4.901  0.2643 -0.1883 -0.1578
   52MOL0     O 7041  11.062   1.798   4.844  0.8676  0.3354  0.6442
   52MOL0     C 7042  11.202   1.804   4.851 -0.2970  0.6356  0.0730
   52MOL0     C 7043  11.287   1.699   4.852 -0.2232  0.1483 -0.1346
   52MOL0     C 7044  11.429   1.719   4.874  0.5560 -0.3492 -0.9649
   52MOL0     C 7045  11.472   1.846   4.876 -0.1808 -0.5725 -0.9030
   52MOL0     O 7046  11.606   1.869   4.905  0.3928  0.3677  0.1812
   52MOL0     C 7047  11.671   1.985   4.854 -0.3889  0.6151 -0.9634
   52MOL0     C 7048  11.812   1.945   4.801 -0.6677 -0.4637 -0.9231
   52MOL0     C 7049  11.817   1.834   4.686  0.1851 -0.5631 -0.6650
   52MOL0     C 7050  11.942   1.826   4.605  0.7400 -0.0898 -0.0764
   52MOL0     C 7051  11.939   1.897   4.471  0.3248  0.2696 -0.0099
   52MOL0     C 7052  11.945   2.050   4.496  0.5579  0.5657  0.0332
   52MOL0     C 7053  11.976   2.138   4.371 -1.1811  0.4304 -0.5102
   52MOL0     C 7054  11.852   2.130   4.265 -0.2376 -0.3034 -0.3812
   52MOL0     N 7055  11.757   2.241   4.283  0.0461  0.2666 -0.2675
   52MOL0     C 7056  11.786   2.381   4.284  0.2423  0.5947 -0.0760
   52MOL0     C 7057  11.663   2.441   4.299  0.1895 -0.0379  0.4828
   52MOL0     C 7058  11.634   2.590   4.301 -0.2752 -0.7237  0.4212
   52MOL0     C 7059  11.763   2.675   4.310  0.4162 -0.0498 -0.0862
   52MOL0     C 7060  11.716   2.820   4.334 -0.7872 -0.3975 -0.4014
   52MOL0     C 7061  11.822   2.938   4.323  0.4290  1.0723  0.3645
   52MOL0     O 7062  11.871   2.937   4.183 -0.4325 -0.0150 -0.1297
   52MOL0     C 7063  11.991   3.012   4.167 -0.3960  0.2358  0.5321
   52MOL0     C 7064  12.045   3.100   4.265  0.1584 -1.3454  0.1753
   52MOL0     C 7065  12.167   3.164   4.246  0.7428  1.0290 -0.2577
   52MOL0     C 7066  12.223   3.252   4.357  0.4336  0.4809 -0.5691
   52MOL0     C 7067  12.229   3.148   4.120  0.3860  0.1292 -0.0893
   52MOL0     C 7068  12.354   3.207   4.093  0.7260 -0.3933 -0.6977
   52MOL0     O 7069  12.392   3.214   3.962  0.2235  0.4030 -0.1755
   52MOL0     C 7070  12.496   3.290   3.916  0.3894 -0.3930 -0.0325
   52MOL0     C 7071  12.530   3.417   3.959  0.1608 -0.3985 -0.2250
   52MOL0     C 7072  12.648   3.477   3.906 -0.2506  0.0144  0.0764
   52MOL0     C 7073  12.730   3.407   3.820 -0.9375  0.0988 -0.3060
   52MOL0     O 7074  12.843   3.466   3.768  0.3808  0.6235 -0.7347
   52MOL0     C 7075  12.827   3.606   3.722 -0.5697 -1.1204 -0.2651
   52MOL0     C 7076  12.907   3.643   3.602  0.2614  0.6329  0.2204
   52MOL0     C 7077  12.887   3.533   3.494  0.0143 -0.7971 -0.1041
   52MOL0     C 7078  12.991   3.554   3.381 -0.7619  0.8917 -0.1271
   52MOL0     C 7079  12.998   3.445   3.268  0.0871  0.6688  0.4287
   52MOL0     C 7080  13.128   3.466   3.182  0.5798  0.5454 -0.8938
   52MOL0     C 7081  13.152   3.593   3.099 -0.0562 -0.7837 -0.8058
   52MOL0     C 7082  13.265   3.564   3.004 -0.0637  0.1890  0.1477
   52MOL0    Cl 7083  13.420   3.519   3.084  0.0539  0.2565 -0.2600
   52MOL0     C 7084  12.688   3.282   3.770  0.5874  0.1345  0.1522
   52MOL0     C 7085  12.569   3.217   3.817  0.4963 -0.6712  0.4604
   52MOL0     O 7086  12.432   3.233   4.183 -0.5479 -0.5226 -0.1952
   52MOL0     C 7087  12.182   3.054   4.025  0.7259  0.3355  0.3305
   52MOL0     C 7088  12.056   2.987   4.049  0.2544 -0.4184  0.0824
   52MOL0     N 7089  11.565   2.342   4.307  0.3839  0.2856 -0.2758
   52MOL0     N 7090  11.625   2.231   4.297  0.7203  0.7189 -0.4360
   52MOL0     C 7091  11.392   1.960   4.859  0.2676  0.0642  0.3598
   52MOL0     C 7092  11.255   1.931   4.849  0.2277  0.4163  0.4497
   52MOL0     C 7093  10.863   1.660   4.843 -0.5022 -0.7984  0.2862
   52MOL0     C 7094  10.817   1.524   4.863  0.6088 -0.2178  0.3554
   52MOL0     C 7095  10.700   1.476   4.803 -0.0237  0.4297 -0.1768
   52MOL0     C 7096  10.620   1.559   4.723 -0.8263 -0.7100  0.4213
   52MOL0     O 7097  10.497   1.520   4.678  0.7870  0.0512 -0.2598
   52MOL0     C 7098  10.443   1.397   4.720 -0.4525  0.6130 -0.1478
   52MOL0     C 7099  10.299   1.386   4.678 -0.4718  0.1965 -0.4045
   52MOL0     C 7100  10.295   1.352   4.529 -0.4086  0.2229 -0.2011
   52MOL0     C 7101  10.144   1.349   4.494 -0.4517 -0.2514  0.4253
   52MOL0     C 7102  10.112   1.276   4.368 -0.0547 -0.2418 -0.4191
   52MOL0     C 7103  10.109   1.213   4.261  0.2270 -1.1577 -0.0334
   52MOL0     C 7104  10.664   1.691   4.707  0.4391  0.1802  0.1175
   52MOL0     C 7105  10.782   1.743   4.758 -0.1747  0.0468 -0.7294
   52MOL0     C 7106  10.807   1.882   4.732 -0.1698 -0.0557  0.0328
   52MOL0     H 7107  11.238   1.603   4.863  0.8725 -0.3157  0.8569
   52MOL0     H 7108  11.486   1.627   4.878 -0.1748 -0.7677  1.2719
   52MOL0     H 7109  11.678   2.053   4.940 -2.3126  1.2569 -1.2867
   52MOL0     H 7110  11.613   2.038   4.778  0.0387  0.6600 -1.2636
   52MOL0     H 7111  11.856   2.041   4.770  1.0843 -1.6036 -2.1093
   52MOL0     H 7112  11.874   1.915   4.886  0.8168  3.1338 -0.5193
   52MOL0     H 7113  11.785   1.737   4.727  0.8411 -1.4184 -2.0998
   52MOL0     H 7114  11.732   1.861   4.623  0.2446  3.4366  0.7154
   52MOL0     H 7115  12.040   1.837   4.653  0.8479  0.4113 -0.4000
   52MOL0     H 7116  11.950   1.718   4.592 -2.3409 -0.8377  2.6860
   52MOL0     H 7117  11.849   1.858   4.423  2.2283 -3.2933 -1.0323
   52MOL0     H 7118  12.023   1.857   4.414 -0.0417 -0.4882 -0.0370
   52MOL0     H 7119  11.856   2.089   4.547  2.2828  1.5242  2.5299
   52MOL0     H 7120  12.019   2.054   4.576 -0.3528 -3.9103  1.3364
   52MOL0     H 7121  12.059   2.105   4.307  1.2417  0.8981  2.1935
   52MOL0     H 7122  11.991   2.245   4.383  0.5921  0.3559 -1.5816
   52MOL0     H 7123  11.895   2.113   4.166 -0.1112 -1.7300 -0.1076
   52MOL0     H 7124  11.792   2.041   4.288  2.1389 -2.0120 -0.4488
   52MOL0     H 7125  11.887   2.421   4.277  1.0601 -0.9801  1.6994
   52MOL0     H 7126  11.565   2.604   4.385  2.9164 -0.5156  3.2448
   52MOL0     H 7127  11.596   2.612   4.201  0.5952  2.3340  0.6631
   52MOL0     H 7128  11.836   2.642   4.384  1.9814 -0.0345 -1.5582
   52MOL0     H 7129  11.818   2.670   4.216 -0.7442 -0.7264 -0.7496
   52MOL0     H 7130  11.631   2.834   4.266 -1.9080 -2.1845  0.5424
   52MOL0     H 7131  11.675   2.836   4.434  0.4784  1.3915 -0.1028
   52MOL0     H 7132  11.785   3.032   4.364  1.5774  0.8208  2.1164
   52MOL0     H 7133  11.900   2.893   4.386 -0.5998  0.1594  1.0319
   52MOL0     H 7134  11.986   3.101   4.356  0.8798  0.3204  0.6693
   52MOL0     H 7135  12.300   3.195   4.409 -0.2468  0.4090  0.3870
   52MOL0     H 7136  12.138   3.289   4.415 -0.3218 -2.2484  0.2337
   52MOL0     H 7137  12.271   3.342   4.318 -0.9376  1.6105  0.2514
   52MOL0     H 7138  12.468   3.467   4.034 -2.7191 -0.4549 -2.3629
   52MOL0     H 7139  12.679   3.575   3.941  1.9372 -0.6217  0.0463
   52MOL0     H 7140  12.721   3.625   3.703 -0.6214 -2.3520 -1.3727
   52MOL0     H 7141  12.863   3.666   3.806 -0.7007 -1.0972 -0.2257
   52MOL0     H 7142  12.893   3.745   3.567  2.4021  0.6085 -0.8833
   52MOL0     H 7143  13.011   3.636   3.636  0.4376 -1.3190 -0.5552
   52MOL0     H 7144  12.790   3.547   3.447  0.5420 -2.4112 -1.7771
   52MOL0     H 7145  12.892   3.429   3.528 -1.4549 -1.4286 -1.7097
   52MOL0     H 7146  13.091   3.556   3.426  0.6319  3.8481 -2.9407
   52MOL0     H 7147  12.975   3.649   3.330 -0.6646  0.5335 -0.8393
   52MOL0     H 7148  13.002   3.344   3.310  1.8167 -0.4579 -2.1214
   52MOL0     H 7149  12.913   3.445   3.199  1.5491 -3.1776 -1.6889
   52MOL0     H 7150  13.132   3.381   3.113  2.1926 -0.6089  0.5507
   52MOL0     H 7151  13.208   3.447   3.254 -0.0611  1.8410  0.2035
   52MOL0     H 7152  13.174   3.681   3.160  0.8990 -1.8020  0.3986
   52MOL0     H 7153  13.058   3.616   3.049 -0.4142  4.0955  1.5651
   52MOL0     H 7154  13.284   3.652   2.943 -0.3324  0.3663  0.3157
   52MOL0     H 7155  13.237   3.484   2.936  1.3014  1.1771 -1.6609
   52MOL0     H 7156  12.757   3.231   3.704  0.1964 -0.2799  0.0589
   52MOL0     H 7157  12.533   3.122   3.779  0.5914 -0.8939  0.9216
   52MOL0     H 7158  12.225   3.027   3.929 -0.5751 -0.3946 -0.0776
   52MOL0     H 7159  12.009   2.920   3.977 -0.2450  0.6879 -0.6457
   52MOL0     H 7160  11.426   2.063   4.851 -3.2694  1.3616  0.4730
   52MOL0     H 7161  11.183   2.012   4.854 -3.3735 -2.5506  0.8735
   52MOL0     H 7162  10.869   1.451   4.925 -2.3208 -2.2828  0.6014
   52MOL0     H 7163  10.657   1.379   4.827 -3.5341  1.1639 -2.5854
   52MOL0     H 7164  10.499   1.323   4.662  1.9498  1.9891  0.2908
   52MOL0     H 7165  10.448   1.385   4.828  2.2562  0.6985 -0.2057
   52MOL0     H 7166  10.251   1.482   4.699  0.6948  1.1011 -1.6900
   52MOL0     H 7167  10.255   1.311   4.744  1.7873 -0.0790  0.8646
   52MOL0     H 7168  10.351   1.426   4.472  1.5790  0.1106  1.4970
   52MOL0     H 7169  10.334   1.251   4.516  0.1168 -0.0358  2.6941
   52MOL0     H 7170  10.100   1.449   4.495  0.7031  0.2883 -0.5385
   52MOL0     H 7171  10.089   1.295   4.571 -0.8799 -1.0192 -0.4016
   52MOL0     H 7172  10.113   1.162   4.167  2.9246  2.5201 -2.1893
   52MOL0     H 7173  10.591   1.752   4.654 -1.2403  0.7914  2.9008
   52MOL0     H 7174  10.858   1.888   4.635  0.8438 -2.7281  0.3312
   52MOL0     H 7175  10.714   1.939   4.723 -1.5720 -2.4686 -2.3184
   52MOL0     H 7176  10.866   1.922   4.815  0.6929  0.0763 -0.6328
   53MOL0     O 7177   0.944   3.399  10.667 -0.5254  0.4316 -0.0693
   53MOL0     C 7178   0.858   3.483  10.689 -0.1359 -0.5059  0.5705
   53MOL0     O 7179   0.876   3.589  10.760 -0.3534  0.4447 -0.4367
   53MOL0     C 7180   0.992   3.621  10.823 -0.1278  0.0113 -0.5043
   53MOL0     C 7181   1.120   3.617  10.757 -0.2463  0.0075 -0.2286
   53MOL0     C 7182   1.237   3.641  10.824 -1.0266 -0.4282  0.1809
   53MOL0     C 7183   1.232   3.687  10.957  0.4133 -0.1249  0.0832
   53MOL0     O 7184   1.344   3.703  11.025 -0.0527  0.2178 -0.6128
   53MOL0     C 7185   1.456   3.778  10.967 -0.4766  0.3081  0.0870
   53MOL0     C 7186   1.441   3.925  10.973 -0.4734 -1.3406 -0.5039
   53MOL0     C 7187   1.558   3.999  10.912  0.2094  0.7667 -0.1150
   53MOL0     C 7188   1.580   4.144  10.963 -0.2013  0.1310  0.3939
   53MOL0     C 7189   1.735   4.165  10.949  0.0886  0.1017  0.1344
   53MOL0     C 7190   1.780   4.316  10.959 -0.2807  0.3230 -0.6163
   53MOL0     C 7191   1.932   4.327  10.944  0.1712  0.4008  0.1519
   53MOL0     C 7192   1.993   4.465  10.981  1.0817  0.0349  0.0347
   53MOL0     N 7193   2.136   4.454  10.995 -0.4625  0.7696  0.1537
   53MOL0     C 7194   2.212   4.470  11.110  0.2218 -0.3273 -1.2726
   53MOL0     C 7195   2.343   4.469  11.073 -0.5693  0.4946  1.1115
   53MOL0     C 7196   2.468   4.478  11.152  0.2694  0.2279  0.0924
   53MOL0     C 7197   2.528   4.613  11.109  0.6778  0.9172 -0.3999
   53MOL0     C 7198   2.672   4.627  11.175 -0.0998 -0.3450  0.2363
   53MOL0     C 7199   2.724   4.768  11.155 -0.1790 -1.1092  0.9214
   53MOL0     O 7200   2.742   4.810  11.016  0.0530 -0.2690  0.2966
   53MOL0     C 7201   2.866   4.790  10.962  0.5282 -0.3955 -0.0968
   53MOL0     C 7202   2.889   4.859  10.844  0.2580  0.2234  0.0447
   53MOL0     C 7203   3.014   4.851  10.781  0.3132  0.9634  0.4138
   53MOL0     C 7204   3.034   4.935  10.658  0.5903  0.8560 -0.2802
   53MOL0     C 7205   3.126   4.787  10.836  0.5408 -0.0014  0.8196
   53MOL0     C 7206   3.260   4.770  10.771  0.0178 -0.1130  0.4308
   53MOL0     O 7207   3.374   4.760  10.852 -0.4330 -0.1025  0.5212
   53MOL0     C 7208   3.499   4.745  10.800  0.4226 -0.5469 -0.2228
   53MOL0     C 7209   3.611   4.816  10.847 -0.2557 -0.5489 -0.4373
   53MOL0     C 7210   3.733   4.795  10.786 -0.3171  0.1554  0.3529
   53MOL0     C 7211   3.759   4.710  10.675 -0.0161 -0.2865 -0.5082
   53MOL0     O 7212   3.876   4.713  10.600 -0.0611  0.3144 -0.7813
   53MOL0     C 7213   3.925   4.585  10.567 -0.4189  0.1436  0.0991
   53MOL0     C 7214   4.065   4.574  10.507 -0.4922  0.1615  0.4208
   53MOL0     C 7215   4.176   4.610  10.611 -0.2084  0.0101  0.2828
   53MOL0     C 7216   4.316   4.586  10.549 -0.0416  0.7092  0.1766
   53MOL0     C 7217   4.435   4.601  10.635 -0.4180 -0.7664  0.1460
   53MOL0     C 7218   4.561   4.575  10.557  0.1045 -0.3565  0.2129
   53MOL0     C 7219   4.689   4.592  10.648 -0.0812 -0.2810 -0.1224
   53MOL0     C 7220   4.822   4.559  10.568  0.3638 -0.8687 -0.3998
   53MOL0    Cl 7221   4.841   4.389  10.543  0.0118  0.1558  0.2722
   53MOL0     C 7222   3.650   4.632  10.644 -0.1523  0.5094  0.2056
   53MOL0     C 7223   3.527   4.644  10.700  0.5536 -0.7502 -0.1778
   53MOL0     O 7224   3.266   4.766  10.644  0.1958 -0.0569  0.1265
   53MOL0     C 7225   3.104   4.716  10.954  0.6096  0.2416  0.5319
   53MOL0     C 7226   2.973   4.715  11.021 -0.2697 -0.4241  0.1161
   53MOL0     N 7227   2.339   4.442  10.924  1.0655  0.4884 -0.5739
   53MOL0     N 7228   2.225   4.429  10.888 -0.4423  0.1298 -0.8394
   53MOL0     C 7229   1.104   3.697  11.026 -0.5262 -0.5001 -0.4441
   53MOL0     C 7230   0.985   3.650  10.962 -0.6429 -0.4647  0.1085
   53MOL0     C 7231   0.720   3.439  10.647  0.4413  0.7192 -0.7106
   53MOL0     C 7232   0.701   3.319  10.581 -0.1036 -0.2197  0.1155
   53MOL0     C 7233   0.570   3.277  10.545  0.0216 -0.1297 -1.2269
   53MOL0     C 7234   0.453   3.351  10.578 -0.6448 -0.5766 -1.2993
   53MOL0     O 7235   0.338   3.303  10.523  0.6257  0.4751  0.2094
   53MOL0     C 7236   0.221   3.378  10.560 -0.4765 -1.0302 -0.2740
   53MOL0     C 7237   0.102   3.304  10.498 -0.1702 -0.0528  0.5949
   53MOL0     C 7238  -0.038   3.362  10.532 -0.3076  0.0847 -0.6778
   53MOL0     C 7239  -0.150   3.262  10.524  0.0459  0.7331  0.0272
   53MOL0     C 7240  -0.277   3.328  10.537  0.4156 -0.7215 -0.2111
   53MOL0     C 7241  -0.386   3.374  10.503  0.4862 -0.4152 -0.4843
   53MOL0     C 7242   0.483   3.473  10.651 -0.1294  1.2322 -0.2063
   53MOL0     C 7243   0.607   3.523  10.685 -0.9386 -0.2097  0.2128
   53MOL0     C 7244   0.619   3.648  10.761  0.9343 -0.3469 -0.5369
   53MOL0     H 7245   1.135   3.596  10.651 -1.1698  1.6332 -0.7147
   53MOL0     H 7246   1.331   3.634  10.771 -0.8651  0.0217  0.4067
   53MOL0     H 7247   1.486   3.748  10.867 -0.3325  0.0168  0.2175
   53MOL0     H 7248   1.543   3.761  11.030 -0.8598 -1.5617  0.1684
   53MOL0     H 7249   1.351   3.954  10.919 -0.0743 -0.5638 -0.7751
   53MOL0     H 7250   1.429   3.957  11.077 -3.5297 -1.5208 -0.7333
   53MOL0     H 7251   1.646   3.941  10.940 -0.8017 -0.3809  0.8313
   53MOL0     H 7252   1.553   3.998  10.802 -4.0395  0.2718 -0.0925
   53MOL0     H 7253   1.531   4.213  10.894 -1.1087 -0.5716  0.3279
   53MOL0     H 7254   1.547   4.166  11.064 -1.4301 -1.7943  0.4706
   53MOL0     H 7255   1.763   4.126  10.851 -0.5830 -4.5608  1.5097
   53MOL0     H 7256   1.780   4.090  11.016 -0.9429 -1.5738 -0.9719
   53MOL0     H 7257   1.732   4.381  10.885 -0.4246 -0.2351 -1.0169
   53MOL0     H 7258   1.761   4.352  11.061  1.8807 -1.3841  0.4622
   53MOL0     H 7259   1.965   4.305  10.842  2.3536  3.1417  0.1280
   53MOL0     H 7260   1.977   4.254  11.012 -1.4771 -0.0908  0.7547
   53MOL0     H 7261   1.980   4.535  10.898 -1.5510  1.3469  1.4264
   53MOL0     H 7262   1.941   4.516  11.063  0.6519  0.9596 -0.7941
   53MOL0     H 7263   2.167   4.483  11.208  0.5288  0.7053 -1.2557
   53MOL0     H 7264   2.525   4.387  11.135 -1.6018 -0.9580 -0.2011
   53MOL0     H 7265   2.444   4.485  11.258  0.1135 -1.7733  0.2343
   53MOL0     H 7266   2.544   4.617  11.001  2.4637 -2.2247 -0.3829
   53MOL0     H 7267   2.466   4.693  11.152  0.2432 -1.5258  4.1456
   53MOL0     H 7268   2.664   4.606  11.282  1.6091 -0.4378  0.3776
   53MOL0     H 7269   2.745   4.558  11.132  1.8291 -0.4744  3.4174
   53MOL0     H 7270   2.658   4.829  11.217  0.1950 -0.6943  0.9183
   53MOL0     H 7271   2.819   4.783  11.206 -0.1628 -0.4779  0.7170
   53MOL0     H 7272   2.813   4.916  10.791  2.7360  2.1327 -1.6864
   53MOL0     H 7273   3.043   4.872  10.570 -1.4203 -2.9010  1.9697
   53MOL0     H 7274   3.126   4.990  10.681  1.5022 -0.3403 -0.9693
   53MOL0     H 7275   2.954   5.009  10.656  0.7307  0.9844 -1.2788
   53MOL0     H 7276   3.606   4.881  10.934  3.1773 -1.0669  0.3103
   53MOL0     H 7277   3.816   4.858  10.816 -2.3257  2.8549  0.5786
   53MOL0     H 7278   3.932   4.529  10.661  2.7419  1.3292  0.6983
   53MOL0     H 7279   3.860   4.534  10.496  0.7318 -0.7906 -0.3219
   53MOL0     H 7280   4.081   4.470  10.477 -1.0788 -0.2754  1.5767
   53MOL0     H 7281   4.081   4.646  10.426 -0.7866 -2.7876 -2.4325
   53MOL0     H 7282   4.157   4.540  10.693 -0.5289  0.0851  0.2730
   53MOL0     H 7283   4.164   4.710  10.655 -2.2765 -0.6962  1.4464
   53MOL0     H 7284   4.327   4.666  10.476  0.0924  0.8845  0.3912
   53MOL0     H 7285   4.323   4.492  10.493  1.9473  1.3220 -0.7031
   53MOL0     H 7286   4.449   4.704  10.670  0.2078 -0.6736 -0.3598
   53MOL0     H 7287   4.435   4.527  10.715 -2.8968  0.6302  1.5658
   53MOL0     H 7288   4.577   4.644  10.474  1.3286  1.1657  1.6338
   53MOL0     H 7289   4.553   4.474  10.518  2.5244  0.1119 -1.7107
   53MOL0     H 7290   4.678   4.524  10.732  2.4983  0.9049  1.2708
   53MOL0     H 7291   4.696   4.695  10.685  0.8128 -1.3128  2.8242
   53MOL0     H 7292   4.904   4.605  10.625 -1.5345  1.1615  0.8450
   53MOL0     H 7293   4.832   4.615  10.474 -0.9201 -0.7806 -0.5005
   53MOL0     H 7294   3.660   4.552  10.571  0.0614 -1.7415  2.5215
   53MOL0     H 7295   3.443   4.586  10.665 -0.1766  0.3565 -0.3005
   53MOL0     H 7296   3.193   4.659  10.978  1.6928 -0.0744 -3.4425
   53MOL0     H 7297   2.962   4.663  11.115  0.7114 -0.2527  0.3336
   53MOL0     H 7298   1.103   3.725  11.131  1.0045 -1.4448 -0.1375
   53MOL0     H 7299   0.891   3.654  11.017  0.5656  0.1077  2.2402
   53MOL0     H 7300   0.788   3.255  10.563 -1.1080 -1.6168  0.0795
   53MOL0     H 7301   0.543   3.178  10.510 -2.4815 -0.0779  0.3234
   53MOL0     H 7302   0.215   3.401  10.667  1.5509 -0.7361 -0.1884
   53MOL0     H 7303   0.235   3.474  10.509 -0.3753  0.2906  2.0975
   53MOL0     H 7304   0.100   3.200  10.530 -2.6548 -0.4352 -0.5380
   53MOL0     H 7305   0.098   3.306  10.388 -0.2073  5.0213  0.4563
   53MOL0     H 7306  -0.029   3.416  10.626 -1.0578 -0.7551 -0.0978
   53MOL0     H 7307  -0.063   3.439  10.460  3.5298  2.6868  0.4483
   53MOL0     H 7308  -0.143   3.190  10.606  1.8550 -0.0055 -0.7273
   53MOL0     H 7309  -0.142   3.205  10.431  0.4425 -0.0608  0.5286
   53MOL0     H 7310  -0.484   3.412  10.484  0.6798 -0.2058 -1.0857
   53MOL0     H 7311   0.395   3.532  10.677  0.1178  0.2940  3.2829
   53MOL0     H 7312   0.526   3.701  10.782  2.9513  2.6412  1.6468
   53MOL0     H 7313   0.662   3.640  10.862 -0.8707  2.5896  0.5600
   53MOL0     H 7314   0.673   3.727  10.708 -0.8645  1.1893 -0.1804
   54MOL0     O 7315   6.939   2.022   0.381 -0.8301 -0.3411 -0.7508
   54MOL0     C 7316   6.967   2.018   0.263 -1.1491  0.1871 -0.4642
   54MOL0     O 7317   7.097   2.010   0.213  0.4266 -0.3172 -0.8711
   54MOL0     C 7318   7.210   2.011   0.296 -0.0568  0.2633  0.4766
   54MOL0     C 7319   7.243   2.095   0.401  0.1349  0.2449 -0.4136
   54MOL0     C 7320   7.368   2.079   0.469 -0.4382  0.1051  0.0060
   54MOL0     C 7321   7.465   1.991   0.420  0.5924 -0.1837 -0.1021
   54MOL0     O 7322   7.587   1.996   0.485  0.0452 -0.8388  0.2352
   54MOL0     C 7323   7.695   1.937   0.418  0.2631 -0.4139 -0.1789
   54MOL0     C 7324   7.827   1.978   0.473  0.4647 -0.0334 -0.1515
   54MOL0     C 7325   7.931   1.888   0.396  0.1235 -0.0118  0.2833
   54MOL0     C 7326   8.068   1.911   0.454  0.2235  0.0898  0.7184
   54MOL0     C 7327   8.169   1.803   0.422 -0.5320 -0.5269  0.8592
   54MOL0     C 7328   8.200   1.798   0.275 -0.1454  0.2133 -0.5126
   54MOL0     C 7329   8.307   1.692   0.256  0.4356 -0.3020  0.3743
   54MOL0     C 7330   8.452   1.729   0.300 -0.4065  0.0826  0.2729
   54MOL0     N 7331   8.518   1.841   0.224  0.6386  0.3085 -0.8161
   54MOL0     C 7332   8.519   1.978   0.257 -0.2827  0.3399 -0.5206
   54MOL0     C 7333   8.610   2.034   0.168  0.1142 -0.4263  0.5608
   54MOL0     C 7334   8.648   2.181   0.165  0.1842 -0.7237 -0.7236
   54MOL0     C 7335   8.594   2.263   0.051  0.0068  0.1647 -0.4220
   54MOL0     C 7336   8.616   2.411   0.063 -0.5915  0.6378 -0.8494
   54MOL0     C 7337   8.772   2.445   0.072 -0.7159 -0.7696 -0.0515
   54MOL0     O 7338   8.827   2.445   0.207 -0.3503 -0.5090 -0.3999
   54MOL0     C 7339   8.958   2.459   0.217 -0.4848  1.0170  0.3406
   54MOL0     C 7340   9.046   2.501   0.118  1.2439 -0.8657  0.5009
   54MOL0     C 7341   9.171   2.535   0.150 -0.7910  0.4632  0.4001
   54MOL0     C 7342   9.264   2.592   0.037 -0.1987  1.0708 -0.0258
   54MOL0     C 7343   9.219   2.509   0.280 -0.2821 -0.3048  0.0711
   54MOL0     C 7344   9.356   2.558   0.327  0.6248 -0.8840  0.0607
   54MOL0     O 7345   9.368   2.600   0.460  0.1829 -0.4094  0.0775
   54MOL0     C 7346   9.473   2.677   0.496 -0.3473 -0.3236  0.5633
   54MOL0     C 7347   9.523   2.789   0.425 -0.7138  0.1268 -0.0155
   54MOL0     C 7348   9.634   2.855   0.481  0.5302  0.4293  0.7738
   54MOL0     C 7349   9.681   2.825   0.606  0.1908 -0.1079  0.2208
   54MOL0     O 7350   9.788   2.904   0.636 -0.1502 -0.3373 -0.6443
   54MOL0     C 7351   9.869   2.868   0.750  0.2101 -0.1492 -0.3369
   54MOL0     C 7352   9.993   2.959   0.727 -0.6366 -0.6279 -0.7321
   54MOL0     C 7353  10.067   2.978   0.861  0.1571  0.7748 -0.0597
   54MOL0     C 7354  10.214   3.001   0.855 -0.3303 -0.2634  0.3740
   54MOL0     C 7355  10.273   3.035   0.994  0.3986  0.4489  0.0516
   54MOL0     C 7356  10.426   3.028   0.968 -0.1548  0.4577 -0.0781
   54MOL0     C 7357  10.512   3.053   1.100 -0.8768  0.4177 -0.8494
   54MOL0     C 7358  10.667   3.029   1.073  1.0054  0.0955  0.2643
   54MOL0    Cl 7359  10.752   3.129   1.191  0.2433 -0.0999  0.1417
   54MOL0     C 7360   9.627   2.719   0.680  0.0453  0.6373 -0.8053
   54MOL0     C 7361   9.523   2.642   0.621 -0.0447 -0.3127 -0.6067
   54MOL0     O 7362   9.449   2.562   0.249  0.3256 -0.3903  0.2319
   54MOL0     C 7363   9.139   2.456   0.372  0.8604  0.1097  0.1016
   54MOL0     C 7364   9.017   2.418   0.341  0.5034  0.2910 -0.2492
   54MOL0     N 7365   8.647   1.939   0.078  0.4984 -0.2594 -0.0054
   54MOL0     N 7366   8.582   1.829   0.104  0.5531 -0.6191 -0.0339
   54MOL0     C 7367   7.425   1.897   0.322  0.6722 -0.4255 -0.2979
   54MOL0     C 7368   7.300   1.910   0.260  0.3834 -0.4500 -0.2802
   54MOL0     C 7369   6.859   2.045   0.164  0.3152  0.1557 -0.4351
   54MOL0     C 7370   6.740   1.989   0.185 -0.0442  0.3491  0.3992
   54MOL0     C 7371   6.632   2.001   0.091  0.0930  0.6176 -0.1425
   54MOL0     C 7372   6.657   2.060  -0.031 -0.4782  0.3735 -0.7675
   54MOL0     O 7373   6.573   2.069  -0.134  0.4109  1.2779  0.6966
   54MOL0     C 7374   6.438   2.021  -0.130  0.1721 -0.5095 -0.7458
   54MOL0     C 7375   6.348   2.119  -0.208 -0.6576 -0.0945 -0.3268
   54MOL0     C 7376   6.347   2.253  -0.145 -0.8716 -0.6018 -0.1445
   54MOL0     C 7377   6.274   2.372  -0.216  0.0764  0.7207 -0.1935
   54MOL0     C 7378   6.133   2.346  -0.246  0.1712 -0.6539  0.0850
   54MOL0     C 7379   6.022   2.302  -0.270  0.0564  0.3900 -0.5483
   54MOL0     C 7380   6.776   2.129  -0.049 -0.4096 -0.4924  0.5972
   54MOL0     C 7381   6.877   2.128   0.054  0.2844  0.1954 -0.3439
   54MOL0     C 7382   7.006   2.204   0.019 -0.2110  0.0254  0.0895
   54MOL0     H 7383   7.167   2.169   0.427 -1.1453 -0.4655 -1.9382
   54MOL0     H 7384   7.402   2.141   0.551  2.9947 -1.5169 -0.0515
   54MOL0     H 7385   7.688   1.978   0.317  1.3447 -0.1638 -0.1694
   54MOL0     H 7386   7.689   1.828   0.411  2.1503 -0.5887  0.3482
   54MOL0     H 7387   7.838   2.084   0.447 -1.4512  0.9937  2.6684
   54MOL0     H 7388   7.819   1.981   0.582 -1.6110  0.5568 -0.2839
   54MOL0     H 7389   7.896   1.785   0.402  0.8492 -0.1869  2.3821
   54MOL0     H 7390   7.938   1.922   0.292  0.3742  1.1143  0.6515
   54MOL0     H 7391   8.108   2.011   0.434 -0.3010  0.2613  0.4931
   54MOL0     H 7392   8.053   1.909   0.562 -0.5836  1.1199  0.6369
   54MOL0     H 7393   8.110   1.715   0.447 -0.9450 -0.5199 -0.0671
   54MOL0     H 7394   8.262   1.800   0.480  1.8081 -1.0082 -2.6621
   54MOL0     H 7395   8.104   1.767   0.232  1.1532  0.4031 -3.8895
   54MOL0     H 7396   8.222   1.896   0.231 -2.8851  1.6377  1.0212
   54MOL0     H 7397   8.303   1.665   0.150 -1.2725 -0.5495  0.4784
   54MOL0     H 7398   8.273   1.602   0.306  1.8695 -1.7380 -1.1230
   54MOL0     H 7399   8.455   1.738   0.409  0.2101  0.9632  0.2002
   54MOL0     H 7400   8.509   1.637   0.284 -2.9399 -1.6488  0.7646
   54MOL0     H 7401   8.491   2.038   0.343  3.6109  3.2111 -0.9919
   54MOL0     H 7402   8.755   2.169   0.141  1.4947  3.3327  2.0349
   54MOL0     H 7403   8.634   2.235   0.259 -0.2526 -1.4214 -0.3750
   54MOL0     H 7404   8.626   2.225  -0.047  1.3450  1.2853 -0.4541
   54MOL0     H 7405   8.487   2.240   0.053  0.0627 -0.3326 -1.8195
   54MOL0     H 7406   8.575   2.450  -0.031  0.9376 -0.6733 -2.1283
   54MOL0     H 7407   8.567   2.454   0.150  0.6064  1.2524 -0.4581
   54MOL0     H 7408   8.819   2.364   0.016 -2.1626 -1.3737 -0.4197
   54MOL0     H 7409   8.795   2.535   0.013  1.6950 -0.7338  0.8296
   54MOL0     H 7410   9.026   2.534   0.017 -0.3394  1.2046  1.4074
   54MOL0     H 7411   9.199   2.652  -0.027 -0.6649  1.0659  0.4357
   54MOL0     H 7412   9.292   2.504  -0.023 -1.4803  0.6818 -0.0873
   54MOL0     H 7413   9.341   2.667   0.056 -2.3954  3.5587 -0.3604
   54MOL0     H 7414   9.505   2.803   0.319  2.4410 -1.4976 -0.8778
   54MOL0     H 7415   9.681   2.934   0.423 -0.0640  0.5371  0.4264
   54MOL0     H 7416   9.809   2.902   0.835 -0.5232 -0.8824 -0.5458
   54MOL0     H 7417   9.901   2.764   0.761  2.7436  0.7239  1.3239
   54MOL0     H 7418  10.047   2.901   0.651 -0.9097  0.6196 -1.9148
   54MOL0     H 7419   9.974   3.059   0.687  2.4969 -0.7427 -2.8888
   54MOL0     H 7420  10.043   2.888   0.919  2.8483  0.4859  0.7301
   54MOL0     H 7421  10.026   3.070   0.903 -2.4115 -0.0383 -0.6052
   54MOL0     H 7422  10.234   3.083   0.786 -1.1934  1.6827  2.3173
   54MOL0     H 7423  10.268   2.920   0.804  0.4065  1.3232 -1.4637
   54MOL0     H 7424  10.242   3.136   1.023  0.8987  0.8121 -0.6487
   54MOL0     H 7425  10.250   2.962   1.072  0.8771  0.3157  0.0751
   54MOL0     H 7426  10.467   3.098   0.895 -1.0295 -0.8308 -1.8884
   54MOL0     H 7427  10.451   2.932   0.922 -0.8861 -0.4041  1.2531
   54MOL0     H 7428  10.480   2.995   1.187 -3.4110  0.2997 -1.7683
   54MOL0     H 7429  10.500   3.159   1.124  1.9174  0.5852  0.1503
   54MOL0     H 7430  10.698   3.070   0.976 -0.3137  0.1195 -0.1673
   54MOL0     H 7431  10.684   2.921   1.074 -0.8977 -0.3652 -2.8759
   54MOL0     H 7432   9.657   2.700   0.783 -1.4743 -1.7570 -0.7126
   54MOL0     H 7433   9.481   2.564   0.682  1.7768 -0.9622 -0.1070
   54MOL0     H 7434   9.183   2.437   0.469 -0.0597 -2.2624  0.1084
   54MOL0     H 7435   8.957   2.377   0.422  0.7446 -0.8731 -0.6492
   54MOL0     H 7436   7.488   1.814   0.290 -1.2917 -3.6555  3.3466
   54MOL0     H 7437   7.260   1.838   0.190 -1.7067 -1.5119  1.8842
   54MOL0     H 7438   6.719   1.931   0.274 -2.4068  0.8135  0.2220
   54MOL0     H 7439   6.542   1.954   0.127  1.0294  1.4262  3.6369
   54MOL0     H 7440   6.429   1.923  -0.177 -1.1312 -0.9332  0.3173
   54MOL0     H 7441   6.395   2.021  -0.029 -0.4469  3.0796 -0.8558
   54MOL0     H 7442   6.245   2.083  -0.213 -1.2810  1.6337 -0.4831
   54MOL0     H 7443   6.389   2.124  -0.310 -1.3897 -3.6196 -0.9052
   54MOL0     H 7444   6.300   2.257  -0.046  0.2231  1.6874  0.3454
   54MOL0     H 7445   6.451   2.285  -0.140 -1.1413  0.1039  2.5625
   54MOL0     H 7446   6.331   2.396  -0.306  1.3187 -0.0019  0.3640
   54MOL0     H 7447   6.286   2.456  -0.147  0.3439  1.4299 -1.0881
   54MOL0     H 7448   5.926   2.254  -0.272  0.2542 -0.1182  0.7910
   54MOL0     H 7449   6.813   2.170  -0.142 -0.1250 -1.6368  0.1843
   54MOL0     H 7450   7.072   2.218   0.106 -1.9013 -1.6633  1.7550
   54MOL0     H 7451   7.063   2.143  -0.052  0.5053  0.4260  0.3081
   54MOL0     H 7452   6.970   2.294  -0.031  1.1622 -0.3006 -1.5845
   55MOL0     O 7453   5.557   2.100   1.609 -0.0377  0.3247  0.1994
   55MOL0     C 7454   5.598   1.985   1.637  0.1661 -0.5149  0.0119
   55MOL0     O 7455   5.728   1.925   1.618  0.2099  0.3174  0.5239
   55MOL0     C 7456   5.819   1.973   1.526  0.2753 -0.6179  0.4555
   55MOL0     C 7457   5.801   2.085   1.438 -0.6266 -0.2581 -0.4736
   55MOL0     C 7458   5.910   2.121   1.352  0.7439 -0.4422  0.6358
   55MOL0     C 7459   6.034   2.063   1.362  0.0904 -0.5146  0.5088
   55MOL0     O 7460   6.145   2.101   1.286  0.7852 -0.1088 -1.1313
   55MOL0     C 7461   6.131   2.194   1.182 -1.0113  0.1826 -0.0462
   55MOL0     C 7462   6.262   2.203   1.108 -0.3539 -0.0772  0.2369
   55MOL0     C 7463   6.381   2.227   1.206  0.5579  0.8641 -0.5281
   55MOL0     C 7464   6.520   2.230   1.130 -0.0989 -0.2496 -0.7639
   55MOL0     C 7465   6.638   2.252   1.231  0.1840  0.4367 -0.5780
   55MOL0     C 7466   6.789   2.243   1.174 -0.5169  0.2074  0.0958
   55MOL0     C 7467   6.900   2.275   1.278  0.2535  0.3963 -0.3166
   55MOL0     C 7468   7.030   2.212   1.224 -1.1950  1.0202 -0.4751
   55MOL0     N 7469   7.150   2.218   1.301  0.1216 -0.2311 -0.3167
   55MOL0     C 7470   7.172   2.138   1.410 -0.1763 -0.3487  0.0008
   55MOL0     C 7471   7.293   2.179   1.456  0.5690  0.2252  0.0565
   55MOL0     C 7472   7.343   2.142   1.585 -0.4725 -0.3466 -0.1798
   55MOL0     C 7473   7.468   2.045   1.582  0.5209 -0.2932  0.7994
   55MOL0     C 7474   7.453   1.909   1.655 -0.1969 -0.0799 -0.2650
   55MOL0     C 7475   7.579   1.832   1.678  0.2141  0.1181 -0.1687
   55MOL0     O 7476   7.673   1.866   1.580 -1.5294 -0.6152  0.0657
   55MOL0     C 7477   7.766   1.777   1.540  0.3383 -0.0592 -0.1832
   55MOL0     C 7478   7.827   1.688   1.627 -0.1122 -0.1362 -0.8824
   55MOL0     C 7479   7.915   1.590   1.594  0.2160 -0.3983  0.0195
   55MOL0     C 7480   7.970   1.506   1.709  0.6033  0.3968  0.0924
   55MOL0     C 7481   7.966   1.585   1.459 -0.4029 -0.7520 -0.2532
   55MOL0     C 7482   8.068   1.491   1.416  1.0679 -0.1778 -0.4478
   55MOL0     O 7483   8.180   1.505   1.480 -0.2742 -0.8094 -0.2186
   55MOL0     C 7484   8.296   1.439   1.436  1.5573 -0.2554 -0.1564
   55MOL0     C 7485   8.291   1.301   1.409 -0.8322 -0.1890  0.6139
   55MOL0     C 7486   8.407   1.238   1.361  0.1576  0.8950  0.4081
   55MOL0     C 7487   8.524   1.317   1.341 -0.3047  0.7781  0.2878
   55MOL0     O 7488   8.655   1.278   1.316  0.6361 -0.3875  0.5238
   55MOL0     C 7489   8.676   1.135   1.305 -0.6024  0.1246 -0.3039
   55MOL0     C 7490   8.836   1.109   1.297  0.5862 -0.8381  0.4942
   55MOL0     C 7491   8.905   1.138   1.432 -0.8453 -0.2837 -0.3183
   55MOL0     C 7492   8.835   1.066   1.553  0.5064  0.3256 -0.2782
   55MOL0     C 7493   8.922   1.065   1.684  0.3183  0.6816 -0.5044
   55MOL0     C 7494   9.003   1.191   1.709  0.1806 -0.2771  0.0816
   55MOL0     C 7495   9.067   1.193   1.848 -0.1777 -0.2250 -0.5839
   55MOL0     C 7496   9.148   1.319   1.867  0.1246 -0.1217  0.4548
   55MOL0    Cl 7497   9.025   1.453   1.885 -0.1115  0.1883 -0.3682
   55MOL0     C 7498   8.521   1.454   1.381  0.2732 -0.0651 -0.3863
   55MOL0     C 7499   8.406   1.520   1.426  0.7314  0.2438  0.6367
   55MOL0     O 7500   8.045   1.424   1.318 -0.3184 -0.5111 -0.0500
   55MOL0     C 7501   7.907   1.673   1.366  1.2187 -0.3697  0.8252
   55MOL0     C 7502   7.811   1.773   1.403 -0.0933  0.6632 -0.4983
   55MOL0     N 7503   7.340   2.276   1.373 -0.5519 -0.5447 -0.1277
   55MOL0     N 7504   7.255   2.304   1.280 -0.1356  0.4127 -0.2522
   55MOL0     C 7505   6.048   1.963   1.457 -0.3667 -0.1012 -0.0995
   55MOL0     C 7506   5.946   1.905   1.529 -0.7468  0.1237 -1.3614
   55MOL0     C 7507   5.500   1.892   1.702  0.9233  0.1297 -0.3455
   55MOL0     C 7508   5.536   1.771   1.748 -0.2219 -0.2182 -0.2990
   55MOL0     C 7509   5.453   1.686   1.816  0.1933 -0.3831  0.6752
   55MOL0     C 7510   5.315   1.721   1.835  0.6374 -0.6977 -0.6883
   55MOL0     O 7511   5.231   1.630   1.885 -0.8958  0.2407 -0.7891
   55MOL0     C 7512   5.144   1.668   1.997  0.5028 -0.2074  0.2217
   55MOL0     C 7513   5.219   1.645   2.127  0.2785  0.4779  0.0154
   55MOL0     C 7514   5.127   1.675   2.249 -0.6730 -0.8478 -0.1637
   55MOL0     C 7515   5.200   1.647   2.384  0.0212  0.2306  0.3296
   55MOL0     C 7516   5.096   1.634   2.494 -0.1887 -1.0224  0.4356
   55MOL0     C 7517   5.022   1.601   2.585  0.4107 -0.4419  0.4573
   55MOL0     C 7518   5.271   1.848   1.793 -0.4041 -0.3934  0.7003
   55MOL0     C 7519   5.365   1.930   1.738 -0.1926  0.1474 -0.1416
   55MOL0     C 7520   5.308   2.061   1.693  0.0740 -0.1350  0.8416
   55MOL0     H 7521   5.709   2.143   1.431  0.8364  1.9929 -2.4116
   55MOL0     H 7522   5.894   2.210   1.292 -1.1753  0.0440  1.7950
   55MOL0     H 7523   6.105   2.286   1.235 -2.0990 -1.0833  1.7336
   55MOL0     H 7524   6.049   2.172   1.113 -0.0584  0.9600 -1.4893
   55MOL0     H 7525   6.272   2.108   1.055  3.1667 -1.3361  2.8530
   55MOL0     H 7526   6.269   2.284   1.034 -1.0390 -2.7869 -3.0342
   55MOL0     H 7527   6.371   2.309   1.276 -0.9163 -1.3011  1.9925
   55MOL0     H 7528   6.387   2.145   1.278 -1.6362  1.7845  0.7794
   55MOL0     H 7529   6.528   2.141   1.067  0.9978  0.4083 -1.5750
   55MOL0     H 7530   6.536   2.320   1.070  1.9071  1.6006  2.2612
   55MOL0     H 7531   6.623   2.188   1.318 -1.7226  1.3361 -0.1956
   55MOL0     H 7532   6.620   2.353   1.268 -2.1558 -0.3398  0.6060
   55MOL0     H 7533   6.798   2.147   1.121  3.4688  1.9002 -2.7917
   55MOL0     H 7534   6.788   2.327   1.104  0.1083  1.0445  1.0652
   55MOL0     H 7535   6.861   2.229   1.369 -0.5182  0.4085 -0.6327
   55MOL0     H 7536   6.921   2.382   1.289  0.8241  0.1497  1.2131
   55MOL0     H 7537   7.015   2.106   1.203 -0.5835  1.2572 -2.3259
   55MOL0     H 7538   7.055   2.250   1.124  1.2149 -2.7266 -1.4854
   55MOL0     H 7539   7.115   2.060   1.460 -0.6583 -0.3948 -0.6037
   55MOL0     H 7540   7.258   2.116   1.649  0.8728 -0.8233  1.5230
   55MOL0     H 7541   7.364   2.242   1.625 -0.5099 -0.5061  0.2466
   55MOL0     H 7542   7.497   2.033   1.478  0.1538 -0.5040  0.7173
   55MOL0     H 7543   7.555   2.100   1.619  0.7469 -0.1944  0.1235
   55MOL0     H 7544   7.405   1.940   1.749  0.5051 -1.9585  0.7591
   55MOL0     H 7545   7.376   1.849   1.607  1.0851 -2.0727  0.0415
   55MOL0     H 7546   7.625   1.853   1.775  0.2925 -1.3336  0.1418
   55MOL0     H 7547   7.554   1.726   1.688 -2.8891  0.6279 -1.4383
   55MOL0     H 7548   7.797   1.675   1.731  2.7885 -1.1394 -0.0720
   55MOL0     H 7549   8.022   1.414   1.685 -1.6769 -0.4106 -2.2338
   55MOL0     H 7550   7.893   1.476   1.781 -1.3190  1.6831 -1.3181
   55MOL0     H 7551   8.039   1.569   1.767  0.0196 -0.2727  1.5756
   55MOL0     H 7552   8.209   1.231   1.422  1.5798 -3.0528  1.3720
   55MOL0     H 7553   8.418   1.131   1.348  0.6683  0.9564  0.2994
   55MOL0     H 7554   8.636   1.089   1.395  2.3748  2.2142  2.3100
   55MOL0     H 7555   8.629   1.091   1.216 -1.8082 -3.2895  1.8468
   55MOL0     H 7556   8.844   1.003   1.274  0.6783 -0.5885 -0.6983
   55MOL0     H 7557   8.874   1.167   1.213  1.2543  0.3734  1.5918
   55MOL0     H 7558   8.903   1.245   1.455 -0.5875 -0.1101 -1.0863
   55MOL0     H 7559   9.013   1.121   1.428 -0.3559  1.5898  2.2559
   55MOL0     H 7560   8.824   0.959   1.532 -3.2057 -0.0406  2.4309
   55MOL0     H 7561   8.731   1.097   1.567 -0.0655 -2.0560  1.2805
   55MOL0     H 7562   8.853   1.042   1.766 -0.2357  3.2279 -0.1760
   55MOL0     H 7563   8.991   0.980   1.677 -1.4110 -0.8806  0.4611
   55MOL0     H 7564   8.940   1.280   1.698  2.3196  1.0838 -2.2569
   55MOL0     H 7565   9.080   1.215   1.635  1.0884 -0.5250  0.9304
   55MOL0     H 7566   9.134   1.107   1.860  0.7510  0.5181 -0.2718
   55MOL0     H 7567   8.992   1.199   1.927  1.7181  3.0393  1.2292
   55MOL0     H 7568   9.205   1.331   1.775 -1.8997  3.3327 -0.5341
   55MOL0     H 7569   9.212   1.323   1.956  1.0572  0.9671 -0.2485
   55MOL0     H 7570   8.617   1.503   1.375  1.3400 -1.4212  3.0870
   55MOL0     H 7571   8.404   1.628   1.439 -0.7802  0.5790 -1.9198
   55MOL0     H 7572   7.921   1.661   1.259 -0.0864 -0.3620  0.6398
   55MOL0     H 7573   7.764   1.836   1.327 -1.7544  0.4343  0.2859
   55MOL0     H 7574   6.144   1.912   1.470 -1.2521 -1.7877  0.0833
   55MOL0     H 7575   5.967   1.818   1.591  0.5774  1.7176  0.5648
   55MOL0     H 7576   5.640   1.743   1.730  1.0526  4.0433 -0.6840
   55MOL0     H 7577   5.490   1.587   1.837 -0.5974 -0.3340  2.4538
   55MOL0     H 7578   5.107   1.770   1.992 -2.6774 -1.1087  2.2785
   55MOL0     H 7579   5.062   1.596   1.986 -0.7899  0.9642  1.6380
   55MOL0     H 7580   5.309   1.704   2.146  1.2237 -1.2908  1.4014
   55MOL0     H 7581   5.257   1.542   2.128 -2.7039 -0.8237  3.3229
   55MOL0     H 7582   5.089   1.777   2.241 -2.0663 -1.2091  1.3447
   55MOL0     H 7583   5.038   1.611   2.246 -0.2409 -1.5070  0.6730
   55MOL0     H 7584   5.260   1.737   2.402  2.0470 -0.9014 -0.4794
   55MOL0     H 7585   5.273   1.566   2.377  1.2880  1.3888 -0.5513
   55MOL0     H 7586   4.949   1.573   2.659  1.7318  0.0711  2.0234
   55MOL0     H 7587   5.166   1.868   1.809 -1.1077 -3.3944  0.4649
   55MOL0     H 7588   5.203   2.077   1.721 -0.2277  0.3997 -0.5253
   55MOL0     H 7589   5.359   2.148   1.734 -0.8426  0.9012 -0.1434
   55MOL0     H 7590   5.321   2.080   1.586 -1.8366  0.8204  0.7356
   56MOL0     O 7591   5.653   0.636   0.100  0.6771 -0.2376 -0.1348
   56MOL0     C 7592   5.648   0.545   0.183  0.7297 -0.1554  0.6218
   56MOL0     O 7593   5.751   0.509   0.260 -1.1126 -0.0741 -0.1308
   56MOL0     C 7594   5.876   0.561   0.260 -0.6004 -0.0273 -0.0361
   56MOL0     C 7595   5.932   0.649   0.166 -0.1295 -0.2631  0.4036
   56MOL0     C 7596   6.066   0.699   0.193  0.4975 -0.1675 -1.1049
   56MOL0     C 7597   6.146   0.651   0.305 -0.2124 -0.1232 -0.0357
   56MOL0     O 7598   6.274   0.688   0.324 -0.0854 -0.1388 -0.0738
   56MOL0     C 7599   6.332   0.783   0.240  0.0510 -0.1037  0.1940
   56MOL0     C 7600   6.481   0.799   0.262 -0.0595  0.9332 -0.2018
   56MOL0     C 7601   6.558   0.677   0.285  0.1447  0.0750 -0.7020
   56MOL0     C 7602   6.695   0.719   0.338 -0.0441  0.1721 -0.2409
   56MOL0     C 7603   6.793   0.607   0.366  0.8065 -0.8458  0.3516
   56MOL0     C 7604   6.792   0.581   0.514  0.1680 -0.1415  0.5025
   56MOL0     C 7605   6.886   0.466   0.565  0.3462 -0.7881  0.7706
   56MOL0     C 7606   7.036   0.502   0.550 -0.1337 -0.3303  0.7728
   56MOL0     N 7607   7.129   0.398   0.588 -1.2510 -0.7299  0.3616
   56MOL0     C 7608   7.120   0.274   0.553  0.7663  0.0641  0.1727
   56MOL0     C 7609   7.229   0.214   0.606 -0.2014  0.1716 -0.0434
   56MOL0     C 7610   7.254   0.072   0.593 -0.2251  0.3464 -0.1573
   56MOL0     C 7611   7.239   0.021   0.440  0.8038  0.7816  0.3738
   56MOL0     C 7612   7.308  -0.115   0.425 -0.3536 -0.1766 -0.4675
   56MOL0     C 7613   7.367  -0.134   0.287 -1.1459 -0.0277  0.8726
   56MOL0     O 7614   7.480  -0.050   0.242 -0.7404  0.2424 -0.8721
   56MOL0     C 7615   7.601  -0.084   0.294  0.5516  0.0021  0.5743
   56MOL0     C 7616   7.652  -0.004   0.398  0.3931  1.0512 -0.6784
   56MOL0     C 7617   7.783  -0.036   0.443  0.6424 -0.4845 -0.6514
   56MOL0     C 7618   7.827   0.039   0.562  0.2533  0.1367 -0.5056
   56MOL0     C 7619   7.858  -0.128   0.382  0.3944  0.2639 -0.0412
   56MOL0     C 7620   8.002  -0.163   0.413  0.7867 -1.2447  0.3497
   56MOL0     O 7621   8.072  -0.246   0.320  0.6749 -0.6055  0.3071
   56MOL0     C 7622   8.200  -0.272   0.348 -0.3825 -0.2242  0.2630
   56MOL0     C 7623   8.291  -0.278   0.234 -0.0989 -0.7158 -0.0067
   56MOL0     C 7624   8.431  -0.313   0.254  0.2843 -0.4474  0.9134
   56MOL0     C 7625   8.488  -0.339   0.381 -0.2894  0.6724 -1.2380
   56MOL0     O 7626   8.620  -0.378   0.391  0.1554  0.3119 -0.1324
   56MOL0     C 7627   8.676  -0.347   0.516  0.7685 -0.7922 -0.1915
   56MOL0     C 7628   8.825  -0.310   0.512 -1.0169  0.9320  0.4908
   56MOL0     C 7629   8.895  -0.273   0.378 -0.2645 -0.6793 -0.7050
   56MOL0     C 7630   9.047  -0.231   0.395 -0.2148  0.1965  0.6971
   56MOL0     C 7631   9.115  -0.201   0.263 -0.3579 -0.2331 -0.5319
   56MOL0     C 7632   9.270  -0.165   0.283  0.3452  0.2632  0.7763
   56MOL0     C 7633   9.340  -0.279   0.351 -0.3647  1.2952 -0.1900
   56MOL0     C 7634   9.483  -0.314   0.297 -0.4494 -0.0603  0.0952
   56MOL0    Cl 7635   9.540  -0.485   0.341  0.7081 -0.4760 -0.2033
   56MOL0     C 7636   8.390  -0.342   0.490 -0.0369  0.0819  0.3095
   56MOL0     C 7637   8.257  -0.310   0.471  0.1346 -0.2706 -0.5171
   56MOL0     O 7638   8.056  -0.109   0.513 -0.4193  0.4452  0.5251
   56MOL0     C 7639   7.798  -0.206   0.277  0.4542  0.1250 -0.8729
   56MOL0     C 7640   7.674  -0.186   0.224  0.2986 -0.8091  0.3604
   56MOL0     N 7641   7.302   0.304   0.678  0.4338  0.0339 -0.1734
   56MOL0     N 7642   7.231   0.408   0.675  0.3407 -0.4164 -0.7287
   56MOL0     C 7643   6.083   0.573   0.392  0.3088  0.2588 -0.6379
   56MOL0     C 7644   5.953   0.521   0.371  0.0835  0.1853 -0.1802
   56MOL0     C 7645   5.520   0.466   0.184  0.1775 -0.4861  0.1998
   56MOL0     C 7646   5.411   0.510   0.099 -0.5730  0.3933 -0.3901
   56MOL0     C 7647   5.282   0.452   0.092 -0.1565  0.1754  0.5183
   56MOL0     C 7648   5.263   0.334   0.157  0.0568 -0.1219 -0.1449
   56MOL0     O 7649   5.137   0.271   0.153 -0.0784 -0.2871  0.1330
   56MOL0     C 7650   5.105   0.153   0.234 -0.2118  0.7624  1.3615
   56MOL0     C 7651   5.071   0.181   0.378  0.0741  0.7052  0.8343
   56MOL0     C 7652   4.939   0.257   0.408 -0.0406 -0.2648 -0.0121
   56MOL0     C 7653   4.807   0.187   0.382  0.5967 -0.2241  0.2237
   56MOL0     C 7654   4.696   0.274   0.404 -0.2571  0.2660 -1.0223
   56MOL0     C 7655   4.626   0.366   0.424  0.4988 -0.9694 -0.2347
   56MOL0     C 7656   5.372   0.287   0.239  0.7950 -0.2361 -0.6034
   56MOL0     C 7657   5.490   0.353   0.262 -0.1278 -0.3288 -0.2324
   56MOL0     C 7658   5.598   0.285   0.353  0.3591 -0.8964  0.4235
   56MOL0     H 7659   5.896   0.675   0.067  1.9543 -0.6021 -0.5031
   56MOL0     H 7660   6.107   0.774   0.126 -1.6303  1.4937 -0.6806
   56MOL0     H 7661   6.281   0.879   0.254  1.6079  0.6882  0.6074
   56MOL0     H 7662   6.310   0.751   0.137 -1.7061 -1.4000  0.9362
   56MOL0     H 7663   6.520   0.851   0.174 -1.6565  4.0131  0.7601
   56MOL0     H 7664   6.484   0.864   0.350 -0.7456  0.8791 -0.1259
   56MOL0     H 7665   6.497   0.623   0.358 -1.7474  2.7898 -0.1188
   56MOL0     H 7666   6.579   0.624   0.191 -2.1902  1.2122 -1.9336
   56MOL0     H 7667   6.730   0.778   0.253 -0.4227 -2.3876 -2.3256
   56MOL0     H 7668   6.694   0.785   0.426  2.2008  0.9924 -0.7602
   56MOL0     H 7669   6.894   0.638   0.338  0.2163  0.5108 -0.3921
   56MOL0     H 7670   6.777   0.521   0.300 -1.9087  1.1637 -1.8682
   56MOL0     H 7671   6.820   0.675   0.561  0.1616  0.8639 -1.3979
   56MOL0     H 7672   6.691   0.556   0.549 -1.0991 -0.1445 -2.8346
   56MOL0     H 7673   6.866   0.375   0.509  0.3148 -0.2273 -0.1554
   56MOL0     H 7674   6.870   0.450   0.672 -0.8125 -0.0016  0.7272
   56MOL0     H 7675   7.055   0.514   0.443  0.0584 -1.9975  0.5954
   56MOL0     H 7676   7.061   0.594   0.603 -1.9406  2.5707 -2.9463
   56MOL0     H 7677   7.040   0.224   0.499  0.0771  0.4137  0.8550
   56MOL0     H 7678   7.182   0.021   0.658  1.8314  0.5650  2.4680
   56MOL0     H 7679   7.356   0.054   0.627  0.0473 -0.1004 -1.1541
   56MOL0     H 7680   7.138   0.011   0.397  1.4824 -1.1875 -0.9361
   56MOL0     H 7681   7.298   0.096   0.387  0.9736  1.3153  1.3217
   56MOL0     H 7682   7.402  -0.107   0.480  0.2218  0.3764 -1.4840
   56MOL0     H 7683   7.237  -0.189   0.461 -0.8705  0.0431 -1.0128
   56MOL0     H 7684   7.380  -0.240   0.266 -2.2986  0.4059 -2.7266
   56MOL0     H 7685   7.291  -0.100   0.215  1.5831  1.6220 -1.4725
   56MOL0     H 7686   7.583   0.051   0.461  0.5614  1.3564 -0.7559
   56MOL0     H 7687   7.739   0.089   0.603  0.6154  0.6287 -0.3312
   56MOL0     H 7688   7.910   0.099   0.526  0.9536 -0.3331  0.2757
   56MOL0     H 7689   7.868  -0.028   0.639 -0.2020 -0.3541 -0.6826
   56MOL0     H 7690   8.257  -0.247   0.136  2.1077  1.0898 -0.3097
   56MOL0     H 7691   8.491  -0.317   0.164  0.5829 -0.5050  1.1133
   56MOL0     H 7692   8.627  -0.259   0.560  2.3085  0.3516 -0.6854
   56MOL0     H 7693   8.660  -0.431   0.584 -0.5876 -0.1821  0.2863
   56MOL0     H 7694   8.851  -0.228   0.579  0.5788 -1.1944  2.6362
   56MOL0     H 7695   8.885  -0.389   0.559 -1.1448  0.9452  0.6778
   56MOL0     H 7696   8.852  -0.186   0.328 -1.3190 -1.9327 -2.0581
   56MOL0     H 7697   8.888  -0.364   0.318  2.2833 -0.3897 -1.5456
   56MOL0     H 7698   9.106  -0.307   0.447 -0.9043 -0.3099  0.7411
   56MOL0     H 7699   9.036  -0.140   0.455 -0.3361  1.3107 -0.9306
   56MOL0     H 7700   9.104  -0.287   0.196  1.8768 -1.5194  0.6509
   56MOL0     H 7701   9.065  -0.116   0.216 -0.9328 -0.0018  0.4856
   56MOL0     H 7702   9.271  -0.073   0.342  0.8581 -1.1779  3.1610
   56MOL0     H 7703   9.310  -0.152   0.183 -1.9945  1.9096 -0.0425
   56MOL0     H 7704   9.277  -0.368   0.344  1.0710  0.1277  1.1335
   56MOL0     H 7705   9.357  -0.268   0.458 -1.1031  2.2089 -0.1463
   56MOL0     H 7706   9.555  -0.238   0.328  0.8564 -1.4573  0.6070
   56MOL0     H 7707   9.470  -0.316   0.188  0.6608 -1.2524 -0.0446
   56MOL0     H 7708   8.424  -0.360   0.591 -1.0470 -3.0500  0.2095
   56MOL0     H 7709   8.186  -0.303   0.553  0.5541  1.2519 -0.2465
   56MOL0     H 7710   7.857  -0.278   0.221  1.2916  0.0588  0.0636
   56MOL0     H 7711   7.634  -0.244   0.142 -0.2316 -4.3092  2.8645
   56MOL0     H 7712   6.141   0.523   0.469 -1.6501 -2.7581 -0.9565
   56MOL0     H 7713   5.919   0.444   0.439 -1.6396 -2.0021 -3.2951
   56MOL0     H 7714   5.422   0.599   0.037 -0.5826  0.2917 -0.5391
   56MOL0     H 7715   5.200   0.493   0.034 -2.1051 -1.0360  2.2781
   56MOL0     H 7716   5.030   0.097   0.178  0.5065  0.2042  0.9363
   56MOL0     H 7717   5.191   0.086   0.224 -0.8337  0.1293 -0.0762
   56MOL0     H 7718   5.158   0.233   0.421 -0.3279  1.7823  0.3794
   56MOL0     H 7719   5.064   0.078   0.415 -1.1230 -0.2371 -1.8086
   56MOL0     H 7720   4.937   0.277   0.515 -0.7155  2.6543 -0.4968
   56MOL0     H 7721   4.945   0.353   0.356  0.1620 -0.3663 -0.1761
   56MOL0     H 7722   4.807   0.100   0.448  4.3655  1.5682  3.0098
   56MOL0     H 7723   4.804   0.156   0.277 -1.4447 -0.2321  0.2451
   56MOL0     H 7724   4.572   0.451   0.461  0.6303 -0.9186 -0.1617
   56MOL0     H 7725   5.364   0.189   0.285  0.2179 -0.7277 -1.7152
   56MOL0     H 7726   5.551   0.190   0.381 -2.4060 -0.0940 -1.1113
   56MOL0     H 7727   5.687   0.281   0.290  0.6474  0.5848  0.6973
   56MOL0     H 7728   5.629   0.345   0.439  2.2699  2.1971 -2.1766
   57MOL0     O 7729   7.867   5.376   8.717  0.6049 -0.0025 -0.1070
   57MOL0     C 7730   7.836   5.261   8.763  0.2792 -0.0816 -1.1300
   57MOL0     O 7731   7.930   5.172   8.809  0.0117 -0.6186  0.4138
   57MOL0     C 7732   8.070   5.202   8.822  0.2520 -0.8915  0.7119
   57MOL0     C 7733   8.157   5.246   8.713  0.5334 -0.5371 -0.0636
   57MOL0     C 7734   8.296   5.262   8.734 -0.4968 -0.2871 -0.0301
   57MOL0     C 7735   8.352   5.233   8.855  1.2975 -1.0656 -0.1885
   57MOL0     O 7736   8.484   5.249   8.858  0.9517  0.5836 -1.2406
   57MOL0     C 7737   8.560   5.219   8.976  0.2728  0.0632  0.4585
   57MOL0     C 7738   8.571   5.347   9.065 -0.6943 -0.3363 -0.0250
   57MOL0     C 7739   8.676   5.325   9.181  0.4349  0.6622  0.1538
   57MOL0     C 7740   8.751   5.454   9.224 -0.5744  0.1472 -0.4266
   57MOL0     C 7741   8.865   5.415   9.316  0.6649 -0.4792 -0.3041
   57MOL0     C 7742   8.916   5.541   9.369 -0.9229 -0.6493  0.1051
   57MOL0     C 7743   9.033   5.548   9.458 -0.0574 -0.1842  0.4418
   57MOL0     C 7744   9.101   5.689   9.471  0.0038 -0.5584 -0.6108
   57MOL0     N 7745   9.172   5.740   9.355 -0.0633 -0.1726  0.7215
   57MOL0     C 7746   9.268   5.674   9.277  1.3277  0.1031 -0.3894
   57MOL0     C 7747   9.328   5.771   9.213  0.2423 -0.3676 -0.3721
   57MOL0     C 7748   9.442   5.733   9.117  0.8163  0.1701 -0.4617
   57MOL0     C 7749   9.567   5.803   9.170  0.4691  0.5752 -0.0742
   57MOL0     C 7750   9.609   5.738   9.296  0.3503 -0.3389 -0.0727
   57MOL0     C 7751   9.723   5.813   9.364 -0.2938 -0.8513 -0.7004
   57MOL0     O 7752   9.843   5.837   9.280 -0.0013 -0.4100  0.4559
   57MOL0     C 7753   9.915   5.737   9.233  0.3807 -0.1287 -0.7876
   57MOL0     C 7754  10.008   5.773   9.142  0.1400 -0.0808 -0.2125
   57MOL0     C 7755  10.090   5.690   9.070 -0.4155  0.2986 -0.5391
   57MOL0     C 7756  10.183   5.736   8.962  0.3141  0.2376  0.6074
   57MOL0     C 7757  10.090   5.555   9.111  0.3960  0.0656 -0.1403
   57MOL0     C 7758  10.164   5.445   9.037  0.0157 -0.7033  0.0603
   57MOL0     O 7759  10.193   5.334   9.115 -0.4138 -0.9219 -0.0662
   57MOL0     C 7760  10.283   5.253   9.061 -0.6176  0.9226 -0.8409
   57MOL0     C 7761  10.250   5.122   9.051 -0.5796  0.2262  0.8128
   57MOL0     C 7762  10.353   5.027   9.024  0.0126  0.0908  0.1293
   57MOL0     C 7763  10.484   5.067   9.013  0.4179 -0.4448  0.4734
   57MOL0     O 7764  10.587   4.991   8.973  0.5676  0.4674 -0.5638
   57MOL0     C 7765  10.580   4.973   8.832  0.0964  0.0998  0.6239
   57MOL0     C 7766  10.669   5.060   8.737 -0.7929 -0.5491 -0.5895
   57MOL0     C 7767  10.810   5.086   8.797 -0.1452  0.8264  0.3394
   57MOL0     C 7768  10.898   4.963   8.818 -0.1620 -1.0187  0.0601
   57MOL0     C 7769  11.043   4.996   8.850 -0.2536 -0.0624  0.6262
   57MOL0     C 7770  11.074   5.035   8.993 -0.6780 -0.0094  0.0354
   57MOL0     C 7771  11.221   5.070   9.017 -0.6029  0.4350 -0.6182
   57MOL0     C 7772  11.300   4.942   9.032 -0.0764 -0.0241 -0.3762
   57MOL0    Cl 7773  11.471   4.980   9.057  0.7131  0.0213  0.1713
   57MOL0     C 7774  10.513   5.205   9.025  0.5924  0.1663 -0.8093
   57MOL0     C 7775  10.414   5.290   9.058  0.2085  0.1580  0.5548
   57MOL0     O 7776  10.183   5.461   8.914 -0.2381  0.3803  0.3738
   57MOL0     C 7777  10.012   5.520   9.222  0.1117 -0.0656 -0.4524
   57MOL0     C 7778   9.918   5.601   9.279 -0.6424 -0.4005  0.5739
   57MOL0     N 7779   9.251   5.884   9.224 -0.3723  0.0711 -0.0559
   57MOL0     N 7780   9.158   5.866   9.309 -0.2230 -0.5111 -0.3862
   57MOL0     C 7781   8.273   5.184   8.953 -0.2757  0.0201  0.5277
   57MOL0     C 7782   8.130   5.173   8.943 -0.7362  0.0206 -0.1122
   57MOL0     C 7783   7.697   5.198   8.755 -0.4058 -0.5600  0.2929
   57MOL0     C 7784   7.664   5.096   8.840 -0.2795  0.4882 -0.9846
   57MOL0     C 7785   7.528   5.052   8.852  0.0542  0.3181  0.3493
   57MOL0     C 7786   7.424   5.104   8.785  0.6161  0.3965 -0.3951
   57MOL0     O 7787   7.291   5.062   8.790 -0.7870  0.2378 -0.8485
   57MOL0     C 7788   7.253   5.001   8.918 -0.3050 -0.1611  0.0850
   57MOL0     C 7789   7.103   5.022   8.929  0.2156 -0.4025 -0.1975
   57MOL0     C 7790   7.029   4.963   8.810  0.8392  0.2101  0.4876
   57MOL0     C 7791   6.888   4.913   8.838 -0.5077 -0.1308  0.1304
   57MOL0     C 7792   6.886   4.771   8.889 -0.2693  0.3464 -0.3793
   57MOL0     C 7793   6.868   4.652   8.912  0.1287  0.3806 -0.7783
   57MOL0     C 7794   7.461   5.216   8.703  0.5248  0.0265  0.1686
   57MOL0     C 7795   7.593   5.262   8.676 -0.2817  0.0967 -1.5195
   57MOL0     C 7796   7.622   5.351   8.558  0.7916  0.1151  0.3720
   57MOL0     H 7797   8.118   5.276   8.617 -2.6051 -0.4546  1.1299
   57MOL0     H 7798   8.357   5.308   8.657  0.2278  2.3540  1.9713
   57MOL0     H 7799   8.661   5.199   8.939  1.5597  0.3377  3.5500
   57MOL0     H 7800   8.524   5.134   9.035 -2.0366 -0.1831 -1.1467
   57MOL0     H 7801   8.596   5.431   9.000 -1.4948  2.0673  2.5766
   57MOL0     H 7802   8.473   5.365   9.110  0.0139 -2.1909  2.5228
   57MOL0     H 7803   8.633   5.275   9.268 -0.8393  0.0463 -0.7867
   57MOL0     H 7804   8.745   5.252   9.136  0.8046  1.0007  0.1689
   57MOL0     H 7805   8.792   5.511   9.140 -0.5020  0.3531 -0.2517
   57MOL0     H 7806   8.680   5.516   9.279 -0.3847  1.1507 -1.2898
   57MOL0     H 7807   8.943   5.364   9.259  0.6190  0.7716 -1.5336
   57MOL0     H 7808   8.835   5.347   9.397  0.5715  1.3682  1.3042
   57MOL0     H 7809   8.950   5.601   9.284  1.0117 -1.2304  0.4131
   57MOL0     H 7810   8.845   5.613   9.410  1.4722  1.6357  0.5571
   57MOL0     H 7811   9.101   5.469   9.426 -1.7310 -1.8684  0.8689
   57MOL0     H 7812   9.000   5.516   9.557 -0.0717 -2.1196 -0.1517
   57MOL0     H 7813   9.025   5.764   9.495  0.3673  0.6708 -3.0063
   57MOL0     H 7814   9.174   5.681   9.553 -0.3712  0.6688 -0.1340
   57MOL0     H 7815   9.288   5.568   9.290  1.3565 -0.0278 -1.4110
   57MOL0     H 7816   9.419   5.752   9.012 -2.0472  2.5766  0.4609
   57MOL0     H 7817   9.464   5.626   9.125  2.3188  0.6079  2.5440
   57MOL0     H 7818   9.648   5.800   9.097 -1.2896  1.5737 -2.1759
   57MOL0     H 7819   9.542   5.909   9.180 -0.6254  0.2318  1.0938
   57MOL0     H 7820   9.526   5.725   9.367 -5.2628 -0.9035 -5.8255
   57MOL0     H 7821   9.636   5.634   9.275 -0.4088 -0.5646  0.0234
   57MOL0     H 7822   9.684   5.907   9.404 -0.0390 -2.1414  2.9910
   57MOL0     H 7823   9.750   5.753   9.451 -0.1593 -2.0688 -1.5688
   57MOL0     H 7824  10.027   5.879   9.125  1.2973 -0.3568 -0.7760
   57MOL0     H 7825  10.274   5.674   8.966 -1.1162 -1.9584  0.8217
   57MOL0     H 7826  10.216   5.840   8.969  1.7516 -0.1280 -0.2246
   57MOL0     H 7827  10.137   5.718   8.864 -1.0250  0.8707  1.0980
   57MOL0     H 7828  10.147   5.088   9.050 -0.2751 -0.7111  0.0236
   57MOL0     H 7829  10.318   4.927   9.000  0.2654 -0.4900  2.0007
   57MOL0     H 7830  10.604   4.868   8.814  0.2423  0.5512 -2.3047
   57MOL0     H 7831  10.475   4.978   8.800 -0.0794 -2.3392  0.5828
   57MOL0     H 7832  10.685   5.009   8.642  2.0963  1.0860 -1.0833
   57MOL0     H 7833  10.625   5.157   8.711 -1.6723 -0.9722 -0.7304
   57MOL0     H 7834  10.808   5.137   8.894  1.5181 -1.8262  1.9049
   57MOL0     H 7835  10.868   5.151   8.730  1.2797 -1.2004 -0.4879
   57MOL0     H 7836  10.898   4.915   8.719 -1.7811  0.5540 -0.7436
   57MOL0     H 7837  10.856   4.892   8.890 -0.0326 -0.9410  0.2143
   57MOL0     H 7838  11.097   4.907   8.818 -0.3592 -0.7439  2.2642
   57MOL0     H 7839  11.084   5.073   8.783  0.3191  0.2138  1.2843
   57MOL0     H 7840  11.056   4.951   9.061  0.5378 -0.1343  0.2321
   57MOL0     H 7841  11.010   5.121   9.012  1.5609  2.3104 -2.0699
   57MOL0     H 7842  11.245   5.128   9.107 -1.2157  2.1170 -1.4887
   57MOL0     H 7843  11.266   5.122   8.932  0.5924 -0.7877 -0.7781
   57MOL0     H 7844  11.284   4.875   8.947  2.3346 -1.7336  0.4087
   57MOL0     H 7845  11.265   4.891   9.121 -2.5091  0.7038 -0.8364
   57MOL0     H 7846  10.609   5.251   9.005 -0.0360  0.6574 -2.8571
   57MOL0     H 7847  10.443   5.393   9.071  3.3926 -0.6896  0.8518
   57MOL0     H 7848  10.008   5.414   9.244  1.0433  0.1479  0.9218
   57MOL0     H 7849   9.848   5.559   9.351  0.0350 -0.7810  1.0249
   57MOL0     H 7850   8.317   5.146   9.044  1.2951 -0.3786 -0.3610
   57MOL0     H 7851   8.061   5.137   9.018  0.4120 -0.9233  0.5384
   57MOL0     H 7852   7.738   5.052   8.906 -2.0806 -0.8820  0.2344
   57MOL0     H 7853   7.519   4.978   8.931 -0.9280  0.8484  0.7565
   57MOL0     H 7854   7.271   4.894   8.931  1.0755 -0.2291 -1.9830
   57MOL0     H 7855   7.310   5.058   8.992  2.1040  1.1518 -2.6245
   57MOL0     H 7856   7.086   5.130   8.926 -1.0123 -0.5015  1.8182
   57MOL0     H 7857   7.061   4.983   9.022 -1.6805  2.7900  0.4539
   57MOL0     H 7858   7.020   5.037   8.730  0.8090 -0.5033 -0.1834
   57MOL0     H 7859   7.088   4.876   8.778  1.5226  0.4045  1.2093
   57MOL0     H 7860   6.831   4.908   8.745 -1.4418 -1.6898  0.7424
   57MOL0     H 7861   6.833   4.978   8.907 -0.5200  0.6489 -0.6077
   57MOL0     H 7862   6.847   4.548   8.930 -2.9782  1.0896  0.4009
   57MOL0     H 7863   7.378   5.244   8.640 -0.0439 -1.3987  0.2656
   57MOL0     H 7864   7.554   5.327   8.475  0.9118  0.2749  0.2270
   57MOL0     H 7865   7.618   5.457   8.582  1.8406  0.5515 -1.2079
   57MOL0     H 7866   7.724   5.334   8.523  0.6563  0.6481 -0.3038
   58MOL0     O 7867   6.886   8.903   0.866 -0.2904 -0.3925  0.0352
   58MOL0     C 7868   6.875   8.912   0.748 -0.7162 -0.0991  0.4575
   58MOL0     O 7869   6.953   8.842   0.664  0.0722  0.5643  0.4772
   58MOL0     C 7870   7.066   8.773   0.698 -0.2741 -0.1311 -0.3415
   58MOL0     C 7871   7.152   8.803   0.807 -0.8780  0.7906 -0.1285
   58MOL0     C 7872   7.262   8.717   0.822  0.2813  0.2665  0.1401
   58MOL0     C 7873   7.282   8.602   0.749 -0.5739 -0.2581  0.7930
   58MOL0     O 7874   7.378   8.514   0.796  0.9236 -0.2103 -0.4990
   58MOL0     C 7875   7.391   8.381   0.738  0.1813 -0.4071 -0.5786
   58MOL0     C 7876   7.509   8.384   0.635  0.2242 -0.5316  0.7953
   58MOL0     C 7877   7.642   8.384   0.710 -0.0101  0.2152  0.5496
   58MOL0     C 7878   7.755   8.349   0.622 -0.2156  0.5997 -0.1921
   58MOL0     C 7879   7.882   8.306   0.700  0.1469 -0.4968  0.3383
   58MOL0     C 7880   7.992   8.417   0.713 -0.0770  0.0178  0.1038
   58MOL0     C 7881   8.104   8.397   0.814  0.3743 -0.3855 -0.1859
   58MOL0     C 7882   8.203   8.290   0.770  0.1081  0.4696  0.0083
   58MOL0     N 7883   8.322   8.295   0.862 -0.3443  0.3388 -0.3304
   58MOL0     C 7884   8.334   8.229   0.984  0.2566 -0.5197 -0.0802
   58MOL0     C 7885   8.440   8.288   1.046  0.5784  0.3601 -0.1023
   58MOL0     C 7886   8.480   8.262   1.189  0.1238 -0.2157 -0.3369
   58MOL0     C 7887   8.448   8.383   1.286  0.5754 -0.4620  0.2446
   58MOL0     C 7888   8.511   8.510   1.232 -0.3235 -0.3829  0.4030
   58MOL0     C 7889   8.519   8.612   1.342  0.3832  0.3231 -0.5708
   58MOL0     O 7890   8.563   8.740   1.291 -0.1305  0.2626 -0.3275
   58MOL0     C 7891   8.695   8.752   1.264  0.9088 -0.4528 -0.1489
   58MOL0     C 7892   8.794   8.747   1.359  0.7176 -0.2522  0.0133
   58MOL0     C 7893   8.932   8.776   1.337  0.5616 -0.4578  0.7482
   58MOL0     C 7894   9.015   8.774   1.461 -0.2394 -0.0526  0.9765
   58MOL0     C 7895   8.976   8.801   1.209  0.5257  0.4300 -0.4938
   58MOL0     C 7896   9.116   8.826   1.176 -0.3317  0.0381  0.6182
   58MOL0     O 7897   9.217   8.779   1.247  0.0709  0.4886 -0.7247
   58MOL0     C 7898   9.350   8.790   1.214  0.4259  0.2514  0.0457
   58MOL0     C 7899   9.404   8.744   1.095  0.0803  0.5484 -0.1005
   58MOL0     C 7900   9.541   8.747   1.078 -0.2070  0.2434 -0.1083
   58MOL0     C 7901   9.625   8.824   1.162  0.6256 -0.7546  0.3618
   58MOL0     O 7902   9.759   8.814   1.141  0.2742  0.3274 -0.5905
   58MOL0     C 7903   9.853   8.858   1.250  0.0641  0.7410  0.0975
   58MOL0     C 7904   9.981   8.835   1.185 -0.0775  0.1016 -0.0618
   58MOL0     C 7905  10.097   8.856   1.285  0.1956  0.2008  0.8297
   58MOL0     C 7906  10.225   8.891   1.209  0.4153  0.2121  0.3001
   58MOL0     C 7907  10.339   8.899   1.308 -0.6177  0.5361  0.2062
   58MOL0     C 7908  10.459   8.929   1.217  0.3017  0.1949  1.2388
   58MOL0     C 7909  10.587   8.932   1.298  0.1573  0.5038  0.4205
   58MOL0     C 7910  10.590   9.046   1.406  0.2990  0.0039  0.3070
   58MOL0    Cl 7911  10.729   9.023   1.495  0.4600  0.1952  0.1346
   58MOL0     C 7912   9.559   8.885   1.273 -0.2350  0.3069 -0.3581
   58MOL0     C 7913   9.425   8.873   1.302 -0.2312 -0.0213 -1.3933
   58MOL0     O 7914   9.131   8.888   1.075  0.6561 -1.0002 -0.2710
   58MOL0     C 7915   8.874   8.806   1.114 -0.0096 -0.5115 -0.2901
   58MOL0     C 7916   8.728   8.780   1.133 -0.5633 -0.0033 -0.4485
   58MOL0     N 7917   8.486   8.390   0.964 -0.4330  0.1027  0.0739
   58MOL0     N 7918   8.417   8.398   0.857  0.4876 -0.1437  0.7369
   58MOL0     C 7919   7.191   8.576   0.647 -0.5653 -0.6646  0.2303
   58MOL0     C 7920   7.094   8.665   0.617  0.1055 -0.0160  0.3595
   58MOL0     C 7921   6.756   8.982   0.682 -0.0506 -0.0064  0.1398
   58MOL0     C 7922   6.700   8.912   0.581  0.2708 -0.2143 -0.1169
   58MOL0     C 7923   6.591   8.970   0.518 -0.3083 -0.2334  0.7283
   58MOL0     C 7924   6.532   9.092   0.548 -0.6149  0.6719  0.2418
   58MOL0     O 7925   6.428   9.127   0.465  0.0771  0.1823 -0.3684
   58MOL0     C 7926   6.386   9.259   0.483  0.1438 -0.1640  1.0239
   58MOL0     C 7927   6.283   9.293   0.378  0.1290  0.6558  0.6943
   58MOL0     C 7928   6.237   9.435   0.393  0.0787  0.3929 -0.5841
   58MOL0     C 7929   6.115   9.465   0.311 -0.0918  1.1327  0.6989
   58MOL0     C 7930   6.075   9.598   0.346  0.1708 -0.6573 -0.4091
   58MOL0     C 7931   6.051   9.720   0.361  0.5592  0.4571 -0.2721
   58MOL0     C 7932   6.590   9.161   0.652 -0.0903  0.9379 -0.1926
   58MOL0     C 7933   6.710   9.111   0.720  0.1571  0.1272  0.3780
   58MOL0     C 7934   6.782   9.187   0.840 -0.8794  0.1255 -0.4779
   58MOL0     H 7935   7.131   8.886   0.874 -2.0880  1.9518 -1.8467
   58MOL0     H 7936   7.329   8.734   0.906 -1.1500  0.4460  1.2801
   58MOL0     H 7937   7.296   8.354   0.691 -0.9073  2.3691 -0.1802
   58MOL0     H 7938   7.413   8.314   0.822 -2.4596  0.7486  1.2084
   58MOL0     H 7939   7.500   8.292   0.576 -3.3898 -1.9947  3.3210
   58MOL0     H 7940   7.498   8.466   0.564  2.0013 -3.3590 -3.1202
   58MOL0     H 7941   7.661   8.484   0.750 -0.4512  1.0150 -1.1319
   58MOL0     H 7942   7.622   8.305   0.782  0.2839 -1.3286 -0.9927
   58MOL0     H 7943   7.716   8.261   0.571 -0.4006 -0.0479  1.0184
   58MOL0     H 7944   7.784   8.425   0.548  0.9353 -0.0523 -0.4244
   58MOL0     H 7945   7.929   8.223   0.646  1.5845  1.0054 -0.8146
   58MOL0     H 7946   7.843   8.267   0.794 -0.8930  0.6576  0.4155
   58MOL0     H 7947   8.035   8.435   0.614 -2.8371  0.8123 -1.0271
   58MOL0     H 7948   7.936   8.508   0.735 -0.9015 -0.2989 -0.6554
   58MOL0     H 7949   8.069   8.376   0.915  1.7936 -2.1529 -0.0110
   58MOL0     H 7950   8.161   8.491   0.818 -2.2654  1.5851 -3.3777
   58MOL0     H 7951   8.152   8.193   0.771 -0.7677  0.9164  1.5085
   58MOL0     H 7952   8.240   8.305   0.667  0.6881  0.9656  0.2795
   58MOL0     H 7953   8.267   8.156   1.028 -1.6386  0.3687 -1.3332
   58MOL0     H 7954   8.586   8.239   1.202  0.1322  0.5371  1.1681
   58MOL0     H 7955   8.431   8.173   1.230  0.5316  0.0918  0.8815
   58MOL0     H 7956   8.340   8.397   1.296  0.6084 -0.8105  1.1891
   58MOL0     H 7957   8.485   8.356   1.386 -0.4961  1.8271  1.3083
   58MOL0     H 7958   8.611   8.482   1.198  0.0704  2.3232 -0.9168
   58MOL0     H 7959   8.460   8.555   1.146  0.5739 -0.6366 -0.2741
   58MOL0     H 7960   8.417   8.627   1.380  0.4809  0.1673 -0.2468
   58MOL0     H 7961   8.589   8.578   1.418 -0.0247 -0.4488 -0.5274
   58MOL0     H 7962   8.770   8.723   1.462  2.1926 -1.4213  0.1187
   58MOL0     H 7963   9.043   8.672   1.489  1.0948 -0.8947 -2.7893
   58MOL0     H 7964   8.967   8.825   1.546  1.1777  0.6022  1.4048
   58MOL0     H 7965   9.103   8.837   1.445 -0.0749 -0.8698 -1.9930
   58MOL0     H 7966   9.346   8.699   1.015  0.3436 -2.3200  1.1751
   58MOL0     H 7967   9.590   8.711   0.988  0.9695 -1.7027  1.2607
   58MOL0     H 7968   9.848   8.967   1.261 -0.6035  1.1492 -3.2620
   58MOL0     H 7969   9.848   8.800   1.343 -1.4535  2.4317  1.1393
   58MOL0     H 7970   9.986   8.730   1.152 -2.8516 -1.0119  2.5832
   58MOL0     H 7971   9.991   8.902   1.099 -0.7492 -0.2972 -0.4632
   58MOL0     H 7972  10.114   8.764   1.341  0.9667 -0.8430 -1.0163
   58MOL0     H 7973  10.068   8.942   1.346  0.9225  1.7155 -0.8385
   58MOL0     H 7974  10.201   8.980   1.150 -2.5335 -2.0964 -2.3124
   58MOL0     H 7975  10.247   8.814   1.135 -3.4093  0.7575 -1.6570
   58MOL0     H 7976  10.314   8.976   1.382 -1.3494  1.0016 -0.5116
   58MOL0     H 7977  10.357   8.805   1.362 -2.3627  0.3852  0.5963
   58MOL0     H 7978  10.432   9.026   1.174 -3.7075 -1.4239 -0.3833
   58MOL0     H 7979  10.468   8.861   1.132 -2.0889  0.9037  0.3414
   58MOL0     H 7980  10.675   8.950   1.236 -0.0783  0.7939  0.1646
   58MOL0     H 7981  10.607   8.840   1.353  0.6630  1.0747  1.2004
   58MOL0     H 7982  10.500   9.033   1.466 -0.4552  1.4367 -0.4339
   58MOL0     H 7983  10.585   9.147   1.362  1.1459  0.7103  1.7629
   58MOL0     H 7984   9.622   8.937   1.345  2.3829 -2.2794 -0.5741
   58MOL0     H 7985   9.383   8.919   1.391  0.4263  1.6000 -1.8869
   58MOL0     H 7986   8.907   8.821   1.012  2.6235 -1.2189  0.3818
   58MOL0     H 7987   8.653   8.799   1.057  2.0578  0.1480 -3.1917
   58MOL0     H 7988   7.186   8.495   0.575 -2.0823  0.5023 -1.0531
   58MOL0     H 7989   7.022   8.641   0.539 -0.4565 -0.1674  0.9176
   58MOL0     H 7990   6.740   8.815   0.552  0.3199  0.3819 -2.2332
   58MOL0     H 7991   6.551   8.911   0.436  0.2293 -2.9859  2.3296
   58MOL0     H 7992   6.346   9.252   0.585  0.0184 -2.9102  0.8613
   58MOL0     H 7993   6.473   9.325   0.487 -0.4345  0.6504  0.4926
   58MOL0     H 7994   6.197   9.229   0.400 -0.1852  0.5581 -0.7460
   58MOL0     H 7995   6.321   9.265   0.280  2.1549 -1.2947  1.9148
   58MOL0     H 7996   6.204   9.440   0.497  1.4402  2.0540 -0.1797
   58MOL0     H 7997   6.319   9.504   0.369  1.0361 -1.6063 -3.7260
   58MOL0     H 7998   6.029   9.397   0.311  0.6511  0.1391  2.2454
   58MOL0     H 7999   6.142   9.469   0.205 -2.0117  2.8004  0.2229
   58MOL0     H 8000   6.022   9.820   0.389  0.4432 -0.1055  1.7960
   58MOL0     H 8001   6.548   9.256   0.682 -0.5627  1.6702 -2.8959
   58MOL0     H 8002   6.708   9.211   0.918 -0.5317  1.4022 -0.5190
   58MOL0     H 8003   6.870   9.143   0.886 -0.9583 -0.5701 -0.9849
   58MOL0     H 8004   6.820   9.282   0.799  0.3758 -0.9361 -1.8790
   59MOL0     O 8005   0.196   1.334   5.434  0.2738  0.3113 -0.4922
   59MOL0     C 8006   0.108   1.402   5.377 -0.5085  0.0659  0.2783
   59MOL0     O 8007   0.131   1.519   5.301  0.7195 -0.0645  0.3375
   59MOL0     C 8008   0.248   1.586   5.297 -0.0341  0.9556  0.2778
   59MOL0     C 8009   0.254   1.692   5.208 -0.1494 -0.5413  0.4594
   59MOL0     C 8010   0.369   1.774   5.186 -0.0557 -0.6236  1.4344
   59MOL0     C 8011   0.477   1.753   5.272 -0.2580 -0.7982 -0.2560
   59MOL0     O 8012   0.591   1.824   5.253  0.1575 -0.0926 -0.2692
   59MOL0     C 8013   0.713   1.819   5.334 -0.1550  0.4675 -0.3645
   59MOL0     C 8014   0.815   1.908   5.265  0.3871 -0.3065  0.5311
   59MOL0     C 8015   0.951   1.922   5.357  0.2681  0.5702 -0.5426
   59MOL0     C 8016   0.916   2.023   5.472 -0.3505  0.4863 -0.1301
   59MOL0     C 8017   1.046   2.051   5.563  0.1330  0.7143  0.4403
   59MOL0     C 8018   1.163   2.123   5.485  0.1661 -0.8197  0.0895
   59MOL0     C 8019   1.282   2.108   5.580  0.1076  0.1780 -0.0797
   59MOL0     C 8020   1.357   1.977   5.555 -0.4073 -0.9771  0.0319
   59MOL0     N 8021   1.440   1.937   5.665 -0.1758 -0.2990  0.0587
   59MOL0     C 8022   1.573   1.945   5.681  0.2342  0.6304 -0.0766
   59MOL0     C 8023   1.606   1.872   5.796 -0.0775  0.3460 -0.0693
   59MOL0     C 8024   1.750   1.841   5.832  0.1563  0.1057  0.4904
   59MOL0     C 8025   1.793   1.708   5.765 -0.1531  0.0077  0.4075
   59MOL0     C 8026   1.947   1.689   5.799  0.1584  0.2252  0.6004
   59MOL0     C 8027   1.991   1.553   5.742  0.4019 -1.0484  0.0508
   59MOL0     O 8028   2.066   1.497   5.844  0.0569 -0.3984  0.1555
   59MOL0     C 8029   2.205   1.476   5.827  0.0778  0.6820  0.5792
   59MOL0     C 8030   2.285   1.487   5.711 -0.6255 -0.1502 -0.1721
   59MOL0     C 8031   2.421   1.469   5.724 -1.1655  0.1258 -0.1718
   59MOL0     C 8032   2.501   1.475   5.596 -0.4487 -0.3620 -0.6764
   59MOL0     C 8033   2.478   1.438   5.853  0.4881  0.4176 -0.0021
   59MOL0     C 8034   2.632   1.420   5.872  0.4396  0.2658 -0.5846
   59MOL0     O 8035   2.717   1.501   5.797  0.2920  0.1006 -0.3147
   59MOL0     C 8036   2.848   1.456   5.815 -0.3455 -1.2258 -0.0085
   59MOL0     C 8037   2.924   1.489   5.927  0.2201 -0.0950 -0.7683
   59MOL0     C 8038   3.058   1.444   5.930  0.1977  0.0153  0.7979
   59MOL0     C 8039   3.122   1.368   5.829  0.6038 -0.8591 -0.4588
   59MOL0     O 8040   3.251   1.341   5.848  0.4994  0.6659 -0.6685
   59MOL0     C 8041   3.308   1.218   5.788  0.1547 -0.6075 -0.9860
   59MOL0     C 8042   3.457   1.207   5.786  0.9523  0.2027 -0.4371
   59MOL0     C 8043   3.535   1.195   5.907 -0.7044  1.1084  0.3933
   59MOL0     C 8044   3.593   1.047   5.930 -0.3197 -0.3131  0.1482
   59MOL0     C 8045   3.689   0.977   5.832  0.4017 -0.2753  0.2692
   59MOL0     C 8046   3.791   1.071   5.782  1.0792  0.7446 -0.4460
   59MOL0     C 8047   3.897   0.995   5.698 -0.2226  0.1666 -0.1878
   59MOL0     C 8048   3.837   0.909   5.576 -1.1713  0.1578  0.5179
   59MOL0    Cl 8049   3.972   0.805   5.501 -0.3806  0.3472 -0.2377
   59MOL0     C 8050   3.042   1.339   5.717 -0.8535  0.5070  0.0242
   59MOL0     C 8051   2.910   1.386   5.713  0.1440 -0.9950 -0.1400
   59MOL0     O 8052   2.664   1.322   5.941  0.2514 -0.7526  0.5427
   59MOL0     C 8053   2.396   1.421   5.966  0.7249 -1.0713  0.5048
   59MOL0     C 8054   2.259   1.444   5.946 -0.5828 -0.6047  0.5671
   59MOL0     N 8055   1.484   1.830   5.855  0.5737  0.1720 -0.1573
   59MOL0     N 8056   1.388   1.867   5.774 -0.0156  0.0623  0.3984
   59MOL0     C 8057   0.465   1.661   5.383  0.1197  0.6871  1.3239
   59MOL0     C 8058   0.352   1.581   5.392  0.1751  0.1417 -0.4867
   59MOL0     C 8059  -0.038   1.359   5.386  0.1312 -0.1346  0.0360
   59MOL0     C 8060  -0.135   1.437   5.310 -0.5634  0.3509  0.0521
   59MOL0     C 8061  -0.257   1.386   5.294 -0.3363  0.2493  0.3167
   59MOL0     C 8062  -0.299   1.259   5.334 -0.8097  0.1050 -0.8181
   59MOL0     O 8063  -0.429   1.224   5.311  0.2791  0.0453  0.2814
   59MOL0     C 8064  -0.481   1.094   5.303 -0.9822 -0.2353 -0.3520
   59MOL0     C 8065  -0.587   1.074   5.198 -0.3504  0.4773 -0.1441
   59MOL0     C 8066  -0.713   1.151   5.237  0.3949  0.0033 -0.5846
   59MOL0     C 8067  -0.820   1.137   5.129  0.0432 -0.2411  0.2042
   59MOL0     C 8068  -0.930   1.233   5.148 -0.0653 -1.3495  0.3686
   59MOL0     C 8069  -1.021   1.322   5.158 -0.5294 -0.8417  0.1409
   59MOL0     C 8070  -0.209   1.181   5.415 -0.0704 -0.2534  0.1558
   59MOL0     C 8071  -0.086   1.240   5.450 -0.7746 -0.0897  0.1573
   59MOL0     C 8072   0.005   1.163   5.541  0.3401 -0.0601  0.4170
   59MOL0     H 8073   0.170   1.707   5.142  0.5868 -1.1638 -0.6662
   59MOL0     H 8074   0.368   1.854   5.113 -0.6904 -1.8387  0.0616
   59MOL0     H 8075   0.757   1.720   5.351 -0.9094  0.2404  0.3462
   59MOL0     H 8076   0.685   1.854   5.435 -1.9424  1.7286 -1.2342
   59MOL0     H 8077   0.833   1.887   5.160  2.1332 -2.1573  1.1355
   59MOL0     H 8078   0.776   2.010   5.262  0.7828 -0.1218  1.3713
   59MOL0     H 8079   0.973   1.825   5.400 -0.6691  0.9289  0.8096
   59MOL0     H 8080   1.039   1.957   5.302  0.5790 -0.7832 -0.9311
   59MOL0     H 8081   0.891   2.123   5.435  0.4515  0.5564 -0.5021
   59MOL0     H 8082   0.832   1.987   5.533  0.3704 -2.1394 -0.5704
   59MOL0     H 8083   1.083   1.954   5.599  0.3447  0.0932 -1.3291
   59MOL0     H 8084   1.020   2.108   5.652  1.9809 -0.5739  1.8746
   59MOL0     H 8085   1.190   2.093   5.384  0.4815  1.5388 -0.6025
   59MOL0     H 8086   1.141   2.230   5.488  1.2533 -0.5951  0.8219
   59MOL0     H 8087   1.253   2.098   5.685  0.1346 -1.2454 -0.1840
   59MOL0     H 8088   1.342   2.200   5.581 -2.3994  1.9496  2.1230
   59MOL0     H 8089   1.291   1.895   5.527  0.6318 -0.1638 -6.3501
   59MOL0     H 8090   1.417   1.977   5.463  0.9492 -0.7550  0.8978
   59MOL0     H 8091   1.643   2.009   5.628  0.3721  0.0122 -0.6693
   59MOL0     H 8092   1.769   1.856   5.939  2.2357  1.9788 -0.0600
   59MOL0     H 8093   1.810   1.914   5.776 -1.0420  0.9300  0.2186
   59MOL0     H 8094   1.739   1.620   5.802  4.2426 -3.7696 -1.1875
   59MOL0     H 8095   1.780   1.713   5.657 -1.6471  0.5977  0.5880
   59MOL0     H 8096   2.005   1.771   5.757  0.3293 -0.5872 -0.8249
   59MOL0     H 8097   1.963   1.682   5.907  0.3078  1.5832  0.6750
   59MOL0     H 8098   1.903   1.488   5.738  0.6716 -1.3952 -3.3364
   59MOL0     H 8099   2.029   1.568   5.641 -0.6730  1.3221 -0.0634
   59MOL0     H 8100   2.245   1.528   5.619 -3.0214  0.7211  1.1525
   59MOL0     H 8101   2.443   1.459   5.504 -0.2102 -1.6187 -0.6281
   59MOL0     H 8102   2.571   1.391   5.604 -3.1621 -2.6873  0.6155
   59MOL0     H 8103   2.554   1.570   5.598  0.4403 -0.8622  0.9747
   59MOL0     H 8104   2.900   1.555   6.009  2.7168 -1.4092  1.1614
   59MOL0     H 8105   3.114   1.475   6.018  0.1132 -1.1460  1.2724
   59MOL0     H 8106   3.261   1.134   5.840 -4.2553  2.1959  0.1204
   59MOL0     H 8107   3.280   1.217   5.683  2.5096  2.3056 -1.7776
   59MOL0     H 8108   3.476   1.119   5.725  1.9746  0.7733 -0.9632
   59MOL0     H 8109   3.489   1.295   5.730 -0.0635  1.9109  1.4874
   59MOL0     H 8110   3.481   1.229   5.996  0.4390  1.0921  1.1161
   59MOL0     H 8111   3.617   1.267   5.895 -2.2998  2.6597 -2.0592
   59MOL0     H 8112   3.500   0.989   5.937 -1.5905  1.7602  1.4752
   59MOL0     H 8113   3.624   1.036   6.034 -0.8112  0.8364  0.4321
   59MOL0     H 8114   3.749   0.893   5.869  0.7276 -0.1975 -0.0692
   59MOL0     H 8115   3.630   0.930   5.753  2.0487 -0.2256 -1.0572
   59MOL0     H 8116   3.837   1.126   5.865  0.4282  2.5963 -1.2725
   59MOL0     H 8117   3.738   1.143   5.720 -2.6950  2.0093  3.6997
   59MOL0     H 8118   3.963   0.935   5.760 -1.5908 -2.3189 -0.9885
   59MOL0     H 8119   3.966   1.067   5.654  0.9689  0.9062  2.7340
   59MOL0     H 8120   3.774   0.968   5.509  0.5636  3.6626  1.7243
   59MOL0     H 8121   3.770   0.834   5.618  0.8774  0.2869  4.4680
   59MOL0     H 8122   3.092   1.290   5.633  0.6298  1.2804  0.4129
   59MOL0     H 8123   2.846   1.369   5.627 -1.4768 -1.7100  1.1574
   59MOL0     H 8124   2.433   1.401   6.066  1.8826  1.0207  0.5397
   59MOL0     H 8125   2.185   1.434   6.025  0.3787  1.2364  1.7692
   59MOL0     H 8126   0.548   1.645   5.451 -0.5753 -4.7945  1.3596
   59MOL0     H 8127   0.340   1.528   5.486  1.5031  2.0762  0.8475
   59MOL0     H 8128  -0.117   1.531   5.259 -2.3805 -1.3429 -4.1996
   59MOL0     H 8129  -0.323   1.458   5.248  1.7339  1.3773 -1.0866
   59MOL0     H 8130  -0.395   1.031   5.277 -0.1750  0.2344  1.0879
   59MOL0     H 8131  -0.497   1.050   5.401  0.5264  0.2783  0.1510
   59MOL0     H 8132  -0.613   0.968   5.192  0.1921  0.2568  1.0963
   59MOL0     H 8133  -0.558   1.104   5.097  0.5410 -0.7189 -0.2643
   59MOL0     H 8134  -0.742   1.111   5.335  3.5082 -0.4520  0.2782
   59MOL0     H 8135  -0.671   1.252   5.246  0.9921 -0.1226 -1.7871
   59MOL0     H 8136  -0.854   1.033   5.129  0.3910 -0.4267  2.9961
   59MOL0     H 8137  -0.779   1.158   5.030 -2.3546  1.2566 -0.5740
   59MOL0     H 8138  -1.092   1.401   5.167 -2.0419 -1.8070 -2.1415
   59MOL0     H 8139  -0.245   1.082   5.438 -0.6043 -0.1574 -0.2471
   59MOL0     H 8140   0.080   1.108   5.485 -1.9040 -3.3429  0.3943
   59MOL0     H 8141   0.051   1.237   5.608 -1.2047 -0.0618  1.5188
   59MOL0     H 8142  -0.051   1.093   5.604  0.3847 -1.1395 -0.7082
   60MOL0     O 8143   4.652   9.689   3.579  0.0033  0.0378 -0.2771
   60MOL0     C 8144   4.608   9.750   3.677  0.5126 -0.1433 -0.7495
   60MOL0     O 8145   4.691   9.821   3.761 -0.0476  0.7071  0.2510
   60MOL0     C 8146   4.824   9.802   3.739 -0.3289  0.6450  0.3629
   60MOL0     C 8147   4.898   9.917   3.705 -0.0117 -0.3956  0.1700
   60MOL0     C 8148   5.035   9.914   3.687  0.2545 -0.4875 -1.1110
   60MOL0     C 8149   5.111   9.794   3.707 -0.0909 -0.6299  1.3037
   60MOL0     O 8150   5.248   9.778   3.670  0.4552  0.4507 -0.7798
   60MOL0     C 8151   5.327   9.892   3.630 -0.1792  0.1978  1.1518
   60MOL0     C 8152   5.459   9.835   3.588  0.3524 -0.0210  1.1803
   60MOL0     C 8153   5.529   9.754   3.697  0.2893 -0.3535  0.1941
   60MOL0     C 8154   5.601   9.847   3.798 -0.2595  0.5747 -0.7997
   60MOL0     C 8155   5.715   9.925   3.729  0.2858 -0.1167  0.3024
   60MOL0     C 8156   5.787  10.003   3.849 -0.1205 -0.2384  0.4104
   60MOL0     C 8157   5.910  10.090   3.801  0.3911  0.8282 -0.3302
   60MOL0     C 8158   5.973  10.160   3.921  0.2644 -0.0059  1.1629
   60MOL0     N 8159   6.111  10.113   3.945  0.6194  0.2696  0.2572
   60MOL0     C 8160   6.148   9.988   3.983 -0.0340  0.2444  0.2909
   60MOL0     C 8161   6.280   9.990   4.009  1.1599  0.3738 -0.2446
   60MOL0     C 8162   6.368   9.869   4.039 -0.2718 -0.7677 -0.3705
   60MOL0     C 8163   6.405   9.857   4.183 -0.7300  0.1723  1.2155
   60MOL0     C 8164   6.446   9.710   4.224  0.9635 -0.6107  1.1226
   60MOL0     C 8165   6.549   9.631   4.143 -0.2068  0.2858  0.5187
   60MOL0     O 8166   6.659   9.724   4.112 -0.3209  0.1870 -0.3236
   60MOL0     C 8167   6.751   9.690   4.016 -0.1884  0.2691  0.0192
   60MOL0     C 8168   6.745   9.577   3.936 -0.1698 -0.0139 -0.4990
   60MOL0     C 8169   6.847   9.555   3.843  0.1034 -0.2371  0.9401
   60MOL0     C 8170   6.841   9.429   3.767  0.5959  0.2106  0.1543
   60MOL0     C 8171   6.963   9.638   3.842  0.0783  0.5747 -0.4439
   60MOL0     C 8172   7.081   9.617   3.762  0.3754  0.1878 -0.0541
   60MOL0     O 8173   7.061   9.582   3.628  0.1779 -0.4217 -0.3140
   60MOL0     C 8174   7.175   9.572   3.558  0.5853  0.3543  0.4354
   60MOL0     C 8175   7.288   9.499   3.598 -0.6025 -0.3190  0.4888
   60MOL0     C 8176   7.401   9.510   3.518 -0.2658 -0.3735 -1.0208
   60MOL0     C 8177   7.396   9.581   3.396 -0.6736 -0.8060  0.9783
   60MOL0     O 8178   7.523   9.585   3.338 -0.7885  0.1449 -0.1746
   60MOL0     C 8179   7.544   9.669   3.223 -0.5564  0.1568 -0.2735
   60MOL0     C 8180   7.664   9.603   3.141 -0.4664 -0.0504 -0.3071
   60MOL0     C 8181   7.803   9.644   3.194  0.2517  0.2467  0.2832
   60MOL0     C 8182   7.921   9.645   3.094  0.0848 -0.3641 -0.1645
   60MOL0     C 8183   8.048   9.658   3.167 -0.2803 -0.8083 -0.3594
   60MOL0     C 8184   8.167   9.668   3.074  0.0728 -0.7556  0.9285
   60MOL0     C 8185   8.190   9.547   2.988 -0.5122  0.1165  0.4464
   60MOL0     C 8186   8.307   9.559   2.892 -0.3165 -1.3709  0.2869
   60MOL0    Cl 8187   8.458   9.653   2.946 -0.0442 -0.1873  0.0877
   60MOL0     C 8188   7.272   9.634   3.351  0.0018  0.0150  0.5131
   60MOL0     C 8189   7.162   9.637   3.434 -0.2426  0.0827 -0.2464
   60MOL0     O 8190   7.183   9.629   3.828 -0.0146 -0.4548 -0.4253
   60MOL0     C 8191   6.961   9.753   3.926 -1.1533 -0.0811  0.7042
   60MOL0     C 8192   6.853   9.783   4.006  0.1275 -0.5943  0.3417
   60MOL0     N 8193   6.330  10.117   3.986 -0.5008 -0.2132 -0.2222
   60MOL0     N 8194   6.230  10.188   3.953  0.3054  0.6000 -0.2361
   60MOL0     C 8195   5.040   9.682   3.742  0.3208  0.3982 -0.3234
   60MOL0     C 8196   4.898   9.681   3.753  0.0384  0.3148 -0.0595
   60MOL0     C 8197   4.459   9.786   3.696  0.3292  0.6010  0.5267
   60MOL0     C 8198   4.420   9.881   3.791 -0.6247  0.0391 -0.8375
   60MOL0     C 8199   4.287   9.919   3.819 -1.3576  1.2371  0.0427
   60MOL0     C 8200   4.187   9.847   3.752  0.0866 -0.2352  0.0845
   60MOL0     O 8201   4.056   9.845   3.781  0.4260 -0.8958 -0.5826
   60MOL0     C 8202   4.006   9.930   3.890  0.5290 -0.6063 -0.1300
   60MOL0     C 8203   3.884   9.866   3.959 -0.8644  0.4448  0.0184
   60MOL0     C 8204   3.899   9.718   3.977  0.1674 -0.3714 -0.0583
   60MOL0     C 8205   3.831   9.640   3.866 -0.4943  0.0394  0.1281
   60MOL0     C 8206   3.687   9.644   3.867 -0.0724 -0.1441  0.5176
   60MOL0     C 8207   3.569   9.664   3.881  0.2012 -0.1193  0.2702
   60MOL0     C 8208   4.223   9.766   3.645  0.6056  0.0273 -0.9111
   60MOL0     C 8209   4.355   9.733   3.616 -0.0215 -0.5693  0.5585
   60MOL0     C 8210   4.379   9.644   3.495  1.4838 -0.5714  0.3952
   60MOL0     H 8211   4.850  10.013   3.689 -0.3273 -0.8909 -2.3277
   60MOL0     H 8212   5.096  10.000   3.662  3.0786 -1.0438  2.9081
   60MOL0     H 8213   5.347   9.956   3.716 -2.5205  1.6261  0.7381
   60MOL0     H 8214   5.282   9.963   3.560  1.8617  0.9340  0.5393
   60MOL0     H 8215   5.436   9.772   3.501  2.5866  1.5498 -0.6673
   60MOL0     H 8216   5.519   9.914   3.543 -1.7479  1.2645  0.4951
   60MOL0     H 8217   5.458   9.695   3.756 -0.0195  2.5693  3.0189
   60MOL0     H 8218   5.604   9.691   3.650  0.2976  1.0875 -1.8540
   60MOL0     H 8219   5.527   9.913   3.844 -2.4114 -1.8959 -0.4790
   60MOL0     H 8220   5.640   9.784   3.878  1.6359 -0.1226 -2.2018
   60MOL0     H 8221   5.687  10.002   3.657  0.7538 -1.1149 -0.9745
   60MOL0     H 8222   5.778   9.853   3.676  2.5476  3.2666 -2.0251
   60MOL0     H 8223   5.715  10.070   3.897 -0.3396 -1.7166  2.2633
   60MOL0     H 8224   5.821   9.928   3.921 -1.9805 -1.0074  0.5607
   60MOL0     H 8225   5.898  10.165   3.723  4.9672 -0.6410 -2.8121
   60MOL0     H 8226   5.984  10.025   3.754  2.4447  0.9539  2.4478
   60MOL0     H 8227   5.974  10.268   3.903  0.1961 -0.2400 -0.3705
   60MOL0     H 8228   5.927  10.136   4.018 -0.2351  3.4338  1.9160
   60MOL0     H 8229   6.085   9.900   3.988 -2.3882  1.8151 -0.1331
   60MOL0     H 8230   6.465   9.875   3.988 -0.5507 -0.7453 -0.8953
   60MOL0     H 8231   6.320   9.776   4.009 -0.4346 -0.8213  0.0515
   60MOL0     H 8232   6.483   9.930   4.205 -0.3250  0.8623 -1.9470
   60MOL0     H 8233   6.317   9.891   4.238 -0.3981 -1.3373  2.7707
   60MOL0     H 8234   6.484   9.709   4.327 -1.1986 -3.2831  2.0203
   60MOL0     H 8235   6.355   9.648   4.231 -0.4730  1.5107  3.0111
   60MOL0     H 8236   6.576   9.542   4.200  2.9557  1.6758  1.4583
   60MOL0     H 8237   6.491   9.599   4.055 -2.0188  1.9066  1.0683
   60MOL0     H 8238   6.669   9.500   3.934  2.7982 -3.1853 -1.0305
   60MOL0     H 8239   6.785   9.436   3.673 -3.1590 -1.5403  2.0200
   60MOL0     H 8240   6.791   9.348   3.822  0.5823  0.3019  0.2787
   60MOL0     H 8241   6.938   9.395   3.731  0.0545 -0.1371 -1.0294
   60MOL0     H 8242   7.301   9.442   3.689 -0.3304  1.2446  1.4753
   60MOL0     H 8243   7.487   9.452   3.548 -0.1169  0.7819  0.9549
   60MOL0     H 8244   7.456   9.665   3.158 -0.8288  0.5044  0.0719
   60MOL0     H 8245   7.579   9.769   3.251  1.6473 -0.6743  0.1783
   60MOL0     H 8246   7.662   9.494   3.147  2.9564 -0.2272 -0.4703
   60MOL0     H 8247   7.659   9.627   3.034  2.0432 -0.1378 -0.5083
   60MOL0     H 8248   7.828   9.580   3.279  1.7706 -0.9277 -0.9801
   60MOL0     H 8249   7.798   9.746   3.234  2.6702  0.2274  0.7493
   60MOL0     H 8250   7.915   9.729   3.024 -0.9662 -1.4795 -1.4628
   60MOL0     H 8251   7.920   9.561   3.025  1.3063 -1.6989  1.3650
   60MOL0     H 8252   8.040   9.751   3.225  0.9108  0.4808 -2.1413
   60MOL0     H 8253   8.066   9.576   3.236  1.4782 -0.7151 -0.6411
   60MOL0     H 8254   8.257   9.705   3.123 -1.6468  2.2332  2.0874
   60MOL0     H 8255   8.157   9.749   3.001  0.0676  0.5591  2.3249
   60MOL0     H 8256   8.097   9.514   2.941 -0.4462 -0.3849  0.6538
   60MOL0     H 8257   8.215   9.472   3.065  2.9296 -1.6260 -2.0559
   60MOL0     H 8258   8.263   9.619   2.812  2.1253  0.8914  0.4952
   60MOL0     H 8259   8.325   9.458   2.855 -3.5805 -1.2463 -2.1045
   60MOL0     H 8260   7.257   9.700   3.266  0.5442  0.4847  0.7741
   60MOL0     H 8261   7.068   9.688   3.415  0.4137  0.4172 -3.1023
   60MOL0     H 8262   7.052   9.813   3.919  0.2516 -2.2661 -1.2219
   60MOL0     H 8263   6.852   9.871   4.070 -0.3648  1.3904 -2.2236
   60MOL0     H 8264   5.084   9.583   3.749 -3.1520 -1.3475 -1.0588
   60MOL0     H 8265   4.849   9.585   3.767  3.8893 -1.6081  1.8664
   60MOL0     H 8266   4.489   9.940   3.851 -1.2987  0.6749 -0.6730
   60MOL0     H 8267   4.268   9.990   3.898 -0.0985 -0.4632  1.9842
   60MOL0     H 8268   4.086   9.932   3.965 -0.1132 -0.1847  0.5619
   60MOL0     H 8269   3.983  10.029   3.850  2.0398  1.6877  4.0434
   60MOL0     H 8270   3.787   9.885   3.913 -1.4058  0.8209  1.2530
   60MOL0     H 8271   3.880   9.916   4.057  0.1284  1.1105 -0.2724
   60MOL0     H 8272   4.005   9.694   3.979  0.1595 -0.3467  1.7102
   60MOL0     H 8273   3.856   9.688   4.073  0.6058 -0.1390  0.2119
   60MOL0     H 8274   3.860   9.535   3.872  2.0080  0.7288  1.4127
   60MOL0     H 8275   3.869   9.687   3.775  0.0643  1.4898  1.0672
   60MOL0     H 8276   3.463   9.683   3.882  0.2331  0.4468 -2.0388
   60MOL0     H 8277   4.141   9.737   3.580 -1.5327  2.0742  0.6909
   60MOL0     H 8278   4.288   9.606   3.447  1.4433 -0.3585  0.3036
   60MOL0     H 8279   4.416   9.709   3.415 -0.7867 -0.2816 -0.4762
   60MOL0     H 8280   4.444   9.561   3.526  0.2751 -0.2846  4.2919
   61MOL0     O 8281   8.640  11.370   7.158  0.0553 -0.4538  0.1895
   61MOL0     C 8282   8.644  11.324   7.038 -0.3558  0.0577  0.1537
   61MOL0     O 8283   8.743  11.241   6.987 -0.1092  0.0022 -0.1240
   61MOL0     C 8284   8.853  11.187   7.052  0.0954 -0.3152 -0.0140
   61MOL0     C 8285   8.873  11.198   7.193  0.3194 -0.1369 -0.2444
   61MOL0     C 8286   8.990  11.151   7.249 -0.2036  0.3174 -0.4433
   61MOL0     C 8287   9.092  11.107   7.164 -0.0929 -0.4118 -1.0678
   61MOL0     O 8288   9.210  11.080   7.233  0.2031  0.0212  0.1990
   61MOL0     C 8289   9.273  10.945   7.233  0.0087 -0.5675  0.3744
   61MOL0     C 8290   9.376  10.963   7.345  0.2409 -0.5626 -0.0284
   61MOL0     C 8291   9.483  11.066   7.305 -0.4057  0.5451 -0.2014
   61MOL0     C 8292   9.605  11.055   7.395 -0.4989 -0.7927 -0.3675
   61MOL0     C 8293   9.717  11.155   7.354 -0.5011  0.1214 -0.5687
   61MOL0     C 8294   9.817  11.170   7.463  0.6921 -0.5054  0.6653
   61MOL0     C 8295   9.903  11.041   7.490 -0.6499  0.2165 -0.3186
   61MOL0     C 8296  10.047  11.085   7.533 -0.1615  1.0069  0.0241
   61MOL0     N 8297  10.134  10.970   7.543 -0.3101 -0.3466 -0.2980
   61MOL0     C 8298  10.138  10.884   7.651 -0.5751  0.5593  0.0203
   61MOL0     C 8299  10.222  10.782   7.623  0.6474 -0.0762 -0.7392
   61MOL0     C 8300  10.261  10.650   7.685  0.5800 -0.0410 -1.1418
   61MOL0     C 8301  10.412  10.647   7.685  0.1935 -0.1524 -0.4155
   61MOL0     C 8302  10.479  10.712   7.811  0.0725 -0.3845 -0.5204
   61MOL0     C 8303  10.474  10.862   7.793 -0.0226 -0.1993 -0.3209
   61MOL0     O 8304  10.571  10.935   7.878 -0.5866 -0.0257  0.9586
   61MOL0     C 8305  10.708  10.948   7.840 -0.9172 -1.6264 -0.0165
   61MOL0     C 8306  10.767  10.905   7.721  0.4406  0.8754  0.0746
   61MOL0     C 8307  10.900  10.931   7.693 -0.1000 -0.4418  0.0363
   61MOL0     C 8308  10.946  10.885   7.558 -0.0982 -0.9433 -0.2304
   61MOL0     C 8309  10.982  11.006   7.793  0.3058  0.1831 -0.0858
   61MOL0     C 8310  11.122  11.048   7.774  0.6543  0.6445  0.4501
   61MOL0     O 8311  11.156  11.171   7.816  0.2033  0.4808 -0.4271
   61MOL0     C 8312  11.287  11.200   7.838 -0.4189 -0.7516  0.6935
   61MOL0     C 8313  11.386  11.109   7.870  0.5607  0.4639  0.9392
   61MOL0     C 8314  11.510  11.153   7.914  0.7796 -0.0948 -0.4682
   61MOL0     C 8315  11.536  11.292   7.953  0.6993 -0.1718  0.3909
   61MOL0     O 8316  11.662  11.338   7.989 -0.1660  0.2622 -0.4626
   61MOL0     C 8317  11.774  11.248   7.996  0.3416 -0.4748 -0.1897
   61MOL0     C 8318  11.873  11.312   8.089  0.1758  0.2449 -0.0944
   61MOL0     C 8319  11.993  11.382   8.016 -0.4386  0.3313 -0.2425
   61MOL0     C 8320  12.075  11.473   8.116 -0.2478  0.8252 -0.3320
   61MOL0     C 8321  12.206  11.516   8.040  0.0973 -1.0046  0.3429
   61MOL0     C 8322  12.328  11.557   8.116  0.7381  0.3055 -0.4915
   61MOL0     C 8323  12.303  11.651   8.245 -0.8071  0.1069 -0.1603
   61MOL0     C 8324  12.429  11.731   8.300  0.8402  0.3528 -0.2287
   61MOL0    Cl 8325  12.560  11.619   8.350  0.3748  0.3603  0.2621
   61MOL0     C 8326  11.424  11.381   7.938 -0.2946  0.8255 -0.0500
   61MOL0     C 8327  11.302  11.335   7.878 -0.7418  0.2164  0.2382
   61MOL0     O 8328  11.196  10.970   7.705  0.1071  0.2439  0.4648
   61MOL0     C 8329  10.911  11.063   7.903  0.7701  0.2645  0.1020
   61MOL0     C 8330  10.778  11.026   7.930 -0.0973  1.0596 -0.2686
   61MOL0     N 8331  10.279  10.817   7.496  0.2828 -1.1228  0.2877
   61MOL0     N 8332  10.230  10.930   7.451  0.2380 -0.0596  0.8134
   61MOL0     C 8333   9.075  11.086   7.029 -0.1449 -0.1391  0.1529
   61MOL0     C 8334   8.953  11.124   6.972 -0.0040  0.4212 -0.3622
   61MOL0     C 8335   8.531  11.368   6.961  0.3734  0.0104  0.3164
   61MOL0     C 8336   8.447  11.474   7.010  0.9063 -0.7525 -0.0670
   61MOL0     C 8337   8.324  11.513   6.944  0.0962  0.4900  0.0114
   61MOL0     C 8338   8.289  11.453   6.819  0.6661  0.9887  0.7310
   61MOL0     O 8339   8.172  11.475   6.745  0.0883 -0.5569  0.4638
   61MOL0     C 8340   8.068  11.553   6.797 -0.1497 -0.7551  0.6194
   61MOL0     C 8341   7.981  11.605   6.683  0.1314  0.7066  0.8219
   61MOL0     C 8342   8.059  11.680   6.575  0.3279  0.0901 -0.3827
   61MOL0     C 8343   8.103  11.825   6.620 -0.2973  0.0155 -0.9434
   61MOL0     C 8344   7.999  11.911   6.674  0.9593 -1.7942 -0.2862
   61MOL0     C 8345   7.897  11.976   6.708  1.1232 -0.0859  0.7054
   61MOL0     C 8346   8.370  11.355   6.766 -0.1275  0.5842 -0.4365
   61MOL0     C 8347   8.485  11.314   6.832 -0.1171  0.6386  0.6396
   61MOL0     C 8348   8.552  11.193   6.779  0.3856 -0.8444  0.3665
   61MOL0     H 8349   8.809  11.256   7.258  1.4362  1.7183 -0.7185
   61MOL0     H 8350   9.008  11.171   7.354  0.8758  1.5871 -0.8486
   61MOL0     H 8351   9.324  10.931   7.137  0.7449 -0.7448  0.7829
   61MOL0     H 8352   9.197  10.870   7.257 -0.3494 -0.1120  0.6805
   61MOL0     H 8353   9.331  10.979   7.444 -0.4587 -4.0866  0.3402
   61MOL0     H 8354   9.415  10.861   7.340 -3.5517 -2.1314 -0.3120
   61MOL0     H 8355   9.521  11.034   7.208 -0.2563 -1.7019  0.5314
   61MOL0     H 8356   9.453  11.171   7.303  1.3319  1.0667 -0.9856
   61MOL0     H 8357   9.579  11.083   7.497  1.1696  1.9443 -0.5940
   61MOL0     H 8358   9.638  10.950   7.393 -0.6151 -0.8686 -3.3118
   61MOL0     H 8359   9.665  11.250   7.337  0.1502  0.7010  0.5784
   61MOL0     H 8360   9.756  11.123   7.257 -1.9511  1.0277 -1.4871
   61MOL0     H 8361   9.888  11.248   7.433 -0.7792  1.1109  1.2414
   61MOL0     H 8362   9.758  11.210   7.546 -1.8687  1.2080 -1.8051
   61MOL0     H 8363   9.904  10.996   7.390  0.0595 -0.8576  0.1621
   61MOL0     H 8364   9.855  10.976   7.563 -0.3772  1.3255  0.8954
   61MOL0     H 8365  10.083  11.147   7.451 -0.1347  1.1876  0.1737
   61MOL0     H 8366  10.039  11.144   7.624  1.0363  2.8912 -1.0378
   61MOL0     H 8367  10.067  10.885   7.734  0.7831 -0.5995  1.2691
   61MOL0     H 8368  10.216  10.573   7.623  0.9277 -1.0356 -0.1863
   61MOL0     H 8369  10.230  10.633   7.789  0.6365 -1.3665 -1.3288
   61MOL0     H 8370  10.431  10.540   7.702 -0.3630 -0.5996 -2.3704
   61MOL0     H 8371  10.453  10.679   7.589  4.9216 -1.5395  0.8616
   61MOL0     H 8372  10.427  10.682   7.903  0.2623  1.1137  0.1046
   61MOL0     H 8373  10.583  10.680   7.815  0.5046  0.8379 -1.3019
   61MOL0     H 8374  10.489  10.890   7.688  1.2098 -1.7146 -0.5858
   61MOL0     H 8375  10.376  10.905   7.815  0.4953 -0.0574  1.8871
   61MOL0     H 8376  10.715  10.846   7.646  1.0742  1.4950 -0.8614
   61MOL0     H 8377  11.020  10.952   7.514 -0.2879 -0.1987  0.5733
   61MOL0     H 8378  10.861  10.893   7.490  0.6513 -0.8260 -1.1670
   61MOL0     H 8379  10.983  10.783   7.573 -0.0239 -1.1056 -1.4159
   61MOL0     H 8380  11.378  11.001   7.863  1.5661  0.4263  0.2670
   61MOL0     H 8381  11.585  11.078   7.937  3.4506  1.0445 -4.3406
   61MOL0     H 8382  11.765  11.142   8.023 -0.7700 -1.0194 -2.4325
   61MOL0     H 8383  11.807  11.256   7.892 -1.3883 -3.0237 -1.0379
   61MOL0     H 8384  11.825  11.400   8.134  0.0090  1.8507 -3.1536
   61MOL0     H 8385  11.905  11.238   8.163  1.0335  2.2066  1.6032
   61MOL0     H 8386  11.961  11.448   7.935 -1.5427  3.5630  2.5658
   61MOL0     H 8387  12.060  11.311   7.966 -0.1147  0.1196  0.4830
   61MOL0     H 8388  12.104  11.407   8.199  1.6608 -1.9493 -3.0118
   61MOL0     H 8389  12.012  11.553   8.156 -0.4381 -0.2643  1.7060
   61MOL0     H 8390  12.244  11.436   7.976  0.0503  0.5310 -1.7058
   61MOL0     H 8391  12.179  11.595   7.970 -0.1541 -1.5967 -0.2458
   61MOL0     H 8392  12.396  11.611   8.050  0.1292  1.7600  0.0334
   61MOL0     H 8393  12.368  11.460   8.146 -0.0832  0.0147 -0.3153
   61MOL0     H 8394  12.282  11.581   8.326  2.4351 -1.7526 -0.7329
   61MOL0     H 8395  12.218  11.719   8.236  0.0502  1.1631 -0.5366
   61MOL0     H 8396  12.397  11.803   8.376  0.8485  0.8871 -0.7181
   61MOL0     H 8397  12.472  11.802   8.228  2.1772 -0.0981  0.0899
   61MOL0     H 8398  11.422  11.488   7.958 -0.3158  0.7052  0.6411
   61MOL0     H 8399  11.216  11.401   7.870 -1.0671  0.2899  3.2215
   61MOL0     H 8400  10.953  11.119   7.986 -0.9097  1.6549  0.0822
   61MOL0     H 8401  10.728  11.065   8.017  0.0745  1.1509 -0.2106
   61MOL0     H 8402   9.154  11.032   6.979 -0.8956 -0.2821 -0.9358
   61MOL0     H 8403   8.943  11.093   6.868  1.3680 -3.3125  0.4907
   61MOL0     H 8404   8.470  11.540   7.093 -2.1503  0.0301  0.2654
   61MOL0     H 8405   8.264  11.598   6.976 -1.1190  0.5105 -2.1027
   61MOL0     H 8406   8.002  11.489   6.856  0.9216 -2.2670  0.2433
   61MOL0     H 8407   8.106  11.635   6.858 -3.3205  1.7954 -0.5643
   61MOL0     H 8408   7.904  11.667   6.729  0.1133  0.4675  1.1148
   61MOL0     H 8409   7.931  11.522   6.633  3.1046  0.4824 -2.1309
   61MOL0     H 8410   8.143  11.620   6.539 -2.1350 -3.0189 -1.3646
   61MOL0     H 8411   8.001  11.703   6.486  0.7427  2.5648 -0.0761
   61MOL0     H 8412   8.153  11.878   6.538  2.3330  0.2466  0.6780
   61MOL0     H 8413   8.181  11.805   6.695 -0.9340  1.8885  0.2858
   61MOL0     H 8414   7.815  12.038   6.740  2.4675  1.1402  1.9503
   61MOL0     H 8415   8.343  11.327   6.664  3.4971 -1.0608 -1.0965
   61MOL0     H 8416   8.551  11.116   6.856 -2.7837 -0.6419  0.6902
   61MOL0     H 8417   8.505  11.156   6.687 -0.6203  1.0771  0.0371
   61MOL0     H 8418   8.653  11.217   6.744 -1.4671  1.8279 -4.1232
   62MOL0     O 8419   8.299   4.573   5.946 -0.5449 -0.0665 -0.1968
   62MOL0     C 8420   8.280   4.469   6.002 -0.2187  0.4464 -0.1765
   62MOL0     O 8421   8.377   4.370   6.018  1.0854  1.0958 -1.0577
   62MOL0     C 8422   8.511   4.391   5.984 -0.3560 -0.2805 -0.0319
   62MOL0     C 8423   8.580   4.272   5.978  0.0721  0.5958  0.3278
   62MOL0     C 8424   8.719   4.258   5.954 -0.0950 -0.0319 -0.4849
   62MOL0     C 8425   8.787   4.378   5.959  0.5309  0.7067 -0.1012
   62MOL0     O 8426   8.923   4.364   5.941 -0.2667  0.0355 -0.8459
   62MOL0     C 8427   9.012   4.456   6.007 -0.2093 -0.4973 -0.2862
   62MOL0     C 8428   9.136   4.375   6.042 -1.1153 -0.5389 -0.1911
   62MOL0     C 8429   9.182   4.260   5.937 -0.3843  0.6923  0.4997
   62MOL0     C 8430   9.324   4.205   5.954 -0.1395  0.7190 -0.3273
   62MOL0     C 8431   9.353   4.111   5.839  0.6701  0.1343  0.5709
   62MOL0     C 8432   9.488   4.044   5.851 -0.3799 -0.1435 -0.1302
   62MOL0     C 8433   9.547   4.008   5.714  0.6114  0.1163 -0.2053
   62MOL0     C 8434   9.685   3.952   5.736 -0.6666 -0.1923 -0.1369
   62MOL0     N 8435   9.772   4.033   5.821  0.4477 -0.4071  0.0632
   62MOL0     C 8436   9.810   4.160   5.767  0.3634  0.3507 -0.5339
   62MOL0     C 8437   9.888   4.218   5.867  0.2521 -0.8772 -0.1979
   62MOL0     C 8438   9.934   4.364   5.869  0.3499 -2.2137  0.4050
   62MOL0     C 8439  10.034   4.378   5.754  0.2518 -0.8938 -0.0503
   62MOL0     C 8440  10.092   4.518   5.751 -0.5969 -0.3752 -0.3204
   62MOL0     C 8441  10.219   4.531   5.657  0.7768 -0.9779 -0.2983
   62MOL0     O 8442  10.338   4.567   5.738 -0.0912  0.1422 -0.5700
   62MOL0     C 8443  10.451   4.582   5.664  0.5286 -0.2762  0.5998
   62MOL0     C 8444  10.464   4.559   5.520  0.3706  1.0290 -0.2278
   62MOL0     C 8445  10.590   4.572   5.457 -0.4013 -0.8451 -0.1680
   62MOL0     C 8446  10.594   4.542   5.308 -0.6130  0.1668 -0.1008
   62MOL0     C 8447  10.704   4.630   5.530  0.3687  1.1276  0.6451
   62MOL0     C 8448  10.835   4.657   5.470 -0.0152  1.3254  0.4070
   62MOL0     O 8449  10.906   4.750   5.532 -0.2427  0.2535 -0.2600
   62MOL0     C 8450  11.030   4.785   5.478 -0.2116 -0.9086  0.4050
   62MOL0     C 8451  11.063   4.922   5.483  0.1176 -0.2796 -0.1602
   62MOL0     C 8452  11.181   4.974   5.428  0.4074  0.4536  0.1698
   62MOL0     C 8453  11.281   4.877   5.381 -0.3352 -0.3085 -0.3141
   62MOL0     O 8454  11.402   4.915   5.315  0.1942  0.4577 -0.6870
   62MOL0     C 8455  11.435   5.057   5.335 -0.4133  0.4041 -0.0186
   62MOL0     C 8456  11.569   5.076   5.256  0.4736 -0.0216 -0.3633
   62MOL0     C 8457  11.622   5.227   5.251  0.0473  0.1463  0.2367
   62MOL0     C 8458  11.583   5.281   5.114 -0.4387  0.0848  0.7860
   62MOL0     C 8459  11.623   5.429   5.110  0.4046 -0.5137  0.1931
   62MOL0     C 8460  11.594   5.468   4.969 -0.7606 -1.2113  1.1111
   62MOL0     C 8461  11.617   5.617   4.950  0.7890  0.7464 -0.3802
   62MOL0     C 8462  11.598   5.667   4.805 -0.3833 -0.3466 -0.9555
   62MOL0    Cl 8463  11.617   5.839   4.796  0.1807  0.3264  0.2099
   62MOL0     C 8464  11.247   4.745   5.383  0.4894  0.3206 -0.7148
   62MOL0     C 8465  11.127   4.695   5.425  0.5090 -0.4473 -0.4266
   62MOL0     O 8466  10.864   4.599   5.368  0.1255  0.1458  0.1104
   62MOL0     C 8467  10.689   4.658   5.667 -0.3938  0.1622 -0.0219
   62MOL0     C 8468  10.567   4.629   5.728 -0.6815 -0.2404 -0.5213
   62MOL0     N 8469   9.892   4.132   5.971 -0.4479  0.4087  0.7562
   62MOL0     N 8470   9.821   4.022   5.950 -0.5676  0.6181  0.3775
   62MOL0     C 8471   8.724   4.501   5.970 -0.4104  0.2855 -0.4784
   62MOL0     C 8472   8.588   4.507   5.984 -1.0276  0.0527  0.0056
   62MOL0     C 8473   8.142   4.418   6.033 -0.0260 -0.6042  0.3938
   62MOL0     C 8474   8.030   4.474   5.967  0.6616  0.4043 -0.0445
   62MOL0     C 8475   7.899   4.432   5.994  1.0436 -0.4407 -0.3506
   62MOL0     C 8476   7.882   4.336   6.098  1.1146  0.2148  0.4444
   62MOL0     O 8477   7.744   4.296   6.116 -0.1690  0.2285  0.0354
   62MOL0     C 8478   7.702   4.232   6.235 -0.2000 -0.3280  1.0566
   62MOL0     C 8479   7.548   4.215   6.254  0.1273  0.1384  0.2865
   62MOL0     C 8480   7.516   4.153   6.382  0.1492  0.0965 -0.2092
   62MOL0     C 8481   7.366   4.117   6.400 -0.4903  0.1698 -0.1500
   62MOL0     C 8482   7.338   4.039   6.533 -0.2014  0.0107  0.8014
   62MOL0     C 8483   7.325   3.998   6.645  0.8836 -0.2481 -0.0367
   62MOL0     C 8484   7.983   4.285   6.161  0.0933  0.2357  0.4825
   62MOL0     C 8485   8.119   4.317   6.134 -0.4799  0.2165  1.6808
   62MOL0     C 8486   8.222   4.256   6.222 -0.0712 -0.0437 -0.1374
   62MOL0     H 8487   8.522   4.181   5.987 -0.1263  0.4160 -2.0873
   62MOL0     H 8488   8.773   4.166   5.939  2.1569  1.5606 -3.1625
   62MOL0     H 8489   8.967   4.493   6.099  3.2035  2.0592  0.5707
   62MOL0     H 8490   9.024   4.538   5.935 -0.2486 -0.8438 -0.6914
   62MOL0     H 8491   9.224   4.439   6.051 -0.0580 -2.0215  0.6448
   62MOL0     H 8492   9.126   4.319   6.136 -0.9353  0.8257  0.6596
   62MOL0     H 8493   9.111   4.177   5.940 -0.4651  0.6345 -1.8412
   62MOL0     H 8494   9.180   4.309   5.840 -2.5091  0.3994  0.3466
   62MOL0     H 8495   9.393   4.290   5.958 -0.2557  0.8603 -1.1128
   62MOL0     H 8496   9.307   4.160   6.052 -4.4323 -0.0313 -1.2194
   62MOL0     H 8497   9.348   4.171   5.748  0.3153 -0.8716 -0.0839
   62MOL0     H 8498   9.277   4.033   5.832 -0.6344  1.3245  0.9695
   62MOL0     H 8499   9.560   4.112   5.896 -1.0603 -0.0029  0.7852
   62MOL0     H 8500   9.477   3.952   5.909  1.4599  1.1433  2.4306
   62MOL0     H 8501   9.540   4.094   5.647  0.4842  0.7286  0.5667
   62MOL0     H 8502   9.482   3.934   5.667  1.0910 -1.3324  1.2810
   62MOL0     H 8503   9.683   3.851   5.779  3.4451  0.1074  1.2186
   62MOL0     H 8504   9.722   3.956   5.633 -3.3297  1.1932 -1.1320
   62MOL0     H 8505   9.783   4.201   5.670  0.0184  1.4657  0.0141
   62MOL0     H 8506   9.976   4.402   5.963 -0.1739  1.9545 -0.8413
   62MOL0     H 8507   9.844   4.419   5.840  2.8318  1.0683 -1.8279
   62MOL0     H 8508  10.111   4.301   5.765 -1.0617 -2.5566 -1.7577
   62MOL0     H 8509   9.988   4.366   5.656  0.7121  0.7062 -0.4813
   62MOL0     H 8510  10.019   4.585   5.704 -2.4560 -1.9855  0.1819
   62MOL0     H 8511  10.117   4.557   5.850  0.0052 -0.4219 -0.4519
   62MOL0     H 8512  10.231   4.434   5.609 -2.4948 -3.2747  2.9820
   62MOL0     H 8513  10.207   4.617   5.590  0.0272  0.3033  1.4029
   62MOL0     H 8514  10.375   4.527   5.468  0.3835  1.2642 -0.3974
   62MOL0     H 8515  10.668   4.464   5.286  0.2244  0.8186  0.4122
   62MOL0     H 8516  10.627   4.630   5.252  0.3579 -0.7204 -0.9886
   62MOL0     H 8517  10.492   4.510   5.284 -1.2160  0.4296  1.9260
   62MOL0     H 8518  10.989   4.992   5.522  0.5399 -0.3113  0.7143
   62MOL0     H 8519  11.198   5.081   5.434  2.1379  0.2803 -1.0132
   62MOL0     H 8520  11.360   5.124   5.292  0.6282 -0.2161 -3.0576
   62MOL0     H 8521  11.446   5.075   5.442 -1.2921  0.1941  0.1086
   62MOL0     H 8522  11.638   5.003   5.299 -2.4920 -1.2643  2.7016
   62MOL0     H 8523  11.557   5.040   5.153  0.0706  3.1723 -1.5394
   62MOL0     H 8524  11.730   5.216   5.257 -0.1759 -2.2130  1.3251
   62MOL0     H 8525  11.583   5.289   5.332 -0.5002 -1.5006  1.2899
   62MOL0     H 8526  11.474   5.271   5.104 -0.4462  0.7522  0.1385
   62MOL0     H 8527  11.640   5.230   5.037  2.3717  0.1376  2.6995
   62MOL0     H 8528  11.568   5.492   5.180 -1.2641 -1.6014 -0.0795
   62MOL0     H 8529  11.729   5.440   5.136  0.1724 -0.6617  1.2768
   62MOL0     H 8530  11.493   5.444   4.935 -0.8004  0.6565 -0.2485
   62MOL0     H 8531  11.666   5.415   4.906 -0.0677  2.3873 -1.4235
   62MOL0     H 8532  11.709   5.636   5.006  2.6506  0.6098 -3.1535
   62MOL0     H 8533  11.537   5.654   5.015  0.0801 -2.8290  0.9861
   62MOL0     H 8534  11.504   5.633   4.760 -0.9680  0.2711 -0.2051
   62MOL0     H 8535  11.673   5.631   4.733  0.1788  1.8845 -1.5511
   62MOL0     H 8536  11.310   4.669   5.339 -0.4448 -1.6265  1.1171
   62MOL0     H 8537  11.097   4.591   5.426 -1.5964  0.0859  1.7722
   62MOL0     H 8538  10.776   4.678   5.728  1.8583 -4.8465 -1.0264
   62MOL0     H 8539  10.567   4.646   5.835  3.7150  0.0641 -0.3870
   62MOL0     H 8540   8.780   4.594   5.968 -0.9985  0.8042  2.4551
   62MOL0     H 8541   8.538   4.604   5.987 -0.1651  0.4890  0.7647
   62MOL0     H 8542   8.047   4.559   5.901 -0.1612  2.0669  1.7766
   62MOL0     H 8543   7.818   4.486   5.945  0.7549 -2.9700 -2.9091
   62MOL0     H 8544   7.745   4.131   6.233 -0.2124 -0.3322  0.9981
   62MOL0     H 8545   7.731   4.286   6.326  0.3518 -3.2338  2.7550
   62MOL0     H 8546   7.514   4.147   6.175  1.6815 -0.2505 -0.1001
   62MOL0     H 8547   7.500   4.313   6.247  0.2538  0.2376  0.7957
   62MOL0     H 8548   7.568   4.059   6.400 -3.2617 -2.3645 -1.9797
   62MOL0     H 8549   7.537   4.224   6.462 -0.6456 -0.3246  0.3946
   62MOL0     H 8550   7.319   4.062   6.318 -0.7588  0.8512 -0.4580
   62MOL0     H 8551   7.313   4.211   6.413 -0.4805 -0.0649  1.9060
   62MOL0     H 8552   7.314   3.975   6.749 -0.3848  0.7455  0.0709
   62MOL0     H 8553   7.956   4.203   6.227 -3.1789  0.0574 -0.9239
   62MOL0     H 8554   8.174   4.199   6.302 -0.2093  1.0785  0.6099
   62MOL0     H 8555   8.288   4.192   6.164 -0.8237 -2.2374  1.3127
   62MOL0     H 8556   8.269   4.339   6.274 -1.1230  0.9368 -0.6845
   63MOL0     O 8557  10.944   9.725   2.382 -0.2415  0.8148 -0.3033
   63MOL0     C 8558  10.910   9.644   2.296  0.3087 -0.0331  0.3463
   63MOL0     O 8559  10.986   9.545   2.240 -0.7691  0.3754 -0.4454
   63MOL0     C 8560  11.124   9.547   2.271 -0.0857  0.2074  0.2479
   63MOL0     C 8561  11.188   9.571   2.395  0.8376  0.1787  1.0472
   63MOL0     C 8562  11.325   9.594   2.395  0.5948 -0.2496  0.9834
   63MOL0     C 8563  11.405   9.562   2.285  0.3590 -0.1408  0.0995
   63MOL0     O 8564  11.540   9.563   2.281 -0.1326  0.3622 -0.1768
   63MOL0     C 8565  11.600   9.632   2.395 -0.1826  0.8977 -0.4305
   63MOL0     C 8566  11.746   9.660   2.349 -0.2715 -0.4318 -0.2928
   63MOL0     C 8567  11.794   9.761   2.453  0.6512  0.3205 -0.0962
   63MOL0     C 8568  11.944   9.793   2.446  0.5023  0.2951  0.4694
   63MOL0     C 8569  11.977   9.920   2.368  0.6581  0.4164 -0.1172
   63MOL0     C 8570  11.956   9.897   2.218  0.7230  0.8397  0.3369
   63MOL0     C 8571  12.054   9.980   2.143  0.0768  0.3876 -0.1601
   63MOL0     C 8572  12.041  10.138   2.158  0.5163 -0.2948  0.3464
   63MOL0     N 8573  11.907  10.181   2.112 -0.9189  0.7046  0.3642
   63MOL0     C 8574  11.860  10.154   1.989 -0.0181  0.5444  0.0791
   63MOL0     C 8575  11.727  10.153   2.004  0.6656 -0.7030 -0.4391
   63MOL0     C 8576  11.628  10.095   1.910 -1.1424  0.0591  0.4027
   63MOL0     C 8577  11.620   9.943   1.942 -0.0668  0.2407 -0.0504
   63MOL0     C 8578  11.544   9.897   2.069 -0.6327  0.3043 -0.8650
   63MOL0     C 8579  11.393   9.921   2.050  0.9631  0.7995  0.8670
   63MOL0     O 8580  11.337   9.820   1.964 -0.9686  0.0507 -0.4748
   63MOL0     C 8581  11.209   9.828   1.930 -0.5773  0.5883 -0.3195
   63MOL0     C 8582  11.110   9.900   1.995  0.0432  0.5039  0.4351
   63MOL0     C 8583  10.973   9.888   1.964  0.4101 -0.9168  0.5698
   63MOL0     C 8584  10.861   9.940   2.056  0.6820  0.1587  0.1192
   63MOL0     C 8585  10.939   9.808   1.849  0.1786 -0.5250  0.6259
   63MOL0     C 8586  10.800   9.805   1.796 -0.0790  0.1762  0.5651
   63MOL0     O 8587  10.761   9.685   1.742 -0.0193  0.3005 -0.3699
   63MOL0     C 8588  10.640   9.677   1.676  0.5461  0.2225 -0.0673
   63MOL0     C 8589  10.632   9.637   1.534 -0.2854 -0.4223  1.2183
   63MOL0     C 8590  10.506   9.631   1.469  0.5480 -0.3995  0.5710
   63MOL0     C 8591  10.386   9.661   1.549 -0.1146  0.1743 -0.4194
   63MOL0     O 8592  10.261   9.672   1.491 -0.0647  0.5803  0.3451
   63MOL0     C 8593  10.213   9.573   1.392 -1.0123 -0.6337  0.2205
   63MOL0     C 8594  10.089   9.619   1.333 -0.9149 -0.5349  0.1165
   63MOL0     C 8595   9.984   9.611   1.437  0.2062  0.2096  0.4398
   63MOL0     C 8596   9.852   9.613   1.370  0.1023 -0.1467 -0.3041
   63MOL0     C 8597   9.733   9.654   1.456  0.0075  0.0714  0.0577
   63MOL0     C 8598   9.600   9.631   1.392  0.2761  0.0804 -0.2779
   63MOL0     C 8599   9.497   9.681   1.496 -0.3391  0.0747  0.2763
   63MOL0     C 8600   9.352   9.703   1.441 -0.1333 -0.7363  0.3073
   63MOL0    Cl 8601   9.280   9.553   1.373  0.4003 -0.3272 -0.0441
   63MOL0     C 8602  10.395   9.683   1.689 -0.8291  0.0439 -0.7125
   63MOL0     C 8603  10.525   9.698   1.749  0.7493  0.7258 -0.2476
   63MOL0     O 8604  10.734   9.906   1.804 -0.0708 -0.5121 -0.3405
   63MOL0     C 8605  11.040   9.750   1.771  0.1539  0.1617 -0.3433
   63MOL0     C 8606  11.170   9.750   1.820  0.4192  0.6458 -0.7014
   63MOL0     N 8607  11.703  10.189   2.141 -0.1832 -0.9137  0.9655
   63MOL0     N 8608  11.805  10.210   2.200 -0.2653 -0.4786 -0.1675
   63MOL0     C 8609  11.344   9.526   2.167  0.0603  0.7191 -0.0716
   63MOL0     C 8610  11.200   9.520   2.160  0.0870 -0.0824  0.2279
   63MOL0     C 8611  10.763   9.649   2.259  0.1295 -0.0073 -0.3429
   63MOL0     C 8612  10.715   9.567   2.155  0.0603 -0.0305 -0.1937
   63MOL0     C 8613  10.582   9.556   2.130  0.4880  0.7056 -1.1690
   63MOL0     C 8614  10.486   9.623   2.200  0.2253  0.0713 -0.3964
   63MOL0     O 8615  10.350   9.612   2.182 -0.5484  0.0085  0.4848
   63MOL0     C 8616  10.308   9.511   2.090  0.2570  0.3058  0.4368
   63MOL0     C 8617  10.165   9.533   2.067  0.1498  0.2157 -0.6374
   63MOL0     C 8618  10.111   9.441   1.955 -0.6327 -0.2788 -0.2635
   63MOL0     C 8619   9.964   9.466   1.924  0.4049  0.4660 -0.2686
   63MOL0     C 8620   9.923   9.599   1.870 -0.9582  0.6569 -0.6679
   63MOL0     C 8621   9.904   9.696   1.802  0.1510 -0.5946 -0.2758
   63MOL0     C 8622  10.531   9.714   2.296 -0.4704 -0.1303  0.7743
   63MOL0     C 8623  10.668   9.725   2.332  0.7234  0.7661  0.0943
   63MOL0     C 8624  10.696   9.817   2.441  0.3603 -0.8162  0.6120
   63MOL0     H 8625  11.125   9.598   2.480 -2.1222 -1.1639 -0.5894
   63MOL0     H 8626  11.376   9.625   2.485 -0.9069  0.8773  1.4891
   63MOL0     H 8627  11.594   9.584   2.493 -1.2006 -3.0384 -2.2500
   63MOL0     H 8628  11.545   9.727   2.401 -3.0165 -0.6662 -0.1707
   63MOL0     H 8629  11.809   9.571   2.356  1.2517  0.6172  0.0848
   63MOL0     H 8630  11.751   9.698   2.246 -0.5120  1.0906  0.2252
   63MOL0     H 8631  11.741   9.855   2.439  2.0266  0.9135 -1.7387
   63MOL0     H 8632  11.775   9.726   2.554  1.8399 -0.6438 -0.1784
   63MOL0     H 8633  11.983   9.807   2.547  0.2117 -1.4778  0.8672
   63MOL0     H 8634  12.007   9.718   2.397  0.0387  2.0781 -3.2185
   63MOL0     H 8635  12.081   9.944   2.388  0.5864 -0.5313  1.5179
   63MOL0     H 8636  11.911  10.001   2.403  0.3820  0.0058  0.3156
   63MOL0     H 8637  11.972   9.792   2.191  1.1809  1.2167 -0.9681
   63MOL0     H 8638  11.856   9.931   2.190  1.1491  0.4571 -1.8482
   63MOL0     H 8639  12.063   9.961   2.036  4.9282 -1.1579  0.3091
   63MOL0     H 8640  12.154   9.963   2.184  0.7300  2.3604 -0.8088
   63MOL0     H 8641  12.061  10.168   2.261 -2.5209 -1.5771  1.4098
   63MOL0     H 8642  12.112  10.183   2.088 -2.3504  0.7287 -2.1286
   63MOL0     H 8643  11.918  10.120   1.903 -3.8165 -1.7923 -1.7978
   63MOL0     H 8644  11.660  10.108   1.807 -2.2681  1.2085  0.1689
   63MOL0     H 8645  11.536  10.153   1.922  0.3416  2.5205  0.6026
   63MOL0     H 8646  11.577   9.881   1.862 -2.1800 -0.0888  1.2625
   63MOL0     H 8647  11.722   9.907   1.957 -0.4077 -0.1776  1.3929
   63MOL0     H 8648  11.564   9.793   2.097 -2.3443 -0.2120 -1.4604
   63MOL0     H 8649  11.567   9.954   2.160  1.1326 -2.2254  0.3901
   63MOL0     H 8650  11.354   9.920   2.153 -0.1840 -0.7346  0.4533
   63MOL0     H 8651  11.366  10.022   2.019 -5.4946 -0.8720 -0.2877
   63MOL0     H 8652  11.149   9.941   2.088  1.8516  1.7727 -0.8456
   63MOL0     H 8653  10.760   9.901   2.037  0.3108  0.7883  0.7501
   63MOL0     H 8654  10.850  10.048   2.051 -2.4217  0.0044  1.2233
   63MOL0     H 8655  10.881   9.919   2.161 -1.6117  0.0865  0.6041
   63MOL0     H 8656  10.715   9.606   1.472  0.1588 -0.3093  1.7469
   63MOL0     H 8657  10.492   9.609   1.364  1.5841  1.5098 -0.0205
   63MOL0     H 8658  10.289   9.563   1.313 -1.3045  3.3608 -0.7982
   63MOL0     H 8659  10.207   9.481   1.451  2.7347 -0.6798  0.7861
   63MOL0     H 8660  10.115   9.720   1.300  0.1001 -0.8199 -0.0046
   63MOL0     H 8661  10.072   9.553   1.247 -2.1992  0.1761 -0.1910
   63MOL0     H 8662   9.977   9.698   1.503 -1.5954  1.5698 -1.4116
   63MOL0     H 8663   9.999   9.521   1.498 -1.4598  1.0078  2.1374
   63MOL0     H 8664   9.832   9.510   1.338  0.1480 -0.1775 -0.2318
   63MOL0     H 8665   9.839   9.680   1.285 -1.9319 -1.6588 -1.2811
   63MOL0     H 8666   9.744   9.588   1.542  1.2336 -2.6320 -2.0211
   63MOL0     H 8667   9.741   9.761   1.479  2.7617 -0.6003  2.9273
   63MOL0     H 8668   9.597   9.522   1.384  0.7637  0.0138  0.3407
   63MOL0     H 8669   9.594   9.671   1.291  0.8772 -0.2091 -0.4273
   63MOL0     H 8670   9.529   9.778   1.536 -1.0916 -0.3619  2.0192
   63MOL0     H 8671   9.486   9.623   1.587 -0.2785 -1.0709 -0.4243
   63MOL0     H 8672   9.359   9.776   1.359 -0.3475  0.8341  1.6249
   63MOL0     H 8673   9.281   9.737   1.517 -3.5446 -2.1247 -1.9768
   63MOL0     H 8674  10.299   9.689   1.738 -0.6437  0.6151 -0.4138
   63MOL0     H 8675  10.527   9.709   1.857 -3.3436 -2.7354  0.4465
   63MOL0     H 8676  11.021   9.689   1.683  3.9653 -0.5992 -0.7949
   63MOL0     H 8677  11.247   9.702   1.761 -0.5518 -0.7492 -0.8777
   63MOL0     H 8678  11.406   9.499   2.083  0.6646 -0.1594  0.6412
   63MOL0     H 8679  11.167   9.504   2.058  1.9712 -0.7464 -0.3116
   63MOL0     H 8680  10.794   9.515   2.102 -0.6440  0.0961 -1.3978
   63MOL0     H 8681  10.555   9.477   2.061 -2.0377 -1.0538  1.6202
   63MOL0     H 8682  10.345   9.502   1.988  1.9909  0.0552  1.0592
   63MOL0     H 8683  10.327   9.416   2.139 -0.4262  0.7423  1.5965
   63MOL0     H 8684  10.145   9.634   2.033  0.5407  0.4948 -0.0572
   63MOL0     H 8685  10.111   9.509   2.160  2.7607  1.2489  1.2533
   63MOL0     H 8686  10.174   9.454   1.867  1.1672 -4.3421  0.1752
   63MOL0     H 8687  10.117   9.335   1.982 -1.0357 -1.0070 -2.8073
   63MOL0     H 8688   9.908   9.463   2.018 -3.2213  0.0715 -2.2497
   63MOL0     H 8689   9.923   9.392   1.854  0.6724  0.6382 -0.6101
   63MOL0     H 8690   9.890   9.794   1.760 -4.3506 -0.0608  1.8290
   63MOL0     H 8691  10.457   9.779   2.341 -3.2463 -2.1366 -0.5795
   63MOL0     H 8692  10.728   9.757   2.526  3.3739 -0.6345 -0.2997
   63MOL0     H 8693  10.777   9.888   2.425 -0.1807 -0.4124 -0.4588
   63MOL0     H 8694  10.610   9.876   2.473 -1.3656 -2.0696 -1.4379
   64MOL0     O 8695   5.244  10.639   7.963 -0.3561 -0.4207 -0.1310
   64MOL0     C 8696   5.223  10.712   8.059 -0.2527 -0.1528 -0.6194
   64MOL0     O 8697   5.316  10.777   8.127 -0.0130 -0.1578 -0.2749
   64MOL0     C 8698   5.445  10.744   8.100 -0.5289  0.6109 -1.0314
   64MOL0     C 8699   5.534  10.724   8.212  0.3944 -0.0337 -0.8748
   64MOL0     C 8700   5.669  10.685   8.192  0.8225  0.2335 -1.0088
   64MOL0     C 8701   5.718  10.654   8.064  1.0866 -0.3571 -0.1235
   64MOL0     O 8702   5.842  10.604   8.037 -0.2519 -0.2864 -0.1449
   64MOL0     C 8703   5.904  10.512   8.124  0.3948  0.1741  0.0923
   64MOL0     C 8704   6.034  10.449   8.061 -1.1953  0.3060  0.0631
   64MOL0     C 8705   6.144  10.408   8.167  0.0938 -0.0871  0.2660
   64MOL0     C 8706   6.256  10.333   8.090  0.3930  0.1561  0.4824
   64MOL0     C 8707   6.336  10.256   8.189  0.3800  0.4599 -0.8819
   64MOL0     C 8708   6.415  10.152   8.116  0.9632  0.2482  0.6723
   64MOL0     C 8709   6.509  10.077   8.212  0.5335 -0.0318  0.4916
   64MOL0     C 8710   6.628  10.150   8.263 -0.3375  0.2435 -0.0029
   64MOL0     N 8711   6.700  10.077   8.375  0.0166 -0.2127 -1.3765
   64MOL0     C 8712   6.636  10.018   8.487 -0.4167  0.3092 -0.3502
   64MOL0     C 8713   6.741   9.960   8.553  0.8355  0.6765 -0.4399
   64MOL0     C 8714   6.746   9.893   8.689  0.2353  0.2745 -0.1887
   64MOL0     C 8715   6.667   9.982   8.789  1.1490 -0.8743  0.3484
   64MOL0     C 8716   6.679   9.948   8.941 -0.5260 -1.2447  0.3356
   64MOL0     C 8717   6.582   9.838   8.994  0.0616 -0.0184  0.1346
   64MOL0     O 8718   6.603   9.716   8.921  0.8232 -0.1345  0.1446
   64MOL0     C 8719   6.699   9.627   8.970  0.1126  0.5050 -0.0533
   64MOL0     C 8720   6.697   9.496   8.923 -0.6732 -0.0143 -0.4751
   64MOL0     C 8721   6.801   9.401   8.951  1.0477 -0.2065  0.2454
   64MOL0     C 8722   6.788   9.278   8.875  0.3593 -0.3823 -0.2582
   64MOL0     C 8723   6.911   9.437   9.033  0.8131  0.5185  0.8608
   64MOL0     C 8724   7.019   9.352   9.071 -1.3600  0.4160 -0.0428
   64MOL0     O 8725   7.034   9.232   9.003 -0.0903  0.1312 -0.1232
   64MOL0     C 8726   7.128   9.147   9.048 -0.0054 -0.2945 -0.0503
   64MOL0     C 8727   7.088   9.026   9.101  0.0355 -0.8224 -0.4286
   64MOL0     C 8728   7.181   8.941   9.142  0.0114  0.7724 -0.3795
   64MOL0     C 8729   7.315   8.973   9.129  0.5570  0.8480 -0.6104
   64MOL0     O 8730   7.408   8.876   9.163  0.1244  0.2042 -0.1617
   64MOL0     C 8731   7.376   8.795   9.274  0.0146  0.0921  0.4712
   64MOL0     C 8732   7.493   8.706   9.318  0.0325 -0.7280  0.2378
   64MOL0     C 8733   7.565   8.641   9.200 -0.5352  0.4900  0.5446
   64MOL0     C 8734   7.685   8.561   9.241  0.3088  0.5974 -0.2460
   64MOL0     C 8735   7.764   8.499   9.121  0.2249  0.7786  0.5585
   64MOL0     C 8736   7.877   8.589   9.082  0.0464 -0.7393 -0.0969
   64MOL0     C 8737   7.968   8.533   8.973 -0.2122 -0.0707 -0.0680
   64MOL0     C 8738   8.057   8.653   8.923  0.4686  0.6948  0.5668
   64MOL0    Cl 8739   8.171   8.597   8.809  0.2453  0.1538 -0.0589
   64MOL0     C 8740   7.362   9.090   9.074 -0.2585  0.3130 -0.2565
   64MOL0     C 8741   7.266   9.179   9.028  1.5623  0.2134 -0.2406
   64MOL0     O 8742   7.082   9.377   9.176 -0.4014 -0.7746  0.0388
   64MOL0     C 8743   6.897   9.564   9.088 -0.6791  0.2783 -0.0411
   64MOL0     C 8744   6.799   9.657   9.057 -0.3382 -0.1446 -0.1260
   64MOL0     N 8745   6.852   9.992   8.484 -0.8216  0.7673 -0.2938
   64MOL0     N 8746   6.833  10.043   8.371  0.6080 -0.3664 -0.2424
   64MOL0     C 8747   5.632  10.693   7.954  0.4067  0.2746 -0.1640
   64MOL0     C 8748   5.501  10.744   7.969  0.4587  0.3212 -0.8541
   64MOL0     C 8749   5.086  10.751   8.087  0.2214 -0.3831 -0.5586
   64MOL0     C 8750   4.982  10.666   8.055  0.1682 -0.7113 -0.6415
   64MOL0     C 8751   4.849  10.696   8.072  0.3541 -0.2347 -0.5490
   64MOL0     C 8752   4.815  10.808   8.152 -1.2245  0.1340  0.5783
   64MOL0     O 8753   4.688  10.840   8.198  0.2347  0.5168  0.0171
   64MOL0     C 8754   4.582  10.777   8.129  0.7422 -0.2690  0.6860
   64MOL0     C 8755   4.448  10.851   8.155  0.1054  0.6718  0.0830
   64MOL0     C 8756   4.401  10.847   8.309 -0.5224 -0.0988  0.1619
   64MOL0     C 8757   4.259  10.903   8.333 -0.1636 -0.2499  0.1951
   64MOL0     C 8758   4.255  11.036   8.272 -0.5635 -0.3645  0.6723
   64MOL0     C 8759   4.242  11.141   8.220 -0.1189  0.3315  0.2761
   64MOL0     C 8760   4.916  10.895   8.191  0.4245  0.2399  0.2547
   64MOL0     C 8761   5.047  10.877   8.151  0.3272  0.6619  0.1760
   64MOL0     C 8762   5.148  10.977   8.204  0.1656 -0.0599 -0.1572
   64MOL0     H 8763   5.487  10.727   8.310 -2.7456  0.6865 -2.2565
   64MOL0     H 8764   5.732  10.653   8.275 -2.1960 -0.3173  1.2681
   64MOL0     H 8765   5.838  10.427   8.145  1.2319 -0.1985  1.3275
   64MOL0     H 8766   5.921  10.571   8.215 -1.3878 -0.3826  0.8448
   64MOL0     H 8767   5.999  10.355   8.015 -2.4429  0.6089  0.3517
   64MOL0     H 8768   6.077  10.511   7.982 -0.4500  1.3591  1.2542
   64MOL0     H 8769   6.184  10.490   8.228  2.0747  0.0626 -1.1489
   64MOL0     H 8770   6.100  10.348   8.247  3.1223 -1.2973  1.1507
   64MOL0     H 8771   6.216  10.257   8.023 -0.2960  0.6869  0.2830
   64MOL0     H 8772   6.324  10.399   8.035  1.7805 -0.3832  1.4887
   64MOL0     H 8773   6.278  10.215   8.272 -1.5371  0.2535 -2.2674
   64MOL0     H 8774   6.406  10.329   8.232  1.0762  0.7631 -2.4751
   64MOL0     H 8775   6.354  10.077   8.064  2.6488 -1.7260  1.3723
   64MOL0     H 8776   6.468  10.195   8.031 -2.1009  1.4588 -0.7371
   64MOL0     H 8777   6.545   9.985   8.164 -1.4893 -0.7945  0.3614
   64MOL0     H 8778   6.451  10.057   8.302  0.3711  1.1867  0.6751
   64MOL0     H 8779   6.684  10.165   8.170 -3.2066  0.3299 -1.8378
   64MOL0     H 8780   6.608  10.249   8.305  1.5487  0.4452  0.5215
   64MOL0     H 8781   6.534  10.022   8.524  0.5908 -0.8650  2.9179
   64MOL0     H 8782   6.852   9.885   8.716 -0.1427  1.4037  1.7748
   64MOL0     H 8783   6.697   9.795   8.690  1.5969 -0.4582 -0.9969
   64MOL0     H 8784   6.689  10.088   8.775  0.0052 -0.4636  1.5654
   64MOL0     H 8785   6.559   9.980   8.768  0.3888  2.9104  2.8880
   64MOL0     H 8786   6.779   9.906   8.957  0.5542  1.2953  0.5765
   64MOL0     H 8787   6.671  10.039   9.000  0.7342 -1.1533  0.3847
   64MOL0     H 8788   6.603   9.831   9.101 -0.6834  0.3803  0.3177
   64MOL0     H 8789   6.476   9.865   8.982 -0.0627  0.3454  1.7920
   64MOL0     H 8790   6.611   9.477   8.859 -0.8701  1.6348 -0.7587
   64MOL0     H 8791   6.823   9.305   8.775  1.4041  2.0494  0.6829
   64MOL0     H 8792   6.680   9.256   8.870  0.0100  1.4136 -1.3662
   64MOL0     H 8793   6.840   9.187   8.907  0.7979 -0.5044 -1.3038
   64MOL0     H 8794   6.984   9.000   9.113  0.7217 -2.4768  3.2753
   64MOL0     H 8795   7.139   8.853   9.190 -2.1118  0.5601 -2.4263
   64MOL0     H 8796   7.332   8.858   9.352  0.7242  0.6960  0.3984
   64MOL0     H 8797   7.297   8.726   9.243  0.2063  0.3657 -0.6655
   64MOL0     H 8798   7.561   8.764   9.381 -2.0146 -0.0374  1.9036
   64MOL0     H 8799   7.440   8.629   9.374 -0.9944 -0.7411 -0.7099
   64MOL0     H 8800   7.589   8.717   9.126 -2.6680  0.7604  0.0945
   64MOL0     H 8801   7.494   8.569   9.157  1.2340 -2.0786  1.6240
   64MOL0     H 8802   7.647   8.475   9.297 -0.4482  0.6610 -0.6426
   64MOL0     H 8803   7.743   8.610   9.320  0.4413  0.6725 -0.3905
   64MOL0     H 8804   7.815   8.407   9.152  0.2587  0.3816 -0.6400
   64MOL0     H 8805   7.695   8.474   9.040  1.4569 -1.4088  0.0994
   64MOL0     H 8806   7.938   8.604   9.172  0.7122 -2.7908 -0.1460
   64MOL0     H 8807   7.829   8.684   9.058  0.7985  0.2623  2.1225
   64MOL0     H 8808   7.917   8.490   8.886  2.7273 -1.7844 -1.1006
   64MOL0     H 8809   8.029   8.451   9.011 -1.8223 -1.7233 -0.8906
   64MOL0     H 8810   8.109   8.702   9.006  2.7209  0.5273 -0.6684
   64MOL0     H 8811   8.000   8.737   8.881 -2.4844 -1.4235 -0.0662
   64MOL0     H 8812   7.466   9.116   9.057 -0.3597  0.7624 -0.2083
   64MOL0     H 8813   7.276   9.275   8.978 -0.6441  0.2789 -0.6789
   64MOL0     H 8814   6.972   9.595   9.160 -1.6776  1.8508  0.3789
   64MOL0     H 8815   6.814   9.750   9.111 -2.7552 -0.4699  1.2725
   64MOL0     H 8816   5.677  10.671   7.857 -1.1744  0.1704 -0.9034
   64MOL0     H 8817   5.443  10.758   7.878  0.8604 -0.2293 -1.2027
   64MOL0     H 8818   4.999  10.568   8.012  1.4374 -0.7729 -0.0595
   64MOL0     H 8819   4.774  10.628   8.032 -0.2637  0.9160 -1.4331
   64MOL0     H 8820   4.593  10.783   8.020  0.4054 -2.4996  0.4822
   64MOL0     H 8821   4.568  10.673   8.162 -0.4045 -0.4673 -0.3362
   64MOL0     H 8822   4.366  10.814   8.093 -1.7283  0.8389  2.2840
   64MOL0     H 8823   4.458  10.956   8.126 -1.2595  0.5345 -0.9844
   64MOL0     H 8824   4.398  10.742   8.340  2.0735 -0.1877  0.3225
   64MOL0     H 8825   4.467  10.905   8.374 -1.1003  1.9167 -0.9546
   64MOL0     H 8826   4.239  10.924   8.438 -0.9678 -1.5114  0.3081
   64MOL0     H 8827   4.185  10.828   8.302 -0.3801 -0.2595  0.7232
   64MOL0     H 8828   4.237  11.240   8.179  1.1675 -0.1889 -1.2644
   64MOL0     H 8829   4.887  10.975   8.257  2.3474  3.4165 -2.4065
   64MOL0     H 8830   5.204  10.936   8.289 -1.1621 -1.0381  0.2624
   64MOL0     H 8831   5.225  11.013   8.134  4.0026 -5.1378  0.8655
   64MOL0     H 8832   5.086  11.060   8.240 -0.0275  0.3214 -1.3354
   65MOL0     O 8833   8.544   3.744   4.844  0.8744 -0.0607  0.5971
   65MOL0     C 8834   8.470   3.652   4.882  0.0852  1.1822  0.1660
   65MOL0     O 8835   8.511   3.519   4.899 -0.1484  0.7119  0.1480
   65MOL0     C 8836   8.646   3.481   4.874 -0.5433  0.7707  0.2494
   65MOL0     C 8837   8.752   3.536   4.944  0.9408  0.7385  0.0826
   65MOL0     C 8838   8.881   3.485   4.914 -0.0681 -0.5727  1.1947
   65MOL0     C 8839   8.904   3.391   4.814 -1.0556 -0.1463 -0.0457
   65MOL0     O 8840   9.041   3.357   4.790  0.0517  0.3364  0.4341
   65MOL0     C 8841   9.069   3.215   4.798  0.7267 -0.1467 -0.1195
   65MOL0     C 8842   9.192   3.192   4.869  0.5591 -0.0334 -0.1948
   65MOL0     C 8843   9.315   3.274   4.846  1.0480  0.5304 -0.7574
   65MOL0     C 8844   9.306   3.407   4.921  0.1180 -0.5022  0.5084
   65MOL0     C 8845   9.438   3.462   4.961  0.2462  0.3827 -0.0856
   65MOL0     C 8846   9.519   3.375   5.058  0.1160 -0.1856 -0.2786
   65MOL0     C 8847   9.648   3.451   5.110  0.5159  0.9523 -0.3021
   65MOL0     C 8848   9.747   3.507   5.002  0.7893  0.5437  0.1664
   65MOL0     N 8849   9.882   3.478   5.041 -0.0892  0.1865 -0.7124
   65MOL0     C 8850   9.925   3.501   5.171  0.1484 -0.6064 -0.2757
   65MOL0     C 8851  10.050   3.459   5.179 -0.6354  0.0377  0.3334
   65MOL0     C 8852  10.122   3.461   5.310 -1.0233  0.4551 -0.1848
   65MOL0     C 8853  10.228   3.357   5.333  0.0898  0.5067  0.1160
   65MOL0     C 8854  10.348   3.366   5.227  0.2017  0.0528 -0.2861
   65MOL0     C 8855  10.469   3.272   5.251  0.4228  0.3280  0.3822
   65MOL0     O 8856  10.556   3.302   5.141 -0.1226 -0.0807 -0.6882
   65MOL0     C 8857  10.683   3.344   5.160 -0.3146 -0.2921 -0.6769
   65MOL0     C 8858  10.771   3.302   5.263  0.2646  0.7987  0.7353
   65MOL0     C 8859  10.906   3.346   5.277  0.4648  0.3305 -0.2954
   65MOL0     C 8860  10.994   3.294   5.396 -0.0328 -0.0779 -0.3225
   65MOL0     C 8861  10.950   3.443   5.182  0.8062 -0.5410  0.1889
   65MOL0     C 8862  11.080   3.506   5.186 -0.4016  0.1331 -0.6625
   65MOL0     O 8863  11.188   3.420   5.224  0.0615  0.2081  0.0677
   65MOL0     C 8864  11.307   3.481   5.215 -0.1068 -0.4738 -0.6739
   65MOL0     C 8865  11.358   3.521   5.088 -0.3549 -0.1660 -0.0486
   65MOL0     C 8866  11.478   3.599   5.087  0.2909  0.1229  0.2738
   65MOL0     C 8867  11.554   3.621   5.197  0.4403 -0.5102  0.0831
   65MOL0     O 8868  11.669   3.696   5.209  0.7088 -0.3175  0.3305
   65MOL0     C 8869  11.765   3.679   5.102 -0.3686 -0.1873  0.5991
   65MOL0     C 8870  11.895   3.735   5.136 -0.1879  0.4855 -0.3246
   65MOL0     C 8871  12.002   3.706   5.023  0.4981 -0.2616 -0.6051
   65MOL0     C 8872  12.115   3.816   5.036  0.0308 -0.2695 -0.1084
   65MOL0     C 8873  12.236   3.763   4.974 -0.4038  1.1065 -0.1738
   65MOL0     C 8874  12.216   3.715   4.827 -0.1031  1.0776 -0.8962
   65MOL0     C 8875  12.351   3.714   4.749  0.3497 -0.0898 -0.1376
   65MOL0     C 8876  12.320   3.691   4.606  0.7170 -0.5164  0.3523
   65MOL0    Cl 8877  12.474   3.664   4.522  0.4475  0.4184  0.0919
   65MOL0     C 8878  11.505   3.575   5.321 -0.8517  0.0614 -0.3824
   65MOL0     C 8879  11.380   3.511   5.333  0.9024 -0.1822  1.0623
   65MOL0     O 8880  11.082   3.625   5.152 -0.2060  0.4554  0.4646
   65MOL0     C 8881  10.856   3.499   5.083 -0.2331 -0.5764 -0.5771
   65MOL0     C 8882  10.729   3.441   5.070 -0.3410  0.0662 -0.5105
   65MOL0     N 8883  10.085   3.407   5.057 -1.0119  0.2573 -0.3348
   65MOL0     N 8884   9.979   3.414   4.982 -0.2141  0.6162  0.2728
   65MOL0     C 8885   8.801   3.340   4.741  0.3454  0.3330  0.9775
   65MOL0     C 8886   8.666   3.383   4.771 -1.0102  0.0676 -1.0696
   65MOL0     C 8887   8.326   3.696   4.898 -0.2131  0.2455  0.2730
   65MOL0     C 8888   8.298   3.834   4.933 -0.4784 -0.0373  0.2700
   65MOL0     C 8889   8.168   3.879   4.950  0.6199 -0.9318 -0.9722
   65MOL0     C 8890   8.059   3.799   4.919 -0.0985  0.3753 -1.4416
   65MOL0     O 8891   7.933   3.841   4.949 -0.1151 -0.3079 -0.1747
   65MOL0     C 8892   7.851   3.852   4.832 -0.0322  0.0124 -0.0696
   65MOL0     C 8893   7.861   3.992   4.783  0.2082 -1.0318 -0.6646
   65MOL0     C 8894   7.832   4.107   4.880 -0.0146  0.2365 -0.3019
   65MOL0     C 8895   7.887   4.237   4.822 -0.0608 -0.0793  0.5587
   65MOL0     C 8896   7.844   4.357   4.907 -0.5431  0.1958 -0.5976
   65MOL0     C 8897   7.813   4.462   4.965  0.7165 -0.0320  0.2920
   65MOL0     C 8898   8.089   3.668   4.884 -0.3641  0.4117  0.3750
   65MOL0     C 8899   8.219   3.617   4.874  0.0474  0.1071 -0.2916
   65MOL0     C 8900   8.231   3.476   4.826  0.7200  0.1855 -0.9331
   65MOL0     H 8901   8.725   3.606   5.023 -1.9734 -1.4594  1.2301
   65MOL0     H 8902   8.972   3.530   4.952  2.4512 -2.3408 -2.1071
   65MOL0     H 8903   9.087   3.186   4.695 -5.5273 -0.9943 -1.3853
   65MOL0     H 8904   8.984   3.157   4.834  0.6053  1.2838  2.1046
   65MOL0     H 8905   9.171   3.202   4.976 -3.7051  0.4177 -0.8956
   65MOL0     H 8906   9.219   3.088   4.851  0.1249 -0.3284  0.8110
   65MOL0     H 8907   9.400   3.216   4.884  0.8384 -1.2154 -2.7711
   65MOL0     H 8908   9.324   3.295   4.739  0.1572 -1.2788 -1.2278
   65MOL0     H 8909   9.250   3.470   4.852  0.9344 -1.2412 -0.8696
   65MOL0     H 8910   9.247   3.393   5.012  0.2179 -0.0203  0.6518
   65MOL0     H 8911   9.413   3.551   5.018 -2.2997 -0.6133  0.4854
   65MOL0     H 8912   9.491   3.480   4.867 -2.5390  5.2714 -1.0121
   65MOL0     H 8913   9.463   3.355   5.150  1.5504  0.5925  0.8124
   65MOL0     H 8914   9.554   3.284   5.009  0.2422 -0.3093  0.0398
   65MOL0     H 8915   9.695   3.369   5.165 -0.4211  1.3805  1.2180
   65MOL0     H 8916   9.615   3.531   5.177 -2.8330 -0.8667  0.4633
   65MOL0     H 8917   9.732   3.453   4.908 -0.7878 -2.1802  1.8886
   65MOL0     H 8918   9.727   3.613   4.982  1.1143  1.0088  2.1583
   65MOL0     H 8919   9.879   3.553   5.255  0.0807  1.8025 -1.7343
   65MOL0     H 8920  10.046   3.459   5.389 -0.9869  3.5319  0.0503
   65MOL0     H 8921  10.173   3.558   5.310  0.1682 -0.1439  1.1213
   65MOL0     H 8922  10.259   3.364   5.438 -3.7802 -3.2734  1.7751
   65MOL0     H 8923  10.181   3.259   5.327  2.4061 -0.6433 -0.8467
   65MOL0     H 8924  10.312   3.344   5.126  0.0513 -0.6094 -0.0943
   65MOL0     H 8925  10.388   3.467   5.216 -1.4193  0.5033 -3.1329
   65MOL0     H 8926  10.505   3.304   5.350 -1.3587 -0.9392  1.5010
   65MOL0     H 8927  10.456   3.163   5.250 -1.5345  0.5313 -0.5940
   65MOL0     H 8928  10.739   3.237   5.344  1.8874  0.2827  0.9836
   65MOL0     H 8929  11.041   3.382   5.443  2.0842  0.6964 -3.5144
   65MOL0     H 8930  11.063   3.215   5.364 -1.7988 -1.2588 -1.4006
   65MOL0     H 8931  10.927   3.243   5.465  1.7997  0.5567  2.0559
   65MOL0     H 8932  11.297   3.501   5.001 -2.8515 -1.6618  1.8896
   65MOL0     H 8933  11.508   3.642   4.991 -0.1552  0.3842  0.2473
   65MOL0     H 8934  11.771   3.573   5.077 -1.5582 -0.4067  1.1778
   65MOL0     H 8935  11.733   3.739   5.016 -0.1947 -0.2103  0.5166
   65MOL0     H 8936  11.890   3.843   5.153 -3.0167  0.7019 -1.8977
   65MOL0     H 8937  11.940   3.685   5.222 -0.7170 -2.3387 -1.5756
   65MOL0     H 8938  11.952   3.704   4.925  0.1575  2.0642 -0.5411
   65MOL0     H 8939  12.043   3.607   5.044 -2.7371 -1.4314  0.7914
   65MOL0     H 8940  12.124   3.834   5.143  1.0593  0.4820 -0.3018
   65MOL0     H 8941  12.084   3.911   4.992 -0.3767  1.4704  3.5403
   65MOL0     H 8942  12.306   3.848   4.974  0.8027  0.1563 -1.7371
   65MOL0     H 8943  12.277   3.687   5.042  0.4666  0.8595 -0.9581
   65MOL0     H 8944  12.157   3.793   4.778  0.7400  1.6871 -0.9616
   65MOL0     H 8945  12.166   3.617   4.820  0.9030  0.5802 -1.3887
   65MOL0     H 8946  12.420   3.634   4.777 -3.3011 -5.1582 -3.6102
   65MOL0     H 8947  12.397   3.813   4.751 -1.2671  0.7051 -0.6750
   65MOL0     H 8948  12.266   3.775   4.560 -0.5413 -1.8673 -0.7460
   65MOL0     H 8949  12.263   3.601   4.579  1.5388 -0.3105 -2.3401
   65MOL0     H 8950  11.562   3.593   5.411  0.7205 -2.8013 -0.6845
   65MOL0     H 8951  11.338   3.463   5.421  0.2183 -0.0688  0.8052
   65MOL0     H 8952  10.883   3.573   5.008  0.5596  1.1846  1.3631
   65MOL0     H 8953  10.665   3.476   4.989  0.1723 -1.5531 -1.6669
   65MOL0     H 8954   8.819   3.264   4.666  1.0888  2.4332 -1.0991
   65MOL0     H 8955   8.585   3.369   4.700 -0.1682  4.0363 -3.0989
   65MOL0     H 8956   8.376   3.907   4.948  0.6062 -0.8080 -1.3886
   65MOL0     H 8957   8.144   3.982   4.973 -1.5512 -1.4062 -0.9178
   65MOL0     H 8958   7.872   3.777   4.756 -1.7050  0.2739 -0.8306
   65MOL0     H 8959   7.747   3.823   4.854  1.1826 -3.0618  2.4928
   65MOL0     H 8960   7.805   4.016   4.692 -3.8444  1.4682  2.1858
   65MOL0     H 8961   7.966   3.990   4.753  0.3780 -3.4423 -0.1368
   65MOL0     H 8962   7.723   4.120   4.890 -0.4869 -3.1721  0.1894
   65MOL0     H 8963   7.871   4.087   4.980 -0.6631 -0.0208 -0.0920
   65MOL0     H 8964   7.849   4.258   4.722 -0.2462  0.6726  0.7793
   65MOL0     H 8965   7.996   4.238   4.820 -0.0332 -1.5378 -1.3186
   65MOL0     H 8966   7.785   4.542   5.030  1.1833 -1.1084  1.9056
   65MOL0     H 8967   8.009   3.595   4.877  0.0381  0.0672 -0.7371
   65MOL0     H 8968   8.245   3.407   4.909 -0.4047 -0.4697 -1.2627
   65MOL0     H 8969   8.136   3.454   4.776 -2.0793  0.6263  3.6482
   65MOL0     H 8970   8.306   3.468   4.747  0.2193  0.2061 -1.4202
   66MOL0     O 8971   9.574   0.948   4.006 -0.3911  0.0118 -0.5175
   66MOL0     C 8972   9.555   0.851   3.934  0.2205 -0.0090  0.0229
   66MOL0     O 8973   9.658   0.788   3.865  0.3490  0.7536  0.4221
   66MOL0     C 8974   9.788   0.806   3.923  0.4136  1.0774 -0.0599
   66MOL0     C 8975   9.886   0.871   3.851  0.0291  0.1227 -0.1829
   66MOL0     C 8976  10.009   0.894   3.906 -0.4361 -0.3742 -0.3674
   66MOL0     C 8977  10.042   0.824   4.019 -0.2610 -0.1246  0.2267
   66MOL0     O 8978  10.173   0.821   4.056 -0.0592 -0.7780  0.4278
   66MOL0     C 8979  10.221   0.716   4.143 -0.4451  0.0548 -0.3843
   66MOL0     C 8980  10.362   0.736   4.189  0.3662 -0.4892 -0.4554
   66MOL0     C 8981  10.401   0.614   4.271  0.4336 -0.5188  1.3985
   66MOL0     C 8982  10.549   0.636   4.309 -0.3038  0.0968  0.0499
   66MOL0     C 8983  10.621   0.524   4.394 -0.6446  1.1656 -0.1757
   66MOL0     C 8984  10.621   0.388   4.323  0.5114  0.4350 -0.3077
   66MOL0     C 8985  10.709   0.283   4.391  0.4734 -0.0919 -0.5669
   66MOL0     C 8986  10.859   0.295   4.347  0.4558  0.3026  0.2513
   66MOL0     N 8987  10.866   0.231   4.213 -0.4081 -0.3425 -0.1867
   66MOL0     C 8988  10.870   0.099   4.176 -0.5587 -0.0107  0.0072
   66MOL0     C 8989  10.884   0.093   4.046  0.5424 -0.6180 -0.3332
   66MOL0     C 8990  10.905  -0.043   3.981 -1.4953  0.0568  0.2953
   66MOL0     C 8991  11.063  -0.089   3.961 -0.8520 -1.0801  0.3693
   66MOL0     C 8992  11.093  -0.192   3.856 -0.6480  0.1181 -0.3919
   66MOL0     C 8993  11.245  -0.211   3.837 -0.1136  0.6259 -0.4953
   66MOL0     O 8994  11.320  -0.095   3.787  0.6452 -0.1694 -0.0390
   66MOL0     C 8995  11.437  -0.108   3.722 -0.0488 -0.2531  0.7507
   66MOL0     C 8996  11.485   0.007   3.664  0.4754 -0.3534  0.2119
   66MOL0     C 8997  11.618   0.015   3.614  0.8263  0.5240 -0.2141
   66MOL0     C 8998  11.666   0.156   3.561 -0.1666  0.4660 -0.5816
   66MOL0     C 8999  11.702  -0.102   3.608  0.0530 -0.3937 -0.0518
   66MOL0     C 9000  11.849  -0.104   3.559 -0.4722 -0.4756 -0.3897
   66MOL0     O 9001  11.931  -0.207   3.604  0.4570  0.2140  0.5383
   66MOL0     C 9002  12.064  -0.210   3.592  0.1325 -0.7956  0.9315
   66MOL0     C 9003  12.141  -0.098   3.633  0.1983  0.6878 -0.1033
   66MOL0     C 9004  12.281  -0.097   3.611 -0.0871  0.0237  1.1704
   66MOL0     C 9005  12.341  -0.217   3.555 -0.0063 -0.5702  1.0047
   66MOL0     O 9006  12.472  -0.233   3.526 -0.5874  0.8130  0.5764
   66MOL0     C 9007  12.536  -0.108   3.498  0.4236 -0.6593 -0.6057
   66MOL0     C 9008  12.670  -0.108   3.424 -0.4849 -0.3367  0.5838
   66MOL0     C 9009  12.729   0.035   3.432 -0.0235  0.5161 -0.3347
   66MOL0     C 9010  12.841   0.062   3.319 -0.9291 -0.5400 -0.2509
   66MOL0     C 9011  12.889   0.207   3.333 -0.2704 -0.1026 -0.0284
   66MOL0     C 9012  12.939   0.274   3.202  0.3820 -0.5810 -0.0999
   66MOL0     C 9013  12.966   0.429   3.218 -0.1311  0.7692 -0.1259
   66MOL0     C 9014  12.981   0.499   3.078 -0.0533 -0.0788  0.0396
   66MOL0    Cl 9015  13.008   0.669   3.083 -0.4767 -0.1415  0.2389
   66MOL0     C 9016  12.261  -0.323   3.508 -0.5406 -0.1802  0.0760
   66MOL0     C 9017  12.123  -0.317   3.528  0.7987 -0.4816 -0.4690
   66MOL0     O 9018  11.886  -0.013   3.482  0.1607  0.7670  0.3304
   66MOL0     C 9019  11.651  -0.224   3.667 -0.2786 -0.8153  0.8444
   66MOL0     C 9020  11.522  -0.220   3.733  0.1007 -0.4301 -0.4089
   66MOL0     N 9021  10.895   0.217   3.994  0.4015 -0.9617  0.5630
   66MOL0     N 9022  10.896   0.302   4.099  0.4756  0.2197 -0.8676
   66MOL0     C 9023   9.949   0.742   4.095  0.3835 -0.1808 -0.4881
   66MOL0     C 9024   9.824   0.735   4.044 -0.3022 -0.0889 -0.1825
   66MOL0     C 9025   9.415   0.820   3.899  0.2197 -0.6093 -1.0945
   66MOL0     C 9026   9.323   0.836   3.999 -0.2061  0.2776 -0.2123
   66MOL0     C 9027   9.188   0.787   3.980 -0.4974 -0.3282  0.8112
   66MOL0     C 9028   9.151   0.727   3.862 -0.5819  0.9150  0.5019
   66MOL0     O 9029   9.027   0.679   3.829 -0.5507  0.4601 -0.1249
   66MOL0     C 9030   8.914   0.690   3.922 -0.2852 -0.4520 -0.5463
   66MOL0     C 9031   8.924   0.600   4.045 -0.1494  0.4088  0.3819
   66MOL0     C 9032   8.917   0.447   3.993 -0.0139  0.4082  0.0694
   66MOL0     C 9033   8.939   0.343   4.100  0.0466 -0.2862  0.8171
   66MOL0     C 9034   9.076   0.339   4.152  0.3215 -0.0480  0.5911
   66MOL0     C 9035   9.191   0.331   4.194 -0.7066 -0.0640 -0.5277
   66MOL0     C 9036   9.247   0.702   3.764  0.9680  0.0517 -0.1452
   66MOL0     C 9037   9.381   0.743   3.787 -0.1617  0.4421  0.0673
   66MOL0     C 9038   9.476   0.695   3.681 -0.2591  0.2585 -0.5406
   66MOL0     H 9039   9.855   0.910   3.754 -2.0163 -0.1374  0.3309
   66MOL0     H 9040  10.089   0.944   3.851  0.8563 -1.8620  0.0810
   66MOL0     H 9041  10.218   0.622   4.088  1.6077  0.2289 -0.8757
   66MOL0     H 9042  10.164   0.704   4.236  0.5979  1.1415  0.4288
   66MOL0     H 9043  10.430   0.741   4.103 -1.0423  0.0122 -1.5906
   66MOL0     H 9044  10.377   0.826   4.250 -1.0505  1.0594 -2.2360
   66MOL0     H 9045  10.338   0.595   4.358 -1.1896 -0.7447  0.2226
   66MOL0     H 9046  10.396   0.531   4.200 -1.5877  0.4177  0.3580
   66MOL0     H 9047  10.609   0.635   4.217  0.5604 -1.3052  0.6004
   66MOL0     H 9048  10.547   0.733   4.360 -4.0506 -0.4645  1.2157
   66MOL0     H 9049  10.572   0.519   4.491 -4.1708 -1.0756 -1.8595
   66MOL0     H 9050  10.723   0.559   4.412  1.4782 -3.8709 -0.5956
   66MOL0     H 9051  10.516   0.360   4.337  1.0245 -0.5898  2.0810
   66MOL0     H 9052  10.640   0.395   4.216 -0.1782  2.2091 -0.3505
   66MOL0     H 9053  10.678   0.178   4.388  0.8798 -0.3323  1.7530
   66MOL0     H 9054  10.714   0.298   4.500 -1.1893  1.4700 -0.6582
   66MOL0     H 9055  10.873   0.404   4.351 -0.4516  0.4603 -0.3298
   66MOL0     H 9056  10.926   0.246   4.418 -2.3985 -0.8257  2.3877
   66MOL0     H 9057  10.882   0.018   4.247  0.5029 -0.7921 -1.0196
   66MOL0     H 9058  10.865  -0.046   3.879 -0.8920  2.6428 -0.0712
   66MOL0     H 9059  10.848  -0.121   4.033 -1.4819  0.0448  0.2914
   66MOL0     H 9060  11.112   0.005   3.937 -2.2524 -0.5429 -0.5195
   66MOL0     H 9061  11.100  -0.124   4.058  1.6173 -3.7231 -1.3467
   66MOL0     H 9062  11.067  -0.295   3.883  3.1109 -0.4308  1.9691
   66MOL0     H 9063  11.054  -0.162   3.758 -2.9070 -3.1794 -0.6653
   66MOL0     H 9064  11.279  -0.226   3.940 -2.1924 -0.6034  0.0657
   66MOL0     H 9065  11.271  -0.304   3.787  3.1942 -0.6229  3.0359
   66MOL0     H 9066  11.424   0.096   3.657  0.0037 -0.5729  1.3457
   66MOL0     H 9067  11.695   0.149   3.456  0.0459 -0.4328 -0.4715
   66MOL0     H 9068  11.754   0.187   3.617  0.5805 -0.9682 -0.9229
   66MOL0     H 9069  11.587   0.231   3.576 -0.3425 -0.2431  3.2244
   66MOL0     H 9070  12.089  -0.007   3.661  0.2003  2.0779 -4.0880
   66MOL0     H 9071  12.338  -0.005   3.628  1.8854 -0.2757 -2.8199
   66MOL0     H 9072  12.459  -0.052   3.444 -0.5756 -0.6761  0.7445
   66MOL0     H 9073  12.547  -0.059   3.595 -0.4695 -0.7520 -0.4478
   66MOL0     H 9074  12.736  -0.171   3.485  0.5851 -0.5410 -0.7325
   66MOL0     H 9075  12.661  -0.133   3.318  0.9195  0.8483  0.1655
   66MOL0     H 9076  12.761   0.054   3.535  1.2493 -0.4409 -0.5251
   66MOL0     H 9077  12.646   0.103   3.411 -0.2181 -0.0420 -1.4615
   66MOL0     H 9078  12.810   0.042   3.216 -0.0939  0.4522 -0.7132
   66MOL0     H 9079  12.926  -0.003   3.338 -0.2051 -0.1451 -2.0006
   66MOL0     H 9080  12.815   0.267   3.387 -2.4660 -2.2292 -0.5363
   66MOL0     H 9081  12.972   0.198   3.403 -0.5481 -1.4332  0.1535
   66MOL0     H 9082  12.864   0.260   3.124 -1.7231 -0.4061  1.8063
   66MOL0     H 9083  13.031   0.223   3.169  2.2128  1.0415  2.2094
   66MOL0     H 9084  13.060   0.445   3.271  1.7344  0.3198 -3.0362
   66MOL0     H 9085  12.892   0.483   3.277 -0.0020 -0.7301  1.4670
   66MOL0     H 9086  12.879   0.483   3.042  0.2885 -2.2174 -0.1333
   66MOL0     H 9087  13.057   0.445   3.020  1.0493 -0.1886  1.5331
   66MOL0     H 9088  12.308  -0.400   3.447 -1.1823 -0.0753 -0.5708
   66MOL0     H 9089  12.054  -0.392   3.491 -1.8299  2.0475 -0.9963
   66MOL0     H 9090  11.711  -0.315   3.665  0.4587 -0.3360 -0.4784
   66MOL0     H 9091  11.499  -0.313   3.784  1.1889 -0.3877  0.2090
   66MOL0     H 9092   9.970   0.679   4.181  0.5508 -1.0487 -1.1469
   66MOL0     H 9093   9.748   0.671   4.087 -1.5216  0.5701 -1.2894
   66MOL0     H 9094   9.353   0.881   4.093 -1.3298  0.3486  0.1142
   66MOL0     H 9095   9.112   0.815   4.052 -2.7871 -1.3299 -1.0895
   66MOL0     H 9096   8.906   0.794   3.954 -0.0665 -0.0716 -1.7003
   66MOL0     H 9097   8.819   0.669   3.871 -0.7654  0.5620 -0.1049
   66MOL0     H 9098   8.853   0.615   4.127 -0.1953  0.2115  0.3785
   66MOL0     H 9099   9.021   0.624   4.089  0.8778  2.0108 -2.4881
   66MOL0     H 9100   8.817   0.429   3.951  0.6154 -1.2607 -0.8261
   66MOL0     H 9101   8.992   0.424   3.916  3.0383  4.0672  1.6562
   66MOL0     H 9102   8.911   0.247   4.055  0.7037 -0.7386  1.3507
   66MOL0     H 9103   8.874   0.355   4.187 -0.9097  0.1859  0.0534
   66MOL0     H 9104   9.292   0.319   4.226 -1.3028 -2.2983  0.6811
   66MOL0     H 9105   9.223   0.646   3.674  4.0214 -0.3018 -0.8456
   66MOL0     H 9106   9.553   0.768   3.652  0.8255 -0.2862  0.8335
   66MOL0     H 9107   9.540   0.614   3.718  0.5571  1.0583 -0.1480
   66MOL0     H 9108   9.421   0.662   3.593  0.9897 -0.4173 -1.0912
   67MOL0     O 9109   3.697   5.251   3.813 -0.0757 -0.0491 -0.0606
   67MOL0     C 9110   3.642   5.144   3.828 -0.3173 -0.1900 -0.3343
   67MOL0     O 9111   3.502   5.129   3.854 -0.5757  0.0974  0.3513
   67MOL0     C 9112   3.425   5.243   3.880  0.2999  0.7894  0.0409
   67MOL0     C 9113   3.468   5.354   3.953  0.3858  0.4774  0.0267
   67MOL0     C 9114   3.385   5.466   3.972  0.2966 -0.6574  0.1313
   67MOL0     C 9115   3.261   5.467   3.914 -0.4680  0.3464  0.1016
   67MOL0     O 9116   3.165   5.564   3.928 -0.3565 -0.4727 -0.2943
   67MOL0     C 9117   3.167   5.669   4.024 -0.2145  0.0822  0.0320
   67MOL0     C 9118   3.153   5.607   4.166  0.6306 -0.3352  0.2373
   67MOL0     C 9119   3.021   5.530   4.185 -0.2116 -0.3966  0.4698
   67MOL0     C 9120   3.026   5.442   4.307  0.2743 -0.3083 -0.4302
   67MOL0     C 9121   2.892   5.371   4.334  0.6950 -1.4224  0.2378
   67MOL0     C 9122   2.893   5.313   4.472 -0.6616 -0.3563 -0.2205
   67MOL0     C 9123   2.975   5.187   4.490 -0.7737 -0.7239 -0.0882
   67MOL0     C 9124   3.001   5.151   4.631 -0.0730 -0.3553 -0.5529
   67MOL0     N 9125   3.054   5.020   4.653  0.5022  0.5244 -0.8636
   67MOL0     C 9126   2.994   4.929   4.736  0.1808 -0.7072 -0.4322
   67MOL0     C 9127   3.083   4.832   4.734 -0.5488 -0.4480 -0.2979
   67MOL0     C 9128   3.077   4.707   4.821 -0.0544  0.1566 -0.2419
   67MOL0     C 9129   3.183   4.717   4.935  0.3748  0.6158 -0.3941
   67MOL0     C 9130   3.168   4.841   5.030  0.3918  0.1597  0.3077
   67MOL0     C 9131   3.267   4.864   5.138  0.6738 -0.3890 -0.4467
   67MOL0     O 9132   3.206   4.931   5.257  0.1729 -0.1382  0.1272
   67MOL0     C 9133   3.282   4.989   5.349 -0.0095 -0.8569 -0.6683
   67MOL0     C 9134   3.226   5.054   5.455  0.1442 -0.2183 -0.0825
   67MOL0     C 9135   3.298   5.118   5.552 -0.1024  0.5079  0.3400
   67MOL0     C 9136   3.213   5.174   5.673  0.1691 -0.0398 -0.0360
   67MOL0     C 9137   3.442   5.120   5.547  0.3372 -0.0837  0.5727
   67MOL0     C 9138   3.529   5.177   5.645 -0.1183  0.5204  0.2012
   67MOL0     O 9139   3.661   5.157   5.630 -0.1239 -0.0782 -0.4333
   67MOL0     C 9140   3.754   5.174   5.734  0.1600  0.3568  0.1915
   67MOL0     C 9141   3.715   5.196   5.868  0.7690 -0.7386  0.0353
   67MOL0     C 9142   3.805   5.224   5.967 -0.4558 -0.7462  0.0919
   67MOL0     C 9143   3.949   5.231   5.943 -0.6905  0.8898 -0.3930
   67MOL0     O 9144   4.040   5.265   6.037  0.0605  0.2818  0.9495
   67MOL0     C 9145   4.050   5.199   6.167 -0.3723 -1.4426 -0.2869
   67MOL0     C 9146   4.189   5.187   6.198 -0.3924 -0.3102 -0.1686
   67MOL0     C 9147   4.251   5.051   6.144 -0.8178  0.0987  0.3852
   67MOL0     C 9148   4.395   5.022   6.199 -0.4141  0.5433  0.1142
   67MOL0     C 9149   4.459   4.902   6.144  0.5915 -0.3268 -0.1301
   67MOL0     C 9150   4.602   4.879   6.210  0.0537 -0.1904  0.4026
   67MOL0     C 9151   4.659   4.741   6.164  0.6625  0.4904 -0.5661
   67MOL0     C 9152   4.801   4.723   6.211  0.3732 -1.1720 -0.9060
   67MOL0    Cl 9153   4.900   4.838   6.101 -0.3143  0.3117  0.2070
   67MOL0     C 9154   3.982   5.205   5.813  0.3228 -0.0144  0.4645
   67MOL0     C 9155   3.887   5.183   5.710  0.0263 -0.1033 -0.3592
   67MOL0     O 9156   3.480   5.249   5.721  0.2635 -0.0820 -0.9955
   67MOL0     C 9157   3.494   5.045   5.445 -0.6852  0.1167 -0.3123
   67MOL0     C 9158   3.419   4.989   5.351 -1.1132 -0.6824 -0.3574
   67MOL0     N 9159   3.187   4.855   4.641  0.8623 -0.3609  0.7277
   67MOL0     N 9160   3.163   4.972   4.591  0.3949  0.5396 -0.0529
   67MOL0     C 9161   3.215   5.353   3.839  0.0868 -0.4482  0.5136
   67MOL0     C 9162   3.296   5.247   3.828 -0.6102 -0.6114 -0.6505
   67MOL0     C 9163   3.716   5.021   3.778  0.0051  0.9464  0.5825
   67MOL0     C 9164   3.647   4.930   3.694 -0.1525 -1.4352  0.4261
   67MOL0     C 9165   3.703   4.823   3.631 -0.1337 -0.2444 -0.2694
   67MOL0     C 9166   3.834   4.791   3.665  0.0151 -0.1048 -0.3386
   67MOL0     O 9167   3.905   4.683   3.620  0.2886 -0.3646 -0.7382
   67MOL0     C 9168   3.843   4.589   3.532 -0.6972 -0.3268  0.6706
   67MOL0     C 9169   3.943   4.485   3.496  0.1972 -1.1146  0.0177
   67MOL0     C 9170   3.902   4.360   3.399  1.0570 -1.2485 -0.2386
   67MOL0     C 9171   3.758   4.314   3.443 -0.2271  0.0036 -0.0497
   67MOL0     C 9172   3.733   4.181   3.390  0.0641 -0.4428  0.0414
   67MOL0     C 9173   3.710   4.067   3.347  0.1378  0.0965  0.0979
   67MOL0     C 9174   3.901   4.871   3.756  0.7407  0.2592  0.3547
   67MOL0     C 9175   3.838   4.984   3.816  0.0633 -0.4517  0.1091
   67MOL0     C 9176   3.920   5.068   3.906 -0.2866 -0.0153  0.0592
   67MOL0     H 9177   3.561   5.341   4.007  1.1819 -0.6319 -1.5263
   67MOL0     H 9178   3.419   5.541   4.043  1.8586 -1.0067 -0.2085
   67MOL0     H 9179   3.078   5.728   4.005  0.1363  0.5343 -0.2346
   67MOL0     H 9180   3.248   5.741   4.007 -2.1651  2.0959 -1.1054
   67MOL0     H 9181   3.236   5.540   4.188  0.8454 -0.0318  0.3581
   67MOL0     H 9182   3.150   5.692   4.235 -2.9576 -1.8433  2.1576
   67MOL0     H 9183   2.931   5.592   4.191  2.2036  3.5174 -0.3150
   67MOL0     H 9184   3.003   5.464   4.099  0.6742  0.1460 -0.1433
   67MOL0     H 9185   3.104   5.367   4.291  0.5200  0.1912 -1.6884
   67MOL0     H 9186   3.060   5.501   4.392 -3.5799  0.0226  1.1146
   67MOL0     H 9187   2.860   5.291   4.267  1.9636 -1.6907 -0.0668
   67MOL0     H 9188   2.814   5.448   4.334  1.4338 -0.4854  3.8974
   67MOL0     H 9189   2.931   5.387   4.544  0.3901  1.1735 -2.2333
   67MOL0     H 9190   2.790   5.292   4.503 -0.7813  1.2641  0.5943
   67MOL0     H 9191   3.069   5.195   4.435 -1.5318 -1.1639 -1.5142
   67MOL0     H 9192   2.925   5.102   4.443 -1.7190 -0.8679  1.1335
   67MOL0     H 9193   3.066   5.226   4.677 -2.0192  0.4544  1.0356
   67MOL0     H 9194   2.906   5.160   4.685  1.1904 -1.2161  1.9788
   67MOL0     H 9195   2.909   4.934   4.803  0.4075  1.0567 -0.2186
   67MOL0     H 9196   3.082   4.620   4.756 -3.9149  1.4196 -2.5975
   67MOL0     H 9197   2.982   4.699   4.875 -0.7350  1.1231 -1.2517
   67MOL0     H 9198   3.185   4.622   4.990  3.8639 -1.6264 -3.9195
   67MOL0     H 9199   3.278   4.723   4.881 -0.3549  1.0444 -1.6695
   67MOL0     H 9200   3.162   4.934   4.973  1.4840 -0.1868 -0.3935
   67MOL0     H 9201   3.071   4.829   5.079 -0.1605  1.8909 -0.2989
   67MOL0     H 9202   3.315   4.772   5.173 -0.0923 -0.6013  0.0704
   67MOL0     H 9203   3.348   4.920   5.090 -2.3720  3.2206 -1.9181
   67MOL0     H 9204   3.118   5.053   5.457  0.0941 -0.6640 -1.8850
   67MOL0     H 9205   3.257   5.120   5.758  1.9429  1.3105 -0.0459
   67MOL0     H 9206   3.108   5.151   5.653  0.0331 -3.1690  3.2266
   67MOL0     H 9207   3.246   5.277   5.686  4.9636 -1.4919  1.8014
   67MOL0     H 9208   3.612   5.170   5.893  0.2650 -1.2841 -2.3536
   67MOL0     H 9209   3.769   5.233   6.069 -0.0062  0.5351  0.1603
   67MOL0     H 9210   3.997   5.260   6.241  0.5101  1.7696 -2.1397
   67MOL0     H 9211   4.006   5.098   6.164 -0.4350 -1.4182 -0.1687
   67MOL0     H 9212   4.240   5.277   6.162 -0.1527 -0.4536 -0.1885
   67MOL0     H 9213   4.190   5.191   6.308 -2.3563 -2.5365  0.0124
   67MOL0     H 9214   4.262   5.060   6.036  2.1876  0.5722  0.6428
   67MOL0     H 9215   4.184   4.970   6.173 -0.1809 -0.2760  0.8441
   67MOL0     H 9216   4.384   5.014   6.308 -3.0030  0.6248 -0.0821
   67MOL0     H 9217   4.449   5.113   6.171 -0.5041  0.5460 -0.0460
   67MOL0     H 9218   4.390   4.817   6.150  1.0417 -0.6357  0.9430
   67MOL0     H 9219   4.471   4.914   6.036 -0.6534  2.1205 -0.0714
   67MOL0     H 9220   4.598   4.882   6.319 -0.3151  1.4872  0.3693
   67MOL0     H 9221   4.664   4.959   6.169  2.0647 -1.7321  0.2819
   67MOL0     H 9222   4.656   4.726   6.056 -2.3610 -3.3897 -0.1947
   67MOL0     H 9223   4.595   4.667   6.215  1.4099 -0.3903 -0.8745
   67MOL0     H 9224   4.834   4.620   6.196  3.3360 -0.7376  1.7397
   67MOL0     H 9225   4.809   4.746   6.318  2.2731  1.4547 -1.5167
   67MOL0     H 9226   4.085   5.215   5.783  1.2065  2.4741  3.6948
   67MOL0     H 9227   3.914   5.164   5.607 -1.8189  2.5791 -1.4382
   67MOL0     H 9228   3.598   5.013   5.441 -1.4287 -2.3715 -1.8557
   67MOL0     H 9229   3.473   4.922   5.285 -0.5138 -0.3330 -0.2268
   67MOL0     H 9230   3.118   5.352   3.791  0.2538  0.6260  0.1375
   67MOL0     H 9231   3.268   5.148   3.794 -0.3136 -2.0259  2.8644
   67MOL0     H 9232   3.544   4.951   3.669  1.1237  1.7504 -3.0739
   67MOL0     H 9233   3.635   4.760   3.576 -0.4925  0.3366 -0.5049
   67MOL0     H 9234   3.754   4.543   3.577 -0.1745  0.3115  2.4631
   67MOL0     H 9235   3.819   4.629   3.433 -0.6836  1.1252  1.2342
   67MOL0     H 9236   3.986   4.438   3.584 -1.5255 -1.6491  0.6094
   67MOL0     H 9237   4.025   4.538   3.446  1.6568 -0.7564  2.6519
   67MOL0     H 9238   3.908   4.384   3.293 -1.7031 -2.3658 -0.7302
   67MOL0     H 9239   3.976   4.280   3.411  2.7994  0.4282  0.7659
   67MOL0     H 9240   3.686   4.372   3.385  0.4131  1.9929  1.0352
   67MOL0     H 9241   3.750   4.313   3.552 -0.0227 -1.1346 -0.0390
   67MOL0     H 9242   3.695   3.966   3.314  0.7197 -0.0461  0.2545
   67MOL0     H 9243   4.006   4.848   3.774  0.5720 -2.4944 -1.5237
   67MOL0     H 9244   3.997   5.120   3.849 -3.0704 -0.0575 -4.1205
   67MOL0     H 9245   3.863   5.144   3.959 -1.1942 -1.7561  1.7083
   67MOL0     H 9246   3.967   5.004   3.982 -0.2587 -1.0888 -0.8410
   68MOL0     O 9247   2.887   3.113   4.013  0.4413  0.2487  0.1046
   68MOL0     C 9248   2.832   3.186   3.930  0.0166 -0.3963  0.0000
   68MOL0     O 9249   2.706   3.238   3.947 -0.4079 -0.2113 -0.0218
   68MOL0     C 9250   2.633   3.213   4.058 -0.0470  1.0455  0.7198
   68MOL0     C 9251   2.687   3.227   4.188  0.3149 -0.3505 -0.5799
   68MOL0     C 9252   2.608   3.207   4.301  0.0512 -0.9168 -0.5110
   68MOL0     C 9253   2.475   3.177   4.288 -0.2580  0.0192 -0.0141
   68MOL0     O 9254   2.413   3.154   4.404  0.0654  0.1290 -0.3205
   68MOL0     C 9255   2.412   3.017   4.446  0.0436  0.8138 -0.6888
   68MOL0     C 9256   2.323   2.924   4.368 -0.4985 -0.8443 -0.0512
   68MOL0     C 9257   2.351   2.776   4.387 -0.5827  0.3254 -0.3821
   68MOL0     C 9258   2.314   2.681   4.275 -0.2837 -0.0556  0.3510
   68MOL0     C 9259   2.287   2.539   4.315  0.4000 -0.5570 -0.5625
   68MOL0     C 9260   2.400   2.467   4.381 -0.1633 -0.7444 -0.0668
   68MOL0     C 9261   2.531   2.481   4.310 -0.2636  1.1793 -0.3436
   68MOL0     C 9262   2.633   2.368   4.351  0.0129 -0.8804 -0.6101
   68MOL0     N 9263   2.699   2.400   4.478 -0.4271 -0.6673 -0.5633
   68MOL0     C 9264   2.822   2.466   4.500 -0.1374 -0.3466 -0.9149
   68MOL0     C 9265   2.826   2.492   4.634 -0.0101  0.4052  0.1404
   68MOL0     C 9266   2.943   2.555   4.708  0.1093  0.2847 -0.7150
   68MOL0     C 9267   3.079   2.508   4.652 -0.0850 -0.7574  0.2147
   68MOL0     C 9268   3.191   2.609   4.708  0.9640  0.8240 -0.3919
   68MOL0     C 9269   3.212   2.719   4.592 -0.2585 -0.3022  0.0149
   68MOL0     O 9270   3.328   2.795   4.631 -0.1552  0.3923 -0.5805
   68MOL0     C 9271   3.410   2.808   4.527 -0.0711  0.4685 -0.2513
   68MOL0     C 9272   3.434   2.918   4.460 -0.1018  0.0070 -0.3959
   68MOL0     C 9273   3.532   2.930   4.363 -0.0400 -0.0822  0.3903
   68MOL0     C 9274   3.544   3.061   4.295  0.3976 -0.4284  0.5579
   68MOL0     C 9275   3.597   2.810   4.317 -0.5532 -0.5014  0.4057
   68MOL0     C 9276   3.695   2.802   4.208  0.0767 -0.6625 -0.0663
   68MOL0     O 9277   3.718   2.684   4.136  0.2463  0.5047  0.8793
   68MOL0     C 9278   3.831   2.681   4.065 -0.0353  0.0616 -0.1045
   68MOL0     C 9279   3.954   2.697   4.126 -0.2378  0.5365  0.3216
   68MOL0     C 9280   4.076   2.704   4.059  0.3728  0.9864 -0.4353
   68MOL0     C 9281   4.072   2.693   3.918 -0.1327  0.7537 -0.5377
   68MOL0     O 9282   4.179   2.696   3.842 -0.4691  0.1007  0.6023
   68MOL0     C 9283   4.222   2.832   3.832  0.9675  0.0925  0.4455
   68MOL0     C 9284   4.344   2.860   3.745  0.4651  0.0602  0.4737
   68MOL0     C 9285   4.302   2.827   3.601  0.7712  0.0040  0.5161
   68MOL0     C 9286   4.424   2.805   3.520 -0.1038 -0.5507  0.3618
   68MOL0     C 9287   4.410   2.712   3.401 -0.0598 -0.1625 -0.6536
   68MOL0     C 9288   4.541   2.692   3.321  0.0821 -0.2858  0.1433
   68MOL0     C 9289   4.617   2.558   3.362  0.9956 -0.1381  0.1205
   68MOL0     C 9290   4.759   2.565   3.341  0.3664  0.0589  0.5336
   68MOL0    Cl 9291   4.858   2.631   3.478 -0.1903 -0.0647  0.1405
   68MOL0     C 9292   3.950   2.671   3.855  0.1621 -0.1011  0.0829
   68MOL0     C 9293   3.832   2.654   3.928  0.9315  0.4877 -0.7063
   68MOL0     O 9294   3.759   2.908   4.187  0.6760  0.3199 -0.3306
   68MOL0     C 9295   3.565   2.690   4.380  1.0079  0.4378  0.2884
   68MOL0     C 9296   3.482   2.698   4.494 -0.1569  0.1567  0.5724
   68MOL0     N 9297   2.705   2.454   4.689  0.5305  0.1301  0.4061
   68MOL0     N 9298   2.633   2.395   4.600 -0.6149  0.9272 -0.3345
   68MOL0     C 9299   2.416   3.164   4.160 -0.0275  0.4408  0.8058
   68MOL0     C 9300   2.495   3.187   4.048 -0.6018  0.4564 -0.0878
   68MOL0     C 9301   2.919   3.235   3.813 -0.2524  0.0992 -0.2891
   68MOL0     C 9302   2.888   3.363   3.770 -0.2073  0.0368 -0.0323
   68MOL0     C 9303   2.961   3.433   3.676  0.3838 -0.2192  0.2163
   68MOL0     C 9304   3.065   3.373   3.620  0.2501  0.7029 -0.6943
   68MOL0     O 9305   3.144   3.434   3.523 -0.2206  0.1939  0.3679
   68MOL0     C 9306   3.286   3.439   3.548  0.8471  0.1946  0.5679
   68MOL0     C 9307   3.360   3.529   3.443  0.1498 -0.0013  0.2379
   68MOL0     C 9308   3.346   3.672   3.465 -0.3634  0.5708 -0.8313
   68MOL0     C 9309   3.417   3.768   3.368  0.8016 -0.0944 -0.2754
   68MOL0     C 9310   3.441   3.720   3.228 -0.2950 -0.3443 -0.3621
   68MOL0     C 9311   3.449   3.672   3.118 -0.2483  0.2190  0.0516
   68MOL0     C 9312   3.102   3.244   3.662  0.7922 -0.5663 -0.1887
   68MOL0     C 9313   3.029   3.171   3.757  0.3117 -0.2590  0.7094
   68MOL0     C 9314   3.070   3.032   3.792 -0.4768  0.0906 -0.1224
   68MOL0     H 9315   2.790   3.258   4.198 -0.1962  0.5901  2.7109
   68MOL0     H 9316   2.652   3.222   4.399  0.6307  2.0640 -1.1200
   68MOL0     H 9317   2.378   3.003   4.548  1.1092  1.2026 -0.2654
   68MOL0     H 9318   2.514   2.979   4.456 -1.2645 -2.2810  3.8873
   68MOL0     H 9319   2.221   2.949   4.399  0.0672 -0.3947  1.5951
   68MOL0     H 9320   2.345   2.955   4.266 -1.0236  3.7514  0.9739
   68MOL0     H 9321   2.451   2.756   4.426  0.0597  4.2728  0.4087
   68MOL0     H 9322   2.281   2.754   4.467  1.7235  0.5018  1.7960
   68MOL0     H 9323   2.223   2.724   4.233 -0.2823 -0.6638 -0.2819
   68MOL0     H 9324   2.397   2.693   4.205  0.1856  0.8760  1.0413
   68MOL0     H 9325   2.258   2.481   4.227 -2.4653 -2.9267  1.7616
   68MOL0     H 9326   2.198   2.539   4.378  0.0169  0.4349 -1.0770
   68MOL0     H 9327   2.424   2.516   4.476  1.9840  1.5213 -1.6550
   68MOL0     H 9328   2.380   2.361   4.394 -0.9887 -0.5527  0.3301
   68MOL0     H 9329   2.569   2.580   4.337 -0.4878  0.9770  0.7693
   68MOL0     H 9330   2.512   2.475   4.203 -0.2685  1.9182 -0.3925
   68MOL0     H 9331   2.588   2.268   4.344  1.9524 -1.7197 -2.3342
   68MOL0     H 9332   2.716   2.377   4.279 -0.0244  0.3998 -0.5159
   68MOL0     H 9333   2.905   2.488   4.435  0.1578  0.8961 -0.1696
   68MOL0     H 9334   2.943   2.527   4.814  1.5146 -1.5237 -1.1384
   68MOL0     H 9335   2.922   2.662   4.699 -1.2443  0.0788 -0.2308
   68MOL0     H 9336   3.104   2.408   4.688  0.5557 -0.5609  0.3340
   68MOL0     H 9337   3.093   2.496   4.544  1.2105  0.6792  0.1912
   68MOL0     H 9338   3.165   2.660   4.801  0.7847  0.3814 -0.1920
   68MOL0     H 9339   3.284   2.552   4.723  0.0980 -0.3711  0.6754
   68MOL0     H 9340   3.234   2.670   4.497  0.5469 -0.1216  0.1045
   68MOL0     H 9341   3.124   2.780   4.572 -0.7027 -0.9263  0.0287
   68MOL0     H 9342   3.362   2.997   4.479 -0.6018 -0.3405 -0.8088
   68MOL0     H 9343   3.556   3.054   4.186  2.1329  2.2010  0.4993
   68MOL0     H 9344   3.635   3.112   4.327 -0.5161  0.7427  1.3768
   68MOL0     H 9345   3.464   3.133   4.308  0.0180 -0.9615  1.2715
   68MOL0     H 9346   3.952   2.703   4.234 -0.0175 -0.0434  0.3628
   68MOL0     H 9347   4.170   2.713   4.111  0.5660 -1.0309 -0.3606
   68MOL0     H 9348   4.139   2.897   3.806 -1.4394 -2.7350  0.4732
   68MOL0     H 9349   4.247   2.865   3.934 -0.2643  1.0219  0.4687
   68MOL0     H 9350   4.353   2.967   3.763 -0.5120  0.0739  0.9362
   68MOL0     H 9351   4.423   2.799   3.789  1.8767  0.5216 -1.3088
   68MOL0     H 9352   4.234   2.905   3.564  1.1443  1.3525  2.5588
   68MOL0     H 9353   4.241   2.736   3.596  0.0849  0.4506  0.5732
   68MOL0     H 9354   4.502   2.763   3.584 -1.0878  1.1321  2.8312
   68MOL0     H 9355   4.464   2.897   3.477  2.0329 -1.0122  1.2403
   68MOL0     H 9356   4.354   2.624   3.434 -0.3434  1.0243  2.3530
   68MOL0     H 9357   4.341   2.766   3.335 -1.7412 -1.6327 -0.1832
   68MOL0     H 9358   4.613   2.774   3.336 -0.8315  1.0531 -2.2201
   68MOL0     H 9359   4.521   2.694   3.214  0.7336 -0.9357  0.0071
   68MOL0     H 9360   4.570   2.475   3.308  0.6892 -0.1432  0.3895
   68MOL0     H 9361   4.598   2.542   3.469 -1.3731 -1.5061 -0.4340
   68MOL0     H 9362   4.790   2.619   3.251  0.4713 -0.4784  0.2377
   68MOL0     H 9363   4.797   2.463   3.328  1.4132  0.4070  0.7140
   68MOL0     H 9364   3.959   2.658   3.748  2.2029 -1.4909  0.3694
   68MOL0     H 9365   3.735   2.635   3.883 -0.0532 -0.4130  1.6336
   68MOL0     H 9366   3.605   2.596   4.345 -1.9362 -0.2371 -1.6228
   68MOL0     H 9367   3.467   2.601   4.541 -1.0157 -0.6675 -1.2937
   68MOL0     H 9368   2.314   3.134   4.143  0.4613  0.3491 -2.4858
   68MOL0     H 9369   2.452   3.175   3.949  0.0530  2.2827 -0.6364
   68MOL0     H 9370   2.797   3.413   3.801 -0.1713  1.2564 -1.7545
   68MOL0     H 9371   2.932   3.535   3.654 -0.4940 -0.2525  1.1393
   68MOL0     H 9372   3.301   3.490   3.644 -2.5412  0.3347  1.1420
   68MOL0     H 9373   3.336   3.342   3.539  1.5422  0.6305 -0.4670
   68MOL0     H 9374   3.316   3.514   3.344  0.6074 -0.7916  0.1474
   68MOL0     H 9375   3.467   3.506   3.446 -0.4316 -3.1781  0.0517
   68MOL0     H 9376   3.239   3.695   3.465 -0.8289 -1.3429 -2.6846
   68MOL0     H 9377   3.382   3.692   3.567  0.7088  0.7106 -1.2156
   68MOL0     H 9378   3.510   3.803   3.413  0.0499 -1.3254  2.4420
   68MOL0     H 9379   3.357   3.859   3.353  1.8811  0.7707  0.4880
   68MOL0     H 9380   3.464   3.625   3.023  0.9694 -0.0069  0.3369
   68MOL0     H 9381   3.189   3.202   3.613 -1.3692 -1.6204 -3.4642
   68MOL0     H 9382   3.174   3.017   3.761 -0.6437 -0.6495 -0.3631
   68MOL0     H 9383   3.070   2.999   3.896 -2.4390  1.3699  0.3393
   68MOL0     H 9384   3.013   2.955   3.737 -0.6150 -0.1935  0.4154
   69MOL0     O 9385   6.211   2.618   4.797  0.2808  0.1542 -0.3434
   69MOL0     C 9386   6.125   2.529   4.764 -0.4242 -1.0866  0.0996
   69MOL0     O 9387   6.126   2.407   4.807  0.5878  0.6490 -0.3912
   69MOL0     C 9388   6.244   2.336   4.790 -0.2009  0.0673 -0.4525
   69MOL0     C 9389   6.300   2.330   4.662  0.3978 -0.2095  0.6827
   69MOL0     C 9390   6.421   2.270   4.643 -0.3289  0.2416 -0.5081
   69MOL0     C 9391   6.499   2.220   4.752  0.4429 -0.7661 -0.3289
   69MOL0     O 9392   6.630   2.179   4.734  0.2340  0.0284 -0.0547
   69MOL0     C 9393   6.687   2.094   4.829  0.0363  0.0225 -0.0160
   69MOL0     C 9394   6.807   2.016   4.778  0.1416 -0.5466  0.1333
   69MOL0     C 9395   6.914   2.120   4.747 -0.4454  0.8972  0.2989
   69MOL0     C 9396   7.035   2.047   4.690 -0.0623 -0.6718  0.8898
   69MOL0     C 9397   7.124   2.148   4.617  0.6989  0.5257 -0.4046
   69MOL0     C 9398   7.187   2.245   4.727 -0.1036  0.8741  0.2556
   69MOL0     C 9399   7.294   2.329   4.648 -0.2435 -0.8195  0.0291
   69MOL0     C 9400   7.430   2.288   4.689  0.2310 -0.0079  0.7410
   69MOL0     N 9401   7.477   2.334   4.821  0.2351  0.5531  0.2993
   69MOL0     C 9402   7.571   2.438   4.839  0.3139 -0.7796 -0.2810
   69MOL0     C 9403   7.576   2.455   4.974  0.8248  0.5109  0.1601
   69MOL0     C 9404   7.667   2.545   5.041  0.6762 -0.0448 -0.6503
   69MOL0     C 9405   7.817   2.505   5.047  0.2239 -0.3855  0.3315
   69MOL0     C 9406   7.892   2.611   5.125 -0.3777 -0.0522  0.1890
   69MOL0     C 9407   8.044   2.572   5.142  0.6212 -0.6873 -0.5651
   69MOL0     O 9408   8.108   2.654   5.240 -0.6208 -0.1281 -0.0730
   69MOL0     C 9409   8.248   2.668   5.249  0.6573  0.0702 -0.1266
   69MOL0     C 9410   8.299   2.757   5.351  0.5323  0.5544  0.2466
   69MOL0     C 9411   8.436   2.791   5.369  0.1316 -0.2246 -0.1196
   69MOL0     C 9412   8.463   2.911   5.455  0.6608  0.3520 -0.0330
   69MOL0     C 9413   8.536   2.719   5.301  0.2443  0.3347 -0.0420
   69MOL0     C 9414   8.676   2.720   5.330  0.4864  0.4650 -0.8647
   69MOL0     O 9415   8.710   2.752   5.449 -0.2086  0.1995  0.7992
   69MOL0     C 9416   8.842   2.782   5.482 -0.1076  0.5247 -0.1321
   69MOL0     C 9417   8.960   2.722   5.434  0.0383 -0.8229  0.3762
   69MOL0     C 9418   9.086   2.763   5.490  0.0494 -0.0090  0.3000
   69MOL0     C 9419   9.097   2.858   5.587  0.3918 -1.0957  0.5110
   69MOL0     O 9420   9.221   2.891   5.628 -0.0184  0.5811 -0.2577
   69MOL0     C 9421   9.228   2.965   5.749 -0.1852 -0.6475 -0.2700
   69MOL0     C 9422   9.371   2.945   5.797  0.2591 -1.0180  0.5977
   69MOL0     C 9423   9.409   3.019   5.923  0.4960 -0.8198  0.2403
   69MOL0     C 9424   9.397   3.167   5.902 -0.6272 -0.0646  0.2510
   69MOL0     C 9425   9.444   3.256   6.021 -0.4321  0.3081  0.5800
   69MOL0     C 9426   9.561   3.208   6.109 -0.3608  0.5919 -0.3943
   69MOL0     C 9427   9.687   3.198   6.039 -0.1578  0.4594  0.1367
   69MOL0     C 9428   9.796   3.202   6.145 -1.0734  0.4015 -0.1202
   69MOL0    Cl 9429   9.954   3.165   6.071 -0.2954  0.0588  0.4956
   69MOL0     C 9430   8.973   2.917   5.635 -0.7588 -0.0135  0.5253
   69MOL0     C 9431   8.850   2.880   5.582  0.4020  0.4037 -0.2935
   69MOL0     O 9432   8.745   2.662   5.242 -0.3850 -0.1184  0.3582
   69MOL0     C 9433   8.487   2.628   5.199  0.5809 -0.1455 -0.3839
   69MOL0     C 9434   8.349   2.604   5.173 -0.8712 -0.2567 -0.4600
   69MOL0     N 9435   7.487   2.369   5.035  0.1258  0.3709  0.1382
   69MOL0     N 9436   7.427   2.302   4.944  0.0777 -0.0975 -0.8716
   69MOL0     C 9437   6.438   2.216   4.876 -0.0369  0.3022 -0.2461
   69MOL0     C 9438   6.319   2.276   4.893  0.4022  0.6058  0.3750
   69MOL0     C 9439   6.003   2.572   4.691 -0.0887  0.1382  0.0641
   69MOL0     C 9440   5.881   2.507   4.711  0.1278 -0.4110  0.1106
   69MOL0     C 9441   5.761   2.553   4.665  0.2822  0.4314  0.7538
   69MOL0     C 9442   5.762   2.667   4.584  0.0103 -0.8842 -1.2870
   69MOL0     O 9443   5.649   2.735   4.536  0.4782 -0.7625 -0.9414
   69MOL0     C 9444   5.511   2.689   4.561 -0.2232 -0.6332 -0.1226
   69MOL0     C 9445   5.421   2.807   4.605  0.4858  0.4409 -0.2253
   69MOL0     C 9446   5.288   2.749   4.657  0.1436 -0.0602 -0.4131
   69MOL0     C 9447   5.184   2.844   4.706 -0.2495 -0.2007 -0.3617
   69MOL0     C 9448   5.239   2.921   4.820 -0.4111 -0.7086 -0.5367
   69MOL0     C 9449   5.297   2.977   4.903 -0.1465 -1.2016 -0.0391
   69MOL0     C 9450   5.883   2.720   4.541 -0.1710 -0.6537 -0.8200
   69MOL0     C 9451   6.007   2.685   4.600 -0.3320  0.1708 -0.7428
   69MOL0     C 9452   6.134   2.743   4.550  0.1290 -0.1608 -0.7147
   69MOL0     H 9453   6.247   2.375   4.579  0.6949  1.6571  1.4707
   69MOL0     H 9454   6.472   2.259   4.548  2.1974 -0.5429  0.8487
   69MOL0     H 9455   6.612   2.018   4.856 -1.0972  0.2005 -2.3853
   69MOL0     H 9456   6.724   2.144   4.919  2.8072 -3.6647  1.1385
   69MOL0     H 9457   6.830   1.932   4.843  0.4805 -0.0942  0.6079
   69MOL0     H 9458   6.769   1.973   4.684 -3.5219 -1.1938  1.7504
   69MOL0     H 9459   6.868   2.197   4.685 -0.8613  0.0700 -0.4436
   69MOL0     H 9460   6.948   2.173   4.837  0.1995  0.4731  0.3144
   69MOL0     H 9461   7.099   1.999   4.764  1.6948  0.7614  0.3883
   69MOL0     H 9462   7.008   1.966   4.622  0.9305  1.4408 -2.2908
   69MOL0     H 9463   7.068   2.212   4.549 -2.5481 -0.9494  0.6653
   69MOL0     H 9464   7.204   2.097   4.562  0.8181  1.6678 -1.3276
   69MOL0     H 9465   7.105   2.308   4.763 -2.2707 -0.9495 -1.1846
   69MOL0     H 9466   7.225   2.190   4.813  1.5178 -0.5446 -1.2901
   69MOL0     H 9467   7.281   2.435   4.669  0.9857  0.1131 -3.2019
   69MOL0     H 9468   7.283   2.327   4.539  0.6584  1.9671 -0.1987
   69MOL0     H 9469   7.443   2.179   4.679  2.9634  0.4370 -2.0998
   69MOL0     H 9470   7.502   2.331   4.618 -1.6357  1.0460 -0.6072
   69MOL0     H 9471   7.622   2.491   4.759 -1.1168 -1.3845 -1.6640
   69MOL0     H 9472   7.620   2.564   5.138 -1.4496 -0.5436 -1.5280
   69MOL0     H 9473   7.650   2.639   4.987 -5.7078 -1.2175 -1.4257
   69MOL0     H 9474   7.839   2.412   5.101  0.2937  0.4983  1.9073
   69MOL0     H 9475   7.860   2.510   4.947 -0.8464 -3.3989 -0.3723
   69MOL0     H 9476   7.869   2.709   5.081 -3.1470  0.2266  1.9700
   69MOL0     H 9477   7.845   2.607   5.223  0.3729  0.8531  0.5996
   69MOL0     H 9478   8.051   2.465   5.167  1.0930 -0.5359 -0.0331
   69MOL0     H 9479   8.093   2.570   5.044  0.8635 -0.0049 -0.4577
   69MOL0     H 9480   8.223   2.800   5.414  1.5119  2.7813  0.0120
   69MOL0     H 9481   8.376   2.978   5.457  1.1732  1.0458 -0.7313
   69MOL0     H 9482   8.550   2.967   5.420  0.6607  0.9117  0.8228
   69MOL0     H 9483   8.478   2.886   5.560 -5.5987 -2.2921  0.6740
   69MOL0     H 9484   8.955   2.641   5.362 -1.5754 -0.9464  0.5779
   69MOL0     H 9485   9.181   2.728   5.451 -0.1862 -2.3961  1.6062
   69MOL0     H 9486   9.224   3.072   5.730  2.5319 -0.5058 -0.5359
   69MOL0     H 9487   9.169   2.918   5.828  2.9999 -2.0589  1.5022
   69MOL0     H 9488   9.387   2.837   5.808 -1.4325 -1.3790 -0.1398
   69MOL0     H 9489   9.447   2.972   5.724  0.3694 -0.4435  0.9234
   69MOL0     H 9490   9.511   2.999   5.959 -0.2692  0.0367  3.1239
   69MOL0     H 9491   9.341   2.995   6.006  2.0978  0.4659  1.9908
   69MOL0     H 9492   9.294   3.199   5.883 -0.9040  0.0436  1.8017
   69MOL0     H 9493   9.450   3.185   5.808 -3.2248  0.7481 -1.1590
   69MOL0     H 9494   9.467   3.352   5.974 -2.9605 -0.2318 -2.0107
   69MOL0     H 9495   9.363   3.264   6.093  0.1953 -2.7427  1.7929
   69MOL0     H 9496   9.529   3.114   6.154  0.5912  0.9191  1.0210
   69MOL0     H 9497   9.568   3.285   6.186 -1.5980  2.6713 -2.2241
   69MOL0     H 9498   9.702   3.283   5.972 -2.4601 -0.4366 -1.6347
   69MOL0     H 9499   9.690   3.102   5.988 -0.3098  0.3626  0.3129
   69MOL0     H 9500   9.780   3.128   6.225  1.6356  0.6741  0.7670
   69MOL0     H 9501   9.814   3.301   6.186  4.1794  0.3382 -1.5795
   69MOL0     H 9502   8.971   3.001   5.704 -0.6605 -0.3879  0.9885
   69MOL0     H 9503   8.761   2.929   5.619 -0.5706  1.5037 -3.7116
   69MOL0     H 9504   8.558   2.565   5.147  1.0621 -0.6804  0.8772
   69MOL0     H 9505   8.319   2.543   5.089 -0.7129  0.4817 -1.0572
   69MOL0     H 9506   6.482   2.166   4.962 -1.3476 -1.9142 -0.7921
   69MOL0     H 9507   6.273   2.277   4.991 -0.1132 -0.4760  0.1565
   69MOL0     H 9508   5.870   2.430   4.787  0.9805  0.7377  1.4287
   69MOL0     H 9509   5.668   2.503   4.692 -0.0065 -1.6838 -3.3199
   69MOL0     H 9510   5.470   2.632   4.477  2.0705  0.8079 -2.3757
   69MOL0     H 9511   5.516   2.615   4.641  0.7575 -2.5869 -1.9005
   69MOL0     H 9512   5.404   2.884   4.528 -2.5407  0.7356  0.5877
   69MOL0     H 9513   5.473   2.858   4.686 -0.5090  2.0150 -0.5267
   69MOL0     H 9514   5.232   2.700   4.576  0.4896 -0.0423 -0.6660
   69MOL0     H 9515   5.306   2.683   4.742  0.5416  2.6761  1.7474
   69MOL0     H 9516   5.095   2.793   4.744  0.0991  0.3309  1.2898
   69MOL0     H 9517   5.147   2.908   4.625  0.3588 -0.0175 -0.4961
   69MOL0     H 9518   5.345   3.032   4.982  1.9666  0.1564 -2.1559
   69MOL0     H 9519   5.892   2.803   4.472  2.4689  0.5535  0.8275
   69MOL0     H 9520   6.204   2.667   4.515  2.2835  1.0516  0.6865
   69MOL0     H 9521   6.116   2.813   4.468  1.5208  2.6110  1.1752
   69MOL0     H 9522   6.178   2.795   4.636 -2.0622 -0.6478  0.7866
   70MOL0     O 9523   4.429   7.221   2.227  0.3063 -0.7375  0.4683
   70MOL0     C 9524   4.369   7.172   2.129  0.1129 -0.6188 -0.7414
   70MOL0     O 9525   4.429   7.076   2.047 -0.4486  0.2545 -0.7512
   70MOL0     C 9526   4.540   7.006   2.092  0.9915 -0.0953 -0.5503
   70MOL0     C 9527   4.669   7.039   2.045  0.2999  0.2065  0.1557
   70MOL0     C 9528   4.785   6.969   2.088  0.1508  0.0585  0.4253
   70MOL0     C 9529   4.770   6.870   2.190 -0.0919  0.3554 -0.2312
   70MOL0     O 9530   4.872   6.801   2.252 -0.5580  0.5820 -0.1615
   70MOL0     C 9531   5.006   6.855   2.239  0.6442 -0.4265  0.7247
   70MOL0     C 9532   5.077   6.818   2.362 -0.5479  0.4282  0.7401
   70MOL0     C 9533   5.229   6.854   2.368  0.1150 -0.2139 -0.4440
   70MOL0     C 9534   5.283   6.849   2.508  0.9213 -0.1031 -0.4542
   70MOL0     C 9535   5.440   6.847   2.508 -0.4160 -0.9921 -0.1315
   70MOL0     C 9536   5.506   6.872   2.644  0.4870  0.2117 -0.1245
   70MOL0     C 9537   5.656   6.849   2.657  0.5487  0.4963 -0.1606
   70MOL0     C 9538   5.730   6.934   2.558 -0.4131  0.3767 -0.2094
   70MOL0     N 9539   5.871   6.940   2.597  0.3144 -0.7023 -0.2803
   70MOL0     C 9540   5.919   7.040   2.682  0.8378 -0.1326 -0.0093
   70MOL0     C 9541   6.045   7.002   2.708 -0.3245 -0.5092  0.4364
   70MOL0     C 9542   6.130   7.077   2.808 -0.0956 -0.6980 -0.5217
   70MOL0     C 9543   6.064   7.203   2.881 -0.8888  0.5861 -0.4157
   70MOL0     C 9544   5.955   7.158   2.984  0.4557  0.9603  0.6337
   70MOL0     C 9545   5.875   7.265   3.052  0.5920 -0.1804  0.9150
   70MOL0     O 9546   5.831   7.357   2.959  0.2798 -0.3677 -0.0304
   70MOL0     C 9547   5.707   7.338   2.909 -0.2116 -0.8210  0.0970
   70MOL0     C 9548   5.588   7.344   2.985 -0.6273 -0.5332  0.1897
   70MOL0     C 9549   5.460   7.323   2.923  0.0307  0.4277 -0.1456
   70MOL0     C 9550   5.349   7.333   3.028 -0.1867 -0.1760 -0.6410
   70MOL0     C 9551   5.450   7.291   2.786  0.0937 -1.0889  0.2362
   70MOL0     C 9552   5.325   7.267   2.712  0.4162  0.6633  0.0645
   70MOL0     O 9553   5.330   7.214   2.585 -0.4474  0.5376 -0.8176
   70MOL0     C 9554   5.235   7.229   2.487  0.4452 -0.3507 -0.5833
   70MOL0     C 9555   5.280   7.254   2.357  0.2470  0.4184 -0.1012
   70MOL0     C 9556   5.187   7.274   2.253  0.2707 -0.2143 -0.0054
   70MOL0     C 9557   5.052   7.261   2.280  0.3526  0.1823 -0.4064
   70MOL0     O 9558   4.970   7.281   2.176  0.1691  0.2357  0.0903
   70MOL0     C 9559   4.843   7.337   2.211  0.4711 -0.0099 -0.0887
   70MOL0     C 9560   4.790   7.410   2.083 -0.3440  0.4940 -0.3328
   70MOL0     C 9561   4.662   7.493   2.108 -0.8698 -0.6761  0.1665
   70MOL0     C 9562   4.578   7.520   1.983  1.3606  0.3612  0.1014
   70MOL0     C 9563   4.477   7.633   1.999 -1.7270 -0.3339 -0.5178
   70MOL0     C 9564   4.351   7.614   1.916 -0.8772 -0.4203 -0.1801
   70MOL0     C 9565   4.291   7.757   1.907  0.4796 -0.0856 -0.1220
   70MOL0     C 9566   4.158   7.763   1.838  0.8793 -0.4323 -0.4362
   70MOL0    Cl 9567   4.187   7.722   1.670  0.1804 -0.2427  0.2082
   70MOL0     C 9568   5.005   7.239   2.410 -0.4476  0.2694 -0.0316
   70MOL0     C 9569   5.098   7.223   2.510 -0.1420 -0.2447 -0.6611
   70MOL0     O 9570   5.226   7.305   2.765  0.2844 -0.1891 -0.2349
   70MOL0     C 9571   5.573   7.284   2.718 -0.1716  0.1673 -0.5940
   70MOL0     C 9572   5.691   7.317   2.777  0.1416 -1.1164  0.2656
   70MOL0     N 9573   6.069   6.879   2.655  0.3460 -0.0347  0.2153
   70MOL0     N 9574   5.960   6.836   2.593 -0.3265 -0.3764  0.5067
   70MOL0     C 9575   4.641   6.843   2.237 -0.1806  0.5047 -0.5662
   70MOL0     C 9576   4.528   6.903   2.189  0.6628 -0.1265  0.8038
   70MOL0     C 9577   4.250   7.245   2.084  0.2281  0.6532 -0.4711
   70MOL0     C 9578   4.234   7.235   1.950  0.6090 -0.1685  0.2993
   70MOL0     C 9579   4.115   7.282   1.886 -0.5411 -0.4252 -0.2989
   70MOL0     C 9580   4.025   7.355   1.962  0.7609 -0.6472  0.4624
   70MOL0     O 9581   3.912   7.424   1.911 -0.2742  0.6919  0.0230
   70MOL0     C 9582   3.927   7.465   1.772  0.4096 -0.2820 -0.6156
   70MOL0     C 9583   3.830   7.582   1.741 -0.2092 -0.2579 -0.1615
   70MOL0     C 9584   3.837   7.626   1.590  0.1734 -0.1041 -0.0201
   70MOL0     C 9585   3.722   7.723   1.569  0.2427 -0.3833  0.9001
   70MOL0     C 9586   3.747   7.850   1.640 -0.2897 -0.4155  0.3385
   70MOL0     C 9587   3.784   7.949   1.688 -0.3787 -0.5893  0.3668
   70MOL0     C 9588   4.038   7.368   2.102  1.0727 -0.6520  0.4342
   70MOL0     C 9589   4.151   7.314   2.164  0.4597 -0.1406 -0.0265
   70MOL0     C 9590   4.145   7.319   2.318 -1.1212 -0.8700 -0.1805
   70MOL0     H 9591   4.689   7.122   1.979  1.0333  0.0759  0.2054
   70MOL0     H 9592   4.885   6.993   2.055 -0.6912  1.6357 -1.1535
   70MOL0     H 9593   4.997   6.964   2.231  0.4075 -0.5653 -2.0130
   70MOL0     H 9594   5.046   6.817   2.145 -0.9216  0.5067 -0.3601
   70MOL0     H 9595   5.022   6.861   2.446  0.7013 -1.2232  2.4717
   70MOL0     H 9596   5.071   6.709   2.368 -0.8479  0.2385 -1.7050
   70MOL0     H 9597   5.287   6.787   2.304  1.3740  1.6200 -1.2863
   70MOL0     H 9598   5.230   6.953   2.323 -3.7446 -0.7641 -2.1637
   70MOL0     H 9599   5.246   6.939   2.557  0.2460 -1.7465  2.2641
   70MOL0     H 9600   5.241   6.757   2.548  0.1403  0.3398 -0.2410
   70MOL0     H 9601   5.484   6.922   2.441  0.2719 -0.3553  0.9958
   70MOL0     H 9602   5.471   6.748   2.475  1.0333 -0.3533 -0.7763
   70MOL0     H 9603   5.486   6.978   2.663 -1.3801 -0.0369 -0.4626
   70MOL0     H 9604   5.465   6.815   2.728  4.6653 -2.2940  0.5134
   70MOL0     H 9605   5.685   6.745   2.639 -2.2553 -0.5078  0.5517
   70MOL0     H 9606   5.688   6.890   2.753 -0.8519 -0.3583  0.7221
   70MOL0     H 9607   5.719   6.893   2.457 -1.5683 -0.3271  0.1854
   70MOL0     H 9608   5.683   7.032   2.553  0.5336  0.9149  0.8365
   70MOL0     H 9609   5.876   7.125   2.733  0.1679  0.2654 -1.1823
   70MOL0     H 9610   6.215   7.127   2.760 -0.7263 -0.1073 -1.0337
   70MOL0     H 9611   6.187   7.010   2.873  1.9568  1.6480  0.2936
   70MOL0     H 9612   6.142   7.262   2.929  0.3387 -0.1643 -1.4137
   70MOL0     H 9613   6.025   7.272   2.806 -0.5844  1.6299  0.3617
   70MOL0     H 9614   5.884   7.099   2.926  1.1990  3.8519 -3.6766
   70MOL0     H 9615   6.001   7.090   3.057 -0.7225 -0.6686 -0.0727
   70MOL0     H 9616   5.791   7.217   3.104 -1.5173 -1.2654 -3.0733
   70MOL0     H 9617   5.948   7.315   3.116  2.6659 -4.4370  2.2478
   70MOL0     H 9618   5.607   7.353   3.092  0.6892 -2.7791  0.1990
   70MOL0     H 9619   5.277   7.253   3.006 -0.9287  0.3992 -0.3680
   70MOL0     H 9620   5.288   7.424   3.023 -0.3371 -0.0426  2.1436
   70MOL0     H 9621   5.390   7.343   3.129  1.2807  1.5554 -1.3597
   70MOL0     H 9622   5.385   7.262   2.332  0.0476  0.1901 -1.0376
   70MOL0     H 9623   5.209   7.277   2.147 -2.2930  0.0191 -0.5963
   70MOL0     H 9624   4.775   7.258   2.244 -0.9135  0.9897 -0.4535
   70MOL0     H 9625   4.845   7.409   2.293  0.2327 -0.0720 -0.0276
   70MOL0     H 9626   4.871   7.474   2.046 -0.1568  0.7533  0.5193
   70MOL0     H 9627   4.765   7.330   2.012 -1.1749  0.9303 -0.5347
   70MOL0     H 9628   4.695   7.593   2.137 -0.3877 -0.2661 -1.7191
   70MOL0     H 9629   4.608   7.437   2.186 -0.9009 -0.7043  0.1249
   70MOL0     H 9630   4.518   7.434   1.953  0.2632  0.9874  0.4741
   70MOL0     H 9631   4.649   7.554   1.907  1.3490  3.0737  1.1774
   70MOL0     H 9632   4.451   7.618   2.104 -2.1032  1.2709 -0.3583
   70MOL0     H 9633   4.523   7.727   1.965  1.0626 -1.5360 -0.3159
   70MOL0     H 9634   4.276   7.551   1.964 -1.3207 -0.4514 -0.8920
   70MOL0     H 9635   4.366   7.584   1.812 -2.3108  0.1903 -0.5989
   70MOL0     H 9636   4.350   7.821   1.840 -0.0022  0.5334  0.0333
   70MOL0     H 9637   4.288   7.804   2.006  1.0005  0.4298 -0.3404
   70MOL0     H 9638   4.122   7.866   1.848 -1.2671 -1.2987  1.8062
   70MOL0     H 9639   4.079   7.708   1.889 -0.4014  1.8952  0.2579
   70MOL0     H 9640   4.899   7.225   2.429 -0.7584 -0.6649 -2.1874
   70MOL0     H 9641   5.061   7.197   2.609 -2.7478  1.6481 -1.0352
   70MOL0     H 9642   5.584   7.260   2.613  0.1943 -2.2105 -0.0681
   70MOL0     H 9643   5.784   7.332   2.723  0.0939  1.8028  0.7930
   70MOL0     H 9644   4.630   6.776   2.321 -1.0448  2.6907  1.1633
   70MOL0     H 9645   4.438   6.871   2.240 -0.0984 -3.8042 -2.4169
   70MOL0     H 9646   4.310   7.194   1.884 -0.4770  0.0258 -1.1037
   70MOL0     H 9647   4.103   7.263   1.780 -1.0047 -1.8011 -0.0091
   70MOL0     H 9648   4.030   7.496   1.752  0.8855  0.6920  2.7132
   70MOL0     H 9649   3.914   7.384   1.700  2.7935 -0.9577 -0.3606
   70MOL0     H 9650   3.854   7.660   1.813  2.1736 -0.0060 -1.1335
   70MOL0     H 9651   3.734   7.536   1.767 -0.8331  1.2925  0.3588
   70MOL0     H 9652   3.933   7.676   1.572  0.0123  0.6583  1.1054
   70MOL0     H 9653   3.826   7.540   1.524 -0.2670 -2.6303  3.1082
   70MOL0     H 9654   3.628   7.673   1.595 -1.1363  0.3265 -2.1928
   70MOL0     H 9655   3.715   7.750   1.463  6.5688  3.0908  0.9239
   70MOL0     H 9656   3.818   8.045   1.718 -1.7971 -0.0133  0.2178
   70MOL0     H 9657   3.951   7.397   2.159  0.1325 -1.4569 -0.5399
   70MOL0     H 9658   4.246   7.344   2.353 -0.7625 -4.2561  1.5633
   70MOL0     H 9659   4.070   7.380   2.369 -1.8058 -2.8472  1.2749
   70MOL0     H 9660   4.134   7.215   2.351  1.0483 -2.1405 -3.0405
   71MOL0     O 9661   0.528   2.200   0.112 -0.1784  0.3924 -0.0600
   71MOL0     C 9662   0.455   2.261   0.197  0.5569  0.9186  0.6888
   71MOL0     O 9663   0.508   2.347   0.294  0.1881 -0.0166 -0.4515
   71MOL0     C 9664   0.646   2.373   0.292 -0.3804 -0.0539  0.2029
   71MOL0     C 9665   0.717   2.301   0.385 -0.4516  0.5531  0.8331
   71MOL0     C 9666   0.855   2.299   0.376 -0.1785 -0.2531 -0.3856
   71MOL0     C 9667   0.925   2.370   0.273 -0.0149 -0.2902 -0.5446
   71MOL0     O 9668   1.063   2.373   0.279 -0.4731  0.3825  0.1042
   71MOL0     C 9669   1.146   2.445   0.189 -0.2176 -0.5247 -0.3038
   71MOL0     C 9670   1.150   2.373   0.054  0.1246 -0.5878  0.1894
   71MOL0     C 9671   1.238   2.250   0.039 -0.8271  0.5500 -0.0537
   71MOL0     C 9672   1.390   2.276   0.041 -0.5946  0.6315  0.1611
   71MOL0     C 9673   1.456   2.139   0.008 -0.1925 -0.0567 -0.0419
   71MOL0     C 9674   1.488   2.124  -0.139 -0.2786  0.7789  0.1184
   71MOL0     C 9675   1.581   1.995  -0.158  1.0986 -0.1555  0.1458
   71MOL0     C 9676   1.600   1.943  -0.304  0.0566  0.5771 -0.5655
   71MOL0     N 9677   1.691   1.837  -0.314  0.2499 -0.1573  0.6583
   71MOL0     C 9678   1.732   1.781  -0.436 -0.5904 -0.7907  0.6146
   71MOL0     C 9679   1.845   1.714  -0.402 -0.0352  0.4968 -0.1613
   71MOL0     C 9680   1.929   1.647  -0.506 -0.5239  0.4202  0.8322
   71MOL0     C 9681   2.069   1.715  -0.506  0.1038  0.7605  0.6111
   71MOL0     C 9682   2.145   1.678  -0.635 -0.0075  0.2409  0.0496
   71MOL0     C 9683   2.170   1.520  -0.632  0.7112  0.0256 -0.5946
   71MOL0     O 9684   2.229   1.492  -0.506  0.1360 -0.3765 -0.8075
   71MOL0     C 9685   2.365   1.517  -0.497  0.1644  0.5971 -0.4929
   71MOL0     C 9686   2.427   1.487  -0.365  0.5988  0.1485 -0.3352
   71MOL0     C 9687   2.565   1.493  -0.348  0.3343  0.1614 -0.5525
   71MOL0     C 9688   2.620   1.471  -0.208 -1.0201 -0.3737 -0.9326
   71MOL0     C 9689   2.646   1.539  -0.459 -0.5148  0.4338  0.0001
   71MOL0     C 9690   2.794   1.562  -0.453 -0.3754  0.5587  0.4060
   71MOL0     O 9691   2.852   1.641  -0.551  0.1989  0.5210  0.3334
   71MOL0     C 9692   2.991   1.632  -0.571  0.3024  0.6896 -0.6676
   71MOL0     C 9693   3.043   1.513  -0.630 -1.4245  0.1356 -0.7046
   71MOL0     C 9694   3.183   1.505  -0.640 -0.3597  0.8287 -0.8559
   71MOL0     C 9695   3.279   1.590  -0.581 -0.1801  0.4687 -1.8272
   71MOL0     O 9696   3.414   1.569  -0.578 -0.8148  0.0991  0.3933
   71MOL0     C 9697   3.472   1.450  -0.644 -0.2804  0.5985  0.6145
   71MOL0     C 9698   3.625   1.468  -0.642 -0.4908  0.8054  0.5540
   71MOL0     C 9699   3.669   1.601  -0.698 -1.0914 -0.4434  0.4530
   71MOL0     C 9700   3.821   1.602  -0.719  0.1773  0.2645 -0.3932
   71MOL0     C 9701   3.876   1.744  -0.725  0.4166  0.5872 -0.0662
   71MOL0     C 9702   4.028   1.743  -0.712  0.6134 -0.9046 -0.6634
   71MOL0     C 9703   4.070   1.886  -0.733 -1.1422  0.3944 -0.3447
   71MOL0     C 9704   4.225   1.884  -0.759 -0.3892  0.3860 -0.4614
   71MOL0    Cl 9705   4.267   2.062  -0.716 -0.3141  0.3762 -0.1512
   71MOL0     C 9706   3.218   1.704  -0.525 -0.7592  0.3386  0.1251
   71MOL0     C 9707   3.083   1.729  -0.522  0.1318  0.7945 -0.2168
   71MOL0     O 9708   2.860   1.519  -0.358  0.0177  0.3020  0.5015
   71MOL0     C 9709   2.582   1.565  -0.583 -0.5180  0.0998 -0.1496
   71MOL0     C 9710   2.448   1.553  -0.605  0.6488  0.3810 -0.1062
   71MOL0     N 9711   1.857   1.717  -0.266  0.2794 -0.3413  0.8476
   71MOL0     N 9712   1.759   1.790  -0.213  0.1141 -0.0047 -0.0597
   71MOL0     C 9713   0.845   2.438   0.178 -0.3563 -0.2579 -0.3234
   71MOL0     C 9714   0.708   2.434   0.184 -0.1643 -0.8420  1.2080
   71MOL0     C 9715   0.307   2.258   0.173 -0.0737 -0.6593 -0.5970
   71MOL0     C 9716   0.237   2.369   0.225 -0.2099 -0.6144  0.3551
   71MOL0     C 9717   0.097   2.375   0.208 -0.9154  0.7777 -0.0751
   71MOL0     C 9718   0.028   2.269   0.152  0.1801  0.9705 -0.3788
   71MOL0     O 9719  -0.107   2.281   0.150 -0.6970  0.1290  0.9889
   71MOL0     C 9720  -0.172   2.250   0.021  0.3353  0.0463 -0.5196
   71MOL0     C 9721  -0.295   2.341   0.017  0.2229  0.6883 -0.0245
   71MOL0     C 9722  -0.374   2.311  -0.112  0.0648  0.3955  0.5497
   71MOL0     C 9723  -0.444   2.179  -0.124 -0.5127 -0.5432 -0.9756
   71MOL0     C 9724  -0.596   2.167  -0.116 -0.2990  0.3168 -0.7712
   71MOL0     C 9725  -0.721   2.163  -0.097 -0.8792  0.3371  0.3327
   71MOL0     C 9726   0.101   2.168   0.086 -0.0809 -1.0776 -0.7190
   71MOL0     C 9727   0.233   2.158   0.107 -0.5530 -0.0475  0.1021
   71MOL0     C 9728   0.294   2.022   0.065 -0.8393  0.7536  0.0494
   71MOL0     H 9729   0.666   2.245   0.463 -2.2064  0.3117 -0.4498
   71MOL0     H 9730   0.921   2.258   0.452  1.2040  0.3584 -1.2198
   71MOL0     H 9731   1.247   2.463   0.227 -0.5163  1.1509 -0.2473
   71MOL0     H 9732   1.113   2.548   0.180  2.6418  0.4526 -0.6841
   71MOL0     H 9733   1.050   2.340   0.023 -0.4479  1.2101 -0.0037
   71MOL0     H 9734   1.183   2.440  -0.027  1.4916  0.9706  1.9496
   71MOL0     H 9735   1.208   2.181   0.118 -2.8055 -1.1356 -2.1416
   71MOL0     H 9736   1.218   2.194  -0.053  1.5424 -1.2281  0.4208
   71MOL0     H 9737   1.413   2.357  -0.029  2.1431  0.1426  0.3731
   71MOL0     H 9738   1.412   2.304   0.145  0.1741  1.0381 -0.1084
   71MOL0     H 9739   1.396   2.061   0.056  1.2708 -0.6530  0.8946
   71MOL0     H 9740   1.541   2.142   0.078 -2.1565  3.4413  2.5623
   71MOL0     H 9741   1.402   2.115  -0.205 -1.7049  0.2053  1.9679
   71MOL0     H 9742   1.548   2.210  -0.170 -0.6554  1.1957  0.5315
   71MOL0     H 9743   1.541   1.919  -0.090 -2.7169  0.4100 -1.2354
   71MOL0     H 9744   1.683   2.022  -0.128  1.8962 -2.4755 -0.2464
   71MOL0     H 9745   1.507   1.908  -0.349  2.5379 -4.2615 -2.7734
   71MOL0     H 9746   1.634   2.025  -0.367 -0.8437  1.0973 -0.3824
   71MOL0     H 9747   1.686   1.789  -0.534 -1.8382 -0.5562  1.1941
   71MOL0     H 9748   1.880   1.666  -0.603  0.7026 -1.9968 -0.3561
   71MOL0     H 9749   1.932   1.539  -0.489 -2.6597  0.0907 -0.4761
   71MOL0     H 9750   2.048   1.821  -0.519 -2.6868 -0.0478 -3.5365
   71MOL0     H 9751   2.122   1.696  -0.412 -0.9621 -1.5700  0.8288
   71MOL0     H 9752   2.099   1.717  -0.726 -2.1638 -3.0166 -0.4494
   71MOL0     H 9753   2.243   1.725  -0.624 -0.6862  1.1950  2.8671
   71MOL0     H 9754   2.071   1.473  -0.629 -0.5883  2.5000 -1.5696
   71MOL0     H 9755   2.220   1.486  -0.723  1.0270 -0.2584 -0.3165
   71MOL0     H 9756   2.356   1.458  -0.288 -0.2732  0.1116 -1.1393
   71MOL0     H 9757   2.550   1.431  -0.134 -0.5398 -1.2277 -0.9433
   71MOL0     H 9758   2.663   1.561  -0.163 -2.0645  2.0103 -4.2514
   71MOL0     H 9759   2.691   1.390  -0.223  0.1913 -0.1997  2.7269
   71MOL0     H 9760   2.981   1.430  -0.665  1.3451 -2.2521 -0.3433
   71MOL0     H 9761   3.222   1.413  -0.680 -1.6289 -0.8653  1.5414
   71MOL0     H 9762   3.445   1.358  -0.590 -0.5910  1.1560  1.4456
   71MOL0     H 9763   3.448   1.439  -0.750 -1.1611  0.3511  0.8296
   71MOL0     H 9764   3.663   1.461  -0.540  4.7444 -1.9900 -1.2461
   71MOL0     H 9765   3.664   1.381  -0.696  2.5339  1.9681  0.6882
   71MOL0     H 9766   3.636   1.684  -0.635  3.0021  1.9518 -0.1419
   71MOL0     H 9767   3.615   1.609  -0.793  3.0196  2.4112 -1.9556
   71MOL0     H 9768   3.844   1.537  -0.804 -0.6583  0.6457 -0.9173
   71MOL0     H 9769   3.865   1.553  -0.632 -2.1894 -0.4251  0.4758
   71MOL0     H 9770   3.862   1.786  -0.825  2.1384 -0.4332 -0.7648
   71MOL0     H 9771   3.831   1.808  -0.649  1.3574  0.9894  0.1662
   71MOL0     H 9772   4.076   1.669  -0.778  1.0741 -0.5094 -0.7740
   71MOL0     H 9773   4.067   1.719  -0.613 -0.7770 -1.8040 -0.3061
   71MOL0     H 9774   4.050   1.940  -0.640  2.5376 -0.7601  1.3301
   71MOL0     H 9775   4.016   1.931  -0.816  0.0244 -0.6435 -1.7202
   71MOL0     H 9776   4.246   1.849  -0.861 -1.0823  3.2514 -1.6990
   71MOL0     H 9777   4.274   1.822  -0.684 -1.7117  2.0973  1.9484
   71MOL0     H 9778   3.280   1.771  -0.467  0.2440  0.1093 -0.6507
   71MOL0     H 9779   3.046   1.816  -0.468 -0.3489 -0.7811  2.1592
   71MOL0     H 9780   2.639   1.594  -0.670  0.2519 -0.2189  0.2436
   71MOL0     H 9781   2.410   1.577  -0.704 -1.7512 -1.2403  0.3105
   71MOL0     H 9782   0.892   2.501   0.103  0.0124 -0.3418 -0.1650
   71MOL0     H 9783   0.638   2.472   0.110 -0.7405  0.1288  2.2303
   71MOL0     H 9784   0.287   2.449   0.278  1.8806  0.0711 -2.3869
   71MOL0     H 9785   0.037   2.448   0.262 -0.1128  0.8330  0.7759
   71MOL0     H 9786  -0.111   2.276  -0.066 -1.6605  0.9277 -1.7208
   71MOL0     H 9787  -0.193   2.142   0.016 -0.7421  0.2962 -1.9428
   71MOL0     H 9788  -0.248   2.435  -0.012 -1.4960  0.3368 -4.7387
   71MOL0     H 9789  -0.357   2.350   0.106 -0.7478  0.0200 -0.6120
   71MOL0     H 9790  -0.449   2.388  -0.132  0.3868  0.1305 -2.0412
   71MOL0     H 9791  -0.315   2.330  -0.202 -3.0173 -1.1100 -1.9728
   71MOL0     H 9792  -0.404   2.105  -0.054 -1.0519  0.7789  0.8223
   71MOL0     H 9793  -0.424   2.150  -0.227  0.0733 -0.4371 -0.8963
   71MOL0     H 9794  -0.825   2.159  -0.072 -1.2488  1.3995 -0.9169
   71MOL0     H 9795   0.050   2.097   0.021 -1.9699 -1.5119  1.1237
   71MOL0     H 9796   0.226   1.936   0.062  0.3015 -0.1532 -2.2954
   71MOL0     H 9797   0.344   2.048  -0.029  2.6773  2.0762  2.0915
   71MOL0     H 9798   0.367   1.983   0.137  0.1327  1.4714 -0.5245
   72MOL0     O 9799   3.263   5.695   6.993 -0.0449  0.2815 -0.2441
   72MOL0     C 9800   3.165   5.638   7.037 -0.1012  0.2924 -0.2134
   72MOL0     O 9801   3.166   5.539   7.134 -0.3044  0.0875  0.7306
   72MOL0     C 9802   3.282   5.473   7.155 -0.6216  0.4903  0.3815
   72MOL0     C 9803   3.400   5.536   7.202 -0.0564  0.0036  0.4467
   72MOL0     C 9804   3.518   5.472   7.238  0.1103  0.5294 -0.5967
   72MOL0     C 9805   3.525   5.326   7.246 -0.3425 -0.6988  0.5749
   72MOL0     O 9806   3.630   5.250   7.290  0.4452  0.8003 -0.0544
   72MOL0     C 9807   3.755   5.315   7.277  0.1077 -0.0839 -0.8509
   72MOL0     C 9808   3.867   5.218   7.270 -0.5347 -0.3111 -0.1842
   72MOL0     C 9809   4.010   5.274   7.297  0.8528  0.0416  0.3229
   72MOL0     C 9810   4.108   5.157   7.279 -0.0812  0.0148  0.5071
   72MOL0     C 9811   4.255   5.204   7.267  0.7540 -0.6316 -0.4448
   72MOL0     C 9812   4.359   5.096   7.231 -0.3774 -0.3833 -0.0554
   72MOL0     C 9813   4.500   5.165   7.218 -0.2492 -0.1521 -0.8490
   72MOL0     C 9814   4.563   5.178   7.363 -0.2460 -0.0381  0.5006
   72MOL0     N 9815   4.705   5.219   7.350  0.5017 -0.6228  0.5930
   72MOL0     C 9816   4.752   5.325   7.267  0.7493  0.3729 -1.3458
   72MOL0     C 9817   4.882   5.338   7.305 -0.6707 -0.6238 -0.1719
   72MOL0     C 9818   4.976   5.436   7.240 -0.9627 -0.7431  0.7042
   72MOL0     C 9819   5.074   5.373   7.140  0.0397  0.6796 -0.5775
   72MOL0     C 9820   5.023   5.357   6.999  0.0614  0.1334 -0.3794
   72MOL0     C 9821   5.117   5.303   6.907 -0.1408  0.5101  0.5197
   72MOL0     O 9822   5.214   5.403   6.886 -0.8330 -0.3016 -0.4757
   72MOL0     C 9823   5.332   5.379   6.819  0.8990  0.8948  0.6606
   72MOL0     C 9824   5.353   5.269   6.731  0.4878  0.4587 -0.4721
   72MOL0     C 9825   5.483   5.239   6.687  0.5512  0.9392  1.2637
   72MOL0     C 9826   5.509   5.098   6.630  0.2042 -0.5665 -0.5472
   72MOL0     C 9827   5.583   5.334   6.699 -0.0236 -0.6521 -0.4032
   72MOL0     C 9828   5.724   5.315   6.654  0.1591 -0.1720  0.3737
   72MOL0     O 9829   5.810   5.411   6.703  0.4323 -0.7066 -0.0864
   72MOL0     C 9830   5.948   5.419   6.694  0.4737  0.4566 -0.0138
   72MOL0     C 9831   6.033   5.329   6.632 -0.7550 -0.1644 -0.6216
   72MOL0     C 9832   6.169   5.354   6.633 -0.0517 -0.4417 -0.6007
   72MOL0     C 9833   6.225   5.466   6.696 -0.3014  0.2852  0.2871
   72MOL0     O 9834   6.361   5.503   6.701  0.2046 -0.5750  0.1414
   72MOL0     C 9835   6.462   5.412   6.658  0.0062  0.3031  0.4976
   72MOL0     C 9836   6.599   5.479   6.661  1.0694  0.3552  0.4398
   72MOL0     C 9837   6.597   5.602   6.566 -0.1501  0.2696 -0.7844
   72MOL0     C 9838   6.730   5.676   6.586  0.2932 -0.8240  0.9393
   72MOL0     C 9839   6.743   5.788   6.479 -0.6245  0.2176  0.3911
   72MOL0     C 9840   6.664   5.912   6.528 -0.0444  0.2089 -0.0619
   72MOL0     C 9841   6.656   6.025   6.417  0.0410 -0.4483  0.4696
   72MOL0     C 9842   6.597   6.153   6.459  0.7145 -0.8736  0.0860
   72MOL0    Cl 9843   6.690   6.230   6.594 -0.5742 -0.3013  0.0973
   72MOL0     C 9844   6.135   5.558   6.752 -0.1740  1.0376  0.1008
   72MOL0     C 9845   5.998   5.538   6.753  0.1248  0.4442 -0.1554
   72MOL0     O 9846   5.759   5.216   6.589  0.3058  0.3793  0.0292
   72MOL0     C 9847   5.558   5.443   6.781 -0.6808 -0.0172  0.3585
   72MOL0     C 9848   5.433   5.470   6.838  0.2768 -0.0520  0.2180
   72MOL0     N 9849   4.914   5.238   7.400  0.7387  0.4246  0.0970
   72MOL0     N 9850   4.805   5.180   7.435  0.3255  0.7653 -1.2103
   72MOL0     C 9851   3.414   5.257   7.196 -0.4708  0.1707  0.8859
   72MOL0     C 9852   3.291   5.328   7.149 -0.4734 -0.3505  0.0400
   72MOL0     C 9853   3.030   5.667   6.986  0.6690 -0.8390  0.5544
   72MOL0     C 9854   2.919   5.602   7.049  0.3566 -0.0802  0.1520
   72MOL0     C 9855   2.790   5.625   7.007  0.7750 -0.0886 -0.7086
   72MOL0     C 9856   2.757   5.708   6.899  0.2961 -0.3330 -0.6683
   72MOL0     O 9857   2.622   5.708   6.874  0.2727  0.1125 -0.1543
   72MOL0     C 9858   2.593   5.786   6.752 -0.6064  0.3566 -0.1601
   72MOL0     C 9859   2.446   5.752   6.711 -0.2623 -0.7565  0.9075
   72MOL0     C 9860   2.419   5.808   6.564  0.3889 -0.1273 -0.4016
   72MOL0     C 9861   2.271   5.830   6.544  0.1795 -0.2296 -0.3511
   72MOL0     C 9862   2.191   5.722   6.483  0.2189  0.3328 -0.1850
   72MOL0     C 9863   2.121   5.635   6.434  0.1306  0.7791 -0.7805
   72MOL0     C 9864   2.866   5.778   6.838  0.9733  0.2819  0.2636
   72MOL0     C 9865   2.997   5.753   6.874 -0.3085  0.3879  0.2794
   72MOL0     C 9866   3.103   5.833   6.789 -0.2407  0.8762  0.6519
   72MOL0     H 9867   3.391   5.644   7.215 -1.6691 -0.3236  2.6565
   72MOL0     H 9868   3.589   5.550   7.264 -0.4068  0.3435  1.5262
   72MOL0     H 9869   3.765   5.386   7.360  0.3753  1.0189 -1.8084
   72MOL0     H 9870   3.759   5.371   7.184 -2.0756  2.2211  0.3277
   72MOL0     H 9871   3.852   5.123   7.324 -0.4311 -1.0725 -1.4642
   72MOL0     H 9872   3.865   5.204   7.162  1.3669  2.1068 -0.6335
   72MOL0     H 9873   4.040   5.350   7.225 -1.4580 -0.9528 -1.8489
   72MOL0     H 9874   4.016   5.305   7.402 -1.2253  1.5898  0.0458
   72MOL0     H 9875   4.106   5.084   7.360  0.1657  0.1305  0.6204
   72MOL0     H 9876   4.082   5.109   7.184  0.9553  0.9866 -0.2985
   72MOL0     H 9877   4.290   5.253   7.358  0.6152 -0.0086 -0.7185
   72MOL0     H 9878   4.248   5.275   7.184 -0.8833 -0.7019 -0.4044
   72MOL0     H 9879   4.393   5.023   7.305  3.4909  0.2666 -0.9459
   72MOL0     H 9880   4.337   5.036   7.142 -0.0198 -1.3553  0.5050
   72MOL0     H 9881   4.505   5.267   7.179  2.3556 -0.0008 -0.3268
   72MOL0     H 9882   4.570   5.105   7.159  1.8611 -2.7221  3.7496
   72MOL0     H 9883   4.512   5.243   7.435  2.5473 -1.0170  3.6555
   72MOL0     H 9884   4.561   5.086   7.422 -2.6457  1.3909  2.8561
   72MOL0     H 9885   4.684   5.375   7.199  0.8510  1.1257 -0.9077
   72MOL0     H 9886   5.036   5.479   7.321  1.4723  1.3838 -2.0212
   72MOL0     H 9887   4.923   5.513   7.183 -2.2720 -1.3063  1.1159
   72MOL0     H 9888   5.165   5.433   7.147  0.5729 -0.2014  0.3754
   72MOL0     H 9889   5.103   5.273   7.174 -1.5604  0.5219  0.4364
   72MOL0     H 9890   4.936   5.291   7.002  0.6945 -0.6881  1.2779
   72MOL0     H 9891   4.987   5.457   6.973 -0.8855  0.3622  1.5746
   72MOL0     H 9892   5.159   5.211   6.948 -2.0914  0.9112  3.7474
   72MOL0     H 9893   5.066   5.276   6.814 -0.2991  1.3830  0.3475
   72MOL0     H 9894   5.273   5.196   6.729  0.3485  0.4102  2.3635
   72MOL0     H 9895   5.599   5.051   6.671  0.0635  0.6585  1.2571
   72MOL0     H 9896   5.519   5.101   6.521  0.0273  1.4820 -0.5316
   72MOL0     H 9897   5.433   5.028   6.665  0.0388  0.3345  0.9504
   72MOL0     H 9898   5.999   5.239   6.581 -0.5943  0.3478 -1.6659
   72MOL0     H 9899   6.234   5.283   6.583 -1.7214 -1.6805 -1.1055
   72MOL0     H 9900   6.465   5.318   6.716 -3.9052 -0.3720 -0.1406
   72MOL0     H 9901   6.431   5.393   6.555 -0.0011  2.6753  0.0196
   72MOL0     H 9902   6.621   5.512   6.763 -0.5281  0.2376  0.8449
   72MOL0     H 9903   6.665   5.408   6.610  0.2939  1.0513 -1.6427
   72MOL0     H 9904   6.518   5.673   6.594 -0.1240  0.1629 -0.4358
   72MOL0     H 9905   6.596   5.564   6.463  4.3954 -1.7039 -0.3288
   72MOL0     H 9906   6.810   5.605   6.567  0.9419  0.4678 -1.6952
   72MOL0     H 9907   6.741   5.717   6.687  4.2285  0.7449  0.0602
   72MOL0     H 9908   6.849   5.817   6.471 -0.6776  0.3486  0.1691
   72MOL0     H 9909   6.724   5.767   6.374  2.1968  0.6301 -0.2890
   72MOL0     H 9910   6.710   5.949   6.620  0.7706 -2.8100  0.8638
   72MOL0     H 9911   6.561   5.879   6.538  0.3092 -1.1306 -0.5871
   72MOL0     H 9912   6.595   5.984   6.336 -1.4976 -1.2319  1.9380
   72MOL0     H 9913   6.757   6.038   6.376 -0.9958  1.2526 -1.6869
   72MOL0     H 9914   6.491   6.156   6.485  0.5395  4.0967 -0.1637
   72MOL0     H 9915   6.603   6.211   6.366 -1.6366  0.3668  0.6397
   72MOL0     H 9916   6.173   5.649   6.798  0.5016 -0.0753  1.8150
   72MOL0     H 9917   5.931   5.610   6.800 -1.1819 -0.9867  0.2333
   72MOL0     H 9918   5.632   5.522   6.787 -1.3853  0.9064 -2.0800
   72MOL0     H 9919   5.414   5.557   6.900 -0.3815  0.3217 -0.4901
   72MOL0     H 9920   3.409   5.149   7.190 -0.0312  0.0518  2.1587
   72MOL0     H 9921   3.200   5.284   7.110 -0.9649  3.5179 -3.8801
   72MOL0     H 9922   2.924   5.534   7.133 -2.5688 -0.4115  0.1699
   72MOL0     H 9923   2.713   5.575   7.065  1.4280  2.4332  2.6360
   72MOL0     H 9924   2.607   5.892   6.772  1.0916 -0.2103  2.0010
   72MOL0     H 9925   2.651   5.757   6.663 -0.3004  1.4874 -0.3405
   72MOL0     H 9926   2.372   5.797   6.777 -2.7513  0.8665 -2.6513
   72MOL0     H 9927   2.433   5.643   6.718 -0.2273 -0.9707 -1.4068
   72MOL0     H 9928   2.473   5.899   6.538 -6.5801  4.8173 -0.2319
   72MOL0     H 9929   2.450   5.735   6.488 -0.5257 -1.4420  0.4388
   72MOL0     H 9930   2.260   5.916   6.477  0.3924 -0.7721 -1.0956
   72MOL0     H 9931   2.214   5.868   6.630 -0.7909  1.0819 -1.5174
   72MOL0     H 9932   2.051   5.562   6.399 -0.8965  1.1906  0.3334
   72MOL0     H 9933   2.842   5.829   6.745  1.6275  1.1913  0.5871
   72MOL0     H 9934   3.194   5.777   6.767  0.1546  0.1836  3.6137
   72MOL0     H 9935   3.051   5.881   6.705 -0.7035  0.1303  0.5008
   72MOL0     H 9936   3.136   5.915   6.853  2.0706  2.3616 -2.2226
   73MOL0     O 9937   8.679   4.385  11.290 -0.4513  0.5781  0.1249
   73MOL0     C 9938   8.646   4.307  11.202  0.0322 -1.4246  0.5566
   73MOL0     O 9939   8.729   4.261  11.102 -0.2104 -0.2140 -0.0216
   73MOL0     C 9940   8.857   4.312  11.084 -0.3073 -0.3803 -0.2256
   73MOL0     C 9941   8.886   4.447  11.076 -0.1872  0.1814  0.1667
   73MOL0     C 9942   9.023   4.490  11.066 -0.1776 -0.3991 -0.0090
   73MOL0     C 9943   9.132   4.396  11.046 -0.1841 -0.8596  0.1396
   73MOL0     O 9944   9.268   4.431  11.038 -0.1234  0.6528 -0.4683
   73MOL0     C 9945   9.320   4.552  11.101 -0.4211 -0.3412  0.2563
   73MOL0     C 9946   9.289   4.680  11.015  0.6573  1.0002 -0.5481
   73MOL0     C 9947   9.407   4.777  11.005 -0.1358 -0.6069 -0.1520
   73MOL0     C 9948   9.358   4.922  10.959 -0.2345 -0.9154 -0.3458
   73MOL0     C 9949   9.460   5.033  10.994  0.3123 -0.1660  0.1405
   73MOL0     C 9950   9.594   5.013  10.923  0.3043 -0.2719 -0.0060
   73MOL0     C 9951   9.671   5.143  10.918 -0.3853  0.5501 -0.0224
   73MOL0     C 9952   9.603   5.256  10.842  0.5196 -0.2115 -0.8138
   73MOL0     N 9953   9.705   5.361  10.818 -0.2450  0.5230  0.4939
   73MOL0     C 9954   9.831   5.343  10.769 -0.4557 -0.6570  0.1470
   73MOL0     C 9955   9.901   5.456  10.799  0.3361 -0.4219  0.7024
   73MOL0     C 9956  10.045   5.472  10.793  0.0208  0.1793  0.5104
   73MOL0     C 9957  10.096   5.445  10.924 -0.0731  0.3498 -0.2164
   73MOL0     C 9958  10.248   5.400  10.939  0.7246 -0.1930  0.0548
   73MOL0     C 9959  10.284   5.268  10.862 -0.5481 -0.9818  0.1460
   73MOL0     O 9960  10.227   5.163  10.946 -0.2988  0.2672  0.0379
   73MOL0     C 9961  10.325   5.080  11.005  0.8729  0.1481  0.1982
   73MOL0     C 9962  10.455   5.114  11.047  0.4593 -0.2373  0.1327
   73MOL0     C 9963  10.545   5.018  11.100  0.5402 -0.0211  0.2722
   73MOL0     C 9964  10.686   5.071  11.131  1.1000  0.2139  0.2830
   73MOL0     C 9965  10.502   4.884  11.107  0.6547 -0.6194 -0.4878
   73MOL0     C 9966  10.584   4.769  11.151 -0.2517 -0.1676  0.0081
   73MOL0     O 9967  10.504   4.667  11.201  0.0703  0.0582  0.1230
   73MOL0     C 9968  10.550   4.553  11.267 -0.7031  0.8550  0.2936
   73MOL0     C 9969  10.498   4.428  11.232 -1.6338  0.2334 -0.1532
   73MOL0     C 9970  10.540   4.314  11.297 -0.3382  0.0397 -0.3970
   73MOL0     C 9971  10.632   4.323  11.399  0.3966  0.7291  0.1904
   73MOL0     O 9972  10.652   4.195  11.459 -0.2452 -0.7563 -0.0127
   73MOL0     C 9973  10.746   4.183  11.563 -1.5269  0.4586  0.9633
   73MOL0     C 9974  10.740   4.048  11.644 -0.0531 -0.5619 -0.2932
   73MOL0     C 9975  10.735   3.919  11.555 -0.8474 -0.4779  0.4754
   73MOL0     C 9976  10.763   3.798  11.634  0.0830  0.4592 -0.2138
   73MOL0     C 9977  10.754   3.677  11.545 -0.0969  0.5337 -0.4015
   73MOL0     C 9978  10.761   3.538  11.613 -0.8078 -0.1297 -0.3091
   73MOL0     C 9979  10.849   3.525  11.743 -0.6646  0.7730  0.4020
   73MOL0     C 9980  10.854   3.375  11.774 -0.2186  0.5596  0.0771
   73MOL0    Cl 9981  10.949   3.357  11.930  0.0865 -0.2273  0.0614
   73MOL0     C 9982  10.701   4.442  11.422  0.3742  0.0120 -0.0295
   73MOL0     C 9983  10.657   4.552  11.358 -0.3505 -0.3905 -1.2019
   73MOL0     O 9984  10.707   4.782  11.164 -0.4561  0.3398 -0.0463
   73MOL0     C 9985  10.362   4.858  11.080 -0.4919 -0.8708  0.2088
   73MOL0     C 9986  10.281   4.955  11.031  0.0907  0.1451  0.7299
   73MOL0     N 9987   9.812   5.536  10.862  0.0237 -0.6470 -0.8939
   73MOL0     N 9988   9.705   5.471  10.899 -0.0200  0.3457 -0.0361
   73MOL0     C 9989   9.099   4.266  11.046 -0.4013  0.9255  0.0734
   73MOL0     C 9990   8.969   4.217  11.073 -0.0785 -1.3467 -0.3842
   73MOL0     C 9991   8.502   4.255  11.198  0.4510  0.1295 -0.7785
   73MOL0     C 9992   8.471   4.154  11.110 -0.3234 -0.4421  0.2908
   73MOL0     C 9993   8.343   4.101  11.099  0.3148 -0.5983  0.0105
   73MOL0     C 9994   8.245   4.158  11.180  0.2324 -0.5649 -0.4311
   73MOL0     O 9995   8.116   4.119  11.184  0.5892 -0.0761  0.1279
   73MOL0     C 9996   8.063   4.021  11.090 -0.5683 -0.8550 -0.3829
   73MOL0     C 9997   8.020   4.071  10.956 -0.1545 -0.3164  0.0103
   73MOL0     C 9998   7.934   3.968  10.872  0.1217 -1.0321  0.1445
   73MOL0     C 9999   7.870   4.041  10.751  0.5296  0.4747 -1.0418
   73MOL0     C10000   7.843   3.931  10.656  0.1641 -0.3220 -0.0125
   73MOL0     C10001   7.815   3.851  10.569 -0.6381 -0.0885  0.1525
   73MOL0     C10002   8.273   4.255  11.275 -0.2681 -0.7671  0.0825
   73MOL0     C10003   8.400   4.313  11.285 -0.9933  0.9138  0.1767
   73MOL0     C10004   8.424   4.421  11.388  0.7936  0.5742  0.6019
   73MOL0     H10005   8.805   4.517  11.091  2.2354  2.8235  1.9791
   73MOL0     H10006   9.050   4.594  11.061  0.9360 -0.4423  3.0166
   73MOL0     H10007   9.430   4.555  11.102 -0.2277 -3.5274 -0.5345
   73MOL0     H10008   9.279   4.564  11.202  0.5314  0.4004  0.5682
   73MOL0     H10009   9.259   4.647  10.915 -0.4313  2.7845 -0.8334
   73MOL0     H10010   9.212   4.729  11.075  0.1521  0.0395 -0.3951
   73MOL0     H10011   9.445   4.791  11.107  0.5254  0.1416 -0.4862
   73MOL0     H10012   9.487   4.726  10.951 -1.0219 -2.5750  0.2962
   73MOL0     H10013   9.325   4.932  10.855 -0.7072  2.8532  0.0443
   73MOL0     H10014   9.271   4.951  11.018 -0.0813  1.1328 -1.0225
   73MOL0     H10015   9.487   5.029  11.100  2.8851 -0.7258 -0.4815
   73MOL0     H10016   9.411   5.129  10.972  1.1222 -0.0343 -1.1757
   73MOL0     H10017   9.638   4.930  10.979 -0.5896 -0.9763 -0.3171
   73MOL0     H10018   9.582   4.974  10.822 -0.6632  0.3582 -0.1464
   73MOL0     H10019   9.768   5.113  10.879 -0.1027 -2.6165  2.6793
   73MOL0     H10020   9.689   5.184  11.018  1.4885  2.1846 -0.9649
   73MOL0     H10021   9.568   5.214  10.747 -1.4314  0.9031 -0.6528
   73MOL0     H10022   9.526   5.299  10.907  1.5174  0.5078 -0.0722
   73MOL0     H10023   9.887   5.255  10.741 -0.9361 -1.3410  1.2729
   73MOL0     H10024  10.083   5.567  10.756 -2.0775  0.6691 -0.5085
   73MOL0     H10025  10.083   5.387  10.735 -3.6405 -0.8643 -0.5887
   73MOL0     H10026  10.072   5.530  10.989 -4.3280  0.3077 -1.4144
   73MOL0     H10027  10.045   5.360  10.969 -0.3988  1.3203  1.3098
   73MOL0     H10028  10.306   5.484  10.901  1.0467 -0.2046  0.5123
   73MOL0     H10029  10.277   5.394  11.044  0.4594  2.1848  0.3103
   73MOL0     H10030  10.242   5.274  10.761 -1.3299 -1.8154  0.4116
   73MOL0     H10031  10.393   5.261  10.861 -0.5437 -1.6946  2.0349
   73MOL0     H10032  10.482   5.219  11.043 -1.5234  0.3062 -3.0635
   73MOL0     H10033  10.722   5.056  11.234  2.5618  0.1580 -0.2029
   73MOL0     H10034  10.689   5.178  11.111 -0.9032  0.4322  1.0240
   73MOL0     H10035  10.765   5.027  11.069  2.8142 -0.2807  2.6490
   73MOL0     H10036  10.422   4.417  11.156  0.0043 -0.1532 -1.8220
   73MOL0     H10037  10.504   4.220  11.257 -2.8319  0.3601  0.8902
   73MOL0     H10038  10.848   4.192  11.525 -1.7329 -2.6660 -0.7269
   73MOL0     H10039  10.725   4.262  11.636  0.3003  0.4275  1.5717
   73MOL0     H10040  10.830   4.042  11.707  0.5463  1.0229 -0.9418
   73MOL0     H10041  10.654   4.053  11.711  0.9154 -0.4383  0.9735
   73MOL0     H10042  10.804   3.939  11.473 -3.0258  1.1457 -1.0705
   73MOL0     H10043  10.632   3.908  11.521 -0.8992 -2.8721  1.2504
   73MOL0     H10044  10.706   3.789  11.727  3.2122 -2.4512  1.6568
   73MOL0     H10045  10.864   3.813  11.671  0.4042  3.1683 -1.9551
   73MOL0     H10046  10.663   3.682  11.485 -0.3166  2.7327  0.0282
   73MOL0     H10047  10.842   3.674  11.481  1.8747  3.1394  1.9338
   73MOL0     H10048  10.775   3.451  11.549  1.2156 -3.4120  4.0752
   73MOL0     H10049  10.661   3.523  11.654 -0.7134 -3.3854 -1.0085
   73MOL0     H10050  10.795   3.585  11.816 -4.5054 -1.3605 -0.3656
   73MOL0     H10051  10.946   3.569  11.722  0.9120 -1.8415  1.7282
   73MOL0     H10052  10.902   3.325  11.690 -2.0057 -0.3701 -0.4256
   73MOL0     H10053  10.753   3.335  11.786 -0.0367 -0.1800 -0.8149
   73MOL0     H10054  10.787   4.445  11.486  0.4083  0.1897 -0.0846
   73MOL0     H10055  10.701   4.650  11.372 -0.2573 -0.0214 -3.7059
   73MOL0     H10056  10.328   4.757  11.102  1.6518 -0.9920  3.7324
   73MOL0     H10057  10.177   4.929  11.011 -0.0710  1.0298  0.3849
   73MOL0     H10058   9.175   4.190  11.027 -1.8965 -0.2332 -1.5516
   73MOL0     H10059   8.962   4.111  11.092 -0.6559 -1.3445 -0.5570
   73MOL0     H10060   8.553   4.115  11.050  1.0972  1.7324  0.7356
   73MOL0     H10061   8.325   4.013  11.039  0.4425 -0.6007 -0.0250
   73MOL0     H10062   8.133   3.940  11.068  0.1740 -0.1002 -0.8343
   73MOL0     H10063   7.980   3.976  11.145  2.2922 -2.3965  3.1495
   73MOL0     H10064   8.105   4.110  10.900  0.4291 -1.4566  0.0667
   73MOL0     H10065   7.956   4.159  10.965 -0.1988 -0.4760  1.5927
   73MOL0     H10066   7.992   3.879  10.843 -0.5080 -0.6899 -2.4895
   73MOL0     H10067   7.853   3.924  10.930  0.8081 -3.9019 -0.8565
   73MOL0     H10068   7.934   4.122  10.715  2.8000  0.0807  1.7543
   73MOL0     H10069   7.777   4.092  10.777 -1.2270 -1.8654 -2.4153
   73MOL0     H10070   7.794   3.791  10.483 -0.0397 -1.4235  0.9054
   73MOL0     H10071   8.196   4.299  11.338  0.9098  3.0533 -0.8536
   73MOL0     H10072   8.497   4.391  11.464 -1.6519 -0.2004  2.7865
   73MOL0     H10073   8.456   4.518  11.349  3.5269  0.4238  2.2162
   73MOL0     H10074   8.331   4.446  11.438 -1.6785 -1.0231 -2.8016
   74MOL0     O10075   5.466   1.000   5.050  0.8518 -1.1181 -0.4770
   74MOL0     C10076   5.535   1.102   5.043 -0.2163 -0.7112  0.3041
   74MOL0     O10077   5.653   1.121   5.105 -1.1317  0.7903 -0.2086
   74MOL0     C10078   5.689   1.024   5.202  1.1455 -0.0013  0.4905
   74MOL0     C10079   5.809   0.953   5.183 -1.4437  0.8173 -0.1744
   74MOL0     C10080   5.843   0.842   5.275  0.5008 -0.9260 -0.3379
   74MOL0     C10081   5.757   0.819   5.384 -0.5972  0.1057  0.1994
   74MOL0     O10082   5.801   0.728   5.480 -0.5912  0.3227  0.2807
   74MOL0     C10083   5.738   0.702   5.602  0.2613  0.4578 -0.5392
   74MOL0     C10084   5.783   0.806   5.706  0.6364  0.0192  0.0669
   74MOL0     C10085   5.925   0.864   5.696 -0.4883  0.2918 -0.5509
   74MOL0     C10086   5.938   0.976   5.798  0.3242 -0.2595 -0.2685
   74MOL0     C10087   6.061   1.063   5.792  0.1601  0.6396 -0.1562
   74MOL0     C10088   6.056   1.143   5.917 -0.2535  1.0158 -0.1011
   74MOL0     C10089   5.950   1.255   5.928 -0.3733  0.2016  1.0255
   74MOL0     C10090   5.967   1.344   6.053 -0.1160 -0.2275  0.4738
   74MOL0     N10091   5.882   1.464   6.032  0.2878  0.2278  0.1675
   74MOL0     C10092   5.909   1.566   5.946 -0.3269 -0.0677  0.1474
   74MOL0     C10093   5.798   1.641   5.940 -0.0453  0.5010  0.3585
   74MOL0     C10094   5.789   1.765   5.853  0.3066 -1.2108  0.0081
   74MOL0     C10095   5.676   1.743   5.756 -0.9412  0.1759 -0.2338
   74MOL0     C10096   5.636   1.851   5.656 -0.4600 -0.8295 -0.3959
   74MOL0     C10097   5.747   1.934   5.612 -0.1923  1.0005 -0.2906
   74MOL0     O10098   5.853   1.856   5.551 -0.5136 -0.3629  0.1756
   74MOL0     C10099   5.966   1.911   5.492 -0.4275  0.1496 -0.1208
   74MOL0     C10100   6.018   1.859   5.367  0.2563  0.3947  0.6843
   74MOL0     C10101   6.123   1.922   5.293  0.9900  0.1778 -0.3519
   74MOL0     C10102   6.162   1.857   5.154  0.0476 -0.2423 -0.0736
   74MOL0     C10103   6.187   2.029   5.348 -0.3414  0.2250  0.2083
   74MOL0     C10104   6.305   2.094   5.288 -0.0956 -0.2744 -0.1425
   74MOL0     O10105   6.374   2.186   5.368 -0.3330  0.3537 -0.2372
   74MOL0     C10106   6.479   2.241   5.304 -0.1497  0.6740  0.6385
   74MOL0     C10107   6.613   2.214   5.349 -0.1297  0.2903  0.8863
   74MOL0     C10108   6.722   2.275   5.292  0.7461  0.0082 -0.5913
   74MOL0     C10109   6.713   2.360   5.181  0.2799 -0.1550 -0.3393
   74MOL0     O10110   6.830   2.419   5.143  0.7729  1.1459  0.2128
   74MOL0     C10111   6.835   2.458   5.007  0.0897 -0.4885  0.4043
   74MOL0     C10112   6.971   2.515   4.972 -0.6185  0.6420  0.3996
   74MOL0     C10113   7.023   2.639   5.059  0.8512  0.2454  0.1443
   74MOL0     C10114   7.166   2.660   5.017 -0.5701 -0.7557 -0.2887
   74MOL0     C10115   7.204   2.809   5.034  0.4201  0.0025  0.3812
   74MOL0     C10116   7.178   2.862   5.178 -1.2330 -0.2884  0.4322
   74MOL0     C10117   7.192   3.008   5.188 -0.9327 -0.0181 -0.1323
   74MOL0     C10118   7.188   3.039   5.335 -0.6052  0.2156  0.0175
   74MOL0    Cl10119   7.017   3.016   5.401  0.1966 -0.1181  0.0321
   74MOL0     C10120   6.583   2.402   5.141  0.3133  0.7844 -0.4624
   74MOL0     C10121   6.471   2.342   5.206  0.5086  0.1092 -0.0531
   74MOL0     O10122   6.329   2.077   5.171  0.2348  0.5529 -0.0519
   74MOL0     C10123   6.138   2.089   5.464 -0.4146 -0.4121 -0.4717
   74MOL0     C10124   6.025   2.031   5.539  0.0416  0.2677  0.1668
   74MOL0     N10125   5.706   1.575   6.009 -0.7648  0.5163 -0.1614
   74MOL0     N10126   5.756   1.477   6.074  0.5393  0.1900  0.4545
   74MOL0     C10127   5.635   0.893   5.398 -0.1689  0.6392  0.1258
   74MOL0     C10128   5.603   1.000   5.313  0.0516 -0.5186  0.0896
   74MOL0     C10129   5.498   1.210   4.954 -0.5318  0.2719  0.0417
   74MOL0     C10130   5.588   1.318   4.929 -0.0919  0.2500 -0.7639
   74MOL0     C10131   5.563   1.415   4.835  1.1830  0.3412  0.2840
   74MOL0     C10132   5.440   1.421   4.770 -0.0963 -1.1185  0.2897
   74MOL0     O10133   5.409   1.512   4.677  0.6447  0.3440  0.1712
   74MOL0     C10134   5.517   1.586   4.612 -0.2199 -0.4249 -0.1223
   74MOL0     C10135   5.457   1.645   4.481  0.1724 -0.5272  0.7510
   74MOL0     C10136   5.380   1.781   4.491  0.2949  0.3808  0.1676
   74MOL0     C10137   5.241   1.757   4.550 -0.3690 -0.3674 -0.0230
   74MOL0     C10138   5.189   1.882   4.608  0.1578 -0.0916  0.1860
   74MOL0     C10139   5.149   1.985   4.663 -0.4060  0.3247 -0.4068
   74MOL0     C10140   5.342   1.323   4.809  0.2172 -0.6149  1.8054
   74MOL0     C10141   5.370   1.216   4.895  1.1653 -0.0418  0.4771
   74MOL0     C10142   5.247   1.121   4.910 -0.6877  0.0305  0.6237
   74MOL0     H10143   5.869   0.982   5.097 -0.8155  2.5509  0.7965
   74MOL0     H10144   5.934   0.784   5.265  0.0761 -1.6424 -0.0311
   74MOL0     H10145   5.780   0.604   5.628  0.9971  1.3108  1.7309
   74MOL0     H10146   5.630   0.698   5.589  0.2346 -0.4192 -0.1417
   74MOL0     H10147   5.716   0.890   5.689  0.2694 -0.2560  0.1264
   74MOL0     H10148   5.765   0.766   5.806 -0.5634 -1.5033 -0.7057
   74MOL0     H10149   5.995   0.789   5.733 -1.2151 -0.9244 -1.5462
   74MOL0     H10150   5.949   0.893   5.593  3.2543 -0.0193  0.0977
   74MOL0     H10151   5.849   1.040   5.788  1.3937  1.5335  1.1141
   74MOL0     H10152   5.922   0.938   5.899 -0.8022  1.4877  0.2565
   74MOL0     H10153   6.073   1.111   5.694  3.1165 -2.0140 -1.2583
   74MOL0     H10154   6.152   1.003   5.799  0.8669  1.0822 -3.6678
   74MOL0     H10155   6.053   1.084   6.009  1.4883  0.9147 -0.0765
   74MOL0     H10156   6.155   1.187   5.922  1.0330 -1.8520  2.8910
   74MOL0     H10157   5.847   1.218   5.928 -0.6112  0.8457  1.1392
   74MOL0     H10158   5.963   1.315   5.837 -1.1986 -3.8952 -2.0527
   74MOL0     H10159   5.930   1.295   6.144 -0.1460  0.8791  1.0714
   74MOL0     H10160   6.070   1.374   6.073 -0.1646  2.1024 -2.1988
   74MOL0     H10161   6.004   1.581   5.894  0.2779 -1.4072  0.8111
   74MOL0     H10162   5.881   1.789   5.799  0.2823  1.8463  1.1535
   74MOL0     H10163   5.772   1.846   5.923  2.3162 -1.9873  1.5051
   74MOL0     H10164   5.699   1.655   5.696 -2.2431  0.1871 -0.7967
   74MOL0     H10165   5.593   1.713   5.821 -0.8128  0.7325  0.2019
   74MOL0     H10166   5.579   1.807   5.573 -0.7886 -2.5028  0.6539
   74MOL0     H10167   5.569   1.916   5.712 -0.5483  0.6821 -2.1766
   74MOL0     H10168   5.710   2.006   5.539 -2.4831 -1.4523 -1.7588
   74MOL0     H10169   5.781   1.990   5.700 -1.9428 -1.1235  1.8971
   74MOL0     H10170   5.973   1.765   5.336  0.6261 -0.1863  1.8812
   74MOL0     H10171   6.114   1.760   5.143 -0.5685  0.3234 -3.0325
   74MOL0     H10172   6.269   1.839   5.136 -0.0487 -1.5347  0.4994
   74MOL0     H10173   6.137   1.922   5.070  1.4415 -0.3736 -0.6274
   74MOL0     H10174   6.623   2.131   5.419 -1.1094  1.1938  2.1336
   74MOL0     H10175   6.820   2.253   5.333  1.2563 -0.2630 -1.9126
   74MOL0     H10176   6.820   2.375   4.937 -0.3911 -0.3494  0.3437
   74MOL0     H10177   6.751   2.523   4.982  1.0969  0.0364 -1.9285
   74MOL0     H10178   7.048   2.437   4.980  1.8433  2.7461 -0.9653
   74MOL0     H10179   6.966   2.541   4.866 -0.7343  0.1854  0.2930
   74MOL0     H10180   7.007   2.616   5.165 -2.1081 -1.2910 -0.5412
   74MOL0     H10181   6.959   2.725   5.037 -1.6287 -1.0443  1.8245
   74MOL0     H10182   7.173   2.636   4.911  0.7942  0.5791 -0.5328
   74MOL0     H10183   7.233   2.593   5.072 -0.9358 -1.2044 -0.3833
   74MOL0     H10184   7.305   2.823   4.997 -0.4225  1.1423 -1.6792
   74MOL0     H10185   7.145   2.870   4.965  1.0266  1.8599  1.4301
   74MOL0     H10186   7.239   2.808   5.251 -0.5367 -0.8091 -0.4970
   74MOL0     H10187   7.073   2.842   5.201 -1.0934 -0.0326  1.3078
   74MOL0     H10188   7.113   3.060   5.132  1.0871  0.7687 -2.4055
   74MOL0     H10189   7.296   3.023   5.158  0.6151 -3.7308  2.6015
   74MOL0     H10190   7.228   3.140   5.348  0.8756 -0.7500  4.9738
   74MOL0     H10191   7.254   2.980   5.400 -1.9481 -2.6226 -1.0483
   74MOL0     H10192   6.572   2.477   5.064  0.7019 -1.7900 -3.1799
   74MOL0     H10193   6.369   2.354   5.170  0.7284 -1.0090 -1.1249
   74MOL0     H10194   6.175   2.184   5.503 -1.1470 -1.0914  2.1134
   74MOL0     H10195   5.988   2.083   5.627 -0.8161  0.1104 -0.0888
   74MOL0     H10196   5.571   0.879   5.485 -1.6954  1.1337 -0.8983
   74MOL0     H10197   5.508   1.053   5.318  0.4909  0.2752  0.2274
   74MOL0     H10198   5.684   1.325   4.980 -0.8203  0.4617  0.6027
   74MOL0     H10199   5.635   1.493   4.811  0.1940  1.4026  0.6776
   74MOL0     H10200   5.555   1.664   4.678 -0.2050 -0.5448  0.0105
   74MOL0     H10201   5.598   1.521   4.578 -0.8689 -0.8886 -0.8216
   74MOL0     H10202   5.393   1.565   4.443  1.0588 -1.6928  1.6225
   74MOL0     H10203   5.537   1.654   4.407 -0.4423 -2.5528 -0.2305
   74MOL0     H10204   5.439   1.850   4.552 -0.5446 -0.3610  1.8917
   74MOL0     H10205   5.362   1.821   4.391 -1.3947  0.5133  0.5011
   74MOL0     H10206   5.242   1.685   4.632  0.5713 -1.7101 -1.1665
   74MOL0     H10207   5.185   1.705   4.472 -0.7912  0.8684 -0.5638
   74MOL0     H10208   5.124   2.082   4.700  0.6436 -0.0966  1.5429
   74MOL0     H10209   5.252   1.346   4.753  0.5929  0.2510  1.5548
   74MOL0     H10210   5.224   1.098   5.014 -0.7666 -0.4708  0.4969
   74MOL0     H10211   5.157   1.156   4.859  1.0771  0.3744 -2.4998
   74MOL0     H10212   5.285   1.032   4.860  2.7728  1.9414 -0.4873
   75MOL0     O10213   5.890   0.906   6.182 -0.8224 -0.7651 -0.4014
   75MOL0     C10214   5.848   0.791   6.199 -0.2500  0.0543  0.2374
   75MOL0     O10215   5.917   0.689   6.240  0.2199 -0.3775  0.0297
   75MOL0     C10216   6.055   0.688   6.218 -0.0861  0.0707 -0.1199
   75MOL0     C10217   6.134   0.625   6.318  0.6012  0.8403  0.7612
   75MOL0     C10218   6.276   0.625   6.307  0.5637  1.1218  0.7830
   75MOL0     C10219   6.335   0.687   6.200 -0.7824  0.3370  0.3440
   75MOL0     O10220   6.477   0.676   6.194  0.0957  0.0070  0.5828
   75MOL0     C10221   6.550   0.742   6.093 -0.9668  0.5643  0.7249
   75MOL0     C10222   6.686   0.660   6.081  0.3221 -0.2500  0.6688
   75MOL0     C10223   6.783   0.760   6.023  0.5082  0.2020 -0.4565
   75MOL0     C10224   6.874   0.694   5.922  0.1624 -0.3452  0.5362
   75MOL0     C10225   6.997   0.784   5.886 -0.0937 -0.3465 -0.5868
   75MOL0     C10226   7.106   0.719   5.810  0.1460 -0.6400 -0.2572
   75MOL0     C10227   7.202   0.651   5.913  0.5298 -0.5082 -0.2376
   75MOL0     C10228   7.267   0.528   5.866 -0.6758  0.7594  0.0819
   75MOL0     N10229   7.360   0.538   5.752 -0.3197  0.4367 -0.7842
   75MOL0     C10230   7.465   0.447   5.731 -0.0319  0.2285  0.0189
   75MOL0     C10231   7.552   0.502   5.647  0.0658 -1.0311 -0.0951
   75MOL0     C10232   7.684   0.455   5.598 -0.5662  0.2996 -0.2800
   75MOL0     C10233   7.711   0.498   5.454  0.0081  0.0420  0.1408
   75MOL0     C10234   7.855   0.490   5.408 -0.1534 -0.6635  0.8595
   75MOL0     C10235   7.921   0.353   5.439 -0.5151 -0.3255 -0.0888
   75MOL0     O10236   7.965   0.339   5.573 -0.0610  0.5670  0.6119
   75MOL0     C10237   8.086   0.269   5.588  0.7392 -0.2720  0.8610
   75MOL0     C10238   8.116   0.162   5.510 -0.9380  0.4621  0.1821
   75MOL0     C10239   8.241   0.087   5.529  0.1025 -0.5443  0.4334
   75MOL0     C10240   8.278  -0.018   5.437  0.3286  0.8099 -0.0962
   75MOL0     C10241   8.323   0.124   5.639  0.7772 -0.3204  0.1492
   75MOL0     C10242   8.443   0.057   5.689 -0.3481  0.8458  0.1746
   75MOL0     O10243   8.497   0.106   5.806  0.4388  0.7306 -0.2916
   75MOL0     C10244   8.620   0.053   5.836  0.7479 -0.6913 -0.5699
   75MOL0     C10245   8.740   0.090   5.770  0.0639 -0.0066 -0.0415
   75MOL0     C10246   8.855   0.039   5.834 -0.0358  0.1367  0.7333
   75MOL0     C10247   8.858  -0.057   5.932  0.7025 -0.0199 -0.6671
   75MOL0     O10248   8.976  -0.114   5.974  0.3441  0.0037  0.3501
   75MOL0     C10249   9.062  -0.175   5.876  0.4697 -0.4996 -0.2236
   75MOL0     C10250   9.182  -0.240   5.944 -0.0312 -0.2584 -0.4647
   75MOL0     C10251   9.251  -0.137   6.032 -0.2089 -0.6564  0.3173
   75MOL0     C10252   9.360  -0.057   5.944 -0.5657  0.7467 -0.2437
   75MOL0     C10253   9.354   0.097   5.962  0.0509 -0.2982  0.0987
   75MOL0     C10254   9.233   0.161   5.900  0.1572  0.4096  0.0859
   75MOL0     C10255   9.251   0.309   5.909  0.9608 -0.0772 -1.2682
   75MOL0     C10256   9.137   0.393   5.856  0.2898 -0.3219 -0.2114
   75MOL0    Cl10257   9.102   0.345   5.684 -0.4019  0.0974 -0.1132
   75MOL0     C10258   8.737  -0.080   5.999  0.6427 -0.0367  0.4200
   75MOL0     C10259   8.620  -0.018   5.957 -0.4207  0.5495  0.2848
   75MOL0     O10260   8.494  -0.038   5.621 -0.0328 -0.3890 -0.2430
   75MOL0     C10261   8.279   0.230   5.730  1.0394  0.7594  0.9602
   75MOL0     C10262   8.168   0.309   5.693  0.2397  0.5374  0.5422
   75MOL0     N10263   7.502   0.626   5.616  0.0119 -0.1724 -0.3743
   75MOL0     N10264   7.386   0.649   5.679  0.9137  0.7342  0.9847
   75MOL0     C10265   6.260   0.752   6.102  0.1360  0.3501  0.5688
   75MOL0     C10266   6.124   0.757   6.113  0.2325 -0.2528 -0.1960
   75MOL0     C10267   5.713   0.765   6.142 -0.1091  0.1568 -0.9995
   75MOL0     C10268   5.678   0.630   6.127 -0.2711 -0.0221 -0.3095
   75MOL0     C10269   5.557   0.596   6.067 -0.8457 -0.1141 -0.4887
   75MOL0     C10270   5.471   0.690   6.016  0.4912 -0.6695  0.6318
   75MOL0     O10271   5.347   0.658   5.973  0.2416  0.0536 -0.2413
   75MOL0     C10272   5.317   0.525   5.939  0.4376 -0.3140 -0.5099
   75MOL0     C10273   5.180   0.530   5.882  0.8018  1.2602 -0.4924
   75MOL0     C10274   5.166   0.616   5.753 -0.6162  0.1291  0.4675
   75MOL0     C10275   5.034   0.590   5.689  0.3435 -0.3468 -0.3931
   75MOL0     C10276   4.926   0.682   5.732 -1.5082 -0.8631  0.0404
   75MOL0     C10277   4.859   0.776   5.759  0.2663  0.1715 -0.1353
   75MOL0     C10278   5.507   0.825   6.029 -0.3765  1.1123 -0.5788
   75MOL0     C10279   5.616   0.859   6.106  0.3239 -0.0631 -0.2442
   75MOL0     C10280   5.631   1.005   6.142 -0.2767 -0.8460 -0.4754
   75MOL0     H10281   6.077   0.565   6.388 -2.2180 -0.3940 -2.3471
   75MOL0     H10282   6.328   0.571   6.385  1.1347  0.9708  0.3089
   75MOL0     H10283   6.576   0.844   6.124 -0.8711  0.5763  0.6049
   75MOL0     H10284   6.510   0.738   5.991 -2.0576  2.4384  1.0310
   75MOL0     H10285   6.714   0.619   6.179  0.1877 -1.0116  0.3926
   75MOL0     H10286   6.673   0.577   6.012  2.7803  0.3426 -0.6137
   75MOL0     H10287   6.729   0.830   5.959 -2.2065 -2.0303 -0.7603
   75MOL0     H10288   6.841   0.804   6.105 -0.6552 -0.0682  0.5262
   75MOL0     H10289   6.911   0.596   5.954 -0.7160 -1.0693 -0.6306
   75MOL0     H10290   6.812   0.677   5.834 -0.2954 -1.4952  1.0571
   75MOL0     H10291   7.036   0.838   5.972  1.8236  0.4694 -1.8901
   75MOL0     H10292   6.960   0.870   5.829  0.5209  0.1752 -0.2051
   75MOL0     H10293   7.073   0.644   5.738 -1.4861  1.3444 -1.6922
   75MOL0     H10294   7.159   0.795   5.753 -0.8032 -1.0855 -1.8129
   75MOL0     H10295   7.144   0.624   6.002 -0.1521  1.0857 -0.1635
   75MOL0     H10296   7.284   0.716   5.942 -0.2328  1.1602 -1.6123
   75MOL0     H10297   7.326   0.483   5.946 -1.5020 -0.8356 -0.1512
   75MOL0     H10298   7.197   0.452   5.828 -1.4426  2.9080 -3.2569
   75MOL0     H10299   7.481   0.350   5.778  2.8946 -0.4288 -2.0428
   75MOL0     H10300   7.673   0.346   5.602 -2.0516  0.4375 -0.0459
   75MOL0     H10301   7.764   0.489   5.664 -1.7823  0.4217  1.2050
   75MOL0     H10302   7.651   0.432   5.392 -0.5960 -0.3637  1.1293
   75MOL0     H10303   7.696   0.606   5.441  0.9110  0.2477  0.7108
   75MOL0     H10304   7.857   0.482   5.299  0.9424 -3.3606  1.0110
   75MOL0     H10305   7.914   0.580   5.428 -2.2178  1.0182 -0.1920
   75MOL0     H10306   7.850   0.271   5.422  1.0479 -1.5525 -0.9378
   75MOL0     H10307   8.001   0.348   5.365 -1.0879 -0.4763 -0.7174
   75MOL0     H10308   8.053   0.112   5.437  0.7265 -1.1513 -0.2293
   75MOL0     H10309   8.230  -0.012   5.339 -0.4896  0.6193  0.2854
   75MOL0     H10310   8.255  -0.120   5.467  1.8934  0.2882 -0.5549
   75MOL0     H10311   8.386  -0.004   5.421  0.6573  0.5838  1.6725
   75MOL0     H10312   8.740   0.156   5.684 -1.3422  2.8142  1.9679
   75MOL0     H10313   8.951   0.069   5.794  0.2826  1.5628  2.4795
   75MOL0     H10314   8.996  -0.242   5.819  0.1172  1.2312 -1.9619
   75MOL0     H10315   9.101  -0.097   5.810 -1.2005 -0.0658 -0.7614
   75MOL0     H10316   9.157  -0.323   6.010  0.6614 -0.4624 -0.4491
   75MOL0     H10317   9.259  -0.278   5.876  1.8959  0.5482  1.1454
   75MOL0     H10318   9.297  -0.188   6.118 -1.5144 -2.8594 -0.2074
   75MOL0     H10319   9.192  -0.061   6.084  1.0490  0.7517 -0.2421
   75MOL0     H10320   9.351  -0.072   5.836  0.5560 -2.4766 -0.0250
   75MOL0     H10321   9.463  -0.089   5.966 -0.9057 -0.3176 -0.1183
   75MOL0     H10322   9.351   0.122   6.069  0.8717  1.1623 -0.1937
   75MOL0     H10323   9.449   0.141   5.929  0.2655  0.1251  1.2208
   75MOL0     H10324   9.135   0.143   5.946 -0.1655  0.7446 -0.4584
   75MOL0     H10325   9.233   0.121   5.798 -0.0387 -3.1945  1.3493
   75MOL0     H10326   9.338   0.343   5.852  0.0112  2.1281 -1.5214
   75MOL0     H10327   9.254   0.332   6.016  0.9163  2.5223 -1.7612
   75MOL0     H10328   9.165   0.498   5.872  3.5639 -1.0541 -0.6163
   75MOL0     H10329   9.045   0.385   5.915 -0.1802 -0.3535 -0.9295
   75MOL0     H10330   8.752  -0.147   6.083  0.3798  0.9134  1.2298
   75MOL0     H10331   8.526  -0.027   6.010 -2.0279  5.6465 -1.0913
   75MOL0     H10332   8.331   0.259   5.821 -2.6614  0.7058  3.3019
   75MOL0     H10333   8.129   0.397   5.743  3.5891  3.0836 -0.9542
   75MOL0     H10334   6.308   0.804   6.020  0.7301 -0.2553  0.5212
   75MOL0     H10335   6.058   0.804   6.041  0.0644  2.9245  1.8378
   75MOL0     H10336   5.730   0.549   6.179 -4.4550 -0.5862  3.6641
   75MOL0     H10337   5.528   0.492   6.077 -1.7481  0.2773  1.5921
   75MOL0     H10338   5.391   0.481   5.871  2.4523 -0.1983  1.4580
   75MOL0     H10339   5.314   0.470   6.034 -3.2110  2.3725  1.1581
   75MOL0     H10340   5.109   0.568   5.955 -0.7797 -2.8396  0.4095
   75MOL0     H10341   5.146   0.427   5.863 -1.0661  2.0474 -1.6303
   75MOL0     H10342   5.186   0.723   5.767 -0.6650  0.9102 -3.9665
   75MOL0     H10343   5.251   0.603   5.685 -1.6099  3.3576 -1.6444
   75MOL0     H10344   5.000   0.488   5.710 -0.9020  0.2120  0.4145
   75MOL0     H10345   5.057   0.601   5.582  1.8698  2.9293  0.1625
   75MOL0     H10346   4.813   0.872   5.764  2.2122  1.1048  0.8646
   75MOL0     H10347   5.432   0.895   5.994 -1.3257 -0.7466 -2.5449
   75MOL0     H10348   5.688   1.011   6.235 -0.2983  0.1865 -0.5141
   75MOL0     H10349   5.691   1.054   6.065  2.5610  0.1005  2.1678
   75MOL0     H10350   5.540   1.064   6.161  0.9736  0.0415  3.9693
   76MOL0     O10351   2.535   7.506   3.818 -0.2455 -0.1792 -0.3329
   76MOL0     C10352   2.579   7.598   3.893  0.3123  0.1818 -0.0192
   76MOL0     O10353   2.699   7.601   3.949  0.5147 -0.4030  0.8205
   76MOL0     C10354   2.800   7.545   3.880 -0.4163  0.2280 -0.6336
   76MOL0     C10355   2.812   7.563   3.738  1.2180 -0.1120 -0.6363
   76MOL0     C10356   2.926   7.517   3.666  0.6969  0.1871 -0.2205
   76MOL0     C10357   3.034   7.458   3.728  1.6988  0.1640 -0.0657
   76MOL0     O10358   3.154   7.416   3.666  0.0208  0.3040  0.0631
   76MOL0     C10359   3.182   7.461   3.537 -0.1503 -0.1696 -0.7118
   76MOL0     C10360   3.296   7.383   3.496 -1.5120  0.8089  0.6348
   76MOL0     C10361   3.425   7.402   3.572 -0.0590 -0.5122  0.2637
   76MOL0     C10362   3.547   7.343   3.504  0.1133  0.4027 -0.0288
   76MOL0     C10363   3.664   7.340   3.606  0.3643  0.0735  0.1231
   76MOL0     C10364   3.798   7.323   3.530  1.1138  0.5045 -0.0545
   76MOL0     C10365   3.915   7.325   3.620  0.1943  0.4690 -0.4245
   76MOL0     C10366   4.038   7.263   3.544 -0.8181 -0.4378  0.2436
   76MOL0     N10367   4.158   7.264   3.629  0.8564  0.3281 -0.1545
   76MOL0     C10368   4.204   7.152   3.693  0.0392 -0.5331 -0.2433
   76MOL0     C10369   4.330   7.186   3.740  0.4198  0.5406  0.4277
   76MOL0     C10370   4.430   7.082   3.786  0.2033 -0.3475  0.4049
   76MOL0     C10371   4.467   7.103   3.928  0.7214 -0.3077 -0.3688
   76MOL0     C10372   4.347   7.082   4.018  0.8465  0.1861 -0.6116
   76MOL0     C10373   4.376   7.059   4.165 -0.1321 -0.3934 -0.2265
   76MOL0     O10374   4.444   7.177   4.221 -0.0242  0.5408  0.3094
   76MOL0     C10375   4.377   7.284   4.271  1.1932  0.2925  0.6670
   76MOL0     C10376   4.444   7.377   4.358  0.4929  0.5137  0.2769
   76MOL0     C10377   4.379   7.499   4.399 -0.2959  1.6426 -0.1822
   76MOL0     C10378   4.474   7.589   4.476 -0.4686 -0.2595 -0.0123
   76MOL0     C10379   4.249   7.518   4.369 -0.2823  0.0025  0.2848
   76MOL0     C10380   4.180   7.642   4.425  1.9190  0.4767  0.3924
   76MOL0     O10381   4.043   7.630   4.431  0.4911  0.0229 -0.2603
   76MOL0     C10382   3.966   7.737   4.489 -0.0695  0.3546  0.4970
   76MOL0     C10383   3.984   7.871   4.449  0.1299 -0.4802  0.1638
   76MOL0     C10384   3.885   7.962   4.500  0.1614 -0.4438 -0.4123
   76MOL0     C10385   3.777   7.921   4.582  0.0496  0.4313  0.3000
   76MOL0     O10386   3.700   8.017   4.645  0.1833 -0.0701 -0.3708
   76MOL0     C10387   3.599   7.983   4.740  0.3799 -0.2450  0.3160
   76MOL0     C10388   3.535   8.104   4.800  0.2809 -0.3139 -0.0002
   76MOL0     C10389   3.464   8.205   4.700 -0.3646 -0.6096 -0.0784
   76MOL0     C10390   3.360   8.143   4.603  0.7311 -0.4198  0.1605
   76MOL0     C10391   3.252   8.256   4.564 -0.0600  0.5977 -0.7678
   76MOL0     C10392   3.323   8.356   4.465  0.1118 -0.4093  0.1099
   76MOL0     C10393   3.224   8.422   4.381 -0.1088 -1.3816  0.3338
   76MOL0     C10394   3.218   8.569   4.418 -0.5655  0.1970 -0.3020
   76MOL0    Cl10395   3.117   8.572   4.569 -0.4328 -0.1836 -0.5664
   76MOL0     C10396   3.757   7.785   4.603 -0.8405 -0.1246 -1.2762
   76MOL0     C10397   3.854   7.688   4.561  0.2052 -0.1709 -0.2712
   76MOL0     O10398   4.240   7.743   4.452 -0.3091  0.3915  0.4179
   76MOL0     C10399   4.173   7.421   4.288  0.2308 -0.4571  0.8076
   76MOL0     C10400   4.241   7.305   4.240  0.3523 -0.1710  0.1610
   76MOL0     N10401   4.345   7.318   3.712 -0.3039  0.7599  0.1080
   76MOL0     N10402   4.237   7.368   3.655 -0.2506 -0.3487  0.2962
   76MOL0     C10403   3.026   7.440   3.871 -0.0718  0.3808  0.9595
   76MOL0     C10404   2.911   7.481   3.942 -0.0129  0.6543  0.1063
   76MOL0     C10405   2.481   7.702   3.934  0.1878  0.0517 -1.1948
   76MOL0     C10406   2.356   7.664   3.969  0.4862 -0.3268  1.0194
   76MOL0     C10407   2.254   7.762   3.979  0.9939  0.1176 -0.0070
   76MOL0     C10408   2.278   7.890   4.005  0.2615  0.1199 -0.2878
   76MOL0     O10409   2.169   7.977   4.032 -0.8691  0.1386  0.3560
   76MOL0     C10410   2.181   8.110   3.970  0.0868  0.1885 -0.7191
   76MOL0     C10411   2.041   8.168   3.985 -0.1200  0.7777 -1.0822
   76MOL0     C10412   2.029   8.309   3.945  0.2540 -0.0539 -0.0208
   76MOL0     C10413   1.912   8.384   4.003 -0.0106  0.3439  0.4746
   76MOL0     C10414   1.921   8.393   4.150 -0.2636 -0.2256  0.3666
   76MOL0     C10415   1.912   8.383   4.268 -0.7217 -0.2735 -0.5984
   76MOL0     C10416   2.409   7.934   3.981  0.0227  0.2212 -0.8134
   76MOL0     C10417   2.512   7.843   3.945  0.1408 -0.7696  0.3129
   76MOL0     C10418   2.656   7.895   3.908  0.9348  1.0517  0.3007
   76MOL0     H10419   2.723   7.593   3.684 -0.0669  1.0434  1.9103
   76MOL0     H10420   2.929   7.535   3.559  0.9603 -1.0306 -0.4232
   76MOL0     H10421   3.207   7.568   3.534  1.4653 -0.4784  0.3620
   76MOL0     H10422   3.093   7.439   3.477  0.2051 -0.6712 -1.0694
   76MOL0     H10423   3.278   7.275   3.493  0.9029  0.3419 -2.6813
   76MOL0     H10424   3.312   7.410   3.391  2.7691  1.6945  1.3155
   76MOL0     H10425   3.448   7.509   3.578  0.4604 -0.5746 -0.4860
   76MOL0     H10426   3.416   7.350   3.668 -1.1825 -0.5561  0.1461
   76MOL0     H10427   3.519   7.250   3.453 -1.5515  1.5451 -1.3374
   76MOL0     H10428   3.566   7.422   3.430 -1.3801  3.3138  2.4599
   76MOL0     H10429   3.650   7.257   3.676 -1.9632  1.6311  1.6639
   76MOL0     H10430   3.679   7.442   3.644  2.1847 -0.5022  1.1030
   76MOL0     H10431   3.790   7.227   3.476 -0.3479  1.1017 -0.9435
   76MOL0     H10432   3.809   7.405   3.458  0.7248  0.2641 -0.3917
   76MOL0     H10433   3.901   7.265   3.710  4.1464  1.0464  0.7665
   76MOL0     H10434   3.942   7.428   3.646  1.9318  0.1862 -0.9961
   76MOL0     H10435   4.028   7.161   3.506  3.5493 -0.3400 -1.8401
   76MOL0     H10436   4.061   7.315   3.450 -1.7666  0.3042  0.3996
   76MOL0     H10437   4.165   7.051   3.698 -0.6728 -0.2071  2.6797
   76MOL0     H10438   4.517   7.095   3.721 -1.3650  3.5153 -1.2464
   76MOL0     H10439   4.392   6.980   3.775 -0.2893 -0.0777 -0.5350
   76MOL0     H10440   4.554   7.046   3.961  1.6334  1.9837  1.4793
   76MOL0     H10441   4.504   7.205   3.942 -1.4371  0.1755  2.6995
   76MOL0     H10442   4.278   7.166   4.011 -1.2737 -1.1439  2.1866
   76MOL0     H10443   4.296   6.991   3.986  3.9231 -1.9404  0.0887
   76MOL0     H10444   4.283   7.043   4.221 -0.6904  2.8190 -0.0009
   76MOL0     H10445   4.443   6.973   4.173  3.4719  2.3086  2.6864
   76MOL0     H10446   4.547   7.357   4.384  0.6604 -0.3027 -0.9279
   76MOL0     H10447   4.476   7.688   4.429  2.6686 -0.2314 -0.0236
   76MOL0     H10448   4.575   7.553   4.496 -0.8330  0.2590  3.1864
   76MOL0     H10449   4.439   7.593   4.579 -1.3529 -3.3330 -0.0864
   76MOL0     H10450   4.064   7.911   4.388  0.6221 -2.0721 -0.2942
   76MOL0     H10451   3.887   8.068   4.479  2.7679 -0.1753  0.8611
   76MOL0     H10452   3.513   7.933   4.692 -0.4541  0.9839  0.4915
   76MOL0     H10453   3.641   7.933   4.828 -3.0967 -3.2413  0.5257
   76MOL0     H10454   3.475   8.053   4.875  1.7439  0.1666  1.5447
   76MOL0     H10455   3.604   8.165   4.860 -1.5983  2.5762 -0.5352
   76MOL0     H10456   3.547   8.257   4.651 -0.5212  1.0958  1.3611
   76MOL0     H10457   3.420   8.291   4.750 -2.9570 -2.8021  1.6921
   76MOL0     H10458   3.293   8.075   4.658 -1.6949  1.6631 -0.0244
   76MOL0     H10459   3.400   8.080   4.523 -0.6660 -0.4207 -0.5715
   76MOL0     H10460   3.167   8.212   4.511 -0.1782 -0.8982  0.5856
   76MOL0     H10461   3.211   8.306   4.652 -0.9075 -0.0173 -0.7966
   76MOL0     H10462   3.390   8.303   4.397  0.3515  1.5025 -1.2326
   76MOL0     H10463   3.378   8.431   4.523  1.2363 -0.1478 -1.2364
   76MOL0     H10464   3.122   8.382   4.379 -1.1039  0.9937 -1.8074
   76MOL0     H10465   3.248   8.407   4.275  1.4422  0.1132  0.4299
   76MOL0     H10466   3.168   8.625   4.338  2.5760  2.0694 -1.1213
   76MOL0     H10467   3.318   8.611   4.427  0.1199 -1.3502 -0.4895
   76MOL0     H10468   3.666   7.761   4.658 -1.6833  4.5162 -0.2211
   76MOL0     H10469   3.848   7.583   4.589  0.2883  0.1808  1.1297
   76MOL0     H10470   4.069   7.439   4.265  1.0243  0.7465 -2.3887
   76MOL0     H10471   4.178   7.241   4.179  0.8249 -3.2253  2.6120
   76MOL0     H10472   3.110   7.389   3.916  1.6685  2.1603 -0.1025
   76MOL0     H10473   2.896   7.461   4.048 -2.7073 -1.3794 -0.5478
   76MOL0     H10474   2.335   7.558   3.965 -1.9243  0.0819  1.4920
   76MOL0     H10475   2.151   7.729   3.987  1.4066 -1.3797 -0.6197
   76MOL0     H10476   2.245   8.175   4.030 -0.3951  0.9097 -0.9789
   76MOL0     H10477   2.212   8.097   3.866  0.9209  0.0100 -0.4592
   76MOL0     H10478   2.009   8.161   4.089 -0.0026 -2.5428 -1.1496
   76MOL0     H10479   1.971   8.098   3.937  1.5559 -1.3707 -0.5213
   76MOL0     H10480   2.123   8.357   3.972 -1.3090  3.0042  0.3395
   76MOL0     H10481   2.016   8.320   3.837  3.4752 -1.0058 -0.6210
   76MOL0     H10482   1.817   8.335   3.978  0.4129 -1.9129  2.9164
   76MOL0     H10483   1.915   8.485   3.961  2.9012 -0.1290 -0.6945
   76MOL0     H10484   1.881   8.373   4.370 -0.5888 -1.4843 -0.6603
   76MOL0     H10485   2.426   8.041   3.988  0.0135  0.3937 -2.7174
   76MOL0     H10486   2.638   7.985   3.847  0.8166  0.4518 -0.5677
   76MOL0     H10487   2.713   7.900   4.001  2.9169 -0.6974 -0.7322
   76MOL0     H10488   2.711   7.830   3.839  1.0992  2.0269 -0.5121
   77MOL0     O10489   5.650   1.293  11.186 -0.3690 -0.5564  0.3739
   77MOL0     C10490   5.533   1.273  11.148 -0.0762 -0.0314  0.6191
   77MOL0     O10491   5.502   1.209  11.031  0.1713  0.1183 -0.4345
   77MOL0     C10492   5.593   1.140  10.959 -0.3582 -0.2870 -0.3124
   77MOL0     C10493   5.560   1.004  10.931 -1.0138  0.3427 -0.4078
   77MOL0     C10494   5.641   0.922  10.851 -0.2302 -0.3617 -0.8123
   77MOL0     C10495   5.759   0.975  10.799  0.0878 -0.3045  0.0272
   77MOL0     O10496   5.845   0.910  10.721 -0.4461 -0.2286 -0.2739
   77MOL0     C10497   5.866   0.770  10.747 -0.4616 -0.0174 -0.5041
   77MOL0     C10498   5.982   0.719  10.670 -0.3934 -0.2770  0.7993
   77MOL0     C10499   6.123   0.786  10.690 -0.4661  0.5974 -0.3601
   77MOL0     C10500   6.232   0.731  10.602 -0.7718 -0.3238  0.2830
   77MOL0     C10501   6.210   0.751  10.446  0.6468  0.1256 -0.2244
   77MOL0     C10502   6.197   0.895  10.409 -0.6003 -1.2850 -0.4795
   77MOL0     C10503   6.248   0.922  10.258  0.3569  0.8774 -0.6750
   77MOL0     C10504   6.386   0.970  10.261 -1.0353 -0.0716  0.1734
   77MOL0     N10505   6.482   0.889  10.338 -0.9689 -0.0170 -0.4003
   77MOL0     C10506   6.533   0.773  10.275  0.2690 -0.4226 -0.3102
   77MOL0     C10507   6.661   0.754  10.324  0.2098  0.4095  0.1045
   77MOL0     C10508   6.746   0.633  10.282  0.0068  0.2681  0.7296
   77MOL0     C10509   6.739   0.531  10.395  0.3277 -0.2973  0.2529
   77MOL0     C10510   6.837   0.418  10.370  0.3656  0.0095  0.1863
   77MOL0     C10511   6.806   0.322  10.248  0.3240 -0.1175 -0.5854
   77MOL0     O10512   6.845   0.379  10.118  0.9914  0.8174  0.0133
   77MOL0     C10513   6.965   0.324  10.076 -0.6747 -0.1805 -0.2763
   77MOL0     C10514   7.082   0.400  10.097  0.0442 -0.4141  0.4553
   77MOL0     C10515   7.207   0.362  10.046 -0.0102 -0.2923 -0.7022
   77MOL0     C10516   7.323   0.449  10.054  0.0903  0.8176  0.6879
   77MOL0     C10517   7.213   0.231   9.988 -1.1291 -0.0817 -0.3452
   77MOL0     C10518   7.343   0.172   9.938 -0.2665  0.1601  0.3198
   77MOL0     O10519   7.439   0.161  10.034 -0.0974 -0.2046  1.2451
   77MOL0     C10520   7.570   0.123  10.001 -1.3225 -0.0648  0.3840
   77MOL0     C10521   7.651   0.096  10.111 -0.7747 -0.4232  0.7456
   77MOL0     C10522   7.784   0.064  10.095 -0.7772 -0.1541  0.1094
   77MOL0     C10523   7.845   0.056   9.967  0.6261 -0.0725 -0.6724
   77MOL0     O10524   7.974   0.015   9.974 -0.8836  0.8109  0.4398
   77MOL0     C10525   8.065   0.106   9.908  0.2793  0.8997 -0.2020
   77MOL0     C10526   8.197   0.037   9.908 -0.4878 -0.1949 -0.0576
   77MOL0     C10527   8.291   0.144   9.846  0.6750 -0.0997  0.2142
   77MOL0     C10528   8.430   0.077   9.831 -0.3809 -1.0078 -0.5820
   77MOL0     C10529   8.518   0.189   9.777  0.2465 -0.1218 -0.3715
   77MOL0     C10530   8.670   0.138   9.761  0.9032 -0.7268 -0.3457
   77MOL0     C10531   8.717   0.053   9.877  0.2217 -0.9970  0.6696
   77MOL0     C10532   8.875   0.053   9.882 -0.2069 -0.2371 -0.4123
   77MOL0    Cl10533   8.949   0.216   9.909  0.0618 -0.1054  0.2404
   77MOL0     C10534   7.761   0.076   9.851 -0.4678 -0.3334  0.0079
   77MOL0     C10535   7.630   0.120   9.873  0.0369  0.3190 -0.2397
   77MOL0     O10536   7.349   0.117   9.827  0.7384 -0.4653  0.4988
   77MOL0     C10537   7.095   0.145   9.990 -0.0379  0.8383  0.2184
   77MOL0     C10538   6.976   0.198  10.018 -0.0235 -0.2289 -0.1222
   77MOL0     N10539   6.683   0.850  10.419  0.0886 -0.1237 -0.5534
   77MOL0     N10540   6.587   0.935  10.410 -0.9802  0.2277 -0.1672
   77MOL0     C10541   5.794   1.112  10.833 -0.0583  0.2331 -0.2700
   77MOL0     C10542   5.718   1.191  10.912  0.9975 -0.3819 -0.7531
   77MOL0     C10543   5.410   1.339  11.222  0.1797  0.2031 -0.5905
   77MOL0     C10544   5.280   1.319  11.179 -0.7685 -0.5250 -1.0619
   77MOL0     C10545   5.180   1.391  11.250 -0.0500  0.5778 -0.5689
   77MOL0     C10546   5.201   1.471  11.366  0.9436 -0.3519  0.0415
   77MOL0     O10547   5.104   1.538  11.432 -0.7987  0.3126 -0.0509
   77MOL0     C10548   4.968   1.535  11.385 -0.4130  0.3052  1.0182
   77MOL0     C10549   4.893   1.619  11.492 -0.3397  0.2465  0.4138
   77MOL0     C10550   4.736   1.617  11.457 -0.0593 -0.2770 -0.2464
   77MOL0     C10551   4.649   1.722  11.527 -0.9535  0.2740  0.5660
   77MOL0     C10552   4.717   1.849  11.518  0.0722  0.3826  0.0765
   77MOL0     C10553   4.776   1.956  11.505 -0.2777  0.2344  0.4888
   77MOL0     C10554   5.332   1.483  11.408 -0.4737 -0.3991 -0.1866
   77MOL0     C10555   5.441   1.423  11.339  0.6372  0.4199  0.3306
   77MOL0     C10556   5.572   1.458  11.385  0.0566 -0.3559 -0.0204
   77MOL0     H10557   5.467   0.968  10.973  0.1124  0.7864  2.6692
   77MOL0     H10558   5.607   0.819  10.840  0.7538 -1.0867  2.0289
   77MOL0     H10559   5.778   0.711  10.720 -0.4712 -0.6508  0.8402
   77MOL0     H10560   5.888   0.764  10.854 -1.0116  5.2217  0.1691
   77MOL0     H10561   5.987   0.611  10.684 -1.6861 -0.6264 -0.9708
   77MOL0     H10562   5.959   0.734  10.564  2.8414 -2.0473 -0.2984
   77MOL0     H10563   6.130   0.894  10.673 -0.1917  0.6141 -0.1621
   77MOL0     H10564   6.163   0.769  10.791  1.5774  1.8553 -0.9045
   77MOL0     H10565   6.329   0.777  10.621  0.1723 -1.4543 -1.4979
   77MOL0     H10566   6.241   0.625  10.630  0.9952  0.3905  2.7680
   77MOL0     H10567   6.119   0.704  10.408  0.8474 -0.8923  0.5000
   77MOL0     H10568   6.286   0.692  10.394  0.1079 -0.0515 -0.8207
   77MOL0     H10569   6.097   0.936  10.422 -0.1694 -0.0007 -1.0489
   77MOL0     H10570   6.253   0.958  10.479  1.1128 -0.2247 -2.6559
   77MOL0     H10571   6.171   0.982  10.209 -0.7555  0.2456  0.2154
   77MOL0     H10572   6.241   0.823  10.212 -1.9440  1.6800 -2.2082
   77MOL0     H10573   6.426   0.980  10.160  3.7411 -1.0488  1.6916
   77MOL0     H10574   6.372   1.068  10.306 -3.8139 -0.5861  0.5812
   77MOL0     H10575   6.485   0.712  10.199 -1.2426  1.9546 -1.3598
   77MOL0     H10576   6.849   0.667  10.267 -0.6684  1.3812 -1.9783
   77MOL0     H10577   6.705   0.599  10.187  0.2160  2.3341 -0.1568
   77MOL0     H10578   6.765   0.580  10.489 -1.5214  1.5681 -0.1154
   77MOL0     H10579   6.638   0.500  10.425  0.4255 -2.1314 -1.1355
   77MOL0     H10580   6.934   0.464  10.349  1.9666 -0.8477  4.6183
   77MOL0     H10581   6.850   0.352  10.456  0.1064 -1.8452 -1.1408
   77MOL0     H10582   6.855   0.226  10.265 -0.2874 -0.4154 -0.4740
   77MOL0     H10583   6.701   0.294  10.246 -0.0493  0.9973  1.1233
   77MOL0     H10584   7.066   0.499  10.138  0.6494  0.3077 -0.9848
   77MOL0     H10585   7.295   0.543  10.101  2.1442  1.7953  0.0587
   77MOL0     H10586   7.353   0.480   9.954 -1.8479  0.0079 -0.2112
   77MOL0     H10587   7.396   0.396  10.116  2.0722 -1.2307 -3.0536
   77MOL0     H10588   7.606   0.096  10.210  1.3699  2.7435  1.8814
   77MOL0     H10589   7.836   0.042  10.187  1.6608  1.2726 -0.8408
   77MOL0     H10590   8.027   0.119   9.807 -1.3976  0.7089  0.3674
   77MOL0     H10591   8.068   0.196   9.970 -0.8555  1.4113 -0.8532
   77MOL0     H10592   8.230   0.005  10.007  0.9864  3.1753  0.6606
   77MOL0     H10593   8.204  -0.047   9.838  4.0180  1.7268 -2.3601
   77MOL0     H10594   8.301   0.227   9.917 -2.6806 -0.8333  1.7241
   77MOL0     H10595   8.259   0.186   9.751 -2.4856  2.0388  2.0204
   77MOL0     H10596   8.419  -0.001   9.755  1.1903 -0.7057 -1.1522
   77MOL0     H10597   8.460   0.046   9.932  0.0192 -0.7916 -0.6336
   77MOL0     H10598   8.479   0.223   9.680 -0.5909 -1.0088 -0.3682
   77MOL0     H10599   8.516   0.269   9.851 -0.1378 -0.3224 -0.1624
   77MOL0     H10600   8.733   0.228   9.761 -2.3304  1.7412 -0.7962
   77MOL0     H10601   8.687   0.093   9.663  2.0106 -2.2995  0.5164
   77MOL0     H10602   8.681  -0.050   9.866  1.3663 -1.3165 -0.3181
   77MOL0     H10603   8.689   0.093   9.975 -0.4408  0.5093 -0.1009
   77MOL0     H10604   8.923   0.014   9.792 -0.2973  1.1761 -1.0932
   77MOL0     H10605   8.899  -0.012   9.967 -2.4047 -0.6880 -0.0731
   77MOL0     H10606   7.809   0.047   9.759 -1.0660 -0.3283 -0.3053
   77MOL0     H10607   7.579   0.142   9.780  1.3602  2.6752 -0.4716
   77MOL0     H10608   7.099   0.043   9.952  1.6388  1.6797 -2.0999
   77MOL0     H10609   6.890   0.135  10.001  0.7684 -1.3956  0.0374
   77MOL0     H10610   5.887   1.157  10.799 -0.4089 -0.4332 -2.2573
   77MOL0     H10611   5.747   1.293  10.932  2.4770 -1.0094  0.4673
   77MOL0     H10612   5.253   1.254  11.095  2.7834 -1.4600 -1.6545
   77MOL0     H10613   5.080   1.371  11.212  0.8891 -0.0863 -2.8348
   77MOL0     H10614   4.951   1.576  11.285 -2.6906 -2.4752  0.1384
   77MOL0     H10615   4.935   1.431  11.373  3.4806 -1.1136  0.9963
   77MOL0     H10616   4.936   1.719  11.481  0.6970 -0.1389  0.8164
   77MOL0     H10617   4.916   1.590  11.595  1.1516  0.6408  0.2161
   77MOL0     H10618   4.738   1.643  11.351  4.6891 -1.3976 -0.6452
   77MOL0     H10619   4.695   1.517  11.475 -0.4589  0.3393  2.8711
   77MOL0     H10620   4.632   1.695  11.631 -5.1747 -2.1062 -0.5082
   77MOL0     H10621   4.549   1.733  11.484  0.0775  1.2151 -1.7547
   77MOL0     H10622   4.829   2.048  11.496 -1.4300  0.9183  0.5123
   77MOL0     H10623   5.364   1.539  11.495 -1.3418  0.7163 -0.5471
   77MOL0     H10624   5.634   1.370  11.403  0.1156  0.1920  3.1088
   77MOL0     H10625   5.625   1.535  11.328 -0.8931 -0.0184 -0.4767
   77MOL0     H10626   5.558   1.503  11.484 -4.5477 -0.6648 -0.3398
   78MOL0     O10627   5.251   7.880   3.957  0.2907  0.7119 -0.0670
   78MOL0     C10628   5.176   7.803   4.013  0.5213  0.4627 -0.6996
   78MOL0     O10629   5.200   7.761   4.144  0.2686 -0.1879 -0.5852
   78MOL0     C10630   5.325   7.759   4.200 -0.9298  0.7520  0.0801
   78MOL0     C10631   5.320   7.731   4.334  0.2876 -1.1376  0.4216
   78MOL0     C10632   5.436   7.707   4.412 -0.3031 -0.6562  0.3389
   78MOL0     C10633   5.562   7.705   4.354  0.4397 -0.5174  0.1861
   78MOL0     O10634   5.672   7.699   4.426 -0.7478  0.4553 -0.1302
   78MOL0     C10635   5.694   7.796   4.538  0.0636 -0.2281 -0.4721
   78MOL0     C10636   5.751   7.935   4.480 -0.7473 -0.2293  0.5587
   78MOL0     C10637   5.874   7.905   4.384 -0.3336 -0.3899 -0.0189
   78MOL0     C10638   5.912   8.025   4.300 -0.6021  0.3563  0.5380
   78MOL0     C10639   6.012   7.983   4.197  0.0700  0.3979 -0.4594
   78MOL0     C10640   5.953   7.906   4.081  0.4218  0.6364 -0.0769
   78MOL0     C10641   6.042   7.903   3.957  0.3403  0.2132 -0.7390
   78MOL0     C10642   6.156   7.805   3.971  0.6567  0.4260 -0.8035
   78MOL0     N10643   6.235   7.784   3.844 -0.5401  0.3369 -0.3886
   78MOL0     C10644   6.189   7.751   3.720 -0.0376 -0.6917 -0.6076
   78MOL0     C10645   6.295   7.778   3.642  0.1586  0.2017  0.3621
   78MOL0     C10646   6.293   7.770   3.495 -0.3088 -0.2147 -0.2826
   78MOL0     C10647   6.313   7.620   3.456  0.6173 -0.0517 -0.2622
   78MOL0     C10648   6.450   7.563   3.508 -1.1973  0.3279  0.5050
   78MOL0     C10649   6.586   7.624   3.477  0.4716  0.5331  0.1075
   78MOL0     O10650   6.605   7.655   3.337  0.0500  0.4511  0.5318
   78MOL0     C10651   6.740   7.655   3.291 -0.2272  0.1996 -1.0697
   78MOL0     C10652   6.863   7.633   3.364 -0.2747 -0.1118  0.2650
   78MOL0     C10653   6.997   7.634   3.318 -0.4185  0.4409 -0.4558
   78MOL0     C10654   7.109   7.591   3.415  0.2894 -0.4858 -0.1728
   78MOL0     C10655   7.009   7.659   3.179 -0.4716 -0.1012 -0.1271
   78MOL0     C10656   7.143   7.655   3.104 -0.5112 -0.8389  0.0810
   78MOL0     O10657   7.146   7.722   2.981  0.0691  0.1702 -0.3138
   78MOL0     C10658   7.268   7.745   2.913  0.0404 -0.1381  0.0672
   78MOL0     C10659   7.273   7.723   2.771 -0.3408 -0.2815 -0.1853
   78MOL0     C10660   7.397   7.752   2.707 -0.7094  0.3457  0.1251
   78MOL0     C10661   7.511   7.796   2.774  0.3861  0.6187 -0.2009
   78MOL0     O10662   7.631   7.823   2.707 -0.1719 -0.2942  0.0051
   78MOL0     C10663   7.651   7.770   2.574 -0.6315 -0.2916  0.2466
   78MOL0     C10664   7.792   7.816   2.511 -0.4689  0.2837 -0.5838
   78MOL0     C10665   7.907   7.769   2.591 -0.1818 -0.1318 -1.0289
   78MOL0     C10666   8.034   7.823   2.530 -0.3878  0.0920 -0.4160
   78MOL0     C10667   8.149   7.776   2.610  0.0012 -0.4969  0.2246
   78MOL0     C10668   8.274   7.875   2.597  0.1334  0.2647  0.0669
   78MOL0     C10669   8.396   7.797   2.631  0.1752  0.9505  0.0658
   78MOL0     C10670   8.517   7.887   2.670  0.9123 -0.8842 -0.9946
   78MOL0    Cl10671   8.648   7.783   2.725  0.0657  0.2495 -0.4549
   78MOL0     C10672   7.495   7.826   2.910  0.5394  1.1080 -0.4925
   78MOL0     C10673   7.377   7.801   2.977  0.5682 -0.1188 -1.0279
   78MOL0     O10674   7.234   7.594   3.154 -0.2901 -0.5319 -0.5452
   78MOL0     C10675   6.891   7.677   3.102 -0.4870  0.0899  0.2471
   78MOL0     C10676   6.760   7.669   3.159 -0.1260  0.3285  0.6069
   78MOL0     N10677   6.410   7.817   3.717 -0.0637  0.2630  0.1727
   78MOL0     N10678   6.370   7.814   3.839 -0.2451  0.7632  0.3967
   78MOL0     C10679   5.568   7.726   4.215  0.2746  0.2368 -0.1924
   78MOL0     C10680   5.454   7.756   4.145 -0.1337 -0.1963 -0.0586
   78MOL0     C10681   5.052   7.759   3.939  0.2896 -0.0905  0.7190
   78MOL0     C10682   4.992   7.638   3.973 -0.3522 -0.5757  0.4985
   78MOL0     C10683   4.881   7.595   3.895 -0.1791  0.0745  0.0447
   78MOL0     C10684   4.825   7.659   3.786  0.0676 -0.0620 -0.7248
   78MOL0     O10685   4.709   7.612   3.719 -0.7555  0.7571  0.2389
   78MOL0     C10686   4.628   7.499   3.761  0.6700 -0.3213  0.3452
   78MOL0     C10687   4.540   7.525   3.888 -0.1099  0.0651 -0.2402
   78MOL0     C10688   4.435   7.638   3.868 -0.1964  0.4354 -0.4702
   78MOL0     C10689   4.336   7.661   3.982  0.8423  0.9464 -0.0538
   78MOL0     C10690   4.237   7.554   3.978 -0.1779  0.3993  0.4236
   78MOL0     C10691   4.164   7.458   3.960 -0.0171 -0.5760 -0.1758
   78MOL0     C10692   4.879   7.780   3.766  0.1759 -0.7870  0.0318
   78MOL0     C10693   4.993   7.832   3.830 -0.0241  0.4888  0.5416
   78MOL0     C10694   5.049   7.950   3.768  0.1625  0.1331  0.1902
   78MOL0     H10695   5.231   7.727   4.395  0.6241 -3.1007  0.8366
   78MOL0     H10696   5.426   7.678   4.516 -3.0849 -1.3369 -0.0110
   78MOL0     H10697   5.768   7.748   4.603 -1.1196 -1.1886  0.2006
   78MOL0     H10698   5.596   7.818   4.581  1.7750 -0.1985  3.8753
   78MOL0     H10699   5.672   7.977   4.417 -0.8395 -0.9029  0.2063
   78MOL0     H10700   5.775   8.007   4.558  1.4533  1.7813 -1.7884
   78MOL0     H10701   5.965   7.888   4.442 -0.3717  0.7312  0.3882
   78MOL0     H10702   5.850   7.815   4.326 -2.0210  0.5031 -0.8054
   78MOL0     H10703   5.819   8.056   4.251 -1.1581 -0.6951  0.9021
   78MOL0     H10704   5.951   8.107   4.361 -1.9537  0.4587  1.2948
   78MOL0     H10705   6.091   7.924   4.245  0.2053 -0.1137 -1.2972
   78MOL0     H10706   6.066   8.071   4.161 -1.2661  0.8543 -1.4070
   78MOL0     H10707   5.938   7.803   4.117  0.1657 -0.1171 -2.1708
   78MOL0     H10708   5.852   7.945   4.069 -0.0698 -0.5273  0.1427
   78MOL0     H10709   6.082   8.004   3.940 -0.1999  0.6903  0.6173
   78MOL0     H10710   5.988   7.866   3.870  1.3523 -1.7677 -0.5666
   78MOL0     H10711   6.222   7.824   4.057  0.2462 -4.9260  1.0613
   78MOL0     H10712   6.116   7.706   3.994  1.7289  0.2235  0.3286
   78MOL0     H10713   6.089   7.724   3.688  0.4008 -0.6322 -2.0860
   78MOL0     H10714   6.377   7.827   3.454 -0.6870 -0.1072 -0.9266
   78MOL0     H10715   6.199   7.819   3.467 -1.0231 -0.6211  1.3025
   78MOL0     H10716   6.224   7.563   3.483 -0.0038  1.0875  0.1292
   78MOL0     H10717   6.312   7.611   3.347 -1.2013  0.4229 -0.3042
   78MOL0     H10718   6.443   7.559   3.617 -2.0090 -5.2564  0.5381
   78MOL0     H10719   6.467   7.459   3.479  1.5493  0.8029  0.1117
   78MOL0     H10720   6.592   7.719   3.531  0.5463  0.3751  0.3831
   78MOL0     H10721   6.663   7.558   3.517 -0.4151 -2.1666 -2.3287
   78MOL0     H10722   6.862   7.602   3.468 -0.1841  0.8423  0.5512
   78MOL0     H10723   7.149   7.490   3.405 -0.2542 -0.7602  0.3390
   78MOL0     H10724   7.064   7.604   3.514 -1.2269  0.7408 -0.9665
   78MOL0     H10725   7.196   7.654   3.398 -1.2446  1.2582 -2.2328
   78MOL0     H10726   7.187   7.700   2.709  0.0928  1.6771 -1.6377
   78MOL0     H10727   7.398   7.740   2.600  0.9720 -0.9183  0.2405
   78MOL0     H10728   7.646   7.661   2.566 -1.0835 -0.4529  2.2433
   78MOL0     H10729   7.579   7.797   2.496  0.8539 -0.0284 -1.0872
   78MOL0     H10730   7.788   7.789   2.405 -2.4597  2.3744 -1.1173
   78MOL0     H10731   7.797   7.925   2.511  1.2148  0.4343  3.9804
   78MOL0     H10732   7.908   7.659   2.586 -2.7821 -0.2176 -1.0237
   78MOL0     H10733   7.903   7.791   2.698 -0.7878 -2.1898 -0.5804
   78MOL0     H10734   8.030   7.931   2.519  0.2403  0.7229  3.8496
   78MOL0     H10735   8.054   7.778   2.433  1.8109 -0.0723  0.0686
   78MOL0     H10736   8.135   7.769   2.718  2.0660 -2.6051  0.4281
   78MOL0     H10737   8.173   7.673   2.582 -1.3460 -0.2038 -2.3537
   78MOL0     H10738   8.269   7.968   2.655  2.7619  0.4570  0.0680
   78MOL0     H10739   8.289   7.912   2.494  0.9084 -0.5684 -0.1293
   78MOL0     H10740   8.412   7.721   2.555 -0.2445  0.1161  0.7931
   78MOL0     H10741   8.372   7.734   2.717 -2.6816 -1.5795 -2.3471
   78MOL0     H10742   8.487   7.946   2.756  0.7921 -1.8418 -0.3642
   78MOL0     H10743   8.531   7.949   2.580 -1.4951 -0.1644 -0.9369
   78MOL0     H10744   7.585   7.863   2.959  0.7829 -2.3601  2.1406
   78MOL0     H10745   7.370   7.810   3.085  0.4116  1.3795 -1.1417
   78MOL0     H10746   6.886   7.688   2.995 -1.0107 -1.0977  0.1375
   78MOL0     H10747   6.671   7.673   3.097 -0.0989 -4.1519 -0.1012
   78MOL0     H10748   5.657   7.715   4.154  2.2674 -1.4622  2.7667
   78MOL0     H10749   5.453   7.764   4.036 -1.8418  0.5773 -0.0181
   78MOL0     H10750   5.034   7.569   4.046  2.4958  0.1694 -0.3281
   78MOL0     H10751   4.845   7.493   3.910 -2.6988  0.6888 -1.3578
   78MOL0     H10752   4.560   7.473   3.680  0.4223 -1.1168  0.7944
   78MOL0     H10753   4.687   7.409   3.783  0.4569 -0.0976  1.9554
   78MOL0     H10754   4.597   7.541   3.980 -2.2271 -2.1411  1.6021
   78MOL0     H10755   4.479   7.436   3.906 -1.2521  0.9722  0.5388
   78MOL0     H10756   4.495   7.730   3.869 -0.2987  0.5700  3.0567
   78MOL0     H10757   4.389   7.644   3.769 -1.4848 -0.5122  0.0517
   78MOL0     H10758   4.291   7.759   3.960  2.7842  1.4141 -2.3142
   78MOL0     H10759   4.377   7.662   4.084  0.3138  0.4958  0.1692
   78MOL0     H10760   4.095   7.377   3.948  1.9701 -2.5795  1.0914
   78MOL0     H10761   4.826   7.850   3.702  1.2855  0.8445  0.8321
   78MOL0     H10762   5.150   7.936   3.727 -0.7409 -2.8977 -1.2544
   78MOL0     H10763   4.995   7.993   3.683 -1.5919 -0.3659  1.0264
   78MOL0     H10764   5.045   8.031   3.841  2.3286  0.2879  0.2228
   79MOL0     O10765   4.699   7.965   1.121  0.1964 -0.1757  0.2597
   79MOL0     C10766   4.640   8.069   1.108  0.6567  0.3059 -0.3173
   79MOL0     O10767   4.702   8.193   1.123 -0.2457 -0.0794 -0.7057
   79MOL0     C10768   4.837   8.190   1.116 -0.1050 -1.2681  0.7663
   79MOL0     C10769   4.904   8.192   0.994  0.2028 -1.0430 -1.1794
   79MOL0     C10770   5.049   8.197   0.995 -0.0866  0.5559  0.4695
   79MOL0     C10771   5.123   8.202   1.115 -0.8345 -0.2852 -0.0798
   79MOL0     O10772   5.263   8.222   1.127  0.3587  0.5309 -0.1463
   79MOL0     C10773   5.341   8.167   1.016 -0.2212 -0.6080  0.1319
   79MOL0     C10774   5.488   8.192   1.037  0.5622  0.4448  0.3652
   79MOL0     C10775   5.550   8.159   0.903 -1.1846 -0.1059  0.2281
   79MOL0     C10776   5.531   8.266   0.792 -0.7867 -0.2102 -0.1908
   79MOL0     C10777   5.608   8.248   0.670 -0.1020  0.4797  0.0860
   79MOL0     C10778   5.545   8.137   0.575  0.3677 -0.6498 -0.3212
   79MOL0     C10779   5.627   8.127   0.451  0.3727  0.1346 -0.2711
   79MOL0     C10780   5.568   8.216   0.338 -0.0393  0.6261  0.6769
   79MOL0     N10781   5.621   8.204   0.203 -0.8104 -0.9794  0.4866
   79MOL0     C10782   5.650   8.090   0.135  0.1156  0.5533 -0.4479
   79MOL0     C10783   5.738   8.129   0.037 -0.0516  0.4918  0.0305
   79MOL0     C10784   5.795   8.047  -0.069  1.0360  0.6589 -0.2511
   79MOL0     C10785   5.699   8.025  -0.186  0.7760 -0.3911  0.3037
   79MOL0     C10786   5.776   7.987  -0.303  0.5492  0.2225 -0.5436
   79MOL0     C10787   5.814   7.836  -0.294 -0.0261  0.1138  0.3538
   79MOL0     O10788   5.866   7.799  -0.428  0.5454 -0.5431 -0.5151
   79MOL0     C10789   5.993   7.841  -0.457  0.2948 -0.3471  0.6335
   79MOL0     C10790   6.094   7.842  -0.368 -0.4495  0.5141 -0.5991
   79MOL0     C10791   6.223   7.873  -0.409  0.3069  0.8440  0.5012
   79MOL0     C10792   6.332   7.876  -0.296  0.2743  0.9080  0.9438
   79MOL0     C10793   6.250   7.912  -0.549 -0.9235 -0.9394 -0.8395
   79MOL0     C10794   6.376   7.961  -0.593 -0.4571 -0.7919 -0.7008
   79MOL0     O10795   6.445   8.050  -0.511  0.0681  0.6099  0.2342
   79MOL0     C10796   6.572   8.069  -0.539  0.1613 -0.1531 -0.7595
   79MOL0     C10797   6.673   7.979  -0.499 -0.0560  0.0638 -0.3438
   79MOL0     C10798   6.808   8.008  -0.535  0.2851 -0.3888 -0.5080
   79MOL0     C10799   6.842   8.116  -0.604 -0.9365 -0.0760 -0.2138
   79MOL0     O10800   6.983   8.119  -0.617 -0.0499  0.7320  0.8662
   79MOL0     C10801   7.032   8.241  -0.693 -0.0591  0.4413 -0.5138
   79MOL0     C10802   7.172   8.258  -0.653 -0.7513 -1.0507  0.5997
   79MOL0     C10803   7.248   8.341  -0.760  0.0633 -0.2435  0.0011
   79MOL0     C10804   7.227   8.490  -0.724  0.0376 -0.2031 -0.2415
   79MOL0     C10805   7.320   8.588  -0.795  0.1277 -0.6089  0.5996
   79MOL0     C10806   7.333   8.571  -0.948 -0.3530 -0.0804 -0.2612
   79MOL0     C10807   7.418   8.684  -1.010 -0.2140 -0.1841  0.1950
   79MOL0     C10808   7.469   8.657  -1.152  0.1912 -0.0981 -0.9596
   79MOL0    Cl10809   7.319   8.663  -1.251 -0.3023  0.1899  0.4281
   79MOL0     C10810   6.742   8.198  -0.659 -0.6807 -0.7867 -0.1867
   79MOL0     C10811   6.606   8.175  -0.628 -0.7913  0.0766 -0.4034
   79MOL0     O10812   6.406   7.929  -0.711  0.0661  0.1063 -0.1742
   79MOL0     C10813   6.142   7.899  -0.640 -0.6228 -0.9850 -0.5271
   79MOL0     C10814   6.014   7.877  -0.588 -0.1516  0.4814 -0.2482
   79MOL0     N10815   5.764   8.261   0.051  0.6255 -0.6922 -0.0534
   79MOL0     N10816   5.697   8.305   0.152  0.3497 -1.0661 -0.8382
   79MOL0     C10817   5.053   8.189   1.233 -0.1070 -0.7370  0.4278
   79MOL0     C10818   4.913   8.193   1.239  0.3521  0.7123 -0.1492
   79MOL0     C10819   4.494   8.085   1.072  0.2014  0.7497  0.2096
   79MOL0     C10820   4.445   8.212   1.048  0.0773 -0.8697 -0.1843
   79MOL0     C10821   4.310   8.232   1.013 -0.1945  0.2478 -0.2860
   79MOL0     C10822   4.224   8.119   0.994 -0.5053  0.6188  0.1445
   79MOL0     O10823   4.100   8.128   0.935 -0.4905  0.4312 -0.0818
   79MOL0     C10824   4.065   8.244   0.864  0.1933 -1.2324 -0.3026
   79MOL0     C10825   4.155   8.268   0.735 -0.2722  0.2807  0.2196
   79MOL0     C10826   4.089   8.374   0.653 -0.7570 -0.3882 -0.1183
   79MOL0     C10827   4.170   8.419   0.532  0.3529 -0.3811 -0.2092
   79MOL0     C10828   4.213   8.304   0.445  0.6023 -0.0039 -0.0241
   79MOL0     C10829   4.251   8.201   0.389 -0.4794 -1.4232  0.5592
   79MOL0     C10830   4.279   7.993   1.010 -0.3301 -0.2195 -0.1795
   79MOL0     C10831   4.405   7.971   1.050  0.5212  0.1521  0.8397
   79MOL0     C10832   4.438   7.825   1.067  0.5885 -0.3658  0.1873
   79MOL0     H10833   4.847   8.197   0.902  1.6078  0.2766 -2.0279
   79MOL0     H10834   5.085   8.236   0.900  1.7451  0.7586  1.2202
   79MOL0     H10835   5.314   8.223   0.925 -0.2351  1.2693  1.2412
   79MOL0     H10836   5.346   8.059   1.002 -2.5045 -0.7268 -0.2151
   79MOL0     H10837   5.511   8.297   1.054 -2.1062  1.9977 -3.9956
   79MOL0     H10838   5.533   8.122   1.108 -2.4875 -2.0556  0.0872
   79MOL0     H10839   5.656   8.142   0.919 -1.4841  0.6741  3.7655
   79MOL0     H10840   5.504   8.067   0.865  0.5767 -1.7153  1.8088
   79MOL0     H10841   5.427   8.281   0.762 -0.3918 -0.3173 -1.6751
   79MOL0     H10842   5.560   8.361   0.839  2.3994 -1.0353 -0.2827
   79MOL0     H10843   5.705   8.204   0.695 -0.6857 -1.8538 -1.3655
   79MOL0     H10844   5.617   8.346   0.624  3.6688  1.5532  2.6071
   79MOL0     H10845   5.553   8.042   0.629  0.3074  0.6392  2.0511
   79MOL0     H10846   5.445   8.160   0.536  2.0562 -0.0317 -5.0013
   79MOL0     H10847   5.615   8.022   0.423  0.0667  0.3273 -0.8956
   79MOL0     H10848   5.733   8.149   0.465 -0.1027  1.4520  1.5257
   79MOL0     H10849   5.460   8.200   0.338 -0.0740  0.4581  3.1106
   79MOL0     H10850   5.573   8.320   0.372 -0.8721  0.2759  1.9441
   79MOL0     H10851   5.612   7.990   0.153 -2.7027  0.9223 -3.5430
   79MOL0     H10852   5.813   7.948  -0.026  1.2843  2.1154  3.3843
   79MOL0     H10853   5.888   8.095  -0.102  1.3857  0.9238  1.0795
   79MOL0     H10854   5.625   7.951  -0.154  2.7430 -1.9698  1.4344
   79MOL0     H10855   5.632   8.107  -0.214 -0.7424 -2.1118 -1.4169
   79MOL0     H10856   5.720   7.987  -0.397 -1.6946 -1.9581  0.6716
   79MOL0     H10857   5.863   8.050  -0.324  0.2754 -0.0669 -2.7334
   79MOL0     H10858   5.880   7.836  -0.207 -0.2325 -1.3601  0.5452
   79MOL0     H10859   5.734   7.766  -0.266  2.1767 -2.6825  0.0841
   79MOL0     H10860   6.074   7.804  -0.268 -1.2241 -0.4555 -1.1106
   79MOL0     H10861   6.305   7.830  -0.200 -2.0444  1.2938  0.5416
   79MOL0     H10862   6.352   7.979  -0.267  0.8325  0.9367  0.4719
   79MOL0     H10863   6.423   7.827  -0.333 -0.6984  0.4638 -1.0216
   79MOL0     H10864   6.649   7.903  -0.426  1.1466 -0.9484 -0.9589
   79MOL0     H10865   6.880   7.947  -0.482 -0.0134  0.9133  1.5024
   79MOL0     H10866   7.017   8.202  -0.794  0.3442 -0.0866 -0.3719
   79MOL0     H10867   6.971   8.330  -0.673  0.4831  0.3454  1.9089
   79MOL0     H10868   7.162   8.305  -0.555 -2.4163  1.2128 -0.5577
   79MOL0     H10869   7.224   8.162  -0.647  2.3864  0.3428 -1.5804
   79MOL0     H10870   7.210   8.332  -0.862 -0.0780  2.1234 -0.2118
   79MOL0     H10871   7.355   8.321  -0.769  0.1591 -0.2997  1.0591
   79MOL0     H10872   7.246   8.508  -0.618  0.6455  2.0297 -0.6677
   79MOL0     H10873   7.123   8.518  -0.744  0.1743  1.8832  1.5677
   79MOL0     H10874   7.278   8.689  -0.783 -0.7019 -1.2092  3.5274
   79MOL0     H10875   7.409   8.596  -0.732  1.2095  1.1417 -1.0435
   79MOL0     H10876   7.233   8.574  -0.991 -0.2964 -1.0327 -0.4769
   79MOL0     H10877   7.379   8.476  -0.975  1.5742  1.2844 -2.1147
   79MOL0     H10878   7.501   8.712  -0.945  0.1799 -0.9692  0.0511
   79MOL0     H10879   7.360   8.776  -1.014  2.1039  1.2974 -1.5709
   79MOL0     H10880   7.524   8.563  -1.151 -0.4591 -0.5453 -3.0023
   79MOL0     H10881   7.533   8.738  -1.186 -0.4197  0.2726 -1.2505
   79MOL0     H10882   6.760   8.295  -0.706 -1.2079  0.2293  1.6110
   79MOL0     H10883   6.521   8.228  -0.671 -1.5476 -0.7696 -0.0006
   79MOL0     H10884   6.150   7.909  -0.747  0.8952  0.3632 -0.3260
   79MOL0     H10885   5.945   7.857  -0.669  1.7290  0.7812 -2.0075
   79MOL0     H10886   5.105   8.207   1.326 -2.0858 -1.0494  1.6561
   79MOL0     H10887   4.859   8.189   1.333 -1.4855 -0.0465 -1.1705
   79MOL0     H10888   4.508   8.300   1.040  0.1707 -0.7039  1.8565
   79MOL0     H10889   4.271   8.333   0.998  1.8184  1.2221  0.5724
   79MOL0     H10890   3.959   8.236   0.837  0.2150  0.8453 -1.1350
   79MOL0     H10891   4.078   8.339   0.916  0.1685 -1.1114 -0.5207
   79MOL0     H10892   4.174   8.177   0.677 -0.6318  1.8241 -2.5371
   79MOL0     H10893   4.256   8.301   0.760  0.1272 -1.0412  0.4482
   79MOL0     H10894   3.998   8.330   0.610  0.0930  0.4836 -3.0592
   79MOL0     H10895   4.066   8.462   0.713  1.1120  0.2368 -0.2550
   79MOL0     H10896   4.251   8.486   0.561 -1.4370  0.2810  4.0165
   79MOL0     H10897   4.099   8.472   0.468 -0.7860 -0.2081  1.1243
   79MOL0     H10898   4.276   8.118   0.325  2.9239 -1.1444  1.3486
   79MOL0     H10899   4.219   7.906   0.988 -2.2953  1.3805 -1.5067
   79MOL0     H10900   4.535   7.792   1.030  1.4304 -1.6768  3.2195
   79MOL0     H10901   4.433   7.796   1.173 -2.8251  1.5296  0.6681
   79MOL0     H10902   4.364   7.764   1.016 -1.8129  0.7436  2.1528
   80MOL0     O10903   7.523   3.127   8.035 -0.8511  1.2317 -0.2490
   80MOL0     C10904   7.478   3.068   7.931 -1.0091 -0.2920  0.1128
   80MOL0     O10905   7.548   3.022   7.826 -0.1871  0.0937 -0.2681
   80MOL0     C10906   7.685   3.022   7.825  0.0478  0.0686 -0.1208
   80MOL0     C10907   7.764   2.912   7.786  0.4748  0.2607 -0.0923
   80MOL0     C10908   7.902   2.912   7.770 -0.8726  0.0991 -0.3226
   80MOL0     C10909   7.975   3.025   7.813 -0.2511  0.8759  0.0822
   80MOL0     O10910   8.112   3.039   7.800  0.1263 -0.1312 -0.0857
   80MOL0     C10911   8.179   2.923   7.749 -0.0779  0.3356  0.5463
   80MOL0     C10912   8.335   2.938   7.749 -0.4397  0.2234 -0.4282
   80MOL0     C10913   8.411   2.821   7.691  0.1437  0.4380  0.2415
   80MOL0     C10914   8.558   2.862   7.678 -0.0528 -0.8286  0.7437
   80MOL0     C10915   8.620   2.753   7.585  0.6885  0.0472  0.0908
   80MOL0     C10916   8.777   2.777   7.560  0.0037 -0.1458  0.4997
   80MOL0     C10917   8.807   2.837   7.420  0.7674 -1.2013  0.0913
   80MOL0     C10918   8.806   2.987   7.411 -0.0271 -0.3065 -0.1753
   80MOL0     N10919   8.935   3.038   7.464  0.3821 -0.7109  0.3852
   80MOL0     C10920   9.050   3.065   7.388  0.3065  0.5961  0.2196
   80MOL0     C10921   9.142   3.096   7.481  0.4437  0.3915  0.0306
   80MOL0     C10922   9.283   3.141   7.440 -0.1186  0.3611  0.8149
   80MOL0     C10923   9.360   3.216   7.553 -0.2516 -0.4058  0.9638
   80MOL0     C10924   9.409   3.115   7.662  0.2857 -0.6336  0.2202
   80MOL0     C10925   9.545   3.057   7.633  0.0320 -0.5145 -0.0521
   80MOL0     O10926   9.645   3.144   7.685  0.2191 -0.2809  0.1668
   80MOL0     C10927   9.775   3.116   7.670 -0.5549  0.6156 -0.1222
   80MOL0     C10928   9.822   2.985   7.641  0.5804 -0.1233  0.1631
   80MOL0     C10929   9.953   2.942   7.652 -0.7670 -0.3020 -0.4456
   80MOL0     C10930   9.992   2.816   7.592 -0.3078 -0.4997  0.5121
   80MOL0     C10931  10.047   3.037   7.709  1.6236  0.0207  0.7831
   80MOL0     C10932  10.186   3.002   7.723  0.8399 -0.0990 -0.3910
   80MOL0     O10933  10.272   3.100   7.688  0.5693  0.0929  0.6007
   80MOL0     C10934  10.407   3.091   7.702  0.9813  0.7304  0.5995
   80MOL0     C10935  10.474   2.981   7.759 -0.5600  0.1999 -0.4626
   80MOL0     C10936  10.617   2.983   7.764 -1.0476  0.0005  0.3611
   80MOL0     C10937  10.694   3.092   7.717 -0.4998 -0.1334 -0.5148
   80MOL0     O10938  10.836   3.110   7.733 -0.1729  0.1340  0.4230
   80MOL0     C10939  10.908   2.998   7.801  0.3714 -0.9912  0.2164
   80MOL0     C10940  11.052   3.027   7.806  0.1854  0.4425 -0.2052
   80MOL0     C10941  11.090   3.155   7.891 -1.1146 -1.1089  0.4790
   80MOL0     C10942  11.246   3.178   7.883 -0.1425 -0.6301 -0.2552
   80MOL0     C10943  11.282   3.304   7.962  0.9215 -0.4864  0.4898
   80MOL0     C10944  11.422   3.306   8.022  0.5399  0.1434  0.6968
   80MOL0     C10945  11.430   3.437   8.105  1.0488  1.1770 -0.1903
   80MOL0     C10946  11.577   3.455   8.154  0.6199 -0.0851  0.2870
   80MOL0    Cl10947  11.573   3.592   8.279 -0.3784  0.0177 -0.0296
   80MOL0     C10948  10.622   3.198   7.655 -0.9964  0.7101 -0.3508
   80MOL0     C10949  10.482   3.195   7.648 -0.0401 -0.4205 -0.3808
   80MOL0     O10950  10.211   2.904   7.787 -0.1511  0.1115 -0.4847
   80MOL0     C10951  10.003   3.171   7.741  0.1799 -0.1187 -0.1089
   80MOL0     C10952   9.868   3.208   7.722 -0.2561  0.0126  0.6354
   80MOL0     N10953   9.092   3.070   7.609  0.4940  0.1680  0.3157
   80MOL0     N10954   8.965   3.040   7.600 -0.5345 -0.1143 -0.0310
   80MOL0     C10955   7.892   3.139   7.841  0.2695 -0.9190  0.1183
   80MOL0     C10956   7.753   3.143   7.843  0.2014 -0.3599  0.1400
   80MOL0     C10957   7.336   3.030   7.925  0.2402  0.2726 -1.2142
   80MOL0     C10958   7.259   3.032   7.808 -0.2281 -0.2211  0.6491
   80MOL0     C10959   7.126   2.990   7.811 -0.1207  0.3659  0.5870
   80MOL0     C10960   7.070   2.930   7.922  0.4500 -0.1239  0.7275
   80MOL0     O10961   6.940   2.890   7.908  0.8501  0.2118  0.7290
   80MOL0     C10962   6.859   2.860   8.023 -0.3010  0.3445  0.1014
   80MOL0     C10963   6.722   2.898   7.991  0.6265 -0.1526  0.8866
   80MOL0     C10964   6.710   3.043   7.932 -0.0562 -0.2624 -0.4651
   80MOL0     C10965   6.708   3.040   7.775 -0.2634  0.3211  0.5767
   80MOL0     C10966   6.594   3.122   7.725  0.4807 -0.7915  0.3108
   80MOL0     C10967   6.508   3.192   7.678  0.1499 -0.3734  1.3110
   80MOL0     C10968   7.149   2.922   8.036  0.7183  0.3362  0.2948
   80MOL0     C10969   7.276   2.974   8.044 -0.2180  0.4107 -0.1684
   80MOL0     C10970   7.349   2.948   8.173  0.2235 -0.6537  0.1948
   80MOL0     H10971   7.726   2.812   7.765 -0.8349 -0.3787  4.3123
   80MOL0     H10972   7.939   2.817   7.735 -0.2997  0.8719 -1.8789
   80MOL0     H10973   8.152   2.907   7.644 -0.2274  1.9245  0.3244
   80MOL0     H10974   8.157   2.842   7.819  2.1708  1.6379  2.9468
   80MOL0     H10975   8.357   3.028   7.692 -1.9778 -0.0071 -1.4538
   80MOL0     H10976   8.370   2.951   7.852 -0.0942  1.3861 -0.6817
   80MOL0     H10977   8.398   2.743   7.767  0.5171 -0.6018 -0.7424
   80MOL0     H10978   8.375   2.795   7.591  0.2378 -1.6597  0.7086
   80MOL0     H10979   8.581   2.959   7.633  2.5491 -1.0099  1.5234
   80MOL0     H10980   8.605   2.866   7.776  0.3489  0.5391  0.5205
   80MOL0     H10981   8.570   2.741   7.489 -0.5800  4.2268  0.0234
   80MOL0     H10982   8.612   2.665   7.649 -0.1534  1.1204  1.5239
   80MOL0     H10983   8.807   2.845   7.640  2.7859  0.2334 -0.7709
   80MOL0     H10984   8.841   2.689   7.564  0.7234  0.2819 -1.0841
   80MOL0     H10985   8.734   2.791   7.353 -0.5122 -0.5462  1.0042
   80MOL0     H10986   8.910   2.812   7.393  1.9062  0.1885  2.7512
   80MOL0     H10987   8.790   3.021   7.308  3.6331 -1.7963 -1.3901
   80MOL0     H10988   8.719   3.021   7.467  0.0830 -1.4769  0.7377
   80MOL0     H10989   9.060   3.059   7.280  1.3046 -0.3530  0.3444
   80MOL0     H10990   9.271   3.213   7.359 -3.7550  1.8604  2.4281
   80MOL0     H10991   9.338   3.050   7.414  1.8409  1.3078  1.5285
   80MOL0     H10992   9.446   3.270   7.510 -1.8749  1.0574 -0.6189
   80MOL0     H10993   9.298   3.289   7.606  3.3541  2.9516  1.0660
   80MOL0     H10994   9.414   3.159   7.762 -1.1782 -0.7213  0.3571
   80MOL0     H10995   9.340   3.031   7.672  1.9262 -1.8566  1.8628
   80MOL0     H10996   9.566   2.957   7.671 -0.8634 -0.3430  0.9633
   80MOL0     H10997   9.556   3.056   7.524  1.1293  1.4751 -0.0187
   80MOL0     H10998   9.760   2.913   7.589 -1.0421  0.6500  0.9408
   80MOL0     H10999  10.074   2.762   7.640 -0.5601 -0.6342  0.7922
   80MOL0     H11000  10.027   2.838   7.491  1.3435 -1.1060  0.9181
   80MOL0     H11001   9.906   2.750   7.576  0.0675 -0.7418 -0.5981
   80MOL0     H11002  10.432   2.888   7.795 -0.5059  0.3979  0.1186
   80MOL0     H11003  10.672   2.898   7.803 -1.1724 -0.9727 -1.4371
   80MOL0     H11004  10.872   2.982   7.903 -1.3137 -0.5786 -0.2902
   80MOL0     H11005  10.904   2.910   7.738 -3.2261  0.7326 -2.2765
   80MOL0     H11006  11.104   2.943   7.851 -0.7037  1.0104  2.0208
   80MOL0     H11007  11.090   3.041   7.705 -0.5355 -2.6500 -1.0018
   80MOL0     H11008  11.060   3.139   7.995  1.2548  0.5449  1.5175
   80MOL0     H11009  11.040   3.248   7.861  1.0596 -0.2039 -0.5442
   80MOL0     H11010  11.286   3.173   7.781 -1.1873 -1.4705 -0.6389
   80MOL0     H11011  11.297   3.096   7.934  2.7280  2.0044  1.4328
   80MOL0     H11012  11.274   3.391   7.897  1.0656 -0.4358  0.5385
   80MOL0     H11013  11.197   3.312   8.030 -0.9496 -0.5232 -1.7214
   80MOL0     H11014  11.490   3.325   7.939  1.6174 -3.1052  0.7029
   80MOL0     H11015  11.441   3.214   8.078  0.8182 -1.1860 -1.4513
   80MOL0     H11016  11.368   3.424   8.194 -0.2779 -1.9681 -1.4282
   80MOL0     H11017  11.395   3.520   8.044  0.3532  0.1045 -1.2993
   80MOL0     H11018  11.646   3.467   8.070 -0.0012 -1.5918 -0.4874
   80MOL0     H11019  11.616   3.366   8.205  1.5574  0.8753  1.2930
   80MOL0     H11020  10.666   3.291   7.622  0.8596  0.6984  1.8024
   80MOL0     H11021  10.426   3.280   7.613  1.1208  1.2891  1.6533
   80MOL0     H11022  10.073   3.247   7.772  3.8678 -2.6569 -1.5398
   80MOL0     H11023   9.831   3.303   7.759 -0.8604 -0.3898  1.0930
   80MOL0     H11024   7.941   3.234   7.859  0.1793  0.2803 -4.5180
   80MOL0     H11025   7.706   3.240   7.856  3.0115  1.1216  0.1412
   80MOL0     H11026   7.294   3.071   7.713 -0.3413  0.3272  0.8313
   80MOL0     H11027   7.061   3.005   7.725 -1.2798 -3.3364  0.6333
   80MOL0     H11028   6.865   2.754   8.050 -1.4882  0.3720  0.5673
   80MOL0     H11029   6.885   2.920   8.110 -0.3488  2.7832 -1.4861
   80MOL0     H11030   6.664   2.915   8.082  1.0566 -2.5971  1.6729
   80MOL0     H11031   6.671   2.829   7.923 -0.3771  0.4588  0.9920
   80MOL0     H11032   6.608   3.078   7.947 -0.1990  0.2458 -2.3604
   80MOL0     H11033   6.782   3.108   7.981 -0.9086  0.5193 -0.2423
   80MOL0     H11034   6.705   2.936   7.740 -1.5138  0.0158  1.5227
   80MOL0     H11035   6.799   3.091   7.742 -0.2773  1.5091  2.2593
   80MOL0     H11036   6.424   3.238   7.629  0.3175 -1.7399 -0.3857
   80MOL0     H11037   7.100   2.871   8.119 -0.1349 -0.1675 -0.5011
   80MOL0     H11038   7.342   3.041   8.230 -3.4678 -0.8476  0.2742
   80MOL0     H11039   7.291   2.875   8.229  2.2399 -2.2508  0.3377
   80MOL0     H11040   7.452   2.919   8.148  0.5097  0.2934  0.2118
   81MOL0     O11041   8.776   6.974   0.738 -0.3248 -0.2551  0.4593
   81MOL0     C11042   8.781   6.956   0.613  0.3637 -0.7591 -0.0856
   81MOL0     O11043   8.793   7.050   0.521 -0.1405  0.0983 -0.4275
   81MOL0     C11044   8.839   7.172   0.568  0.0877  0.3569  0.0745
   81MOL0     C11045   8.971   7.198   0.555 -0.5728 -0.9678 -0.0476
   81MOL0     C11046   9.024   7.318   0.596  0.1715 -0.4807 -0.2567
   81MOL0     C11047   8.941   7.422   0.635 -0.1168  0.5927 -0.1427
   81MOL0     O11048   9.001   7.546   0.653 -0.9767 -0.1347  0.5411
   81MOL0     C11049   8.973   7.608   0.775  0.8205 -0.3015 -0.6050
   81MOL0     C11050   9.099   7.656   0.852  0.4059  0.7246  0.2518
   81MOL0     C11051   9.214   7.557   0.835 -0.8363 -0.2998  0.4059
   81MOL0     C11052   9.331   7.605   0.918 -0.1046  0.2750 -0.8545
   81MOL0     C11053   9.457   7.523   0.885  0.2599 -0.5257  0.2865
   81MOL0     C11054   9.421   7.372   0.906 -0.2173  0.3729  0.2131
   81MOL0     C11055   9.552   7.288   0.920  0.4162 -0.9309  0.3702
   81MOL0     C11056   9.603   7.253   0.786  0.3721  0.5634 -0.5608
   81MOL0     N11057   9.727   7.172   0.805  0.5470  0.2740  0.0797
   81MOL0     C11058   9.748   7.041   0.768  0.5254  0.3783  0.5987
   81MOL0     C11059   9.874   7.010   0.801  0.3130 -0.6511  0.3024
   81MOL0     C11060   9.957   6.889   0.757  0.4485 -0.3777 -0.7762
   81MOL0     C11061   9.916   6.843   0.616  0.3013 -0.6239  0.6158
   81MOL0     C11062   9.936   6.944   0.510 -0.1409  0.1082  0.4183
   81MOL0     C11063  10.082   6.997   0.502 -0.3335  0.0466 -0.0076
   81MOL0     O11064  10.098   7.116   0.579  0.3210  0.3447  0.0729
   81MOL0     C11065  10.224   7.172   0.580 -0.3158  0.1631  1.1797
   81MOL0     C11066  10.336   7.126   0.498 -0.1110 -1.1065 -0.3917
   81MOL0     C11067  10.461   7.189   0.502 -0.0614  0.7931 -0.2559
   81MOL0     C11068  10.563   7.137   0.403  0.8233  0.1313 -0.1260
   81MOL0     C11069  10.486   7.292   0.595  1.0691  0.2680 -0.1193
   81MOL0     C11070  10.618   7.354   0.605  0.2951  0.2142  0.1088
   81MOL0     O11071  10.734   7.279   0.615 -0.0711  0.2374 -0.1202
   81MOL0     C11072  10.849   7.348   0.621 -0.9322 -0.3555  0.1715
   81MOL0     C11073  10.925   7.369   0.736 -0.5676 -0.5541 -0.3283
   81MOL0     C11074  11.041   7.451   0.738  0.0186  0.4731  0.5882
   81MOL0     C11075  11.085   7.501   0.614 -0.1935 -0.1071  0.5392
   81MOL0     O11076  11.195   7.584   0.616 -0.4430  1.0190 -0.4406
   81MOL0     C11077  11.253   7.635   0.500  0.0043 -0.9035 -0.7707
   81MOL0     C11078  11.368   7.725   0.531  0.0434 -0.1493  0.6031
   81MOL0     C11079  11.478   7.663   0.622  0.5046 -0.9227 -0.2715
   81MOL0     C11080  11.533   7.535   0.551  0.1695  0.2111  0.0238
   81MOL0     C11081  11.649   7.490   0.647  0.9376  0.3430  0.0549
   81MOL0     C11082  11.773   7.443   0.569  0.1231 -1.0539 -0.6456
   81MOL0     C11083  11.735   7.325   0.490 -0.0659  0.1398  0.5544
   81MOL0     C11084  11.864   7.263   0.432 -0.2662 -0.1026 -0.7651
   81MOL0    Cl11085  11.814   7.130   0.319 -0.4268  0.0864 -0.0059
   81MOL0     C11086  11.011   7.482   0.491 -0.7357  0.7692  0.0023
   81MOL0     C11087  10.896   7.402   0.502 -0.2412 -0.2805 -0.0027
   81MOL0     O11088  10.613   7.478   0.601  0.1184 -0.1261  0.2407
   81MOL0     C11089  10.379   7.345   0.663  0.5094 -1.3478 -0.0122
   81MOL0     C11090  10.253   7.286   0.654  0.5485  0.6769  0.0697
   81MOL0     N11091   9.924   7.123   0.866  0.3466  0.1812 -0.3155
   81MOL0     N11092   9.837   7.211   0.870  0.3998  0.4378 -0.3952
   81MOL0     C11093   8.804   7.401   0.633 -0.3466  0.1710 -0.5441
   81MOL0     C11094   8.754   7.272   0.605 -0.2489 -0.3979 -0.8797
   81MOL0     C11095   8.760   6.819   0.571  0.6528  1.2007  0.1644
   81MOL0     C11096   8.802   6.796   0.441 -0.1348  1.5353 -0.0028
   81MOL0     C11097   8.796   6.669   0.386 -0.1504  0.8491 -0.0095
   81MOL0     C11098   8.729   6.567   0.460 -0.0659  0.6128 -0.7422
   81MOL0     O11099   8.733   6.445   0.397  0.7687 -0.5537  0.2660
   81MOL0     C11100   8.702   6.323   0.468  0.1500  1.1180  0.6621
   81MOL0     C11101   8.549   6.300   0.496 -0.3904 -0.6599  0.0218
   81MOL0     C11102   8.462   6.302   0.372  0.0036  0.6950  0.3876
   81MOL0     C11103   8.469   6.176   0.279  0.0765  0.2573 -0.0919
   81MOL0     C11104   8.374   6.187   0.172 -0.4673 -0.4389  0.4309
   81MOL0     C11105   8.288   6.203   0.092  0.5556  0.4692 -0.1403
   81MOL0     C11106   8.695   6.584   0.591 -0.4764 -0.8016  0.6150
   81MOL0     C11107   8.704   6.710   0.647  0.8005 -0.7535  0.7791
   81MOL0     C11108   8.639   6.721   0.784 -0.1830  0.4629  0.4153
   81MOL0     H11109   9.038   7.120   0.519 -0.1472 -0.4400 -0.4138
   81MOL0     H11110   9.131   7.339   0.594  0.4758 -1.9598 -1.1634
   81MOL0     H11111   8.914   7.541   0.839 -0.6992 -1.5611 -3.1607
   81MOL0     H11112   8.921   7.702   0.756  1.3687 -0.5340 -3.8214
   81MOL0     H11113   9.124   7.750   0.803  1.8386  0.2602  0.0436
   81MOL0     H11114   9.077   7.673   0.958 -1.0179  0.9443 -0.0544
   81MOL0     H11115   9.177   7.460   0.867  0.3483  0.1538  3.4986
   81MOL0     H11116   9.249   7.553   0.731  4.2942  0.0896  1.8567
   81MOL0     H11117   9.348   7.713   0.922 -0.5743  0.3426  2.3348
   81MOL0     H11118   9.304   7.579   1.021  1.1349  0.5067 -0.4487
   81MOL0     H11119   9.541   7.552   0.948  1.6907 -2.0356 -0.8626
   81MOL0     H11120   9.483   7.544   0.780 -1.9657  0.3751 -0.1483
   81MOL0     H11121   9.359   7.358   0.995  1.8169 -2.7941  1.3372
   81MOL0     H11122   9.356   7.341   0.824 -1.6797 -1.4391  1.9261
   81MOL0     H11123   9.521   7.194   0.966  0.0744 -0.8157  0.3763
   81MOL0     H11124   9.629   7.336   0.982 -0.7811  0.9326  0.5032
   81MOL0     H11125   9.537   7.182   0.735  2.9211 -1.8988 -0.6477
   81MOL0     H11126   9.619   7.341   0.724  0.8929  1.5214  0.8987
   81MOL0     H11127   9.679   6.970   0.724 -1.3718  1.9832  0.8836
   81MOL0     H11128   9.933   6.808   0.826  2.0547  1.0428  1.5979
   81MOL0     H11129  10.060   6.923   0.772  0.3137 -0.3325  0.0866
   81MOL0     H11130   9.981   6.758   0.592 -0.9636 -2.4100  3.1171
   81MOL0     H11131   9.811   6.812   0.613 -0.0079  0.4465 -0.7024
   81MOL0     H11132   9.911   6.907   0.410 -0.2819  1.6598 -0.1429
   81MOL0     H11133   9.867   7.029   0.515 -2.2422 -1.5576  0.9026
   81MOL0     H11134  10.153   6.917   0.528  1.9936  1.5720 -1.2987
   81MOL0     H11135  10.097   7.019   0.396 -0.7515 -0.5508 -0.1900
   81MOL0     H11136  10.317   7.044   0.430 -1.8941 -0.8204 -0.2806
   81MOL0     H11137  10.611   7.046   0.439  1.1298 -0.4883 -1.9907
   81MOL0     H11138  10.643   7.209   0.385 -0.5456  1.8658  0.4306
   81MOL0     H11139  10.516   7.109   0.308  0.8602  0.8068 -0.3525
   81MOL0     H11140  10.887   7.334   0.832 -0.1823  2.6293  1.1067
   81MOL0     H11141  11.088   7.478   0.832 -0.5423  1.6712  0.5466
   81MOL0     H11142  11.279   7.555   0.430  1.0513 -0.3004 -1.1045
   81MOL0     H11143  11.181   7.705   0.456  1.5399  4.0709  3.5489
   81MOL0     H11144  11.407   7.755   0.434 -1.2919 -3.3443 -1.1035
   81MOL0     H11145  11.326   7.813   0.581 -0.3965 -0.4573  0.7952
   81MOL0     H11146  11.432   7.632   0.717 -2.5546  0.4258 -1.1878
   81MOL0     H11147  11.555   7.734   0.654 -1.9246  1.6224  0.3266
   81MOL0     H11148  11.576   7.564   0.454  1.2780  2.3320  1.0856
   81MOL0     H11149  11.456   7.459   0.535 -0.5708  1.0249 -0.3898
   81MOL0     H11150  11.682   7.572   0.712 -1.1569  3.3676 -2.3628
   81MOL0     H11151  11.604   7.408   0.703  0.6103  0.1609 -0.4633
   81MOL0     H11152  11.849   7.420   0.646  2.2292  1.1613 -1.9319
   81MOL0     H11153  11.817   7.523   0.510 -0.4584  0.9336  1.4698
   81MOL0     H11154  11.665   7.346   0.408 -0.0026  2.0651  0.9318
   81MOL0     H11155  11.685   7.253   0.556 -0.8974 -0.1061 -0.3186
   81MOL0     H11156  11.925   7.220   0.512 -0.6316  1.3198  0.3183
   81MOL0     H11157  11.927   7.334   0.378 -0.2933  0.7777  0.3378
   81MOL0     H11158  11.052   7.522   0.399  4.2570 -0.4217  1.3939
   81MOL0     H11159  10.829   7.394   0.417 -1.9979 -2.1086  1.4336
   81MOL0     H11160  10.398   7.420   0.740  1.6625 -1.6525  0.0086
   81MOL0     H11161  10.168   7.327   0.708  0.0339 -0.6668  0.3036
   81MOL0     H11162   8.727   7.475   0.653  0.6453  1.4440 -1.3402
   81MOL0     H11163   8.649   7.244   0.610  0.1764 -1.9902  0.2292
   81MOL0     H11164   8.855   6.877   0.391  0.0993  1.5671  0.2943
   81MOL0     H11165   8.841   6.640   0.292 -0.2089 -0.1735  0.2666
   81MOL0     H11166   8.740   6.244   0.403 -2.1290  1.2377 -0.9258
   81MOL0     H11167   8.751   6.308   0.565  0.3599  1.6047  0.6374
   81MOL0     H11168   8.520   6.365   0.579  1.3918  0.2196 -0.0173
   81MOL0     H11169   8.542   6.201   0.542  1.2153  0.3165  2.5633
   81MOL0     H11170   8.359   6.326   0.400 -0.2576  1.2107 -0.9228
   81MOL0     H11171   8.501   6.392   0.323  1.2105  0.5368  1.0255
   81MOL0     H11172   8.448   6.092   0.346 -0.9372  1.7926  1.6074
   81MOL0     H11173   8.566   6.160   0.232  0.8279 -0.0591  1.4821
   81MOL0     H11174   8.207   6.213   0.022  0.1105 -0.1505  0.2652
   81MOL0     H11175   8.645   6.510   0.652  1.2114 -2.4610  0.0643
   81MOL0     H11176   8.557   6.792   0.776 -1.3601 -0.7778  1.0486
   81MOL0     H11177   8.606   6.630   0.835  1.1720 -0.7863 -0.8632
   81MOL0     H11178   8.716   6.758   0.853  1.0153 -0.3238 -0.4679
   82MOL0     O11179   6.744  11.142   4.978 -0.5174  0.5972 -0.1503
   82MOL0     C11180   6.731  11.216   5.078  0.7635  0.4043  0.2040
   82MOL0     O11181   6.822  11.306   5.119  0.1666  0.3440 -0.0650
   82MOL0     C11182   6.925  11.363   5.049 -0.7507  0.2932  0.7037
   82MOL0     C11183   6.969  11.479   5.103  0.4029 -0.4322 -0.2977
   82MOL0     C11184   7.080  11.541   5.049 -0.4873 -0.4251 -0.4584
   82MOL0     C11185   7.139  11.488   4.934 -0.1744 -0.2008  0.7862
   82MOL0     O11186   7.249  11.543   4.876  0.7906 -0.0663 -0.2392
   82MOL0     C11187   7.313  11.656   4.944 -0.0028  0.2206  0.3139
   82MOL0     C11188   7.424  11.706   4.853  0.2268  0.3690 -0.5265
   82MOL0     C11189   7.488  11.825   4.933 -0.0334  0.5840  0.1173
   82MOL0     C11190   7.611  11.882   4.860  0.7315 -0.4724 -0.0665
   82MOL0     C11191   7.689  11.978   4.956  0.1057  0.1891 -0.4972
   82MOL0     C11192   7.813  12.017   4.876  0.4274  0.4596  0.3415
   82MOL0     C11193   7.909  12.115   4.952 -0.1992  0.6850  0.0724
   82MOL0     C11194   8.044  12.144   4.889  0.5876 -0.2065  0.2699
   82MOL0     N11195   8.126  12.030   4.870 -0.3739 -0.2776 -0.4645
   82MOL0     C11196   8.187  11.976   4.981 -0.0851 -0.3136  0.6359
   82MOL0     C11197   8.261  11.872   4.930 -0.2908  0.0090 -0.5325
   82MOL0     C11198   8.348  11.768   5.005  0.7156 -1.0897  0.9196
   82MOL0     C11199   8.309  11.781   5.150 -0.5991 -0.7008 -0.4836
   82MOL0     C11200   8.379  11.692   5.247 -0.0951  0.2314 -0.3278
   82MOL0     C11201   8.531  11.726   5.246 -0.0333  0.0303  0.3049
   82MOL0     O11202   8.580  11.679   5.372  0.7453  0.0420  0.4626
   82MOL0     C11203   8.708  11.632   5.369 -1.0993 -0.5983  0.3435
   82MOL0     C11204   8.737  11.513   5.420  0.2382  1.0844  0.0183
   82MOL0     C11205   8.866  11.465   5.445 -0.1514  0.6247 -0.2519
   82MOL0     C11206   8.875  11.334   5.517 -0.6772  0.2897  1.1560
   82MOL0     C11207   8.978  11.550   5.414  0.6581 -0.1004 -0.3266
   82MOL0     C11208   9.127  11.523   5.434  0.1172 -0.5590  0.4367
   82MOL0     O11209   9.216  11.616   5.382 -0.3286 -0.0372  0.0243
   82MOL0     C11210   9.356  11.603   5.394  0.4537 -0.8098 -0.4884
   82MOL0     C11211   9.426  11.567   5.501 -0.0156  0.3074  0.1193
   82MOL0     C11212   9.563  11.556   5.509 -0.2446  0.2209 -0.4895
   82MOL0     C11213   9.644  11.582   5.398 -0.2604  0.4509 -0.1378
   82MOL0     O11214   9.782  11.571   5.406 -0.6312 -0.0330 -0.6231
   82MOL0     C11215   9.838  11.466   5.326 -0.1336 -1.1405  0.7163
   82MOL0     C11216  10.001  11.477   5.339 -0.8752 -0.1342 -0.1585
   82MOL0     C11217  10.046  11.475   5.487 -0.0938 -0.1677 -0.3801
   82MOL0     C11218  10.185  11.413   5.509 -0.0881  0.0850 -0.4293
   82MOL0     C11219  10.260  11.481   5.620  0.1226 -0.8430 -0.6540
   82MOL0     C11220  10.384  11.420   5.685  0.1400  0.3058  0.5391
   82MOL0     C11221  10.506  11.455   5.601 -0.1698  0.4252  0.1716
   82MOL0     C11222  10.614  11.348   5.612  0.8153  0.6113 -0.8013
   82MOL0    Cl11223  10.697  11.360   5.782 -0.0828  0.0831  0.0361
   82MOL0     C11224   9.578  11.619   5.285  0.1981  0.5256  0.5867
   82MOL0     C11225   9.436  11.632   5.284  0.3826  0.3347 -0.4491
   82MOL0     O11226   9.158  11.422   5.494  0.1074 -1.1453  0.1829
   82MOL0     C11227   8.940  11.683   5.365  0.3456  0.0069  0.2422
   82MOL0     C11228   8.814  11.716   5.341 -0.1958  0.0711  0.1258
   82MOL0     N11229   8.238  11.868   4.795 -0.3735  0.1504 -0.8045
   82MOL0     N11230   8.154  11.958   4.759 -0.5766  0.9180  0.6352
   82MOL0     C11231   7.088  11.374   4.874 -1.0762 -0.1357 -0.9553
   82MOL0     C11232   6.984  11.306   4.931 -0.4816  0.1018 -0.1092
   82MOL0     C11233   6.603  11.193   5.154 -0.7699 -1.1490  0.2002
   82MOL0     C11234   6.491  11.135   5.090 -0.2510  0.3344  1.2148
   82MOL0     C11235   6.374  11.109   5.149  0.2429 -0.0832  0.3762
   82MOL0     C11236   6.361  11.158   5.283  0.4025  0.3302 -0.7321
   82MOL0     O11237   6.250  11.147   5.366 -0.1809 -0.1241 -0.4509
   82MOL0     C11238   6.128  11.092   5.311 -0.3977  0.3041 -0.3075
   82MOL0     C11239   6.002  11.135   5.396  0.0782 -0.0536 -0.2860
   82MOL0     C11240   5.862  11.074   5.345 -0.1451 -0.8414  0.1497
   82MOL0     C11241   5.844  10.929   5.351 -0.6964 -0.1289 -0.3307
   82MOL0     C11242   5.869  10.875   5.483  0.0518 -0.6437  0.3268
   82MOL0     C11243   5.879  10.798   5.575 -0.7210  0.1292 -0.1132
   82MOL0     C11244   6.466  11.217   5.352 -0.3638 -0.0728 -0.1871
   82MOL0     C11245   6.586  11.240   5.286  0.2068  0.5949  0.3511
   82MOL0     C11246   6.695  11.320   5.361  0.3899 -0.4695  0.1584
   82MOL0     H11247   6.910  11.516   5.187 -0.5482  0.0635 -1.1689
   82MOL0     H11248   7.124  11.624   5.104  0.9441 -2.0251  0.9241
   82MOL0     H11249   7.352  11.631   5.043 -1.0450  2.2060  1.2913
   82MOL0     H11250   7.239  11.734   4.961 -2.8767 -2.0876 -0.7332
   82MOL0     H11251   7.499  11.629   4.832 -0.0260 -0.2808  0.8776
   82MOL0     H11252   7.381  11.738   4.757 -1.4622  1.8571  0.6540
   82MOL0     H11253   7.417  11.906   4.955  1.8865  2.6198 -0.7772
   82MOL0     H11254   7.514  11.781   5.030 -1.0750  0.2947  0.2706
   82MOL0     H11255   7.669  11.796   4.823  0.1600 -1.3622  1.0653
   82MOL0     H11256   7.573  11.942   4.777  0.5222 -0.5570 -0.0324
   82MOL0     H11257   7.716  11.926   5.049 -0.1451  0.5263 -0.2333
   82MOL0     H11258   7.625  12.058   4.995 -0.7757 -0.0145 -1.4819
   82MOL0     H11259   7.868  11.928   4.844  0.4887 -0.0294  1.7230
   82MOL0     H11260   7.778  12.065   4.785  0.4845 -0.9599 -0.4557
   82MOL0     H11261   7.936  12.080   5.052 -3.5677  0.8937  1.1799
   82MOL0     H11262   7.866  12.214   4.971  2.8079  1.9557  0.8760
   82MOL0     H11263   8.033  12.205   4.799 -1.2753  1.1532  1.3550
   82MOL0     H11264   8.099  12.208   4.959 -2.4640  1.2974  1.4913
   82MOL0     H11265   8.180  12.023   5.078 -2.5097  0.6600  0.0614
   82MOL0     H11266   8.455  11.786   4.986  0.4316 -1.1652 -0.9910
   82MOL0     H11267   8.316  11.671   4.967 -0.7248 -0.8914  1.5854
   82MOL0     H11268   8.323  11.882   5.189 -1.6116  0.2449 -2.4054
   82MOL0     H11269   8.203  11.756   5.148 -1.3896  2.3222 -2.4475
   82MOL0     H11270   8.341  11.704   5.349 -2.6186 -0.1960 -1.1404
   82MOL0     H11271   8.379  11.584   5.230  2.7541  0.0306  0.4291
   82MOL0     H11272   8.579  11.675   5.162  1.1254 -0.9094  1.5054
   82MOL0     H11273   8.543  11.834   5.236 -2.2525  0.2085 -1.2368
   82MOL0     H11274   8.654  11.449   5.448  0.7602  1.4224  2.5753
   82MOL0     H11275   8.913  11.248   5.461  2.2439  1.6673  0.8723
   82MOL0     H11276   8.775  11.300   5.548 -1.4192 -4.3402 -4.4523
   82MOL0     H11277   8.938  11.344   5.606 -0.7595 -0.7329  1.3448
   82MOL0     H11278   9.370  11.551   5.593 -2.5107  0.9103 -1.2018
   82MOL0     H11279   9.615  11.521   5.598 -1.2130  2.0505  0.8770
   82MOL0     H11280   9.811  11.364   5.354  1.3732 -1.6742  0.3707
   82MOL0     H11281   9.818  11.484   5.220  3.4406 -1.6946 -0.2092
   82MOL0     H11282  10.040  11.392   5.282 -0.8170  0.6623 -1.3253
   82MOL0     H11283  10.048  11.568   5.302 -1.6039  0.2450 -0.1682
   82MOL0     H11284   9.974  11.428   5.555 -1.6796  2.1355 -0.3446
   82MOL0     H11285  10.047  11.579   5.522  2.0261 -0.7723  1.6069
   82MOL0     H11286  10.244  11.425   5.417 -3.1543  0.9918 -2.4328
   82MOL0     H11287  10.179  11.306   5.530 -2.2979 -0.3325 -2.7346
   82MOL0     H11288  10.292  11.583   5.597 -3.0452  0.1038 -1.2622
   82MOL0     H11289  10.190  11.485   5.704  2.0964 -1.5856  1.1566
   82MOL0     H11290  10.370  11.312   5.693  0.0667  0.3232  0.6564
   82MOL0     H11291  10.407  11.455   5.786 -1.3053  1.4893  0.4920
   82MOL0     H11292  10.546  11.557   5.610 -3.7667  1.9759  0.3262
   82MOL0     H11293  10.485  11.438   5.495  0.7309  0.2213  0.0189
   82MOL0     H11294  10.677  11.359   5.523 -1.5974 -1.4414 -2.9206
   82MOL0     H11295  10.567  11.250   5.602 -0.3277  1.0200  0.2691
   82MOL0     H11296   9.635  11.654   5.200  2.1998  1.0729  2.0663
   82MOL0     H11297   9.385  11.672   5.197 -2.4820  2.4549  1.9974
   82MOL0     H11298   9.017  11.756   5.340  1.1387  0.4059  3.4578
   82MOL0     H11299   8.807  11.818   5.304 -0.5057 -0.2863 -0.8441
   82MOL0     H11300   7.146  11.323   4.798 -1.1939 -0.8935 -0.5388
   82MOL0     H11301   6.948  11.210   4.895  1.0794 -0.8875  0.8498
   82MOL0     H11302   6.504  11.111   4.985 -3.2713  1.3409  0.5148
   82MOL0     H11303   6.291  11.073   5.090 -0.6558  4.0933 -1.2014
   82MOL0     H11304   6.123  11.135   5.210 -0.9829  1.0046  0.0044
   82MOL0     H11305   6.128  10.983   5.318 -1.0218  0.4137  2.6732
   82MOL0     H11306   5.992  11.242   5.374  0.9405 -0.0478 -0.6897
   82MOL0     H11307   6.007  11.130   5.505 -2.2759  0.7387 -0.0752
   82MOL0     H11308   5.781  11.104   5.411  1.3839 -2.9499  3.2332
   82MOL0     H11309   5.842  11.111   5.244  0.4921  1.3451  0.7519
   82MOL0     H11310   5.914  10.883   5.281  1.7298  0.5198  1.5344
   82MOL0     H11311   5.741  10.903   5.325 -1.5351  0.5044  2.0474
   82MOL0     H11312   5.892  10.720   5.647 -1.5553 -1.3145 -1.4637
   82MOL0     H11313   6.442  11.246   5.454 -1.0172 -1.0462 -0.0571
   82MOL0     H11314   6.678  11.304   5.468 -1.1246  0.5398  0.1036
   82MOL0     H11315   6.799  11.289   5.347  0.4575  0.5499 -1.9259
   82MOL0     H11316   6.691  11.428   5.345  0.3154 -0.2133  1.7575
   83MOL0     O11317   9.601   3.199   8.820 -0.2036 -0.8556 -0.0472
   83MOL0     C11318   9.542   3.287   8.757  0.0669  0.5251  0.1441
   83MOL0     O11319   9.581   3.347   8.646 -0.0509  0.2866  0.3487
   83MOL0     C11320   9.700   3.314   8.585  0.0400 -0.0094 -0.2892
   83MOL0     C11321   9.710   3.256   8.460 -0.5877 -0.3775  0.5432
   83MOL0     C11322   9.831   3.246   8.394  0.3846 -0.1765  0.1087
   83MOL0     C11323   9.945   3.301   8.446  0.2924  0.7945 -0.0300
   83MOL0     O11324  10.058   3.313   8.369  0.0610  0.4307  0.6957
   83MOL0     C11325  10.183   3.243   8.421 -0.1074 -0.0805 -0.1253
   83MOL0     C11326  10.273   3.179   8.315  0.3269  0.6639  0.1128
   83MOL0     C11327  10.392   3.268   8.285  0.1230 -0.3924  0.5908
   83MOL0     C11328  10.494   3.197   8.184  0.4269  0.3813 -0.8692
   83MOL0     C11329  10.611   3.287   8.144 -1.4929 -0.3338  0.2377
   83MOL0     C11330  10.580   3.375   8.015  0.4136 -0.3859 -0.1082
   83MOL0     C11331  10.685   3.481   7.980  0.1558  0.4785  0.2522
   83MOL0     C11332  10.818   3.416   7.939  0.3332 -0.0433 -0.7038
   83MOL0     N11333  10.905   3.508   7.872 -0.1711 -0.3281  0.7816
   83MOL0     C11334  10.907   3.642   7.877  0.2767  0.2433  0.5378
   83MOL0     C11335  11.019   3.680   7.805  0.7192 -0.0198  0.1330
   83MOL0     C11336  11.080   3.819   7.799  0.4922 -0.0513 -0.1451
   83MOL0     C11337  11.218   3.828   7.867  0.4959  0.1019  0.1754
   83MOL0     C11338  11.325   3.760   7.776 -1.1884  0.0198  0.5278
   83MOL0     C11339  11.323   3.821   7.632  1.0681 -0.0009 -0.0962
   83MOL0     O11340  11.445   3.800   7.569 -0.3215  0.6287  0.4003
   83MOL0     C11341  11.561   3.848   7.608  0.4037 -0.7273  0.5045
   83MOL0     C11342  11.678   3.787   7.558  0.2518  0.6911 -0.5237
   83MOL0     C11343  11.805   3.841   7.580  0.3047  0.0779 -0.4489
   83MOL0     C11344  11.919   3.761   7.511  0.3903  0.0120 -0.1303
   83MOL0     C11345  11.815   3.947   7.677 -0.6314  0.4476  0.4188
   83MOL0     C11346  11.940   3.991   7.740  0.3744 -0.0715  0.5872
   83MOL0     O11347  11.978   4.126   7.741  0.2516  0.6752  0.5091
   83MOL0     C11348  12.083   4.183   7.814 -0.4164  0.2837  0.0716
   83MOL0     C11349  12.112   4.319   7.774 -0.1375  0.7046 -0.1909
   83MOL0     C11350  12.204   4.394   7.843 -0.7834 -0.4687 -0.4687
   83MOL0     C11351  12.287   4.336   7.937  0.0647  0.5463 -0.6674
   83MOL0     O11352  12.398   4.393   8.004  0.3676  0.9837  0.3305
   83MOL0     C11353  12.420   4.535   8.009  0.7134  0.6628  0.8714
   83MOL0     C11354  12.469   4.579   8.146 -0.0803 -0.5095 -0.4959
   83MOL0     C11355  12.604   4.512   8.185  0.0353  0.1252  0.4445
   83MOL0     C11356  12.661   4.556   8.314 -0.0318  0.1784 -0.3540
   83MOL0     C11357  12.790   4.481   8.344  0.1664  0.2147 -0.2529
   83MOL0     C11358  12.857   4.523   8.474 -1.3317 -0.2462  0.1656
   83MOL0     C11359  13.000   4.465   8.464  0.4910 -0.2146  0.6374
   83MOL0     C11360  13.091   4.531   8.563 -0.0758 -0.0888 -0.4845
   83MOL0    Cl11361  13.153   4.693   8.508  0.4864  0.3749  0.3761
   83MOL0     C11362  12.261   4.202   7.979  0.2018 -0.7242 -0.1737
   83MOL0     C11363  12.158   4.124   7.923 -0.6677  0.7953  0.5290
   83MOL0     O11364  11.999   3.904   7.797 -0.2964  0.9471 -0.3941
   83MOL0     C11365  11.696   4.019   7.716  0.1579  0.2194  0.3105
   83MOL0     C11366  11.572   3.977   7.681 -0.1096  0.4118 -0.6867
   83MOL0     N11367  11.066   3.565   7.748 -0.3305  0.4921  0.3408
   83MOL0     N11368  10.994   3.463   7.775  0.2752  0.7614 -0.1854
   83MOL0     C11369   9.933   3.365   8.570 -0.7465  0.8630 -0.7754
   83MOL0     C11370   9.814   3.366   8.642 -0.3086 -0.3972  0.3302
   83MOL0     C11371   9.402   3.309   8.794 -0.4930  0.0436  0.9457
   83MOL0     C11372   9.301   3.269   8.704 -0.1682  0.8174  0.0917
   83MOL0     C11373   9.168   3.284   8.732  0.3640  0.2845 -0.3144
   83MOL0     C11374   9.128   3.339   8.858 -0.1892  0.0151 -0.4174
   83MOL0     O11375   9.000   3.344   8.908  0.1785  0.0207  0.6954
   83MOL0     C11376   8.884   3.295   8.823 -0.3096 -0.2989  0.4413
   83MOL0     C11377   8.871   3.146   8.804 -0.3321  0.2880  0.1933
   83MOL0     C11378   8.855   3.061   8.925  0.6327 -0.0723  0.2387
   83MOL0     C11379   8.705   3.024   8.964 -0.5480 -0.1821 -0.7938
   83MOL0     C11380   8.709   2.914   9.058 -0.5911  0.5964 -0.6254
   83MOL0     C11381   8.718   2.820   9.134  0.9039  0.1586 -0.7507
   83MOL0     C11382   9.230   3.390   8.944 -0.3487  0.3161  0.2733
   83MOL0     C11383   9.366   3.377   8.910 -0.5644  0.2604  0.0905
   83MOL0     C11384   9.476   3.429   8.999 -0.3859  0.0800 -1.0310
   83MOL0     H11385   9.618   3.227   8.409 -1.5105  0.0996  1.8590
   83MOL0     H11386   9.833   3.203   8.294  1.1095 -0.1350  0.0963
   83MOL0     H11387  10.143   3.162   8.483 -0.6216 -0.2111 -0.6163
   83MOL0     H11388  10.241   3.299   8.494 -0.7424  1.3368 -0.6702
   83MOL0     H11389  10.314   3.084   8.353  0.6841 -0.2142 -2.3016
   83MOL0     H11390  10.216   3.175   8.222 -0.3600  0.8966  0.5151
   83MOL0     H11391  10.363   3.364   8.243  2.7289 -1.4028 -4.2781
   83MOL0     H11392  10.453   3.290   8.373 -1.0787 -0.8905  1.5753
   83MOL0     H11393  10.534   3.112   8.239  3.6677  0.5189 -2.7858
   83MOL0     H11394  10.445   3.159   8.094  2.9659 -3.7382 -0.7552
   83MOL0     H11395  10.691   3.220   8.113 -0.1869  1.0602  0.5024
   83MOL0     H11396  10.649   3.352   8.223 -0.6111  2.2483 -2.1509
   83MOL0     H11397  10.571   3.305   7.932 -1.0653 -0.4365  0.0671
   83MOL0     H11398  10.486   3.430   8.028 -0.7188 -1.9502 -1.3188
   83MOL0     H11399  10.689   3.560   8.055 -0.9711  0.2212  0.6153
   83MOL0     H11400  10.645   3.527   7.889 -1.2457 -1.7443 -0.3399
   83MOL0     H11401  10.867   3.379   8.029 -0.6506 -2.0158 -0.9361
   83MOL0     H11402  10.804   3.332   7.871  2.0585  1.0349 -2.5272
   83MOL0     H11403  10.835   3.707   7.926 -1.5391  1.3876 -3.2531
   83MOL0     H11404  11.015   3.886   7.857  1.2687  0.1229  0.5440
   83MOL0     H11405  11.076   3.857   7.697 -1.5712  0.7681  0.1816
   83MOL0     H11406  11.241   3.933   7.885 -0.3648  0.5045 -0.9784
   83MOL0     H11407  11.212   3.787   7.968 -0.0429 -0.6186 -0.1414
   83MOL0     H11408  11.425   3.772   7.818 -2.1021 -0.1513  2.8917
   83MOL0     H11409  11.303   3.653   7.776  1.6353 -0.6486  0.2078
   83MOL0     H11410  11.243   3.775   7.574 -0.1608  1.1517  0.6285
   83MOL0     H11411  11.305   3.929   7.629  1.0727 -0.0169 -0.7097
   83MOL0     H11412  11.688   3.701   7.493  0.9760  1.1344 -1.0052
   83MOL0     H11413  11.899   3.767   7.403 -0.6108 -1.3908 -0.0586
   83MOL0     H11414  11.925   3.654   7.535  1.2296 -0.3564 -1.8279
   83MOL0     H11415  12.013   3.808   7.541  0.8606 -0.7531 -0.3784
   83MOL0     H11416  12.052   4.358   7.692  0.5355 -1.6666 -1.9189
   83MOL0     H11417  12.235   4.494   7.815  2.0606 -1.1693 -0.1321
   83MOL0     H11418  12.498   4.560   7.937 -1.0037 -0.6417 -1.5751
   83MOL0     H11419  12.325   4.588   7.991  1.9010  2.8592  0.7322
   83MOL0     H11420  12.479   4.688   8.135 -2.3535 -0.2590 -0.7138
   83MOL0     H11421  12.398   4.568   8.228  1.3110 -0.4414  0.7567
   83MOL0     H11422  12.677   4.519   8.104 -0.5665 -1.2368 -0.2497
   83MOL0     H11423  12.579   4.406   8.179 -0.3548  0.2841 -0.9701
   83MOL0     H11424  12.599   4.553   8.404 -0.1944 -1.1369 -0.4973
   83MOL0     H11425  12.685   4.662   8.299  2.0337 -0.2441 -0.3216
   83MOL0     H11426  12.773   4.374   8.356  1.7125 -0.0589 -0.3335
   83MOL0     H11427  12.857   4.516   8.265  1.9578 -0.9890  0.6869
   83MOL0     H11428  12.800   4.493   8.563 -0.2291 -1.6952  0.4106
   83MOL0     H11429  12.874   4.630   8.487  0.3238 -0.4736  0.1577
   83MOL0     H11430  13.043   4.482   8.364 -1.0073 -0.7093 -0.1182
   83MOL0     H11431  12.997   4.362   8.500 -1.9001 -0.4089  0.0225
   83MOL0     H11432  13.181   4.470   8.556  1.2603  1.6919  0.2221
   83MOL0     H11433  13.042   4.540   8.660 -1.7696  3.1016 -1.4941
   83MOL0     H11434  12.313   4.160   8.064 -0.1544  0.9685  0.9298
   83MOL0     H11435  12.144   4.022   7.954  2.7337  0.2569  0.6400
   83MOL0     H11436  11.715   4.110   7.772  0.4227  0.1572  0.3232
   83MOL0     H11437  11.482   4.027   7.716  0.8396  0.8645  1.2909
   83MOL0     H11438  10.014   3.409   8.626 -0.9110  0.1907  0.0100
   83MOL0     H11439   9.801   3.426   8.732  0.1059  1.4833 -0.7934
   83MOL0     H11440   9.336   3.236   8.607  0.2916 -1.2810  0.9013
   83MOL0     H11441   9.095   3.249   8.660  1.1799  0.3945 -1.2152
   83MOL0     H11442   8.795   3.342   8.866  1.1653  3.2834 -0.0628
   83MOL0     H11443   8.908   3.335   8.724  0.0565 -1.9066 -0.1553
   83MOL0     H11444   8.963   3.114   8.753 -0.1946  0.3148  0.4198
   83MOL0     H11445   8.793   3.123   8.732  0.9777  3.1948 -2.3685
   83MOL0     H11446   8.914   2.969   8.915 -0.7535 -0.7419 -2.5459
   83MOL0     H11447   8.899   3.113   9.012  1.0731  0.9761 -0.5895
   83MOL0     H11448   8.635   2.990   8.888 -4.0208 -0.0269  2.0344
   83MOL0     H11449   8.659   3.116   9.001  0.8890 -0.5761  2.3817
   83MOL0     H11450   8.723   2.752   9.217 -3.2311 -0.7889 -1.0632
   83MOL0     H11451   9.207   3.443   9.036  1.4202  2.1606 -0.2638
   83MOL0     H11452   9.541   3.354   9.045  1.7781  1.8257 -1.1088
   83MOL0     H11453   9.549   3.490   8.944 -0.7684  1.1581 -0.3696
   83MOL0     H11454   9.424   3.486   9.077  0.1264  0.1685 -0.7508
   84MOL0     O11455   9.695   3.709   5.406  0.5177 -0.3880 -0.0863
   84MOL0     C11456   9.678   3.825   5.357 -0.0712  0.7744 -0.3197
   84MOL0     O11457   9.778   3.897   5.299 -0.2743 -0.6525 -0.1596
   84MOL0     C11458   9.910   3.863   5.321 -0.2394 -0.1511 -0.5564
   84MOL0     C11459   9.973   3.893   5.438  0.1737  0.1431  1.2563
   84MOL0     C11460  10.110   3.878   5.457 -0.0628  0.0882  0.1247
   84MOL0     C11461  10.193   3.843   5.348 -0.1567  0.0934  0.0418
   84MOL0     O11462  10.323   3.823   5.360 -0.2476 -0.1763 -0.7940
   84MOL0     C11463  10.390   3.849   5.486  0.3333 -0.1870  0.2783
   84MOL0     C11464  10.531   3.818   5.470 -0.8056  0.0179  0.3010
   84MOL0     C11465  10.542   3.667   5.501 -0.5757 -0.1679  0.1399
   84MOL0     C11466  10.654   3.599   5.416 -0.4723 -0.5796  0.2095
   84MOL0     C11467  10.791   3.649   5.450  0.0233  0.0800  0.2704
   84MOL0     C11468  10.857   3.755   5.362 -0.3269  0.1461 -1.1445
   84MOL0     C11469  10.989   3.786   5.424  0.3208  0.8302  0.6288
   84MOL0     C11470  11.050   3.912   5.360  0.1702  0.4883  0.8027
   84MOL0     N11471  11.184   3.930   5.413 -0.7012 -0.0891 -0.4734
   84MOL0     C11472  11.297   3.931   5.338 -0.7515 -1.1422 -0.1150
   84MOL0     C11473  11.394   3.975   5.424  0.2352 -0.4296  0.4473
   84MOL0     C11474  11.530   4.009   5.377  0.7365  0.1901  0.5960
   84MOL0     C11475  11.562   4.140   5.300  0.2615 -0.3057  0.6244
   84MOL0     C11476  11.692   4.141   5.230 -0.2079 -1.0653  0.4494
   84MOL0     C11477  11.809   4.120   5.317  1.5849 -0.4996  0.4565
   84MOL0     O11478  11.928   4.078   5.243  0.1404 -0.0776 -0.5172
   84MOL0     C11479  12.051   4.096   5.300  0.3569 -0.2447 -1.0811
   84MOL0     C11480  12.073   4.092   5.441  0.4890 -0.3024 -0.1401
   84MOL0     C11481  12.202   4.113   5.499  0.4380 -0.3901  0.7017
   84MOL0     C11482  12.208   4.100   5.647  0.2138 -0.1966 -0.1075
   84MOL0     C11483  12.310   4.146   5.410 -0.1404  0.5195  0.1590
   84MOL0     C11484  12.450   4.169   5.471 -0.1121  0.7104 -0.0433
   84MOL0     O11485  12.548   4.111   5.406  0.0679  0.1541  0.4111
   84MOL0     C11486  12.673   4.140   5.438  0.1961 -0.6319 -0.1001
   84MOL0     C11487  12.724   4.150   5.567  0.2432  0.9085  0.2236
   84MOL0     C11488  12.856   4.189   5.590  0.8781  0.1330 -0.1947
   84MOL0     C11489  12.934   4.224   5.481  0.5156  0.3300 -0.0745
   84MOL0     O11490  13.060   4.272   5.516  0.0600 -0.4383 -0.4568
   84MOL0     C11491  13.157   4.297   5.410 -0.6808  0.0373  0.8317
   84MOL0     C11492  13.299   4.318   5.472 -0.9554  0.1599 -0.1120
   84MOL0     C11493  13.405   4.310   5.357  0.4183 -0.6652  0.6342
   84MOL0     C11494  13.547   4.295   5.395 -0.5253 -0.5900  0.2550
   84MOL0     C11495  13.611   4.424   5.467  0.7468  0.1626  0.6377
   84MOL0     C11496  13.738   4.378   5.535 -0.8821  0.1985  0.3767
   84MOL0     C11497  13.774   4.472   5.651 -0.3071  1.2030  0.6597
   84MOL0     C11498  13.910   4.440   5.709 -0.0844  0.3029 -0.2022
   84MOL0    Cl11499  14.042   4.464   5.582 -0.2770 -0.4222 -0.0195
   84MOL0     C11500  12.892   4.206   5.351  0.4066  0.2056  0.4343
   84MOL0     C11501  12.754   4.168   5.327  0.3253  0.4395 -0.1176
   84MOL0     O11502  12.458   4.251   5.562 -0.5455  0.7644  0.0197
   84MOL0     C11503  12.288   4.146   5.273  0.1056  0.1822  0.9100
   84MOL0     C11504  12.159   4.126   5.216  0.2106 -0.0229 -0.2084
   84MOL0     N11505  11.343   3.979   5.552  0.1591  0.2813  0.8897
   84MOL0     N11506  11.214   3.954   5.540 -0.3318 -0.4026 -0.5195
   84MOL0     C11507  10.128   3.824   5.228 -0.2463  0.9772  0.5337
   84MOL0     C11508   9.990   3.833   5.210 -0.0897  0.1300 -0.1398
   84MOL0     C11509   9.545   3.888   5.355  0.0313 -1.1452 -0.3523
   84MOL0     C11510   9.543   4.038   5.348  0.1001 -0.2125 -0.9467
   84MOL0     C11511   9.420   4.101   5.356 -0.5018 -0.0531 -0.5740
   84MOL0     C11512   9.300   4.040   5.385  0.5239  0.9508  0.9796
   84MOL0     O11513   9.176   4.094   5.397  0.7947  0.1393 -0.1759
   84MOL0     C11514   9.171   4.229   5.447  0.3318 -0.3886  0.0890
   84MOL0     C11515   9.035   4.251   5.514 -0.2647  0.3563  0.1653
   84MOL0     C11516   9.033   4.408   5.559 -0.5588  0.5164  0.8258
   84MOL0     C11517   8.894   4.448   5.590 -0.1464  0.0458 -0.5672
   84MOL0     C11518   8.863   4.581   5.640 -0.2081 -0.5585 -0.0166
   84MOL0     C11519   8.836   4.690   5.689  0.4595  0.1532  0.1914
   84MOL0     C11520   9.304   3.905   5.405  0.4871  0.7582  1.0312
   84MOL0     C11521   9.422   3.831   5.394  0.7341  0.4630 -0.4083
   84MOL0     C11522   9.401   3.685   5.428 -0.4246  0.7374  0.1236
   84MOL0     H11523   9.909   3.922   5.520 -1.8140  0.3056 -0.2681
   84MOL0     H11524  10.152   3.900   5.555  0.9612  2.6001 -0.7976
   84MOL0     H11525  10.344   3.794   5.568 -1.9259 -0.9358 -1.3759
   84MOL0     H11526  10.384   3.957   5.504 -2.8610 -0.0768 -0.7933
   84MOL0     H11527  10.580   3.844   5.376  1.5679  0.2493  1.5126
   84MOL0     H11528  10.584   3.880   5.543  0.7714  0.2369 -0.9873
   84MOL0     H11529  10.560   3.643   5.606 -2.3360 -1.0319  0.2773
   84MOL0     H11530  10.454   3.605   5.481  0.3962 -1.0459 -1.6122
   84MOL0     H11531  10.626   3.494   5.429 -0.6376 -0.6947 -0.9802
   84MOL0     H11532  10.645   3.604   5.307  1.8208  0.6719 -0.0123
   84MOL0     H11533  10.862   3.566   5.458 -0.2671 -0.1705  0.2427
   84MOL0     H11534  10.786   3.685   5.553 -1.3420 -0.4779  0.4193
   84MOL0     H11535  10.860   3.733   5.255  1.5604 -2.1614 -0.6905
   84MOL0     H11536  10.791   3.840   5.382 -2.4668 -1.9288  1.5424
   84MOL0     H11537  11.057   3.701   5.411  1.4134  1.5093  1.6042
   84MOL0     H11538  10.976   3.813   5.529 -1.0868  0.7393  0.4988
   84MOL0     H11539  11.070   3.879   5.258  4.2774 -0.4842  1.7172
   84MOL0     H11540  10.989   4.002   5.370 -1.1416 -0.0188 -1.7534
   84MOL0     H11541  11.301   3.914   5.231 -1.3107  0.4964 -0.4300
   84MOL0     H11542  11.563   3.925   5.315 -0.5082  2.0881 -2.9129
   84MOL0     H11543  11.579   4.019   5.475  1.9834  2.4273 -0.1881
   84MOL0     H11544  11.472   4.147   5.238 -0.9939  0.5901  2.4378
   84MOL0     H11545  11.561   4.231   5.361 -0.8967  2.2374 -2.8534
   84MOL0     H11546  11.689   4.056   5.161  1.1929  0.1733 -1.2238
   84MOL0     H11547  11.712   4.231   5.172  2.6089 -3.2476 -2.3119
   84MOL0     H11548  11.819   4.212   5.374 -2.9589  1.0918 -0.8806
   84MOL0     H11549  11.788   4.036   5.385  3.9933 -1.5491  0.0038
   84MOL0     H11550  11.983   4.074   5.498  1.6295 -2.4208  1.1046
   84MOL0     H11551  12.176   4.196   5.688  3.0368  0.1418  1.5814
   84MOL0     H11552  12.313   4.093   5.677  0.1631 -0.1645  0.0802
   84MOL0     H11553  12.144   4.023   5.692  2.2224 -0.2834  2.9304
   84MOL0     H11554  12.655   4.130   5.648  1.4350  0.4647  1.1778
   84MOL0     H11555  12.887   4.199   5.694 -0.7337 -1.5693  0.5040
   84MOL0     H11556  13.170   4.208   5.348  0.6452 -0.7748  2.1869
   84MOL0     H11557  13.121   4.379   5.347 -2.0174 -0.5856  0.7428
   84MOL0     H11558  13.318   4.413   5.523  0.7486 -0.7083  1.0020
   84MOL0     H11559  13.325   4.244   5.548  1.7306  2.6642  1.6475
   84MOL0     H11560  13.387   4.398   5.294 -2.1033 -0.8883  0.9210
   84MOL0     H11561  13.373   4.229   5.290 -1.6999  0.2479  0.4645
   84MOL0     H11562  13.607   4.265   5.309  1.9379 -1.1780  2.0513
   84MOL0     H11563  13.556   4.210   5.464 -0.3820 -1.3068 -0.6373
   84MOL0     H11564  13.640   4.495   5.388  0.4743  0.1296  0.5063
   84MOL0     H11565  13.549   4.475   5.541  3.7669  2.0731  2.0274
   84MOL0     H11566  13.810   4.376   5.453 -0.2308  0.9976  0.9125
   84MOL0     H11567  13.729   4.279   5.580 -3.2417  0.4916  0.6810
   84MOL0     H11568  13.693   4.465   5.725  0.3243  3.5112  1.6430
   84MOL0     H11569  13.771   4.578   5.626 -2.1433  0.8879 -0.6982
   84MOL0     H11570  13.919   4.333   5.728  2.0258  0.4442 -0.1442
   84MOL0     H11571  13.926   4.502   5.799 -2.4980 -1.7653  1.8117
   84MOL0     H11572  12.958   4.231   5.268  0.9523 -2.6738 -0.1096
   84MOL0     H11573  12.694   4.166   5.237 -0.7457  2.2756  0.4861
   84MOL0     H11574  12.374   4.161   5.209 -1.6761  2.2165 -1.2150
   84MOL0     H11575  12.148   4.139   5.108 -1.1061 -0.8449 -0.1907
   84MOL0     H11576  10.196   3.811   5.144  0.7438 -3.4740  1.7699
   84MOL0     H11577   9.946   3.828   5.110 -0.0569  0.7224 -0.1902
   84MOL0     H11578   9.630   4.098   5.324  0.8440 -1.3287 -1.1074
   84MOL0     H11579   9.437   4.207   5.339 -2.1799  0.2874 -0.3120
   84MOL0     H11580   9.258   4.252   5.511  0.5489 -0.1604 -0.2800
   84MOL0     H11581   9.193   4.297   5.364  0.8613  0.3290  0.7965
   84MOL0     H11582   9.027   4.183   5.599  1.5210 -1.2841 -0.9006
   84MOL0     H11583   8.946   4.215   5.461 -2.6297  1.0252  3.4028
   84MOL0     H11584   9.098   4.413   5.647  2.0250  2.0836 -1.0336
   84MOL0     H11585   9.078   4.468   5.480 -0.5327 -0.9243 -0.3126
   84MOL0     H11586   8.861   4.372   5.662  0.5537  0.4172  0.1680
   84MOL0     H11587   8.828   4.435   5.503 -0.4837  1.5536 -0.5561
   84MOL0     H11588   8.825   4.792   5.719 -2.8583  1.4121 -4.2194
   84MOL0     H11589   9.211   3.853   5.426  2.0044 -2.6509  0.0876
   84MOL0     H11590   9.452   3.622   5.355 -2.8998 -3.1031  1.4144
   84MOL0     H11591   9.444   3.669   5.528  2.6512  4.6030 -0.3253
   84MOL0     H11592   9.297   3.653   5.416 -0.0404 -1.5153  2.0614
   85MOL0     O11593   8.435   0.797   6.519 -0.2213 -0.2363  0.8835
   85MOL0     C11594   8.376   0.760   6.616 -0.4990 -0.7702 -0.1668
   85MOL0     O11595   8.435   0.684   6.710 -0.5946  0.5120  0.2778
   85MOL0     C11596   8.572   0.666   6.701  0.2026  0.6702  0.3776
   85MOL0     C11597   8.663   0.751   6.766  0.5094 -0.3659  0.2285
   85MOL0     C11598   8.800   0.719   6.754 -1.2783  0.1550 -0.3601
   85MOL0     C11599   8.847   0.602   6.689 -0.0885 -0.1496 -1.0296
   85MOL0     O11600   8.983   0.575   6.683  0.6114 -1.1302 -0.3894
   85MOL0     C11601   9.029   0.454   6.622 -1.3518 -1.0122 -0.1055
   85MOL0     C11602   9.183   0.460   6.610  0.1888  0.3003  0.4807
   85MOL0     C11603   9.250   0.467   6.741 -0.1832 -0.4572 -0.3337
   85MOL0     C11604   9.409   0.506   6.738  0.7412 -0.7500  0.3082
   85MOL0     C11605   9.456   0.572   6.870  0.3816 -0.4723 -0.2028
   85MOL0     C11606   9.597   0.640   6.855  0.5850 -0.4038 -0.0830
   85MOL0     C11607   9.697   0.523   6.840  0.7199 -0.6458  0.6612
   85MOL0     C11608   9.842   0.584   6.816  0.2751  0.5841  0.0924
   85MOL0     N11609   9.846   0.616   6.670 -0.3404  0.2174 -0.0694
   85MOL0     C11610   9.924   0.545   6.580 -1.0247 -0.8260  0.7797
   85MOL0     C11611   9.908   0.610   6.460  0.2739  0.0507  0.2452
   85MOL0     C11612   9.953   0.573   6.328 -0.1363  0.2542 -0.4238
   85MOL0     C11613   9.983   0.695   6.246  0.7226  0.4564 -0.1325
   85MOL0     C11614  10.041   0.656   6.108  0.4330 -0.3308  0.0883
   85MOL0     C11615  10.095   0.779   6.048  0.2882  0.2460 -0.0739
   85MOL0     O11616  10.194   0.834   6.136 -0.5530 -0.0389 -1.0613
   85MOL0     C11617  10.242   0.956   6.117  0.4357  0.0925  0.5133
   85MOL0     C11618  10.362   0.990   6.175 -0.0404 -0.3543  0.5700
   85MOL0     C11619  10.410   1.123   6.171  0.4175  0.6353  0.7551
   85MOL0     C11620  10.508   1.164   6.280 -0.3619  0.1429 -0.7428
   85MOL0     C11621  10.359   1.218   6.083  0.1703  0.5935  0.4996
   85MOL0     C11622  10.422   1.353   6.066 -0.4071 -0.6730 -0.6268
   85MOL0     O11623  10.569   1.351   6.072 -0.2952 -0.4670 -1.0899
   85MOL0     C11624  10.640   1.465   6.044 -1.5227  1.0437 -0.2246
   85MOL0     C11625  10.636   1.526   5.922 -0.0472  0.5603  0.6626
   85MOL0     C11626  10.720   1.634   5.900 -0.0604 -1.2647  0.0996
   85MOL0     C11627  10.811   1.671   6.002 -0.4325  0.6327  0.0440
   85MOL0     O11628  10.885   1.776   5.958 -0.3754  0.0662  0.0044
   85MOL0     C11629  10.945   1.861   6.059 -0.0992 -0.3524 -0.4076
   85MOL0     C11630  10.997   1.995   6.002  0.5061  0.7311  0.7248
   85MOL0     C11631  11.124   1.976   5.925 -0.2906  0.0006  0.7876
   85MOL0     C11632  11.178   2.109   5.862  0.7626 -0.3792  0.2120
   85MOL0     C11633  11.311   2.099   5.781 -0.1723  0.3387  0.1195
   85MOL0     C11634  11.308   2.008   5.657 -0.5778  0.6666  0.2210
   85MOL0     C11635  11.430   2.044   5.574 -0.6771  0.2255 -0.4902
   85MOL0     C11636  11.458   1.957   5.464 -1.1889  0.5934  0.0150
   85MOL0    Cl11637  11.597   2.022   5.365 -0.0807  0.3529 -0.4218
   85MOL0     C11638  10.823   1.597   6.123 -0.7921 -1.3495 -0.0859
   85MOL0     C11639  10.731   1.503   6.142 -0.0821 -0.2276  0.1364
   85MOL0     O11640  10.353   1.444   6.036 -0.1995 -0.2525  0.2320
   85MOL0     C11641  10.238   1.182   6.027  0.2718  0.2730 -0.0800
   85MOL0     C11642  10.183   1.056   6.047  1.0743  0.4147 -0.0032
   85MOL0     N11643   9.823   0.717   6.486  0.1239  0.8240 -0.4497
   85MOL0     N11644   9.785   0.719   6.612 -0.0902 -0.3582  0.0851
   85MOL0     C11645   8.758   0.522   6.623 -1.2045 -0.4324 -0.3885
   85MOL0     C11646   8.619   0.556   6.622  0.0633  0.1915 -0.6925
   85MOL0     C11647   8.239   0.826   6.647 -0.4210  0.6714 -0.0198
   85MOL0     C11648   8.176   0.885   6.536  0.0038 -0.5256  0.2029
   85MOL0     C11649   8.056   0.955   6.551  0.5266  0.4291 -0.0541
   85MOL0     C11650   8.006   0.971   6.684  1.0058  0.2626  0.2565
   85MOL0     O11651   7.884   1.027   6.699  0.2532 -0.5637  0.0529
   85MOL0     C11652   7.771   0.937   6.681 -0.5840 -0.6363  0.2429
   85MOL0     C11653   7.695   0.973   6.550 -0.5375 -0.0744 -0.4302
   85MOL0     C11654   7.616   1.103   6.557  0.1082 -0.1714  0.5559
   85MOL0     C11655   7.472   1.094   6.601 -0.9042  0.3791 -0.3802
   85MOL0     C11656   7.431   1.228   6.627 -1.2789 -0.8266  0.1227
   85MOL0     C11657   7.401   1.350   6.643  0.5143 -0.1259 -0.7079
   85MOL0     C11658   8.069   0.912   6.793 -0.3427 -0.1108 -0.0457
   85MOL0     C11659   8.190   0.851   6.782 -0.2310  0.1797  0.3293
   85MOL0     C11660   8.258   0.804   6.911 -0.4395 -0.2520 -0.5932
   85MOL0     H11661   8.636   0.838   6.825 -2.0492 -2.2709  2.1184
   85MOL0     H11662   8.871   0.773   6.815 -0.8882  0.3578 -0.9900
   85MOL0     H11663   9.001   0.431   6.518  2.2733  0.3249 -1.5221
   85MOL0     H11664   9.005   0.379   6.698  0.7223  0.2092  1.8682
   85MOL0     H11665   9.221   0.371   6.560  0.5553 -0.9437  2.8346
   85MOL0     H11666   9.199   0.551   6.552  2.4141 -1.0383 -1.1561
   85MOL0     H11667   9.195   0.537   6.805  0.2938  1.1069 -1.5531
   85MOL0     H11668   9.241   0.374   6.798  2.2665 -0.1197  0.7272
   85MOL0     H11669   9.466   0.419   6.705 -1.2612 -1.9190 -0.2077
   85MOL0     H11670   9.423   0.578   6.657 -3.1486  2.1389  1.8855
   85MOL0     H11671   9.462   0.500   6.952 -1.2965 -0.2515  0.1380
   85MOL0     H11672   9.383   0.646   6.902  0.7451 -1.0541  2.1199
   85MOL0     H11673   9.590   0.719   6.780 -1.4550 -1.3285 -0.9369
   85MOL0     H11674   9.613   0.690   6.951 -0.2120  0.7964 -0.5475
   85MOL0     H11675   9.663   0.448   6.768 -0.5842 -0.9184  1.5255
   85MOL0     H11676   9.697   0.468   6.935 -1.2796 -0.4616  0.7973
   85MOL0     H11677   9.845   0.686   6.856 -0.7912  2.0247 -3.1125
   85MOL0     H11678   9.924   0.518   6.842  1.0649  0.8189 -1.6813
   85MOL0     H11679   9.985   0.459   6.607 -0.0295 -0.2050  0.5812
   85MOL0     H11680   9.866   0.526   6.280 -0.5913 -0.6442  1.2298
   85MOL0     H11681  10.037   0.503   6.327  0.0794  0.5094 -1.1950
   85MOL0     H11682   9.897   0.760   6.225  0.7230  1.3189  2.1858
   85MOL0     H11683  10.051   0.760   6.301  1.7525  0.6744 -1.6124
   85MOL0     H11684  10.122   0.584   6.122  2.4069  1.5568 -1.1373
   85MOL0     H11685   9.955   0.612   6.055 -0.4646 -1.9874  2.7331
   85MOL0     H11686  10.145   0.757   5.953  2.0929  1.2690  0.5845
   85MOL0     H11687  10.010   0.846   6.033 -1.0784 -1.5567 -0.7079
   85MOL0     H11688  10.418   0.926   6.243  1.6788 -0.0424 -0.4982
   85MOL0     H11689  10.468   1.115   6.369  0.3149 -1.6601 -1.3797
   85MOL0     H11690  10.510   1.271   6.300 -1.0776  0.3432 -1.6864
   85MOL0     H11691  10.606   1.118   6.263 -0.2041 -0.0021  0.4951
   85MOL0     H11692  10.563   1.498   5.846 -0.7908  1.6964  0.9364
   85MOL0     H11693  10.710   1.686   5.805  3.5119  0.5688  0.5635
   85MOL0     H11694  10.872   1.884   6.137 -0.8045  1.8412 -1.6443
   85MOL0     H11695  11.032   1.811   6.102  0.6176  1.4955  0.3747
   85MOL0     H11696  10.918   2.040   5.941  0.8574  0.1122 -0.2128
   85MOL0     H11697  11.016   2.068   6.082 -0.0983  1.0580  0.5773
   85MOL0     H11698  11.110   1.907   5.841 -1.7471  1.2453 -0.0483
   85MOL0     H11699  11.197   1.941   5.999 -1.4156  1.7198  2.8234
   85MOL0     H11700  11.174   2.193   5.931 -2.2925 -0.6341  0.4918
   85MOL0     H11701  11.105   2.136   5.785 -1.2664  0.3285  2.2665
   85MOL0     H11702  11.333   2.203   5.752  1.5931  0.2200  0.9115
   85MOL0     H11703  11.387   2.065   5.851 -0.8768  0.2182  0.8416
   85MOL0     H11704  11.217   2.028   5.599 -1.1153  1.9085  1.4579
   85MOL0     H11705  11.307   1.902   5.684 -0.0263  0.7153  0.4382
   85MOL0     H11706  11.511   2.055   5.647 -0.8566  4.8589 -0.7410
   85MOL0     H11707  11.426   2.147   5.540 -1.1167  1.2581  2.3810
   85MOL0     H11708  11.372   1.965   5.397 -1.0809  0.7552 -0.1041
   85MOL0     H11709  11.464   1.852   5.495 -0.1185  0.8536  0.7485
   85MOL0     H11710  10.892   1.617   6.204 -3.4871  1.4876  1.7380
   85MOL0     H11711  10.737   1.439   6.230 -4.2294 -2.1984 -0.7337
   85MOL0     H11712  10.188   1.254   5.962 -0.6736  0.0089  0.3410
   85MOL0     H11713  10.090   1.035   5.994 -0.4675 -0.6027  2.9051
   85MOL0     H11714   8.787   0.437   6.562  0.1965  0.4151 -0.9623
   85MOL0     H11715   8.545   0.498   6.569 -1.0439  1.3949 -0.5242
   85MOL0     H11716   8.218   0.884   6.436  0.7751 -1.1679  0.5207
   85MOL0     H11717   8.015   1.014   6.469  0.5266  2.7275  1.4960
   85MOL0     H11718   7.805   0.835   6.665 -3.6620 -1.3938 -2.4552
   85MOL0     H11719   7.707   0.926   6.768 -2.5327 -2.9363 -1.3612
   85MOL0     H11720   7.629   0.890   6.522 -2.7430  0.6141  2.2309
   85MOL0     H11721   7.769   0.978   6.470 -0.8040 -2.6398 -0.9108
   85MOL0     H11722   7.678   1.176   6.610  2.4388  0.4783 -2.7430
   85MOL0     H11723   7.618   1.153   6.459  1.4436  0.4387  0.8760
   85MOL0     H11724   7.487   1.045   6.698  1.4838  3.1147  0.7885
   85MOL0     H11725   7.396   1.031   6.554 -0.7860 -1.2692  1.5110
   85MOL0     H11726   7.370   1.451   6.658  1.0925  0.3978 -2.6768
   85MOL0     H11727   8.027   0.935   6.890  1.7452 -1.5769  1.3127
   85MOL0     H11728   8.226   0.864   6.997 -0.7180  0.3983 -1.1483
   85MOL0     H11729   8.225   0.701   6.930  0.0655 -0.3619 -0.2665
   85MOL0     H11730   8.368   0.811   6.915 -0.3700 -1.1770 -0.6450
   86MOL0     O11731   5.266   7.764   9.278 -0.0585  0.2288  0.7756
   86MOL0     C11732   5.201   7.672   9.231 -0.1550  0.5772  0.5252
   86MOL0     O11733   5.261   7.571   9.161 -0.5447  0.8061 -0.1378
   86MOL0     C11734   5.392   7.588   9.110  0.2666  0.8528 -0.1123
   86MOL0     C11735   5.493   7.498   9.148  0.5620  0.2084  0.0133
   86MOL0     C11736   5.628   7.518   9.116  0.6787 -0.2911 -0.2468
   86MOL0     C11737   5.668   7.624   9.033 -0.1066  0.2479 -0.9482
   86MOL0     O11738   5.796   7.646   8.984 -0.2559  0.2141 -0.2501
   86MOL0     C11739   5.907   7.571   9.042 -0.2951 -0.2928  0.0204
   86MOL0     C11740   6.037   7.606   8.979  0.0267 -0.6388  0.9322
   86MOL0     C11741   6.139   7.517   9.049 -0.1087  1.2461 -0.0564
   86MOL0     C11742   6.133   7.375   8.989  0.3857 -0.2110 -0.6052
   86MOL0     C11743   6.206   7.275   9.077  0.6712  0.5898 -1.0815
   86MOL0     C11744   6.178   7.128   9.052 -0.5176 -0.1738  0.3134
   86MOL0     C11745   6.241   7.049   9.159 -0.7854  0.1163 -0.1278
   86MOL0     C11746   6.150   7.024   9.273 -0.2701  0.4753 -0.1783
   86MOL0     N11747   6.208   6.952   9.385  0.6279  0.0025 -0.6406
   86MOL0     C11748   6.270   6.835   9.379  0.0545  0.5954 -0.2619
   86MOL0     C11749   6.254   6.774   9.498  0.3853 -0.3219 -0.1012
   86MOL0     C11750   6.301   6.638   9.527 -0.0510 -0.0749 -0.9157
   86MOL0     C11751   6.447   6.645   9.601  1.2123 -0.1799  0.0723
   86MOL0     C11752   6.516   6.510   9.621  0.6481  0.5182 -0.0741
   86MOL0     C11753   6.660   6.521   9.664 -0.3856 -0.3618 -0.4963
   86MOL0     O11754   6.679   6.582   9.794 -0.1309  0.1677  0.4306
   86MOL0     C11755   6.800   6.566   9.857 -0.2408 -0.4411 -0.8019
   86MOL0     C11756   6.806   6.644   9.973  0.4128  0.9602  0.8962
   86MOL0     C11757   6.917   6.659  10.056  0.6906 -0.8390 -0.4360
   86MOL0     C11758   6.900   6.722  10.191 -0.0930 -0.8129 -0.3871
   86MOL0     C11759   7.041   6.605  10.006 -0.1539 -0.7865 -0.9780
   86MOL0     C11760   7.172   6.616  10.076  0.7868 -0.0253 -0.6086
   86MOL0     O11761   7.242   6.494  10.074  0.0357 -0.0398  1.1161
   86MOL0     C11762   7.363   6.464  10.132  1.0032 -0.2331  0.3152
   86MOL0     C11763   7.433   6.367  10.071  0.6470  0.8752  0.6772
   86MOL0     C11764   7.557   6.328  10.125  1.0077  0.3625 -0.6322
   86MOL0     C11765   7.607   6.380  10.239 -0.4919  0.6731 -0.4647
   86MOL0     O11766   7.722   6.338  10.303  0.3512  0.3806 -0.3453
   86MOL0     C11767   7.828   6.289  10.218 -0.3031  0.6723  0.5241
   86MOL0     C11768   7.968   6.299  10.282  0.7209 -0.5680  0.9980
   86MOL0     C11769   8.078   6.297  10.176  0.6678  0.0450  0.2303
   86MOL0     C11770   8.218   6.314  10.236 -0.3232  0.0271 -0.0147
   86MOL0     C11771   8.321   6.310  10.128  0.6462 -0.3107  0.9865
   86MOL0     C11772   8.446   6.402  10.155 -0.0371  0.2737 -0.1725
   86MOL0     C11773   8.574   6.363  10.077 -0.9259 -1.0214 -0.3697
   86MOL0     C11774   8.701   6.412  10.144 -1.1443  0.0744  1.0009
   86MOL0    Cl11775   8.836   6.293  10.146 -0.0532  0.0231  0.1681
   86MOL0     C11776   7.539   6.479  10.298 -0.9670 -1.0109  0.3077
   86MOL0     C11777   7.414   6.520  10.249 -0.8860 -1.1734 -0.1067
   86MOL0     O11778   7.211   6.725  10.129  0.0468  0.7013 -0.4285
   86MOL0     C11779   7.028   6.522   9.889  0.0908 -0.4031 -0.1730
   86MOL0     C11780   6.918   6.501   9.804 -0.1334 -0.9442 -0.3250
   86MOL0     N11781   6.189   6.856   9.583 -0.0977 -0.1762  0.6702
   86MOL0     N11782   6.161   6.962   9.511 -0.6854  0.0447 -1.2012
   86MOL0     C11783   5.565   7.710   9.002 -0.3615 -0.4786  0.3917
   86MOL0     C11784   5.435   7.697   9.048  0.0629  1.1973  0.5206
   86MOL0     C11785   5.050   7.661   9.236 -0.3710 -1.1376  0.4089
   86MOL0     C11786   4.988   7.576   9.142  0.4532 -0.0044  0.1011
   86MOL0     C11787   4.850   7.572   9.133 -0.3194  0.4523  0.2009
   86MOL0     C11788   4.770   7.642   9.225  0.9142 -0.8446  1.3187
   86MOL0     O11789   4.631   7.661   9.218  0.9814  0.8590 -0.1494
   86MOL0     C11790   4.553   7.577   9.124 -0.0203 -0.8591 -0.6968
   86MOL0     C11791   4.416   7.632   9.121  0.1538 -1.2141  0.7120
   86MOL0     C11792   4.340   7.568   9.004 -0.1313  0.1873  0.5924
   86MOL0     C11793   4.195   7.590   9.009  0.4771  0.0987  0.7402
   86MOL0     C11794   4.135   7.538   8.882  0.2673 -0.1548  0.2134
   86MOL0     C11795   4.079   7.477   8.789 -0.2392 -0.1325  0.5624
   86MOL0     C11796   4.835   7.724   9.320 -0.6153 -0.2824  0.9400
   86MOL0     C11797   4.973   7.739   9.323  0.2531 -0.6143 -1.0284
   86MOL0     C11798   5.039   7.825   9.425 -0.7216  0.1186  0.3376
   86MOL0     H11799   5.466   7.420   9.219  1.5434 -0.2966 -0.1522
   86MOL0     H11800   5.708   7.462   9.164  0.4959  0.3988  0.8915
   86MOL0     H11801   5.875   7.467   9.038 -1.1388 -0.0334 -0.2434
   86MOL0     H11802   5.902   7.592   9.150 -1.9275 -1.6750  0.2576
   86MOL0     H11803   6.022   7.576   8.875  1.1773  1.1514  0.2238
   86MOL0     H11804   6.050   7.713   8.995 -2.0622 -0.0850 -0.5594
   86MOL0     H11805   6.244   7.549   9.043  1.1184 -2.3368 -0.5985
   86MOL0     H11806   6.118   7.512   9.156  2.4716  0.2742  0.4946
   86MOL0     H11807   6.032   7.342   8.963  0.1728 -1.2619  1.3890
   86MOL0     H11808   6.188   7.384   8.895 -0.0280 -1.3806 -0.9643
   86MOL0     H11809   6.178   7.299   9.180 -0.5697  0.4443 -1.3703
   86MOL0     H11810   6.314   7.291   9.069  1.3501 -0.8604  2.9184
   86MOL0     H11811   6.069   7.114   9.055 -0.5371 -0.0940  0.0293
   86MOL0     H11812   6.217   7.104   8.953 -1.2767  0.8391 -0.2475
   86MOL0     H11813   6.331   7.101   9.193 -1.0184 -0.4371  1.4109
   86MOL0     H11814   6.264   6.953   9.112  0.4623 -0.7352  2.0361
   86MOL0     H11815   6.112   7.118   9.316  2.8641  1.5192  0.6163
   86MOL0     H11816   6.069   6.960   9.239 -0.0751 -0.8754  1.7385
   86MOL0     H11817   6.300   6.780   9.290 -0.0453  2.2995 -1.4061
   86MOL0     H11818   6.315   6.583   9.433  0.2157 -0.9978 -0.3475
   86MOL0     H11819   6.231   6.587   9.594 -0.6142  0.5837 -0.9857
   86MOL0     H11820   6.502   6.712   9.534  1.9990  0.0715  0.9585
   86MOL0     H11821   6.455   6.696   9.697  2.0621  0.0821 -0.1249
   86MOL0     H11822   6.474   6.443   9.696  2.1087 -0.7808 -0.3719
   86MOL0     H11823   6.532   6.446   9.533  3.1592 -0.8748  1.2735
   86MOL0     H11824   6.705   6.422   9.656  1.9763  0.4854  1.1002
   86MOL0     H11825   6.714   6.585   9.594  1.6639 -0.1800  1.1532
   86MOL0     H11826   6.714   6.697   9.993  0.0592  1.7622 -2.3617
   86MOL0     H11827   6.971   6.679  10.263  1.0787  1.5731 -0.0125
   86MOL0     H11828   6.798   6.707  10.228 -0.1861  2.3105  1.0159
   86MOL0     H11829   6.901   6.832  10.186 -3.4463 -0.6994 -0.9795
   86MOL0     H11830   7.393   6.312   9.987  1.1970  0.6930  0.5248
   86MOL0     H11831   7.606   6.248  10.070  4.0699  2.3179 -0.9996
   86MOL0     H11832   7.810   6.184  10.193  0.7305  1.0404 -2.0474
   86MOL0     H11833   7.827   6.340  10.122  1.7792 -0.8909 -0.4096
   86MOL0     H11834   7.974   6.392  10.340 -1.6305  1.2682 -1.4742
   86MOL0     H11835   7.973   6.210  10.345 -0.0553 -1.4622 -0.1603
   86MOL0     H11836   8.053   6.388  10.119 -1.1922  1.0381  2.4535
   86MOL0     H11837   8.069   6.212  10.108 -1.8759  0.5832 -0.2364
   86MOL0     H11838   8.238   6.233  10.307  0.1339 -0.7851 -1.0488
   86MOL0     H11839   8.221   6.402  10.301  1.4643 -1.5740  2.2398
   86MOL0     H11840   8.342   6.206  10.105  3.4440  0.6237 -1.2340
   86MOL0     H11841   8.278   6.358  10.038 -0.5711 -2.8761  0.1116
   86MOL0     H11842   8.460   6.388  10.262 -0.4240 -1.7728 -0.3431
   86MOL0     H11843   8.413   6.505  10.138 -0.7672 -0.0063 -0.5055
   86MOL0     H11844   8.572   6.406   9.977 -3.2588 -1.2381 -0.4663
   86MOL0     H11845   8.581   6.254  10.082  2.0557 -0.9363 -0.9627
   86MOL0     H11846   8.685   6.428  10.251 -1.9147 -0.3759  0.9626
   86MOL0     H11847   8.726   6.504  10.089  0.2721 -1.7816 -1.7091
   86MOL0     H11848   7.575   6.521  10.392  0.2363  0.7802 -0.8843
   86MOL0     H11849   7.359   6.596  10.304 -0.7197 -0.9952 -0.1830
   86MOL0     H11850   7.123   6.478   9.860  0.2928 -0.3652  0.3992
   86MOL0     H11851   6.918   6.440   9.715  0.7348 -1.5149  0.0550
   86MOL0     H11852   5.577   7.794   8.935  0.6096 -1.1080 -0.2550
   86MOL0     H11853   5.364   7.775   9.025 -0.0997  0.1461 -3.3115
   86MOL0     H11854   5.049   7.514   9.077  0.0069  1.3100 -1.6231
   86MOL0     H11855   4.817   7.506   9.053  1.2598 -0.0309 -0.0735
   86MOL0     H11856   4.592   7.588   9.022 -1.2021  3.7183 -0.8586
   86MOL0     H11857   4.554   7.475   9.165  1.4099 -0.0262  1.4658
   86MOL0     H11858   4.419   7.739   9.100  0.2121 -1.7294 -2.3266
   86MOL0     H11859   4.360   7.615   9.213  0.4794 -1.6372  0.8337
   86MOL0     H11860   4.373   7.616   8.912  0.3650 -2.2054 -0.5639
   86MOL0     H11861   4.377   7.465   8.991  0.6762  0.2504  2.1179
   86MOL0     H11862   4.165   7.695   9.004  1.7216  0.4054 -1.1563
   86MOL0     H11863   4.154   7.529   9.090  1.9675  0.2040  1.6060
   86MOL0     H11864   4.024   7.437   8.706 -0.0178  3.3769 -1.4752
   86MOL0     H11865   4.784   7.786   9.392 -1.4497  0.0730  0.0571
   86MOL0     H11866   5.119   7.890   9.388 -0.8573 -0.0352 -0.2386
   86MOL0     H11867   4.960   7.883   9.472 -1.1096  0.4390 -0.6917
   86MOL0     H11868   5.086   7.762   9.502  0.5957  2.0472  1.2076
   87MOL0     O11869   9.806   5.109  10.534  0.1662  0.1003 -0.6382
   87MOL0     C11870   9.827   5.043  10.437 -0.1386  0.1153  0.6426
   87MOL0     O11871   9.740   5.045  10.324  0.6504 -0.1529  0.5589
   87MOL0     C11872   9.645   5.148  10.315 -0.6009  0.3880  0.6847
   87MOL0     C11873   9.543   5.109  10.238  0.4657 -0.2111 -0.1297
   87MOL0     C11874   9.448   5.201  10.206 -0.1042  0.5560  0.7125
   87MOL0     C11875   9.442   5.329  10.263  0.2498  0.7235 -0.6415
   87MOL0     O11876   9.353   5.428  10.229  0.0268  1.2903  1.3418
   87MOL0     C11877   9.226   5.386  10.168 -0.5601 -0.1408  0.0356
   87MOL0     C11878   9.132   5.497  10.130  0.5659  0.0811 -0.1749
   87MOL0     C11879   9.209   5.614  10.060 -0.6475  0.3803  0.1762
   87MOL0     C11880   9.243   5.579   9.907  0.0844  0.9753 -0.5634
   87MOL0     C11881   9.391   5.536   9.898 -0.0307 -0.8492 -0.0858
   87MOL0     C11882   9.434   5.486   9.766 -0.4795  0.7468  0.3371
   87MOL0     C11883   9.584   5.452   9.763  0.2923 -0.0483  0.8586
   87MOL0     C11884   9.605   5.333   9.664  0.7937  0.3278 -1.4021
   87MOL0     N11885   9.579   5.359   9.529 -1.1581  0.4696  0.4913
   87MOL0     C11886   9.660   5.307   9.422  0.4855 -0.1004 -0.2755
   87MOL0     C11887   9.605   5.354   9.309  0.0292  0.2844 -0.2395
   87MOL0     C11888   9.660   5.331   9.172  0.8845 -0.0500  0.7329
   87MOL0     C11889   9.662   5.181   9.130 -0.1052  1.0288 -0.2585
   87MOL0     C11890   9.649   5.156   8.978 -0.1473 -0.4372 -0.0040
   87MOL0     C11891   9.792   5.185   8.912  0.3610 -0.0606 -0.1199
   87MOL0     O11892   9.876   5.074   8.944 -0.3191 -0.3455 -0.4180
   87MOL0     C11893   9.971   5.034   8.852  0.8014  0.4412  0.2368
   87MOL0     C11894  10.053   5.116   8.778 -0.0951 -1.0334  0.6741
   87MOL0     C11895  10.151   5.069   8.689  0.8933  0.0599  0.1214
   87MOL0     C11896  10.251   5.160   8.630  0.2638  0.1280 -0.6460
   87MOL0     C11897  10.156   4.925   8.664  0.0639  0.7047 -0.9484
   87MOL0     C11898  10.232   4.881   8.549  0.6313 -0.3800  0.4776
   87MOL0     O11899  10.245   4.965   8.444  0.5178 -0.6881 -0.0007
   87MOL0     C11900  10.319   4.913   8.341  0.4232 -0.2761 -0.2892
   87MOL0     C11901  10.258   4.876   8.219 -0.3795  0.4321  0.0662
   87MOL0     C11902  10.329   4.846   8.106 -0.7682 -0.6211 -0.2739
   87MOL0     C11903  10.468   4.858   8.096 -0.2382 -0.6316 -0.3569
   87MOL0     O11904  10.517   4.842   7.971 -0.3915 -0.1935 -0.0882
   87MOL0     C11905  10.656   4.801   7.954 -0.1635 -0.3074  0.8176
   87MOL0     C11906  10.742   4.917   7.909  0.1330 -0.3745 -0.4633
   87MOL0     C11907  10.883   4.878   7.878 -1.1170 -1.1619  0.1612
   87MOL0     C11908  10.969   5.004   7.855  1.5415  0.8277 -0.1748
   87MOL0     C11909  11.119   4.964   7.866 -0.1059  0.4998 -0.9432
   87MOL0     C11910  11.204   5.092   7.899 -0.4578  0.3450  0.2933
   87MOL0     C11911  11.352   5.050   7.882 -0.5726 -0.0497 -0.1996
   87MOL0     C11912  11.465   5.151   7.928  0.1955  0.2498  0.4346
   87MOL0    Cl11913  11.415   5.188   8.102  0.1087 -0.2284  0.1920
   87MOL0     C11914  10.538   4.885   8.223  0.0704  0.4992 -0.1781
   87MOL0     C11915  10.462   4.906   8.336 -0.3892 -0.7952  0.7706
   87MOL0     O11916  10.280   4.769   8.550 -0.0668  0.5082 -0.4050
   87MOL0     C11917  10.075   4.838   8.739  0.2895  0.4780 -0.5333
   87MOL0     C11918   9.982   4.896   8.831  0.5901 -0.4499 -0.6501
   87MOL0     N11919   9.490   5.426   9.340  0.1799 -0.4268 -0.2355
   87MOL0     N11920   9.470   5.416   9.472  0.8735 -0.1291  1.4817
   87MOL0     C11921   9.555   5.371  10.339  0.5366  0.3397 -0.0213
   87MOL0     C11922   9.648   5.277  10.372  0.5759 -0.3286 -0.2097
   87MOL0     C11923   9.960   4.977  10.422  0.2157 -0.1065  0.7720
   87MOL0     C11924  10.009   4.974  10.283 -0.6781  0.7181 -0.3125
   87MOL0     C11925  10.129   4.898  10.255 -0.2892  1.1175  0.0627
   87MOL0     C11926  10.196   4.837  10.362  0.4307 -0.3782  0.2074
   87MOL0     O11927  10.320   4.787  10.337 -0.0362 -0.3189  0.5300
   87MOL0     C11928  10.342   4.675  10.240 -0.0746 -1.2437 -0.5866
   87MOL0     C11929  10.493   4.653  10.235 -0.2593  0.2988  0.9110
   87MOL0     C11930  10.578   4.754  10.147  0.1125  0.0001 -0.4274
   87MOL0     C11931  10.727   4.761  10.168 -0.5018  0.0786  0.2013
   87MOL0     C11932  10.790   4.856  10.075  0.3627  0.2553 -0.0332
   87MOL0     C11933  10.833   4.928   9.982  0.6087 -0.1139 -0.0360
   87MOL0     C11934  10.152   4.852  10.493 -0.1607 -0.1151  0.9383
   87MOL0     C11935  10.039   4.924  10.526  0.3457 -0.2188  0.2394
   87MOL0     C11936  10.006   4.949  10.669 -0.5606 -0.5045 -0.7977
   87MOL0     H11937   9.534   5.008  10.198 -1.6636  0.6493 -1.9888
   87MOL0     H11938   9.365   5.165  10.145  1.0192 -0.4553 -0.2879
   87MOL0     H11939   9.161   5.325  10.230 -1.1347  1.6630  1.2995
   87MOL0     H11940   9.251   5.328  10.078  0.3581 -3.6476  2.3509
   87MOL0     H11941   9.057   5.458  10.061  0.3069  0.2765 -0.0034
   87MOL0     H11942   9.073   5.530  10.216 -2.1315 -0.6087 -1.6385
   87MOL0     H11943   9.137   5.696  10.054  0.4839  1.3024 -1.7559
   87MOL0     H11944   9.291   5.654  10.120 -0.4895  1.8141 -0.9402
   87MOL0     H11945   9.184   5.492   9.876 -0.0823  0.3476  1.3618
   87MOL0     H11946   9.219   5.666   9.845  0.1090  1.4776  0.1265
   87MOL0     H11947   9.412   5.464   9.977  1.0702 -1.2032 -0.6732
   87MOL0     H11948   9.452   5.626   9.914  1.8923 -1.1667 -4.2295
   87MOL0     H11949   9.380   5.393   9.747 -0.9474  1.5348 -2.5937
   87MOL0     H11950   9.397   5.558   9.693 -0.0471  2.9422  2.1512
   87MOL0     H11951   9.621   5.430   9.864  1.9725 -1.8231 -0.0710
   87MOL0     H11952   9.654   5.528   9.726 -0.3508 -0.9227 -2.5024
   87MOL0     H11953   9.711   5.310   9.678  0.9210  1.7270  0.1976
   87MOL0     H11954   9.538   5.254   9.700  1.1855  0.2937 -0.7188
   87MOL0     H11955   9.747   5.243   9.427  0.5276 -0.0610 -0.4670
   87MOL0     H11956   9.755   5.383   9.159  0.4985  0.6511  0.6126
   87MOL0     H11957   9.590   5.382   9.105 -0.2734 -3.6919 -1.0925
   87MOL0     H11958   9.740   5.126   9.183 -1.9426  2.1076  4.0163
   87MOL0     H11959   9.574   5.136   9.177  1.5510 -0.2795  1.7347
   87MOL0     H11960   9.630   5.049   8.960 -0.0426 -1.2407  3.8644
   87MOL0     H11961   9.563   5.213   8.942  0.5069  0.7483  0.2657
   87MOL0     H11962   9.789   5.200   8.804  0.3505  1.6277  0.0862
   87MOL0     H11963   9.831   5.281   8.947 -2.1010  0.2842  1.9778
   87MOL0     H11964  10.043   5.224   8.783  1.5908 -0.7483 -0.9954
   87MOL0     H11965  10.354   5.128   8.650 -0.3692 -0.2857  2.4677
   87MOL0     H11966  10.246   5.249   8.693  2.4210 -0.2251  0.1139
   87MOL0     H11967  10.229   5.176   8.524 -0.2811 -0.8630 -0.6965
   87MOL0     H11968  10.151   4.879   8.202 -0.5086 -1.6040  0.3649
   87MOL0     H11969  10.280   4.830   8.011 -0.9961 -1.4471 -0.0227
   87MOL0     H11970  10.694   4.760   8.048  0.6595 -0.5751  0.3778
   87MOL0     H11971  10.667   4.714   7.889  2.3073  1.7719 -1.8510
   87MOL0     H11972  10.692   4.970   7.828 -2.2070 -2.9277 -0.8084
   87MOL0     H11973  10.749   4.992   7.988  0.4479  1.6618 -2.3438
   87MOL0     H11974  10.884   4.822   7.784  2.6492  1.8717 -1.8788
   87MOL0     H11975  10.924   4.823   7.963 -0.2694  2.2132  2.1241
   87MOL0     H11976  10.943   5.078   7.931 -3.4903 -1.4901  0.7891
   87MOL0     H11977  10.956   5.045   7.755 -0.0667  1.7336  0.3633
   87MOL0     H11978  11.138   4.892   7.947 -0.5649 -2.3295 -3.1881
   87MOL0     H11979  11.142   4.908   7.775 -1.0691 -0.6502 -0.5089
   87MOL0     H11980  11.188   5.125   8.002  1.6627  0.2580  0.6943
   87MOL0     H11981  11.175   5.169   7.827 -1.9244  0.5245  1.0486
   87MOL0     H11982  11.367   5.029   7.775 -0.7929 -0.5824 -0.1286
   87MOL0     H11983  11.371   4.954   7.931 -0.1164  1.1643  2.1515
   87MOL0     H11984  11.450   5.244   7.874 -2.7985  0.1103  0.8931
   87MOL0     H11985  11.564   5.104   7.924  1.4231  2.7620 -1.3796
   87MOL0     H11986  10.646   4.894   8.231  0.2137  0.4351 -1.8217
   87MOL0     H11987  10.511   4.930   8.430 -0.1392  0.6537  0.3050
   87MOL0     H11988  10.093   4.733   8.715 -0.3888  0.6247 -1.8046
   87MOL0     H11989   9.928   4.827   8.895  0.2804  2.3539  2.3805
   87MOL0     H11990   9.565   5.469  10.384 -1.1241 -0.8937  3.4210
   87MOL0     H11991   9.726   5.306  10.441 -0.5349 -0.8602  1.3394
   87MOL0     H11992   9.962   5.031  10.204  0.1313  1.5245 -0.2224
   87MOL0     H11993  10.170   4.897  10.154  1.5189  0.0511  0.7601
   87MOL0     H11994  10.287   4.591  10.284 -1.4365  0.1251  0.4282
   87MOL0     H11995  10.295   4.696  10.144 -1.0155 -1.0118 -0.0908
   87MOL0     H11996  10.509   4.554  10.190  0.3146 -0.0476  1.8372
   87MOL0     H11997  10.544   4.665  10.331  2.5085  0.6081 -0.5064
   87MOL0     H11998  10.556   4.732  10.042 -0.1417 -2.0154  0.0007
   87MOL0     H11999  10.536   4.853  10.162  0.2320 -0.2201  1.7229
   87MOL0     H12000  10.788   4.671  10.155  0.6472  0.9981 -1.0865
   87MOL0     H12001  10.734   4.794  10.272 -2.4091  0.4599  0.2481
   87MOL0     H12002  10.855   4.989   9.897 -2.0976  0.6325 -0.2914
   87MOL0     H12003  10.219   4.820  10.572  0.3858  0.1496  0.5877
   87MOL0     H12004  10.080   4.914  10.742 -2.1424  0.4319  1.3551
   87MOL0     H12005  10.015   5.056  10.690  0.6780 -1.2377  3.2831
   87MOL0     H12006   9.906   4.919  10.700  0.7174 -2.1126  2.1541
   88MOL0     O12007   9.462   1.799   8.199  0.5762  0.4192 -0.3855
   88MOL0     C12008   9.430   1.862   8.304 -1.0503 -0.6357 -0.0285
   88MOL0     O12009   9.519   1.933   8.382  0.0577  0.4283 -0.7893
   88MOL0     C12010   9.654   1.908   8.368 -0.1271 -0.3940  0.3593
   88MOL0     C12011   9.717   1.790   8.413  0.2253 -0.4603  0.3643
   88MOL0     C12012   9.849   1.761   8.385 -0.8959  0.4673 -0.1811
   88MOL0     C12013   9.921   1.863   8.324  0.6328 -0.1377 -0.6020
   88MOL0     O12014  10.045   1.825   8.304 -0.7034  0.1980 -0.3590
   88MOL0     C12015  10.144   1.891   8.389  0.3790  0.0969 -0.3051
   88MOL0     C12016  10.281   1.832   8.366  0.2637 -0.0919 -0.3315
   88MOL0     C12017  10.379   1.901   8.456  0.8689  0.1855  0.1791
   88MOL0     C12018  10.516   1.844   8.432  0.0590 -0.1433 -0.1686
   88MOL0     C12019  10.614   1.919   8.524 -0.3763 -0.1780 -0.3097
   88MOL0     C12020  10.752   1.892   8.490 -0.6210 -1.0938  0.3870
   88MOL0     C12021  10.853   1.979   8.572 -0.2526 -0.0102 -0.5454
   88MOL0     C12022  10.983   1.893   8.565  0.7359  0.0421  0.2961
   88MOL0     N12023  11.103   1.963   8.619  0.6810 -0.2353  0.3814
   88MOL0     C12024  11.204   1.900   8.685 -0.1269 -0.1079 -0.5225
   88MOL0     C12025  11.297   2.010   8.685  0.2869  0.0677 -0.0998
   88MOL0     C12026  11.438   2.020   8.732  0.3684 -0.0917 -0.2804
   88MOL0     C12027  11.529   2.037   8.613  0.9701 -0.4629  0.3222
   88MOL0     C12028  11.683   1.987   8.625  0.1323  0.1161 -0.3564
   88MOL0     C12029  11.765   2.054   8.736 -1.0241  0.7100  0.8483
   88MOL0     O12030  11.893   1.983   8.754 -0.3618 -0.7409 -0.0105
   88MOL0     C12031  12.008   2.033   8.687  1.0554  0.1220  0.5704
   88MOL0     C12032  12.135   1.993   8.743  0.5349 -0.4338 -0.0176
   88MOL0     C12033  12.252   2.049   8.690 -0.4661 -0.1032 -0.5190
   88MOL0     C12034  12.379   2.013   8.765  0.1246  0.5965 -0.2851
   88MOL0     C12035  12.256   2.144   8.584  0.4992  0.2440  0.4373
   88MOL0     C12036  12.380   2.202   8.521 -0.3050  0.1581 -0.9768
   88MOL0     O12037  12.358   2.300   8.440  0.1381 -0.1491 -0.4721
   88MOL0     C12038  12.459   2.392   8.416 -0.0895 -0.3392  0.6024
   88MOL0     C12039  12.586   2.372   8.364 -0.2643 -0.8959  0.2627
   88MOL0     C12040  12.675   2.474   8.331  0.1570  0.7746  0.4346
   88MOL0     C12041  12.628   2.608   8.337 -0.6570  0.1861  0.5355
   88MOL0     O12042  12.690   2.718   8.282 -0.2027  0.1530  0.3228
   88MOL0     C12043  12.806   2.697   8.191  0.3605  0.9041 -0.8477
   88MOL0     C12044  12.857   2.814   8.112  0.2483 -0.5398  0.2616
   88MOL0     C12045  12.756   2.854   7.993 -0.0038  0.1723 -0.6068
   88MOL0     C12046  12.801   2.983   7.922 -0.4817  0.9237 -0.1329
   88MOL0     C12047  12.924   2.980   7.827 -0.3731  0.2892 -0.3192
   88MOL0     C12048  12.919   2.867   7.724  0.1314  0.2992 -0.3062
   88MOL0     C12049  13.028   2.882   7.619  0.6027  0.1866 -0.1563
   88MOL0     C12050  12.999   2.983   7.514  1.2848  0.0747  0.3734
   88MOL0    Cl12051  12.843   2.952   7.430 -0.5529  0.1625 -0.2939
   88MOL0     C12052  12.508   2.629   8.404  0.2455 -0.5194 -0.6916
   88MOL0     C12053  12.429   2.526   8.447  0.7076 -1.0849 -0.3558
   88MOL0     O12054  12.493   2.157   8.541 -0.1977 -0.4056  0.8021
   88MOL0     C12055  12.136   2.187   8.541  0.0044 -0.1245 -0.3853
   88MOL0     C12056  12.011   2.134   8.587  0.2588 -0.2720  0.3759
   88MOL0     N12057  11.238   2.128   8.640 -0.3243  0.3305 -0.1280
   88MOL0     N12058  11.127   2.093   8.592 -0.4954 -0.2894 -0.1034
   88MOL0     C12059   9.867   1.994   8.299 -0.2310  0.0117  0.5898
   88MOL0     C12060   9.729   2.002   8.304  0.7182 -0.4375 -0.5586
   88MOL0     C12061   9.277   1.864   8.323  1.2861  0.0552  0.0795
   88MOL0     C12062   9.210   1.743   8.321  0.9985 -0.2759  0.6921
   88MOL0     C12063   9.075   1.743   8.350  0.5172 -0.2814  0.3417
   88MOL0     C12064   9.004   1.867   8.379  0.1593  0.6815  0.0491
   88MOL0     O12065   8.868   1.864   8.394 -0.1139 -0.0458 -0.2622
   88MOL0     C12066   8.812   1.951   8.500  0.1705 -0.0511 -0.1053
   88MOL0     C12067   8.760   1.875   8.619  0.0219 -1.3237 -0.1375
   88MOL0     C12068   8.648   1.788   8.574 -0.3856  0.4891  0.3680
   88MOL0     C12069   8.555   1.726   8.682  1.4651 -1.3172  0.2503
   88MOL0     C12070   8.475   1.825   8.762  0.0972 -0.4680  0.5144
   88MOL0     C12071   8.411   1.905   8.824  0.6528 -0.9402 -0.1518
   88MOL0     C12072   9.075   1.981   8.368  0.6698 -1.0376 -0.2174
   88MOL0     C12073   9.208   1.991   8.333  0.6587  0.9237 -0.3885
   88MOL0     C12074   9.275   2.125   8.324  0.0516  0.3844  0.8558
   88MOL0     H12075   9.655   1.716   8.463  1.6063 -1.9024  0.0286
   88MOL0     H12076   9.874   1.664   8.425 -4.2500 -0.5401 -0.2407
   88MOL0     H12077  10.105   1.902   8.490  0.2952 -0.3884 -0.2803
   88MOL0     H12078  10.158   1.993   8.352  3.6382 -1.2545 -3.4199
   88MOL0     H12079  10.277   1.728   8.397  0.9205 -0.1966 -0.5781
   88MOL0     H12080  10.304   1.823   8.260  2.2640 -4.1863  0.2626
   88MOL0     H12081  10.382   2.007   8.430  0.6044 -0.0371 -0.7683
   88MOL0     H12082  10.342   1.884   8.558 -2.0786 -0.8325 -0.9429
   88MOL0     H12083  10.516   1.739   8.463 -0.1324  0.2257  1.1661
   88MOL0     H12084  10.547   1.848   8.327  0.1496  2.9788 -0.1203
   88MOL0     H12085  10.587   1.889   8.626 -1.0107  2.4998  0.3985
   88MOL0     H12086  10.591   2.026   8.516 -0.8509 -0.1784  0.7742
   88MOL0     H12087  10.779   1.786   8.493  4.1621 -0.2732 -2.6453
   88MOL0     H12088  10.773   1.909   8.384  0.9300  0.3482  0.8879
   88MOL0     H12089  10.829   1.982   8.678  1.7610 -2.2852  0.0615
   88MOL0     H12090  10.863   2.082   8.537 -1.7285  0.1064 -0.6745
   88MOL0     H12091  10.978   1.791   8.605 -0.5359 -1.1118 -2.5344
   88MOL0     H12092  11.008   1.881   8.460 -0.9710 -1.2384 -0.0150
   88MOL0     H12093  11.222   1.796   8.709  2.5329  0.7731  1.8654
   88MOL0     H12094  11.479   1.932   8.784  0.1531  0.9823  1.8100
   88MOL0     H12095  11.453   2.103   8.801 -0.9926  0.2159 -0.3360
   88MOL0     H12096  11.482   1.978   8.533  2.8853  0.7530 -1.8157
   88MOL0     H12097  11.531   2.141   8.582 -1.6855 -0.3606  0.2757
   88MOL0     H12098  11.688   1.880   8.647  2.9046  0.3209  0.3850
   88MOL0     H12099  11.732   2.010   8.530  0.4991  0.7770 -0.0120
   88MOL0     H12100  11.769   2.161   8.713  2.7916  0.7544  1.1181
   88MOL0     H12101  11.719   2.042   8.834  0.6035  0.8639  1.6584
   88MOL0     H12102  12.141   1.911   8.813 -1.9599  1.7725  3.0776
   88MOL0     H12103  12.359   1.957   8.857  0.1677  0.2050 -0.5116
   88MOL0     H12104  12.434   2.103   8.792  0.1002  0.7011 -0.5857
   88MOL0     H12105  12.446   1.964   8.694 -1.5277  0.1127 -1.5941
   88MOL0     H12106  12.634   2.276   8.348 -1.5484 -1.4715 -0.2514
   88MOL0     H12107  12.772   2.447   8.290 -1.7348 -2.9940 -2.0968
   88MOL0     H12108  12.886   2.679   8.264  0.0753  2.1973 -0.1883
   88MOL0     H12109  12.792   2.605   8.134  0.6818 -1.2432  2.2979
   88MOL0     H12110  12.869   2.893   8.187 -0.9419  1.1028 -1.1716
   88MOL0     H12111  12.955   2.788   8.071 -0.3460 -1.8195 -0.4248
   88MOL0     H12112  12.658   2.854   8.041  0.9617 -1.5991  1.5883
   88MOL0     H12113  12.742   2.778   7.915 -0.5131 -0.4198  0.0478
   88MOL0     H12114  12.826   3.065   7.989 -1.6197 -0.6560  2.3846
   88MOL0     H12115  12.717   3.013   7.857 -0.2949  2.6026  0.3435
   88MOL0     H12116  12.924   3.072   7.766 -2.7071  0.1549 -0.6015
   88MOL0     H12117  13.010   2.959   7.890 -2.5542 -1.4583  2.2863
   88MOL0     H12118  12.814   2.852   7.696  0.2912 -1.4049 -0.1124
   88MOL0     H12119  12.949   2.774   7.773  1.0766 -1.1836 -3.4358
   88MOL0     H12120  13.037   2.785   7.570 -0.9000  0.0346 -0.1603
   88MOL0     H12121  13.111   2.913   7.684 -0.5720  1.3125  0.8598
   88MOL0     H12122  13.074   2.982   7.434 -0.0741  3.6392 -1.1763
   88MOL0     H12123  12.995   3.085   7.553 -4.0130  1.3704 -2.5635
   88MOL0     H12124  12.478   2.732   8.416 -0.9633 -1.0038  0.7573
   88MOL0     H12125  12.332   2.540   8.493  1.5295  1.9925  0.6788
   88MOL0     H12126  12.133   2.271   8.473  2.1730  0.1288 -0.2507
   88MOL0     H12127  11.920   2.161   8.533  0.2119  1.6707  1.3029
   88MOL0     H12128   9.937   2.073   8.271  1.1396 -1.5628 -0.6244
   88MOL0     H12129   9.691   2.092   8.257  0.1158 -1.3994 -1.9933
   88MOL0     H12130   9.275   1.656   8.317  0.1534 -0.8922 -2.5918
   88MOL0     H12131   9.029   1.645   8.357 -2.1413  0.9758  2.1999
   88MOL0     H12132   8.887   2.024   8.532  0.9109  0.2345 -2.2900
   88MOL0     H12133   8.732   2.010   8.455  0.1916 -0.4098 -0.6250
   88MOL0     H12134   8.731   1.955   8.687 -1.8595 -1.7549 -0.3886
   88MOL0     H12135   8.838   1.809   8.660  0.1475 -0.1097  1.7270
   88MOL0     H12136   8.595   1.839   8.492 -0.2312 -0.1415 -0.1323
   88MOL0     H12137   8.706   1.709   8.525 -0.9156  0.8534 -0.8997
   88MOL0     H12138   8.618   1.673   8.754 -0.3795 -0.0498  2.9646
   88MOL0     H12139   8.481   1.662   8.634 -2.1894  0.1830  3.4249
   88MOL0     H12140   8.348   1.978   8.869  2.3507  1.7863 -1.8796
   88MOL0     H12141   9.038   2.081   8.389  2.0576 -0.7876  1.2389
   88MOL0     H12142   9.337   2.129   8.415  0.8469 -1.9986  0.4914
   88MOL0     H12143   9.333   2.123   8.232 -1.7695 -0.8294 -0.3230
   88MOL0     H12144   9.203   2.206   8.307 -0.8461 -0.9614 -2.5478
   89MOL0     O12145   8.325   9.882   8.661  0.4558  0.1958  0.6455
   89MOL0     C12146   8.234   9.956   8.633  1.1936 -0.4332  0.9522
   89MOL0     O12147   8.221  10.088   8.659 -0.5336 -0.2691 -0.0560
   89MOL0     C12148   8.289  10.123   8.771  0.6986 -0.5504 -0.6316
   89MOL0     C12149   8.394  10.213   8.759  0.2321 -0.7107  0.3828
   89MOL0     C12150   8.466  10.252   8.869 -0.2750 -0.3468 -0.1073
   89MOL0     C12151   8.437  10.203   8.994 -0.4809  0.5062 -0.0574
   89MOL0     O12152   8.516  10.245   9.094 -0.0130  0.3772 -0.5675
   89MOL0     C12153   8.598  10.141   9.155  0.4990 -0.0761  0.4129
   89MOL0     C12154   8.642  10.185   9.292  0.3712  0.2546 -0.3964
   89MOL0     C12155   8.762  10.104   9.340 -0.0013 -0.4955 -0.4349
   89MOL0     C12156   8.895  10.125   9.259 -0.4053 -0.1159  0.6702
   89MOL0     C12157   9.028  10.128   9.344  0.2014  0.3467  0.5547
   89MOL0     C12158   9.151  10.153   9.265  0.0331  0.0987  0.0469
   89MOL0     C12159   9.149  10.283   9.187 -0.1750 -0.6286  0.5383
   89MOL0     C12160   9.093  10.411   9.255  0.2597  0.3152  0.3283
   89MOL0     N12161   9.063  10.506   9.145  0.2465  0.5964 -0.3104
   89MOL0     C12162   8.938  10.518   9.082  0.5155 -0.0549 -0.0538
   89MOL0     C12163   8.958  10.604   8.978  0.1582 -0.0231 -0.0233
   89MOL0     C12164   8.840  10.637   8.887 -0.0097 -0.5117  0.0725
   89MOL0     C12165   8.799  10.518   8.809 -0.0080  0.2549  0.1294
   89MOL0     C12166   8.686  10.545   8.709  0.5299  0.3633 -0.3926
   89MOL0     C12167   8.722  10.470   8.586  0.0612 -0.0312  0.3416
   89MOL0     O12168   8.818  10.550   8.508 -0.1180 -0.2989  0.5660
   89MOL0     C12169   8.875  10.501   8.394  0.6738  0.6176  0.4464
   89MOL0     C12170   8.898  10.578   8.271  0.8205 -0.6698 -0.4435
   89MOL0     C12171   8.961  10.519   8.161 -0.3146  0.3356  0.2008
   89MOL0     C12172   8.984  10.601   8.038 -0.1028 -0.6459  0.4747
   89MOL0     C12173   9.014  10.389   8.163  0.1746 -0.3363 -0.5884
   89MOL0     C12174   9.101  10.323   8.065  0.0743  0.6616 -0.4428
   89MOL0     O12175   9.174  10.212   8.103  0.4545 -0.1463 -0.8506
   89MOL0     C12176   9.267  10.160   8.021 -0.2030 -0.1553  0.5546
   89MOL0     C12177   9.395  10.137   8.068  0.8287 -0.4001 -0.3640
   89MOL0     C12178   9.480  10.065   7.998 -0.5914 -0.4276  0.6927
   89MOL0     C12179   9.455  10.021   7.867 -0.0547  0.2369  0.0986
   89MOL0     O12180   9.554   9.940   7.818 -0.0437 -0.3767 -0.0317
   89MOL0     C12181   9.521   9.871   7.699  0.5157 -0.2081  0.0643
   89MOL0     C12182   9.641   9.795   7.649  0.1590 -0.2889 -0.7085
   89MOL0     C12183   9.756   9.892   7.628  0.4024  0.9278  0.4007
   89MOL0     C12184   9.881   9.816   7.601 -0.1753 -0.9190  0.0995
   89MOL0     C12185  10.003   9.910   7.627  0.7857 -0.9022 -0.6408
   89MOL0     C12186  10.121   9.817   7.645 -0.2257  0.1567  0.7469
   89MOL0     C12187  10.238   9.917   7.644 -0.6119  0.1952 -0.5839
   89MOL0     C12188  10.372   9.858   7.703 -0.2347  1.0048 -0.6871
   89MOL0    Cl12189  10.408   9.715   7.605 -0.2557  0.0000  0.1961
   89MOL0     C12190   9.324  10.041   7.817 -0.1732  0.8367  1.4739
   89MOL0     C12191   9.225  10.106   7.897  0.0541 -0.1733  0.3296
   89MOL0     O12192   9.110  10.369   7.948  0.2446  0.7772  0.0771
   89MOL0     C12193   8.994  10.320   8.283 -0.5098 -0.1329  1.3768
   89MOL0     C12194   8.921  10.366   8.387 -0.1051 -0.4774 -0.1088
   89MOL0     N12195   9.085  10.649   8.987 -0.1155 -0.7686 -0.1690
   89MOL0     N12196   9.143  10.597   9.089  0.1571  0.3426  0.2193
   89MOL0     C12197   8.341  10.103   9.009  0.3653  0.1163  0.4219
   89MOL0     C12198   8.260  10.067   8.900  0.2938 -0.5935  0.3384
   89MOL0     C12199   8.132   9.904   8.540  0.1148  0.3907  0.0411
   89MOL0     C12200   8.054   9.989   8.456 -0.5836  0.1707 -0.7538
   89MOL0     C12201   7.933   9.950   8.403 -0.2227 -0.0344  0.0979
   89MOL0     C12202   7.899   9.813   8.397 -0.3123  0.1154  0.2844
   89MOL0     O12203   7.797   9.768   8.316 -0.9650 -0.5618 -0.4367
   89MOL0     C12204   7.691   9.693   8.382 -0.2976 -0.2703  0.6916
   89MOL0     C12205   7.565   9.781   8.419  0.2290  0.4726 -0.4878
   89MOL0     C12206   7.592   9.888   8.523  0.0160 -0.4186 -0.1440
   89MOL0     C12207   7.488   9.998   8.525 -0.4717  0.0407  0.2930
   89MOL0     C12208   7.352   9.944   8.537  0.4855  0.4130  0.0211
   89MOL0     C12209   7.241   9.896   8.554 -0.1008  1.1603 -0.3855
   89MOL0     C12210   7.986   9.722   8.460  0.8038 -0.1574  0.8109
   89MOL0     C12211   8.094   9.767   8.537 -0.0114 -0.2982 -0.5858
   89MOL0     C12212   8.169   9.659   8.616  0.2478  0.1314  0.0710
   89MOL0     H12213   8.419  10.248   8.659 -2.3488 -0.7695 -0.3562
   89MOL0     H12214   8.550  10.320   8.859 -1.3358  0.7174 -2.5117
   89MOL0     H12215   8.686  10.138   9.090 -1.3851  2.9085 -2.5314
   89MOL0     H12216   8.547  10.044   9.165 -1.6057  0.8750 -0.4938
   89MOL0     H12217   8.660  10.293   9.295 -1.8599  0.6607  0.6820
   89MOL0     H12218   8.553  10.165   9.353 -0.0172 -0.4486 -1.1727
   89MOL0     H12219   8.781  10.123   9.446 -0.0073 -0.1368 -0.4959
   89MOL0     H12220   8.734  10.001   9.315 -1.6420  0.4574 -2.8260
   89MOL0     H12221   8.885  10.058   9.173 -4.9770  1.7049 -0.5063
   89MOL0     H12222   8.883  10.223   9.212  1.0202  0.6797  1.8815
   89MOL0     H12223   9.036  10.025   9.379  0.1352 -0.1828 -0.8979
   89MOL0     H12224   9.009  10.193   9.429  2.1240 -0.9871  2.1023
   89MOL0     H12225   9.234  10.160   9.336  1.1543  0.4160 -1.2488
   89MOL0     H12226   9.170  10.076   9.190  2.1617  0.7153 -0.1111
   89MOL0     H12227   9.082  10.278   9.100  1.4753  4.7638 -1.4779
   89MOL0     H12228   9.248  10.307   9.147 -1.1320  1.0232 -1.0200
   89MOL0     H12229   9.001  10.387   9.309  0.4432  0.0241  0.5178
   89MOL0     H12230   9.162  10.463   9.322 -1.8006  1.4399  1.6963
   89MOL0     H12231   8.845  10.468   9.107 -1.1989  1.4976 -2.7960
   89MOL0     H12232   8.860  10.724   8.822 -2.0928 -0.2520 -0.2794
   89MOL0     H12233   8.762  10.662   8.959  1.3266  1.1759  1.0147
   89MOL0     H12234   8.890  10.482   8.762 -0.3589  2.3394 -2.4425
   89MOL0     H12235   8.770  10.433   8.871 -1.5235 -0.3536 -1.3309
   89MOL0     H12236   8.587  10.522   8.750 -0.2220  0.2219 -2.2023
   89MOL0     H12237   8.689  10.651   8.683  2.5489  0.9262  1.7559
   89MOL0     H12238   8.765  10.374   8.614  4.6924  1.9215  0.8754
   89MOL0     H12239   8.630  10.454   8.530 -0.2117 -0.9039  1.0224
   89MOL0     H12240   8.870  10.683   8.277  1.1868 -0.5440 -0.8456
   89MOL0     H12241   8.950  10.550   7.947  2.3303  0.8854 -1.4236
   89MOL0     H12242   9.091  10.613   8.019 -0.6145  1.2286 -1.7827
   89MOL0     H12243   8.942  10.702   8.037 -1.2994 -1.1221 -0.0677
   89MOL0     H12244   9.423  10.181   8.163 -1.6636  1.5567 -0.4307
   89MOL0     H12245   9.580  10.050   8.036 -0.1333  0.8978  0.0506
   89MOL0     H12246   9.439   9.803   7.722 -1.2021  3.0824  5.5266
   89MOL0     H12247   9.501   9.941   7.617 -1.4424 -1.3550 -0.4800
   89MOL0     H12248   9.684   9.725   7.722  0.9820 -1.3435 -2.1602
   89MOL0     H12249   9.622   9.728   7.565 -3.6650 -1.9693  1.2162
   89MOL0     H12250   9.761   9.948   7.721  1.5461  4.3667 -1.5361
   89MOL0     H12251   9.735   9.964   7.548  3.0733  1.2439 -0.1299
   89MOL0     H12252   9.877   9.768   7.503 -0.7813  1.6204 -1.2218
   89MOL0     H12253   9.894   9.735   7.673  2.9969  2.3304  3.6760
   89MOL0     H12254  10.016   9.982   7.546 -2.9427 -1.9141 -2.3478
   89MOL0     H12255   9.992   9.971   7.717  3.3269  1.0630 -1.5558
   89MOL0     H12256  10.121   9.747   7.561  0.0573 -1.2765  1.8966
   89MOL0     H12257  10.103   9.760   7.737 -0.5543  1.5880  1.6069
   89MOL0     H12258  10.208   9.996   7.714 -0.0896  1.0839 -1.3460
   89MOL0     H12259  10.265   9.958   7.547 -0.6105  1.7950  0.0616
   89MOL0     H12260  10.373   9.825   7.807  1.0791 -2.0557 -1.5502
   89MOL0     H12261  10.455   9.929   7.691 -0.1815  1.1054  0.2241
   89MOL0     H12262   9.310  10.037   7.710 -0.5262 -1.3598  1.5510
   89MOL0     H12263   9.122  10.122   7.868 -0.3186  0.0448  1.7009
   89MOL0     H12264   9.034  10.220   8.298  3.5685  1.1843  0.4606
   89MOL0     H12265   8.901  10.302   8.472 -2.6714  0.8661  0.4096
   89MOL0     H12266   8.312  10.066   9.108  2.2649 -1.2983  0.5142
   89MOL0     H12267   8.167  10.011   8.904 -1.2887  1.8473  0.2979
   89MOL0     H12268   8.087  10.093   8.451 -0.2587  0.2184  1.3660
   89MOL0     H12269   7.860  10.010   8.349 -1.9859 -1.2414  1.0604
   89MOL0     H12270   7.663   9.613   8.312  3.2650 -0.0704 -1.1797
   89MOL0     H12271   7.712   9.639   8.474  0.8708 -2.8006 -0.9409
   89MOL0     H12272   7.489   9.716   8.463  1.7765 -0.8842  0.2584
   89MOL0     H12273   7.537   9.826   8.323 -0.4083  0.4852 -0.3022
   89MOL0     H12274   7.607   9.834   8.617  0.5696 -0.8028 -0.4475
   89MOL0     H12275   7.689   9.933   8.500 -0.5729 -0.0821 -2.1295
   89MOL0     H12276   7.500  10.054   8.431 -0.2452  1.2842  1.0374
   89MOL0     H12277   7.515  10.060   8.611  2.3445 -0.4027 -0.1731
   89MOL0     H12278   7.148   9.842   8.558  1.0016 -0.8887 -1.1747
   89MOL0     H12279   7.967   9.616   8.444  0.2398  0.1419 -0.6956
   89MOL0     H12280   8.268   9.634   8.574 -0.0163 -3.9136  1.4601
   89MOL0     H12281   8.178   9.685   8.722  4.7919  1.2039 -0.3368
   89MOL0     H12282   8.107   9.570   8.609 -1.1872  1.0325  1.0013
   90MOL0     O12283   8.762   0.562   5.143 -0.3988 -0.2230  0.8843
   90MOL0     C12284   8.727   0.546   5.021 -0.2480 -0.0340  0.4982
   90MOL0     O12285   8.774   0.464   4.921  0.1447  0.6522  0.4694
   90MOL0     C12286   8.888   0.394   4.934  0.0091 -1.4899 -0.9480
   90MOL0     C12287   8.991   0.437   5.023  0.2228  0.3326  0.8388
   90MOL0     C12288   9.096   0.347   5.039  0.4789  0.2326  0.0230
   90MOL0     C12289   9.095   0.213   4.986 -0.5375 -0.5812  0.0835
   90MOL0     O12290   9.207   0.137   5.014 -0.4971  0.8309 -0.6047
   90MOL0     C12291   9.200  -0.008   4.978 -0.1059 -0.7004  0.3238
   90MOL0     C12292   9.303  -0.089   5.067  0.1194 -0.1592 -1.0711
   90MOL0     C12293   9.451  -0.052   5.060 -0.1379 -0.2907 -0.3844
   90MOL0     C12294   9.523  -0.066   4.931  0.8649 -0.3139 -0.4865
   90MOL0     C12295   9.674  -0.075   4.945  0.1400 -0.2878  0.2952
   90MOL0     C12296   9.730  -0.217   4.986  0.4779  0.6495 -0.3758
   90MOL0     C12297   9.875  -0.220   4.996 -0.0431  0.4007 -0.0362
   90MOL0     C12298   9.934  -0.328   5.086  0.2785  0.4384  0.3567
   90MOL0     N12299  10.076  -0.321   5.113  0.1754  0.0777  0.0072
   90MOL0     C12300  10.129  -0.313   5.246  0.5816 -0.0443  0.3717
   90MOL0     C12301  10.258  -0.280   5.236  0.5873  0.2989 -0.0333
   90MOL0     C12302  10.364  -0.265   5.353 -0.0450  0.5826  0.4012
   90MOL0     C12303  10.403  -0.396   5.414  0.3357  0.2397  1.6052
   90MOL0     C12304  10.333  -0.420   5.540  0.5077  0.4780 -0.2878
   90MOL0     C12305  10.380  -0.545   5.610  0.6013 -0.7246  0.6719
   90MOL0     O12306  10.513  -0.528   5.653 -0.3519 -0.4740 -0.1869
   90MOL0     C12307  10.552  -0.462   5.767 -0.1052 -0.1412 -0.3729
   90MOL0     C12308  10.469  -0.419   5.867 -0.1995 -0.7954  1.4960
   90MOL0     C12309  10.516  -0.338   5.975  1.0389  0.4267  0.7081
   90MOL0     C12310  10.417  -0.295   6.080  0.5691 -0.0119  0.9866
   90MOL0     C12311  10.657  -0.324   5.989  0.5895 -0.4921 -0.4870
   90MOL0     C12312  10.713  -0.248   6.094 -0.8789 -0.3655 -0.3156
   90MOL0     O12313  10.832  -0.295   6.154  0.7987 -0.0883  0.5982
   90MOL0     C12314  10.901  -0.197   6.217  0.2843 -0.6407  0.2874
   90MOL0     C12315  10.965  -0.096   6.143 -0.1512  0.8653  0.3300
   90MOL0     C12316  11.055  -0.018   6.210 -0.7035 -0.6734  0.2606
   90MOL0     C12317  11.077  -0.024   6.349  0.4264  0.5054 -0.7165
   90MOL0     O12318  11.175   0.062   6.402  0.7989 -0.2389  0.3833
   90MOL0     C12319  11.226   0.053   6.534  0.4696  0.4877 -0.2886
   90MOL0     C12320  11.320  -0.067   6.558 -0.5276 -0.3562 -0.2921
   90MOL0     C12321  11.448  -0.065   6.478 -0.6030 -0.1623 -0.0700
   90MOL0     C12322  11.557  -0.137   6.560  0.1701  0.8391 -0.9159
   90MOL0     C12323  11.616  -0.030   6.650  0.2570 -0.6839  0.0848
   90MOL0     C12324  11.733  -0.093   6.724 -0.5467 -0.1795 -0.0609
   90MOL0     C12325  11.766   0.009   6.838  0.5422  0.5134 -0.0338
   90MOL0     C12326  11.862  -0.065   6.938  1.3440 -0.1353  0.1455
   90MOL0    Cl12327  12.025  -0.076   6.867  0.2299  0.0680  0.0367
   90MOL0     C12328  11.000  -0.117   6.423  0.0959  0.4163  0.0162
   90MOL0     C12329  10.908  -0.202   6.356 -0.9698  0.2786  0.2377
   90MOL0     O12330  10.655  -0.145   6.131  0.9628  0.0020  0.2451
   90MOL0     C12331  10.745  -0.380   5.896 -0.1688 -0.6339 -0.2711
   90MOL0     C12332  10.685  -0.453   5.791  0.1129  0.4151 -0.0778
   90MOL0     N12333  10.282  -0.247   5.102  0.0530  0.4561 -0.0066
   90MOL0     N12334  10.175  -0.281   5.028 -0.2266  0.2167  0.4130
   90MOL0     C12335   8.993   0.188   4.890  0.1585  0.0667 -0.3111
   90MOL0     C12336   8.892   0.273   4.867  0.3257 -0.9999 -0.8273
   90MOL0     C12337   8.621   0.637   4.968 -0.0636 -0.3442 -1.2006
   90MOL0     C12338   8.533   0.697   5.067  0.2628  0.0195  0.9445
   90MOL0     C12339   8.426   0.787   5.024  0.4409 -0.3520  0.5498
   90MOL0     C12340   8.406   0.816   4.887  0.2277 -0.3614  0.0723
   90MOL0     O12341   8.301   0.898   4.851 -0.4321 -0.1755  0.1548
   90MOL0     C12342   8.337   0.996   4.757 -0.3760 -0.9681  0.3459
   90MOL0     C12343   8.227   1.096   4.731  0.0937 -0.4694  0.0925
   90MOL0     C12344   8.161   1.164   4.850  0.4984 -0.1451  0.5612
   90MOL0     C12345   8.014   1.206   4.813 -0.5626 -0.1019  0.6275
   90MOL0     C12346   8.016   1.312   4.710 -0.1989  0.1536  0.7853
   90MOL0     C12347   8.017   1.408   4.635 -0.2627  0.1548 -1.0965
   90MOL0     C12348   8.495   0.762   4.795 -0.3649 -0.5297  0.1800
   90MOL0     C12349   8.592   0.674   4.831 -0.1729 -0.2139  0.6293
   90MOL0     C12350   8.671   0.627   4.711 -0.5274  0.3288 -0.3759
   90MOL0     H12351   8.996   0.537   5.064  0.6110  0.0666  1.4586
   90MOL0     H12352   9.186   0.390   5.084  0.8009 -0.6923  0.2807
   90MOL0     H12353   9.206  -0.019   4.869  1.0046 -1.5969  0.4613
   90MOL0     H12354   9.095  -0.037   4.995 -0.8393 -0.7200 -3.3612
   90MOL0     H12355   9.264  -0.081   5.169 -0.5174 -1.7008 -1.1632
   90MOL0     H12356   9.292  -0.196   5.046 -1.4863 -0.1056 -0.6200
   90MOL0     H12357   9.456   0.054   5.085 -1.4601 -0.6122  1.4385
   90MOL0     H12358   9.506  -0.092   5.145 -1.5212  2.8145  2.1807
   90MOL0     H12359   9.472  -0.139   4.868  1.8316 -2.7336  1.3572
   90MOL0     H12360   9.517   0.028   4.876 -0.3003  0.1119  0.3327
   90MOL0     H12361   9.707   0.004   5.014  2.6310  0.0614 -1.1828
   90MOL0     H12362   9.715  -0.045   4.848  0.7523  2.0879  1.2186
   90MOL0     H12363   9.688  -0.228   5.086  0.7726  3.3988  0.1125
   90MOL0     H12364   9.690  -0.304   4.933 -0.5030 -0.9439  2.7750
   90MOL0     H12365   9.922  -0.129   5.036  0.5264 -0.0598  0.3519
   90MOL0     H12366   9.915  -0.232   4.895 -0.3473  1.7311 -0.3452
   90MOL0     H12367   9.892  -0.310   5.186  2.2572  0.1252  1.2972
   90MOL0     H12368   9.919  -0.431   5.052  0.2212  0.7051 -0.4376
   90MOL0     H12369  10.065  -0.331   5.332 -1.1500  0.7619 -0.6934
   90MOL0     H12370  10.339  -0.184   5.423 -0.9846  2.0398 -1.4950
   90MOL0     H12371  10.453  -0.227   5.301  1.4990  0.1923  2.6296
   90MOL0     H12372  10.385  -0.486   5.353 -0.8611  0.6249  1.3739
   90MOL0     H12373  10.510  -0.396   5.435  0.8985  2.2953 -0.7870
   90MOL0     H12374  10.351  -0.337   5.610  0.8079  1.3573 -1.3778
   90MOL0     H12375  10.226  -0.436   5.526  0.3586  1.6379 -0.5993
   90MOL0     H12376  10.313  -0.567   5.694  0.9826 -0.7537  0.9748
   90MOL0     H12377  10.373  -0.621   5.532 -0.3240  1.1829 -1.2010
   90MOL0     H12378  10.362  -0.439   5.869 -0.3282 -0.0639  2.5678
   90MOL0     H12379  10.401  -0.187   6.081 -1.0016 -0.2171  1.2552
   90MOL0     H12380  10.460  -0.323   6.176  1.2858 -1.4053  0.2851
   90MOL0     H12381  10.323  -0.349   6.062 -0.5193  1.9657  0.4390
   90MOL0     H12382  10.963  -0.072   6.037  1.7204  0.7266  0.2363
   90MOL0     H12383  11.119   0.057   6.165 -1.5395 -0.0897  0.0068
   90MOL0     H12384  11.279   0.146   6.553 -0.7096  1.4691 -1.6090
   90MOL0     H12385  11.137   0.047   6.599  0.9536  4.0992  0.9253
   90MOL0     H12386  11.331  -0.076   6.666  0.0646  2.0329 -0.0880
   90MOL0     H12387  11.268  -0.157   6.524 -0.9583  0.3930 -1.6987
   90MOL0     H12388  11.473   0.033   6.438 -1.1721 -0.4512 -1.1914
   90MOL0     H12389  11.425  -0.130   6.393 -1.6029 -0.0273  0.0828
   90MOL0     H12390  11.631  -0.167   6.486  1.1479 -1.7874  0.9699
   90MOL0     H12391  11.515  -0.224   6.611 -2.6668  1.1822 -2.4518
   90MOL0     H12392  11.647   0.058   6.593  1.0265 -0.1914  1.2243
   90MOL0     H12393  11.538   0.002   6.720  0.4189  0.3990 -0.2174
   90MOL0     H12394  11.825  -0.104   6.666  0.5930 -2.7608  2.0325
   90MOL0     H12395  11.704  -0.193   6.759 -1.3830 -0.4766 -1.5310
   90MOL0     H12396  11.674   0.039   6.890 -0.6765 -0.4051 -1.5792
   90MOL0     H12397  11.808   0.102   6.797 -0.6705  0.6988 -0.9191
   90MOL0     H12398  11.820  -0.165   6.952 -0.6165  0.1029 -3.1387
   90MOL0     H12399  11.861  -0.010   7.033 -0.3477  0.1686 -0.0150
   90MOL0     H12400  11.002  -0.127   6.531 -6.6425 -0.6942  0.4946
   90MOL0     H12401  10.844  -0.277   6.402 -1.2529 -1.9514 -3.3769
   90MOL0     H12402  10.850  -0.363   5.919 -0.4769  2.3528 -0.6475
   90MOL0     H12403  10.747  -0.506   5.718  0.8812  1.6620 -0.3644
   90MOL0     H12404   8.991   0.094   4.835 -0.7931 -1.1292  1.6483
   90MOL0     H12405   8.817   0.248   4.792  1.6486 -1.5268 -2.0051
   90MOL0     H12406   8.540   0.680   5.174  0.5650  2.8183  1.4412
   90MOL0     H12407   8.361   0.824   5.103 -1.2165 -4.1903  1.2320
   90MOL0     H12408   8.435   1.041   4.776 -2.1244  2.2593  2.5513
   90MOL0     H12409   8.334   0.949   4.658 -2.4959  0.2543 -0.2304
   90MOL0     H12410   8.149   1.038   4.681  0.7990 -1.7430  0.4213
   90MOL0     H12411   8.276   1.163   4.660  3.5018 -1.2864  1.4737
   90MOL0     H12412   8.152   1.093   4.932 -0.3647 -0.6221  0.0739
   90MOL0     H12413   8.212   1.257   4.875 -0.1488 -0.6825  4.3937
   90MOL0     H12414   7.959   1.238   4.902 -3.8865  0.6110 -1.5007
   90MOL0     H12415   7.957   1.123   4.769  0.8555 -0.1068 -1.3255
   90MOL0     H12416   8.022   1.493   4.570  1.0921  1.0625  0.1569
   90MOL0     H12417   8.483   0.787   4.690  1.1801  2.4669  0.5854
   90MOL0     H12418   8.780   0.623   4.719 -0.6381 -0.2690  1.4985
   90MOL0     H12419   8.630   0.526   4.700 -2.0763  0.7899  0.8620
   90MOL0     H12420   8.657   0.689   4.622 -0.7169  1.8535  0.6683
   91MOL0     O12421   8.348   8.703   3.189  0.2011 -0.0494  0.3815
   91MOL0     C12422   8.385   8.638   3.084 -0.0681 -0.9724 -0.6032
   91MOL0     O12423   8.481   8.680   2.998  0.1062  0.0297  0.1646
   91MOL0     C12424   8.523   8.809   3.018  0.2530 -0.7459  0.5152
   91MOL0     C12425   8.648   8.847   3.081 -0.6217 -0.5880  0.4012
   91MOL0     C12426   8.689   8.981   3.098  0.2429 -0.2109 -0.1186
   91MOL0     C12427   8.607   9.089   3.063 -0.0083  0.1334  0.4203
   91MOL0     O12428   8.641   9.222   3.097  0.4228 -0.0653 -0.3174
   91MOL0     C12429   8.542   9.307   3.158 -0.6783  1.3269 -0.0737
   91MOL0     C12430   8.611   9.431   3.212 -0.4933 -0.0301 -0.3483
   91MOL0     C12431   8.674   9.413   3.351  0.3630  0.3751 -0.1229
   91MOL0     C12432   8.807   9.324   3.359  0.7105  0.1707  0.4911
   91MOL0     C12433   8.925   9.368   3.275  0.1632 -0.8052  0.3694
   91MOL0     C12434   8.955   9.510   3.294 -0.3930  0.3092 -0.1936
   91MOL0     C12435   9.094   9.558   3.236  0.7196 -0.3703  0.5111
   91MOL0     C12436   9.217   9.509   3.310  0.1275  0.4418  0.7448
   91MOL0     N12437   9.333   9.579   3.244  0.1343  0.3331 -0.1039
   91MOL0     C12438   9.416   9.687   3.291  0.0395 -0.1180  0.7712
   91MOL0     C12439   9.493   9.724   3.179  0.1029 -0.8863  0.9864
   91MOL0     C12440   9.601   9.825   3.166 -1.4223 -0.0551 -0.1951
   91MOL0     C12441   9.737   9.772   3.207  0.4570 -0.3458 -0.4208
   91MOL0     C12442   9.847   9.888   3.192 -0.0461 -0.3683  0.8954
   91MOL0     C12443   9.883   9.922   3.050  1.0439 -0.1560  0.1115
   91MOL0     O12444  10.005  10.000   3.058  0.0220  0.6582  0.8243
   91MOL0     C12445  10.087  10.000   2.945 -0.1275  0.6902  0.0739
   91MOL0     C12446  10.050   9.948   2.817  0.1605  0.3321 -0.6320
   91MOL0     C12447  10.142   9.948   2.714 -0.0110  0.1959  0.1655
   91MOL0     C12448  10.088   9.882   2.584  1.1107 -1.2835 -0.2186
   91MOL0     C12449  10.270  10.002   2.730  0.0188 -0.3648 -0.3297
   91MOL0     C12450  10.372  10.008   2.624  0.1784 -0.6061  0.8030
   91MOL0     O12451  10.466  10.115   2.618  0.5870 -0.1608 -0.0143
   91MOL0     C12452  10.547  10.138   2.505  0.4424 -0.8974  0.4328
   91MOL0     C12453  10.685  10.143   2.518 -0.8459 -0.7748  0.2307
   91MOL0     C12454  10.766  10.187   2.416 -0.2084 -0.2292 -0.3613
   91MOL0     C12455  10.719  10.216   2.292  0.1948 -0.6249  0.5834
   91MOL0     O12456  10.785  10.267   2.184  0.1402  0.0908 -0.2950
   91MOL0     C12457  10.906  10.335   2.188 -0.5631 -0.0288  0.9615
   91MOL0     C12458  11.030  10.236   2.158  0.5115  0.1431 -0.4738
   91MOL0     C12459  11.175  10.285   2.162  0.4222 -0.9439  0.5127
   91MOL0     C12460  11.212  10.402   2.070  0.1752 -0.2752  0.0273
   91MOL0     C12461  11.374  10.418   2.058  0.1699 -0.6587  0.5080
   91MOL0     C12462  11.455  10.409   2.187 -0.4226  0.0883 -0.6217
   91MOL0     C12463  11.591  10.474   2.190 -1.0018 -0.0200  0.0962
   91MOL0     C12464  11.599  10.623   2.205  0.0878  0.6719 -0.7736
   91MOL0    Cl12465  11.580  10.706   2.050  0.1106  0.5276 -0.0076
   91MOL0     C12466  10.584  10.200   2.275  0.5995  0.2339 -0.3332
   91MOL0     C12467  10.501  10.169   2.380 -0.5784  1.0707 -0.6973
   91MOL0     O12468  10.362   9.924   2.536 -0.7592 -0.0473  0.6625
   91MOL0     C12469  10.299  10.056   2.857 -0.3102 -0.2373  0.3367
   91MOL0     C12470  10.212  10.056   2.959  0.0485  0.0551 -0.2532
   91MOL0     N12471   9.450   9.641   3.074  1.2957 -0.0962 -0.4027
   91MOL0     N12472   9.360   9.554   3.114 -0.6845 -0.5875  0.3376
   91MOL0     C12473   8.490   9.055   2.994  0.2179 -0.2019 -0.1462
   91MOL0     C12474   8.452   8.922   2.972  0.4123  0.4956  0.4378
   91MOL0     C12475   8.350   8.499   3.080  0.2753  0.3165  0.2255
   91MOL0     C12476   8.354   8.407   3.186 -0.8651  0.0193 -0.5038
   91MOL0     C12477   8.334   8.277   3.173  0.0560 -0.0708 -0.0987
   91MOL0     C12478   8.285   8.223   3.059 -0.1563  0.2430  0.4615
   91MOL0     O12479   8.245   8.094   3.062  0.1165  0.1066  0.2939
   91MOL0     C12480   8.256   8.012   2.938 -0.3873 -0.4435  0.8006
   91MOL0     C12481   8.274   7.878   2.996  0.9314  0.2105 -0.1305
   91MOL0     C12482   8.411   7.858   3.078 -0.1402  0.6736  0.5173
   91MOL0     C12483   8.438   7.722   3.113  0.5081  0.2633 -0.3054
   91MOL0     C12484   8.333   7.681   3.214 -0.2870 -0.2549  0.6062
   91MOL0     C12485   8.245   7.644   3.286  0.0607 -0.5524 -0.6343
   91MOL0     C12486   8.269   8.304   2.949 -0.6802 -0.0709  0.2066
   91MOL0     C12487   8.306   8.443   2.956  0.0687 -0.1254  0.0317
   91MOL0     C12488   8.296   8.519   2.826  0.1558 -0.0929 -0.0107
   91MOL0     H12489   8.716   8.767   3.108  1.9694  1.5632  0.6376
   91MOL0     H12490   8.789   8.993   3.137  0.2486  0.0366 -0.2054
   91MOL0     H12491   8.488   9.258   3.239  1.0354  2.4602  1.8370
   91MOL0     H12492   8.464   9.338   3.087 -1.1568  0.5374  0.0964
   91MOL0     H12493   8.688   9.458   3.139  0.1511 -0.5883  0.1125
   91MOL0     H12494   8.538   9.510   3.229 -2.3157 -2.2805  3.5984
   91MOL0     H12495   8.697   9.512   3.391 -4.1871  1.6007 -0.0415
   91MOL0     H12496   8.601   9.376   3.424  0.0663  1.8053  0.3312
   91MOL0     H12497   8.828   9.324   3.467  0.7674  1.9256  0.5087
   91MOL0     H12498   8.794   9.220   3.327  1.5979 -0.2404  1.4212
   91MOL0     H12499   8.895   9.344   3.172 -0.1023  1.9256 -0.2535
   91MOL0     H12500   9.020   9.321   3.301  1.6141  2.6506  1.9570
   91MOL0     H12501   8.885   9.574   3.240 -0.3721 -0.6407 -1.3811
   91MOL0     H12502   8.948   9.536   3.400 -0.7573  1.7021 -0.5427
   91MOL0     H12503   9.096   9.667   3.223 -1.7514 -0.3357 -0.0323
   91MOL0     H12504   9.093   9.516   3.135  0.3080  1.4724 -0.2825
   91MOL0     H12505   9.205   9.539   3.415  1.3570 -2.9817  1.9869
   91MOL0     H12506   9.227   9.401   3.300  0.1106  0.5126 -0.0880
   91MOL0     H12507   9.436   9.726   3.391  2.2921  0.1926  0.2499
   91MOL0     H12508   9.577   9.919   3.218 -1.8410  0.5485 -1.4371
   91MOL0     H12509   9.602   9.865   3.064 -0.3770  3.0812  0.9121
   91MOL0     H12510   9.733   9.749   3.313  2.2386  0.7401 -0.0789
   91MOL0     H12511   9.760   9.681   3.151 -2.4104 -0.1416 -2.1228
   91MOL0     H12512   9.820   9.980   3.244  2.2192  0.8372  0.0576
   91MOL0     H12513   9.936   9.856   3.247  0.0167  0.1660  1.1022
   91MOL0     H12514   9.902   9.824   3.003  1.2013  1.1176 -2.7346
   91MOL0     H12515   9.809   9.973   2.988 -0.5423 -3.9619 -1.4380
   91MOL0     H12516   9.962   9.890   2.792  0.3739 -0.7781  1.0214
   91MOL0     H12517  10.147   9.792   2.564  1.2188 -1.4509  0.7702
   91MOL0     H12518  10.109   9.954   2.504  1.6260 -0.7762  0.3573
   91MOL0     H12519   9.983   9.852   2.582  0.7566 -0.0635 -0.9296
   91MOL0     H12520  10.732  10.115   2.612 -0.0398 -2.6156 -0.6700
   91MOL0     H12521  10.874  10.185   2.430 -0.0004  3.7627 -0.2406
   91MOL0     H12522  10.901  10.410   2.109 -0.0793 -1.0027 -0.0200
   91MOL0     H12523  10.913  10.391   2.281 -0.6536 -2.8030  2.7676
   91MOL0     H12524  11.019  10.161   2.237  0.8104  0.7929  0.2018
   91MOL0     H12525  11.016  10.190   2.060 -0.1330 -0.3746 -0.1416
   91MOL0     H12526  11.250  10.211   2.135  2.8997  0.8325  2.0496
   91MOL0     H12527  11.201  10.321   2.262 -1.4073 -0.4923  0.8607
   91MOL0     H12528  11.162  10.493   2.104 -0.2067 -0.7947  0.8871
   91MOL0     H12529  11.170  10.391   1.970  1.5345 -1.6507 -0.4333
   91MOL0     H12530  11.406  10.346   1.983 -1.9806 -0.4662 -0.6650
   91MOL0     H12531  11.393  10.516   2.014 -0.0234 -1.1487 -0.7117
   91MOL0     H12532  11.474  10.304   2.212  0.1391  0.3223 -0.0289
   91MOL0     H12533  11.402  10.451   2.273  3.0044 -2.2416  3.0125
   91MOL0     H12534  11.645  10.457   2.097 -0.9566  0.6980 -0.0195
   91MOL0     H12535  11.648  10.430   2.272  0.1741  1.5606  0.1781
   91MOL0     H12536  11.698  10.643   2.246 -0.0725 -1.3341  0.7309
   91MOL0     H12537  11.528  10.651   2.283 -0.8397 -2.4627 -0.3436
   91MOL0     H12538  10.546  10.229   2.178 -0.2790 -3.0302 -1.0899
   91MOL0     H12539  10.393  10.172   2.364 -0.6164  1.4226 -0.3935
   91MOL0     H12540  10.400  10.081   2.887 -1.2051  0.2965  3.2089
   91MOL0     H12541  10.247  10.109   3.047 -0.7880  0.4807 -0.1666
   91MOL0     H12542   8.429   9.140   2.965 -0.6216 -0.8214 -0.2252
   91MOL0     H12543   8.360   8.892   2.923  1.1724 -0.6354 -0.3407
   91MOL0     H12544   8.384   8.452   3.280 -0.3062  2.9800 -1.9727
   91MOL0     H12545   8.352   8.211   3.258 -3.5764 -1.1150  0.0421
   91MOL0     H12546   8.172   8.021   2.868 -0.0950  2.6566  0.6893
   91MOL0     H12547   8.345   8.042   2.883  0.4296 -2.7301  0.7916
   91MOL0     H12548   8.279   7.812   2.909 -1.6774 -0.8638  0.4215
   91MOL0     H12549   8.187   7.841   3.051  0.5650 -3.0624 -2.6344
   91MOL0     H12550   8.494   7.896   3.017 -1.7760  0.5536 -1.9269
   91MOL0     H12551   8.416   7.914   3.172  3.2286 -1.2547  1.6622
   91MOL0     H12552   8.532   7.720   3.168  1.1982 -0.9299 -1.4734
   91MOL0     H12553   8.450   7.657   3.026 -0.4988 -0.5356  0.1350
   91MOL0     H12554   8.157   7.631   3.347  0.1402 -0.1014 -0.4213
   91MOL0     H12555   8.224   8.276   2.854 -2.0324  0.5874  0.6166
   91MOL0     H12556   8.388   8.513   2.767  0.1649  0.7900 -0.1005
   91MOL0     H12557   8.216   8.476   2.766 -0.9079  0.0444  1.2587
   91MOL0     H12558   8.270   8.623   2.850 -3.8153 -0.8183 -0.4492
   92MOL0     O12559   0.065  10.754   3.012  0.1137  0.2804 -0.0103
   92MOL0     C12560  -0.039  10.746   3.076  0.1748 -0.3884  0.2906
   92MOL0     O12561  -0.057  10.671   3.190 -0.3713 -0.3434 -0.4076
   92MOL0     C12562   0.037  10.579   3.219  0.1873 -0.5575  0.1457
   92MOL0     C12563   0.019  10.446   3.195 -0.2024  0.9993 -0.0884
   92MOL0     C12564   0.115  10.354   3.245  0.0379  0.2439  0.1312
   92MOL0     C12565   0.234  10.399   3.307 -0.5814 -0.3165 -0.6552
   92MOL0     O12566   0.337  10.319   3.345 -0.0056 -0.3948  0.0071
   92MOL0     C12567   0.352  10.200   3.269  0.0983  0.4623 -1.0315
   92MOL0     C12568   0.294  10.081   3.354 -0.7791  0.5054  0.8361
   92MOL0     C12569   0.274   9.963   3.255 -0.1426 -0.1380  0.1465
   92MOL0     C12570   0.211   9.840   3.328 -0.1010 -0.5661  0.1827
   92MOL0     C12571   0.306   9.766   3.430 -0.3737 -0.1611 -0.9809
   92MOL0     C12572   0.447   9.732   3.383 -0.5908  0.1902 -0.5670
   92MOL0     C12573   0.516   9.623   3.474  0.3179 -0.3247  0.5413
   92MOL0     C12574   0.652   9.591   3.427 -0.9813 -0.4236 -0.5283
   92MOL0     N12575   0.703   9.482   3.503  0.4763 -0.2778  0.5322
   92MOL0     C12576   0.789   9.496   3.607  0.4689  0.3623  1.1630
   92MOL0     C12577   0.827   9.377   3.636  0.0649 -0.2346 -0.0429
   92MOL0     C12578   0.926   9.340   3.736 -0.0463 -0.4319 -0.2777
   92MOL0     C12579   1.071   9.388   3.713  0.0045  0.2140 -0.3550
   92MOL0     C12580   1.156   9.387   3.846 -1.0733  0.3220  0.0519
   92MOL0     C12581   1.306   9.396   3.816 -0.0341 -0.2368  0.5663
   92MOL0     O12582   1.378   9.443   3.929 -0.4048 -0.0835 -0.1241
   92MOL0     C12583   1.517   9.431   3.930  0.1816  0.8672 -0.4899
   92MOL0     C12584   1.600   9.372   3.834 -0.5972  0.3211 -0.3610
   92MOL0     C12585   1.736   9.354   3.863 -1.2277  0.1731  1.5625
   92MOL0     C12586   1.813   9.270   3.771 -0.1522  0.3490  0.9053
   92MOL0     C12587   1.799   9.408   3.974  0.2326  0.1389 -0.2643
   92MOL0     C12588   1.947   9.403   4.007  1.1828 -0.3912 -0.4105
   92MOL0     O12589   1.986   9.483   4.111 -0.0025 -0.4019  0.1258
   92MOL0     C12590   2.120   9.473   4.153 -0.2634 -0.3520  0.3077
   92MOL0     C12591   2.159   9.378   4.241  1.2872 -0.3607 -0.5002
   92MOL0     C12592   2.291   9.367   4.284  0.4568 -0.0963 -1.0132
   92MOL0     C12593   2.382   9.460   4.241  0.0756  0.1957  0.1099
   92MOL0     O12594   2.502   9.449   4.304 -0.1559 -0.0230  0.2815
   92MOL0     C12595   2.605   9.549   4.273 -0.7786 -0.4355 -0.1440
   92MOL0     C12596   2.714   9.540   4.384  0.5756 -0.0336  0.0176
   92MOL0     C12597   2.793   9.409   4.363 -0.2707  0.4676  0.0575
   92MOL0     C12598   2.886   9.407   4.481  0.2886  0.3850 -0.1266
   92MOL0     C12599   2.968   9.281   4.475  0.1757  0.7150  0.1379
   92MOL0     C12600   3.066   9.259   4.585 -0.0157  0.6407  0.0384
   92MOL0     C12601   3.168   9.368   4.594  0.7597 -0.2346 -0.0674
   92MOL0     C12602   3.255   9.371   4.718 -0.3157  0.3128 -0.0343
   92MOL0    Cl12603   3.303   9.205   4.770  0.1760 -0.0124  0.1790
   92MOL0     C12604   2.340   9.564   4.155 -0.6471  1.0072  0.5940
   92MOL0     C12605   2.215   9.576   4.116 -0.7707  0.7488  0.7612
   92MOL0     O12606   2.026   9.337   3.943  0.2174  0.6225  0.4858
   92MOL0     C12607   1.714   9.478   4.062 -0.2080 -0.0197 -0.0879
   92MOL0     C12608   1.579   9.485   4.041  1.0694  0.4496  0.1161
   92MOL0     N12609   0.769   9.287   3.542  1.2094  0.1147 -0.5079
   92MOL0     N12610   0.692   9.352   3.463  0.3002 -0.2654 -0.3481
   92MOL0     C12611   0.242  10.534   3.323 -0.4548  1.2641 -1.0821
   92MOL0     C12612   0.153  10.625   3.272  0.2484  0.1027 -0.6382
   92MOL0     C12613  -0.158  10.828   3.036  0.5263 -0.2732 -0.2586
   92MOL0     C12614  -0.288  10.766   3.039 -0.1005  0.0453 -0.0925
   92MOL0     C12615  -0.409  10.837   3.004 -0.5487  0.6408 -1.0771
   92MOL0     C12616  -0.398  10.967   2.967 -0.3548 -0.4070  0.2603
   92MOL0     O12617  -0.514  11.034   2.926  0.1281  0.5649 -0.3839
   92MOL0     C12618  -0.514  11.140   2.823  0.7486 -0.5882  0.0939
   92MOL0     C12619  -0.553  11.280   2.880  0.3012  0.6090  0.3941
   92MOL0     C12620  -0.567  11.371   2.755 -0.4702  0.2376  0.8563
   92MOL0     C12621  -0.589  11.516   2.797  0.1860 -0.3223  0.6035
   92MOL0     C12622  -0.727  11.536   2.843 -0.5902  0.3005 -0.5757
   92MOL0     C12623  -0.833  11.561   2.891  0.0287 -0.2320  0.1771
   92MOL0     C12624  -0.278  11.027   2.951 -0.3897 -0.0634  0.4492
   92MOL0     C12625  -0.159  10.962   2.996  0.5875  0.1818 -0.2830
   92MOL0     C12626  -0.032  11.030   2.978 -1.1719  0.7359  0.4824
   92MOL0     H12627  -0.066  10.421   3.132  0.7101 -0.4937 -0.7908
   92MOL0     H12628   0.110  10.248   3.225  3.3281  0.3241 -2.0032
   92MOL0     H12629   0.460  10.187   3.267  0.1892  0.2112  1.7854
   92MOL0     H12630   0.312  10.199   3.167 -4.4520  1.8390  0.4597
   92MOL0     H12631   0.369  10.060   3.431  0.6350  0.4114 -0.5075
   92MOL0     H12632   0.204  10.123   3.400 -0.1812  1.8595  0.8078
   92MOL0     H12633   0.211   9.992   3.170  0.2684 -1.2311 -0.5571
   92MOL0     H12634   0.372   9.932   3.218 -0.3369 -1.9507  1.0188
   92MOL0     H12635   0.112   9.870   3.364 -0.4651  0.1076 -1.2967
   92MOL0     H12636   0.193   9.765   3.251 -2.2171  0.6269 -0.5553
   92MOL0     H12637   0.247   9.676   3.450  0.6563 -0.3609  1.4798
   92MOL0     H12638   0.321   9.822   3.523  0.1999 -3.9576  1.4438
   92MOL0     H12639   0.446   9.697   3.279  0.2544 -2.8181  0.3198
   92MOL0     H12640   0.516   9.817   3.387  1.9037 -1.6532  4.8191
   92MOL0     H12641   0.453   9.534   3.475  0.4446 -0.4487  2.5236
   92MOL0     H12642   0.525   9.651   3.580  2.0662 -0.4490  0.4574
   92MOL0     H12643   0.645   9.570   3.320 -2.3289  0.5706 -0.6585
   92MOL0     H12644   0.721   9.673   3.449 -0.7600 -0.8509  0.4219
   92MOL0     H12645   0.819   9.593   3.645  0.4539 -0.4235  3.3269
   92MOL0     H12646   0.921   9.231   3.748 -1.5753 -0.5469 -1.5616
   92MOL0     H12647   0.902   9.391   3.829  2.6727  1.0161 -0.2611
   92MOL0     H12648   1.125   9.327   3.640 -1.8757 -1.1623 -0.6776
   92MOL0     H12649   1.081   9.490   3.676  4.0002  0.1085  0.0198
   92MOL0     H12650   1.123   9.468   3.911  0.4639  1.7367 -0.8640
   92MOL0     H12651   1.145   9.291   3.897  2.2507 -0.7644 -1.0093
   92MOL0     H12652   1.340   9.298   3.781  0.8755  0.0499  0.6505
   92MOL0     H12653   1.323   9.462   3.731  0.7925  0.8580  1.5473
   92MOL0     H12654   1.565   9.321   3.745  0.4708 -0.2349 -0.4778
   92MOL0     H12655   1.750   9.245   3.685  0.7665 -0.5932  0.4802
   92MOL0     H12656   1.856   9.176   3.808  0.2361 -1.4005 -3.4148
   92MOL0     H12657   1.898   9.328   3.735  0.8463 -0.6573  1.5699
   92MOL0     H12658   2.080   9.321   4.289  0.3929  2.0409  1.1045
   92MOL0     H12659   2.310   9.289   4.358  0.2119  2.2476  1.7203
   92MOL0     H12660   2.657   9.532   4.178  1.4099 -1.3651  1.1200
   92MOL0     H12661   2.554   9.645   4.285 -1.5576 -1.1255  3.2341
   92MOL0     H12662   2.781   9.624   4.363 -2.0256  1.7168 -1.8962
   92MOL0     H12663   2.665   9.552   4.481  1.7218 -1.3207  0.8041
   92MOL0     H12664   2.837   9.424   4.264 -3.2016 -1.8522 -1.7666
   92MOL0     H12665   2.726   9.323   4.371 -2.5359  2.1936  0.8167
   92MOL0     H12666   2.824   9.415   4.571  1.9180 -3.2107  1.4703
   92MOL0     H12667   2.943   9.500   4.468 -0.4848  0.5370 -3.2185
   92MOL0     H12668   2.907   9.191   4.462 -0.1787  0.7453  1.3994
   92MOL0     H12669   3.011   9.291   4.375 -1.7894  3.8316 -0.5770
   92MOL0     H12670   3.104   9.158   4.569 -1.3005  0.2076 -0.4089
   92MOL0     H12671   3.009   9.264   4.678 -4.1844 -0.8353 -2.1751
   92MOL0     H12672   3.119   9.465   4.603 -0.1925 -0.8459  1.8352
   92MOL0     H12673   3.228   9.376   4.502 -0.9464  3.6913 -1.0255
   92MOL0     H12674   3.191   9.410   4.798 -0.2005  2.3445 -0.8835
   92MOL0     H12675   3.348   9.426   4.705  1.4343 -2.6522 -0.9610
   92MOL0     H12676   2.408   9.642   4.122  1.8454 -0.4295  2.0327
   92MOL0     H12677   2.180   9.651   4.046 -1.4526  1.0533  1.4098
   92MOL0     H12678   1.750   9.533   4.148 -3.1137  0.8176  0.7041
   92MOL0     H12679   1.516   9.536   4.114 -0.9581 -0.6401 -0.7832
   92MOL0     H12680   0.328  10.576   3.374  0.3352 -0.1196 -1.2131
   92MOL0     H12681   0.171  10.729   3.299  1.8757 -0.7790  2.0964
   92MOL0     H12682  -0.304  10.663   3.071 -1.3053  0.4288  0.5985
   92MOL0     H12683  -0.505  10.798   3.039 -0.4055  0.4241 -0.9249
   92MOL0     H12684  -0.416  11.147   2.775  0.4378 -0.1566 -0.4873
   92MOL0     H12685  -0.592  11.114   2.751  0.5266  0.0494  0.0940
   92MOL0     H12686  -0.463  11.310   2.935  1.9479 -2.0420 -0.6506
   92MOL0     H12687  -0.644  11.277   2.941 -0.4317  2.4181 -0.5251
   92MOL0     H12688  -0.474  11.377   2.699 -1.6215 -2.4804 -1.6283
   92MOL0     H12689  -0.645  11.340   2.684 -1.5877  1.0426  1.6868
   92MOL0     H12690  -0.572  11.581   2.710 -1.0667  1.7719  1.8305
   92MOL0     H12691  -0.518  11.548   2.874 -1.3174 -1.0097  2.3421
   92MOL0     H12692  -0.933  11.569   2.929  0.2270 -1.2710  0.9281
   92MOL0     H12693  -0.281  11.127   2.909 -3.0650 -1.5399 -3.5403
   92MOL0     H12694  -0.038  11.134   2.946  1.6115  0.4679 -1.1933
   92MOL0     H12695   0.025  11.031   3.072 -1.5533 -1.3837  0.7943
   92MOL0     H12696   0.023  10.977   2.901  0.8419  0.4037  2.0564
   93MOL0     O12697   9.796   1.091   9.507 -0.4233  0.0382  0.6177
   93MOL0     C12698   9.734   0.983   9.486 -0.0029  0.2876 -1.6740
   93MOL0     O12699   9.789   0.864   9.446 -0.1353  0.2055 -0.4354
   93MOL0     C12700   9.929   0.859   9.435 -0.5088 -0.0649 -0.0707
   93MOL0     C12701   9.995   0.864   9.314 -0.1900  0.4781 -0.0145
   93MOL0     C12702  10.134   0.864   9.305 -0.1536  0.0829  0.5950
   93MOL0     C12703  10.213   0.861   9.421  1.1397 -0.4554 -0.3090
   93MOL0     O12704  10.348   0.877   9.420 -0.7099 -0.4920  0.6155
   93MOL0     C12705  10.389   0.985   9.337  0.1718 -1.1250 -0.1090
   93MOL0     C12706  10.534   1.012   9.372  0.7366  1.1705  0.8754
   93MOL0     C12707  10.635   0.891   9.345  0.3741  0.0796  0.9117
   93MOL0     C12708  10.668   0.815   9.472  0.4331  0.6502 -0.2423
   93MOL0     C12709  10.821   0.802   9.489  0.6351 -0.0398 -0.6422
   93MOL0     C12710  10.903   0.748   9.375  0.1954  0.3748  0.6940
   93MOL0     C12711  11.054   0.753   9.412  0.2733  0.8364 -0.4543
   93MOL0     C12712  11.130   0.629   9.365  0.3205 -0.0386 -0.7272
   93MOL0     N12713  11.251   0.601   9.439  0.3256 -0.7918 -0.1611
   93MOL0     C12714  11.257   0.578   9.572 -0.5755 -0.1040 -0.3181
   93MOL0     C12715  11.376   0.541   9.597  0.2993  0.5862 -0.3625
   93MOL0     C12716  11.436   0.520   9.734 -0.8863 -0.9124 -0.8516
   93MOL0     C12717  11.582   0.583   9.747 -0.2825  0.1051 -0.3977
   93MOL0     C12718  11.628   0.613   9.900 -0.5320  0.2721  0.6924
   93MOL0     C12719  11.622   0.487   9.989  0.1187 -0.2512 -0.0308
   93MOL0     O12720  11.700   0.380   9.937 -0.0730  0.0657  0.3548
   93MOL0     C12721  11.837   0.396   9.948 -0.2072 -0.1415  0.5966
   93MOL0     C12722  11.904   0.468   9.852 -0.1358  0.6847  0.6902
   93MOL0     C12723  12.043   0.460   9.850 -0.5492  0.1025  1.0906
   93MOL0     C12724  12.116   0.547   9.745  0.4616 -0.3710 -0.5052
   93MOL0     C12725  12.121   0.393   9.944  0.7859 -0.3458 -0.0829
   93MOL0     C12726  12.266   0.406   9.951  0.2127  0.7134 -0.6318
   93MOL0     O12727  12.317   0.422  10.075  0.4643  0.4825 -0.7122
   93MOL0     C12728  12.436   0.482  10.087 -0.5863 -0.3011  0.5464
   93MOL0     C12729  12.542   0.423  10.147 -0.0070 -0.3358  0.1197
   93MOL0     C12730  12.656   0.494  10.180  0.7491  0.1767 -0.0465
   93MOL0     C12731  12.670   0.625  10.125  0.1115 -0.5091  0.2217
   93MOL0     O12732  12.790   0.697  10.138  0.6870 -0.6980  0.0328
   93MOL0     C12733  12.911   0.620  10.142  0.6801 -0.0260 -0.3677
   93MOL0     C12734  13.036   0.704  10.129 -0.5599 -0.9367  0.2288
   93MOL0     C12735  13.167   0.624  10.164  0.1380  0.5339 -0.1752
   93MOL0     C12736  13.284   0.708  10.198 -0.8217  0.0380  0.3049
   93MOL0     C12737  13.409   0.627  10.231 -0.3311  0.7258 -0.3209
   93MOL0     C12738  13.536   0.704  10.234 -0.5087 -0.0708  0.4605
   93MOL0     C12739  13.661   0.621  10.276  0.8927 -0.2944  0.7460
   93MOL0     C12740  13.769   0.720  10.315  0.0058  0.2234  0.7317
   93MOL0    Cl12741  13.802   0.853  10.186 -0.0052  0.0697 -0.0297
   93MOL0     C12742  12.572   0.685  10.058  0.3115  0.0350 -0.3758
   93MOL0     C12743  12.454   0.615  10.042  0.0638  0.3653 -1.6404
   93MOL0     O12744  12.328   0.396   9.846  0.0423 -0.0268  0.6098
   93MOL0     C12745  12.048   0.334  10.053 -0.3855 -0.1917  0.2203
   93MOL0     C12746  11.907   0.331  10.051 -0.5790  0.4554 -0.1663
   93MOL0     N12747  11.440   0.516   9.476 -0.3064 -0.0744  0.2362
   93MOL0     N12748  11.367   0.558   9.381  0.1949 -0.7928  0.2092
   93MOL0     C12749  10.143   0.845   9.544 -0.8042 -0.0482 -0.4483
   93MOL0     C12750  10.007   0.844   9.549  0.9765 -1.0923  0.7877
   93MOL0     C12751   9.590   0.988   9.501 -0.2244 -0.7847  0.3067
   93MOL0     C12752   9.528   1.118   9.494  0.4512  0.0867  0.0934
   93MOL0     C12753   9.391   1.135   9.493 -0.0034  0.2757  0.1048
   93MOL0     C12754   9.311   1.025   9.510 -0.7762  0.0424  0.0129
   93MOL0     O12755   9.174   1.033   9.490  0.2240  0.3215 -0.2901
   93MOL0     C12756   9.109   1.148   9.452  0.1477  0.0259  0.2569
   93MOL0     C12757   9.146   1.182   9.305  0.7200 -0.6180  0.0836
   93MOL0     C12758   9.030   1.248   9.232 -0.7559  0.1934  0.0673
   93MOL0     C12759   9.078   1.293   9.096  0.3587  0.6584 -0.0269
   93MOL0     C12760   9.051   1.181   8.999  0.7349 -0.1901  0.4306
   93MOL0     C12761   9.027   1.087   8.936 -0.1824  0.3933 -0.2426
   93MOL0     C12762   9.368   0.904   9.528  0.1979  0.2860  1.4648
   93MOL0     C12763   9.504   0.880   9.520  0.7988  1.7398 -0.8078
   93MOL0     C12764   9.533   0.736   9.540  0.3018  0.8978 -0.0729
   93MOL0     H12765   9.934   0.862   9.224  1.4948 -1.7754 -1.2010
   93MOL0     H12766  10.196   0.875   9.217  0.4092  0.2981  1.0155
   93MOL0     H12767  10.331   1.078   9.346  1.9230  0.1433 -1.1775
   93MOL0     H12768  10.380   0.958   9.232 -1.5193 -0.5441 -0.1405
   93MOL0     H12769  10.571   1.095   9.311  0.7758 -0.6491 -1.7264
   93MOL0     H12770  10.542   1.049   9.474  0.2286 -0.6176  1.5997
   93MOL0     H12771  10.597   0.812   9.279  0.5716  0.5393  0.2292
   93MOL0     H12772  10.722   0.940   9.301 -0.7105  0.0083 -1.5181
   93MOL0     H12773  10.610   0.853   9.556  0.7993  2.9651 -0.9626
   93MOL0     H12774  10.631   0.712   9.476 -1.4355  0.9902 -3.9803
   93MOL0     H12775  10.847   0.736   9.572  2.4353  1.3965 -0.0016
   93MOL0     H12776  10.857   0.904   9.506  2.0124 -0.5502 -0.4042
   93MOL0     H12777  10.860   0.650   9.352 -0.9707  0.1153  3.5036
   93MOL0     H12778  10.878   0.813   9.290 -0.7826 -1.7705 -0.7495
   93MOL0     H12779  11.069   0.764   9.520  0.0322  1.7688 -0.5066
   93MOL0     H12780  11.100   0.844   9.372 -0.5177  1.2775 -0.3897
   93MOL0     H12781  11.059   0.546   9.375  1.1221 -0.5230  1.5112
   93MOL0     H12782  11.162   0.635   9.261  2.6322  0.4267 -0.0398
   93MOL0     H12783  11.187   0.611   9.648  1.2052  1.4748  0.7328
   93MOL0     H12784  11.446   0.416   9.765 -2.0874 -1.1500 -1.1827
   93MOL0     H12785  11.370   0.560   9.812  0.3179  0.4668 -0.4965
   93MOL0     H12786  11.644   0.502   9.705  1.3583  0.9828  0.2284
   93MOL0     H12787  11.610   0.665   9.681  1.2418  2.6554  3.0658
   93MOL0     H12788  11.731   0.648   9.889 -0.2099 -0.7343  0.4154
   93MOL0     H12789  11.577   0.705   9.930 -0.6001  0.6742 -0.5652
   93MOL0     H12790  11.649   0.509  10.093 -1.0381  0.1882  0.1840
   93MOL0     H12791  11.523   0.442   9.997  0.6195 -1.3081  0.5847
   93MOL0     H12792  11.861   0.508   9.761  0.4056 -0.8175 -0.2480
   93MOL0     H12793  12.145   0.480   9.663  3.5770  0.7390 -0.4165
   93MOL0     H12794  12.207   0.590   9.787 -0.7955  0.5078  1.4655
   93MOL0     H12795  12.067   0.639   9.712  1.8082  0.6178  0.1646
   93MOL0     H12796  12.531   0.319  10.176  1.2995 -0.7017 -0.6100
   93MOL0     H12797  12.733   0.440  10.234  0.9630  1.7642  1.3242
   93MOL0     H12798  12.917   0.569  10.239  1.4763  1.9085  0.6636
   93MOL0     H12799  12.910   0.539  10.069 -2.3617 -0.6157  0.2221
   93MOL0     H12800  13.028   0.732  10.023 -0.8724  0.7699  0.6723
   93MOL0     H12801  13.032   0.794  10.191 -0.8708 -0.6918 -0.1344
   93MOL0     H12802  13.189   0.550  10.085  1.6035  2.1575 -1.3587
   93MOL0     H12803  13.149   0.572  10.259  1.0602  0.1113 -0.2235
   93MOL0     H12804  13.259   0.770  10.285  0.4303 -2.7507  2.8163
   93MOL0     H12805  13.301   0.772  10.111 -1.9958 -0.7479 -0.5368
   93MOL0     H12806  13.395   0.582  10.330 -0.7825  1.9735  0.1959
   93MOL0     H12807  13.416   0.549  10.155  1.7691  1.4812 -0.9807
   93MOL0     H12808  13.523   0.784  10.308  0.9317 -1.2720  2.1154
   93MOL0     H12809  13.552   0.750  10.136 -0.0489  0.3535  0.7296
   93MOL0     H12810  13.689   0.557  10.192 -3.6583 -0.5913 -0.8314
   93MOL0     H12811  13.651   0.552  10.361  0.7368  1.3714  2.1410
   93MOL0     H12812  13.849   0.647  10.328 -1.4153 -2.4532 -3.6032
   93MOL0     H12813  13.747   0.774  10.408  0.8915 -0.2209  1.2069
   93MOL0     H12814  12.586   0.787  10.023  0.3693 -0.1595 -0.9356
   93MOL0     H12815  12.373   0.671   9.995  1.4361  1.2592 -3.0294
   93MOL0     H12816  12.097   0.294  10.141 -1.6859  0.6277  1.3500
   93MOL0     H12817  11.860   0.273  10.130 -1.4794  2.5447  0.8950
   93MOL0     H12818  10.201   0.823   9.632  1.0133  1.8865 -1.0798
   93MOL0     H12819   9.960   0.818   9.644  0.8395 -0.1928  0.9703
   93MOL0     H12820   9.578   1.210   9.465 -1.0320  1.5954  1.9765
   93MOL0     H12821   9.349   1.233   9.473 -2.3491 -0.3070  1.7677
   93MOL0     H12822   9.000   1.138   9.458  0.0168  1.4199  0.5792
   93MOL0     H12823   9.139   1.231   9.517  3.2790  0.3232 -1.3479
   93MOL0     H12824   9.157   1.089   9.249 -1.6787  0.7917 -3.0979
   93MOL0     H12825   9.237   1.242   9.306  1.4686 -1.6127 -2.1486
   93MOL0     H12826   8.946   1.178   9.231  1.4576 -2.7092  1.2633
   93MOL0     H12827   9.017   1.342   9.287  1.2377  0.4604  0.1704
   93MOL0     H12828   9.182   1.326   9.094  0.2092  1.4987  2.3812
   93MOL0     H12829   9.018   1.377   9.059 -1.1192 -0.4966 -0.3572
   93MOL0     H12830   9.011   0.995   8.884  4.0181 -0.1676 -0.9529
   93MOL0     H12831   9.301   0.821   9.546  0.9954 -0.5508  0.6867
   93MOL0     H12832   9.508   0.693   9.443 -0.4295  1.4110 -0.1237
   93MOL0     H12833   9.634   0.711   9.572  0.6051  1.1654 -0.8088
   93MOL0     H12834   9.459   0.688   9.606 -0.1714 -0.6464 -1.6718
   94MOL0     O12835   4.183   4.023   8.269  0.2947 -0.5025  0.5472
   94MOL0     C12836   4.112   3.924   8.276  0.9936 -0.2219 -0.2856
   94MOL0     O12837   4.134   3.811   8.352 -0.7730 -0.0756 -0.2421
   94MOL0     C12838   4.232   3.797   8.444  0.9067  0.3541 -0.2069
   94MOL0     C12839   4.340   3.881   8.475 -0.0692  0.1060 -0.2248
   94MOL0     C12840   4.424   3.840   8.578 -0.5239 -0.0447  1.2931
   94MOL0     C12841   4.399   3.729   8.660  0.1543  0.1079 -0.1605
   94MOL0     O12842   4.504   3.695   8.745  0.3283  0.2284  0.8093
   94MOL0     C12843   4.495   3.562   8.801 -0.1171  0.2827 -0.1699
   94MOL0     C12844   4.635   3.504   8.836 -0.2544  0.2365  0.1731
   94MOL0     C12845   4.626   3.367   8.914 -0.2768 -0.2307  0.3850
   94MOL0     C12846   4.765   3.324   8.956 -0.5474 -0.4692 -0.4579
   94MOL0     C12847   4.782   3.172   8.976 -0.3022  0.0740  0.3996
   94MOL0     C12848   4.925   3.134   9.016  0.5864 -0.0465 -0.1336
   94MOL0     C12849   5.040   3.190   8.939 -0.3150 -0.2581  0.1102
   94MOL0     C12850   5.021   3.189   8.781 -0.5235  0.4403  0.7060
   94MOL0     N12851   5.067   3.057   8.736  0.5158  0.7107  0.7734
   94MOL0     C12852   5.192   3.023   8.698  0.8380  0.8221  0.4752
   94MOL0     C12853   5.188   2.897   8.652 -0.1447  0.3160  0.4110
   94MOL0     C12854   5.306   2.818   8.579  0.2972 -0.5716  0.6720
   94MOL0     C12855   5.396   2.753   8.680 -0.9877 -0.1063 -0.0850
   94MOL0     C12856   5.515   2.674   8.612 -0.1962 -0.3880  0.1381
   94MOL0     C12857   5.632   2.767   8.566  0.3602 -0.0059  0.7995
   94MOL0     O12858   5.707   2.826   8.670  0.9658 -0.0944 -0.1381
   94MOL0     C12859   5.825   2.773   8.726  0.9135 -0.4294  0.0042
   94MOL0     C12860   5.892   2.843   8.826  0.5379 -0.3824  0.0653
   94MOL0     C12861   6.005   2.801   8.897 -0.1618 -0.0065 -0.5122
   94MOL0     C12862   6.071   2.889   9.004 -0.3128 -0.5677  0.6496
   94MOL0     C12863   6.049   2.672   8.867 -0.4579 -0.2746 -0.5025
   94MOL0     C12864   6.164   2.606   8.941  0.9097  0.0111 -1.0943
   94MOL0     O12865   6.163   2.473   8.916  0.2716  0.2716  0.0873
   94MOL0     C12866   6.278   2.408   8.950 -0.1653  0.2650  0.6031
   94MOL0     C12867   6.297   2.360   9.075  0.1352 -0.6122 -0.4788
   94MOL0     C12868   6.421   2.295   9.111  1.0527  0.4018 -0.1176
   94MOL0     C12869   6.514   2.264   9.019 -0.0331 -0.5578  0.0411
   94MOL0     O12870   6.627   2.198   9.048 -0.2064 -0.0609  0.0519
   94MOL0     C12871   6.758   2.246   9.007  0.1049 -0.2428  0.3222
   94MOL0     C12872   6.857   2.192   9.107 -0.3105  0.6091 -0.9918
   94MOL0     C12873   6.843   2.037   9.135  0.2236 -0.0743  0.8210
   94MOL0     C12874   6.887   1.962   9.014  0.8113  1.0167 -0.1573
   94MOL0     C12875   6.911   1.813   9.065  0.1674  0.3627  0.9809
   94MOL0     C12876   6.949   1.730   8.936 -0.5893 -0.2456  0.3999
   94MOL0     C12877   6.964   1.583   8.952  0.0595  0.0569  1.0408
   94MOL0     C12878   7.092   1.562   9.035  0.2298  0.0864  0.2488
   94MOL0    Cl12879   7.133   1.385   9.039 -0.6357 -0.2294  0.3348
   94MOL0     C12880   6.491   2.309   8.884  0.5193 -0.2716 -0.2675
   94MOL0     C12881   6.373   2.378   8.852 -0.5968  0.1170  0.1705
   94MOL0     O12882   6.246   2.662   9.009 -0.3618 -0.2205  0.5875
   94MOL0     C12883   5.988   2.593   8.760  0.1031  0.0068  0.4441
   94MOL0     C12884   5.878   2.650   8.692  0.8230  0.5821  0.2780
   94MOL0     N12885   5.056   2.853   8.656  0.1605  0.2122 -0.3070
   94MOL0     N12886   4.991   2.947   8.716  0.3535 -0.2299  0.3765
   94MOL0     C12887   4.281   3.657   8.639 -0.2602 -0.8395 -0.3261
   94MOL0     C12888   4.199   3.687   8.526  0.2807 -0.0743  0.0849
   94MOL0     C12889   3.989   3.906   8.188  0.0567  0.3535 -0.7699
   94MOL0     C12890   3.923   3.784   8.194  0.1541 -0.4816 -0.2112
   94MOL0     C12891   3.810   3.751   8.113  0.1046 -0.0468  0.5894
   94MOL0     C12892   3.764   3.846   8.032  0.0286  0.7446  0.0181
   94MOL0     O12893   3.647   3.828   7.960  0.3344  0.0227  0.0930
   94MOL0     C12894   3.588   3.708   7.940 -0.5597 -0.0235  0.1944
   94MOL0     C12895   3.665   3.630   7.822  0.4006  0.0474 -0.1064
   94MOL0     C12896   3.620   3.478   7.822 -0.4692 -0.1193 -0.4684
   94MOL0     C12897   3.666   3.406   7.691 -0.2896  0.6420  0.6436
   94MOL0     C12898   3.811   3.391   7.685  0.2149 -0.6613 -0.4214
   94MOL0     C12899   3.926   3.364   7.686  0.4882  0.1509  0.2617
   94MOL0     C12900   3.824   3.973   8.021  0.8699  0.0802 -0.8379
   94MOL0     C12901   3.943   4.010   8.105 -0.3066  0.2871 -0.0237
   94MOL0     C12902   3.980   4.153   8.093  1.2139 -0.4917  0.7459
   94MOL0     H12903   4.363   3.960   8.405  2.0973 -0.4757 -0.2353
   94MOL0     H12904   4.516   3.897   8.577  0.8029 -2.1126  0.5093
   94MOL0     H12905   4.461   3.475   8.744 -2.7757  2.1177 -1.5870
   94MOL0     H12906   4.442   3.574   8.896  0.7365  1.8370  0.1509
   94MOL0     H12907   4.686   3.493   8.739  3.5675  1.7328  1.8303
   94MOL0     H12908   4.696   3.568   8.899  1.3969 -0.9376 -0.1859
   94MOL0     H12909   4.554   3.379   8.995 -2.5007 -1.2513 -1.3409
   94MOL0     H12910   4.587   3.295   8.842 -0.7481 -1.0646  1.4582
   94MOL0     H12911   4.841   3.360   8.886 -1.0579  0.4927 -0.5336
   94MOL0     H12912   4.797   3.379   9.045 -0.6319  0.4390 -0.9807
   94MOL0     H12913   4.740   3.117   8.891 -0.9472  1.6431 -0.3346
   94MOL0     H12914   4.728   3.132   9.063 -1.0865  0.9553  0.3264
   94MOL0     H12915   4.940   3.155   9.122  2.2825  0.3157 -0.4141
   94MOL0     H12916   4.933   3.025   9.003  4.5315 -0.1856  1.6747
   94MOL0     H12917   5.133   3.137   8.962  0.4595  0.9195 -0.2612
   94MOL0     H12918   5.062   3.291   8.974  2.2813 -0.1009 -1.7396
   94MOL0     H12919   4.921   3.217   8.749 -0.6880 -0.1477  0.7021
   94MOL0     H12920   5.081   3.271   8.739 -1.1507 -0.5175 -2.2536
   94MOL0     H12921   5.284   3.081   8.699  2.1830 -1.2209  0.3476
   94MOL0     H12922   5.356   2.890   8.513  0.4926 -2.7510 -1.6987
   94MOL0     H12923   5.272   2.743   8.507 -0.0922 -0.2940  0.5654
   94MOL0     H12924   5.432   2.833   8.746 -0.4597 -1.5422  1.4400
   94MOL0     H12925   5.345   2.680   8.743  2.3086 -2.7394 -0.2031
   94MOL0     H12926   5.547   2.594   8.679  1.5134  1.0927  1.1930
   94MOL0     H12927   5.481   2.614   8.527 -2.8090 -0.0108  0.8424
   94MOL0     H12928   5.700   2.717   8.496 -0.3603  0.3223 -0.1593
   94MOL0     H12929   5.599   2.857   8.512  3.6263  0.7791 -0.1036
   94MOL0     H12930   5.851   2.941   8.847  0.6416 -0.5895  1.3212
   94MOL0     H12931   6.151   2.950   8.961 -1.5989  0.1464 -0.8265
   94MOL0     H12932   6.098   2.840   9.098 -2.7030 -2.4759  0.4371
   94MOL0     H12933   6.004   2.969   9.039  1.2581  0.2782  1.8806
   94MOL0     H12934   6.219   2.378   9.148  1.7438  0.0974  1.1576
   94MOL0     H12935   6.449   2.247   9.204  3.3080  0.2773 -0.7938
   94MOL0     H12936   6.772   2.208   8.906 -1.3599  0.8506 -0.3261
   94MOL0     H12937   6.766   2.355   9.013  1.2923 -0.2927 -0.0387
   94MOL0     H12938   6.963   2.213   9.086  0.0478  2.5555  2.1224
   94MOL0     H12939   6.844   2.256   9.195  0.1116  1.7746 -1.7493
   94MOL0     H12940   6.742   2.006   9.164 -1.7397  2.6268 -2.3634
   94MOL0     H12941   6.904   2.022   9.224 -1.9989  1.8677  2.8429
   94MOL0     H12942   6.976   2.008   8.971  0.3044 -0.5265 -3.1221
   94MOL0     H12943   6.805   1.955   8.942  0.8229  0.4845 -0.1227
   94MOL0     H12944   6.995   1.816   9.135  0.0716  0.7021  1.0809
   94MOL0     H12945   6.811   1.782   9.098  0.1582 -0.7698 -0.0471
   94MOL0     H12946   7.053   1.747   8.905 -0.6592  0.0411  0.3293
   94MOL0     H12947   6.881   1.754   8.854  1.4381  0.5159 -1.1671
   94MOL0     H12948   6.955   1.524   8.860 -4.0277  2.2448 -0.2320
   94MOL0     H12949   6.872   1.549   9.001 -1.9938 -0.7472 -2.9217
   94MOL0     H12950   7.073   1.601   9.136  1.1756 -0.3184  0.6000
   94MOL0     H12951   7.170   1.625   8.991 -0.3967  2.4710  2.2907
   94MOL0     H12952   6.559   2.289   8.802 -0.2514 -0.6417 -0.8356
   94MOL0     H12953   6.353   2.413   8.751  0.0928 -1.3157 -0.4977
   94MOL0     H12954   6.010   2.489   8.738 -0.8230 -0.1209  0.0886
   94MOL0     H12955   5.834   2.578   8.623 -0.4371 -0.7310  2.3388
   94MOL0     H12956   4.254   3.577   8.708 -0.0126  1.2200  2.3294
   94MOL0     H12957   4.114   3.624   8.501 -1.8480  2.1689  1.2572
   94MOL0     H12958   3.958   3.707   8.261  0.6346  1.7937  2.3404
   94MOL0     H12959   3.761   3.654   8.114  1.2563 -0.7482 -1.9728
   94MOL0     H12960   3.581   3.654   8.035  1.3546 -0.7006 -0.0124
   94MOL0     H12961   3.490   3.731   7.899  0.2353 -1.1117 -2.5058
   94MOL0     H12962   3.773   3.644   7.837  0.2013  2.4894 -0.5025
   94MOL0     H12963   3.646   3.685   7.729 -2.5906  2.5981  1.7795
   94MOL0     H12964   3.655   3.415   7.904  0.8178 -2.9131 -2.9600
   94MOL0     H12965   3.512   3.464   7.823 -1.0025  3.2302 -0.1082
   94MOL0     H12966   3.624   3.458   7.604  0.4866  0.0130 -0.1319
   94MOL0     H12967   3.619   3.308   7.677  1.3254 -0.0189 -0.6480
   94MOL0     H12968   4.024   3.324   7.702  1.6065  0.7088 -3.9786
   94MOL0     H12969   3.790   4.034   7.938 -0.9931 -0.8009 -0.7528
   94MOL0     H12970   3.989   4.203   8.190  0.1713 -1.0086  1.1164
   94MOL0     H12971   4.078   4.151   8.044  0.5811 -1.8527 -0.5484
   94MOL0     H12972   3.917   4.217   8.031  3.3996 -0.5866 -1.7808
   95MOL0     O12973   5.199   1.453   3.578 -0.0923 -0.3610 -0.4463
   95MOL0     C12974   5.218   1.382   3.680  0.7031 -0.6914 -0.2034
   95MOL0     O12975   5.314   1.290   3.697 -0.0136  0.6816 -0.2230
   95MOL0     C12976   5.410   1.275   3.596  0.4843  1.1263 -0.6664
   95MOL0     C12977   5.437   1.152   3.544 -0.7614 -0.5464 -0.2138
   95MOL0     C12978   5.528   1.128   3.444 -0.1160 -0.3559  0.5614
   95MOL0     C12979   5.612   1.232   3.404  0.4334  0.1642  0.8458
   95MOL0     O12980   5.708   1.194   3.313 -0.0066 -0.1727 -0.1600
   95MOL0     C12981   5.807   1.290   3.264 -0.4369 -0.3289  0.0982
   95MOL0     C12982   5.914   1.346   3.362 -0.0151 -0.4537 -0.2231
   95MOL0     C12983   5.983   1.478   3.302 -0.7531 -0.1026  0.6190
   95MOL0     C12984   6.077   1.454   3.188  0.8787 -0.1796  0.2944
   95MOL0     C12985   6.141   1.581   3.143  0.2869 -0.3107  0.4877
   95MOL0     C12986   6.244   1.557   3.031 -0.4459 -0.4801 -0.2576
   95MOL0     C12987   6.362   1.486   3.090 -0.1681  0.3698 -0.9859
   95MOL0     C12988   6.417   1.544   3.230 -0.3205  0.8728  0.0372
   95MOL0     N12989   6.552   1.483   3.245  0.1366 -0.8941  0.2148
   95MOL0     C12990   6.578   1.370   3.314 -0.3897 -0.1256  0.3775
   95MOL0     C12991   6.711   1.369   3.331 -0.2384  0.0858  1.0115
   95MOL0     C12992   6.770   1.248   3.404  1.3995  0.2839  0.8888
   95MOL0     C12993   6.887   1.284   3.489 -0.1330 -0.5440  0.4295
   95MOL0     C12994   6.934   1.169   3.580  0.5830 -0.5891  0.2233
   95MOL0     C12995   7.085   1.170   3.616  0.8813 -0.5068  0.5904
   95MOL0     O12996   7.170   1.220   3.511  0.6400  0.0594  0.1382
   95MOL0     C12997   7.303   1.213   3.519 -0.3504 -0.0567  0.0410
   95MOL0     C12998   7.375   1.252   3.409  1.2021 -0.2671  0.2353
   95MOL0     C12999   7.515   1.241   3.406  0.3698 -0.5156 -0.0142
   95MOL0     C13000   7.596   1.296   3.288  0.8406  0.8418  0.6614
   95MOL0     C13001   7.575   1.183   3.515  0.0047  0.0912  0.0006
   95MOL0     C13002   7.719   1.166   3.532  0.3016  0.6664  0.7204
   95MOL0     O13003   7.763   1.162   3.663 -0.4214  0.0738  0.0528
   95MOL0     C13004   7.897   1.137   3.680  1.0408  0.4426 -0.3802
   95MOL0     C13005   7.958   1.027   3.623 -0.4717  0.0725  0.3834
   95MOL0     C13006   8.087   0.993   3.650  0.2617  0.0333 -0.3658
   95MOL0     C13007   8.173   1.084   3.717  0.1507  0.8114  0.3795
   95MOL0     O13008   8.306   1.057   3.749  0.8078  0.6198  0.9302
   95MOL0     C13009   8.361   0.934   3.712 -0.5661  0.3652  0.7010
   95MOL0     C13010   8.510   0.945   3.713 -0.3031  0.7302 -0.2857
   95MOL0     C13011   8.567   1.006   3.578 -0.0380  0.1701 -0.0883
   95MOL0     C13012   8.712   0.968   3.568  0.3501  0.5622  0.3695
   95MOL0     C13013   8.772   1.021   3.436 -0.1942  0.1550  0.4811
   95MOL0     C13014   8.927   1.002   3.425 -0.0544 -0.2706 -0.1509
   95MOL0     C13015   9.010   1.084   3.522  0.1221 -0.0738  0.0731
   95MOL0     C13016   9.140   1.140   3.451 -0.1865  0.2952  0.7537
   95MOL0    Cl13017   9.242   1.243   3.560  0.0734 -0.1677  0.1272
   95MOL0     C13018   8.108   1.192   3.781  0.2065  1.1262  0.4858
   95MOL0     C13019   7.973   1.216   3.772  0.3903 -0.1547  0.3939
   95MOL0     O13020   7.787   1.154   3.432 -0.5107  0.3482  0.6555
   95MOL0     C13021   7.501   1.132   3.633  0.6301 -0.4888  0.3898
   95MOL0     C13022   7.366   1.154   3.631  0.0502  0.0305 -0.0453
   95MOL0     N13023   6.767   1.480   3.270 -0.0163  0.7638  0.0873
   95MOL0     N13024   6.676   1.553   3.230  0.4845  0.3447 -1.1643
   95MOL0     C13025   5.587   1.361   3.447  0.5218  0.8607 -0.7899
   95MOL0     C13026   5.483   1.378   3.545 -0.0551  0.8495 -0.1537
   95MOL0     C13027   5.113   1.405   3.783  0.4101 -0.8739 -0.3768
   95MOL0     C13028   5.101   1.534   3.837 -0.7303 -0.0600 -0.7214
   95MOL0     C13029   5.023   1.557   3.950 -0.2808 -0.2690 -0.4365
   95MOL0     C13030   4.941   1.463   4.004  0.4989  0.9777 -0.0684
   95MOL0     O13031   4.842   1.488   4.098  0.0442 -0.7420 -0.0773
   95MOL0     C13032   4.812   1.392   4.197 -0.0352  0.0848  0.2339
   95MOL0     C13033   4.891   1.431   4.325 -0.1129  0.0332 -0.1426
   95MOL0     C13034   5.039   1.419   4.297  0.0314  0.1326  0.9851
   95MOL0     C13035   5.123   1.392   4.419 -0.3209  0.6555  0.3476
   95MOL0     C13036   5.105   1.258   4.476  0.2336 -0.0405  0.3846
   95MOL0     C13037   5.093   1.148   4.516  0.1810 -0.1153 -0.5204
   95MOL0     C13038   4.950   1.335   3.936 -0.0260 -0.1761  0.3930
   95MOL0     C13039   5.033   1.300   3.826  0.4017 -0.6743 -0.8178
   95MOL0     C13040   5.027   1.158   3.770  0.1925 -0.8839  0.0059
   95MOL0     H13041   5.377   1.076   3.593 -1.0509 -0.2437 -0.0944
   95MOL0     H13042   5.533   1.024   3.412  3.6698 -0.6499  1.5672
   95MOL0     H13043   5.749   1.373   3.222  1.2693  0.1413 -1.4247
   95MOL0     H13044   5.862   1.237   3.186  2.9666  0.0781  2.0037
   95MOL0     H13045   5.864   1.364   3.458  0.3906 -0.4962 -0.0004
   95MOL0     H13046   5.982   1.262   3.383 -1.5897 -1.9114 -0.7344
   95MOL0     H13047   5.920   1.562   3.272 -1.3171 -0.9678 -0.6847
   95MOL0     H13048   6.043   1.521   3.383  0.0302 -0.7995  0.4237
   95MOL0     H13049   6.150   1.380   3.222 -0.4273 -1.8118 -0.2981
   95MOL0     H13050   6.036   1.403   3.100  0.1263 -2.0454  1.6592
   95MOL0     H13051   6.182   1.640   3.225 -0.6365  2.7355 -1.0875
   95MOL0     H13052   6.061   1.641   3.098 -1.0750 -2.4026 -0.0492
   95MOL0     H13053   6.206   1.499   2.946  0.5340 -4.4855  1.7717
   95MOL0     H13054   6.273   1.660   3.008  1.6345 -0.6402  1.3895
   95MOL0     H13055   6.435   1.500   3.010 -0.3351  0.4323 -1.1282
   95MOL0     H13056   6.343   1.381   3.111 -0.1059  1.1280  4.5100
   95MOL0     H13057   6.434   1.651   3.221  3.0038  0.4275 -0.5246
   95MOL0     H13058   6.347   1.510   3.306 -0.9913 -1.5164 -1.5319
   95MOL0     H13059   6.512   1.294   3.354 -1.2180 -1.1610 -2.7039
   95MOL0     H13060   6.806   1.182   3.324  0.7496 -0.6523  1.3473
   95MOL0     H13061   6.692   1.194   3.459  0.6075 -0.9561 -1.3063
   95MOL0     H13062   6.970   1.323   3.430  0.7927 -1.6223  0.9752
   95MOL0     H13063   6.850   1.366   3.551 -1.4868 -0.0764 -0.9472
   95MOL0     H13064   6.876   1.158   3.673  2.3514 -0.9517  1.3291
   95MOL0     H13065   6.920   1.075   3.527  0.7047  0.6960 -2.2332
   95MOL0     H13066   7.097   1.229   3.707 -0.3633  4.2268 -1.9593
   95MOL0     H13067   7.104   1.066   3.646  0.7053 -0.7640 -0.1518
   95MOL0     H13068   7.318   1.303   3.333  0.4941  0.3546  1.1577
   95MOL0     H13069   7.653   1.387   3.310  3.0686 -0.2961 -0.1401
   95MOL0     H13070   7.519   1.333   3.219  0.4680 -1.6425 -0.3751
   95MOL0     H13071   7.656   1.223   3.234 -1.3361  0.3991 -1.3350
   95MOL0     H13072   7.882   0.957   3.590 -0.8613  0.2916  0.7899
   95MOL0     H13073   8.124   0.897   3.617 -0.8208 -1.1464  1.6824
   95MOL0     H13074   8.337   0.855   3.783  0.1729 -0.1947  0.3491
   95MOL0     H13075   8.338   0.902   3.610  2.4025  0.3668 -0.0602
   95MOL0     H13076   8.551   1.001   3.797  2.9293 -0.2364 -1.0879
   95MOL0     H13077   8.532   0.838   3.723 -1.6285  0.1506 -2.6909
   95MOL0     H13078   8.567   1.115   3.581  1.3377  0.2760  5.5036
   95MOL0     H13079   8.519   0.961   3.490 -1.2831 -0.8521  1.0614
   95MOL0     H13080   8.721   0.860   3.576 -1.2583  0.3388 -0.4590
   95MOL0     H13081   8.769   1.009   3.652 -0.7512  2.6223  0.1837
   95MOL0     H13082   8.721   0.968   3.355  2.0498  0.8572 -1.4822
   95MOL0     H13083   8.746   1.124   3.412 -1.6700 -0.7406 -2.0774
   95MOL0     H13084   8.954   1.037   3.326  0.8223 -3.1573 -1.0321
   95MOL0     H13085   8.948   0.895   3.418 -2.9122 -0.9338  0.1577
   95MOL0     H13086   9.031   1.017   3.606  0.9033 -0.3397 -0.3145
   95MOL0     H13087   8.953   1.172   3.550  0.7034 -0.6763  3.5393
   95MOL0     H13088   9.118   1.200   3.362 -2.2854 -2.8671 -1.0526
   95MOL0     H13089   9.196   1.050   3.424  0.3334  0.9107 -0.2817
   95MOL0     H13090   8.179   1.235   3.850  0.8804 -0.5647  0.8784
   95MOL0     H13091   7.927   1.301   3.821  1.0080  2.4455 -3.1435
   95MOL0     H13092   7.548   1.082   3.717  0.7775 -1.6614 -0.3644
   95MOL0     H13093   7.311   1.127   3.721 -3.4576 -1.8626 -2.5251
   95MOL0     H13094   5.637   1.448   3.406 -1.5265  1.5151 -2.0504
   95MOL0     H13095   5.456   1.480   3.574 -0.3164  1.1063 -1.2484
   95MOL0     H13096   5.179   1.607   3.815  1.0773 -1.0258  2.0301
   95MOL0     H13097   5.024   1.657   3.993  0.7733 -0.0218 -0.9916
   95MOL0     H13098   4.707   1.381   4.228  0.9198  0.1458  4.0051
   95MOL0     H13099   4.847   1.295   4.161  2.4872  0.2119  2.1216
   95MOL0     H13100   4.869   1.367   4.412  2.2289  1.5384  1.6970
   95MOL0     H13101   4.871   1.533   4.358 -0.6922 -0.2340  0.3577
   95MOL0     H13102   5.055   1.343   4.220 -2.4882  1.5850 -1.1481
   95MOL0     H13103   5.068   1.514   4.251 -3.6951  0.2002 -1.7434
   95MOL0     H13104   5.098   1.463   4.498 -1.2744  0.0109  0.6400
   95MOL0     H13105   5.230   1.404   4.400 -0.7630  3.0503 -1.0700
   95MOL0     H13106   5.087   1.049   4.556 -0.4058  0.0488 -0.1939
   95MOL0     H13107   4.885   1.253   3.967 -0.2595  1.3575  4.7067
   95MOL0     H13108   4.932   1.136   3.722  1.0058  0.7518 -2.5806
   95MOL0     H13109   5.095   1.153   3.684 -3.4661 -0.0505 -3.2049
   95MOL0     H13110   5.051   1.085   3.848 -0.8010  0.1728  1.3512
   96MOL0     O13111   9.602   9.912   9.644 -0.2743  0.1581  0.0587
   96MOL0     C13112   9.687   9.840   9.692 -1.1000  0.7176 -0.0863
   96MOL0     O13113   9.786   9.879   9.767 -0.1600 -0.3885 -0.0196
   96MOL0     C13114   9.805  10.015   9.780 -0.9113 -0.5268 -0.0394
   96MOL0     C13115   9.715  10.095   9.853  0.1031  0.2755  0.3257
   96MOL0     C13116   9.727  10.229   9.857  0.4507 -0.9034  0.4399
   96MOL0     C13117   9.832  10.297   9.793  0.2073 -0.3612 -0.5533
   96MOL0     O13118   9.844  10.435   9.765  0.5268 -0.6416 -0.0861
   96MOL0     C13119   9.751  10.533   9.827  0.0225 -0.3896  0.3544
   96MOL0     C13120   9.762  10.651   9.742 -0.2191 -0.3151  0.6591
   96MOL0     C13121   9.721  10.789   9.802  0.4713 -0.2124 -0.0245
   96MOL0     C13122   9.835  10.872   9.862  0.5645  0.3342 -0.1484
   96MOL0     C13123   9.772  11.015   9.878 -0.8262 -0.5888 -0.5041
   96MOL0     C13124   9.882  11.116   9.898 -0.5235  0.5064  0.6543
   96MOL0     C13125   9.910  11.186   9.766 -0.4729 -1.2831  0.4056
   96MOL0     C13126  10.024  11.288   9.790 -0.0309  0.5256 -1.2066
   96MOL0     N13127  10.044  11.365   9.664 -0.0987  0.7236 -0.0197
   96MOL0     C13128   9.960  11.464   9.617 -0.0687  0.2040  0.1150
   96MOL0     C13129  10.022  11.500   9.498  0.1659  0.5345 -0.5727
   96MOL0     C13130   9.967  11.601   9.406 -0.2767  0.1827  0.1808
   96MOL0     C13131  10.075  11.641   9.305  0.1224  0.0389 -0.4667
   96MOL0     C13132  10.094  11.539   9.193 -0.1353  0.4846 -1.0681
   96MOL0     C13133  10.206  11.590   9.097 -0.5538 -0.0233 -0.9246
   96MOL0     O13134  10.179  11.560   8.961  0.1560  0.3329  0.6259
   96MOL0     C13135  10.286  11.572   8.881 -0.4428  0.3554  0.8156
   96MOL0     C13136  10.272  11.680   8.791  0.0849  0.2784  0.5310
   96MOL0     C13137  10.375  11.705   8.705 -1.2261 -0.3273 -0.3285
   96MOL0     C13138  10.360  11.827   8.617 -0.0005 -0.1511 -0.2266
   96MOL0     C13139  10.493  11.629   8.708  0.2057 -0.0789 -0.1278
   96MOL0     C13140  10.617  11.667   8.630  0.7789  0.7217 -0.3631
   96MOL0     O13141  10.672  11.563   8.552  0.1579  0.4960 -0.7003
   96MOL0     C13142  10.796  11.596   8.517 -0.2081 -0.6176 -0.1361
   96MOL0     C13143  10.822  11.677   8.407  0.5670 -0.1397  0.7558
   96MOL0     C13144  10.947  11.722   8.380 -0.4060 -0.1542 -0.5727
   96MOL0     C13145  11.053  11.675   8.446  0.1096  0.9584  0.1476
   96MOL0     O13146  11.176  11.713   8.395 -0.0632  0.2256 -0.2641
   96MOL0     C13147  11.283  11.624   8.438  0.5394  0.4116 -0.2195
   96MOL0     C13148  11.404  11.630   8.344 -0.7452  0.7467  0.7993
   96MOL0     C13149  11.469  11.762   8.339 -0.1184  0.2664  0.5809
   96MOL0     C13150  11.608  11.737   8.278 -0.1822  0.5466 -0.7296
   96MOL0     C13151  11.671  11.877   8.249 -0.1049 -0.3376 -0.4135
   96MOL0     C13152  11.825  11.873   8.214  0.6438  0.8268 -0.2527
   96MOL0     C13153  11.877  12.007   8.173 -0.1880 -0.8160 -0.3832
   96MOL0     C13154  12.029  12.030   8.158 -0.3315 -0.0076  0.1902
   96MOL0    Cl13155  12.133  11.976   8.294  0.1330  0.6528  0.1520
   96MOL0     C13156  11.031  11.584   8.557 -0.2293 -0.6064  0.3795
   96MOL0     C13157  10.902  11.550   8.596  0.4893 -0.1282  0.1620
   96MOL0     O13158  10.658  11.785   8.639  0.1410 -0.3093  0.5163
   96MOL0     C13159  10.499  11.519   8.794  0.8857  0.2879  0.1007
   96MOL0     C13160  10.400  11.496   8.882 -0.1910  1.2553  0.1579
   96MOL0     N13161  10.143  11.430   9.486 -0.3861 -0.0470  0.1047
   96MOL0     N13162  10.155  11.350   9.582  0.7054  0.0344 -0.7598
   96MOL0     C13163   9.928  10.218   9.731 -0.8501 -0.3372 -0.4857
   96MOL0     C13164   9.917  10.080   9.725  0.7116 -0.0042  0.5329
   96MOL0     C13165   9.681   9.692   9.659 -0.0074 -0.2373  0.8593
   96MOL0     C13166   9.558   9.642   9.601 -0.6883  0.0274 -0.0418
   96MOL0     C13167   9.560   9.506   9.553 -0.1808  0.3710  0.3003
   96MOL0     C13168   9.665   9.417   9.579  0.1004 -0.1005  0.3121
   96MOL0     O13169   9.664   9.285   9.553  0.8724 -0.2165 -0.1014
   96MOL0     C13170   9.542   9.219   9.505 -0.7752  0.4326  0.2156
   96MOL0     C13171   9.460   9.160   9.629  0.5031 -0.1429  0.1849
   96MOL0     C13172   9.545   9.061   9.709  0.7281  0.3629 -0.0524
   96MOL0     C13173   9.469   9.000   9.819  0.4306 -0.3328  0.4956
   96MOL0     C13174   9.431   9.108   9.907  0.2928  0.1794 -0.0489
   96MOL0     C13175   9.389   9.200   9.964  0.7891 -0.6211 -0.3581
   96MOL0     C13176   9.781   9.477   9.622 -0.2594 -0.0810 -0.0381
   96MOL0     C13177   9.796   9.610   9.657 -0.1442 -0.6438  0.1008
   96MOL0     C13178   9.926   9.647   9.709  1.0239  0.2264 -0.0608
   96MOL0     H13179   9.633  10.044   9.902 -0.6338  0.3858 -0.7509
   96MOL0     H13180   9.666  10.297   9.915 -0.2654 -0.8180 -0.4003
   96MOL0     H13181   9.782  10.567   9.927  1.6478  1.8586 -0.8279
   96MOL0     H13182   9.646  10.502   9.830  0.2507 -1.5000 -1.7746
   96MOL0     H13183   9.866  10.664   9.710 -1.6856  1.5031 -4.2762
   96MOL0     H13184   9.697  10.640   9.654 -0.2990  2.1014  0.3586
   96MOL0     H13185   9.680  10.848   9.719  0.6027 -0.8908 -0.5774
   96MOL0     H13186   9.641  10.758   9.870 -0.2276 -4.4145 -2.4351
   96MOL0     H13187   9.854  10.828   9.960 -1.5753 -0.4327 -0.0252
   96MOL0     H13188   9.919  10.874   9.792  0.2653  1.4004 -0.4946
   96MOL0     H13189   9.705  11.021   9.964  1.1178  2.7859  0.9951
   96MOL0     H13190   9.709  11.036   9.791 -1.5310 -0.5436  0.0146
   96MOL0     H13191   9.856  11.186   9.978 -1.5739 -0.4856  1.1957
   96MOL0     H13192   9.976  11.069   9.927 -0.9739 -1.2365 -0.5686
   96MOL0     H13193   9.818  11.233   9.732  0.4087  0.6975  0.6245
   96MOL0     H13194   9.944  11.117   9.688  0.0118  0.4935 -1.0269
   96MOL0     H13195   9.989  11.358   9.866 -0.8215  0.2314 -1.2853
   96MOL0     H13196  10.117  11.241   9.821 -0.6387 -0.7513 -1.2479
   96MOL0     H13197   9.873  11.511   9.659  0.6290  0.9353  0.7754
   96MOL0     H13198   9.947  11.693   9.463 -0.3888  0.9815 -1.1051
   96MOL0     H13199   9.870  11.574   9.363 -0.4481 -0.0355  0.6990
   96MOL0     H13200  10.062  11.741   9.263 -0.6044  1.1758  2.2188
   96MOL0     H13201  10.171  11.650   9.358  0.6446 -1.7233 -1.0314
   96MOL0     H13202  10.119  11.440   9.232 -2.1359  0.3395 -0.0626
   96MOL0     H13203  10.000  11.523   9.139 -2.1892 -1.2414  2.6403
   96MOL0     H13204  10.207  11.700   9.095 -0.9012 -0.0187 -0.9842
   96MOL0     H13205  10.297  11.537   9.125 -0.2827  0.5531 -0.6867
   96MOL0     H13206  10.173  11.725   8.800 -1.1261 -2.1870  0.2454
   96MOL0     H13207  10.252  11.850   8.619  0.3811  1.8681 -0.4749
   96MOL0     H13208  10.389  11.806   8.514 -1.3235  2.5329 -1.2477
   96MOL0     H13209  10.417  11.915   8.647  0.0372 -0.3271  0.2236
   96MOL0     H13210  10.738  11.725   8.357  1.3895  0.7039  0.1732
   96MOL0     H13211  10.970  11.815   8.328 -0.6288  0.7617  0.9053
   96MOL0     H13212  11.319  11.644   8.540  0.1093  2.8654 -0.4939
   96MOL0     H13213  11.242  11.523   8.433 -2.5367  1.5094  0.8627
   96MOL0     H13214  11.478  11.557   8.377 -0.5685  1.7961  2.9558
   96MOL0     H13215  11.365  11.600   8.247  1.8646  0.2015 -0.1407
   96MOL0     H13216  11.480  11.817   8.433 -0.4632  1.1949  0.1005
   96MOL0     H13217  11.416  11.817   8.260 -2.8638 -1.6977  0.9218
   96MOL0     H13218  11.604  11.663   8.197  1.5851 -1.1718  0.6450
   96MOL0     H13219  11.664  11.687   8.358  1.5297  3.0009 -0.2700
   96MOL0     H13220  11.613  11.919   8.166  1.3540  0.4999 -1.0608
   96MOL0     H13221  11.657  11.943   8.335  0.1033 -0.0959 -0.5604
   96MOL0     H13222  11.838  11.799   8.135 -1.1561 -1.8108  1.7383
   96MOL0     H13223  11.888  11.831   8.293  0.3321 -1.1458 -0.9852
   96MOL0     H13224  11.855  12.076   8.255  0.5062 -2.6993  1.4937
   96MOL0     H13225  11.833  12.042   8.080  2.7347 -0.8135 -1.8810
   96MOL0     H13226  12.053  12.136   8.144  3.1209 -0.9321 -2.4144
   96MOL0     H13227  12.066  11.983   8.066 -0.2291  1.6090 -0.6528
   96MOL0     H13228  11.106  11.534   8.617  0.5234 -2.2509 -1.7962
   96MOL0     H13229  10.884  11.478   8.675 -4.7509  2.1533  1.4737
   96MOL0     H13230  10.585  11.453   8.791 -0.5228 -1.6298 -0.4878
   96MOL0     H13231  10.414  11.411   8.947  1.8303  0.1066 -1.6653
   96MOL0     H13232  10.007  10.275   9.682 -2.6653  4.2691  1.3764
   96MOL0     H13233   9.996  10.014   9.692  1.7729  2.6724 -2.8821
   96MOL0     H13234   9.464   9.697   9.597 -1.4109 -0.7856  2.8326
   96MOL0     H13235   9.472   9.476   9.496 -0.2320  1.5747 -0.2655
   96MOL0     H13236   9.478   9.292   9.455 -0.1122  0.9952  0.1744
   96MOL0     H13237   9.576   9.139   9.439 -0.6882  2.2128 -2.0214
   96MOL0     H13238   9.371   9.113   9.588  1.8554  0.1410 -3.3811
   96MOL0     H13239   9.426   9.245   9.689  2.9493  1.4210 -0.4794
   96MOL0     H13240   9.602   8.983   9.658  0.7334 -1.5041  2.6045
   96MOL0     H13241   9.625   9.111   9.764  1.3968  1.1710 -1.6814
   96MOL0     H13242   9.515   8.912   9.864  0.7515 -0.9050 -0.8822
   96MOL0     H13243   9.374   8.963   9.779  1.3486 -0.8516 -1.3492
   96MOL0     H13244   9.337   9.273  10.022 -1.6462 -2.1985 -0.3857
   96MOL0     H13245   9.859   9.403   9.637  0.4107  0.6141 -0.0137
   96MOL0     H13246   9.978   9.716   9.643  2.5407 -1.4360 -0.6811
   96MOL0     H13247   9.897   9.686   9.807 -0.9026  1.1867 -0.9574
   96MOL0     H13248   9.988   9.558   9.726  0.5423 -0.1663 -0.3093
   97MOL0     O13249   0.239   0.871   6.418  0.6335 -0.2127 -0.2838
   97MOL0     C13250   0.225   0.755   6.397 -0.2008  0.7003  0.1789
   97MOL0     O13251   0.324   0.674   6.356  0.6352 -0.0642 -0.1309
   97MOL0     C13252   0.438   0.742   6.319 -0.3727 -0.1765  0.0529
   97MOL0     C13253   0.550   0.758   6.405 -0.2491 -0.5829  0.0057
   97MOL0     C13254   0.656   0.845   6.372 -0.0159 -0.2542  0.0661
   97MOL0     C13255   0.652   0.904   6.242  0.4442  0.1846 -0.4486
   97MOL0     O13256   0.742   1.004   6.216 -0.7658 -0.5927 -0.1518
   97MOL0     C13257   0.794   1.023   6.084  0.4127  0.6683 -0.3119
   97MOL0     C13258   0.922   1.102   6.113  0.3031 -0.3190  0.1718
   97MOL0     C13259   1.005   1.122   5.985 -0.5249 -0.4986  0.1243
   97MOL0     C13260   1.136   1.191   5.998  0.2975 -0.4704 -0.5294
   97MOL0     C13261   1.215   1.222   5.863  0.1272  0.2965 -1.4024
   97MOL0     C13262   1.153   1.348   5.800 -0.4990 -0.6087  0.0458
   97MOL0     C13263   1.235   1.403   5.689  0.7418  0.7719 -0.3175
   97MOL0     C13264   1.168   1.531   5.640  0.4677  0.1654 -0.0353
   97MOL0     N13265   1.237   1.599   5.530 -0.0190 -0.2368 -0.4429
   97MOL0     C13266   1.373   1.642   5.536  0.1417  0.3279 -0.1330
   97MOL0     C13267   1.421   1.649   5.415 -0.5892  0.0465 -0.1823
   97MOL0     C13268   1.559   1.686   5.373  0.3340  0.0706 -0.6381
   97MOL0     C13269   1.641   1.561   5.366  0.6674  0.2711 -0.7289
   97MOL0     C13270   1.795   1.587   5.322  0.1923 -0.8574  0.9054
   97MOL0     C13271   1.892   1.503   5.388 -0.3719 -0.0104 -0.1657
   97MOL0     O13272   2.028   1.541   5.356 -0.3463 -0.4296  0.1244
   97MOL0     C13273   2.120   1.448   5.371 -0.2448  0.4666 -0.0920
   97MOL0     C13274   2.123   1.351   5.473 -0.2506 -0.1224 -0.0675
   97MOL0     C13275   2.225   1.253   5.481  0.2309 -0.4703 -0.2408
   97MOL0     C13276   2.224   1.165   5.612  0.1807  0.3023 -0.7951
   97MOL0     C13277   2.326   1.254   5.380 -0.2848  0.1341  0.1907
   97MOL0     C13278   2.452   1.170   5.394  0.6068  0.2447  0.2396
   97MOL0     O13279   2.575   1.225   5.371 -0.1255  0.2825 -0.0868
   97MOL0     C13280   2.681   1.142   5.409  0.7715  0.3100 -0.1372
   97MOL0     C13281   2.704   1.120   5.543 -0.4654  0.4641  0.1660
   97MOL0     C13282   2.822   1.067   5.586 -1.4935 -0.3784  0.3320
   97MOL0     C13283   2.921   1.021   5.495 -0.2612  0.2974 -0.3181
   97MOL0     O13284   3.044   0.971   5.532 -0.2163 -0.5693 -0.3226
   97MOL0     C13285   3.068   0.947   5.668  0.9686 -0.4828 -0.1012
   97MOL0     C13286   3.200   0.877   5.680 -0.5948 -0.2810 -0.3138
   97MOL0     C13287   3.213   0.823   5.820 -0.0619  0.6193  0.1161
   97MOL0     C13288   3.346   0.745   5.808  0.1548  0.4823 -0.0728
   97MOL0     C13289   3.328   0.603   5.749  0.0767 -0.0656  0.6024
   97MOL0     C13290   3.420   0.497   5.810 -0.6783 -0.1832  0.2657
   97MOL0     C13291   3.564   0.526   5.768 -0.2341 -0.5885  0.3024
   97MOL0     C13292   3.655   0.419   5.814  0.1250  0.1232 -0.1861
   97MOL0    Cl13293   3.637   0.276   5.706  0.2924  0.0291  0.4413
   97MOL0     C13294   2.887   1.030   5.354  1.1155 -1.4891 -0.3448
   97MOL0     C13295   2.763   1.091   5.307 -0.2798 -0.3676  0.1410
   97MOL0     O13296   2.435   1.052   5.425 -0.5014  0.0174  0.6237
   97MOL0     C13297   2.320   1.355   5.282  0.5646  0.3734 -0.1828
   97MOL0     C13298   2.218   1.450   5.273  0.3510 -0.5472 -0.3182
   97MOL0     N13299   1.311   1.613   5.331  0.4370 -0.6553 -0.1269
   97MOL0     N13300   1.203   1.591   5.400 -0.3539  0.0006 -0.0502
   97MOL0     C13301   0.543   0.888   6.153  0.4551  0.7222 -0.5746
   97MOL0     C13302   0.431   0.813   6.197 -0.8153  0.3130  0.1484
   97MOL0     C13303   0.088   0.692   6.420  0.5215  0.0450 -0.0879
   97MOL0     C13304   0.072   0.560   6.479 -0.6946 -0.8916 -0.5330
   97MOL0     C13305  -0.048   0.516   6.517  0.8272  0.3211 -0.7635
   97MOL0     C13306  -0.166   0.586   6.492  0.3304  0.5706 -0.1937
   97MOL0     O13307  -0.284   0.542   6.534  0.7860 -0.5408  0.9194
   97MOL0     C13308  -0.319   0.415   6.479  0.5082  0.1915  0.1778
   97MOL0     C13309  -0.441   0.448   6.383  0.7865 -0.1557 -0.5477
   97MOL0     C13310  -0.503   0.326   6.305  0.2715  0.0552  0.3591
   97MOL0     C13311  -0.594   0.237   6.393  0.2693 -0.0032 -0.0393
   97MOL0     C13312  -0.730   0.301   6.421 -0.5750 -0.3596  0.5570
   97MOL0     C13313  -0.835   0.357   6.450  0.4071 -0.7841 -0.6809
   97MOL0     C13314  -0.156   0.709   6.437 -0.7956 -0.9194  0.9153
   97MOL0     C13315  -0.032   0.770   6.399  0.0988  0.7573  0.0597
   97MOL0     C13316  -0.032   0.900   6.317  0.1369  0.0624 -1.1887
   97MOL0     H13317   0.553   0.707   6.500 -1.6084 -0.6572  0.0288
   97MOL0     H13318   0.732   0.876   6.442  1.7140 -3.9564  0.0643
   97MOL0     H13319   0.728   1.072   6.012 -0.0772  0.1382 -0.2341
   97MOL0     H13320   0.823   0.924   6.049  1.6482  0.0237  2.2576
   97MOL0     H13321   0.897   1.192   6.170 -1.3889 -1.0881  0.7283
   97MOL0     H13322   0.984   1.049   6.186  0.5719 -0.6937 -0.3241
   97MOL0     H13323   1.025   1.023   5.944 -2.0735 -0.2888 -1.2776
   97MOL0     H13324   0.939   1.173   5.914 -1.3943  1.2251  2.0743
   97MOL0     H13325   1.107   1.282   6.051  2.8838  0.9656 -1.4149
   97MOL0     H13326   1.195   1.118   6.054  1.6517 -1.1970 -2.7785
   97MOL0     H13327   1.216   1.139   5.792  1.0794  0.5809 -1.7295
   97MOL0     H13328   1.316   1.241   5.898 -0.7848  1.6817  0.7181
   97MOL0     H13329   1.052   1.325   5.767 -1.0774  3.2258 -1.2998
   97MOL0     H13330   1.142   1.428   5.873 -0.6123 -1.2315  0.7271
   97MOL0     H13331   1.231   1.333   5.606 -0.2997  1.3989 -0.8295
   97MOL0     H13332   1.341   1.419   5.708  0.9856 -0.2976 -0.7495
   97MOL0     H13333   1.063   1.517   5.614  0.5671  1.1005 -1.0389
   97MOL0     H13334   1.173   1.600   5.724  1.3908 -0.1678  0.1993
   97MOL0     H13335   1.436   1.645   5.624 -1.1776  0.8550  0.8272
   97MOL0     H13336   1.596   1.755   5.450 -1.8334 -1.6059  2.1175
   97MOL0     H13337   1.561   1.732   5.274  1.2649 -3.7494 -2.6168
   97MOL0     H13338   1.633   1.517   5.466 -0.0013  0.4619 -0.6952
   97MOL0     H13339   1.603   1.494   5.287  1.0246  0.4541 -1.0602
   97MOL0     H13340   1.811   1.573   5.215 -0.9114 -1.3417  0.7994
   97MOL0     H13341   1.821   1.688   5.356  1.7858 -0.3501 -1.5688
   97MOL0     H13342   1.871   1.512   5.495  0.5771 -0.3854  0.0672
   97MOL0     H13343   1.878   1.396   5.368 -0.7802 -0.6728  3.1117
   97MOL0     H13344   2.044   1.351   5.547  1.8005 -1.0234  2.2553
   97MOL0     H13345   2.166   1.214   5.690 -0.8496 -0.3237 -1.1422
   97MOL0     H13346   2.328   1.163   5.646 -0.7965  1.0938  2.6046
   97MOL0     H13347   2.185   1.063   5.609 -0.5600  0.5648 -0.3187
   97MOL0     H13348   2.632   1.144   5.622 -0.6227  1.3737 -0.2442
   97MOL0     H13349   2.847   1.072   5.691  1.4348  2.8856 -0.3580
   97MOL0     H13350   3.066   1.038   5.729  0.9425 -0.6412  0.1328
   97MOL0     H13351   2.987   0.878   5.694 -1.0318  1.2234 -1.4552
   97MOL0     H13352   3.200   0.795   5.607 -1.6878 -0.1599 -0.4657
   97MOL0     H13353   3.281   0.947   5.658 -2.1626  1.4922 -0.6703
   97MOL0     H13354   3.128   0.763   5.852  1.8906 -1.7617  1.1129
   97MOL0     H13355   3.233   0.912   5.880 -0.3080  1.2923 -0.7772
   97MOL0     H13356   3.401   0.734   5.902 -0.5437 -1.5257  0.1631
   97MOL0     H13357   3.418   0.796   5.742 -2.5761  2.5068 -1.7056
   97MOL0     H13358   3.231   0.556   5.764  0.1474 -1.1774 -1.8754
   97MOL0     H13359   3.338   0.613   5.640 -2.1320  0.0965  0.3824
   97MOL0     H13360   3.389   0.400   5.770  2.8310 -1.0354 -0.7532
   97MOL0     H13361   3.409   0.494   5.919 -2.7076  0.7795  0.1353
   97MOL0     H13362   3.590   0.619   5.819 -0.6681 -0.8640  1.0405
   97MOL0     H13363   3.574   0.543   5.660  1.5727  2.5412  0.8457
   97MOL0     H13364   3.630   0.398   5.919  1.8383 -2.9527 -0.2762
   97MOL0     H13365   3.759   0.453   5.820 -0.0108  0.2992  1.7155
   97MOL0     H13366   2.958   1.009   5.275  1.6888  3.9987 -1.7006
   97MOL0     H13367   2.736   1.098   5.202 -3.0593  0.2294  0.8128
   97MOL0     H13368   2.401   1.348   5.210  3.1947  2.8720  2.3016
   97MOL0     H13369   2.223   1.524   5.194  1.3233 -0.2280  0.0233
   97MOL0     H13370   0.542   0.946   6.061 -0.1173 -0.7229 -1.5207
   97MOL0     H13371   0.351   0.803   6.125 -3.2852 -1.4184  2.9321
   97MOL0     H13372   0.169   0.518   6.499  0.7631  2.5589  0.2743
   97MOL0     H13373  -0.036   0.422   6.570 -0.8362  1.5643  2.0613
   97MOL0     H13374  -0.238   0.374   6.417  1.7465  1.2932  1.0147
   97MOL0     H13375  -0.349   0.348   6.559 -3.3765  3.1575  1.4883
   97MOL0     H13376  -0.410   0.533   6.323  2.6433 -1.8763 -2.1810
   97MOL0     H13377  -0.519   0.482   6.452 -0.3878  2.0252 -2.7745
   97MOL0     H13378  -0.564   0.365   6.223  0.3942  1.6016  0.9756
   97MOL0     H13379  -0.423   0.264   6.262 -0.9326 -2.3051  1.3350
   97MOL0     H13380  -0.552   0.218   6.492 -3.2904 -0.5681  1.5441
   97MOL0     H13381  -0.598   0.141   6.341  0.5928  0.9398 -1.8814
   97MOL0     H13382  -0.922   0.411   6.482  1.1583  0.4691 -0.7277
   97MOL0     H13383  -0.249   0.756   6.405  0.0860  0.9816  1.0166
   97MOL0     H13384  -0.134   0.936   6.305 -0.7121 -1.3563  1.1602
   97MOL0     H13385   0.032   0.968   6.374  1.6424 -1.3552 -1.1268
   97MOL0     H13386   0.019   0.881   6.222  1.9652 -2.4820  0.1913
   98MOL0     O13387   3.466  11.380   7.223 -0.2988  0.4067  0.4931
   98MOL0     C13388   3.403  11.281   7.269  0.4277 -0.1581 -1.1559
   98MOL0     O13389   3.458  11.153   7.272  0.1033 -0.0823  0.4604
   98MOL0     C13390   3.596  11.132   7.236 -0.2429  0.2858  0.5670
   98MOL0     C13391   3.676  11.077   7.339 -0.7245 -0.5583  0.7738
   98MOL0     C13392   3.813  11.065   7.313 -0.0635 -0.3723  0.7188
   98MOL0     C13393   3.870  11.101   7.188  0.2516 -0.0326 -1.4449
   98MOL0     O13394   4.005  11.093   7.179 -0.2827 -0.0602 -0.1702
   98MOL0     C13395   4.082  11.154   7.069  0.4344  2.1212 -0.3990
   98MOL0     C13396   4.112  11.305   7.095 -0.3337  0.0878 -0.4194
   98MOL0     C13397   4.229  11.359   7.003  0.4675  0.0584 -1.2951
   98MOL0     C13398   4.277  11.498   7.044  0.0511 -0.8921  0.2995
   98MOL0     C13399   4.370  11.550   6.936  0.6467 -0.5390 -0.0815
   98MOL0     C13400   4.502  11.474   6.921  0.8441 -1.6328  0.0254
   98MOL0     C13401   4.595  11.542   6.821 -0.1550 -0.1613 -0.2739
   98MOL0     C13402   4.600  11.697   6.832  0.7258  0.6398 -0.0277
   98MOL0     N13403   4.709  11.747   6.763  0.6729  0.4914 -0.0326
   98MOL0     C13404   4.772  11.865   6.784  0.4461 -0.2199 -1.0675
   98MOL0     C13405   4.880  11.862   6.717 -0.3658  0.0467 -0.7604
   98MOL0     C13406   4.986  11.964   6.715 -0.2545 -0.0538  0.1712
   98MOL0     C13407   5.055  11.968   6.855  0.4147  0.0844  0.1677
   98MOL0     C13408   5.154  11.850   6.882  0.3541  0.7570  0.6011
   98MOL0     C13409   5.292  11.857   6.816  0.3438 -1.0563 -0.2727
   98MOL0     O13410   5.377  11.757   6.872  0.7774  0.2536  0.2440
   98MOL0     C13411   5.497  11.743   6.813 -0.3241 -0.4947  0.3012
   98MOL0     C13412   5.538  11.797   6.687  0.2468 -0.8414  0.4105
   98MOL0     C13413   5.651  11.764   6.617 -1.6781 -0.0957 -0.6790
   98MOL0     C13414   5.671  11.823   6.481  0.8874  0.2152 -0.1128
   98MOL0     C13415   5.744  11.671   6.678 -0.4407  0.8293  0.3574
   98MOL0     C13416   5.879  11.634   6.625  1.7478 -0.1097  0.4673
   98MOL0     O13417   5.886  11.640   6.491  0.3890  0.0864 -0.7597
   98MOL0     C13418   5.989  11.587   6.426 -0.2695  0.3219  0.8320
   98MOL0     C13419   6.008  11.450   6.426 -0.3209 -0.3322  0.2445
   98MOL0     C13420   6.104  11.389   6.341  0.0900 -0.2975  0.1292
   98MOL0     C13421   6.178  11.462   6.253  0.0604 -0.2029 -0.3267
   98MOL0     O13422   6.240  11.392   6.156  0.6047  0.0067  0.1566
   98MOL0     C13423   6.207  11.446   6.022  0.3016 -0.4662  0.5882
   98MOL0     C13424   6.291  11.384   5.912  0.4374 -0.0339 -0.4785
   98MOL0     C13425   6.439  11.406   5.949  0.7680  0.3090 -0.2753
   98MOL0     C13426   6.516  11.386   5.820 -0.0458  0.2694 -0.5673
   98MOL0     C13427   6.648  11.455   5.825  1.1696  0.0358 -0.4235
   98MOL0     C13428   6.711  11.449   5.694 -0.1873  0.1824  0.4037
   98MOL0     C13429   6.841  11.531   5.698  0.2854  0.3306  0.0224
   98MOL0     C13430   6.810  11.683   5.722  0.3605 -0.5562  0.0132
   98MOL0    Cl13431   6.965  11.781   5.716  0.3142  0.0072  0.3325
   98MOL0     C13432   6.183  11.601   6.269 -0.6341  1.2013  0.0019
   98MOL0     C13433   6.085  11.663   6.350 -0.1816  0.1592  0.2178
   98MOL0     O13434   5.963  11.583   6.694  0.3878 -1.2490  0.4309
   98MOL0     C13435   5.711  11.635   6.807  0.1035  0.6561 -0.0062
   98MOL0     C13436   5.595  11.662   6.873  0.6218 -0.7961 -0.2338
   98MOL0     N13437   4.882  11.742   6.650 -0.3204  0.3971  0.8384
   98MOL0     N13438   4.783  11.681   6.677  0.1264  0.0156  0.9380
   98MOL0     C13439   3.778  11.155   7.096 -0.3897 -0.7036  0.1623
   98MOL0     C13440   3.645  11.171   7.113 -0.3720  0.0266  0.1524
   98MOL0     C13441   3.257  11.295   7.312  0.1595  1.0290 -0.2736
   98MOL0     C13442   3.214  11.213   7.421 -0.5963  0.4475 -0.8982
   98MOL0     C13443   3.088  11.212   7.460 -0.1125 -0.2814 -0.0233
   98MOL0     C13444   2.990  11.277   7.400  1.0421 -0.4233  0.4019
   98MOL0     O13445   2.857  11.258   7.441 -0.1635  0.0970  0.3990
   98MOL0     C13446   2.748  11.317   7.367 -0.6972  0.5840  0.0958
   98MOL0     C13447   2.734  11.219   7.246 -0.2233  0.9526  0.4933
   98MOL0     C13448   2.596  11.229   7.171  0.6212  0.7747 -0.5826
   98MOL0     C13449   2.573  11.343   7.078  0.5596 -0.1050  0.5917
   98MOL0     C13450   2.685  11.353   6.993 -0.0085  0.3798  0.1015
   98MOL0     C13451   2.789  11.344   6.929  0.0301 -0.2840  0.4779
   98MOL0     C13452   3.025  11.357   7.286 -0.3269 -0.1843 -0.0016
   98MOL0     C13453   3.163  11.377   7.245 -0.8528  0.2823 -0.2668
   98MOL0     C13454   3.198  11.461   7.126  1.0480 -0.1706 -0.1715
   98MOL0     H13455   3.634  11.058   7.437 -0.8459 -0.1691  0.7989
   98MOL0     H13456   3.877  11.046   7.398  0.8689  2.3683  0.7302
   98MOL0     H13457   4.048  11.131   6.968  1.6332  1.4685 -0.6735
   98MOL0     H13458   4.173  11.094   7.069 -2.4100 -2.7280 -1.8873
   98MOL0     H13459   4.022  11.366   7.089  0.0904  0.6444 -1.2580
   98MOL0     H13460   4.137  11.307   7.201 -3.4337  3.4755  0.4223
   98MOL0     H13461   4.312  11.289   7.004  1.4053  1.0925  0.7649
   98MOL0     H13462   4.177  11.358   6.907  1.1615  0.8124 -1.6889
   98MOL0     H13463   4.191  11.562   7.070  2.0562  2.1763 -0.0925
   98MOL0     H13464   4.332  11.495   7.138 -0.2240  0.2628  0.5130
   98MOL0     H13465   4.386  11.654   6.966 -1.9150 -0.4627  1.3033
   98MOL0     H13466   4.318  11.545   6.840  0.4033  1.5820 -0.1176
   98MOL0     H13467   4.557  11.457   7.014  1.9115  0.8210 -0.0944
   98MOL0     H13468   4.478  11.372   6.889 -0.3903 -1.9139  1.6830
   98MOL0     H13469   4.569  11.507   6.721  1.4280 -0.0342 -0.7581
   98MOL0     H13470   4.696  11.510   6.849  0.5056  0.9601 -1.2588
   98MOL0     H13471   4.506  11.743   6.800 -0.2588  0.4021  2.2977
   98MOL0     H13472   4.616  11.708   6.940  0.7176 -0.4940  0.1018
   98MOL0     H13473   4.734  11.943   6.849 -0.0502 -0.5178 -0.9937
   98MOL0     H13474   4.924  12.053   6.700 -0.5758 -0.5710 -1.7671
   98MOL0     H13475   5.057  11.942   6.635 -2.2114  0.2890 -1.7187
   98MOL0     H13476   5.101  12.067   6.863 -1.9643  1.8114 -4.0365
   98MOL0     H13477   4.973  11.961   6.927  0.7743  0.2209  0.5907
   98MOL0     H13478   5.163  11.832   6.990  0.5950 -1.9081  0.2159
   98MOL0     H13479   5.098  11.762   6.851  1.0057  0.6970 -0.4586
   98MOL0     H13480   5.274  11.841   6.709  1.5170 -2.9611 -0.2146
   98MOL0     H13481   5.340  11.949   6.850 -0.9862 -0.2828 -0.4221
   98MOL0     H13482   5.470  11.862   6.633  0.9815  1.2621  1.8722
   98MOL0     H13483   5.601  11.903   6.454  0.4178 -0.3811 -0.7071
   98MOL0     H13484   5.665  11.747   6.402  0.5471 -0.5414  0.6239
   98MOL0     H13485   5.768  11.874   6.486  0.9018  0.1343  0.5301
   98MOL0     H13486   5.936  11.394   6.484  0.1214 -0.5754  0.5578
   98MOL0     H13487   6.126  11.283   6.350 -0.6797 -0.3817  1.2476
   98MOL0     H13488   6.101  11.432   5.999 -0.1095  1.8516  0.8701
   98MOL0     H13489   6.231  11.553   6.021 -1.3822 -0.0638 -1.5162
   98MOL0     H13490   6.266  11.280   5.887  0.2174 -0.4751  1.4146
   98MOL0     H13491   6.267  11.450   5.828  0.2696  2.1188  1.1874
   98MOL0     H13492   6.471  11.329   6.019  2.1816  2.4256  1.5440
   98MOL0     H13493   6.455  11.508   5.986  0.9031  0.1536  0.0942
   98MOL0     H13494   6.458  11.438   5.743 -1.8042  0.8463  1.0633
   98MOL0     H13495   6.524  11.279   5.795 -4.1330 -1.6019  4.3356
   98MOL0     H13496   6.625  11.559   5.849 -0.3539 -0.7115  1.6766
   98MOL0     H13497   6.716  11.403   5.894  0.2714  2.4884  2.5556
   98MOL0     H13498   6.647  11.482   5.611 -0.7184 -3.9235 -1.0536
   98MOL0     H13499   6.727  11.345   5.665  1.5335  0.9379 -1.5862
   98MOL0     H13500   6.896  11.524   5.604  0.0751  0.8523 -0.1432
   98MOL0     H13501   6.908  11.494   5.776  0.1818 -0.3889 -0.2213
   98MOL0     H13502   6.757  11.710   5.814  2.0843  0.9885  0.6193
   98MOL0     H13503   6.745  11.708   5.637  0.9413 -0.6043 -0.4473
   98MOL0     H13504   6.254  11.659   6.211  0.9056 -0.1768  0.4166
   98MOL0     H13505   6.073  11.770   6.362  1.5628  0.3468  0.4521
   98MOL0     H13506   5.771  11.562   6.860  0.4644 -0.0184 -1.2844
   98MOL0     H13507   5.576  11.623   6.972  3.0380  2.0167  1.5014
   98MOL0     H13508   3.824  11.173   6.999 -0.6609 -2.8202 -0.4145
   98MOL0     H13509   3.587  11.213   7.032  1.1305  0.6891 -0.6205
   98MOL0     H13510   3.286  11.151   7.473  0.5815  1.8725 -0.7270
   98MOL0     H13511   3.055  11.145   7.539 -2.7116 -0.5968 -1.2509
   98MOL0     H13512   2.655  11.310   7.423 -1.5783 -0.4507 -1.4315
   98MOL0     H13513   2.763  11.420   7.334  3.8903  1.2122  3.0684
   98MOL0     H13514   2.740  11.115   7.277 -1.7902  0.5103 -0.5742
   98MOL0     H13515   2.816  11.218   7.173 -0.5958 -1.4366  0.0387
   98MOL0     H13516   2.599  11.130   7.124 -0.8407 -0.7963  2.3422
   98MOL0     H13517   2.514  11.214   7.241  1.8815 -1.4021  0.5642
   98MOL0     H13518   2.574  11.441   7.126  5.5297  0.3071  0.2270
   98MOL0     H13519   2.481  11.332   7.020 -0.5185  1.9004  1.8176
   98MOL0     H13520   2.876  11.328   6.869  0.3800  2.7503 -0.0142
   98MOL0     H13521   2.951  11.414   7.231 -1.9194 -2.7584 -0.6608
   98MOL0     H13522   3.101  11.481   7.080 -1.2354 -0.4727  3.9974
   98MOL0     H13523   3.243  11.557   7.155  0.8251  0.5601 -2.0889
   98MOL0     H13524   3.260  11.406   7.056  0.3794  1.2120 -1.9304
   99MOL0     O13525   7.119   2.036   6.079  0.1419 -0.3767  0.4219
   99MOL0     C13526   7.120   2.060   5.958 -0.6942 -0.1012 -0.0726
   99MOL0     O13527   7.230   2.102   5.897 -0.0290 -0.0688 -0.7323
   99MOL0     C13528   7.358   2.079   5.946 -0.2675 -0.4224 -0.6267
   99MOL0     C13529   7.443   1.979   5.892  0.0293 -0.6267 -0.1967
   99MOL0     C13530   7.581   1.986   5.913  0.5076 -0.5597  0.0534
   99MOL0     C13531   7.640   2.077   5.996 -0.5913  0.0016  0.1525
   99MOL0     O13532   7.777   2.097   6.018  0.5858  0.5136 -0.1517
   99MOL0     C13533   7.867   1.997   5.979 -0.4177  0.4461 -0.6190
   99MOL0     C13534   8.011   2.035   6.001  0.1702 -0.6240 -0.0461
   99MOL0     C13535   8.042   2.059   6.153 -0.4072 -0.4139  1.1586
   99MOL0     C13536   8.070   1.932   6.243 -0.6631 -0.5503 -0.1630
   99MOL0     C13537   8.101   1.965   6.394  0.6447 -0.5244  0.2762
   99MOL0     C13538   8.146   1.852   6.488 -0.1357 -0.0748  0.4946
   99MOL0     C13539   8.141   1.888   6.633  0.7593 -1.0980 -0.2903
   99MOL0     C13540   8.230   2.004   6.679 -0.3036  0.3598 -0.3943
   99MOL0     N13541   8.373   1.959   6.685  0.6381  0.8200  0.6736
   99MOL0     C13542   8.438   1.910   6.794  0.4685  0.2884 -0.0354
   99MOL0     C13543   8.568   1.917   6.755  1.0834 -0.3009 -0.6450
   99MOL0     C13544   8.675   1.880   6.857 -0.1430  0.5507  0.5017
   99MOL0     C13545   8.705   1.973   6.976 -0.5847  0.3867 -0.3450
   99MOL0     C13546   8.773   1.907   7.099 -1.1597 -0.5239 -0.6897
   99MOL0     C13547   8.904   1.832   7.066  0.5108 -0.2357  0.3398
   99MOL0     O13548   8.997   1.919   6.996  0.9739 -0.1112 -0.2982
   99MOL0     C13549   9.119   1.943   7.051  0.5497  0.5359 -0.1217
   99MOL0     C13550   9.165   2.074   7.065  0.1039  0.2287 -0.5343
   99MOL0     C13551   9.292   2.115   7.118 -0.2688  0.3788 -0.3851
   99MOL0     C13552   9.327   2.259   7.132  0.7296  0.2744 -0.7594
   99MOL0     C13553   9.383   2.006   7.156 -0.3122  0.0534 -0.1385
   99MOL0     C13554   9.522   2.021   7.218 -0.0151 -0.6983  0.1168
   99MOL0     O13555   9.606   1.912   7.225 -0.4128  0.2004 -0.1956
   99MOL0     C13556   9.729   1.931   7.285  0.5310 -0.6016 -0.0927
   99MOL0     C13557   9.751   1.957   7.421 -0.1845  0.4699 -0.1398
   99MOL0     C13558   9.881   1.984   7.474  0.4738  0.3465  0.3351
   99MOL0     C13559   9.996   1.991   7.395  0.6137  0.6009 -0.3055
   99MOL0     O13560  10.123   2.029   7.451 -0.0311 -0.1021  0.1760
   99MOL0     C13561  10.165   1.998   7.585  0.4390  0.6586  0.2534
   99MOL0     C13562  10.318   2.017   7.616  0.0936  0.2759 -0.3964
   99MOL0     C13563  10.363   2.169   7.638  0.3755  0.8662  1.4857
   99MOL0     C13564  10.511   2.165   7.684  0.3477  0.4729  0.0398
   99MOL0     C13565  10.587   2.299   7.697 -0.2729 -0.2479 -0.5018
   99MOL0     C13566  10.715   2.292   7.782  0.6751 -0.1633 -0.2857
   99MOL0     C13567  10.774   2.439   7.811 -0.5787  0.3650 -0.4494
   99MOL0     C13568  10.900   2.447   7.889 -0.4190 -0.8643 -0.0972
   99MOL0    Cl13569  10.903   2.619   7.958  0.0054 -0.0426  0.0870
   99MOL0     C13570   9.972   1.968   7.258 -0.4876  0.3445 -0.2567
   99MOL0     C13571   9.842   1.940   7.207 -0.0009  0.2458 -1.0882
   99MOL0     O13572   9.544   2.131   7.260 -0.5868 -0.1537 -0.2676
   99MOL0     C13573   9.340   1.869   7.136  0.3820 -0.1332  1.3794
   99MOL0     C13574   9.211   1.841   7.082  0.4268 -0.2671  0.9833
   99MOL0     N13575   8.580   1.967   6.631 -0.6133 -0.4408  0.4368
   99MOL0     N13576   8.460   1.992   6.582 -0.0906  1.0238  0.4797
   99MOL0     C13577   7.553   2.163   6.062 -0.6842  0.1536 -0.4628
   99MOL0     C13578   7.417   2.172   6.034 -0.4287  0.4120  0.1251
   99MOL0     C13579   6.992   2.057   5.885 -0.2472 -0.5000  0.0206
   99MOL0     C13580   6.961   2.144   5.777  0.2410 -0.0702 -0.2037
   99MOL0     C13581   6.838   2.129   5.705  0.0533  0.1848  0.1042
   99MOL0     C13582   6.740   2.038   5.743 -0.2092  0.0778  0.3077
   99MOL0     O13583   6.621   2.023   5.669 -0.0400  0.1201 -0.5408
   99MOL0     C13584   6.501   2.051   5.746  0.7192 -0.5662  0.0115
   99MOL0     C13585   6.400   1.928   5.763 -0.6247  0.4525  0.5182
   99MOL0     C13586   6.309   1.942   5.890 -0.1718  0.1476  1.2829
   99MOL0     C13587   6.189   1.846   5.895 -0.1559  0.4194  0.4196
   99MOL0     C13588   6.234   1.714   5.947 -0.6674  0.2006  0.1995
   99MOL0     C13589   6.274   1.606   5.999 -0.2652 -0.3864 -0.3244
   99MOL0     C13590   6.775   1.956   5.845 -0.0938  0.1498  0.5603
   99MOL0     C13591   6.898   1.958   5.911 -0.1246  0.3190 -0.0772
   99MOL0     C13592   6.925   1.840   6.003 -0.4727 -0.8170 -0.9026
   99MOL0     H13593   7.406   1.902   5.824 -3.7271  1.3928 -0.6904
   99MOL0     H13594   7.643   1.920   5.853  0.4421 -0.2679 -0.3420
   99MOL0     H13595   7.861   1.971   5.872 -1.0952 -1.2808 -0.1906
   99MOL0     H13596   7.844   1.907   6.036 -0.7847  1.6123  1.1222
   99MOL0     H13597   8.073   1.956   5.959  0.6833 -1.8625  2.8246
   99MOL0     H13598   8.037   2.125   5.944 -1.3614 -0.3603 -0.3914
   99MOL0     H13599   8.122   2.134   6.156  0.3777 -1.1756  0.1540
   99MOL0     H13600   7.954   2.112   6.189  0.5456  2.7001 -0.6917
   99MOL0     H13601   7.990   1.858   6.233  1.2655 -2.5099 -2.3964
   99MOL0     H13602   8.154   1.871   6.208 -1.4964 -1.3384 -0.8399
   99MOL0     H13603   8.015   2.005   6.447  0.0735 -0.2574 -0.8215
   99MOL0     H13604   8.177   2.043   6.396 -0.5879  0.6888  1.3341
   99MOL0     H13605   8.077   1.768   6.479 -2.0964  1.3500  1.6404
   99MOL0     H13606   8.250   1.828   6.464  0.8195  0.5720  3.6291
   99MOL0     H13607   8.165   1.801   6.696  0.9066  0.7351  2.3804
   99MOL0     H13608   8.039   1.918   6.658  1.0166  0.0064 -0.5485
   99MOL0     H13609   8.223   2.088   6.609  0.5602  0.5039 -0.3142
   99MOL0     H13610   8.193   2.050   6.771 -1.4370  2.1574 -1.6710
   99MOL0     H13611   8.394   1.889   6.890 -1.6516 -0.3757 -1.0796
   99MOL0     H13612   8.765   1.883   6.795 -3.0377  0.6729 -4.1665
   99MOL0     H13613   8.645   1.779   6.885 -0.9635  0.6669  0.0728
   99MOL0     H13614   8.778   2.040   6.931 -2.2518 -0.9008 -5.7079
   99MOL0     H13615   8.623   2.039   7.004 -1.5569 -1.1341  0.5484
   99MOL0     H13616   8.798   1.995   7.159  0.0490 -1.6461  0.5136
   99MOL0     H13617   8.708   1.846   7.163  0.0313 -1.4474 -0.3365
   99MOL0     H13618   8.950   1.778   7.149  2.0739 -4.3951 -2.8738
   99MOL0     H13619   8.866   1.756   6.997  0.0453 -0.0469  0.3828
   99MOL0     H13620   9.097   2.158   7.058  0.3695  0.6195  0.9796
   99MOL0     H13621   9.255   2.322   7.081 -1.3637  0.6093  2.3349
   99MOL0     H13622   9.423   2.270   7.081  0.2242  2.0721 -1.3767
   99MOL0     H13623   9.336   2.279   7.239  3.1691  0.9011 -1.0110
   99MOL0     H13624   9.658   1.973   7.475  0.3148  0.2750  0.7847
   99MOL0     H13625   9.888   2.004   7.580 -1.1696  0.9171  0.3652
   99MOL0     H13626  10.103   2.050   7.659 -2.5523 -1.7144 -0.3847
   99MOL0     H13627  10.143   1.891   7.591 -0.1777  0.6649 -1.5141
   99MOL0     H13628  10.344   1.960   7.706 -1.0852 -1.5158 -1.1231
   99MOL0     H13629  10.379   1.959   7.545  2.7924 -1.0796  2.7184
   99MOL0     H13630  10.301   2.213   7.717 -0.3772  2.5017  0.0489
   99MOL0     H13631  10.346   2.226   7.547  0.3063 -1.3728  0.0222
   99MOL0     H13632  10.566   2.104   7.613 -1.3474  2.6206 -3.4085
   99MOL0     H13633  10.519   2.111   7.779  0.4418  1.8034  0.8139
   99MOL0     H13634  10.611   2.348   7.603  0.7033  0.4903  0.1073
   99MOL0     H13635  10.523   2.365   7.757  2.8601  0.0111  2.9701
   99MOL0     H13636  10.783   2.220   7.735  0.0123 -0.6756 -0.4734
   99MOL0     H13637  10.700   2.242   7.878  0.9543  0.9239  0.3438
   99MOL0     H13638  10.706   2.506   7.864  0.5612  0.1112  1.4184
   99MOL0     H13639  10.800   2.494   7.720  4.0040  2.8860  2.0350
   99MOL0     H13640  10.987   2.452   7.822 -1.8522 -0.0960 -2.0218
   99MOL0     H13641  10.916   2.375   7.969  0.4239 -0.3806  0.1796
   99MOL0     H13642  10.052   1.968   7.184 -2.7675  3.0536 -2.9519
   99MOL0     H13643   9.815   1.932   7.102 -0.5933 -1.4161 -0.8440
   99MOL0     H13644   9.401   1.787   7.174 -0.7921 -1.0061  1.4413
   99MOL0     H13645   9.179   1.737   7.074  1.4613 -0.7582  2.5649
   99MOL0     H13646   7.597   2.250   6.110  0.0830  0.4775 -1.7111
   99MOL0     H13647   7.355   2.255   6.064 -2.8858 -1.6423  1.0571
   99MOL0     H13648   7.034   2.221   5.754 -0.0016  0.2536  0.0940
   99MOL0     H13649   6.831   2.176   5.607 -1.9897 -3.3330 -1.6236
   99MOL0     H13650   6.539   2.089   5.841 -2.2428  0.0674  1.0618
   99MOL0     H13651   6.440   2.129   5.699 -2.6574 -2.0003  1.6176
   99MOL0     H13652   6.462   1.838   5.753 -0.3003  0.9485 -3.3415
   99MOL0     H13653   6.339   1.929   5.672  1.7649  1.7633 -1.1710
   99MOL0     H13654   6.375   1.931   5.977  2.2975 -2.2591 -0.7333
   99MOL0     H13655   6.268   2.043   5.880 -0.4467 -0.1185 -0.5142
   99MOL0     H13656   6.150   1.828   5.794 -1.9436  4.0232  0.2817
   99MOL0     H13657   6.111   1.884   5.962  1.5061 -0.4714  2.9772
   99MOL0     H13658   6.290   1.510   6.043 -1.5273 -0.1903  0.6216
   99MOL0     H13659   6.706   1.888   5.894  1.1028 -0.8780  0.8944
   99MOL0     H13660   6.887   1.745   5.965 -0.0713 -1.9821  1.4452
   99MOL0     H13661   7.031   1.814   6.007 -0.7719 -2.0562 -0.6416
   99MOL0     H13662   6.888   1.864   6.104  1.9947  4.3541 -0.8917
  100MOL0     O13663   9.218   4.367   7.734  0.1611  0.5520 -0.0463
  100MOL0     C13664   9.132   4.454   7.756 -0.7541 -0.1283  0.7561
  100MOL0     O13665   9.150   4.596   7.722  0.3828  0.2323 -0.0233
  100MOL0     C13666   9.272   4.638   7.669  1.1194  0.5721  0.0813
  100MOL0     C13667   9.394   4.597   7.718  0.1814 -0.3113 -0.0289
  100MOL0     C13668   9.513   4.633   7.663  0.3860  0.3063  1.1189
  100MOL0     C13669   9.516   4.719   7.548  0.5062 -0.4445  0.3593
  100MOL0     O13670   9.633   4.758   7.485 -0.6172 -0.1311 -0.7207
  100MOL0     C13671   9.758   4.715   7.530  0.1871 -0.0935  0.0518
  100MOL0     C13672   9.866   4.770   7.439  0.0749 -0.3907  0.3907
  100MOL0     C13673   9.853   4.919   7.431 -0.2218 -0.2337  0.4922
  100MOL0     C13674   9.978   4.988   7.378 -0.1831  0.5330 -0.3452
  100MOL0     C13675  10.072   5.020   7.495 -0.3626 -0.3313  0.1202
  100MOL0     C13676  10.209   5.035   7.440 -0.6252 -0.0545 -0.5712
  100MOL0     C13677  10.308   5.074   7.551 -0.6254 -0.5000  0.1159
  100MOL0     C13678  10.457   5.067   7.520 -0.0139  0.2778  0.6397
  100MOL0     N13679  10.505   4.928   7.494 -0.4315 -0.7582  0.6656
  100MOL0     C13680  10.528   4.835   7.591  0.0671 -0.7678  0.3362
  100MOL0     C13681  10.553   4.721   7.520 -0.0822 -0.5398  0.9627
  100MOL0     C13682  10.584   4.586   7.580  0.0046  0.2315 -0.1679
  100MOL0     C13683  10.721   4.528   7.528 -0.2712  0.1150 -0.7469
  100MOL0     C13684  10.828   4.588   7.610 -0.6887  0.2131 -0.7741
  100MOL0     C13685  10.956   4.583   7.539 -0.1365 -0.1966  0.4548
  100MOL0     O13686  11.072   4.619   7.622  0.2070  0.3554 -0.0808
  100MOL0     C13687  11.188   4.627   7.553  0.0758  0.1153  0.1707
  100MOL0     C13688  11.297   4.689   7.617 -0.5776  0.1412  0.2187
  100MOL0     C13689  11.423   4.709   7.556  0.5301  0.7266  0.5807
  100MOL0     C13690  11.507   4.803   7.633 -0.2790 -0.2149  0.1293
  100MOL0     C13691  11.445   4.649   7.423  0.5614  0.5134 -1.5257
  100MOL0     C13692  11.580   4.654   7.356  0.1880 -0.2949 -0.6530
  100MOL0     O13693  11.591   4.552   7.266 -0.4380 -0.3450 -0.1645
  100MOL0     C13694  11.713   4.534   7.194 -0.3917 -0.4649  0.3271
  100MOL0     C13695  11.706   4.409   7.126 -0.4441 -0.6960  0.3995
  100MOL0     C13696  11.815   4.359   7.049  0.7382  0.0407 -0.1629
  100MOL0     C13697  11.923   4.439   7.038  0.2737  0.1323 -0.1657
  100MOL0     O13698  12.021   4.389   6.959 -0.2422 -0.0667  0.1348
  100MOL0     C13699  12.134   4.325   7.026 -1.4353  0.0988 -0.8268
  100MOL0     C13700  12.239   4.414   7.085 -0.0158  0.9664 -0.3090
  100MOL0     C13701  12.339   4.479   6.981  1.1217  0.7479 -0.5081
  100MOL0     C13702  12.279   4.583   6.886 -0.3849  0.2660 -1.3085
  100MOL0     C13703  12.388   4.598   6.791  0.3535  0.5486  0.7112
  100MOL0     C13704  12.519   4.669   6.841  0.4574  0.2457  0.8345
  100MOL0     C13705  12.615   4.704   6.723 -0.7213 -0.3231 -0.4978
  100MOL0     C13706  12.756   4.640   6.734  0.3293  0.0494 -0.1725
  100MOL0    Cl13707  12.828   4.692   6.891  0.1219  0.2582 -0.2252
  100MOL0     C13708  11.931   4.567   7.098 -0.6857  0.0731 -0.2691
  100MOL0     C13709  11.830   4.617   7.181  0.0589  0.2363 -0.5435
  100MOL0     O13710  11.664   4.740   7.387 -0.4052  0.2336 -0.0008
  100MOL0     C13711  11.337   4.577   7.364 -0.5210 -0.4705 -0.5097
  100MOL0     C13712  11.214   4.579   7.425 -0.5062  0.7026 -0.7454
  100MOL0     N13713  10.536   4.752   7.381 -0.7005 -0.5967 -0.2118
  100MOL0     N13714  10.516   4.884   7.368  1.0262  0.0266 -0.2145
  100MOL0     C13715   9.398   4.761   7.496  0.6044 -0.2246  0.6665
  100MOL0     C13716   9.275   4.729   7.556  0.8134  0.2814  0.6621
  100MOL0     C13717   9.027   4.401   7.848  0.3189  0.2358  0.3795
  100MOL0     C13718   9.019   4.265   7.895  0.3172  0.3854 -0.1112
  100MOL0     C13719   8.915   4.216   7.979  0.2837  0.5751 -0.1936
  100MOL0     C13720   8.807   4.298   8.018  0.4114  0.1195  0.2443
  100MOL0     O13721   8.714   4.240   8.106 -0.3078 -0.1356  0.3508
  100MOL0     C13722   8.588   4.309   8.115  0.5647 -0.4712 -0.4266
  100MOL0     C13723   8.489   4.246   8.219 -0.8693 -0.2297 -0.2822
  100MOL0     C13724   8.348   4.312   8.202  0.0671 -0.6401 -0.2216
  100MOL0     C13725   8.291   4.350   8.344  0.4402 -0.4952 -1.0762
  100MOL0     C13726   8.257   4.233   8.416  0.7572  0.5527  0.4584
  100MOL0     C13727   8.244   4.125   8.470  0.1369  0.5462  0.2728
  100MOL0     C13728   8.800   4.429   7.965 -0.1027 -0.1685 -0.3840
  100MOL0     C13729   8.902   4.472   7.880  0.0346  0.4819 -0.5726
  100MOL0     C13730   8.879   4.607   7.817 -1.0755 -1.7737 -0.0956
  100MOL0     H13731   9.407   4.541   7.810  0.5230 -0.8966 -0.4249
  100MOL0     H13732   9.610   4.607   7.705 -0.3881 -0.9689  2.1907
  100MOL0     H13733   9.765   4.606   7.540 -0.5236 -0.0489  1.1115
  100MOL0     H13734   9.775   4.752   7.631 -0.4020 -0.5077  0.3051
  100MOL0     H13735   9.961   4.755   7.490  0.8683  1.8317 -0.3529
  100MOL0     H13736   9.870   4.716   7.344  1.8452 -0.0623  0.2450
  100MOL0     H13737   9.773   4.940   7.360 -2.7637 -0.8778  2.9997
  100MOL0     H13738   9.817   4.963   7.524 -1.4482 -0.9402  0.3779
  100MOL0     H13739  10.027   4.925   7.303  0.2505 -1.4676  1.5325
  100MOL0     H13740   9.956   5.077   7.318 -2.0898 -0.2876 -0.9496
  100MOL0     H13741  10.076   4.944   7.574 -0.9280  1.8311  2.3266
  100MOL0     H13742  10.037   5.113   7.540 -2.5361  0.4174 -2.8075
  100MOL0     H13743  10.246   4.938   7.405  1.8717  0.5639  0.1263
  100MOL0     H13744  10.213   5.104   7.356  1.8731 -0.8121 -1.1598
  100MOL0     H13745  10.297   5.007   7.637 -2.4775 -0.5223 -0.1026
  100MOL0     H13746  10.286   5.174   7.591 -1.3644 -1.0676  1.1960
  100MOL0     H13747  10.480   5.137   7.439  0.0421  2.7770  2.6721
  100MOL0     H13748  10.510   5.113   7.603  0.1261 -0.0536  0.7373
  100MOL0     H13749  10.532   4.857   7.697  2.1994 -0.1105  0.1626
  100MOL0     H13750  10.506   4.521   7.539 -0.2742  1.4271 -1.6381
  100MOL0     H13751  10.571   4.580   7.688  0.1677  0.7528 -0.1133
  100MOL0     H13752  10.721   4.419   7.538 -0.8894 -0.0280 -2.0812
  100MOL0     H13753  10.733   4.554   7.423  2.4042 -1.6232 -0.9613
  100MOL0     H13754  10.794   4.690   7.628 -1.4269 -0.2375  0.5295
  100MOL0     H13755  10.841   4.529   7.702 -1.4243  0.0346 -0.7755
  100MOL0     H13756  10.976   4.481   7.505 -0.6528 -0.9857  2.3782
  100MOL0     H13757  10.932   4.648   7.454  0.9410  0.0334  0.3080
  100MOL0     H13758  11.269   4.722   7.716 -1.1908 -0.4150  0.2347
  100MOL0     H13759  11.466   4.904   7.625 -3.9917 -1.6312 -0.3545
  100MOL0     H13760  11.611   4.809   7.600  0.5753 -1.7111  2.3340
  100MOL0     H13761  11.526   4.777   7.737  0.9957 -0.4738 -0.1501
  100MOL0     H13762  11.623   4.345   7.155 -1.5960  1.2278  1.5263
  100MOL0     H13763  11.825   4.259   7.009  1.1851  0.5873 -1.4550
  100MOL0     H13764  12.102   4.257   7.105 -1.1719  1.9360  0.9123
  100MOL0     H13765  12.176   4.259   6.948 -0.7717 -2.2277  1.3588
  100MOL0     H13766  12.192   4.490   7.147 -0.7724  0.9998 -0.9019
  100MOL0     H13767  12.309   4.353   7.143 -1.1921  0.8249  1.0072
  100MOL0     H13768  12.394   4.401   6.928  0.8559  0.4861 -0.4037
  100MOL0     H13769  12.423   4.516   7.039 -0.4250  0.1870  2.2432
  100MOL0     H13770  12.255   4.675   6.940 -0.1012  0.0676 -0.8377
  100MOL0     H13771  12.185   4.551   6.840 -1.2194 -1.4782  1.3755
  100MOL0     H13772  12.422   4.503   6.748  1.0137  0.5216  1.2739
  100MOL0     H13773  12.350   4.663   6.712  2.3786 -0.6843 -1.4307
  100MOL0     H13774  12.566   4.601   6.913 -1.3113 -1.0709  0.8271
  100MOL0     H13775  12.479   4.758   6.891  1.6760 -0.0934  2.4896
  100MOL0     H13776  12.628   4.812   6.711  1.5046 -0.5665 -0.6369
  100MOL0     H13777  12.571   4.668   6.630  2.6490 -1.6955 -1.7208
  100MOL0     H13778  12.805   4.670   6.641 -0.9846 -1.0185 -1.2654
  100MOL0     H13779  12.755   4.531   6.733  0.4965  0.0186 -2.5339
  100MOL0     H13780  12.020   4.626   7.077  1.2196 -1.3851  2.9486
  100MOL0     H13781  11.839   4.720   7.215  0.5141  0.4050 -1.1586
  100MOL0     H13782  11.339   4.533   7.265 -1.8443  0.5982 -1.0432
  100MOL0     H13783  11.132   4.540   7.366  0.9198 -2.2062 -0.9780
  100MOL0     H13784   9.413   4.829   7.413 -0.2318 -2.1360 -1.1178
  100MOL0     H13785   9.183   4.766   7.512 -0.0360 -2.3753  0.0215
  100MOL0     H13786   9.090   4.193   7.857  1.8999  0.8093  1.8235
  100MOL0     H13787   8.905   4.116   8.020  0.8036  0.4961 -0.2583
  100MOL0     H13788   8.611   4.414   8.137 -2.4517  0.3858 -0.9437
  100MOL0     H13789   8.549   4.301   8.014  2.3460  0.8113 -1.2784
  100MOL0     H13790   8.534   4.249   8.319  1.3022  1.1185 -1.2157
  100MOL0     H13791   8.471   4.140   8.197 -2.5632  0.1560 -0.8676
  100MOL0     H13792   8.361   4.396   8.134  0.4771  2.9417  3.8399
  100MOL0     H13793   8.274   4.258   8.142 -0.9348  0.1748  0.2370
  100MOL0     H13794   8.201   4.410   8.327  1.2020  0.3634 -2.2611
  100MOL0     H13795   8.364   4.409   8.401 -2.2660  1.8219  0.2857
  100MOL0     H13796   8.228   4.025   8.504 -3.0128  0.3459 -1.4191
  100MOL0     H13797   8.719   4.497   7.989  0.6699 -0.5090  3.8813
  100MOL0     H13798   8.899   4.599   7.710 -0.7965  1.0435 -0.3463
  100MOL0     H13799   8.785   4.661   7.836  0.6830  1.4261  0.2984
  100MOL0     H13800   8.947   4.683   7.858 -3.4111 -0.5549  1.7941
  101MOL0     O13801   2.403   7.981   5.381  0.5901 -0.2460  0.3963
  101MOL0     C13802   2.340   7.875   5.378  0.2169  0.2932 -0.5039
  101MOL0     O13803   2.363   7.780   5.472  0.1110  0.3660 -0.0305
  101MOL0     C13804   2.429   7.830   5.583 -0.5891 -1.1651 -0.0710
  101MOL0     C13805   2.566   7.790   5.598 -0.7618 -0.2857 -0.6349
  101MOL0     C13806   2.650   7.847   5.705  0.8086 -0.8763  0.9503
  101MOL0     C13807   2.599   7.940   5.796  0.4546 -0.0932 -0.2862
  101MOL0     O13808   2.682   7.983   5.898 -0.0889  0.1688 -0.6776
  101MOL0     C13809   2.630   8.078   5.987 -0.7995 -0.7216  0.2408
  101MOL0     C13810   2.735   8.112   6.090 -0.0985  0.0639 -0.7210
  101MOL0     C13811   2.864   8.166   6.017 -0.6130 -0.2932  0.4922
  101MOL0     C13812   2.968   8.246   6.101 -0.5947 -0.9476  0.2201
  101MOL0     C13813   3.081   8.296   6.017  0.0935 -1.1370  0.2008
  101MOL0     C13814   3.141   8.415   6.089 -0.5658 -0.4419 -0.6363
  101MOL0     C13815   3.280   8.461   6.033 -0.3275 -0.3073 -0.2747
  101MOL0     C13816   3.309   8.614   6.054 -0.0963 -0.5690 -0.6263
  101MOL0     N13817   3.286   8.659   6.192  0.0384  0.0352  0.5622
  101MOL0     C13818   3.303   8.588   6.313  0.3883  0.6390  0.5098
  101MOL0     C13819   3.308   8.673   6.412  0.3038 -0.4726  0.6945
  101MOL0     C13820   3.346   8.661   6.554 -0.0706  0.4338  1.3981
  101MOL0     C13821   3.492   8.665   6.568 -0.7818  0.5267 -0.7177
  101MOL0     C13822   3.540   8.664   6.718 -0.0951 -0.1350  0.3300
  101MOL0     C13823   3.690   8.675   6.717 -0.2144  0.9959  0.1800
  101MOL0     O13824   3.719   8.815   6.697  0.0279 -0.3084 -0.0752
  101MOL0     C13825   3.848   8.850   6.730 -1.0312  0.2709  0.9875
  101MOL0     C13826   3.947   8.862   6.635 -0.5257  0.2471 -0.2400
  101MOL0     C13827   4.086   8.868   6.667  0.0918  0.4127  0.1222
  101MOL0     C13828   4.179   8.894   6.554  0.3541 -0.0780  0.0574
  101MOL0     C13829   4.124   8.874   6.805 -0.3264  0.0213 -0.0149
  101MOL0     C13830   4.264   8.897   6.854 -0.4680 -0.2323  0.6244
  101MOL0     O13831   4.351   8.959   6.766 -0.1467 -0.0261  0.0895
  101MOL0     C13832   4.477   8.999   6.802 -0.3405  0.7518  0.0686
  101MOL0     C13833   4.553   8.959   6.914  0.3233 -0.3826 -0.4548
  101MOL0     C13834   4.683   9.009   6.944  0.2401  0.0399 -0.7804
  101MOL0     C13835   4.744   9.103   6.861  1.0431  0.5074 -0.0358
  101MOL0     O13836   4.866   9.142   6.900 -1.0268 -0.2735 -0.1933
  101MOL0     C13837   4.950   9.201   6.799  0.6104  0.9125  0.5484
  101MOL0     C13838   5.080   9.251   6.861  0.2791 -0.4653 -0.6018
  101MOL0     C13839   5.176   9.134   6.873  0.3152  0.3805 -0.4336
  101MOL0     C13840   5.293   9.186   6.956  0.0351  0.4823 -0.4184
  101MOL0     C13841   5.410   9.094   6.995  0.4775  0.1883  0.4089
  101MOL0     C13842   5.467   9.009   6.877  0.3917  0.2712 -0.3379
  101MOL0     C13843   5.588   8.925   6.913 -0.8575  0.7530  0.1078
  101MOL0     C13844   5.564   8.842   7.040 -0.5970  0.0650  0.7724
  101MOL0    Cl13845   5.617   8.927   7.185 -0.0601 -0.4297 -0.8840
  101MOL0     C13846   4.673   9.147   6.751  0.6731  0.2835  0.1367
  101MOL0     C13847   4.546   9.091   6.717  0.0159 -0.7044  0.0043
  101MOL0     O13848   4.289   8.864   6.968  0.3137 -0.3929 -0.8751
  101MOL0     C13849   4.021   8.858   6.903  0.2904  0.4236  0.7444
  101MOL0     C13850   3.893   8.842   6.865  1.2327  0.2174 -0.0572
  101MOL0     N13851   3.260   8.791   6.365  0.2213  0.1585 -0.7029
  101MOL0     N13852   3.259   8.784   6.233 -0.0511 -0.1530  0.3276
  101MOL0     C13853   2.462   7.970   5.788  0.0939  0.3430  0.1885
  101MOL0     C13854   2.379   7.916   5.686  0.3847  0.2285 -0.2174
  101MOL0     C13855   2.246   7.849   5.260  0.3115  0.9040 -0.2148
  101MOL0     C13856   2.216   7.712   5.241 -0.1433 -0.0230 -0.0314
  101MOL0     C13857   2.132   7.679   5.133 -0.3685  0.7459  0.0803
  101MOL0     C13858   2.081   7.773   5.044  0.6473  0.1597 -0.3262
  101MOL0     O13859   2.004   7.740   4.934 -0.2172 -0.3091  0.6069
  101MOL0     C13860   1.971   7.609   4.905 -0.3637  0.1165 -0.2155
  101MOL0     C13861   1.889   7.619   4.773  1.0520  0.6421 -0.7706
  101MOL0     C13862   1.965   7.670   4.651  0.0708 -0.3367  0.9558
  101MOL0     C13863   2.019   7.814   4.662  0.5997  0.0057 -0.9103
  101MOL0     C13864   2.056   7.865   4.527 -0.3714 -0.2974 -0.3971
  101MOL0     C13865   2.079   7.922   4.425  0.2744 -0.2037 -0.0940
  101MOL0     C13866   2.106   7.908   5.064  0.1329  0.6913 -0.2190
  101MOL0     C13867   2.194   7.943   5.171  0.9637  0.9229  0.0190
  101MOL0     C13868   2.242   8.086   5.177  0.1407 -0.5040  0.1222
  101MOL0     H13869   2.616   7.728   5.524 -2.5329  1.0657 -3.0946
  101MOL0     H13870   2.755   7.830   5.723  0.8652 -0.9339  0.5703
  101MOL0     H13871   2.536   8.049   6.036 -1.3471  0.1128 -0.2746
  101MOL0     H13872   2.606   8.169   5.932 -0.6106  0.3679  1.8963
  101MOL0     H13873   2.707   8.175   6.175  0.2666 -1.3815  0.4987
  101MOL0     H13874   2.768   8.018   6.135 -0.7592  0.0164 -0.3260
  101MOL0     H13875   2.921   8.080   5.981 -4.0012 -2.4428 -0.2660
  101MOL0     H13876   2.833   8.232   5.936 -2.4249  0.8100  1.9838
  101MOL0     H13877   2.922   8.332   6.150  2.7170  1.2291 -0.1831
  101MOL0     H13878   3.004   8.190   6.188 -0.5762  0.1844  0.9732
  101MOL0     H13879   3.037   8.320   5.920 -0.0989  0.6965  0.7090
  101MOL0     H13880   3.147   8.209   6.005  0.3599 -0.7374 -1.5234
  101MOL0     H13881   3.071   8.499   6.088 -2.0694 -1.5691  1.9487
  101MOL0     H13882   3.155   8.385   6.193 -0.3202  1.5215 -0.0619
  101MOL0     H13883   3.292   8.449   5.925  0.1176  1.6036 -0.4802
  101MOL0     H13884   3.366   8.413   6.080 -0.2122 -1.0116 -1.1658
  101MOL0     H13885   3.416   8.629   6.038  0.6665 -3.2110  1.3734
  101MOL0     H13886   3.244   8.681   5.997  1.0990 -1.4815 -3.1986
  101MOL0     H13887   3.325   8.482   6.327  1.0504  0.9158  1.6882
  101MOL0     H13888   3.305   8.567   6.590 -1.1013 -0.1690 -1.1904
  101MOL0     H13889   3.318   8.747   6.615 -0.6788  1.6589 -0.5164
  101MOL0     H13890   3.534   8.579   6.514 -1.8722  0.3188 -1.2647
  101MOL0     H13891   3.535   8.754   6.523  1.1050 -0.0177 -0.0866
  101MOL0     H13892   3.484   8.740   6.772  1.0032 -0.6634  2.2989
  101MOL0     H13893   3.518   8.570   6.768 -0.8387  0.8981  2.0147
  101MOL0     H13894   3.724   8.634   6.812  2.9613  2.6076 -0.1103
  101MOL0     H13895   3.739   8.627   6.632  2.3748  2.0049  1.0159
  101MOL0     H13896   3.917   8.846   6.532 -0.1567  2.8510 -0.8275
  101MOL0     H13897   4.203   9.001   6.553  0.6338 -0.1387 -0.4343
  101MOL0     H13898   4.126   8.882   6.459 -1.8920  2.7576  0.8038
  101MOL0     H13899   4.271   8.835   6.556  0.6164  0.3519  1.0508
  101MOL0     H13900   4.510   8.881   6.976 -2.3890 -0.0575 -1.7901
  101MOL0     H13901   4.741   8.966   7.025  1.2410 -0.3443 -1.6579
  101MOL0     H13902   4.959   9.133   6.714 -0.7325  1.8550 -0.4068
  101MOL0     H13903   4.899   9.289   6.757 -0.8220 -0.6520 -1.1871
  101MOL0     H13904   5.126   9.333   6.804 -2.5486  0.0304 -2.3999
  101MOL0     H13905   5.057   9.300   6.956  2.9708  3.1466 -1.5717
  101MOL0     H13906   5.206   9.097   6.774  0.1603 -2.0080  0.3533
  101MOL0     H13907   5.126   9.055   6.929  1.5557 -0.1243  0.0013
  101MOL0     H13908   5.256   9.235   7.046  3.5974  0.9318  0.9530
  101MOL0     H13909   5.335   9.269   6.899 -2.8137  3.0681  0.9582
  101MOL0     H13910   5.478   9.156   7.054  0.4395  0.1114  0.5350
  101MOL0     H13911   5.367   9.027   7.071 -0.7683  0.3834 -0.0935
  101MOL0     H13912   5.485   9.070   6.788  1.8003 -1.5402 -1.3677
  101MOL0     H13913   5.401   8.931   6.838  1.9245 -2.9304  2.8473
  101MOL0     H13914   5.673   8.994   6.922 -0.5659  0.9840 -3.1334
  101MOL0     H13915   5.611   8.849   6.838  0.1367  1.4139 -0.2810
  101MOL0     H13916   5.618   8.747   7.043 -0.4719  0.0716 -0.8251
  101MOL0     H13917   5.463   8.802   7.038 -0.9406  0.8027  2.0942
  101MOL0     H13918   4.706   9.230   6.689  0.7392  0.9802  1.0880
  101MOL0     H13919   4.492   9.124   6.629 -0.8489  1.0370  1.1314
  101MOL0     H13920   4.038   8.859   7.011 -0.2636  0.9772  0.8356
  101MOL0     H13921   3.823   8.833   6.947 -1.6050  2.9957 -1.9224
  101MOL0     H13922   2.411   8.041   5.853 -0.2649  0.3121 -0.0585
  101MOL0     H13923   2.288   7.970   5.664  0.9256 -0.0231 -3.6221
  101MOL0     H13924   2.246   7.638   5.315 -2.9844  0.9459  2.2595
  101MOL0     H13925   2.108   7.575   5.114 -0.5199  1.0110 -1.3601
  101MOL0     H13926   2.061   7.547   4.893 -0.8178 -0.5149 -0.4444
  101MOL0     H13927   1.905   7.575   4.985  0.0999 -0.5770 -0.1148
  101MOL0     H13928   1.795   7.671   4.793  0.6527  0.2707 -1.6051
  101MOL0     H13929   1.870   7.511   4.765  1.8203  0.3622  0.7118
  101MOL0     H13930   2.050   7.603   4.634  2.1701  2.2713  0.5950
  101MOL0     H13931   1.899   7.656   4.564  0.0477  0.2499  0.8735
  101MOL0     H13932   2.104   7.816   4.730 -0.3550 -1.1667  0.3814
  101MOL0     H13933   1.940   7.873   4.709 -0.5411 -1.4434 -0.9118
  101MOL0     H13934   2.089   7.975   4.332 -2.6341 -0.9486 -0.9554
  101MOL0     H13935   2.061   7.982   4.998 -2.1337  0.9512  1.5009
  101MOL0     H13936   2.191   8.155   5.109  2.7743  2.1822  0.6977
  101MOL0     H13937   2.225   8.109   5.283 -1.2265  0.0533 -0.1896
  101MOL0     H13938   2.349   8.078   5.156 -0.0287 -1.4316 -0.4774
  102MOL0     O13939   9.397   1.272   8.109  0.1689 -0.2966  0.2914
  102MOL0     C13940   9.338   1.379   8.095 -0.3911  0.6257 -0.0392
  102MOL0     O13941   9.396   1.500   8.090 -0.6742 -0.3565 -0.8836
  102MOL0     C13942   9.532   1.495   8.085  1.1190  0.0648  0.5657
  102MOL0     C13943   9.611   1.508   8.200  0.5679  0.3603  0.4371
  102MOL0     C13944   9.751   1.491   8.199 -0.6164  0.0625 -0.3502
  102MOL0     C13945   9.813   1.449   8.073  0.2284 -0.0453  0.4096
  102MOL0     O13946   9.952   1.427   8.061 -0.3084  0.3775  0.3499
  102MOL0     C13947  10.039   1.474   8.162  0.0173 -0.3673  0.0211
  102MOL0     C13948  10.181   1.462   8.103 -0.0252  0.7670  0.0988
  102MOL0     C13949  10.298   1.483   8.201  0.7813  0.7262  0.9421
  102MOL0     C13950  10.427   1.487   8.119 -0.0183 -0.1710 -0.0705
  102MOL0     C13951  10.534   1.547   8.196 -0.0292  0.0416  0.5860
  102MOL0     C13952  10.666   1.518   8.135 -0.1706 -0.0877 -0.5395
  102MOL0     C13953  10.786   1.578   8.218  0.0913 -0.3308 -0.4036
  102MOL0     C13954  10.915   1.511   8.169  0.0596  0.2687 -0.6368
  102MOL0     N13955  11.033   1.556   8.251 -0.7664  0.8727 -0.5388
  102MOL0     C13956  11.165   1.523   8.219 -0.7767  0.3762 -1.6176
  102MOL0     C13957  11.242   1.599   8.304 -0.0525  0.2156 -0.8362
  102MOL0     C13958  11.382   1.586   8.336  0.2050 -0.9422  0.3460
  102MOL0     C13959  11.474   1.609   8.214  1.0546 -0.1782 -0.3329
  102MOL0     C13960  11.623   1.596   8.247  0.1025  0.2713  0.3014
  102MOL0     C13961  11.660   1.687   8.369 -0.2442  0.1254  0.6238
  102MOL0     O13962  11.787   1.738   8.341 -0.1193  0.3619 -0.3353
  102MOL0     C13963  11.895   1.677   8.398  0.0409  0.3707  0.9147
  102MOL0     C13964  11.908   1.543   8.448 -0.6625 -0.3086  0.4080
  102MOL0     C13965  12.031   1.499   8.497 -1.1686 -0.2289  0.4012
  102MOL0     C13966  12.044   1.362   8.559 -0.1172 -0.6994  0.2647
  102MOL0     C13967  12.144   1.589   8.497  0.1620 -0.5517 -0.2224
  102MOL0     C13968  12.276   1.545   8.553 -0.6274  0.1555 -0.5038
  102MOL0     O13969  12.337   1.436   8.510  0.0292  0.0532  0.1696
  102MOL0     C13970  12.445   1.397   8.585  0.1675  0.4513  0.1077
  102MOL0     C13971  12.547   1.342   8.508 -0.0157  0.2009 -0.4505
  102MOL0     C13972  12.655   1.272   8.563 -0.8062  0.1151 -0.5900
  102MOL0     C13973  12.674   1.274   8.702 -0.5445 -0.3890  0.3112
  102MOL0     O13974  12.785   1.231   8.771 -0.1028 -0.4388 -0.0417
  102MOL0     C13975  12.879   1.144   8.699  0.5737 -0.2116  0.6262
  102MOL0     C13976  12.986   1.235   8.638 -0.2579 -0.2654  0.4867
  102MOL0     C13977  13.077   1.311   8.744 -0.1304  0.4201  0.4483
  102MOL0     C13978  13.184   1.394   8.666  0.3217  0.8488  0.4106
  102MOL0     C13979  13.289   1.458   8.760  0.2874  0.4035  0.2853
  102MOL0     C13980  13.217   1.560   8.852 -0.4457  0.8833  0.7302
  102MOL0     C13981  13.147   1.673   8.792  0.7178 -0.5944  0.8121
  102MOL0     C13982  13.174   1.795   8.875  0.5417  0.0866 -0.1285
  102MOL0    Cl13983  13.041   1.921   8.843 -0.5351 -0.4213  0.0099
  102MOL0     C13984  12.576   1.345   8.778 -0.1716  0.2330 -0.3386
  102MOL0     C13985  12.465   1.405   8.725 -1.3967 -0.2716 -0.8467
  102MOL0     O13986  12.320   1.618   8.644  0.0594 -0.4885  0.3301
  102MOL0     C13987  12.117   1.723   8.456  0.1263  0.4612  0.2518
  102MOL0     C13988  11.999   1.766   8.407 -0.3444  0.4178  0.3898
  102MOL0     N13989  11.159   1.672   8.387 -0.9800 -0.7138 -0.2663
  102MOL0     N13990  11.039   1.649   8.352  0.9094  0.7299  0.6007
  102MOL0     C13991   9.727   1.436   7.965 -0.7998  0.6740  0.1432
  102MOL0     C13992   9.594   1.460   7.966 -0.0785  1.0335  0.8348
  102MOL0     C13993   9.194   1.383   8.105 -0.2216 -0.0074 -0.1109
  102MOL0     C13994   9.133   1.508   8.087 -0.0145 -0.4375 -0.7606
  102MOL0     C13995   8.997   1.519   8.107  0.7825  0.0475  0.5987
  102MOL0     C13996   8.915   1.410   8.134  0.9001  0.0000 -0.2033
  102MOL0     O13997   8.788   1.429   8.173  0.4792  0.6307 -0.2857
  102MOL0     C13998   8.717   1.553   8.178  0.7940 -0.7867  0.3295
  102MOL0     C13999   8.559   1.540   8.202 -0.1584 -0.2099 -0.6961
  102MOL0     C14000   8.533   1.520   8.357 -0.5737  0.5554  0.2774
  102MOL0     C14001   8.405   1.431   8.383  0.5857 -0.6259  0.3395
  102MOL0     C14002   8.393   1.410   8.524  0.2917  0.3718 -0.3599
  102MOL0     C14003   8.396   1.390   8.641 -0.0154  0.4146 -0.0709
  102MOL0     C14004   8.976   1.282   8.162 -1.4210 -0.4234  0.3711
  102MOL0     C14005   9.113   1.265   8.138  0.2271 -0.7946 -0.7113
  102MOL0     C14006   9.170   1.129   8.156 -0.6122  0.4597 -0.7464
  102MOL0     H14007   9.566   1.540   8.293 -1.1504  0.2033 -0.3040
  102MOL0     H14008   9.807   1.502   8.292 -0.8292  1.2729 -0.3487
  102MOL0     H14009  10.035   1.416   8.255  0.1495 -1.6694 -0.7546
  102MOL0     H14010  10.007   1.577   8.180  1.0576 -0.2677  1.5712
  102MOL0     H14011  10.189   1.356   8.075  0.2091  1.0781 -1.0412
  102MOL0     H14012  10.172   1.525   8.014  0.1187 -1.2766 -1.4307
  102MOL0     H14013  10.282   1.579   8.250  1.3293 -0.0145  2.6519
  102MOL0     H14014  10.310   1.408   8.280 -0.9157  1.1329  1.6147
  102MOL0     H14015  10.456   1.386   8.088  0.3672 -0.0304 -0.1689
  102MOL0     H14016  10.412   1.550   8.031  2.9239 -0.6233 -1.0129
  102MOL0     H14017  10.529   1.499   8.294  3.3187 -1.3905  0.1560
  102MOL0     H14018  10.528   1.656   8.211  1.0685  0.4264 -1.4023
  102MOL0     H14019  10.674   1.410   8.121  1.4587 -0.1617  0.6457
  102MOL0     H14020  10.668   1.579   8.045  1.3076 -0.7837 -1.0085
  102MOL0     H14021  10.774   1.551   8.323 -0.3564  0.1381 -0.3341
  102MOL0     H14022  10.783   1.687   8.222 -2.1403 -0.2764  5.1257
  102MOL0     H14023  10.907   1.403   8.182 -0.1053  0.3768  0.1648
  102MOL0     H14024  10.938   1.543   8.067 -0.6188 -0.5018 -1.0384
  102MOL0     H14025  11.198   1.443   8.153 -5.0086 -1.0598 -2.2776
  102MOL0     H14026  11.400   1.489   8.384 -0.5034 -1.2872 -0.0671
  102MOL0     H14027  11.397   1.666   8.409  0.8159 -0.3304 -0.4244
  102MOL0     H14028  11.459   1.535   8.135 -2.0477 -0.0726  0.0449
  102MOL0     H14029  11.456   1.699   8.154  1.8889  0.6360  0.5942
  102MOL0     H14030  11.662   1.498   8.278  0.2995  0.9711  2.4930
  102MOL0     H14031  11.683   1.620   8.159 -0.2232 -2.4097 -0.7304
  102MOL0     H14032  11.589   1.768   8.390 -0.4512  0.1647 -0.2054
  102MOL0     H14033  11.664   1.625   8.459 -2.4802  2.0443  2.1782
  102MOL0     H14034  11.822   1.476   8.447  0.0292 -1.2320  0.7660
  102MOL0     H14035  12.098   1.294   8.493  3.3684  2.0349  0.0026
  102MOL0     H14036  11.952   1.309   8.584  0.2712 -2.7699 -2.3002
  102MOL0     H14037  12.102   1.361   8.652  0.2080  0.3383  0.0935
  102MOL0     H14038  12.534   1.341   8.400 -2.1993  1.2789 -0.2722
  102MOL0     H14039  12.729   1.226   8.498 -0.0481 -1.2242  1.1477
  102MOL0     H14040  12.925   1.083   8.777 -1.1568  0.3542  2.1401
  102MOL0     H14041  12.834   1.080   8.622 -3.4755  2.9847 -0.0290
  102MOL0     H14042  13.048   1.163   8.584 -1.0227 -0.5828  0.0076
  102MOL0     H14043  12.951   1.303   8.560  2.7737  0.7394 -0.1201
  102MOL0     H14044  13.123   1.235   8.809  1.6128 -0.1527 -1.3358
  102MOL0     H14045  13.011   1.374   8.803 -0.8666  1.0373 -0.9898
  102MOL0     H14046  13.130   1.477   8.619  2.1120  1.6752 -0.2576
  102MOL0     H14047  13.245   1.331   8.601  2.6881 -0.6878  3.8040
  102MOL0     H14048  13.341   1.381   8.817 -0.8128 -1.0897 -0.6298
  102MOL0     H14049  13.367   1.512   8.705  0.9155 -0.1786  0.5885
  102MOL0     H14050  13.287   1.594   8.928  1.6669  3.1037 -1.9748
  102MOL0     H14051  13.136   1.509   8.906 -0.6234  0.6293  0.2355
  102MOL0     H14052  13.043   1.643   8.780  0.9679 -0.8928 -0.8396
  102MOL0     H14053  13.187   1.689   8.691 -0.0999 -2.0357  0.2257
  102MOL0     H14054  13.261   1.853   8.845  1.0057 -0.0970  0.8412
  102MOL0     H14055  13.175   1.765   8.980 -0.2905 -0.7889 -0.3507
  102MOL0     H14056  12.588   1.345   8.886 -2.4700 -0.3051 -0.0276
  102MOL0     H14057  12.394   1.454   8.790 -0.8735  1.3817 -1.4556
  102MOL0     H14058  12.203   1.788   8.469  1.0632 -0.8755  0.9155
  102MOL0     H14059  11.995   1.871   8.379  2.2635  0.9402  1.5880
  102MOL0     H14060   9.780   1.403   7.876  0.1526 -1.1529  1.3150
  102MOL0     H14061   9.544   1.433   7.873  0.1629  4.4452 -0.4195
  102MOL0     H14062   9.196   1.596   8.072  3.0829 -1.3947  4.2176
  102MOL0     H14063   8.950   1.616   8.096 -0.2333 -0.5264 -0.2458
  102MOL0     H14064   8.753   1.618   8.258 -0.6348  2.1102 -1.2218
  102MOL0     H14065   8.739   1.607   8.085 -3.3408 -2.8559 -2.1500
  102MOL0     H14066   8.512   1.454   8.155 -0.7142  0.4815 -1.4121
  102MOL0     H14067   8.503   1.624   8.162 -1.3213 -2.0185 -3.0712
  102MOL0     H14068   8.619   1.466   8.397 -1.0468 -0.4647 -0.0597
  102MOL0     H14069   8.521   1.619   8.404 -0.9399  0.1541  1.0469
  102MOL0     H14070   8.413   1.341   8.321  5.6986  0.7038 -1.3599
  102MOL0     H14071   8.311   1.475   8.350  1.4059  2.6053  1.9469
  102MOL0     H14072   8.407   1.360   8.744  1.8567 -1.5179 -0.7515
  102MOL0     H14073   8.909   1.199   8.182 -3.0849  0.4476 -1.3287
  102MOL0     H14074   9.209   1.127   8.258 -2.0378  0.8770 -0.1739
  102MOL0     H14075   9.086   1.059   8.159 -0.1124 -0.1571 -0.9005
  102MOL0     H14076   9.248   1.094   8.087 -1.0017 -2.0957  0.0255
  103MOL0     O14077   0.493   7.690   8.295 -0.3654 -0.1199  0.6515
  103MOL0     C14078   0.437   7.763   8.379  0.0268 -0.9364 -0.9960
  103MOL0     O14079   0.457   7.899   8.402 -0.3563  0.6829  0.5875
  103MOL0     C14080   0.559   7.954   8.334 -0.7222 -0.6782 -1.0987
  103MOL0     C14081   0.530   8.078   8.263  0.0020 -0.0537 -0.3584
  103MOL0     C14082   0.629   8.151   8.199  0.0778  0.2815  0.4839
  103MOL0     C14083   0.766   8.102   8.190 -0.8607 -1.1052  0.1019
  103MOL0     O14084   0.866   8.171   8.125 -0.8215 -0.1925  0.4170
  103MOL0     C14085   0.958   8.073   8.061 -0.8473  0.5017  0.4633
  103MOL0     C14086   1.034   8.136   7.936 -0.7209 -0.0067  0.3946
  103MOL0     C14087   0.938   8.206   7.835 -0.3579 -0.5701  0.4391
  103MOL0     C14088   1.012   8.283   7.729 -0.2668 -0.2931  0.5742
  103MOL0     C14089   0.919   8.371   7.641  0.1748  0.3167  0.1870
  103MOL0     C14090   0.832   8.292   7.539  0.6883 -0.2722 -0.3164
  103MOL0     C14091   0.792   8.368   7.415 -0.5545 -0.8786 -0.3724
  103MOL0     C14092   0.710   8.498   7.454 -0.1862 -0.8284  0.8099
  103MOL0     N14093   0.691   8.574   7.326  0.2951 -0.2080  0.0729
  103MOL0     C14094   0.647   8.702   7.319  0.2064 -0.3099  0.9007
  103MOL0     C14095   0.631   8.738   7.187 -0.1420  0.2194  0.5500
  103MOL0     C14096   0.582   8.880   7.138 -0.2581  0.3343  0.6781
  103MOL0     C14097   0.708   8.948   7.094  0.0146 -0.6969  0.0925
  103MOL0     C14098   0.678   9.110   7.084 -0.4608  0.1239 -0.1773
  103MOL0     C14099   0.811   9.186   7.054 -0.2925  0.1181 -0.0491
  103MOL0     O14100   0.821   9.206   6.909  0.5518  0.4650 -0.2243
  103MOL0     C14101   0.942   9.233   6.866 -0.4440 -0.0600  0.2310
  103MOL0     C14102   1.010   9.123   6.817  0.8572 -0.8322 -0.5657
  103MOL0     C14103   1.135   9.136   6.760 -0.3553  0.3467  0.1458
  103MOL0     C14104   1.183   9.010   6.703 -0.0404 -0.0561 -0.6026
  103MOL0     C14105   1.202   9.264   6.758 -0.5904 -1.3868  0.2507
  103MOL0     C14106   1.334   9.291   6.688  0.2986 -0.5790  0.1875
  103MOL0     O14107   1.368   9.419   6.673  0.4660  0.0249 -0.8243
  103MOL0     C14108   1.488   9.459   6.630 -0.3559 -0.0209  0.9692
  103MOL0     C14109   1.601   9.423   6.697  0.6091  1.1681  0.3347
  103MOL0     C14110   1.725   9.471   6.646 -0.3694  0.1585 -0.2988
  103MOL0     C14111   1.736   9.544   6.530 -0.4404 -0.3396  0.3995
  103MOL0     O14112   1.854   9.610   6.489  0.6676  0.3810 -0.3936
  103MOL0     C14113   1.966   9.605   6.578 -0.6178  0.8191  0.2733
  103MOL0     C14114   2.070   9.695   6.516 -0.5890 -0.4917  0.4003
  103MOL0     C14115   2.188   9.710   6.615 -0.4605  0.0245 -0.9842
  103MOL0     C14116   2.327   9.700   6.557 -0.2064 -0.3079 -0.0007
  103MOL0     C14117   2.366   9.571   6.494 -0.4943 -0.1432 -0.7262
  103MOL0     C14118   2.363   9.448   6.585  0.4778 -0.5936 -0.4904
  103MOL0     C14119   2.404   9.320   6.512 -0.6058  0.5712  0.1353
  103MOL0     C14120   2.524   9.333   6.412  0.2728 -0.8506 -0.6795
  103MOL0    Cl14121   2.594   9.172   6.360 -0.2528 -0.0617 -0.2619
  103MOL0     C14122   1.617   9.567   6.456  0.3366 -0.4029 -0.9176
  103MOL0     C14123   1.499   9.527   6.508  0.4076 -0.8993 -0.5762
  103MOL0     O14124   1.401   9.190   6.652 -1.1302  0.6314  0.0533
  103MOL0     C14125   1.122   9.370   6.812  0.3640 -0.4239 -0.3707
  103MOL0     C14126   0.993   9.360   6.864 -0.3746 -0.3446 -0.5718
  103MOL0     N14127   0.683   8.631   7.118 -0.0196 -0.2713  0.2059
  103MOL0     N14128   0.707   8.532   7.197  0.3753 -0.7733 -0.3181
  103MOL0     C14129   0.790   7.986   8.261  0.1764 -0.0352 -0.3493
  103MOL0     C14130   0.691   7.908   8.322  0.6271  0.6881 -0.7501
  103MOL0     C14131   0.309   7.716   8.439 -0.0400  0.7829  0.7805
  103MOL0     C14132   0.221   7.805   8.492  0.1249 -0.3631 -0.6665
  103MOL0     C14133   0.087   7.791   8.530 -0.3909  0.8681 -0.2394
  103MOL0     C14134   0.035   7.661   8.518  0.5652 -0.2507 -0.3692
  103MOL0     O14135  -0.103   7.655   8.540 -0.2561  0.0914  0.1317
  103MOL0     C14136  -0.171   7.527   8.520  0.1530  0.6485 -0.1044
  103MOL0     C14137  -0.321   7.543   8.513  0.3236 -0.5245  0.4771
  103MOL0     C14138  -0.358   7.649   8.410 -0.2472  0.3237 -0.7054
  103MOL0     C14139  -0.510   7.644   8.395 -0.1616  0.7345  0.1178
  103MOL0     C14140  -0.548   7.754   8.313 -0.7808 -0.9776 -0.0531
  103MOL0     C14141  -0.567   7.850   8.233  0.1796 -0.7913  0.4784
  103MOL0     C14142   0.124   7.559   8.473 -0.8725  0.0990 -0.5562
  103MOL0     C14143   0.259   7.583   8.445 -0.5158 -0.0142  0.4822
  103MOL0     C14144   0.345   7.460   8.419  0.6789  0.4082 -0.1437
  103MOL0     H14145   0.427   8.113   8.258  0.9207  2.8058 -1.3662
  103MOL0     H14146   0.603   8.240   8.143  2.4772  1.0031  0.4282
  103MOL0     H14147   0.907   7.982   8.027 -2.1862  1.0462  0.9794
  103MOL0     H14148   1.037   8.050   8.134  1.0238 -1.4301 -1.9608
  103MOL0     H14149   1.102   8.213   7.973  0.3746  0.1221 -1.7578
  103MOL0     H14150   1.093   8.056   7.892 -2.1461 -1.5491  1.1401
  103MOL0     H14151   0.882   8.127   7.784 -0.0369 -0.3036 -0.3440
  103MOL0     H14152   0.873   8.270   7.896 -1.6697 -1.2371 -0.2093
  103MOL0     H14153   1.085   8.349   7.778  0.6943 -0.0335 -1.1273
  103MOL0     H14154   1.063   8.214   7.661  0.9464  2.2914 -1.3342
  103MOL0     H14155   0.982   8.438   7.583 -0.6969 -0.5005 -1.7863
  103MOL0     H14156   0.856   8.439   7.700 -1.2178  0.1541 -1.0589
  103MOL0     H14157   0.893   8.207   7.507  1.3125 -0.0141  0.1668
  103MOL0     H14158   0.735   8.262   7.579 -0.3000  2.7714 -0.2273
  103MOL0     H14159   0.734   8.302   7.349 -0.3930  0.8085 -2.2900
  103MOL0     H14160   0.880   8.391   7.354 -2.9843 -0.2455 -3.9396
  103MOL0     H14161   0.613   8.478   7.500  0.1578 -2.2819  0.9368
  103MOL0     H14162   0.772   8.551   7.527 -0.7692 -0.4225  1.0207
  103MOL0     H14163   0.611   8.756   7.406 -1.9628  0.5149 -0.4235
  103MOL0     H14164   0.537   8.943   7.215  0.2121  1.0133  0.4113
  103MOL0     H14165   0.515   8.882   7.052 -0.0309  2.9826  0.4811
  103MOL0     H14166   0.787   8.934   7.168 -0.3293 -1.1263  0.3809
  103MOL0     H14167   0.746   8.921   6.995 -1.0298  3.6489 -1.7372
  103MOL0     H14168   0.607   9.134   7.005 -0.3738 -0.3482 -0.4011
  103MOL0     H14169   0.636   9.145   7.179 -3.8930 -2.7711 -0.4152
  103MOL0     H14170   0.802   9.284   7.103  1.2973  0.7562 -0.9396
  103MOL0     H14171   0.899   9.139   7.099  0.1079 -0.7249 -1.6455
  103MOL0     H14172   0.966   9.024   6.827  0.7546 -0.6435  1.1522
  103MOL0     H14173   1.260   9.020   6.625  1.0898  1.2569  0.6258
  103MOL0     H14174   1.098   8.954   6.664 -1.9549  0.7718  2.1353
  103MOL0     H14175   1.235   8.967   6.789  0.7954  0.0949 -1.0245
  103MOL0     H14176   1.584   9.373   6.791 -2.2911  1.4052  0.0424
  103MOL0     H14177   1.810   9.439   6.706 -2.7030 -0.0904  3.1828
  103MOL0     H14178   1.941   9.630   6.682  3.3876  1.6434  1.2079
  103MOL0     H14179   2.002   9.501   6.583  0.0267  1.0363  0.2804
  103MOL0     H14180   2.108   9.651   6.423 -1.0814  0.6555 -0.3695
  103MOL0     H14181   2.019   9.786   6.482 -1.5812 -0.2757  2.3537
  103MOL0     H14182   2.182   9.635   6.694  0.1756 -0.8611 -1.7577
  103MOL0     H14183   2.177   9.811   6.655 -0.7664  0.9446 -3.2253
  103MOL0     H14184   2.401   9.727   6.633 -1.2805 -0.5081  1.1619
  103MOL0     H14185   2.326   9.774   6.477 -0.0838 -0.0091  0.2713
  103MOL0     H14186   2.303   9.545   6.408 -0.2147 -2.1502 -0.3539
  103MOL0     H14187   2.460   9.593   6.442 -0.8541 -1.0281 -1.7945
  103MOL0     H14188   2.270   9.433   6.640  1.0930  0.5940  0.9328
  103MOL0     H14189   2.425   9.476   6.670 -0.6984  1.0558 -0.1164
  103MOL0     H14190   2.325   9.263   6.463  1.4847 -2.3462 -0.1282
  103MOL0     H14191   2.440   9.259   6.596 -0.1841  0.0889 -0.3904
  103MOL0     H14192   2.602   9.399   6.451  0.6550 -1.2921 -0.6897
  103MOL0     H14193   2.475   9.377   6.324 -0.2393  2.4830  1.1241
  103MOL0     H14194   1.625   9.632   6.369  0.8293  1.6507  0.5747
  103MOL0     H14195   1.408   9.549   6.453  1.0625  3.9616 -0.1867
  103MOL0     H14196   1.180   9.460   6.796  1.9169 -0.8450  2.2797
  103MOL0     H14197   0.935   9.436   6.915 -1.7827 -0.8514 -1.3595
  103MOL0     H14198   0.891   7.947   8.264  1.0695  1.8453 -2.6952
  103MOL0     H14199   0.725   7.812   8.361  1.7477  1.3607 -0.0286
  103MOL0     H14200   0.244   7.911   8.495 -2.5173  0.2877 -0.2849
  103MOL0     H14201   0.027   7.865   8.583 -2.9770 -1.7618  0.7404
  103MOL0     H14202  -0.132   7.488   8.426  2.4299 -1.2642  1.5071
  103MOL0     H14203  -0.144   7.452   8.595  1.1339 -0.7173 -1.7561
  103MOL0     H14204  -0.368   7.563   8.610  0.2498  1.4802  0.0693
  103MOL0     H14205  -0.357   7.447   8.474 -2.2019  0.6808 -0.3152
  103MOL0     H14206  -0.324   7.746   8.447  0.3097 -0.2351  0.3199
  103MOL0     H14207  -0.307   7.622   8.317  2.9432 -0.8525  1.2083
  103MOL0     H14208  -0.559   7.643   8.493  0.4285  0.0099  0.4215
  103MOL0     H14209  -0.529   7.549   8.345  1.8599  0.2650  0.1362
  103MOL0     H14210  -0.598   7.925   8.162  0.7202  1.1460  2.1764
  103MOL0     H14211   0.084   7.459   8.455 -0.1188  0.2372 -3.5632
  103MOL0     H14212   0.451   7.484   8.429  0.2579  2.7362 -0.7271
  103MOL0     H14213   0.326   7.385   8.497 -0.3498  0.3958 -0.3901
  103MOL0     H14214   0.333   7.408   8.323 -1.4421 -2.9190  1.7290
  104MOL0     O14215   1.474   1.110   5.371  0.2054 -0.5215 -0.1675
  104MOL0     C14216   1.461   1.002   5.421  0.2582  0.1131  0.7279
  104MOL0     O14217   1.553   0.905   5.420 -0.0485  0.1184  0.1609
  104MOL0     C14218   1.671   0.924   5.349  0.2927  0.3839  0.7685
  104MOL0     C14219   1.779   0.998   5.399  1.0023  0.2041  0.4799
  104MOL0     C14220   1.894   1.020   5.325  0.7354 -0.5290  0.4846
  104MOL0     C14221   1.901   0.965   5.193 -1.7294 -0.0331 -0.0726
  104MOL0     O14222   2.015   0.983   5.118  0.3739 -0.3152  0.0219
  104MOL0     C14223   2.143   0.958   5.187  0.2355  0.0570  0.6666
  104MOL0     C14224   2.229   0.863   5.115 -0.4486 -0.7286 -0.2235
  104MOL0     C14225   2.341   0.815   5.210 -0.6468 -0.7028 -0.2470
  104MOL0     C14226   2.409   0.684   5.153 -0.4153  0.0251 -0.3795
  104MOL0     C14227   2.502   0.607   5.255  0.5549 -0.5814  0.3687
  104MOL0     C14228   2.618   0.688   5.279  0.2172 -0.3414 -0.0673
  104MOL0     C14229   2.722   0.601   5.365  0.2307 -0.5142 -0.1058
  104MOL0     C14230   2.858   0.642   5.310  0.0114 -0.4127  0.1262
  104MOL0     N14231   2.956   0.562   5.374 -0.5103  0.3242  0.6826
  104MOL0     C14232   3.002   0.436   5.340 -0.2163  0.4160 -0.3667
  104MOL0     C14233   3.119   0.413   5.408 -0.7298 -0.0267 -0.3551
  104MOL0     C14234   3.194   0.293   5.422 -0.8700  0.4263 -0.1506
  104MOL0     C14235   3.342   0.317   5.391  0.2311 -0.3559  0.0548
  104MOL0     C14236   3.409   0.175   5.379  0.1523 -0.5830  1.0392
  104MOL0     C14237   3.548   0.177   5.311 -0.9621  0.1760 -0.1293
  104MOL0     O14238   3.622   0.290   5.355 -0.3572 -0.9650 -0.2055
  104MOL0     C14239   3.758   0.295   5.329  0.9481  0.7959  0.2833
  104MOL0     C14240   3.836   0.373   5.415  0.2236 -0.2140  0.4904
  104MOL0     C14241   3.977   0.381   5.408  0.0537 -0.6091 -0.2736
  104MOL0     C14242   4.049   0.471   5.508  0.3474 -0.5128  0.3526
  104MOL0     C14243   4.046   0.314   5.306 -0.5172  0.3663  0.2641
  104MOL0     C14244   4.199   0.308   5.285  0.7176 -0.0452 -0.3688
  104MOL0     O14245   4.279   0.382   5.356 -0.0426 -0.1174  0.0425
  104MOL0     C14246   4.407   0.401   5.321 -0.4790  0.2213 -0.5594
  104MOL0     C14247   4.510   0.338   5.397 -0.0639 -0.7691 -0.2024
  104MOL0     C14248   4.647   0.368   5.365  0.4272  0.3235 -0.3421
  104MOL0     C14249   4.681   0.456   5.264 -0.4078  0.6157  0.9053
  104MOL0     O14250   4.813   0.479   5.238 -0.0669  0.0814  0.0246
  104MOL0     C14251   4.856   0.532   5.110  0.6445  0.1294  0.4437
  104MOL0     C14252   4.821   0.445   4.993 -0.1931  0.6532  0.3399
  104MOL0     C14253   4.926   0.444   4.878  0.4044 -0.9767  0.4270
  104MOL0     C14254   4.895   0.333   4.782  0.3233 -0.0883 -0.5297
  104MOL0     C14255   5.006   0.327   4.680 -0.2902  0.1537 -1.2179
  104MOL0     C14256   4.983   0.222   4.580  0.2791  0.4576 -0.1505
  104MOL0     C14257   5.055   0.252   4.455  0.0720 -0.5111  1.0099
  104MOL0     C14258   5.058   0.139   4.343  0.4123 -0.0743 -0.4195
  104MOL0    Cl14259   5.133  -0.004   4.424 -0.2007 -0.2399 -0.0831
  104MOL0     C14260   4.579   0.532   5.200  0.0692  0.3962 -0.8924
  104MOL0     C14261   4.443   0.500   5.227 -0.6082 -0.3507 -0.0721
  104MOL0     O14262   4.238   0.240   5.193 -0.4952  0.4908 -0.2425
  104MOL0     C14263   3.963   0.240   5.213  1.2264  0.3694  0.0846
  104MOL0     C14264   3.824   0.236   5.222  0.1336  0.8851  0.1396
  104MOL0     N14265   3.136   0.525   5.489  0.4870 -0.6353  0.0195
  104MOL0     N14266   3.043   0.614   5.459  0.1184 -0.6378  0.0472
  104MOL0     C14267   1.799   0.890   5.139  0.6245 -0.1021 -0.5889
  104MOL0     C14268   1.688   0.860   5.226  0.5282 -1.2403  0.2742
  104MOL0     C14269   1.330   0.964   5.474 -0.4626  0.1737  0.5625
  104MOL0     C14270   1.321   0.844   5.540  0.1622 -0.4663 -0.5989
  104MOL0     C14271   1.218   0.811   5.624 -0.4053 -0.1855 -0.5762
  104MOL0     C14272   1.114   0.905   5.644  0.3450  0.0799  0.9098
  104MOL0     O14273   1.001   0.860   5.706  0.0073  0.3913 -0.8769
  104MOL0     C14274   0.878   0.851   5.625 -1.0689 -0.3197 -1.0341
  104MOL0     C14275   0.753   0.884   5.719 -0.6413  0.5544  0.4398
  104MOL0     C14276   0.616   0.898   5.644 -0.6282  0.3935  0.0349
  104MOL0     C14277   0.508   0.846   5.739 -0.5447  0.9940  0.0159
  104MOL0     C14278   0.381   0.885   5.691  0.6258 -0.4316 -0.5555
  104MOL0     C14279   0.276   0.935   5.659  1.0754 -0.3764 -0.3346
  104MOL0     C14280   1.112   1.022   5.564  0.9141  0.1447 -0.4557
  104MOL0     C14281   1.212   1.046   5.474 -0.4332 -0.3319  0.8491
  104MOL0     C14282   1.201   1.161   5.376 -0.0127 -1.0331 -0.3729
  104MOL0     H14283   1.781   1.043   5.497  0.5711 -0.2052  0.6770
  104MOL0     H14284   1.975   1.085   5.356 -0.3603  0.7256  0.7871
  104MOL0     H14285   2.125   0.922   5.289  2.5554 -0.5602  0.8987
  104MOL0     H14286   2.191   1.057   5.185 -0.4174  0.4038  1.2970
  104MOL0     H14287   2.172   0.774   5.085  1.2333 -1.8161 -0.3426
  104MOL0     H14288   2.264   0.908   5.021 -1.7144  0.3510 -0.1973
  104MOL0     H14289   2.408   0.901   5.213 -2.2460  0.6098 -0.5601
  104MOL0     H14290   2.319   0.792   5.315  0.9441 -1.4045 -0.0411
  104MOL0     H14291   2.328   0.616   5.124  1.2267 -2.0284 -0.4156
  104MOL0     H14292   2.463   0.705   5.060 -1.2218 -0.4654 -0.9774
  104MOL0     H14293   2.524   0.504   5.225  0.3455 -1.7226  3.6829
  104MOL0     H14294   2.445   0.593   5.347  0.4412 -0.0509  0.3825
  104MOL0     H14295   2.659   0.726   5.184 -1.7754  0.9834 -0.4600
  104MOL0     H14296   2.581   0.769   5.343  0.4461 -0.4497  0.2030
  104MOL0     H14297   2.698   0.495   5.359 -1.0739 -0.2366 -0.0000
  104MOL0     H14298   2.713   0.634   5.469  0.3029 -0.7185 -0.0340
  104MOL0     H14299   2.850   0.609   5.206  2.6514 -2.5164  0.5005
  104MOL0     H14300   2.874   0.750   5.317 -1.9186 -0.1112  0.6251
  104MOL0     H14301   2.960   0.353   5.283 -0.1869  0.8036 -0.9601
  104MOL0     H14302   3.148   0.212   5.364 -0.1570 -0.3311  0.3078
  104MOL0     H14303   3.180   0.252   5.522  2.2303 -0.1263  0.1533
  104MOL0     H14304   3.338   0.360   5.290 -1.4778 -0.3268  0.0952
  104MOL0     H14305   3.384   0.371   5.475  0.1351 -1.3995  0.7935
  104MOL0     H14306   3.424   0.133   5.479 -0.8642 -1.0974  0.9899
  104MOL0     H14307   3.345   0.100   5.331  1.7074 -1.6789  0.5825
  104MOL0     H14308   3.603   0.086   5.337  0.9017  1.1189 -0.5641
  104MOL0     H14309   3.522   0.180   5.205 -4.0841  0.4126  0.5673
  104MOL0     H14310   3.783   0.411   5.501 -1.6150  1.2468 -1.2047
  104MOL0     H14311   3.979   0.495   5.589 -0.0024  1.5065 -0.4935
  104MOL0     H14312   4.095   0.559   5.464  0.9862 -0.5977  0.8340
  104MOL0     H14313   4.131   0.410   5.547 -0.3703 -2.5977 -1.1979
  104MOL0     H14314   4.478   0.265   5.471  1.5916 -0.4320  0.8998
  104MOL0     H14315   4.722   0.310   5.418 -0.3089 -0.9073 -0.6038
  104MOL0     H14316   4.807   0.628   5.097  2.2998  0.8566 -0.7221
  104MOL0     H14317   4.964   0.550   5.110  0.4574  1.3474  0.9603
  104MOL0     H14318   4.819   0.341   5.028  4.1392  0.2696 -0.0184
  104MOL0     H14319   4.719   0.465   4.960 -0.1877  1.2829  0.7061
  104MOL0     H14320   5.020   0.422   4.930  1.4824  0.2242 -0.9126
  104MOL0     H14321   4.912   0.539   4.825 -1.3245 -0.9525  0.8637
  104MOL0     H14322   4.803   0.346   4.724 -0.5762 -1.1636  0.6144
  104MOL0     H14323   4.886   0.235   4.830  0.1549  0.7786  1.2872
  104MOL0     H14324   5.008   0.425   4.632  1.1894  1.0002  0.4705
  104MOL0     H14325   5.101   0.323   4.734 -0.6936  2.8735 -0.1373
  104MOL0     H14326   4.875   0.222   4.562  0.1825  0.6859  0.3893
  104MOL0     H14327   5.005   0.128   4.631 -1.0680  1.0138  1.5523
  104MOL0     H14328   5.162   0.273   4.463  0.7460 -2.9675 -0.6025
  104MOL0     H14329   5.002   0.344   4.428 -1.0411  0.1023  4.6503
  104MOL0     H14330   5.117   0.181   4.261  0.7806  0.5171  0.1433
  104MOL0     H14331   4.954   0.132   4.308 -0.0294  2.7090  0.1523
  104MOL0     H14332   4.596   0.605   5.122 -1.4308  0.7070 -0.9663
  104MOL0     H14333   4.370   0.548   5.162  3.1475  2.4395 -2.6878
  104MOL0     H14334   4.004   0.188   5.127 -1.8966  1.3185 -2.1576
  104MOL0     H14335   3.776   0.187   5.138  2.0530  0.0492 -0.5082
  104MOL0     H14336   1.818   0.844   5.042 -0.0816  0.9489 -1.2379
  104MOL0     H14337   1.616   0.792   5.181 -0.6488 -1.6501  2.6482
  104MOL0     H14338   1.406   0.779   5.559  1.4786  1.8543  2.1776
  104MOL0     H14339   1.211   0.713   5.670  0.4916 -0.5695 -1.2354
  104MOL0     H14340   0.875   0.928   5.547  1.6130  2.9094  1.6941
  104MOL0     H14341   0.870   0.750   5.583  1.2405  0.2595 -3.0729
  104MOL0     H14342   0.771   0.983   5.761  1.6922  0.1245  0.6085
  104MOL0     H14343   0.762   0.806   5.795  0.4815  1.3322  1.1174
  104MOL0     H14344   0.596   1.005   5.637  2.0109  0.9793  0.4103
  104MOL0     H14345   0.617   0.845   5.548  2.0840  0.4220 -0.0371
  104MOL0     H14346   0.521   0.871   5.845 -0.8524 -1.2726  0.6477
  104MOL0     H14347   0.515   0.737   5.726 -1.1279  1.2364 -2.8350
  104MOL0     H14348   0.180   0.981   5.645  2.4879  2.8179 -0.2724
  104MOL0     H14349   1.033   1.096   5.571 -2.0819 -2.9208  1.6979
  104MOL0     H14350   1.245   1.125   5.283  1.9338 -1.1433  0.5438
  104MOL0     H14351   1.096   1.191   5.369  1.1170  3.6808 -0.8320
  104MOL0     H14352   1.258   1.253   5.395  2.0307 -2.5041  1.0351
  105MOL0     O14353   6.258   4.891   0.487  0.6384  0.5252 -0.3737
  105MOL0     C14354   6.183   4.816   0.549  0.1177  0.5622  0.4499
  105MOL0     O14355   6.198   4.681   0.565 -0.5289 -0.1597  0.0101
  105MOL0     C14356   6.299   4.615   0.495 -0.3100 -0.8611  0.0315
  105MOL0     C14357   6.286   4.596   0.354 -0.6923  0.8055 -0.2658
  105MOL0     C14358   6.382   4.519   0.289  0.2148 -0.2055  0.3169
  105MOL0     C14359   6.480   4.447   0.355  0.7374  0.0385  0.2520
  105MOL0     O14360   6.564   4.367   0.277  0.6049  0.6364  0.5024
  105MOL0     C14361   6.654   4.284   0.354  0.0794 -0.4761 -0.3651
  105MOL0     C14362   6.718   4.172   0.271 -0.0717 -0.0981 -0.4304
  105MOL0     C14363   6.611   4.065   0.261 -0.3569 -0.0513 -0.0357
  105MOL0     C14364   6.646   3.955   0.162 -0.2680 -0.1868 -0.1903
  105MOL0     C14365   6.753   3.861   0.205 -0.0337  0.1803  0.4584
  105MOL0     C14366   6.694   3.763   0.309 -1.1561 -0.5202  0.0921
  105MOL0     C14367   6.798   3.662   0.363  0.4632  0.0362 -0.2491
  105MOL0     C14368   6.834   3.552   0.272 -0.3791  0.2101  0.0350
  105MOL0     N14369   6.935   3.464   0.334  0.3852  0.0964 -0.3021
  105MOL0     C14370   7.062   3.509   0.361  0.1015 -0.5319  0.0522
  105MOL0     C14371   7.117   3.419   0.446  0.9016  0.4037  1.1854
  105MOL0     C14372   7.257   3.433   0.490  0.0591 -0.9306  0.4035
  105MOL0     C14373   7.332   3.297   0.500  0.9189  0.1059  0.4951
  105MOL0     C14374   7.463   3.306   0.585  0.6506 -0.2770 -0.6020
  105MOL0     C14375   7.577   3.238   0.523 -0.1730  0.5397 -0.2652
  105MOL0     O14376   7.690   3.260   0.599 -0.4675  0.4578 -1.0673
  105MOL0     C14377   7.806   3.194   0.570  0.1304  1.5366 -0.8155
  105MOL0     C14378   7.827   3.089   0.477 -0.1093 -0.7287 -0.0379
  105MOL0     C14379   7.949   3.019   0.465  0.4980  0.4498  0.5702
  105MOL0     C14380   7.950   2.898   0.377 -0.3784  0.5964 -0.0473
  105MOL0     C14381   8.059   3.063   0.540 -0.7501 -0.9684  0.0233
  105MOL0     C14382   8.187   3.001   0.536  0.2745 -0.4253 -0.0196
  105MOL0     O14383   8.282   3.097   0.510 -0.3722  0.2338  0.2512
  105MOL0     C14384   8.419   3.056   0.514 -0.3705  0.2769 -0.2026
  105MOL0     C14385   8.509   3.132   0.589 -0.1258 -0.7980  0.1061
  105MOL0     C14386   8.645   3.096   0.598 -0.4992  0.2178  0.3865
  105MOL0     C14387   8.695   2.985   0.527 -0.6326 -0.1981  0.6139
  105MOL0     O14388   8.823   2.954   0.521  0.3041  0.4172 -0.3545
  105MOL0     C14389   8.908   3.052   0.580  0.4806 -0.1119 -0.1032
  105MOL0     C14390   9.061   3.023   0.548 -0.7601 -0.5977  0.9117
  105MOL0     C14391   9.161   3.073   0.652  1.0921 -0.2224 -0.0792
  105MOL0     C14392   9.308   3.047   0.598 -0.2053  0.3912  0.6093
  105MOL0     C14393   9.399   3.150   0.663  0.0108 -0.7745 -0.2788
  105MOL0     C14394   9.420   3.125   0.816  0.3964 -0.1717 -0.1017
  105MOL0     C14395   9.546   3.195   0.853  0.1404  0.0381  0.1657
  105MOL0     C14396   9.572   3.196   1.000 -0.3145 -0.2198  0.0236
  105MOL0    Cl14397   9.743   3.140   1.035  0.5048 -0.1884 -0.2837
  105MOL0     C14398   8.607   2.907   0.454  0.5852  0.2299 -0.0331
  105MOL0     C14399   8.469   2.937   0.462 -0.1410  0.5171  1.2367
  105MOL0     O14400   8.206   2.880   0.545  0.6644  0.3861 -0.2170
  105MOL0     C14401   8.039   3.165   0.632 -0.5196  0.2544  0.7006
  105MOL0     C14402   7.914   3.230   0.646  1.0729 -0.1160 -0.4606
  105MOL0     N14403   7.022   3.313   0.461  0.6564 -0.6383 -0.0859
  105MOL0     N14404   6.910   3.355   0.409 -0.5480 -0.2805  0.2772
  105MOL0     C14405   6.493   4.472   0.493 -1.2615 -0.5091  0.5922
  105MOL0     C14406   6.407   4.556   0.555 -0.3844  0.0102 -0.6124
  105MOL0     C14407   6.065   4.882   0.626 -0.7859 -0.6247  0.0197
  105MOL0     C14408   5.993   4.814   0.725  0.4198  0.0752  0.0089
  105MOL0     C14409   5.877   4.860   0.778  0.8008  0.8984  0.5038
  105MOL0     C14410   5.824   4.988   0.753  0.0721 -0.2214 -0.1148
  105MOL0     O14411   5.728   5.050   0.832 -0.8387  0.0240 -0.4232
  105MOL0     C14412   5.698   5.006   0.966 -0.3558  0.5119 -0.1503
  105MOL0     C14413   5.627   5.116   1.033  0.0746  0.5183 -0.5100
  105MOL0     C14414   5.493   5.129   0.967 -0.4434  0.8873  0.9431
  105MOL0     C14415   5.394   5.024   1.000  0.0247 -0.7696 -0.8731
  105MOL0     C14416   5.261   5.069   0.972  0.3770  0.0318 -0.4287
  105MOL0     C14417   5.148   5.100   0.959  0.8394 -0.5174  0.0057
  105MOL0     C14418   5.901   5.061   0.672 -0.0602 -0.4263  0.5889
  105MOL0     C14419   6.015   5.014   0.594 -0.1838  0.8615  0.1549
  105MOL0     C14420   6.081   5.113   0.491 -1.0264 -0.1451 -0.6706
  105MOL0     H14421   6.199   4.637   0.303 -0.7076  0.3260 -0.6306
  105MOL0     H14422   6.378   4.510   0.181 -0.7681 -3.6169  0.5273
  105MOL0     H14423   6.612   4.240   0.444  0.3870  1.2189  0.6580
  105MOL0     H14424   6.734   4.354   0.380  0.2015 -1.1441  1.1630
  105MOL0     H14425   6.765   4.221   0.186  2.3280  1.5035  1.6613
  105MOL0     H14426   6.800   4.127   0.327  0.3621  1.0507 -0.1089
  105MOL0     H14427   6.595   4.026   0.362  0.7043  0.2174  0.2476
  105MOL0     H14428   6.515   4.103   0.225 -0.3797 -0.6394 -0.6292
  105MOL0     H14429   6.552   3.903   0.144 -0.9638  0.4445  1.4107
  105MOL0     H14430   6.669   4.004   0.067 -1.2973 -1.7401 -1.2719
  105MOL0     H14431   6.836   3.906   0.260 -0.5426 -0.2961  1.6345
  105MOL0     H14432   6.784   3.799   0.120 -2.4442 -0.4780 -0.0192
  105MOL0     H14433   6.660   3.814   0.400  0.5541  2.1897 -0.6890
  105MOL0     H14434   6.612   3.712   0.257 -1.1616 -1.3202  0.8498
  105MOL0     H14435   6.758   3.625   0.458 -0.4982  0.4344 -0.4850
  105MOL0     H14436   6.879   3.729   0.396 -1.2996  3.0002 -1.5370
  105MOL0     H14437   6.751   3.484   0.250 -1.0914  1.8073 -2.6691
  105MOL0     H14438   6.876   3.583   0.175 -0.0094 -4.9544 -1.7838
  105MOL0     H14439   7.105   3.602   0.325  1.2833 -1.3581 -0.7120
  105MOL0     H14440   7.266   3.476   0.590 -0.1194 -1.6542  0.7337
  105MOL0     H14441   7.307   3.506   0.425 -2.6873  1.4080  0.6732
  105MOL0     H14442   7.269   3.226   0.555  1.1092  0.0438  0.6323
  105MOL0     H14443   7.353   3.253   0.402  2.5821  1.5762  0.1580
  105MOL0     H14444   7.487   3.412   0.577  2.5532 -0.6006  0.3772
  105MOL0     H14445   7.439   3.267   0.685 -2.1874 -0.2269 -1.1701
  105MOL0     H14446   7.557   3.130   0.514 -1.7530  0.7993 -0.1610
  105MOL0     H14447   7.584   3.270   0.419 -4.0883 -2.6580 -1.8235
  105MOL0     H14448   7.740   3.054   0.423 -0.7853  1.4002 -0.4179
  105MOL0     H14449   7.854   2.887   0.327 -0.8758  0.3568  0.9334
  105MOL0     H14450   7.965   2.813   0.444  0.1581  1.5999  1.1524
  105MOL0     H14451   8.035   2.907   0.309  0.5319 -1.5826  0.7061
  105MOL0     H14452   8.469   3.217   0.643 -2.6871 -2.3155  0.7788
  105MOL0     H14453   8.707   3.168   0.650 -0.0198  0.0228  0.0974
  105MOL0     H14454   8.881   3.152   0.544 -0.1406  0.6927  2.4042
  105MOL0     H14455   8.893   3.043   0.688  0.0373  2.1849  0.0871
  105MOL0     H14456   9.063   2.916   0.526  0.8279 -0.2144 -1.0596
  105MOL0     H14457   9.085   3.067   0.451 -1.7760 -2.7496 -0.3823
  105MOL0     H14458   9.158   3.023   0.749  2.0243  3.5764  2.0996
  105MOL0     H14459   9.141   3.180   0.660  3.2203  0.1820  0.4271
  105MOL0     H14460   9.311   3.052   0.489 -2.2343 -0.3235  0.4708
  105MOL0     H14461   9.347   2.949   0.628  1.1499  0.7978  0.2301
  105MOL0     H14462   9.486   3.135   0.599  1.6911 -2.1196  2.1767
  105MOL0     H14463   9.363   3.251   0.641 -1.2117 -1.4735 -1.7115
  105MOL0     H14464   9.419   3.019   0.840 -0.3699 -0.0154  0.6087
  105MOL0     H14465   9.324   3.164   0.853 -0.6436 -0.1756 -2.5607
  105MOL0     H14466   9.543   3.301   0.827  0.6647  0.1668  0.5975
  105MOL0     H14467   9.628   3.157   0.791  0.3314  0.6739  0.0251
  105MOL0     H14468   9.490   3.142   1.048 -0.7179  0.1912 -0.1849
  105MOL0     H14469   9.570   3.301   1.033 -3.3717 -0.3941  0.7319
  105MOL0     H14470   8.633   2.818   0.398 -1.2086 -0.5149  0.2560
  105MOL0     H14471   8.405   2.870   0.405 -1.6738  1.9747  1.1574
  105MOL0     H14472   8.127   3.194   0.688  1.0938 -1.1959 -0.9389
  105MOL0     H14473   7.898   3.304   0.723 -1.9318 -2.5735  1.5205
  105MOL0     H14474   6.571   4.427   0.553 -3.4186 -1.0740  3.1563
  105MOL0     H14475   6.410   4.562   0.663 -0.8634  2.6366 -0.6789
  105MOL0     H14476   6.032   4.716   0.749  3.4960  0.3985 -2.8042
  105MOL0     H14477   5.832   4.807   0.862 -1.4101  3.0190  0.7687
  105MOL0     H14478   5.634   4.918   0.956 -3.0439  2.0809  1.9843
  105MOL0     H14479   5.786   4.978   1.025 -0.5210 -2.9635 -1.3369
  105MOL0     H14480   5.678   5.211   1.015  1.0472 -0.2302 -1.9129
  105MOL0     H14481   5.609   5.108   1.140 -1.6483  1.9888 -0.6350
  105MOL0     H14482   5.450   5.225   0.997 -0.9378  0.6691  0.9531
  105MOL0     H14483   5.502   5.121   0.858 -0.0727  2.4350  0.8466
  105MOL0     H14484   5.396   5.004   1.107 -0.2054  2.8910 -0.0777
  105MOL0     H14485   5.420   4.931   0.948  0.8140 -0.6920 -0.6307
  105MOL0     H14486   5.044   5.125   0.952  0.9290  1.6140  3.5350
  105MOL0     H14487   5.869   5.162   0.651 -1.1708 -1.1763 -1.6762
  105MOL0     H14488   6.015   5.200   0.482  0.9613  1.6593  1.0082
  105MOL0     H14489   6.180   5.144   0.525  0.0213 -3.6872 -0.0533
  105MOL0     H14490   6.086   5.075   0.389  0.2668  2.6834 -1.7752
  106MOL0     O14491   8.356   8.252   8.117  0.0588 -0.2014 -0.3917
  106MOL0     C14492   8.338   8.229   8.235 -0.5818  0.8871  0.4393
  106MOL0     O14493   8.409   8.133   8.312  0.1453 -0.1403  0.1351
  106MOL0     C14494   8.502   8.062   8.243 -0.5503  0.1569  1.0773
  106MOL0     C14495   8.614   8.137   8.191  0.2198 -0.2787 -0.5754
  106MOL0     C14496   8.704   8.081   8.105  1.0193  0.2439  0.3859
  106MOL0     C14497   8.681   7.948   8.056 -0.0955  0.0548  0.0946
  106MOL0     O14498   8.768   7.893   7.964  0.0623  0.1334  0.0611
  106MOL0     C14499   8.900   7.881   8.028  0.1634  0.1982  0.0715
  106MOL0     C14500   8.986   7.808   7.926  0.1899 -0.3233 -0.0679
  106MOL0     C14501   9.053   7.905   7.826  0.1440  0.3488 -0.7398
  106MOL0     C14502   9.175   7.968   7.888  0.5692 -1.0610 -0.6517
  106MOL0     C14503   9.266   8.028   7.783  0.0891  0.0478  0.4446
  106MOL0     C14504   9.339   8.155   7.846  0.0521  0.9959  0.3980
  106MOL0     C14505   9.429   8.224   7.748  0.3711 -0.8109 -0.1806
  106MOL0     C14506   9.518   8.328   7.814 -0.0082 -0.6550  0.1252
  106MOL0     N14507   9.628   8.287   7.895 -0.2532  0.3139 -0.8030
  106MOL0     C14508   9.701   8.172   7.869 -0.7801 -0.7293 -0.7350
  106MOL0     C14509   9.784   8.175   7.972  0.0449  0.0882 -0.0457
  106MOL0     C14510   9.887   8.056   8.004 -0.6776 -0.6980  0.5555
  106MOL0     C14511   9.878   8.010   8.151  0.6347  0.4908  0.0683
  106MOL0     C14512   9.742   7.946   8.179 -0.7326  0.5848 -0.6177
  106MOL0     C14513   9.628   8.040   8.205  0.7852 -1.1273  0.0148
  106MOL0     O14514   9.513   7.960   8.255 -0.2791 -0.8409  0.1640
  106MOL0     C14515   9.400   8.031   8.272  0.5282 -0.0712  0.0171
  106MOL0     C14516   9.389   8.171   8.283  0.1366  0.4098  0.7072
  106MOL0     C14517   9.267   8.227   8.304 -0.4460 -0.0507 -0.6367
  106MOL0     C14518   9.275   8.380   8.300 -0.0675 -0.8820 -1.0760
  106MOL0     C14519   9.148   8.153   8.333  0.0349 -0.2927 -0.4925
  106MOL0     C14520   9.015   8.208   8.357 -0.1650  0.6367 -0.2753
  106MOL0     O14521   9.014   8.341   8.402  0.6586  0.2015  0.2593
  106MOL0     C14522   8.883   8.388   8.402  0.2177 -0.4334  0.0782
  106MOL0     C14523   8.823   8.460   8.283 -0.2138  1.7542 -0.9046
  106MOL0     C14524   8.694   8.507   8.290 -0.5176 -1.0057  0.0406
  106MOL0     C14525   8.615   8.474   8.403  0.4177 -0.0948  0.6241
  106MOL0     O14526   8.481   8.506   8.422 -0.3551 -0.6302 -0.9943
  106MOL0     C14527   8.419   8.622   8.361  0.2157  0.0007 -0.4297
  106MOL0     C14528   8.422   8.744   8.454  0.1663 -0.0221 -0.3847
  106MOL0     C14529   8.556   8.810   8.456  0.4998 -0.6837  0.1175
  106MOL0     C14530   8.566   8.932   8.549 -0.5623 -0.3294  0.0022
  106MOL0     C14531   8.707   8.988   8.570 -0.3292  0.4344  0.7417
  106MOL0     C14532   8.707   9.109   8.668  0.8458 -0.2270 -0.2737
  106MOL0     C14533   8.853   9.158   8.691  0.8236  0.0586  0.0727
  106MOL0     C14534   8.847   9.302   8.717 -0.4563 -0.0791 -0.1562
  106MOL0    Cl14535   8.991   9.336   8.815  0.0652  0.3653 -0.4828
  106MOL0     C14536   8.672   8.397   8.510  0.4915  0.4566 -0.8592
  106MOL0     C14537   8.803   8.365   8.514  0.0926 -0.2593  0.0230
  106MOL0     O14538   8.921   8.133   8.329 -0.3252  0.0059  0.1056
  106MOL0     C14539   9.162   8.009   8.331 -0.4104  0.4198 -0.1761
  106MOL0     C14540   9.282   7.955   8.294  1.0224  0.2104 -0.8298
  106MOL0     N14541   9.770   8.295   8.049  0.4053 -0.0296  0.0959
  106MOL0     N14542   9.673   8.356   8.006  0.4643 -1.0445  0.5134
  106MOL0     C14543   8.575   7.875   8.102  0.0022  0.3541 -1.1578
  106MOL0     C14544   8.483   7.937   8.194 -0.0956 -0.4086 -0.5767
  106MOL0     C14545   8.224   8.292   8.301 -0.4110 -0.6430  0.0239
  106MOL0     C14546   8.207   8.283   8.443 -0.4851  0.8109  0.2301
  106MOL0     C14547   8.102   8.353   8.513  0.5399 -0.0587  0.2168
  106MOL0     C14548   8.004   8.420   8.437 -0.1314  0.4417 -0.9731
  106MOL0     O14549   7.901   8.494   8.492 -0.4688 -0.5215  0.6239
  106MOL0     C14550   7.890   8.518   8.634 -0.8922  0.5360  0.4531
  106MOL0     C14551   7.764   8.601   8.664 -0.1346 -0.2942  0.1582
  106MOL0     C14552   7.771   8.755   8.618 -0.3369  1.0623  0.1770
  106MOL0     C14553   7.641   8.831   8.668  0.1518  0.1352 -0.5500
  106MOL0     C14554   7.650   8.865   8.806 -0.8197  0.0550  0.0873
  106MOL0     C14555   7.653   8.905   8.920 -0.5625 -1.3032  0.8103
  106MOL0     C14556   8.019   8.428   8.303 -0.5566  0.5579  0.6250
  106MOL0     C14557   8.125   8.375   8.233  0.2372  0.6477 -0.0476
  106MOL0     C14558   8.123   8.411   8.076 -0.7685  0.3607 -0.8065
  106MOL0     H14559   8.626   8.241   8.221 -0.1907 -1.0507  2.5872
  106MOL0     H14560   8.776   8.153   8.069  0.8016  0.1660 -0.2258
  106MOL0     H14561   8.879   7.812   8.110 -1.0770  1.3307  0.7443
  106MOL0     H14562   8.938   7.974   8.072  1.0239  1.2488 -2.6896
  106MOL0     H14563   9.056   7.742   7.979  1.5876  0.8730 -0.3555
  106MOL0     H14564   8.925   7.736   7.869  0.6580 -0.7743 -0.0087
  106MOL0     H14565   9.073   7.842   7.739 -0.8898 -0.5162 -0.3674
  106MOL0     H14566   8.980   7.984   7.802  1.0028  1.3973 -0.0062
  106MOL0     H14567   9.144   8.048   7.955  1.3711 -0.9626 -0.3839
  106MOL0     H14568   9.225   7.890   7.945 -0.3995 -0.7219  0.7027
  106MOL0     H14569   9.206   8.062   7.698  0.3362 -1.0998 -0.2122
  106MOL0     H14570   9.338   7.960   7.736 -1.1191 -1.0687  0.1796
  106MOL0     H14571   9.265   8.225   7.889  1.1921  2.1498  0.5533
  106MOL0     H14572   9.389   8.118   7.936  1.1270  0.5411 -0.3722
  106MOL0     H14573   9.360   8.268   7.676 -1.3536 -0.1166  1.7844
  106MOL0     H14574   9.483   8.141   7.701 -0.1369 -1.4492  0.3437
  106MOL0     H14575   9.568   8.390   7.739 -0.6412  2.5488  2.1741
  106MOL0     H14576   9.461   8.409   7.861  2.5570 -0.1719  2.6738
  106MOL0     H14577   9.698   8.097   7.790  2.7828 -2.7495  0.7904
  106MOL0     H14578   9.988   8.095   7.988  0.2917 -3.7941 -2.2178
  106MOL0     H14579   9.869   7.971   7.936 -0.0027  0.2674 -0.8933
  106MOL0     H14580   9.953   7.932   8.144  2.3329  1.9471  1.1212
  106MOL0     H14581   9.913   8.085   8.223 -1.2314 -1.2960  3.0601
  106MOL0     H14582   9.716   7.877   8.098 -0.1875 -0.7754  0.3283
  106MOL0     H14583   9.762   7.889   8.270 -0.1384  4.2218  1.7661
  106MOL0     H14584   9.669   8.120   8.268  1.6210 -1.6241  0.1217
  106MOL0     H14585   9.587   8.075   8.110  0.7098  2.2569  1.1564
  106MOL0     H14586   9.475   8.232   8.255 -0.4407  0.6019 -0.6988
  106MOL0     H14587   9.282   8.409   8.406  0.5978 -0.5603 -1.2000
  106MOL0     H14588   9.195   8.419   8.237  0.8589 -0.3983 -1.9756
  106MOL0     H14589   9.368   8.418   8.257 -0.8930 -0.2878 -2.4094
  106MOL0     H14590   8.884   8.485   8.197  1.7294 -1.6229 -0.6675
  106MOL0     H14591   8.657   8.574   8.213 -2.7442 -2.0143  0.1532
  106MOL0     H14592   8.470   8.635   8.265 -0.1962 -2.8181 -1.1128
  106MOL0     H14593   8.314   8.602   8.336  0.0308  2.5278 -2.1735
  106MOL0     H14594   8.342   8.814   8.426  0.6296  1.2747  1.3890
  106MOL0     H14595   8.396   8.711   8.555 -0.7552  0.9098 -0.2999
  106MOL0     H14596   8.583   8.854   8.359  1.5380  2.8437  1.8110
  106MOL0     H14597   8.632   8.737   8.485 -0.7233 -2.3545 -0.7514
  106MOL0     H14598   8.529   8.916   8.650  0.6645 -2.2299  0.1957
  106MOL0     H14599   8.497   9.009   8.513 -2.6881 -1.7872  0.7894
  106MOL0     H14600   8.772   8.914   8.616  0.8509  0.8380 -0.2157
  106MOL0     H14601   8.741   9.030   8.475  4.3255  0.6243  2.2275
  106MOL0     H14602   8.650   9.069   8.753 -2.1510 -2.1151 -2.9340
  106MOL0     H14603   8.639   9.185   8.627  2.4514  1.4998  0.1322
  106MOL0     H14604   8.910   9.131   8.602  0.2225 -0.3755 -0.1851
  106MOL0     H14605   8.891   9.106   8.779 -1.2772 -3.0454 -0.7078
  106MOL0     H14606   8.757   9.333   8.771  0.2252  0.8693  0.4715
  106MOL0     H14607   8.839   9.349   8.619 -2.5641 -0.1566 -0.0728
  106MOL0     H14608   8.609   8.370   8.594  0.8646 -1.1762 -1.0716
  106MOL0     H14609   8.839   8.314   8.603 -0.5846  2.2428  1.8375
  106MOL0     H14610   9.073   7.947   8.341  1.0747 -2.5995 -3.4915
  106MOL0     H14611   9.269   7.847   8.291  1.1489  0.1199  0.8239
  106MOL0     H14612   8.563   7.774   8.064  2.3536 -0.1143 -0.8086
  106MOL0     H14613   8.384   7.895   8.204 -0.5445  0.2749 -1.8303
  106MOL0     H14614   8.264   8.204   8.492 -2.1326 -0.9590 -0.5635
  106MOL0     H14615   8.091   8.345   8.620  2.6866  1.2437  0.5835
  106MOL0     H14616   7.890   8.420   8.683  1.5840  1.5172  2.6651
  106MOL0     H14617   7.976   8.580   8.661 -0.5615  1.1758 -1.8771
  106MOL0     H14618   7.751   8.623   8.771 -0.8318  2.5326 -0.4189
  106MOL0     H14619   7.668   8.560   8.632 -0.3103 -0.2059  0.5577
  106MOL0     H14620   7.865   8.795   8.657  0.7410 -0.4357 -0.7626
  106MOL0     H14621   7.786   8.754   8.509  2.7049 -3.2126  0.3597
  106MOL0     H14622   7.558   8.761   8.662  1.7873 -1.8799 -0.8706
  106MOL0     H14623   7.623   8.920   8.607 -3.4986 -1.5466 -2.2608
  106MOL0     H14624   7.656   8.946   9.019 -0.4746  1.2173 -0.1680
  106MOL0     H14625   7.948   8.483   8.242  0.0867  0.1279 -0.5404
  106MOL0     H14626   8.142   8.314   8.031 -0.0918  0.0293  0.1638
  106MOL0     H14627   8.026   8.450   8.042 -2.5335 -3.2183 -0.3805
  106MOL0     H14628   8.199   8.479   8.037 -0.5339 -0.0426 -1.0557
  107MOL0     O14629   6.249   2.780   6.268 -0.3250 -0.3169 -0.4739
  107MOL0     C14630   6.171   2.786   6.169 -0.8732 -0.6928 -0.1657
  107MOL0     O14631   6.210   2.807   6.037 -0.6109 -0.8664  0.5154
  107MOL0     C14632   6.341   2.843   6.019  0.1429  0.6349 -0.2323
  107MOL0     C14633   6.384   2.976   5.997  0.8580  0.1782 -0.4002
  107MOL0     C14634   6.511   3.000   5.947  0.1740  0.0924 -0.1161
  107MOL0     C14635   6.598   2.894   5.919  0.6832 -0.2011 -0.7808
  107MOL0     O14636   6.730   2.897   5.879 -0.4878  0.3140 -0.0774
  107MOL0     C14637   6.770   3.029   5.841 -0.4917 -0.5567 -0.1122
  107MOL0     C14638   6.908   3.026   5.768  0.5122  1.2454  0.3120
  107MOL0     C14639   7.025   3.000   5.859  0.3978 -0.1893 -0.2122
  107MOL0     C14640   7.041   3.126   5.947  0.0163 -0.1629  0.2533
  107MOL0     C14641   7.180   3.131   6.008 -0.1373 -1.3872 -0.6134
  107MOL0     C14642   7.217   3.274   6.060  0.3084 -0.3641 -0.2500
  107MOL0     C14643   7.362   3.286   6.088  0.3117  0.0176 -0.2765
  107MOL0     C14644   7.409   3.432   6.111 -0.6267  0.0896  0.2010
  107MOL0     N14645   7.511   3.430   6.219  0.1841  0.3546 -0.7389
  107MOL0     C14646   7.649   3.433   6.214  0.6335 -0.1062  0.0374
  107MOL0     C14647   7.689   3.443   6.340 -0.8126 -0.5304 -0.2930
  107MOL0     C14648   7.831   3.465   6.383  0.0652 -0.8373 -0.4979
  107MOL0     C14649   7.844   3.502   6.537 -0.6731  0.6256 -0.0401
  107MOL0     C14650   7.964   3.424   6.586  1.0970 -0.4795 -0.1355
  107MOL0     C14651   7.987   3.433   6.734  0.0315  0.7132  0.1636
  107MOL0     O14652   8.008   3.581   6.766 -0.0968  0.6307 -0.4395
  107MOL0     C14653   8.124   3.652   6.746 -0.0287 -0.3619 -0.5452
  107MOL0     C14654   8.108   3.781   6.786  0.1883  0.3247 -0.3266
  107MOL0     C14655   8.221   3.862   6.788 -0.1754  0.6864  0.0610
  107MOL0     C14656   8.207   4.006   6.840 -0.9213  0.1214  0.4325
  107MOL0     C14657   8.347   3.811   6.740 -0.5553 -0.3708 -0.8259
  107MOL0     C14658   8.478   3.877   6.761 -0.2514  0.2139  1.0151
  107MOL0     O14659   8.568   3.850   6.660  0.4321 -0.2488 -0.3998
  107MOL0     C14660   8.689   3.903   6.666 -0.5499 -0.5310 -0.8475
  107MOL0     C14661   8.794   3.813   6.645  0.9091 -0.3705 -0.3280
  107MOL0     C14662   8.926   3.862   6.653  0.1565  0.2013 -0.5923
  107MOL0     C14663   8.951   3.996   6.694 -0.3561 -0.3767  0.8391
  107MOL0     O14664   9.080   4.042   6.719 -0.0630 -0.2892 -0.2719
  107MOL0     C14665   9.164   3.963   6.799 -0.3596  0.6516 -0.3785
  107MOL0     C14666   9.288   4.036   6.839  1.0839  0.2184  0.3818
  107MOL0     C14667   9.265   4.065   6.991 -0.2755 -0.6881  0.3927
  107MOL0     C14668   9.381   4.149   7.047 -0.2525 -0.1522  0.0005
  107MOL0     C14669   9.355   4.199   7.188  0.2407 -0.5074  1.0719
  107MOL0     C14670   9.475   4.269   7.237 -0.7083  0.4353 -0.1923
  107MOL0     C14671   9.474   4.317   7.388  0.4318 -0.1929 -0.4185
  107MOL0     C14672   9.601   4.405   7.409 -1.1216 -0.3254 -0.9402
  107MOL0    Cl14673   9.755   4.319   7.416 -0.2336 -0.3072 -0.1442
  107MOL0     C14674   8.848   4.081   6.717 -0.4721 -0.2722  0.1233
  107MOL0     C14675   8.720   4.038   6.698 -0.0698  0.2400  0.0738
  107MOL0     O14676   8.498   3.927   6.873 -0.5466  0.2771  0.1280
  107MOL0     C14677   8.355   3.683   6.686  0.4072 -0.3320 -0.3047
  107MOL0     C14678   8.242   3.601   6.688  0.2060 -0.1549  0.0158
  107MOL0     N14679   7.587   3.429   6.423 -0.6271 -0.1728 -0.6749
  107MOL0     N14680   7.482   3.431   6.350 -0.0358 -0.6145  0.3465
  107MOL0     C14681   6.548   2.763   5.923 -0.4181  0.2696 -0.1044
  107MOL0     C14682   6.420   2.743   5.975 -0.7877  0.6282 -0.0155
  107MOL0     C14683   6.026   2.748   6.189 -0.4227 -0.5637 -0.1618
  107MOL0     C14684   5.987   2.702   6.317  0.2066  0.3516  0.1300
  107MOL0     C14685   5.858   2.665   6.342  0.0209  0.2987 -0.1691
  107MOL0     C14686   5.758   2.677   6.246 -0.0916  0.6911  1.1693
  107MOL0     O14687   5.625   2.648   6.256 -0.4030 -0.5166  0.0778
  107MOL0     C14688   5.559   2.761   6.300  0.5432 -0.1223  0.8333
  107MOL0     C14689   5.415   2.776   6.238  0.9587 -0.5093 -0.0493
  107MOL0     C14690   5.424   2.814   6.089  0.2221  0.6846 -0.7908
  107MOL0     C14691   5.290   2.841   6.032 -0.3150  0.8740  0.0942
  107MOL0     C14692   5.300   2.903   5.895  0.3792  0.1130  0.3123
  107MOL0     C14693   5.283   2.954   5.790  0.4196  0.4994  0.0309
  107MOL0     C14694   5.797   2.728   6.129  0.3288 -0.2316  0.5452
  107MOL0     C14695   5.925   2.766   6.090  0.8985 -0.0865 -0.5347
  107MOL0     C14696   5.949   2.839   5.956  0.7183 -0.3322 -0.1360
  107MOL0     H14697   6.314   3.058   6.010  0.1314 -0.7260  1.9324
  107MOL0     H14698   6.541   3.104   5.937 -1.4797  0.4729 -1.7976
  107MOL0     H14699   6.775   3.102   5.922 -0.5479 -0.8220  0.1335
  107MOL0     H14700   6.702   3.065   5.763  0.3895  0.2089 -0.5555
  107MOL0     H14701   6.910   2.942   5.696 -1.0932  1.8272 -0.4590
  107MOL0     H14702   6.927   3.117   5.710 -1.4470  1.6702  0.2869
  107MOL0     H14703   6.999   2.917   5.925 -3.5152  0.5428 -0.5816
  107MOL0     H14704   7.118   2.984   5.804 -0.0200  0.1006 -1.0123
  107MOL0     H14705   7.014   3.214   5.889  1.8463 -0.0034 -0.3930
  107MOL0     H14706   6.968   3.125   6.030  2.5135  2.2290  2.6876
  107MOL0     H14707   7.262   3.081   5.956  0.4766 -1.2453  0.1996
  107MOL0     H14708   7.177   3.076   6.102  0.4474 -1.9726 -0.9328
  107MOL0     H14709   7.182   3.344   5.983 -1.0415  0.3278  0.9478
  107MOL0     H14710   7.157   3.312   6.144 -0.6251  2.5387 -2.0727
  107MOL0     H14711   7.432   3.246   6.014 -0.2757  0.5829 -1.1496
  107MOL0     H14712   7.379   3.239   6.186  1.2944  2.2579  0.7090
  107MOL0     H14713   7.439   3.476   6.015 -3.3428 -1.4572 -1.4818
  107MOL0     H14714   7.332   3.504   6.142  0.3441  3.5388 -4.2623
  107MOL0     H14715   7.708   3.430   6.122  0.9338 -3.0435  0.2356
  107MOL0     H14716   7.866   3.562   6.345  1.7048  0.6326  4.0507
  107MOL0     H14717   7.896   3.390   6.336  0.4860 -0.0583 -1.2139
  107MOL0     H14718   7.881   3.604   6.547  0.6283  0.4584 -2.4524
  107MOL0     H14719   7.755   3.487   6.599  1.8749  0.2582  3.8947
  107MOL0     H14720   7.943   3.319   6.568 -1.1693 -0.3915  1.4864
  107MOL0     H14721   8.053   3.456   6.531  2.5879  0.0932  2.4173
  107MOL0     H14722   7.905   3.396   6.797 -0.2098 -1.8231 -1.5203
  107MOL0     H14723   8.077   3.377   6.760 -0.4714 -0.2097 -0.0539
  107MOL0     H14724   8.007   3.806   6.818 -0.5699 -1.8643 -0.8011
  107MOL0     H14725   8.246   4.014   6.942  2.4088  0.1974 -0.7497
  107MOL0     H14726   8.111   4.055   6.821  0.8984  2.9733 -2.5645
  107MOL0     H14727   8.276   4.056   6.772 -1.1680 -1.7180 -1.2803
  107MOL0     H14728   8.769   3.709   6.622  0.1728  0.1146 -1.8206
  107MOL0     H14729   9.009   3.794   6.642  0.1033  0.0791 -0.2545
  107MOL0     H14730   9.108   3.933   6.888  0.4295 -0.9255 -0.3934
  107MOL0     H14731   9.191   3.869   6.749 -1.1974 -0.9327  1.9955
  107MOL0     H14732   9.380   3.979   6.826  1.6124  1.2714 -0.6419
  107MOL0     H14733   9.291   4.123   6.773  0.5588  0.5839  0.8232
  107MOL0     H14734   9.256   3.968   7.042 -2.8628 -0.4730  0.4846
  107MOL0     H14735   9.171   4.121   6.998  2.0595  4.0967 -2.2626
  107MOL0     H14736   9.399   4.241   6.991 -1.0107  0.7853  1.2361
  107MOL0     H14737   9.472   4.089   7.043 -0.4550 -0.4733  0.2300
  107MOL0     H14738   9.277   4.276   7.192  1.4789  0.7724  1.3868
  107MOL0     H14739   9.330   4.114   7.252 -1.0652 -0.7707  0.2511
  107MOL0     H14740   9.504   4.353   7.173  0.2624  0.8488  0.7553
  107MOL0     H14741   9.549   4.190   7.228 -1.6568 -0.2678 -3.1225
  107MOL0     H14742   9.480   4.230   7.453  1.2168  0.2663  0.1320
  107MOL0     H14743   9.382   4.376   7.391  0.3138 -0.3904 -0.2131
  107MOL0     H14744   9.580   4.455   7.504  0.4328 -0.0986 -0.7035
  107MOL0     H14745   9.609   4.474   7.325  1.2740  2.9452  1.7316
  107MOL0     H14746   8.872   4.184   6.743 -0.6167  0.3515 -1.9490
  107MOL0     H14747   8.631   4.101   6.692 -3.0939 -3.6434  0.1469
  107MOL0     H14748   8.449   3.651   6.642  0.4685  1.4315 -1.5573
  107MOL0     H14749   8.237   3.498   6.654  0.0472 -0.1683  0.0817
  107MOL0     H14750   6.611   2.679   5.893 -1.3553 -0.9096  1.1017
  107MOL0     H14751   6.380   2.643   5.992  0.3111  0.3146  0.8231
  107MOL0     H14752   6.050   2.682   6.403  0.3878  2.1486  0.4533
  107MOL0     H14753   5.831   2.605   6.429 -0.0722  0.5423 -0.0276
  107MOL0     H14754   5.542   2.753   6.408 -1.4317  2.7761  0.8693
  107MOL0     H14755   5.605   2.855   6.268 -0.7817  0.5689  0.8735
  107MOL0     H14756   5.364   2.856   6.290 -1.1565 -1.9217  0.1640
  107MOL0     H14757   5.354   2.687   6.258  0.9932 -0.3318  0.8575
  107MOL0     H14758   5.483   2.903   6.065 -0.5000  0.7712 -2.3571
  107MOL0     H14759   5.478   2.737   6.034  0.8849  1.7076 -1.6103
  107MOL0     H14760   5.239   2.923   6.084  0.7998  0.6208  1.6520
  107MOL0     H14761   5.219   2.758   6.033 -1.4794  1.7072 -2.4968
  107MOL0     H14762   5.242   2.992   5.698 -3.9229 -0.1303  1.4913
  107MOL0     H14763   5.718   2.738   6.055 -1.1281 -1.1505  1.9251
  107MOL0     H14764   5.994   2.769   5.886 -1.3088 -1.1629 -0.6642
  107MOL0     H14765   5.851   2.874   5.920  0.9765  1.1114  0.4625
  107MOL0     H14766   6.009   2.931   5.953 -1.1883  1.0083  0.5784
  108MOL0     O14767   5.283   9.399   7.430  0.5547  0.2080 -0.7382
  108MOL0     C14768   5.388   9.462   7.424  0.5986 -0.7715  0.3740
  108MOL0     O14769   5.499   9.418   7.467  0.1809  0.3617  0.5752
  108MOL0     C14770   5.517   9.296   7.524  0.2010 -0.3597 -0.7948
  108MOL0     C14771   5.617   9.292   7.615  0.7302 -0.2583 -0.5673
  108MOL0     C14772   5.651   9.180   7.682  0.8185 -0.5010 -0.2911
  108MOL0     C14773   5.598   9.057   7.642 -0.0827  0.5411  0.2845
  108MOL0     O14774   5.648   8.956   7.718 -0.7773 -0.2422 -0.1563
  108MOL0     C14775   5.604   8.824   7.710 -0.2358  0.5155  0.7449
  108MOL0     C14776   5.705   8.737   7.768  0.0671  0.6940 -0.5651
  108MOL0     C14777   5.847   8.771   7.724 -0.0288  0.6705 -0.6386
  108MOL0     C14778   5.939   8.646   7.760  0.2670 -0.4891 -0.2527
  108MOL0     C14779   6.084   8.688   7.783 -0.4798 -0.1596 -0.4642
  108MOL0     C14780   6.162   8.557   7.794 -0.4623  0.3100 -0.7256
  108MOL0     C14781   6.306   8.563   7.862 -0.5169  0.8256  0.4368
  108MOL0     C14782   6.386   8.664   7.771 -0.5616  0.5983  0.0552
  108MOL0     N14783   6.523   8.648   7.792 -0.2325 -0.4238  0.8335
  108MOL0     C14784   6.597   8.543   7.754 -0.1931  0.5284  0.3988
  108MOL0     C14785   6.713   8.573   7.820 -0.3484  1.1510 -0.3461
  108MOL0     C14786   6.822   8.473   7.811 -0.6278 -0.0637  0.0335
  108MOL0     C14787   6.941   8.505   7.908  0.1181  0.3551 -0.0550
  108MOL0     C14788   7.029   8.382   7.936 -0.1030 -0.4131 -0.7530
  108MOL0     C14789   7.087   8.301   7.813 -0.4509 -0.2698  0.0992
  108MOL0     O14790   7.186   8.209   7.859  0.2016 -0.2051 -0.0971
  108MOL0     C14791   7.316   8.259   7.883  0.3484  0.6233 -0.3202
  108MOL0     C14792   7.417   8.167   7.921  0.5521  0.3751  0.6768
  108MOL0     C14793   7.553   8.201   7.919 -0.3143  1.6678  0.0442
  108MOL0     C14794   7.657   8.091   7.920 -1.0245  0.3774  0.0099
  108MOL0     C14795   7.588   8.342   7.895 -0.3742  0.4146 -0.5272
  108MOL0     C14796   7.724   8.381   7.887 -0.5568  0.1661 -0.3029
  108MOL0     O14797   7.770   8.408   7.760 -0.2557 -0.1171  0.2748
  108MOL0     C14798   7.898   8.441   7.740 -0.0530  1.0319  0.3552
  108MOL0     C14799   7.997   8.354   7.772 -0.2977 -0.2201 -0.1045
  108MOL0     C14800   8.131   8.385   7.759  0.6245  0.3713  0.3051
  108MOL0     C14801   8.166   8.513   7.722 -0.7109 -0.5851 -1.0032
  108MOL0     O14802   8.303   8.546   7.714  1.0482  0.8050  0.0660
  108MOL0     C14803   8.343   8.651   7.626 -0.6387  0.5372 -0.3465
  108MOL0     C14804   8.490   8.652   7.602  0.1467  0.6929  0.4433
  108MOL0     C14805   8.560   8.734   7.709  0.5699 -1.0273  0.8957
  108MOL0     C14806   8.694   8.780   7.661  0.1311 -0.0663  0.4243
  108MOL0     C14807   8.780   8.829   7.773  0.2168  0.0743 -0.3662
  108MOL0     C14808   8.872   8.943   7.721 -0.1312 -0.1374 -0.6621
  108MOL0     C14809   8.987   8.892   7.631 -0.4833 -0.4126  0.7433
  108MOL0     C14810   9.056   9.009   7.550 -0.4371 -0.1305 -0.3448
  108MOL0    Cl14811   9.083   9.165   7.660 -0.1973  0.0197  0.1039
  108MOL0     C14812   8.065   8.606   7.702  0.9541 -1.0191  0.1191
  108MOL0     C14813   7.932   8.566   7.707 -0.6064 -1.3657  1.0243
  108MOL0     O14814   7.798   8.373   7.985  0.3479 -0.6941 -0.0563
  108MOL0     C14815   7.489   8.428   7.878  1.0454 -0.3982 -0.3918
  108MOL0     C14816   7.353   8.390   7.863 -0.6663 -0.0706 -0.7875
  108MOL0     N14817   6.720   8.692   7.878  0.2152 -0.3426  0.2281
  108MOL0     N14818   6.598   8.740   7.865  0.3789  0.3274 -0.4343
  108MOL0     C14819   5.492   9.050   7.553 -0.9068 -0.7853  0.0373
  108MOL0     C14820   5.457   9.176   7.489  0.3573  0.3210  0.1969
  108MOL0     C14821   5.391   9.597   7.364 -0.0670 -0.4189 -0.3249
  108MOL0     C14822   5.281   9.644   7.293  0.0351 -0.6897 -0.0704
  108MOL0     C14823   5.270   9.774   7.234 -0.3921 -0.6315 -0.1745
  108MOL0     C14824   5.377   9.858   7.255 -0.7718 -0.4505  0.1970
  108MOL0     O14825   5.394   9.983   7.201 -0.6975 -0.6947 -1.0042
  108MOL0     C14826   5.308  10.025   7.091 -0.0127  0.5976 -0.0042
  108MOL0     C14827   5.404  10.098   6.997 -0.7662  0.1370 -0.4697
  108MOL0     C14828   5.348  10.146   6.859  0.5695 -0.0100  0.6556
  108MOL0     C14829   5.203  10.202   6.856 -0.6052  0.1113  0.0141
  108MOL0     C14830   5.196  10.334   6.922 -0.2992  0.0671  0.1054
  108MOL0     C14831   5.183  10.450   6.962 -0.8629 -0.3240 -0.6703
  108MOL0     C14832   5.486   9.809   7.326 -0.8806 -0.0213  0.5066
  108MOL0     C14833   5.500   9.683   7.372 -0.0864 -0.4499 -0.3432
  108MOL0     C14834   5.627   9.650   7.438 -0.0862 -0.2679  0.3856
  108MOL0     H14835   5.663   9.387   7.641 -0.4244  0.2957 -0.4914
  108MOL0     H14836   5.723   9.182   7.763  1.8656  0.3520 -1.2131
  108MOL0     H14837   5.594   8.808   7.602  2.2317 -0.5017  0.5953
  108MOL0     H14838   5.511   8.804   7.763 -0.1431 -3.3283 -0.2833
  108MOL0     H14839   5.702   8.761   7.875 -1.1512  0.3248 -0.5069
  108MOL0     H14840   5.685   8.631   7.747  1.5380  0.6870 -2.1750
  108MOL0     H14841   5.845   8.785   7.615 -1.8827  0.2168 -0.7017
  108MOL0     H14842   5.877   8.863   7.774 -1.4585  1.3232 -0.9391
  108MOL0     H14843   5.894   8.600   7.850 -2.2383 -0.1638 -1.2473
  108MOL0     H14844   5.946   8.579   7.674  1.9088 -1.4111  0.5599
  108MOL0     H14845   6.084   8.740   7.880 -0.3606 -0.3053 -0.3868
  108MOL0     H14846   6.117   8.756   7.704  0.2156  1.8878  1.4734
  108MOL0     H14847   6.101   8.491   7.856  3.0472  0.1549  2.9906
  108MOL0     H14848   6.170   8.506   7.697 -0.6613 -1.2316  0.0351
  108MOL0     H14849   6.356   8.466   7.864 -1.6857  0.0580 -2.4784
  108MOL0     H14850   6.301   8.592   7.967 -0.4960 -2.6775  1.5058
  108MOL0     H14851   6.369   8.639   7.666 -1.8981 -3.7970  1.1115
  108MOL0     H14852   6.350   8.766   7.789  1.1123  1.8361 -2.9016
  108MOL0     H14853   6.571   8.445   7.715  1.7225  0.2890 -0.4081
  108MOL0     H14854   6.865   8.467   7.711  0.0011  0.5587  0.2632
  108MOL0     H14855   6.783   8.376   7.846  0.7288 -0.6242  0.0293
  108MOL0     H14856   6.995   8.587   7.858  0.4501  0.3022  0.2088
  108MOL0     H14857   6.909   8.544   8.005 -1.7669  1.6077 -1.1241
  108MOL0     H14858   7.108   8.412   8.005  1.1243 -2.0710 -1.3696
  108MOL0     H14859   6.965   8.304   7.977  2.2704 -1.9523  0.2330
  108MOL0     H14860   7.003   8.242   7.774 -0.8862 -2.0004  3.2763
  108MOL0     H14861   7.132   8.372   7.744  1.3978  0.1092  1.6159
  108MOL0     H14862   7.379   8.067   7.939  0.8595 -0.0344 -0.8450
  108MOL0     H14863   7.732   8.104   7.841 -1.7412  2.3706 -0.4096
  108MOL0     H14864   7.609   7.994   7.906  1.4582 -1.0615  0.8958
  108MOL0     H14865   7.705   8.089   8.018 -1.5320  0.4384  0.2637
  108MOL0     H14866   7.977   8.250   7.797  0.0752  0.0319  1.3263
  108MOL0     H14867   8.211   8.315   7.781  1.2155  0.1410 -2.2351
  108MOL0     H14868   8.285   8.630   7.535 -0.4958 -1.5180 -0.0201
  108MOL0     H14869   8.313   8.744   7.674  0.7174 -0.3167  2.3652
  108MOL0     H14870   8.529   8.553   7.576 -0.3337  1.4823 -4.2940
  108MOL0     H14871   8.504   8.708   7.509  0.8969 -1.2327 -0.6556
  108MOL0     H14872   8.576   8.670   7.796  2.6558 -0.9594  0.6111
  108MOL0     H14873   8.496   8.815   7.746  0.4928 -1.2713  1.3086
  108MOL0     H14874   8.685   8.860   7.588  1.0394 -1.5786 -1.4541
  108MOL0     H14875   8.751   8.698   7.615  1.5695  2.1203 -1.9292
  108MOL0     H14876   8.720   8.858   7.860  0.2672 -2.7084  0.6912
  108MOL0     H14877   8.839   8.744   7.806 -1.0875 -0.4581  0.6794
  108MOL0     H14878   8.911   8.988   7.813  1.5688 -0.2387 -1.2980
  108MOL0     H14879   8.818   9.019   7.662 -0.4785  1.3296  1.4524
  108MOL0     H14880   8.950   8.825   7.554 -2.3158  3.1326 -1.7574
  108MOL0     H14881   9.065   8.843   7.690  0.0161  2.8346  3.0569
  108MOL0     H14882   8.995   9.031   7.462  1.1591 -1.9884 -2.0220
  108MOL0     H14883   9.155   8.973   7.520  0.2239  0.8074  0.6370
  108MOL0     H14884   8.098   8.706   7.678  2.3518 -1.4059  0.2940
  108MOL0     H14885   7.864   8.646   7.682  0.2697 -1.9417 -4.2801
  108MOL0     H14886   7.525   8.530   7.870 -1.5841  0.8716  2.1169
  108MOL0     H14887   7.292   8.469   7.819 -0.4697 -0.1349 -1.1808
  108MOL0     H14888   5.451   8.959   7.511 -2.7918  0.0497 -0.0106
  108MOL0     H14889   5.397   9.188   7.399  0.3559  2.3378  0.4258
  108MOL0     H14890   5.198   9.575   7.285 -0.5720 -0.0339  0.4331
  108MOL0     H14891   5.180   9.802   7.180 -1.3619 -0.1245  1.5988
  108MOL0     H14892   5.271   9.938   7.036  3.0457  0.4164 -2.0811
  108MOL0     H14893   5.220  10.079   7.125 -2.3697 -2.1742 -1.2850
  108MOL0     H14894   5.494  10.037   6.987  0.8505  2.4107 -0.5721
  108MOL0     H14895   5.434  10.188   7.052  0.4588  0.4858 -1.6645
  108MOL0     H14896   5.405  10.229   6.818  0.2568 -1.5899 -3.4772
  108MOL0     H14897   5.355  10.061   6.789 -0.7554 -0.2342  0.7614
  108MOL0     H14898   5.126  10.135   6.895 -0.1517  0.4827  1.6400
  108MOL0     H14899   5.165  10.220   6.755 -2.0281 -1.3702  0.2538
  108MOL0     H14900   5.168  10.554   6.982  0.3389 -0.5338  1.6252
  108MOL0     H14901   5.565   9.881   7.340 -0.3594 -0.6895  1.0541
  108MOL0     H14902   5.688   9.739   7.457 -1.1990  0.8281 -0.8879
  108MOL0     H14903   5.596   9.619   7.538 -2.0911 -0.0896 -0.1404
  108MOL0     H14904   5.689   9.579   7.383 -1.9302  1.2357 -4.1014
  109MOL0     O14905   2.830   2.941   4.731 -0.5021 -0.0128 -0.9294
  109MOL0     C14906   2.818   2.970   4.847  0.6702  0.6314  0.2716
  109MOL0     O14907   2.887   3.061   4.913 -0.8118 -0.3062  0.2159
  109MOL0     C14908   2.979   3.135   4.843 -0.3469  0.2184 -0.2038
  109MOL0     C14909   2.980   3.271   4.867 -0.6630 -0.8574 -0.6205
  109MOL0     C14910   3.082   3.351   4.815 -0.1021  0.0604 -0.9702
  109MOL0     C14911   3.184   3.296   4.738 -0.2663  0.1397  0.1923
  109MOL0     O14912   3.285   3.385   4.705  0.3437  0.4145  0.0154
  109MOL0     C14913   3.417   3.338   4.690  0.7905  0.5051  0.6018
  109MOL0     C14914   3.495   3.469   4.651 -0.0252  0.2800 -0.2223
  109MOL0     C14915   3.615   3.425   4.560  0.6838  0.2720 -0.1857
  109MOL0     C14916   3.728   3.530   4.553 -0.2463  0.2256 -0.4073
  109MOL0     C14917   3.815   3.509   4.427  1.2227 -0.2784 -0.1446
  109MOL0     C14918   3.852   3.366   4.398 -0.0614  0.3781 -0.8226
  109MOL0     C14919   3.957   3.368   4.287 -0.3785  1.1009  0.5420
  109MOL0     C14920   3.968   3.228   4.221  0.2129 -0.6501 -0.2937
  109MOL0     N14921   4.066   3.221   4.119 -0.3991  0.4119 -0.1386
  109MOL0     C14922   4.103   3.317   4.022 -0.1688 -0.0512 -0.8435
  109MOL0     C14923   4.220   3.285   3.975  0.1215  1.6053  0.0196
  109MOL0     C14924   4.307   3.381   3.903  0.6744 -0.0722  0.2583
  109MOL0     C14925   4.258   3.425   3.761 -0.1479  0.7233 -0.1210
  109MOL0     C14926   4.246   3.306   3.665 -0.2626  0.7734  0.0412
  109MOL0     C14927   4.385   3.248   3.607  1.2622 -0.0647 -0.4382
  109MOL0     O14928   4.443   3.346   3.516 -0.0703  0.2884 -0.6960
  109MOL0     C14929   4.559   3.306   3.451 -0.9987 -0.0717 -0.3900
  109MOL0     C14930   4.623   3.181   3.462  0.1155 -0.3289  0.3295
  109MOL0     C14931   4.742   3.153   3.398  0.2401 -0.0033  0.1754
  109MOL0     C14932   4.795   3.016   3.418 -0.2756 -0.2848 -0.5684
  109MOL0     C14933   4.809   3.253   3.320  0.0203  0.1079 -0.1224
  109MOL0     C14934   4.940   3.234   3.257  0.4642  0.8137  0.3360
  109MOL0     O14935   4.969   3.312   3.145 -0.4668 -0.4028 -0.0840
  109MOL0     C14936   5.103   3.323   3.098 -0.4518  0.3503  0.1033
  109MOL0     C14937   5.113   3.288   2.959  0.4065 -0.3280 -0.5078
  109MOL0     C14938   5.241   3.287   2.904 -0.6885 -0.2889  0.7672
  109MOL0     C14939   5.358   3.312   2.976  0.3927 -0.9830  0.4509
  109MOL0     O14940   5.478   3.311   2.916  0.5997 -0.0678 -0.7600
  109MOL0     C14941   5.549   3.435   2.933  0.2077  0.8260 -0.0483
  109MOL0     C14942   5.649   3.449   2.821 -0.2200 -0.3964  0.1391
  109MOL0     C14943   5.765   3.534   2.859 -0.1805 -0.1608  0.7815
  109MOL0     C14944   5.861   3.550   2.747  0.5883  0.4639  0.5144
  109MOL0     C14945   5.994   3.600   2.811  0.4912  0.0380 -0.5819
  109MOL0     C14946   6.094   3.650   2.702 -0.8278 -0.4308  0.7028
  109MOL0     C14947   6.236   3.676   2.764  0.2416 -0.4792 -0.3405
  109MOL0     C14948   6.341   3.687   2.654  0.1022 -0.1715  0.9583
  109MOL0    Cl14949   6.516   3.711   2.695 -0.2573  0.2533  0.1118
  109MOL0     C14950   5.343   3.338   3.113 -0.5856  0.3366  0.1801
  109MOL0     C14951   5.220   3.341   3.180 -0.7930 -0.1648 -0.2647
  109MOL0     O14952   5.020   3.152   3.303 -0.2684 -0.0553  0.1219
  109MOL0     C14953   4.741   3.370   3.300 -0.2835 -0.3380  0.3317
  109MOL0     C14954   4.621   3.393   3.362  0.1227  0.0314 -0.2297
  109MOL0     N14955   4.238   3.149   4.014  0.9299 -0.5411 -0.1687
  109MOL0     N14956   4.141   3.110   4.091  0.0110  0.0257  0.0163
  109MOL0     C14957   3.186   3.164   4.709  0.5565  0.4159 -0.3599
  109MOL0     C14958   3.089   3.074   4.768  0.4214 -0.5968 -0.3390
  109MOL0     C14959   2.705   2.904   4.918 -1.0248 -0.4369 -0.2365
  109MOL0     C14960   2.685   2.938   5.056 -0.3253  0.3718 -0.7220
  109MOL0     C14961   2.600   2.890   5.139 -1.0849  0.0620  0.8367
  109MOL0     C14962   2.505   2.804   5.089  0.4931  0.5425 -0.2265
  109MOL0     O14963   2.409   2.755   5.173  0.6241  0.1072 -0.5205
  109MOL0     C14964   2.287   2.688   5.122 -0.8626 -0.5836  0.5610
  109MOL0     C14965   2.194   2.647   5.234  0.0493 -1.2611  0.3401
  109MOL0     C14966   2.151   2.761   5.323  0.1209 -0.3287 -0.0101
  109MOL0     C14967   2.041   2.711   5.417 -0.6031 -0.1324 -0.7779
  109MOL0     C14968   2.102   2.624   5.519 -0.5318 -0.3648 -0.3880
  109MOL0     C14969   2.168   2.567   5.603  0.5192  0.4281 -0.4399
  109MOL0     C14970   2.514   2.773   4.952 -0.2145  0.3344  0.5296
  109MOL0     C14971   2.611   2.821   4.866  0.1312 -0.0083 -0.6687
  109MOL0     C14972   2.601   2.788   4.718  0.7842 -0.5896  0.7913
  109MOL0     H14973   2.898   3.325   4.915  0.0998  2.3715 -2.6535
  109MOL0     H14974   3.077   3.457   4.835 -0.3090 -0.3799  1.7258
  109MOL0     H14975   3.415   3.270   4.604 -3.7067 -0.4019  1.1777
  109MOL0     H14976   3.453   3.296   4.784 -1.1684 -2.3471  0.2000
  109MOL0     H14977   3.435   3.528   4.580  2.7782  0.9959 -2.1793
  109MOL0     H14978   3.533   3.521   4.739  0.0910  0.8535 -0.6067
  109MOL0     H14979   3.653   3.327   4.590  0.0883 -0.1398 -0.7694
  109MOL0     H14980   3.570   3.403   4.463 -0.5468 -0.5221  0.5370
  109MOL0     H14981   3.683   3.629   4.539  0.3307  0.1910 -3.0746
  109MOL0     H14982   3.790   3.526   4.643  0.1194 -1.6729 -0.6930
  109MOL0     H14983   3.898   3.580   4.440 -0.0186  1.0014  1.1654
  109MOL0     H14984   3.760   3.543   4.339 -1.2622 -1.6311  0.7866
  109MOL0     H14985   3.891   3.318   4.488  1.1641  1.8563 -0.5236
  109MOL0     H14986   3.767   3.312   4.357 -0.1618  1.1324 -1.6424
  109MOL0     H14987   4.056   3.396   4.324 -0.0675  1.1678 -0.3140
  109MOL0     H14988   3.926   3.434   4.206  0.0344  1.3184  0.5588
  109MOL0     H14989   4.003   3.149   4.288  2.7171 -2.0619 -3.0276
  109MOL0     H14990   3.868   3.195   4.193 -0.7635 -0.8122  3.0572
  109MOL0     H14991   4.054   3.414   4.020 -3.0564 -1.4216 -0.8795
  109MOL0     H14992   4.407   3.337   3.900  0.0731 -1.4104 -2.3649
  109MOL0     H14993   4.307   3.468   3.969 -1.0444 -1.2805  1.9471
  109MOL0     H14994   4.168   3.485   3.772 -2.3569 -2.2852 -0.5653
  109MOL0     H14995   4.338   3.490   3.722  1.4856  1.2485  3.6718
  109MOL0     H14996   4.187   3.227   3.711 -0.4541  0.2503 -1.0810
  109MOL0     H14997   4.183   3.330   3.579 -0.8519 -0.9006 -0.0188
  109MOL0     H14998   4.453   3.233   3.692 -2.5381  0.6072  3.0747
  109MOL0     H14999   4.356   3.154   3.560  0.4112 -0.0955  0.1036
  109MOL0     H15000   4.576   3.106   3.525 -1.7032 -0.1977 -0.7837
  109MOL0     H15001   4.725   2.947   3.466  0.1536 -0.9816 -0.9373
  109MOL0     H15002   4.881   3.035   3.483 -0.6516 -0.6467  0.0421
  109MOL0     H15003   4.829   2.965   3.327 -0.3748 -0.4250 -0.5274
  109MOL0     H15004   5.017   3.283   2.909 -0.8678 -1.0974  1.9148
  109MOL0     H15005   5.248   3.273   2.796  3.1857  1.1691  0.6586
  109MOL0     H15006   5.488   3.526   2.942  1.6108  1.6114  2.6526
  109MOL0     H15007   5.607   3.419   3.024 -1.6601  0.5123  1.1373
  109MOL0     H15008   5.674   3.349   2.786  1.4942  0.0830 -0.0793
  109MOL0     H15009   5.608   3.495   2.731  1.5488  2.8454  0.8366
  109MOL0     H15010   5.821   3.485   2.939  0.3800  1.2154  1.2699
  109MOL0     H15011   5.741   3.629   2.908 -2.4292  0.1727 -0.8246
  109MOL0     H15012   5.830   3.614   2.664 -2.7403 -2.1784 -0.5267
  109MOL0     H15013   5.889   3.449   2.716 -0.1237 -0.7529  3.4354
  109MOL0     H15014   5.969   3.678   2.883  1.6577  1.6617 -1.8423
  109MOL0     H15015   6.037   3.513   2.860  2.1471 -0.1047 -2.1663
  109MOL0     H15016   6.056   3.736   2.647 -0.3202  1.4519  3.1094
  109MOL0     H15017   6.105   3.571   2.628 -1.3170 -1.1259  1.3484
  109MOL0     H15018   6.267   3.593   2.829  0.9348  0.9814  1.3029
  109MOL0     H15019   6.239   3.765   2.828  1.6174 -1.2088  0.6642
  109MOL0     H15020   6.319   3.780   2.602 -0.5170 -0.5962  0.4525
  109MOL0     H15021   6.335   3.606   2.581  1.6184 -2.5491  3.2728
  109MOL0     H15022   5.430   3.356   3.175  0.3342 -1.8770 -0.3554
  109MOL0     H15023   5.195   3.346   3.286 -2.6443  1.0687 -0.7092
  109MOL0     H15024   4.779   3.441   3.227 -0.4440 -0.7735 -0.1816
  109MOL0     H15025   4.582   3.494   3.354  2.0934  0.9858  1.2675
  109MOL0     H15026   3.258   3.131   4.635 -1.2885 -2.6833 -0.9717
  109MOL0     H15027   3.094   2.967   4.750  1.2425 -0.5230 -0.5991
  109MOL0     H15028   2.761   2.995   5.108 -0.9691  0.3752  0.2395
  109MOL0     H15029   2.599   2.909   5.245  0.1320 -2.2123  1.3122
  109MOL0     H15030   2.228   2.753   5.056 -1.8556 -0.6997  1.2986
  109MOL0     H15031   2.311   2.594   5.072  0.3943  0.4306 -0.8449
  109MOL0     H15032   2.247   2.572   5.294  0.3910 -1.3501 -0.0684
  109MOL0     H15033   2.110   2.599   5.185  1.3636 -0.6948 -2.7139
  109MOL0     H15034   2.240   2.793   5.378 -0.5202  1.1029  0.2328
  109MOL0     H15035   2.103   2.835   5.258 -0.3921 -1.7533 -1.3245
  109MOL0     H15036   1.965   2.651   5.366  0.9982 -1.7042 -1.4167
  109MOL0     H15037   2.005   2.799   5.471  0.6692 -0.2681  0.3386
  109MOL0     H15038   2.213   2.514   5.684  0.8122  0.3392 -0.6624
  109MOL0     H15039   2.443   2.702   4.911 -0.8494  1.7985 -0.9819
  109MOL0     H15040   2.523   2.716   4.692  1.9795 -2.4758  2.1845
  109MOL0     H15041   2.587   2.880   4.660  0.9624 -0.4825  0.9176
  109MOL0     H15042   2.694   2.740   4.685  0.4995  2.0976 -5.2241
  110MOL0     O15043   3.719   4.104   1.913  0.4790  0.5176 -0.0483
  110MOL0     C15044   3.776   4.109   1.807 -0.7389  0.3864 -0.5346
  110MOL0     O15045   3.890   4.184   1.789 -0.2160  0.3006  1.1836
  110MOL0     C15046   3.968   4.211   1.900 -1.0360  0.8693 -0.2309
  110MOL0     C15047   4.006   4.113   1.993  0.1139  0.0285  0.2041
  110MOL0     C15048   4.090   4.135   2.098  0.1854 -0.7847 -0.1858
  110MOL0     C15049   4.144   4.263   2.131 -0.2442 -0.0953  0.5535
  110MOL0     O15050   4.221   4.272   2.239 -0.0226 -0.2646  0.5573
  110MOL0     C15051   4.301   4.385   2.261  0.0483  0.7024  0.4897
  110MOL0     C15052   4.353   4.360   2.409 -0.4734  1.2353  0.0274
  110MOL0     C15053   4.474   4.446   2.442  0.0394 -0.9727 -0.5717
  110MOL0     C15054   4.502   4.574   2.361 -0.6385  0.1868 -0.4844
  110MOL0     C15055   4.581   4.673   2.447 -0.4819  0.1537  0.7664
  110MOL0     C15056   4.629   4.795   2.373  1.1973  0.1892 -0.1307
  110MOL0     C15057   4.719   4.889   2.459 -0.8437  0.1038  0.1523
  110MOL0     C15058   4.656   4.969   2.562  0.7029 -0.0513 -0.2395
  110MOL0     N15059   4.747   5.073   2.596  0.3123 -0.1289 -0.3055
  110MOL0     C15060   4.887   5.063   2.600  0.1749 -0.0977  0.5394
  110MOL0     C15061   4.931   5.186   2.605 -0.4492 -0.5794  0.6793
  110MOL0     C15062   5.079   5.238   2.600 -0.3375  0.7396  0.2619
  110MOL0     C15063   5.163   5.176   2.490  0.5528 -0.3866  0.4939
  110MOL0     C15064   5.088   5.206   2.353 -0.4078 -1.2096  0.2187
  110MOL0     C15065   5.135   5.097   2.260 -0.4307  0.0044 -0.1732
  110MOL0     O15066   5.086   5.122   2.131  0.3095  0.9262 -0.9039
  110MOL0     C15067   5.176   5.090   2.029 -0.1283 -0.4474  1.3568
  110MOL0     C15068   5.258   4.977   2.015  0.9152  0.6634  0.3235
  110MOL0     C15069   5.358   4.965   1.925  0.3715  0.1516 -0.0546
  110MOL0     C15070   5.440   4.835   1.926  0.6874  0.0475 -0.2657
  110MOL0     C15071   5.389   5.069   1.834  0.6728 -0.5314  0.0687
  110MOL0     C15072   5.494   5.061   1.728  0.6111  0.3626 -0.0170
  110MOL0     O15073   5.458   5.111   1.594 -0.8081 -0.2274 -0.6417
  110MOL0     C15074   5.572   5.141   1.521  0.0601 -0.1378 -0.1678
  110MOL0     C15075   5.626   5.060   1.427 -0.3056 -0.4033 -0.3120
  110MOL0     C15076   5.746   5.086   1.365 -0.7716  1.0451 -0.2176
  110MOL0     C15077   5.822   5.202   1.396 -0.0219  0.4077  0.2149
  110MOL0     O15078   5.938   5.225   1.319  0.4260  0.3562  0.1111
  110MOL0     C15079   6.047   5.302   1.374 -0.0846 -0.6452  0.6897
  110MOL0     C15080   6.143   5.326   1.256  0.4355 -0.5899  1.0192
  110MOL0     C15081   6.241   5.441   1.287  0.1665  0.0266 -0.3361
  110MOL0     C15082   6.317   5.503   1.172 -0.8408 -0.8976 -1.0882
  110MOL0     C15083   6.405   5.619   1.235 -0.4364 -0.6311 -0.4221
  110MOL0     C15084   6.491   5.699   1.146  0.4170  0.7774 -0.2774
  110MOL0     C15085   6.398   5.792   1.065  0.4229  0.1652 -0.3275
  110MOL0     C15086   6.436   5.804   0.919 -0.0217  0.1926  0.3717
  110MOL0    Cl15087   6.373   5.671   0.814 -0.2089  0.1168 -0.5457
  110MOL0     C15088   5.771   5.282   1.497 -0.0002  0.0900  0.0894
  110MOL0     C15089   5.648   5.258   1.556  0.3403 -0.3004 -0.2022
  110MOL0     O15090   5.605   5.021   1.757  0.4005  0.2848  0.6437
  110MOL0     C15091   5.302   5.178   1.833 -0.1371  0.3185  0.1925
  110MOL0     C15092   5.197   5.183   1.926  0.1708  0.3419 -0.3819
  110MOL0     N15093   4.823   5.274   2.605  0.3152 -0.0704 -0.1084
  110MOL0     N15094   4.712   5.201   2.608  0.9679 -0.2623 -0.2295
  110MOL0     C15095   4.109   4.369   2.035 -0.4815 -0.6962  0.0913
  110MOL0     C15096   4.021   4.344   1.923  0.1824 -0.1613  0.7521
  110MOL0     C15097   3.703   4.074   1.685  1.0462 -0.3679 -0.4657
  110MOL0     C15098   3.563   4.054   1.695 -0.4482  0.2517 -0.2076
  110MOL0     C15099   3.484   4.023   1.582  0.1834 -0.7460 -0.4384
  110MOL0     C15100   3.540   4.015   1.458  0.1525  0.1568 -0.3412
  110MOL0     O15101   3.461   3.988   1.350  0.0897  0.1346 -1.0742
  110MOL0     C15102   3.522   3.992   1.217 -0.2154 -0.1992  0.3431
  110MOL0     C15103   3.418   3.978   1.113 -0.0600 -0.8408  0.2225
  110MOL0     C15104   3.463   3.999   0.964  0.4049  0.2096  0.9086
  110MOL0     C15105   3.487   3.864   0.884  0.9398 -0.3950  0.3905
  110MOL0     C15106   3.601   3.805   0.939 -0.0469  0.8966 -0.9469
  110MOL0     C15107   3.704   3.759   0.984  0.4234  0.1626 -0.5359
  110MOL0     C15108   3.677   4.035   1.447 -0.3201 -0.1087 -0.6274
  110MOL0     C15109   3.757   4.064   1.557 -0.5861 -0.3318 -0.3416
  110MOL0     C15110   3.903   4.076   1.534 -0.3232  0.0357 -1.0654
  110MOL0     H15111   3.961   4.015   1.979 -0.9017 -0.0528  3.3344
  110MOL0     H15112   4.107   4.051   2.165  1.9169 -1.1539 -1.0109
  110MOL0     H15113   4.243   4.476   2.249 -1.4356 -0.3798 -1.0382
  110MOL0     H15114   4.378   4.380   2.182 -0.2152  0.6451  0.2340
  110MOL0     H15115   4.280   4.385   2.486  0.8065 -3.6019  3.2097
  110MOL0     H15116   4.371   4.252   2.413 -0.9653  1.1997  2.1797
  110MOL0     H15117   4.466   4.468   2.549  0.1174 -0.0019 -0.7519
  110MOL0     H15118   4.557   4.381   2.414  0.7986 -0.3706  0.2210
  110MOL0     H15119   4.549   4.553   2.264 -3.2111 -1.6816 -1.4503
  110MOL0     H15120   4.407   4.622   2.333  1.1947  3.9241 -0.8721
  110MOL0     H15121   4.676   4.629   2.479  0.4842 -0.2112 -2.2464
  110MOL0     H15122   4.518   4.699   2.533  0.5601 -4.0152  3.0437
  110MOL0     H15123   4.686   4.766   2.284 -1.8490 -3.2069 -1.2402
  110MOL0     H15124   4.546   4.849   2.326 -0.2864 -0.3205  1.7427
  110MOL0     H15125   4.764   4.957   2.386 -0.8864 -0.9318 -0.8627
  110MOL0     H15126   4.804   4.836   2.502  0.2350  0.8354 -0.9936
  110MOL0     H15127   4.563   5.010   2.522  1.9393 -0.2272 -3.6952
  110MOL0     H15128   4.642   4.910   2.653 -2.5352  1.5182  0.4218
  110MOL0     H15129   4.956   4.981   2.587  0.9286  0.6467 -0.2512
  110MOL0     H15130   5.118   5.222   2.701 -0.6961  0.1649  0.3155
  110MOL0     H15131   5.086   5.346   2.588 -0.2736  0.5699 -1.6150
  110MOL0     H15132   5.258   5.230   2.480 -0.0683  1.6853  3.9458
  110MOL0     H15133   5.177   5.071   2.516  4.9899 -1.0583 -3.2334
  110MOL0     H15134   4.982   5.182   2.361 -0.8304  0.3265 -0.4542
  110MOL0     H15135   5.123   5.305   2.321 -0.3825 -0.6183  1.9649
  110MOL0     H15136   5.244   5.096   2.254 -0.4465  0.2214 -0.5504
  110MOL0     H15137   5.098   5.003   2.300 -0.6126 -0.2924 -1.0136
  110MOL0     H15138   5.235   4.887   2.070 -0.0973  0.3331 -0.6184
  110MOL0     H15139   5.541   4.867   1.953  0.8807 -0.4422 -0.4017
  110MOL0     H15140   5.436   4.794   1.824 -4.3528 -0.7959  0.0243
  110MOL0     H15141   5.403   4.755   1.991  1.5158 -0.2405 -0.1340
  110MOL0     H15142   5.578   4.965   1.409 -0.4078 -0.7190  1.4665
  110MOL0     H15143   5.776   5.010   1.294  0.3170 -0.8397  2.1473
  110MOL0     H15144   6.024   5.399   1.418  1.2314  0.0291 -0.0247
  110MOL0     H15145   6.105   5.242   1.445 -1.0788 -0.3836  1.7378
  110MOL0     H15146   6.196   5.236   1.226 -0.0698 -0.4644 -0.3045
  110MOL0     H15147   6.087   5.350   1.166  0.3391  0.4978  1.3549
  110MOL0     H15148   6.310   5.399   1.361 -1.6218 -3.2774 -0.4049
  110MOL0     H15149   6.181   5.524   1.326 -0.1839  0.2649 -1.3648
  110MOL0     H15150   6.254   5.558   1.102  0.1730  1.6394 -0.1135
  110MOL0     H15151   6.371   5.427   1.116  1.1053 -1.3729  1.2508
  110MOL0     H15152   6.345   5.687   1.295 -1.0672 -2.0910  0.6573
  110MOL0     H15153   6.468   5.570   1.310 -0.4225  1.5171  1.0546
  110MOL0     H15154   6.557   5.636   1.085  1.0762  0.2777  0.9259
  110MOL0     H15155   6.550   5.766   1.208 -2.0233  1.5058  1.4199
  110MOL0     H15156   6.414   5.894   1.101  2.3435  0.7662 -2.6760
  110MOL0     H15157   6.292   5.763   1.070  0.3543  0.1565 -1.5458
  110MOL0     H15158   6.545   5.789   0.919  0.3169  2.3631  0.5688
  110MOL0     H15159   6.422   5.904   0.877 -1.6704 -0.6333 -1.1604
  110MOL0     H15160   5.829   5.371   1.518 -1.8368  2.3396 -3.4215
  110MOL0     H15161   5.600   5.319   1.632 -2.1053 -0.0194 -1.8673
  110MOL0     H15162   5.307   5.250   1.752  2.5102 -2.4924 -2.4403
  110MOL0     H15163   5.139   5.275   1.921  0.8280  1.0298  2.6579
  110MOL0     H15164   4.152   4.468   2.044  0.3630 -0.9836 -0.5948
  110MOL0     H15165   3.990   4.416   1.848  0.0946 -1.2756 -0.3178
  110MOL0     H15166   3.514   4.071   1.791  0.9657  0.0107  0.5904
  110MOL0     H15167   3.379   3.999   1.591 -0.2299  0.6790 -1.2640
  110MOL0     H15168   3.565   4.091   1.198 -0.4698 -0.2442 -0.4810
  110MOL0     H15169   3.601   3.917   1.205  1.0386  1.3278 -1.4847
  110MOL0     H15170   3.348   4.059   1.135  0.0911  0.4694 -3.5329
  110MOL0     H15171   3.369   3.880   1.122  0.1635 -0.9475  0.2946
  110MOL0     H15172   3.378   4.054   0.923  0.5023 -0.9356 -0.9393
  110MOL0     H15173   3.550   4.066   0.958  0.9907 -0.6537 -0.5752
  110MOL0     H15174   3.509   3.874   0.777  1.7224 -0.4742  0.5362
  110MOL0     H15175   3.407   3.792   0.901  2.3660 -1.9850  0.5927
  110MOL0     H15176   3.799   3.722   1.016 -0.1370 -2.1439 -1.3225
  110MOL0     H15177   3.727   4.024   1.351  0.5356  0.6705 -0.2873
  110MOL0     H15178   3.970   4.037   1.611  1.9283  0.7242 -2.5862
  110MOL0     H15179   3.926   4.024   1.440  2.2592 -0.6707 -0.1275
  110MOL0     H15180   3.935   4.180   1.523 -0.0249  0.1932  0.9060
  111MOL0     O15181   7.860   3.696   8.443 -0.3034 -0.1254 -0.9408
  111MOL0     C15182   7.915   3.639   8.350 -0.7753 -0.5780 -0.2929
  111MOL0     O15183   7.855   3.533   8.284 -0.7035 -0.3248 -0.2593
  111MOL0     C15184   7.747   3.472   8.336 -1.0561 -0.4406  0.1036
  111MOL0     C15185   7.747   3.429   8.468 -0.0183 -0.4219 -0.3599
  111MOL0     C15186   7.628   3.369   8.518  0.2155 -0.4572  0.6225
  111MOL0     C15187   7.519   3.347   8.432 -0.2340 -0.4320  0.1091
  111MOL0     O15188   7.403   3.309   8.493 -0.4415 -0.1717 -0.7058
  111MOL0     C15189   7.281   3.321   8.419  0.0318 -0.2146 -0.5549
  111MOL0     C15190   7.160   3.296   8.504 -0.1837  0.0368  0.5052
  111MOL0     C15191   7.025   3.318   8.423  0.2769  0.9814 -0.2855
  111MOL0     C15192   7.005   3.473   8.410  0.5385  0.3487  0.1547
  111MOL0     C15193   6.859   3.506   8.356 -0.1245 -0.9606  0.5233
  111MOL0     C15194   6.824   3.658   8.360  0.5721 -0.3276 -0.1432
  111MOL0     C15195   6.927   3.744   8.284  1.1441 -0.4782 -0.0870
  111MOL0     C15196   6.863   3.890   8.255 -0.6114  0.5021 -0.7889
  111MOL0     N15197   6.957   4.002   8.269 -0.7446 -1.0871  0.2199
  111MOL0     C15198   6.997   4.051   8.389  0.8172  0.3697  0.3748
  111MOL0     C15199   7.088   4.146   8.353 -0.9200  0.4681  0.0721
  111MOL0     C15200   7.168   4.238   8.448 -0.4769  0.1473 -0.3058
  111MOL0     C15201   7.107   4.376   8.454  0.4404 -1.0360 -0.4705
  111MOL0     C15202   7.167   4.466   8.556 -0.4477  0.1111  0.0395
  111MOL0     C15203   7.168   4.398   8.698  0.1033 -0.3614 -0.3186
  111MOL0     O15204   7.179   4.501   8.795  0.4305 -0.5080 -0.3290
  111MOL0     C15205   7.298   4.524   8.857 -0.2036 -0.4646  0.1139
  111MOL0     C15206   7.283   4.594   8.978 -0.1696  0.0925  0.0563
  111MOL0     C15207   7.394   4.654   9.048 -0.1761 -0.0499  0.6534
  111MOL0     C15208   7.375   4.737   9.168 -0.3573 -0.0957 -0.0658
  111MOL0     C15209   7.525   4.637   8.987 -0.4424 -0.1606 -0.2055
  111MOL0     C15210   7.650   4.685   9.053 -0.7943  0.4560  0.4351
  111MOL0     O15211   7.719   4.786   8.992 -0.0979 -0.0067 -0.1593
  111MOL0     C15212   7.846   4.807   9.044 -0.3137  0.1728  0.4703
  111MOL0     C15213   7.873   4.873   9.163 -0.7763  0.2994 -0.1152
  111MOL0     C15214   7.997   4.890   9.216 -1.4633  0.2148 -0.1377
  111MOL0     C15215   8.108   4.849   9.142  0.6293  0.6151 -0.4533
  111MOL0     O15216   8.239   4.883   9.170  0.3654 -0.1431  0.6236
  111MOL0     C15217   8.270   4.941   9.301 -0.3908 -0.0532  0.3799
  111MOL0     C15218   8.423   4.951   9.306  0.8065 -0.7191 -0.6917
  111MOL0     C15219   8.496   5.006   9.442  0.2410  0.8461  0.2436
  111MOL0     C15220   8.642   4.966   9.435  0.1279 -0.8985 -0.2719
  111MOL0     C15221   8.714   5.033   9.562  0.1437 -0.1463  0.3011
  111MOL0     C15222   8.867   5.002   9.572  0.4842 -0.3362  0.3600
  111MOL0     C15223   8.942   5.131   9.621  0.2413 -0.0770 -0.9259
  111MOL0     C15224   9.088   5.102   9.639  0.4185  0.8198  0.4802
  111MOL0    Cl15225   9.182   5.231   9.712 -0.2876 -0.1063 -0.3849
  111MOL0     C15226   8.091   4.783   9.026  0.8485  0.8029  0.1573
  111MOL0     C15227   7.963   4.756   8.978  0.4013 -0.7839  0.2616
  111MOL0     O15228   7.690   4.607   9.137 -0.0128 -0.5423  0.0503
  111MOL0     C15229   7.531   4.572   8.861 -0.4416  0.0024 -0.5408
  111MOL0     C15230   7.421   4.512   8.798  0.2332  0.6180 -0.1972
  111MOL0     N15231   7.097   4.157   8.211  0.4194  0.4274 -0.6158
  111MOL0     N15232   7.024   4.060   8.169 -0.0610  0.6357 -0.0167
  111MOL0     C15233   7.525   3.385   8.299 -0.1159 -0.1211 -0.7604
  111MOL0     C15234   7.643   3.440   8.252  1.0323  0.1574  0.6902
  111MOL0     C15235   8.041   3.689   8.304 -0.7718 -0.1354  1.2695
  111MOL0     C15236   8.145   3.598   8.271  0.6644 -0.6119 -0.6685
  111MOL0     C15237   8.272   3.632   8.223 -0.0659  0.3074 -0.4214
  111MOL0     C15238   8.308   3.765   8.213 -0.3553 -0.1467  0.1915
  111MOL0     O15239   8.433   3.808   8.173 -0.2172  0.1897  0.4551
  111MOL0     C15240   8.529   3.718   8.115 -0.1300  0.3246 -0.6537
  111MOL0     C15241   8.674   3.780   8.119 -0.2414 -0.3650 -1.0204
  111MOL0     C15242   8.723   3.814   8.262  0.2305  0.3310 -0.5177
  111MOL0     C15243   8.822   3.932   8.256 -0.2193 -0.0013  0.3721
  111MOL0     C15244   8.943   3.890   8.182  0.2136 -0.8969 -0.1658
  111MOL0     C15245   9.043   3.867   8.123 -0.2393 -0.8817  0.5006
  111MOL0     C15246   8.216   3.864   8.249 -0.9517 -0.0893 -1.0587
  111MOL0     C15247   8.084   3.827   8.287  1.0230 -0.5934  0.1549
  111MOL0     C15248   7.994   3.947   8.330  0.6754  0.1008  0.3440
  111MOL0     H15249   7.836   3.440   8.530 -0.3304  0.3484 -0.0304
  111MOL0     H15250   7.611   3.341   8.621 -3.9896  4.7381  1.7717
  111MOL0     H15251   7.286   3.259   8.329  0.4626  0.0591 -0.7240
  111MOL0     H15252   7.279   3.425   8.385  1.8700 -0.1954 -0.6940
  111MOL0     H15253   7.154   3.187   8.515  1.2414  0.0117  1.2540
  111MOL0     H15254   7.167   3.356   8.595 -2.7145  0.7863  0.2736
  111MOL0     H15255   7.025   3.285   8.319 -0.3781  0.4402 -0.1178
  111MOL0     H15256   6.946   3.267   8.479  0.5013 -1.6753 -2.1752
  111MOL0     H15257   7.023   3.516   8.508  2.1143 -0.2257  0.1518
  111MOL0     H15258   7.085   3.511   8.346 -1.3092  3.5182 -0.4520
  111MOL0     H15259   6.790   3.462   8.429  1.0750 -0.5891  1.9300
  111MOL0     H15260   6.839   3.483   8.251 -2.0351  3.2694 -0.2800
  111MOL0     H15261   6.725   3.675   8.317  0.0528 -1.8942  0.3424
  111MOL0     H15262   6.819   3.701   8.461 -0.2425  1.3111 -0.8388
  111MOL0     H15263   6.957   3.688   8.195 -0.7791 -2.3447  0.3478
  111MOL0     H15264   7.018   3.762   8.342  1.0673  0.2516 -0.1839
  111MOL0     H15265   6.824   3.888   8.153 -2.0011  0.7489 -0.2893
  111MOL0     H15266   6.781   3.908   8.326  0.1681  1.0257  0.0060
  111MOL0     H15267   6.956   4.020   8.484 -0.6173  0.3280 -0.2390
  111MOL0     H15268   7.267   4.237   8.400  0.5640 -0.5094  1.7285
  111MOL0     H15269   7.172   4.191   8.547 -3.8424  1.0111  0.3570
  111MOL0     H15270   7.109   4.415   8.352  2.7900  0.4148  0.0527
  111MOL0     H15271   7.004   4.355   8.484  1.1290 -0.6626  2.4643
  111MOL0     H15272   7.270   4.491   8.528 -0.6832  0.5476 -0.4606
  111MOL0     H15273   7.118   4.563   8.565 -2.7381 -1.0051  0.2126
  111MOL0     H15274   7.084   4.336   8.731  0.6653 -0.1585  1.6328
  111MOL0     H15275   7.247   4.323   8.708  0.2613 -0.0028  1.4649
  111MOL0     H15276   7.188   4.609   9.026  0.8949 -2.1155  3.1690
  111MOL0     H15277   7.424   4.832   9.148 -2.0593  0.2059 -3.6647
  111MOL0     H15278   7.422   4.680   9.248 -1.0992 -0.3402  0.2064
  111MOL0     H15279   7.268   4.759   9.175 -1.0990 -3.6650  2.3234
  111MOL0     H15280   7.788   4.907   9.223 -1.7530 -3.2618  0.7458
  111MOL0     H15281   8.008   4.946   9.308 -1.9436 -1.5335  1.0244
  111MOL0     H15282   8.231   5.043   9.299  2.5484  1.1359 -0.3784
  111MOL0     H15283   8.227   4.878   9.380  1.3159 -1.5770  0.1518
  111MOL0     H15284   8.460   4.853   9.276 -0.8726 -1.2954 -1.0144
  111MOL0     H15285   8.447   5.022   9.226  3.6930  0.4381  1.0568
  111MOL0     H15286   8.451   4.965   9.532 -0.3408 -2.7479 -1.5156
  111MOL0     H15287   8.474   5.112   9.431 -0.5508  0.4943 -1.9978
  111MOL0     H15288   8.688   5.001   9.342  2.2073 -3.3418 -0.2735
  111MOL0     H15289   8.664   4.859   9.429  1.0223 -0.7507  0.2283
  111MOL0     H15290   8.705   5.142   9.572 -1.5318 -0.3231  1.1304
  111MOL0     H15291   8.660   4.996   9.650 -1.5697 -0.4611 -0.8616
  111MOL0     H15292   8.905   4.973   9.474  1.1823  0.8157  0.2787
  111MOL0     H15293   8.881   4.923   9.647 -0.7404  0.6141  1.6622
  111MOL0     H15294   8.910   5.157   9.722  2.1833 -1.3439  0.0734
  111MOL0     H15295   8.921   5.218   9.559  0.5512 -0.4450 -1.5581
  111MOL0     H15296   9.133   5.096   9.539 -0.7126 -0.2904  0.0042
  111MOL0     H15297   9.084   5.009   9.697 -3.2871  0.8958  0.5881
  111MOL0     H15298   8.186   4.748   8.985  0.8085 -3.8946  3.2947
  111MOL0     H15299   7.969   4.715   8.878  0.3807  0.0039 -0.0704
  111MOL0     H15300   7.630   4.581   8.817 -0.0649  2.8967  0.7337
  111MOL0     H15301   7.423   4.474   8.697 -0.5177 -1.4828  0.5266
  111MOL0     H15302   7.449   3.372   8.222 -0.1449 -0.6638 -0.6453
  111MOL0     H15303   7.648   3.470   8.148 -0.7292 -1.9392 -0.0610
  111MOL0     H15304   8.129   3.491   8.278  1.1963 -0.7436 -1.3506
  111MOL0     H15305   8.338   3.554   8.187  1.0422  0.7206  0.6243
  111MOL0     H15306   8.526   3.632   8.182  0.0442 -0.4301 -1.6030
  111MOL0     H15307   8.504   3.678   8.016 -3.0801  1.5777 -0.5477
  111MOL0     H15308   8.678   3.871   8.058  2.9491 -0.0610 -0.4998
  111MOL0     H15309   8.744   3.705   8.082  1.5806  0.2923  0.9364
  111MOL0     H15310   8.639   3.832   8.329  2.8863 -2.7270  4.1553
  111MOL0     H15311   8.768   3.722   8.300  3.5200  1.9128 -0.1755
  111MOL0     H15312   8.855   3.957   8.358 -0.2557  0.7785  0.1971
  111MOL0     H15313   8.772   4.013   8.202  1.0848  0.1112 -0.7078
  111MOL0     H15314   9.130   3.856   8.063 -0.6121  1.1615 -0.4754
  111MOL0     H15315   8.262   3.962   8.254  2.4553 -1.5037 -2.0833
  111MOL0     H15316   7.886   3.929   8.327  0.0178  2.7230  3.0290
  111MOL0     H15317   8.000   3.968   8.437  0.1798 -1.1877  0.6322
  111MOL0     H15318   8.012   4.042   8.277  0.0570  0.3817  0.6199
  112MOL0     O15319   9.250   9.557   9.512  0.3450  0.2010  0.1342
  112MOL0     C15320   9.150   9.615   9.483 -0.0770 -0.0219  0.2617
  112MOL0     O15321   9.142   9.736   9.432  0.5116 -0.8521  0.0296
  112MOL0     C15322   9.251   9.807   9.387  0.1763  0.0125 -0.0166
  112MOL0     C15323   9.312   9.768   9.264 -0.4133 -0.0422 -0.1352
  112MOL0     C15324   9.428   9.826   9.221 -0.3513  0.4967  0.5080
  112MOL0     C15325   9.497   9.920   9.300 -0.3068  0.6424  0.5277
  112MOL0     O15326   9.608   9.985   9.258  0.5528 -0.2755 -0.4669
  112MOL0     C15327   9.723   9.971   9.342  0.2676  0.4960  0.3912
  112MOL0     C15328   9.849   9.948   9.258  0.5852 -0.6349  0.7693
  112MOL0     C15329   9.970   9.914   9.354  0.6526 -0.8438  0.7727
  112MOL0     C15330  10.075   9.822   9.277 -0.7526  0.1478 -0.0382
  112MOL0     C15331  10.171   9.752   9.378 -0.4588 -0.1389 -0.0629
  112MOL0     C15332  10.252   9.854   9.463  0.2695 -0.1139  0.6566
  112MOL0     C15333  10.343   9.772   9.560  0.2175  0.4836  0.9912
  112MOL0     C15334  10.312   9.784   9.710 -0.4177  0.2329 -0.0117
  112MOL0     N15335  10.342   9.917   9.764  0.0822 -0.3363  0.4792
  112MOL0     C15336  10.462   9.980   9.756  0.8542 -0.0568  1.0301
  112MOL0     C15337  10.439  10.100   9.807  0.1451 -1.4991 -0.5462
  112MOL0     C15338  10.554  10.192   9.837  0.2830 -0.1480  0.3097
  112MOL0     C15339  10.519  10.302   9.936  1.4956  0.1267  1.0260
  112MOL0     C15340  10.648  10.377   9.978 -0.4479  0.0430  0.3694
  112MOL0     C15341  10.636  10.494  10.071  0.1279 -0.7230  0.5090
  112MOL0     O15342  10.762  10.548  10.095  0.0742 -0.6403  0.3890
  112MOL0     C15343  10.830  10.495  10.199 -0.4872 -0.4194  0.1332
  112MOL0     C15344  10.783  10.504  10.332 -0.2110  0.2520  0.4022
  112MOL0     C15345  10.866  10.471  10.441 -1.4310  0.0416  0.1925
  112MOL0     C15346  10.820  10.487  10.583 -0.0240  0.1323 -0.2179
  112MOL0     C15347  10.996  10.413  10.420 -0.6059 -0.0485  0.7204
  112MOL0     C15348  11.076  10.354  10.521 -0.9541 -0.3787 -0.2442
  112MOL0     O15349  11.211  10.363  10.495  0.0120 -0.1630  0.1014
  112MOL0     C15350  11.301  10.322  10.590 -0.1577  0.3137 -0.9654
  112MOL0     C15351  11.286  10.352  10.725 -1.0389  0.0750 -1.0817
  112MOL0     C15352  11.378  10.300  10.817 -0.0500  0.1873 -0.7367
  112MOL0     C15353  11.475  10.215  10.782 -0.4680 -0.0380  0.3180
  112MOL0     O15354  11.549  10.172  10.886 -0.5515 -0.0345 -0.0216
  112MOL0     C15355  11.685  10.154  10.853 -0.1393 -0.1992  0.0130
  112MOL0     C15356  11.766  10.160  10.979 -0.0869  0.5144 -1.3072
  112MOL0     C15357  11.914  10.137  10.949  0.0761  0.4421  0.0982
  112MOL0     C15358  11.997  10.109  11.076 -0.4414 -0.5341 -0.7346
  112MOL0     C15359  12.133  10.067  11.031  0.0761 -0.2731 -0.2379
  112MOL0     C15360  12.216  10.038  11.165  0.2616  0.4219  0.0055
  112MOL0     C15361  12.366   9.998  11.138  0.4624  0.2164  0.1120
  112MOL0     C15362  12.455   9.991  11.267  1.2291  0.0194 -0.6407
  112MOL0    Cl15363  12.615   9.922  11.228  0.3375 -0.3205  0.3057
  112MOL0     C15364  11.496  10.180  10.654 -0.4028  0.4893  0.1177
  112MOL0     C15365  11.412  10.237  10.553 -0.0918  0.7413 -0.6661
  112MOL0     O15366  11.021  10.304  10.618  0.2958 -0.6316  0.1447
  112MOL0     C15367  11.036  10.412  10.289 -0.0656 -0.5033  0.0496
  112MOL0     C15368  10.965  10.454  10.180 -0.5093  0.0733 -0.2281
  112MOL0     N15369  10.302  10.107   9.847 -0.2898 -0.5825 -0.0179
  112MOL0     N15370  10.249   9.998   9.815 -0.8034 -0.5801 -0.6156
  112MOL0     C15371   9.436   9.958   9.415 -0.3375 -0.0655 -0.1622
  112MOL0     C15372   9.312   9.900   9.462 -0.4225 -0.0316 -0.0138
  112MOL0     C15373   9.016   9.550   9.514 -0.0151  0.8475 -0.0388
  112MOL0     C15374   9.017   9.442   9.602  0.1674  0.3056  0.2519
  112MOL0     C15375   8.901   9.373   9.630  0.0125  0.4206  0.9916
  112MOL0     C15376   8.781   9.401   9.565 -0.6387  0.0832  0.3293
  112MOL0     O15377   8.683   9.311   9.598 -0.8253 -0.0491 -0.5451
  112MOL0     C15378   8.552   9.314   9.532  0.5000 -0.4920  0.5336
  112MOL0     C15379   8.565   9.272   9.390  0.2161  0.3068 -0.2084
  112MOL0     C15380   8.425   9.267   9.315 -0.2414  0.9488 -0.4287
  112MOL0     C15381   8.365   9.404   9.285 -0.2301 -0.2503  0.9857
  112MOL0     C15382   8.240   9.396   9.199 -0.5414 -0.5160  0.8182
  112MOL0     C15383   8.143   9.409   9.125  0.5499  0.8877  1.0024
  112MOL0     C15384   8.781   9.510   9.478  0.5074 -0.3504 -0.1761
  112MOL0     C15385   8.892   9.584   9.442  0.5272  0.1742 -0.5815
  112MOL0     C15386   8.879   9.669   9.324 -0.3010  0.3942  0.4535
  112MOL0     H15387   9.258   9.685   9.218  0.6296 -1.2904  0.8053
  112MOL0     H15388   9.482   9.802   9.130 -0.7836  0.4576  0.2583
  112MOL0     H15389   9.712   9.877   9.398 -1.8465 -1.1545 -2.5618
  112MOL0     H15390   9.725  10.051   9.417  0.4057  0.0875  0.8356
  112MOL0     H15391   9.832   9.871   9.182 -0.8492  0.5403 -0.1606
  112MOL0     H15392   9.876  10.040   9.205 -2.2078 -0.3336 -0.2714
  112MOL0     H15393  10.015  10.006   9.392 -1.3566 -0.7134  3.0748
  112MOL0     H15394   9.940   9.849   9.437 -2.1439 -2.4810 -1.3584
  112MOL0     H15395  10.029   9.743   9.218 -0.4869  0.2398 -0.3763
  112MOL0     H15396  10.138   9.883   9.210  1.3938 -0.4087  1.3789
  112MOL0     H15397  10.247   9.700   9.318  0.9618  2.0135 -0.2558
  112MOL0     H15398  10.121   9.677   9.439 -1.3277  0.1142 -0.4480
  112MOL0     H15399  10.304   9.920   9.393 -1.1493  2.8638  2.1941
  112MOL0     H15400  10.192   9.924   9.522  0.9364 -0.8451  2.2586
  112MOL0     H15401  10.448   9.791   9.538 -0.0447  0.3600 -0.4360
  112MOL0     H15402  10.327   9.665   9.547  2.4638  0.3190 -1.1897
  112MOL0     H15403  10.209   9.752   9.730  0.0161 -0.5299  1.0799
  112MOL0     H15404  10.362   9.708   9.770 -1.9236 -0.2953  0.6191
  112MOL0     H15405  10.554   9.934   9.723  1.3100  2.2000 -1.1530
  112MOL0     H15406  10.582  10.241   9.743  0.8520  0.5101  0.8072
  112MOL0     H15407  10.632  10.127   9.878  0.7785 -0.3620 -0.9109
  112MOL0     H15408  10.450  10.373   9.891  2.7614  0.2520 -0.8173
  112MOL0     H15409  10.476  10.258  10.027 -0.4376  1.3745  0.7561
  112MOL0     H15410  10.712  10.302  10.023 -0.9493  0.9006  2.6311
  112MOL0     H15411  10.701  10.409   9.887  1.7089  0.2034  1.6341
  112MOL0     H15412  10.566  10.569  10.032 -0.5253 -1.6351 -0.1475
  112MOL0     H15413  10.582  10.447  10.154  1.3335 -2.0463  0.5817
  112MOL0     H15414  10.686  10.547  10.353 -0.8586  0.2325 -2.1435
  112MOL0     H15415  10.891  10.537  10.650  2.0659 -1.1800 -1.3261
  112MOL0     H15416  10.791  10.396  10.636  2.3321 -0.4985  0.1240
  112MOL0     H15417  10.731  10.549  10.574  0.0867  0.1514 -1.2639
  112MOL0     H15418  11.201  10.405  10.768 -2.1468 -0.7128 -2.2375
  112MOL0     H15419  11.379  10.330  10.921 -1.2756 -3.7059  0.5434
  112MOL0     H15420  11.702  10.062  10.796  0.6315 -0.1580  0.1690
  112MOL0     H15421  11.722  10.235  10.789  0.8411 -0.6759 -0.0344
  112MOL0     H15422  11.761  10.261  11.021 -0.8586  1.0195 -2.5535
  112MOL0     H15423  11.729  10.082  11.046 -0.0056  1.3916 -0.2160
  112MOL0     H15424  11.944  10.227  10.893 -1.4670  1.1955  0.4033
  112MOL0     H15425  11.920  10.050  10.883 -1.4096  0.0805  0.4155
  112MOL0     H15426  11.941  10.034  11.132 -0.5574 -0.8851 -1.3162
  112MOL0     H15427  12.006  10.196  11.141 -0.8747 -0.2883 -1.0001
  112MOL0     H15428  12.143   9.979  10.967 -1.2730 -1.2467  0.8325
  112MOL0     H15429  12.183  10.150  10.980  3.1264 -1.0470  1.2270
  112MOL0     H15430  12.178   9.952  11.220  0.9777  1.3230  2.0133
  112MOL0     H15431  12.220  10.123  11.234  1.2910 -1.2467  2.1072
  112MOL0     H15432  12.420  10.078  11.087  0.8803  1.6310  2.6332
  112MOL0     H15433  12.371   9.899  11.092  0.1386  0.3256 -0.1619
  112MOL0     H15434  12.417   9.937  11.354  2.5751  1.1904  0.7477
  112MOL0     H15435  12.473  10.093  11.302  0.0478 -0.2012  0.7032
  112MOL0     H15436  11.579  10.114  10.630 -0.5927 -1.3042  3.7502
  112MOL0     H15437  11.443  10.214  10.452  0.7670  1.0360 -0.4753
  112MOL0     H15438  11.136  10.382  10.261 -0.8098 -1.6790 -1.5209
  112MOL0     H15439  11.008  10.459  10.080  0.0842 -2.3581 -0.1574
  112MOL0     H15440   9.481  10.028   9.485  0.5788 -0.8311  0.0282
  112MOL0     H15441   9.264   9.918   9.558  0.5895  0.5302  0.4070
  112MOL0     H15442   9.104   9.405   9.656  0.9541  2.8746  0.8954
  112MOL0     H15443   8.905   9.282   9.689  2.1799  0.4251  0.9090
  112MOL0     H15444   8.483   9.251   9.588  0.3302  1.8291  3.1893
  112MOL0     H15445   8.515   9.417   9.532  2.0924  0.1270  1.4683
  112MOL0     H15446   8.597   9.168   9.382 -2.2790 -0.5273 -0.4070
  112MOL0     H15447   8.629   9.336   9.329 -2.3019  1.3545 -1.9310
  112MOL0     H15448   8.442   9.220   9.218  2.1658  0.3282  0.2120
  112MOL0     H15449   8.359   9.205   9.376  1.6937  1.0517  1.9581
  112MOL0     H15450   8.443   9.469   9.245 -1.6608  0.5314 -0.6290
  112MOL0     H15451   8.335   9.446   9.382 -1.0464  1.4707  0.0313
  112MOL0     H15452   8.054   9.427   9.068 -0.9309 -2.9253  1.8037
  112MOL0     H15453   8.693   9.535   9.420  0.0349  1.7583  1.3332
  112MOL0     H15454   8.962   9.673   9.253 -0.8978 -1.3422 -0.3997
  112MOL0     H15455   8.795   9.639   9.261  2.2658 -2.3547 -1.9520
  112MOL0     H15456   8.856   9.771   9.356  1.2195  1.4325 -1.5700
  113MOL0     O15457   8.057   8.739   2.863 -0.4899 -0.0076  0.0055
  113MOL0     C15458   8.079   8.854   2.840 -0.4604 -0.8521  0.0643
  113MOL0     O15459   8.123   8.898   2.719  0.5078 -0.0884  1.0577
  113MOL0     C15460   8.188   8.818   2.624 -0.6409 -0.2224 -0.3497
  113MOL0     C15461   8.136   8.703   2.570 -0.4119 -0.4517  1.4736
  113MOL0     C15462   8.206   8.626   2.483 -0.5908 -0.1743  0.4346
  113MOL0     C15463   8.335   8.665   2.447 -0.2150 -0.1161  0.6240
  113MOL0     O15464   8.415   8.590   2.371 -0.0272 -0.0616 -0.0570
  113MOL0     C15465   8.416   8.449   2.374  0.0154 -0.3102 -0.1524
  113MOL0     C15466   8.545   8.393   2.310  0.5866  0.2655  0.7930
  113MOL0     C15467   8.557   8.242   2.340  0.1265  0.1408  0.5578
  113MOL0     C15468   8.667   8.178   2.260  1.0730 -0.2038  0.4699
  113MOL0     C15469   8.678   8.024   2.279 -0.6017  0.0190  0.0577
  113MOL0     C15470   8.779   7.986   2.386  0.2055 -0.6468  0.4694
  113MOL0     C15471   8.821   7.835   2.382  0.4246 -0.6094  0.8813
  113MOL0     C15472   8.895   7.812   2.512  0.9763 -0.2124  0.3340
  113MOL0     N15473   9.034   7.862   2.491  0.4037 -0.6491 -0.5092
  113MOL0     C15474   9.074   7.995   2.512  0.7128 -0.4613 -0.1734
  113MOL0     C15475   9.205   7.992   2.502 -0.4514  0.0682 -0.6470
  113MOL0     C15476   9.309   8.095   2.554 -0.6694  0.4180 -0.2030
  113MOL0     C15477   9.353   8.060   2.701  0.0808  0.2095  0.2513
  113MOL0     C15478   9.473   8.154   2.737 -0.9317  0.8875 -0.2156
  113MOL0     C15479   9.605   8.073   2.724 -0.8593 -0.5994 -0.9383
  113MOL0     O15480   9.708   8.173   2.739 -0.1530 -0.2516  0.0254
  113MOL0     C15481   9.841   8.150   2.703  1.2039 -0.2749  0.2745
  113MOL0     C15482   9.921   8.257   2.728 -0.3722 -0.5528  0.2406
  113MOL0     C15483  10.058   8.243   2.712  0.4035  0.3102  0.0560
  113MOL0     C15484  10.140   8.366   2.740  0.6836  0.4740  0.0953
  113MOL0     C15485  10.116   8.118   2.675  0.2334  0.1180  0.3199
  113MOL0     C15486  10.260   8.106   2.635  0.0814  0.2063 -0.2874
  113MOL0     O15487  10.312   7.978   2.641  0.1661 -0.7246  0.0966
  113MOL0     C15488  10.448   7.960   2.628  0.2918  0.3587  0.1528
  113MOL0     C15489  10.526   7.989   2.739  0.0786 -0.2525  0.7171
  113MOL0     C15490  10.664   7.958   2.743  0.1946 -0.8645 -0.6776
  113MOL0     C15491  10.727   7.914   2.626  0.3550  0.1287 -0.8746
  113MOL0     O15492  10.854   7.907   2.621  0.3809  0.1176 -0.1535
  113MOL0     C15493  10.935   8.025   2.636 -0.4556 -0.1470 -0.0916
  113MOL0     C15494  10.945   8.092   2.500  0.1492  0.5036  0.3564
  113MOL0     C15495  11.071   8.182   2.489  0.3506 -0.2360  0.3455
  113MOL0     C15496  11.056   8.323   2.540  0.2032 -0.0478  0.4994
  113MOL0     C15497  11.161   8.411   2.482  0.1582 -0.5853  0.1081
  113MOL0     C15498  11.121   8.478   2.344 -0.7403 -0.3102  0.4594
  113MOL0     C15499  11.057   8.614   2.364 -0.2236  0.1294  0.5616
  113MOL0     C15500  10.923   8.627   2.433  0.3229 -0.3583 -0.0254
  113MOL0    Cl15501  10.893   8.810   2.470 -0.2324 -0.0449 -0.2211
  113MOL0     C15502  10.647   7.875   2.515  0.2590  0.2266  0.1891
  113MOL0     C15503  10.511   7.902   2.519  0.3622  0.2653  0.8897
  113MOL0     O15504  10.325   8.208   2.613  0.3483 -0.0025  0.2643
  113MOL0     C15505  10.026   8.010   2.657  0.5602 -0.5606  0.7969
  113MOL0     C15506   9.888   8.033   2.672 -0.1245  0.3782  0.0212
  113MOL0     N15507   9.248   7.868   2.464 -0.0585  0.3726  0.4805
  113MOL0     N15508   9.149   7.795   2.459  0.6708  0.1438 -0.7448
  113MOL0     C15509   8.384   8.781   2.503 -0.7536  0.2039 -0.1360
  113MOL0     C15510   8.312   8.856   2.589 -0.0493 -0.1790 -0.1261
  113MOL0     C15511   8.062   8.965   2.943 -0.0494  0.2967 -0.2928
  113MOL0     C15512   8.081   9.100   2.909  1.0155 -0.5975  0.1860
  113MOL0     C15513   8.054   9.203   3.010 -0.7111 -0.2614  0.3578
  113MOL0     C15514   8.016   9.175   3.142 -0.1669  0.5044 -0.7718
  113MOL0     O15515   7.973   9.281   3.215  0.0886  0.7454  0.3477
  113MOL0     C15516   7.955   9.259   3.353 -0.3219  0.5134  0.2549
  113MOL0     C15517   7.806   9.261   3.394 -0.8108 -0.1696  0.6064
  113MOL0     C15518   7.714   9.154   3.331 -0.2196 -0.3564 -0.3507
  113MOL0     C15519   7.565   9.160   3.373 -0.9121 -0.1027  0.6849
  113MOL0     C15520   7.567   9.147   3.525  0.3985  0.4470  0.2081
  113MOL0     C15521   7.543   9.147   3.649  0.9236 -0.4263 -0.4062
  113MOL0     C15522   8.003   9.045   3.171  0.7097  0.1942 -0.4099
  113MOL0     C15523   8.021   8.938   3.076 -0.6969 -0.1179 -0.8779
  113MOL0     C15524   7.994   8.799   3.127 -0.0967  0.4044  0.1975
  113MOL0     H15525   8.039   8.661   2.597 -0.4062 -1.3332  0.2146
  113MOL0     H15526   8.176   8.527   2.450 -3.7223  0.9367 -0.3518
  113MOL0     H15527   8.325   8.405   2.332 -0.2235 -1.6306  1.6378
  113MOL0     H15528   8.416   8.427   2.481  0.2042 -0.0232 -0.0918
  113MOL0     H15529   8.534   8.416   2.204 -3.3221  4.2499  1.7678
  113MOL0     H15530   8.632   8.451   2.343 -0.0453  2.2447 -0.8602
  113MOL0     H15531   8.577   8.232   2.447 -1.0900  0.1107  0.7918
  113MOL0     H15532   8.462   8.194   2.314 -0.0846  0.3361  0.9680
  113MOL0     H15533   8.641   8.183   2.154  0.1447 -0.3745  0.6814
  113MOL0     H15534   8.763   8.230   2.272  1.1735 -0.5361  1.1858
  113MOL0     H15535   8.713   7.975   2.187  0.8449  1.5261 -0.2349
  113MOL0     H15536   8.579   7.986   2.306  0.4390 -0.7308  3.3128
  113MOL0     H15537   8.872   8.042   2.378  0.2956 -0.7977  0.4585
  113MOL0     H15538   8.739   8.005   2.486  0.0425 -0.6707  0.4094
  113MOL0     H15539   8.881   7.808   2.294  1.9067  0.5678  1.4841
  113MOL0     H15540   8.724   7.787   2.392  0.1336 -0.1069  0.5270
  113MOL0     H15541   8.852   7.862   2.599 -0.7615 -3.2221  1.3374
  113MOL0     H15542   8.890   7.705   2.535 -2.5550  0.5072  3.9372
  113MOL0     H15543   9.018   8.081   2.548 -0.7905 -0.8499 -1.4737
  113MOL0     H15544   9.292   8.202   2.538 -0.5734  0.3195 -0.9965
  113MOL0     H15545   9.396   8.074   2.492 -0.1384  2.2870 -0.1399
  113MOL0     H15546   9.273   8.089   2.771  0.2135 -1.7628  1.2634
  113MOL0     H15547   9.371   7.953   2.702 -1.9206 -0.1805 -0.0287
  113MOL0     H15548   9.476   8.249   2.683  2.4392  1.3399  0.5666
  113MOL0     H15549   9.473   8.175   2.844  2.6355 -1.5320  0.4121
  113MOL0     H15550   9.611   7.995   2.801  0.9094 -2.1092 -2.5044
  113MOL0     H15551   9.607   8.035   2.622 -0.1936  0.8471 -1.4887
  113MOL0     H15552   9.881   8.352   2.760 -2.5416 -2.1462  2.7125
  113MOL0     H15553  10.090   8.455   2.780 -2.0475 -1.1883  0.6623
  113MOL0     H15554  10.182   8.390   2.642 -0.2757  0.7905 -0.2502
  113MOL0     H15555  10.217   8.329   2.810 -2.8324 -2.4635  2.8282
  113MOL0     H15556  10.478   8.035   2.825 -0.9628  0.5880 -0.3007
  113MOL0     H15557  10.738   7.985   2.818  0.1484  3.5751 -1.9442
  113MOL0     H15558  10.908   8.096   2.715  0.5933  0.4539 -0.2579
  113MOL0     H15559  11.026   7.982   2.679 -2.7463 -2.3742  2.9551
  113MOL0     H15560  10.970   8.009   2.433 -0.4573  0.3006  0.3656
  113MOL0     H15561  10.849   8.138   2.475  0.5316  0.6893 -0.7967
  113MOL0     H15562  11.095   8.189   2.383  0.5927  4.1728  0.5013
  113MOL0     H15563  11.155   8.134   2.540 -0.2059  0.2558  1.7665
  113MOL0     H15564  11.071   8.312   2.648  1.2718 -0.2173  0.3497
  113MOL0     H15565  10.950   8.351   2.540 -0.3331 -1.9029  2.0031
  113MOL0     H15566  11.199   8.489   2.548  2.5897 -0.7589 -0.9892
  113MOL0     H15567  11.245   8.347   2.454 -1.2959 -0.9595 -4.0656
  113MOL0     H15568  11.042   8.422   2.293 -1.6967 -0.9464  2.5235
  113MOL0     H15569  11.208   8.501   2.282  0.6902 -1.5511  1.9334
  113MOL0     H15570  11.038   8.655   2.264 -0.4812 -1.4997 -0.0768
  113MOL0     H15571  11.138   8.675   2.406 -1.9944  2.1693  1.1726
  113MOL0     H15572  10.917   8.573   2.528  3.0663  2.4481  1.9302
  113MOL0     H15573  10.846   8.588   2.365 -1.9245  0.7170  1.7563
  113MOL0     H15574  10.690   7.840   2.421 -1.3714 -1.6584  0.0858
  113MOL0     H15575  10.447   7.876   2.436  1.3939 -1.2229  0.5118
  113MOL0     H15576  10.054   7.907   2.635 -4.3112 -1.6983 -1.3336
  113MOL0     H15577   9.835   7.939   2.668  1.1242 -0.3591  0.2569
  113MOL0     H15578   8.485   8.811   2.481 -0.5468  0.2292  0.8193
  113MOL0     H15579   8.355   8.947   2.628 -2.2565 -0.6179  3.9004
  113MOL0     H15580   8.100   9.138   2.810 -2.7091  2.4184  0.3905
  113MOL0     H15581   8.074   9.300   2.967  0.6719 -1.2444 -1.3273
  113MOL0     H15582   8.000   9.166   3.389 -0.4508 -1.1116 -3.3378
  113MOL0     H15583   8.000   9.346   3.401  2.0206 -1.5378  2.0632
  113MOL0     H15584   7.769   9.352   3.347 -0.6795 -0.6437 -0.4378
  113MOL0     H15585   7.807   9.263   3.503  1.7343  3.9600  0.6953
  113MOL0     H15586   7.716   9.163   3.222  1.0062 -1.0821 -0.4083
  113MOL0     H15587   7.741   9.051   3.359  0.9651  0.5618  2.1203
  113MOL0     H15588   7.497   9.096   3.316  0.0556 -0.3568 -0.2121
  113MOL0     H15589   7.521   9.257   3.345 -1.2416 -1.0660 -2.5013
  113MOL0     H15590   7.514   9.164   3.751 -1.5631  0.3664 -1.1709
  113MOL0     H15591   7.965   9.021   3.270  0.6936  0.9010 -0.2412
  113MOL0     H15592   7.974   8.799   3.234  1.0687 -1.3684  0.4500
  113MOL0     H15593   7.908   8.758   3.073  1.0553 -0.7500 -0.8236
  113MOL0     H15594   8.082   8.736   3.112 -0.0105  0.8306 -1.2895
  114MOL0     O15595   0.686   8.892   1.952  0.3041  0.1013 -0.2504
  114MOL0     C15596   0.718   8.878   1.832 -0.9938  0.2642  0.0746
  114MOL0     O15597   0.825   8.810   1.790  0.7643  0.1158  0.2138
  114MOL0     C15598   0.936   8.812   1.868  0.1582 -0.6197  0.7775
  114MOL0     C15599   0.985   8.930   1.939  0.1916  0.6045 -0.0337
  114MOL0     C15600   1.114   8.928   1.997  0.1691  0.7466 -0.0288
  114MOL0     C15601   1.183   8.805   2.002  0.1838  0.2768 -0.1587
  114MOL0     O15602   1.313   8.784   2.044 -0.6932 -0.1095  1.1128
  114MOL0     C15603   1.362   8.883   2.137 -0.1069  0.2763 -0.0637
  114MOL0     C15604   1.493   8.847   2.200  0.8208  0.4011  0.4611
  114MOL0     C15605   1.605   8.853   2.112 -0.8061 -0.4435 -0.6995
  114MOL0     C15606   1.740   8.813   2.186 -0.0321  0.4155  0.3827
  114MOL0     C15607   1.794   8.924   2.283  0.3688 -0.8704  0.0424
  114MOL0     C15608   1.923   8.883   2.353  0.2729 -0.3372 -0.1637
  114MOL0     C15609   1.955   8.982   2.463 -0.5341  0.0668 -0.2307
  114MOL0     C15610   2.093   8.941   2.526  0.4495 -0.2859 -0.6956
  114MOL0     N15611   2.208   9.020   2.476 -0.8500  0.2172 -0.4604
  114MOL0     C15612   2.294   9.086   2.567  0.3736 -0.3571  0.2012
  114MOL0     C15613   2.391   9.139   2.485 -0.6052  0.2871  0.1262
  114MOL0     C15614   2.521   9.207   2.537  0.0270  0.0790  0.0715
  114MOL0     C15615   2.638   9.185   2.445  0.1137 -0.5288 -0.6211
  114MOL0     C15616   2.763   9.266   2.480 -0.1780 -0.0219 -0.3645
  114MOL0     C15617   2.764   9.414   2.462 -0.2561 -0.4395 -0.1800
  114MOL0     O15618   2.900   9.467   2.493  0.0483  0.5509 -0.1577
  114MOL0     C15619   2.928   9.599   2.512 -0.0194  0.6673 -0.1077
  114MOL0     C15620   2.834   9.707   2.476  0.2041  1.4649  0.3162
  114MOL0     C15621   2.863   9.839   2.474 -0.4849 -0.2643 -0.1507
  114MOL0     C15622   2.756   9.942   2.437 -0.1265  0.1957  0.8666
  114MOL0     C15623   2.985   9.884   2.536  0.3505 -0.2646  0.4631
  114MOL0     C15624   3.021  10.028   2.544  0.0826  0.6648 -0.9555
  114MOL0     O15625   3.102  10.062   2.656 -0.0279  0.5831  0.9400
  114MOL0     C15626   3.129  10.194   2.679 -0.3359  0.1016 -0.9317
  114MOL0     C15627   3.260  10.229   2.711  0.2654  0.5653 -0.2458
  114MOL0     C15628   3.297  10.360   2.744 -0.3033  0.1287  0.3323
  114MOL0     C15629   3.204  10.464   2.741  0.0555 -0.0041  0.2898
  114MOL0     O15630   3.231  10.592   2.785  0.3125 -0.0167 -0.1259
  114MOL0     C15631   3.362  10.644   2.750  0.2888  0.4679 -0.2522
  114MOL0     C15632   3.344  10.785   2.694  0.0556 -0.4257 -0.0519
  114MOL0     C15633   3.482  10.848   2.656  0.0281  0.5026 -0.6781
  114MOL0     C15634   3.476  10.992   2.600 -1.2303 -0.0170  0.2772
  114MOL0     C15635   3.606  11.074   2.593  0.5122 -0.2693  0.4944
  114MOL0     C15636   3.668  11.112   2.730 -0.0236 -0.6874 -0.1238
  114MOL0     C15637   3.802  11.185   2.717  0.3123  0.3394  0.5231
  114MOL0     C15638   3.912  11.101   2.643  0.0259  0.2459 -0.2710
  114MOL0    Cl15639   3.952  10.934   2.693  0.2975 -0.1776 -0.0418
  114MOL0     C15640   3.071  10.431   2.705 -0.0882 -0.0308 -1.0817
  114MOL0     C15641   3.034  10.296   2.675  0.1487  0.5146 -0.3245
  114MOL0     O15642   2.982  10.109   2.462  0.6171 -0.4069 -0.5465
  114MOL0     C15643   3.078   9.783   2.582  0.5231 -0.6641  0.0270
  114MOL0     C15644   3.058   9.646   2.548  0.1944 -0.0746  0.2597
  114MOL0     N15645   2.361   9.108   2.357  0.9374  0.1543  0.5231
  114MOL0     N15646   2.258   9.029   2.350 -0.1426  0.1683  0.0863
  114MOL0     C15647   1.127   8.689   1.937  0.3104 -0.1336 -0.4279
  114MOL0     C15648   1.009   8.701   1.866  0.7874  0.0358 -0.0855
  114MOL0     C15649   0.615   8.912   1.733 -0.2971 -0.0969  0.9246
  114MOL0     C15650   0.605   8.837   1.616  0.4741 -0.6014  0.0695
  114MOL0     C15651   0.526   8.876   1.510  0.1228 -0.1126 -0.1931
  114MOL0     C15652   0.437   8.981   1.527 -0.5984  0.1687  0.8413
  114MOL0     O15653   0.336   9.021   1.437 -0.1226 -0.1274 -0.0662
  114MOL0     C15654   0.278   8.918   1.354 -0.7375 -0.6437 -0.1729
  114MOL0     C15655   0.147   8.991   1.293  0.7341  1.0579  0.4546
  114MOL0     C15656   0.032   8.889   1.275  0.8339  0.1404  0.0779
  114MOL0     C15657  -0.104   8.951   1.226 -0.3349  0.1799 -0.6565
  114MOL0     C15658  -0.204   8.849   1.206 -0.4608  0.1886  1.1050
  114MOL0     C15659  -0.281   8.764   1.169 -0.1155 -0.3698 -1.3337
  114MOL0     C15660   0.445   9.055   1.643  0.3406 -0.4313  0.7931
  114MOL0     C15661   0.532   9.020   1.747  0.0757  0.5587 -0.5061
  114MOL0     C15662   0.542   9.120   1.857 -0.1709 -0.8321  0.4957
  114MOL0     H15663   0.929   9.023   1.945  1.5173  1.4509 -0.5513
  114MOL0     H15664   1.158   9.021   2.034  1.5936  0.7713 -1.6903
  114MOL0     H15665   1.299   8.916   2.220  1.1809  0.6291  0.7990
  114MOL0     H15666   1.378   8.966   2.068  0.4641  0.7626  0.6400
  114MOL0     H15667   1.499   8.926   2.274 -0.8183  0.4049  0.6072
  114MOL0     H15668   1.488   8.756   2.261  2.6565  0.3910  0.6634
  114MOL0     H15669   1.580   8.791   2.026 -0.8802 -0.4190 -0.6955
  114MOL0     H15670   1.620   8.955   2.076  2.3437 -0.6961 -0.4105
  114MOL0     H15671   1.735   8.718   2.240 -0.5059 -0.1906 -0.6884
  114MOL0     H15672   1.811   8.789   2.107 -0.8271 -1.0922  0.0983
  114MOL0     H15673   1.717   8.936   2.359 -2.0100  1.7121 -2.5384
  114MOL0     H15674   1.804   9.020   2.231 -1.3082 -1.6811 -1.9179
  114MOL0     H15675   1.909   8.783   2.396 -1.9963 -0.6573 -1.4855
  114MOL0     H15676   2.007   8.879   2.283 -1.9583 -0.8231 -3.0007
  114MOL0     H15677   1.872   8.975   2.533  0.7477 -1.8597  1.2136
  114MOL0     H15678   1.966   9.086   2.432 -0.5425  0.4439  1.0029
  114MOL0     H15679   2.084   8.951   2.635 -0.3947 -0.3585 -0.7561
  114MOL0     H15680   2.112   8.835   2.505  0.4000 -0.2772 -0.7825
  114MOL0     H15681   2.300   9.091   2.675 -1.4691 -0.4605  0.3365
  114MOL0     H15682   2.540   9.162   2.635  1.2420 -0.9733 -0.6199
  114MOL0     H15683   2.498   9.314   2.543  1.8084  0.5301 -0.7649
  114MOL0     H15684   2.659   9.078   2.458 -0.6375 -0.4122  2.3517
  114MOL0     H15685   2.614   9.208   2.341 -2.3100 -0.8093 -0.1957
  114MOL0     H15686   2.788   9.236   2.583 -2.5794  1.9509  0.9055
  114MOL0     H15687   2.835   9.222   2.411  1.7358  0.7545  1.0280
  114MOL0     H15688   2.722   9.435   2.364 -0.3142 -0.0901 -0.0811
  114MOL0     H15689   2.702   9.456   2.542 -0.5374 -0.4429 -0.3981
  114MOL0     H15690   2.737   9.678   2.436 -0.5576 -0.7246  3.3700
  114MOL0     H15691   2.656   9.898   2.435  0.2701 -0.7109 -0.0588
  114MOL0     H15692   2.786   9.983   2.340  2.1905 -1.6117  0.7213
  114MOL0     H15693   2.749  10.026   2.507  0.1432 -0.1142  1.2705
  114MOL0     H15694   3.341  10.157   2.713  2.2296  2.5614  3.2333
  114MOL0     H15695   3.401  10.377   2.772 -0.0976 -1.6004  0.7263
  114MOL0     H15696   3.424  10.662   2.838  1.3793  0.6859 -1.0406
  114MOL0     H15697   3.419  10.585   2.679 -0.7263 -0.3145 -0.4420
  114MOL0     H15698   3.288  10.774   2.601  1.2002  0.9953 -0.9641
  114MOL0     H15699   3.293  10.849   2.767  0.6642 -1.2874  1.1624
  114MOL0     H15700   3.533  10.777   2.589 -2.2889  0.3543 -2.4099
  114MOL0     H15701   3.551  10.851   2.741 -0.0274  0.1457 -0.6200
  114MOL0     H15702   3.411  11.048   2.668 -2.1080 -0.5155 -0.1390
  114MOL0     H15703   3.438  10.981   2.498  0.5263  3.5293 -0.9391
  114MOL0     H15704   3.676  11.008   2.540 -0.0896 -0.5016 -0.0340
  114MOL0     H15705   3.587  11.170   2.544  0.6692  0.1472  1.2454
  114MOL0     H15706   3.679  11.023   2.792 -0.2628 -0.0693  0.8290
  114MOL0     H15707   3.601  11.177   2.787  0.4462  1.5736 -1.9923
  114MOL0     H15708   3.831  11.215   2.819 -0.8004  4.4694 -0.1889
  114MOL0     H15709   3.773  11.278   2.667  1.8071  0.6892  0.2688
  114MOL0     H15710   4.002  11.161   2.624 -1.3208  1.8044 -2.2840
  114MOL0     H15711   3.872  11.093   2.541 -2.0509 -2.2832  0.6316
  114MOL0     H15712   3.014  10.524   2.699  2.1655  1.5064 -0.0945
  114MOL0     H15713   2.935  10.268   2.639 -0.3539  0.1931  1.2132
  114MOL0     H15714   3.179   9.811   2.610 -0.5443  4.6282 -0.3811
  114MOL0     H15715   3.144   9.582   2.565 -0.0745 -0.6791 -0.5789
  114MOL0     H15716   1.182   8.595   1.931 -0.0809 -0.2859 -2.1144
  114MOL0     H15717   0.964   8.613   1.821  2.0090 -1.0692  0.7989
  114MOL0     H15718   0.668   8.750   1.605 -1.8326 -2.2645 -0.7301
  114MOL0     H15719   0.531   8.811   1.423 -1.8542  0.5333 -0.8515
  114MOL0     H15720   0.337   8.875   1.272 -0.0894  2.7561 -1.6779
  114MOL0     H15721   0.250   8.825   1.404 -1.2842 -1.2564 -1.5363
  114MOL0     H15722   0.178   9.034   1.197  2.8968 -3.0950 -0.9154
  114MOL0     H15723   0.108   9.062   1.367 -0.1040 -1.5740  2.7258
  114MOL0     H15724   0.050   8.821   1.191 -0.6199  0.7085 -0.7425
  114MOL0     H15725   0.020   8.832   1.367 -0.6909 -1.8941 -1.2909
  114MOL0     H15726  -0.072   9.009   1.138  2.6797 -0.6129 -0.2171
  114MOL0     H15727  -0.132   9.011   1.313  1.2935  0.1419 -0.0679
  114MOL0     H15728  -0.344   8.684   1.137 -1.3070  0.0807 -0.1813
  114MOL0     H15729   0.379   9.141   1.644  1.7467  0.8069 -2.1612
  114MOL0     H15730   0.500   9.077   1.948  2.6963 -1.3980  1.6419
  114MOL0     H15731   0.649   9.143   1.866 -0.2320  1.2901 -2.6619
  114MOL0     H15732   0.494   9.218   1.850  0.9284 -0.3182 -0.0069
  115MOL0     O15733   7.770   8.666   2.594 -0.0901  0.3828 -0.1917
  115MOL0     C15734   7.722   8.768   2.639  0.4339 -0.6434 -0.0995
  115MOL0     O15735   7.695   8.876   2.564  0.2288 -0.0067  0.4816
  115MOL0     C15736   7.730   8.875   2.431  0.2159  0.3878  0.6008
  115MOL0     C15737   7.629   8.903   2.341 -0.1160 -0.4443  0.5293
  115MOL0     C15738   7.653   8.924   2.207  0.7833  0.9927  0.0406
  115MOL0     C15739   7.784   8.906   2.147 -0.2420  0.6088  0.2970
  115MOL0     O15740   7.809   8.939   2.017 -0.4443 -0.2460  0.2538
  115MOL0     C15741   7.752   8.875   1.899  0.1461  0.7089 -0.4893
  115MOL0     C15742   7.804   8.940   1.770 -0.1100  0.8384  0.2071
  115MOL0     C15743   7.957   8.926   1.757  0.3610 -0.6326 -0.1406
  115MOL0     C15744   8.021   9.023   1.662 -0.5466 -0.4767 -0.5786
  115MOL0     C15745   8.168   8.997   1.638  0.2422 -1.1675 -0.6051
  115MOL0     C15746   8.231   9.078   1.519  0.1469 -0.2154 -0.0930
  115MOL0     C15747   8.387   9.103   1.527  0.3112  0.1409  0.8371
  115MOL0     C15748   8.465   8.968   1.512 -0.9850 -0.2438  0.1509
  115MOL0     N15749   8.596   9.021   1.479 -0.7600 -0.0493  0.4862
  115MOL0     C15750   8.634   9.065   1.357 -0.9681  0.5670  0.7605
  115MOL0     C15751   8.749   9.141   1.373  0.6120  0.4446  0.0261
  115MOL0     C15752   8.833   9.198   1.254  0.2047  0.7883 -0.3512
  115MOL0     C15753   8.969   9.140   1.230 -0.2945 -0.4723 -0.6110
  115MOL0     C15754   9.067   9.253   1.194  0.3969 -1.0588 -0.2898
  115MOL0     C15755   9.207   9.203   1.166  0.2934 -0.0076  0.6519
  115MOL0     O15756   9.280   9.321   1.124  0.2900  0.6542 -0.5412
  115MOL0     C15757   9.413   9.311   1.078  0.0532 -0.0993  1.0622
  115MOL0     C15758   9.468   9.431   1.035  0.6980  0.8800 -0.0679
  115MOL0     C15759   9.598   9.439   0.996 -0.7006 -0.2362 -0.5318
  115MOL0     C15760   9.641   9.586   0.978 -0.4364  0.7409  0.9848
  115MOL0     C15761   9.677   9.318   0.986 -0.1357  0.5992 -0.2766
  115MOL0     C15762   9.828   9.326   0.944 -0.0087  0.6154 -0.8675
  115MOL0     O15763   9.887   9.199   0.926 -0.1764 -0.0225 -0.4142
  115MOL0     C15764  10.018   9.194   0.915 -0.6119 -0.2562  0.0242
  115MOL0     C15765  10.070   9.079   0.853 -0.5942 -0.2519  0.2091
  115MOL0     C15766  10.210   9.060   0.837  0.0691 -0.3511 -0.1955
  115MOL0     C15767  10.302   9.157   0.880  0.6540  0.1626  0.0835
  115MOL0     O15768  10.438   9.141   0.873  0.4476  0.0360 -0.0102
  115MOL0     C15769  10.535   9.246   0.848  0.7355  0.2919 -0.3232
  115MOL0     C15770  10.599   9.308   0.978 -0.0702  0.2420  0.2196
  115MOL0     C15771  10.698   9.217   1.052  0.0568  0.2726 -0.0522
  115MOL0     C15772  10.775   9.287   1.166  0.3209 -0.6513  0.4343
  115MOL0     C15773  10.884   9.196   1.208  0.1387  0.1755 -0.3253
  115MOL0     C15774  10.945   9.250   1.341  0.5370  0.3944 -0.5362
  115MOL0     C15775  11.037   9.376   1.339 -1.0416  0.2037  0.6582
  115MOL0     C15776  11.166   9.349   1.251  0.2655  1.0682 -0.4196
  115MOL0    Cl15777  11.143   9.394   1.089  0.3284 -0.3679  0.0871
  115MOL0     C15778  10.247   9.275   0.935 -0.4910 -0.2180 -0.1135
  115MOL0     C15779  10.110   9.292   0.958 -0.6917  0.0332 -0.2426
  115MOL0     O15780   9.881   9.436   0.920  0.9860  0.2356 -0.0827
  115MOL0     C15781   9.612   9.196   1.014 -0.4730  0.2881 -0.8067
  115MOL0     C15782   9.481   9.186   1.059  0.3165  0.8539 -0.1664
  115MOL0     N15783   8.773   9.139   1.512  0.1429 -0.1837  0.2207
  115MOL0     N15784   8.680   9.071   1.572  0.9009  0.3855  0.4481
  115MOL0     C15785   7.885   8.872   2.245  0.2718  0.1844 -1.1261
  115MOL0     C15786   7.862   8.865   2.385 -0.0159  0.2929 -0.1810
  115MOL0     C15787   7.703   8.785   2.786 -0.0088  0.9105 -0.8985
  115MOL0     C15788   7.665   8.667   2.853  0.3338 -0.0835 -0.0635
  115MOL0     C15789   7.646   8.673   2.990 -0.7150  0.6475 -0.3131
  115MOL0     C15790   7.656   8.790   3.065  0.2626  0.4652 -0.1200
  115MOL0     O15791   7.632   8.798   3.204 -0.2578 -0.4628  0.9792
  115MOL0     C15792   7.650   8.672   3.269  0.0252 -1.0389  0.5335
  115MOL0     C15793   7.659   8.694   3.417  0.2649 -0.3130 -0.7043
  115MOL0     C15794   7.780   8.771   3.457  0.3778  0.3787 -0.8594
  115MOL0     C15795   7.764   8.821   3.601 -0.1792  0.3595  0.7515
  115MOL0     C15796   7.887   8.882   3.648 -0.5745 -0.1322  0.3469
  115MOL0     C15797   7.990   8.930   3.687 -0.2411 -0.8203 -0.2091
  115MOL0     C15798   7.700   8.898   2.999  0.8664  0.1103  0.3383
  115MOL0     C15799   7.728   8.902   2.858  0.1314  0.0865 -0.2216
  115MOL0     C15800   7.754   9.036   2.803 -0.1408 -0.1589 -0.4387
  115MOL0     H15801   7.528   8.910   2.379 -1.2422 -3.9567 -1.3184
  115MOL0     H15802   7.570   8.941   2.140  0.7311  1.6474  0.2653
  115MOL0     H15803   7.644   8.883   1.909 -0.0451  0.4601 -2.0782
  115MOL0     H15804   7.791   8.773   1.890 -0.2728  0.5920 -0.9946
  115MOL0     H15805   7.751   8.888   1.689 -2.7271 -0.2922  2.4615
  115MOL0     H15806   7.770   9.044   1.774 -0.9693  0.6653 -1.6091
  115MOL0     H15807   7.998   8.940   1.857  0.0035 -0.5493 -0.0069
  115MOL0     H15808   7.983   8.824   1.725 -2.4745 -1.9047  1.2181
  115MOL0     H15809   7.959   9.011   1.574 -3.2436  1.9885  0.8231
  115MOL0     H15810   8.005   9.130   1.681  1.5626 -0.2538  0.2315
  115MOL0     H15811   8.176   8.889   1.626 -0.8254 -1.3261  0.0300
  115MOL0     H15812   8.228   9.024   1.725 -0.2420 -0.9359 -0.3409
  115MOL0     H15813   8.204   9.022   1.430  1.1969 -3.7914  1.6657
  115MOL0     H15814   8.178   9.174   1.528  0.6681 -0.0926  2.4265
  115MOL0     H15815   8.424   9.156   1.615  2.8016  0.4773 -0.3451
  115MOL0     H15816   8.401   9.165   1.438 -1.9193  1.0943  1.0798
  115MOL0     H15817   8.477   8.912   1.605  3.4625 -1.8652 -1.1423
  115MOL0     H15818   8.429   8.913   1.425  0.3624 -0.7914 -0.0863
  115MOL0     H15819   8.584   9.039   1.264  0.0988 -0.3916  0.4231
  115MOL0     H15820   8.842   9.304   1.282  1.8241  0.9162 -1.2518
  115MOL0     H15821   8.781   9.188   1.159 -2.1234  2.0486  0.6939
  115MOL0     H15822   9.002   9.094   1.323  1.3336  1.0773 -0.3571
  115MOL0     H15823   8.967   9.063   1.152  0.4591 -2.1482  0.9533
  115MOL0     H15824   9.033   9.316   1.111  0.8574 -0.1545  0.1971
  115MOL0     H15825   9.085   9.310   1.286  3.3035 -1.1713 -0.7009
  115MOL0     H15826   9.252   9.175   1.262  3.2080 -0.3102 -0.6997
  115MOL0     H15827   9.210   9.114   1.103  1.9255  0.7062 -0.3291
  115MOL0     H15828   9.395   9.511   1.038 -0.5308 -0.1361 -1.3643
  115MOL0     H15829   9.698   9.595   0.884 -1.1027 -0.0971  0.4869
  115MOL0     H15830   9.707   9.618   1.059  0.4308 -0.6469  0.8792
  115MOL0     H15831   9.555   9.651   0.966 -0.6784  0.2236 -0.3195
  115MOL0     H15832   9.994   9.008   0.823 -2.2285  1.1026  0.9641
  115MOL0     H15833  10.254   8.972   0.791 -0.8380 -1.2180  0.5567
  115MOL0     H15834  10.615   9.204   0.787  2.2307  0.7965  1.1952
  115MOL0     H15835  10.486   9.328   0.793 -1.8962 -1.5970 -1.0155
  115MOL0     H15836  10.652   9.399   0.948  1.2737 -1.4558 -3.1669
  115MOL0     H15837  10.519   9.340   1.045 -2.8460 -1.2742 -2.0807
  115MOL0     H15838  10.771   9.171   0.985  0.3806  2.6977 -1.4660
  115MOL0     H15839  10.645   9.134   1.102 -1.5902  1.5794  0.4502
  115MOL0     H15840  10.704   9.305   1.247  0.5934 -0.0874  0.5515
  115MOL0     H15841  10.798   9.389   1.135 -2.0665 -1.3285 -4.6948
  115MOL0     H15842  10.843   9.096   1.222  1.7266 -0.9316 -2.9227
  115MOL0     H15843  10.964   9.190   1.134  1.0884  1.7553  0.5094
  115MOL0     H15844  10.989   9.173   1.404 -3.1022 -1.8944 -0.4641
  115MOL0     H15845  10.863   9.276   1.409 -1.7852 -0.4747 -2.8165
  115MOL0     H15846  11.067   9.407   1.440  3.2453  2.4515 -1.0392
  115MOL0     H15847  10.980   9.463   1.303  1.4270  1.1727 -1.2135
  115MOL0     H15848  11.192   9.242   1.257 -0.5699  0.9017  0.5201
  115MOL0     H15849  11.252   9.401   1.293  1.7163  0.2178 -2.1858
  115MOL0     H15850  10.313   9.354   0.970 -1.1989  1.2337 -1.9142
  115MOL0     H15851  10.101   9.381   1.019  1.4866  0.0417  0.1447
  115MOL0     H15852   9.670   9.104   1.017  1.9192  1.6767  2.7056
  115MOL0     H15853   9.435   9.090   1.082 -1.6185  1.6996 -0.2605
  115MOL0     H15854   7.992   8.865   2.228  0.4322 -3.4793  0.5396
  115MOL0     H15855   7.950   8.881   2.447 -1.9224  3.7010  1.9476
  115MOL0     H15856   7.645   8.582   2.787 -0.2833  0.3198 -0.4066
  115MOL0     H15857   7.637   8.575   3.036 -0.4852  1.1909  0.9122
  115MOL0     H15858   7.562   8.611   3.248  0.0868 -1.2662  0.9195
  115MOL0     H15859   7.746   8.631   3.237  0.8121  0.5979  0.6496
  115MOL0     H15860   7.662   8.593   3.460  1.1599  1.1877  3.2284
  115MOL0     H15861   7.570   8.747   3.452 -0.1650 -0.6485 -1.2621
  115MOL0     H15862   7.863   8.703   3.436 -1.9204 -2.8642 -0.3194
  115MOL0     H15863   7.797   8.858   3.393  3.5654  0.0024 -0.6655
  115MOL0     H15864   7.740   8.739   3.670  0.7819 -0.1383  0.5108
  115MOL0     H15865   7.681   8.893   3.598 -0.0990  0.4075 -0.8527
  115MOL0     H15866   8.074   8.979   3.732 -1.4068 -0.2292  1.4283
  115MOL0     H15867   7.716   8.984   3.063  1.5514 -1.1669  1.9671
  115MOL0     H15868   7.791   9.100   2.883 -0.6704 -2.2266  1.5968
  115MOL0     H15869   7.829   9.031   2.723  0.9628 -0.0397  0.5693
  115MOL0     H15870   7.661   9.069   2.756 -0.4751 -1.1830 -0.5437
  116MOL0     O15871   6.593   1.006   4.340 -0.3111 -0.5581  0.3700
  116MOL0     C15872   6.568   0.900   4.274  0.4182 -0.3412  0.0399
  116MOL0     O15873   6.662   0.806   4.246  0.1576 -0.7949 -1.0104
  116MOL0     C15874   6.788   0.820   4.307  0.4264 -0.1515 -0.1424
  116MOL0     C15875   6.810   0.819   4.444  0.4763 -0.7022  0.3371
  116MOL0     C15876   6.945   0.818   4.492 -1.5567 -0.0423  0.7623
  116MOL0     C15877   7.059   0.810   4.407  0.8929 -0.4707 -0.4404
  116MOL0     O15878   7.178   0.808   4.473  0.2663 -0.0030  0.0063
  116MOL0     C15879   7.290   0.821   4.388 -0.5121  0.0631  0.1500
  116MOL0     C15880   7.415   0.784   4.468 -0.2512 -0.3350  1.3429
  116MOL0     C15881   7.527   0.793   4.380  0.6118 -0.0128 -0.5272
  116MOL0     C15882   7.649   0.741   4.457  0.0489 -0.3080  0.0076
  116MOL0     C15883   7.774   0.763   4.374  0.6705 -0.4932 -0.7933
  116MOL0     C15884   7.903   0.706   4.426 -0.4568 -0.2638  0.3495
  116MOL0     C15885   7.903   0.553   4.443 -0.0908 -0.2988 -0.5592
  116MOL0     C15886   7.926   0.473   4.314 -0.5450  0.2721 -0.5531
  116MOL0     N15887   8.073   0.473   4.277  0.0195  0.0917  0.2808
  116MOL0     C15888   8.177   0.428   4.356  0.0371 -0.2290 -0.1863
  116MOL0     C15889   8.288   0.445   4.270  0.7494 -0.4651  0.6002
  116MOL0     C15890   8.427   0.417   4.292 -0.0338  0.2173 -0.1389
  116MOL0     C15891   8.497   0.553   4.322  0.2190  0.4971 -0.4032
  116MOL0     C15892   8.649   0.561   4.301  0.5718  0.0607  0.9416
  116MOL0     C15893   8.735   0.468   4.392  0.5691 -0.4432 -0.1595
  116MOL0     O15894   8.703   0.327   4.379 -0.9537  0.5121 -0.9474
  116MOL0     C15895   8.795   0.231   4.427  1.3348  0.0549 -0.4802
  116MOL0     C15896   8.787   0.102   4.378 -0.2900 -0.2391  0.3785
  116MOL0     C15897   8.897   0.005   4.397  0.8028 -1.0612  0.1694
  116MOL0     C15898   8.867  -0.132   4.340  0.3287 -0.6038 -0.7253
  116MOL0     C15899   9.015   0.046   4.469 -0.1077 -0.6475  0.0151
  116MOL0     C15900   9.131  -0.044   4.495  0.1015  0.0748  0.0490
  116MOL0     O15901   9.249   0.014   4.526 -0.1703  0.8888  0.1368
  116MOL0     C15902   9.374  -0.051   4.530  0.0338 -0.2096  0.6295
  116MOL0     C15903   9.473   0.043   4.541  0.0036  0.4180 -0.7809
  116MOL0     C15904   9.607  -0.000   4.548 -0.1148 -0.3887  0.0475
  116MOL0     C15905   9.648  -0.132   4.547  0.9223  0.6600 -0.0126
  116MOL0     O15906   9.783  -0.165   4.555  0.1304 -0.6926  0.0965
  116MOL0     C15907   9.836  -0.281   4.484  0.0220 -0.2202 -0.2033
  116MOL0     C15908   9.836  -0.258   4.336  0.7373 -0.6437 -0.0877
  116MOL0     C15909   9.907  -0.370   4.256  0.4237 -0.2789 -0.3051
  116MOL0     C15910  10.061  -0.364   4.254 -0.1876 -0.1388 -0.5050
  116MOL0     C15911  10.129  -0.469   4.162  0.7449 -0.6052 -0.1842
  116MOL0     C15912  10.275  -0.430   4.134 -0.3185  0.4458  0.2638
  116MOL0     C15913  10.353  -0.538   4.061  0.5974 -0.6969  0.5909
  116MOL0     C15914  10.307  -0.582   3.920 -0.5536 -0.5800  1.0878
  116MOL0    Cl15915  10.418  -0.704   3.845 -0.2807 -0.0979 -0.2135
  116MOL0     C15916   9.543  -0.227   4.531 -0.7172  0.5559 -0.4918
  116MOL0     C15917   9.407  -0.193   4.530 -0.3030  0.4545  0.9244
  116MOL0     O15918   9.112  -0.161   4.487 -0.4057  0.2480  0.3685
  116MOL0     C15919   9.014   0.172   4.526 -0.2651  0.1932  0.4225
  116MOL0     C15920   8.910   0.263   4.502  0.4442 -0.1518  0.9924
  116MOL0     N15921   8.241   0.508   4.154  0.4708 -0.1740 -0.2530
  116MOL0     N15922   8.113   0.521   4.162 -0.7133 -1.2977  0.0706
  116MOL0     C15923   7.030   0.804   4.266 -0.6502 -1.0857  0.3764
  116MOL0     C15924   6.897   0.794   4.222 -0.7536 -0.0037  0.0732
  116MOL0     C15925   6.430   0.888   4.206 -0.1865  0.3900 -0.1908
  116MOL0     C15926   6.356   1.005   4.182  0.4871 -0.1396  0.0709
  116MOL0     C15927   6.232   1.004   4.113 -0.3907  0.8436  0.2032
  116MOL0     C15928   6.184   0.876   4.073  0.4096 -0.1661 -0.8045
  116MOL0     O15929   6.074   0.881   3.991  0.1573  0.0015 -0.2079
  116MOL0     C15930   6.006   0.764   3.953  0.1547  0.3283 -0.2471
  116MOL0     C15931   6.073   0.697   3.837 -1.0417  0.6388 -0.1784
  116MOL0     C15932   6.030   0.547   3.816  0.3800 -0.4238  0.5439
  116MOL0     C15933   6.111   0.449   3.897  0.2650 -0.6110 -0.9888
  116MOL0     C15934   6.061   0.312   3.886 -0.2342  0.1399 -0.4398
  116MOL0     C15935   6.027   0.196   3.868  0.3386 -0.2799 -0.1703
  116MOL0     C15936   6.250   0.759   4.114  0.5576 -0.0437 -0.2882
  116MOL0     C15937   6.373   0.765   4.173 -0.0251  0.0652 -0.9548
  116MOL0     C15938   6.423   0.631   4.228  0.9732 -0.1042  0.0637
  116MOL0     H15939   6.730   0.819   4.517  0.4089 -1.7598  0.2810
  116MOL0     H15940   6.958   0.834   4.599 -0.2555 -1.4952  0.8392
  116MOL0     H15941   7.290   0.927   4.361 -1.3594  0.4834  1.6441
  116MOL0     H15942   7.284   0.758   4.299  3.5016  2.5400 -2.1606
  116MOL0     H15943   7.429   0.843   4.559 -2.3974  1.2851  0.6930
  116MOL0     H15944   7.403   0.679   4.495  1.3311 -1.2102 -1.0285
  116MOL0     H15945   7.505   0.735   4.290 -2.9079  1.1256 -0.5444
  116MOL0     H15946   7.536   0.897   4.346  4.0262 -0.0287 -0.1007
  116MOL0     H15947   7.652   0.791   4.555  0.1085 -1.0325  0.3867
  116MOL0     H15948   7.635   0.634   4.475  1.5429 -0.6328 -0.6809
  116MOL0     H15949   7.778   0.872   4.362 -1.2434 -0.1057  1.2937
  116MOL0     H15950   7.745   0.717   4.280 -1.7873  0.4748 -0.5835
  116MOL0     H15951   7.983   0.734   4.357 -2.3652 -1.8675 -2.7776
  116MOL0     H15952   7.927   0.749   4.524 -0.3666  1.2268 -0.3013
  116MOL0     H15953   7.807   0.519   4.481  1.2616 -3.7140  0.1455
  116MOL0     H15954   7.980   0.524   4.515  1.8580 -0.5713 -2.6245
  116MOL0     H15955   7.901   0.367   4.327 -0.8327  0.5481  1.4797
  116MOL0     H15956   7.860   0.523   4.243 -2.5964  2.8962  2.8807
  116MOL0     H15957   8.178   0.386   4.456 -1.5260  1.5145  0.6166
  116MOL0     H15958   8.463   0.358   4.206 -2.3909 -1.7992  0.1589
  116MOL0     H15959   8.428   0.353   4.381 -2.0812  2.4441  1.6124
  116MOL0     H15960   8.456   0.634   4.261  1.0680  0.1541 -1.4768
  116MOL0     H15961   8.487   0.579   4.427  2.9177  1.6132 -0.3575
  116MOL0     H15962   8.654   0.528   4.197 -2.9311 -0.9400  0.9667
  116MOL0     H15963   8.681   0.665   4.306  0.5511  0.1403 -0.2065
  116MOL0     H15964   8.839   0.494   4.368  0.8639 -3.2826 -2.4677
  116MOL0     H15965   8.717   0.506   4.493  1.2715 -2.4029  0.7337
  116MOL0     H15966   8.696   0.084   4.322 -0.4448  2.7312 -0.5130
  116MOL0     H15967   8.949  -0.163   4.275  1.8831  3.0247 -0.6927
  116MOL0     H15968   8.773  -0.136   4.284 -0.3080  1.6365  0.0713
  116MOL0     H15969   8.852  -0.198   4.426  1.6287  0.9971  0.8031
  116MOL0     H15970   9.450   0.148   4.553  2.9117  1.1721 -0.9454
  116MOL0     H15971   9.680   0.079   4.547 -0.1650 -0.3186 -2.1271
  116MOL0     H15972   9.939  -0.286   4.520 -0.1316 -0.0550  0.2623
  116MOL0     H15973   9.776  -0.369   4.510 -0.1199  0.5855  2.4881
  116MOL0     H15974   9.729  -0.248   4.310 -0.1166 -0.5053  3.1152
  116MOL0     H15975   9.877  -0.162   4.304  1.0530 -1.1239 -1.1790
  116MOL0     H15976   9.870  -0.365   4.153 -1.2282  2.2171  0.3155
  116MOL0     H15977   9.884  -0.469   4.295  0.4785 -1.2959 -2.6868
  116MOL0     H15978  10.107  -0.356   4.353 -1.0390 -0.8099 -0.0365
  116MOL0     H15979  10.085  -0.267   4.210 -1.9077  1.8846  2.5991
  116MOL0     H15980  10.131  -0.569   4.205  3.1527 -1.7511 -2.6566
  116MOL0     H15981  10.061  -0.458   4.076  1.9913  3.2917 -0.8894
  116MOL0     H15982  10.324  -0.397   4.226 -0.0444 -1.5283  0.8832
  116MOL0     H15983  10.267  -0.341   4.070 -1.9339 -0.8501 -1.4522
  116MOL0     H15984  10.355  -0.635   4.111 -0.3245 -0.5426  0.9475
  116MOL0     H15985  10.456  -0.502   4.056  0.1318  0.9785  1.8252
  116MOL0     H15986  10.313  -0.509   3.839  1.6309 -0.9306  0.8802
  116MOL0     H15987  10.205  -0.613   3.940 -0.4359 -1.5676  0.1805
  116MOL0     H15988   9.578  -0.329   4.515 -2.2199  0.1272 -1.1689
  116MOL0     H15989   9.340  -0.279   4.523  1.2961 -0.8994  1.4573
  116MOL0     H15990   9.090   0.194   4.600 -0.4966  0.6493  0.5260
  116MOL0     H15991   8.911   0.359   4.553  2.3935 -0.1189  0.9551
  116MOL0     H15992   7.111   0.780   4.197  0.5433  0.0257  1.3394
  116MOL0     H15993   6.884   0.781   4.116  2.5311 -0.0264 -0.4517
  116MOL0     H15994   6.398   1.103   4.203 -2.5174  1.2311  0.2627
  116MOL0     H15995   6.168   1.089   4.091  0.1772  1.0815 -0.5713
  116MOL0     H15996   6.007   0.699   4.041  0.8338  0.1913 -0.3488
  116MOL0     H15997   5.904   0.784   3.921 -0.5004 -3.0392 -0.6295
  116MOL0     H15998   6.182   0.693   3.845 -1.1977 -0.4025  1.7906
  116MOL0     H15999   6.045   0.751   3.746  1.2360 -1.8103 -2.5184
  116MOL0     H16000   5.928   0.550   3.857  0.0453  0.5916 -0.3306
  116MOL0     H16001   6.034   0.528   3.709 -0.4286  4.7925 -0.6880
  116MOL0     H16002   6.129   0.481   4.000  0.6363 -0.5398 -1.0726
  116MOL0     H16003   6.211   0.444   3.853  0.9665 -0.5753  0.5218
  116MOL0     H16004   6.000   0.092   3.863  0.4573 -0.2913 -0.5752
  116MOL0     H16005   6.199   0.670   4.080 -1.8805  1.3056 -0.3547
  116MOL0     H16006   6.491   0.640   4.314 -0.0914  1.5043  0.7765
  116MOL0     H16007   6.340   0.571   4.266  3.1077 -2.0041  2.1097
  116MOL0     H16008   6.482   0.581   4.150  0.2322 -1.3284  0.2565
  117MOL0     O16009   3.472   3.294   8.108  0.3529 -0.2866  0.2189
  117MOL0     C16010   3.570   3.354   8.156  0.9112  0.4141 -0.4146
  117MOL0     O16011   3.696   3.302   8.158  0.0270 -0.3831  0.5989
  117MOL0     C16012   3.713   3.178   8.109 -0.1449 -0.1590 -0.8390
  117MOL0     C16013   3.816   3.168   8.010  0.3042  0.1202 -0.1121
  117MOL0     C16014   3.840   3.036   7.968 -0.2498 -0.2172 -0.1303
  117MOL0     C16015   3.771   2.922   8.017  0.6731  0.4620  0.9649
  117MOL0     O16016   3.811   2.802   7.961  0.3672  1.0167  0.0003
  117MOL0     C16017   3.780   2.684   8.037 -0.0103  0.4628 -1.0870
  117MOL0     C16018   3.857   2.678   8.174 -0.4661 -0.4466 -0.0789
  117MOL0     C16019   4.002   2.672   8.160 -0.1308  0.7028 -0.3104
  117MOL0     C16020   4.069   2.613   8.282 -0.2372 -0.2536  0.1254
  117MOL0     C16021   4.212   2.579   8.248 -0.4750  0.6145  0.5396
  117MOL0     C16022   4.288   2.680   8.169  0.9761 -0.7257 -0.2615
  117MOL0     C16023   4.425   2.624   8.131 -0.2630  0.4335  0.0920
  117MOL0     C16024   4.505   2.720   8.039  0.4173  0.0916 -0.6366
  117MOL0     N16025   4.607   2.644   7.972 -0.3112 -0.0472  0.1926
  117MOL0     C16026   4.662   2.674   7.845  0.7333  0.4353 -0.1975
  117MOL0     C16027   4.776   2.612   7.842 -0.0326  0.2392 -0.0165
  117MOL0     C16028   4.883   2.625   7.732 -1.5089 -0.3789  0.8129
  117MOL0     C16029   4.936   2.763   7.721  0.2447 -0.5163  0.6872
  117MOL0     C16030   5.017   2.817   7.846 -0.6680 -0.6769 -0.1870
  117MOL0     C16031   5.110   2.942   7.799  0.1177 -0.3351  0.4360
  117MOL0     O16032   5.209   2.895   7.709  0.3266 -0.0259 -0.0410
  117MOL0     C16033   5.316   2.827   7.772  1.0488  0.8645  0.4953
  117MOL0     C16034   5.414   2.772   7.687 -0.6067  0.5801  0.1541
  117MOL0     C16035   5.511   2.687   7.738 -0.7625 -0.9161 -0.3503
  117MOL0     C16036   5.589   2.605   7.639  0.0463  0.5879 -0.0898
  117MOL0     C16037   5.529   2.678   7.877 -0.0978  0.2717 -0.1200
  117MOL0     C16038   5.645   2.601   7.948  0.9713  0.2129 -0.4173
  117MOL0     O16039   5.613   2.556   8.074  0.1815 -0.2595  0.0581
  117MOL0     C16040   5.718   2.517   8.155 -0.2140 -0.0134 -0.3703
  117MOL0     C16041   5.749   2.373   8.151 -0.3917 -0.0152 -0.5437
  117MOL0     C16042   5.858   2.336   8.232  0.7100 -0.4528  0.1462
  117MOL0     C16043   5.932   2.426   8.317 -0.1020  0.5159 -0.3765
  117MOL0     O16044   6.040   2.406   8.401 -0.4586  0.4608  0.7678
  117MOL0     C16045   6.086   2.275   8.421  0.1413 -0.6642 -0.1700
  117MOL0     C16046   6.227   2.286   8.480 -0.0996 -0.5192  1.6399
  117MOL0     C16047   6.310   2.165   8.462  1.2203  0.3684 -0.0752
  117MOL0     C16048   6.448   2.189   8.526  0.2629 -0.1240  0.7914
  117MOL0     C16049   6.515   2.059   8.553 -0.4540  0.8044 -0.2422
  117MOL0     C16050   6.478   1.993   8.688 -0.0138 -0.2955  0.6878
  117MOL0     C16051   6.555   1.861   8.711 -0.5672  0.7423  0.0641
  117MOL0     C16052   6.526   1.821   8.857 -0.4341 -0.6642  1.2241
  117MOL0    Cl16053   6.609   1.670   8.894  0.6571  0.1446 -0.1908
  117MOL0     C16054   5.888   2.559   8.311  0.4617 -0.5282 -0.2075
  117MOL0     C16055   5.788   2.610   8.232 -0.1943  1.0740  0.1900
  117MOL0     O16056   5.752   2.604   7.889 -0.0862  0.0181 -0.4660
  117MOL0     C16057   5.433   2.741   7.962  0.0702 -0.7054 -0.2951
  117MOL0     C16058   5.333   2.816   7.910  0.5019 -0.3156 -0.0123
  117MOL0     N16059   4.795   2.538   7.952 -0.2392  0.6138 -0.2717
  117MOL0     N16060   4.698   2.561   8.033  0.6797 -0.2350 -0.5812
  117MOL0     C16061   3.682   2.936   8.119 -0.6721  0.0885 -0.0511
  117MOL0     C16062   3.647   3.060   8.155  0.9176 -0.0871  0.6591
  117MOL0     C16063   3.549   3.487   8.237  0.8960  0.0422 -0.2570
  117MOL0     C16064   3.644   3.517   8.331 -0.7451 -0.8885 -0.2228
  117MOL0     C16065   3.631   3.635   8.411  0.1417  1.7078 -1.1742
  117MOL0     C16066   3.526   3.720   8.400 -0.4134  0.0958 -0.5114
  117MOL0     O16067   3.530   3.823   8.485 -0.2718 -0.7842  0.1575
  117MOL0     C16068   3.491   3.954   8.437 -0.2289  0.8281  0.9911
  117MOL0     C16069   3.549   3.997   8.293  0.3996 -0.1245 -0.9112
  117MOL0     C16070   3.513   4.142   8.276 -0.2984  0.2675 -0.7785
  117MOL0     C16071   3.514   4.194   8.130  0.0779 -0.4234 -0.3793
  117MOL0     C16072   3.500   4.341   8.137 -1.1024 -0.0482  0.5166
  117MOL0     C16073   3.487   4.462   8.129 -0.4391 -0.7112 -0.2120
  117MOL0     C16074   3.423   3.690   8.312  0.2557  0.3439 -0.4553
  117MOL0     C16075   3.430   3.571   8.234  0.0387 -0.0623 -0.1666
  117MOL0     C16076   3.309   3.547   8.143 -0.5708 -0.3734  0.6975
  117MOL0     H16077   3.867   3.250   7.962  0.9496 -1.1243 -1.6567
  117MOL0     H16078   3.929   3.023   7.908  0.3857 -0.5653  0.8689
  117MOL0     H16079   3.827   2.605   7.978  2.9397  0.7834  0.6165
  117MOL0     H16080   3.676   2.660   8.059  0.8028 -2.8922 -0.2528
  117MOL0     H16081   3.838   2.763   8.240 -0.0457 -1.2505  1.1149
  117MOL0     H16082   3.823   2.592   8.233 -2.0855  0.1904 -0.0369
  117MOL0     H16083   4.037   2.615   8.073  1.3343  1.6169 -0.3543
  117MOL0     H16084   4.048   2.768   8.134  2.6139 -1.7398 -6.8209
  117MOL0     H16085   4.060   2.689   8.360  0.0799 -0.1574  0.0708
  117MOL0     H16086   4.021   2.519   8.309 -1.8585  0.5847  0.3048
  117MOL0     H16087   4.227   2.478   8.208 -2.1907  0.5934 -0.1256
  117MOL0     H16088   4.272   2.573   8.339 -1.4792 -0.7982  1.1436
  117MOL0     H16089   4.250   2.694   8.068  3.2444 -3.4052 -1.6361
  117MOL0     H16090   4.292   2.775   8.224  0.2080 -2.6743  3.4561
  117MOL0     H16091   4.402   2.538   8.067  3.5632  1.4557 -3.0624
  117MOL0     H16092   4.493   2.596   8.213 -1.2567 -1.8226  0.2327
  117MOL0     H16093   4.432   2.768   7.972 -1.8780 -1.0282  0.9240
  117MOL0     H16094   4.547   2.801   8.098  0.2864  0.1443 -0.6141
  117MOL0     H16095   4.630   2.741   7.767  1.2529 -0.6260 -1.3489
  117MOL0     H16096   4.821   2.596   7.647 -2.7519 -2.5150  2.3745
  117MOL0     H16097   4.956   2.546   7.746  0.1285  0.4851 -1.9516
  117MOL0     H16098   5.001   2.765   7.633  1.0314  1.4943  1.2647
  117MOL0     H16099   4.857   2.838   7.729  1.1587  0.6703 -0.9250
  117MOL0     H16100   4.957   2.839   7.934  3.0470 -1.7567  2.8962
  117MOL0     H16101   5.076   2.730   7.877  0.7673 -0.7414 -2.7965
  117MOL0     H16102   5.048   3.012   7.743 -0.1213 -1.9642 -1.4317
  117MOL0     H16103   5.153   2.998   7.883  0.0737 -0.7989  0.7790
  117MOL0     H16104   5.409   2.784   7.579  0.3049  3.2134  0.3350
  117MOL0     H16105   5.666   2.665   7.589 -0.6584  1.9391  0.4052
  117MOL0     H16106   5.519   2.578   7.559 -0.3122  3.0923 -0.7311
  117MOL0     H16107   5.627   2.511   7.677  1.1192  0.3597 -1.6294
  117MOL0     H16108   5.687   2.312   8.087 -2.2578  1.8214 -0.5832
  117MOL0     H16109   5.894   2.233   8.230  2.0694 -0.0041  0.3461
  117MOL0     H16110   6.016   2.235   8.495 -1.1630  2.5249  0.4859
  117MOL0     H16111   6.098   2.223   8.325  1.1939  1.7084 -1.4084
  117MOL0     H16112   6.287   2.371   8.447 -0.3547 -1.3389 -1.1712
  117MOL0     H16113   6.198   2.292   8.586 -1.1396 -1.4849  1.4398
  117MOL0     H16114   6.318   2.127   8.360  3.1096 -2.3732  0.9691
  117MOL0     H16115   6.268   2.077   8.512 -0.8234  0.9439 -0.6782
  117MOL0     H16116   6.439   2.246   8.619 -0.1100 -2.2395  2.1275
  117MOL0     H16117   6.516   2.236   8.454 -1.0425 -0.0241 -0.4388
  117MOL0     H16118   6.480   1.996   8.471 -0.8589  0.7867 -0.0613
  117MOL0     H16119   6.623   2.066   8.538  0.3679 -3.4368  2.0555
  117MOL0     H16120   6.368   1.988   8.689 -0.0916 -0.7370 -1.8600
  117MOL0     H16121   6.507   2.053   8.775 -0.3325 -2.0501  2.0504
  117MOL0     H16122   6.661   1.883   8.696 -0.1325 -0.0368  1.7190
  117MOL0     H16123   6.526   1.786   8.637 -0.5051  0.9405 -0.1614
  117MOL0     H16124   6.421   1.799   8.877 -0.6337 -0.7284  0.1503
  117MOL0     H16125   6.564   1.904   8.916 -0.8820  1.7421 -1.6385
  117MOL0     H16126   5.946   2.624   8.376  2.4331 -2.2010 -0.1874
  117MOL0     H16127   5.744   2.707   8.213 -2.3371 -0.0975 -1.2015
  117MOL0     H16128   5.437   2.724   8.069 -0.0862 -1.3410 -0.3860
  117MOL0     H16129   5.273   2.868   7.984  3.7314  2.4030  0.9207
  117MOL0     H16130   3.634   2.851   8.167 -0.2799  0.5875  1.2548
  117MOL0     H16131   3.569   3.065   8.230  1.9340  0.8351  1.6816
  117MOL0     H16132   3.736   3.462   8.344  0.5874  1.3447  0.2737
  117MOL0     H16133   3.707   3.640   8.489  1.1749 -0.0755 -2.0075
  117MOL0     H16134   3.383   3.967   8.440 -0.2526  1.4436 -0.9353
  117MOL0     H16135   3.532   4.024   8.510  3.6112  0.7533 -0.8084
  117MOL0     H16136   3.507   3.928   8.219  0.3792 -2.9304  1.5192
  117MOL0     H16137   3.658   3.998   8.289  0.5358  1.8995  1.2435
  117MOL0     H16138   3.408   4.156   8.306  0.0694 -2.6429  2.4787
  117MOL0     H16139   3.570   4.214   8.335  1.4982  0.0245 -2.1361
  117MOL0     H16140   3.428   4.154   8.075  1.3396 -3.0460 -0.5818
  117MOL0     H16141   3.599   4.156   8.073  1.8052  1.9761  0.4382
  117MOL0     H16142   3.481   4.568   8.116 -2.3068 -0.6546  0.7528
  117MOL0     H16143   3.331   3.745   8.296 -0.6076 -0.7979  0.4537
  117MOL0     H16144   3.315   3.474   8.062 -3.5570 -1.2225  1.0936
  117MOL0     H16145   3.232   3.513   8.213 -0.2596 -2.7463 -0.0546
  117MOL0     H16146   3.278   3.642   8.098  2.9185  0.1003 -1.0336
  118MOL0     O16147   4.198   3.366  10.415  0.7687  0.3323 -0.2564
  118MOL0     C16148   4.120   3.274  10.400 -0.9834 -0.2047  0.0457
  118MOL0     O16149   4.131   3.178  10.300 -0.3238  0.2338  0.1496
  118MOL0     C16150   4.246   3.189  10.222  0.7014 -0.6606  0.0394
  118MOL0     C16151   4.352   3.100  10.233  0.0079 -0.6417  0.6799
  118MOL0     C16152   4.457   3.100  10.147  0.0249  0.3296  0.7862
  118MOL0     C16153   4.474   3.203  10.048 -1.1542  0.3002  0.4848
  118MOL0     O16154   4.573   3.225   9.952  0.5160  0.0982  1.0488
  118MOL0     C16155   4.677   3.120   9.937  0.7180  0.1304 -0.2672
  118MOL0     C16156   4.787   3.166  10.026  0.1419 -0.7936  1.3309
  118MOL0     C16157   4.905   3.077   9.987  0.4739 -0.6590 -0.2466
  118MOL0     C16158   5.017   3.124  10.075 -0.1706 -0.4792 -0.2065
  118MOL0     C16159   5.149   3.065  10.017 -0.1809 -0.7824  1.0913
  118MOL0     C16160   5.275   3.126  10.085  0.2135  0.3827  0.4658
  118MOL0     C16161   5.287   3.129  10.230 -0.2350 -0.4370 -0.3674
  118MOL0     C16162   5.294   2.992  10.298 -0.2157 -0.1072  0.6194
  118MOL0     N16163   5.389   2.991  10.403  0.1270 -0.4013  0.0658
  118MOL0     C16164   5.518   3.007  10.375  0.0131 -0.3939 -0.0615
  118MOL0     C16165   5.576   3.048  10.494  0.6408 -0.0224  0.0045
  118MOL0     C16166   5.717   3.087  10.526  0.1111  0.2715  0.0912
  118MOL0     C16167   5.819   2.976  10.502 -0.7338 -0.8353 -0.0262
  118MOL0     C16168   5.965   3.017  10.557  0.1919 -0.2596 -0.1998
  118MOL0     C16169   6.078   2.923  10.502  0.8983  0.1385  0.1891
  118MOL0     O16170   6.200   2.960  10.559  0.0500 -0.3071  0.1949
  118MOL0     C16171   6.307   2.879  10.539  0.5664 -0.3155  0.5378
  118MOL0     C16172   6.300   2.754  10.481  0.1940  0.1485 -0.2593
  118MOL0     C16173   6.410   2.679  10.460  0.4015 -0.2657  0.1411
  118MOL0     C16174   6.387   2.550  10.382 -0.1857  0.1050  0.5352
  118MOL0     C16175   6.536   2.722  10.515  0.4921 -0.9475 -0.0511
  118MOL0     C16176   6.660   2.652  10.478  0.1860  0.6279  0.2315
  118MOL0     O16177   6.652   2.512  10.461  0.0448 -0.1324  0.2532
  118MOL0     C16178   6.769   2.431  10.484  0.7086  0.8997  0.3745
  118MOL0     C16179   6.876   2.464  10.571  0.0640  0.2831 -0.1673
  118MOL0     C16180   6.985   2.381  10.586  0.5019 -0.0791 -0.6578
  118MOL0     C16181   6.996   2.267  10.506 -0.7287 -0.6713  0.3194
  118MOL0     O16182   7.112   2.185  10.485 -0.5769 -0.4388 -0.1096
  118MOL0     C16183   7.240   2.224  10.538 -0.0462 -0.5130  0.6895
  118MOL0     C16184   7.329   2.124  10.472  1.1011  0.0040 -0.0284
  118MOL0     C16185   7.480   2.133  10.514 -0.0683 -0.0011 -0.5949
  118MOL0     C16186   7.571   2.015  10.481  1.1338  0.3620 -0.0045
  118MOL0     C16187   7.598   2.016  10.330 -0.5330 -0.3016 -0.8830
  118MOL0     C16188   7.644   1.874  10.299 -0.0070 -0.5656 -0.1376
  118MOL0     C16189   7.607   1.840  10.157  0.1974 -0.3878  0.2941
  118MOL0     C16190   7.671   1.721  10.115 -0.2915  0.6166 -0.2571
  118MOL0    Cl16191   7.850   1.767  10.090 -0.1679  0.0727  0.3744
  118MOL0     C16192   6.896   2.223  10.414  0.2016  0.3558 -0.1751
  118MOL0     C16193   6.779   2.308  10.413 -0.3158 -0.0651  0.8939
  118MOL0     O16194   6.762   2.718  10.474  0.4351 -0.2140  0.7467
  118MOL0     C16195   6.542   2.842  10.579  0.3873 -0.4279 -0.2194
  118MOL0     C16196   6.430   2.919  10.595 -0.5900 -0.6085  0.2649
  118MOL0     N16197   5.475   3.042  10.589 -0.1358 -0.1663 -0.6666
  118MOL0     N16198   5.365   3.004  10.535  0.1490 -0.4213 -0.0099
  118MOL0     C16199   4.364   3.286  10.038 -0.3483  0.1349 -0.1899
  118MOL0     C16200   4.261   3.292  10.130  0.6484  0.9081  0.3104
  118MOL0     C16201   4.007   3.248  10.504 -0.1694 -0.0207  0.7890
  118MOL0     C16202   3.973   3.118  10.524 -0.7018  0.9583 -0.6848
  118MOL0     C16203   3.873   3.096  10.616 -0.3198  0.2585 -0.1400
  118MOL0     C16204   3.809   3.201  10.690  0.5163  0.4375  0.2706
  118MOL0     O16205   3.702   3.177  10.777 -0.0229  0.5172 -0.0706
  118MOL0     C16206   3.621   3.279  10.828 -0.0541 -0.5285  0.6150
  118MOL0     C16207   3.501   3.219  10.893  0.7022  0.4874 -0.3933
  118MOL0     C16208   3.394   3.319  10.945  0.4014 -0.1381 -0.1382
  118MOL0     C16209   3.456   3.419  11.042  0.6715 -0.0983 -0.5247
  118MOL0     C16210   3.348   3.474  11.135 -0.2284 -0.4356 -0.2382
  118MOL0     C16211   3.267   3.511  11.223 -0.1711 -1.1422 -0.0184
  118MOL0     C16212   3.845   3.330  10.658 -0.5419  0.4010  0.1516
  118MOL0     C16213   3.941   3.355  10.560 -0.4180 -0.8597  0.5601
  118MOL0     C16214   3.948   3.498  10.490 -0.0211  0.0115  0.2170
  118MOL0     H16215   4.346   3.025  10.311 -0.4851  0.7325  2.0118
  118MOL0     H16216   4.530   3.020  10.152  0.3680  0.5252 -0.5810
  118MOL0     H16217   4.706   3.104   9.833  2.2038  2.4317 -0.2781
  118MOL0     H16218   4.645   3.019   9.965 -0.0011 -0.0743 -1.7337
  118MOL0     H16219   4.796   3.274  10.007 -1.6554 -0.8053  0.2413
  118MOL0     H16220   4.760   3.155  10.132  1.0769 -1.7105  1.4927
  118MOL0     H16221   4.882   2.970   9.985 -1.5453 -0.2699  0.1226
  118MOL0     H16222   4.940   3.101   9.886  2.1772  0.8089  0.6452
  118MOL0     H16223   5.028   3.233  10.073  2.8604 -0.6888 -0.1963
  118MOL0     H16224   4.997   3.105  10.181 -0.5593  1.3294  0.0806
  118MOL0     H16225   5.153   3.077   9.909  2.1454  0.6306  1.2591
  118MOL0     H16226   5.148   2.957  10.036  0.1356 -1.2053 -1.1074
  118MOL0     H16227   5.351   3.076  10.025 -2.2882 -1.4167 -1.4675
  118MOL0     H16228   5.263   3.230  10.052 -0.3242 -0.2245 -1.3790
  118MOL0     H16229   5.201   3.179  10.276 -0.4775 -3.1091  2.4407
  118MOL0     H16230   5.375   3.192  10.246 -0.3810 -0.6696  1.6779
  118MOL0     H16231   5.194   2.973  10.336 -0.3157 -2.0798 -0.4868
  118MOL0     H16232   5.334   2.916  10.229  0.6015  1.0718 -0.2692
  118MOL0     H16233   5.566   3.010  10.277  0.6414 -1.8824  0.1735
  118MOL0     H16234   5.717   3.117  10.631  0.5144  2.2030 -0.4182
  118MOL0     H16235   5.737   3.179  10.469  0.8560  0.1908  0.2191
  118MOL0     H16236   5.787   2.886  10.556  1.5676 -0.5610  1.9139
  118MOL0     H16237   5.813   2.961  10.394 -0.0029  1.2589 -0.4050
  118MOL0     H16238   5.991   3.119  10.525  0.2657 -0.3943 -0.5662
  118MOL0     H16239   5.958   3.017  10.666  1.9784 -0.6052 -0.0598
  118MOL0     H16240   6.046   2.819  10.515  2.8638 -0.9759 -2.7981
  118MOL0     H16241   6.094   2.937  10.394 -1.7612 -0.8875 -0.4249
  118MOL0     H16242   6.212   2.706  10.441 -0.8744  2.4063 -0.7883
  118MOL0     H16243   6.368   2.465  10.448 -1.2914  1.0562  1.4840
  118MOL0     H16244   6.473   2.533  10.317  1.3290  2.7912  1.6641
  118MOL0     H16245   6.302   2.568  10.316  0.9837  2.1372 -0.5434
  118MOL0     H16246   6.863   2.551  10.634  0.7600  0.1346  0.1984
  118MOL0     H16247   7.069   2.414  10.646  0.2641  2.9971 -1.8214
  118MOL0     H16248   7.270   2.323  10.503  1.2226 -0.7181  1.1318
  118MOL0     H16249   7.244   2.210  10.647  0.9468 -2.5653  0.4296
  118MOL0     H16250   7.280   2.033  10.505 -0.0236  0.6657  0.1606
  118MOL0     H16251   7.321   2.127  10.362  0.0929 -2.3749 -0.0849
  118MOL0     H16252   7.478   2.155  10.621  2.4148 -0.7887 -0.3309
  118MOL0     H16253   7.523   2.223  10.471 -2.5574  1.5924  0.0460
  118MOL0     H16254   7.509   1.928  10.504 -0.8424  0.7286 -3.3439
  118MOL0     H16255   7.660   2.017  10.545  0.0179  1.2367  1.5693
  118MOL0     H16256   7.524   2.057  10.260  0.7333 -0.4205 -2.3497
  118MOL0     H16257   7.681   2.085  10.312 -2.5624  2.5385 -0.0763
  118MOL0     H16258   7.593   1.797  10.357 -0.0022 -0.4499  0.0191
  118MOL0     H16259   7.752   1.882  10.318  0.0175  3.4462 -1.0774
  118MOL0     H16260   7.623   1.915  10.079 -2.8444 -1.7771 -1.8708
  118MOL0     H16261   7.498   1.835  10.150 -0.1082  3.9838 -1.0318
  118MOL0     H16262   7.618   1.673  10.032 -1.6539  1.6689 -0.0357
  118MOL0     H16263   7.661   1.639  10.187  2.2529  0.4467 -0.0130
  118MOL0     H16264   6.903   2.134  10.353 -1.6207  0.9344 -1.2907
  118MOL0     H16265   6.692   2.275  10.357  0.4070 -3.6565  1.6227
  118MOL0     H16266   6.635   2.876  10.624  0.3475 -1.6167  0.8117
  118MOL0     H16267   6.424   3.018  10.639  1.2904  0.6137 -1.9673
  118MOL0     H16268   4.364   3.356   9.955 -0.1983  0.1642 -0.1666
  118MOL0     H16269   4.178   3.359  10.112  0.7523  0.6904 -1.1379
  118MOL0     H16270   4.028   3.037  10.476 -0.6319  0.3781  0.3495
  118MOL0     H16271   3.847   2.992  10.629  0.7613 -0.2775 -1.9341
  118MOL0     H16272   3.686   3.328  10.902  1.7271  0.1730 -1.3105
  118MOL0     H16273   3.594   3.354  10.753  1.9870 -0.9600 -0.6147
  118MOL0     H16274   3.543   3.167  10.980  2.5893 -0.6339 -1.9148
  118MOL0     H16275   3.453   3.148  10.825 -1.0512  0.3133  0.9696
  118MOL0     H16276   3.344   3.382  10.871  1.8417  1.0327 -0.1652
  118MOL0     H16277   3.325   3.255  11.001  2.5846 -0.6365  2.1143
  118MOL0     H16278   3.497   3.499  10.980  0.7500  0.9053  0.7774
  118MOL0     H16279   3.532   3.360  11.095  0.1379  0.9719  1.5523
  118MOL0     H16280   3.188   3.536  11.291 -1.4216  0.6428 -1.9861
  118MOL0     H16281   3.798   3.422  10.691 -2.6889  0.4439 -2.6737
  118MOL0     H16282   3.857   3.555  10.513  2.8297  4.8807  0.7917
  118MOL0     H16283   4.038   3.550  10.522  1.6135  0.1871 -4.0245
  118MOL0     H16284   3.955   3.494  10.380 -1.5262  0.3635  0.0884
  119MOL0     O16285  10.083   6.262   5.052 -0.2821  0.1609 -0.1410
  119MOL0     C16286  10.038   6.176   4.972 -0.4762  0.0351 -0.0728
  119MOL0     O16287  10.111   6.133   4.867  0.1267  0.3135  0.2640
  119MOL0     C16288  10.228   6.187   4.838 -0.3305 -0.0793  0.0383
  119MOL0     C16289  10.231   6.286   4.744  0.2786 -0.7927  0.7694
  119MOL0     C16290  10.348   6.359   4.710 -0.5650  0.0508  0.2204
  119MOL0     C16291  10.468   6.323   4.782  0.6103 -1.3567  0.1446
  119MOL0     O16292  10.573   6.409   4.765  0.4944 -0.5764 -0.0055
  119MOL0     C16293  10.591   6.489   4.884  0.6803  0.4754 -0.2895
  119MOL0     C16294  10.712   6.579   4.877  0.3492 -0.6275  0.2660
  119MOL0     C16295  10.840   6.485   4.870  0.0958 -0.6266 -0.4800
  119MOL0     C16296  10.973   6.579   4.883  0.1813 -0.3787 -0.6785
  119MOL0     C16297  11.102   6.499   4.888 -0.3604  0.5348 -0.0939
  119MOL0     C16298  11.218   6.601   4.903  0.1208  0.1320  0.2908
  119MOL0     C16299  11.349   6.536   4.952  0.1488 -0.1763  0.0725
  119MOL0     C16300  11.453   6.647   4.934 -0.7704  0.9618  0.1121
  119MOL0     N16301  11.585   6.600   4.976 -0.1064  0.5138  0.7071
  119MOL0     C16302  11.666   6.518   4.904  0.1851 -0.3297 -0.9133
  119MOL0     C16303  11.768   6.489   4.984  0.0476 -0.3700  0.2653
  119MOL0     C16304  11.899   6.416   4.955 -0.3978 -0.1400  0.1630
  119MOL0     C16305  11.874   6.273   4.922  0.0210 -0.5020  0.4025
  119MOL0     C16306  12.008   6.205   4.864  0.4762  0.2441  0.3617
  119MOL0     C16307  12.125   6.212   4.965 -0.4487 -0.4597 -0.8678
  119MOL0     O16308  12.222   6.139   4.892  0.6825 -0.0612  0.0889
  119MOL0     C16309  12.350   6.188   4.889  0.4988 -0.1343  0.2867
  119MOL0     C16310  12.404   6.189   4.769 -0.1108  0.7084 -0.4848
  119MOL0     C16311  12.537   6.221   4.754 -0.4986 -0.6502 -0.4488
  119MOL0     C16312  12.593   6.219   4.614  0.3194  0.1096  0.7183
  119MOL0     C16313  12.621   6.265   4.864  0.4134  0.3432 -0.1556
  119MOL0     C16314  12.755   6.321   4.859 -0.3755  0.2536  0.7118
  119MOL0     O16315  12.838   6.320   4.979 -0.2594 -0.1102 -0.1350
  119MOL0     C16316  12.969   6.370   4.974  0.6873  0.2812 -0.4419
  119MOL0     C16317  13.020   6.442   5.086 -0.0509  0.3035 -0.1047
  119MOL0     C16318  13.147   6.500   5.075  0.8893 -0.7748  0.2960
  119MOL0     C16319  13.237   6.458   4.975  0.9459  0.1656 -0.2598
  119MOL0     O16320  13.370   6.486   4.970 -0.2974 -0.5347 -1.0457
  119MOL0     C16321  13.403   6.611   5.030 -0.8169 -0.1224 -0.2079
  119MOL0     C16322  13.562   6.630   5.027 -0.5808  0.4885  0.2130
  119MOL0     C16323  13.604   6.770   5.067 -0.1460 -0.7737  0.0023
  119MOL0     C16324  13.760   6.764   5.080 -0.1459 -0.1280  0.2507
  119MOL0     C16325  13.814   6.906   5.117  0.8734  0.0307  0.4553
  119MOL0     C16326  13.963   6.894   5.153 -0.0693  0.9241  0.6629
  119MOL0     C16327  14.064   6.890   5.029  0.8172 -0.0553  0.5147
  119MOL0     C16328  14.095   7.017   4.951 -0.6824  0.0206  0.8871
  119MOL0    Cl16329  14.234   6.988   4.834 -0.1277  0.2880  0.3635
  119MOL0     C16330  13.197   6.367   4.872  1.0670  0.8974 -0.6318
  119MOL0     C16331  13.057   6.337   4.869  0.0220  0.3438 -0.1167
  119MOL0     O16332  12.788   6.383   4.755  0.6548  0.0111 -0.5579
  119MOL0     C16333  12.557   6.268   4.990  0.4308 -0.4499 -0.1111
  119MOL0     C16334  12.423   6.224   5.003 -0.6266  0.1482  0.3817
  119MOL0     N16335  11.753   6.542   5.108  0.3968 -0.0175 -0.4079
  119MOL0     N16336  11.641   6.608   5.103  0.7264  0.2636  0.2474
  119MOL0     C16337  10.465   6.224   4.878  0.5339  0.0660 -0.3417
  119MOL0     C16338  10.345   6.149   4.905 -0.0905 -1.2100  1.7997
  119MOL0     C16339   9.908   6.120   4.998 -0.0748  0.7606 -0.1409
  119MOL0     C16340   9.829   6.110   4.879  0.0751  0.9130  0.7006
  119MOL0     C16341   9.696   6.052   4.875 -0.2731 -0.6586  0.1781
  119MOL0     C16342   9.648   6.013   4.999  0.0307  0.4141 -0.7717
  119MOL0     O16343   9.526   5.947   5.024 -0.1485 -0.0681  0.6725
  119MOL0     C16344   9.477   5.897   4.901  0.1669  0.7265  0.4653
  119MOL0     C16345   9.345   5.828   4.933 -0.2982  0.2289 -0.6926
  119MOL0     C16346   9.239   5.924   4.982 -0.6407  0.4199 -0.6157
  119MOL0     C16347   9.099   5.866   4.983  0.0476  1.1427 -0.6150
  119MOL0     C16348   8.999   5.961   5.006  0.0536  0.5909 -0.2438
  119MOL0     C16349   8.908   6.037   5.038  0.2651  0.7997  0.7172
  119MOL0     C16350   9.724   6.025   5.114 -0.5271 -0.4576 -0.7674
  119MOL0     C16351   9.857   6.071   5.116 -0.5988  0.1813 -0.7769
  119MOL0     C16352   9.927   6.063   5.253 -0.3535  0.1948 -0.3828
  119MOL0     H16353  10.143   6.308   4.686  1.2927 -2.0020 -1.3621
  119MOL0     H16354  10.352   6.427   4.626  1.1858 -1.1895 -0.7766
  119MOL0     H16355  10.597   6.424   4.972  1.5573  3.2566  1.8462
  119MOL0     H16356  10.505   6.552   4.908 -0.5348 -1.3357  0.3921
  119MOL0     H16357  10.699   6.628   4.780  2.8410 -0.6495 -0.1497
  119MOL0     H16358  10.731   6.657   4.950  1.6878 -3.2818  2.9813
  119MOL0     H16359  10.833   6.416   4.955 -1.2158  2.6835  2.3630
  119MOL0     H16360  10.836   6.430   4.776 -1.0050  1.4020 -1.6874
  119MOL0     H16361  10.976   6.652   4.800  0.4538  1.0390  0.5379
  119MOL0     H16362  10.964   6.640   4.973 -1.1366  2.4771 -2.5515
  119MOL0     H16363  11.115   6.450   4.791 -3.7404  2.5748 -1.7897
  119MOL0     H16364  11.108   6.424   4.968  3.6251  1.5427  0.7600
  119MOL0     H16365  11.238   6.655   4.810 -0.3848 -0.0225  0.0867
  119MOL0     H16366  11.202   6.679   4.978  3.2348 -0.0256  1.2518
  119MOL0     H16367  11.358   6.437   4.905  0.0753 -1.5058  2.6595
  119MOL0     H16368  11.345   6.515   5.059  1.8985  0.1070  0.2146
  119MOL0     H16369  11.457   6.664   4.826 -0.9604 -2.3565 -0.5388
  119MOL0     H16370  11.439   6.743   4.984 -0.3615  1.3850 -0.5709
  119MOL0     H16371  11.652   6.479   4.804  0.3334 -1.1480 -0.6231
  119MOL0     H16372  11.965   6.425   5.042  1.6784 -3.9612 -0.7650
  119MOL0     H16373  11.945   6.468   4.871  0.0417 -2.1170 -0.8897
  119MOL0     H16374  11.837   6.222   5.011  0.2120 -1.0387  0.1763
  119MOL0     H16375  11.799   6.269   4.842  2.2857  1.8800 -2.0624
  119MOL0     H16376  11.980   6.101   4.844 -0.9108  0.6263  0.1689
  119MOL0     H16377  12.033   6.254   4.770  0.1184 -0.2924 -0.0144
  119MOL0     H16378  12.151   6.317   4.978  1.0480 -0.9486  0.4036
  119MOL0     H16379  12.104   6.164   5.062  1.5401 -2.1451 -1.1956
  119MOL0     H16380  12.346   6.151   4.686 -0.2027 -0.0859 -0.0671
  119MOL0     H16381  12.615   6.324   4.591  3.4409  0.2036  3.3258
  119MOL0     H16382  12.524   6.167   4.547 -0.0359 -0.2799  1.3845
  119MOL0     H16383  12.694   6.175   4.610  1.2553  2.1620  0.2471
  119MOL0     H16384  12.953   6.469   5.167  0.6081  3.3025 -0.4657
  119MOL0     H16385  13.169   6.573   5.152 -1.7499  0.5168 -0.0723
  119MOL0     H16386  13.360   6.691   4.968 -0.9670 -1.3621 -1.7737
  119MOL0     H16387  13.387   6.624   5.137  0.2352 -0.4351  0.0010
  119MOL0     H16388  13.603   6.564   5.104  0.6580 -0.6531 -1.3294
  119MOL0     H16389  13.594   6.615   4.923 -1.6817 -1.1137  0.0798
  119MOL0     H16390  13.552   6.785   5.162 -0.6019 -2.4160  0.0504
  119MOL0     H16391  13.588   6.850   4.995  2.4479  0.7431  0.9976
  119MOL0     H16392  13.811   6.739   4.987  1.6690  2.3613  0.4741
  119MOL0     H16393  13.791   6.695   5.159 -0.0795 -0.9153 -0.4397
  119MOL0     H16394  13.796   6.977   5.035 -0.4401 -1.5557 -0.7088
  119MOL0     H16395  13.750   6.944   5.196 -1.6648  1.5305 -2.1331
  119MOL0     H16396  13.985   6.801   5.205 -0.9124  1.4360  1.9810
  119MOL0     H16397  13.990   6.981   5.215 -2.3708  1.7804  0.5639
  119MOL0     H16398  14.020   6.821   4.956  4.4987 -1.1303 -0.9016
  119MOL0     H16399  14.157   6.845   5.065  0.3162 -2.5861 -1.0487
  119MOL0     H16400  14.138   7.093   5.018  2.8947 -0.9654 -0.0646
  119MOL0     H16401  14.016   7.056   4.886 -0.4689 -0.4980  0.3111
  119MOL0     H16402  13.262   6.335   4.790  2.0840  0.4834  0.3031
  119MOL0     H16403  13.028   6.282   4.781  2.5064  2.1862 -2.2333
  119MOL0     H16404  12.612   6.299   5.078  3.2757  0.9077 -2.1756
  119MOL0     H16405  12.391   6.227   5.107  3.1356 -0.2648  1.6953
  119MOL0     H16406  10.556   6.196   4.931  1.1035  0.4538 -1.0945
  119MOL0     H16407  10.337   6.071   4.980 -2.6998 -2.1494  0.6578
  119MOL0     H16408   9.869   6.148   4.786  0.3965  0.7427  0.7682
  119MOL0     H16409   9.638   6.043   4.784 -0.6151  2.2538  0.0348
  119MOL0     H16410   9.452   5.971   4.825 -1.2618  0.4625  0.6456
  119MOL0     H16411   9.550   5.832   4.851  0.1927  0.6566  0.5936
  119MOL0     H16412   9.360   5.743   5.000 -0.4579 -0.1265 -1.1038
  119MOL0     H16413   9.305   5.778   4.845  1.9082 -0.5684 -1.3091
  119MOL0     H16414   9.268   5.949   5.085  0.4395 -1.9544 -0.2603
  119MOL0     H16415   9.248   6.018   4.927  2.4694  2.9550  3.6029
  119MOL0     H16416   9.095   5.789   5.061 -1.8527  0.1828 -1.6081
  119MOL0     H16417   9.077   5.807   4.894  0.2378 -1.5973  1.0223
  119MOL0     H16418   8.828   6.103   5.064 -0.5285 -0.5206  1.7522
  119MOL0     H16419   9.679   5.999   5.209  0.3189 -0.4721 -0.3624
  119MOL0     H16420  10.035   6.070   5.239 -0.4735  0.2566 -1.3071
  119MOL0     H16421   9.889   6.130   5.330  0.8474  0.0321  0.3868
  119MOL0     H16422   9.905   5.962   5.291 -2.4282  0.8568  0.3138
  120MOL0     O16423   1.560   0.982   9.186 -0.1013  0.4718  0.6079
  120MOL0     C16424   1.484   0.994   9.282  0.1646  0.4072 -0.6911
  120MOL0     O16425   1.518   1.015   9.415 -0.3206  0.6713  0.2292
  120MOL0     C16426   1.649   1.015   9.457  0.4221  0.3599  0.6620
  120MOL0     C16427   1.700   1.131   9.515 -0.1247 -0.0407  0.6240
  120MOL0     C16428   1.834   1.133   9.562  0.1820  0.2700 -0.9224
  120MOL0     C16429   1.910   1.011   9.562 -0.3987  0.4527 -0.1632
  120MOL0     O16430   2.039   0.995   9.601 -0.4579  0.3659  0.2254
  120MOL0     C16431   2.098   1.099   9.671 -0.2100 -0.2349  0.3675
  120MOL0     C16432   2.223   1.061   9.749 -0.1960 -0.6007  0.6396
  120MOL0     C16433   2.331   0.985   9.668  0.2190 -0.7093 -0.4467
  120MOL0     C16434   2.467   0.975   9.740 -0.4235  0.6481 -0.0551
  120MOL0     C16435   2.569   0.902   9.651 -0.1546 -0.2096  0.0534
  120MOL0     C16436   2.654   1.013   9.589 -0.1805 -0.5791 -0.0095
  120MOL0     C16437   2.760   0.966   9.494  0.4015  0.5644 -0.5088
  120MOL0     C16438   2.820   1.080   9.418  0.5159  0.2480 -0.0868
  120MOL0     N16439   2.938   1.040   9.341  0.3494 -0.3071  0.0749
  120MOL0     C16440   2.935   0.964   9.229  0.0968 -0.2088 -0.3827
  120MOL0     C16441   3.064   0.930   9.203 -0.0660 -0.4888 -0.0935
  120MOL0     C16442   3.108   0.843   9.093 -0.7186  0.3204 -0.4426
  120MOL0     C16443   3.108   0.909   8.954  0.7286  0.6425 -0.4643
  120MOL0     C16444   3.136   0.810   8.841 -0.4093  0.4808  0.7639
  120MOL0     C16445   3.049   0.681   8.840  0.0400  0.1431 -0.3123
  120MOL0     O16446   2.910   0.713   8.827  0.2540 -0.7067 -0.2899
  120MOL0     C16447   2.809   0.615   8.858 -1.0850 -1.3162  0.6855
  120MOL0     C16448   2.680   0.662   8.863  0.1797  0.3216 -0.1144
  120MOL0     C16449   2.575   0.579   8.900  0.1208 -0.1024 -1.4763
  120MOL0     C16450   2.439   0.643   8.886 -0.5002  0.1832 -0.3945
  120MOL0     C16451   2.597   0.445   8.943 -0.2814 -0.8944 -0.2049
  120MOL0     C16452   2.500   0.357   9.002 -0.5738  0.3139 -0.8423
  120MOL0     O16453   2.523   0.224   8.972  0.3858 -0.5655 -0.1815
  120MOL0     C16454   2.426   0.129   8.997  0.6367 -0.1412  0.4683
  120MOL0     C16455   2.482   0.008   9.037 -0.0839 -0.2847 -0.2929
  120MOL0     C16456   2.387  -0.094   9.065 -0.7211 -0.6510 -0.1822
  120MOL0     C16457   2.244  -0.066   9.050 -0.8731  0.3189 -0.2894
  120MOL0     O16458   2.163  -0.172   9.088 -0.5022 -0.1455 -0.2226
  120MOL0     C16459   2.036  -0.179   9.016  0.0383 -0.0012  0.7000
  120MOL0     C16460   1.962  -0.307   9.034 -0.6086  0.1564  0.0031
  120MOL0     C16461   2.046  -0.415   8.967  0.6590  0.4184  0.0072
  120MOL0     C16462   2.000  -0.556   9.006  0.3072  0.2389 -0.4192
  120MOL0     C16463   2.058  -0.662   8.909  0.6154  0.2849  0.5205
  120MOL0     C16464   1.987  -0.784   8.933 -0.4554 -0.1013  0.7395
  120MOL0     C16465   2.035  -0.900   8.831  0.3087  1.3007 -0.5949
  120MOL0     C16466   2.156  -0.979   8.876 -0.0684 -0.4092 -0.1571
  120MOL0    Cl16467   2.191  -1.114   8.758 -0.2788 -0.3186 -0.2366
  120MOL0     C16468   2.200   0.059   9.019 -0.3410 -0.1252  0.3008
  120MOL0     C16469   2.287   0.153   8.988  0.3428 -1.3781  0.0308
  120MOL0     O16470   2.419   0.394   9.087 -0.9450 -0.7845 -0.0695
  120MOL0     C16471   2.732   0.400   8.921  0.4611 -0.9109  0.0794
  120MOL0     C16472   2.835   0.483   8.874  0.0945  0.1986  0.3744
  120MOL0     N16473   3.139   1.005   9.283 -0.0245  0.0961  0.2452
  120MOL0     N16474   3.067   1.071   9.368  0.6234 -0.4188  0.0352
  120MOL0     C16475   1.856   0.896   9.501  0.1472 -0.6244 -0.8194
  120MOL0     C16476   1.726   0.899   9.442 -0.1376 -0.0967 -0.2459
  120MOL0     C16477   1.338   0.964   9.259 -0.0739  0.1424  0.2058
  120MOL0     C16478   1.254   0.948   9.366  0.4657 -0.2286 -0.0682
  120MOL0     C16479   1.128   0.903   9.356 -0.5448 -0.4034  0.0175
  120MOL0     C16480   1.068   0.891   9.234 -0.1796 -0.2939 -0.2011
  120MOL0     O16481   0.943   0.827   9.228  0.3509  0.3774  0.1090
  120MOL0     C16482   0.947   0.703   9.141 -0.3716  0.8165 -0.2873
  120MOL0     C16483   0.900   0.570   9.217 -0.4379  0.7558 -0.9426
  120MOL0     C16484   0.984   0.559   9.344 -0.3374  0.1500 -0.8470
  120MOL0     C16485   0.972   0.427   9.422 -1.4717 -0.1864  0.6863
  120MOL0     C16486   1.083   0.344   9.374 -0.0125  0.1400 -0.0475
  120MOL0     C16487   1.161   0.267   9.325 -0.7804 -0.1680  0.3716
  120MOL0     C16488   1.132   0.932   9.120 -0.3426  0.0764 -0.2524
  120MOL0     C16489   1.271   0.952   9.127  0.0663  0.1771 -0.8735
  120MOL0     C16490   1.342   0.984   8.996  0.3671  0.4654  0.4223
  120MOL0     H16491   1.652   1.227   9.531 -0.8793  0.4881 -3.6535
  120MOL0     H16492   1.860   1.230   9.604 -1.9826 -0.3032  2.0305
  120MOL0     H16493   2.027   1.149   9.738 -0.8382  1.8061 -1.7032
  120MOL0     H16494   2.122   1.172   9.593  0.4824 -0.9441 -0.0839
  120MOL0     H16495   2.273   1.153   9.779 -1.0072  0.7095 -1.7884
  120MOL0     H16496   2.187   1.012   9.840  0.0504  3.0213  2.8677
  120MOL0     H16497   2.280   0.891   9.650 -2.1634  0.4544 -0.1751
  120MOL0     H16498   2.350   1.032   9.571  0.6156 -1.6881 -0.8601
  120MOL0     H16499   2.503   1.075   9.764 -1.9037  1.1082  0.3396
  120MOL0     H16500   2.435   0.914   9.826 -2.4387 -1.1801 -1.9530
  120MOL0     H16501   2.516   0.845   9.575  3.0979 -0.3084 -2.3634
  120MOL0     H16502   2.642   0.854   9.717  2.5641  4.3714  0.8505
  120MOL0     H16503   2.587   1.079   9.534  2.7172  0.1521 -3.0350
  120MOL0     H16504   2.701   1.070   9.670  3.1880 -1.6375 -1.0549
  120MOL0     H16505   2.705   0.899   9.428 -0.4518 -1.9988  2.5407
  120MOL0     H16506   2.834   0.906   9.547 -0.6274  1.0620  1.6113
  120MOL0     H16507   2.748   1.114   9.343  1.5650  0.8968 -0.8140
  120MOL0     H16508   2.841   1.154   9.496 -0.8329 -1.5668  2.1353
  120MOL0     H16509   2.850   0.930   9.171  1.0014 -1.3954 -1.0556
  120MOL0     H16510   3.036   0.761   9.097  1.2242 -1.6072 -2.3748
  120MOL0     H16511   3.211   0.813   9.118 -0.7756  0.2277 -0.3189
  120MOL0     H16512   3.008   0.954   8.950  0.7834  0.7547 -0.5767
  120MOL0     H16513   3.187   0.985   8.957  1.5682 -0.2370  0.4163
  120MOL0     H16514   3.113   0.862   8.748 -1.1955 -1.3001 -0.1000
  120MOL0     H16515   3.242   0.781   8.845 -0.8595 -1.9132 -1.5916
  120MOL0     H16516   3.073   0.612   8.758 -0.1843 -1.0355  0.5972
  120MOL0     H16517   3.069   0.625   8.931 -1.0880  0.1612 -0.0461
  120MOL0     H16518   2.652   0.764   8.837  0.3869  0.0687 -1.4121
  120MOL0     H16519   2.358   0.597   8.943  0.4924 -2.0113 -0.6450
  120MOL0     H16520   2.418   0.636   8.778 -2.5917 -0.1913 -0.0158
  120MOL0     H16521   2.437   0.748   8.917 -1.6318  0.0602  0.0031
  120MOL0     H16522   2.590  -0.003   9.044 -0.2520 -0.5361  3.4759
  120MOL0     H16523   2.413  -0.196   9.094  1.1667 -0.3860 -0.7585
  120MOL0     H16524   1.980  -0.092   9.050 -1.0912  0.1600 -1.4326
  120MOL0     H16525   2.041  -0.157   8.909 -1.5929 -0.0068  0.6063
  120MOL0     H16526   1.932  -0.321   9.138 -0.0586  1.5125  0.3618
  120MOL0     H16527   1.872  -0.290   8.974  0.8042  4.0424 -1.2832
  120MOL0     H16528   2.154  -0.408   8.976  0.9238 -0.7630 -1.6796
  120MOL0     H16529   2.029  -0.401   8.859  0.6188  0.0612 -0.0351
  120MOL0     H16530   1.893  -0.545   8.988 -0.2496  0.1182  2.4131
  120MOL0     H16531   2.036  -0.584   9.105  2.2553 -0.2059 -1.2060
  120MOL0     H16532   2.039  -0.631   8.805 -3.2415  0.8609  1.2721
  120MOL0     H16533   2.167  -0.673   8.909  0.5167 -0.7501  0.1642
  120MOL0     H16534   1.880  -0.766   8.916 -0.6661 -1.2550  0.8109
  120MOL0     H16535   1.998  -0.815   9.038  2.7468 -0.7945  0.3054
  120MOL0     H16536   2.068  -0.863   8.734  0.1602 -0.9487 -1.5437
  120MOL0     H16537   1.954  -0.972   8.820  0.2418  1.0948  0.9330
  120MOL0     H16538   2.134  -1.011   8.978  1.6277  1.3027  0.8153
  120MOL0     H16539   2.251  -0.925   8.873  1.4875 -2.9730 -3.2548
  120MOL0     H16540   2.098   0.095   9.023 -0.1490  0.3039  1.6955
  120MOL0     H16541   2.247   0.254   8.983  2.2360 -0.5578  0.5232
  120MOL0     H16542   2.761   0.301   8.955  1.9375 -0.8859 -1.0249
  120MOL0     H16543   2.934   0.444   8.854 -0.9276 -0.8437 -3.6530
  120MOL0     H16544   1.916   0.809   9.479 -0.0024 -0.5389 -1.5813
  120MOL0     H16545   1.702   0.808   9.387  3.0420  0.2345 -2.4557
  120MOL0     H16546   1.299   0.941   9.465  2.3314 -4.7596 -1.0025
  120MOL0     H16547   1.069   0.885   9.446 -0.9425  1.6380  0.2101
  120MOL0     H16548   0.882   0.725   9.057  0.8198  1.9331 -0.9429
  120MOL0     H16549   1.046   0.693   9.097 -1.5488  1.0987 -3.2071
  120MOL0     H16550   0.933   0.485   9.156  1.6460  0.9689 -0.2065
  120MOL0     H16551   0.792   0.572   9.229 -0.5330  1.0501 -1.7255
  120MOL0     H16552   1.084   0.590   9.315 -1.3518  2.2671 -2.4187
  120MOL0     H16553   0.953   0.629   9.423  0.3270  0.0200 -0.4693
  120MOL0     H16554   0.878   0.371   9.409  0.1753 -2.7544 -1.0087
  120MOL0     H16555   0.988   0.445   9.529  0.5453 -0.8227  0.5176
  120MOL0     H16556   1.216   0.194   9.270 -0.7933 -1.3600  1.8730
  120MOL0     H16557   1.071   0.926   9.030 -1.7504 -2.0134  0.7471
  120MOL0     H16558   1.276   1.000   8.911  2.1379 -2.2500 -1.6452
  120MOL0     H16559   1.402   1.075   9.003 -1.3789  1.8526 -1.4059
  120MOL0     H16560   1.404   0.902   8.958 -1.9428 -0.7811 -0.8565
  121MOL0     O16561  10.270   2.559   2.913 -0.5773 -0.6870 -0.8920
  121MOL0     C16562  10.194   2.503   2.984  0.0017 -0.0178 -0.6941
  121MOL0     O16563  10.212   2.389   3.064 -0.3206  0.4652 -0.1963
  121MOL0     C16564  10.336   2.332   3.055 -0.4474 -0.2720 -0.5993
  121MOL0     C16565  10.402   2.301   3.177 -0.5846 -0.0871  0.7966
  121MOL0     C16566  10.531   2.256   3.181  0.0101 -0.1793 -0.5859
  121MOL0     C16567  10.603   2.231   3.060  0.1013  0.9472  0.1764
  121MOL0     O16568  10.738   2.194   3.074 -0.0804  0.0997  0.7412
  121MOL0     C16569  10.828   2.253   2.970  0.3766 -0.6340  0.2111
  121MOL0     C16570  10.972   2.217   2.979  0.6507 -0.5980  0.0714
  121MOL0     C16571  10.999   2.065   2.954 -0.1928 -0.3235 -0.0419
  121MOL0     C16572  10.999   1.982   3.080 -0.0406 -0.3101  0.7161
  121MOL0     C16573  11.046   1.833   3.070  0.2913  0.6212 -0.8707
  121MOL0     C16574  11.027   1.739   3.193  0.5430  0.9915  0.1033
  121MOL0     C16575  11.137   1.627   3.201 -0.9556 -0.2381  0.0745
  121MOL0     C16576  11.166   1.600   3.347 -0.0934 -0.0295 -0.4927
  121MOL0     N16577  11.273   1.498   3.362  0.0046  0.5670 -0.6426
  121MOL0     C16578  11.261   1.364   3.321  0.6440 -0.5607 -0.6927
  121MOL0     C16579  11.388   1.315   3.340 -0.5423  0.1456 -0.2946
  121MOL0     C16580  11.435   1.174   3.304  0.0628 -0.1315 -0.6854
  121MOL0     C16581  11.567   1.192   3.224 -0.2981  0.2859 -0.3430
  121MOL0     C16582  11.619   1.055   3.188  0.3573  0.1718 -0.1583
  121MOL0     C16583  11.762   1.043   3.130  0.2901  0.4155 -0.4641
  121MOL0     O16584  11.778   1.149   3.033 -0.2443 -0.2162 -0.0525
  121MOL0     C16585  11.900   1.146   2.970  0.2304  0.3008  0.1097
  121MOL0     C16586  12.009   1.181   3.040 -0.0664 -0.6917 -0.0781
  121MOL0     C16587  12.144   1.172   2.991  0.2505  0.0851 -0.6752
  121MOL0     C16588  12.252   1.201   3.086  0.1984 -0.5145  0.0446
  121MOL0     C16589  12.163   1.129   2.859  0.3436 -0.2906  0.9099
  121MOL0     C16590  12.294   1.122   2.792 -0.2109  0.1088  0.3135
  121MOL0     O16591  12.305   1.088   2.660  0.7155  0.7937  0.0071
  121MOL0     C16592  12.424   1.043   2.602 -0.5694  0.4734  0.0926
  121MOL0     C16593  12.417   0.930   2.525  0.3292 -0.0663  0.2322
  121MOL0     C16594  12.534   0.874   2.464 -0.6862 -0.0324  0.3079
  121MOL0     C16595  12.666   0.932   2.487  0.6746  0.0710  0.3402
  121MOL0     O16596  12.786   0.871   2.442  0.5224 -0.2650 -0.2432
  121MOL0     C16597  12.812   0.886   2.304  0.7227  0.3115  0.4057
  121MOL0     C16598  12.900   1.007   2.293 -0.4586  0.0066 -0.2877
  121MOL0     C16599  13.019   1.019   2.394  0.7064  0.3339 -0.5817
  121MOL0     C16600  13.118   1.118   2.336  0.3930 -0.4597 -0.2049
  121MOL0     C16601  13.213   1.182   2.449  0.1116 -0.4923  0.1336
  121MOL0     C16602  13.322   1.085   2.495 -0.0888  0.4751  0.0341
  121MOL0     C16603  13.430   1.039   2.386  0.3179 -0.9595 -0.2375
  121MOL0     C16604  13.553   0.994   2.455 -0.6011  0.4032 -0.4403
  121MOL0    Cl16605  13.516   0.870   2.574  0.2780 -0.4741 -0.0754
  121MOL0     C16606  12.664   1.045   2.573  0.2815 -0.0379  0.5786
  121MOL0     C16607  12.546   1.098   2.621 -0.2232 -0.2028  0.4155
  121MOL0     O16608  12.395   1.135   2.859  0.0408  0.5640 -0.3919
  121MOL0     C16609  12.044   1.100   2.781 -0.4711  0.4273 -0.5808
  121MOL0     C16610  11.912   1.113   2.836  0.4247  0.0214  0.1510
  121MOL0     N16611  11.463   1.411   3.392  0.0249 -0.1729  0.0381
  121MOL0     N16612  11.396   1.524   3.407 -0.5086  0.4630 -0.0719
  121MOL0     C16613  10.534   2.259   2.937  0.1824  0.7499  0.0660
  121MOL0     C16614  10.397   2.304   2.938 -1.3349  0.2532  1.0444
  121MOL0     C16615  10.063   2.567   3.006  0.6983  0.8552 -1.0347
  121MOL0     C16616   9.999   2.581   3.139 -0.8159  0.3525  0.8896
  121MOL0     C16617   9.872   2.630   3.154 -0.2904 -0.1753  0.6697
  121MOL0     C16618   9.795   2.678   3.048  0.4746 -0.0335  0.3665
  121MOL0     O16619   9.666   2.707   3.076  0.4471 -0.0208 -0.3870
  121MOL0     C16620   9.566   2.753   2.978  0.3149  0.5433  0.3558
  121MOL0     C16621   9.431   2.794   3.038 -0.0657  0.2025 -0.3272
  121MOL0     C16622   9.364   2.675   3.115 -0.3084 -0.3625 -0.2890
  121MOL0     C16623   9.225   2.723   3.167 -0.0873  0.4230  0.3876
  121MOL0     C16624   9.144   2.603   3.206  0.0294  0.6419 -0.1745
  121MOL0     C16625   9.089   2.504   3.237  0.4976  0.3509  0.2530
  121MOL0     C16626   9.851   2.671   2.918 -0.1280 -0.0906  0.0974
  121MOL0     C16627   9.980   2.615   2.895  0.9176 -0.2821 -0.1667
  121MOL0     C16628  10.021   2.598   2.754  0.9634 -0.6842 -0.0923
  121MOL0     H16629  10.349   2.319   3.269 -0.9950 -2.3399  1.0536
  121MOL0     H16630  10.574   2.243   3.279  1.5212 -0.2318 -1.2305
  121MOL0     H16631  10.824   2.362   2.977 -0.5914 -0.4057 -2.6519
  121MOL0     H16632  10.795   2.219   2.871  3.7586 -0.2294 -1.1661
  121MOL0     H16633  11.021   2.281   2.906  0.9068 -1.2423 -0.3288
  121MOL0     H16634  10.999   2.247   3.081 -0.4097  0.3526  0.0868
  121MOL0     H16635  10.925   2.015   2.890  1.6079 -1.1775 -1.5653
  121MOL0     H16636  11.091   2.048   2.897 -0.0065  0.3882  0.0395
  121MOL0     H16637  11.074   2.037   3.138  1.1026 -0.8617 -0.2156
  121MOL0     H16638  10.901   1.989   3.130  0.1318  3.6361  0.8248
  121MOL0     H16639  11.152   1.840   3.042 -0.0841  4.8346 -1.9728
  121MOL0     H16640  10.989   1.787   2.989 -1.0193 -0.6549  0.7132
  121MOL0     H16641  11.025   1.801   3.283  1.1604  0.5308  0.4512
  121MOL0     H16642  10.933   1.684   3.189  2.8034 -3.3992  0.8909
  121MOL0     H16643  11.231   1.672   3.170 -0.0432 -0.7033  2.0343
  121MOL0     H16644  11.120   1.538   3.140 -0.2637  1.3841 -2.6565
  121MOL0     H16645  11.190   1.693   3.401  1.6827  0.8095 -2.5742
  121MOL0     H16646  11.076   1.564   3.397  0.8049  0.1369  1.3656
  121MOL0     H16647  11.168   1.322   3.286  0.9806 -0.6415 -1.5131
  121MOL0     H16648  11.357   1.126   3.245 -0.2206 -0.3687 -0.1334
  121MOL0     H16649  11.449   1.101   3.385  2.9608 -0.8111 -1.6885
  121MOL0     H16650  11.543   1.245   3.132 -2.7159 -0.0580  0.0183
  121MOL0     H16651  11.645   1.241   3.283 -0.1259 -2.2158  1.7014
  121MOL0     H16652  11.616   0.985   3.272 -1.6958 -0.2416 -0.5394
  121MOL0     H16653  11.541   1.018   3.122  0.0724  2.3426 -1.1343
  121MOL0     H16654  11.834   1.040   3.212  0.2373 -2.1103 -0.4335
  121MOL0     H16655  11.774   0.954   3.067 -2.0735  0.9603 -1.8366
  121MOL0     H16656  11.984   1.210   3.142  0.3657 -1.0982  0.1467
  121MOL0     H16657  12.213   1.226   3.185 -2.4947 -1.6688 -0.6298
  121MOL0     H16658  12.309   1.285   3.049 -1.4078  0.4293 -0.3891
  121MOL0     H16659  12.311   1.111   3.107  0.8943  0.2074  1.3093
  121MOL0     H16660  12.319   0.886   2.515  0.7068 -1.0023  0.5655
  121MOL0     H16661  12.544   0.778   2.415 -0.7026  0.5812 -0.9213
  121MOL0     H16662  12.857   0.796   2.262 -1.3039 -0.0398 -1.1831
  121MOL0     H16663  12.717   0.893   2.250  1.9632 -2.3723 -2.4463
  121MOL0     H16664  12.936   1.002   2.190  0.2245 -1.2719 -0.0201
  121MOL0     H16665  12.840   1.097   2.304  3.5519  3.3700 -2.9335
  121MOL0     H16666  13.067   0.921   2.389 -0.4369 -0.5155  2.7244
  121MOL0     H16667  12.984   1.041   2.496 -0.9833 -0.6979 -0.8965
  121MOL0     H16668  13.066   1.200   2.286  2.3962  1.4039  0.6003
  121MOL0     H16669  13.180   1.066   2.263 -0.3107  1.4633 -2.3169
  121MOL0     H16670  13.258   1.274   2.408 -0.0137 -0.9205 -1.0073
  121MOL0     H16671  13.147   1.211   2.532  0.6625 -1.4857  0.9273
  121MOL0     H16672  13.270   0.999   2.538 -0.3064  0.1068 -0.9255
  121MOL0     H16673  13.374   1.134   2.578 -2.1292 -1.2250  2.4792
  121MOL0     H16674  13.456   1.123   2.320  0.5366  0.7013  1.8637
  121MOL0     H16675  13.403   0.955   2.322 -1.0213 -0.8999  0.2258
  121MOL0     H16676  13.593   1.078   2.512  1.3200 -2.3398  2.6283
  121MOL0     H16677  13.619   0.966   2.372 -0.5139  0.5332 -0.4147
  121MOL0     H16678  12.752   1.105   2.595  1.9000 -1.4229 -1.7204
  121MOL0     H16679  12.547   1.198   2.663  0.2974 -0.6317  1.4669
  121MOL0     H16680  12.040   1.074   2.676  1.7926 -2.0125 -0.1459
  121MOL0     H16681  11.833   1.101   2.763  0.5331  0.9118 -0.1167
  121MOL0     H16682  10.583   2.235   2.843  1.1260  0.2557  0.6646
  121MOL0     H16683  10.345   2.317   2.844 -1.2846  2.0200  1.2213
  121MOL0     H16684  10.053   2.556   3.230 -0.1944 -0.8673  0.2226
  121MOL0     H16685   9.834   2.641   3.255 -0.8391  0.7510  0.3742
  121MOL0     H16686   9.598   2.842   2.922  1.7969 -0.7718 -1.0007
  121MOL0     H16687   9.557   2.667   2.911 -1.1498  1.6995 -1.0367
  121MOL0     H16688   9.370   2.826   2.953 -0.7655  2.2792  0.8883
  121MOL0     H16689   9.453   2.883   3.096  1.1578 -0.4710  0.2683
  121MOL0     H16690   9.339   2.597   3.043  1.6583 -2.2188  0.9099
  121MOL0     H16691   9.423   2.636   3.198 -1.4588  1.6856  1.5925
  121MOL0     H16692   9.178   2.767   3.079 -0.4113  0.7176  0.7082
  121MOL0     H16693   9.218   2.802   3.242 -0.0133 -1.5898  2.6155
  121MOL0     H16694   9.032   2.422   3.277  1.4261  0.8682  2.8227
  121MOL0     H16695   9.791   2.714   2.838  3.5862  0.7698 -2.4661
  121MOL0     H16696   9.933   2.580   2.691 -0.8228 -3.8888  2.9808
  121MOL0     H16697  10.074   2.687   2.718 -0.5579  0.4379  0.3168
  121MOL0     H16698  10.081   2.508   2.741 -0.7198 -2.0705  1.2243
  122MOL0     O16699   4.561   1.681   0.944  0.7122  1.0432  0.2773
  122MOL0     C16700   4.436   1.669   0.911  0.1112  0.4196 -0.2072
  122MOL0     O16701   4.381   1.563   0.845  0.3981  0.2393  0.3690
  122MOL0     C16702   4.469   1.456   0.837 -0.4238 -0.5007 -0.1074
  122MOL0     C16703   4.571   1.450   0.741 -1.0536  0.1783 -0.0352
  122MOL0     C16704   4.659   1.335   0.743 -0.1272  0.9127  0.9668
  122MOL0     C16705   4.652   1.236   0.841  0.6520  0.3133  0.0989
  122MOL0     O16706   4.734   1.124   0.854 -0.5536 -0.8955  0.0919
  122MOL0     C16707   4.828   1.090   0.747  0.1049  0.0623  0.3917
  122MOL0     C16708   4.843   0.937   0.747  0.0677  0.7207  0.6943
  122MOL0     C16709   4.907   0.881   0.870 -0.6962 -0.7801  0.4245
  122MOL0     C16710   4.967   0.737   0.848 -0.0121 -0.3700 -0.2692
  122MOL0     C16711   4.991   0.658   0.970 -0.5388  0.7979  0.0582
  122MOL0     C16712   5.041   0.512   0.938  0.2901 -0.3372 -0.5971
  122MOL0     C16713   5.093   0.437   1.067  0.1171  0.2373 -0.1203
  122MOL0     C16714   5.218   0.504   1.132 -0.3977  0.0413  0.1410
  122MOL0     N16715   5.318   0.530   1.031 -0.1111  0.8861  0.5093
  122MOL0     C16716   5.353   0.651   0.967  0.3841 -0.1892 -0.9542
  122MOL0     C16717   5.457   0.618   0.882 -0.1808 -0.5472  0.1012
  122MOL0     C16718   5.533   0.712   0.775 -0.5784 -0.0331 -0.1375
  122MOL0     C16719   5.685   0.687   0.770 -0.9409  0.2081 -0.2281
  122MOL0     C16720   5.758   0.760   0.672 -0.2152 -0.3197  0.4517
  122MOL0     C16721   5.912   0.730   0.678  0.3895  0.8346  0.7502
  122MOL0     O16722   5.957   0.766   0.805  0.1424 -0.4327 -0.6412
  122MOL0     C16723   6.093   0.784   0.826 -0.4516 -0.3683 -0.0071
  122MOL0     C16724   6.180   0.765   0.720 -0.8747  0.4646  0.2348
  122MOL0     C16725   6.323   0.769   0.741  0.5873  0.7658 -0.7295
  122MOL0     C16726   6.420   0.755   0.626  0.8398  0.3719 -0.0167
  122MOL0     C16727   6.371   0.805   0.875  0.8176 -0.8316  0.0095
  122MOL0     C16728   6.515   0.829   0.898  0.2253  0.1034  1.2416
  122MOL0     O16729   6.615   0.792   0.817 -0.0745 -1.0212  0.4058
  122MOL0     C16730   6.741   0.809   0.859  0.3731 -0.1643 -0.3567
  122MOL0     C16731   6.802   0.935   0.874 -0.6307  0.3673  0.6030
  122MOL0     C16732   6.942   0.941   0.884 -0.3459 -0.2870 -0.1942
  122MOL0     C16733   7.024   0.825   0.880 -0.1748 -0.1016  0.2525
  122MOL0     O16734   7.161   0.839   0.886 -0.8192  0.2779  0.8079
  122MOL0     C16735   7.244   0.725   0.898 -0.3559  0.3377 -0.9528
  122MOL0     C16736   7.393   0.770   0.910 -0.3074  0.6754 -0.0001
  122MOL0     C16737   7.484   0.645   0.915  1.1923  0.3978 -1.1498
  122MOL0     C16738   7.626   0.678   0.894  0.6995  0.3789  0.0595
  122MOL0     C16739   7.717   0.570   0.939 -0.4217 -0.0097 -0.1927
  122MOL0     C16740   7.717   0.439   0.848 -0.0406 -0.5370 -0.5230
  122MOL0     C16741   7.829   0.348   0.896  0.3386  0.3790 -0.5856
  122MOL0     C16742   7.955   0.352   0.808  0.4531 -0.5249 -0.2651
  122MOL0    Cl16743   8.084   0.247   0.864  0.5454  0.1619 -0.4837
  122MOL0     C16744   6.959   0.702   0.866 -0.7175 -0.0979  0.5883
  122MOL0     C16745   6.825   0.695   0.862  0.2541 -1.2052 -0.6616
  122MOL0     O16746   6.533   0.883   1.003  0.5011  0.2256  0.7843
  122MOL0     C16747   6.274   0.836   0.970 -0.3844  0.4647  0.0170
  122MOL0     C16748   6.138   0.820   0.955 -0.1231  0.7399  0.7870
  122MOL0     N16749   5.495   0.487   0.908  0.8010  0.2067  0.2662
  122MOL0     N16750   5.414   0.435   0.984  0.0518  0.1044 -0.0620
  122MOL0     C16751   4.550   1.247   0.937 -0.4383 -0.2831 -0.2404
  122MOL0     C16752   4.461   1.355   0.936 -0.3438 -0.9272  0.3066
  122MOL0     C16753   4.345   1.790   0.932 -1.0563  0.2041  0.3196
  122MOL0     C16754   4.225   1.794   0.864  0.2678 -0.2261  0.3061
  122MOL0     C16755   4.152   1.910   0.854  0.5461 -0.3344  0.0073
  122MOL0     C16756   4.188   2.023   0.917 -0.2386  0.3119  0.0128
  122MOL0     O16757   4.125   2.138   0.910 -0.0648  0.3118  0.0381
  122MOL0     C16758   4.037   2.165   0.806  0.0423  0.4791  0.7252
  122MOL0     C16759   3.968   2.301   0.831  0.6031 -0.3057 -1.0270
  122MOL0     C16760   3.891   2.341   0.696 -0.2867 -0.0523  0.3422
  122MOL0     C16761   3.817   2.475   0.713  0.6696  0.4646  0.4107
  122MOL0     C16762   3.843   2.569   0.608  0.2159  0.8311 -0.3142
  122MOL0     C16763   3.824   2.658   0.527  1.3941 -0.4398  0.0066
  122MOL0     C16764   4.299   2.007   1.008  0.1653  0.3744 -0.3185
  122MOL0     C16765   4.382   1.895   1.010 -0.3495 -0.1677 -0.7223
  122MOL0     C16766   4.504   1.890   1.113 -0.1116 -0.3345  0.5429
  122MOL0     H16767   4.594   1.528   0.669  3.8433  2.2286  3.1914
  122MOL0     H16768   4.751   1.340   0.686 -0.2156 -0.4962  0.6592
  122MOL0     H16769   4.930   1.126   0.763  0.4824 -1.5757  1.9951
  122MOL0     H16770   4.793   1.119   0.647 -1.2194  0.4800  0.9594
  122MOL0     H16771   4.741   0.900   0.739  0.3970  0.1103 -1.1150
  122MOL0     H16772   4.895   0.911   0.654 -2.8886  3.3134 -1.8821
  122MOL0     H16773   4.994   0.943   0.892  0.3481 -2.0775  0.0103
  122MOL0     H16774   4.846   0.890   0.961  1.8608 -0.4973  2.2223
  122MOL0     H16775   4.903   0.680   0.780  1.6130 -1.0690 -1.2622
  122MOL0     H16776   5.066   0.752   0.805  0.5504  3.5439  1.9306
  122MOL0     H16777   4.903   0.642   1.034  1.4495  0.1297  2.8391
  122MOL0     H16778   5.076   0.697   1.026  1.4194 -1.4239 -1.2091
  122MOL0     H16779   4.960   0.455   0.893 -1.0005  0.3593  0.7728
  122MOL0     H16780   5.124   0.532   0.869  0.5852  1.5165  0.2436
  122MOL0     H16781   5.112   0.332   1.043 -0.0907 -0.5917  2.8924
  122MOL0     H16782   5.020   0.439   1.148 -0.1165 -0.6062 -0.3081
  122MOL0     H16783   5.179   0.594   1.180 -2.0856  0.6914 -2.2681
  122MOL0     H16784   5.249   0.437   1.213  0.9986  0.3780 -0.0986
  122MOL0     H16785   5.301   0.745   0.980  2.3940  0.6189  1.9535
  122MOL0     H16786   5.511   0.817   0.794  0.4236  1.0976 -4.1550
  122MOL0     H16787   5.504   0.689   0.671  1.9339 -1.9245 -0.5149
  122MOL0     H16788   5.731   0.705   0.868  0.4561 -2.2203 -0.3590
  122MOL0     H16789   5.708   0.584   0.741 -0.4557  0.5071 -0.9256
  122MOL0     H16790   5.718   0.725   0.577  0.7258 -0.5258  0.1196
  122MOL0     H16791   5.748   0.869   0.678  0.4517 -0.2746  0.8732
  122MOL0     H16792   5.940   0.629   0.649 -2.5197  0.5379 -1.4592
  122MOL0     H16793   5.952   0.798   0.603  0.7280  0.2158  0.3668
  122MOL0     H16794   6.153   0.721   0.625 -0.9856 -0.9738  0.9075
  122MOL0     H16795   6.503   0.685   0.636 -1.2514 -2.0973  1.3248
  122MOL0     H16796   6.466   0.854   0.620  0.1859  0.6525 -0.5163
  122MOL0     H16797   6.369   0.729   0.533 -1.9446 -4.3030  2.4528
  122MOL0     H16798   6.735   1.020   0.875 -2.3407 -0.9213  0.1235
  122MOL0     H16799   7.005   1.029   0.886 -0.3974 -0.1927 -1.6655
  122MOL0     H16800   7.218   0.686   0.997  3.1947  0.9228  0.3581
  122MOL0     H16801   7.238   0.660   0.810  2.5370 -0.8622 -0.3623
  122MOL0     H16802   7.417   0.829   0.821  0.1288  2.3601  1.2027
  122MOL0     H16803   7.414   0.819   1.005 -1.9155  1.8974 -0.2386
  122MOL0     H16804   7.449   0.578   0.837 -1.3293  0.1548  0.0893
  122MOL0     H16805   7.464   0.585   1.004 -3.0966 -0.7422 -2.6386
  122MOL0     H16806   7.648   0.774   0.941  0.9588  1.1796 -1.6172
  122MOL0     H16807   7.650   0.709   0.792  0.9051 -1.5073 -0.5041
  122MOL0     H16808   7.818   0.613   0.932 -0.2014 -0.6349 -1.0479
  122MOL0     H16809   7.703   0.547   1.045 -1.2015  2.6886  0.3707
  122MOL0     H16810   7.718   0.455   0.740 -1.2929  1.3385 -0.3032
  122MOL0     H16811   7.621   0.388   0.861  0.3793 -0.9427  1.1606
  122MOL0     H16812   7.790   0.246   0.885 -1.9595  1.3381 -1.7969
  122MOL0     H16813   7.848   0.374   1.000 -2.4961  0.0402  0.0885
  122MOL0     H16814   7.989   0.456   0.802 -1.3509  0.1054 -0.1649
  122MOL0     H16815   7.929   0.315   0.708  1.7964 -0.3354 -0.7180
  122MOL0     H16816   7.002   0.602   0.867 -1.5075 -0.4767 -0.9683
  122MOL0     H16817   6.778   0.598   0.849 -4.2409  0.4643  1.0513
  122MOL0     H16818   6.312   0.851   1.070 -0.8047  1.4678  0.0328
  122MOL0     H16819   6.068   0.837   1.036 -1.1617  1.0898 -0.1599
  122MOL0     H16820   4.543   1.164   1.007 -0.5352  0.1080  0.2221
  122MOL0     H16821   4.380   1.357   1.008 -1.1536 -0.1409 -0.6028
  122MOL0     H16822   4.202   1.713   0.796  1.2645  1.7582 -2.5786
  122MOL0     H16823   4.061   1.917   0.795  0.0913  1.8729  0.9122
  122MOL0     H16824   4.090   2.163   0.710 -0.2876  2.4858  0.4643
  122MOL0     H16825   3.955   2.093   0.804 -1.2920  1.9134  1.8302
  122MOL0     H16826   4.050   2.371   0.852  1.2372 -1.2906 -0.1770
  122MOL0     H16827   3.901   2.287   0.916  0.6565  1.2060 -0.6941
  122MOL0     H16828   3.973   2.350   0.625  0.4857 -0.0767  1.2186
  122MOL0     H16829   3.818   2.262   0.674 -0.5523 -0.2528  1.8771
  122MOL0     H16830   3.835   2.528   0.807  0.0720  2.6700 -0.6511
  122MOL0     H16831   3.710   2.455   0.720  0.6185 -0.3888 -2.0284
  122MOL0     H16832   3.795   2.725   0.448  0.0107 -0.9887  0.0186
  122MOL0     H16833   4.331   2.092   1.067 -0.4045  0.2155  0.2187
  122MOL0     H16834   4.496   1.973   1.185 -1.9671 -2.0586  2.4373
  122MOL0     H16835   4.503   1.798   1.173  0.5130 -1.6321 -1.3638
  122MOL0     H16836   4.605   1.899   1.071 -1.9283  0.7749 -4.1769
  123MOL0     O16837   1.706  11.093   4.195 -0.4010  0.3861  0.0829
  123MOL0     C16838   1.702  11.160   4.300 -0.3080  0.3825  0.0786
  123MOL0     O16839   1.797  11.248   4.332  0.0675  0.5776 -0.5687
  123MOL0     C16840   1.915  11.244   4.259 -0.2821  0.1876  0.1469
  123MOL0     C16841   1.931  11.314   4.143 -0.1252  0.2714  0.2013
  123MOL0     C16842   2.053  11.314   4.079  0.1567  0.3314  0.0388
  123MOL0     C16843   2.162  11.238   4.136  0.7545  0.2758 -0.0852
  123MOL0     O16844   2.275  11.239   4.061  0.0656  0.2777  0.1660
  123MOL0     C16845   2.400  11.208   4.127  0.3033  0.5192  0.5241
  123MOL0     C16846   2.511  11.269   4.040  0.3871 -0.0511  0.7449
  123MOL0     C16847   2.661  11.228   4.064  0.4287  0.8266 -0.4974
  123MOL0     C16848   2.731  11.324   4.159 -0.0557 -0.0662  0.0018
  123MOL0     C16849   2.825  11.249   4.253 -0.7073 -0.3571 -0.5049
  123MOL0     C16850   2.903  11.338   4.350 -0.3443 -1.4138 -1.6044
  123MOL0     C16851   2.967  11.460   4.288 -0.3308 -0.4414 -0.0996
  123MOL0     C16852   3.027  11.554   4.403  0.5842 -0.3854  0.3212
  123MOL0     N16853   3.156  11.505   4.459  0.2908 -0.3736 -0.6385
  123MOL0     C16854   3.283  11.529   4.409 -0.7123 -0.1476  0.4334
  123MOL0     C16855   3.360  11.447   4.487  1.0466  0.5357 -0.3541
  123MOL0     C16856   3.509  11.434   4.475  0.0745  0.2336  0.2991
  123MOL0     C16857   3.548  11.313   4.383 -0.1014 -0.4082  0.5142
  123MOL0     C16858   3.499  11.330   4.235 -0.3884 -0.0382  0.0411
  123MOL0     C16859   3.584  11.244   4.137  0.0402  0.4816  0.5015
  123MOL0     O16860   3.720  11.282   4.158  0.5824  0.1305  0.6401
  123MOL0     C16861   3.819  11.204   4.105 -0.3566 -0.1815  0.0037
  123MOL0     C16862   3.819  11.132   3.979 -0.0689  0.4919 -0.6050
  123MOL0     C16863   3.938  11.072   3.935 -0.9608 -0.9323  0.1776
  123MOL0     C16864   3.931  10.985   3.817  0.8344  0.4299  0.4571
  123MOL0     C16865   4.056  11.083   4.014 -0.2750  0.5418 -0.3519
  123MOL0     C16866   4.185  11.020   3.980  0.0379 -0.8499 -0.3480
  123MOL0     O16867   4.258  10.992   4.096  0.4403  0.3894 -0.5573
  123MOL0     C16868   4.379  10.926   4.084 -0.1501 -0.0382 -0.7829
  123MOL0     C16869   4.384  10.794   4.051  0.0347 -0.0203  0.1255
  123MOL0     C16870   4.513  10.737   4.066 -0.4921  0.3534  0.6228
  123MOL0     C16871   4.628  10.810   4.106 -1.0029 -0.0410  0.6325
  123MOL0     O16872   4.754  10.742   4.111  0.2489 -0.1969  0.2500
  123MOL0     C16873   4.783  10.662   3.991 -0.2685  0.4031 -1.0750
  123MOL0     C16874   4.921  10.604   4.035 -0.0673  0.2382 -0.0809
  123MOL0     C16875   4.976  10.496   3.936  0.1180  0.1982  0.2084
  123MOL0     C16876   5.126  10.494   3.924 -0.2525  0.0401 -0.1104
  123MOL0     C16877   5.178  10.388   3.835 -1.3782 -0.2465 -0.4586
  123MOL0     C16878   5.319  10.412   3.785 -0.2424  0.7540  0.1880
  123MOL0     C16879   5.362  10.288   3.699  0.1780  0.4549 -0.7389
  123MOL0     C16880   5.298  10.286   3.558 -0.8527 -0.5643  0.4254
  123MOL0    Cl16881   5.317  10.444   3.473 -0.0743 -0.1566  0.2011
  123MOL0     C16882   4.619  10.944   4.137  0.1563 -0.5050 -0.4039
  123MOL0     C16883   4.495  11.005   4.120  0.1395 -0.1435  0.6519
  123MOL0     O16884   4.227  11.012   3.869 -0.0249 -0.3432 -0.2479
  123MOL0     C16885   4.047  11.163   4.130 -1.5902  0.1565 -0.7442
  123MOL0     C16886   3.934  11.220   4.168  0.1486  0.4064  0.3948
  123MOL0     N16887   3.273  11.387   4.582 -0.5267 -0.2173  0.0821
  123MOL0     N16888   3.160  11.436   4.573  0.5286  0.2226 -0.4602
  123MOL0     C16889   2.147  11.177   4.263  0.1445  0.1248  0.7360
  123MOL0     C16890   2.026  11.177   4.321 -0.3710 -0.8263  0.0961
  123MOL0     C16891   1.586  11.161   4.386  0.0420  0.1546 -0.4633
  123MOL0     C16892   1.570  11.272   4.474  0.8242  0.6795 -0.6057
  123MOL0     C16893   1.449  11.304   4.535  0.2407 -0.9495  0.8423
  123MOL0     C16894   1.342  11.216   4.526 -0.1560 -1.5022 -0.6572
  123MOL0     O16895   1.220  11.232   4.601  0.0434 -0.9071  0.4411
  123MOL0     C16896   1.169  11.364   4.651  0.3722  0.2712  0.0292
  123MOL0     C16897   1.244  11.405   4.776  0.0346  0.2776 -1.1553
  123MOL0     C16898   1.174  11.454   4.905 -0.2181 -0.8684 -0.1218
  123MOL0     C16899   1.117  11.597   4.886  0.6988 -0.7581  0.1583
  123MOL0     C16900   1.169  11.685   4.998 -0.7625 -0.1914  0.7357
  123MOL0     C16901   1.212  11.767   5.073  0.3655 -0.4289 -0.6905
  123MOL0     C16902   1.351  11.100   4.448  0.9821 -1.1120  0.0972
  123MOL0     C16903   1.475  11.069   4.381  0.2673 -0.0766  0.2993
  123MOL0     C16904   1.470  10.936   4.298 -1.4677  0.2313 -0.2077
  123MOL0     H16905   1.848  11.372   4.106 -0.5760 -1.0305 -0.9267
  123MOL0     H16906   2.071  11.378   3.994 -0.4240 -0.7838 -0.9532
  123MOL0     H16907   2.413  11.099   4.128 -0.9928  0.3342 -0.0677
  123MOL0     H16908   2.417  11.255   4.224  1.5752  0.7031  0.2230
  123MOL0     H16909   2.486  11.241   3.937  1.2549  1.4597  0.0886
  123MOL0     H16910   2.514  11.378   4.048  0.5948  0.5039 -3.9646
  123MOL0     H16911   2.658  11.128   4.109 -0.4577  1.2761  0.4668
  123MOL0     H16912   2.705  11.219   3.964 -0.0482 -1.7929 -0.5448
  123MOL0     H16913   2.782  11.398   4.096 -0.0724  0.2026  0.2958
  123MOL0     H16914   2.661  11.376   4.225  0.1677  1.7837 -1.1359
  123MOL0     H16915   2.894  11.179   4.204 -0.2877 -0.8265  0.7049
  123MOL0     H16916   2.759  11.181   4.308 -0.2790 -1.0558 -0.8389
  123MOL0     H16917   2.840  11.387   4.424  0.3656  3.0518 -3.6172
  123MOL0     H16918   2.980  11.272   4.393  2.9634  3.6454  1.2757
  123MOL0     H16919   2.897  11.530   4.241 -1.9872 -0.1281  2.6230
  123MOL0     H16920   3.041  11.423   4.217 -1.0115 -0.7324 -0.6617
  123MOL0     H16921   3.030  11.654   4.358 -0.9202 -0.0860  0.8365
  123MOL0     H16922   2.959  11.566   4.488 -0.6415  1.4988 -0.8612
  123MOL0     H16923   3.318  11.587   4.324 -0.5278  1.1590  1.3795
  123MOL0     H16924   3.558  11.420   4.572  3.3031  0.9071 -1.0697
  123MOL0     H16925   3.548  11.531   4.440 -1.5857  0.1629 -1.9554
  123MOL0     H16926   3.657  11.304   4.386 -0.2096 -1.7768  1.1512
  123MOL0     H16927   3.515  11.216   4.421 -0.4237 -0.8836 -0.9186
  123MOL0     H16928   3.400  11.284   4.232  0.6261 -2.3354 -0.0478
  123MOL0     H16929   3.496  11.437   4.212 -0.3707 -0.5377 -2.5171
  123MOL0     H16930   3.554  11.140   4.152 -3.6051  1.1674 -0.9465
  123MOL0     H16931   3.554  11.263   4.034 -0.9456 -2.5702  0.1390
  123MOL0     H16932   3.723  11.124   3.929 -1.5578  0.6405  2.0367
  123MOL0     H16933   3.827  10.952   3.805 -0.0271  2.7784  0.9533
  123MOL0     H16934   3.990  10.895   3.833 -0.0427 -0.1558  0.4921
  123MOL0     H16935   3.968  11.037   3.728  0.1534 -0.0131 -0.1009
  123MOL0     H16936   4.291  10.740   4.035 -0.6296  1.2358 -0.3977
  123MOL0     H16937   4.521  10.632   4.038 -0.9125  0.6876 -0.8759
  123MOL0     H16938   4.712  10.580   3.982 -0.7814  0.8130 -0.7779
  123MOL0     H16939   4.783  10.726   3.902  1.9072  0.9309 -0.7536
  123MOL0     H16940   4.989  10.689   4.048 -0.2934  0.1038  2.3158
  123MOL0     H16941   4.907  10.570   4.138 -1.3796 -0.3229 -0.4182
  123MOL0     H16942   4.938  10.528   3.839  0.3309 -0.5130 -0.1218
  123MOL0     H16943   4.943  10.396   3.965  0.4608  0.2345  0.7394
  123MOL0     H16944   5.162  10.477   4.026 -0.9161  2.0542  0.5050
  123MOL0     H16945   5.155  10.593   3.888  0.2022  0.0850  0.3679
  123MOL0     H16946   5.179  10.297   3.896  3.0993  1.4805  2.5352
  123MOL0     H16947   5.109  10.371   3.752 -0.2314 -3.6785 -0.8590
  123MOL0     H16948   5.397  10.425   3.859  1.8106  1.9371 -2.0482
  123MOL0     H16949   5.312  10.500   3.720  1.0073  1.1008  0.5108
  123MOL0     H16950   5.337  10.191   3.744 -0.9626  0.8329 -0.5210
  123MOL0     H16951   5.470  10.297   3.687  0.3410 -0.6058 -0.2057
  123MOL0     H16952   5.190  10.268   3.564 -1.4088  1.5388 -1.7347
  123MOL0     H16953   5.349  10.208   3.501  1.1517  1.0717 -0.1152
  123MOL0     H16954   4.709  11.003   4.154  1.3237 -2.8287  2.2243
  123MOL0     H16955   4.488  11.113   4.123 -0.7419  0.1684 -4.1134
  123MOL0     H16956   4.131  11.184   4.195  0.5802 -0.5653 -3.1524
  123MOL0     H16957   3.934  11.264   4.267 -0.8921 -2.1052  1.6041
  123MOL0     H16958   2.229  11.121   4.305  0.1206 -0.8885 -0.4746
  123MOL0     H16959   2.022  11.123   4.415 -0.6148  2.7111  2.3303
  123MOL0     H16960   1.659  11.331   4.498 -0.1109  1.6502  0.6285
  123MOL0     H16961   1.460  11.396   4.592  1.3001 -1.2670  1.1732
  123MOL0     H16962   1.178  11.442   4.576  0.0786 -1.6312 -2.0969
  123MOL0     H16963   1.064  11.358   4.681  0.1650  1.9975 -0.2714
  123MOL0     H16964   1.315  11.484   4.749 -1.6374  0.9598 -3.8601
  123MOL0     H16965   1.300  11.322   4.820 -1.6918 -1.3267 -1.8774
  123MOL0     H16966   1.104  11.372   4.923 -1.0257 -0.0641  0.5098
  123MOL0     H16967   1.240  11.454   4.992 -1.0743  1.3302  0.5973
  123MOL0     H16968   1.008  11.598   4.890  0.7432 -0.4193  2.0522
  123MOL0     H16969   1.140  11.646   4.791 -0.2079 -1.2248 -0.3134
  123MOL0     H16970   1.257  11.841   5.136  1.3046 -1.5912  0.0462
  123MOL0     H16971   1.263  11.036   4.449  0.9767 -1.1049  0.8827
  123MOL0     H16972   1.367  10.900   4.292 -1.3441 -0.2005  0.2579
  123MOL0     H16973   1.501  10.948   4.193 -0.7123 -1.3472 -0.1862
  123MOL0     H16974   1.551  10.870   4.329 -0.1196  1.7422 -0.3852
  124MOL0     O16975   5.230   1.846   7.163  0.2859  0.0961  0.1078
  124MOL0     C16976   5.220   1.836   7.285  0.7517  0.1567 -0.7856
  124MOL0     O16977   5.315   1.871   7.373  1.5046  0.0244 -0.5307
  124MOL0     C16978   5.390   1.984   7.354  1.1772  0.9285  1.0832
  124MOL0     C16979   5.503   1.990   7.431  0.1449  0.1319  0.4868
  124MOL0     C16980   5.601   2.083   7.413  0.3249 -0.5102  0.5672
  124MOL0     C16981   5.566   2.194   7.339  1.0004 -0.3319  0.8871
  124MOL0     O16982   5.651   2.298   7.302 -0.6208 -0.2464  0.8483
  124MOL0     C16983   5.746   2.257   7.194  1.0482  0.1565 -0.3451
  124MOL0     C16984   5.870   2.346   7.189  0.0717  0.0798 -0.3947
  124MOL0     C16985   5.942   2.342   7.325  0.7388 -0.1251 -0.3695
  124MOL0     C16986   6.081   2.406   7.326  0.3907  0.3192  0.2051
  124MOL0     C16987   6.144   2.418   7.460  0.2061  0.8026  0.3067
  124MOL0     C16988   6.302   2.446   7.451  0.7314  0.3988 -0.1185
  124MOL0     C16989   6.368   2.430   7.592 -0.3534  0.4265  0.2222
  124MOL0     C16990   6.506   2.497   7.590 -0.2374 -1.2121 -0.0988
  124MOL0     N16991   6.575   2.464   7.470 -0.3619 -0.4102  0.7129
  124MOL0     C16992   6.648   2.353   7.464 -0.2722 -0.6264 -0.1483
  124MOL0     C16993   6.721   2.357   7.342  0.1968  0.8426 -0.3363
  124MOL0     C16994   6.795   2.243   7.289 -0.0459 -0.4090  0.9541
  124MOL0     C16995   6.947   2.281   7.282  0.1107 -0.0940 -0.5624
  124MOL0     C16996   7.016   2.300   7.419 -0.3220  0.2065  0.6987
  124MOL0     C16997   7.163   2.333   7.382 -0.3907  0.2724 -0.6166
  124MOL0     O16998   7.231   2.366   7.503  0.6581  0.4695 -0.2337
  124MOL0     C16999   7.353   2.300   7.509  0.3768  1.0252 -0.4146
  124MOL0     C17000   7.402   2.276   7.637 -0.1360 -0.4473  0.5648
  124MOL0     C17001   7.533   2.228   7.660  0.1572  0.3264  0.2186
  124MOL0     C17002   7.591   2.216   7.802  0.3481  0.0018  0.0920
  124MOL0     C17003   7.615   2.193   7.549  0.0728  0.7536  0.1632
  124MOL0     C17004   7.738   2.122   7.556  0.3099 -0.1552  0.7151
  124MOL0     O17005   7.841   2.196   7.609 -0.0163  0.3399  0.1028
  124MOL0     C17006   7.971   2.162   7.581  0.0523 -0.2638  0.6363
  124MOL0     C17007   8.075   2.182   7.678  0.6003  0.0442 -0.2600
  124MOL0     C17008   8.213   2.149   7.657  0.8486  0.7951 -0.2624
  124MOL0     C17009   8.262   2.092   7.540  0.7155  0.7751  0.4371
  124MOL0     O17010   8.401   2.064   7.537  0.4331  0.4600  0.2159
  124MOL0     C17011   8.472   2.034   7.415  0.4742 -0.0425 -0.3095
  124MOL0     C17012   8.506   2.167   7.343  0.7630  0.3981 -0.2375
  124MOL0     C17013   8.576   2.274   7.429 -0.2020  0.3308 -0.3914
  124MOL0     C17014   8.708   2.230   7.484  0.5199  0.1864  0.4122
  124MOL0     C17015   8.716   2.264   7.633  0.3005 -0.2870  0.2736
  124MOL0     C17016   8.863   2.264   7.684  0.1454 -0.2719  1.0061
  124MOL0     C17017   8.855   2.265   7.840 -0.2209 -0.8528 -0.6203
  124MOL0     C17018   9.001   2.226   7.883  0.5429  0.1166  1.0926
  124MOL0    Cl17019   8.999   2.223   8.064 -0.1874  0.5088  0.2778
  124MOL0     C17020   8.158   2.065   7.446 -0.3976  0.0262 -0.0881
  124MOL0     C17021   8.025   2.112   7.460 -0.0189 -0.2569  0.1435
  124MOL0     O17022   7.744   2.006   7.507 -0.2600  0.7489 -0.1159
  124MOL0     C17023   7.563   2.209   7.423 -0.7634 -1.0205  0.3787
  124MOL0     C17024   7.442   2.273   7.398  0.1515 -0.3103 -0.3375
  124MOL0     N17025   6.694   2.475   7.282  0.1265  0.4099  1.0313
  124MOL0     N17026   6.612   2.542   7.365  0.8341 -0.0109  0.0853
  124MOL0     C17027   5.442   2.203   7.267  0.5811  0.3330 -0.4844
  124MOL0     C17028   5.354   2.087   7.272  0.5239 -0.3208 -0.7612
  124MOL0     C17029   5.095   1.779   7.343  0.1251 -0.2196  0.4868
  124MOL0     C17030   5.101   1.723   7.474  0.3300  0.2767  0.9704
  124MOL0     C17031   4.998   1.647   7.523 -0.4181 -0.3962 -0.3743
  124MOL0     C17032   4.878   1.635   7.453  0.3059 -0.3086 -0.2936
  124MOL0     O17033   4.766   1.561   7.485  0.1552  0.3638  0.1218
  124MOL0     C17034   4.740   1.510   7.618  0.3063 -0.5696 -1.2004
  124MOL0     C17035   4.818   1.382   7.657  0.4308 -0.2879  0.2490
  124MOL0     C17036   4.754   1.255   7.597  0.5772 -0.2131  0.0256
  124MOL0     C17037   4.855   1.140   7.576  0.1818  0.7224 -0.6863
  124MOL0     C17038   4.928   1.157   7.454  0.4568  0.2290  0.4540
  124MOL0     C17039   4.977   1.166   7.350 -0.5415  0.6456 -0.1598
  124MOL0     C17040   4.871   1.702   7.330  0.3762  0.2463  0.3945
  124MOL0     C17041   4.973   1.763   7.269 -0.7161  0.4389 -0.0991
  124MOL0     C17042   4.953   1.819   7.127  1.8144  0.1807 -0.1220
  124MOL0     H17043   5.537   1.906   7.490  1.7132 -0.3347 -0.9747
  124MOL0     H17044   5.697   2.052   7.454 -1.3527 -1.6667  4.0795
  124MOL0     H17045   5.693   2.263   7.099 -1.2182 -1.1097  0.7661
  124MOL0     H17046   5.765   2.150   7.199  0.8553  0.1909  1.6997
  124MOL0     H17047   5.945   2.317   7.115 -1.0520 -1.8734 -0.8266
  124MOL0     H17048   5.843   2.450   7.168  0.0707  0.0652 -0.4658
  124MOL0     H17049   5.885   2.381   7.409  0.6453 -1.0826  0.0287
  124MOL0     H17050   5.951   2.235   7.345 -3.5404 -0.8395 -1.2888
  124MOL0     H17051   6.153   2.349   7.268  2.6144 -0.0053  3.0708
  124MOL0     H17052   6.080   2.504   7.278  2.6272  0.5687  0.5740
  124MOL0     H17053   6.134   2.333   7.528  0.5036  0.9542  0.5431
  124MOL0     H17054   6.096   2.504   7.509  3.0030  1.5251  2.0063
  124MOL0     H17055   6.343   2.379   7.375 -1.5425  1.0501 -2.0545
  124MOL0     H17056   6.321   2.545   7.409 -0.6414  0.3001 -1.0602
  124MOL0     H17057   6.370   2.323   7.614 -0.0806  0.2021 -0.8421
  124MOL0     H17058   6.306   2.472   7.672 -0.9717 -0.8879  0.4487
  124MOL0     H17059   6.497   2.606   7.593 -2.8396 -1.3791  1.5317
  124MOL0     H17060   6.560   2.476   7.683  0.2606 -0.6896 -0.2635
  124MOL0     H17061   6.644   2.264   7.527 -0.8267 -1.8477 -1.8234
  124MOL0     H17062   6.757   2.218   7.190 -0.8105 -1.0885  1.4058
  124MOL0     H17063   6.764   2.157   7.349 -2.7909 -1.8768 -2.2848
  124MOL0     H17064   6.997   2.194   7.238  1.3505  0.9362 -1.2297
  124MOL0     H17065   6.971   2.361   7.212 -1.0147  1.4073  0.6932
  124MOL0     H17066   6.962   2.380   7.471  0.8851  2.3206 -1.1001
  124MOL0     H17067   7.022   2.209   7.479  2.3564 -2.5488 -3.1856
  124MOL0     H17068   7.201   2.245   7.328 -1.5092 -1.2294  0.9501
  124MOL0     H17069   7.179   2.426   7.327  0.6374  0.1816 -0.4993
  124MOL0     H17070   7.336   2.321   7.710  0.0806  1.1745 -0.1991
  124MOL0     H17071   7.675   2.286   7.794  2.5335 -2.6519 -2.3065
  124MOL0     H17072   7.634   2.116   7.816  0.4935 -0.0191 -0.4862
  124MOL0     H17073   7.508   2.242   7.868  0.3769  1.4584 -0.4214
  124MOL0     H17074   8.034   2.229   7.767  0.9832 -0.0626 -0.0266
  124MOL0     H17075   8.285   2.170   7.735  0.3962 -0.0430  0.4046
  124MOL0     H17076   8.562   1.977   7.442  1.2513  1.0241 -0.6050
  124MOL0     H17077   8.411   1.965   7.356  0.1777  2.5910 -3.3586
  124MOL0     H17078   8.561   2.134   7.254  0.7261  0.3241 -0.2321
  124MOL0     H17079   8.410   2.206   7.308  1.1373  1.4713 -0.1036
  124MOL0     H17080   8.502   2.310   7.501  0.5122  2.1783 -0.5498
  124MOL0     H17081   8.593   2.365   7.371  3.7165 -1.1158 -1.8171
  124MOL0     H17082   8.787   2.290   7.437 -0.6858  2.2257  0.8750
  124MOL0     H17083   8.723   2.124   7.465 -3.8833 -0.2010 -2.2272
  124MOL0     H17084   8.680   2.365   7.654 -0.3970 -1.1584  3.9235
  124MOL0     H17085   8.661   2.185   7.685 -0.5708  0.8145  1.0765
  124MOL0     H17086   8.909   2.358   7.655  0.8986 -1.0736 -0.5106
  124MOL0     H17087   8.928   2.186   7.643 -1.0711  0.5298 -2.8788
  124MOL0     H17088   8.781   2.196   7.880 -0.0534 -0.0675  1.1344
  124MOL0     H17089   8.839   2.366   7.881 -0.7486  0.0932 -2.9889
  124MOL0     H17090   9.071   2.302   7.847  0.8941 -1.6045 -2.2552
  124MOL0     H17091   9.026   2.126   7.845 -0.1405  0.5658 -0.6529
  124MOL0     H17092   8.183   2.010   7.356  1.0642  1.0615 -0.3534
  124MOL0     H17093   7.951   2.103   7.381 -1.6769  3.2054  1.0714
  124MOL0     H17094   7.633   2.173   7.349 -0.6881  0.2620 -0.1967
  124MOL0     H17095   7.420   2.307   7.297  0.2176  1.9333  0.3512
  124MOL0     H17096   5.422   2.289   7.203 -2.8655 -0.9604 -1.3646
  124MOL0     H17097   5.263   2.078   7.215 -1.5649 -1.7127  2.4698
  124MOL0     H17098   5.193   1.742   7.529 -0.6292  3.8287  1.5721
  124MOL0     H17099   5.021   1.597   7.616  0.7520 -1.1872 -1.0589
  124MOL0     H17100   4.770   1.591   7.685  0.5950 -0.7429 -1.1187
  124MOL0     H17101   4.631   1.503   7.626  0.4438 -2.3488 -0.3147
  124MOL0     H17102   4.836   1.371   7.764  2.0769  0.3297  0.0682
  124MOL0     H17103   4.920   1.384   7.618  0.3798 -2.3774 -0.1463
  124MOL0     H17104   4.676   1.221   7.665 -0.4721  0.0762 -1.0001
  124MOL0     H17105   4.703   1.266   7.501  0.6765  2.9479  0.2233
  124MOL0     H17106   4.801   1.045   7.569  0.2428  0.5609  0.7808
  124MOL0     H17107   4.927   1.129   7.657 -1.2551 -0.4841  0.4917
  124MOL0     H17108   5.025   1.161   7.254 -0.4910 -0.5800 -0.0895
  124MOL0     H17109   4.782   1.690   7.267  1.7568 -0.3169 -1.5478
  124MOL0     H17110   4.853   1.791   7.092  1.9342 -0.0579 -0.2725
  124MOL0     H17111   4.966   1.927   7.138 -0.8991  0.3661  2.7620
  124MOL0     H17112   5.026   1.776   7.059  1.4459 -0.3506 -0.1907
  125MOL0     O17113   4.954   5.669   0.337 -0.2995 -0.0409  0.3116
  125MOL0     C17114   4.983   5.631   0.221 -0.1442  0.3084  0.0518
  125MOL0     O17115   5.106   5.576   0.180 -0.3067 -0.0800 -0.2279
  125MOL0     C17116   5.212   5.554   0.272 -0.2609 -0.3289 -0.4440
  125MOL0     C17117   5.301   5.649   0.318 -0.2953 -0.0532  0.0854
  125MOL0     C17118   5.420   5.609   0.394 -0.1975 -0.1862  0.1367
  125MOL0     C17119   5.431   5.481   0.437 -0.3923  0.4633 -0.7396
  125MOL0     O17120   5.531   5.446   0.526  0.9782 -0.2045 -1.0408
  125MOL0     C17121   5.525   5.534   0.644 -0.5655 -0.7550  1.1578
  125MOL0     C17122   5.566   5.461   0.769  0.3050 -0.2191  0.0080
  125MOL0     C17123   5.718   5.414   0.774  0.7780 -0.0658 -0.0210
  125MOL0     C17124   5.819   5.516   0.791  0.2383 -0.8917 -0.2816
  125MOL0     C17125   5.952   5.475   0.738 -0.5959 -0.3214  0.4001
  125MOL0     C17126   6.024   5.379   0.834  0.0236  0.8214  0.4546
  125MOL0     C17127   6.163   5.339   0.771  0.3908  0.6527 -0.2187
  125MOL0     C17128   6.247   5.236   0.848 -1.1842  0.3666 -0.2215
  125MOL0     N17129   6.385   5.215   0.787  0.0510 -0.0446 -0.1210
  125MOL0     C17130   6.395   5.130   0.687 -0.7830  0.6794  0.4592
  125MOL0     C17131   6.517   5.159   0.634 -0.2320  0.3479 -0.8643
  125MOL0     C17132   6.575   5.090   0.516 -0.5166 -0.0744  0.3001
  125MOL0     C17133   6.576   5.181   0.397  0.2784  0.0460  0.4554
  125MOL0     C17134   6.429   5.236   0.360 -0.5013  0.0408  0.7673
  125MOL0     C17135   6.370   5.361   0.432  0.0388  0.2162  0.4846
  125MOL0     O17136   6.227   5.378   0.421  0.3439  0.5394 -0.1966
  125MOL0     C17137   6.170   5.493   0.450 -0.0620 -0.8329  0.3743
  125MOL0     C17138   6.043   5.504   0.396  0.5434 -0.1330 -0.1007
  125MOL0     C17139   5.962   5.618   0.418 -0.6217  0.7630 -0.4440
  125MOL0     C17140   5.817   5.609   0.388  0.3916  0.1851  0.6362
  125MOL0     C17141   6.022   5.734   0.478 -0.5060  0.1705 -0.8780
  125MOL0     C17142   5.947   5.862   0.503  0.2516  0.3711  0.1794
  125MOL0     O17143   5.809   5.867   0.511 -0.0728 -0.4531 -0.0132
  125MOL0     C17144   5.752   5.993   0.521  1.0247  0.3092  0.2355
  125MOL0     C17145   5.647   6.014   0.615  0.0613 -0.4680  0.1538
  125MOL0     C17146   5.579   6.140   0.601  0.1256  0.0382 -0.1375
  125MOL0     C17147   5.602   6.235   0.501 -0.1515  0.0890  0.1925
  125MOL0     O17148   5.520   6.347   0.509 -0.6942 -0.1197  0.4501
  125MOL0     C17149   5.454   6.403   0.389 -1.5458 -0.1123  0.2079
  125MOL0     C17150   5.310   6.357   0.380  0.1178  0.3460 -0.1511
  125MOL0     C17151   5.229   6.394   0.511 -0.1863 -0.0998  0.5560
  125MOL0     C17152   5.186   6.541   0.511  0.6993 -1.1904  0.0581
  125MOL0     C17153   5.024   6.568   0.506 -0.3495 -0.1792 -0.3554
  125MOL0     C17154   4.998   6.718   0.521 -0.2788 -0.6712 -0.5398
  125MOL0     C17155   4.859   6.764   0.488  0.0288  0.5908 -0.0341
  125MOL0     C17156   4.839   6.903   0.558 -0.3343  0.2074  0.1390
  125MOL0    Cl17157   4.798   6.884   0.735 -0.3976 -0.2663 -0.4194
  125MOL0     C17158   5.695   6.208   0.410 -0.3495 -0.2190 -0.1475
  125MOL0     C17159   5.779   6.088   0.419  1.0624  0.1182 -0.1471
  125MOL0     O17160   6.019   5.954   0.524  0.2123  0.2113 -0.3085
  125MOL0     C17161   6.156   5.729   0.517 -1.4591  0.5935 -0.1295
  125MOL0     C17162   6.231   5.609   0.506  0.0152  0.4673  0.3237
  125MOL0     N17163   6.583   5.247   0.724  0.5821 -0.3457 -0.0714
  125MOL0     N17164   6.494   5.282   0.820  0.1547 -0.2850  0.8683
  125MOL0     C17165   5.338   5.381   0.394  0.8265  0.2595 -0.1522
  125MOL0     C17166   5.232   5.421   0.305  0.1214 -0.1001  0.5683
  125MOL0     C17167   4.877   5.635   0.119 -0.7430  0.8371  0.9906
  125MOL0     C17168   4.867   5.522   0.029 -0.2649 -0.0096  0.5195
  125MOL0     C17169   4.768   5.511  -0.070 -0.3676 -0.7404  0.3832
  125MOL0     C17170   4.666   5.611  -0.075 -0.0650  0.5362 -0.9506
  125MOL0     O17171   4.557   5.591  -0.166  0.5406  0.7361  0.5910
  125MOL0     C17172   4.471   5.714  -0.174 -0.1815 -0.2663  0.1662
  125MOL0     C17173   4.352   5.689  -0.271 -0.2016  0.1205  0.8753
  125MOL0     C17174   4.268   5.574  -0.223 -0.4530 -0.6651  0.5625
  125MOL0     C17175   4.132   5.566  -0.301 -0.2289  0.7818  0.4640
  125MOL0     C17176   4.082   5.700  -0.342  0.4668 -0.1315 -0.3444
  125MOL0     C17177   4.038   5.804  -0.386 -0.1461 -0.8990  0.1784
  125MOL0     C17178   4.674   5.721   0.016 -0.2294  0.5032 -0.2575
  125MOL0     C17179   4.773   5.732   0.111 -0.5681  0.9038 -0.7018
  125MOL0     C17180   4.763   5.850   0.202  0.4821 -0.0702 -0.0761
  125MOL0     H17181   5.297   5.757   0.305  0.7741  0.4045  2.8640
  125MOL0     H17182   5.499   5.680   0.416 -0.2683 -0.0092 -0.1725
  125MOL0     H17183   5.426   5.579   0.658 -0.2217 -0.3012  2.2290
  125MOL0     H17184   5.587   5.622   0.628 -0.8959 -0.8565 -1.1037
  125MOL0     H17185   5.543   5.525   0.854  0.7862  0.7732 -0.5929
  125MOL0     H17186   5.511   5.366   0.767  1.9741 -1.2243 -1.2829
  125MOL0     H17187   5.729   5.347   0.859 -0.5365 -0.0057  0.2115
  125MOL0     H17188   5.731   5.361   0.679 -2.5323  0.1023 -0.6743
  125MOL0     H17189   5.802   5.605   0.730  0.8596 -0.8447 -0.4002
  125MOL0     H17190   5.825   5.543   0.897  1.6806 -1.2095 -0.2540
  125MOL0     H17191   5.998   5.574   0.733 -1.3070 -0.0288 -2.9559
  125MOL0     H17192   5.943   5.423   0.642  1.7386  1.6322 -1.0049
  125MOL0     H17193   6.044   5.435   0.926  1.6695  1.1851 -0.0885
  125MOL0     H17194   5.971   5.287   0.858  1.0839  0.5248  1.7660
  125MOL0     H17195   6.220   5.429   0.747 -1.4785  1.3229 -2.5584
  125MOL0     H17196   6.136   5.293   0.676 -1.8416 -0.7354  0.9926
  125MOL0     H17197   6.257   5.268   0.952  3.2964 -3.0484  0.6406
  125MOL0     H17198   6.197   5.139   0.853  1.6200 -1.1998 -0.6443
  125MOL0     H17199   6.314   5.062   0.662 -2.2573  2.5630 -0.0526
  125MOL0     H17200   6.510   5.005   0.490 -0.4505  0.1786 -0.7318
  125MOL0     H17201   6.673   5.051   0.543  0.0818  1.9244  1.2035
  125MOL0     H17202   6.639   5.269   0.416  1.0118 -0.6742  1.4155
  125MOL0     H17203   6.611   5.121   0.313 -1.0423 -0.8904  0.5364
  125MOL0     H17204   6.434   5.259   0.253  2.0753 -1.1266  0.5438
  125MOL0     H17205   6.353   5.158   0.368 -1.1395  0.6778  0.9769
  125MOL0     H17206   6.401   5.359   0.537  1.6572  1.8837  0.0886
  125MOL0     H17207   6.418   5.447   0.384 -1.5824  0.6066 -0.5172
  125MOL0     H17208   6.015   5.407   0.358  0.7113 -0.5668  0.8478
  125MOL0     H17209   5.803   5.542   0.303 -2.6196 -3.1256  3.4107
  125MOL0     H17210   5.777   5.706   0.358  0.7036  0.1048 -0.0514
  125MOL0     H17211   5.759   5.585   0.478 -2.3308  3.3735 -0.0502
  125MOL0     H17212   5.627   5.956   0.705 -0.9216  2.5706  2.0753
  125MOL0     H17213   5.506   6.145   0.682  1.0356 -0.8139  0.7731
  125MOL0     H17214   5.446   6.508   0.420 -1.7673 -0.7359  2.3588
  125MOL0     H17215   5.510   6.391   0.296  1.5955  3.3859  1.4118
  125MOL0     H17216   5.253   6.395   0.294  2.6480  1.4225 -1.4734
  125MOL0     H17217   5.318   6.248   0.374 -1.0939  0.1450  1.2993
  125MOL0     H17218   5.294   6.372   0.597  2.2023 -0.5121 -1.2573
  125MOL0     H17219   5.144   6.327   0.526  1.1083 -1.4842  2.2134
  125MOL0     H17220   5.228   6.598   0.428 -2.8486  1.1414 -0.3675
  125MOL0     H17221   5.225   6.587   0.602 -1.1577 -0.0335  0.3166
  125MOL0     H17222   4.985   6.539   0.409  0.9163 -1.6966 -0.4600
  125MOL0     H17223   4.979   6.513   0.589 -4.8289  1.7084 -1.2843
  125MOL0     H17224   5.075   6.780   0.473  0.7679 -1.0400  0.6059
  125MOL0     H17225   5.018   6.723   0.629  0.5960 -1.4994 -0.6414
  125MOL0     H17226   4.799   6.691   0.543 -0.9211  1.2290 -0.1853
  125MOL0     H17227   4.836   6.767   0.381 -0.1896  0.1629 -0.0016
  125MOL0     H17228   4.756   6.960   0.515 -2.0949 -1.0274  1.7110
  125MOL0     H17229   4.930   6.964   0.564 -1.8051  2.6227 -0.6777
  125MOL0     H17230   5.707   6.274   0.324  2.6901  1.6896  1.5637
  125MOL0     H17231   5.858   6.070   0.348  1.5445  1.5658 -0.0181
  125MOL0     H17232   6.199   5.812   0.571 -0.1979  0.4464 -0.8455
  125MOL0     H17233   6.333   5.608   0.541 -0.5743  0.8968  2.1731
  125MOL0     H17234   5.355   5.277   0.420  0.9487  0.1846 -0.5251
  125MOL0     H17235   5.172   5.341   0.261 -1.7576  1.2405  0.5532
  125MOL0     H17236   4.943   5.446   0.020  1.7772  1.6871  2.3659
  125MOL0     H17237   4.756   5.430  -0.140  2.3450  1.7823 -3.3309
  125MOL0     H17238   4.439   5.743  -0.073  1.8089 -1.0305  1.0709
  125MOL0     H17239   4.528   5.801  -0.208 -2.1905  1.5382  1.1884
  125MOL0     H17240   4.385   5.661  -0.371 -0.9813 -0.4594  0.7731
  125MOL0     H17241   4.298   5.784  -0.277  0.8464  0.7475  1.1837
  125MOL0     H17242   4.329   5.483  -0.231  1.5522  0.5658  1.2431
  125MOL0     H17243   4.240   5.588  -0.118 -4.3766 -0.3359 -0.3896
  125MOL0     H17244   4.062   5.511  -0.238 -1.2216  0.8462 -0.5507
  125MOL0     H17245   4.139   5.513  -0.396 -1.3760  0.6679  0.4245
  125MOL0     H17246   3.990   5.886  -0.434  0.4297 -0.5130  0.2497
  125MOL0     H17247   4.594   5.794   0.026 -1.1579 -0.5497  0.1916
  125MOL0     H17248   4.719   5.931   0.143 -0.0052 -0.1528  0.1739
  125MOL0     H17249   4.712   5.822   0.294  0.3011 -1.2410 -0.5130
  125MOL0     H17250   4.857   5.884   0.244  1.1338 -0.3870 -1.2188
  126MOL0     O17251   2.918   6.386   5.346  0.3624 -0.0301 -0.2636
  126MOL0     C17252   2.873   6.390   5.233 -0.2954 -0.1694 -0.2683
  126MOL0     O17253   2.875   6.496   5.152 -0.9910  0.0814  0.8293
  126MOL0     C17254   2.980   6.583   5.147  0.0508  0.2236  0.2014
  126MOL0     C17255   3.063   6.629   5.250 -0.2597 -1.1801 -0.2502
  126MOL0     C17256   3.165   6.726   5.221  0.6033  0.0799  0.4132
  126MOL0     C17257   3.181   6.782   5.091  0.5730  1.0157  0.2611
  126MOL0     O17258   3.279   6.872   5.051  0.1363  0.1659  0.2632
  126MOL0     C17259   3.393   6.893   5.133 -0.2163  0.2259  0.2885
  126MOL0     C17260   3.492   6.974   5.064  0.2256  0.2877 -0.0099
  126MOL0     C17261   3.624   6.974   5.140 -0.0344  0.4596 -0.1577
  126MOL0     C17262   3.739   7.042   5.069 -0.2443  0.3444 -0.3904
  126MOL0     C17263   3.875   7.027   5.146  0.5497 -0.0214 -0.2366
  126MOL0     C17264   3.941   6.887   5.135  0.1795  0.2664  0.1001
  126MOL0     C17265   4.055   6.848   5.214  0.6812  1.0649  0.8093
  126MOL0     C17266   4.179   6.936   5.201 -0.1667  0.0768  0.5435
  126MOL0     N17267   4.155   7.068   5.270  0.2407 -0.4994  0.9423
  126MOL0     C17268   4.201   7.194   5.240 -0.2720 -0.5917  0.1006
  126MOL0     C17269   4.168   7.278   5.341  0.1522  0.2650  0.5147
  126MOL0     C17270   4.177   7.426   5.361  0.2303 -0.3077 -0.2495
  126MOL0     C17271   4.072   7.489   5.276  0.0749  0.0716  0.6568
  126MOL0     C17272   4.055   7.636   5.329  0.1886 -0.4873  0.9370
  126MOL0     C17273   4.173   7.723   5.297  0.8508 -0.2132  0.1692
  126MOL0     O17274   4.130   7.861   5.285  0.5226 -0.8034  0.0819
  126MOL0     C17275   4.161   7.942   5.390  0.3847 -0.4873 -0.1639
  126MOL0     C17276   4.170   7.901   5.526 -0.4090  0.8132  0.0423
  126MOL0     C17277   4.185   7.992   5.630 -0.5741  0.2944  1.2038
  126MOL0     C17278   4.216   7.935   5.765  0.2914  0.6882 -0.0697
  126MOL0     C17279   4.190   8.129   5.598  0.4606 -0.6620 -0.1437
  126MOL0     C17280   4.202   8.240   5.704 -0.1421  0.2301 -0.1793
  126MOL0     O17281   4.219   8.364   5.651  0.2398 -0.0762  0.3901
  126MOL0     C17282   4.195   8.464   5.739  0.1554 -0.2582  0.3089
  126MOL0     C17283   4.301   8.498   5.829  0.4446 -0.4683 -0.4393
  126MOL0     C17284   4.281   8.590   5.931  0.0646 -0.4368 -1.1003
  126MOL0     C17285   4.155   8.650   5.939  0.2510  0.3071 -0.2883
  126MOL0     O17286   4.149   8.717   6.055  0.5233  0.5423  0.4196
  126MOL0     C17287   4.057   8.824   6.054 -0.4433  0.2403 -0.1761
  126MOL0     C17288   4.094   8.934   6.151 -0.0620 -0.1187 -0.2329
  126MOL0     C17289   3.998   9.054   6.119  0.0175 -0.3197  0.2854
  126MOL0     C17290   4.034   9.184   6.198 -0.5150 -0.2224 -0.1640
  126MOL0     C17291   3.935   9.301   6.170  0.0162 -0.1738  0.3705
  126MOL0     C17292   3.806   9.287   6.245 -0.2379 -0.1986  0.1701
  126MOL0     C17293   3.720   9.412   6.234  0.9201 -0.4249 -0.2298
  126MOL0     C17294   3.592   9.395   6.317 -0.2361  0.4323  0.5875
  126MOL0    Cl17295   3.466   9.514   6.261 -0.4953  0.3340  0.3447
  126MOL0     C17296   4.052   8.621   5.852 -0.1039  0.1900  0.1619
  126MOL0     C17297   4.069   8.529   5.751  0.1133  0.3186  0.2698
  126MOL0     O17298   4.192   8.222   5.830 -0.6967 -0.0356  0.2466
  126MOL0     C17299   4.189   8.169   5.460 -0.1781 -0.3705 -0.0394
  126MOL0     C17300   4.163   8.080   5.357  0.6405  0.8927  0.2773
  126MOL0     N17301   4.104   7.194   5.431  0.0186 -0.8477 -0.2323
  126MOL0     N17302   4.093   7.079   5.388 -0.4249  0.2697  0.2993
  126MOL0     C17303   3.096   6.733   4.994  0.2469 -0.2931 -0.5626
  126MOL0     C17304   2.997   6.640   5.022 -0.1248 -0.3327 -0.1696
  126MOL0     C17305   2.800   6.272   5.188  0.1527  0.3203  0.3157
  126MOL0     C17306   2.673   6.293   5.137  0.2471  0.9410 -0.1568
  126MOL0     C17307   2.591   6.180   5.104 -0.9158  0.3172  0.7935
  126MOL0     C17308   2.639   6.050   5.124  0.3634  0.0052  0.0455
  126MOL0     O17309   2.566   5.935   5.102  0.2476  0.6821 -0.9865
  126MOL0     C17310   2.425   5.932   5.058  0.0941 -0.3484 -0.3313
  126MOL0     C17311   2.362   5.795   5.039 -0.0862  0.0896  0.4067
  126MOL0     C17312   2.448   5.728   4.929  0.0995  0.8918 -0.2614
  126MOL0     C17313   2.379   5.599   4.875  0.0106  0.0038 -0.4518
  126MOL0     C17314   2.359   5.496   4.979  0.6790 -0.5891 -0.1651
  126MOL0     C17315   2.361   5.406   5.055 -0.8147  0.2389 -0.5938
  126MOL0     C17316   2.771   6.031   5.185  0.2157 -0.0339 -0.3207
  126MOL0     C17317   2.850   6.141   5.215 -0.5039  0.7994  0.4438
  126MOL0     C17318   2.981   6.108   5.283  0.0891  0.6685  0.1404
  126MOL0     H17319   3.051   6.587   5.350  0.9435 -1.1707 -0.0849
  126MOL0     H17320   3.231   6.750   5.304  1.3176 -1.7065  0.3939
  126MOL0     H17321   3.447   6.801   5.156  1.4891  0.4902 -2.2719
  126MOL0     H17322   3.352   6.945   5.220 -1.4372  0.0981 -0.1831
  126MOL0     H17323   3.506   6.925   4.967 -1.2105  0.1753 -0.1847
  126MOL0     H17324   3.454   7.076   5.055  0.3582  0.6323  2.6275
  126MOL0     H17325   3.608   7.029   5.233 -1.4887 -0.9995  0.5026
  126MOL0     H17326   3.651   6.869   5.151 -0.0634  0.2818 -1.5626
  126MOL0     H17327   3.746   6.995   4.970  1.0921  1.6902 -0.9675
  126MOL0     H17328   3.711   7.145   5.044 -3.2211  0.5169  2.8723
  126MOL0     H17329   3.853   7.059   5.248 -0.6467  1.1024 -0.8170
  126MOL0     H17330   3.952   7.094   5.106  0.3380 -0.3248 -1.1800
  126MOL0     H17331   3.867   6.807   5.144  2.5690 -2.3259 -1.6225
  126MOL0     H17332   3.969   6.876   5.030  0.0314 -2.1586  0.2639
  126MOL0     H17333   4.086   6.747   5.186 -0.9426  0.2872  1.6518
  126MOL0     H17334   4.027   6.831   5.319 -0.3849  0.8672  0.5118
  126MOL0     H17335   4.255   6.880   5.256 -1.2762 -2.1114 -0.0470
  126MOL0     H17336   4.219   6.931   5.099 -1.0529 -4.3940  0.2273
  126MOL0     H17337   4.249   7.218   5.146  1.6358 -1.0521  0.9064
  126MOL0     H17338   4.271   7.478   5.337  0.3775  0.1330  1.1971
  126MOL0     H17339   4.154   7.438   5.467 -1.2130  2.4609 -0.7905
  126MOL0     H17340   4.110   7.489   5.173  0.1038 -0.1766  0.6675
  126MOL0     H17341   3.975   7.439   5.280  0.5938 -1.3653 -2.1852
  126MOL0     H17342   3.976   7.686   5.272  1.0919  0.7548  0.7549
  126MOL0     H17343   4.038   7.646   5.437 -0.1012 -2.0907  1.0806
  126MOL0     H17344   4.268   7.714   5.350  0.7237  0.7449  0.5854
  126MOL0     H17345   4.197   7.690   5.195  1.9189 -1.0265  0.6749
  126MOL0     H17346   4.164   7.797   5.557  0.7652  1.0140  1.0345
  126MOL0     H17347   4.135   7.930   5.838  1.3831 -3.6416  1.1238
  126MOL0     H17348   4.301   7.991   5.805  1.5916 -1.0486 -0.2814
  126MOL0     H17349   4.268   7.839   5.764 -1.2221 -0.3121  3.4709
  126MOL0     H17350   4.398   8.452   5.811  0.6756  0.3065 -1.2193
  126MOL0     H17351   4.365   8.600   5.999 -0.9926  1.6989 -0.0207
  126MOL0     H17352   4.044   8.865   5.954  2.8391 -0.3237 -0.9347
  126MOL0     H17353   3.966   8.784   6.100  0.3859 -2.1283 -0.4431
  126MOL0     H17354   4.071   8.913   6.256 -0.3159  2.3254  0.2595
  126MOL0     H17355   4.197   8.972   6.154  0.6722 -1.9881  0.3017
  126MOL0     H17356   3.896   9.027   6.147  0.6908 -0.7739  2.5182
  126MOL0     H17357   4.010   9.080   6.014  0.2364 -1.7423 -0.0715
  126MOL0     H17358   4.137   9.215   6.179 -0.3805 -0.6337 -0.1221
  126MOL0     H17359   4.019   9.162   6.304 -0.1918 -2.2355 -0.4995
  126MOL0     H17360   3.990   9.387   6.210  1.8152 -1.1170  0.0566
  126MOL0     H17361   3.923   9.330   6.066 -1.8954  1.3805  0.9658
  126MOL0     H17362   3.821   9.275   6.353  0.3902  1.8268  0.3398
  126MOL0     H17363   3.745   9.211   6.196 -0.5509  0.0211  0.2214
  126MOL0     H17364   3.673   9.416   6.136 -3.2487  0.6429  1.5851
  126MOL0     H17365   3.758   9.509   6.268  2.2712 -1.4433  1.3796
  126MOL0     H17366   3.620   9.396   6.423  0.0889 -1.6026  0.5507
  126MOL0     H17367   3.551   9.295   6.306  1.6239 -0.2171 -0.9104
  126MOL0     H17368   3.957   8.669   5.871 -0.7478 -0.4489 -1.2738
  126MOL0     H17369   3.986   8.503   5.687 -0.6129 -2.1224  2.0592
  126MOL0     H17370   4.204   8.274   5.438 -2.4473  0.7911  3.2406
  126MOL0     H17371   4.148   8.104   5.252 -1.8131 -2.4882 -0.3206
  126MOL0     H17372   3.096   6.771   4.892  1.6428 -0.6560 -0.7303
  126MOL0     H17373   2.942   6.600   4.938 -0.5176 -1.4686  0.6160
  126MOL0     H17374   2.632   6.392   5.120  0.6136  0.5939 -3.9036
  126MOL0     H17375   2.485   6.197   5.087 -0.9625  0.8860  1.6031
  126MOL0     H17376   2.361   5.990   5.126 -0.4516  1.7637 -2.5022
  126MOL0     H17377   2.434   5.988   4.964 -1.8439 -0.5872 -0.7054
  126MOL0     H17378   2.257   5.808   5.011  0.2465  1.3202 -0.3437
  126MOL0     H17379   2.361   5.737   5.132  0.4341 -2.0129 -0.8423
  126MOL0     H17380   2.469   5.801   4.850 -1.7631  1.6435 -0.1004
  126MOL0     H17381   2.542   5.701   4.978 -0.3743  0.4127  0.4083
  126MOL0     H17382   2.447   5.566   4.797  0.9041 -0.0640  0.3405
  126MOL0     H17383   2.283   5.623   4.828 -0.0880 -0.7904 -0.6618
  126MOL0     H17384   2.363   5.323   5.123 -0.1403  1.1342  0.5051
  126MOL0     H17385   2.802   5.933   5.220  1.5930  0.4858 -0.0279
  126MOL0     H17386   3.051   6.188   5.256 -0.8587  1.1652 -0.9390
  126MOL0     H17387   2.964   6.117   5.390 -1.9130  0.6632 -0.1396
  126MOL0     H17388   3.016   6.009   5.251 -3.6296 -0.0779 -2.1866
  127MOL0     O17389  11.152   6.259   1.908 -0.1974 -0.3638  0.1369
  127MOL0     C17390  11.133   6.309   1.799 -0.4903 -0.7529 -0.4707
  127MOL0     O17391  11.227   6.333   1.705  0.0283  0.3293 -0.0221
  127MOL0     C17392  11.353   6.284   1.727 -1.3160 -0.1108 -0.6072
  127MOL0     C17393  11.435   6.339   1.825 -0.3045  0.8500  0.3709
  127MOL0     C17394  11.565   6.294   1.830 -0.2796  0.2262 -0.6862
  127MOL0     C17395  11.619   6.224   1.722  0.3401 -0.4371 -0.3853
  127MOL0     O17396  11.746   6.185   1.734  0.2411  0.1241  0.0084
  127MOL0     C17397  11.817   6.162   1.613  0.6439  0.3947  0.3181
  127MOL0     C17398  11.963   6.127   1.645 -0.1110  0.1053 -0.2933
  127MOL0     C17399  12.021   6.227   1.742 -0.3988 -0.0071  0.2407
  127MOL0     C17400  12.173   6.223   1.749 -0.2761  0.8786 -0.0311
  127MOL0     C17401  12.220   6.296   1.876  0.3417  0.1575 -0.0504
  127MOL0     C17402  12.375   6.315   1.860 -0.6823  0.3040  0.4225
  127MOL0     C17403  12.432   6.371   1.996  0.6770 -1.3582 -0.2541
  127MOL0     C17404  12.588   6.391   1.997 -0.6669  0.0316 -0.1214
  127MOL0     N17405  12.643   6.477   1.902 -0.4218  0.1567  0.9260
  127MOL0     C17406  12.704   6.426   1.786 -0.1906 -0.3152  0.6917
  127MOL0     C17407  12.735   6.532   1.713 -0.3711 -0.1450  0.7977
  127MOL0     C17408  12.812   6.525   1.580 -0.2511 -0.7654  0.9266
  127MOL0     C17409  12.955   6.557   1.601 -0.4581  0.5514  0.2133
  127MOL0     C17410  12.970   6.710   1.592 -0.0474  0.3097 -0.2367
  127MOL0     C17411  13.113   6.750   1.625 -0.4213  0.5200  0.0002
  127MOL0     O17412  13.188   6.750   1.500  0.1231 -0.0539  0.4234
  127MOL0     C17413  13.325   6.766   1.502 -0.0063  0.5601 -0.2707
  127MOL0     C17414  13.388   6.811   1.378  0.2219 -0.1059 -0.9144
  127MOL0     C17415  13.521   6.857   1.374  0.0012 -0.2756  0.0109
  127MOL0     C17416  13.565   6.908   1.232 -0.4959 -0.5662  0.6073
  127MOL0     C17417  13.604   6.851   1.492  0.2957  0.1323  0.9649
  127MOL0     C17418  13.742   6.893   1.488 -0.2399 -0.8333  0.3127
  127MOL0     O17419  13.799   6.900   1.616 -0.0911 -0.7692 -0.0597
  127MOL0     C17420  13.937   6.915   1.622  0.4940 -0.1149 -0.7452
  127MOL0     C17421  13.998   7.027   1.579 -0.0394 -0.6332  0.2484
  127MOL0     C17422  14.139   7.036   1.591  0.3630  0.8897  0.3578
  127MOL0     C17423  14.218   6.936   1.650 -0.0088  0.1325  0.1186
  127MOL0     O17424  14.352   6.956   1.657  0.7390  0.2778  0.4632
  127MOL0     C17425  14.428   6.863   1.739  0.0041  0.3160 -0.2700
  127MOL0     C17426  14.575   6.901   1.714  0.2009 -0.5964  0.4516
  127MOL0     C17427  14.683   6.829   1.792 -0.5796  0.3967  0.8830
  127MOL0     C17428  14.681   6.877   1.935 -0.5330  0.6165 -0.4265
  127MOL0     C17429  14.807   6.829   2.003  0.1665 -0.6899  0.1876
  127MOL0     C17430  14.804   6.870   2.147  0.2889  0.5961 -0.7768
  127MOL0     C17431  14.946   6.831   2.202 -0.0403  0.2824 -0.6893
  127MOL0     C17432  14.944   6.817   2.355 -0.0452 -0.3386  0.4273
  127MOL0    Cl17433  15.111   6.778   2.405 -0.1071  0.4078 -0.2691
  127MOL0     C17434  14.153   6.827   1.702  1.0456  0.0791  0.7148
  127MOL0     C17435  14.011   6.814   1.683  0.4437  0.3369  0.4902
  127MOL0     O17436  13.792   6.943   1.389  0.2252 -0.7199 -0.5231
  127MOL0     C17437  13.542   6.804   1.618  0.7864 -0.2750 -0.9004
  127MOL0     C17438  13.403   6.760   1.619  0.4855  0.7999 -0.1269
  127MOL0     N17439  12.704   6.643   1.787  0.2177  0.0924 -0.3900
  127MOL0     N17440  12.658   6.616   1.908  0.1983  0.3403  0.6607
  127MOL0     C17441  11.537   6.180   1.611 -0.6700 -0.3131 -0.3222
  127MOL0     C17442  11.400   6.200   1.626 -0.5088 -0.3397  0.7139
  127MOL0     C17443  10.998   6.362   1.776 -0.0466 -0.8797  2.4000
  127MOL0     C17444  10.898   6.283   1.823 -0.0744  0.6471 -0.7706
  127MOL0     C17445  10.759   6.311   1.807  0.2957 -0.4533  0.7471
  127MOL0     C17446  10.725   6.433   1.739  0.7227 -1.5800  0.1077
  127MOL0     O17447  10.603   6.489   1.717  0.3948  0.2470  0.2464
  127MOL0     C17448  10.493   6.424   1.778  0.2125  0.3481 -0.1406
  127MOL0     C17449  10.483   6.433   1.933 -0.4767 -0.3422  0.7342
  127MOL0     C17450  10.351   6.388   1.988 -0.2573  0.5402  0.2632
  127MOL0     C17451  10.319   6.435   2.129 -0.2571  0.2763 -1.3501
  127MOL0     C17452  10.429   6.427   2.230 -0.0620 -0.3291  0.9245
  127MOL0     C17453  10.504   6.435   2.328 -0.4170  0.2403 -0.0780
  127MOL0     C17454  10.829   6.508   1.685 -0.2565 -0.5503  0.2142
  127MOL0     C17455  10.964   6.483   1.706  0.9295  0.1340 -0.4238
  127MOL0     C17456  11.067   6.584   1.654  0.5916  0.5960  0.2660
  127MOL0     H17457  11.394   6.399   1.906  0.3299 -0.1291  1.4375
  127MOL0     H17458  11.613   6.300   1.927 -1.1801 -0.9903 -0.1437
  127MOL0     H17459  11.807   6.255   1.556 -1.7115  1.2002  1.9149
  127MOL0     H17460  11.777   6.074   1.561 -0.2855  0.1507  1.4031
  127MOL0     H17461  11.970   6.023   1.680 -0.5492 -0.4221 -1.7235
  127MOL0     H17462  12.027   6.135   1.557  0.5306  0.1885  0.1661
  127MOL0     H17463  11.992   6.326   1.708  0.3690  0.3491  0.6012
  127MOL0     H17464  11.978   6.206   1.841  1.1928 -1.3417  0.7006
  127MOL0     H17465  12.204   6.118   1.755 -3.1934 -0.0194  1.1467
  127MOL0     H17466  12.210   6.275   1.660  0.3775  0.0714 -0.2474
  127MOL0     H17467  12.192   6.242   1.966  1.4973 -0.7172 -0.1929
  127MOL0     H17468  12.179   6.397   1.870 -1.5967 -0.6530 -2.3236
  127MOL0     H17469  12.437   6.232   1.826 -0.4898  0.6590 -0.1029
  127MOL0     H17470  12.395   6.395   1.788  1.4734 -0.4843  0.0687
  127MOL0     H17471  12.416   6.305   2.081  2.3680 -2.0463 -0.4376
  127MOL0     H17472  12.388   6.471   2.005  2.0691 -0.6764 -0.7098
  127MOL0     H17473  12.617   6.434   2.093  0.3643  0.8536 -0.7855
  127MOL0     H17474  12.634   6.292   1.985 -2.2927 -0.9256  0.9968
  127MOL0     H17475  12.714   6.320   1.761  1.8336  0.2131 -0.9985
  127MOL0     H17476  12.770   6.590   1.503  0.6971 -2.1942 -0.8673
  127MOL0     H17477  12.798   6.427   1.534 -0.9001  0.7299 -2.4171
  127MOL0     H17478  12.991   6.504   1.689  0.7188 -3.7194 -2.5615
  127MOL0     H17479  13.009   6.519   1.514  0.9085  1.2080  0.7371
  127MOL0     H17480  12.943   6.747   1.493 -0.0498  1.2616  0.1124
  127MOL0     H17481  12.902   6.754   1.667  1.2882 -0.7889  1.7144
  127MOL0     H17482  13.104   6.847   1.673  0.8468  0.4806  0.3675
  127MOL0     H17483  13.159   6.685   1.700  0.5655 -0.4614 -1.4078
  127MOL0     H17484  13.319   6.823   1.295  1.0176 -0.8676 -1.7078
  127MOL0     H17485  13.481   6.905   1.162  2.5637 -0.2615 -3.5044
  127MOL0     H17486  13.647   6.847   1.193 -0.7294 -0.5402  0.0672
  127MOL0     H17487  13.590   7.014   1.237 -1.5755  0.0842 -3.6036
  127MOL0     H17488  13.936   7.100   1.528 -1.8335 -1.3748  1.2662
  127MOL0     H17489  14.181   7.134   1.572 -0.3451  0.8337 -1.7789
  127MOL0     H17490  14.386   6.858   1.840  0.8108 -3.5360  0.0156
  127MOL0     H17491  14.413   6.765   1.694 -3.2179  1.2006 -1.4119
  127MOL0     H17492  14.577   6.890   1.605 -0.6815  1.2703  0.2057
  127MOL0     H17493  14.577   7.010   1.727 -1.5763 -0.8123  3.5948
  127MOL0     H17494  14.779   6.847   1.744 -1.0087  0.1299 -0.1114
  127MOL0     H17495  14.661   6.722   1.781 -1.5999  0.6889 -0.1702
  127MOL0     H17496  14.588   6.849   1.985 -0.5876 -1.3043 -1.5006
  127MOL0     H17497  14.691   6.986   1.925  2.4816  0.2972 -2.0800
  127MOL0     H17498  14.813   6.720   1.999  1.7333 -0.6304  0.4194
  127MOL0     H17499  14.895   6.873   1.956 -0.5032 -1.5265 -2.0283
  127MOL0     H17500  14.726   6.823   2.207  0.5198 -0.6229 -1.4005
  127MOL0     H17501  14.790   6.978   2.161  0.6634  0.3529  2.1511
  127MOL0     H17502  15.020   6.902   2.166 -0.5766  0.1564 -2.0804
  127MOL0     H17503  14.980   6.736   2.160 -1.6314 -2.1796  3.0235
  127MOL0     H17504  14.870   6.747   2.396 -0.9829  0.8270  0.7798
  127MOL0     H17505  14.912   6.913   2.397 -1.5166 -1.1925  1.3406
  127MOL0     H17506  14.203   6.742   1.748 -1.1008 -0.3036  2.5247
  127MOL0     H17507  13.952   6.733   1.725 -2.5814  2.5183  0.7978
  127MOL0     H17508  13.594   6.807   1.714 -2.0593 -3.7691  0.9895
  127MOL0     H17509  13.356   6.734   1.713 -0.5928  0.3168 -0.7856
  127MOL0     H17510  11.570   6.118   1.529  1.5577 -0.1980  0.4066
  127MOL0     H17511  11.336   6.165   1.546 -0.1630  1.0767 -0.2235
  127MOL0     H17512  10.920   6.191   1.875  2.3467  1.0608 -0.9534
  127MOL0     H17513  10.683   6.250   1.855  0.5734 -1.1126  0.3675
  127MOL0     H17514  10.397   6.434   1.726  0.9865 -2.7804 -2.4486
  127MOL0     H17515  10.510   6.319   1.753  2.2710  0.4297  0.7635
  127MOL0     H17516  10.505   6.538   1.956 -1.2024  0.0121 -0.0957
  127MOL0     H17517  10.563   6.377   1.982  3.2288  1.5119 -2.5846
  127MOL0     H17518  10.265   6.397   1.920 -0.6216  1.9754  0.8842
  127MOL0     H17519  10.359   6.279   1.995 -1.1430  0.2526 -2.0650
  127MOL0     H17520  10.233   6.371   2.153 -0.6039  0.2962 -2.4495
  127MOL0     H17521  10.286   6.539   2.114 -1.0132  0.1165 -0.8376
  127MOL0     H17522  10.588   6.442   2.395  1.2026  1.8850 -2.1291
  127MOL0     H17523  10.813   6.588   1.613  1.9568  0.4734  0.7795
  127MOL0     H17524  11.148   6.599   1.725 -0.7863 -0.0276  2.0329
  127MOL0     H17525  11.106   6.550   1.557  0.2144  1.0117 -0.0343
  127MOL0     H17526  11.026   6.684   1.639  0.5399  0.5222 -0.0984
  128MOL0     O17527   8.176  10.991  10.169 -0.0266  1.2066 -0.4337
  128MOL0     C17528   8.142  11.108  10.162  0.1279 -0.6267 -0.3559
  128MOL0     O17529   8.225  11.211  10.149  0.2078  0.3254  0.8400
  128MOL0     C17530   8.361  11.197  10.119  0.6896  0.3560 -0.4532
  128MOL0     C17531   8.438  11.271  10.202 -1.0800 -0.4915 -1.1275
  128MOL0     C17532   8.572  11.270  10.181  0.6175  0.2296  0.0855
  128MOL0     C17533   8.631  11.191  10.077 -0.0303  0.3977 -0.2151
  128MOL0     O17534   8.766  11.196  10.062 -0.7364  0.7109  0.4509
  128MOL0     C17535   8.851  11.114  10.140  0.5045  0.3602 -0.9359
  128MOL0     C17536   8.999  11.136  10.120 -0.2089 -0.7700 -0.4596
  128MOL0     C17537   9.042  11.107   9.981 -0.7883 -0.4094  0.7854
  128MOL0     C17538   9.188  11.086   9.957 -0.6799 -0.0084  0.4409
  128MOL0     C17539   9.204  11.084   9.801  0.0904  0.0560  0.6694
  128MOL0     C17540   9.354  11.097   9.748 -0.4061 -0.0435  0.1344
  128MOL0     C17541   9.450  11.194   9.824 -0.0366 -0.2257  0.6477
  128MOL0     C17542   9.393  11.343   9.806 -0.5066  0.0980  0.4856
  128MOL0     N17543   9.493  11.449   9.818 -0.3336  0.9982 -0.4138
  128MOL0     C17544   9.465  11.577   9.851 -0.2508 -0.8319  0.0738
  128MOL0     C17545   9.588  11.625   9.892  0.2953 -0.8672 -0.8575
  128MOL0     C17546   9.607  11.781   9.929  0.1764  0.4757  0.2006
  128MOL0     C17547   9.659  11.852   9.804 -0.1127  0.1864  0.6256
  128MOL0     C17548   9.791  11.790   9.750 -0.1107  0.1716 -0.2305
  128MOL0     C17549   9.906  11.793   9.855  0.8368  0.2096 -0.0965
  128MOL0     O17550  10.030  11.741   9.791  0.4796  0.4668  0.0703
  128MOL0     C17551  10.130  11.709   9.873 -0.4146 -0.0342 -1.4134
  128MOL0     C17552  10.236  11.631   9.819 -0.7730 -0.4174  0.9363
  128MOL0     C17553  10.360  11.606   9.886 -1.1043  0.3731 -0.4366
  128MOL0     C17554  10.455  11.518   9.808 -0.1587  0.2011 -0.1588
  128MOL0     C17555  10.381  11.662  10.012 -0.0037 -0.9724 -0.6730
  128MOL0     C17556  10.503  11.661  10.083 -0.1656 -0.0624 -0.4261
  128MOL0     O17557  10.523  11.757  10.187  0.6089  0.7061  0.1732
  128MOL0     C17558  10.623  11.724  10.270 -0.3131  1.2443  0.3090
  128MOL0     C17559  10.733  11.807  10.280 -0.2817  0.0065  0.0555
  128MOL0     C17560  10.835  11.776  10.360  0.3771 -0.1606 -1.0769
  128MOL0     C17561  10.837  11.676  10.452 -0.3253 -0.3857 -1.1101
  128MOL0     O17562  10.942  11.651  10.542  0.2451  0.7812 -0.2268
  128MOL0     C17563  10.988  11.515  10.532 -0.8550 -0.5557  0.3347
  128MOL0     C17564  11.131  11.514  10.582 -0.8751  0.4110 -0.6601
  128MOL0     C17565  11.187  11.370  10.571 -0.4143 -0.2409 -0.0461
  128MOL0     C17566  11.342  11.354  10.564  0.2132  0.1613 -0.0841
  128MOL0     C17567  11.391  11.208  10.581  0.3831  0.3033  0.3292
  128MOL0     C17568  11.379  11.127  10.451  0.1943 -0.0864  0.1071
  128MOL0     C17569  11.437  10.977  10.452  0.9023 -0.0954 -1.1762
  128MOL0     C17570  11.366  10.897  10.344 -0.6094  0.6146 -0.6765
  128MOL0    Cl17571  11.389  10.972  10.178  0.3731 -0.3680 -0.0336
  128MOL0     C17572  10.717  11.588  10.450 -0.4040  0.3717  0.0991
  128MOL0     C17573  10.615  11.608  10.353  0.8036 -0.6267  0.8084
  128MOL0     O17574  10.595  11.575  10.055 -0.0143  0.2723  0.2096
  128MOL0     C17575  10.271  11.725  10.073  0.1477 -0.1504 -0.0116
  128MOL0     C17576  10.146  11.745  10.009 -1.3890 -0.5557 -0.4544
  128MOL0     N17577   9.683  11.528   9.892  0.1144  0.1395 -0.7775
  128MOL0     N17578   9.624  11.421   9.857 -0.8344  0.3021  0.2067
  128MOL0     C17579   8.546  11.114   9.998 -0.8023 -0.3428  0.8317
  128MOL0     C17580   8.413  11.124  10.008 -0.7610  1.1650  0.3207
  128MOL0     C17581   8.000  11.119  10.203 -0.0597 -0.3290  0.1077
  128MOL0     C17582   7.906  11.050  10.121 -0.2237 -1.2749  0.2524
  128MOL0     C17583   7.770  11.066  10.154  0.0358  0.5647 -0.3173
  128MOL0     C17584   7.731  11.153  10.259  0.0508  0.4272  0.2870
  128MOL0     O17585   7.605  11.190  10.280  0.1560  0.5123 -0.8030
  128MOL0     C17586   7.510  11.187  10.177  0.0123  0.4084  0.1146
  128MOL0     C17587   7.367  11.209  10.230  0.3522  0.1353  0.0499
  128MOL0     C17588   7.263  11.213  10.110  0.2372 -0.3753  0.4095
  128MOL0     C17589   7.120  11.188  10.174 -0.6659  0.7933  0.3333
  128MOL0     C17590   7.065  11.296  10.253  0.0533 -0.5632  1.1012
  128MOL0     C17591   7.000  11.367  10.325  0.4583  0.8962  0.4789
  128MOL0     C17592   7.826  11.215  10.340  0.5023  0.4060 -0.1203
  128MOL0     C17593   7.966  11.204  10.305  0.5593 -0.1244  1.0801
  128MOL0     C17594   8.068  11.279  10.379 -0.0462  0.5513  0.5015
  128MOL0     H17595   8.398  11.307  10.296  3.3562 -0.8360  1.1764
  128MOL0     H17596   8.635  11.316  10.256 -0.4870  0.2647  1.0287
  128MOL0     H17597   8.825  11.010  10.117  1.3375 -0.4261  1.4172
  128MOL0     H17598   8.815  11.139  10.240  0.9279  0.2801 -0.7629
  128MOL0     H17599   9.028  11.237  10.149 -0.3072 -0.5693 -1.0449
  128MOL0     H17600   9.044  11.069  10.194 -1.8765 -0.2953  1.0677
  128MOL0     H17601   8.994  11.014   9.950  0.0183 -0.5960  0.0605
  128MOL0     H17602   9.009  11.192   9.920 -0.0066  1.6914  3.1242
  128MOL0     H17603   9.228  11.178  10.000 -1.3574 -0.5900  2.4109
  128MOL0     H17604   9.233  11.000  10.007 -0.5921 -2.4268 -3.3688
  128MOL0     H17605   9.152  11.172   9.761 -1.5220 -0.8271  0.7408
  128MOL0     H17606   9.149  10.995   9.768 -0.2413  0.2615  0.6636
  128MOL0     H17607   9.407  11.002   9.736 -0.6719 -0.0051 -1.7011
  128MOL0     H17608   9.345  11.141   9.648 -0.7755  0.3757  0.3465
  128MOL0     H17609   9.550  11.200   9.780  0.1669  0.3480  1.1768
  128MOL0     H17610   9.459  11.164   9.929  1.6652 -1.4698  0.1926
  128MOL0     H17611   9.339  11.365   9.713  3.9620  1.6108 -2.0278
  128MOL0     H17612   9.321  11.365   9.886  0.1770 -2.0842  1.7790
  128MOL0     H17613   9.376  11.636   9.838  0.8205  0.9212  0.3729
  128MOL0     H17614   9.682  11.786  10.009  0.9312  1.1880 -0.5303
  128MOL0     H17615   9.514  11.820   9.972  1.3298  0.0380  3.3896
  128MOL0     H17616   9.587  11.859   9.722  2.4754  0.9816 -1.7325
  128MOL0     H17617   9.675  11.957   9.830  0.7720  0.4246 -0.7742
  128MOL0     H17618   9.766  11.685   9.728 -0.2533 -0.7673  3.7764
  128MOL0     H17619   9.828  11.831   9.655  2.3049 -2.1456 -0.4155
  128MOL0     H17620   9.918  11.897   9.887  3.5271  0.4797 -1.6649
  128MOL0     H17621   9.874  11.723   9.932 -0.1860 -0.7797 -1.3877
  128MOL0     H17622  10.205  11.576   9.731 -0.2666  0.9680 -0.1519
  128MOL0     H17623  10.453  11.422   9.861 -0.4402  0.2624 -0.0553
  128MOL0     H17624  10.559  11.551   9.806 -0.3292  0.7805 -2.6501
  128MOL0     H17625  10.415  11.502   9.707  0.2701 -2.8931  0.0795
  128MOL0     H17626  10.725  11.905  10.234  0.7005 -0.2261 -0.6462
  128MOL0     H17627  10.921  11.842  10.354  1.3336 -1.2667  0.0167
  128MOL0     H17628  10.925  11.457  10.600 -0.4743  1.2194  2.3200
  128MOL0     H17629  10.990  11.482  10.428 -1.6216 -0.0854  0.1684
  128MOL0     H17630  11.193  11.591  10.535 -0.7644  2.0259  1.9073
  128MOL0     H17631  11.140  11.547  10.686 -0.6867 -1.3132 -0.1044
  128MOL0     H17632  11.159  11.323  10.477  2.0868 -2.4218  0.1808
  128MOL0     H17633  11.155  11.302  10.651 -0.8102  0.4840  0.4328
  128MOL0     H17634  11.373  11.413  10.651  0.3526 -0.4902  0.3101
  128MOL0     H17635  11.373  11.399  10.469 -4.6568  0.0361 -2.0223
  128MOL0     H17636  11.494  11.198  10.614  0.6453 -2.0774 -0.9602
  128MOL0     H17637  11.337  11.163  10.665  0.0356 -0.1868 -0.1454
  128MOL0     H17638  11.424  11.171  10.362 -1.0589 -0.8128 -0.9331
  128MOL0     H17639  11.271  11.114  10.434 -0.1875  2.1021  0.5128
  128MOL0     H17640  11.409  10.927  10.545 -0.1634  1.9810 -0.3053
  128MOL0     H17641  11.546  10.974  10.437  1.2366  1.0876  0.6723
  128MOL0     H17642  11.260  10.882  10.367 -0.8789  3.0401  0.0109
  128MOL0     H17643  11.412  10.798  10.339 -0.2876  0.6532  0.9838
  128MOL0     H17644  10.724  11.508  10.522 -1.5434  0.2388  0.0749
  128MOL0     H17645  10.524  11.548  10.350 -1.2176  2.2976 -0.9292
  128MOL0     H17646  10.283  11.771  10.171  0.4973 -0.9554  0.3330
  128MOL0     H17647  10.074  11.799  10.069 -0.5539 -0.4108  0.4317
  128MOL0     H17648   8.601  11.049   9.931 -0.1290 -0.8441  1.8473
  128MOL0     H17649   8.356  11.066   9.936 -1.1473  0.4481  1.1807
  128MOL0     H17650   7.947  10.989  10.041  1.8290 -0.8447  0.9167
  128MOL0     H17651   7.697  11.013  10.095  0.9002  0.3910 -1.2603
  128MOL0     H17652   7.528  11.278  10.119 -0.3090 -0.4012 -1.3136
  128MOL0     H17653   7.521  11.094  10.121 -0.9232 -1.5355  2.9770
  128MOL0     H17654   7.365  11.302  10.288 -0.2392  0.4460 -0.4457
  128MOL0     H17655   7.341  11.128  10.298 -0.6715  0.2924 -0.1373
  128MOL0     H17656   7.273  11.310  10.060  3.2053  0.4125  2.2963
  128MOL0     H17657   7.284  11.132  10.039  1.5227  1.0221 -0.8838
  128MOL0     H17658   7.123  11.102  10.242 -1.6935  1.8999  1.8632
  128MOL0     H17659   7.055  11.148  10.095 -0.8115 -1.2675  1.4273
  128MOL0     H17660   6.944  11.428  10.393  1.2478 -0.2535  2.2396
  128MOL0     H17661   7.779  11.284  10.410 -2.0647  0.8475 -2.1221
  128MOL0     H17662   8.151  11.221  10.421  2.4126  1.1301 -3.1168
  128MOL0     H17663   8.112  11.355  10.314 -1.1246  0.5230 -0.2840
  128MOL0     H17664   8.018  11.335  10.459 -0.9499  0.4017  0.0509
  129MOL0     O17665   1.187   8.324   9.088 -0.1072 -0.1055 -0.0540
  129MOL0     C17666   1.104   8.370   9.170  0.4001 -0.8255  0.3006
  129MOL0     O17667   1.116   8.489   9.241  0.2198 -0.7087 -0.6433
  129MOL0     C17668   1.238   8.542   9.237 -0.2346 -0.1710  0.0833
  129MOL0     C17669   1.272   8.649   9.162  0.0204 -0.3845 -0.2643
  129MOL0     C17670   1.393   8.724   9.178  0.1216 -0.0605 -0.5916
  129MOL0     C17671   1.482   8.678   9.283  0.0259 -0.0981  0.1736
  129MOL0     O17672   1.612   8.736   9.298  0.0020  0.1075 -0.9227
  129MOL0     C17673   1.656   8.749   9.428  0.2313  0.2118 -0.6121
  129MOL0     C17674   1.783   8.839   9.435 -0.1412 -0.0391  0.1159
  129MOL0     C17675   1.885   8.786   9.341 -0.4062  0.1899 -0.4400
  129MOL0     C17676   1.991   8.887   9.316 -0.8346  0.1020 -0.4225
  129MOL0     C17677   2.076   8.847   9.202 -0.5150 -0.3043 -0.2989
  129MOL0     C17678   2.129   8.705   9.207 -0.0957 -0.6270 -0.6214
  129MOL0     C17679   2.209   8.651   9.084  0.3394 -0.2572 -0.2402
  129MOL0     C17680   2.244   8.506   9.111  1.1766  0.2181  0.0335
  129MOL0     N17681   2.303   8.467   8.980  0.7307  0.7889 -0.1598
  129MOL0     C17682   2.416   8.520   8.920 -0.3712 -0.1134  0.3222
  129MOL0     C17683   2.430   8.448   8.801 -0.3541  0.1845 -1.0174
  129MOL0     C17684   2.559   8.461   8.716  0.0376  0.4858 -0.2048
  129MOL0     C17685   2.551   8.594   8.630 -0.8808  0.2727 -0.3637
  129MOL0     C17686   2.489   8.567   8.485 -0.0728 -0.6299 -0.0259
  129MOL0     C17687   2.344   8.609   8.473  0.1783 -0.0240  0.8196
  129MOL0     O17688   2.309   8.749   8.498 -0.3313 -0.1691  0.3310
  129MOL0     C17689   2.368   8.839   8.415 -0.3905 -0.4812  0.6840
  129MOL0     C17690   2.349   8.827   8.278  0.1896 -0.2278 -0.2237
  129MOL0     C17691   2.392   8.926   8.181  0.0681 -0.1981 -0.0104
  129MOL0     C17692   2.374   8.899   8.044  0.0622 -0.1561  0.2619
  129MOL0     C17693   2.459   9.048   8.229  1.1875  0.8655 -0.0524
  129MOL0     C17694   2.523   9.145   8.142 -0.7488 -1.0152 -0.8802
  129MOL0     O17695   2.594   9.249   8.213  0.1005 -0.1451 -0.4710
  129MOL0     C17696   2.654   9.358   8.150  0.1904  0.8491 -0.4147
  129MOL0     C17697   2.641   9.397   8.022  0.8030 -0.5514  0.0003
  129MOL0     C17698   2.708   9.509   7.967 -0.1856 -0.5678 -0.5352
  129MOL0     C17699   2.780   9.589   8.052 -0.8111 -0.6897  0.1814
  129MOL0     O17700   2.851   9.696   7.996 -0.5385 -0.0577 -0.0191
  129MOL0     C17701   2.932   9.786   8.077  0.2724 -0.3421  0.0454
  129MOL0     C17702   3.008   9.889   7.996 -0.4644 -0.0898  0.9248
  129MOL0     C17703   3.125   9.830   7.922  0.7739 -0.6758 -0.1490
  129MOL0     C17704   3.207   9.936   7.849 -0.5721 -0.4779 -0.2777
  129MOL0     C17705   3.320   9.879   7.770 -0.0409 -0.3864 -0.0239
  129MOL0     C17706   3.411   9.989   7.719  0.7389  0.5571 -0.1918
  129MOL0     C17707   3.527   9.939   7.627  0.0871 -0.0467 -1.0784
  129MOL0     C17708   3.594  10.053   7.540  0.3762 -0.6513  0.2707
  129MOL0    Cl17709   3.706  10.157   7.642  0.5110 -0.4185  0.1948
  129MOL0     C17710   2.778   9.561   8.190  0.1499  0.5676 -0.2617
  129MOL0     C17711   2.718   9.446   8.233 -0.2717  0.0004  0.1437
  129MOL0     O17712   2.511   9.144   8.018 -0.3964  0.8765  0.1295
  129MOL0     C17713   2.467   9.056   8.371  0.6349  0.1441  0.5606
  129MOL0     C17714   2.418   8.958   8.466  0.1335 -0.2682  0.1194
  129MOL0     N17715   2.336   8.349   8.791  0.2515  0.0179  0.2363
  129MOL0     N17716   2.258   8.367   8.897  0.6263  0.7324 -0.2563
  129MOL0     C17717   1.442   8.571   9.354 -0.5928 -0.1082 -0.2658
  129MOL0     C17718   1.321   8.506   9.340 -0.2426 -0.0335 -0.1814
  129MOL0     C17719   0.969   8.296   9.163 -0.8660 -0.8385 -0.2347
  129MOL0     C17720   0.865   8.361   9.235 -1.1443  0.2917 -0.4972
  129MOL0     C17721   0.738   8.307   9.252  0.1736 -0.3441 -0.2704
  129MOL0     C17722   0.705   8.186   9.194  0.0834 -0.1210 -0.3296
  129MOL0     O17723   0.582   8.120   9.212 -0.4474  0.1806  0.4865
  129MOL0     C17724   0.518   8.148   9.339  0.2962 -0.1440  0.2248
  129MOL0     C17725   0.445   8.021   9.379  0.0477  0.6202 -0.1233
  129MOL0     C17726   0.341   7.958   9.281  0.6424 -0.1815  0.5281
  129MOL0     C17727   0.270   7.855   9.358  0.2011  0.0849 -0.5126
  129MOL0     C17728   0.154   7.800   9.291  0.4218 -0.3606  1.1697
  129MOL0     C17729   0.065   7.766   9.212  0.0926 -1.3157 -0.1198
  129MOL0     C17730   0.808   8.115   9.118 -0.1662 -0.4665 -0.2125
  129MOL0     C17731   0.938   8.169   9.103 -0.0816  0.5248  0.8913
  129MOL0     C17732   1.039   8.075   9.039 -0.1809  0.0763 -0.1509
  129MOL0     H17733   1.209   8.682   9.080  0.7026 -1.0423 -1.0655
  129MOL0     H17734   1.428   8.803   9.113  1.4259  0.0192  0.1563
  129MOL0     H17735   1.682   8.654   9.475 -0.2069  0.8396  0.9515
  129MOL0     H17736   1.579   8.792   9.493 -0.0969  1.5732 -1.8640
  129MOL0     H17737   1.754   8.933   9.387  3.0567 -0.0746 -2.2591
  129MOL0     H17738   1.820   8.866   9.534 -0.3879 -0.3512  0.2923
  129MOL0     H17739   1.929   8.702   9.395  0.6456  1.0285  0.0591
  129MOL0     H17740   1.840   8.758   9.246 -4.0975  3.5385  0.0522
  129MOL0     H17741   1.950   8.983   9.284  0.6212  0.0414 -2.7543
  129MOL0     H17742   2.047   8.900   9.408 -0.5263 -0.8303 -0.4651
  129MOL0     H17743   2.157   8.920   9.202 -1.2790  0.5624  0.4777
  129MOL0     H17744   2.032   8.857   9.102  1.4940  1.5445 -1.0706
  129MOL0     H17745   2.176   8.691   9.305  1.2157 -0.1038 -1.1496
  129MOL0     H17746   2.044   8.637   9.193  0.6658 -1.4190 -1.5452
  129MOL0     H17747   2.302   8.709   9.080 -0.2686  0.7189 -0.9334
  129MOL0     H17748   2.163   8.677   8.988  2.6537  1.3224 -1.0227
  129MOL0     H17749   2.310   8.491   9.197 -0.4739  0.7195  1.4498
  129MOL0     H17750   2.151   8.451   9.130  0.8384  0.9854  0.6809
  129MOL0     H17751   2.486   8.598   8.950  1.7834 -1.6048 -0.5889
  129MOL0     H17752   2.583   8.376   8.652  0.1092 -2.1639  3.0958
  129MOL0     H17753   2.647   8.462   8.781  1.3996 -1.3106 -1.8800
  129MOL0     H17754   2.510   8.678   8.686  0.6307 -1.4219  3.6787
  129MOL0     H17755   2.656   8.619   8.610 -0.4396 -0.1377  1.2707
  129MOL0     H17756   2.549   8.606   8.403 -0.0299 -0.5933  0.0227
  129MOL0     H17757   2.499   8.458   8.475  0.7667 -1.1665  4.4129
  129MOL0     H17758   2.307   8.576   8.375  3.3181  0.2305 -0.5907
  129MOL0     H17759   2.281   8.558   8.547  0.0849  1.2926  1.6699
  129MOL0     H17760   2.299   8.737   8.245 -0.0581  0.0372 -0.5690
  129MOL0     H17761   2.329   8.982   7.988  0.6621 -0.8693 -1.3444
  129MOL0     H17762   2.305   8.814   8.038  0.7238 -0.7479  0.8574
  129MOL0     H17763   2.463   8.875   7.984 -1.5684 -0.9498 -2.0276
  129MOL0     H17764   2.589   9.343   7.943  2.4886  2.3979 -3.4224
  129MOL0     H17765   2.694   9.554   7.868 -0.8973  1.4422  0.4186
  129MOL0     H17766   2.877   9.844   8.150 -2.3589 -2.0379 -0.4447
  129MOL0     H17767   3.010   9.733   8.133  1.0135  1.6082  0.9246
  129MOL0     H17768   2.941   9.935   7.922  0.2414 -1.2617 -0.4970
  129MOL0     H17769   3.044   9.963   8.067  0.0845  0.3052  0.2546
  129MOL0     H17770   3.095   9.763   7.841 -1.6025  1.4952 -1.2398
  129MOL0     H17771   3.186   9.780   7.996  0.5138 -0.7303  0.0304
  129MOL0     H17772   3.243  10.006   7.925 -2.2706 -0.7899  0.8925
  129MOL0     H17773   3.140   9.992   7.783  0.2317  0.0924 -0.6089
  129MOL0     H17774   3.366   9.811   7.842 -1.3174  1.1530  2.4390
  129MOL0     H17775   3.276   9.832   7.682 -2.1085  0.1010  0.6821
  129MOL0     H17776   3.450  10.051   7.800  1.0471  1.3480 -0.9380
  129MOL0     H17777   3.352  10.059   7.659  0.2949 -0.7141 -1.3012
  129MOL0     H17778   3.476   9.872   7.556  1.8088 -1.3866 -1.1075
  129MOL0     H17779   3.611   9.891   7.678  0.9111  1.4542 -0.9598
  129MOL0     H17780   3.519  10.118   7.495 -1.4143 -1.3660  2.0685
  129MOL0     H17781   3.655  10.011   7.459 -1.5868 -1.0552 -1.0598
  129MOL0     H17782   2.828   9.618   8.268 -0.9170  2.6836 -1.0463
  129MOL0     H17783   2.710   9.423   8.339 -1.9511  1.9922  0.5032
  129MOL0     H17784   2.499   9.156   8.398 -1.0090  1.3343 -1.5934
  129MOL0     H17785   2.418   8.965   8.574  0.0755 -0.0481  0.1058
  129MOL0     H17786   1.518   8.522   9.414 -0.6004  0.1282 -0.0573
  129MOL0     H17787   1.301   8.436   9.421  0.1677  1.4365  1.2245
  129MOL0     H17788   0.887   8.457   9.281  2.3968 -1.1586  1.3181
  129MOL0     H17789   0.667   8.374   9.299  0.6416  1.4804 -2.0168
  129MOL0     H17790   0.591   8.168   9.418  0.5309  4.8458 -0.9110
  129MOL0     H17791   0.457   8.239   9.341 -1.5942 -1.3587  0.2730
  129MOL0     H17792   0.387   8.047   9.468  0.5657  0.1998  0.3436
  129MOL0     H17793   0.514   7.944   9.416  1.0100  2.0438  1.1959
  129MOL0     H17794   0.267   8.033   9.252 -2.1019 -2.1487  1.9182
  129MOL0     H17795   0.391   7.906   9.199 -3.4002 -2.6941 -0.6279
  129MOL0     H17796   0.247   7.891   9.459  1.3301  2.1717 -0.9410
  129MOL0     H17797   0.338   7.772   9.378  1.8767  1.7666  1.2963
  129MOL0     H17798  -0.011   7.718   9.154 -1.0267  0.0351  0.1511
  129MOL0     H17799   0.795   8.017   9.075  2.7557 -0.0749 -2.3118
  129MOL0     H17800   1.002   7.975   9.015 -1.4046  0.3382  0.5845
  129MOL0     H17801   1.066   8.123   8.944  0.1600 -0.9731 -0.5958
  129MOL0     H17802   1.129   8.071   9.101  1.9160 -1.1824 -3.0510
  130MOL0     O17803   1.423  10.988   9.293 -0.0023  0.0151  0.1213
  130MOL0     C17804   1.459  11.101   9.258 -0.0707  0.4994  1.4971
  130MOL0     O17805   1.587  11.150   9.269  0.9381  0.4961 -0.7247
  130MOL0     C17806   1.684  11.062   9.315 -0.0585 -0.0089 -0.5606
  130MOL0     C17807   1.727  10.945   9.260  0.3478  0.7963  0.9902
  130MOL0     C17808   1.839  10.869   9.301 -0.0604  0.9046 -0.4969
  130MOL0     C17809   1.924  10.922   9.405  0.5288  0.0742 -0.0433
  130MOL0     O17810   2.049  10.885   9.457 -0.1702  0.0254 -0.3569
  130MOL0     C17811   2.131  10.791   9.387  0.0173 -0.0828 -0.7859
  130MOL0     C17812   2.245  10.855   9.311 -0.5704  0.1243  0.3242
  130MOL0     C17813   2.342  10.932   9.401 -0.3049  0.0867 -0.7242
  130MOL0     C17814   2.453  10.999   9.316 -0.3949 -0.0627 -0.1875
  130MOL0     C17815   2.548  11.104   9.378 -0.4420 -0.0884  0.3079
  130MOL0     C17816   2.627  11.045   9.489  0.0396 -0.2421 -0.7025
  130MOL0     C17817   2.719  11.152   9.542  0.0810  0.4411  0.6514
  130MOL0     C17818   2.822  11.085   9.625  0.1437  0.0363  0.5374
  130MOL0     N17819   2.921  11.022   9.545 -0.9523 -0.1974  0.1643
  130MOL0     C17820   3.010  11.081   9.460 -0.5726  0.6620 -0.6824
  130MOL0     C17821   3.094  10.975   9.420 -0.3530 -0.4286 -0.5821
  130MOL0     C17822   3.193  10.997   9.314  0.2442 -0.2422  0.3876
  130MOL0     C17823   3.148  10.917   9.192 -0.2604 -0.4802 -0.0827
  130MOL0     C17824   3.068  11.009   9.088 -0.5772  0.0011 -0.0330
  130MOL0     C17825   3.157  11.093   8.997  1.0601  0.3167  0.1979
  130MOL0     O17826   3.241  11.168   9.085 -0.3965 -0.1654  0.0079
  130MOL0     C17827   3.337  11.237   9.012  0.4572 -0.2130  0.0899
  130MOL0     C17828   3.437  11.171   8.935 -0.2410  0.4191  0.3736
  130MOL0     C17829   3.522  11.237   8.850 -0.2518 -0.5370  0.0187
  130MOL0     C17830   3.624  11.134   8.783  0.6703  0.4418  0.7595
  130MOL0     C17831   3.502  11.375   8.822  0.3783 -0.4600 -0.8417
  130MOL0     C17832   3.570  11.448   8.711 -0.6082 -0.5048  0.0978
  130MOL0     O17833   3.540  11.582   8.698  0.2053 -0.1684 -0.6957
  130MOL0     C17834   3.575  11.660   8.591 -0.3678  0.8347  0.6733
  130MOL0     C17835   3.673  11.764   8.604  1.1133 -0.5109 -0.3493
  130MOL0     C17836   3.699  11.849   8.491  0.0608  0.3957 -0.5969
  130MOL0     C17837   3.652  11.822   8.360 -0.4490 -0.1734  0.0543
  130MOL0     O17838   3.684  11.903   8.256  0.3415 -0.5430 -0.1465
  130MOL0     C17839   3.638  11.894   8.117  0.2227 -0.4634 -0.7824
  130MOL0     C17840   3.710  12.003   8.043  0.8418  0.0509  0.2809
  130MOL0     C17841   3.856  11.996   8.042 -0.7025  0.2164  0.7615
  130MOL0     C17842   3.904  11.862   7.986  0.0291  1.4182  0.1647
  130MOL0     C17843   4.041  11.860   7.914  0.4623 -0.1574  1.0045
  130MOL0     C17844   4.154  11.915   8.010  0.3461  0.1406 -0.3335
  130MOL0     C17845   4.158  11.858   8.159  1.0809 -0.4552 -0.3034
  130MOL0     C17846   4.229  11.967   8.248 -0.3426 -0.2926 -0.1378
  130MOL0    Cl17847   4.186  11.965   8.422  0.1810 -0.3961 -0.0205
  130MOL0     C17848   3.560  11.721   8.352  0.7798  0.4114 -0.5237
  130MOL0     C17849   3.520  11.649   8.468 -0.2105  0.0937  0.2200
  130MOL0     O17850   3.646  11.388   8.632  0.0985 -0.5780  0.1362
  130MOL0     C17851   3.404  11.445   8.911 -0.4030  0.0773 -0.4111
  130MOL0     C17852   3.335  11.376   9.010  0.3515 -0.6750 -0.3367
  130MOL0     N17853   3.035  10.861   9.468 -0.8925  0.8193  0.4632
  130MOL0     N17854   2.941  10.887   9.546 -0.4726 -0.2465  0.5642
  130MOL0     C17855   1.885  11.050   9.465 -0.2672  0.1223 -0.7214
  130MOL0     C17856   1.763  11.110   9.424  0.3531  0.0776 -0.2732
  130MOL0     C17857   1.369  11.196   9.202 -0.8603 -0.4328  0.1398
  130MOL0     C17858   1.431  11.280   9.105  0.2102 -0.5478 -0.1807
  130MOL0     C17859   1.347  11.378   9.040 -0.2525 -0.2233 -0.1552
  130MOL0     C17860   1.213  11.402   9.077 -0.3977 -0.7530 -0.2302
  130MOL0     O17861   1.149  11.513   9.015  0.2772 -0.5345  0.5286
  130MOL0     C17862   1.004  11.529   9.029  0.3952  0.4039 -0.6679
  130MOL0     C17863   0.953  11.610   8.899  0.8613  0.5522  0.4433
  130MOL0     C17864   0.969  11.516   8.783 -0.5223  0.1807  0.7028
  130MOL0     C17865   1.024  11.591   8.661  0.0361  0.2516  0.0396
  130MOL0     C17866   0.921  11.686   8.608 -0.3250 -0.6765  0.2566
  130MOL0     C17867   0.845  11.778   8.589  0.0117  0.4469 -0.8512
  130MOL0     C17868   1.159  11.318   9.173  0.1745  0.2995  0.2050
  130MOL0     C17869   1.233  11.217   9.230 -0.4902 -0.4244 -0.7445
  130MOL0     C17870   1.155  11.121   9.324 -0.6640 -0.4387  0.1949
  130MOL0     H17871   1.668  10.896   9.184 -0.0669 -0.4993  2.1036
  130MOL0     H17872   1.864  10.771   9.261  3.1651  1.0174  0.9152
  130MOL0     H17873   2.064  10.740   9.317 -1.7481 -0.4250  1.0746
  130MOL0     H17874   2.165  10.715   9.459  1.2838 -0.6459 -1.9374
  130MOL0     H17875   2.297  10.778   9.253 -2.0283 -1.2448  0.7767
  130MOL0     H17876   2.197  10.932   9.249  2.6317  0.9518 -1.3628
  130MOL0     H17877   2.300  11.013   9.461 -1.1197  1.8487 -3.5285
  130MOL0     H17878   2.390  10.863   9.472 -1.9838 -0.7858 -0.3716
  130MOL0     H17879   2.506  10.914   9.272 -1.7847 -0.9934 -0.1266
  130MOL0     H17880   2.398  11.052   9.238  1.3078  0.7655 -0.8645
  130MOL0     H17881   2.494  11.189   9.419  1.9982  0.7902  1.9335
  130MOL0     H17882   2.618  11.138   9.301 -2.3586  1.6510 -0.7556
  130MOL0     H17883   2.555  11.007   9.563  1.5115 -3.4309 -0.7318
  130MOL0     H17884   2.687  10.961   9.455  1.0942  0.4507 -0.5851
  130MOL0     H17885   2.660  11.223   9.601  2.6024 -0.2769  4.3839
  130MOL0     H17886   2.779  11.203   9.466 -1.0379 -4.1224 -3.8858
  130MOL0     H17887   2.874  11.165   9.678  1.6700 -0.6106  0.0594
  130MOL0     H17888   2.769  11.017   9.693  1.8376  0.8408  2.7911
  130MOL0     H17889   3.017  11.188   9.443 -2.5634  0.6701 -1.6781
  130MOL0     H17890   3.293  10.963   9.344  1.5640  1.6437 -1.6529
  130MOL0     H17891   3.213  11.104   9.306  0.2679 -0.1851  1.1397
  130MOL0     H17892   3.234  10.868   9.145  1.7962  1.5117  1.3857
  130MOL0     H17893   3.069  10.846   9.217  1.0717 -2.4866 -1.3000
  130MOL0     H17894   3.001  10.943   9.033  1.7812 -3.5329  1.0089
  130MOL0     H17895   3.008  11.082   9.143 -0.6906 -0.9535  1.1678
  130MOL0     H17896   3.210  11.024   8.931  0.5030 -0.3158  0.4005
  130MOL0     H17897   3.107  11.170   8.938  2.4983  1.3780  0.3159
  130MOL0     H17898   3.450  11.063   8.938  0.0530  0.4527  0.3592
  130MOL0     H17899   3.616  11.038   8.834 -1.5104  1.0278  1.6504
  130MOL0     H17900   3.723  11.180   8.790 -0.3277  3.0241 -0.7321
  130MOL0     H17901   3.609  11.122   8.676  4.3369 -1.6474  0.3179
  130MOL0     H17902   3.720  11.797   8.696 -1.6578 -0.0271  1.0162
  130MOL0     H17903   3.776  11.924   8.505  1.4559 -1.0427 -0.2219
  130MOL0     H17904   3.658  11.792   8.084  2.3236 -1.0394  2.0101
  130MOL0     H17905   3.531  11.910   8.100  0.3360  0.6887 -0.5140
  130MOL0     H17906   3.673  11.988   7.941  0.1523 -0.5201  0.6114
  130MOL0     H17907   3.668  12.096   8.081 -2.1896 -1.1635  0.1683
  130MOL0     H17908   3.897  12.019   8.140 -0.1020  1.2913  0.2733
  130MOL0     H17909   3.902  12.072   7.978 -0.2746 -1.1472 -0.6196
  130MOL0     H17910   3.840  11.815   7.911  2.4069 -0.4536 -0.8546
  130MOL0     H17911   3.907  11.781   8.060  1.0911  0.6778 -0.6532
  130MOL0     H17912   4.055  11.759   7.875 -1.4445 -0.3358  0.6465
  130MOL0     H17913   4.033  11.915   7.820 -0.4980 -2.1443 -0.1600
  130MOL0     H17914   4.144  12.022   7.990 -3.3788 -0.5019 -2.9828
  130MOL0     H17915   4.253  11.895   7.966  0.7926  0.4374  0.5117
  130MOL0     H17916   4.218  11.768   8.169  1.4423 -0.2094 -0.2642
  130MOL0     H17917   4.060  11.842   8.207  1.3273 -0.9916  0.0261
  130MOL0     H17918   4.201  12.064   8.208 -1.0059 -1.3179 -2.3154
  130MOL0     H17919   4.338  11.967   8.251 -0.3567 -0.2741  0.8146
  130MOL0     H17920   3.516  11.700   8.255  1.4819  0.3484 -0.8384
  130MOL0     H17921   3.438  11.580   8.455  0.6294 -1.4761  2.6116
  130MOL0     H17922   3.401  11.553   8.905 -1.6323  0.0988  0.3344
  130MOL0     H17923   3.271  11.429   9.080  3.6623  2.8614  0.2767
  130MOL0     H17924   1.935  11.105   9.544 -1.5267  1.7894 -1.0291
  130MOL0     H17925   1.744  11.211   9.457  0.4609  1.7342 -4.6604
  130MOL0     H17926   1.533  11.270   9.071  0.6767  0.1225  0.9565
  130MOL0     H17927   1.377  11.438   8.954  2.5161  0.6373  1.2936
  130MOL0     H17928   0.963  11.428   9.040  2.9899 -0.9043 -1.9549
  130MOL0     H17929   0.965  11.577   9.119  0.6683 -0.4925 -0.0565
  130MOL0     H17930   1.001  11.708   8.889 -0.0032  0.9530  0.1446
  130MOL0     H17931   0.850  11.644   8.914  0.8568  0.2724  1.1029
  130MOL0     H17932   1.037  11.432   8.803  1.2055  1.5936  1.0174
  130MOL0     H17933   0.870  11.482   8.751  0.0177  0.9370 -2.0336
  130MOL0     H17934   1.066  11.519   8.590  2.1703 -0.7320  2.1352
  130MOL0     H17935   1.109  11.654   8.690  1.1319 -0.7110 -0.9793
  130MOL0     H17936   0.774  11.852   8.559  0.3118  1.5609  1.0608
  130MOL0     H17937   1.053  11.330   9.193  0.1654 -1.5048  1.5159
  130MOL0     H17938   1.181  11.018   9.297 -2.3830 -1.0908  0.9137
  130MOL0     H17939   1.188  11.131   9.427  0.3645 -1.5046 -0.0147
  130MOL0     H17940   1.047  11.135   9.315 -1.0904 -1.7221  2.5796
  131MOL0     O17941   8.719   4.564   6.279  0.2361 -0.3305  0.4982
  131MOL0     C17942   8.688   4.671   6.341  1.3034 -0.0159  0.3411
  131MOL0     O17943   8.745   4.798   6.315  0.5194 -0.5350  0.1631
  131MOL0     C17944   8.852   4.796   6.227  0.1022  0.2368 -0.0305
  131MOL0     C17945   8.832   4.836   6.094  0.4731  0.7117  0.3339
  131MOL0     C17946   8.930   4.842   6.003  0.2736 -0.1702 -0.8961
  131MOL0     C17947   9.059   4.809   6.038  0.1528 -0.7629  0.0261
  131MOL0     O17948   9.151   4.802   5.943 -0.3780 -0.0084  0.0097
  131MOL0     C17949   9.287   4.838   5.962 -0.8974  0.3982  0.6779
  131MOL0     C17950   9.363   4.878   5.835  0.1210 -0.1887  0.1967
  131MOL0     C17951   9.506   4.920   5.847 -1.1863  0.5541 -0.5817
  131MOL0     C17952   9.571   4.981   5.723  0.0228  0.3672  0.0836
  131MOL0     C17953   9.688   5.072   5.761  0.1585  0.1911  0.5981
  131MOL0     C17954   9.750   5.122   5.630  0.1114 -0.3589  0.1677
  131MOL0     C17955   9.852   5.241   5.658  0.3570 -0.0592  0.1836
  131MOL0     C17956   9.792   5.364   5.738  0.8637  0.4193  0.2253
  131MOL0     N17957   9.907   5.454   5.776  1.5654 -0.3268  0.4154
  131MOL0     C17958   9.899   5.516   5.897 -0.6146  0.2483  1.2919
  131MOL0     C17959  10.011   5.585   5.915 -0.6530 -0.1910 -0.6713
  131MOL0     C17960  10.046   5.670   6.035  0.7649  0.2454  0.0202
  131MOL0     C17961  10.194   5.691   6.047 -0.4857 -0.2358  0.9416
  131MOL0     C17962  10.203   5.794   6.153 -0.2093 -0.7164 -0.0341
  131MOL0     C17963  10.339   5.855   6.156  0.3104 -0.3948  0.0606
  131MOL0     O17964  10.335   5.946   6.263  0.1496  0.1585  0.4365
  131MOL0     C17965  10.455   5.996   6.306 -0.6893  0.3226  0.1393
  131MOL0     C17966  10.468   6.019   6.444  0.0760 -0.3300  0.0175
  131MOL0     C17967  10.582   6.076   6.501 -0.7879 -0.0912  0.0727
  131MOL0     C17968  10.575   6.111   6.650  0.6172  0.4935 -0.8813
  131MOL0     C17969  10.683   6.117   6.411 -0.1049 -0.3995  0.2477
  131MOL0     C17970  10.805   6.192   6.451  0.9302  0.1093 -0.2175
  131MOL0     O17971  10.876   6.246   6.355 -0.5237  0.4308  0.7923
  131MOL0     C17972  11.016   6.268   6.374  0.4601 -0.1891  0.3581
  131MOL0     C17973  11.065   6.395   6.337 -0.0074  0.2044 -0.8032
  131MOL0     C17974  11.209   6.422   6.349  0.0443  0.3256  0.5435
  131MOL0     C17975  11.299   6.315   6.372 -0.5006  0.6593 -0.2012
  131MOL0     O17976  11.433   6.334   6.354 -0.4505  0.1956 -0.5158
  131MOL0     C17977  11.523   6.266   6.441 -0.3032  0.2044 -0.1381
  131MOL0     C17978  11.656   6.327   6.412  0.6563  0.0550  1.0708
  131MOL0     C17979  11.771   6.264   6.489 -0.0422  0.5023 -0.1252
  131MOL0     C17980  11.903   6.328   6.455 -0.2527  0.8287  0.0044
  131MOL0     C17981  12.010   6.255   6.540  0.1922  0.0573  0.7415
  131MOL0     C17982  12.141   6.329   6.511  0.2697  0.1613 -0.0010
  131MOL0     C17983  12.261   6.257   6.577  0.8403  0.2590 -0.4773
  131MOL0     C17984  12.260   6.257   6.734 -0.3379 -0.0608  0.0285
  131MOL0    Cl17985  12.249   6.437   6.789  0.1199 -0.9101 -0.0089
  131MOL0     C17986  11.244   6.187   6.398  0.2769  0.5584  0.8373
  131MOL0     C17987  11.102   6.159   6.396 -0.5729  0.6143  0.0148
  131MOL0     O17988  10.849   6.172   6.563 -0.8446 -0.0846  0.0689
  131MOL0     C17989  10.671   6.083   6.275  0.3561  0.1275  0.5128
  131MOL0     C17990  10.564   6.010   6.223 -0.7130 -0.3007 -0.5907
  131MOL0     N17991  10.080   5.569   5.792 -0.5969 -0.0382 -0.3601
  131MOL0     N17992  10.017   5.494   5.702 -0.0037 -0.3479  0.1954
  131MOL0     C17993   9.088   4.773   6.169 -0.3701  0.0011  0.5561
  131MOL0     C17994   8.987   4.767   6.265 -0.2273  0.9831  0.0951
  131MOL0     C17995   8.581   4.679   6.446 -0.2427  0.4180 -0.7836
  131MOL0     C17996   8.553   4.807   6.503 -0.2582 -0.1853 -0.7254
  131MOL0     C17997   8.448   4.821   6.593 -0.4412 -0.2373 -1.0474
  131MOL0     C17998   8.367   4.715   6.627 -0.3463 -0.1959  0.6743
  131MOL0     O17999   8.262   4.734   6.712  0.1645  0.6940  0.3151
  131MOL0     C18000   8.173   4.843   6.680  0.1009  0.2289  0.1301
  131MOL0     C18001   8.051   4.792   6.605  0.9663  0.0950  0.2000
  131MOL0     C18002   8.082   4.700   6.484 -0.7484 -0.1941 -0.3925
  131MOL0     C18003   7.967   4.661   6.389 -0.0020  0.1650  0.7373
  131MOL0     C18004   7.870   4.565   6.441 -0.0963 -0.2759  0.0437
  131MOL0     C18005   7.790   4.483   6.486 -0.3739  0.8243 -0.6316
  131MOL0     C18006   8.398   4.593   6.576  0.2091 -0.2188  0.7259
  131MOL0     C18007   8.498   4.571   6.484  0.1799  0.5059  0.2136
  131MOL0     C18008   8.522   4.428   6.442  0.4750  0.7315  0.8415
  131MOL0     H18009   8.735   4.877   6.069 -0.2907  0.8586  3.2241
  131MOL0     H18010   8.912   4.874   5.901  0.3792 -1.2859 -1.2862
  131MOL0     H18011   9.343   4.750   5.995  2.0967  2.5733  1.8720
  131MOL0     H18012   9.292   4.912   6.042 -3.2199  0.1198  1.1508
  131MOL0     H18013   9.355   4.788   5.775  2.5163 -1.6212  1.8503
  131MOL0     H18014   9.304   4.963   5.797  0.1579  0.4729  1.5570
  131MOL0     H18015   9.527   4.978   5.937 -0.6325 -0.7329  0.1423
  131MOL0     H18016   9.561   4.825   5.853  2.0443  2.1781 -1.6726
  131MOL0     H18017   9.612   4.902   5.659  0.5394  0.3107  0.4770
  131MOL0     H18018   9.503   5.033   5.655 -1.2817 -1.5612 -0.1673
  131MOL0     H18019   9.758   5.016   5.824 -0.7369  0.1176  1.5429
  131MOL0     H18020   9.643   5.150   5.822  1.4826  1.2504  0.2634
  131MOL0     H18021   9.817   5.049   5.586 -0.0019 -0.6638  0.4978
  131MOL0     H18022   9.671   5.149   5.560  0.0079 -0.0050  0.4163
  131MOL0     H18023   9.880   5.281   5.561  0.2955 -0.9219 -0.1996
  131MOL0     H18024   9.939   5.202   5.711  0.0772 -0.4074  0.3959
  131MOL0     H18025   9.720   5.412   5.671  2.3676  2.6977  0.1263
  131MOL0     H18026   9.732   5.329   5.823  0.9013 -0.3735 -0.0684
  131MOL0     H18027   9.810   5.504   5.958 -0.4485 -5.7385  0.9751
  131MOL0     H18028  10.009   5.635   6.131 -3.4451  1.0942 -1.0564
  131MOL0     H18029   9.991   5.765   6.025  0.9743  0.2388 -1.5921
  131MOL0     H18030  10.234   5.595   6.080  0.2018 -0.0995  0.5215
  131MOL0     H18031  10.240   5.723   5.953 -0.4950  1.7176  1.5458
  131MOL0     H18032  10.125   5.870   6.148 -0.0310 -0.5735 -1.0073
  131MOL0     H18033  10.184   5.753   6.252 -2.0954 -1.0098 -0.4854
  131MOL0     H18034  10.418   5.782   6.175 -0.6160 -1.1211  1.3442
  131MOL0     H18035  10.359   5.897   6.057 -1.6273  0.6759  0.0613
  131MOL0     H18036  10.396   5.978   6.513 -1.7631  2.8516  0.1881
  131MOL0     H18037  10.671   6.121   6.701  0.5513  2.0489 -1.0068
  131MOL0     H18038  10.528   6.021   6.692 -0.9979  2.0762  0.9431
  131MOL0     H18039  10.505   6.194   6.668 -2.2361 -1.2104 -3.1247
  131MOL0     H18040  10.993   6.474   6.320 -2.5391 -0.3418  4.8654
  131MOL0     H18041  11.244   6.524   6.332  0.5738 -0.1063 -1.1700
  131MOL0     H18042  11.494   6.288   6.544  1.0762 -2.2891  0.8495
  131MOL0     H18043  11.528   6.157   6.434  0.2197  0.1685  0.7476
  131MOL0     H18044  11.663   6.311   6.304 -0.8529 -4.3252  1.4221
  131MOL0     H18045  11.655   6.435   6.427  1.3507  0.6603 -2.3045
  131MOL0     H18046  11.780   6.159   6.459  1.9431  0.2289  1.2707
  131MOL0     H18047  11.749   6.264   6.596 -3.2792 -1.2904 -0.6556
  131MOL0     H18048  11.902   6.435   6.478  0.5859  0.9958 -0.6763
  131MOL0     H18049  11.915   6.319   6.347  1.3111 -1.9180  0.3252
  131MOL0     H18050  11.987   6.263   6.646  3.2577 -0.6485  1.5559
  131MOL0     H18051  12.016   6.149   6.516  1.2537  0.3896 -0.6465
  131MOL0     H18052  12.148   6.434   6.539 -0.8147 -0.3278  2.3008
  131MOL0     H18053  12.169   6.322   6.405  0.8160 -0.3012  0.1698
  131MOL0     H18054  12.355   6.291   6.532 -0.1071 -0.6304 -3.3644
  131MOL0     H18055  12.246   6.152   6.552 -1.7066  0.8900 -2.0177
  131MOL0     H18056  12.344   6.201   6.777 -1.4219 -2.5382 -0.8558
  131MOL0     H18057  12.178   6.193   6.770 -1.4404  0.7400 -1.0009
  131MOL0     H18058  11.314   6.106   6.418 -1.2276 -1.5864 -1.8491
  131MOL0     H18059  11.053   6.065   6.415  0.3367  0.3098  0.8915
  131MOL0     H18060  10.752   6.104   6.206 -0.6079  1.7766 -0.1785
  131MOL0     H18061  10.562   5.990   6.116  2.3571  0.8915 -0.9691
  131MOL0     H18062   9.187   4.750   6.206 -0.4702  1.5936  1.9353
  131MOL0     H18063   9.011   4.731   6.365  1.2119  0.1704 -0.5144
  131MOL0     H18064   8.615   4.895   6.489 -1.0905  0.2023 -2.1413
  131MOL0     H18065   8.444   4.919   6.640  0.7737 -1.1283  1.0771
  131MOL0     H18066   8.141   4.874   6.780 -2.2644 -0.9472 -0.1616
  131MOL0     H18067   8.217   4.924   6.622 -0.0350 -1.1576 -2.0081
  131MOL0     H18068   7.987   4.875   6.574 -0.1581 -1.0989 -0.7903
  131MOL0     H18069   7.997   4.730   6.677  0.9640  2.3917  2.2953
  131MOL0     H18070   8.157   4.761   6.434 -2.9131  1.5704 -1.6322
  131MOL0     H18071   8.122   4.605   6.521  2.3650  0.2872 -2.2278
  131MOL0     H18072   8.015   4.629   6.296 -0.6968  1.8564 -0.2337
  131MOL0     H18073   7.916   4.756   6.373 -0.6588 -0.4577 -1.0829
  131MOL0     H18074   7.709   4.423   6.522  0.3352  0.7088  0.8612
  131MOL0     H18075   8.331   4.512   6.602 -0.7585  0.1693 -0.4575
  131MOL0     H18076   8.527   4.427   6.333 -2.0041  0.2605  0.6656
  131MOL0     H18077   8.620   4.387   6.468 -0.1026 -3.1366 -2.1504
  131MOL0     H18078   8.444   4.357   6.469  0.4012  0.0728 -0.9948
  132MOL0     O18079   5.047   3.013   0.191 -0.9290  0.0112 -0.0351
  132MOL0     C18080   5.116   3.119   0.206 -0.0424 -0.4295  0.2102
  132MOL0     O18081   5.250   3.133   0.161  0.7590 -1.0147 -0.6881
  132MOL0     C18082   5.314   3.025   0.126  0.1700  0.6005  0.8319
  132MOL0     C18083   5.315   2.902   0.195  0.4096 -0.5316  0.3143
  132MOL0     C18084   5.372   2.788   0.136  0.3282 -1.4402 -0.3948
  132MOL0     C18085   5.461   2.805   0.026  0.0599  0.1499 -0.1540
  132MOL0     O18086   5.519   2.698  -0.029  0.5495 -0.6494  0.7832
  132MOL0     C18087   5.592   2.619   0.066 -0.7104 -0.8623 -0.6494
  132MOL0     C18088   5.703   2.538   0.004 -0.2465  0.2245 -0.4753
  132MOL0     C18089   5.658   2.416  -0.084 -0.2898 -0.0096  1.1310
  132MOL0     C18090   5.586   2.310   0.000  0.0751  0.2135 -0.2645
  132MOL0     C18091   5.680   2.225   0.094 -0.2487  0.2848 -0.2569
  132MOL0     C18092   5.798   2.157   0.017  0.0816  0.0168  0.2550
  132MOL0     C18093   5.888   2.091   0.125 -0.3510 -0.2291  0.4893
  132MOL0     C18094   6.030   2.082   0.064  0.0428 -0.9650  1.0627
  132MOL0     N18095   6.123   2.025   0.163 -1.0826 -0.0098  0.6406
  132MOL0     C18096   6.120   1.897   0.213 -0.5922  0.5401  0.4055
  132MOL0     C18097   6.233   1.887   0.286  0.3124 -0.3140 -0.1632
  132MOL0     C18098   6.287   1.769   0.359 -0.3269 -0.9429 -0.5443
  132MOL0     C18099   6.406   1.707   0.291  0.1640 -0.3633 -0.1293
  132MOL0     C18100   6.476   1.610   0.390 -0.3008 -0.0603  0.8888
  132MOL0     C18101   6.602   1.555   0.335 -0.2436  0.2417  0.3689
  132MOL0     O18102   6.709   1.640   0.375 -0.2452  0.4452  0.4092
  132MOL0     C18103   6.842   1.605   0.372  0.9447 -0.3711 -0.1527
  132MOL0     C18104   6.936   1.687   0.425 -0.9604 -0.0102  0.2800
  132MOL0     C18105   7.064   1.643   0.448  0.3562  0.1560  0.4727
  132MOL0     C18106   7.147   1.739   0.533  1.0264 -0.6794  0.2483
  132MOL0     C18107   7.106   1.518   0.405  0.3142 -0.5363  0.2053
  132MOL0     C18108   7.248   1.470   0.422 -0.3289  1.1119  0.3576
  132MOL0     O18109   7.345   1.530   0.350 -0.5337 -0.0365  0.0812
  132MOL0     C18110   7.473   1.489   0.346  0.2046  0.1605  0.5812
  132MOL0     C18111   7.577   1.557   0.403  0.2224 -0.5571 -0.0568
  132MOL0     C18112   7.703   1.512   0.411 -0.5891  0.4711 -0.1302
  132MOL0     C18113   7.729   1.381   0.362 -0.1330 -1.1688 -0.4147
  132MOL0     O18114   7.850   1.319   0.373 -0.4320  0.4225  0.1009
  132MOL0     C18115   7.957   1.407   0.399  1.0127  0.6174  0.9169
  132MOL0     C18116   8.090   1.337   0.367 -0.0559 -0.0402  0.2404
  132MOL0     C18117   8.116   1.328   0.222 -0.2394 -0.0615  0.3673
  132MOL0     C18118   8.231   1.234   0.184 -0.5278 -0.5845 -0.5400
  132MOL0     C18119   8.279   1.258   0.033 -0.5035 -0.1142 -0.8030
  132MOL0     C18120   8.169   1.222  -0.066 -0.6892 -0.0930  0.3981
  132MOL0     C18121   8.096   1.087  -0.047  0.7018  1.2359 -0.5121
  132MOL0     C18122   8.189   0.965  -0.038  0.6566  0.0160  0.1092
  132MOL0    Cl18123   8.262   0.936  -0.197  0.1350  0.3733 -0.1392
  132MOL0     C18124   7.623   1.320   0.302  0.4296  0.3952  0.1354
  132MOL0     C18125   7.496   1.367   0.290  0.8951 -0.7336  0.3838
  132MOL0     O18126   7.268   1.366   0.481  0.4473 -0.3672  0.4596
  132MOL0     C18127   7.011   1.438   0.335  0.4506 -0.1616  0.3573
  132MOL0     C18128   6.877   1.478   0.323  0.4138 -0.1542  0.3871
  132MOL0     N18129   6.295   2.009   0.296 -0.6119  0.6351 -0.2754
  132MOL0     N18130   6.237   2.085   0.215  0.9280 -1.0388 -0.2921
  132MOL0     C18131   5.468   2.927  -0.038 -0.6671 -0.2654 -0.3816
  132MOL0     C18132   5.394   3.033   0.007  0.6685 -0.0166 -0.9113
  132MOL0     C18133   5.056   3.240   0.273  0.3554 -0.0168 -0.0012
  132MOL0     C18134   5.131   3.364   0.267  0.5257 -0.0667  0.8090
  132MOL0     C18135   5.084   3.489   0.314  0.1216  0.1149  0.0549
  132MOL0     C18136   4.949   3.494   0.363  0.0802  0.1334  0.1778
  132MOL0     O18137   4.885   3.608   0.406  0.0837  0.3203  0.4457
  132MOL0     C18138   4.908   3.718   0.319 -0.5893 -0.0640  0.0592
  132MOL0     C18139   4.809   3.832   0.363 -0.2459 -0.3648 -0.2989
  132MOL0     C18140   4.799   3.954   0.269  0.2034 -0.3977  0.4225
  132MOL0     C18141   4.676   4.047   0.300 -0.1685 -0.4902  0.0031
  132MOL0     C18142   4.658   4.097   0.440  0.7519 -0.6534  0.2839
  132MOL0     C18143   4.640   4.131   0.553 -0.6579 -0.4415 -0.5844
  132MOL0     C18144   4.886   3.375   0.387  0.7310 -0.9880  0.2543
  132MOL0     C18145   4.929   3.253   0.329 -0.4631  0.7406 -0.1631
  132MOL0     C18146   4.841   3.133   0.351 -0.6862  0.1954  0.3779
  132MOL0     H18147   5.249   2.888   0.281  0.4650  0.0704  0.4631
  132MOL0     H18148   5.362   2.691   0.185  0.9625 -0.4183  1.8863
  132MOL0     H18149   5.542   2.544   0.128 -1.5443  0.1564 -0.0669
  132MOL0     H18150   5.634   2.700   0.125 -0.5766  0.5907 -2.6464
  132MOL0     H18151   5.775   2.602  -0.048  0.8709 -1.2032 -0.7415
  132MOL0     H18152   5.763   2.499   0.086  0.3667 -0.8816 -1.4275
  132MOL0     H18153   5.589   2.453  -0.160 -0.1862  1.5723  1.7704
  132MOL0     H18154   5.742   2.371  -0.138 -1.8740 -2.1057  0.3163
  132MOL0     H18155   5.514   2.357   0.068  0.4515  0.4455 -0.0162
  132MOL0     H18156   5.532   2.239  -0.062 -2.0159  0.9090  0.6581
  132MOL0     H18157   5.614   2.154   0.145 -0.6210  1.4335  0.9168
  132MOL0     H18158   5.718   2.284   0.178 -0.7343 -1.2810  1.1022
  132MOL0     H18159   5.759   2.089  -0.059 -1.5224 -1.2491  2.1095
  132MOL0     H18160   5.862   2.237  -0.021 -0.2809  0.6522  0.9549
  132MOL0     H18161   5.838   1.997   0.149 -0.6881 -0.5514 -1.3471
  132MOL0     H18162   5.909   2.152   0.213  0.4418  0.6911 -0.3045
  132MOL0     H18163   6.048   2.027  -0.029  0.1042 -0.5273  0.8147
  132MOL0     H18164   6.059   2.183   0.034  0.6560 -1.8586 -1.6077
  132MOL0     H18165   6.042   1.823   0.196 -1.5759  1.2375  1.7152
  132MOL0     H18166   6.216   1.686   0.363  2.3433 -3.5082 -1.9342
  132MOL0     H18167   6.306   1.792   0.464 -0.2522 -2.2560 -0.2505
  132MOL0     H18168   6.364   1.660   0.201  0.6595  1.4466 -1.3628
  132MOL0     H18169   6.480   1.782   0.263  0.8536 -0.9975 -0.0196
  132MOL0     H18170   6.511   1.656   0.483 -1.8653  2.1396  0.4674
  132MOL0     H18171   6.408   1.526   0.406 -0.3704  0.2383  2.3477
  132MOL0     H18172   6.614   1.458   0.383 -1.0833 -0.2805 -0.4461
  132MOL0     H18173   6.608   1.551   0.226  1.6556  2.1456  0.3367
  132MOL0     H18174   6.909   1.784   0.466  0.4728  1.1862 -1.4105
  132MOL0     H18175   7.142   1.709   0.638  2.3453  2.2022  1.2554
  132MOL0     H18176   7.108   1.841   0.527 -0.2834 -0.9573  2.7449
  132MOL0     H18177   7.249   1.738   0.491  1.4344  1.5410  1.0389
  132MOL0     H18178   7.545   1.650   0.448  1.2478  0.1756 -0.7790
  132MOL0     H18179   7.781   1.574   0.455 -1.4085  1.4592 -0.0336
  132MOL0     H18180   7.944   1.497   0.337 -0.0141  0.5458  1.0035
  132MOL0     H18181   7.959   1.431   0.506 -1.0828  2.5762  0.5946
  132MOL0     H18182   8.173   1.396   0.409  0.1058  0.8415 -1.2275
  132MOL0     H18183   8.091   1.233   0.401 -1.9672 -0.4922 -0.9477
  132MOL0     H18184   8.140   1.430   0.190 -0.1577 -0.3011 -0.3575
  132MOL0     H18185   8.027   1.294   0.167 -0.4536 -0.5626  1.0124
  132MOL0     H18186   8.197   1.132   0.202 -1.6122 -0.1413 -0.0350
  132MOL0     H18187   8.309   1.255   0.258 -2.1289 -0.5690  1.2254
  132MOL0     H18188   8.303   1.364   0.026  1.3350 -0.2294  1.9710
  132MOL0     H18189   8.370   1.197   0.020 -0.0981 -1.1992  4.5503
  132MOL0     H18190   8.214   1.237  -0.165  1.5152  0.1118  1.3533
  132MOL0     H18191   8.088   1.295  -0.060 -1.6748 -1.2334  1.2495
  132MOL0     H18192   8.015   1.063  -0.117  0.3334 -1.7389  0.7649
  132MOL0     H18193   8.046   1.090   0.050  0.6473 -0.0814 -0.4821
  132MOL0     H18194   8.127   0.878  -0.013  0.8638 -0.8054 -2.0348
  132MOL0     H18195   8.271   0.982   0.033  3.2756 -1.6344 -2.3248
  132MOL0     H18196   7.646   1.224   0.255  0.0207  0.7474 -0.8027
  132MOL0     H18197   7.406   1.320   0.251 -0.1520 -0.6417  2.5194
  132MOL0     H18198   7.040   1.344   0.290  2.0065  0.1260  0.7145
  132MOL0     H18199   6.801   1.409   0.288 -1.5014  2.1298 -0.2294
  132MOL0     H18200   5.520   2.931  -0.134 -0.1426 -2.9266 -0.2967
  132MOL0     H18201   5.380   3.128  -0.044 -0.5876 -0.0799 -0.7243
  132MOL0     H18202   5.231   3.380   0.227  0.9654 -0.8934  1.5496
  132MOL0     H18203   5.132   3.585   0.297  0.3858 -0.1878 -1.0304
  132MOL0     H18204   5.012   3.751   0.320 -0.2588 -1.0657  0.6074
  132MOL0     H18205   4.888   3.691   0.215  1.3910  1.3266 -0.7337
  132MOL0     H18206   4.836   3.881   0.458  1.1700 -0.6511 -0.5310
  132MOL0     H18207   4.710   3.787   0.371 -0.2685 -0.1664  0.6997
  132MOL0     H18208   4.885   4.021   0.271 -0.6732  0.7546  0.4771
  132MOL0     H18209   4.779   3.919   0.167 -1.1152  0.2632  0.4252
  132MOL0     H18210   4.589   3.988   0.271  0.6894 -1.5736 -0.4664
  132MOL0     H18211   4.682   4.130   0.228  1.1391  0.2773  0.9455
  132MOL0     H18212   4.638   4.147   0.659  3.2755 -0.5351 -0.3522
  132MOL0     H18213   4.794   3.378   0.445  0.1596  0.6361 -0.6541
  132MOL0     H18214   4.836   3.081   0.255 -0.6946 -0.6851  0.8448
  132MOL0     H18215   4.903   3.069   0.415  0.0975  1.1235  0.5708
  132MOL0     H18216   4.739   3.155   0.382 -0.6217  1.8150 -0.4559
  133MOL0     O18217  11.216   4.361  10.620  0.5555 -0.9207  0.2000
  133MOL0     C18218  11.122   4.285  10.636 -0.0862  0.9880 -0.1636
  133MOL0     O18219  11.138   4.166  10.708  0.1034 -0.1251 -0.0545
  133MOL0     C18220  11.258   4.124  10.754  0.0311 -0.2553 -0.2824
  133MOL0     C18221  11.360   4.067  10.674 -0.3188 -0.5824 -0.1047
  133MOL0     C18222  11.485   4.039  10.726 -0.2361 -0.1018 -0.7800
  133MOL0     C18223  11.510   4.051  10.864  0.1087 -0.7645 -0.0086
  133MOL0     O18224  11.634   4.040  10.929 -0.8900  0.6262  0.2311
  133MOL0     C18225  11.739   3.970  10.866  0.0756  1.1945 -0.6072
  133MOL0     C18226  11.810   4.071  10.779 -0.1945 -0.8394 -0.0062
  133MOL0     C18227  11.934   4.133  10.847  0.1333 -0.0649 -0.3939
  133MOL0     C18228  12.054   4.047  10.811  0.3476 -0.0327  0.3654
  133MOL0     C18229  12.193   4.118  10.808  0.0716 -0.3917 -0.0462
  133MOL0     C18230  12.225   4.174  10.945  0.1232 -0.3131  0.6171
  133MOL0     C18231  12.367   4.207  10.964 -0.1054 -0.3491 -0.5218
  133MOL0     C18232  12.392   4.282  11.098 -0.2278  0.9560 -0.1021
  133MOL0     N18233  12.528   4.316  11.105  1.0371 -1.1868  0.5141
  133MOL0     C18234  12.568   4.445  11.073  0.2855 -0.0096  0.0501
  133MOL0     C18235  12.704   4.451  11.102 -0.0884 -0.3089  0.4770
  133MOL0     C18236  12.806   4.560  11.055 -0.1168 -0.5771 -0.0150
  133MOL0     C18237  12.886   4.620  11.173  0.0466  0.8183 -0.0271
  133MOL0     C18238  12.976   4.507  11.235 -0.3325  0.9898  0.1426
  133MOL0     C18239  13.106   4.558  11.293  0.1006  0.3169 -0.2952
  133MOL0     O18240  13.211   4.607  11.211  0.6184 -0.8007  1.0987
  133MOL0     C18241  13.303   4.689  11.270  0.3738  0.1006  0.7131
  133MOL0     C18242  13.326   4.704  11.410 -1.1420 -0.6220  0.2837
  133MOL0     C18243  13.438   4.771  11.467  0.0371  0.4627  0.1109
  133MOL0     C18244  13.429   4.787  11.615  0.0630  0.0700  0.7443
  133MOL0     C18245  13.533   4.838  11.382  0.3169 -0.0261 -0.0692
  133MOL0     C18246  13.649   4.912  11.435  0.4562  0.0538  0.3737
  133MOL0     O18247  13.721   4.948  11.327  0.1477  0.3817 -0.6279
  133MOL0     C18248  13.840   5.017  11.336 -0.6373 -0.2823 -0.0385
  133MOL0     C18249  13.926   5.024  11.453 -0.4448 -0.1033  0.4118
  133MOL0     C18250  14.048   5.089  11.456  0.8079  0.2006  0.1701
  133MOL0     C18251  14.100   5.140  11.338  0.8300  0.5359 -0.0054
  133MOL0     O18252  14.224   5.202  11.342  0.6410  0.2006 -0.1660
  133MOL0     C18253  14.312   5.169  11.239 -0.1203  0.2234 -0.1258
  133MOL0     C18254  14.430   5.251  11.264 -0.2773 -0.1073 -0.3146
  133MOL0     C18255  14.400   5.399  11.287  0.0307 -0.8603 -0.2807
  133MOL0     C18256  14.524   5.484  11.268  0.1853  0.1506 -0.6469
  133MOL0     C18257  14.546   5.504  11.113  0.5459  0.4652  0.6990
  133MOL0     C18258  14.661   5.593  11.084  0.7658  0.4269 -0.5564
  133MOL0     C18259  14.662   5.727  11.145  0.0410 -0.0305  0.2532
  133MOL0     C18260  14.750   5.815  11.056 -0.1833 -0.0408 -0.5830
  133MOL0    Cl18261  14.771   5.987  11.125  0.1223 -0.3210 -0.0129
  133MOL0     C18262  14.018   5.132  11.221 -0.5722 -0.9059  0.7810
  133MOL0     C18263  13.897   5.069  11.217 -0.8476 -0.1713 -0.5991
  133MOL0     O18264  13.665   4.954  11.553  0.6058 -0.0466 -0.5216
  133MOL0     C18265  13.513   4.828  11.241  0.4145 -0.2486 -0.1542
  133MOL0     C18266  13.402   4.753  11.187 -0.1559  0.4636 -0.4646
  133MOL0     N18267  12.739   4.321  11.149 -0.4240  0.1528  0.2863
  133MOL0     N18268  12.633   4.253  11.164 -0.6450 -0.9440  0.2076
  133MOL0     C18269  11.407   4.092  10.947 -0.8174 -0.2092 -0.0739
  133MOL0     C18270  11.288   4.136  10.890  0.2193 -0.0710  0.2966
  133MOL0     C18271  10.991   4.325  10.575  0.6981  0.0303 -0.2489
  133MOL0     C18272  10.887   4.249  10.619  0.0943 -0.4113  0.0240
  133MOL0     C18273  10.744   4.270  10.580 -0.0815 -0.2591  0.3232
  133MOL0     C18274  10.712   4.370  10.481 -0.6088  0.5049  0.2007
  133MOL0     O18275  10.585   4.396  10.428 -0.4382 -0.5875 -0.0054
  133MOL0     C18276  10.473   4.370  10.507 -0.6959 -0.0686 -0.5657
  133MOL0     C18277  10.465   4.470  10.624  0.1284  0.0004 -0.4222
  133MOL0     C18278  10.343   4.470  10.713 -0.0875  0.0620 -0.3784
  133MOL0     C18279  10.341   4.565  10.838  0.2007 -0.5432 -0.2063
  133MOL0     C18280  10.202   4.617  10.847 -0.5978 -0.6494  0.1101
  133MOL0     C18281  10.092   4.671  10.855  0.3238 -0.0242 -0.8021
  133MOL0     C18282  10.826   4.432  10.433 -0.1391 -1.0453 -0.4443
  133MOL0     C18283  10.957   4.419  10.481  1.5758 -0.0184  0.0637
  133MOL0     C18284  11.064   4.508  10.428  0.3056 -0.0577  0.9769
  133MOL0     H18285  11.332   4.052  10.570 -0.6569 -2.5950  0.2400
  133MOL0     H18286  11.568   4.015  10.659  1.0489  0.6734  0.4886
  133MOL0     H18287  11.711   3.885  10.804  0.1557 -0.6394  1.7136
  133MOL0     H18288  11.804   3.923  10.940 -1.1048  0.0258 -0.2850
  133MOL0     H18289  11.826   4.030  10.679  1.4902 -1.7370  0.5785
  133MOL0     H18290  11.745   4.157  10.762  1.0576  0.1439  0.0065
  133MOL0     H18291  11.952   4.235  10.814 -2.0526  0.6291  0.4123
  133MOL0     H18292  11.917   4.128  10.955 -0.5484 -1.5181 -0.5410
  133MOL0     H18293  12.059   3.959  10.876 -0.1535 -0.0375  0.4022
  133MOL0     H18294  12.038   4.013  10.708 -2.0779 -0.1936  0.7457
  133MOL0     H18295  12.188   4.189  10.725  0.2246 -0.5942 -0.2308
  133MOL0     H18296  12.279   4.054  10.786 -0.7198 -1.0266 -1.4160
  133MOL0     H18297  12.165   4.263  10.965 -0.5417 -0.2258 -1.5044
  133MOL0     H18298  12.196   4.095  11.015 -3.5685  0.5044  0.2109
  133MOL0     H18299  12.408   4.270  10.884  2.1348  1.2342  1.7399
  133MOL0     H18300  12.419   4.111  10.958 -2.8468 -1.8775 -1.3902
  133MOL0     H18301  12.332   4.372  11.114 -1.3565 -0.0465  1.6052
  133MOL0     H18302  12.371   4.218  11.184  0.7806  2.7278  1.5309
  133MOL0     H18303  12.512   4.529  11.032 -1.5553 -1.4915 -0.6528
  133MOL0     H18304  12.732   4.632  11.018 -1.9141 -1.5547  1.4601
  133MOL0     H18305  12.875   4.531  10.976  0.0016  0.0438 -0.1488
  133MOL0     H18306  12.938   4.705  11.127  1.2721  1.1453  1.8712
  133MOL0     H18307  12.827   4.665  11.253 -0.5494 -0.6574  0.3800
  133MOL0     H18308  12.918   4.467  11.318  0.0954 -1.2858 -0.5854
  133MOL0     H18309  12.995   4.432  11.157 -0.4578  2.5380 -1.4631
  133MOL0     H18310  13.080   4.638  11.363 -0.4560 -1.3423  1.4883
  133MOL0     H18311  13.157   4.477  11.346  0.1345  0.2031 -0.5022
  133MOL0     H18312  13.261   4.654  11.482  0.2293  0.0034  2.0227
  133MOL0     H18313  13.408   4.890  11.646 -1.1455 -0.7989  3.0197
  133MOL0     H18314  13.528   4.766  11.656 -0.7218 -2.2994  1.5669
  133MOL0     H18315  13.356   4.723  11.664 -2.0393  2.6242  1.1402
  133MOL0     H18316  13.907   4.968  11.544  2.8612 -2.7853 -0.3638
  133MOL0     H18317  14.113   5.097  11.543  0.9593 -3.0882  0.4655
  133MOL0     H18318  14.335   5.062  11.242 -0.8530  0.0820  1.0168
  133MOL0     H18319  14.262   5.186  11.143 -0.5248 -2.1243 -0.4064
  133MOL0     H18320  14.486   5.199  11.341  1.6707  0.4330 -1.2974
  133MOL0     H18321  14.495   5.245  11.176  2.4291 -1.1132  1.6495
  133MOL0     H18322  14.364   5.411  11.390 -3.9654 -4.1950 -0.9897
  133MOL0     H18323  14.320   5.425  11.217 -0.3450 -2.5008 -0.5068
  133MOL0     H18324  14.612   5.441  11.316  0.3992 -0.8594 -1.8810
  133MOL0     H18325  14.502   5.584  11.308 -1.9906 -1.3258  2.2326
  133MOL0     H18326  14.559   5.411  11.057 -0.1652  2.1699 -2.5553
  133MOL0     H18327  14.457   5.559  11.081  1.3216  1.3798  0.0554
  133MOL0     H18328  14.670   5.606  10.975  0.9768  2.5770 -0.3161
  133MOL0     H18329  14.750   5.536  11.114 -0.1052  0.0486  1.4532
  133MOL0     H18330  14.700   5.716  11.248  0.6398  2.3154  0.3311
  133MOL0     H18331  14.562   5.771  11.136  0.1275 -0.1490 -1.6616
  133MOL0     H18332  14.710   5.836  10.957  0.7480  2.0227 -0.5681
  133MOL0     H18333  14.851   5.775  11.048 -0.1715 -0.7357  2.0203
  133MOL0     H18334  14.045   5.171  11.124  0.3018  0.6573  1.6183
  133MOL0     H18335  13.835   5.068  11.128 -3.4622 -2.1664  1.0794
  133MOL0     H18336  13.575   4.869  11.162 -0.6268 -0.9645 -1.4006
  133MOL0     H18337  13.386   4.733  11.081 -1.3204 -1.5395  0.0453
  133MOL0     H18338  11.430   4.111  11.052 -1.7843  0.9605 -0.0481
  133MOL0     H18339  11.215   4.185  10.954  1.7960  0.5437  1.6982
  133MOL0     H18340  10.897   4.177  10.700 -1.0002  0.4875  0.9817
  133MOL0     H18341  10.665   4.222  10.636 -0.2145  0.3907  0.6988
  133MOL0     H18342  10.388   4.371  10.438  0.5798  1.1308 -2.1826
  133MOL0     H18343  10.479   4.264  10.532  1.5939 -0.6171 -3.0168
  133MOL0     H18344  10.481   4.571  10.585  2.1198 -0.4121 -0.7541
  133MOL0     H18345  10.550   4.453  10.691 -0.9435 -0.7782  0.7949
  133MOL0     H18346  10.257   4.502  10.654 -0.0716 -2.1417 -1.7156
  133MOL0     H18347  10.329   4.365  10.741 -0.0478 -0.7070 -3.0004
  133MOL0     H18348  10.402   4.652  10.810  1.0707 -0.2265  2.4175
  133MOL0     H18349  10.377   4.521  10.931 -1.5576 -0.0823  0.7341
  133MOL0     H18350   9.995   4.716  10.866  1.4057  2.2249  0.1102
  133MOL0     H18351  10.811   4.511  10.360  0.6688 -0.2062  0.2598
  133MOL0     H18352  11.143   4.449  10.382 -0.0007 -1.8538  2.6418
  133MOL0     H18353  11.018   4.592  10.374 -0.2300  0.7058  2.5589
  133MOL0     H18354  11.114   4.545  10.518  0.7475 -0.5144  0.9216
  134MOL0     O18355   5.108   1.286   5.953  0.4624  0.1424 -0.4785
  134MOL0     C18356   5.096   1.160   5.975  0.0214 -1.1661 -0.0037
  134MOL0     O18357   5.197   1.077   5.974  0.9155  0.7263  0.6358
  134MOL0     C18358   5.310   1.115   5.907 -0.1075  0.2450  1.4191
  134MOL0     C18359   5.386   1.230   5.946 -0.8025  0.1591 -0.3135
  134MOL0     C18360   5.502   1.270   5.882  0.5015  0.4632  0.2421
  134MOL0     C18361   5.525   1.209   5.756  0.2761 -0.1888 -0.0906
  134MOL0     O18362   5.628   1.232   5.669 -0.5545 -0.1632 -0.7371
  134MOL0     C18363   5.701   1.357   5.688 -0.6301  0.3043 -0.5749
  134MOL0     C18364   5.811   1.357   5.581 -0.1314 -0.5020  0.8715
  134MOL0     C18365   5.753   1.378   5.438 -0.1806  0.4462 -0.0921
  134MOL0     C18366   5.841   1.480   5.360  0.8238  0.8599 -0.2480
  134MOL0     C18367   5.789   1.492   5.216 -0.0438  0.0128  0.0618
  134MOL0     C18368   5.837   1.623   5.140 -0.7344  0.1842 -0.7486
  134MOL0     C18369   5.814   1.615   4.994 -0.0014 -0.0372  0.8660
  134MOL0     C18370   5.898   1.726   4.923  0.1505 -0.3543  0.8574
  134MOL0     N18371   5.894   1.729   4.776  0.2040  0.1565 -0.2580
  134MOL0     C18372   5.985   1.670   4.686  0.8396 -0.2044  0.2370
  134MOL0     C18373   5.935   1.695   4.556 -0.8935 -0.0010 -0.3571
  134MOL0     C18374   5.966   1.634   4.425 -0.2180 -0.7524  1.2428
  134MOL0     C18375   6.043   1.748   4.346 -0.0819 -0.0788  0.1369
  134MOL0     C18376   6.135   1.692   4.241 -0.7807  0.1247 -0.4999
  134MOL0     C18377   6.173   1.800   4.141  0.0563 -0.3171 -0.3815
  134MOL0     O18378   6.293   1.771   4.070  0.3171 -0.0149  0.7563
  134MOL0     C18379   6.413   1.816   4.110  0.4579  0.1255  0.2225
  134MOL0     C18380   6.437   1.891   4.221 -1.0262  0.7015 -0.5643
  134MOL0     C18381   6.571   1.920   4.260 -0.0752 -0.4807  0.2181
  134MOL0     C18382   6.588   1.989   4.394  0.0217  0.2896  0.2974
  134MOL0     C18383   6.679   1.881   4.176  0.0731  0.0298 -0.2610
  134MOL0     C18384   6.821   1.924   4.203  0.3831 -1.1868  0.7854
  134MOL0     O18385   6.915   1.873   4.115  0.0488  0.0659 -0.5581
  134MOL0     C18386   7.048   1.869   4.156  0.1191 -0.0857 -0.9370
  134MOL0     C18387   7.156   1.885   4.062 -0.0601  0.3843  0.9559
  134MOL0     C18388   7.292   1.875   4.100  0.2115 -0.7491 -0.1211
  134MOL0     C18389   7.322   1.850   4.233 -0.7224 -0.1932 -0.0297
  134MOL0     O18390   7.448   1.828   4.277 -0.1958 -0.9855  0.3996
  134MOL0     C18391   7.529   1.731   4.212  0.4681  0.0817  0.3814
  134MOL0     C18392   7.677   1.738   4.243 -0.3308 -0.5499  0.3635
  134MOL0     C18393   7.692   1.697   4.397  0.1127  0.5286  0.6500
  134MOL0     C18394   7.703   1.816   4.497  0.0862 -0.4633 -0.7842
  134MOL0     C18395   7.740   1.777   4.639  0.0699  0.5608 -0.6686
  134MOL0     C18396   7.887   1.745   4.649  0.3070  0.8090 -0.2851
  134MOL0     C18397   7.971   1.864   4.698 -0.6028  0.1426 -0.4910
  134MOL0     C18398   8.107   1.813   4.725  0.6550  0.1567  0.5359
  134MOL0    Cl18399   8.225   1.954   4.771  0.0935  0.1231  0.4372
  134MOL0     C18400   7.222   1.840   4.333  0.0247 -0.9915  0.5320
  134MOL0     C18401   7.086   1.846   4.298 -0.5902 -0.6656  0.6087
  134MOL0     O18402   6.852   2.016   4.290  0.7354  0.4349 -0.0260
  134MOL0     C18403   6.656   1.803   4.064 -0.8097  0.1591  0.4083
  134MOL0     C18404   6.522   1.776   4.027 -0.3520  0.8869  0.8056
  134MOL0     N18405   5.817   1.769   4.575 -0.1359  0.4565  0.0094
  134MOL0     N18406   5.792   1.787   4.700 -0.6490 -0.0357  0.6700
  134MOL0     C18407   5.454   1.094   5.721 -0.0806  0.1551  0.1567
  134MOL0     C18408   5.343   1.041   5.789 -1.2943 -0.5760  0.2961
  134MOL0     C18409   4.968   1.103   6.029  0.6496 -0.2574 -0.2373
  134MOL0     C18410   4.860   1.184   6.051 -0.3856 -0.5861 -0.1712
  134MOL0     C18411   4.740   1.137   6.089 -0.2938 -0.4218  1.3180
  134MOL0     C18412   4.723   1.001   6.121  0.0877 -0.9508 -0.5508
  134MOL0     O18413   4.600   0.955   6.163 -0.3805 -0.2116  0.3382
  134MOL0     C18414   4.551   0.836   6.098  0.0634 -0.5380  0.8065
  134MOL0     C18415   4.439   0.759   6.164  0.3241  0.7074 -0.8377
  134MOL0     C18416   4.305   0.838   6.180  0.1127 -0.3862 -0.5088
  134MOL0     C18417   4.242   0.845   6.044 -0.0131 -1.0799  0.1875
  134MOL0     C18418   4.115   0.906   6.034 -0.0419  0.1598  0.7576
  134MOL0     C18419   4.005   0.960   6.034  0.1139  0.3832  0.0324
  134MOL0     C18420   4.829   0.918   6.100 -0.3857  0.9189  1.0986
  134MOL0     C18421   4.948   0.967   6.049 -0.0070  0.2994 -0.6985
  134MOL0     C18422   5.055   0.859   6.036  0.1136 -0.3538  0.0332
  134MOL0     H18423   5.368   1.280   6.041 -2.1174  2.8515 -1.8728
  134MOL0     H18424   5.565   1.351   5.918  0.4845  1.2514 -1.4066
  134MOL0     H18425   5.752   1.365   5.784 -1.3902 -2.4979  0.1558
  134MOL0     H18426   5.637   1.446   5.679 -1.1104  0.7613  4.4256
  134MOL0     H18427   5.884   1.436   5.602 -2.4630  2.2539 -0.5958
  134MOL0     H18428   5.868   1.265   5.577  3.1080  1.3930 -2.1666
  134MOL0     H18429   5.749   1.281   5.388 -1.0785 -0.4206  1.5613
  134MOL0     H18430   5.653   1.422   5.442  0.1311  1.3479 -1.5437
  134MOL0     H18431   5.829   1.579   5.405 -2.0315  0.3549  0.3187
  134MOL0     H18432   5.941   1.436   5.356 -0.3744 -2.1262 -3.4516
  134MOL0     H18433   5.680   1.502   5.216  0.1449  4.2879 -1.2675
  134MOL0     H18434   5.803   1.401   5.157 -3.8493  0.1037 -1.2652
  134MOL0     H18435   5.797   1.715   5.184  1.4015  0.5236  0.6920
  134MOL0     H18436   5.942   1.636   5.171 -0.9684  0.1281  0.1048
  134MOL0     H18437   5.707   1.627   4.972 -0.2339 -3.5750 -0.6681
  134MOL0     H18438   5.844   1.518   4.952 -1.6022 -1.5551  3.0172
  134MOL0     H18439   5.855   1.820   4.956  1.1822 -0.0307  1.3208
  134MOL0     H18440   6.002   1.725   4.957  0.3782  1.3748  0.3049
  134MOL0     H18441   6.065   1.601   4.711  1.2201 -0.3015 -1.1538
  134MOL0     H18442   5.876   1.589   4.381  0.2941 -0.9509  0.3772
  134MOL0     H18443   6.031   1.549   4.449  1.7336  0.8494  1.8679
  134MOL0     H18444   5.968   1.811   4.296  1.5283  0.0110 -2.3078
  134MOL0     H18445   6.089   1.812   4.421 -2.3745  0.3960  1.2340
  134MOL0     H18446   6.224   1.669   4.300 -0.0333  3.8083  0.0374
  134MOL0     H18447   6.095   1.601   4.195 -2.1394 -0.5913  1.9032
  134MOL0     H18448   6.095   1.818   4.067 -0.9803  0.5095  0.8662
  134MOL0     H18449   6.186   1.894   4.196  2.0886 -0.7794  0.0162
  134MOL0     H18450   6.356   1.917   4.288  0.8341  0.3727  1.9769
  134MOL0     H18451   6.610   2.095   4.379 -0.3000  0.1576 -1.2724
  134MOL0     H18452   6.671   1.942   4.448  0.5617  0.6505 -0.2109
  134MOL0     H18453   6.501   1.984   4.461 -0.1634 -1.6048 -0.0303
  134MOL0     H18454   7.137   1.903   3.957  1.2805  0.2998  0.6811
  134MOL0     H18455   7.371   1.878   4.026 -0.9775  0.3119 -1.4035
  134MOL0     H18456   7.491   1.631   4.237 -0.9413  1.1085  2.6118
  134MOL0     H18457   7.503   1.742   4.106 -1.9611 -1.2887  0.7525
  134MOL0     H18458   7.731   1.659   4.189 -0.8448 -1.3881  1.0373
  134MOL0     H18459   7.716   1.838   4.222  1.7371 -1.0014  1.6934
  134MOL0     H18460   7.783   1.637   4.395 -0.0256  0.3194 -0.9198
  134MOL0     H18461   7.610   1.629   4.421  0.2273 -0.0718 -0.5722
  134MOL0     H18462   7.602   1.854   4.516  1.0264  1.8727 -0.1718
  134MOL0     H18463   7.764   1.899   4.463 -2.0392  1.9316  0.8579
  134MOL0     H18464   7.720   1.862   4.706  1.3973  0.3551  0.0124
  134MOL0     H18465   7.674   1.694   4.666 -0.4868  0.4550 -2.2452
  134MOL0     H18466   7.918   1.724   4.546  1.5959  0.6803  0.1094
  134MOL0     H18467   7.907   1.658   4.713  1.7534  1.2013 -0.1739
  134MOL0     H18468   7.923   1.900   4.790  3.3393  0.1116  1.7937
  134MOL0     H18469   7.962   1.934   4.614 -0.3759 -1.5369 -1.9713
  134MOL0     H18470   8.148   1.751   4.645  2.8759 -1.4233  2.7554
  134MOL0     H18471   8.103   1.748   4.813 -0.0207  0.4080  0.6988
  134MOL0     H18472   7.263   1.822   4.432 -0.9398  0.2251  1.1885
  134MOL0     H18473   7.013   1.828   4.376 -0.3141 -1.7675  0.6303
  134MOL0     H18474   6.731   1.770   3.993  0.0499  0.6283  1.0778
  134MOL0     H18475   6.501   1.739   3.927  0.9967  1.6446  0.2212
  134MOL0     H18476   5.486   1.052   5.626 -0.7896  0.9790 -0.4597
  134MOL0     H18477   5.292   0.950   5.759 -0.1498 -0.7983 -1.0820
  134MOL0     H18478   4.873   1.292   6.046  2.4625 -0.7210  1.8262
  134MOL0     H18479   4.654   1.203   6.096 -0.3290 -0.5449  2.1305
  134MOL0     H18480   4.522   0.850   5.993  0.2283 -1.3644  0.6418
  134MOL0     H18481   4.625   0.758   6.075 -4.2888 -4.3415 -2.1287
  134MOL0     H18482   4.479   0.716   6.257 -0.4810  0.3717 -0.6306
  134MOL0     H18483   4.418   0.678   6.094 -1.8790  2.1876 -2.0173
  134MOL0     H18484   4.236   0.782   6.243 -0.7914 -0.3764 -1.4725
  134MOL0     H18485   4.321   0.934   6.230 -5.0360  0.5380 -0.0754
  134MOL0     H18486   4.233   0.743   6.005  4.1139 -1.1531 -1.0940
  134MOL0     H18487   4.307   0.909   5.983 -1.4273  0.2868  0.0456
  134MOL0     H18488   3.903   0.991   6.036 -0.0548  0.5934 -3.9451
  134MOL0     H18489   4.815   0.811   6.106 -1.5838  1.0885  1.5542
  134MOL0     H18490   5.113   0.859   6.129  2.1007 -1.5662 -1.1215
  134MOL0     H18491   5.009   0.760   6.031 -1.4674  0.4037 -1.7676
  134MOL0     H18492   5.114   0.873   5.944  1.1201 -0.2446  0.6790
  135MOL0     O18493   8.030  11.078   9.107 -0.6570 -1.0244  0.6842
  135MOL0     C18494   7.969  11.167   9.047 -0.1979 -0.0742 -0.1570
  135MOL0     O18495   7.843  11.210   9.091  0.0450 -0.4126 -0.4267
  135MOL0     C18496   7.751  11.129   9.147  0.5783  0.1930 -0.4670
  135MOL0     C18497   7.741  10.990   9.135 -0.2897 -0.8111  0.3683
  135MOL0     C18498   7.625  10.921   9.165  0.0617 -0.0335 -0.0990
  135MOL0     C18499   7.516  10.989   9.212 -0.3619 -0.0367  0.2222
  135MOL0     O18500   7.401  10.906   9.231  0.2002  0.2645 -0.3969
  135MOL0     C18501   7.292  10.942   9.318 -0.9431  0.0738  0.1065
  135MOL0     C18502   7.182  10.842   9.297 -0.2636 -0.6441  0.9606
  135MOL0     C18503   7.159  10.810   9.150  0.1870  0.1782 -0.1526
  135MOL0     C18504   7.035  10.711   9.123  0.3917 -0.0260 -0.9027
  135MOL0     C18505   7.025  10.675   8.973 -0.0438  0.1880 -0.4162
  135MOL0     C18506   6.893  10.601   8.948 -0.0126 -0.5632  0.1588
  135MOL0     C18507   6.891  10.457   8.994  0.4321  0.7009 -0.3563
  135MOL0     C18508   6.995  10.369   8.931  0.4639  0.2567  0.7597
  135MOL0     N18509   6.968  10.231   8.973  0.4993  0.0930 -0.8469
  135MOL0     C18510   6.973  10.121   8.894 -0.1372  0.2132  0.9815
  135MOL0     C18511   7.020  10.022   8.975  0.0996  0.1894  0.0926
  135MOL0     C18512   7.059   9.890   8.928 -0.2484  0.5060 -0.4862
  135MOL0     C18513   7.211   9.889   8.942 -0.1983  0.5082  0.2212
  135MOL0     C18514   7.270   9.754   8.909 -0.3219 -0.4777 -0.1186
  135MOL0     C18515   7.418   9.779   8.896  0.3789  0.0349 -0.3460
  135MOL0     O18516   7.473   9.808   9.030  0.0527 -0.2107 -0.0437
  135MOL0     C18517   7.607   9.820   9.041 -0.0679 -0.0762  0.4281
  135MOL0     C18518   7.692   9.799   8.932  0.5779 -0.2625  0.2344
  135MOL0     C18519   7.836   9.798   8.962 -0.4902 -0.0515 -0.0198
  135MOL0     C18520   7.924   9.776   8.846 -0.2528 -0.1445  0.6305
  135MOL0     C18521   7.882   9.819   9.088 -0.0931  0.0178 -0.7206
  135MOL0     C18522   8.024   9.808   9.138  0.6920  0.7844 -0.7693
  135MOL0     O18523   8.056   9.888   9.246 -0.7004 -0.8366 -0.1700
  135MOL0     C18524   8.172   9.877   9.321  0.1325  0.2880  0.2542
  135MOL0     C18525   8.251   9.762   9.328 -0.1285 -0.5912 -0.6995
  135MOL0     C18526   8.375   9.771   9.398 -0.3858 -0.1642  0.0621
  135MOL0     C18527   8.423   9.893   9.451 -0.3105  0.2260 -0.9015
  135MOL0     O18528   8.533   9.892   9.530 -1.0188  0.0879  0.0312
  135MOL0     C18529   8.529   9.978   9.648 -0.1336 -0.4152 -0.0112
  135MOL0     C18530   8.650   9.938   9.741  0.5936 -1.2069 -0.4008
  135MOL0     C18531   8.598   9.848   9.851  0.2074 -0.5304  0.2426
  135MOL0     C18532   8.534   9.711   9.803  0.5345 -0.0656  0.7454
  135MOL0     C18533   8.501   9.641   9.932 -0.1798 -0.1118  0.3024
  135MOL0     C18534   8.413   9.521   9.915  0.2766  0.6002  0.1267
  135MOL0     C18535   8.360   9.470  10.049 -0.1516  0.2853 -0.1864
  135MOL0     C18536   8.245   9.369  10.048  0.0820 -0.6781 -0.4053
  135MOL0    Cl18537   8.092   9.444  10.019 -0.1660 -0.2893 -0.4470
  135MOL0     C18538   8.332  10.006   9.443  0.5364 -0.0676 -0.2638
  135MOL0     C18539   8.207   9.994   9.379 -0.7978 -0.6570  0.9432
  135MOL0     O18540   8.093   9.736   9.075 -0.7730 -0.5432 -0.2344
  135MOL0     C18541   7.792   9.849   9.191  0.1558  0.3266 -0.1018
  135MOL0     C18542   7.654   9.855   9.165 -0.3047 -0.2581 -0.4733
  135MOL0     N18543   7.024  10.064   9.112 -0.4275  0.3917  0.6552
  135MOL0     N18544   6.990  10.193   9.101  0.1975  0.5534 -0.6760
  135MOL0     C18545   7.530  11.124   9.240  0.7370 -0.1465 -0.0339
  135MOL0     C18546   7.645  11.192   9.207  0.5252 -0.6672 -0.3273
  135MOL0     C18547   8.033  11.270   8.948  0.4086 -0.0801 -0.5474
  135MOL0     C18548   7.957  11.376   8.906  0.2315 -0.9643 -0.5103
  135MOL0     C18549   8.015  11.469   8.821  0.2293 -0.1906  0.3075
  135MOL0     C18550   8.154  11.465   8.777 -0.2389  0.4841  0.3066
  135MOL0     O18551   8.197  11.580   8.716 -0.0817 -0.4176  0.0112
  135MOL0     C18552   8.318  11.567   8.633 -0.7634 -0.1581 -0.0570
  135MOL0     C18553   8.345  11.692   8.543 -0.0691  0.7217 -1.0532
  135MOL0     C18554   8.223  11.717   8.434 -0.1147  0.3910  0.1607
  135MOL0     C18555   8.165  11.600   8.363 -0.1319  0.4317  0.4387
  135MOL0     C18556   8.268  11.525   8.298 -0.5661 -0.1256  0.3148
  135MOL0     C18557   8.359  11.471   8.237  0.1013  0.2808  0.5188
  135MOL0     C18558   8.217  11.345   8.805  0.1477 -0.0975 -0.0971
  135MOL0     C18559   8.159  11.252   8.889  0.1382  0.4565  0.2506
  135MOL0     C18560   8.244  11.129   8.914  0.7353  1.0209 -0.4622
  135MOL0     H18561   7.831  10.949   9.090  1.5625  2.0918  1.1526
  135MOL0     H18562   7.624  10.813   9.150  1.2682 -0.3222  1.7184
  135MOL0     H18563   7.253  11.039   9.286 -4.0728 -1.1868 -0.2606
  135MOL0     H18564   7.323  10.946   9.423 -2.9040 -3.0400  0.9224
  135MOL0     H18565   7.219  10.744   9.330  1.4741 -1.2812 -2.4853
  135MOL0     H18566   7.094  10.868   9.358  1.1777 -1.1527  3.4073
  135MOL0     H18567   7.146  10.900   9.089 -0.1073 -0.2435 -0.7134
  135MOL0     H18568   7.247  10.758   9.111 -0.7304  1.4783 -4.4727
  135MOL0     H18569   7.050  10.626   9.190  1.8186  0.9578  0.0923
  135MOL0     H18570   6.945  10.762   9.157  0.3681 -0.8539  0.3521
  135MOL0     H18571   7.109  10.611   8.942 -1.4372 -0.4292 -3.2917
  135MOL0     H18572   7.032  10.761   8.906  0.1041  1.1978  0.8581
  135MOL0     H18573   6.814  10.655   9.000  0.5495  1.3255 -0.8671
  135MOL0     H18574   6.866  10.607   8.843  4.6067 -1.0700 -1.2944
  135MOL0     H18575   6.793  10.417   8.967  0.7326  0.1082 -0.5985
  135MOL0     H18576   6.904  10.450   9.102 -1.2938  2.2596  0.0054
  135MOL0     H18577   6.993  10.358   8.822  3.1915 -0.3978  0.7018
  135MOL0     H18578   7.096  10.401   8.958  0.5756  0.3103  0.2811
  135MOL0     H18579   6.953  10.117   8.788 -2.8982 -2.7704  1.4539
  135MOL0     H18580   7.027   9.871   8.825  1.0394 -1.0598 -0.6413
  135MOL0     H18581   7.007   9.816   8.989  2.5985 -1.5404 -0.3369
  135MOL0     H18582   7.245   9.963   8.870 -2.4783 -1.2743 -2.9255
  135MOL0     H18583   7.236   9.911   9.046  1.2694 -0.6750  0.1473
  135MOL0     H18584   7.257   9.683   8.991 -0.7532  2.3993  2.4868
  135MOL0     H18585   7.227   9.709   8.819 -1.2025 -1.5162  0.7946
  135MOL0     H18586   7.459   9.688   8.851  0.5461  0.3099 -0.7633
  135MOL0     H18587   7.446   9.858   8.825  3.3000 -1.1959 -0.7040
  135MOL0     H18588   7.655   9.773   8.834  1.5619  1.5172 -0.6476
  135MOL0     H18589   7.941   9.669   8.831  0.1881  0.3534 -3.2709
  135MOL0     H18590   8.022   9.823   8.860  1.4613 -2.8640 -1.1516
  135MOL0     H18591   7.889   9.807   8.747 -3.9518 -4.6967  0.1500
  135MOL0     H18592   8.206   9.665   9.306 -1.2518  0.0961 -1.5502
  135MOL0     H18593   8.433   9.679   9.406 -0.3131  0.0382  2.7542
  135MOL0     H18594   8.540  10.083   9.618  0.1675 -0.1421  1.0300
  135MOL0     H18595   8.433   9.963   9.698 -1.9577 -0.9328 -3.3779
  135MOL0     H18596   8.730   9.890   9.684  1.8110  0.5720 -0.2926
  135MOL0     H18597   8.681  10.031   9.789 -0.3410 -0.9671 -0.2479
  135MOL0     H18598   8.512   9.901   9.892 -1.0094 -0.1198 -2.5583
  135MOL0     H18599   8.676   9.840   9.926  1.1163  0.1461 -0.5945
  135MOL0     H18600   8.602   9.658   9.735 -0.4468  2.9001 -2.8725
  135MOL0     H18601   8.441   9.731   9.748  2.1711  1.0847 -1.8256
  135MOL0     H18602   8.591   9.615   9.988  1.3853  3.3485 -0.3277
  135MOL0     H18603   8.452   9.716   9.995  1.3731  1.7394 -0.5628
  135MOL0     H18604   8.453   9.439   9.855 -1.7987 -0.6344  0.3330
  135MOL0     H18605   8.326   9.558   9.860 -1.1459 -3.3641 -0.6094
  135MOL0     H18606   8.322   9.550  10.112 -0.2759 -0.6149  0.9214
  135MOL0     H18607   8.443   9.424  10.103 -0.4271 -2.2113 -1.7146
  135MOL0     H18608   8.240   9.316  10.144 -0.2304  1.8021  1.0332
  135MOL0     H18609   8.271   9.298   9.969 -0.0008  0.9506 -1.9709
  135MOL0     H18610   8.354  10.097   9.497 -0.1410  0.6579 -1.1658
  135MOL0     H18611   8.139  10.078   9.384  0.7985  0.8772 -1.0527
  135MOL0     H18612   7.816   9.846   9.297 -0.9068 -2.2562  0.1411
  135MOL0     H18613   7.598   9.853   9.257 -1.8069  0.2427 -1.3364
  135MOL0     H18614   7.434  11.159   9.277  1.1651 -1.8983  3.0961
  135MOL0     H18615   7.656  11.299   9.214 -0.0455 -0.5400 -1.2085
  135MOL0     H18616   7.858  11.405   8.941 -0.7704 -1.0910 -3.0262
  135MOL0     H18617   7.959  11.559   8.800  0.0341 -0.7797 -1.8933
  135MOL0     H18618   8.398  11.541   8.702 -1.1835  0.4410  0.6640
  135MOL0     H18619   8.305  11.484   8.563 -0.7233  0.7476 -1.1666
  135MOL0     H18620   8.431  11.677   8.477  0.4340  0.1442 -0.2755
  135MOL0     H18621   8.367  11.775   8.611  1.8263 -0.9161  0.4369
  135MOL0     H18622   8.139  11.766   8.485  0.3925  0.8755  0.5491
  135MOL0     H18623   8.260  11.788   8.359 -0.7518 -0.4602 -0.9804
  135MOL0     H18624   8.091  11.642   8.294  0.0780 -1.2037 -0.8602
  135MOL0     H18625   8.113  11.547   8.443 -3.4370  0.3303 -1.5846
  135MOL0     H18626   8.456  11.436   8.207  0.4370  0.7103  1.0660
  135MOL0     H18627   8.319  11.335   8.769 -0.4567  1.5082 -2.4754
  135MOL0     H18628   8.283  11.127   9.017 -0.4092  4.1367  0.1603
  135MOL0     H18629   8.176  11.044   8.910 -0.8537  2.2180 -0.0609
  135MOL0     H18630   8.334  11.119   8.853  1.7225  0.3235  1.0398
  136MOL0     O18631   6.569  10.136   0.097 -0.2219 -0.6528  0.3180
  136MOL0     C18632   6.459  10.128   0.162 -0.8562  0.7442 -0.0568
  136MOL0     O18633   6.409  10.012   0.227 -0.5347  0.1401 -0.1023
  136MOL0     C18634   6.475   9.893   0.206 -0.2057  0.1517 -0.5147
  136MOL0     C18635   6.609   9.867   0.229  0.3615 -0.5416 -0.4378
  136MOL0     C18636   6.671   9.748   0.192 -0.1293  0.6328  0.2878
  136MOL0     C18637   6.600   9.645   0.136 -0.0217  0.1036 -0.3635
  136MOL0     O18638   6.666   9.526   0.109 -0.2039 -0.3167 -0.4073
  136MOL0     C18639   6.593   9.416   0.154  0.5123  0.5115 -0.6326
  136MOL0     C18640   6.684   9.295   0.136 -0.6184 -0.2717 -0.3650
  136MOL0     C18641   6.769   9.279   0.270 -0.4135 -0.0350  0.1743
  136MOL0     C18642   6.883   9.189   0.252 -0.2659 -0.0081 -0.3793
  136MOL0     C18643   6.959   9.160   0.386  0.8276 -0.3184 -0.5362
  136MOL0     C18644   7.058   9.277   0.407 -0.1833  0.8520 -0.7462
  136MOL0     C18645   7.161   9.231   0.512 -0.4713 -0.2861 -0.3840
  136MOL0     C18646   7.117   9.200   0.655  0.8168 -0.1765  0.2361
  136MOL0     N18647   7.236   9.213   0.742 -0.1064 -0.2517 -0.2898
  136MOL0     C18648   7.349   9.137   0.727 -0.0937  1.4219  0.1391
  136MOL0     C18649   7.422   9.170   0.837  0.0051  0.5773 -1.0290
  136MOL0     C18650   7.562   9.129   0.877  0.3560 -0.4200  0.3862
  136MOL0     C18651   7.661   9.190   0.783  0.4696 -0.2958  0.6420
  136MOL0     C18652   7.802   9.217   0.836  0.3229  0.5842 -0.5713
  136MOL0     C18653   7.900   9.254   0.722 -0.1475 -0.6173 -0.8884
  136MOL0     O18654   8.018   9.319   0.770 -0.2041 -0.1846 -0.7534
  136MOL0     C18655   8.126   9.240   0.792  1.5322 -1.0919  0.7536
  136MOL0     C18656   8.176   9.226   0.915 -0.1402  0.9789  0.4627
  136MOL0     C18657   8.281   9.138   0.952  0.9761 -0.3470 -0.5643
  136MOL0     C18658   8.301   9.119   1.095 -0.2258 -0.6778  0.3092
  136MOL0     C18659   8.351   9.070   0.848 -0.2330  0.0130 -0.4380
  136MOL0     C18660   8.479   8.996   0.870  0.2383 -0.3306 -0.1204
  136MOL0     O18661   8.534   8.928   0.758  0.4895 -0.9488 -0.2813
  136MOL0     C18662   8.637   8.839   0.762 -0.1604  0.3550 -0.2634
  136MOL0     C18663   8.753   8.879   0.716 -0.1614  0.7209 -0.0491
  136MOL0     C18664   8.864   8.804   0.716 -0.1073  0.2528 -0.5928
  136MOL0     C18665   8.867   8.674   0.769  0.2916 -0.5995 -0.5997
  136MOL0     O18666   8.971   8.586   0.776  0.6823  0.6641 -0.5617
  136MOL0     C18667   9.106   8.634   0.808  0.1786 -0.1410 -0.1955
  136MOL0     C18668   9.220   8.552   0.754  0.8554  0.6781 -0.1079
  136MOL0     C18669   9.214   8.542   0.599  0.0521  0.1128  1.0397
  136MOL0     C18670   9.316   8.442   0.540  0.0183  0.2321  0.0436
  136MOL0     C18671   9.301   8.420   0.389 -0.3959 -0.8328  0.3124
  136MOL0     C18672   9.404   8.318   0.319 -0.0227 -0.7547  0.2276
  136MOL0     C18673   9.391   8.167   0.364 -0.6681  0.2859 -0.2636
  136MOL0     C18674   9.455   8.070   0.260 -0.1040  0.0373 -0.2968
  136MOL0    Cl18675   9.455   7.907   0.334  0.0769 -0.1575  0.2430
  136MOL0     C18676   8.743   8.618   0.800 -0.0983 -0.2498  0.1638
  136MOL0     C18677   8.625   8.700   0.796 -0.1037  0.3301  0.3563
  136MOL0     O18678   8.529   9.008   0.979  0.4520 -0.2488  0.5715
  136MOL0     C18679   8.306   9.092   0.716  0.3925  0.3815 -0.7548
  136MOL0     C18680   8.187   9.162   0.694 -0.2132 -0.2962  0.2668
  136MOL0     N18681   7.343   9.245   0.921 -0.0519 -0.3650  0.2631
  136MOL0     N18682   7.237   9.272   0.864  0.5593 -0.5575  0.4141
  136MOL0     C18683   6.464   9.664   0.115 -0.5447 -0.3293 -0.3610
  136MOL0     C18684   6.403   9.786   0.144 -0.3979 -0.1810  0.2126
  136MOL0     C18685   6.391  10.261   0.187  0.4059 -0.8400  0.4347
  136MOL0     C18686   6.466  10.378   0.185  0.1376  0.2451  0.4462
  136MOL0     C18687   6.409  10.497   0.207 -0.4031 -0.1063  0.2533
  136MOL0     C18688   6.273  10.521   0.244 -0.2920  0.7639 -0.4829
  136MOL0     O18689   6.213  10.637   0.282 -1.0022  0.9658  0.6375
  136MOL0     C18690   6.289  10.756   0.302  0.0080  0.0327  0.2990
  136MOL0     C18691   6.213  10.864   0.386 -0.8412  0.4344  0.0849
  136MOL0     C18692   6.053  10.847   0.373 -1.0440  0.2703  0.0385
  136MOL0     C18693   6.014  10.923   0.243 -0.0763 -0.8136  0.3845
  136MOL0     C18694   5.872  10.894   0.212 -0.5416 -0.5990  0.4370
  136MOL0     C18695   5.757  10.866   0.178 -0.2132  0.7723  0.4748
  136MOL0     C18696   6.193  10.403   0.260 -0.2891  1.0236 -0.0154
  136MOL0     C18697   6.256  10.274   0.228  0.2568  0.3762  1.0970
  136MOL0     C18698   6.158  10.155   0.225 -0.3116 -0.1533  0.8704
  136MOL0     H18699   6.684   9.919   0.287  0.2916 -1.7718  0.8321
  136MOL0     H18700   6.776   9.734   0.214 -0.7463 -2.4250  1.8385
  136MOL0     H18701   6.507   9.415   0.086  0.0003 -0.5673 -0.0046
  136MOL0     H18702   6.544   9.428   0.251 -1.1112 -0.4011 -1.2854
  136MOL0     H18703   6.634   9.200   0.114  0.1192 -1.4263  2.4783
  136MOL0     H18704   6.754   9.312   0.053  2.2377 -1.7714  1.5749
  136MOL0     H18705   6.796   9.370   0.324  2.5207 -0.3236 -0.6169
  136MOL0     H18706   6.700   9.229   0.339 -0.5901 -0.6491 -0.4295
  136MOL0     H18707   6.847   9.097   0.206 -0.5496  0.7575 -1.7646
  136MOL0     H18708   6.954   9.237   0.184  0.9498 -1.8088 -0.4408
  136MOL0     H18709   7.011   9.065   0.375 -1.8172 -1.9450 -0.0590
  136MOL0     H18710   6.903   9.158   0.480  2.4148 -0.6811  0.4302
  136MOL0     H18711   7.108   9.287   0.310 -0.0288 -0.7772 -0.8708
  136MOL0     H18712   7.012   9.374   0.423 -0.9480  1.0036 -3.3496
  136MOL0     H18713   7.232   9.314   0.509 -1.8256  0.9189 -3.3653
  136MOL0     H18714   7.217   9.146   0.473 -2.2752 -2.3420  1.2347
  136MOL0     H18715   7.052   9.280   0.692  1.7991  0.8064 -0.0841
  136MOL0     H18716   7.077   9.100   0.671 -1.9324  0.8895  0.5902
  136MOL0     H18717   7.398   9.080   0.648 -1.1672  0.1654  0.3279
  136MOL0     H18718   7.576   9.021   0.878  2.3682 -0.2535 -1.4294
  136MOL0     H18719   7.576   9.168   0.978  1.9183 -2.0401  0.8557
  136MOL0     H18720   7.666   9.118   0.701  1.1844 -0.3482  0.7239
  136MOL0     H18721   7.627   9.287   0.747 -2.2579 -0.0265  3.4509
  136MOL0     H18722   7.795   9.296   0.911 -1.6189  0.8358 -0.9699
  136MOL0     H18723   7.841   9.125   0.882  1.4477  1.0857 -0.4970
  136MOL0     H18724   7.924   9.168   0.660 -0.9579 -1.1439 -0.4852
  136MOL0     H18725   7.845   9.335   0.673 -1.6456  1.2769  3.3603
  136MOL0     H18726   8.121   9.265   1.000 -0.0322  0.6702  0.6758
  136MOL0     H18727   8.207   9.135   1.149  0.4767 -2.3492  2.1262
  136MOL0     H18728   8.377   9.191   1.127 -0.7500 -0.9036  2.1865
  136MOL0     H18729   8.337   9.018   1.119  0.1570 -1.1134 -1.9079
  136MOL0     H18730   8.750   8.978   0.670 -2.5756  0.3256 -0.8744
  136MOL0     H18731   8.955   8.854   0.685  0.5027 -1.3628 -1.5614
  136MOL0     H18732   9.112   8.735   0.765  1.2099 -0.0259  0.1936
  136MOL0     H18733   9.117   8.626   0.916 -0.6132 -0.4432 -0.1311
  136MOL0     H18734   9.317   8.594   0.780  0.1450  1.3066  1.6526
  136MOL0     H18735   9.207   8.452   0.797 -1.0342  0.2871 -1.4413
  136MOL0     H18736   9.212   8.636   0.543 -3.4747 -0.4235 -0.0102
  136MOL0     H18737   9.113   8.504   0.579  0.3575 -0.7729  1.1182
  136MOL0     H18738   9.300   8.347   0.592  0.2012  0.7312  1.0366
  136MOL0     H18739   9.414   8.485   0.563  0.8120 -1.8867  0.8517
  136MOL0     H18740   9.204   8.375   0.365  0.4229 -1.8002 -1.3524
  136MOL0     H18741   9.318   8.515   0.339 -0.3089 -0.9551  0.1067
  136MOL0     H18742   9.505   8.352   0.342 -0.1353  0.9955 -1.5673
  136MOL0     H18743   9.390   8.327   0.211 -0.7955 -0.1204  0.3611
  136MOL0     H18744   9.284   8.149   0.378 -0.4239 -0.3186  0.9392
  136MOL0     H18745   9.440   8.152   0.461 -0.5171  2.1566 -0.0138
  136MOL0     H18746   9.560   8.096   0.244 -1.0421  1.9382 -5.0036
  136MOL0     H18747   9.393   8.077   0.171 -2.1882 -1.6629  0.9401
  136MOL0     H18748   8.749   8.514   0.830 -1.5551 -0.0129  1.3929
  136MOL0     H18749   8.529   8.659   0.824  1.2267 -2.9645  0.5620
  136MOL0     H18750   8.353   9.041   0.632  2.4915 -0.4490  0.8511
  136MOL0     H18751   8.146   9.169   0.594 -0.7630  2.2428  0.6143
  136MOL0     H18752   6.397   9.591   0.070 -1.4132 -0.2394  0.7459
  136MOL0     H18753   6.300   9.807   0.118 -0.3721  1.3775  1.2631
  136MOL0     H18754   6.575  10.376   0.180  0.1480  0.7435  0.4643
  136MOL0     H18755   6.481  10.577   0.221  0.9406 -0.2582 -4.2801
  136MOL0     H18756   6.381  10.728   0.355 -1.2283 -2.1280  1.4537
  136MOL0     H18757   6.312  10.792   0.202  1.3559  0.8597  0.8817
  136MOL0     H18758   6.243  10.966   0.362 -0.3257  0.3455  0.3372
  136MOL0     H18759   6.239  10.861   0.492 -1.4382 -1.5663  0.2088
  136MOL0     H18760   6.026  10.741   0.374  0.9322 -0.2668  0.1995
  136MOL0     H18761   6.007  10.896   0.460 -1.2964  0.0533  0.0286
  136MOL0     H18762   6.070  10.883   0.158  0.7628 -0.8066  0.9161
  136MOL0     H18763   6.028  11.030   0.259 -1.8344 -0.7801  2.2017
  136MOL0     H18764   5.659  10.842   0.141  0.6047 -1.4091 -0.4921
  136MOL0     H18765   6.089  10.414   0.287 -0.6254  2.7276 -1.7283
  136MOL0     H18766   6.057  10.196   0.212 -0.4977 -0.0540  2.4302
  136MOL0     H18767   6.178  10.091   0.139 -1.9467  0.5216 -0.0668
  136MOL0     H18768   6.148  10.106   0.323 -1.6091 -1.0971  0.2871
  137MOL0     O18769   5.012   1.760  10.032  0.5891  0.7774 -0.9834
  137MOL0     C18770   4.925   1.688   9.985  0.9179  0.1592 -0.2583
  137MOL0     O18771   4.938   1.566   9.923 -0.3212  0.7474 -0.3791
  137MOL0     C18772   5.061   1.516   9.899 -0.2791 -0.4799 -0.7566
  137MOL0     C18773   5.125   1.449  10.006  0.1209  0.0610  0.4527
  137MOL0     C18774   5.257   1.394   9.984  0.4790 -1.5880 -0.2969
  137MOL0     C18775   5.312   1.407   9.855 -0.1589 -0.4784  1.0284
  137MOL0     O18776   5.438   1.368   9.807  0.0626  0.0034  0.2084
  137MOL0     C18777   5.538   1.347   9.910 -0.4561 -0.0069  0.0867
  137MOL0     C18778   5.682   1.361   9.850  0.2821  0.5307 -0.2977
  137MOL0     C18779   5.803   1.330   9.943 -0.3346 -0.0722 -0.2886
  137MOL0     C18780   5.940   1.383   9.903  0.7763 -0.5065  0.8342
  137MOL0     C18781   6.049   1.317   9.980 -0.1014  0.4326  0.6782
  137MOL0     C18782   6.192   1.356   9.917 -0.3442 -0.8845  0.3980
  137MOL0     C18783   6.297   1.262   9.970 -0.3434  0.4657  0.5222
  137MOL0     C18784   6.430   1.285   9.893 -0.0663  0.1182 -0.8734
  137MOL0     N18785   6.533   1.179   9.926 -0.6941 -0.0506 -0.0047
  137MOL0     C18786   6.598   1.177  10.044  0.0222 -0.3773 -0.9569
  137MOL0     C18787   6.696   1.087  10.027 -0.3750 -0.1968  0.4102
  137MOL0     C18788   6.804   1.045  10.126  0.7473  0.3660 -0.4901
  137MOL0     C18789   6.941   1.095  10.102  1.7593 -0.0071  0.3090
  137MOL0     C18790   7.056   1.026  10.173 -0.3291  0.2468  0.2755
  137MOL0     C18791   7.182   1.069  10.094  0.3505  0.3044  0.1369
  137MOL0     O18792   7.295   0.979  10.130 -0.2881 -0.5322  0.0464
  137MOL0     C18793   7.413   0.984  10.060  0.4307  0.2869 -0.1505
  137MOL0     C18794   7.441   1.066   9.944  0.4100  0.0681  0.6841
  137MOL0     C18795   7.565   1.045   9.872 -0.3630  0.2622  0.5664
  137MOL0     C18796   7.572   1.121   9.744  0.0154  0.3199  0.5234
  137MOL0     C18797   7.662   0.952   9.919  0.5804 -0.5166 -0.0173
  137MOL0     C18798   7.790   0.933   9.852  0.1112 -0.4437  0.1173
  137MOL0     O18799   7.826   1.011   9.752 -0.1434 -0.4204  0.4422
  137MOL0     C18800   7.952   1.005   9.706  0.0065  0.0106 -0.2968
  137MOL0     C18801   8.044   1.099   9.755 -0.6736  0.2122  0.6057
  137MOL0     C18802   8.176   1.095   9.698  1.0186  0.6749  0.2745
  137MOL0     C18803   8.211   1.000   9.598 -0.6050  0.0460  0.7612
  137MOL0     O18804   8.337   1.012   9.537 -0.0421  0.8916  0.1313
  137MOL0     C18805   8.406   0.893   9.494 -0.6598 -0.6092 -0.2322
  137MOL0     C18806   8.548   0.932   9.462 -0.6654 -0.1155 -0.4165
  137MOL0     C18807   8.617   0.838   9.363 -0.2771 -0.1737 -1.6026
  137MOL0     C18808   8.761   0.888   9.336 -0.1446 -0.1091  0.7809
  137MOL0     C18809   8.832   0.794   9.247  0.2369  0.0398 -0.4335
  137MOL0     C18810   8.966   0.861   9.206 -0.7455  0.9301  0.0614
  137MOL0     C18811   9.043   0.788   9.091  0.1560 -0.3385  0.3349
  137MOL0     C18812   9.121   0.677   9.152 -0.3129  0.6694  0.1466
  137MOL0    Cl18813   9.259   0.735   9.255 -0.2202 -0.2691 -0.4229
  137MOL0     C18814   8.116   0.903   9.557 -0.9783  0.2470 -0.4075
  137MOL0     C18815   7.982   0.909   9.611  0.1561 -0.6768  1.1322
  137MOL0     O18816   7.864   0.854   9.911 -1.0934  0.7130 -0.0078
  137MOL0     C18817   7.637   0.890  10.037  0.8685  0.1746 -1.1335
  137MOL0     C18818   7.511   0.901  10.106 -0.9216 -0.5067  0.0623
  137MOL0     N18819   6.684   1.018   9.905 -0.0674 -0.7923 -0.1722
  137MOL0     N18820   6.587   1.084   9.845  0.2753 -0.3497  0.3745
  137MOL0     C18821   5.236   1.470   9.747 -0.1382  0.2535  0.4996
  137MOL0     C18822   5.109   1.519   9.773  0.3519  0.0315  0.2507
  137MOL0     C18823   4.780   1.737   9.997  0.2966 -0.0287  0.4686
  137MOL0     C18824   4.762   1.856  10.064  0.3450  0.0264  0.3489
  137MOL0     C18825   4.636   1.925  10.071 -0.4907  0.5659 -0.2322
  137MOL0     C18826   4.522   1.878   9.998 -0.5827 -0.2010 -0.6013
  137MOL0     O18827   4.393   1.926   9.997 -0.2073 -0.2523  0.1657
  137MOL0     C18828   4.372   2.039  10.095  1.4309  1.0349  0.0863
  137MOL0     C18829   4.224   2.049  10.143 -0.3116  0.5580 -0.9770
  137MOL0     C18830   4.183   1.943  10.245 -0.3521  0.5373 -0.6874
  137MOL0     C18831   4.180   1.801  10.180  1.0953 -0.2373 -0.8573
  137MOL0     C18832   4.110   1.720  10.289  0.3405  0.5477  0.4396
  137MOL0     C18833   4.056   1.650  10.373 -0.2229  0.1605  0.6404
  137MOL0     C18834   4.542   1.760   9.926  0.1404  0.0738 -0.3171
  137MOL0     C18835   4.669   1.695   9.918 -0.9282  0.4079 -0.7584
  137MOL0     C18836   4.691   1.598   9.807 -0.0407  0.4045 -0.5918
  137MOL0     H18837   5.078   1.432  10.102 -1.6241  0.0886 -0.3559
  137MOL0     H18838   5.321   1.349  10.059 -1.1710 -0.0789  2.1538
  137MOL0     H18839   5.525   1.242   9.941 -3.8272  0.7253  1.5673
  137MOL0     H18840   5.523   1.406  10.001 -1.1199  0.5101 -0.3525
  137MOL0     H18841   5.680   1.300   9.759 -1.9204  0.4500 -0.2293
  137MOL0     H18842   5.694   1.463   9.810  1.7230 -0.1984 -1.8675
  137MOL0     H18843   5.772   1.378  10.036 -3.3543 -1.2419 -0.6123
  137MOL0     H18844   5.818   1.224   9.964  1.0087 -0.0404 -0.9083
  137MOL0     H18845   5.954   1.380   9.795 -0.4145  1.3129  0.5931
  137MOL0     H18846   5.948   1.489   9.932  0.0253 -0.0687 -0.4952
  137MOL0     H18847   6.041   1.208   9.987 -0.8042  0.5532  2.1820
  137MOL0     H18848   6.049   1.346  10.086  0.7872  0.0440  0.7955
  137MOL0     H18849   6.194   1.349   9.808  0.2285 -0.5453  0.3795
  137MOL0     H18850   6.199   1.462   9.943 -3.3738 -0.2499 -0.9192
  137MOL0     H18851   6.260   1.161   9.953 -1.0607  0.2387  3.0275
  137MOL0     H18852   6.316   1.269  10.077 -3.6912 -3.3600  1.6273
  137MOL0     H18853   6.411   1.278   9.785 -1.2409  0.2177 -0.6850
  137MOL0     H18854   6.472   1.385   9.908  0.5040 -0.2832  0.3089
  137MOL0     H18855   6.597   1.254  10.121  4.0577  0.0628 -1.1399
  137MOL0     H18856   6.812   0.936  10.119  0.0776  0.2104  0.8398
  137MOL0     H18857   6.776   1.069  10.229  2.7720  2.0609 -0.2933
  137MOL0     H18858   6.953   1.077   9.995 -0.9625 -0.0998 -0.0550
  137MOL0     H18859   6.934   1.201  10.130 -2.3874  0.0521 -0.2210
  137MOL0     H18860   7.062   1.038  10.281  1.4622 -1.2889  0.3872
  137MOL0     H18861   7.043   0.918  10.158  0.5443  0.1196  0.3541
  137MOL0     H18862   7.155   1.074   9.988 -1.0825  0.5791  0.5025
  137MOL0     H18863   7.222   1.166  10.123 -0.9949  0.2172  2.5264
  137MOL0     H18864   7.363   1.131   9.905 -0.2036 -1.6492 -1.0737
  137MOL0     H18865   7.552   1.057   9.658  0.6182 -0.7142  1.1334
  137MOL0     H18866   7.664   1.179   9.734 -0.4168  0.9429  0.0679
  137MOL0     H18867   7.491   1.194   9.733 -0.8081 -0.5873  0.4752
  137MOL0     H18868   8.007   1.175   9.823 -0.0448  0.6642  0.4510
  137MOL0     H18869   8.246   1.168   9.739 -0.9576  0.6649  4.0831
  137MOL0     H18870   8.415   0.820   9.575 -0.5066  2.6220  2.8617
  137MOL0     H18871   8.347   0.847   9.414  0.5838 -2.8057  0.0248
  137MOL0     H18872   8.548   1.035   9.424  1.1260 -0.5534 -1.7151
  137MOL0     H18873   8.608   0.935   9.554 -0.3179 -2.1193 -0.5321
  137MOL0     H18874   8.562   0.826   9.269 -0.9536 -2.5978 -0.9735
  137MOL0     H18875   8.621   0.736   9.402 -3.7397 -0.4887 -1.7334
  137MOL0     H18876   8.810   0.905   9.432 -3.5947 -3.0996  3.3625
  137MOL0     H18877   8.746   0.980   9.278 -0.2288 -1.6722 -1.8134
  137MOL0     H18878   8.855   0.698   9.294  0.6809  1.5798  2.6943
  137MOL0     H18879   8.774   0.777   9.155 -0.5971  2.8649 -0.5333
  137MOL0     H18880   9.028   0.875   9.295  0.6923 -2.7112 -0.1996
  137MOL0     H18881   8.961   0.963   9.168 -0.6358  0.6302 -0.7863
  137MOL0     H18882   9.119   0.862   9.062  0.1097  1.3431  3.9363
  137MOL0     H18883   8.976   0.759   9.010 -0.1379 -2.8448  1.3977
  137MOL0     H18884   9.159   0.620   9.067 -0.4520  0.3781  0.2801
  137MOL0     H18885   9.068   0.603   9.212  1.0840 -0.1859  0.3775
  137MOL0     H18886   8.145   0.831   9.482  2.3860  2.7008 -1.6953
  137MOL0     H18887   7.900   0.843   9.586 -1.1510  1.9670 -2.5064
  137MOL0     H18888   7.702   0.818  10.083 -1.0017 -0.8058  0.1002
  137MOL0     H18889   7.503   0.846  10.199 -1.6202  0.7680  0.7869
  137MOL0     H18890   5.271   1.496   9.648 -1.2452 -1.2416 -0.3223
  137MOL0     H18891   5.050   1.566   9.695 -1.0847 -1.1516  0.5844
  137MOL0     H18892   4.835   1.908  10.126  0.3428  2.7527 -1.7429
  137MOL0     H18893   4.639   2.017  10.127  0.7725  3.6777 -4.8013
  137MOL0     H18894   4.438   2.028  10.182  1.1389  1.0880  0.3155
  137MOL0     H18895   4.395   2.136  10.050 -1.5279  0.8051 -2.2901
  137MOL0     H18896   4.158   2.044  10.056  0.1520  2.5352 -1.4969
  137MOL0     H18897   4.200   2.145  10.190 -1.3832  0.0246 -0.4141
  137MOL0     H18898   4.249   1.945  10.333 -1.1009 -1.7273 -0.0177
  137MOL0     H18899   4.085   1.963  10.289  0.1092 -1.2946  1.3840
  137MOL0     H18900   4.279   1.757  10.168  0.5748 -1.7067 -0.0164
  137MOL0     H18901   4.111   1.799  10.095 -0.4428  2.7842  0.1773
  137MOL0     H18902   4.002   1.587  10.442  2.2108 -0.8008  1.7857
  137MOL0     H18903   4.467   1.729   9.853 -1.1453 -4.3672  2.5441
  137MOL0     H18904   4.723   1.500   9.843 -3.5027 -0.2577  1.0950
  137MOL0     H18905   4.592   1.578   9.765  0.3363 -2.5633 -0.2350
  137MOL0     H18906   4.762   1.634   9.731  0.4210  2.0054  0.5328
  138MOL0     O18907   1.102   9.818   4.263  0.8257  0.2099  0.4045
  138MOL0     C18908   1.070   9.830   4.383 -0.9486 -0.1927  0.0949
  138MOL0     O18909   1.159   9.837   4.488 -0.1915 -0.1685  0.2424
  138MOL0     C18910   1.292   9.834   4.456  0.0652 -0.5729  1.3802
  138MOL0     C18911   1.355   9.912   4.349 -0.0187 -0.3085 -0.3696
  138MOL0     C18912   1.497   9.926   4.343  0.1126  0.9946  0.2732
  138MOL0     C18913   1.579   9.860   4.437  0.5997 -0.6463 -0.1290
  138MOL0     O18914   1.717   9.878   4.431 -0.9047  0.5070 -0.3834
  138MOL0     C18915   1.789   9.866   4.312  0.1971  0.4273  0.8447
  138MOL0     C18916   1.913   9.940   4.310 -0.2430 -0.4171  0.0530
  138MOL0     C18917   2.022   9.888   4.414  0.6325  0.5975 -0.4876
  138MOL0     C18918   2.085   9.746   4.390 -0.0277 -0.1090 -0.4658
  138MOL0     C18919   2.187   9.694   4.496 -0.2249  0.8031  0.4134
  138MOL0     C18920   2.305   9.788   4.507  0.6798 -0.5926  0.5528
  138MOL0     C18921   2.421   9.720   4.571  0.0004  0.1923 -0.3523
  138MOL0     C18922   2.547   9.808   4.601 -0.1564 -0.0854  0.3896
  138MOL0     N18923   2.654   9.739   4.666  0.0713 -0.6112 -0.0589
  138MOL0     C18924   2.648   9.662   4.780  0.9336 -0.5097  0.4736
  138MOL0     C18925   2.770   9.620   4.804  0.0018 -0.5496  0.2255
  138MOL0     C18926   2.795   9.555   4.934  0.0276  0.0958 -0.1695
  138MOL0     C18927   2.933   9.492   4.939 -0.9579 -0.8948  0.5383
  138MOL0     C18928   2.969   9.444   5.089  0.1341  0.2486  0.5235
  138MOL0     C18929   3.112   9.398   5.105 -0.1505 -0.5006  0.0267
  138MOL0     O18930   3.195   9.515   5.102 -0.9925 -0.0829  0.1521
  138MOL0     C18931   3.333   9.493   5.123  0.7729 -0.0959 -0.4274
  138MOL0     C18932   3.405   9.386   5.072  0.3508  0.6794 -0.5212
  138MOL0     C18933   3.546   9.379   5.099 -0.3383  0.3358  0.0024
  138MOL0     C18934   3.614   9.260   5.036 -0.3180  0.1285  0.4086
  138MOL0     C18935   3.604   9.474   5.179  0.3398 -0.4224  0.3368
  138MOL0     C18936   3.746   9.469   5.224  0.1462 -0.4676  0.2426
  138MOL0     O18937   3.791   9.402   5.330 -0.0873  0.5175 -0.5836
  138MOL0     C18938   3.937   9.401   5.344  0.4884  0.7775  0.4282
  138MOL0     C18939   4.015   9.296   5.284 -0.2598 -0.1682  0.1942
  138MOL0     C18940   4.158   9.299   5.294 -0.6336  0.6700  0.2467
  138MOL0     C18941   4.228   9.398   5.370  0.5471 -0.7648 -0.4978
  138MOL0     O18942   4.360   9.428   5.372  0.1565  0.1670  0.3820
  138MOL0     C18943   4.440   9.314   5.346  0.0150  0.2229 -0.0127
  138MOL0     C18944   4.575   9.344   5.398 -0.3235  0.2227 -0.7108
  138MOL0     C18945   4.644   9.467   5.350 -0.1820  0.0443  0.5841
  138MOL0     C18946   4.788   9.465   5.403 -0.6658 -0.6754  0.4408
  138MOL0     C18947   4.868   9.591   5.364  0.5894 -0.6607 -0.1019
  138MOL0     C18948   4.823   9.715   5.453  0.1159 -0.7238  0.2833
  138MOL0     C18949   4.905   9.837   5.416 -1.0165  0.5132 -0.0503
  138MOL0     C18950   4.858   9.948   5.505  0.0130  0.1898 -0.6358
  138MOL0    Cl18951   4.699  10.013   5.434  0.5934  0.3009 -0.0836
  138MOL0     C18952   4.140   9.495   5.432 -0.1734 -0.5970  0.6017
  138MOL0     C18953   4.003   9.497   5.415  0.5303 -0.0801  0.6545
  138MOL0     O18954   3.816   9.548   5.153  0.6790  0.2050  0.7944
  138MOL0     C18955   3.529   9.584   5.228 -0.5436  0.3554  0.4336
  138MOL0     C18956   3.393   9.590   5.199 -0.6582  0.1620 -0.3043
  138MOL0     N18957   2.854   9.694   4.727 -0.2628 -0.1971 -0.2839
  138MOL0     N18958   2.785   9.764   4.640  0.0590  0.3520 -0.2878
  138MOL0     C18959   1.519   9.791   4.543  0.6094 -0.3371 -0.7021
  138MOL0     C18960   1.383   9.775   4.550 -0.1343 -0.8689  0.3707
  138MOL0     C18961   0.924   9.826   4.413  0.2520 -0.2374  0.3064
  138MOL0     C18962   0.832   9.818   4.309  0.0901  0.4531  0.3438
  138MOL0     C18963   0.691   9.804   4.324  0.3290  0.3239  0.1157
  138MOL0     C18964   0.645   9.804   4.450 -0.2455 -0.3502 -0.3944
  138MOL0     O18965   0.523   9.808   4.490  0.4538  0.1292 -0.3486
  138MOL0     C18966   0.417   9.809   4.387  0.9456  0.8395 -0.1655
  138MOL0     C18967   0.274   9.813   4.446  0.1853  0.4116  0.1569
  138MOL0     C18968   0.242   9.715   4.561  0.1529  0.1923  0.7512
  138MOL0     C18969   0.233   9.568   4.513  0.3301 -1.4188  0.1527
  138MOL0     C18970   0.135   9.495   4.594  0.8276 -0.4456 -0.2745
  138MOL0     C18971   0.056   9.432   4.665  0.6766 -0.2830 -0.2271
  138MOL0     C18972   0.732   9.803   4.565 -0.5584 -0.9245 -0.3963
  138MOL0     C18973   0.869   9.823   4.547  0.4086 -0.1597 -0.7532
  138MOL0     C18974   0.957   9.806   4.673  0.3243 -0.6478  0.0506
  138MOL0     H18975   1.291   9.968   4.282 -0.7938 -1.6853 -0.8228
  138MOL0     H18976   1.543   9.992   4.270  3.1330 -1.4199 -0.2206
  138MOL0     H18977   1.727   9.896   4.227  1.4916  0.5573 -0.0642
  138MOL0     H18978   1.803   9.759   4.300 -4.5014 -0.4459  1.1885
  138MOL0     H18979   1.962   9.940   4.212  0.2021  0.6060  0.2651
  138MOL0     H18980   1.887  10.040   4.346 -2.0675 -1.3549  1.4629
  138MOL0     H18981   2.101   9.962   4.432  1.8937  0.0729 -3.4120
  138MOL0     H18982   1.969   9.884   4.510 -0.6709 -0.3757 -1.2176
  138MOL0     H18983   2.003   9.674   4.389 -0.5933  0.5045 -1.8344
  138MOL0     H18984   2.127   9.738   4.289  3.7666  0.3570  0.9054
  138MOL0     H18985   2.208   9.590   4.469 -0.1424  1.0210 -0.3969
  138MOL0     H18986   2.138   9.692   4.594 -1.4011  1.1611 -0.1516
  138MOL0     H18987   2.315   9.823   4.404  0.9374  1.0322  1.0908
  138MOL0     H18988   2.280   9.874   4.570  0.7372 -0.7538  0.7965
  138MOL0     H18989   2.459   9.638   4.508  0.6751  2.2633 -2.8068
  138MOL0     H18990   2.390   9.685   4.670 -0.1719  1.2273 -0.0380
  138MOL0     H18991   2.582   9.856   4.509  1.1042  0.5082  1.1475
  138MOL0     H18992   2.523   9.895   4.663  1.9451 -0.0358  1.2464
  138MOL0     H18993   2.561   9.640   4.842 -1.4662 -0.0424 -2.4975
  138MOL0     H18994   2.714   9.483   4.954 -0.3255 -0.0699 -2.0092
  138MOL0     H18995   2.775   9.635   5.006 -4.4024 -0.7133 -0.2266
  138MOL0     H18996   2.935   9.404   4.875  0.6976 -0.7147  0.2832
  138MOL0     H18997   3.007   9.569   4.916 -2.4793  0.8435  1.2010
  138MOL0     H18998   2.949   9.525   5.159  0.5352 -0.9486  2.0975
  138MOL0     H18999   2.904   9.360   5.118 -0.6938  0.8138  0.3493
  138MOL0     H19000   3.131   9.354   5.203  1.7504 -0.4594 -0.2826
  138MOL0     H19001   3.122   9.316   5.033 -2.2165 -1.7986  1.1272
  138MOL0     H19002   3.361   9.305   5.014 -0.5204  0.9817 -0.2961
  138MOL0     H19003   3.676   9.286   4.949  0.1706 -0.0402  0.7068
  138MOL0     H19004   3.538   9.192   4.996  1.9763 -0.3597 -3.7303
  138MOL0     H19005   3.664   9.208   5.118  1.0898  2.4432  1.0876
  138MOL0     H19006   3.954   9.239   5.216 -0.7165  0.8260 -0.2544
  138MOL0     H19007   4.217   9.230   5.235  0.0244  0.8659  0.6614
  138MOL0     H19008   4.409   9.215   5.380  2.9643 -1.6893 -2.3753
  138MOL0     H19009   4.440   9.296   5.239 -2.6160  0.5742 -0.1340
  138MOL0     H19010   4.569   9.354   5.507  4.0459 -0.4801 -0.2180
  138MOL0     H19011   4.630   9.251   5.382 -0.1746 -0.1474  1.6637
  138MOL0     H19012   4.579   9.551   5.378 -1.2123 -0.9652  1.2888
  138MOL0     H19013   4.637   9.455   5.241 -1.2943 -1.8347  0.8255
  138MOL0     H19014   4.835   9.382   5.350 -1.5981 -0.1971 -1.2084
  138MOL0     H19015   4.779   9.441   5.510  0.7743 -3.1434  0.0834
  138MOL0     H19016   4.977   9.576   5.368  1.0988  2.4640  1.2148
  138MOL0     H19017   4.851   9.632   5.264 -0.4197  2.6737  1.2893
  138MOL0     H19018   4.847   9.692   5.558  3.4597  0.0100 -0.1809
  138MOL0     H19019   4.718   9.740   5.439 -0.2724 -1.8765  0.9438
  138MOL0     H19020   4.900   9.865   5.310 -0.1108 -4.3223 -1.6353
  138MOL0     H19021   5.012   9.834   5.439 -0.9932 -0.8224 -0.2768
  138MOL0     H19022   4.926  10.032   5.494 -1.1084  1.1136 -0.6819
  138MOL0     H19023   4.852   9.915   5.609  4.6225 -0.4808 -0.3773
  138MOL0     H19024   4.185   9.574   5.490 -0.9631 -0.3560  0.9084
  138MOL0     H19025   3.952   9.574   5.472 -1.1256 -1.4888  1.1730
  138MOL0     H19026   3.572   9.660   5.293  0.5131 -0.2384  0.4449
  138MOL0     H19027   3.337   9.669   5.247 -3.5032 -1.7282 -0.3002
  138MOL0     H19028   1.583   9.755   4.624 -0.0723  2.5870  1.2851
  138MOL0     H19029   1.340   9.733   4.641  1.4045 -0.6200  1.2464
  138MOL0     H19030   0.872   9.810   4.208  1.3187 -0.7356  0.8968
  138MOL0     H19031   0.622   9.814   4.241 -1.3481  2.1863  1.6282
  138MOL0     H19032   0.430   9.885   4.309  0.1840  1.0827 -0.0574
  138MOL0     H19033   0.431   9.716   4.332  1.0508  0.1698  0.9711
  138MOL0     H19034   0.193   9.805   4.374  1.4962  0.4288 -1.3689
  138MOL0     H19035   0.277   9.909   4.498  0.7507 -0.6026  2.1169
  138MOL0     H19036   0.327   9.723   4.629  1.2671 -0.0871 -0.5651
  138MOL0     H19037   0.147   9.745   4.607  1.3939  0.9350  2.9743
  138MOL0     H19038   0.330   9.517   4.519  0.5040 -1.0634  0.3674
  138MOL0     H19039   0.196   9.564   4.410 -0.7761 -0.3227  0.4848
  138MOL0     H19040  -0.010   9.366   4.718 -0.5320  0.1667 -1.1300
  138MOL0     H19041   0.702   9.802   4.669  1.5876 -1.9340  0.2770
  138MOL0     H19042   1.015   9.898   4.682 -0.3576 -0.3518  2.0333
  138MOL0     H19043   0.893   9.803   4.762  1.6392  1.1969  1.1482
  138MOL0     H19044   1.025   9.722   4.662 -1.0747 -1.6859 -1.1524
  139MOL0     O19045   7.227   8.214   9.074 -0.3488 -0.8963 -0.4317
  139MOL0     C19046   7.224   8.301   9.156 -0.2870  0.1341 -1.0748
  139MOL0     O19047   7.316   8.314   9.254  0.3177  0.0931  0.6518
  139MOL0     C19048   7.434   8.243   9.248  0.1513  0.1134  0.7225
  139MOL0     C19049   7.496   8.229   9.368 -0.6287 -0.0986  0.1218
  139MOL0     C19050   7.626   8.170   9.374  0.1683 -0.5835 -0.7914
  139MOL0     C19051   7.696   8.128   9.266  0.8195  0.2666  0.1330
  139MOL0     O19052   7.817   8.067   9.280  0.1206  1.2173 -0.0612
  139MOL0     C19053   7.925   8.096   9.193 -0.0999 -0.2452 -0.3380
  139MOL0     C19054   8.069   8.039   9.228 -0.1294  0.0801  0.3228
  139MOL0     C19055   8.118   8.063   9.366 -0.5956 -0.6988 -0.2061
  139MOL0     C19056   8.255   7.992   9.387  0.4495 -1.0084  0.1453
  139MOL0     C19057   8.324   7.986   9.522 -0.5964 -0.0325 -0.2307
  139MOL0     C19058   8.465   7.938   9.513 -0.1955 -0.3802 -0.4316
  139MOL0     C19059   8.521   7.901   9.653  0.0390  0.5481  0.1631
  139MOL0     C19060   8.666   7.857   9.647 -0.0031  0.0946 -0.5158
  139MOL0     N19061   8.701   7.821   9.786  0.8521 -0.7497  0.3500
  139MOL0     C19062   8.735   7.699   9.829  0.0025 -1.1842 -0.0075
  139MOL0     C19063   8.740   7.707   9.967 -0.0239  0.5118  0.4002
  139MOL0     C19064   8.768   7.594  10.060 -0.5353 -0.3900  0.0758
  139MOL0     C19065   8.814   7.640  10.198 -0.3224 -0.3066  0.0305
  139MOL0     C19066   8.878   7.533  10.276 -0.6590 -0.9501 -0.2584
  139MOL0     C19067   8.926   7.564  10.420  0.1818 -0.2167  0.0418
  139MOL0     O19068   8.969   7.440  10.473 -0.2475  0.4910 -0.5403
  139MOL0     C19069   9.052   7.443  10.585 -0.2582 -0.0099 -0.0451
  139MOL0     C19070   9.113   7.325  10.619  0.8736  0.9184 -0.3053
  139MOL0     C19071   9.197   7.308  10.732  1.0145 -0.7175  0.2609
  139MOL0     C19072   9.263   7.177  10.746 -0.6665  0.4304 -0.4268
  139MOL0     C19073   9.227   7.420  10.821 -0.4396  0.4521  1.1066
  139MOL0     C19074   9.321   7.425  10.930  0.1004  0.2714  0.3359
  139MOL0     O19075   9.353   7.545  10.985  0.1359 -0.0453  0.1481
  139MOL0     C19076   9.426   7.545  11.096 -0.0149 -0.3680  0.2994
  139MOL0     C19077   9.377   7.499  11.215 -0.2443  0.0238  0.5831
  139MOL0     C19078   9.460   7.505  11.326  0.4684 -0.4942 -0.1546
  139MOL0     C19079   9.593   7.543  11.322  0.1889 -0.7517  0.3510
  139MOL0     O19080   9.666   7.541  11.438 -0.4374  0.1509  0.0715
  139MOL0     C19081   9.778   7.631  11.472  0.1832 -0.4005 -0.2309
  139MOL0     C19082   9.729   7.753  11.554 -0.2004 -0.3607  0.0300
  139MOL0     C19083   9.846   7.837  11.616  0.0442  0.3650  0.3707
  139MOL0     C19084   9.820   7.888  11.760  0.6858  0.0654 -0.3203
  139MOL0     C19085   9.940   7.952  11.829 -0.1069 -0.7221 -0.8729
  139MOL0     C19086   9.912   7.980  11.984  0.1266 -0.7383  0.5129
  139MOL0     C19087   9.833   8.113  11.988 -0.5376  0.3302  0.7333
  139MOL0     C19088   9.854   8.181  12.133 -0.3194  0.1541  0.5428
  139MOL0    Cl19089   9.814   8.061  12.267 -0.2457 -0.2487 -0.0595
  139MOL0     C19090   9.641   7.604  11.204  1.0979 -0.0067  0.8769
  139MOL0     C19091   9.554   7.610  11.087 -0.0024  0.8522 -0.4187
  139MOL0     O19092   9.372   7.316  10.969 -0.4355  0.4250  0.8324
  139MOL0     C19093   9.166   7.549  10.779 -0.1385  0.0595 -0.1372
  139MOL0     C19094   9.088   7.558  10.667  0.0931 -0.1067  0.3508
  139MOL0     N19095   8.732   7.842   9.993 -0.4981 -0.1637  0.1547
  139MOL0     N19096   8.704   7.916   9.887  0.1263  0.0125  0.2263
  139MOL0     C19097   7.631   8.142   9.141 -0.7017 -0.0558 -1.1569
  139MOL0     C19098   7.508   8.202   9.130 -0.6719 -0.3298  0.4518
  139MOL0     C19099   7.113   8.397   9.156  0.8221  0.5889  0.0861
  139MOL0     C19100   7.119   8.507   9.248 -0.2374 -0.0099  0.4378
  139MOL0     C19101   7.014   8.594   9.272 -0.3084 -0.5443 -1.2341
  139MOL0     C19102   6.893   8.571   9.208  0.2457 -0.2346  0.2549
  139MOL0     O19103   6.796   8.663   9.223 -0.3509  0.6025  0.0289
  139MOL0     C19104   6.675   8.613   9.265  0.2245 -0.0549 -1.4304
  139MOL0     C19105   6.556   8.700   9.216 -0.0529  0.4196 -0.3750
  139MOL0     C19106   6.419   8.655   9.257  1.0082  0.2088  0.0534
  139MOL0     C19107   6.321   8.770   9.302  0.1821 -0.6157 -0.1019
  139MOL0     C19108   6.193   8.726   9.347 -0.0207 -0.6401 -0.5757
  139MOL0     C19109   6.078   8.703   9.389 -0.2884  0.0883 -0.6234
  139MOL0     C19110   6.885   8.465   9.114  0.1636 -0.6872  0.5480
  139MOL0     C19111   6.990   8.375   9.089 -0.4267 -0.1753 -0.0580
  139MOL0     C19112   6.950   8.272   8.994 -0.2159 -0.4556 -0.3512
  139MOL0     H19113   7.438   8.252   9.458 -0.2651  1.0383  0.0724
  139MOL0     H19114   7.670   8.156   9.472 -1.5252 -0.6229 -0.0012
  139MOL0     H19115   7.929   8.206   9.192 -0.4023 -0.2211  0.4620
  139MOL0     H19116   7.899   8.068   9.091  0.3870 -2.1778  0.0356
  139MOL0     H19117   8.073   7.929   9.228  2.6897 -0.0482 -3.6395
  139MOL0     H19118   8.132   8.082   9.149 -1.5065 -0.5841 -1.1869
  139MOL0     H19119   8.139   8.170   9.370  2.3883 -1.1288 -1.6400
  139MOL0     H19120   8.057   8.033   9.451  1.9185  0.0948  2.0112
  139MOL0     H19121   8.251   7.891   9.345  2.2357 -1.0721  0.0769
  139MOL0     H19122   8.338   8.042   9.337  3.3712 -2.3625  3.2100
  139MOL0     H19123   8.278   7.917   9.594  2.2293 -0.8616  0.9434
  139MOL0     H19124   8.322   8.086   9.566 -0.9548  1.6068 -3.6741
  139MOL0     H19125   8.466   7.849   9.449 -2.0048 -1.4617  0.9476
  139MOL0     H19126   8.519   8.022   9.468 -2.0181 -0.2110 -2.4907
  139MOL0     H19127   8.459   7.817   9.686  0.7233 -1.2253 -2.7021
  139MOL0     H19128   8.516   7.985   9.722  1.5944  0.8207 -0.0284
  139MOL0     H19129   8.680   7.777   9.574 -0.7251 -1.1379  0.6511
  139MOL0     H19130   8.733   7.940   9.623  0.2975  0.6344  1.9258
  139MOL0     H19131   8.755   7.605   9.779  1.3965 -0.8231 -0.1621
  139MOL0     H19132   8.852   7.533  10.027 -0.8564 -0.3964 -0.7516
  139MOL0     H19133   8.676   7.534  10.064  0.2045 -1.5836 -0.5075
  139MOL0     H19134   8.875   7.731  10.198  1.9921 -1.7662  1.0856
  139MOL0     H19135   8.719   7.666  10.244 -0.3960  2.6864 -1.5810
  139MOL0     H19136   8.822   7.440  10.277  0.2527 -1.5106 -0.0764
  139MOL0     H19137   8.970   7.517  10.219 -0.5116  1.9384 -1.0073
  139MOL0     H19138   9.006   7.640  10.421  0.2829 -0.2675  2.4129
  139MOL0     H19139   8.841   7.609  10.473  2.7758  2.9792  1.9268
  139MOL0     H19140   9.107   7.239  10.553  0.3911  0.2345  0.6122
  139MOL0     H19141   9.214   7.124  10.828 -0.1430  0.6496  0.0397
  139MOL0     H19142   9.366   7.180  10.781 -1.3579  0.7787  1.6907
  139MOL0     H19143   9.262   7.108  10.661  0.8222  0.3733 -0.4280
  139MOL0     H19144   9.274   7.467  11.227 -0.7603  0.5957 -1.8134
  139MOL0     H19145   9.422   7.460  11.417 -0.7845  1.6269  0.4358
  139MOL0     H19146   9.844   7.576  11.539 -0.6922 -0.0785  0.9437
  139MOL0     H19147   9.835   7.674  11.390 -1.8467  1.7567 -0.6426
  139MOL0     H19148   9.675   7.822  11.489 -2.1938 -0.7689  1.1341
  139MOL0     H19149   9.655   7.723  11.629 -0.5958  0.7275  0.0964
  139MOL0     H19150   9.873   7.919  11.549  0.1589 -0.9258 -1.2110
  139MOL0     H19151   9.934   7.773  11.624 -0.8459 -0.8876  0.5846
  139MOL0     H19152   9.787   7.811  11.830  1.2265  1.7032  1.8483
  139MOL0     H19153   9.742   7.965  11.752  0.6317 -0.0792 -1.2991
  139MOL0     H19154  10.025   7.885  11.813  0.0304 -0.5995 -0.6584
  139MOL0     H19155   9.962   8.045  11.775  0.7800  0.1484  0.8856
  139MOL0     H19156  10.008   7.989  12.036  1.1399 -2.7396 -0.9136
  139MOL0     H19157   9.860   7.895  12.028 -0.4629 -0.9996 -0.6632
  139MOL0     H19158   9.726   8.094  11.974 -1.0578  3.4316 -0.4187
  139MOL0     H19159   9.872   8.177  11.908 -1.2745 -0.8673 -0.6350
  139MOL0     H19160   9.780   8.262  12.144  0.4032  0.6301  2.1584
  139MOL0     H19161   9.953   8.227  12.146 -0.4058  0.2161  1.0039
  139MOL0     H19162   9.738   7.652  11.196  1.0954  0.3725  2.6690
  139MOL0     H19163   9.597   7.649  10.995  2.3211 -0.2847  0.1190
  139MOL0     H19164   9.180   7.639  10.838  0.0587 -2.0281  3.2820
  139MOL0     H19165   9.022   7.642  10.648 -1.4141 -1.6749 -1.8922
  139MOL0     H19166   7.686   8.104   9.055  0.8874  0.2988 -0.3404
  139MOL0     H19167   7.471   8.226   9.031  1.6347  0.0819 -0.3716
  139MOL0     H19168   7.214   8.530   9.296  0.8612 -1.0734 -1.1059
  139MOL0     H19169   7.026   8.674   9.345 -1.5008 -1.7776  0.4016
  139MOL0     H19170   6.664   8.509   9.231 -0.0566 -0.7717  0.7207
  139MOL0     H19171   6.661   8.624   9.373  0.5289  3.2868 -1.6408
  139MOL0     H19172   6.561   8.708   9.107  2.7462 -1.9541 -0.5483
  139MOL0     H19173   6.586   8.796   9.256  1.2604 -0.6700  1.3804
  139MOL0     H19174   6.368   8.592   9.184 -3.4977  0.3867  2.6330
  139MOL0     H19175   6.438   8.590   9.343 -0.2918  1.2298  1.1697
  139MOL0     H19176   6.323   8.836   9.216  0.5040 -0.0647  0.3232
  139MOL0     H19177   6.357   8.831   9.385  1.3106 -1.6092  0.1752
  139MOL0     H19178   5.988   8.691   9.445  0.9004 -2.1452  0.9732
  139MOL0     H19179   6.797   8.475   9.051  1.0467 -1.4954 -0.8452
  139MOL0     H19180   6.906   8.193   9.055  0.7693 -0.6685  0.0993
  139MOL0     H19181   6.874   8.300   8.919  0.3683 -3.4731 -2.2714
  139MOL0     H19182   7.032   8.234   8.932 -1.7501 -1.0059 -2.1508
  140MOL0     O19183   5.029   0.695   9.370  0.1868 -0.1833 -0.3405
  140MOL0     C19184   4.925   0.644   9.314 -1.3917  0.7179 -0.2935
  140MOL0     O19185   4.924   0.535   9.233  0.2683  0.0310 -0.4140
  140MOL0     C19186   5.041   0.503   9.163  0.3476  0.1187 -0.3883
  140MOL0     C19187   5.159   0.585   9.136 -0.1754 -0.4535 -0.2479
  140MOL0     C19188   5.259   0.538   9.056  0.2916 -0.0821  0.6322
  140MOL0     C19189   5.268   0.402   9.013 -0.6739  0.0643  0.5807
  140MOL0     O19190   5.374   0.347   8.940 -0.1243 -0.4131  0.3768
  140MOL0     C19191   5.478   0.445   8.914 -1.0610 -0.3861  0.7425
  140MOL0     C19192   5.586   0.371   8.825 -0.9622 -0.4325  0.0063
  140MOL0     C19193   5.707   0.462   8.811 -0.1069  0.5091  0.6882
  140MOL0     C19194   5.800   0.382   8.706  0.7863  0.0072  0.4116
  140MOL0     C19195   5.932   0.437   8.668  0.4778 -0.1796  0.3511
  140MOL0     C19196   6.003   0.369   8.555  0.2157 -0.1820  0.0732
  140MOL0     C19197   6.140   0.424   8.514  0.4727  0.1728  0.1177
  140MOL0     C19198   6.240   0.390   8.624  0.5802  0.2018 -0.4020
  140MOL0     N19199   6.383   0.401   8.582  0.4296 -0.8080 -0.2209
  140MOL0     C19200   6.465   0.492   8.649  0.6302 -0.2330  0.1065
  140MOL0     C19201   6.578   0.463   8.590 -0.6606  0.4834 -0.2483
  140MOL0     C19202   6.711   0.530   8.613  0.6905  0.6729 -0.4118
  140MOL0     C19203   6.752   0.621   8.492 -0.6425  0.2812 -1.6052
  140MOL0     C19204   6.878   0.697   8.528  0.0183 -0.0809 -0.0843
  140MOL0     C19205   6.899   0.811   8.431  0.4170 -1.1288  1.0242
  140MOL0     O19206   7.011   0.891   8.474  0.1142  0.0606 -0.5241
  140MOL0     C19207   7.141   0.857   8.437  0.6163  0.7129  0.5466
  140MOL0     C19208   7.243   0.942   8.462 -0.3593 -0.1345 -0.2978
  140MOL0     C19209   7.378   0.913   8.422  0.5818  0.5489  0.6475
  140MOL0     C19210   7.484   1.021   8.460 -0.7228 -0.2709 -0.8894
  140MOL0     C19211   7.410   0.787   8.364  0.4915 -0.2456 -0.3256
  140MOL0     C19212   7.545   0.744   8.332  0.8643 -0.3549 -0.2337
  140MOL0     O19213   7.550   0.610   8.300 -0.2222  0.4749  0.6554
  140MOL0     C19214   7.658   0.550   8.252 -0.2273 -0.1525  0.4782
  140MOL0     C19215   7.787   0.546   8.320 -0.3016  0.1701 -0.1886
  140MOL0     C19216   7.887   0.469   8.248 -0.5587 -1.0889 -0.5856
  140MOL0     C19217   7.852   0.404   8.126 -0.2074  0.0882 -0.2528
  140MOL0     O19218   7.963   0.338   8.077 -0.2245  0.2516 -0.6085
  140MOL0     C19219   7.956   0.273   7.951 -0.1968 -0.0513 -0.4625
  140MOL0     C19220   8.094   0.212   7.915  0.9043  0.2020 -0.2829
  140MOL0     C19221   8.205   0.317   7.922  1.5453 -0.6587  0.1358
  140MOL0     C19222   8.340   0.262   7.912 -1.0832  0.4203 -0.4987
  140MOL0     C19223   8.460   0.363   7.895  0.2486  0.2894 -0.3021
  140MOL0     C19224   8.597   0.293   7.913  0.3915 -0.2835  0.7484
  140MOL0     C19225   8.627   0.272   8.062 -0.1888 -0.0008 -0.0780
  140MOL0     C19226   8.643   0.411   8.134 -0.2881 -0.5675 -0.2646
  140MOL0    Cl19227   8.730   0.389   8.294  0.3304  0.5652  0.3498
  140MOL0     C19228   7.725   0.414   8.069 -1.0422  0.6980  0.4665
  140MOL0     C19229   7.632   0.484   8.132  0.4969 -0.7346  0.4771
  140MOL0     O19230   7.642   0.815   8.349 -0.0812 -0.0821 -0.3813
  140MOL0     C19231   7.302   0.700   8.339  0.4869 -0.4915 -0.1147
  140MOL0     C19232   7.170   0.732   8.374  0.5806  0.2185 -0.5020
  140MOL0     N19233   6.564   0.359   8.498  0.2282  0.2522  0.1164
  140MOL0     N19234   6.440   0.323   8.494 -0.1023 -0.0559  0.1273
  140MOL0     C19235   5.159   0.322   9.031  0.9088  0.5306  0.0493
  140MOL0     C19236   5.049   0.368   9.112  0.5608  0.0113 -0.4998
  140MOL0     C19237   4.785   0.695   9.349 -0.5024  0.0452  0.5939
  140MOL0     C19238   4.777   0.790   9.452 -0.6722 -0.1143 -0.6060
  140MOL0     C19239   4.657   0.860   9.467  0.1781  0.4568  0.1814
  140MOL0     C19240   4.545   0.820   9.400 -0.3654  0.2068 -0.1141
  140MOL0     O19241   4.429   0.906   9.404  0.1587 -0.5943  0.1245
  140MOL0     C19242   4.341   0.846   9.493  0.8547 -0.1575 -0.6647
  140MOL0     C19243   4.238   0.960   9.524 -0.3566  0.3120  0.0695
  140MOL0     C19244   4.145   0.920   9.632 -0.3139 -1.1198 -0.0394
  140MOL0     C19245   4.034   1.033   9.649  0.4900  0.1047 -0.1652
  140MOL0     C19246   3.913   0.964   9.696 -0.2195 -0.2139 -0.2194
  140MOL0     C19247   3.818   0.897   9.721  0.0663 -0.2487 -0.7078
  140MOL0     C19248   4.548   0.734   9.294 -0.0093 -0.3417 -0.9274
  140MOL0     C19249   4.671   0.665   9.264  0.3000 -0.2770  0.8715
  140MOL0     C19250   4.663   0.574   9.147 -0.3044 -0.0925 -0.7281
  140MOL0     H19251   5.164   0.688   9.169  0.1357 -0.3480 -0.6211
  140MOL0     H19252   5.328   0.620   9.038 -2.6546  3.1747  2.8636
  140MOL0     H19253   5.526   0.463   9.011 -0.2723  0.6954  0.1848
  140MOL0     H19254   5.454   0.538   8.860 -1.2907 -0.3591  0.8930
  140MOL0     H19255   5.605   0.286   8.891 -0.7485 -1.4697 -1.3301
  140MOL0     H19256   5.545   0.339   8.728  1.0716 -2.4349 -0.2627
  140MOL0     H19257   5.680   0.561   8.773  2.8272  1.7487  1.5377
  140MOL0     H19258   5.765   0.478   8.902 -1.7969 -1.5589  2.2220
  140MOL0     H19259   5.802   0.277   8.738 -0.1188  0.3770  1.7712
  140MOL0     H19260   5.744   0.360   8.615 -1.3795  0.4503  1.5699
  140MOL0     H19261   6.002   0.436   8.752 -1.8261 -0.0233  2.4251
  140MOL0     H19262   5.923   0.544   8.646 -0.3872 -0.3190 -0.0188
  140MOL0     H19263   6.022   0.263   8.573  3.1075  0.0645 -1.0045
  140MOL0     H19264   5.947   0.380   8.462 -2.9276 -0.2979  1.8198
  140MOL0     H19265   6.138   0.533   8.505  3.1060  0.2358 -0.4025
  140MOL0     H19266   6.162   0.382   8.415 -2.6430  0.3655 -0.7448
  140MOL0     H19267   6.219   0.460   8.705 -3.0302  2.7066 -3.1516
  140MOL0     H19268   6.226   0.291   8.669 -1.2536  1.4823  2.1152
  140MOL0     H19269   6.431   0.568   8.720 -0.6229 -0.1113 -0.5974
  140MOL0     H19270   6.786   0.450   8.613 -1.0949 -1.0817 -1.1805
  140MOL0     H19271   6.713   0.586   8.707  0.9302  2.5954 -1.5176
  140MOL0     H19272   6.745   0.569   8.396 -0.8997  0.8564 -1.9001
  140MOL0     H19273   6.679   0.702   8.486  1.0712  1.7664 -3.5700
  140MOL0     H19274   6.879   0.740   8.629  3.2590 -0.9166  0.3344
  140MOL0     H19275   6.959   0.624   8.528  0.4576  0.3954 -0.8248
  140MOL0     H19276   6.915   0.777   8.329 -4.7166 -2.2706  0.3392
  140MOL0     H19277   6.807   0.871   8.429  0.7403 -0.6323 -0.7993
  140MOL0     H19278   7.223   1.041   8.502  2.6374  1.0221 -1.3859
  140MOL0     H19279   7.430   1.097   8.517  0.5654  1.4614 -1.9018
  140MOL0     H19280   7.538   1.066   8.376 -1.5242  3.8692  0.5888
  140MOL0     H19281   7.552   0.977   8.534 -3.0293 -2.9826 -0.1990
  140MOL0     H19282   7.806   0.584   8.420 -0.5145 -1.3557  0.4478
  140MOL0     H19283   7.983   0.448   8.295 -1.4561 -0.7507  1.4901
  140MOL0     H19284   7.881   0.194   7.955  0.5287 -0.7024  0.9469
  140MOL0     H19285   7.935   0.351   7.877  5.7706  0.8962 -1.6692
  140MOL0     H19286   8.120   0.138   7.992  0.2284 -1.5484 -1.6883
  140MOL0     H19287   8.095   0.157   7.821  0.9142 -0.3099  0.0131
  140MOL0     H19288   8.196   0.370   8.018  0.5483 -2.3172  1.0018
  140MOL0     H19289   8.191   0.381   7.834  2.5077 -1.9322 -0.9662
  140MOL0     H19290   8.353   0.203   7.821  1.4762  0.8783 -0.4950
  140MOL0     H19291   8.355   0.190   7.993 -0.3206  0.8003 -0.2906
  140MOL0     H19292   8.452   0.402   7.793  0.8739  2.9335  0.5989
  140MOL0     H19293   8.452   0.453   7.956 -1.9323 -0.1699  0.1747
  140MOL0     H19294   8.673   0.356   7.867 -1.4612  2.4791  1.1946
  140MOL0     H19295   8.604   0.192   7.872  2.2507 -0.6487  1.8428
  140MOL0     H19296   8.715   0.212   8.085 -0.4203  0.9965  4.1433
  140MOL0     H19297   8.543   0.226   8.114  0.4520 -2.4609 -1.0908
  140MOL0     H19298   8.547   0.458   8.158  1.3743  1.9782  1.8767
  140MOL0     H19299   8.704   0.478   8.074 -0.1485 -3.8686 -4.2123
  140MOL0     H19300   7.700   0.352   7.983 -0.2713 -1.0198  1.4276
  140MOL0     H19301   7.533   0.487   8.087  1.4457 -0.1532 -1.6918
  140MOL0     H19302   7.328   0.607   8.288  0.1735  0.1399 -1.4626
  140MOL0     H19303   7.090   0.659   8.367 -0.6369  1.0395  2.8788
  140MOL0     H19304   5.157   0.225   8.984  0.0529 -1.1851  3.3365
  140MOL0     H19305   4.975   0.292   9.135  0.5172  0.1677 -0.1179
  140MOL0     H19306   4.867   0.810   9.510 -0.1496  2.4283 -2.1343
  140MOL0     H19307   4.644   0.933   9.547 -1.8966  0.9233 -0.5212
  140MOL0     H19308   4.296   0.760   9.442  0.1347 -0.4060  0.3559
  140MOL0     H19309   4.384   0.805   9.585  0.4546 -0.8170 -0.7609
  140MOL0     H19310   4.185   0.997   9.436 -0.2503  0.7563  0.1872
  140MOL0     H19311   4.288   1.051   9.561 -0.9872  0.0107  1.7634
  140MOL0     H19312   4.088   0.831   9.603  0.5764 -1.7989  0.2569
  140MOL0     H19313   4.205   0.900   9.721  2.9611 -3.1129 -2.4836
  140MOL0     H19314   4.006   1.075   9.552 -1.8522 -2.0565 -0.5240
  140MOL0     H19315   4.075   1.095   9.730  0.4820 -1.8926  1.4593
  140MOL0     H19316   3.744   0.829   9.758 -0.9688  0.0691 -2.0808
  140MOL0     H19317   4.460   0.710   9.235  0.1079 -2.9576 -0.1617
  140MOL0     H19318   4.744   0.615   9.085  1.8420 -2.2105  0.4828
  140MOL0     H19319   4.692   0.470   9.160 -1.1851 -0.6530 -2.7534
  140MOL0     H19320   4.570   0.561   9.091 -0.0315  1.4200 -1.6028
  141MOL0     O19321   1.459   9.668   1.755 -0.1822 -1.1142  0.6351
  141MOL0     C19322   1.536   9.717   1.675  0.0730 -0.0628  1.1751
  141MOL0     O19323   1.662   9.776   1.700  0.2987  0.2276  0.2356
  141MOL0     C19324   1.741   9.768   1.815  0.5623  0.1181  0.0405
  141MOL0     C19325   1.701   9.701   1.932 -0.6762 -1.2253 -0.2568
  141MOL0     C19326   1.774   9.723   2.049 -0.4850  0.3487 -0.4715
  141MOL0     C19327   1.891   9.809   2.049  0.9128 -0.2364  0.0059
  141MOL0     O19328   1.974   9.823   2.160 -0.1979  0.4673  0.4644
  141MOL0     C19329   1.916   9.892   2.270  0.0797  0.1261 -1.4484
  141MOL0     C19330   1.950  10.044   2.258 -0.5757 -0.6520  0.3882
  141MOL0     C19331   2.104  10.066   2.296  0.5641  0.3879  0.1618
  141MOL0     C19332   2.138  10.216   2.294 -0.5430 -0.2935 -0.3537
  141MOL0     C19333   2.281  10.250   2.260 -0.3470 -0.0985 -0.3019
  141MOL0     C19334   2.315  10.400   2.272  0.1309  0.2083 -0.2113
  141MOL0     C19335   2.467  10.441   2.282 -0.5795  0.4940  0.0138
  141MOL0     C19336   2.555  10.382   2.169  0.5637 -0.3209  0.6646
  141MOL0     N19337   2.704  10.418   2.164 -0.0988  0.5457  0.7840
  141MOL0     C19338   2.799  10.371   2.251  0.8067 -0.1188 -0.2107
  141MOL0     C19339   2.908  10.445   2.208 -0.0345 -0.4496  0.5337
  141MOL0     C19340   3.037  10.451   2.283  0.1420  0.5417 -0.3827
  141MOL0     C19341   3.148  10.350   2.218  1.5068  0.3193  0.0230
  141MOL0     C19342   3.268  10.310   2.311  0.0864  0.1037 -0.0710
  141MOL0     C19343   3.361  10.422   2.320  0.0640 -0.1138 -0.2412
  141MOL0     O19344   3.479  10.374   2.387  0.9731  0.0975 -0.4990
  141MOL0     C19345   3.602  10.435   2.358 -0.2650 -0.5307 -0.2873
  141MOL0     C19346   3.623  10.565   2.325  0.0286  0.7315 -0.6771
  141MOL0     C19347   3.746  10.623   2.312  0.1488 -0.2990  0.9613
  141MOL0     C19348   3.745  10.768   2.267 -0.1362  0.8848  0.6124
  141MOL0     C19349   3.865  10.544   2.324 -0.2187 -0.0797 -0.1766
  141MOL0     C19350   3.999  10.596   2.305 -0.8850 -0.4860 -0.1932
  141MOL0     O19351   4.017  10.705   2.213  0.5409 -0.1648 -0.3018
  141MOL0     C19352   4.145  10.753   2.194  0.0717  0.8057 -0.0422
  141MOL0     C19353   4.199  10.748   2.073  0.7590  0.2620  0.4061
  141MOL0     C19354   4.326  10.803   2.040  0.5016  0.0480  0.5146
  141MOL0     C19355   4.395  10.872   2.144 -0.1443 -0.3720 -0.1823
  141MOL0     O19356   4.515  10.933   2.134  0.1416  0.2035  0.1254
  141MOL0     C19357   4.614  10.864   2.053  0.0747 -0.1130 -0.3618
  141MOL0     C19358   4.694  10.763   2.142 -0.0044  0.3919 -0.5453
  141MOL0     C19359   4.805  10.681   2.074 -0.2744  0.1481  0.0326
  141MOL0     C19360   4.908  10.598   2.161  0.6682 -0.1795 -0.0312
  141MOL0     C19361   5.002  10.513   2.083 -0.3206 -0.2684  1.3483
  141MOL0     C19362   5.058  10.408   2.166  0.1773 -1.0200  0.1053
  141MOL0     C19363   5.178  10.341   2.096  0.0420  0.4056 -0.9361
  141MOL0     C19364   5.245  10.243   2.203  0.3483  0.7455 -0.2309
  141MOL0    Cl19365   5.138  10.098   2.248 -0.2060  0.2945  0.4196
  141MOL0     C19366   4.333  10.874   2.267 -0.2196 -0.7101 -0.4543
  141MOL0     C19367   4.215  10.815   2.299  0.4335 -0.3636  0.4149
  141MOL0     O19368   4.096  10.538   2.358 -0.1634  0.7403  0.0961
  141MOL0     C19369   3.844  10.411   2.352 -1.0373 -0.4236 -0.2288
  141MOL0     C19370   3.719  10.354   2.360  0.6081  0.1564  0.2020
  141MOL0     N19371   2.874  10.527   2.100 -0.3871  0.6706  0.5574
  141MOL0     N19372   2.761  10.500   2.067  0.4637  0.0689 -0.2450
  141MOL0     C19373   1.933   9.864   1.934  0.2151  0.0596 -0.5660
  141MOL0     C19374   1.854   9.846   1.815 -0.3990 -0.6374  0.1738
  141MOL0     C19375   1.486   9.725   1.532  0.0391 -0.4781  0.6736
  141MOL0     C19376   1.356   9.706   1.510  0.0549  0.1499  0.2094
  141MOL0     C19377   1.300   9.700   1.380 -0.1993  0.1684 -0.2697
  141MOL0     C19378   1.375   9.726   1.271  0.6891 -0.1264  0.2583
  141MOL0     O19379   1.327   9.719   1.142  0.0977 -0.4560  0.3023
  141MOL0     C19380   1.415   9.706   1.031 -0.4877 -0.2574  0.0662
  141MOL0     C19381   1.343   9.707   0.898  0.3292  0.8997 -0.2745
  141MOL0     C19382   1.268   9.571   0.873  0.3171  0.3215  0.2967
  141MOL0     C19383   1.360   9.467   0.811  0.2749 -0.1576 -0.4859
  141MOL0     C19384   1.309   9.330   0.818  0.1570 -0.1841  0.4116
  141MOL0     C19385   1.265   9.217   0.803 -1.0442 -0.4235  0.4625
  141MOL0     C19386   1.514   9.735   1.290 -0.4730  1.0476 -0.0583
  141MOL0     C19387   1.571   9.733   1.416  0.2155 -0.6658 -1.0562
  141MOL0     C19388   1.722   9.758   1.420  0.6152 -0.5299 -0.2664
  141MOL0     H19389   1.613   9.638   1.932 -1.7066  0.1181 -1.8479
  141MOL0     H19390   1.743   9.683   2.145  0.9142 -1.1910 -0.6229
  141MOL0     H19391   1.965   9.852   2.359 -0.9789 -0.6680 -1.2081
  141MOL0     H19392   1.812   9.863   2.286  0.9246 -2.9485 -0.7436
  141MOL0     H19393   1.921  10.082   2.160  0.6363 -0.5449  0.0580
  141MOL0     H19394   1.880  10.089   2.329 -0.2410 -3.1227  2.4725
  141MOL0     H19395   2.125  10.030   2.397 -1.9838  1.3758  1.1417
  141MOL0     H19396   2.164  10.014   2.222  1.9597 -2.1175  2.8649
  141MOL0     H19397   2.071  10.253   2.215 -1.2605 -4.0165 -1.6859
  141MOL0     H19398   2.116  10.265   2.389 -1.4340  0.2039 -0.8019
  141MOL0     H19399   2.299  10.227   2.155  1.0431  3.4348 -0.9659
  141MOL0     H19400   2.346  10.201   2.333 -1.4358  1.5761  1.9629
  141MOL0     H19401   2.262  10.460   2.197 -0.0622 -0.6566 -0.7793
  141MOL0     H19402   2.277  10.427   2.371  0.0249 -2.0320  0.4213
  141MOL0     H19403   2.521  10.414   2.374 -0.3292  0.0529 -0.2643
  141MOL0     H19404   2.470  10.550   2.275 -0.4789  0.4686 -0.3222
  141MOL0     H19405   2.533  10.276   2.180 -1.9452 -0.4216 -3.1899
  141MOL0     H19406   2.504  10.411   2.077  0.9767  0.7943  0.7645
  141MOL0     H19407   2.797  10.299   2.332  5.3779  0.0737  0.3372
  141MOL0     H19408   3.021  10.419   2.386 -1.0226  2.6318  0.1286
  141MOL0     H19409   3.065  10.556   2.294 -1.5154  0.7679  2.6535
  141MOL0     H19410   3.090  10.257   2.206 -0.0069  1.3413 -0.9013
  141MOL0     H19411   3.177  10.387   2.119 -0.1830  0.7637 -0.3402
  141MOL0     H19412   3.218  10.304   2.408  0.6594  1.9016  0.3691
  141MOL0     H19413   3.323  10.219   2.286  0.3839 -0.2231  1.6155
  141MOL0     H19414   3.388  10.471   2.226  1.3381  2.0553  1.1522
  141MOL0     H19415   3.313  10.512   2.362  2.4345  1.1211 -0.0261
  141MOL0     H19416   3.538  10.632   2.331  1.1602  2.1015  1.1360
  141MOL0     H19417   3.650  10.818   2.284 -0.3884  1.2602 -1.6123
  141MOL0     H19418   3.775  10.774   2.163  0.1470  1.1362  0.7066
  141MOL0     H19419   3.811  10.831   2.329 -1.2819  1.0240  1.7400
  141MOL0     H19420   4.134  10.709   1.995  0.4958  0.2892  0.6109
  141MOL0     H19421   4.363  10.809   1.938  0.2631  0.2169  0.4380
  141MOL0     H19422   4.567  10.820   1.964 -0.2844  2.2237 -1.3859
  141MOL0     H19423   4.685  10.941   2.023  4.8501 -3.3829  1.4171
  141MOL0     H19424   4.741  10.834   2.210 -0.8146  3.4922 -2.9706
  141MOL0     H19425   4.625  10.699   2.198 -1.9171  2.5971 -0.2744
  141MOL0     H19426   4.867  10.753   2.019 -1.7009  2.5043  1.3628
  141MOL0     H19427   4.750  10.616   2.004 -2.7649  2.3597 -0.2247
  141MOL0     H19428   4.843  10.530   2.216  1.5327 -1.0550 -0.0725
  141MOL0     H19429   4.967  10.660   2.229  3.2871 -0.7987 -1.6143
  141MOL0     H19430   4.953  10.456   2.004  0.0176  0.1694  0.8128
  141MOL0     H19431   5.082  10.576   2.041 -2.5104  1.7754 -0.0509
  141MOL0     H19432   4.981  10.335   2.192 -1.4763  0.9641  1.0516
  141MOL0     H19433   5.083  10.450   2.264 -1.3424 -1.9650  0.9350
  141MOL0     H19434   5.249  10.418   2.064  1.5891  0.5324  2.3483
  141MOL0     H19435   5.142  10.278   2.014 -2.1483  0.2677  0.0595
  141MOL0     H19436   5.242  10.301   2.296 -1.5675  2.0226 -1.0147
  141MOL0     H19437   5.343  10.208   2.169  0.5020 -0.0508  0.9659
  141MOL0     H19438   4.390  10.921   2.346 -0.5695  3.6246 -2.4893
  141MOL0     H19439   4.164  10.819   2.395 -2.3042  0.7694 -0.9747
  141MOL0     H19440   3.927  10.342   2.366  1.7740  2.1022 -2.9592
  141MOL0     H19441   3.717  10.246   2.357 -0.6309  0.1595  0.5221
  141MOL0     H19442   2.018   9.932   1.935  2.2765 -2.3153 -2.1618
  141MOL0     H19443   1.897   9.885   1.723 -1.2305  1.0895  0.4731
  141MOL0     H19444   1.284   9.665   1.579 -2.1748 -0.8097 -2.4946
  141MOL0     H19445   1.194   9.677   1.367  0.4688 -3.6246 -0.1430
  141MOL0     H19446   1.488   9.787   1.024 -2.6505  2.0159  2.0032
  141MOL0     H19447   1.475   9.616   1.046  0.4768  0.4372  0.4782
  141MOL0     H19448   1.419   9.709   0.819  1.7364 -2.2956  0.8313
  141MOL0     H19449   1.270   9.789   0.897 -0.9824 -0.1886  1.4399
  141MOL0     H19450   1.226   9.533   0.967  0.8424 -0.7492  0.1135
  141MOL0     H19451   1.175   9.580   0.817  0.7426 -0.5354 -0.5699
  141MOL0     H19452   1.454   9.476   0.866 -0.7530 -1.0863  1.5146
  141MOL0     H19453   1.379   9.489   0.706 -0.2003  0.8336 -0.3724
  141MOL0     H19454   1.234   9.115   0.802 -1.6878 -0.2596  1.7726
  141MOL0     H19455   1.581   9.754   1.207  0.3928  0.5177  0.5008
  141MOL0     H19456   1.759   9.742   1.318 -3.0303  0.1491 -1.8507
  141MOL0     H19457   1.738   9.858   1.460  0.9027  0.5479 -2.8671
  141MOL0     H19458   1.774   9.684   1.482 -0.3096 -1.1662 -0.2389
  142MOL0     O19459   8.442   5.786  10.155  0.9429 -0.2255 -0.5640
  142MOL0     C19460   8.399   5.852  10.249  0.3687  0.5540 -0.2697
  142MOL0     O19461   8.481   5.912  10.341  0.4414 -0.1210  0.1300
  142MOL0     C19462   8.613   5.872  10.346  0.5212  0.3107  0.4455
  142MOL0     C19463   8.662   5.819  10.467 -0.1008  0.1438  0.2909
  142MOL0     C19464   8.797   5.783  10.485  0.4986 -0.2671 -0.2776
  142MOL0     C19465   8.884   5.793  10.372 -0.7225  0.1945 -0.8294
  142MOL0     O19466   9.017   5.737  10.379  0.3558  0.2138 -0.8215
  142MOL0     C19467   9.093   5.774  10.499  0.0746 -0.2249 -0.1298
  142MOL0     C19468   9.241   5.767  10.463  0.6143 -0.4473  0.2055
  142MOL0     C19469   9.344   5.791  10.573  0.0540  0.1560 -0.4034
  142MOL0     C19470   9.484   5.754  10.526 -0.1090  0.7276 -0.6069
  142MOL0     C19471   9.574   5.740  10.655  0.4418 -1.6191 -0.6081
  142MOL0     C19472   9.591   5.874  10.735 -0.1802 -0.2388 -0.3323
  142MOL0     C19473   9.674   5.865  10.862 -0.4342 -0.1241 -0.4326
  142MOL0     C19474   9.607   5.800  10.981 -0.3244 -0.6160  0.3384
  142MOL0     N19475   9.692   5.812  11.102 -0.3141 -0.7888  1.2411
  142MOL0     C19476   9.798   5.727  11.122 -0.4483 -0.3512 -0.7086
  142MOL0     C19477   9.850   5.760  11.245  0.0715 -0.0747 -0.6839
  142MOL0     C19478   9.966   5.682  11.309  0.1304 -0.4174  0.2162
  142MOL0     C19479  10.098   5.740  11.249  0.3542  0.9084 -0.4022
  142MOL0     C19480  10.142   5.881  11.309 -0.1497 -0.2030 -0.5155
  142MOL0     C19481  10.189   5.866  11.456 -0.1308  0.3081 -0.1342
  142MOL0     O19482  10.208   6.001  11.506 -0.0805  0.1346 -0.0723
  142MOL0     C19483  10.106   6.065  11.583 -0.3743  0.0449  0.5720
  142MOL0     C19484   9.972   6.023  11.591  0.5935  0.2462  0.3440
  142MOL0     C19485   9.877   6.099  11.662  0.2103 -0.4782  0.5554
  142MOL0     C19486   9.741   6.044  11.649  1.0802  0.4994  0.2353
  142MOL0     C19487   9.911   6.228  11.726  0.0393  0.1013 -0.5108
  142MOL0     C19488   9.828   6.299  11.818  0.6337  0.0447 -0.3208
  142MOL0     O19489   9.881   6.412  11.880 -0.0691 -0.4327  0.2554
  142MOL0     C19490   9.795   6.475  11.966 -0.6353 -0.0179 -0.2409
  142MOL0     C19491   9.686   6.545  11.908 -0.1111  0.9445  0.3133
  142MOL0     C19492   9.604   6.634  11.983 -0.3960  0.3025 -0.1725
  142MOL0     C19493   9.633   6.632  12.124  1.0872  0.2877 -0.5044
  142MOL0     O19494   9.545   6.713  12.195 -0.0514  0.0018 -0.4663
  142MOL0     C19495   9.552   6.714  12.341 -0.0085 -0.1263 -0.7374
  142MOL0     C19496   9.497   6.584  12.411  0.1108 -0.4833  0.0359
  142MOL0     C19497   9.351   6.547  12.371 -0.1946  1.3478  0.1312
  142MOL0     C19498   9.296   6.443  12.473 -0.3414 -0.0647 -0.2772
  142MOL0     C19499   9.142   6.437  12.458  0.4777  0.1828 -0.0578
  142MOL0     C19500   9.093   6.370  12.329  0.8753 -0.6493 -0.0659
  142MOL0     C19501   8.947   6.399  12.292  0.0695  0.5992 -0.3915
  142MOL0     C19502   8.854   6.323  12.392 -0.5058  0.6585  0.0139
  142MOL0    Cl19503   8.860   6.157  12.352  0.3994  0.3079 -0.6322
  142MOL0     C19504   9.738   6.559  12.178  0.1716  0.2893 -0.8761
  142MOL0     C19505   9.822   6.485  12.101 -0.8153 -0.2399 -0.0755
  142MOL0     O19506   9.728   6.243  11.857  0.3852  0.4873  0.5744
  142MOL0     C19507  10.041   6.272  11.703 -0.0508  0.5320  0.0527
  142MOL0     C19508  10.138   6.190  11.646 -0.3813 -0.3547  0.2782
  142MOL0     N19509   9.772   5.865  11.298 -0.2776  0.1379  0.5661
  142MOL0     N19510   9.676   5.889  11.212  0.2086 -0.5201  0.0499
  142MOL0     C19511   8.840   5.865  10.266  0.4759  0.0040  0.4856
  142MOL0     C19512   8.704   5.895  10.243  0.7829  0.5332  0.3084
  142MOL0     C19513   8.257   5.874  10.258 -0.4008 -0.2944 -0.5726
  142MOL0     C19514   8.181   5.866  10.136  0.9010 -0.5641  0.7136
  142MOL0     C19515   8.042   5.891  10.139  0.9198 -0.2291 -0.0610
  142MOL0     C19516   7.976   5.923  10.259 -0.0490  0.3608  0.8474
  142MOL0     O19517   7.847   5.952  10.275 -0.1082 -0.0529 -0.3489
  142MOL0     C19518   7.763   5.896  10.175  0.2987 -0.1573 -0.0065
  142MOL0     C19519   7.622   5.894  10.240  0.0253  0.0276 -0.4085
  142MOL0     C19520   7.514   5.848  10.147 -0.6253  0.2237  0.1418
  142MOL0     C19521   7.378   5.900  10.164 -0.4173  1.0881  0.4298
  142MOL0     C19522   7.337   5.862  10.301 -0.5027 -0.0352  0.9128
  142MOL0     C19523   7.309   5.819  10.411  0.3536 -1.7319 -0.0031
  142MOL0     C19524   8.051   5.925  10.376  0.3449 -1.1761  0.5677
  142MOL0     C19525   8.188   5.906  10.380  0.9375 -0.6152  0.2448
  142MOL0     C19526   8.260   5.937  10.503 -0.6701 -0.2203 -0.2772
  142MOL0     H19527   8.592   5.794  10.545  0.9939 -1.5568  0.7845
  142MOL0     H19528   8.832   5.758  10.585 -1.0551 -0.7655  0.1655
  142MOL0     H19529   9.072   5.706  10.582  0.9847  1.8316  1.9118
  142MOL0     H19530   9.067   5.871  10.542 -0.9546 -0.6853  0.3133
  142MOL0     H19531   9.259   5.664  10.429  1.2303 -1.4204  3.1323
  142MOL0     H19532   9.265   5.830  10.377  1.4141  1.5004  1.7763
  142MOL0     H19533   9.349   5.892  10.615  0.0697  0.7809 -1.8560
  142MOL0     H19534   9.328   5.721  10.656 -0.5667 -0.5349 -1.0945
  142MOL0     H19535   9.481   5.660  10.471 -0.8168  0.5704 -0.3192
  142MOL0     H19536   9.527   5.832  10.463 -1.9357  1.0134 -1.5721
  142MOL0     H19537   9.671   5.693  10.638  2.1818  0.5532  2.3342
  142MOL0     H19538   9.538   5.666  10.727  1.8461 -1.0580  0.7460
  142MOL0     H19539   9.626   5.949  10.663  0.2593 -1.5140 -1.4997
  142MOL0     H19540   9.491   5.896  10.773 -0.6380  0.9181 -2.0682
  142MOL0     H19541   9.694   5.971  10.879 -0.4803 -0.2312  0.3252
  142MOL0     H19542   9.769   5.811  10.857  0.3874  1.2356 -0.1427
  142MOL0     H19543   9.512   5.848  11.006 -0.8154 -1.8349  0.9122
  142MOL0     H19544   9.589   5.695  10.955 -1.9412 -0.1637 -0.5692
  142MOL0     H19545   9.841   5.648  11.061  0.5671 -0.9569  0.7272
  142MOL0     H19546   9.961   5.574  11.297  0.2768 -0.6496  1.9075
  142MOL0     H19547   9.969   5.689  11.419  0.4512 -1.9930  0.3249
  142MOL0     H19548  10.177   5.667  11.271  1.0552  1.1875 -1.8775
  142MOL0     H19549  10.075   5.743  11.142 -2.4482  2.0353  0.1399
  142MOL0     H19550  10.231   5.912  11.253 -0.8791  0.7780 -1.1755
  142MOL0     H19551  10.052   5.943  11.307 -0.8676 -0.7084  4.2554
  142MOL0     H19552  10.125   5.810  11.525  0.7019 -0.3897  0.0897
  142MOL0     H19553  10.283   5.810  11.456 -1.0582 -1.3316 -1.3060
  142MOL0     H19554   9.933   5.943  11.529  0.7270 -0.4510  1.1353
  142MOL0     H19555   9.692   6.000  11.736 -2.3778 -0.6535 -2.0568
  142MOL0     H19556   9.729   5.974  11.566  1.3406  0.3356  0.3337
  142MOL0     H19557   9.681   6.122  11.601 -0.2885 -1.4016 -1.2972
  142MOL0     H19558   9.668   6.528  11.803 -0.9294 -2.2609  0.8524
  142MOL0     H19559   9.526   6.701  11.947  0.4075  1.8987  0.9456
  142MOL0     H19560   9.653   6.737  12.375 -0.2992 -1.6250  1.3885
  142MOL0     H19561   9.493   6.791  12.390 -1.6652 -2.5663  1.3850
  142MOL0     H19562   9.563   6.500  12.389 -0.7583 -0.9497 -0.9346
  142MOL0     H19563   9.508   6.606  12.517  2.1016  1.2963 -0.4581
  142MOL0     H19564   9.362   6.499  12.273  2.4274  0.0055  0.9832
  142MOL0     H19565   9.293   6.639  12.361 -0.1320  1.3383 -0.3652
  142MOL0     H19566   9.315   6.477  12.575 -0.5158 -0.2440 -0.1856
  142MOL0     H19567   9.351   6.350  12.460 -0.5909 -0.3881  0.9065
  142MOL0     H19568   9.100   6.383  12.544  0.9018 -0.6128 -0.3349
  142MOL0     H19569   9.108   6.541  12.463 -0.0041 -0.0101  1.0438
  142MOL0     H19570   9.100   6.260  12.333  0.7394 -0.6431  0.3980
  142MOL0     H19571   9.152   6.402  12.243 -0.6316 -2.7889 -2.0289
  142MOL0     H19572   8.915   6.368  12.193 -1.6109 -1.7788  0.7940
  142MOL0     H19573   8.933   6.507  12.292  2.6145  1.0441  1.7790
  142MOL0     H19574   8.753   6.363  12.391 -1.0652 -0.6696  0.8125
  142MOL0     H19575   8.896   6.344  12.491  0.5259 -1.1885  0.0172
  142MOL0     H19576   9.762   6.567  12.284  0.1028 -3.2494 -0.4638
  142MOL0     H19577   9.914   6.437  12.133  0.1764  1.8753  0.4187
  142MOL0     H19578  10.065   6.367  11.751 -2.6468  0.2738  2.1055
  142MOL0     H19579  10.241   6.225  11.647 -0.8730  1.2322 -1.1070
  142MOL0     H19580   8.912   5.882  10.186 -0.7678  0.0098 -0.6592
  142MOL0     H19581   8.667   5.954  10.160  0.2476  0.8435  0.7649
  142MOL0     H19582   8.236   5.829  10.051  1.3074 -0.8255  1.0863
  142MOL0     H19583   7.982   5.888  10.048 -0.9825  1.5792  1.0449
  142MOL0     H19584   7.758   5.960  10.087 -1.1243 -1.4015 -0.8768
  142MOL0     H19585   7.799   5.801  10.136  1.8410  0.6801 -0.6887
  142MOL0     H19586   7.589   5.994  10.269 -0.4353 -0.1602 -0.2788
  142MOL0     H19587   7.627   5.841  10.335  0.0959  1.5040  0.4389
  142MOL0     H19588   7.547   5.878  10.047 -0.8348  1.3355  0.3945
  142MOL0     H19589   7.509   5.739  10.149  2.0620  0.0080 -1.0324
  142MOL0     H19590   7.316   5.850  10.089  0.6911  2.3345 -1.3872
  142MOL0     H19591   7.360   6.006  10.146  0.6757  0.9329 -2.0574
  142MOL0     H19592   7.281   5.776  10.505 -1.7183 -0.8425 -0.1409
  142MOL0     H19593   8.001   5.960  10.465 -1.3809  1.2111 -1.2025
  142MOL0     H19594   8.299   6.038  10.485  1.2566 -0.4517  2.1769
  142MOL0     H19595   8.198   5.925  10.592  1.0231 -1.2761  0.8020
  142MOL0     H19596   8.350   5.876  10.517  0.8654  1.5442 -1.8686
  143MOL0     O19597   5.631  11.395   8.790 -0.5029 -0.1673  0.4416
  143MOL0     C19598   5.516  11.379   8.746  0.0513 -0.5889 -0.3136
  143MOL0     O19599   5.478  11.399   8.614  0.6691  0.3236  0.2323
  143MOL0     C19600   5.580  11.434   8.530  0.3642 -0.7850 -0.2004
  143MOL0     C19601   5.670  11.343   8.480  0.3416 -0.6544 -0.2451
  143MOL0     C19602   5.773  11.377   8.390 -0.7713 -0.7082  0.1361
  143MOL0     C19603   5.772  11.504   8.334  0.3881  0.5864 -0.0742
  143MOL0     O19604   5.841  11.541   8.221 -0.1980 -0.2489  0.1664
  143MOL0     C19605   5.985  11.522   8.226  0.7188  1.2101 -0.9371
  143MOL0     C19606   6.065  11.551   8.097  0.6631  1.2736 -0.2130
  143MOL0     C19607   6.022  11.464   7.975 -0.0243 -0.5422 -1.2103
  143MOL0     C19608   6.135  11.486   7.870 -0.3890  0.5366  1.0048
  143MOL0     C19609   6.167  11.358   7.788  0.0628 -0.2562  0.3932
  143MOL0     C19610   6.237  11.244   7.875 -0.1875 -0.2416 -0.2156
  143MOL0     C19611   6.232  11.104   7.812 -0.5134  0.8587  0.3690
  143MOL0     C19612   6.311  11.103   7.680  0.5815 -0.6631 -0.3956
  143MOL0     N19613   6.450  11.117   7.715 -0.8171  0.1615 -0.7360
  143MOL0     C19614   6.514  11.009   7.771 -0.1795 -1.2774 -0.2569
  143MOL0     C19615   6.635  11.058   7.797 -0.4191 -0.0435 -0.1424
  143MOL0     C19616   6.751  10.976   7.845 -0.2541  0.4928  0.0501
  143MOL0     C19617   6.789  10.890   7.719 -0.9961 -0.2079 -0.3708
  143MOL0     C19618   6.937  10.848   7.734 -0.6280  1.0968  0.1202
  143MOL0     C19619   6.953  10.732   7.828 -0.4336 -0.0974 -0.0726
  143MOL0     O19620   7.094  10.726   7.845 -0.7590  0.6054  0.1057
  143MOL0     C19621   7.158  10.638   7.925  0.5791  0.5183 -0.2771
  143MOL0     C19622   7.093  10.562   8.023  0.2859 -0.0782 -0.5656
  143MOL0     C19623   7.165  10.468   8.103 -1.1096 -0.1530 -0.8902
  143MOL0     C19624   7.092  10.388   8.204  0.2606  0.5034  0.2306
  143MOL0     C19625   7.302  10.452   8.090 -0.5942  0.2025 -0.2734
  143MOL0     C19626   7.392  10.361   8.176  0.0760 -0.2166  0.0609
  143MOL0     O19627   7.525  10.391   8.186  0.2867  0.7127 -0.6573
  143MOL0     C19628   7.603  10.348   8.288  0.3462 -0.9144  0.2201
  143MOL0     C19629   7.552  10.337   8.414 -0.3834  0.3204  0.4855
  143MOL0     C19630   7.640  10.324   8.519 -0.0653 -0.6091 -0.2965
  143MOL0     C19631   7.782  10.308   8.501  0.5293 -0.0715  0.1037
  143MOL0     O19632   7.872  10.281   8.599 -0.2098 -1.3191 -0.4383
  143MOL0     C19633   7.837  10.207   8.717 -0.1357 -0.5297  0.3559
  143MOL0     C19634   7.931  10.253   8.826  0.0955 -0.7604 -0.0194
  143MOL0     C19635   7.904  10.176   8.953  0.9678  0.1228 -0.0795
  143MOL0     C19636   7.985  10.224   9.078 -0.2863 -0.0779 -0.4136
  143MOL0     C19637   7.909  10.344   9.142 -0.0438 -0.4439 -0.6598
  143MOL0     C19638   7.771  10.299   9.210  0.1064  0.6756 -0.3223
  143MOL0     C19639   7.776  10.202   9.328  0.2584 -0.3269 -0.2007
  143MOL0     C19640   7.832  10.262   9.453  0.3724 -0.3555 -0.2772
  143MOL0    Cl19641   7.796  10.147   9.582  0.3976 -0.5412  0.1522
  143MOL0     C19642   7.832  10.334   8.377 -0.5715  0.4079  0.3881
  143MOL0     C19643   7.738  10.345   8.276  0.0626 -0.0702  0.4970
  143MOL0     O19644   7.339  10.263   8.233 -0.3236 -0.4197 -0.2654
  143MOL0     C19645   7.364  10.536   7.988 -0.1200  0.1673 -0.3741
  143MOL0     C19646   7.289  10.618   7.910  0.1383 -0.4236  0.3433
  143MOL0     N19647   6.649  11.191   7.757 -0.9358  1.6790  0.2220
  143MOL0     N19648   6.542  11.219   7.709  0.0704  0.0156 -0.5863
  143MOL0     C19649   5.694  11.600   8.394  0.5802  0.3917 -0.2259
  143MOL0     C19650   5.589  11.569   8.486  0.8213  0.2673  0.4328
  143MOL0     C19651   5.418  11.307   8.835  0.0517  0.5788 -0.2904
  143MOL0     C19652   5.466  11.207   8.918 -0.3193 -0.3652  0.2445
  143MOL0     C19653   5.387  11.119   8.986  0.9479  0.3279  0.4342
  143MOL0     C19654   5.252  11.144   8.987  0.1882 -0.5037  0.3463
  143MOL0     O19655   5.155  11.068   9.048 -0.9560 -0.8375 -0.2190
  143MOL0     C19656   5.140  11.101   9.187 -0.1522  0.2009 -0.1422
  143MOL0     C19657   5.189  10.985   9.273 -0.6134  0.3991  0.6834
  143MOL0     C19658   5.114  10.852   9.252 -0.0665  0.5629 -0.2250
  143MOL0     C19659   5.176  10.743   9.338  0.2282 -0.6232  0.0937
  143MOL0     C19660   5.104  10.615   9.334 -0.5456  1.5129 -0.1648
  143MOL0     C19661   5.026  10.520   9.346  0.0478  0.3747 -0.2021
  143MOL0     C19662   5.203  11.247   8.915 -0.6783 -0.1052  0.2535
  143MOL0     C19663   5.280  11.328   8.838  0.2870 -0.3136  0.3794
  143MOL0     C19664   5.215  11.444   8.765  0.3037 -0.3593 -0.0317
  143MOL0     H19665   5.646  11.239   8.499 -0.2307 -0.6194 -0.7480
  143MOL0     H19666   5.838  11.303   8.344 -0.9044  0.5832 -2.2559
  143MOL0     H19667   6.007  11.421   8.262 -2.0231  1.1945  0.9740
  143MOL0     H19668   6.015  11.581   8.313 -3.8815 -0.3394  2.0846
  143MOL0     H19669   6.048  11.657   8.076 -2.0510  0.7785 -0.9819
  143MOL0     H19670   6.165  11.527   8.134 -1.0249 -1.8633  2.9172
  143MOL0     H19671   6.005  11.359   8.002  1.4167 -0.7253 -0.9035
  143MOL0     H19672   5.920  11.482   7.941 -0.9548 -1.8707  0.7210
  143MOL0     H19673   6.098  11.556   7.794 -2.5575 -0.5547  0.9960
  143MOL0     H19674   6.233  11.520   7.907  0.8468 -1.5310 -0.1705
  143MOL0     H19675   6.220  11.383   7.696 -4.4806 -0.3496 -2.5591
  143MOL0     H19676   6.072  11.315   7.756 -0.3909 -0.6682  2.2025
  143MOL0     H19677   6.342  11.269   7.894 -0.7581  1.0746  1.4629
  143MOL0     H19678   6.185  11.238   7.971  0.0657 -0.9441 -0.1192
  143MOL0     H19679   6.128  11.074   7.792  0.6247 -1.3619 -3.2435
  143MOL0     H19680   6.275  11.027   7.877 -4.0383 -0.9037  0.8357
  143MOL0     H19681   6.302  11.011   7.622  2.6430  0.7411 -3.2236
  143MOL0     H19682   6.288  11.188   7.615 -3.3510 -1.9574 -0.9549
  143MOL0     H19683   6.474  10.911   7.795  0.6124 -1.1614  1.7371
  143MOL0     H19684   6.713  10.911   7.924 -4.2095  1.4739 -0.8031
  143MOL0     H19685   6.831  11.045   7.872 -0.9199  2.4906 -2.6807
  143MOL0     H19686   6.723  10.803   7.716  0.1716 -1.2791  2.2126
  143MOL0     H19687   6.772  10.941   7.623  0.0750  0.7930 -0.0534
  143MOL0     H19688   6.985  10.829   7.638  1.3729 -0.0042  1.2605
  143MOL0     H19689   6.994  10.928   7.781 -0.9770  1.2026  0.3726
  143MOL0     H19690   6.903  10.743   7.924  2.4065  1.5188  1.3335
  143MOL0     H19691   6.915  10.647   7.769 -0.6368  0.6689 -1.0742
  143MOL0     H19692   6.986  10.577   8.031  0.6538  1.4678  3.0213
  143MOL0     H19693   7.135  10.371   8.303  1.2787  0.8465 -0.1461
  143MOL0     H19694   7.086  10.290   8.155 -1.8987  0.0619  1.2740
  143MOL0     H19695   6.989  10.424   8.208 -0.7389 -1.7326 -1.8514
  143MOL0     H19696   7.447  10.357   8.431 -0.5616 -0.3608  0.2024
  143MOL0     H19697   7.592  10.318   8.616 -0.1054  1.4846 -0.1428
  143MOL0     H19698   7.732  10.213   8.747 -0.2945  1.0119 -0.4188
  143MOL0     H19699   7.856  10.102   8.691 -1.9479 -0.2454 -2.5363
  143MOL0     H19700   8.037  10.239   8.805  0.5427 -1.9373  2.7003
  143MOL0     H19701   7.897  10.354   8.850  1.7907 -0.4007  0.9863
  143MOL0     H19702   7.932  10.071   8.941  1.0072  0.2656 -1.2915
  143MOL0     H19703   7.797  10.170   8.971  1.0338  0.6006  0.5340
  143MOL0     H19704   8.088  10.253   9.058  0.0295 -0.8447  0.0540
  143MOL0     H19705   7.993  10.143   9.151  1.7685  0.5477  0.1026
  143MOL0     H19706   7.966  10.388   9.224  0.1111  1.6713 -1.8365
  143MOL0     H19707   7.885  10.429   9.078 -0.3777  1.0795  1.3915
  143MOL0     H19708   7.701  10.256   9.137  1.5275 -1.1336 -0.6982
  143MOL0     H19709   7.708  10.381   9.247 -0.8125  0.8800 -2.1987
  143MOL0     H19710   7.831  10.111   9.304 -1.8663 -1.4514 -1.0560
  143MOL0     H19711   7.674  10.168   9.345 -0.0545  0.7112  0.1009
  143MOL0     H19712   7.784  10.359   9.468  1.3203  0.5805 -2.6993
  143MOL0     H19713   7.937  10.287   9.437  0.0720 -0.3028 -2.5301
  143MOL0     H19714   7.939  10.318   8.363 -1.1612 -2.7023 -1.4364
  143MOL0     H19715   7.771  10.349   8.173 -0.4515 -1.2185  0.2621
  143MOL0     H19716   7.472  10.530   7.975  0.0334  2.7509 -0.8173
  143MOL0     H19717   7.343  10.663   7.828 -1.6866 -1.1763 -1.3494
  143MOL0     H19718   5.709  11.704   8.367  4.8370  0.3201  1.0670
  143MOL0     H19719   5.535  11.650   8.533  1.2304 -0.8708  3.0163
  143MOL0     H19720   5.574  11.197   8.922 -0.3173 -0.0494  1.4961
  143MOL0     H19721   5.422  11.030   9.037  2.3905  2.7870  4.1935
  143MOL0     H19722   5.203  11.186   9.213  0.7313 -0.5664  0.3050
  143MOL0     H19723   5.038  11.128   9.213 -0.4695 -0.5647 -0.5615
  143MOL0     H19724   5.178  11.011   9.379  1.4875 -1.6475  1.4875
  143MOL0     H19725   5.292  10.958   9.249 -0.4384  0.4439  1.3704
  143MOL0     H19726   5.009  10.866   9.280 -0.2335 -0.9940  0.0065
  143MOL0     H19727   5.121  10.819   9.148  0.1764  0.0790 -0.0573
  143MOL0     H19728   5.180  10.776   9.442 -2.0612  2.8337 -0.7385
  143MOL0     H19729   5.274  10.721   9.294  0.1082  0.5387 -0.7795
  143MOL0     H19730   4.962  10.436   9.360 -1.4455  1.2051 -1.6066
  143MOL0     H19731   5.097  11.272   8.918 -0.1224  2.3693  0.8019
  143MOL0     H19732   5.212  11.404   8.663  0.3726 -2.5375  0.7517
  143MOL0     H19733   5.114  11.462   8.805 -0.4785 -0.4321 -1.8721
  143MOL0     H19734   5.270  11.538   8.775  2.9591 -1.6922 -1.1349
  144MOL0     O19735   2.565   2.733   1.397 -0.0613  0.5473  0.0538
  144MOL0     C19736   2.528   2.811   1.311  0.7414  0.1596 -0.2087
  144MOL0     O19737   2.606   2.885   1.232  0.0418  0.1116  0.1643
  144MOL0     C19738   2.738   2.887   1.261 -0.5093  0.5719 -0.2777
  144MOL0     C19739   2.798   3.014   1.262 -0.3518  0.2042  0.4637
  144MOL0     C19740   2.930   3.036   1.289  0.1238 -0.7004  0.7182
  144MOL0     C19741   3.010   2.924   1.310  0.3113  0.0865 -0.1708
  144MOL0     O19742   3.142   2.924   1.341 -1.1593  0.1833 -0.4319
  144MOL0     C19743   3.203   3.058   1.352  0.4544  0.5970  0.1491
  144MOL0     C19744   3.347   3.032   1.398  0.6024  0.7201  0.1967
  144MOL0     C19745   3.431   3.156   1.422 -0.5041  0.6113 -0.0101
  144MOL0     C19746   3.546   3.135   1.523 -0.1178  0.0300 -0.7402
  144MOL0     C19747   3.652   3.244   1.519 -0.1713 -0.4310  0.3702
  144MOL0     C19748   3.611   3.385   1.538 -0.5286 -0.1478  0.2946
  144MOL0     C19749   3.733   3.481   1.519  0.1232  0.0157 -0.2837
  144MOL0     C19750   3.694   3.632   1.547 -0.3024 -0.8732 -0.3560
  144MOL0     N19751   3.818   3.701   1.572  0.1788  0.1526  0.6168
  144MOL0     C19752   3.887   3.695   1.686  0.1930 -0.7368  0.8949
  144MOL0     C19753   4.012   3.745   1.657  1.4861 -0.5573  0.1854
  144MOL0     C19754   4.126   3.772   1.750 -0.3641 -1.4924 -1.0677
  144MOL0     C19755   4.223   3.653   1.750  0.1481 -0.2259 -0.0999
  144MOL0     C19756   4.331   3.692   1.649 -1.1438 -0.5399  0.6528
  144MOL0     C19757   4.402   3.568   1.602 -0.4087 -0.1996  0.1098
  144MOL0     O19758   4.500   3.605   1.503  0.0281  0.0856  0.5262
  144MOL0     C19759   4.557   3.503   1.422  0.1855 -0.3702 -0.0751
  144MOL0     C19760   4.626   3.537   1.308 -0.7347  0.3321  0.5991
  144MOL0     C19761   4.710   3.448   1.230  0.3600  0.3535  0.4007
  144MOL0     C19762   4.770   3.507   1.105 -0.4702  0.6095  0.5014
  144MOL0     C19763   4.717   3.309   1.272 -0.0059 -0.2589  1.0141
  144MOL0     C19764   4.808   3.207   1.206  0.8481  0.2401  0.0167
  144MOL0     O19765   4.784   3.072   1.230  0.2277 -0.0768 -0.7113
  144MOL0     C19766   4.873   2.981   1.183  0.5798 -0.5641  0.6455
  144MOL0     C19767   4.933   2.898   1.275  0.4452 -0.6780  0.1407
  144MOL0     C19768   5.007   2.794   1.226  0.1396  0.1014 -0.4492
  144MOL0     C19769   5.035   2.763   1.090  0.7578 -0.8701 -0.1436
  144MOL0     O19770   5.096   2.649   1.054 -0.5993 -0.3575 -0.2111
  144MOL0     C19771   5.119   2.608   0.915  0.3397  0.3867 -1.0217
  144MOL0     C19772   5.225   2.496   0.928  0.0960  0.6739  0.3894
  144MOL0     C19773   5.242   2.429   0.804  0.3206  0.1885 -0.4368
  144MOL0     C19774   5.374   2.364   0.794  0.2289 -0.1566  0.6740
  144MOL0     C19775   5.382   2.286   0.665  0.8955 -0.4615 -0.2955
  144MOL0     C19776   5.504   2.200   0.636  0.2543  0.4996  0.3602
  144MOL0     C19777   5.488   2.148   0.497 -0.2514  0.5869 -0.0345
  144MOL0     C19778   5.608   2.060   0.465 -0.5949  0.0112  0.2465
  144MOL0    Cl19779   5.768   2.154   0.452 -0.0746 -0.2532  0.2733
  144MOL0     C19780   4.964   2.847   1.004 -0.1890  0.4848 -0.1375
  144MOL0     C19781   4.892   2.958   1.044  0.1484  0.6777 -0.6101
  144MOL0     O19782   4.906   3.247   1.138  0.4061 -0.1714  0.2407
  144MOL0     C19783   4.643   3.275   1.388  0.1309  0.7095  0.1026
  144MOL0     C19784   4.557   3.367   1.462 -0.3667 -0.4256  0.4198
  144MOL0     N19785   4.019   3.779   1.524 -0.1008 -0.8665 -0.1412
  144MOL0     N19786   3.899   3.752   1.472 -0.0779  0.3188 -0.3930
  144MOL0     C19787   2.950   2.795   1.306  0.9587  1.0444 -0.1968
  144MOL0     C19788   2.816   2.768   1.276 -0.5835 -0.5087  0.5235
  144MOL0     C19789   2.375   2.828   1.299 -0.2312  0.4413  0.3890
  144MOL0     C19790   2.285   2.769   1.399 -0.9555  0.9776  0.1115
  144MOL0     C19791   2.147   2.770   1.396 -0.6518 -0.1463  0.1045
  144MOL0     C19792   2.086   2.856   1.295 -0.6071  0.3287 -0.7898
  144MOL0     O19793   1.951   2.870   1.289 -0.5096 -0.0001 -0.5099
  144MOL0     C19794   1.889   2.906   1.418  0.5153 -0.3556  0.0972
  144MOL0     C19795   1.814   3.041   1.407  0.5236 -0.4690  0.0188
  144MOL0     C19796   1.661   3.022   1.368 -0.5782  0.4000  0.7317
  144MOL0     C19797   1.579   3.149   1.394 -0.4563 -0.6382  0.2584
  144MOL0     C19798   1.628   3.259   1.310  0.3390  0.8003 -0.3406
  144MOL0     C19799   1.655   3.359   1.255  0.5299 -0.2025 -0.9932
  144MOL0     C19800   2.168   2.933   1.203  0.1921  0.3000 -1.0815
  144MOL0     C19801   2.310   2.918   1.206  0.3833  0.0596 -1.2818
  144MOL0     C19802   2.379   3.007   1.111  0.1844  0.5486 -0.8281
  144MOL0     H19803   2.734   3.102   1.261 -1.0352 -0.2463  1.7175
  144MOL0     H19804   2.970   3.137   1.286 -1.2918 -0.1127 -1.7221
  144MOL0     H19805   3.156   3.112   1.435 -1.8298 -0.5752 -0.2986
  144MOL0     H19806   3.203   3.119   1.262 -1.9074  0.2179 -0.1695
  144MOL0     H19807   3.350   2.985   1.497  0.2505  2.8930  1.2767
  144MOL0     H19808   3.397   2.968   1.324 -1.1813 -2.4441  1.5127
  144MOL0     H19809   3.465   3.194   1.325  0.1157 -0.9735 -0.4557
  144MOL0     H19810   3.369   3.234   1.466  0.1622  0.9552  0.3272
  144MOL0     H19811   3.499   3.145   1.621  0.3365 -1.4972 -0.3454
  144MOL0     H19812   3.585   3.033   1.514 -0.0963 -0.0322  0.0003
  144MOL0     H19813   3.698   3.236   1.419 -0.3444 -0.7328  0.3142
  144MOL0     H19814   3.721   3.209   1.596 -3.3474 -4.6415  1.7069
  144MOL0     H19815   3.546   3.408   1.453 -0.1182 -3.4733 -1.1040
  144MOL0     H19816   3.552   3.400   1.628 -2.9748 -3.2124 -0.6213
  144MOL0     H19817   3.780   3.469   1.421  2.1523 -0.9706  0.7444
  144MOL0     H19818   3.805   3.451   1.596  0.8664  0.1462 -0.9142
  144MOL0     H19819   3.648   3.687   1.464  1.1660 -0.4039 -0.8865
  144MOL0     H19820   3.634   3.636   1.638  1.7531 -1.7279  1.1169
  144MOL0     H19821   3.841   3.657   1.777 -1.9173 -3.0640 -0.9724
  144MOL0     H19822   4.074   3.776   1.846 -0.9221  1.0511 -1.3873
  144MOL0     H19823   4.169   3.871   1.730 -2.4864 -0.2566  0.1005
  144MOL0     H19824   4.253   3.645   1.854 -1.5845  0.0652  0.4498
  144MOL0     H19825   4.177   3.563   1.708 -0.6047  0.2551 -0.3337
  144MOL0     H19826   4.288   3.725   1.554  2.6488  0.9722 -0.7121
  144MOL0     H19827   4.391   3.779   1.677 -2.8604  0.4126  1.5115
  144MOL0     H19828   4.455   3.520   1.685  0.5255 -1.2205 -1.0530
  144MOL0     H19829   4.328   3.495   1.567 -2.4142  1.1671  1.2548
  144MOL0     H19830   4.617   3.644   1.297  1.7856  0.6313  1.0614
  144MOL0     H19831   4.730   3.608   1.089  2.2022  1.4643 -1.3761
  144MOL0     H19832   4.748   3.438   1.023 -1.2679 -1.1293  2.1034
  144MOL0     H19833   4.877   3.520   1.120  0.0294 -0.8148 -1.4581
  144MOL0     H19834   4.932   2.923   1.381  0.7234 -0.3477  0.0663
  144MOL0     H19835   5.070   2.733   1.289  0.4253  0.6846 -0.1657
  144MOL0     H19836   5.024   2.569   0.877  0.6302 -2.1273  0.5704
  144MOL0     H19837   5.157   2.678   0.841  2.6889 -2.1259 -2.3880
  144MOL0     H19838   5.321   2.544   0.949  0.3210  0.4021 -0.0039
  144MOL0     H19839   5.200   2.426   1.008 -1.7433  0.3028 -0.4686
  144MOL0     H19840   5.242   2.495   0.717  0.0531 -0.4300 -0.9157
  144MOL0     H19841   5.149   2.371   0.799 -1.0363  1.6032  4.0232
  144MOL0     H19842   5.379   2.285   0.869  0.7790 -2.8334 -1.9800
  144MOL0     H19843   5.459   2.432   0.803 -0.4480  0.8110  0.0499
  144MOL0     H19844   5.297   2.217   0.659  1.2741 -1.1329  1.3326
  144MOL0     H19845   5.383   2.359   0.584 -2.4012 -0.8911 -0.8787
  144MOL0     H19846   5.507   2.124   0.715  0.3725 -1.1620 -1.1914
  144MOL0     H19847   5.601   2.250   0.632  1.4589 -1.7778 -1.7761
  144MOL0     H19848   5.476   2.230   0.425  0.8460 -0.6368 -1.6761
  144MOL0     H19849   5.399   2.085   0.489  1.6609 -2.2444 -0.0397
  144MOL0     H19850   5.582   2.007   0.373 -0.4685  1.9262 -0.9335
  144MOL0     H19851   5.636   1.984   0.539 -1.2883 -1.8996 -1.3706
  144MOL0     H19852   4.961   2.829   0.897 -1.7941 -0.2099 -0.0135
  144MOL0     H19853   4.840   3.027   0.978 -0.2483  1.0903  0.1215
  144MOL0     H19854   4.630   3.169   1.407 -1.5417  0.9824  0.5816
  144MOL0     H19855   4.508   3.330   1.552  1.4871 -1.3299  1.1010
  144MOL0     H19856   3.022   2.715   1.316  0.2305  0.4614  0.5333
  144MOL0     H19857   2.774   2.669   1.263 -0.5976 -0.1267 -3.5894
  144MOL0     H19858   2.331   2.710   1.478  1.5983  3.4615  0.6085
  144MOL0     H19859   2.084   2.714   1.464  0.8296  0.8906  2.4165
  144MOL0     H19860   1.816   2.827   1.438  3.4155 -2.5388  2.9541
  144MOL0     H19861   1.959   2.905   1.501 -1.9759 -0.7397  2.3378
  144MOL0     H19862   1.858   3.117   1.343  0.1804  1.1492  1.6136
  144MOL0     H19863   1.815   3.096   1.502  0.8059  1.4734 -1.0686
  144MOL0     H19864   1.664   3.005   1.260  0.8399 -1.9065  1.0749
  144MOL0     H19865   1.623   2.928   1.407  0.2707 -0.0089  0.6087
  144MOL0     H19866   1.592   3.179   1.498 -0.0247 -1.1399  0.3525
  144MOL0     H19867   1.474   3.127   1.374 -0.9136  1.2365  0.3799
  144MOL0     H19868   1.687   3.455   1.219  0.0614 -0.0481 -1.0060
  144MOL0     H19869   2.121   3.010   1.144 -0.7753 -0.2024 -0.9756
  144MOL0     H19870   2.449   2.952   1.047  1.9235 -1.3220  2.4239
  144MOL0     H19871   2.310   3.063   1.048  0.9485  1.3498 -0.9715
  144MOL0     H19872   2.442   3.081   1.161  0.0893 -0.0361  0.1817
  145MOL0     O19873   1.494   8.139   6.098  0.0623 -0.2899 -0.1484
  145MOL0     C19874   1.549   8.149   5.989 -0.1215 -0.3597  0.1381
  145MOL0     O19875   1.681   8.159   5.960 -0.1091  0.5311  0.4106
  145MOL0     C19876   1.778   8.070   6.012  0.1795 -0.7416 -0.3162
  145MOL0     C19877   1.756   7.958   6.089  0.5465 -1.0424 -0.6636
  145MOL0     C19878   1.860   7.875   6.125  1.0102  0.2521 -0.1054
  145MOL0     C19879   1.993   7.889   6.086  0.1237  0.6556 -0.1596
  145MOL0     O19880   2.088   7.791   6.116  0.2823  0.2684  0.3623
  145MOL0     C19881   2.198   7.787   6.029 -0.4227  0.4061  0.2177
  145MOL0     C19882   2.278   7.663   6.058 -0.3453  0.0212 -0.1868
  145MOL0     C19883   2.411   7.678   5.984 -0.2425 -0.0781  0.2587
  145MOL0     C19884   2.513   7.570   6.022  0.6404  0.1733  0.2549
  145MOL0     C19885   2.633   7.562   5.929  0.7188  0.0623 -0.1273
  145MOL0     C19886   2.723   7.432   5.950 -0.1905 -0.3315  0.0242
  145MOL0     C19887   2.857   7.444   5.870 -0.0985  0.4856 -0.1200
  145MOL0     C19888   2.969   7.360   5.928 -0.6270 -0.3591 -0.5459
  145MOL0     N19889   3.094   7.380   5.856 -0.1140 -0.3855 -0.8231
  145MOL0     C19890   3.108   7.402   5.721 -0.6687 -0.2545 -0.2082
  145MOL0     C19891   3.246   7.373   5.703 -0.0728 -0.1481  0.0686
  145MOL0     C19892   3.312   7.382   5.569  0.3561  0.0558 -0.1911
  145MOL0     C19893   3.393   7.507   5.549 -0.1308 -0.4141  0.1087
  145MOL0     C19894   3.423   7.540   5.405  0.0487 -0.1450 -0.4652
  145MOL0     C19895   3.511   7.665   5.402  0.4598  0.8944 -0.3702
  145MOL0     O19896   3.641   7.631   5.365 -0.1416  0.0743  0.9252
  145MOL0     C19897   3.726   7.604   5.474  0.7037 -1.2631  0.4222
  145MOL0     C19898   3.763   7.711   5.562  0.4058  0.3647 -0.0662
  145MOL0     C19899   3.848   7.669   5.673 -0.1742 -0.1380  0.2864
  145MOL0     C19900   3.870   7.785   5.764  0.1690 -0.4835  0.1754
  145MOL0     C19901   3.913   7.537   5.678  0.4306 -0.6440 -1.1547
  145MOL0     C19902   4.007   7.479   5.778 -0.4430  0.0678 -0.6799
  145MOL0     O19903   4.077   7.358   5.752 -0.2357 -0.9991 -0.4308
  145MOL0     C19904   4.112   7.287   5.865 -0.8647 -0.4796 -0.3893
  145MOL0     C19905   4.203   7.348   5.948  0.5770 -0.3952  0.7212
  145MOL0     C19906   4.226   7.294   6.077  0.0230 -0.0365  0.1505
  145MOL0     C19907   4.165   7.171   6.113  0.4022 -0.1332  0.2173
  145MOL0     O19908   4.196   7.090   6.226 -0.0988 -0.1378 -0.3487
  145MOL0     C19909   4.337   7.052   6.242 -0.1256  0.4146 -0.0226
  145MOL0     C19910   4.358   6.919   6.171  0.3544  0.4476 -0.0914
  145MOL0     C19911   4.276   6.805   6.249 -0.3030 -1.0173  0.4887
  145MOL0     C19912   4.299   6.675   6.179 -0.4629 -0.3398  0.3637
  145MOL0     C19913   4.221   6.659   6.043 -0.5463  0.8137 -0.1807
  145MOL0     C19914   4.071   6.691   6.049  1.2945 -0.3179  0.0068
  145MOL0     C19915   3.987   6.663   5.920 -0.2225  0.9849  0.5753
  145MOL0     C19916   3.860   6.598   5.970  0.3281  0.2023  1.1219
  145MOL0    Cl19917   3.791   6.488   5.848 -0.6062  0.0754  0.2717
  145MOL0     C19918   4.074   7.122   6.027  0.9925 -0.1325 -0.1714
  145MOL0     C19919   4.050   7.172   5.903 -0.0261  0.7295  0.1251
  145MOL0     O19920   4.021   7.539   5.886 -0.0155  0.6842 -0.1536
  145MOL0     C19921   3.863   7.441   5.588 -0.4594  0.1319 -0.0433
  145MOL0     C19922   3.785   7.475   5.479 -0.4835 -0.5229 -0.4268
  145MOL0     N19923   3.312   7.345   5.821  0.4404 -0.0954 -0.3298
  145MOL0     N19924   3.214   7.355   5.912  0.2388 -0.2663 -0.1949
  145MOL0     C19925   2.019   8.000   6.010 -0.5036  0.0062 -0.3250
  145MOL0     C19926   1.915   8.091   5.974 -0.4518 -0.8287  0.5930
  145MOL0     C19927   1.460   8.168   5.873  0.3268  0.4897 -0.1696
  145MOL0     C19928   1.513   8.233   5.764  0.2023 -0.5721  0.9193
  145MOL0     C19929   1.435   8.290   5.662  0.0345 -0.2854 -0.3291
  145MOL0     C19930   1.298   8.275   5.670  0.0819 -0.2367 -0.4881
  145MOL0     O19931   1.223   8.336   5.569  0.1536 -0.1783  0.4645
  145MOL0     C19932   1.077   8.305   5.578  0.0048 -0.8687 -0.0203
  145MOL0     C19933   1.011   8.383   5.458  0.0866 -0.4364 -0.7559
  145MOL0     C19934   1.072   8.340   5.328  0.6851  0.6909 -0.3125
  145MOL0     C19935   1.004   8.429   5.220  0.6934  0.7114 -0.7869
  145MOL0     C19936   1.077   8.554   5.211  0.4615  1.1543  0.8164
  145MOL0     C19937   1.148   8.652   5.189 -0.2618 -0.1819 -0.3505
  145MOL0     C19938   1.243   8.190   5.773 -0.2406  0.1664  0.3881
  145MOL0     C19939   1.325   8.133   5.870 -0.3043 -0.8257 -0.3277
  145MOL0     C19940   1.253   8.063   5.978 -0.3373 -0.3271  0.7972
  145MOL0     H19941   1.660   7.947   6.139  1.2351 -4.0364  0.2270
  145MOL0     H19942   1.828   7.795   6.191 -1.3305  0.7285 -0.5634
  145MOL0     H19943   2.254   7.878   6.047 -1.8638  1.0827  1.6044
  145MOL0     H19944   2.170   7.789   5.924  0.4760 -0.6331 -0.0581
  145MOL0     H19945   2.306   7.664   6.164 -3.6661  0.6308  0.8237
  145MOL0     H19946   2.225   7.571   6.034 -0.4724  0.1305 -0.3284
  145MOL0     H19947   2.379   7.660   5.881 -0.7553 -3.2776  0.8606
  145MOL0     H19948   2.462   7.773   6.002 -0.0130  0.3447 -2.2136
  145MOL0     H19949   2.552   7.580   6.123  1.8353 -1.1118 -0.0501
  145MOL0     H19950   2.466   7.471   6.017  0.8299  0.1399 -1.5155
  145MOL0     H19951   2.699   7.647   5.946  2.9693 -1.9294  1.8464
  145MOL0     H19952   2.589   7.550   5.829  0.6864 -0.8961 -0.0112
  145MOL0     H19953   2.745   7.414   6.056  2.3703 -0.3290 -0.4466
  145MOL0     H19954   2.666   7.351   5.905  2.1434 -3.1903  1.8367
  145MOL0     H19955   2.895   7.546   5.870  0.2653  0.3732  1.5284
  145MOL0     H19956   2.843   7.403   5.770  0.4582 -3.4044  1.2288
  145MOL0     H19957   2.978   7.375   6.036 -0.0926 -2.4711 -0.2518
  145MOL0     H19958   2.943   7.255   5.941 -0.2596 -0.2862  0.8524
  145MOL0     H19959   3.038   7.420   5.640  1.6279  0.9382 -2.0616
  145MOL0     H19960   3.234   7.373   5.493 -0.6645 -2.3104  1.0205
  145MOL0     H19961   3.380   7.297   5.557  0.1718 -0.1228  0.0329
  145MOL0     H19962   3.335   7.586   5.598 -0.6722 -0.3410 -0.6350
  145MOL0     H19963   3.493   7.499   5.594 -0.7748  0.1537  1.7249
  145MOL0     H19964   3.472   7.455   5.356  0.7546 -1.0617  1.7322
  145MOL0     H19965   3.328   7.567   5.359  0.5723 -0.7884 -2.0013
  145MOL0     H19966   3.477   7.741   5.331 -0.0459 -0.3891 -1.5577
  145MOL0     H19967   3.503   7.716   5.498 -1.3398  1.9599 -1.0240
  145MOL0     H19968   3.725   7.810   5.538 -1.5892 -0.0230  1.2498
  145MOL0     H19969   3.827   7.771   5.864  0.9315  2.0936  0.9301
  145MOL0     H19970   3.831   7.876   5.717 -0.6758 -0.5663  0.6944
  145MOL0     H19971   3.979   7.790   5.770  0.3062 -3.2201  2.2751
  145MOL0     H19972   4.255   7.437   5.916  0.9806 -1.0492 -0.4720
  145MOL0     H19973   4.297   7.343   6.143  1.0801 -0.7588 -0.4273
  145MOL0     H19974   4.395   7.134   6.199  1.0104 -0.9684 -1.2221
  145MOL0     H19975   4.363   7.044   6.348 -1.2090 -2.7885  0.1175
  145MOL0     H19976   4.324   6.940   6.069 -1.1331  1.1614  0.5293
  145MOL0     H19977   4.462   6.885   6.163 -0.1504 -1.3254  0.3946
  145MOL0     H19978   4.167   6.817   6.256 -0.5122 -1.1837 -1.8199
  145MOL0     H19979   4.315   6.805   6.351  0.3565 -0.5208  0.2378
  145MOL0     H19980   4.270   6.603   6.256  0.3633  0.1272  1.1300
  145MOL0     H19981   4.406   6.670   6.157 -0.3010  2.7091  0.1079
  145MOL0     H19982   4.265   6.722   5.965 -1.0287  0.5447 -0.6798
  145MOL0     H19983   4.241   6.562   5.997 -3.2736 -0.2493  0.6563
  145MOL0     H19984   4.055   6.796   6.073 -0.3244  0.1260 -2.6128
  145MOL0     H19985   4.033   6.628   6.130 -2.3920  0.4969 -0.9212
  145MOL0     H19986   4.034   6.591   5.853 -1.9225  2.1133 -1.9912
  145MOL0     H19987   3.967   6.760   5.873 -2.2597 -0.2041 -1.2117
  145MOL0     H19988   3.789   6.674   6.003 -0.2417  1.9616 -3.4300
  145MOL0     H19989   3.884   6.527   6.050  2.7007 -0.8349 -0.3880
  145MOL0     H19990   4.024   7.031   6.056 -2.4877  1.9799  1.0568
  145MOL0     H19991   3.971   7.126   5.845 -2.1989  1.0744  2.6013
  145MOL0     H19992   3.896   7.338   5.593  0.7826  0.5767  2.0755
  145MOL0     H19993   3.767   7.398   5.404  0.8404 -1.5855  0.2941
  145MOL0     H19994   2.122   8.010   5.976 -0.2334 -1.1563  0.1246
  145MOL0     H19995   1.942   8.174   5.909  1.5493 -1.4300  0.5949
  145MOL0     H19996   1.615   8.269   5.756  0.1418 -0.6666 -0.3997
  145MOL0     H19997   1.472   8.359   5.587  0.4689 -2.4276 -2.1639
  145MOL0     H19998   1.048   8.200   5.582 -1.6911 -0.4585 -0.6247
  145MOL0     H19999   1.042   8.356   5.668  1.4741  0.7058 -0.2865
  145MOL0     H20000   1.033   8.490   5.460  1.8383 -0.6930 -2.7902
  145MOL0     H20001   0.902   8.372   5.465 -0.0991  1.7635  0.6732
  145MOL0     H20002   1.178   8.366   5.332  0.6377  0.7104  1.5028
  145MOL0     H20003   1.051   8.235   5.306 -0.2080  1.1237 -1.6911
  145MOL0     H20004   0.901   8.455   5.249  1.7645  3.9005  0.5174
  145MOL0     H20005   0.997   8.382   5.121  0.4667  2.4666 -1.6349
  145MOL0     H20006   1.220   8.731   5.177  0.1497 -0.8227 -2.4515
  145MOL0     H20007   1.137   8.167   5.765  0.1593 -1.2466 -1.5610
  145MOL0     H20008   1.160   8.009   5.958  0.8895 -2.0654 -0.5049
  145MOL0     H20009   1.316   7.983   6.017  0.0068 -1.6344 -2.1630
  145MOL0     H20010   1.226   8.135   6.056  0.1637  1.4068 -0.5746
  146MOL0     O20011   1.386   9.527   8.789 -0.2808 -0.1657  0.5495
  146MOL0     C20012   1.368   9.511   8.665  0.0302 -0.8395 -1.0347
  146MOL0     O20013   1.425   9.583   8.571  0.5309 -0.3296  0.0622
  146MOL0     C20014   1.515   9.677   8.612  0.3985  0.2723  0.1966
  146MOL0     C20015   1.640   9.639   8.663 -0.2323  0.1249  0.0388
  146MOL0     C20016   1.723   9.746   8.713 -0.0575  0.0769 -0.9955
  146MOL0     C20017   1.681   9.884   8.721 -0.0751 -0.3211  0.1747
  146MOL0     O20018   1.744   9.985   8.777  0.1006 -0.8006  0.3182
  146MOL0     C20019   1.840   9.965   8.882  0.1227 -0.3862 -0.7089
  146MOL0     C20020   1.880  10.097   8.941  0.4020 -0.6609 -0.3096
  146MOL0     C20021   1.765  10.150   9.022 -0.1121  0.1198  0.6190
  146MOL0     C20022   1.807  10.281   9.085  0.0990  0.2915 -0.1290
  146MOL0     C20023   1.684  10.359   9.144 -0.5371  0.0825  0.5345
  146MOL0     C20024   1.723  10.505   9.179  0.2404  0.7663  0.3354
  146MOL0     C20025   1.596  10.583   9.219 -0.0086  0.5017 -1.0465
  146MOL0     C20026   1.549  10.539   9.363 -0.2647 -0.1081 -0.0899
  146MOL0     N20027   1.600  10.622   9.478 -0.3264  0.1450  0.1857
  146MOL0     C20028   1.587  10.761   9.496 -0.2904 -0.1629 -0.2540
  146MOL0     C20029   1.657  10.786   9.614 -0.1423  0.6460 -0.5137
  146MOL0     C20030   1.659  10.914   9.690  0.2240 -0.3785  0.6585
  146MOL0     C20031   1.794  10.955   9.765  0.1761  0.7089  0.4031
  146MOL0     C20032   1.797  11.098   9.807  0.3869  0.4358  0.1599
  146MOL0     C20033   1.934  11.133   9.879  0.7560 -0.3653 -0.5570
  146MOL0     O20034   1.960  11.045   9.993  0.3604  0.5901  0.4966
  146MOL0     C20035   2.057  11.060  10.075 -0.1554  0.6463  0.0672
  146MOL0     C20036   2.080  10.949  10.164  0.7898  0.6307 -0.6161
  146MOL0     C20037   2.182  10.949  10.264  1.0034  0.2226  0.0949
  146MOL0     C20038   2.199  10.824  10.347 -0.2557 -0.6758 -0.1396
  146MOL0     C20039   2.268  11.074  10.276 -0.0832 -0.3076  0.1327
  146MOL0     C20040   2.381  11.087  10.373  0.2566  0.4831  1.0745
  146MOL0     O20041   2.451  11.198  10.369  0.2893 -0.7818 -0.0040
  146MOL0     C20042   2.573  11.192  10.429 -0.3700 -0.2369 -0.1070
  146MOL0     C20043   2.678  11.129  10.354  0.5518 -0.8611  0.2300
  146MOL0     C20044   2.803  11.109  10.415 -0.3532 -0.1343 -0.0646
  146MOL0     C20045   2.833  11.160  10.542  0.8766  0.3341  1.1456
  146MOL0     O20046   2.961  11.135  10.588  0.9258 -0.4592 -0.0730
  146MOL0     C20047   2.965  11.119  10.731  1.0477 -0.2915 -0.6709
  146MOL0     C20048   3.057  11.012  10.768 -0.5266 -0.0523 -0.0306
  146MOL0     C20049   3.202  11.035  10.749 -0.1050 -0.0907 -0.3568
  146MOL0     C20050   3.265  11.135  10.848 -0.5725  0.1610 -0.6789
  146MOL0     C20051   3.367  11.237  10.788  0.2020 -0.5648  0.7233
  146MOL0     C20052   3.493  11.172  10.753  0.3281 -1.0290 -0.3813
  146MOL0     C20053   3.587  11.279  10.698  0.2799  0.3013  0.7076
  146MOL0     C20054   3.727  11.223  10.705 -0.7457  0.9016 -0.3319
  146MOL0    Cl20055   3.847  11.316  10.610  0.3268 -0.1608  0.5911
  146MOL0     C20056   2.730  11.229  10.614 -0.2087  0.6076 -0.8781
  146MOL0     C20057   2.604  11.245  10.556 -0.1695  0.7087 -0.7087
  146MOL0     O20058   2.428  10.983  10.432 -0.6020 -0.7342 -0.4993
  146MOL0     C20059   2.241  11.176  10.177  0.2745  0.2168 -1.0333
  146MOL0     C20060   2.136  11.170  10.086  0.1391 -0.1037 -0.1092
  146MOL0     N20061   1.717  10.666   9.654 -0.2324  0.0802 -0.7434
  146MOL0     N20062   1.687  10.576   9.572  0.1601  0.1199 -0.0831
  146MOL0     C20063   1.555   9.915   8.667  0.3558  0.2095 -0.8642
  146MOL0     C20064   1.476   9.809   8.616  0.2301 -0.1862  0.2303
  146MOL0     C20065   1.247   9.416   8.639  0.3955 -0.3256  0.1076
  146MOL0     C20066   1.228   9.308   8.730 -1.1250  0.3832  0.3595
  146MOL0     C20067   1.120   9.224   8.727 -0.7108 -0.3813 -0.2806
  146MOL0     C20068   1.028   9.243   8.628  0.5464 -0.5861 -0.1843
  146MOL0     O20069   0.928   9.152   8.609 -0.5371 -0.0111  0.4730
  146MOL0     C20070   0.888   9.068   8.711  0.5540  0.3337 -0.3483
  146MOL0     C20071   0.768   8.976   8.686 -0.0315  0.0528  0.2459
  146MOL0     C20072   0.629   9.037   8.652  0.4516  1.0572 -0.5437
  146MOL0     C20073   0.521   8.930   8.633 -0.4820 -0.3340 -0.2090
  146MOL0     C20074   0.460   8.896   8.758  0.0402  0.8842 -0.0702
  146MOL0     C20075   0.407   8.870   8.867 -0.3218 -0.7097  0.6199
  146MOL0     C20076   1.048   9.343   8.528  0.0020  0.0457 -0.4476
  146MOL0     C20077   1.155   9.427   8.539 -0.0898 -1.3642  0.6587
  146MOL0     C20078   1.155   9.544   8.440  0.2041 -0.6306 -0.5494
  146MOL0     H20079   1.668   9.534   8.665 -2.6258 -0.6652  4.2670
  146MOL0     H20080   1.821   9.714   8.747 -0.9941 -0.1978  1.7159
  146MOL0     H20081   1.931   9.913   8.851  1.8465  1.7412  0.5026
  146MOL0     H20082   1.806   9.901   8.963  2.4450 -1.9214 -0.8654
  146MOL0     H20083   1.962  10.085   9.013 -1.1438  0.5985  1.7589
  146MOL0     H20084   1.905  10.154   8.851 -0.9259  1.8936  0.8407
  146MOL0     H20085   1.672  10.160   8.966  0.7852  0.4658 -0.8770
  146MOL0     H20086   1.754  10.084   9.109 -4.1245  0.7552  0.7757
  146MOL0     H20087   1.889  10.256   9.152  1.2414  2.1683 -0.7694
  146MOL0     H20088   1.852  10.342   9.007  0.0009 -2.2754 -2.3673
  146MOL0     H20089   1.636  10.317   9.232 -0.7321  1.5341  1.1538
  146MOL0     H20090   1.602  10.355   9.072 -2.2083 -0.4122  2.3692
  146MOL0     H20091   1.798  10.502   9.259  3.2971  1.8462 -2.2662
  146MOL0     H20092   1.772  10.548   9.090  0.1325 -1.5032 -0.8874
  146MOL0     H20093   1.513  10.554   9.154 -1.4585  1.6777  0.1944
  146MOL0     H20094   1.605  10.692   9.209 -2.0154  0.8909  0.7064
  146MOL0     H20095   1.444  10.570   9.364 -0.6441 -1.2856 -1.0087
  146MOL0     H20096   1.553  10.432   9.385 -3.8945  0.0341  2.1578
  146MOL0     H20097   1.532  10.840   9.447  1.0236  1.3279  0.5922
  146MOL0     H20098   1.581  10.911   9.766  1.3262 -4.1884  1.8634
  146MOL0     H20099   1.648  11.002   9.625 -0.2296 -0.3533  0.7629
  146MOL0     H20100   1.802  10.882   9.846  0.1867 -3.4396 -2.9713
  146MOL0     H20101   1.873  10.937   9.691  0.6820 -0.2829  1.1605
  146MOL0     H20102   1.797  11.150   9.710  0.5771  0.9131  0.4172
  146MOL0     H20103   1.709  11.123   9.867  2.0498  2.3012  1.9813
  146MOL0     H20104   2.019  11.131   9.810  1.1851  3.0200 -0.3220
  146MOL0     H20105   1.930  11.240   9.902  0.6869 -0.9279  2.3986
  146MOL0     H20106   2.012  10.864  10.159  1.8443 -0.2117 -1.2248
  146MOL0     H20107   2.296  10.784  10.315 -0.0176  0.3479 -0.7675
  146MOL0     H20108   2.124  10.750  10.318  2.4510 -3.4513 -0.6242
  146MOL0     H20109   2.184  10.852  10.452  0.8458 -0.7736  0.0568
  146MOL0     H20110   2.665  11.088  10.255  0.2058  0.8450 -0.4806
  146MOL0     H20111   2.878  11.057  10.356 -2.7759 -1.9699 -1.7588
  146MOL0     H20112   2.991  11.215  10.777 -1.9892 -0.1451  0.9628
  146MOL0     H20113   2.870  11.089  10.775  1.9148 -0.5468  1.1540
  146MOL0     H20114   3.053  10.994  10.876  1.8718  0.9368  0.2885
  146MOL0     H20115   3.032  10.922  10.710 -0.1386 -1.0723  1.3281
  146MOL0     H20116   3.223  11.074  10.649  0.8677 -0.4112 -0.2877
  146MOL0     H20117   3.251  10.937  10.754 -1.3420 -0.7308 -0.1164
  146MOL0     H20118   3.313  11.083  10.931 -2.9926 -1.0297  0.0722
  146MOL0     H20119   3.180  11.197  10.878 -2.6000 -0.9933 -3.5677
  146MOL0     H20120   3.332  11.286  10.697  1.7827 -0.9149 -0.1039
  146MOL0     H20121   3.374  11.318  10.862  3.1964 -0.0835 -0.0016
  146MOL0     H20122   3.477  11.089  10.683 -0.4514 -0.1751 -1.2496
  146MOL0     H20123   3.533  11.136  10.848  0.0636 -1.3589 -0.3955
  146MOL0     H20124   3.585  11.368  10.761 -0.2252 -0.0404  1.1863
  146MOL0     H20125   3.557  11.304  10.596  0.0970  0.5450  0.8203
  146MOL0     H20126   3.720  11.120  10.670 -2.8824  1.3734 -1.4428
  146MOL0     H20127   3.759  11.221  10.809 -1.7136  1.1559 -0.0259
  146MOL0     H20128   2.751  11.272  10.711 -2.5118 -1.8499  0.8521
  146MOL0     H20129   2.525  11.303  10.603 -0.0793  0.5409 -0.3484
  146MOL0     H20130   2.310  11.259  10.168  1.5344 -0.8767 -1.6157
  146MOL0     H20131   2.106  11.258  10.030 -2.8306  0.4157  2.0718
  146MOL0     H20132   1.516  10.016   8.675 -0.4259 -0.2070  1.7877
  146MOL0     H20133   1.381   9.836   8.571  0.5054  0.8321  0.2286
  146MOL0     H20134   1.299   9.304   8.812 -2.5678 -0.6135  1.6032
  146MOL0     H20135   1.102   9.141   8.794  1.5882 -1.0158 -0.3837
  146MOL0     H20136   0.974   9.003   8.733  0.4923  1.4046  3.7676
  146MOL0     H20137   0.859   9.125   8.800  0.3818  2.2301 -1.5739
  146MOL0     H20138   0.756   8.924   8.782  1.7522 -0.1629  0.3948
  146MOL0     H20139   0.809   8.898   8.621  0.3495 -1.0179  1.6978
  146MOL0     H20140   0.601   9.104   8.734  1.0588 -0.9421  1.3945
  146MOL0     H20141   0.637   9.091   8.557  1.8648  0.7088 -0.6540
  146MOL0     H20142   0.571   8.852   8.575  0.8859  1.8360 -2.1562
  146MOL0     H20143   0.445   8.983   8.574 -0.7410 -2.0790 -1.5074
  146MOL0     H20144   0.372   8.825   8.958  0.7645  0.2604  1.5597
  146MOL0     H20145   0.980   9.346   8.443 -0.6759 -1.5603 -0.0021
  146MOL0     H20146   1.225   9.524   8.358  0.5277  1.3034 -0.8134
  146MOL0     H20147   1.053   9.558   8.403 -0.7169 -1.6036  1.4532
  146MOL0     H20148   1.183   9.641   8.484 -1.1384 -1.0248  1.2932
  147MOL0     O20149   1.876   7.158  10.409 -0.6994  0.0820  0.4025
  147MOL0     C20150   1.793   7.085  10.459 -0.5407  0.5071 -1.2630
  147MOL0     O20151   1.694   7.003  10.391 -0.1957 -0.5962  0.0098
  147MOL0     C20152   1.697   7.001  10.257  0.2504 -0.2269 -0.0506
  147MOL0     C20153   1.811   6.973  10.174  0.7195 -0.4528 -0.3019
  147MOL0     C20154   1.805   6.978  10.029  0.0939  0.1305 -0.7904
  147MOL0     C20155   1.680   6.992   9.970  0.4827  0.2252 -0.4019
  147MOL0     O20156   1.667   6.991   9.837 -0.4395 -0.4945  0.6556
  147MOL0     C20157   1.774   7.024   9.748 -0.0611  0.0979  0.3131
  147MOL0     C20158   1.733   7.045   9.601  0.1506 -0.2022 -0.3502
  147MOL0     C20159   1.663   7.178   9.580 -0.0098  0.3965 -0.0568
  147MOL0     C20160   1.623   7.193   9.432 -0.2447  1.1868 -0.5157
  147MOL0     C20161   1.742   7.209   9.343  0.5100 -0.7880  0.7308
  147MOL0     C20162   1.701   7.254   9.200 -0.7778 -0.4851 -0.1278
  147MOL0     C20163   1.819   7.305   9.113 -0.3319  0.1247  1.0145
  147MOL0     C20164   1.778   7.370   8.979  0.2888 -0.4629  0.4279
  147MOL0     N20165   1.886   7.436   8.902 -0.0348  0.1733 -0.4066
  147MOL0     C20166   1.969   7.542   8.945 -0.3832  0.2540  0.6969
  147MOL0     C20167   2.057   7.555   8.836  0.0101  0.4597 -0.0833
  147MOL0     C20168   2.163   7.653   8.825 -0.7762 -0.2418  1.0309
  147MOL0     C20169   2.122   7.788   8.775  1.0201  0.2582 -1.0532
  147MOL0     C20170   2.043   7.882   8.881  0.8534  0.0640 -0.3908
  147MOL0     C20171   2.018   8.023   8.843  0.3257  0.5541 -0.6311
  147MOL0     O20172   1.958   8.037   8.718 -0.3122 -0.6106 -0.2526
  147MOL0     C20173   2.043   8.062   8.610 -0.7799 -0.4040 -0.4970
  147MOL0     C20174   1.998   8.028   8.481 -0.0260 -0.2703 -0.1272
  147MOL0     C20175   2.070   8.074   8.372 -0.0814  0.7981  0.3822
  147MOL0     C20176   2.002   8.053   8.234 -0.6811  0.1177  0.0532
  147MOL0     C20177   2.193   8.143   8.384  0.7196 -0.7149  0.1821
  147MOL0     C20178   2.273   8.196   8.266 -0.4119  0.2501 -0.0349
  147MOL0     O20179   2.375   8.278   8.300 -0.7599 -0.4860 -0.2129
  147MOL0     C20180   2.442   8.339   8.196 -0.0146  0.6381  0.0612
  147MOL0     C20181   2.582   8.319   8.193 -0.4963 -0.2853  0.0102
  147MOL0     C20182   2.666   8.368   8.087  0.4456 -0.0750  0.0408
  147MOL0     C20183   2.598   8.440   7.980 -0.2422  0.3828 -0.5161
  147MOL0     O20184   2.679   8.483   7.872 -0.1388  0.3682  0.9258
  147MOL0     C20185   2.756   8.386   7.791 -0.6606  0.6034  0.7633
  147MOL0     C20186   2.887   8.451   7.752 -0.8623  0.2048  0.1667
  147MOL0     C20187   2.984   8.413   7.856 -0.5847  0.5175  0.3414
  147MOL0     C20188   3.110   8.492   7.834  0.3449  0.0939  0.3627
  147MOL0     C20189   3.213   8.456   7.944 -0.6994  0.6454 -0.9629
  147MOL0     C20190   3.343   8.535   7.942  0.9341 -0.2191  0.6548
  147MOL0     C20191   3.426   8.521   8.074  0.7633 -0.0018 -0.6728
  147MOL0     C20192   3.484   8.381   8.096 -0.0548 -0.7349  0.0008
  147MOL0    Cl20193   3.359   8.282   8.173 -0.2379  0.0220  0.2376
  147MOL0     C20194   2.465   8.461   7.987  0.4841 -0.1563  0.0323
  147MOL0     C20195   2.389   8.415   8.097  0.3405 -0.3470  0.2274
  147MOL0     O20196   2.260   8.146   8.148 -0.1866  0.7970 -0.1895
  147MOL0     C20197   2.237   8.175   8.515  0.8563  0.1513 -0.0744
  147MOL0     C20198   2.166   8.130   8.626 -0.3188  0.0717 -0.2190
  147MOL0     N20199   2.019   7.471   8.735  0.2664 -0.0635 -0.7431
  147MOL0     N20200   1.914   7.409   8.771 -0.1076  0.1305  0.1552
  147MOL0     C20201   1.569   7.017  10.045 -0.7525 -0.5359 -0.4320
  147MOL0     C20202   1.575   7.021  10.186  0.2791  0.3282 -0.3436
  147MOL0     C20203   1.799   7.077  10.613 -0.2934 -0.6515 -0.1339
  147MOL0     C20204   1.765   6.951  10.678 -0.3768 -0.7701  1.4149
  147MOL0     C20205   1.751   6.943  10.815 -0.7046 -0.9912  1.0363
  147MOL0     C20206   1.790   7.054  10.888  0.9621 -0.0894 -1.0214
  147MOL0     O20207   1.802   7.029  11.021 -0.2100 -0.5982  0.2328
  147MOL0     C20208   1.681   7.066  11.103 -0.1414  0.3848 -0.0845
  147MOL0     C20209   1.666   7.214  11.129 -0.3061  0.5967  0.5879
  147MOL0     C20210   1.780   7.276  11.208 -0.3498 -0.5802  0.4453
  147MOL0     C20211   1.734   7.406  11.269 -0.1965  0.6938 -0.0884
  147MOL0     C20212   1.839   7.467  11.346 -0.1025 -0.0955  0.0278
  147MOL0     C20213   1.911   7.531  11.419  0.3925  0.4804  0.8078
  147MOL0     C20214   1.812   7.181  10.831  0.5233 -0.4751  0.0458
  147MOL0     C20215   1.809   7.196  10.692 -0.7290  0.1418 -0.8610
  147MOL0     C20216   1.840   7.332  10.647  0.0643  0.5070  0.2031
  147MOL0     H20217   1.915   6.970  10.204  0.7075  0.7483 -0.0856
  147MOL0     H20218   1.896   6.978   9.971  0.8206  1.7205  0.2797
  147MOL0     H20219   1.847   6.943   9.744  1.6602  1.6205 -1.3422
  147MOL0     H20220   1.825   7.113   9.786  2.5543 -1.5586  0.8895
  147MOL0     H20221   1.820   7.028   9.537 -1.4216 -2.2636 -2.1184
  147MOL0     H20222   1.662   6.970   9.565  0.0115  0.1317 -0.7658
  147MOL0     H20223   1.569   7.184   9.635 -0.3404  1.7198 -0.7350
  147MOL0     H20224   1.731   7.260   9.606 -1.9220  1.8538  0.5176
  147MOL0     H20225   1.565   7.105   9.403 -0.1920  0.5058  1.3311
  147MOL0     H20226   1.557   7.280   9.420 -0.0240  1.2920 -1.0340
  147MOL0     H20227   1.796   7.114   9.338  0.3542 -0.8402 -0.1179
  147MOL0     H20228   1.803   7.289   9.386  2.8663 -0.1340 -3.2952
  147MOL0     H20229   1.667   7.165   9.145 -0.2384 -0.9451  0.2727
  147MOL0     H20230   1.613   7.319   9.198 -2.5972 -2.7874 -2.7833
  147MOL0     H20231   1.890   7.228   9.083 -1.7854 -0.5520 -0.8745
  147MOL0     H20232   1.881   7.372   9.174 -1.5411  1.5031  0.7883
  147MOL0     H20233   1.749   7.288   8.912  3.2326  0.5842 -2.3833
  147MOL0     H20234   1.694   7.436   9.002  0.1740 -0.8644  1.1959
  147MOL0     H20235   1.957   7.598   9.037  1.8398  2.3045 -0.1814
  147MOL0     H20236   2.250   7.614   8.772 -0.5412  0.1707  1.1060
  147MOL0     H20237   2.204   7.671   8.925  3.2787  2.6716 -0.8485
  147MOL0     H20238   2.212   7.840   8.741  2.6850 -0.2660  2.2498
  147MOL0     H20239   2.051   7.760   8.696  0.2006 -3.6015  0.8433
  147MOL0     H20240   1.954   7.823   8.904  1.9945 -0.9849  1.6287
  147MOL0     H20241   2.110   7.881   8.968  0.3889 -2.7061  0.0437
  147MOL0     H20242   1.946   8.066   8.913  1.3271  0.6285  0.3735
  147MOL0     H20243   2.103   8.086   8.869  0.1035  1.2039 -1.4149
  147MOL0     H20244   1.900   7.985   8.466 -0.2082  0.6125 -1.6302
  147MOL0     H20245   2.073   7.998   8.173  1.0700  0.7664  1.4256
  147MOL0     H20246   1.968   8.144   8.185  3.2261  1.7010 -0.0422
  147MOL0     H20247   1.914   7.989   8.250 -0.9667  0.1302 -1.3520
  147MOL0     H20248   2.648   8.268   8.263 -0.8026 -3.1809 -1.6503
  147MOL0     H20249   2.773   8.354   8.081  0.6120  1.3918 -1.5293
  147MOL0     H20250   2.772   8.287   7.834  2.1825  0.7007  0.1241
  147MOL0     H20251   2.697   8.363   7.702 -0.7281  1.0887  0.6787
  147MOL0     H20252   2.926   8.412   7.658  0.8402  0.3409  0.7882
  147MOL0     H20253   2.875   8.558   7.728  1.8385  0.8418  1.3098
  147MOL0     H20254   3.012   8.307   7.862  0.1551  0.7722  1.6333
  147MOL0     H20255   2.942   8.431   7.955 -1.3771  2.2018 -0.2789
  147MOL0     H20256   3.082   8.596   7.855 -0.1593  0.6276 -2.5398
  147MOL0     H20257   3.150   8.478   7.733  0.9376  2.3270  0.2398
  147MOL0     H20258   3.167   8.466   8.043  1.4107 -1.6156  0.3514
  147MOL0     H20259   3.236   8.350   7.929 -0.9085  0.9950 -4.5632
  147MOL0     H20260   3.321   8.638   7.914  0.2660  0.1836  2.4758
  147MOL0     H20261   3.408   8.493   7.865  0.8400 -0.5499  0.7542
  147MOL0     H20262   3.381   8.563   8.165  2.8179 -1.4078  1.1282
  147MOL0     H20263   3.519   8.576   8.058  2.1984 -0.0650  5.1111
  147MOL0     H20264   3.568   8.399   8.163 -0.5837  0.6122  0.3498
  147MOL0     H20265   3.526   8.346   8.001 -1.1608 -0.4060 -0.6370
  147MOL0     H20266   2.427   8.503   7.894  2.1723  0.8230 -0.2453
  147MOL0     H20267   2.281   8.426   8.096  0.4707  1.4072  1.2490
  147MOL0     H20268   2.332   8.226   8.525  0.0392  1.8358 -0.5072
  147MOL0     H20269   2.202   8.150   8.726 -0.6875 -0.2924 -0.0082
  147MOL0     H20270   1.472   7.040  10.001 -0.6990  3.4318  1.0956
  147MOL0     H20271   1.490   7.029  10.252  1.4911  0.4114  1.2845
  147MOL0     H20272   1.747   6.864  10.616  1.8216 -1.3335  1.4778
  147MOL0     H20273   1.732   6.845  10.856 -2.1504 -1.0000  0.4063
  147MOL0     H20274   1.588   7.025  11.063  1.0290 -2.0161 -0.5287
  147MOL0     H20275   1.702   7.022  11.201  2.1436 -2.2312 -1.5758
  147MOL0     H20276   1.577   7.213  11.193 -0.4001  0.0255  0.4534
  147MOL0     H20277   1.661   7.267  11.033 -0.3372  1.1206  0.8725
  147MOL0     H20278   1.818   7.198  11.275 -0.5170 -3.1512 -2.2767
  147MOL0     H20279   1.855   7.311  11.137 -2.7752 -0.2698 -2.1169
  147MOL0     H20280   1.651   7.386  11.336  0.7958  0.4683  1.1047
  147MOL0     H20281   1.690   7.472  11.194 -1.1491  0.3889  0.1968
  147MOL0     H20282   1.976   7.595  11.474  2.8507  0.2569 -1.5905
  147MOL0     H20283   1.832   7.259  10.904  2.3961 -0.1139 -0.7879
  147MOL0     H20284   1.782   7.361  10.559  0.3157  3.3003  0.8884
  147MOL0     H20285   1.816   7.405  10.724  0.3848 -1.2173  2.0400
  147MOL0     H20286   1.946   7.333  10.618  0.1133 -2.2928 -0.0790
  148MOL0     O20287   9.331   8.365   3.424 -0.1140  0.0661  0.0566
  148MOL0     C20288   9.363   8.251   3.451  0.2754 -0.6804  0.2507
  148MOL0     O20289   9.332   8.191   3.565 -0.2057 -0.5036  0.2319
  148MOL0     C20290   9.251   8.244   3.663 -0.0801 -0.1365 -0.1149
  148MOL0     C20291   9.144   8.168   3.702 -0.5503  0.8597 -0.6858
  148MOL0     C20292   9.058   8.213   3.803 -1.4707  0.5853  0.1112
  148MOL0     C20293   9.075   8.336   3.868  0.6169  0.7915  0.2062
  148MOL0     O20294   8.985   8.376   3.966 -0.0981  0.0735  0.7527
  148MOL0     C20295   9.053   8.433   4.071  0.5809  1.3306 -0.7270
  148MOL0     C20296   8.961   8.425   4.185  0.6930  0.2707 -0.3690
  148MOL0     C20297   8.921   8.288   4.217 -0.8642  0.4608  0.5132
  148MOL0     C20298   9.043   8.220   4.282  0.0600  0.3380 -0.0061
  148MOL0     C20299   9.017   8.072   4.324  0.3567  0.3153 -0.6076
  148MOL0     C20300   8.988   7.979   4.204  0.1894  0.2677 -0.2833
  148MOL0     C20301   9.085   7.986   4.081 -0.4837  0.7035  0.0067
  148MOL0     C20302   9.236   7.965   4.124  1.1031 -0.9028  0.9106
  148MOL0     N20303   9.323   7.948   4.004 -0.4919  0.1105 -0.0024
  148MOL0     C20304   9.285   7.913   3.876  0.3318 -0.8255 -0.2899
  148MOL0     C20305   9.391   7.921   3.798  0.6078  0.1742 -0.0431
  148MOL0     C20306   9.391   7.873   3.655 -0.7003 -1.1682  0.4090
  148MOL0     C20307   9.503   7.769   3.623 -0.7582  0.3659 -0.1745
  148MOL0     C20308   9.504   7.709   3.485  0.2467  0.2140  0.4177
  148MOL0     C20309   9.599   7.598   3.474  0.2993  0.4388  0.0756
  148MOL0     O20310   9.717   7.629   3.555 -0.0798  0.7366 -0.0130
  148MOL0     C20311   9.832   7.679   3.492  0.0212 -0.4795 -0.2329
  148MOL0     C20312   9.915   7.723   3.592 -0.0604 -0.1266  0.0666
  148MOL0     C20313  10.046   7.773   3.570  0.0422 -0.4688 -0.2111
  148MOL0     C20314  10.112   7.861   3.671  0.2627 -0.3037  0.3722
  148MOL0     C20315  10.089   7.763   3.436 -1.2026  0.4432 -0.3968
  148MOL0     C20316  10.223   7.816   3.389  0.1432  0.8981 -1.4798
  148MOL0     O20317  10.264   7.944   3.383 -0.6550  0.4012  0.3514
  148MOL0     C20318  10.385   7.962   3.315  1.0596  0.4738 -1.2249
  148MOL0     C20319  10.507   7.941   3.381 -0.2223 -1.2655  0.2830
  148MOL0     C20320  10.625   7.970   3.313  0.3951  0.0765 -0.0478
  148MOL0     C20321  10.629   8.023   3.184 -0.0461 -0.1218 -0.5787
  148MOL0     O20322  10.732   8.062   3.113 -0.3904 -0.1606  0.2874
  148MOL0     C20323  10.861   7.997   3.153 -0.4318  0.0713  0.2250
  148MOL0     C20324  10.969   8.045   3.057 -0.8103 -0.5037 -1.3574
  148MOL0     C20325  11.117   8.010   3.098  0.5499 -0.4564  0.1026
  148MOL0     C20326  11.216   8.044   2.984  0.1658  0.3965 -1.3829
  148MOL0     C20327  11.366   8.015   3.019 -0.3868 -0.5763 -0.4389
  148MOL0     C20328  11.423   8.099   3.130 -0.6738  0.5642  0.2690
  148MOL0     C20329  11.572   8.070   3.158  0.6747  0.0563  0.4646
  148MOL0     C20330  11.657   8.163   3.077 -0.0308 -0.0728  0.0522
  148MOL0    Cl20331  11.820   8.208   3.163  0.0673  0.2121 -0.2600
  148MOL0     C20332  10.506   8.057   3.126 -0.5939  0.1124 -0.5759
  148MOL0     C20333  10.386   8.028   3.193 -0.7494 -0.1975  0.2589
  148MOL0     O20334  10.295   7.723   3.365 -0.3152 -0.0406  0.3633
  148MOL0     C20335  10.015   7.703   3.333  0.2132  0.8061  0.3531
  148MOL0     C20336   9.883   7.656   3.359  0.4590  0.2164  0.0360
  148MOL0     N20337   9.492   7.948   3.883 -0.5368  0.8096 -1.3427
  148MOL0     N20338   9.459   7.959   4.005 -0.3789  0.0761  0.2872
  148MOL0     C20339   9.193   8.406   3.834  0.3861 -0.9189  0.1600
  148MOL0     C20340   9.277   8.366   3.724  0.2354 -0.2054 -0.2716
  148MOL0     C20341   9.413   8.176   3.333 -0.7373  0.8905  0.2363
  148MOL0     C20342   9.359   8.045   3.324 -1.2035  1.0925  0.2813
  148MOL0     C20343   9.411   7.953   3.226  0.2365 -0.4302 -0.4834
  148MOL0     C20344   9.490   7.996   3.117 -0.2051  0.1869  0.8776
  148MOL0     O20345   9.527   7.911   3.009 -0.2462  0.1754  0.2559
  148MOL0     C20346   9.547   7.775   3.046 -0.0728 -0.1472  0.7014
  148MOL0     C20347   9.669   7.721   2.960 -0.0185  0.4761  0.8126
  148MOL0     C20348   9.804   7.801   2.977  0.2884  0.5308  0.0682
  148MOL0     C20349   9.914   7.731   2.893  0.9533 -0.3146 -0.2098
  148MOL0     C20350  10.038   7.808   2.913 -0.0043 -0.4691  0.4199
  148MOL0     C20351  10.136   7.871   2.941  0.7896  0.5610  0.4438
  148MOL0     C20352   9.531   8.138   3.122 -0.6424 -0.0079 -0.2222
  148MOL0     C20353   9.492   8.227   3.224  0.5010 -0.0516  0.0973
  148MOL0     C20354   9.561   8.362   3.230 -0.0360 -0.1140  0.5601
  148MOL0     H20355   9.132   8.069   3.659 -1.8206  0.7806 -0.2043
  148MOL0     H20356   8.997   8.133   3.843  2.0453 -2.1001  0.6239
  148MOL0     H20357   9.073   8.538   4.045 -0.5724  1.7603  0.0477
  148MOL0     H20358   9.156   8.402   4.091  1.4500  4.1734 -0.2701
  148MOL0     H20359   9.014   8.456   4.276  1.6444 -3.7455  0.6205
  148MOL0     H20360   8.877   8.491   4.163  0.1742 -0.1845  0.2268
  148MOL0     H20361   8.842   8.277   4.292 -0.4571  0.9552  1.0209
  148MOL0     H20362   8.890   8.224   4.134 -0.0473 -0.2458  0.7422
  148MOL0     H20363   9.137   8.234   4.228  0.5135  1.4124  1.0189
  148MOL0     H20364   9.056   8.273   4.377  0.3709 -1.5913  1.0968
  148MOL0     H20365   8.928   8.080   4.388  1.1194  3.0935  0.2465
  148MOL0     H20366   9.098   8.030   4.384  0.8350  1.1978 -0.6229
  148MOL0     H20367   8.976   7.874   4.236 -0.3087  0.0905 -1.0281
  148MOL0     H20368   8.888   7.995   4.163  0.8672  0.6978 -1.8223
  148MOL0     H20369   9.072   8.081   4.029 -1.2248  0.8068  0.3748
  148MOL0     H20370   9.053   7.911   4.009 -0.2101 -0.5325  1.1255
  148MOL0     H20371   9.266   8.049   4.187 -1.9364  2.7682 -2.0374
  148MOL0     H20372   9.242   7.879   4.191  1.4902 -0.0932  1.9442
  148MOL0     H20373   9.187   7.903   3.831  0.5479  0.5308 -1.1570
  148MOL0     H20374   9.399   7.955   3.583 -2.1297  0.6791  2.2476
  148MOL0     H20375   9.290   7.835   3.636 -1.8111 -0.6925  4.4353
  148MOL0     H20376   9.594   7.827   3.639 -1.3422  1.5838 -1.1143
  148MOL0     H20377   9.502   7.689   3.698  0.3041  2.6089  2.4305
  148MOL0     H20378   9.406   7.682   3.445  0.4351  0.2612 -0.0859
  148MOL0     H20379   9.541   7.787   3.418 -0.2155  1.2369  1.3179
  148MOL0     H20380   9.562   7.498   3.503  2.7767 -0.7585 -0.5923
  148MOL0     H20381   9.620   7.582   3.368 -1.1861  0.7058 -0.2839
  148MOL0     H20382   9.850   7.733   3.679 -1.0891  1.9710 -0.8814
  148MOL0     H20383  10.079   7.959   3.634 -0.7571 -1.7063 -2.8171
  148MOL0     H20384  10.220   7.854   3.656 -0.0062 -3.6138 -0.7343
  148MOL0     H20385  10.078   7.836   3.772  0.9620 -5.8756 -0.4968
  148MOL0     H20386  10.511   7.900   3.481  2.3311 -1.1341  0.2952
  148MOL0     H20387  10.713   7.936   3.367 -1.5061 -0.1442  3.1796
  148MOL0     H20388  10.894   8.025   3.253 -1.0844 -0.7617  0.6899
  148MOL0     H20389  10.857   7.888   3.141 -0.7934 -0.0580  1.4407
  148MOL0     H20390  10.946   7.995   2.962 -0.1962 -1.2652 -1.1161
  148MOL0     H20391  10.965   8.154   3.047  1.3511 -0.3139 -0.6982
  148MOL0     H20392  11.130   7.903   3.116  0.8051 -0.3451  0.6190
  148MOL0     H20393  11.148   8.058   3.192  0.7881 -1.8802  0.7820
  148MOL0     H20394  11.205   8.147   2.951 -1.5688 -0.0549 -2.3593
  148MOL0     H20395  11.200   7.990   2.891  0.9006 -1.3985 -0.5227
  148MOL0     H20396  11.374   7.910   3.047  0.2289  0.0432  1.9398
  148MOL0     H20397  11.431   8.041   2.935  0.0177 -0.6689 -0.1569
  148MOL0     H20398  11.370   8.073   3.222  0.5306 -2.9935  0.0917
  148MOL0     H20399  11.398   8.205   3.113  0.7689  1.0315  0.9246
  148MOL0     H20400  11.618   7.975   3.128  0.6846  0.8524 -2.3361
  148MOL0     H20401  11.579   8.098   3.263  1.7774  1.4223  0.0608
  148MOL0     H20402  11.614   8.259   3.047  0.9348  0.3031 -0.1771
  148MOL0     H20403  11.677   8.117   2.979  1.1767 -0.0545  0.2778
  148MOL0     H20404  10.505   8.127   3.042 -2.3067  0.6179 -0.1900
  148MOL0     H20405  10.299   8.049   3.132 -0.1988  1.4826  0.0054
  148MOL0     H20406  10.048   7.688   3.231 -0.4644 -2.1338  0.4872
  148MOL0     H20407   9.832   7.600   3.281  0.2294  0.4679  0.0023
  148MOL0     H20408   9.224   8.504   3.869  0.7396 -0.4997 -1.2259
  148MOL0     H20409   9.378   8.403   3.711  0.3967 -0.7605 -0.6745
  148MOL0     H20410   9.282   7.996   3.382 -0.0122 -2.4737 -0.8942
  148MOL0     H20411   9.372   7.851   3.233 -1.9222  0.1015 -2.9995
  148MOL0     H20412   9.580   7.770   3.150  0.6325  1.8643  0.6237
  148MOL0     H20413   9.453   7.721   3.036 -0.7938  1.3389 -1.1879
  148MOL0     H20414   9.643   7.720   2.854 -0.7616  0.6103  0.9910
  148MOL0     H20415   9.680   7.618   2.996 -0.3820  0.6187  1.3454
  148MOL0     H20416   9.793   7.901   2.934  2.3122  0.8140  0.1482
  148MOL0     H20417   9.818   7.807   3.085  0.5267  2.2434 -0.0409
  148MOL0     H20418   9.880   7.727   2.789  2.0764 -3.4499 -0.5483
  148MOL0     H20419   9.918   7.628   2.931 -1.6219 -0.3677  0.1342
  148MOL0     H20420  10.229   7.923   2.951  1.8618 -1.4578  1.6761
  148MOL0     H20421   9.599   8.174   3.046  0.1574  0.5859  0.7511
  148MOL0     H20422   9.590   8.399   3.329  1.0539  0.2922  0.0964
  148MOL0     H20423   9.647   8.363   3.163 -0.7473  2.7394 -0.4351
  148MOL0     H20424   9.497   8.436   3.181  1.8593 -0.5100 -2.7743
  149MOL0     O20425   6.412   2.162   2.889  0.0301  0.3200 -0.2374
  149MOL0     C20426   6.340   2.264   2.884  0.0251  0.1245 -0.5274
  149MOL0     O20427   6.379   2.392   2.891  0.8460 -0.3523 -0.2623
  149MOL0     C20428   6.507   2.419   2.935  0.0767  0.0674 -0.0760
  149MOL0     C20429   6.558   2.532   2.867  0.2223  0.5238  0.5751
  149MOL0     C20430   6.695   2.577   2.890  0.4380  0.0411 -0.5217
  149MOL0     C20431   6.779   2.509   2.975 -0.8105 -0.2857 -0.0291
  149MOL0     O20432   6.912   2.534   2.987 -0.6187  0.6215 -0.8667
  149MOL0     C20433   6.948   2.672   2.995  0.2401 -0.4661 -0.0817
  149MOL0     C20434   7.028   2.699   2.871 -0.0236 -0.9284  1.0554
  149MOL0     C20435   7.153   2.608   2.845  0.9005 -0.4697 -0.0013
  149MOL0     C20436   7.235   2.639   2.721  0.2562  0.1012  1.2419
  149MOL0     C20437   7.381   2.592   2.734 -0.2446 -0.2908  0.0106
  149MOL0     C20438   7.390   2.438   2.726 -0.3835  0.1375  0.5699
  149MOL0     C20439   7.534   2.395   2.694 -0.3720 -0.1805  0.5495
  149MOL0     C20440   7.613   2.385   2.826 -0.0320  0.3755  0.6551
  149MOL0     N20441   7.749   2.342   2.797  0.6298 -0.5004  0.4948
  149MOL0     C20442   7.848   2.427   2.759  0.6224 -0.9032  0.4765
  149MOL0     C20443   7.942   2.342   2.731 -0.7562 -0.2642 -0.3406
  149MOL0     C20444   8.080   2.398   2.705 -0.3671 -0.0056  0.2276
  149MOL0     C20445   8.134   2.488   2.821  0.4254  0.2491  0.3478
  149MOL0     C20446   8.284   2.500   2.808  1.1243  0.8595 -0.8459
  149MOL0     C20447   8.360   2.398   2.888  0.2451  0.3014 -0.0108
  149MOL0     O20448   8.503   2.406   2.879 -0.2229  0.9337  0.3268
  149MOL0     C20449   8.561   2.517   2.934 -0.6023  0.1084 -0.1680
  149MOL0     C20450   8.690   2.538   2.899 -0.2222  0.1650  0.4528
  149MOL0     C20451   8.772   2.642   2.943 -0.4734  0.1801 -0.2862
  149MOL0     C20452   8.922   2.642   2.896  0.1614  0.3843  0.0347
  149MOL0     C20453   8.717   2.751   3.013  0.4456 -0.4340  0.0124
  149MOL0     C20454   8.790   2.874   3.063 -0.4266 -0.3930  0.6586
  149MOL0     O20455   8.706   2.971   3.090 -0.3364 -0.3900  0.3583
  149MOL0     C20456   8.763   3.096   3.091  0.3331 -0.5934  0.3702
  149MOL0     C20457   8.802   3.156   3.209  0.1482 -0.6380  0.0508
  149MOL0     C20458   8.860   3.284   3.206  0.3961  0.1538 -0.6455
  149MOL0     C20459   8.878   3.351   3.089 -0.5091 -0.3292  0.3698
  149MOL0     O20460   8.936   3.475   3.102 -0.1729 -0.4978  0.3607
  149MOL0     C20461   9.011   3.517   2.987 -0.1003 -0.1714  0.4452
  149MOL0     C20462   9.091   3.645   3.021  0.3240 -0.3760 -0.6335
  149MOL0     C20463   9.202   3.607   3.123  0.5814  0.4587 -0.8012
  149MOL0     C20464   9.285   3.731   3.156  0.0712 -0.3672 -0.5226
  149MOL0     C20465   9.356   3.725   3.295 -0.7444 -0.1719 -0.4289
  149MOL0     C20466   9.471   3.632   3.328  0.0129  0.9389  0.2074
  149MOL0     C20467   9.562   3.597   3.215  0.0612  0.0347  1.1143
  149MOL0     C20468   9.696   3.537   3.271 -0.6599  0.1984 -0.0457
  149MOL0    Cl20469   9.821   3.516   3.146 -0.0797 -0.0618 -0.0163
  149MOL0     C20470   8.837   3.291   2.973 -0.1541  0.2246  0.6675
  149MOL0     C20471   8.773   3.166   2.974 -0.4427  0.1201  0.7318
  149MOL0     O20472   8.911   2.881   3.068 -0.4541  0.4848 -0.1211
  149MOL0     C20473   8.577   2.742   3.049  0.5775  0.2104 -0.5919
  149MOL0     C20474   8.508   2.621   3.016  0.4619  0.2836  0.2861
  149MOL0     N20475   7.897   2.211   2.739  0.1114  0.5518 -0.3970
  149MOL0     N20476   7.771   2.215   2.777 -0.5916 -0.4872  0.5372
  149MOL0     C20477   6.727   2.391   3.036 -0.6751 -0.0213 -0.2902
  149MOL0     C20478   6.599   2.346   3.010  0.2323  0.1916  0.4710
  149MOL0     C20479   6.201   2.226   2.856 -0.3115 -0.1457 -0.2196
  149MOL0     C20480   6.172   2.211   2.719  0.3769  0.6933  0.6533
  149MOL0     C20481   6.037   2.198   2.681 -0.8910  1.2322  0.5615
  149MOL0     C20482   5.930   2.210   2.767  0.0745 -0.9994  0.9140
  149MOL0     O20483   5.796   2.245   2.736 -0.1564  0.6877  0.3258
  149MOL0     C20484   5.744   2.208   2.606 -0.4823 -0.1183 -0.4696
  149MOL0     C20485   5.598   2.159   2.612  0.7095  0.2551  0.0264
  149MOL0     C20486   5.577   2.051   2.726 -0.4561 -0.7030  0.3417
  149MOL0     C20487   5.429   2.044   2.772  0.0318 -0.4548 -0.1658
  149MOL0     C20488   5.330   2.002   2.668 -0.5801 -0.0928  0.5059
  149MOL0     C20489   5.242   1.941   2.613 -0.5875 -0.5278  0.7764
  149MOL0     C20490   5.958   2.223   2.909  0.1782  0.5213  0.6996
  149MOL0     C20491   6.091   2.222   2.951 -0.6808  0.3454  0.9409
  149MOL0     C20492   6.114   2.249   3.089 -0.4040 -0.2064 -0.4867
  149MOL0     H20493   6.497   2.588   2.797 -1.0736 -0.7602  0.6361
  149MOL0     H20494   6.729   2.657   2.825 -2.1053 -0.9902 -3.3841
  149MOL0     H20495   6.994   2.682   3.094 -1.4551 -2.1703  0.9315
  149MOL0     H20496   6.866   2.744   2.993  2.4113  2.2740  1.7358
  149MOL0     H20497   6.960   2.681   2.788 -0.6993 -0.9440  1.6090
  149MOL0     H20498   7.057   2.805   2.869 -3.7585  0.2374 -0.0408
  149MOL0     H20499   7.219   2.617   2.932 -0.3916  0.8464  0.9088
  149MOL0     H20500   7.129   2.502   2.834  2.8717 -1.0416  0.8413
  149MOL0     H20501   7.195   2.595   2.629 -3.3740  1.8945  1.7740
  149MOL0     H20502   7.216   2.745   2.702  1.1783  0.0210 -0.3762
  149MOL0     H20503   7.431   2.617   2.828 -0.7664 -2.9219  1.0790
  149MOL0     H20504   7.434   2.636   2.649 -1.3595  0.5866 -0.2586
  149MOL0     H20505   7.360   2.384   2.816 -2.7677  1.0340  0.3963
  149MOL0     H20506   7.328   2.390   2.648  1.8783 -0.8767 -0.7158
  149MOL0     H20507   7.580   2.470   2.630 -2.1138  0.6233  0.1686
  149MOL0     H20508   7.544   2.299   2.643  2.1193  1.0990 -1.5944
  149MOL0     H20509   7.621   2.482   2.876  2.1653  0.8104 -0.4215
  149MOL0     H20510   7.559   2.318   2.894 -0.8581  0.7171  0.3520
  149MOL0     H20511   7.850   2.535   2.757 -1.1652 -0.7390 -3.5366
  149MOL0     H20512   8.082   2.468   2.621 -0.1889  1.4562  1.4134
  149MOL0     H20513   8.139   2.310   2.678 -2.4762 -0.6234 -2.9051
  149MOL0     H20514   8.091   2.589   2.826  2.0918  1.0157 -0.1240
  149MOL0     H20515   8.107   2.438   2.915  0.8454  3.0068  2.0439
  149MOL0     H20516   8.321   2.509   2.705 -2.8445  0.5769 -2.4669
  149MOL0     H20517   8.312   2.593   2.859 -1.2752 -0.2730  2.9016
  149MOL0     H20518   8.336   2.409   2.994  1.4402  1.0492  0.1995
  149MOL0     H20519   8.348   2.294   2.858  1.0949 -0.7880  3.0583
  149MOL0     H20520   8.740   2.469   2.831  0.9525  1.2753  0.1376
  149MOL0     H20521   8.990   2.631   2.981 -0.2792  1.3930  0.5279
  149MOL0     H20522   8.945   2.739   2.851  1.8427 -0.3569 -0.7902
  149MOL0     H20523   8.957   2.567   2.824  0.7798  1.5333 -0.8967
  149MOL0     H20524   8.786   3.113   3.307  0.7483  0.1794  0.5165
  149MOL0     H20525   8.876   3.319   3.308 -2.3298 -1.4454  0.4442
  149MOL0     H20526   9.080   3.437   2.958  0.5627  0.5323  0.0353
  149MOL0     H20527   8.948   3.539   2.900  1.0747  0.0736 -0.3706
  149MOL0     H20528   9.142   3.692   2.936 -1.4155  1.9594 -0.4687
  149MOL0     H20529   9.028   3.730   3.048  0.1882  0.5491 -3.5754
  149MOL0     H20530   9.274   3.543   3.071 -0.1322 -0.8423 -0.2477
  149MOL0     H20531   9.155   3.560   3.211 -0.9885 -2.5490 -3.0412
  149MOL0     H20532   9.215   3.814   3.153 -0.1021 -0.4987 -0.2541
  149MOL0     H20533   9.360   3.748   3.078  1.8686  2.0702  1.5737
  149MOL0     H20534   9.388   3.829   3.306 -0.5360 -0.1555 -1.1244
  149MOL0     H20535   9.291   3.714   3.383  1.8367  1.5729  1.8737
  149MOL0     H20536   9.429   3.536   3.360 -1.9259 -0.3320 -5.1250
  149MOL0     H20537   9.535   3.674   3.406  1.7374 -3.9541  1.7792
  149MOL0     H20538   9.571   3.690   3.158 -0.6736  0.4075  1.5857
  149MOL0     H20539   9.517   3.519   3.153 -1.9045  1.1987  0.9839
  149MOL0     H20540   9.676   3.441   3.319  0.8612 -0.1709 -0.0987
  149MOL0     H20541   9.730   3.613   3.342 -1.3264 -0.1619  0.6757
  149MOL0     H20542   8.843   3.348   2.881 -1.0075  0.1814  0.5739
  149MOL0     H20543   8.741   3.115   2.884  3.1958  1.5099 -1.6253
  149MOL0     H20544   8.530   2.810   3.119  0.3349  0.1236 -0.6705
  149MOL0     H20545   8.409   2.616   3.061 -0.2580 -0.3600 -1.3014
  149MOL0     H20546   6.794   2.339   3.104  0.8585  0.5185 -1.3231
  149MOL0     H20547   6.565   2.250   3.049 -1.2311  0.9439  1.0942
  149MOL0     H20548   6.247   2.234   2.644  3.0595  0.2366  3.0189
  149MOL0     H20549   6.008   2.175   2.579 -0.8875 -0.0313  0.8287
  149MOL0     H20550   5.757   2.298   2.546 -2.3128  1.6233  1.5984
  149MOL0     H20551   5.799   2.123   2.564 -1.4934 -0.4276 -1.2335
  149MOL0     H20552   5.574   2.121   2.512  0.6670 -0.2483  0.2254
  149MOL0     H20553   5.526   2.241   2.619 -0.1621 -0.2089 -2.4020
  149MOL0     H20554   5.611   1.949   2.706  1.7609  0.0733 -0.1297
  149MOL0     H20555   5.636   2.081   2.813 -0.9954  1.0893  0.1374
  149MOL0     H20556   5.391   2.137   2.816 -1.5360 -2.2497  2.5510
  149MOL0     H20557   5.409   1.970   2.849  0.3365 -1.0033 -0.5983
  149MOL0     H20558   5.157   1.904   2.558 -0.8673  1.7343 -0.4258
  149MOL0     H20559   5.882   2.245   2.983  0.7101 -1.0573  1.7709
  149MOL0     H20560   6.020   2.241   3.145 -0.6758  0.8393 -0.7685
  149MOL0     H20561   6.190   2.179   3.125 -0.0890 -0.3527 -1.4165
  149MOL0     H20562   6.155   2.351   3.092  2.4614 -1.2358 -1.5847
  150MOL0     O20563   1.388   7.595   7.536  0.2715 -0.3957  0.1300
  150MOL0     C20564   1.433   7.479   7.507 -0.3208 -0.2533 -1.2910
  150MOL0     O20565   1.350   7.370   7.488 -0.2586  0.2438  0.3845
  150MOL0     C20566   1.214   7.386   7.504 -0.3161 -0.7445  0.2592
  150MOL0     C20567   1.155   7.357   7.626 -0.4389  0.7921 -1.0357
  150MOL0     C20568   1.024   7.386   7.655 -0.0521  0.8391 -0.9264
  150MOL0     C20569   0.940   7.445   7.553  0.0965 -0.2471  0.0688
  150MOL0     O20570   0.809   7.488   7.582  0.2108  0.2547 -0.3879
  150MOL0     C20571   0.727   7.536   7.477 -0.4571  0.0395 -0.0904
  150MOL0     C20572   0.594   7.570   7.529  0.2592  0.0079 -0.5618
  150MOL0     C20573   0.512   7.442   7.560  0.1770 -0.5430 -0.1387
  150MOL0     C20574   0.403   7.473   7.667  0.1031  0.3258  0.3508
  150MOL0     C20575   0.453   7.547   7.801 -0.1033 -0.0106 -0.0152
  150MOL0     C20576   0.569   7.469   7.870  0.1196 -0.2925 -0.2557
  150MOL0     C20577   0.608   7.520   8.010 -0.6304 -0.4787 -0.7391
  150MOL0     C20578   0.677   7.654   8.004 -0.4263 -0.9430  0.0471
  150MOL0     N20579   0.808   7.653   7.947 -0.6188  0.7066  0.1237
  150MOL0     C20580   0.916   7.594   8.014 -0.1952  0.2341  0.8065
  150MOL0     C20581   1.024   7.611   7.934 -0.9218  0.0005 -0.0494
  150MOL0     C20582   1.170   7.554   7.959  0.2841  0.1347  0.3375
  150MOL0     C20583   1.241   7.647   8.059 -0.3389  0.3999  0.5099
  150MOL0     C20584   1.264   7.780   8.001 -0.8871 -0.6359  0.2358
  150MOL0     C20585   1.321   7.881   8.097  0.5329  0.0007 -0.7457
  150MOL0     O20586   1.455   7.841   8.142  0.7571 -0.0563  0.5016
  150MOL0     C20587   1.562   7.886   8.068 -0.1335 -0.6920  0.3142
  150MOL0     C20588   1.592   8.021   8.056  0.0793 -0.6593  0.2840
  150MOL0     C20589   1.685   8.071   7.963  0.8363 -0.5115  0.0632
  150MOL0     C20590   1.692   8.216   7.958  0.3888  0.2669 -0.3470
  150MOL0     C20591   1.766   7.984   7.889  0.8026  0.0276  0.0896
  150MOL0     C20592   1.875   8.031   7.791 -0.0245 -0.5222  0.0953
  150MOL0     O20593   1.910   8.164   7.789 -0.5632  0.4995 -0.0087
  150MOL0     C20594   2.032   8.201   7.734 -0.4727  0.2941  0.0124
  150MOL0     C20595   2.135   8.204   7.831 -0.5152  0.7448  0.2260
  150MOL0     C20596   2.259   8.241   7.792 -0.7002  0.1005 -0.8409
  150MOL0     C20597   2.294   8.268   7.660 -0.1879  0.5657  0.3592
  150MOL0     O20598   2.420   8.303   7.623  0.5530  0.3853  0.1058
  150MOL0     C20599   2.437   8.393   7.512  0.1217  0.5672  0.5093
  150MOL0     C20600   2.507   8.314   7.402  0.6618 -0.2065 -0.1038
  150MOL0     C20601   2.531   8.389   7.271 -0.6852 -0.2210 -0.1335
  150MOL0     C20602   2.687   8.375   7.241  0.4193 -0.3515 -0.6865
  150MOL0     C20603   2.784   8.445   7.333  0.3559 -0.1305 -0.0669
  150MOL0     C20604   2.779   8.601   7.337  0.2570  1.2912  0.9592
  150MOL0     C20605   2.865   8.656   7.442 -0.1551 -0.3385 -0.2048
  150MOL0     C20606   2.879   8.800   7.418 -0.6085 -0.0691 -0.1288
  150MOL0    Cl20607   2.995   8.805   7.283  0.3286  0.0804 -0.0051
  150MOL0     C20608   2.192   8.245   7.560  0.0952  0.0364  0.3730
  150MOL0     C20609   2.061   8.224   7.605 -0.4226 -0.6667 -0.3489
  150MOL0     O20610   1.911   7.947   7.713 -0.3415  0.7554 -0.0662
  150MOL0     C20611   1.743   7.844   7.909  0.6898  0.1059  0.4487
  150MOL0     C20612   1.643   7.799   7.992  0.2033  0.1019 -0.2569
  150MOL0     N20613   0.985   7.686   7.823  1.0387  0.2201 -0.6271
  150MOL0     N20614   0.858   7.705   7.832  0.2989 -0.2020  0.3503
  150MOL0     C20615   0.995   7.454   7.423  0.5573 -0.0632  0.2136
  150MOL0     C20616   1.135   7.434   7.401 -0.0434 -0.1459 -0.2173
  150MOL0     C20617   1.585   7.454   7.500 -0.3962 -0.0325  0.3454
  150MOL0     C20618   1.629   7.327   7.468 -0.8646 -0.2142 -0.6684
  150MOL0     C20619   1.772   7.303   7.460 -0.1888 -0.0034  1.1087
  150MOL0     C20620   1.866   7.398   7.453  0.7088 -0.1599 -0.0308
  150MOL0     O20621   1.999   7.376   7.434 -0.2515 -0.1154  0.1871
  150MOL0     C20622   2.032   7.399   7.298  0.3795 -0.2043  0.4146
  150MOL0     C20623   2.107   7.533   7.277 -0.5598 -0.3492 -0.3927
  150MOL0     C20624   2.127   7.563   7.128  0.4946 -1.0080 -0.0536
  150MOL0     C20625   2.220   7.683   7.109 -0.0501  0.1092  0.3443
  150MOL0     C20626   2.361   7.660   7.148 -0.4020 -1.2774  0.4120
  150MOL0     C20627   2.475   7.634   7.174 -0.5752 -0.5344  0.7130
  150MOL0     C20628   1.824   7.532   7.476  0.5157  0.1256 -0.7312
  150MOL0     C20629   1.684   7.553   7.503 -1.0619 -0.2644 -0.1031
  150MOL0     C20630   1.646   7.695   7.530 -0.5837 -0.1076 -0.0009
  150MOL0     H20631   1.217   7.295   7.690 -1.9186  0.0389 -0.2728
  150MOL0     H20632   0.997   7.347   7.753 -0.1990 -0.3946 -1.4408
  150MOL0     H20633   0.727   7.464   7.395  5.2728  0.7217 -1.1029
  150MOL0     H20634   0.770   7.627   7.433 -2.6148  1.1377 -0.1013
  150MOL0     H20635   0.602   7.625   7.623  0.1072 -0.0001 -0.5440
  150MOL0     H20636   0.542   7.636   7.459  1.2576  1.1917 -0.2275
  150MOL0     H20637   0.458   7.404   7.473 -0.4836 -1.5554  0.6940
  150MOL0     H20638   0.573   7.366   7.609 -0.3185 -1.5311 -1.0189
  150MOL0     H20639   0.321   7.532   7.626 -0.7854  0.7165  2.5820
  150MOL0     H20640   0.362   7.374   7.688  0.6876 -0.2785 -1.1718
  150MOL0     H20641   0.368   7.545   7.870 -0.2490  0.5396 -0.1690
  150MOL0     H20642   0.481   7.652   7.788  0.4702  0.4665  3.8804
  150MOL0     H20643   0.540   7.368   7.898 -0.9502  0.7116  2.6150
  150MOL0     H20644   0.651   7.468   7.797 -1.8127 -0.3962 -2.5453
  150MOL0     H20645   0.677   7.451   8.058  1.6804  2.3219  0.2706
  150MOL0     H20646   0.520   7.517   8.074 -0.4558  0.6711 -0.4142
  150MOL0     H20647   0.611   7.731   7.964 -1.1810 -0.8144  1.4716
  150MOL0     H20648   0.684   7.693   8.106 -0.4864  1.8320 -0.9214
  150MOL0     H20649   0.924   7.538   8.107  2.9963  0.1690  0.5898
  150MOL0     H20650   1.228   7.543   7.867 -1.0799 -0.3904 -0.5004
  150MOL0     H20651   1.158   7.458   8.009  0.7752  0.4170  1.0032
  150MOL0     H20652   1.175   7.660   8.145 -0.8455  1.1774  0.0179
  150MOL0     H20653   1.326   7.588   8.092 -1.5918 -2.5488 -1.1605
  150MOL0     H20654   1.334   7.780   7.917 -0.2072 -0.3462  0.7857
  150MOL0     H20655   1.170   7.823   7.965 -0.1484 -0.1563 -1.2171
  150MOL0     H20656   1.332   7.978   8.046  1.1677  1.3853  1.8250
  150MOL0     H20657   1.258   7.896   8.186 -0.5009  0.0396 -1.4742
  150MOL0     H20658   1.524   8.088   8.107  0.1421  0.3527 -0.8916
  150MOL0     H20659   1.702   8.238   7.851  1.4459 -2.4858 -0.8947
  150MOL0     H20660   1.773   8.262   8.016  1.5004  1.8442 -2.9401
  150MOL0     H20661   1.595   8.250   7.996 -0.0181 -0.3437 -0.8223
  150MOL0     H20662   2.111   8.178   7.934  1.5097  0.2799  0.6202
  150MOL0     H20663   2.337   8.252   7.867  0.9928  0.1889 -2.5401
  150MOL0     H20664   2.339   8.434   7.483  0.3127 -0.5543 -2.0240
  150MOL0     H20665   2.499   8.475   7.549 -0.9229  0.8216  1.7436
  150MOL0     H20666   2.594   8.257   7.437 -1.0276 -3.9237 -1.4020
  150MOL0     H20667   2.430   8.239   7.384 -1.5247  2.2530 -1.7518
  150MOL0     H20668   2.498   8.493   7.283 -0.5216  0.0453 -1.7212
  150MOL0     H20669   2.477   8.342   7.188 -0.0588 -1.1961 -0.0036
  150MOL0     H20670   2.698   8.416   7.140 -2.0832 -1.6055 -1.5565
  150MOL0     H20671   2.713   8.268   7.243  2.9871  0.2169  0.1046
  150MOL0     H20672   2.768   8.400   7.431 -0.3189 -3.6257 -1.6125
  150MOL0     H20673   2.886   8.419   7.302  0.6225  0.5104  0.2646
  150MOL0     H20674   2.677   8.628   7.364 -0.4724 -0.0292 -0.2904
  150MOL0     H20675   2.802   8.634   7.235  1.6168  0.3192  0.9152
  150MOL0     H20676   2.954   8.594   7.430 -1.4248 -1.8659 -2.6616
  150MOL0     H20677   2.816   8.646   7.540 -1.2619 -0.9389 -0.7887
  150MOL0     H20678   2.921   8.830   7.515  1.2003 -3.5767  0.3352
  150MOL0     H20679   2.785   8.856   7.407 -1.0403 -0.8659 -0.5505
  150MOL0     H20680   2.208   8.263   7.454  1.2276  1.0856  0.6954
  150MOL0     H20681   1.983   8.217   7.530 -0.4182  0.6167 -0.4938
  150MOL0     H20682   1.784   7.769   7.843  2.6801  0.5840  1.0585
  150MOL0     H20683   1.623   7.694   8.012 -1.6560  0.0347 -2.0689
  150MOL0     H20684   0.945   7.470   7.327  1.7371 -1.8370 -0.7650
  150MOL0     H20685   1.167   7.461   7.300  1.1913 -1.1050 -0.1182
  150MOL0     H20686   1.550   7.253   7.466 -1.0026 -0.0522 -1.3917
  150MOL0     H20687   1.813   7.208   7.430  1.4220  1.9073 -3.6968
  150MOL0     H20688   2.091   7.315   7.260 -3.4759 -2.6622 -0.6363
  150MOL0     H20689   1.950   7.396   7.227 -1.1823  2.0541  1.9926
  150MOL0     H20690   2.206   7.512   7.319 -1.2005 -0.8357  0.9140
  150MOL0     H20691   2.067   7.615   7.337 -2.2398 -2.9089  2.2286
  150MOL0     H20692   2.157   7.474   7.073 -1.0361 -1.7112  0.1970
  150MOL0     H20693   2.027   7.587   7.090  1.9952  3.1408 -2.0361
  150MOL0     H20694   2.179   7.776   7.150 -2.1827  1.0782 -3.5166
  150MOL0     H20695   2.216   7.709   7.003 -5.6456  3.1155  0.8717
  150MOL0     H20696   2.574   7.600   7.196  0.4399  1.2022 -0.9001
  150MOL0     H20697   1.899   7.610   7.475 -2.3236  3.2738  2.3489
  150MOL0     H20698   1.737   7.754   7.543 -0.8399  0.3205 -0.1443
  150MOL0     H20699   1.597   7.734   7.440 -2.0203 -0.1188  0.7445
  150MOL0     H20700   1.588   7.701   7.623  2.1252  2.5897  1.6746
  151MOL0     O20701   5.696  10.127   9.874  0.3364 -0.5709  0.2680
  151MOL0     C20702   5.637  10.096   9.972 -0.3870  0.0628 -0.3146
  151MOL0     O20703   5.697  10.044  10.093  0.1923  1.2807 -0.5284
  151MOL0     C20704   5.832  10.028  10.090  0.3923  1.1937 -1.0839
  151MOL0     C20705   5.885   9.902  10.054  0.3629 -0.5966  0.8547
  151MOL0     C20706   6.022   9.882  10.058  0.1123  0.6571 -0.4999
  151MOL0     C20707   6.113   9.984  10.080 -0.2686 -0.3721  0.1183
  151MOL0     O20708   6.254   9.983  10.064  0.0488  1.0383 -0.0288
  151MOL0     C20709   6.292   9.887   9.959  0.4572 -0.0191 -0.4866
  151MOL0     C20710   6.434   9.911   9.931 -0.6935  0.7891  0.3898
  151MOL0     C20711   6.530   9.867  10.040 -0.3856 -0.4808  0.1326
  151MOL0     C20712   6.676   9.911  10.007 -0.4367  0.7588  0.8011
  151MOL0     C20713   6.771   9.883  10.120 -0.1969 -0.4172  1.2349
  151MOL0     C20714   6.781   9.747  10.170 -0.0834 -0.3219 -0.9289
  151MOL0     C20715   6.793   9.633  10.069  0.4928  0.7190 -0.8452
  151MOL0     C20716   6.928   9.643  10.004 -0.3566 -0.4587 -0.5371
  151MOL0     N20717   7.042   9.609  10.090 -0.0834  0.4064 -0.1554
  151MOL0     C20718   7.070   9.484  10.139 -0.0627 -0.1400 -0.4219
  151MOL0     C20719   7.151   9.502  10.244  0.1337 -0.3517 -0.5734
  151MOL0     C20720   7.199   9.389  10.325 -0.4243 -0.1724 -0.6789
  151MOL0     C20721   7.340   9.403  10.391  0.5100 -0.4063  0.0336
  151MOL0     C20722   7.359   9.287  10.484 -0.6481 -0.2826  0.1851
  151MOL0     C20723   7.346   9.326  10.640 -0.0590  0.7743 -0.2870
  151MOL0     O20724   7.349   9.203  10.720 -0.3877 -0.9439 -0.5865
  151MOL0     C20725   7.470   9.139  10.743 -0.7535  0.3558  0.0985
  151MOL0     C20726   7.481   9.001  10.751 -0.7343  0.2018  0.9686
  151MOL0     C20727   7.598   8.943  10.789  0.7565 -0.3128  0.1244
  151MOL0     C20728   7.587   8.789  10.793  0.3658  0.0980  0.1825
  151MOL0     C20729   7.707   9.022  10.827 -0.0850 -0.7999  0.1275
  151MOL0     C20730   7.833   8.971  10.886 -0.0896 -0.9227  0.2997
  151MOL0     O20731   7.904   9.069  10.952  0.8308  0.4984  0.0943
  151MOL0     C20732   8.036   9.065  10.986  0.2326  0.3357 -0.2682
  151MOL0     C20733   8.126   9.128  10.901 -0.1635  0.0887  0.4404
  151MOL0     C20734   8.266   9.131  10.933  0.3615 -0.0796 -0.3665
  151MOL0     C20735   8.315   9.091  11.058  0.8314 -0.7201 -0.6259
  151MOL0     O20736   8.444   9.141  11.089  0.3258  0.0833  0.4602
  151MOL0     C20737   8.545   9.091  11.004  0.0359  0.3359  0.0536
  151MOL0     C20738   8.675   9.065  11.077 -0.0810 -0.0874 -0.1254
  151MOL0     C20739   8.775   8.986  10.989 -0.1915 -0.2192  0.0395
  151MOL0     C20740   8.916   8.988  11.045 -0.5551 -0.1162  0.8771
  151MOL0     C20741   9.011   8.908  10.957 -1.1294 -0.4518  0.5588
  151MOL0     C20742   8.984   8.763  10.933  0.9361 -0.4049  0.1360
  151MOL0     C20743   9.086   8.704  10.835  0.8539  0.0226 -0.1398
  151MOL0     C20744   9.053   8.560  10.791 -0.2423 -0.7228  0.4086
  151MOL0    Cl20745   9.056   8.447  10.930 -0.8318  0.0906 -0.3505
  151MOL0     C20746   8.212   9.041  11.149 -0.7003  0.8783 -0.4184
  151MOL0     C20747   8.080   9.029  11.114 -0.2531  0.9918 -0.1086
  151MOL0     O20748   7.877   8.862  10.862  0.3096  0.0342  0.2887
  151MOL0     C20749   7.696   9.160  10.812  0.5706 -0.0838 -0.7934
  151MOL0     C20750   7.576   9.218  10.776 -0.1214  0.4590  0.2524
  151MOL0     N20751   7.196   9.632  10.238 -1.1051 -0.5830 -0.9029
  151MOL0     N20752   7.121   9.693  10.151  0.0678  0.4621  0.3373
  151MOL0     C20753   6.059  10.105  10.113 -0.6352 -0.4927  0.0736
  151MOL0     C20754   5.920  10.125  10.120  1.1406  0.8671  0.7219
  151MOL0     C20755   5.490  10.111   9.964  0.4224  0.5307 -0.1124
  151MOL0     C20756   5.414  10.145  10.075  0.0655 -0.3626 -0.4842
  151MOL0     C20757   5.279  10.137  10.088  0.8894  0.2728  0.4700
  151MOL0     C20758   5.207  10.107   9.974  0.3263  1.0476 -0.0676
  151MOL0     O20759   5.071  10.103   9.989 -0.3880  0.2582 -0.5080
  151MOL0     C20760   4.988  10.016   9.909  0.9880  0.1790  0.0429
  151MOL0     C20761   4.853  10.003   9.995 -0.3120  0.3403 -0.4303
  151MOL0     C20762   4.790  10.142  10.036  0.5484  0.2427  0.2380
  151MOL0     C20763   4.654  10.141  10.091 -0.0221  0.4539 -0.4316
  151MOL0     C20764   4.540  10.122   9.992 -0.5743  0.4650 -0.2457
  151MOL0     C20765   4.448  10.101   9.915  0.1865  0.0527 -0.2702
  151MOL0     C20766   5.272  10.073   9.856  0.2072 -0.0559  0.2283
  151MOL0     C20767   5.414  10.073   9.845 -0.1621 -0.1291 -0.4133
  151MOL0     C20768   5.477  10.013   9.718  0.5998 -0.2892 -0.6370
  151MOL0     H20769   5.810   9.829  10.023 -1.3132 -0.3836  3.9771
  151MOL0     H20770   6.053   9.783  10.028  1.1155  1.2583 -1.5056
  151MOL0     H20771   6.232   9.908   9.870  0.1590 -0.2682 -0.3456
  151MOL0     H20772   6.274   9.783   9.986 -1.7731  0.2255 -0.8142
  151MOL0     H20773   6.462   9.873   9.833 -1.5514  0.5921  0.2159
  151MOL0     H20774   6.452  10.018   9.916  2.4366 -0.0895 -4.1676
  151MOL0     H20775   6.495   9.920  10.129 -0.1334 -2.1575  1.2703
  151MOL0     H20776   6.518   9.759  10.051 -2.2908 -0.6648 -2.6430
  151MOL0     H20777   6.714   9.848   9.927 -1.0164  1.8230 -0.3511
  151MOL0     H20778   6.686  10.016   9.978  2.3332 -0.1027 -1.7886
  151MOL0     H20779   6.770   9.956  10.202  1.3392  0.0002  0.9045
  151MOL0     H20780   6.868   9.908  10.076 -1.3092 -1.3032 -1.9755
  151MOL0     H20781   6.870   9.736  10.232  0.5831  1.6695 -1.4515
  151MOL0     H20782   6.688   9.735  10.226  0.7499 -1.9694  0.1787
  151MOL0     H20783   6.714   9.641   9.994 -1.7588  0.8346  1.4067
  151MOL0     H20784   6.776   9.540  10.124  0.9299  1.0923 -0.0506
  151MOL0     H20785   6.936   9.570   9.922 -1.9360 -1.3954  0.0922
  151MOL0     H20786   6.947   9.741   9.959 -1.6753  2.0095  3.7624
  151MOL0     H20787   7.019   9.392  10.111 -1.8769  0.2743  1.3293
  151MOL0     H20788   7.198   9.302  10.258  0.2129 -1.6572  1.1553
  151MOL0     H20789   7.127   9.376  10.405  0.5496  2.2068  0.6949
  151MOL0     H20790   7.425   9.406  10.323  3.1378 -0.2244  3.1121
  151MOL0     H20791   7.340   9.502  10.438 -0.8259  0.0950 -0.9424
  151MOL0     H20792   7.282   9.214  10.461 -3.6918  3.1188 -1.5057
  151MOL0     H20793   7.462   9.252  10.469 -1.6537 -2.4916 -2.1248
  151MOL0     H20794   7.420   9.403  10.664 -0.9364  1.5809 -0.1031
  151MOL0     H20795   7.251   9.378  10.652 -0.2869  0.4783 -0.7858
  151MOL0     H20796   7.392   8.938  10.750 -0.2212 -0.5557  1.5935
  151MOL0     H20797   7.662   8.741  10.857  2.4263 -1.8964 -3.3817
  151MOL0     H20798   7.610   8.759  10.691  0.7305 -0.0649  0.3121
  151MOL0     H20799   7.487   8.759  10.827  0.2367  1.9367  1.5355
  151MOL0     H20800   8.083   9.163  10.807 -0.0301  0.4621  0.5144
  151MOL0     H20801   8.333   9.174  10.858  1.3079 -2.4984 -0.9881
  151MOL0     H20802   8.516   8.991  10.973 -2.1772  0.6324  0.9595
  151MOL0     H20803   8.560   9.151  10.913 -2.5409  0.6368 -0.2514
  151MOL0     H20804   8.728   9.155  11.110 -1.6317  1.3658 -1.4150
  151MOL0     H20805   8.647   9.005  11.165 -1.0000  0.5451  0.0259
  151MOL0     H20806   8.773   9.026  10.888  3.8484 -0.7494 -0.4347
  151MOL0     H20807   8.743   8.882  10.990  1.0239 -0.6339  1.6801
  151MOL0     H20808   8.922   8.943  11.144 -2.9973 -2.9942 -0.1273
  151MOL0     H20809   8.953   9.089  11.066  2.9212 -0.8565 -0.7798
  151MOL0     H20810   9.016   8.958  10.860  0.7933  0.1765  0.9393
  151MOL0     H20811   9.103   8.914  11.015  0.8207 -2.1506 -2.0767
  151MOL0     H20812   8.886   8.751  10.886  1.6413 -1.1913 -1.1892
  151MOL0     H20813   8.973   8.709  11.027  1.1019 -1.3322 -0.3648
  151MOL0     H20814   9.187   8.727  10.871  0.7665 -0.0935  0.1908
  151MOL0     H20815   9.078   8.760  10.742  3.0867 -1.3555 -1.2188
  151MOL0     H20816   9.123   8.529  10.712  0.3890 -1.6926  1.3347
  151MOL0     H20817   8.956   8.557  10.740 -1.5620 -0.1029  2.7580
  151MOL0     H20818   8.239   9.016  11.251  0.1399 -2.3399 -1.3026
  151MOL0     H20819   8.006   8.979  11.175 -1.1405 -0.6259 -2.3761
  151MOL0     H20820   7.781   9.226  10.821  0.2485  0.1480  0.9730
  151MOL0     H20821   7.564   9.326  10.785  0.1389  0.4368  0.9069
  151MOL0     H20822   6.125  10.189  10.133 -1.2002 -0.0490  0.0999
  151MOL0     H20823   5.888  10.225  10.148 -1.0262  0.9988 -1.8323
  151MOL0     H20824   5.469  10.182  10.162 -0.8528 -1.6512  0.6917
  151MOL0     H20825   5.224  10.160  10.179 -3.2067 -0.0932 -1.7014
  151MOL0     H20826   4.971  10.067   9.814  0.6323  1.5652  0.8143
  151MOL0     H20827   5.040   9.924   9.881  1.1407  0.8847 -2.1488
  151MOL0     H20828   4.873   9.951  10.088 -0.8988 -0.0117 -0.4998
  151MOL0     H20829   4.784   9.935   9.945  0.1863  0.6714 -1.6162
  151MOL0     H20830   4.855  10.200  10.102 -0.7032  1.6271  0.2950
  151MOL0     H20831   4.777  10.203   9.946  0.6724  0.1684  0.1698
  151MOL0     H20832   4.634  10.232  10.148 -1.4869  1.5593 -2.5846
  151MOL0     H20833   4.646  10.056  10.159 -0.5975 -1.0441 -2.2922
  151MOL0     H20834   4.368  10.074   9.849 -2.4687 -0.7853  3.0127
  151MOL0     H20835   5.204  10.051   9.774 -0.6046  2.5525  0.1077
  151MOL0     H20836   5.403   9.983   9.643 -0.6908 -0.6957  0.7395
  151MOL0     H20837   5.560  10.074   9.682  0.7945  1.9325  3.0746
  151MOL0     H20838   5.512   9.913   9.748  1.0858 -0.4861 -1.8086
  152MOL0     O20839  11.096   7.862  10.904 -0.0928 -0.0394  0.6250
  152MOL0     C20840  11.013   7.946  10.868 -0.2192 -0.0193  0.1615
  152MOL0     O20841  11.026   8.017  10.749 -0.8781  0.9063  0.4600
  152MOL0     C20842  11.157   7.997  10.687  1.1636  0.3719  0.4172
  152MOL0     C20843  11.271   8.049  10.743 -0.4658  0.5410  0.4376
  152MOL0     C20844  11.389   8.038  10.674  0.4802 -0.0703 -0.5192
  152MOL0     C20845  11.401   7.970  10.552 -0.2448 -0.3614 -0.3279
  152MOL0     O20846  11.514   7.962  10.477 -0.4423  0.0931 -0.5780
  152MOL0     C20847  11.606   8.073  10.480 -1.1248  0.1293  0.3541
  152MOL0     C20848  11.703   8.078  10.364 -0.2233 -0.0102  0.3815
  152MOL0     C20849  11.824   8.176  10.389  0.8239  0.1712 -0.0880
  152MOL0     C20850  11.916   8.171  10.262 -0.1798 -0.2825 -0.1430
  152MOL0     C20851  12.011   8.292  10.254  0.1212  0.0928  0.3533
  152MOL0     C20852  12.112   8.278  10.132  0.2203 -0.2110 -0.7628
  152MOL0     C20853  12.228   8.185  10.173 -0.0405 -0.0100 -0.6792
  152MOL0     C20854  12.325   8.156  10.059 -0.9695 -0.1657  0.1593
  152MOL0     N20855  12.409   8.271  10.007  0.0607  0.0085 -0.5329
  152MOL0     C20856  12.405   8.338   9.884 -1.2454  0.1828  0.1622
  152MOL0     C20857  12.532   8.390   9.877  0.8520  0.2211  0.4799
  152MOL0     C20858  12.585   8.461   9.752 -0.4271  0.9038  0.5210
  152MOL0     C20859  12.735   8.492   9.762  0.1527  0.2188 -0.0363
  152MOL0     C20860  12.834   8.376   9.732 -0.0710  0.0304  0.0518
  152MOL0     C20861  12.977   8.382   9.780 -0.2456 -0.1624  0.3145
  152MOL0     O20862  13.046   8.495   9.746 -0.6895  0.2937  0.1674
  152MOL0     C20863  13.179   8.499   9.790 -0.1849 -0.1933  0.6991
  152MOL0     C20864  13.258   8.390   9.843 -0.4643 -0.0378 -0.6227
  152MOL0     C20865  13.398   8.402   9.878  0.4097  0.7981  0.7613
  152MOL0     C20866  13.464   8.295   9.960 -0.1854 -0.3303 -0.1160
  152MOL0     C20867  13.454   8.533   9.849  0.2548  0.2067  0.6652
  152MOL0     C20868  13.600   8.553   9.876 -0.4232  0.0509  0.0556
  152MOL0     O20869  13.625   8.685   9.883 -0.7123 -0.0078 -0.1605
  152MOL0     C20870  13.759   8.730   9.886 -0.8743 -0.6612  0.9945
  152MOL0     C20871  13.792   8.825   9.989  0.8889 -0.0165  0.5423
  152MOL0     C20872  13.917   8.875   9.993  0.0380  0.1403 -1.0064
  152MOL0     C20873  14.019   8.840   9.909 -0.2524  0.4705 -0.8343
  152MOL0     O20874  14.139   8.906   9.916 -0.0770  0.3497 -1.1409
  152MOL0     C20875  14.223   8.878  10.032 -0.4484  0.2619 -0.7020
  152MOL0     C20876  14.349   8.793   9.987 -0.0302 -0.1875 -0.5194
  152MOL0     C20877  14.443   8.780  10.105 -0.4847 -0.1881 -0.8137
  152MOL0     C20878  14.577   8.710  10.072  0.0086  0.9464 -0.2315
  152MOL0     C20879  14.674   8.706  10.185  0.3329 -0.2264 -0.3912
  152MOL0     C20880  14.793   8.624  10.151  1.1358 -0.0581 -0.3792
  152MOL0     C20881  14.742   8.472  10.139 -0.0687  1.2791 -0.4381
  152MOL0     C20882  14.824   8.391  10.032 -0.4870  0.4457 -0.5963
  152MOL0    Cl20883  14.995   8.379  10.085  0.3995 -0.5230  0.0651
  152MOL0     C20884  13.987   8.743   9.802 -0.4199 -0.6662  0.0188
  152MOL0     C20885  13.858   8.694   9.794  0.0624 -0.3674  0.2354
  152MOL0     O20886  13.677   8.455   9.874  0.6433  0.0949  0.5842
  152MOL0     C20887  13.378   8.629   9.774 -0.9364  0.0705  0.4197
  152MOL0     C20888  13.237   8.619   9.758  1.1197 -1.0576  0.2106
  152MOL0     N20889  12.583   8.381   9.998 -0.1074 -0.0421  0.1918
  152MOL0     N20890  12.520   8.307  10.078  0.1519  0.1007  0.2682
  152MOL0     C20891  11.285   7.918  10.497  0.5783 -0.3360  0.7296
  152MOL0     C20892  11.161   7.938  10.557  0.1776 -0.2887 -0.7207
  152MOL0     C20893  10.874   7.955  10.946 -0.4197 -0.2398  0.8129
  152MOL0     C20894  10.769   8.008  10.871 -0.1102 -0.0208  0.2379
  152MOL0     C20895  10.641   8.017  10.927  0.1500  0.3979  0.5285
  152MOL0     C20896  10.619   7.971  11.059  0.5355 -1.0685  0.3170
  152MOL0     O20897  10.504   7.995  11.129  0.2648 -0.7426  0.4206
  152MOL0     C20898  10.424   8.111  11.103 -0.4110  0.8079 -0.4084
  152MOL0     C20899  10.511   8.234  11.133 -0.2559 -0.2729  0.4886
  152MOL0     C20900  10.434   8.366  11.131  0.2814 -0.7178 -0.3433
  152MOL0     C20901  10.478   8.474  11.236  0.2012 -0.0923  0.5095
  152MOL0     C20902  10.444   8.437  11.368  0.0487  0.5682 -0.2982
  152MOL0     C20903  10.427   8.413  11.484  0.6056  0.1279 -0.2779
  152MOL0     C20904  10.719   7.905  11.120  0.4286  0.4513 -0.4452
  152MOL0     C20905  10.854   7.899  11.076  0.8326 -0.6361 -1.3309
  152MOL0     C20906  10.962   7.836  11.173  0.4565 -0.4886 -0.6944
  152MOL0     H20907  11.279   8.106  10.835 -0.5479 -3.3903  3.1889
  152MOL0     H20908  11.473   8.082  10.726 -0.2109  1.4075 -0.6046
  152MOL0     H20909  11.666   8.070  10.571  0.0918  0.9766 -0.3968
  152MOL0     H20910  11.552   8.168  10.489  0.7526  1.5589 -2.1792
  152MOL0     H20911  11.745   7.978  10.347  2.2997  1.0286 -0.0194
  152MOL0     H20912  11.651   8.104  10.271  0.7460  0.1640 -0.1302
  152MOL0     H20913  11.781   8.274  10.406 -2.5399 -1.0746 -0.6982
  152MOL0     H20914  11.877   8.151  10.481  1.7702 -0.1632 -0.7019
  152MOL0     H20915  11.981   8.084  10.274 -0.9591 -1.0176 -1.0903
  152MOL0     H20916  11.851   8.172  10.174  1.9632 -0.5621 -1.8077
  152MOL0     H20917  12.069   8.300  10.347  1.8801 -2.6279 -0.4008
  152MOL0     H20918  11.946   8.379  10.242  1.4769  0.8198 -2.5541
  152MOL0     H20919  12.058   8.241  10.044  0.2840  1.6108 -1.6038
  152MOL0     H20920  12.159   8.373  10.107  1.9502 -1.2403 -1.6572
  152MOL0     H20921  12.185   8.094  10.215 -0.6777 -0.1136 -1.5159
  152MOL0     H20922  12.272   8.242  10.255  0.2468 -1.5347  0.2629
  152MOL0     H20923  12.391   8.076  10.094 -2.7812 -0.4933  3.1595
  152MOL0     H20924  12.276   8.107   9.973  2.1446 -1.7144 -0.8805
  152MOL0     H20925  12.334   8.328   9.803  0.2473 -0.3375 -1.1381
  152MOL0     H20926  12.529   8.554   9.738 -1.9741  0.5552  3.5795
  152MOL0     H20927  12.548   8.408   9.664  1.2452 -2.1582  1.4861
  152MOL0     H20928  12.752   8.570   9.687  3.6539  1.5557  1.8742
  152MOL0     H20929  12.762   8.532   9.861  2.0847 -1.7865  0.3175
  152MOL0     H20930  12.794   8.290   9.786 -2.8385  2.3156  1.9391
  152MOL0     H20931  12.838   8.352   9.626  2.2414 -1.3562  0.3825
  152MOL0     H20932  12.972   8.386   9.890  0.6156 -1.2440  0.4119
  152MOL0     H20933  13.027   8.287   9.758  3.3098  0.8987  2.8373
  152MOL0     H20934  13.217   8.292   9.864  0.4632 -0.1654  0.7245
  152MOL0     H20935  13.514   8.347  10.041  0.4485 -1.3151  0.1348
  152MOL0     H20936  13.533   8.232   9.903  3.1037  1.9037  1.1507
  152MOL0     H20937  13.384   8.226   9.989  2.2414 -3.5932 -0.6931
  152MOL0     H20938  13.715   8.857  10.059  0.5992  1.7295 -0.5292
  152MOL0     H20939  13.932   8.951  10.070  0.7351  1.4956 -2.4407
  152MOL0     H20940  14.249   8.971  10.084 -0.1351 -0.6838  0.8836
  152MOL0     H20941  14.169   8.819  10.107  1.2317 -2.6301 -1.6107
  152MOL0     H20942  14.318   8.693   9.954  1.0895 -0.9296  0.5950
  152MOL0     H20943  14.397   8.836   9.898 -2.9743 -1.7752 -3.1146
  152MOL0     H20944  14.388   8.740  10.191  0.1241 -0.3266 -0.4857
  152MOL0     H20945  14.477   8.881  10.130 -1.3757 -0.5327  2.1844
  152MOL0     H20946  14.624   8.761   9.988  0.3393  0.8839 -0.0855
  152MOL0     H20947  14.545   8.612  10.035 -0.4926  1.6549 -1.7652
  152MOL0     H20948  14.714   8.807  10.201 -2.3199  1.0866 -1.4562
  152MOL0     H20949  14.626   8.666  10.275  1.3390  0.1503  0.3345
  152MOL0     H20950  14.869   8.627  10.229  3.1193 -0.0594 -2.2208
  152MOL0     H20951  14.846   8.665  10.064  0.4753  2.1853  0.2030
  152MOL0     H20952  14.635   8.456  10.125 -0.2011  1.6090  0.1695
  152MOL0     H20953  14.766   8.428  10.236 -0.3322  1.6799 -0.1874
  152MOL0     H20954  14.826   8.434   9.931  0.5158 -0.7255 -1.0998
  152MOL0     H20955  14.794   8.286  10.026  1.9330 -0.2564 -1.6174
  152MOL0     H20956  14.066   8.723   9.730  2.0421  0.1400  2.3247
  152MOL0     H20957  13.834   8.628   9.712 -1.6113 -0.1562  0.5176
  152MOL0     H20958  13.432   8.717   9.739 -0.0747 -0.9465 -0.9041
  152MOL0     H20959  13.181   8.699   9.710  1.3176 -0.7705  0.4541
  152MOL0     H20960  11.286   7.866  10.402 -1.5830 -1.6330  1.3448
  152MOL0     H20961  11.070   7.905  10.508 -2.2607  1.1203  2.4977
  152MOL0     H20962  10.780   8.035  10.766  0.1684 -1.2359 -0.0534
  152MOL0     H20963  10.561   8.052  10.864  0.1725 -0.0997  0.2189
  152MOL0     H20964  10.377   8.121  11.005 -1.2690  0.4144 -0.0446
  152MOL0     H20965  10.350   8.115  11.183 -1.3100 -0.6574 -1.1423
  152MOL0     H20966  10.586   8.238  11.053  3.0760 -0.2405  3.3792
  152MOL0     H20967  10.562   8.223  11.229  1.2091  1.0235 -0.0953
  152MOL0     H20968  10.435   8.412  11.031 -1.0809  1.0544  0.3927
  152MOL0     H20969  10.328   8.340  11.140  0.1492  0.1827  0.9605
  152MOL0     H20970  10.425   8.564  11.204  0.7075  0.6060  1.6117
  152MOL0     H20971  10.587   8.485  11.237  0.3728 -1.3374  3.0170
  152MOL0     H20972  10.419   8.390  11.588 -0.0279  0.1251 -0.3212
  152MOL0     H20973  10.689   7.861  11.215 -2.3538 -2.7037 -2.5570
  152MOL0     H20974  10.910   7.809  11.266 -0.2978  0.3050 -0.8672
  152MOL0     H20975  11.016   7.751  11.132  1.5527  0.4811 -1.3283
  152MOL0     H20976  11.041   7.912  11.184  1.1414 -0.9007 -2.4368
  153MOL0     O20977  11.195   1.279   2.232 -0.0168 -0.5581 -0.1519
  153MOL0     C20978  11.135   1.170   2.205  0.8010 -0.2444 -0.6809
  153MOL0     O20979  11.197   1.046   2.192 -0.0018 -0.5224 -0.0066
  153MOL0     C20980  11.334   1.033   2.197 -0.1722  0.2620  0.7392
  153MOL0     C20981  11.415   0.967   2.106 -0.1275 -0.8228 -0.2577
  153MOL0     C20982  11.547   0.959   2.118 -0.2288  0.1909  0.6641
  153MOL0     C20983  11.622   1.008   2.227  0.4456 -0.5974 -0.8048
  153MOL0     O20984  11.758   0.999   2.235  0.2360  0.0140 -0.1112
  153MOL0     C20985  11.819   1.039   2.359  0.2292  0.4409 -0.7564
  153MOL0     C20986  11.970   1.019   2.355 -0.5259  0.7328 -0.0280
  153MOL0     C20987  12.043   1.100   2.246  0.0572  0.2710  0.1660
  153MOL0     C20988  12.188   1.138   2.295  0.0354  0.4461  0.3007
  153MOL0     C20989  12.277   1.216   2.193  0.3608  0.6458 -0.0621
  153MOL0     C20990  12.421   1.225   2.260  0.8702  0.0628  0.2736
  153MOL0     C20991  12.508   1.305   2.170 -0.0958 -0.1343 -0.2487
  153MOL0     C20992  12.647   1.324   2.231  0.3340 -0.9122 -0.3678
  153MOL0     N20993  12.741   1.396   2.154 -0.2476 -0.1362 -0.0364
  153MOL0     C20994  12.727   1.529   2.131 -0.0073  0.5956  0.8040
  153MOL0     C20995  12.835   1.562   2.050 -0.1581 -0.7112 -0.6585
  153MOL0     C20996  12.855   1.690   1.989  0.6222  0.0766  1.3670
  153MOL0     C20997  12.929   1.791   2.070  1.4400  0.6939  0.6463
  153MOL0     C20998  12.831   1.870   2.166 -0.7197 -0.1363 -0.2700
  153MOL0     C20999  12.905   1.984   2.237 -0.2758 -0.6076 -0.5358
  153MOL0     O21000  13.013   1.929   2.318 -0.1123  0.2098  0.1119
  153MOL0     C21001  13.100   2.018   2.378 -0.6980  0.0486 -0.1014
  153MOL0     C21002  13.061   2.141   2.424 -0.6173  0.8565 -0.4835
  153MOL0     C21003  13.157   2.235   2.466 -0.2674  0.2571 -1.1196
  153MOL0     C21004  13.101   2.363   2.515  0.0817  0.3249  0.0310
  153MOL0     C21005  13.296   2.200   2.479  0.2831 -0.1426  0.5495
  153MOL0     C21006  13.406   2.277   2.540 -0.5662  0.4349  0.2062
  153MOL0     O21007  13.528   2.212   2.546 -0.2717 -0.1570  0.2125
  153MOL0     C21008  13.642   2.288   2.573  1.0175  0.0822  0.7560
  153MOL0     C21009  13.748   2.284   2.479  0.1170 -0.4736 -0.2921
  153MOL0     C21010  13.863   2.364   2.494  0.7228  0.7803  1.0916
  153MOL0     C21011  13.882   2.447   2.603 -0.5146 -0.0993  0.2204
  153MOL0     O21012  14.001   2.521   2.627 -0.0687 -0.0371 -0.3039
  153MOL0     C21013  14.116   2.472   2.553  0.7420  0.3169  0.2968
  153MOL0     C21014  14.153   2.331   2.604 -0.3878  0.4367 -0.0936
  153MOL0     C21015  14.162   2.329   2.756  0.0177  0.5880  0.5208
  153MOL0     C21016  14.190   2.183   2.807 -0.2366  0.0535 -0.0511
  153MOL0     C21017  14.200   2.186   2.951  0.1401 -0.3373 -0.0354
  153MOL0     C21018  14.242   2.059   3.023  0.1962  0.1333  0.1086
  153MOL0     C21019  14.395   2.024   3.000 -0.3163 -0.5393  0.0923
  153MOL0     C21020  14.443   1.886   3.049  0.0587 -1.1776  0.1954
  153MOL0    Cl21021  14.589   1.855   2.952  0.0347  0.1184  0.1572
  153MOL0     C21022  13.776   2.455   2.697  0.1760  0.1149 -0.0324
  153MOL0     C21023  13.660   2.373   2.679  0.4202  0.1239  0.4046
  153MOL0     O21024  13.381   2.394   2.558 -0.8957 -0.1736  0.1883
  153MOL0     C21025  13.328   2.066   2.437  0.3926  1.3405 -0.2453
  153MOL0     C21026  13.231   1.977   2.384  0.0621 -0.8011  0.2387
  153MOL0     N21027  12.911   1.446   2.033  0.4792  0.3178 -0.0630
  153MOL0     N21028  12.848   1.349   2.095  0.2441 -0.2586  0.1357
  153MOL0     C21029  11.536   1.059   2.323  0.8146 -0.4090  1.3915
  153MOL0     C21030  11.404   1.073   2.303  0.5898 -0.6018 -1.0152
  153MOL0     C21031  10.984   1.175   2.209  0.7060  0.4592 -0.4006
  153MOL0     C21032  10.916   1.067   2.155  0.3346  0.2646  0.2722
  153MOL0     C21033  10.778   1.064   2.140 -0.3270  0.0699  0.5305
  153MOL0     C21034  10.700   1.167   2.204  0.0063 -0.0727  0.5644
  153MOL0     O21035  10.563   1.165   2.200  0.6544  0.7146 -0.5188
  153MOL0     C21036  10.485   1.279   2.243  0.1839  0.5096 -1.2941
  153MOL0     C21037  10.334   1.259   2.236 -0.3456  0.8425 -0.3511
  153MOL0     C21038  10.279   1.114   2.286  0.2250 -0.1718  0.0106
  153MOL0     C21039  10.138   1.109   2.331  1.1769 -0.4051 -0.0497
  153MOL0     C21040  10.054   1.175   2.232 -0.0239 -0.3362  0.1264
  153MOL0     C21041   9.975   1.232   2.154  0.1232 -0.4967  0.1191
  153MOL0     C21042  10.766   1.274   2.270 -0.9432  0.6070  0.3282
  153MOL0     C21043  10.908   1.281   2.266 -0.5121 -0.4717 -0.7419
  153MOL0     C21044  10.970   1.387   2.356 -0.2117 -0.1369 -0.1262
  153MOL0     H21045  11.370   0.933   2.014 -1.6596 -0.5584  0.3768
  153MOL0     H21046  11.606   0.914   2.038  0.5525  1.5251  0.4636
  153MOL0     H21047  11.792   0.978   2.445  1.7325  0.6990 -0.0609
  153MOL0     H21048  11.802   1.145   2.380 -0.1974  0.5824 -1.7681
  153MOL0     H21049  12.001   1.050   2.455 -0.6834 -0.7654  0.5156
  153MOL0     H21050  12.001   0.914   2.343 -2.4054  0.1750 -0.3125
  153MOL0     H21051  12.059   1.025   2.167  4.0224  0.0712  0.9770
  153MOL0     H21052  11.984   1.185   2.211 -2.2240 -1.8414 -1.5424
  153MOL0     H21053  12.182   1.179   2.396 -2.4246 -2.9928  1.7601
  153MOL0     H21054  12.234   1.040   2.308 -1.7549 -0.3816  0.8250
  153MOL0     H21055  12.246   1.320   2.177  2.9900  1.5899  0.5674
  153MOL0     H21056  12.293   1.159   2.101  1.9855  0.7898  0.1143
  153MOL0     H21057  12.397   1.267   2.358 -2.4879 -1.2085  0.1286
  153MOL0     H21058  12.459   1.125   2.284  1.0327  0.2252  0.7057
  153MOL0     H21059  12.460   1.403   2.164 -1.2188 -0.6747 -0.2412
  153MOL0     H21060  12.510   1.271   2.066 -0.2112  1.3040 -0.7424
  153MOL0     H21061  12.629   1.367   2.330 -3.1965  0.1036 -1.2873
  153MOL0     H21062  12.693   1.227   2.255 -0.4312 -0.6284  2.7054
  153MOL0     H21063  12.660   1.609   2.159 -0.9084  0.7225 -1.5035
  153MOL0     H21064  12.758   1.726   1.953  0.9201 -0.0972  0.3534
  153MOL0     H21065  12.915   1.682   1.898 -0.4898  2.1965  0.3592
  153MOL0     H21066  13.005   1.737   2.126 -0.8250 -3.7088 -0.0716
  153MOL0     H21067  12.971   1.861   1.998 -2.3907  2.9461  0.3442
  153MOL0     H21068  12.744   1.906   2.111  0.1897 -0.9358 -2.3297
  153MOL0     H21069  12.790   1.797   2.237 -2.0646 -0.7617 -1.6293
  153MOL0     H21070  12.939   2.068   2.175 -1.2054  0.3957  0.2625
  153MOL0     H21071  12.837   2.040   2.302  0.4831 -1.5531  1.1216
  153MOL0     H21072  12.960   2.178   2.411 -1.0135  0.2385  0.6845
  153MOL0     H21073  13.166   2.450   2.505  0.2942  0.5029  2.3123
  153MOL0     H21074  13.097   2.341   2.622 -1.4750  0.8665  0.1167
  153MOL0     H21075  13.001   2.396   2.485 -0.7268  1.7505  3.6704
  153MOL0     H21076  13.739   2.241   2.380 -1.4660  1.8114 -1.2424
  153MOL0     H21077  13.934   2.347   2.414 -1.9248 -1.7815 -0.9454
  153MOL0     H21078  14.108   2.468   2.444  0.8936 -2.0610  0.3146
  153MOL0     H21079  14.204   2.534   2.572  0.7877 -0.3805  2.8044
  153MOL0     H21080  14.085   2.255   2.564  1.1351 -0.7899 -0.4997
  153MOL0     H21081  14.254   2.314   2.565  0.3895 -1.0697  2.3533
  153MOL0     H21082  14.068   2.355   2.804  0.1616 -0.5775  1.4672
  153MOL0     H21083  14.249   2.391   2.781  0.2213  1.9651 -2.9266
  153MOL0     H21084  14.282   2.157   2.753  1.1089 -0.4240  2.3449
  153MOL0     H21085  14.099   2.128   2.782  0.1872 -0.2575 -0.9790
  153MOL0     H21086  14.278   2.262   2.963 -0.2402  0.2004 -0.8810
  153MOL0     H21087  14.100   2.207   2.989 -0.8708 -1.5845 -1.8741
  153MOL0     H21088  14.176   1.984   2.979 -0.7367  1.7279 -1.3095
  153MOL0     H21089  14.218   2.067   3.129  0.9236 -2.7559  0.5895
  153MOL0     H21090  14.452   2.102   3.051 -0.3279 -0.9219  0.7101
  153MOL0     H21091  14.409   2.032   2.892 -1.1809 -0.3515 -0.0140
  153MOL0     H21092  14.367   1.807   3.050 -0.4069 -0.7439  1.2433
  153MOL0     H21093  14.480   1.879   3.152 -0.2135 -1.5682  0.2700
  153MOL0     H21094  13.791   2.524   2.779  0.5027 -1.8361  1.6278
  153MOL0     H21095  13.580   2.371   2.753 -0.3655 -0.0086 -0.4352
  153MOL0     H21096  13.425   2.017   2.444  0.5164  1.5102 -0.7553
  153MOL0     H21097  13.257   1.880   2.344 -0.4874 -0.6186 -0.5891
  153MOL0     H21098  11.580   1.111   2.408  0.1350  0.2853  1.3273
  153MOL0     H21099  11.346   1.128   2.377 -4.2194 -0.8685 -4.1210
  153MOL0     H21100  10.971   0.988   2.105  2.1585  1.1019  0.8594
  153MOL0     H21101  10.727   0.989   2.082 -2.9031  0.7591  1.7383
  153MOL0     H21102  10.514   1.298   2.347  0.2554 -0.0351 -1.2131
  153MOL0     H21103  10.501   1.369   2.182  0.8395  0.7667 -0.7508
  153MOL0     H21104  10.297   1.271   2.134  1.2814  0.6978 -0.9972
  153MOL0     H21105  10.294   1.341   2.296 -0.4540  0.9746 -0.6025
  153MOL0     H21106  10.284   1.041   2.205 -0.1177 -0.3662  0.1627
  153MOL0     H21107  10.343   1.073   2.364 -0.1462  0.8815  0.9067
  153MOL0     H21108  10.122   1.166   2.424 -2.1472  1.6960 -1.7267
  153MOL0     H21109  10.102   1.007   2.351  0.6519  0.0815  1.6760
  153MOL0     H21110   9.933   1.292   2.076  2.1450 -2.2260 -2.4454
  153MOL0     H21111  10.715   1.358   2.316 -0.3571  0.5689  1.0651
  153MOL0     H21112  10.894   1.438   2.416 -0.4026  0.3730 -0.7919
  153MOL0     H21113  11.043   1.349   2.427 -0.5395 -1.8704 -0.6710
  153MOL0     H21114  11.018   1.464   2.295 -1.8325  0.9696 -0.0599
  154MOL0     O21115   0.644   7.739   7.018  0.6568 -0.0065 -0.2456
  154MOL0     C21116   0.632   7.621   7.050 -0.4077  0.1332  0.5065
  154MOL0     O21117   0.733   7.530   7.054 -0.3451 -0.0377  0.3649
  154MOL0     C21118   0.865   7.558   7.054 -0.4561 -0.2158  0.4198
  154MOL0     C21119   0.950   7.454   6.998 -0.6775  0.4844 -0.4084
  154MOL0     C21120   1.084   7.477   6.984  0.0754 -0.2816  0.4889
  154MOL0     C21121   1.150   7.594   7.030 -0.3808  0.9135  0.0098
  154MOL0     O21122   1.286   7.604   7.023  0.4059 -0.1450 -0.4622
  154MOL0     C21123   1.341   7.669   7.133 -0.1709  0.4068 -0.1514
  154MOL0     C21124   1.481   7.609   7.151 -0.3666  0.3290 -0.0151
  154MOL0     C21125   1.571   7.617   7.035  0.3953 -0.0876  0.6927
  154MOL0     C21126   1.673   7.503   7.015  0.3512 -0.7012  0.2226
  154MOL0     C21127   1.779   7.559   6.911 -0.6090  0.2690 -0.0165
  154MOL0     C21128   1.864   7.435   6.880 -0.5332 -0.1326  0.0551
  154MOL0     C21129   1.968   7.469   6.784 -0.4232 -0.0135 -0.0327
  154MOL0     C21130   2.047   7.331   6.775 -0.0204  0.5679 -0.7831
  154MOL0     N21131   2.179   7.355   6.715  0.1387 -0.0462 -0.6366
  154MOL0     C21132   2.282   7.387   6.804  0.9628 -0.6484  0.3104
  154MOL0     C21133   2.381   7.429   6.725 -0.2286 -0.2105 -0.6756
  154MOL0     C21134   2.509   7.493   6.771 -0.4768  0.2604  0.1521
  154MOL0     C21135   2.630   7.403   6.727 -0.0400 -0.4199  0.0573
  154MOL0     C21136   2.763   7.467   6.785 -0.1157  0.7563  0.0686
  154MOL0     C21137   2.891   7.374   6.761  0.8392  0.4180  0.4809
  154MOL0     O21138   2.927   7.348   6.624  0.1965 -0.6760 -0.3912
  154MOL0     C21139   3.035   7.276   6.592 -0.6411  0.4439 -0.6931
  154MOL0     C21140   3.089   7.293   6.466  0.4748 -0.9092 -0.1896
  154MOL0     C21141   3.201   7.225   6.421 -0.1416  0.2655  0.1955
  154MOL0     C21142   3.265   7.272   6.288 -0.4239  0.3667 -0.2331
  154MOL0     C21143   3.251   7.120   6.506  0.0305 -0.0629 -0.0090
  154MOL0     C21144   3.371   7.035   6.468 -0.3354  0.2801 -0.6564
  154MOL0     O21145   3.419   6.951   6.565 -0.1669 -0.3944  0.6250
  154MOL0     C21146   3.534   6.881   6.565 -0.1790 -0.0852  0.4478
  154MOL0     C21147   3.554   6.777   6.658 -0.3285 -0.0441  0.5686
  154MOL0     C21148   3.660   6.690   6.651 -0.2792  0.0385 -0.3608
  154MOL0     C21149   3.764   6.704   6.554  0.3468  0.4193  0.2716
  154MOL0     O21150   3.870   6.627   6.559 -0.8508  0.6212 -0.4624
  154MOL0     C21151   3.952   6.622   6.446 -0.1855 -0.1474  0.1025
  154MOL0     C21152   4.068   6.531   6.476  0.4615 -0.1046 -1.2135
  154MOL0     C21153   4.027   6.391   6.496 -0.1912  1.0153 -0.2554
  154MOL0     C21154   4.141   6.295   6.538  0.1323 -0.3816 -0.8058
  154MOL0     C21155   4.100   6.144   6.545 -0.7604 -0.2076 -0.0263
  154MOL0     C21156   4.223   6.060   6.561  0.1022 -0.1285  1.0923
  154MOL0     C21157   4.299   6.056   6.692 -0.2024  0.3005 -0.2908
  154MOL0     C21158   4.420   5.964   6.700 -0.0813 -0.6101 -0.2059
  154MOL0    Cl21159   4.502   5.974   6.861 -0.4195  0.0630 -0.0911
  154MOL0     C21160   3.748   6.803   6.449 -0.6884 -0.5938 -0.3742
  154MOL0     C21161   3.639   6.896   6.467 -0.3982  0.1810 -0.4314
  154MOL0     O21162   3.408   7.032   6.354 -0.3366  0.2860 -0.3315
  154MOL0     C21163   3.189   7.097   6.625 -0.0356  0.5580 -0.4560
  154MOL0     C21164   3.081   7.177   6.667 -1.1837  0.5497 -0.0360
  154MOL0     N21165   2.341   7.409   6.594  0.1920  0.0428  0.0351
  154MOL0     N21166   2.214   7.387   6.588 -0.1187 -0.4229 -0.0400
  154MOL0     C21167   1.067   7.696   7.075  0.8044 -0.4690 -0.6740
  154MOL0     C21168   0.927   7.681   7.088  0.5816  0.2457  0.9062
  154MOL0     C21169   0.496   7.581   7.108 -0.9226  0.3543  0.0390
  154MOL0     C21170   0.393   7.675   7.100  0.8857 -0.3094  0.7792
  154MOL0     C21171   0.268   7.637   7.156 -0.5686 -0.5906  0.1357
  154MOL0     C21172   0.240   7.514   7.208  0.5150  0.5407 -0.4686
  154MOL0     O21173   0.117   7.488   7.273 -0.3583 -0.7440 -0.2627
  154MOL0     C21174   0.115   7.387   7.377 -1.3953  0.6470  0.1371
  154MOL0     C21175  -0.001   7.403   7.472  0.0128  0.1449 -0.8874
  154MOL0     C21176   0.001   7.283   7.569  0.9695 -0.3015  0.4704
  154MOL0     C21177  -0.083   7.303   7.697  0.2280 -0.2562  0.6533
  154MOL0     C21178  -0.206   7.383   7.679  0.8572 -0.2387  0.7786
  154MOL0     C21179  -0.318   7.429   7.642 -0.5581 -0.2488  0.1235
  154MOL0     C21180   0.343   7.424   7.207 -0.1056  0.5395 -0.1738
  154MOL0     C21181   0.468   7.459   7.163  0.0602 -0.3470 -0.0405
  154MOL0     C21182   0.573   7.342   7.162  0.4246  0.2634 -0.1496
  154MOL0     H21183   0.906   7.357   6.976  2.7881 -1.7819  1.6262
  154MOL0     H21184   1.141   7.407   6.923  0.9016  2.7922 -2.5639
  154MOL0     H21185   1.290   7.633   7.223 -1.7210  0.8513 -0.8263
  154MOL0     H21186   1.347   7.778   7.133 -1.3717  0.6918  4.6860
  154MOL0     H21187   1.534   7.632   7.243 -0.4188  1.6705 -0.3038
  154MOL0     H21188   1.453   7.503   7.163 -3.4123  1.1217  0.8922
  154MOL0     H21189   1.515   7.622   6.941  1.2630  0.1770  0.1702
  154MOL0     H21190   1.624   7.712   7.043  1.1022 -0.3740 -0.3038
  154MOL0     H21191   1.724   7.474   7.107  1.8143  1.2372  0.1020
  154MOL0     H21192   1.618   7.419   6.972  0.7833  0.5364 -3.0536
  154MOL0     H21193   1.845   7.638   6.948  1.6172 -1.1414 -0.7832
  154MOL0     H21194   1.731   7.591   6.818  2.1385 -0.9982 -2.0298
  154MOL0     H21195   1.904   7.396   6.974  0.4387 -0.2787 -0.4123
  154MOL0     H21196   1.814   7.348   6.838  1.4748 -1.4240  0.2237
  154MOL0     H21197   2.030   7.549   6.825 -1.3466  0.7940 -0.2036
  154MOL0     H21198   1.923   7.496   6.689  0.8042 -1.4813 -1.0879
  154MOL0     H21199   2.053   7.282   6.872 -1.4109 -0.1825 -1.0416
  154MOL0     H21200   1.993   7.262   6.709 -2.1943  2.6202 -1.2890
  154MOL0     H21201   2.272   7.391   6.912  2.4625 -0.7666  0.4748
  154MOL0     H21202   2.509   7.492   6.881 -3.6962 -2.5587  0.2674
  154MOL0     H21203   2.519   7.590   6.720 -1.5075  0.2875 -0.0176
  154MOL0     H21204   2.621   7.299   6.758 -1.4328 -0.7772 -1.4172
  154MOL0     H21205   2.642   7.397   6.619  2.1108 -0.7569  0.2558
  154MOL0     H21206   2.788   7.564   6.741 -3.5380  1.7619  0.0531
  154MOL0     H21207   2.763   7.485   6.893  4.1998  0.8009  0.2463
  154MOL0     H21208   2.985   7.408   6.805  1.2565  1.7950 -1.4051
  154MOL0     H21209   2.870   7.287   6.824  1.0422 -0.6933 -0.9292
  154MOL0     H21210   3.041   7.370   6.407  1.5539  1.8496  2.2302
  154MOL0     H21211   3.374   7.280   6.297 -0.3436 -0.8317  0.0513
  154MOL0     H21212   3.224   7.369   6.258  1.5290  0.6873 -2.0303
  154MOL0     H21213   3.249   7.198   6.210 -0.3308 -1.8523  1.7313
  154MOL0     H21214   3.480   6.772   6.738 -0.8402  0.6331  0.1467
  154MOL0     H21215   3.665   6.622   6.735 -3.5060  0.1886  0.1065
  154MOL0     H21216   3.894   6.593   6.358  1.5504  2.3672 -2.0234
  154MOL0     H21217   3.991   6.721   6.421 -1.3641  0.2462 -0.2777
  154MOL0     H21218   4.149   6.532   6.402  1.9167  3.2017  0.2354
  154MOL0     H21219   4.117   6.572   6.564 -0.0606  0.3088 -1.1073
  154MOL0     H21220   3.976   6.360   6.405 -2.7200  2.1775  0.6851
  154MOL0     H21221   3.958   6.386   6.581 -1.5484  0.7042 -1.3437
  154MOL0     H21222   4.189   6.326   6.631  0.0156 -2.6253  0.0574
  154MOL0     H21223   4.219   6.301   6.462  0.5729  2.9717 -0.2218
  154MOL0     H21224   4.035   6.122   6.630 -1.5424  0.7199 -0.3551
  154MOL0     H21225   4.044   6.120   6.453  1.2481 -0.5464 -1.2166
  154MOL0     H21226   4.293   6.091   6.483 -2.8279 -0.8598 -2.0738
  154MOL0     H21227   4.195   5.958   6.535 -2.2064  0.0300  2.6401
  154MOL0     H21228   4.230   6.032   6.773 -1.4059  0.9506 -1.1087
  154MOL0     H21229   4.338   6.156   6.711  0.9971 -0.1710 -0.1506
  154MOL0     H21230   4.490   6.000   6.624  1.1662  0.0520  1.1995
  154MOL0     H21231   4.391   5.861   6.678  0.6466 -0.8003 -0.3039
  154MOL0     H21232   3.810   6.818   6.362  2.5508 -0.6829  1.7764
  154MOL0     H21233   3.632   6.967   6.385  0.3234  0.9912  0.1887
  154MOL0     H21234   3.217   7.019   6.695 -3.6757 -1.5467 -1.1222
  154MOL0     H21235   3.043   7.155   6.766  0.4042 -0.3125  0.4179
  154MOL0     H21236   1.095   7.798   7.100  1.1829 -0.8415  0.4534
  154MOL0     H21237   0.870   7.765   7.127 -0.3519 -1.5083  3.6033
  154MOL0     H21238   0.399   7.768   7.045 -5.5579  0.4673  0.5759
  154MOL0     H21239   0.190   7.711   7.156  2.6449  3.1109  1.1419
  154MOL0     H21240   0.105   7.290   7.328 -3.5483  1.0356 -0.3039
  154MOL0     H21241   0.202   7.395   7.442 -1.2662 -1.4043  0.2750
  154MOL0     H21242  -0.092   7.405   7.411 -1.9756 -4.1620  1.4989
  154MOL0     H21243   0.007   7.489   7.540  0.0861 -0.8827  0.4347
  154MOL0     H21244  -0.037   7.197   7.513 -0.4117  1.2813 -1.1301
  154MOL0     H21245   0.102   7.257   7.603  0.6530 -1.9711  0.2261
  154MOL0     H21246  -0.019   7.352   7.771 -1.1499  0.9629  1.0833
  154MOL0     H21247  -0.100   7.202   7.737 -2.6641 -0.3288 -0.5379
  154MOL0     H21248  -0.416   7.447   7.601 -0.9373 -0.2633  1.0041
  154MOL0     H21249   0.317   7.322   7.233 -1.8454  1.4690  2.1657
  154MOL0     H21250   0.667   7.371   7.209 -0.6874  3.1462  0.5378
  154MOL0     H21251   0.525   7.258   7.213 -1.1621 -1.5254 -4.1506
  154MOL0     H21252   0.596   7.295   7.066  1.5362 -2.0765  1.1672
  155MOL0     O21253   8.326   5.163   6.546 -0.6215 -0.6221 -0.6308
  155MOL0     C21254   8.282   5.269   6.508 -0.5170  0.0322  0.7940
  155MOL0     O21255   8.355   5.367   6.455  0.3623 -0.2219 -0.3479
  155MOL0     C21256   8.472   5.334   6.392  0.0004 -0.5753  0.4935
  155MOL0     C21257   8.563   5.436   6.390  1.1920 -0.5216  0.5449
  155MOL0     C21258   8.671   5.437   6.303  0.8886  0.3851 -0.3356
  155MOL0     C21259   8.699   5.314   6.238 -0.2677  0.2006  1.3100
  155MOL0     O21260   8.815   5.310   6.159  0.7758 -0.2269 -0.9796
  155MOL0     C21261   8.873   5.182   6.149  0.0901  0.1336  0.3038
  155MOL0     C21262   9.019   5.188   6.121  0.4042  0.2008  0.6219
  155MOL0     C21263   9.050   5.234   5.976  0.1260  1.0342  0.4137
  155MOL0     C21264   9.194   5.271   5.950  0.2728  0.2929  0.7078
  155MOL0     C21265   9.223   5.285   5.802 -0.5427 -0.3323  0.2335
  155MOL0     C21266   9.375   5.296   5.778  0.0328 -0.6226  0.1834
  155MOL0     C21267   9.425   5.442   5.794 -0.6028  0.1245  0.0404
  155MOL0     C21268   9.488   5.465   5.934  0.3067 -0.0392  0.2992
  155MOL0     N21269   9.551   5.604   5.945 -0.8051  0.1572  0.2125
  155MOL0     C21270   9.589   5.685   5.845 -0.5196 -0.1020 -0.3264
  155MOL0     C21271   9.681   5.774   5.900  0.5069  0.4175 -0.6069
  155MOL0     C21272   9.760   5.889   5.816 -0.2226  0.6637 -0.4557
  155MOL0     C21273   9.825   5.813   5.698 -0.3498 -0.7262 -0.9947
  155MOL0     C21274   9.921   5.905   5.633 -0.7061  0.0068  0.2252
  155MOL0     C21275  10.064   5.911   5.690  0.5170 -0.5575  0.8903
  155MOL0     O21276  10.135   6.021   5.615 -0.7596 -0.2903 -0.6516
  155MOL0     C21277  10.255   6.059   5.669 -0.1194  0.0954 -0.4674
  155MOL0     C21278  10.301   6.189   5.638  0.3389  0.7333  1.5190
  155MOL0     C21279  10.425   6.243   5.683 -1.1277  0.1000  0.0160
  155MOL0     C21280  10.455   6.387   5.642 -0.0608  0.1069  0.2625
  155MOL0     C21281  10.514   6.165   5.767  0.4349  0.6487  0.1972
  155MOL0     C21282  10.652   6.206   5.815 -0.7976 -0.2722 -0.5142
  155MOL0     O21283  10.726   6.302   5.755 -0.4012 -0.7432  0.4347
  155MOL0     C21284  10.860   6.318   5.776  0.1442 -0.3513 -0.0582
  155MOL0     C21285  10.925   6.382   5.666 -1.3054  0.1580 -0.1054
  155MOL0     C21286  11.059   6.416   5.684  0.2344  0.7749  0.0798
  155MOL0     C21287  11.125   6.413   5.807 -0.2529 -0.2072 -0.3371
  155MOL0     O21288  11.259   6.456   5.814 -0.3456 -0.2300  0.1161
  155MOL0     C21289  11.322   6.456   5.944  0.5892 -0.2361 -0.1061
  155MOL0     C21290  11.473   6.460   5.918  0.2395  0.0203 -0.1941
  155MOL0     C21291  11.561   6.468   6.043  0.2293 -0.1039 -0.3691
  155MOL0     C21292  11.703   6.502   6.006 -1.3221  0.6708 -0.7320
  155MOL0     C21293  11.790   6.501   6.136  0.1495 -0.1392 -0.6777
  155MOL0     C21294  11.926   6.559   6.115  0.6009  0.1658  0.9887
  155MOL0     C21295  11.927   6.705   6.069  1.0702 -0.0989 -0.2011
  155MOL0     C21296  12.068   6.775   6.046  0.2959 -0.4339  0.0724
  155MOL0    Cl21297  12.028   6.928   5.963  0.4046  0.4103  0.1632
  155MOL0     C21298  11.060   6.343   5.912  0.5275 -0.6006 -0.2872
  155MOL0     C21299  10.927   6.313   5.899  0.8871  1.0024 -0.4917
  155MOL0     O21300  10.691   6.149   5.916 -0.2150 -0.4989 -0.2195
  155MOL0     C21301  10.462   6.037   5.799 -0.7059  1.2585  0.1684
  155MOL0     C21302  10.337   5.987   5.759 -0.1606 -0.0919 -0.8391
  155MOL0     N21303   9.688   5.745   6.036  0.5637  0.4315  0.1350
  155MOL0     N21304   9.605   5.648   6.060 -0.4275  0.2973  0.0113
  155MOL0     C21305   8.603   5.210   6.234  0.5439 -0.4958  0.5743
  155MOL0     C21306   8.485   5.222   6.309  0.1213 -0.2165 -0.7771
  155MOL0     C21307   8.144   5.296   6.536 -0.0524  0.0523  0.6661
  155MOL0     C21308   8.114   5.404   6.621  0.7656 -0.1536  1.3494
  155MOL0     C21309   7.978   5.430   6.647 -1.2581  0.3089  0.1048
  155MOL0     C21310   7.873   5.364   6.589 -0.4830  0.0953  0.1245
  155MOL0     O21311   7.745   5.395   6.600 -0.6943  0.5671 -0.2957
  155MOL0     C21312   7.698   5.492   6.689 -0.7412  0.1153 -0.8786
  155MOL0     C21313   7.548   5.520   6.672 -0.1676 -0.1863 -0.8165
  155MOL0     C21314   7.517   5.562   6.528 -0.2688  0.1544 -0.7932
  155MOL0     C21315   7.422   5.680   6.543  0.1657  0.1091 -0.4668
  155MOL0     C21316   7.300   5.665   6.625  0.0952  1.1853  0.0831
  155MOL0     C21317   7.201   5.674   6.689 -0.6739 -0.4903  0.1462
  155MOL0     C21318   7.909   5.260   6.499  0.3217  0.2380  0.3894
  155MOL0     C21319   8.044   5.222   6.480  0.1451  0.6086  0.7699
  155MOL0     C21320   8.069   5.098   6.393 -1.0382  0.8869  0.2835
  155MOL0     H21321   8.537   5.525   6.446  2.1608  1.0802 -1.3933
  155MOL0     H21322   8.743   5.517   6.291  0.0432  1.0303 -1.3076
  155MOL0     H21323   8.817   5.125   6.074 -1.4784  1.3499  0.4936
  155MOL0     H21324   8.857   5.122   6.239 -4.3274  0.6404  0.1036
  155MOL0     H21325   9.063   5.256   6.194  0.9081  2.8376 -1.9859
  155MOL0     H21326   9.053   5.089   6.154  1.6428  0.8475  1.3006
  155MOL0     H21327   9.020   5.155   5.907 -0.2601  1.7295 -0.2175
  155MOL0     H21328   8.993   5.321   5.944  0.0659  0.2832 -1.6838
  155MOL0     H21329   9.226   5.360   6.006  1.8703 -0.6265  1.3397
  155MOL0     H21330   9.265   5.195   5.983  1.8107  1.1953 -0.3774
  155MOL0     H21331   9.162   5.363   5.756  1.0109  0.2884 -0.8959
  155MOL0     H21332   9.189   5.186   5.770  1.9180 -1.6149  1.3045
  155MOL0     H21333   9.436   5.234   5.844 -0.8580 -0.1620  1.4728
  155MOL0     H21334   9.399   5.246   5.684  2.1060 -3.1575  1.9171
  155MOL0     H21335   9.351   5.517   5.766 -0.7097  0.3999  1.0091
  155MOL0     H21336   9.499   5.461   5.715 -2.9659  0.1409 -2.2973
  155MOL0     H21337   9.404   5.471   6.004  0.5576  1.3831  0.5031
  155MOL0     H21338   9.552   5.381   5.963  0.6923 -0.3561 -1.3426
  155MOL0     H21339   9.566   5.679   5.739 -2.7301  1.2920  0.0094
  155MOL0     H21340   9.829   5.928   5.891  2.1693 -1.2097 -1.5443
  155MOL0     H21341   9.704   5.977   5.784 -2.4537 -1.0926 -1.7019
  155MOL0     H21342   9.881   5.723   5.728 -0.3676 -1.0282 -1.8473
  155MOL0     H21343   9.750   5.794   5.621  0.4362  0.8546 -2.2020
  155MOL0     H21344   9.941   5.875   5.529  1.4359 -0.1215  0.6255
  155MOL0     H21345   9.867   6.000   5.632 -2.6402 -0.9734  2.3425
  155MOL0     H21346  10.056   5.933   5.797 -1.8382  0.0065  0.6360
  155MOL0     H21347  10.126   5.821   5.686  3.0782  1.1004  0.2094
  155MOL0     H21348  10.235   6.252   5.578 -0.2227  0.5586  1.9450
  155MOL0     H21349  10.439   6.464   5.718 -1.1164  0.4859 -0.3318
  155MOL0     H21350  10.402   6.417   5.552  0.5301  1.0382  0.2102
  155MOL0     H21351  10.556   6.392   5.599 -0.4032  0.0628 -0.5603
  155MOL0     H21352  10.874   6.390   5.571  0.5335 -4.2288 -1.7038
  155MOL0     H21353  11.112   6.459   5.599  4.2770 -1.8721  0.9806
  155MOL0     H21354  11.282   6.540   6.001 -1.2748 -2.3578  1.9513
  155MOL0     H21355  11.297   6.368   6.005  2.5225 -1.5442 -1.0883
  155MOL0     H21356  11.499   6.370   5.862  0.1693  1.2501 -2.3342
  155MOL0     H21357  11.503   6.542   5.851  1.5070 -1.3703 -1.4072
  155MOL0     H21358  11.564   6.377   6.105  2.4769 -0.6292 -1.1301
  155MOL0     H21359  11.539   6.548   6.114  6.3396  0.5657  1.3458
  155MOL0     H21360  11.701   6.602   5.962  1.0521  1.5697  1.0252
  155MOL0     H21361  11.744   6.422   5.943  1.0802 -0.9191  2.5503
  155MOL0     H21362  11.738   6.552   6.217  3.9039  3.3344 -0.1148
  155MOL0     H21363  11.804   6.397   6.169 -0.8048  0.6023  2.3985
  155MOL0     H21364  11.985   6.503   6.042 -1.7754  2.5927 -3.2452
  155MOL0     H21365  11.972   6.561   6.214  1.4476 -1.0205  0.6394
  155MOL0     H21366  11.865   6.770   6.131 -1.4149  0.2353 -2.8276
  155MOL0     H21367  11.878   6.709   5.971 -1.5050  2.8384  1.0571
  155MOL0     H21368  12.137   6.724   5.979  3.8340  1.2454  2.0879
  155MOL0     H21369  12.120   6.797   6.140 -0.5374 -2.0232  0.9391
  155MOL0     H21370  11.099   6.325   6.012 -1.3802 -1.9947  0.2721
  155MOL0     H21371  10.881   6.271   5.988  1.6074  0.5654 -0.3196
  155MOL0     H21372  10.526   5.967   5.852 -0.5498 -0.4981 -2.1916
  155MOL0     H21373  10.313   5.890   5.803 -1.8697  0.3763 -0.6678
  155MOL0     H21374   8.618   5.118   6.178 -3.9213 -0.5463 -0.8826
  155MOL0     H21375   8.403   5.154   6.289  0.5422 -1.2507  0.8371
  155MOL0     H21376   8.194   5.459   6.668  2.4831 -0.2957 -1.2127
  155MOL0     H21377   7.960   5.520   6.706  0.6174  2.6519 -2.6138
  155MOL0     H21378   7.720   5.457   6.790  1.2050 -0.9399 -1.6184
  155MOL0     H21379   7.760   5.581   6.671  0.2835 -0.0214  1.4764
  155MOL0     H21380   7.528   5.601   6.743  0.5383 -1.1266  0.5027
  155MOL0     H21381   7.486   5.434   6.699 -0.3639  0.0977 -0.3352
  155MOL0     H21382   7.610   5.588   6.477  0.4537  2.9384  1.6913
  155MOL0     H21383   7.471   5.475   6.479 -0.3983  0.9819 -2.2101
  155MOL0     H21384   7.391   5.710   6.443  1.7069  0.3054 -0.9035
  155MOL0     H21385   7.462   5.771   6.591 -0.4198 -0.7943  1.8852
  155MOL0     H21386   7.109   5.663   6.744 -2.0001  0.3249 -1.7915
  155MOL0     H21387   7.841   5.201   6.438 -1.2393  2.0439  0.3150
  155MOL0     H21388   8.115   5.023   6.458  1.5689 -1.0670 -3.4414
  155MOL0     H21389   7.975   5.061   6.351 -1.7602  3.1882 -0.2881
  155MOL0     H21390   8.134   5.108   6.306  2.5642 -3.7744  2.0066
  156MOL0     O21391   2.149   8.972   6.021  0.7124  0.1512  0.6649
  156MOL0     C21392   2.107   9.011   6.129  0.3272  0.4780  0.7505
  156MOL0     O21393   2.175   9.006   6.247 -0.0634 -0.0229  0.8069
  156MOL0     C21394   2.248   8.896   6.283 -0.6875 -0.7602  0.1333
  156MOL0     C21395   2.353   8.931   6.366 -0.5359  0.1389 -0.5248
  156MOL0     C21396   2.449   8.832   6.407 -0.2051 -0.0271 -0.5637
  156MOL0     C21397   2.441   8.700   6.362  0.2366  0.7337  0.3936
  156MOL0     O21398   2.531   8.603   6.411 -0.2138  0.0217 -0.6228
  156MOL0     C21399   2.550   8.476   6.350  0.2833 -0.5056 -0.3401
  156MOL0     C21400   2.584   8.351   6.440 -0.0856 -0.2966  0.3089
  156MOL0     C21401   2.702   8.384   6.536  0.6359  0.1226  0.0615
  156MOL0     C21402   2.830   8.319   6.477 -0.1966 -0.1612  0.0105
  156MOL0     C21403   2.956   8.373   6.547  0.3340 -0.7479  0.4962
  156MOL0     C21404   2.943   8.350   6.702  0.4298  0.4238  0.8361
  156MOL0     C21405   3.064   8.398   6.776  0.3213  0.1095 -0.2601
  156MOL0     C21406   3.035   8.397   6.927  0.7529 -0.2058 -0.1187
  156MOL0     N21407   3.141   8.454   7.013  0.2358  0.5278 -0.5067
  156MOL0     C21408   3.182   8.584   7.020  1.0455 -0.1773  0.1334
  156MOL0     C21409   3.265   8.584   7.122 -0.2440  0.6424 -0.3011
  156MOL0     C21410   3.357   8.692   7.165  0.0013 -0.4103 -0.3466
  156MOL0     C21411   3.500   8.679   7.114 -0.2273  0.5710 -0.1248
  156MOL0     C21412   3.594   8.795   7.153  0.4131  0.3970  0.0210
  156MOL0     C21413   3.604   8.837   7.295 -0.1764 -0.4846  0.1557
  156MOL0     O21414   3.632   8.723   7.377 -0.4562  0.1579 -0.3218
  156MOL0     C21415   3.664   8.740   7.509  0.1151 -1.4436 -0.5263
  156MOL0     C21416   3.704   8.864   7.577 -1.0722  0.3100 -0.2218
  156MOL0     C21417   3.733   8.880   7.708 -0.1388  0.3457 -0.8891
  156MOL0     C21418   3.782   9.006   7.767 -0.3172 -0.2678  0.8164
  156MOL0     C21419   3.742   8.760   7.792  0.1817  0.5005  0.9916
  156MOL0     C21420   3.805   8.749   7.927  0.8870 -0.1549 -0.7824
  156MOL0     O21421   3.746   8.831   8.019  0.4726 -0.8899 -0.1981
  156MOL0     C21422   3.800   8.829   8.149 -0.1610 -0.3524 -0.2444
  156MOL0     C21423   3.926   8.890   8.167  0.4042 -0.7011  0.0691
  156MOL0     C21424   3.996   8.878   8.291  0.0050  0.2113  0.0450
  156MOL0     C21425   3.929   8.810   8.391  0.2408  0.0918 -0.5934
  156MOL0     O21426   4.004   8.801   8.507  0.7446 -0.6116 -0.0012
  156MOL0     C21427   3.972   8.689   8.588  0.5003  0.5255 -0.4232
  156MOL0     C21428   4.020   8.702   8.731  0.5085  0.0426  0.7716
  156MOL0     C21429   3.986   8.841   8.792  0.4944 -0.4227 -0.1401
  156MOL0     C21430   3.835   8.885   8.761 -0.0194 -0.0861  0.0554
  156MOL0     C21431   3.784   8.986   8.869  0.0223 -1.0102 -0.1354
  156MOL0     C21432   3.633   9.021   8.852 -0.0448 -0.5744 -1.0283
  156MOL0     C21433   3.572   9.053   8.988 -0.6830 -0.6998  1.3038
  156MOL0     C21434   3.426   9.109   8.991  0.6838 -0.4802  0.2927
  156MOL0    Cl21435   3.437   9.285   8.947  0.4999 -0.1349  0.3810
  156MOL0     C21436   3.802   8.755   8.374  1.1350  0.4699  0.2751
  156MOL0     C21437   3.745   8.761   8.251  0.0021 -0.7100  0.4722
  156MOL0     O21438   3.903   8.672   7.950 -0.3887 -0.9722 -0.4007
  156MOL0     C21439   3.720   8.638   7.722  0.0837 -1.0854  0.7804
  156MOL0     C21440   3.682   8.629   7.594 -0.1369  0.1762  0.1805
  156MOL0     N21441   3.272   8.461   7.186  0.2747 -0.6289 -0.8598
  156MOL0     N21442   3.206   8.385   7.114 -0.4774  0.0714 -0.0447
  156MOL0     C21443   2.339   8.667   6.270  0.2230  0.3279  0.0012
  156MOL0     C21444   2.238   8.761   6.230 -0.1688 -0.6097 -0.7790
  156MOL0     C21445   1.967   9.073   6.137  0.6355  0.3529  0.7477
  156MOL0     C21446   1.919   9.123   6.268  0.6427 -0.3758  0.2838
  156MOL0     C21447   1.785   9.166   6.286  0.2979  0.7133 -0.5984
  156MOL0     C21448   1.690   9.180   6.183 -0.8260  0.7030  0.2808
  156MOL0     O21449   1.563   9.216   6.209 -0.0671 -0.4111 -0.3501
  156MOL0     C21450   1.499   9.145   6.316  0.5740 -0.1117  0.4032
  156MOL0     C21451   1.350   9.183   6.299  1.0161  0.6602  0.4179
  156MOL0     C21452   1.286   9.136   6.170 -0.0427 -0.6610  0.8033
  156MOL0     C21453   1.138   9.157   6.183  0.0149 -0.1364 -0.7153
  156MOL0     C21454   1.069   9.101   6.067 -0.5368  0.5939  0.5531
  156MOL0     C21455   0.996   9.046   5.983 -0.3805  0.2507 -0.3826
  156MOL0     C21456   1.738   9.140   6.056 -0.5155 -0.1353 -0.2505
  156MOL0     C21457   1.870   9.091   6.037 -0.5516  1.0651 -0.2739
  156MOL0     C21458   1.907   9.039   5.898  0.1302 -0.3017  0.0853
  156MOL0     H21459   2.357   9.033   6.402 -1.7320  0.1780 -0.4500
  156MOL0     H21460   2.533   8.844   6.475 -0.0103 -2.0178 -0.3980
  156MOL0     H21461   2.634   8.496   6.283 -0.0874  0.6923 -0.4698
  156MOL0     H21462   2.458   8.436   6.306  0.4181 -0.7438 -0.4084
  156MOL0     H21463   2.500   8.315   6.499  0.1396  0.7752  1.3194
  156MOL0     H21464   2.618   8.272   6.371 -3.2325 -2.4276  0.9954
  156MOL0     H21465   2.706   8.492   6.552  2.6224 -0.0425  0.9275
  156MOL0     H21466   2.689   8.329   6.630  3.4568  0.1043  0.5262
  156MOL0     H21467   2.817   8.211   6.467  0.6638 -0.1717 -1.2305
  156MOL0     H21468   2.833   8.353   6.373  2.8799 -1.4291 -0.3906
  156MOL0     H21469   2.973   8.477   6.518  0.4291 -1.4294 -2.1132
  156MOL0     H21470   3.043   8.320   6.507 -0.5629 -3.4786  1.8686
  156MOL0     H21471   2.857   8.397   6.750 -1.4325 -5.2724  4.1388
  156MOL0     H21472   2.943   8.243   6.727  2.0443  0.4126  0.8784
  156MOL0     H21473   3.088   8.498   6.740  1.4217 -0.8009 -2.1833
  156MOL0     H21474   3.152   8.334   6.764 -1.6636 -2.8706  0.1588
  156MOL0     H21475   2.953   8.469   6.926  0.9214  0.0279 -2.7167
  156MOL0     H21476   3.003   8.298   6.960  0.2041 -0.3439 -1.0387
  156MOL0     H21477   3.154   8.655   6.942 -1.0882 -0.2404  0.7828
  156MOL0     H21478   3.372   8.677   7.273 -0.8475 -0.2281 -0.2002
  156MOL0     H21479   3.320   8.791   7.139  2.0076 -0.1836 -2.7658
  156MOL0     H21480   3.547   8.591   7.158  0.2318  2.5880  3.9731
  156MOL0     H21481   3.495   8.661   7.007 -0.8146 -2.5126  0.3314
  156MOL0     H21482   3.696   8.758   7.138  0.2681  0.4593 -1.1860
  156MOL0     H21483   3.568   8.881   7.091  1.1758  0.2943 -0.4567
  156MOL0     H21484   3.674   8.920   7.304  0.9837 -1.0486 -2.5491
  156MOL0     H21485   3.512   8.880   7.335  0.7560  2.0650 -0.2842
  156MOL0     H21486   3.709   8.958   7.523  2.8655  2.4302  3.2095
  156MOL0     H21487   3.703   9.077   7.793 -2.3889 -1.8023 -0.8515
  156MOL0     H21488   3.834   9.058   7.686 -1.7859 -0.0174  0.0040
  156MOL0     H21489   3.838   8.990   7.860  2.1856  0.2326 -0.5248
  156MOL0     H21490   3.975   8.949   8.090  0.7219  0.9922  1.4923
  156MOL0     H21491   4.096   8.918   8.300 -0.1088  0.9352 -1.5842
  156MOL0     H21492   3.868   8.664   8.608  0.3414  1.5698  0.1253
  156MOL0     H21493   4.012   8.599   8.541 -1.8232 -0.1775 -1.1632
  156MOL0     H21494   3.970   8.622   8.785 -1.7414  0.0560 -1.1324
  156MOL0     H21495   4.129   8.701   8.722  0.4638  2.2467 -1.0050
  156MOL0     H21496   4.054   8.917   8.751 -2.3072  1.0763 -2.3662
  156MOL0     H21497   4.001   8.831   8.900 -0.3718 -0.0533  0.0181
  156MOL0     H21498   3.767   8.799   8.765 -0.4882  0.2204 -0.9503
  156MOL0     H21499   3.837   8.936   8.665  2.7400 -2.9454 -1.5867
  156MOL0     H21500   3.790   8.931   8.963  0.1101 -0.0258  0.4428
  156MOL0     H21501   3.841   9.078   8.886 -0.3774 -1.3056  3.6355
  156MOL0     H21502   3.573   8.935   8.820 -2.9717  1.2587 -0.8477
  156MOL0     H21503   3.619   9.105   8.783  3.4766  0.6603 -0.4281
  156MOL0     H21504   3.636   9.130   9.033  1.6583 -1.8827  0.2119
  156MOL0     H21505   3.575   8.961   9.048  2.5015 -1.6813 -0.1413
  156MOL0     H21506   3.391   9.089   9.093 -3.2847  0.1706 -0.7842
  156MOL0     H21507   3.361   9.057   8.920  0.5180  0.1295 -0.0077
  156MOL0     H21508   3.754   8.696   8.452 -0.1877  1.1417 -0.0072
  156MOL0     H21509   3.652   8.714   8.218 -0.3543  0.5582 -0.4480
  156MOL0     H21510   3.744   8.544   7.770  1.2834 -0.8152  0.7221
  156MOL0     H21511   3.671   8.530   7.551  4.3138  0.1874 -1.5150
  156MOL0     H21512   2.333   8.568   6.225  1.4102 -1.1893  2.9410
  156MOL0     H21513   2.167   8.730   6.155 -0.3084 -3.3681  0.3768
  156MOL0     H21514   1.973   9.117   6.362  0.6957 -3.3517  0.1794
  156MOL0     H21515   1.758   9.203   6.384  0.2340 -0.1385 -0.2872
  156MOL0     H21516   1.510   9.037   6.306 -0.1606 -0.3543  1.9249
  156MOL0     H21517   1.542   9.192   6.406 -0.9042  0.7247  0.6988
  156MOL0     H21518   1.335   9.290   6.312  0.4593  0.8405 -1.4508
  156MOL0     H21519   1.303   9.129   6.382  0.6310 -0.2140 -0.3545
  156MOL0     H21520   1.324   9.188   6.081 -4.4501  0.8208 -0.5173
  156MOL0     H21521   1.309   9.030   6.167 -0.1415 -0.6919  1.0664
  156MOL0     H21522   1.128   9.265   6.196 -1.2255 -0.5322  2.9429
  156MOL0     H21523   1.101   9.111   6.276 -0.9527 -3.9536 -2.7609
  156MOL0     H21524   0.917   8.993   5.934  0.1692 -2.3747  1.3569
  156MOL0     H21525   1.666   9.143   5.975  0.2717 -1.6660 -1.0535
  156MOL0     H21526   1.925   8.931   5.899 -0.8470 -0.4951  2.0126
  156MOL0     H21527   1.816   9.058   5.840 -0.7004 -1.2746  1.0205
  156MOL0     H21528   1.992   9.090   5.853 -1.0872  1.3071 -0.4908
  157MOL0     O21529   9.610   2.953   6.392 -0.5611  0.9741  0.3879
  157MOL0     C21530   9.520   2.936   6.470 -0.2016 -0.4275 -0.6334
  157MOL0     O21531   9.525   2.998   6.592  0.0110  0.0080 -0.4598
  157MOL0     C21532   9.600   3.110   6.617 -0.3108 -0.0650 -0.4959
  157MOL0     C21533   9.609   3.215   6.521 -0.4566  0.3006 -0.3155
  157MOL0     C21534   9.679   3.329   6.551 -0.0186  0.1623  0.3119
  157MOL0     C21535   9.732   3.350   6.676  0.6240  0.0215 -0.2166
  157MOL0     O21536   9.788   3.472   6.719 -0.2947  0.3665  0.0383
  157MOL0     C21537   9.805   3.580   6.624  0.0454  0.4825 -0.4323
  157MOL0     C21538   9.917   3.670   6.678  0.9561 -0.6759  0.3973
  157MOL0     C21539   9.913   3.813   6.610 -0.4021 -0.1670  0.3445
  157MOL0     C21540   9.791   3.887   6.648 -0.4025  0.4601 -0.2716
  157MOL0     C21541   9.781   4.031   6.595 -0.0586 -0.5579 -0.1168
  157MOL0     C21542   9.748   4.041   6.444  0.2357  1.0860 -0.0614
  157MOL0     C21543   9.721   4.185   6.403 -0.5222 -0.2271  0.7828
  157MOL0     C21544   9.664   4.198   6.255  1.1349 -0.5082 -0.2011
  157MOL0     N21545   9.647   4.336   6.211 -1.3080 -0.1524  0.1363
  157MOL0     C21546   9.745   4.421   6.174 -0.5282  0.0764 -0.3470
  157MOL0     C21547   9.704   4.548   6.212 -0.4552  0.6371  0.3637
  157MOL0     C21548   9.797   4.676   6.201  1.0782 -0.1256  0.4697
  157MOL0     C21549   9.873   4.695   6.063  0.2779  0.2357  0.0745
  157MOL0     C21550   9.945   4.830   6.055 -0.3314  0.1254  0.8111
  157MOL0     C21551  10.043   4.847   5.931 -0.1015  0.0438  0.2272
  157MOL0     O21552   9.987   4.847   5.803  0.0610 -0.2311  0.3166
  157MOL0     C21553  10.075   4.853   5.691  0.5910 -0.0958 -0.5795
  157MOL0     C21554  10.215   4.889   5.700 -0.1741 -0.3319 -0.1254
  157MOL0     C21555  10.301   4.896   5.590 -0.2133  0.2265 -0.6039
  157MOL0     C21556  10.437   4.941   5.622 -0.5686 -0.6104  1.2419
  157MOL0     C21557  10.254   4.856   5.465 -0.1442 -0.3089  0.8805
  157MOL0     C21558  10.338   4.844   5.345  0.2340 -0.1988  0.4621
  157MOL0     O21559  10.464   4.914   5.347 -0.1307  0.0764  0.0059
  157MOL0     C21560  10.566   4.903   5.251 -0.1144  0.9680 -0.2768
  157MOL0     C21561  10.689   4.940   5.300  0.4559  0.5947  0.6772
  157MOL0     C21562  10.794   4.923   5.219 -0.6062  0.3179  0.4759
  157MOL0     C21563  10.790   4.880   5.086  0.4797  0.1008 -0.0467
  157MOL0     O21564  10.899   4.882   5.001  1.0257  0.2378 -0.9975
  157MOL0     C21565  11.017   4.933   5.058 -0.0832 -0.3319 -0.1788
  157MOL0     C21566  11.111   4.942   4.944  0.1365 -0.6848  0.3779
  157MOL0     C21567  11.241   4.968   5.011 -0.0115  0.3536  0.6487
  157MOL0     C21568  11.347   4.996   4.901  1.1170 -0.1895 -1.1621
  157MOL0     C21569  11.328   5.128   4.833 -0.7187 -0.0648  0.1843
  157MOL0     C21570  11.446   5.162   4.735  0.5854 -0.0274  0.0055
  157MOL0     C21571  11.430   5.297   4.655 -0.1271  0.0925  0.5554
  157MOL0     C21572  11.318   5.281   4.556  0.0149  0.5951 -0.4642
  157MOL0    Cl21573  11.291   5.442   4.473 -0.2016  0.5275 -0.0611
  157MOL0     C21574  10.666   4.859   5.037  0.5438  0.1405 -0.0224
  157MOL0     C21575  10.549   4.854   5.119 -0.4438 -1.5449 -0.2475
  157MOL0     O21576  10.294   4.769   5.256 -0.6368 -0.0455  0.3307
  157MOL0     C21577  10.121   4.831   5.459  0.1109 -0.3517 -0.5622
  157MOL0     C21578  10.035   4.830   5.566  0.2345 -0.1149  0.1948
  157MOL0     N21579   9.576   4.534   6.256 -0.4865  0.1310  0.0549
  157MOL0     N21580   9.541   4.409   6.252 -0.5054  1.1837  0.2735
  157MOL0     C21581   9.722   3.247   6.773 -0.1160  0.3347 -0.0635
  157MOL0     C21582   9.663   3.127   6.743  0.6075 -0.6196 -0.3900
  157MOL0     C21583   9.397   2.857   6.445  0.0090 -0.3740  0.3454
  157MOL0     C21584   9.390   2.789   6.318  0.7526  0.0534  0.2621
  157MOL0     C21585   9.284   2.709   6.273 -0.4006  0.4615 -0.6222
  157MOL0     C21586   9.179   2.688   6.353 -0.2483 -0.3781  0.2595
  157MOL0     O21587   9.075   2.601   6.339 -0.1825  0.0692 -0.2285
  157MOL0     C21588   9.074   2.502   6.238 -0.4410 -0.4110  0.4192
  157MOL0     C21589   8.930   2.484   6.186 -0.3171  0.0802  0.2755
  157MOL0     C21590   8.941   2.353   6.104  0.1188  0.1591  0.1495
  157MOL0     C21591   8.824   2.344   6.014 -0.0912 -0.2853 -0.0844
  157MOL0     C21592   8.818   2.212   5.959  0.1511 -0.0027  0.4009
  157MOL0     C21593   8.802   2.103   5.900 -0.4833  0.1870  1.2608
  157MOL0     C21594   9.170   2.760   6.472  0.7325 -1.1528 -0.2156
  157MOL0     C21595   9.273   2.850   6.516  0.4385 -0.0207 -0.7694
  157MOL0     C21596   9.250   2.924   6.642 -0.2340  0.7049  0.5989
  157MOL0     H21597   9.561   3.208   6.424  0.8093  2.1502 -1.1253
  157MOL0     H21598   9.684   3.411   6.481 -3.2383  1.3580  1.3075
  157MOL0     H21599   9.711   3.636   6.622  0.5103  1.4937  2.2374
  157MOL0     H21600   9.835   3.541   6.526  1.7600  1.9515 -0.5393
  157MOL0     H21601   9.905   3.694   6.784  2.2746  1.1101  0.1887
  157MOL0     H21602  10.017   3.629   6.660  2.1612  1.6492  1.3008
  157MOL0     H21603  10.000   3.869   6.646  0.3499  0.0754 -1.7041
  157MOL0     H21604   9.917   3.795   6.502 -2.6488 -0.1186  0.2212
  157MOL0     H21605   9.699   3.837   6.616 -0.2407  1.3933 -2.3523
  157MOL0     H21606   9.787   3.893   6.757 -0.0535 -0.9472 -0.1653
  157MOL0     H21607   9.874   4.088   6.594  0.1995 -0.8873  1.7547
  157MOL0     H21608   9.705   4.081   6.656 -1.8102 -2.0497 -0.9635
  157MOL0     H21609   9.827   4.002   6.379 -3.6570 -2.2988 -3.3691
  157MOL0     H21610   9.658   3.982   6.426  0.5803  1.0141 -1.6908
  157MOL0     H21611   9.810   4.246   6.418  0.1797 -0.9353 -0.3097
  157MOL0     H21612   9.637   4.226   6.460 -0.0681 -0.0359  1.3168
  157MOL0     H21613   9.728   4.143   6.185  0.7107 -1.8455  0.4168
  157MOL0     H21614   9.561   4.163   6.264 -0.3118  3.4421  0.4494
  157MOL0     H21615   9.847   4.400   6.144  0.0613  2.4406 -0.1288
  157MOL0     H21616   9.861   4.672   6.290 -1.8553 -1.1099  2.7231
  157MOL0     H21617   9.735   4.764   6.220 -1.0867 -1.2271 -1.0840
  157MOL0     H21618   9.946   4.614   6.054 -0.5331 -0.4048 -0.8851
  157MOL0     H21619   9.808   4.690   5.975  0.4917 -0.3764 -0.0504
  157MOL0     H21620   9.868   4.908   6.050 -0.9657 -0.5660 -1.4098
  157MOL0     H21621  10.003   4.834   6.148  1.4884  0.5594 -0.2876
  157MOL0     H21622  10.090   4.946   5.934 -2.8775  1.4156  1.6749
  157MOL0     H21623  10.121   4.770   5.940  1.1978  0.9683 -2.1456
  157MOL0     H21624  10.249   4.920   5.798 -0.9082 -0.3473  0.1427
  157MOL0     H21625  10.512   4.870   5.587  0.0978  1.5733 -2.1848
  157MOL0     H21626  10.451   4.947   5.731 -0.5609 -0.0778  1.2112
  157MOL0     H21627  10.455   5.037   5.575 -4.5914  0.1242  0.8103
  157MOL0     H21628  10.703   4.990   5.396 -0.4086  2.0805  0.0612
  157MOL0     H21629  10.885   4.962   5.264  0.5507  0.9796 -2.2686
  157MOL0     H21630  11.002   5.030   5.107 -0.5645  0.6589 -2.1722
  157MOL0     H21631  11.057   4.865   5.133  1.7236 -0.3076 -1.0709
  157MOL0     H21632  11.109   4.847   4.889 -0.3965 -0.6988  0.4104
  157MOL0     H21633  11.083   5.021   4.873 -0.1500 -0.1871  1.0328
  157MOL0     H21634  11.265   4.883   5.076 -2.2453 -0.1236  0.9331
  157MOL0     H21635  11.235   5.057   5.075  2.1684  1.1448 -0.1449
  157MOL0     H21636  11.341   4.917   4.826  0.6147 -0.2283 -1.0811
  157MOL0     H21637  11.450   4.985   4.935  1.1567 -2.9808 -1.9285
  157MOL0     H21638  11.233   5.135   4.778 -1.1254 -0.1710  0.8620
  157MOL0     H21639  11.328   5.201   4.914  0.8285 -0.1803  0.3136
  157MOL0     H21640  11.449   5.081   4.661 -3.5454  1.9439 -2.6989
  157MOL0     H21641  11.543   5.155   4.786  0.0199 -1.9103  0.9212
  157MOL0     H21642  11.519   5.315   4.595  0.2704  0.9741  1.3874
  157MOL0     H21643  11.413   5.378   4.726 -1.4487  0.4274 -0.1065
  157MOL0     H21644  11.221   5.248   4.595  0.6646  0.2026  0.9008
  157MOL0     H21645  11.338   5.201   4.484  1.5864 -0.2790  0.8819
  157MOL0     H21646  10.656   4.834   4.932 -0.6350  2.2342 -0.4653
  157MOL0     H21647  10.455   4.844   5.066 -1.8903  3.8726  0.6469
  157MOL0     H21648  10.063   4.800   5.372 -0.3401  0.1819 -0.4545
  157MOL0     H21649   9.931   4.807   5.549  0.5938 -2.3032  0.6477
  157MOL0     H21650   9.753   3.278   6.872  1.3200  1.1310 -0.7368
  157MOL0     H21651   9.648   3.052   6.821  0.6256  0.2122  0.4316
  157MOL0     H21652   9.473   2.794   6.248  1.9080 -4.3331  0.9926
  157MOL0     H21653   9.294   2.655   6.180  1.3009  2.9186 -1.9764
  157MOL0     H21654   9.123   2.532   6.145 -2.2953 -1.9524 -1.1312
  157MOL0     H21655   9.120   2.410   6.274 -0.2489 -0.8494 -0.9007
  157MOL0     H21656   8.891   2.570   6.130  0.4549  1.5751  1.9078
  157MOL0     H21657   8.856   2.469   6.265 -0.0299 -2.8495  0.0909
  157MOL0     H21658   9.038   2.333   6.059  1.0939  2.0622  1.2561
  157MOL0     H21659   8.929   2.262   6.165 -0.2300 -0.1324 -0.3493
  157MOL0     H21660   8.831   2.410   5.927 -0.8225 -3.5750 -2.8486
  157MOL0     H21661   8.735   2.379   6.067  0.8053 -2.0731  2.8486
  157MOL0     H21662   8.796   2.009   5.849  2.2303  1.7703 -2.4636
  157MOL0     H21663   9.084   2.744   6.536  1.9977 -1.0287  1.6314
  157MOL0     H21664   9.220   3.028   6.627 -0.8889  0.7922  2.2877
  157MOL0     H21665   9.162   2.887   6.695 -0.6830  1.9860  0.7887
  157MOL0     H21666   9.331   2.917   6.714 -1.4969 -1.2158  1.9525
  158MOL0     O21667   9.530  10.193   5.325 -1.1530  0.2232  0.2611
  158MOL0     C21668   9.545  10.116   5.229 -0.3078 -0.8545 -0.1287
  158MOL0     O21669   9.662  10.059   5.197 -0.2818 -0.3023  0.5405
  158MOL0     C21670   9.780  10.085   5.263 -0.2403  0.4714 -0.2084
  158MOL0     C21671   9.846  10.205   5.241 -0.0020  0.0726 -0.0567
  158MOL0     C21672   9.956  10.241   5.321  0.4569  0.0071 -0.0142
  158MOL0     C21673  10.002  10.154   5.419  0.2312 -0.3563  0.1551
  158MOL0     O21674  10.111  10.195   5.501 -0.2188  0.0801 -1.0126
  158MOL0     C21675  10.224  10.240   5.420  0.7541  0.2774 -0.6113
  158MOL0     C21676  10.345  10.247   5.501  0.1268  0.0479 -0.3426
  158MOL0     C21677  10.398  10.109   5.550 -0.3258 -0.3147  0.3258
  158MOL0     C21678  10.539  10.080   5.504 -0.1999  0.7186 -0.3918
  158MOL0     C21679  10.651  10.147   5.585 -0.3531  0.2711 -0.0907
  158MOL0     C21680  10.792  10.126   5.541  0.2087 -0.1988 -0.6211
  158MOL0     C21681  10.887  10.164   5.648 -0.1978  0.0038 -0.8506
  158MOL0     C21682  11.030  10.120   5.616  0.9604  0.1640  0.3988
  158MOL0     N21683  11.082  10.166   5.489 -0.5383  0.3389 -1.3579
  158MOL0     C21684  11.125  10.084   5.389 -0.8782 -0.6674  0.2019
  158MOL0     C21685  11.172  10.177   5.297 -0.5642 -0.1227 -0.8236
  158MOL0     C21686  11.221  10.137   5.159  0.2294  0.4488 -0.4728
  158MOL0     C21687  11.375  10.132   5.146  0.6892  0.8465  0.4718
  158MOL0     C21688  11.437  10.271   5.174  0.7007  0.4262  0.9170
  158MOL0     C21689  11.588  10.261   5.141 -0.2272 -0.0685  0.3161
  158MOL0     O21690  11.659  10.216   5.253 -0.7577 -0.2316 -0.2335
  158MOL0     C21691  11.797  10.203   5.245  0.2096  0.0297  0.2564
  158MOL0     C21692  11.853  10.168   5.374 -0.0929  1.0738 -0.8387
  158MOL0     C21693  11.995  10.142   5.380 -0.0046 -0.3491  0.1960
  158MOL0     C21694  12.041  10.101   5.517 -0.4056 -0.1450  0.2775
  158MOL0     C21695  12.073  10.154   5.261  1.1290  0.3035 -0.4851
  158MOL0     C21696  12.215  10.136   5.262  0.3300  0.5276 -0.7302
  158MOL0     O21697  12.287  10.179   5.148 -0.0557 -0.3855  0.6669
  158MOL0     C21698  12.416  10.140   5.133  0.3437  0.7394 -0.0763
  158MOL0     C21699  12.513  10.200   5.219 -0.5565 -1.0770  0.0642
  158MOL0     C21700  12.643  10.157   5.204 -0.2643 -0.8321  0.7990
  158MOL0     C21701  12.686  10.076   5.091  0.0525  0.1723 -0.1245
  158MOL0     O21702  12.819  10.058   5.073  0.1182 -0.9861  0.1384
  158MOL0     C21703  12.884   9.949   5.144 -0.2240  0.3780 -0.1908
  158MOL0     C21704  13.030   9.975   5.139 -0.3439  0.3412  0.8770
  158MOL0     C21705  13.111   9.854   5.187 -0.0661  0.5608 -0.3351
  158MOL0     C21706  13.255   9.872   5.202  0.4063 -1.4514  0.6833
  158MOL0     C21707  13.338   9.753   5.158  0.1981  0.3113 -0.0036
  158MOL0     C21708  13.348   9.651   5.273 -0.3378  0.5559 -0.0275
  158MOL0     C21709  13.477   9.678   5.356 -0.4706 -0.6695 -0.1678
  158MOL0     C21710  13.506   9.572   5.459 -0.1680 -0.6947  0.3805
  158MOL0    Cl21711  13.378   9.560   5.581 -0.2669  0.5654  0.1611
  158MOL0     C21712  12.592  10.033   5.002 -0.1822  0.1805  0.1798
  158MOL0     C21713  12.457  10.059   5.029  0.4430 -0.3094  0.2471
  158MOL0     O21714  12.266  10.078   5.361  0.2590 -0.2193 -0.2765
  158MOL0     C21715  12.015  10.189   5.140  0.5823  0.2405  0.0015
  158MOL0     C21716  11.878  10.218   5.130 -0.0552  0.7135 -0.2264
  158MOL0     N21717  11.152  10.307   5.343 -0.5018 -0.0061  0.5836
  158MOL0     N21718  11.098  10.305   5.462  0.0953  0.2259 -1.2190
  158MOL0     C21719   9.929  10.034   5.445 -0.2602 -0.5353  0.9332
  158MOL0     C21720   9.832   9.992   5.357 -0.4034  0.1182  0.7574
  158MOL0     C21721   9.431  10.085   5.147  0.6008 -0.1123  0.3087
  158MOL0     C21722   9.459  10.017   5.021 -0.1139  0.3550 -0.1761
  158MOL0     C21723   9.359   9.970   4.937  0.2882 -0.1888  0.5384
  158MOL0     C21724   9.221   9.976   4.973 -0.4591 -0.9302  0.3262
  158MOL0     O21725   9.134   9.926   4.883  0.3054 -0.2467  0.5881
  158MOL0     C21726   9.022   9.861   4.945  1.0105 -1.9015  0.4720
  158MOL0     C21727   8.960   9.765   4.843  0.0907  0.0100  0.0209
  158MOL0     C21728   9.039   9.637   4.833  0.4451  0.4642 -0.3701
  158MOL0     C21729   8.965   9.524   4.768  1.3852  0.3217 -0.4147
  158MOL0     C21730   8.908   9.555   4.639  0.0408 -0.6744 -0.2920
  158MOL0     C21731   8.847   9.595   4.546 -0.4268 -0.2255 -0.2479
  158MOL0     C21732   9.198  10.032   5.098 -0.2897 -0.1084  0.1276
  158MOL0     C21733   9.299  10.082   5.192  1.1950 -1.0938  0.1480
  158MOL0     C21734   9.251  10.152   5.314  1.0677 -0.2598 -0.0068
  158MOL0     H21735   9.806  10.278   5.171  3.2062  1.6478 -0.4338
  158MOL0     H21736  10.000  10.339   5.309 -1.2117  0.7654 -0.1699
  158MOL0     H21737  10.206  10.345   5.394  0.1573 -0.4261 -3.3470
  158MOL0     H21738  10.234  10.182   5.328  2.2546  1.3286 -1.1446
  158MOL0     H21739  10.421  10.303   5.446  1.5821 -0.9501  0.5801
  158MOL0     H21740  10.323  10.306   5.590 -0.5844  0.8677 -1.0317
  158MOL0     H21741  10.398  10.101   5.659  2.4228 -3.3374  0.2544
  158MOL0     H21742  10.332  10.032   5.508 -1.8748 -0.2542  2.4790
  158MOL0     H21743  10.562   9.973   5.511  0.2989  0.7997 -0.6917
  158MOL0     H21744  10.534  10.104   5.397  0.9774  1.1277 -0.3719
  158MOL0     H21745  10.646  10.107   5.686 -1.5653  1.2110  0.2522
  158MOL0     H21746  10.631  10.254   5.598  0.5489  0.0254  5.7341
  158MOL0     H21747  10.794  10.021   5.511 -0.9853 -0.7347  1.0577
  158MOL0     H21748  10.813  10.181   5.449  0.9243  0.2586 -0.1943
  158MOL0     H21749  10.859  10.121   5.745  1.9225 -0.1425 -0.2594
  158MOL0     H21750  10.878  10.273   5.658  0.7748  0.0377 -0.1259
  158MOL0     H21751  11.096  10.144   5.700  1.8060 -0.5736 -0.0430
  158MOL0     H21752  11.029  10.011   5.614  3.5268  0.0806  0.8167
  158MOL0     H21753  11.140   9.976   5.389  0.5726 -0.4797 -0.0007
  158MOL0     H21754  11.176  10.191   5.076 -0.9967 -0.9692 -0.7763
  158MOL0     H21755  11.172  10.041   5.142 -0.5142  0.9168 -1.0457
  158MOL0     H21756  11.413  10.063   5.222  1.3700  0.7429  0.0459
  158MOL0     H21757  11.399  10.096   5.046 -2.8261 -0.6359  0.0110
  158MOL0     H21758  11.387  10.348   5.115  2.3683  0.5846 -0.3530
  158MOL0     H21759  11.429  10.302   5.279  0.0866 -0.3595  1.1205
  158MOL0     H21760  11.610  10.196   5.057  1.7192 -0.7950  1.3263
  158MOL0     H21761  11.632  10.357   5.113  2.2454 -1.1257  0.3271
  158MOL0     H21762  11.799  10.161   5.468  2.6936  0.4565  0.8350
  158MOL0     H21763  12.120  10.163   5.561 -2.4584  1.5125  1.8220
  158MOL0     H21764  12.082  10.000   5.502  0.7465  0.2940  0.3872
  158MOL0     H21765  11.957  10.097   5.587 -1.4836 -1.1698 -1.0063
  158MOL0     H21766  12.488  10.280   5.287  0.3516 -1.0998  0.4426
  158MOL0     H21767  12.720  10.195   5.270 -1.3180  0.0941  1.5274
  158MOL0     H21768  12.851   9.947   5.248 -1.2002  4.2704 -0.2696
  158MOL0     H21769  12.857   9.860   5.086 -3.1553  1.2755 -0.3307
  158MOL0     H21770  13.058  10.004   5.037 -1.9716 -0.0801  0.2700
  158MOL0     H21771  13.062  10.055   5.207  1.0537 -0.3367  1.0504
  158MOL0     H21772  13.085   9.762   5.134  0.3677 -0.9092  1.8825
  158MOL0     H21773  13.073   9.835   5.288 -1.1805  0.1713 -0.8039
  158MOL0     H21774  13.271   9.893   5.308 -0.1295 -0.9153  0.6684
  158MOL0     H21775  13.291   9.953   5.138  0.3129  0.2667  2.6917
  158MOL0     H21776  13.298   9.696   5.073 -0.9906  0.6476  0.3137
  158MOL0     H21777  13.442   9.774   5.131  0.6065 -0.4168  0.9413
  158MOL0     H21778  13.360   9.551   5.230  0.1072  1.5128 -2.2543
  158MOL0     H21779  13.257   9.648   5.334  0.5004 -0.5045  1.2215
  158MOL0     H21780  13.484   9.775   5.406  1.7183 -1.6772  1.6113
  158MOL0     H21781  13.565   9.677   5.291  0.7357 -0.4525  1.4246
  158MOL0     H21782  13.603   9.592   5.504  0.2716 -0.5109 -0.6331
  158MOL0     H21783  13.514   9.475   5.409  2.4055 -0.8323  0.9221
  158MOL0     H21784  12.626   9.968   4.922 -1.3378  0.1246 -0.2775
  158MOL0     H21785  12.385  10.003   4.970  0.0917 -1.7917  1.9696
  158MOL0     H21786  12.071  10.200   5.048  0.3841 -1.3048 -0.3183
  158MOL0     H21787  11.845  10.223   5.027  0.4934 -0.7447 -0.5023
  158MOL0     H21788   9.965   9.959   5.514 -0.5375 -2.5256 -0.9896
  158MOL0     H21789   9.802   9.888   5.366 -2.8039  0.6388 -0.3589
  158MOL0     H21790   9.558  10.014   4.976  0.1869 -1.0827  0.5168
  158MOL0     H21791   9.397   9.918   4.850 -0.3701 -2.1374  1.3484
  158MOL0     H21792   9.056   9.802   5.030  0.8701 -1.1074  1.0920
  158MOL0     H21793   8.948   9.933   4.981  0.9419 -1.8500  0.2249
  158MOL0     H21794   8.965   9.810   4.743  1.1564 -0.6409 -0.2319
  158MOL0     H21795   8.854   9.743   4.858  0.1657 -1.8926 -1.6964
  158MOL0     H21796   9.132   9.653   4.779  1.2950  0.8942  1.1673
  158MOL0     H21797   9.068   9.598   4.932  0.1941  0.2122 -0.3934
  158MOL0     H21798   8.887   9.507   4.843  0.5596  0.4588 -1.2329
  158MOL0     H21799   9.031   9.438   4.755  1.8723  0.7223 -0.6543
  158MOL0     H21800   8.781   9.618   4.465 -1.2953 -1.5269  0.0583
  158MOL0     H21801   9.091  10.032   5.120  0.0672 -1.8758  2.2280
  158MOL0     H21802   9.142  10.145   5.323  1.2690 -3.0176  1.2179
  158MOL0     H21803   9.289  10.111   5.408  2.1422 -0.1591 -0.3840
  158MOL0     H21804   9.283  10.256   5.305 -0.7116  0.9111  4.3796
  159MOL0     O21805   6.435   1.113   8.563  0.7754  1.0167  0.3147
  159MOL0     C21806   6.376   1.144   8.667  1.0439 -0.1705  0.2482
  159MOL0     O21807   6.433   1.181   8.788 -0.2959  0.1410 -0.1191
  159MOL0     C21808   6.565   1.158   8.799  0.0966 -0.2707  0.1977
  159MOL0     C21809   6.651   1.251   8.852 -0.7635  0.3017 -0.5522
  159MOL0     C21810   6.780   1.227   8.881  0.0767  0.7088 -1.1250
  159MOL0     C21811   6.843   1.103   8.853  0.6515  1.0524 -0.2645
  159MOL0     O21812   6.974   1.086   8.889 -0.0676  0.2998 -0.0907
  159MOL0     C21813   7.065   1.008   8.809 -0.5864  0.4789  0.3282
  159MOL0     C21814   7.212   1.052   8.816 -0.6053  0.5129  0.9389
  159MOL0     C21815   7.275   1.054   8.960 -0.0295 -0.3238  0.7381
  159MOL0     C21816   7.409   1.129   8.965  0.2425 -0.6903 -0.6439
  159MOL0     C21817   7.487   1.117   8.840 -0.4688  0.1178 -0.4444
  159MOL0     C21818   7.617   1.191   8.832  0.8710  0.3563  0.6855
  159MOL0     C21819   7.597   1.341   8.800 -0.0558  0.3159  0.5739
  159MOL0     C21820   7.734   1.418   8.821  0.2897  0.1349 -0.0797
  159MOL0     N21821   7.739   1.479   8.963  0.7515 -0.0070 -0.3636
  159MOL0     C21822   7.788   1.416   9.076  0.1435  0.7337  0.6837
  159MOL0     C21823   7.799   1.522   9.165  0.6500  0.5769  0.7303
  159MOL0     C21824   7.849   1.502   9.306 -0.1608 -0.4594 -0.7235
  159MOL0     C21825   8.004   1.493   9.322  0.3741  0.7957  0.4379
  159MOL0     C21826   8.047   1.474   9.473 -0.4215 -0.6839 -0.8461
  159MOL0     C21827   8.195   1.436   9.486 -0.7700  0.0611 -0.5685
  159MOL0     O21828   8.288   1.545   9.456 -0.0118 -0.3248  0.1942
  159MOL0     C21829   8.420   1.524   9.485  0.0884 -0.1390 -0.1324
  159MOL0     C21830   8.475   1.411   9.543 -0.0920 -0.1360 -0.3421
  159MOL0     C21831   8.619   1.390   9.544 -0.4535  0.9213  0.1297
  159MOL0     C21832   8.663   1.253   9.587 -0.0532  0.3394 -0.3693
  159MOL0     C21833   8.708   1.494   9.495  0.2254  0.3288  0.3211
  159MOL0     C21834   8.858   1.484   9.493  0.4411  0.3289 -0.1711
  159MOL0     O21835   8.922   1.580   9.423 -0.0213  0.1424  0.9717
  159MOL0     C21836   9.063   1.587   9.400 -0.2523  0.2571 -1.1973
  159MOL0     C21837   9.158   1.531   9.489 -0.4602  0.8066  0.0524
  159MOL0     C21838   9.296   1.531   9.458 -0.3946 -0.7678  0.1026
  159MOL0     C21839   9.341   1.604   9.344  0.1247 -0.2781 -0.4269
  159MOL0     O21840   9.468   1.594   9.302  0.3788 -0.3020 -0.5507
  159MOL0     C21841   9.552   1.488   9.344 -0.4095  0.4165  0.5725
  159MOL0     C21842   9.619   1.519   9.472 -0.7246 -0.2363  0.3038
  159MOL0     C21843   9.773   1.491   9.473 -0.0526  0.1423  0.0855
  159MOL0     C21844   9.833   1.569   9.590 -0.5698 -0.2329  0.1373
  159MOL0     C21845   9.988   1.561   9.573  0.6925  0.0111 -1.5186
  159MOL0     C21846  10.071   1.650   9.667 -0.1601  0.0990  0.2753
  159MOL0     C21847  10.063   1.615   9.816 -0.3681 -0.6872 -0.0207
  159MOL0     C21848  10.147   1.695   9.902 -0.3419 -0.0878  0.2476
  159MOL0    Cl21849  10.149   1.633  10.064 -0.0032  0.0450  0.3660
  159MOL0     C21850   9.255   1.687   9.276  0.0893  0.2117 -0.1097
  159MOL0     C21851   9.113   1.678   9.306 -0.4877 -0.6495  0.8352
  159MOL0     O21852   8.907   1.392   9.560  0.3080 -0.7565 -0.6969
  159MOL0     C21853   8.645   1.609   9.445 -0.8303  0.6337 -0.0031
  159MOL0     C21854   8.502   1.623   9.434 -0.7357 -0.3990  0.2310
  159MOL0     N21855   7.760   1.635   9.109  0.3356  0.1453  0.7399
  159MOL0     N21856   7.728   1.604   8.985 -0.2081 -0.0249  0.2993
  159MOL0     C21857   6.761   1.006   8.793  0.1985 -0.4144 -0.5370
  159MOL0     C21858   6.621   1.031   8.781 -0.6712  0.0005  1.5534
  159MOL0     C21859   6.230   1.157   8.652 -0.4323  0.3714  0.1546
  159MOL0     C21860   6.167   1.212   8.527  0.0837  0.8509  0.0230
  159MOL0     C21861   6.031   1.214   8.517 -0.1064 -0.3526  0.9539
  159MOL0     C21862   5.947   1.165   8.617  0.9395 -0.2749  0.5924
  159MOL0     O21863   5.807   1.164   8.607 -0.5421 -0.6445 -0.6415
  159MOL0     C21864   5.740   1.179   8.481  0.6247 -0.4442 -0.5909
  159MOL0     C21865   5.603   1.118   8.500 -0.1258  0.1909 -1.2577
  159MOL0     C21866   5.521   1.130   8.370 -0.8221 -0.6020  0.2711
  159MOL0     C21867   5.397   1.047   8.375 -0.7724  0.3816  0.3418
  159MOL0     C21868   5.304   1.103   8.469  0.4915  0.9958 -0.3404
  159MOL0     C21869   5.226   1.149   8.541  0.2793  0.0134  0.5885
  159MOL0     C21870   6.001   1.125   8.735  0.1700 -0.2551  0.0491
  159MOL0     C21871   6.143   1.124   8.760  0.3957 -0.5649  0.3379
  159MOL0     C21872   6.189   1.053   8.889 -0.1686  0.1952  0.1946
  159MOL0     H21873   6.603   1.346   8.875 -0.6593  0.9966 -2.9348
  159MOL0     H21874   6.836   1.311   8.921 -1.4779  0.1456  2.7618
  159MOL0     H21875   7.029   1.000   8.706 -0.5289  0.4008  0.3149
  159MOL0     H21876   7.070   0.905   8.847 -1.7367  1.0755  2.2613
  159MOL0     H21877   7.269   0.982   8.754  2.6423  1.2077  2.8616
  159MOL0     H21878   7.224   1.154   8.778  3.0139 -0.1611 -0.0950
  159MOL0     H21879   7.206   1.114   9.019 -1.0939  0.3956 -1.1582
  159MOL0     H21880   7.291   0.953   8.997  0.3548 -0.6198 -0.1994
  159MOL0     H21881   7.390   1.237   8.969 -2.6370 -1.1517  2.9819
  159MOL0     H21882   7.460   1.106   9.058 -3.3755  2.0626  2.3131
  159MOL0     H21883   7.433   1.147   8.750  1.5150  0.0129 -1.7343
  159MOL0     H21884   7.517   1.012   8.829 -0.9377 -0.2102  1.1803
  159MOL0     H21885   7.683   1.180   8.919  0.2480  1.5524  1.3290
  159MOL0     H21886   7.678   1.153   8.749  0.0912  0.7962 -0.1058
  159MOL0     H21887   7.525   1.380   8.873  0.5247 -0.9616  1.8665
  159MOL0     H21888   7.547   1.365   8.706 -4.3932  1.2790  2.8301
  159MOL0     H21889   7.822   1.357   8.796  1.4115  0.6801  2.2615
  159MOL0     H21890   7.748   1.499   8.749  0.8434 -0.3942 -0.5879
  159MOL0     H21891   7.820   1.312   9.085 -0.9743  0.2436 -0.5793
  159MOL0     H21892   7.805   1.417   9.358  1.2332  0.9130  3.0808
  159MOL0     H21893   7.826   1.599   9.353  2.9022  0.8771 -1.7379
  159MOL0     H21894   8.031   1.413   9.254 -0.9867 -0.0951  0.9017
  159MOL0     H21895   8.041   1.588   9.282  1.2569  0.3774  0.2524
  159MOL0     H21896   8.024   1.559   9.538  0.9164 -1.9726  1.4640
  159MOL0     H21897   7.989   1.388   9.509 -2.2521  1.3543  1.4172
  159MOL0     H21898   8.208   1.409   9.591 -0.6620  3.3251  0.3629
  159MOL0     H21899   8.212   1.353   9.417 -0.3259  1.0333 -1.6610
  159MOL0     H21900   8.421   1.328   9.588  1.6981 -2.2468 -1.8056
  159MOL0     H21901   8.714   1.196   9.509  0.2390  0.6650 -0.4191
  159MOL0     H21902   8.576   1.198   9.625  0.1155 -0.3236 -0.9174
  159MOL0     H21903   8.723   1.261   9.678 -0.1436 -0.7330 -0.1990
  159MOL0     H21904   9.127   1.475   9.577 -0.5625 -0.4605 -0.7543
  159MOL0     H21905   9.356   1.475   9.529 -1.4240  0.5641  2.1029
  159MOL0     H21906   9.500   1.392   9.353 -0.2182  0.3410  0.8968
  159MOL0     H21907   9.622   1.466   9.262 -1.5533 -1.8063  0.1151
  159MOL0     H21908   9.608   1.626   9.489 -2.2406 -0.5839  1.7709
  159MOL0     H21909   9.574   1.466   9.557  1.9070 -0.9408  1.3652
  159MOL0     H21910   9.808   1.528   9.377 -2.6309  1.5422 -0.3985
  159MOL0     H21911   9.801   1.385   9.477 -0.1949 -0.2229 -4.3453
  159MOL0     H21912   9.804   1.521   9.684 -0.7274 -3.2797 -1.3503
  159MOL0     H21913   9.808   1.675   9.601  0.7727 -0.0136  1.5380
  159MOL0     H21914  10.021   1.458   9.591 -0.5430 -0.0425  0.8047
  159MOL0     H21915  10.013   1.586   9.469  1.7578 -0.7030 -1.4479
  159MOL0     H21916  10.045   1.756   9.659 -2.3393 -0.3032  1.2450
  159MOL0     H21917  10.176   1.646   9.636 -0.3291 -1.8219 -0.2317
  159MOL0     H21918  10.097   1.512   9.826 -0.6416 -0.6478  1.5127
  159MOL0     H21919   9.959   1.629   9.848 -0.4959  0.3700 -0.8443
  159MOL0     H21920  10.118   1.801   9.901  1.7618  0.5444  0.8732
  159MOL0     H21921  10.247   1.691   9.858 -1.4685  0.3432 -2.5875
  159MOL0     H21922   9.290   1.753   9.197 -0.4698 -0.5564 -1.0280
  159MOL0     H21923   9.045   1.748   9.258 -0.2649  1.1298  2.9641
  159MOL0     H21924   8.701   1.693   9.404  0.6686 -0.0517  0.5410
  159MOL0     H21925   8.459   1.717   9.401  0.9284  0.7476  1.1904
  159MOL0     H21926   6.809   0.910   8.772 -0.6484 -0.9348 -0.1505
  159MOL0     H21927   6.552   0.955   8.748 -2.9708  1.7630  2.0130
  159MOL0     H21928   6.232   1.241   8.444  2.6534 -1.8469  0.9192
  159MOL0     H21929   5.991   1.262   8.428  0.8787 -1.2533 -0.0006
  159MOL0     H21930   5.732   1.283   8.450  0.0643 -0.0142  0.9309
  159MOL0     H21931   5.794   1.132   8.398 -1.4409 -2.9241 -0.6580
  159MOL0     H21932   5.550   1.170   8.580  0.0747  0.1185 -1.0782
  159MOL0     H21933   5.615   1.015   8.535  0.0841  0.7778  0.4312
  159MOL0     H21934   5.493   1.234   8.348  2.2428  1.0755  3.3434
  159MOL0     H21935   5.573   1.089   8.283 -2.6072  0.6421 -1.4896
  159MOL0     H21936   5.431   0.949   8.410  1.2340  0.5167 -1.0168
  159MOL0     H21937   5.332   1.053   8.288 -0.7607  3.2259  0.4280
  159MOL0     H21938   5.161   1.197   8.611  1.3056  1.8558  0.3625
  159MOL0     H21939   5.933   1.090   8.812 -1.9510 -0.5026 -1.8551
  159MOL0     H21940   6.258   1.114   8.948  1.5495 -1.5807  0.1268
  159MOL0     H21941   6.090   1.046   8.934 -1.4185  2.4857 -1.9931
  159MOL0     H21942   6.230   0.954   8.865  0.0130  0.5127 -0.8354
  160MOL0     O21943  11.100   6.951   7.465 -0.4423  0.0742  0.4582
  160MOL0     C21944  11.011   6.994   7.537  0.2949 -0.1198  0.1115
  160MOL0     O21945  10.947   7.107   7.517  0.0755 -0.1172  0.2642
  160MOL0     C21946  10.969   7.191   7.406 -0.4162 -0.2105  0.2690
  160MOL0     C21947  11.100   7.211   7.347  0.3878 -0.1529 -0.2916
  160MOL0     C21948  11.124   7.318   7.256  0.1270  0.4690 -0.3062
  160MOL0     C21949  11.020   7.410   7.221  0.9630  0.5807  0.2419
  160MOL0     O21950  11.040   7.506   7.126 -0.0989 -0.7510  0.0503
  160MOL0     C21951  11.158   7.515   7.052  0.1784 -0.1599  1.1695
  160MOL0     C21952  11.171   7.663   6.995 -0.1825  0.1140 -0.1201
  160MOL0     C21953  11.307   7.687   6.935 -0.2096  0.4113 -0.0321
  160MOL0     C21954  11.299   7.785   6.818  0.9008 -1.4091  0.7363
  160MOL0     C21955  11.409   7.782   6.716 -0.0562  1.0929 -0.1870
  160MOL0     C21956  11.551   7.777   6.775  0.0425  0.2806  0.4739
  160MOL0     C21957  11.577   7.904   6.854 -0.2723  0.3610  0.6887
  160MOL0     C21958  11.572   8.035   6.778  0.2936  0.1520 -0.4242
  160MOL0     N21959  11.673   8.028   6.670 -1.1345  0.5102  0.3593
  160MOL0     C21960  11.808   8.027   6.692  0.2498  0.6556  0.3246
  160MOL0     C21961  11.859   8.016   6.565  0.3676 -0.1186 -0.2734
  160MOL0     C21962  12.002   8.021   6.532 -0.7379  0.4504  0.3137
  160MOL0     C21963  12.043   8.061   6.389  0.1311  0.0885 -0.0935
  160MOL0     C21964  12.040   7.956   6.286 -0.0149 -0.3243  0.7738
  160MOL0     C21965  12.132   7.835   6.310  0.0428 -0.6665  0.4854
  160MOL0     O21966  12.264   7.873   6.308 -0.4222 -0.0346  0.2949
  160MOL0     C21967  12.366   7.788   6.279  0.0693 -0.6221 -0.3412
  160MOL0     C21968  12.498   7.837   6.276 -0.1902 -0.8119  0.8755
  160MOL0     C21969  12.612   7.760   6.248 -0.8461 -0.1991  0.0655
  160MOL0     C21970  12.752   7.827   6.230 -0.0195 -0.7759 -0.0873
  160MOL0     C21971  12.594   7.622   6.217  0.2929 -0.2109  0.7318
  160MOL0     C21972  12.706   7.537   6.158 -0.3640  0.8471 -0.5361
  160MOL0     O21973  12.835   7.572   6.188  0.0630 -0.5433 -0.0386
  160MOL0     C21974  12.944   7.512   6.129  0.2622 -0.0589  0.4560
  160MOL0     C21975  13.045   7.574   6.057  0.3050  0.5524  0.6016
  160MOL0     C21976  13.149   7.508   5.990  0.1774 -0.3011  1.0288
  160MOL0     C21977  13.162   7.371   6.008 -0.6292  0.3461 -0.7919
  160MOL0     O21978  13.254   7.281   5.955  0.3672 -0.1536 -0.0196
  160MOL0     C21979  13.371   7.327   5.876  0.5700  0.1182 -0.0623
  160MOL0     C21980  13.438   7.218   5.806 -0.2097 -0.2260  0.6069
  160MOL0     C21981  13.354   7.127   5.719 -0.3204  0.4246 -0.5763
  160MOL0     C21982  13.438   7.053   5.613 -0.2092 -1.2748  0.2596
  160MOL0     C21983  13.408   6.917   5.552 -0.0786  0.4049  0.1884
  160MOL0     C21984  13.258   6.905   5.504  1.1523 -0.1425 -0.6047
  160MOL0     C21985  13.229   6.972   5.372 -0.7450 -0.8493 -0.0751
  160MOL0     C21986  13.084   6.975   5.322  0.4968 -0.1257  0.2515
  160MOL0    Cl21987  13.047   6.814   5.256  0.0356  0.1507 -0.3754
  160MOL0     C21988  13.064   7.304   6.079  0.6683 -0.1801  0.2955
  160MOL0     C21989  12.955   7.377   6.141 -0.4339 -0.3060 -0.5749
  160MOL0     O21990  12.669   7.432   6.101  0.3697  0.0082 -0.0260
  160MOL0     C21991  12.462   7.573   6.227 -0.1976  0.0340 -0.3354
  160MOL0     C21992  12.355   7.651   6.260  0.3608  0.2921 -0.3695
  160MOL0     N21993  11.756   8.008   6.472 -0.3787 -0.1200  0.3215
  160MOL0     N21994  11.642   8.013   6.535 -0.6076  0.0436 -0.3750
  160MOL0     C21995  10.899   7.400   7.286 -0.4502  0.1882  0.2861
  160MOL0     C21996  10.874   7.292   7.375  0.3895  0.2935  0.8112
  160MOL0     C21997  10.967   6.920   7.654  1.0705  0.0927 -0.1188
  160MOL0     C21998  11.036   6.805   7.683  0.0073 -0.1288 -0.4491
  160MOL0     C21999  10.997   6.719   7.785 -0.7053  0.1007 -0.3015
  160MOL0     C22000  10.886   6.743   7.870 -0.0947 -0.1611  0.4893
  160MOL0     O22001  10.845   6.647   7.964  0.2793  0.1000  0.4359
  160MOL0     C22002  10.734   6.672   8.053  0.6442 -0.2204  0.2532
  160MOL0     C22003  10.701   6.543   8.127  0.6742 -0.0355  0.8802
  160MOL0     C22004  10.668   6.418   8.045  0.0581  0.2437 -0.8044
  160MOL0     C22005  10.590   6.428   7.920 -0.1508 -0.1610  0.7687
  160MOL0     C22006  10.444   6.446   7.936  0.0471  1.3922 -0.9079
  160MOL0     C22007  10.328   6.453   7.965  0.3125  1.0053 -0.1785
  160MOL0     C22008  10.821   6.863   7.846 -0.2821  0.1559  0.0410
  160MOL0     C22009  10.857   6.951   7.741  0.2959 -0.2763 -1.2893
  160MOL0     C22010  10.784   7.081   7.737 -0.0746 -0.5372 -0.0655
  160MOL0     H22011  11.180   7.142   7.371  0.6605 -1.4573 -4.2951
  160MOL0     H22012  11.220   7.314   7.206 -1.0260  0.5338 -2.6939
  160MOL0     H22013  11.159   7.442   6.971 -2.8218 -0.4609  1.3040
  160MOL0     H22014  11.247   7.504   7.115 -0.5124 -2.7137  1.8276
  160MOL0     H22015  11.091   7.668   6.922 -0.5556 -0.7388  0.2116
  160MOL0     H22016  11.146   7.736   7.072 -1.8104 -1.7984  1.2818
  160MOL0     H22017  11.383   7.712   7.010 -0.9388  1.3286  0.4196
  160MOL0     H22018  11.341   7.593   6.890  1.5889  0.7573  0.5373
  160MOL0     H22019  11.213   7.763   6.754  1.2299  0.4308 -0.3885
  160MOL0     H22020  11.274   7.885   6.852 -0.0636 -0.8998 -1.2915
  160MOL0     H22021  11.396   7.860   6.640 -0.1875  0.2246 -1.0782
  160MOL0     H22022  11.394   7.696   6.650 -2.0583  0.5691  0.8691
  160MOL0     H22023  11.574   7.690   6.837 -1.0498 -1.1168 -0.9975
  160MOL0     H22024  11.626   7.769   6.695  0.1536 -0.2572  0.6264
  160MOL0     H22025  11.678   7.892   6.894  1.5477 -0.3988 -3.6393
  160MOL0     H22026  11.506   7.906   6.937 -0.5820 -3.8973  0.7323
  160MOL0     H22027  11.470   8.050   6.740  0.5538  0.1074 -1.1646
  160MOL0     H22028  11.598   8.117   6.845  1.6585  0.4774 -1.3077
  160MOL0     H22029  11.861   8.014   6.786 -0.1336  0.0861  0.4686
  160MOL0     H22030  12.039   7.921   6.554  1.3179  1.3320  1.1719
  160MOL0     H22031  12.045   8.096   6.599 -0.1942 -0.3406  0.8649
  160MOL0     H22032  11.992   8.153   6.357 -3.0907 -0.3047  3.2295
  160MOL0     H22033  12.149   8.085   6.403  0.4388 -1.0320 -0.4088
  160MOL0     H22034  11.937   7.921   6.272  0.2456 -1.3910  1.3693
  160MOL0     H22035  12.071   8.001   6.191 -1.1945 -0.1559  0.4511
  160MOL0     H22036  12.097   7.771   6.391 -0.6922 -1.0532 -0.1205
  160MOL0     H22037  12.108   7.771   6.224 -2.0633  0.7332 -0.0578
  160MOL0     H22038  12.520   7.940   6.301 -2.7359 -0.5672  2.4410
  160MOL0     H22039  12.783   7.815   6.126  0.3050 -0.6777 -0.0048
  160MOL0     H22040  12.823   7.782   6.301 -0.2212  0.7573  1.1324
  160MOL0     H22041  12.749   7.934   6.254  0.1395 -0.9814  0.9003
  160MOL0     H22042  13.035   7.682   6.047 -0.2256  0.5292  0.8263
  160MOL0     H22043  13.224   7.546   5.921  1.1047 -0.4075  1.9460
  160MOL0     H22044  13.330   7.395   5.800  0.9443 -1.5100 -1.7846
  160MOL0     H22045  13.445   7.375   5.941  0.4458  0.4589 -0.1686
  160MOL0     H22046  13.514   7.263   5.742 -0.2341 -1.8093 -0.5953
  160MOL0     H22047  13.499   7.157   5.873 -0.9900 -0.9249  0.6988
  160MOL0     H22048  13.269   7.172   5.666 -1.6997 -1.2050  0.1496
  160MOL0     H22049  13.315   7.056   5.792 -0.3030 -0.9313 -1.8259
  160MOL0     H22050  13.541   7.041   5.647  0.1017 -0.9483 -0.5314
  160MOL0     H22051  13.436   7.125   5.530 -3.7975  0.3821  1.5610
  160MOL0     H22052  13.482   6.888   5.477  3.7627 -2.2830  4.5061
  160MOL0     H22053  13.421   6.841   5.630  1.5608  1.1791  0.7109
  160MOL0     H22054  13.201   6.953   5.584  0.3892  0.6975 -1.6136
  160MOL0     H22055  13.226   6.802   5.486 -0.8995  0.4021 -0.4145
  160MOL0     H22056  13.290   6.920   5.298 -0.9281 -1.4919  0.2196
  160MOL0     H22057  13.267   7.074   5.383 -2.2343 -0.4589  2.1253
  160MOL0     H22058  13.071   7.037   5.233  0.4569 -1.5900 -0.8065
  160MOL0     H22059  13.015   7.005   5.402 -0.0584 -0.8509  0.0553
  160MOL0     H22060  13.066   7.197   6.097  0.1443 -0.3587 -0.6410
  160MOL0     H22061  12.891   7.319   6.207  2.4946 -2.3374  0.6736
  160MOL0     H22062  12.456   7.471   6.192  0.7575 -0.1981  0.1554
  160MOL0     H22063  12.261   7.599   6.272 -0.3309  1.2399 -1.4528
  160MOL0     H22064  10.807   7.452   7.261 -1.5062 -1.3876  0.7544
  160MOL0     H22065  10.773   7.286   7.414  0.3877 -1.5332  0.5726
  160MOL0     H22066  11.129   6.784   7.631 -0.8568 -0.8178 -1.7603
  160MOL0     H22067  11.054   6.629   7.804  1.1411  1.0364 -1.1639
  160MOL0     H22068  10.768   6.744   8.128  0.5496  1.4541 -1.2379
  160MOL0     H22069  10.649   6.715   7.999  0.8838  0.2188  0.2203
  160MOL0     H22070  10.618   6.562   8.195  0.0493 -0.3312  0.2172
  160MOL0     H22071  10.785   6.520   8.193  0.7517  1.9076  1.5196
  160MOL0     H22072  10.760   6.362   8.025  1.3999  1.2124  2.1010
  160MOL0     H22073  10.612   6.350   8.110  1.5207 -2.4150 -2.1576
  160MOL0     H22074  10.624   6.337   7.870  0.9501  0.8537 -0.4047
  160MOL0     H22075  10.629   6.511   7.861 -3.7341 -0.8579 -3.0048
  160MOL0     H22076  10.228   6.453   8.001 -0.3660  0.5723 -1.9522
  160MOL0     H22077  10.729   6.880   7.902  1.4616  3.4907  2.2751
  160MOL0     H22078  10.696   7.073   7.801 -0.2717 -2.9055 -0.5334
  160MOL0     H22079  10.845   7.169   7.759 -2.3837  1.5827 -1.5528
  160MOL0     H22080  10.739   7.103   7.639  1.9211  0.6686 -0.7785
  161MOL0     O22081   3.520   2.814   3.789  0.1946 -0.0712  0.5273
  161MOL0     C22082   3.483   2.901   3.870 -0.1025  0.3870 -0.7108
  161MOL0     O22083   3.535   3.026   3.876 -0.0077  0.2798 -0.5710
  161MOL0     C22084   3.625   3.056   3.774 -0.0057  0.8979 -0.7559
  161MOL0     C22085   3.574   3.111   3.655 -0.0403  0.7286 -1.0567
  161MOL0     C22086   3.665   3.170   3.566  0.3463  0.7315  0.3240
  161MOL0     C22087   3.804   3.148   3.579  1.1392  0.7050 -1.0614
  161MOL0     O22088   3.898   3.212   3.502  0.3170 -0.0656  0.2163
  161MOL0     C22089   3.874   3.245   3.366  0.9035 -0.0534  0.4639
  161MOL0     C22090   3.987   3.295   3.287 -0.0514  0.0850 -0.2784
  161MOL0     C22091   4.095   3.191   3.296  0.3797 -0.4973  0.2720
  161MOL0     C22092   4.193   3.202   3.175  0.9828 -0.3051 -0.6639
  161MOL0     C22093   4.316   3.113   3.202 -1.3772  0.5398 -0.3287
  161MOL0     C22094   4.418   3.121   3.090  0.6479  0.1413 -0.5867
  161MOL0     C22095   4.531   3.030   3.103  0.3381  0.2431 -0.6518
  161MOL0     C22096   4.640   3.052   2.985  0.4141  0.9956 -0.3470
  161MOL0     N22097   4.744   2.952   3.012 -0.5904  0.0645  0.1032
  161MOL0     C22098   4.872   2.982   3.047  0.5507 -0.9220 -0.1121
  161MOL0     C22099   4.932   2.867   3.067 -0.2267 -0.5710 -0.3630
  161MOL0     C22100   5.079   2.848   3.104  0.6576 -0.1790  0.3635
  161MOL0     C22101   5.097   2.827   3.254 -0.0114 -0.2721  0.1288
  161MOL0     C22102   5.186   2.717   3.308 -0.2255 -0.4341 -0.2703
  161MOL0     C22103   5.340   2.742   3.290  0.7565 -0.5840  0.6576
  161MOL0     O22104   5.407   2.626   3.338  0.0258  0.1236  0.1395
  161MOL0     C22105   5.544   2.619   3.326  0.4740 -0.1862 -0.8826
  161MOL0     C22106   5.600   2.498   3.378  0.0815  0.2615 -0.1397
  161MOL0     C22107   5.735   2.459   3.352 -0.1678 -0.5560 -0.9129
  161MOL0     C22108   5.781   2.326   3.414 -0.1893 -0.1220  0.3735
  161MOL0     C22109   5.819   2.553   3.295  0.3734 -1.5206 -0.0155
  161MOL0     C22110   5.962   2.513   3.264  0.0130 -0.0519 -0.0594
  161MOL0     O22111   6.049   2.476   3.371 -0.2021  0.0089 -0.6264
  161MOL0     C22112   6.175   2.433   3.351  0.2344  0.8306 -0.3831
  161MOL0     C22113   6.205   2.309   3.413  0.3945  0.0694  0.2029
  161MOL0     C22114   6.333   2.254   3.415 -0.1136  0.0274  0.4937
  161MOL0     C22115   6.438   2.322   3.359  0.3481  0.3180 -0.3807
  161MOL0     O22116   6.565   2.276   3.381 -0.1905 -0.3174 -0.7467
  161MOL0     C22117   6.674   2.374   3.405 -0.3740  0.2780 -0.2461
  161MOL0     C22118   6.780   2.301   3.481 -0.0900 -0.5841  0.7456
  161MOL0     C22119   6.902   2.402   3.507 -0.4329 -0.3377  0.2722
  161MOL0     C22120   6.988   2.449   3.390  0.2253  0.2118 -0.2297
  161MOL0     C22121   7.054   2.341   3.304  0.4859  0.0031 -0.2825
  161MOL0     C22122   7.149   2.397   3.202 -0.1605  0.0696  0.4852
  161MOL0     C22123   7.281   2.436   3.269 -1.0532  0.8706 -0.4649
  161MOL0     C22124   7.381   2.442   3.155  0.3572  1.0379 -0.9107
  161MOL0    Cl22125   7.550   2.464   3.218 -0.7979 -0.4958  0.0367
  161MOL0     C22126   6.410   2.435   3.290 -0.2369 -0.5931  0.0792
  161MOL0     C22127   6.283   2.493   3.283 -0.8994  0.1384  0.2096
  161MOL0     O22128   5.994   2.529   3.149  0.0170 -0.3980 -0.1991
  161MOL0     C22129   5.775   2.683   3.263  0.8748 -0.7046 -0.3033
  161MOL0     C22130   5.638   2.708   3.269 -0.1581 -0.0566  0.1447
  161MOL0     N22131   4.842   2.760   3.049 -0.1525  0.2506  0.7980
  161MOL0     N22132   4.726   2.818   3.019  0.2355 -0.4105 -0.0791
  161MOL0     C22133   3.848   3.070   3.687  0.2846  0.9122  0.2544
  161MOL0     C22134   3.758   3.030   3.789  0.3905  0.4440 -0.7538
  161MOL0     C22135   3.373   2.869   3.974 -0.6105  0.8581 -1.5499
  161MOL0     C22136   3.322   2.976   4.052  0.0072 -0.2401  0.6095
  161MOL0     C22137   3.223   2.965   4.152 -0.4985  0.1060  0.1256
  161MOL0     C22138   3.168   2.836   4.177 -0.3896 -0.4819  0.6717
  161MOL0     O22139   3.063   2.815   4.262  0.8961 -0.3326  0.6732
  161MOL0     C22140   3.007   2.926   4.328  0.2938 -0.4240 -0.5219
  161MOL0     C22141   2.882   2.891   4.419 -0.0552  0.6082 -0.2203
  161MOL0     C22142   2.768   2.826   4.340  0.1049  0.1750  0.2530
  161MOL0     C22143   2.768   2.878   4.194  0.2992 -0.5179 -0.3214
  161MOL0     C22144   2.672   2.802   4.115 -0.5332  0.7179 -0.0684
  161MOL0     C22145   2.601   2.728   4.050 -0.3546 -0.8038 -0.8079
  161MOL0     C22146   3.230   2.725   4.114 -0.1231  0.9560  0.6072
  161MOL0     C22147   3.327   2.739   4.015  0.2586 -0.5856  1.2497
  161MOL0     C22148   3.381   2.614   3.957  0.0923 -0.7697  0.3694
  161MOL0     H22149   3.466   3.124   3.646 -0.3437  0.1732  1.3031
  161MOL0     H22150   3.642   3.222   3.473 -1.5236  0.3812  0.5539
  161MOL0     H22151   3.806   3.327   3.341  2.1451  0.9914  0.3853
  161MOL0     H22152   3.838   3.153   3.318 -1.3675  1.2465 -0.4849
  161MOL0     H22153   3.956   3.291   3.182 -0.5452  0.7557 -0.1679
  161MOL0     H22154   4.015   3.396   3.318 -2.4327  1.3279 -1.8307
  161MOL0     H22155   4.155   3.196   3.388 -0.1903  0.3924  0.6031
  161MOL0     H22156   4.054   3.089   3.296  0.9192 -0.7279 -0.7361
  161MOL0     H22157   4.141   3.174   3.083  1.5096 -1.7494 -0.5467
  161MOL0     H22158   4.236   3.302   3.170  0.2674  0.2932  2.9018
  161MOL0     H22159   4.305   3.007   3.228 -0.5203  0.7731  1.1251
  161MOL0     H22160   4.362   3.142   3.297  0.3000 -2.4705 -0.0715
  161MOL0     H22161   4.354   3.094   3.005 -3.4071  1.0415  1.9502
  161MOL0     H22162   4.439   3.226   3.069 -1.9130  1.8217  4.0259
  161MOL0     H22163   4.492   2.928   3.108  0.0584  0.4134  2.3271
  161MOL0     H22164   4.588   3.057   3.192 -0.3840 -1.0087  0.2199
  161MOL0     H22165   4.596   3.038   2.885 -1.2490  1.7633  0.2496
  161MOL0     H22166   4.681   3.152   2.998 -0.1260  1.2300 -0.4059
  161MOL0     H22167   4.915   3.082   3.051  0.9369 -1.0983  0.3935
  161MOL0     H22168   5.143   2.933   3.078 -2.6686  1.8948 -1.7135
  161MOL0     H22169   5.125   2.765   3.048 -0.4082 -0.0419 -0.7626
  161MOL0     H22170   5.122   2.925   3.296 -2.1494 -0.3917  1.8986
  161MOL0     H22171   5.002   2.791   3.295 -0.5162 -2.1080 -2.4242
  161MOL0     H22172   5.162   2.717   3.415 -4.2332  3.9300 -0.8249
  161MOL0     H22173   5.164   2.621   3.262 -1.2101 -0.0569 -0.5942
  161MOL0     H22174   5.348   2.749   3.181  1.6139 -1.3706  0.6638
  161MOL0     H22175   5.385   2.828   3.340  1.8221 -1.6635  1.6235
  161MOL0     H22176   5.531   2.433   3.430 -0.5062 -0.0063 -1.2102
  161MOL0     H22177   5.826   2.259   3.339 -0.8838 -1.3537  1.0161
  161MOL0     H22178   5.703   2.275   3.472 -1.2648  2.2529  1.1531
  161MOL0     H22179   5.866   2.339   3.482  0.3611 -1.1167 -0.0988
  161MOL0     H22180   6.128   2.267   3.477  0.4785 -2.1159 -1.0044
  161MOL0     H22181   6.355   2.173   3.483 -1.1531 -1.5510 -0.9474
  161MOL0     H22182   6.720   2.416   3.315  0.5026 -0.6223 -0.2372
  161MOL0     H22183   6.639   2.451   3.473  1.7837 -0.5402  1.9261
  161MOL0     H22184   6.747   2.264   3.578 -1.8331 -2.0682 -0.3479
  161MOL0     H22185   6.816   2.215   3.424 -1.8406 -0.6935 -0.2685
  161MOL0     H22186   6.968   2.347   3.575  0.1545 -0.9606 -0.7786
  161MOL0     H22187   6.869   2.496   3.553  2.6847  1.0955 -0.1379
  161MOL0     H22188   7.067   2.509   3.436  1.4418 -2.5476  1.5638
  161MOL0     H22189   6.929   2.516   3.327 -0.3811  1.7270  1.8276
  161MOL0     H22190   7.117   2.275   3.366  0.9333  2.5518  2.2119
  161MOL0     H22191   6.979   2.281   3.252 -2.1237 -0.0414  3.1738
  161MOL0     H22192   7.105   2.480   3.146  1.7352  0.0090 -1.2048
  161MOL0     H22193   7.166   2.316   3.131 -1.8710 -0.0561  0.1920
  161MOL0     H22194   7.311   2.358   3.339 -2.4862  0.4180 -0.3286
  161MOL0     H22195   7.277   2.527   3.330  0.6644  0.3158  0.5558
  161MOL0     H22196   7.355   2.525   3.090  2.8149  2.4560 -0.2103
  161MOL0     H22197   7.369   2.351   3.096  1.3995  0.2395  0.0554
  161MOL0     H22198   6.496   2.475   3.238 -1.2788 -0.3065 -1.4864
  161MOL0     H22199   6.272   2.581   3.221 -3.4635 -0.7083 -0.6321
  161MOL0     H22200   5.845   2.759   3.230  0.5137  0.7975  2.0970
  161MOL0     H22201   5.604   2.807   3.241  1.8241  0.7212  0.3926
  161MOL0     H22202   3.954   3.056   3.702  0.8122  1.4204 -2.4313
  161MOL0     H22203   3.786   2.985   3.883 -0.5053  1.6065  0.1084
  161MOL0     H22204   3.358   3.077   4.031  0.7754 -0.9604 -1.9553
  161MOL0     H22205   3.188   3.054   4.204  0.2158  0.1805  0.4908
  161MOL0     H22206   3.084   2.968   4.393 -0.7562  1.1768 -0.2329
  161MOL0     H22207   2.975   3.003   4.257  0.5022  0.3606  0.2097
  161MOL0     H22208   2.842   2.982   4.464 -3.3826 -0.0740 -1.4673
  161MOL0     H22209   2.921   2.825   4.497 -2.8360  2.9883  3.5093
  161MOL0     H22210   2.786   2.718   4.338  1.4095  0.3551  0.9661
  161MOL0     H22211   2.668   2.838   4.383  0.2317 -1.0499  0.9291
  161MOL0     H22212   2.864   2.874   4.141  0.1696  2.6219 -0.9755
  161MOL0     H22213   2.741   2.984   4.194  2.6060  0.1292  0.0803
  161MOL0     H22214   2.529   2.664   4.004 -0.8994 -0.5899 -0.2740
  161MOL0     H22215   3.195   2.627   4.147  0.0789  0.6498 -0.0789
  161MOL0     H22216   3.477   2.603   4.007  1.0542  1.0263 -0.9600
  161MOL0     H22217   3.320   2.527   3.984 -1.8732 -0.7762 -3.4100
  161MOL0     H22218   3.394   2.610   3.848 -0.6737 -1.9250  0.2942
  162MOL0     O22219   3.604  10.770   7.461  0.0880  0.1218  0.0153
  162MOL0     C22220   3.595  10.671   7.390 -0.5109 -1.2177  0.0173
  162MOL0     O22221   3.700  10.609   7.337 -0.6150 -0.5329 -0.0428
  162MOL0     C22222   3.832  10.646   7.363 -0.1898 -0.3005 -0.2026
  162MOL0     C22223   3.895  10.727   7.275  0.3264 -0.1303  0.1814
  162MOL0     C22224   4.027  10.765   7.301  0.5329  0.6089  0.0981
  162MOL0     C22225   4.094  10.707   7.408 -0.9829 -0.0181 -0.3661
  162MOL0     O22226   4.228  10.722   7.437  0.5888  0.5335  0.0443
  162MOL0     C22227   4.336  10.771   7.349  0.6118  0.6319 -0.7710
  162MOL0     C22228   4.393  10.905   7.390  0.3409  0.1512 -1.1548
  162MOL0     C22229   4.474  10.978   7.281  0.2123  0.2593 -0.0353
  162MOL0     C22230   4.520  11.113   7.339 -0.2114 -1.1177  0.8566
  162MOL0     C22231   4.422  11.224   7.313 -0.6412  0.0560  0.9363
  162MOL0     C22232   4.471  11.353   7.371 -0.2167 -0.2980 -1.9085
  162MOL0     C22233   4.480  11.353   7.527  0.8031 -0.8225  0.2319
  162MOL0     C22234   4.605  11.440   7.568  0.2877  0.7476  0.3488
  162MOL0     N22235   4.736  11.383   7.522 -0.4028 -0.3883 -0.3163
  162MOL0     C22236   4.774  11.253   7.522 -0.3660  0.4296  0.1556
  162MOL0     C22237   4.898  11.258   7.466  0.9632  0.5812  0.0899
  162MOL0     C22238   4.987  11.135   7.453 -0.0405  0.5683  0.2449
  162MOL0     C22239   4.974  11.082   7.296  0.8761 -0.4784 -0.3179
  162MOL0     C22240   5.084  10.980   7.291 -0.0537 -0.2438 -0.0022
  162MOL0     C22241   5.089  10.904   7.160 -0.4697  0.4128 -0.4214
  162MOL0     O22242   5.158  10.781   7.162  0.5877  0.1321  0.0597
  162MOL0     C22243   5.296  10.776   7.164  0.4190  0.8783 -0.8371
  162MOL0     C22244   5.377  10.884   7.149 -0.0357  0.5968 -0.1673
  162MOL0     C22245   5.517  10.885   7.134 -0.3176 -0.5860 -0.3869
  162MOL0     C22246   5.590  11.026   7.137 -1.0080  0.0433  0.2668
  162MOL0     C22247   5.583  10.759   7.128  0.3759 -0.0587  0.3563
  162MOL0     C22248   5.727  10.748   7.095 -0.4673 -0.3295  0.4288
  162MOL0     O22249   5.775  10.843   7.003 -0.5395  0.0723 -0.7047
  162MOL0     C22250   5.901  10.844   6.962 -0.9705 -0.7723 -0.3627
  162MOL0     C22251   5.989  10.916   7.041  0.3448  0.7608 -0.8017
  162MOL0     C22252   6.112  10.953   6.996 -0.0402 -0.3049  0.6970
  162MOL0     C22253   6.161  10.912   6.866 -0.4832  0.4662 -0.3298
  162MOL0     O22254   6.287  10.933   6.819 -0.5897 -0.8204  0.0359
  162MOL0     C22255   6.389  10.884   6.907 -0.0829  0.0507 -0.4621
  162MOL0     C22256   6.405  10.733   6.908  0.4008  0.1123 -0.0594
  162MOL0     C22257   6.531  10.679   6.990 -0.4609  0.0876 -0.3242
  162MOL0     C22258   6.664  10.690   6.919  0.0471 -0.0616  0.1344
  162MOL0     C22259   6.772  10.638   7.014 -0.0619  1.5063 -0.0799
  162MOL0     C22260   6.914  10.670   6.979  0.9009 -0.0208 -1.4668
  162MOL0     C22261   6.971  10.633   6.841  0.0726  0.0073 -0.2722
  162MOL0     C22262   7.093  10.723   6.787  0.3064  0.0243  0.1486
  162MOL0    Cl22263   7.240  10.684   6.875 -0.1907  0.0618  0.1226
  162MOL0     C22264   6.072  10.841   6.779  0.4623  0.5700  0.9462
  162MOL0     C22265   5.945  10.808   6.832  0.4952  1.1725  0.1272
  162MOL0     O22266   5.793  10.655   7.137  0.2197 -0.1223 -1.0143
  162MOL0     C22267   5.498  10.640   7.148  0.2583 -0.2728 -0.4153
  162MOL0     C22268   5.359  10.650   7.164 -0.6010 -0.5169 -0.0149
  162MOL0     N22269   4.931  11.392   7.441  0.0731 -0.4206  0.0506
  162MOL0     N22270   4.827  11.466   7.468  0.3052 -0.2551  0.2824
  162MOL0     C22271   4.025  10.627   7.502 -0.0188  0.0536  0.2969
  162MOL0     C22272   3.893  10.598   7.482  0.4467 -0.0621 -0.1242
  162MOL0     C22273   3.458  10.616   7.345  1.1008  0.3517 -0.0046
  162MOL0     C22274   3.468  10.497   7.268  0.5030  0.5345  0.5673
  162MOL0     C22275   3.359  10.448   7.198  0.0287  0.1393 -1.0728
  162MOL0     C22276   3.230  10.514   7.210  0.7170 -0.3741 -0.9732
  162MOL0     O22277   3.116  10.477   7.140 -0.1132  0.2499  0.2201
  162MOL0     C22278   3.136  10.374   7.042  0.5738 -0.2117  0.6822
  162MOL0     C22279   2.989  10.324   6.991  0.9608  0.4108  0.3188
  162MOL0     C22280   2.904  10.245   7.088 -0.3286 -0.0894  0.0333
  162MOL0     C22281   2.804  10.150   7.029  0.5570  0.5979  0.4457
  162MOL0     C22282   2.731  10.060   7.119 -0.1479  0.5661 -0.3817
  162MOL0     C22283   2.680  10.003   7.212 -0.5164 -0.1601  0.4217
  162MOL0     C22284   3.219  10.630   7.292 -0.1241  0.0655  0.6598
  162MOL0     C22285   3.334  10.681   7.354 -0.7384  0.0270  0.3002
  162MOL0     C22286   3.314  10.815   7.410  0.1518  0.1280 -1.0597
  162MOL0     H22287   3.841  10.754   7.184  0.9887 -0.1890 -0.2406
  162MOL0     H22288   4.082  10.818   7.223  4.7591 -2.6343  0.5228
  162MOL0     H22289   4.297  10.765   7.247  1.1605 -0.7508 -0.9160
  162MOL0     H22290   4.410  10.691   7.347 -0.3964 -0.4638  1.7418
  162MOL0     H22291   4.304  10.964   7.414  2.2421  1.7311  2.9863
  162MOL0     H22292   4.455  10.903   7.480  2.5730  0.2493 -2.6006
  162MOL0     H22293   4.568  10.927   7.260 -0.4419 -0.5284 -1.1656
  162MOL0     H22294   4.418  10.979   7.187 -1.0452  0.7753  0.6878
  162MOL0     H22295   4.537  11.103   7.446 -1.2332 -0.6068  1.0899
  162MOL0     H22296   4.618  11.129   7.293 -0.0558 -2.5475  0.6614
  162MOL0     H22297   4.323  11.192   7.347 -0.5253  0.0055  1.2336
  162MOL0     H22298   4.428  11.251   7.207  1.3853  3.5247  1.7696
  162MOL0     H22299   4.568  11.375   7.326  0.8732 -1.3176 -0.1586
  162MOL0     H22300   4.403  11.434   7.343  0.4611  1.4624  1.1116
  162MOL0     H22301   4.474  11.253   7.571 -0.2663 -0.3777  1.1350
  162MOL0     H22302   4.387  11.394   7.567  1.0076 -0.0062 -0.1269
  162MOL0     H22303   4.593  11.541   7.527  2.0018  0.2509 -1.5563
  162MOL0     H22304   4.590  11.438   7.676 -3.6946  0.0920 -0.0586
  162MOL0     H22305   4.733  11.159   7.557  4.2971 -2.6898 -1.7990
  162MOL0     H22306   4.949  11.061   7.524  1.6469  0.8133  1.4645
  162MOL0     H22307   5.089  11.156   7.484 -0.2005  0.3686  0.9136
  162MOL0     H22308   4.874  11.040   7.277  0.3603 -0.2735  1.7405
  162MOL0     H22309   4.985  11.168   7.230  0.0875  1.0126  1.3955
  162MOL0     H22310   5.178  11.036   7.297 -1.1285  1.6301  0.1511
  162MOL0     H22311   5.072  10.898   7.363 -2.5304 -0.7775 -0.9275
  162MOL0     H22312   4.985  10.881   7.136 -0.7062  2.2276 -1.2787
  162MOL0     H22313   5.129  10.964   7.078  0.6877 -0.3076 -0.4070
  162MOL0     H22314   5.335  10.980   7.118 -3.3618 -0.8588 -0.5645
  162MOL0     H22315   5.658  11.020   7.222  0.5190 -0.9128 -0.9803
  162MOL0     H22316   5.526  11.111   7.164 -4.4689 -2.3486  0.1671
  162MOL0     H22317   5.646  11.055   7.048 -0.3337 -0.8791  0.3775
  162MOL0     H22318   5.955  10.940   7.141  1.6076 -0.0932 -0.1478
  162MOL0     H22319   6.176  10.994   7.073 -1.9321 -0.8797  2.6887
  162MOL0     H22320   6.481  10.928   6.869 -0.6042  3.2285  1.5531
  162MOL0     H22321   6.362  10.922   7.006 -2.4858 -2.2387 -0.0998
  162MOL0     H22322   6.315  10.694   6.956  1.1299  0.0064  1.2638
  162MOL0     H22323   6.424  10.695   6.807  2.7914  1.0484 -0.0328
  162MOL0     H22324   6.503  10.575   7.006 -3.4671 -0.0186 -4.6284
  162MOL0     H22325   6.537  10.738   7.082  0.0293  2.4636 -1.8026
  162MOL0     H22326   6.676  10.797   6.900  0.9233  0.2204  1.9707
  162MOL0     H22327   6.655  10.638   6.823  1.6816 -2.1231  1.0029
  162MOL0     H22328   6.761  10.690   7.110 -1.6692  0.1984  0.4946
  162MOL0     H22329   6.767  10.530   7.029  0.9896  1.6079  1.3081
  162MOL0     H22330   6.975  10.629   7.060 -1.6906 -0.2720  0.5100
  162MOL0     H22331   6.921  10.779   6.989 -1.8897  0.2836 -1.9131
  162MOL0     H22332   6.887  10.647   6.772 -1.5917  1.4931  1.9052
  162MOL0     H22333   7.008  10.530   6.837 -2.6098 -1.2306  2.5609
  162MOL0     H22334   7.064  10.828   6.798 -2.2443 -0.6598  0.6741
  162MOL0     H22335   7.117  10.697   6.683 -1.2797 -0.4520 -0.1247
  162MOL0     H22336   6.107  10.796   6.686  0.2583 -0.5863  1.4073
  162MOL0     H22337   5.870  10.746   6.782  2.9966 -2.7554  0.7640
  162MOL0     H22338   5.549  10.546   7.130 -1.0269 -1.2898  1.0280
  162MOL0     H22339   5.306  10.555   7.166  1.8902 -2.0080 -0.7764
  162MOL0     H22340   4.069  10.583   7.591 -0.5580 -3.0126 -0.8413
  162MOL0     H22341   3.842  10.537   7.557  1.0948  0.3461  0.6662
  162MOL0     H22342   3.568  10.457   7.251 -0.1789 -0.1224 -2.2857
  162MOL0     H22343   3.377  10.358   7.141 -0.9423  0.5186 -2.0214
  162MOL0     H22344   3.182  10.406   6.949 -1.8262 -1.9237 -1.2185
  162MOL0     H22345   3.187  10.286   7.083  2.5697 -0.0459 -1.3018
  162MOL0     H22346   3.001  10.256   6.907 -0.4854  1.4457 -0.7625
  162MOL0     H22347   2.928  10.407   6.955  2.3857  1.9627  1.3516
  162MOL0     H22348   2.962  10.189   7.161 -0.5778  0.0980  0.3809
  162MOL0     H22349   2.842  10.315   7.146 -2.7163 -3.8952  2.4909
  162MOL0     H22350   2.864  10.096   6.955  1.3360  1.9106  0.1006
  162MOL0     H22351   2.724  10.207   6.980  0.4922 -0.7543 -1.1020
  162MOL0     H22352   2.625   9.949   7.286 -1.5377  1.3032  0.7680
  162MOL0     H22353   3.124  10.682   7.285  1.7292  3.4937 -3.7108
  162MOL0     H22354   3.310  10.805   7.519  0.8166 -1.7444 -1.1691
  162MOL0     H22355   3.396  10.883   7.386  0.5158  0.5233  1.1133
  162MOL0     H22356   3.218  10.860   7.381  0.6465  1.6634 -0.4217
  163MOL0     O22357   1.732   6.997   8.962 -0.1265 -0.2163 -1.1274
  163MOL0     C22358   1.713   6.893   8.908 -0.6716  0.2224 -0.2974
  163MOL0     O22359   1.811   6.824   8.839  0.2713 -0.4304  0.1533
  163MOL0     C22360   1.912   6.888   8.772  0.4101 -0.4409  0.0614
  163MOL0     C22361   2.020   6.812   8.733  0.3922  0.4177  0.1555
  163MOL0     C22362   2.129   6.869   8.666 -0.5523  1.2036  0.2362
  163MOL0     C22363   2.134   7.004   8.637 -0.1955 -0.0305 -0.6476
  163MOL0     O22364   2.248   7.059   8.584 -0.2513  0.0747  0.5971
  163MOL0     C22365   2.267   7.205   8.564 -0.3154  0.2928 -0.9583
  163MOL0     C22366   2.412   7.228   8.552 -0.2291  0.0750 -0.0464
  163MOL0     C22367   2.474   7.145   8.444 -0.3103  0.2894 -0.3131
  163MOL0     C22368   2.616   7.195   8.412 -1.2294 -0.2731 -0.9004
  163MOL0     C22369   2.713   7.109   8.319 -0.0347  0.3349 -0.4634
  163MOL0     C22370   2.837   7.178   8.278 -0.5737  0.8594 -0.0330
  163MOL0     C22371   2.931   7.214   8.388 -0.3364  0.3285  0.4038
  163MOL0     C22372   3.049   7.298   8.329  0.7168 -0.0297  0.3972
  163MOL0     N22373   3.161   7.216   8.318 -0.8285  0.8274 -0.0974
  163MOL0     C22374   3.194   7.146   8.200 -0.1273  0.3070  0.1303
  163MOL0     C22375   3.317   7.092   8.227  0.1989 -0.4096  0.1725
  163MOL0     C22376   3.404   7.015   8.130 -0.0149 -0.0386 -0.0870
  163MOL0     C22377   3.512   7.105   8.078 -0.4845  0.0952  0.6642
  163MOL0     C22378   3.626   7.147   8.172 -0.1421 -0.4070  0.3411
  163MOL0     C22379   3.688   7.020   8.236 -0.6030 -0.6279  0.8452
  163MOL0     O22380   3.794   7.071   8.315 -0.2669 -0.2651 -0.6197
  163MOL0     C22381   3.877   6.974   8.374  0.2440 -0.1294  0.1067
  163MOL0     C22382   3.860   6.836   8.377  0.2500 -0.3397  0.5621
  163MOL0     C22383   3.953   6.754   8.436  0.2629 -0.1009 -0.5677
  163MOL0     C22384   3.923   6.604   8.423 -0.4660 -0.7452  0.7656
  163MOL0     C22385   4.073   6.803   8.489 -0.3180 -0.3043  0.4327
  163MOL0     C22386   4.174   6.719   8.545 -0.2446  0.1186  0.0826
  163MOL0     O22387   4.222   6.742   8.666  0.5498  0.2798 -0.6142
  163MOL0     C22388   4.312   6.657   8.720 -0.3644  0.3221 -1.1483
  163MOL0     C22389   4.437   6.621   8.657  0.4609 -0.3606 -0.5817
  163MOL0     C22390   4.521   6.533   8.720  0.3689 -0.1356  1.1160
  163MOL0     C22391   4.493   6.490   8.846 -0.3619  0.4069  0.2781
  163MOL0     O22392   4.586   6.403   8.904  0.4963  0.7729  0.0897
  163MOL0     C22393   4.533   6.286   8.957  0.5582  0.1709  0.1923
  163MOL0     C22394   4.652   6.209   9.016  0.9146 -0.9283  0.5472
  163MOL0     C22395   4.759   6.174   8.921  0.4773  1.2054 -0.1982
  163MOL0     C22396   4.878   6.131   8.998 -0.0053  0.8829 -0.6419
  163MOL0     C22397   4.890   5.974   9.001 -0.7676 -0.6148 -0.4546
  163MOL0     C22398   4.974   5.916   9.113  0.3501  0.1451 -0.8026
  163MOL0     C22399   5.124   5.935   9.090  0.3483 -1.2207  0.1061
  163MOL0     C22400   5.214   5.849   9.172 -0.3866 -0.3251 -0.3112
  163MOL0    Cl22401   5.374   5.844   9.092  0.2946 -0.1763 -0.3174
  163MOL0     C22402   4.383   6.531   8.913 -0.6487  0.1919  0.4578
  163MOL0     C22403   4.293   6.618   8.853  0.4537 -0.4198 -0.4261
  163MOL0     O22404   4.216   6.616   8.486  0.2744  0.7535  0.5491
  163MOL0     C22405   4.092   6.940   8.488  0.4159 -0.4644  1.4813
  163MOL0     C22406   3.994   7.028   8.435 -0.0309 -0.0410  0.4438
  163MOL0     N22407   3.363   7.136   8.348  0.0125 -0.0321 -0.9591
  163MOL0     N22408   3.263   7.203   8.405  0.1511  0.3539 -0.2044
  163MOL0     C22409   2.025   7.084   8.674 -0.3890  0.3585 -0.9628
  163MOL0     C22410   1.917   7.023   8.731  0.1609 -0.3605  0.6750
  163MOL0     C22411   1.577   6.836   8.936  0.1586  0.1518  0.5594
  163MOL0     C22412   1.527   6.854   9.065 -0.9864  0.1602  0.8121
  163MOL0     C22413   1.426   6.777   9.118 -0.0438 -0.7417 -0.1376
  163MOL0     C22414   1.354   6.682   9.039  0.1150 -0.1278  0.1554
  163MOL0     O22415   1.241   6.607   9.077  0.2588 -0.4716 -0.0652
  163MOL0     C22416   1.176   6.626   9.205 -0.7222 -0.5295  0.4050
  163MOL0     C22417   1.266   6.555   9.316  0.3680  0.2940  0.6977
  163MOL0     C22418   1.201   6.559   9.457 -0.7863 -0.2116  0.1023
  163MOL0     C22419   1.195   6.695   9.519 -0.3217  0.5781 -0.4478
  163MOL0     C22420   1.316   6.733   9.595  0.7821  0.1656 -0.5935
  163MOL0     C22421   1.406   6.784   9.654  0.7205 -0.9663 -0.0017
  163MOL0     C22422   1.398   6.669   8.905  0.5254 -0.2078 -0.0711
  163MOL0     C22423   1.511   6.742   8.854 -0.2371  0.4162  0.5755
  163MOL0     C22424   1.566   6.714   8.711  0.3050 -0.3058 -0.5991
  163MOL0     H22425   2.021   6.711   8.773 -3.2695  1.1350  2.5145
  163MOL0     H22426   2.221   6.816   8.640 -0.5009  1.0194  0.7764
  163MOL0     H22427   2.234   7.259   8.653  0.6875  1.5440 -1.3157
  163MOL0     H22428   2.227   7.257   8.476  2.7437  1.4624 -1.8060
  163MOL0     H22429   2.420   7.337   8.548  1.8238 -0.0130 -4.5691
  163MOL0     H22430   2.462   7.191   8.642 -0.6876 -1.6022 -0.4578
  163MOL0     H22431   2.482   7.045   8.486  0.1855 -0.1308 -1.3731
  163MOL0     H22432   2.413   7.145   8.353 -3.1705 -0.1260  1.4765
  163MOL0     H22433   2.608   7.294   8.366  0.9321  0.5528  0.3683
  163MOL0     H22434   2.674   7.217   8.502 -1.8062  0.8290 -0.7894
  163MOL0     H22435   2.655   7.091   8.227 -1.3142 -0.8767  0.5244
  163MOL0     H22436   2.717   7.011   8.367 -1.0855  0.1823 -0.6675
  163MOL0     H22437   2.888   7.116   8.203 -0.2073 -1.1697  1.7617
  163MOL0     H22438   2.819   7.268   8.220 -0.8103  0.6281 -0.3232
  163MOL0     H22439   2.968   7.127   8.442  2.1001  0.7867 -0.4024
  163MOL0     H22440   2.873   7.282   8.451  1.3408  0.0061  2.4089
  163MOL0     H22441   3.016   7.336   8.232 -1.0507  1.0346  1.3661
  163MOL0     H22442   3.061   7.382   8.397  1.5913  0.3364 -0.1917
  163MOL0     H22443   3.132   7.128   8.113  0.4198 -0.1955 -0.1590
  163MOL0     H22444   3.351   6.983   8.039 -0.0115 -1.6410  0.4440
  163MOL0     H22445   3.436   6.920   8.174 -1.4537 -0.3470  0.3558
  163MOL0     H22446   3.555   7.071   7.983 -1.5911 -0.2895  0.2786
  163MOL0     H22447   3.455   7.192   8.045 -1.6089 -0.3820  1.2951
  163MOL0     H22448   3.707   7.198   8.120 -1.1364  0.3069 -0.5248
  163MOL0     H22449   3.581   7.212   8.247 -1.6670  0.7689 -1.5162
  163MOL0     H22450   3.608   6.967   8.288 -1.0541  0.0255  0.8283
  163MOL0     H22451   3.719   6.947   8.161 -2.4429 -1.3573  0.7477
  163MOL0     H22452   3.768   6.794   8.339 -1.2570  2.3870  0.9206
  163MOL0     H22453   3.946   6.540   8.508 -2.8817 -1.7976  0.6906
  163MOL0     H22454   3.989   6.577   8.340  1.3641  1.0122  1.5614
  163MOL0     H22455   3.815   6.599   8.408 -0.6503  2.6253  0.0126
  163MOL0     H22456   4.455   6.671   8.563  0.8983  3.5039  1.3592
  163MOL0     H22457   4.615   6.497   8.678  1.2773 -0.0314  2.9411
  163MOL0     H22458   4.462   6.311   9.037  2.3751 -1.3431  2.4037
  163MOL0     H22459   4.486   6.224   8.880  1.4127 -0.0597 -0.1453
  163MOL0     H22460   4.688   6.268   9.101  0.4039 -1.4324  1.1298
  163MOL0     H22461   4.603   6.118   9.053  1.0965 -0.8814  0.9054
  163MOL0     H22462   4.781   6.261   8.859  1.7707 -0.6060 -2.4516
  163MOL0     H22463   4.722   6.093   8.858  1.5086  0.0124  0.6701
  163MOL0     H22464   4.882   6.175   9.098 -0.3524 -2.1581  0.8296
  163MOL0     H22465   4.966   6.169   8.946  0.7434  4.3732  2.7319
  163MOL0     H22466   4.788   5.935   9.001 -1.2189  0.4394  1.3043
  163MOL0     H22467   4.936   5.932   8.911  1.7105 -2.4299  1.4957
  163MOL0     H22468   4.952   5.809   9.118  0.2902  0.0892 -2.0621
  163MOL0     H22469   4.937   5.954   9.209 -1.2100 -1.5362 -0.6790
  163MOL0     H22470   5.148   6.041   9.107 -1.2469 -1.1006  2.0581
  163MOL0     H22471   5.146   5.913   8.985  0.2662 -1.1912  0.0822
  163MOL0     H22472   5.177   5.747   9.184 -0.3382 -0.7692 -3.1654
  163MOL0     H22473   5.216   5.902   9.268  3.9276 -0.1148 -0.3304
  163MOL0     H22474   4.354   6.500   9.012  0.2393  0.1069  0.7020
  163MOL0     H22475   4.211   6.654   8.913 -1.2305 -2.6077 -1.2753
  163MOL0     H22476   4.188   6.979   8.520  2.5837 -2.9204 -1.4439
  163MOL0     H22477   4.003   7.136   8.437 -0.6800  0.1020 -1.7802
  163MOL0     H22478   2.012   7.190   8.658  0.6654  0.7458  0.5156
  163MOL0     H22479   1.824   7.074   8.750 -1.8397 -3.6649  0.6045
  163MOL0     H22480   1.588   6.919   9.126  0.0813  0.2374 -0.2900
  163MOL0     H22481   1.397   6.793   9.221  2.0425  0.2746  0.3350
  163MOL0     H22482   1.176   6.733   9.230 -1.1845 -0.0215 -1.5738
  163MOL0     H22483   1.078   6.578   9.217 -0.7326 -0.3078  1.2483
  163MOL0     H22484   1.367   6.595   9.322  0.9075 -0.9258  0.1960
  163MOL0     H22485   1.264   6.449   9.287  1.8378  0.6725 -0.9226
  163MOL0     H22486   1.099   6.521   9.443  1.4767 -6.4974 -2.6442
  163MOL0     H22487   1.249   6.486   9.522  1.7888 -0.5205 -1.9754
  163MOL0     H22488   1.114   6.694   9.592 -1.0679 -0.2276 -1.2642
  163MOL0     H22489   1.166   6.770   9.445 -2.1643  0.2159 -0.1459
  163MOL0     H22490   1.492   6.808   9.713  1.3991 -0.4500 -1.1800
  163MOL0     H22491   1.342   6.604   8.839 -1.8312 -0.8516  2.3801
  163MOL0     H22492   1.486   6.671   8.650 -1.6052  1.9179  0.1593
  163MOL0     H22493   1.607   6.804   8.663 -0.9736  0.5040 -0.2249
  163MOL0     H22494   1.648   6.641   8.717  1.0450  0.4688 -0.9927
  164MOL0     O22495   6.679  11.040   6.308  0.6939  0.4892 -0.2425
  164MOL0     C22496   6.644  11.153   6.334  0.4941  0.4116 -0.3201
  164MOL0     O22497   6.668  11.262   6.259 -0.1325 -0.0490  0.2311
  164MOL0     C22498   6.742  11.236   6.146  0.0880 -0.5877 -0.1361
  164MOL0     C22499   6.702  11.148   6.040 -0.1645  1.0984  0.1014
  164MOL0     C22500   6.787  11.131   5.932 -0.0044 -0.5637 -1.2576
  164MOL0     C22501   6.913  11.199   5.918  0.0178  1.1035  0.0996
  164MOL0     O22502   7.003  11.179   5.820 -0.5267 -0.6684  0.1481
  164MOL0     C22503   6.997  11.058   5.739 -0.0792  0.3587 -0.4655
  164MOL0     C22504   7.100  11.040   5.622  0.3028  0.2611 -0.2417
  164MOL0     C22505   7.062  11.140   5.503  0.4135  0.1796 -0.4021
  164MOL0     C22506   7.148  11.265   5.509 -0.3065 -0.0378 -0.5273
  164MOL0     C22507   7.103  11.372   5.407  0.6741  0.0535 -0.2855
  164MOL0     C22508   7.173  11.503   5.436  0.0543  0.1049 -0.7010
  164MOL0     C22509   7.335  11.502   5.429 -0.4798  0.4072 -0.2127
  164MOL0     C22510   7.383  11.638   5.482 -0.2301 -0.2339 -0.7251
  164MOL0     N22511   7.356  11.754   5.401  0.2060  0.0868  0.5726
  164MOL0     C22512   7.260  11.839   5.432 -0.5581  0.4181 -0.4874
  164MOL0     C22513   7.273  11.935   5.342  0.4739 -0.3512 -0.0088
  164MOL0     C22514   7.187  12.061   5.320 -1.1635  0.7328  0.0581
  164MOL0     C22515   7.224  12.192   5.401 -0.5428 -0.0475  0.9672
  164MOL0     C22516   7.371  12.234   5.376  1.4693 -0.2773 -0.0200
  164MOL0     C22517   7.418  12.359   5.463  0.0568  0.4141  0.5183
  164MOL0     O22518   7.523  12.426   5.396 -1.1848  0.9782  0.3304
  164MOL0     C22519   7.650  12.372   5.375  0.8100 -0.2521 -0.4738
  164MOL0     C22520   7.722  12.413   5.260 -1.0282 -1.1079  0.3914
  164MOL0     C22521   7.854  12.379   5.242 -0.4541 -0.6179  0.0743
  164MOL0     C22522   7.932  12.447   5.130  0.0205  0.2589 -0.3864
  164MOL0     C22523   7.916  12.295   5.338  0.2018  0.0045  0.4991
  164MOL0     C22524   8.053  12.249   5.336  0.0438  0.2153 -0.6234
  164MOL0     O22525   8.127  12.240   5.453 -0.0018 -0.4610  0.2333
  164MOL0     C22526   8.252  12.188   5.448 -0.6875 -0.6107 -0.6481
  164MOL0     C22527   8.362  12.270   5.445 -0.6415 -0.2293 -0.7437
  164MOL0     C22528   8.492  12.207   5.436  0.9765 -1.2488 -0.2098
  164MOL0     C22529   8.502  12.068   5.444  0.3612 -0.7701 -0.3811
  164MOL0     O22530   8.623  12.013   5.466 -0.4412  0.1363 -0.4622
  164MOL0     C22531   8.661  11.965   5.591  0.8763 -0.0010  0.0475
  164MOL0     C22532   8.802  12.000   5.606 -0.7655  0.8152  0.1171
  164MOL0     C22533   8.856  12.002   5.752  0.7144  0.0152  0.5762
  164MOL0     C22534   8.824  12.138   5.827 -0.6910  0.5008  0.1476
  164MOL0     C22535   8.916  12.167   5.951  0.9835 -0.2106 -0.0107
  164MOL0     C22536   8.941  12.319   5.986  0.1532  0.4390  0.9833
  164MOL0     C22537   8.802  12.381   5.977  0.2919  0.0403  0.8770
  164MOL0     C22538   8.812  12.521   6.040 -0.2539 -0.6220  0.2051
  164MOL0    Cl22539   8.943  12.615   5.965  0.3651  0.2515  0.1951
  164MOL0     C22540   8.385  11.995   5.463 -0.2966 -0.0851  0.5740
  164MOL0     C22541   8.260  12.052   5.464 -0.3083  0.9574 -0.7964
  164MOL0     O22542   8.097  12.203   5.231 -0.4389  0.9869  0.2645
  164MOL0     C22543   7.843  12.256   5.451  0.1334 -0.3006  0.7160
  164MOL0     C22544   7.708  12.297   5.476  0.0853  0.0501 -0.3513
  164MOL0     N22545   7.362  11.896   5.243 -0.6221 -0.1234 -0.0535
  164MOL0     N22546   7.411  11.783   5.281 -1.3932 -0.1468  0.2080
  164MOL0     C22547   6.945  11.285   6.019  0.1922 -0.6789  0.2699
  164MOL0     C22548   6.864  11.305   6.134 -0.2871  0.5218  0.2099
  164MOL0     C22549   6.564  11.179   6.462  0.4635 -0.1456  0.0135
  164MOL0     C22550   6.460  11.274   6.451  0.4062 -0.6617 -0.5516
  164MOL0     C22551   6.378  11.295   6.561 -0.2870 -0.0742 -0.6070
  164MOL0     C22552   6.405  11.237   6.685  0.8433 -0.9211  0.5312
  164MOL0     O22553   6.333  11.273   6.797 -0.3419 -0.4950 -0.3650
  164MOL0     C22554   6.193  11.301   6.785 -1.0620  0.4035 -0.3061
  164MOL0     C22555   6.145  11.303   6.927 -0.1220  0.4693 -0.3255
  164MOL0     C22556   5.999  11.299   6.921 -0.3667 -0.5104 -0.1941
  164MOL0     C22557   5.928  11.289   7.055 -0.2096 -0.0260 -0.2092
  164MOL0     C22558   5.785  11.303   7.032 -1.3011  0.2108 -0.5007
  164MOL0     C22559   5.674  11.326   7.002  0.3906  0.1332  0.4623
  164MOL0     C22560   6.504  11.150   6.694 -0.5314 -0.5326  0.2424
  164MOL0     C22561   6.582  11.113   6.585  0.2943 -0.2137  0.0064
  164MOL0     C22562   6.692  11.012   6.620 -0.1662 -1.3864  0.0051
  164MOL0     H22563   6.609  11.095   6.059 -0.7445  2.5684  1.6179
  164MOL0     H22564   6.748  11.055   5.865 -0.2265 -2.5126  0.9566
  164MOL0     H22565   6.894  11.056   5.702 -0.0692  1.2641 -0.5748
  164MOL0     H22566   7.023  10.986   5.817 -2.5181  0.6344  0.7102
  164MOL0     H22567   7.202  11.048   5.660  0.5629 -2.7397 -0.0569
  164MOL0     H22568   7.080  10.939   5.586 -2.3522  0.9913 -1.0622
  164MOL0     H22569   7.079  11.092   5.407 -0.8465  3.0917 -2.1989
  164MOL0     H22570   6.957  11.170   5.501 -0.1132 -1.4814 -3.0304
  164MOL0     H22571   7.145  11.305   5.611 -1.1720  0.9171 -0.9160
  164MOL0     H22572   7.247  11.229   5.480 -0.6462 -2.4736  1.0201
  164MOL0     H22573   6.997  11.387   5.427  0.0478 -2.3656 -1.3179
  164MOL0     H22574   7.117  11.335   5.304  1.1638  2.5847 -1.1900
  164MOL0     H22575   7.131  11.577   5.367 -3.5732  0.6363  1.8384
  164MOL0     H22576   7.139  11.526   5.537  0.9200 -3.7562  0.6616
  164MOL0     H22577   7.370  11.481   5.327  0.6993 -2.2137  0.6438
  164MOL0     H22578   7.375  11.429   5.499  1.4182 -0.8506 -2.4690
  164MOL0     H22579   7.333  11.652   5.578 -0.7725 -1.6321 -0.7776
  164MOL0     H22580   7.490  11.635   5.505  0.0840  0.4554 -1.9574
  164MOL0     H22581   7.199  11.838   5.521 -0.6995  1.8658 -0.5439
  164MOL0     H22582   7.088  12.031   5.356 -0.7029 -3.4045 -1.6766
  164MOL0     H22583   7.178  12.098   5.218 -3.8738  1.3015  0.4307
  164MOL0     H22584   7.158  12.271   5.362 -2.6262 -2.9386 -1.8845
  164MOL0     H22585   7.202  12.182   5.507  3.9383  1.3103  2.2209
  164MOL0     H22586   7.445  12.158   5.402 -0.1120 -1.0839  2.4224
  164MOL0     H22587   7.371  12.252   5.268  0.8991  0.3681  0.0815
  164MOL0     H22588   7.335  12.426   5.488  0.8362  1.8903 -0.6663
  164MOL0     H22589   7.452  12.327   5.562  2.8799 -0.4361 -0.6126
  164MOL0     H22590   7.682  12.485   5.189  2.6591  1.9823  1.0909
  164MOL0     H22591   8.039  12.429   5.144  0.1922 -0.8092 -2.6462
  164MOL0     H22592   7.916  12.555   5.138 -1.6096  0.2103 -2.3799
  164MOL0     H22593   7.897  12.424   5.029  0.6196  0.7205 -0.7042
  164MOL0     H22594   8.362  12.379   5.445  1.5501 -0.1197 -3.2801
  164MOL0     H22595   8.583  12.267   5.437  1.0386 -1.3305  1.1040
  164MOL0     H22596   8.613  12.025   5.669  0.0486  0.0191 -0.4600
  164MOL0     H22597   8.635  11.861   5.613  0.2421  0.4096  1.3374
  164MOL0     H22598   8.850  11.925   5.543  0.1669  1.6059 -0.1359
  164MOL0     H22599   8.829  12.095   5.558 -0.2632 -0.0479 -1.3733
  164MOL0     H22600   8.965  12.001   5.754  0.7398  0.7069  0.0842
  164MOL0     H22601   8.822  11.920   5.816  1.8473 -0.9730 -0.0738
  164MOL0     H22602   8.720  12.134   5.859 -1.5398  1.5105 -2.2338
  164MOL0     H22603   8.832  12.216   5.750  0.4322 -0.8234 -1.1160
  164MOL0     H22604   8.864  12.128   6.040  0.3834  0.2160 -0.1632
  164MOL0     H22605   9.013  12.120   5.938  1.6232  1.4452 -1.7436
  164MOL0     H22606   9.009  12.356   5.909  0.1499 -1.2816  0.0962
  164MOL0     H22607   8.984  12.326   6.086 -2.2654 -2.3418  2.3569
  164MOL0     H22608   8.729  12.318   6.030 -0.6465 -1.4157 -1.9451
  164MOL0     H22609   8.755  12.387   5.879  0.1401 -0.8910  0.8814
  164MOL0     H22610   8.831  12.510   6.147 -0.5971  1.6139  0.5453
  164MOL0     H22611   8.715  12.569   6.022 -0.5542 -0.7046  1.4825
  164MOL0     H22612   8.392  11.889   5.483  2.2715  0.1474  1.1890
  164MOL0     H22613   8.168  11.994   5.471 -1.1467  1.7712 -3.5819
  164MOL0     H22614   7.891  12.204   5.533  0.1000  2.4127  2.5744
  164MOL0     H22615   7.663  12.270   5.570  2.4433 -0.4379  0.7052
  164MOL0     H22616   7.039  11.337   6.003 -0.3716  0.3785  0.2679
  164MOL0     H22617   6.903  11.366   6.215  0.9929 -0.3952  0.3256
  164MOL0     H22618   6.428  11.321   6.358 -0.5848 -1.7240 -0.7733
  164MOL0     H22619   6.294  11.362   6.546 -1.2839 -1.1642 -0.0222
  164MOL0     H22620   6.168  11.399   6.744 -1.5046  0.7890  0.8434
  164MOL0     H22621   6.137  11.226   6.728  2.0593 -3.0932  0.8429
  164MOL0     H22622   6.176  11.397   6.972 -1.1545  0.0856  1.2612
  164MOL0     H22623   6.189  11.228   6.994 -0.4789 -1.3276 -1.9938
  164MOL0     H22624   5.982  11.398   6.877 -0.4079  0.9333  2.8273
  164MOL0     H22625   5.964  11.219   6.855  1.4080 -1.1497 -0.3979
  164MOL0     H22626   5.969  11.374   7.110 -0.0550  1.4876 -2.5317
  164MOL0     H22627   5.960  11.204   7.117  0.4668  0.6808  0.4309
  164MOL0     H22628   5.579  11.341   6.955  0.4211 -0.3300  0.2492
  164MOL0     H22629   6.528  11.108   6.791 -0.4954  2.8165  1.8445
  164MOL0     H22630   6.655  10.955   6.707 -2.4486  0.3041  0.2395
  164MOL0     H22631   6.704  10.939   6.539 -0.2566 -1.0016 -0.3556
  164MOL0     H22632   6.792  11.053   6.634 -0.9323  0.6301 -0.2272
  165MOL0     O22633   3.114   3.598   4.375 -0.1762 -0.3266  0.3369
  165MOL0     C22634   3.059   3.487   4.396 -0.2583  0.9126  0.5047
  165MOL0     O22635   3.086   3.369   4.326  0.7022  0.0841 -0.0264
  165MOL0     C22636   3.177   3.364   4.225  0.4266 -0.3051  0.1791
  165MOL0     C22637   3.309   3.397   4.249  0.4033 -0.0555 -0.4865
  165MOL0     C22638   3.396   3.426   4.141  0.1589 -0.0583 -0.2684
  165MOL0     C22639   3.353   3.409   4.007 -0.3255 -0.5976 -0.1353
  165MOL0     O22640   3.423   3.427   3.894  0.1684  0.0787  0.3897
  165MOL0     C22641   3.552   3.495   3.902 -0.3118  0.1808 -0.2545
  165MOL0     C22642   3.615   3.492   3.765  0.1029  0.0587  0.7526
  165MOL0     C22643   3.760   3.562   3.762 -0.2321  0.0382 -0.5235
  165MOL0     C22644   3.792   3.641   3.638 -0.2238  0.1037 -0.4873
  165MOL0     C22645   3.945   3.674   3.628 -0.4485  0.3200 -0.4276
  165MOL0     C22646   3.992   3.760   3.514 -0.3434 -0.0280  0.4599
  165MOL0     C22647   4.143   3.766   3.490  0.7633 -0.4473  0.9405
  165MOL0     C22648   4.225   3.819   3.607  0.7830 -0.6206  0.7595
  165MOL0     N22649   4.365   3.858   3.580  0.4220 -0.1452  0.1778
  165MOL0     C22650   4.464   3.773   3.557 -0.0600 -0.6806 -0.2503
  165MOL0     C22651   4.583   3.841   3.559  0.0780  0.2079  0.1138
  165MOL0     C22652   4.724   3.792   3.534  0.3832  0.6252 -0.0157
  165MOL0     C22653   4.779   3.752   3.394 -0.3003 -0.5194  0.4101
  165MOL0     C22654   4.907   3.670   3.417 -0.1531 -0.2719 -0.0105
  165MOL0     C22655   4.981   3.644   3.286 -0.4182 -0.1280  0.1377
  165MOL0     O22656   5.078   3.748   3.259 -0.0149 -0.1620 -0.4262
  165MOL0     C22657   5.162   3.730   3.152  0.5167 -0.4041  0.8619
  165MOL0     C22658   5.124   3.672   3.025  0.1417 -0.1174 -0.6529
  165MOL0     C22659   5.195   3.692   2.904  0.0354 -0.3031 -0.0023
  165MOL0     C22660   5.118   3.654   2.783 -0.3985  0.3227 -0.0704
  165MOL0     C22661   5.325   3.749   2.906 -0.1331 -0.1292 -0.5126
  165MOL0     C22662   5.412   3.765   2.785 -0.3449 -0.0149  0.0455
  165MOL0     O22663   5.520   3.847   2.800 -0.0119  0.7805 -0.3150
  165MOL0     C22664   5.615   3.856   2.698 -0.0071  0.3162  0.3382
  165MOL0     C22665   5.596   3.838   2.559 -0.5287  0.1593  0.0315
  165MOL0     C22666   5.704   3.849   2.472  0.7493  0.0651 -0.1328
  165MOL0     C22667   5.831   3.877   2.520 -0.3459  0.3318  0.0288
  165MOL0     O22668   5.950   3.873   2.445  0.1758 -0.0406  0.6508
  165MOL0     C22669   5.926   3.830   2.310 -0.7557 -0.6815  1.0051
  165MOL0     C22670   6.075   3.803   2.253  0.8281 -0.0250  0.0100
  165MOL0     C22671   6.140   3.682   2.328  0.5432  0.2215  0.1069
  165MOL0     C22672   6.267   3.637   2.244  0.0616 -0.0724 -1.0097
  165MOL0     C22673   6.341   3.513   2.301 -0.6701 -0.6576  0.3300
  165MOL0     C22674   6.256   3.410   2.372  0.1694  0.7641  0.6999
  165MOL0     C22675   6.179   3.326   2.263 -1.0226 -0.8533  0.1275
  165MOL0     C22676   6.058   3.246   2.308  0.6951 -0.0357  0.6553
  165MOL0    Cl22677   5.940   3.372   2.347  0.3901  0.3524 -0.1849
  165MOL0     C22678   5.842   3.908   2.659 -0.3501 -0.6139  1.0492
  165MOL0     C22679   5.739   3.900   2.736  0.8077 -0.3380 -1.2906
  165MOL0     O22680   5.387   3.692   2.694  0.0928 -0.3596  0.1985
  165MOL0     C22681   5.370   3.795   3.035  0.4427  0.3909  0.7311
  165MOL0     C22682   5.284   3.793   3.150  0.0161 -1.0613 -0.5412
  165MOL0     N22683   4.544   3.977   3.574  0.2262  0.4615 -0.3057
  165MOL0     N22684   4.417   3.987   3.587 -0.2907  0.4656  0.2842
  165MOL0     C22685   3.225   3.368   3.981 -0.2885  0.7676 -0.0399
  165MOL0     C22686   3.129   3.337   4.088  0.6760 -0.5127 -0.6801
  165MOL0     C22687   2.952   3.486   4.489  0.0856  1.5438 -0.5030
  165MOL0     C22688   2.869   3.363   4.510 -0.8208 -0.5092 -0.2924
  165MOL0     C22689   2.769   3.352   4.607  0.7958 -0.3672  1.0468
  165MOL0     C22690   2.746   3.462   4.690 -0.6595  0.1992  0.2548
  165MOL0     O22691   2.664   3.457   4.801 -0.1849 -0.2310  0.2118
  165MOL0     C22692   2.531   3.404   4.786 -0.2282  0.8829  1.1088
  165MOL0     C22693   2.541   3.268   4.865 -0.4524 -0.0228  1.1712
  165MOL0     C22694   2.422   3.172   4.833  0.4834  0.1714  1.3273
  165MOL0     C22695   2.278   3.227   4.865 -0.6567  0.3389  0.1432
  165MOL0     C22696   2.222   3.293   4.745  0.3900 -0.8501 -0.1933
  165MOL0     C22697   2.158   3.332   4.652  0.4294  0.0418  0.0609
  165MOL0     C22698   2.811   3.582   4.669 -1.1797 -0.1316 -0.0244
  165MOL0     C22699   2.918   3.599   4.572  0.1670  0.3747  0.4021
  165MOL0     C22700   2.994   3.735   4.575 -0.4389 -0.0475 -0.2105
  165MOL0     H22701   3.347   3.423   4.348  0.8866 -0.3911 -0.5755
  165MOL0     H22702   3.494   3.461   4.173 -1.8471  5.2332  1.2072
  165MOL0     H22703   3.612   3.440   3.975  0.1698  0.5059 -0.3989
  165MOL0     H22704   3.541   3.599   3.934 -2.3041 -0.1771  0.3082
  165MOL0     H22705   3.603   3.388   3.734 -2.8738  0.2844  0.8540
  165MOL0     H22706   3.555   3.539   3.686 -2.1001 -2.1215  1.0080
  165MOL0     H22707   3.761   3.633   3.845  0.7735  0.2914 -0.7470
  165MOL0     H22708   3.829   3.481   3.785 -1.3542 -0.9292 -0.4740
  165MOL0     H22709   3.750   3.574   3.563 -3.7509  0.5500  0.8920
  165MOL0     H22710   3.741   3.737   3.624  0.1889  0.2942 -0.7151
  165MOL0     H22711   4.002   3.581   3.621 -1.3995 -0.2175 -1.1856
  165MOL0     H22712   3.970   3.720   3.724 -1.6662 -2.4476  1.3382
  165MOL0     H22713   3.956   3.713   3.422 -0.4930 -1.8769  1.4169
  165MOL0     H22714   3.947   3.860   3.522  1.9979  1.1076  0.4848
  165MOL0     H22715   4.163   3.827   3.401 -2.1855 -1.6435 -0.6931
  165MOL0     H22716   4.190   3.671   3.463  1.0839 -0.0597  0.1032
  165MOL0     H22717   4.170   3.908   3.637 -2.1850 -1.5019 -1.5486
  165MOL0     H22718   4.221   3.736   3.678 -0.5077 -1.6296 -0.4236
  165MOL0     H22719   4.462   3.664   3.561  2.2158 -0.7398  1.0891
  165MOL0     H22720   4.737   3.703   3.596  1.2061  1.3064  0.8120
  165MOL0     H22721   4.792   3.868   3.574 -0.8937  1.7084  0.1359
  165MOL0     H22722   4.707   3.693   3.337  0.1953 -1.2139  0.4997
  165MOL0     H22723   4.804   3.840   3.334 -1.8888 -0.7623 -0.6770
  165MOL0     H22724   4.981   3.722   3.479 -0.7685 -0.7292  1.1448
  165MOL0     H22725   4.876   3.573   3.456 -0.8784 -0.5929 -1.3293
  165MOL0     H22726   5.040   3.557   3.312 -0.2417  0.3493  1.3741
  165MOL0     H22727   4.909   3.628   3.205 -0.1275  0.1710 -0.1889
  165MOL0     H22728   5.033   3.613   3.025  0.2784 -0.3665  0.5662
  165MOL0     H22729   5.009   3.646   2.785 -0.6555  3.1149  2.1054
  165MOL0     H22730   5.156   3.552   2.769 -2.7578 -0.9347  1.8858
  165MOL0     H22731   5.143   3.713   2.694  1.9150 -0.9132 -0.3117
  165MOL0     H22732   5.504   3.810   2.509  0.0462  0.7813 -1.4676
  165MOL0     H22733   5.681   3.826   2.369 -3.1196  0.5637  0.4448
  165MOL0     H22734   5.863   3.744   2.286 -0.8107  0.4143 -4.0065
  165MOL0     H22735   5.881   3.912   2.253  0.1340 -1.7203 -1.3329
  165MOL0     H22736   6.068   3.798   2.144 -0.5453  2.4398 -0.0850
  165MOL0     H22737   6.128   3.895   2.280 -1.8628  2.0908 -1.5109
  165MOL0     H22738   6.070   3.598   2.320 -2.2494  2.4400 -0.5138
  165MOL0     H22739   6.156   3.700   2.435  3.2142  0.8053 -0.3066
  165MOL0     H22740   6.341   3.719   2.242 -1.4335  1.4127  0.7588
  165MOL0     H22741   6.233   3.619   2.142  0.3530  2.2242 -1.5650
  165MOL0     H22742   6.395   3.460   2.222 -2.9979 -0.5918 -1.4048
  165MOL0     H22743   6.408   3.554   2.377 -0.9348 -2.1065  1.3774
  165MOL0     H22744   6.180   3.455   2.436 -1.0292  1.0086 -0.8293
  165MOL0     H22745   6.318   3.339   2.427  0.2533 -0.3020 -0.7003
  165MOL0     H22746   6.252   3.261   2.215  0.4457  1.2672 -0.6514
  165MOL0     H22747   6.136   3.389   2.185 -2.9886 -0.8279  1.1411
  165MOL0     H22748   6.091   3.195   2.399  0.7226 -0.1471  0.5823
  165MOL0     H22749   6.018   3.175   2.235 -0.0166  0.6858  0.3343
  165MOL0     H22750   5.937   3.936   2.704  1.2746 -0.6469 -2.1196
  165MOL0     H22751   5.755   3.932   2.839  3.6183 -1.2622 -1.3573
  165MOL0     H22752   5.463   3.850   3.035 -0.3696  1.8036  1.2030
  165MOL0     H22753   5.303   3.842   3.246 -1.2998  2.9893 -2.1219
  165MOL0     H22754   3.198   3.356   3.877 -1.0731 -0.0583  0.2356
  165MOL0     H22755   3.024   3.318   4.066  0.8549  0.1494 -2.2097
  165MOL0     H22756   2.914   3.277   4.462  2.2143  1.6739 -1.6810
  165MOL0     H22757   2.715   3.258   4.612 -0.6598  0.3533 -0.2846
  165MOL0     H22758   2.460   3.475   4.829  0.2980  2.8542 -1.0873
  165MOL0     H22759   2.507   3.381   4.682  0.0537 -0.2266  1.2786
  165MOL0     H22760   2.523   3.304   4.967 -0.3293  1.3878  0.7252
  165MOL0     H22761   2.632   3.213   4.840 -1.9396 -0.5839 -4.0438
  165MOL0     H22762   2.422   3.149   4.726  0.5579 -0.7667  1.5193
  165MOL0     H22763   2.435   3.080   4.889  1.8451  1.0860  2.5901
  165MOL0     H22764   2.283   3.286   4.958  0.9227 -0.7301  0.7898
  165MOL0     H22765   2.218   3.138   4.886 -1.6170  0.5199 -1.6600
  165MOL0     H22766   2.111   3.362   4.560 -1.7811  2.4720  1.8407
  165MOL0     H22767   2.781   3.643   4.753 -2.1112 -1.7062  0.8441
  165MOL0     H22768   2.963   3.789   4.665  0.3567  1.1567 -0.6340
  165MOL0     H22769   3.100   3.709   4.590 -0.6323 -2.1957 -2.0521
  165MOL0     H22770   2.989   3.789   4.480 -0.8164 -3.1940 -2.1267
  166MOL0     O22771   2.566   9.617   1.405 -0.6819 -0.6251 -0.3573
  166MOL0     C22772   2.543   9.738   1.397 -0.7614  0.5497 -0.7007
  166MOL0     O22773   2.630   9.833   1.447  0.2206 -0.5919 -0.2255
  166MOL0     C22774   2.733   9.780   1.519 -0.4991  0.0536 -0.1213
  166MOL0     C22775   2.845   9.724   1.449  0.2464  0.2570 -0.0857
  166MOL0     C22776   2.962   9.676   1.514  1.4078  0.2892 -0.1797
  166MOL0     C22777   2.973   9.704   1.652 -0.0508  0.3705  0.2452
  166MOL0     O22778   3.068   9.656   1.735 -0.0070  0.2126  0.0256
  166MOL0     C22779   3.212   9.670   1.700 -0.2144 -0.2192  0.6135
  166MOL0     C22780   3.297   9.615   1.817  0.4231 -0.6268 -0.5354
  166MOL0     C22781   3.431   9.560   1.772  0.0531  0.1239  0.4948
  166MOL0     C22782   3.534   9.554   1.889  0.2059 -0.2815 -0.0959
  166MOL0     C22783   3.656   9.467   1.858  0.0018  0.2668  1.2124
  166MOL0     C22784   3.736   9.465   1.982 -0.3867 -0.1735 -0.8427
  166MOL0     C22785   3.855   9.360   1.963  0.5128 -0.2321 -0.0203
  166MOL0     C22786   3.988   9.405   1.899  0.2177  0.5178  0.3272
  166MOL0     N22787   4.062   9.504   1.981 -0.0359  0.5016  0.4291
  166MOL0     C22788   4.141   9.469   2.085 -0.1927  0.4741  0.0205
  166MOL0     C22789   4.198   9.586   2.128 -0.8378  0.5174 -0.7024
  166MOL0     C22790   4.293   9.598   2.244 -0.7046  0.4126  0.8935
  166MOL0     C22791   4.369   9.730   2.260 -0.4042 -0.2427  0.4838
  166MOL0     C22792   4.479   9.740   2.149 -0.0415  0.2706  0.4914
  166MOL0     C22793   4.531   9.884   2.148 -0.3393 -0.6956 -0.0255
  166MOL0     O22794   4.606   9.907   2.027 -0.1916 -0.3224  0.6315
  166MOL0     C22795   4.734   9.858   2.014  0.1175 -0.0227 -0.8421
  166MOL0     C22796   4.782   9.812   1.895  0.1230 -0.1009  0.1834
  166MOL0     C22797   4.912   9.752   1.879 -0.3577 -0.1655 -1.1779
  166MOL0     C22798   4.933   9.681   1.746  0.5629 -0.1248  0.6711
  166MOL0     C22799   4.997   9.735   1.991  0.2356 -0.3243  0.6483
  166MOL0     C22800   5.131   9.672   1.991  0.3683 -0.5528 -0.8441
  166MOL0     O22801   5.159   9.579   1.881 -0.7367  0.3298  0.7025
  166MOL0     C22802   5.288   9.547   1.866 -0.2486  0.1366  0.0055
  166MOL0     C22803   5.361   9.625   1.787  0.0210 -0.5326  0.7696
  166MOL0     C22804   5.491   9.593   1.752  0.1222 -0.0028 -1.5912
  166MOL0     C22805   5.539   9.469   1.794  0.1138 -0.8890  0.9228
  166MOL0     O22806   5.662   9.424   1.753  0.1483  0.1721  0.3906
  166MOL0     C22807   5.732   9.472   1.636  0.3417 -0.4191 -0.4090
  166MOL0     C22808   5.833   9.372   1.582  0.2747 -0.2433  0.0165
  166MOL0     C22809   5.864   9.405   1.433  0.1713  0.2121 -0.1714
  166MOL0     C22810   5.988   9.331   1.386  0.0986  0.2743  0.5473
  166MOL0     C22811   6.027   9.362   1.250 -0.0468 -0.3303  0.2115
  166MOL0     C22812   6.153   9.302   1.204 -0.6009  0.2867 -0.2376
  166MOL0     C22813   6.278   9.302   1.306 -0.5166  0.2394 -0.1761
  166MOL0     C22814   6.402   9.259   1.228  0.3432  0.2004  0.4733
  166MOL0    Cl22815   6.448   9.351   1.077 -0.6780 -0.5317 -0.1533
  166MOL0     C22816   5.470   9.390   1.882  0.5835  0.2855  0.2087
  166MOL0     C22817   5.346   9.433   1.921 -0.2164 -0.4250 -0.9393
  166MOL0     O22818   5.208   9.700   2.084 -0.4477  0.2702  0.2729
  166MOL0     C22819   4.953   9.796   2.112 -0.1151  0.3662  0.8794
  166MOL0     C22820   4.825   9.855   2.121  0.2953 -0.4600  0.1394
  166MOL0     N22821   4.148   9.690   2.047 -0.3608 -1.0456 -0.6597
  166MOL0     N22822   4.074   9.634   1.955  0.4166 -0.2901  0.4619
  166MOL0     C22823   2.865   9.772   1.717 -0.4274 -0.1707  0.7080
  166MOL0     C22824   2.748   9.800   1.647  0.5401 -0.0589  0.0052
  166MOL0     C22825   2.422   9.783   1.333  0.2320 -0.1259 -0.1940
  166MOL0     C22826   2.403   9.925   1.324  0.1280 -0.1170 -0.1002
  166MOL0     C22827   2.288   9.979   1.290  0.2452 -0.4381  0.3361
  166MOL0     C22828   2.193   9.894   1.224  0.0756 -0.6872 -1.1564
  166MOL0     O22829   2.069   9.935   1.170 -0.3552 -0.3561  0.1241
  166MOL0     C22830   2.022  10.069   1.207 -0.0124  0.1157  0.8053
  166MOL0     C22831   1.866  10.090   1.202  0.6275 -0.2074 -0.0402
  166MOL0     C22832   1.803  10.026   1.081 -0.4686  0.9654 -0.0757
  166MOL0     C22833   1.661  10.087   1.064  1.0696  0.0624  0.0299
  166MOL0     C22834   1.572  10.066   1.178  0.1153 -0.3454  0.6682
  166MOL0     C22835   1.500  10.049   1.277  0.1423 -1.0066 -0.1019
  166MOL0     C22836   2.215   9.762   1.217  0.4678 -0.6221  0.5104
  166MOL0     C22837   2.331   9.698   1.261 -0.7362 -0.0354 -0.4745
  166MOL0     C22838   2.353   9.547   1.253 -0.1714 -0.6090  0.7398
  166MOL0     H22839   2.840   9.715   1.341 -0.0878 -0.1465 -0.0378
  166MOL0     H22840   3.039   9.621   1.460  0.0354 -3.1345  1.1282
  166MOL0     H22841   3.240   9.774   1.685 -1.9515  0.1913 -0.0326
  166MOL0     H22842   3.235   9.600   1.618  2.5799 -0.2499  1.3227
  166MOL0     H22843   3.319   9.693   1.890 -0.7073  0.4573 -1.3069
  166MOL0     H22844   3.241   9.533   1.864 -0.4914  0.6760  0.7312
  166MOL0     H22845   3.410   9.462   1.728 -0.2000  0.3185  0.1758
  166MOL0     H22846   3.473   9.623   1.693  2.9842  2.2049  3.4631
  166MOL0     H22847   3.553   9.651   1.935 -1.6231 -0.2276  0.6537
  166MOL0     H22848   3.480   9.503   1.969 -0.7154 -0.5052 -0.8398
  166MOL0     H22849   3.720   9.511   1.780  0.8798  0.1174  1.8410
  166MOL0     H22850   3.627   9.366   1.829 -1.0641  0.7113  0.6638
  166MOL0     H22851   3.765   9.566   2.012  1.3959 -0.6434 -0.8242
  166MOL0     H22852   3.671   9.428   2.062  1.6148 -1.8835  0.0945
  166MOL0     H22853   3.800   9.275   1.921 -1.3187 -1.2275  3.9336
  166MOL0     H22854   3.886   9.326   2.062  3.6908  4.8542  1.1374
  166MOL0     H22855   4.057   9.320   1.903 -1.0801 -0.5406  1.7777
  166MOL0     H22856   3.969   9.447   1.800  0.6269  1.1540  0.5121
  166MOL0     H22857   4.162   9.372   2.129  1.9075  1.5394  1.5158
  166MOL0     H22858   4.372   9.524   2.232  2.1863  3.4463 -0.5915
  166MOL0     H22859   4.241   9.579   2.338 -0.6499  0.2463  0.8898
  166MOL0     H22860   4.300   9.814   2.246  1.5476  1.4934  0.8683
  166MOL0     H22861   4.416   9.736   2.359  0.9456 -0.2958 -0.1352
  166MOL0     H22862   4.557   9.669   2.178 -0.0122 -0.2320 -0.7973
  166MOL0     H22863   4.436   9.726   2.050  0.1530  0.6492  0.3493
  166MOL0     H22864   4.447   9.954   2.148  0.4933  0.7942  5.7808
  166MOL0     H22865   4.576   9.907   2.245 -0.8509 -1.0039  0.2891
  166MOL0     H22866   4.708   9.806   1.816 -0.6080  0.5013  0.8076
  166MOL0     H22867   4.948   9.575   1.768  1.0693 -0.2104 -0.0424
  166MOL0     H22868   5.026   9.720   1.702 -1.3288  3.9979 -0.2185
  166MOL0     H22869   4.851   9.703   1.677  0.8492 -1.2485 -0.0497
  166MOL0     H22870   5.316   9.706   1.730  0.3881  0.7002  2.1575
  166MOL0     H22871   5.556   9.663   1.701  1.7978  0.0157  0.4434
  166MOL0     H22872   5.663   9.492   1.554 -0.0354  0.5197  0.1216
  166MOL0     H22873   5.785   9.559   1.676 -0.9136 -0.8130  2.3155
  166MOL0     H22874   5.926   9.374   1.639  0.8485  0.9081 -0.9112
  166MOL0     H22875   5.802   9.267   1.588  2.9687 -1.0729  0.9534
  166MOL0     H22876   5.882   9.512   1.419  2.2972  0.0596  0.9913
  166MOL0     H22877   5.781   9.378   1.367  0.8814 -1.4894 -0.4172
  166MOL0     H22878   5.963   9.224   1.376  0.3342  0.1653  1.1155
  166MOL0     H22879   6.063   9.344   1.464  1.2476  0.6212 -0.5771
  166MOL0     H22880   5.941   9.347   1.185 -0.8649  0.6912  1.0149
  166MOL0     H22881   6.036   9.470   1.243 -3.4937 -0.0447 -2.2252
  166MOL0     H22882   6.187   9.363   1.120  0.6780  1.5171  1.1008
  166MOL0     H22883   6.137   9.199   1.172 -0.0763  0.1494 -0.0742
  166MOL0     H22884   6.244   9.253   1.398  0.8498 -1.5199 -0.5641
  166MOL0     H22885   6.296   9.406   1.334 -1.1902  0.1174  0.7771
  166MOL0     H22886   6.399   9.156   1.191  1.6213  1.4476 -3.5142
  166MOL0     H22887   6.489   9.265   1.295  1.2024  0.6981 -0.6493
  166MOL0     H22888   5.519   9.299   1.915 -1.6536  0.4080  4.4502
  166MOL0     H22889   5.283   9.373   1.987  1.5942 -2.2952 -0.8218
  166MOL0     H22890   5.024   9.794   2.194  0.6805  0.0724  0.2081
  166MOL0     H22891   4.805   9.909   2.212  0.2960 -0.4213  0.1164
  166MOL0     H22892   2.882   9.796   1.821  2.5025 -0.1495  0.2930
  166MOL0     H22893   2.667   9.852   1.697  0.7926 -0.1286  0.5050
  166MOL0     H22894   2.472  10.006   1.348 -0.8584  1.3274 -1.9258
  166MOL0     H22895   2.272  10.086   1.302 -0.9007 -0.1561 -2.7397
  166MOL0     H22896   2.057  10.086   1.309 -0.6261  0.1668  1.0096
  166MOL0     H22897   2.052  10.155   1.147 -1.3792  0.8310  1.1133
  166MOL0     H22898   1.851  10.198   1.206  0.9092 -0.1927  1.1469
  166MOL0     H22899   1.823  10.054   1.296 -2.0957  1.6763 -0.4442
  166MOL0     H22900   1.865  10.048   0.993  1.4203 -2.0784  0.3637
  166MOL0     H22901   1.799   9.917   1.080  7.5163  0.0823 -1.3653
  166MOL0     H22902   1.598  10.028   0.997 -3.5663  0.6367  3.3950
  166MOL0     H22903   1.667  10.192   1.031 -2.5255 -0.0500 -1.4332
  166MOL0     H22904   1.436  10.037   1.362  0.1957  0.2058  0.1361
  166MOL0     H22905   2.142   9.695   1.173  1.4790 -0.4053 -1.5870
  166MOL0     H22906   2.444   9.520   1.199 -1.8360  1.9822 -4.0372
  166MOL0     H22907   2.343   9.505   1.353  0.0944  0.8848  1.4224
  166MOL0     H22908   2.275   9.504   1.189  0.1867 -1.5801  0.9373
  167MOL0     O22909   9.502   7.257  10.208 -0.2174 -0.0286  0.2112
  167MOL0     C22910   9.483   7.158  10.273 -0.5470 -0.0549 -0.2225
  167MOL0     O22911   9.446   7.160  10.406  0.1296  0.2134 -0.2599
  167MOL0     C22912   9.466   7.274  10.476  0.6017  0.0014 -0.0269
  167MOL0     C22913   9.550   7.273  10.578 -1.1103 -0.6185  0.4506
  167MOL0     C22914   9.569   7.383  10.659  0.7092  0.6710  0.8572
  167MOL0     C22915   9.500   7.504  10.630 -0.5158  0.1710 -0.8238
  167MOL0     O22916   9.544   7.611  10.704  0.0310 -0.4947  0.2332
  167MOL0     C22917   9.507   7.749  10.665 -0.1853  0.0352 -0.0240
  167MOL0     C22918   9.602   7.854  10.738  0.9199  0.6433  0.1969
  167MOL0     C22919   9.751   7.861  10.672  0.2391  0.5878  0.1088
  167MOL0     C22920   9.849   7.962  10.746  0.0612  1.0591  0.1779
  167MOL0     C22921   9.997   7.946  10.700  0.6419 -0.6899  0.7152
  167MOL0     C22922  10.066   7.809  10.722  0.0507 -0.0811 -0.0376
  167MOL0     C22923  10.215   7.807  10.720 -0.1691  0.4234  0.0015
  167MOL0     C22924  10.278   7.682  10.782  0.6433  0.0318  0.0394
  167MOL0     N22925  10.399   7.659  10.717  0.6909  0.0014 -0.0560
  167MOL0     C22926  10.517   7.724  10.756 -0.1442 -0.5257 -0.4334
  167MOL0     C22927  10.615   7.644  10.714 -0.0180 -0.3815 -0.9113
  167MOL0     C22928  10.763   7.670  10.729 -0.6498 -0.1645  0.3705
  167MOL0     C22929  10.845   7.560  10.793 -0.4218 -0.3538 -0.2726
  167MOL0     C22930  10.789   7.541  10.940 -0.0432 -0.1704 -0.4483
  167MOL0     C22931  10.875   7.449  11.021 -0.0778 -0.2628  0.0844
  167MOL0     O22932  11.003   7.500  11.051  0.1516  0.7476 -0.3078
  167MOL0     C22933  11.091   7.416  11.111 -0.3145  0.9935  0.1985
  167MOL0     C22934  11.080   7.278  11.119  0.0006 -0.1187 -0.5681
  167MOL0     C22935  11.171   7.196  11.188  0.5301  0.0999 -0.2263
  167MOL0     C22936  11.134   7.041  11.187 -1.4564 -0.7386  0.2230
  167MOL0     C22937  11.286   7.250  11.238 -0.5231  0.2472 -0.6609
  167MOL0     C22938  11.389   7.169  11.307 -0.1580 -0.0400 -0.3149
  167MOL0     O22939  11.352   7.057  11.367 -0.6896 -0.0974  0.1358
  167MOL0     C22940  11.439   6.980  11.432  0.4403 -0.5603 -0.2867
  167MOL0     C22941  11.575   6.999  11.466  0.0059  1.1836  0.4538
  167MOL0     C22942  11.639   6.904  11.549  0.1437 -0.0027 -0.1725
  167MOL0     C22943  11.574   6.804  11.613 -0.4130  0.1060 -0.0369
  167MOL0     O22944  11.653   6.706  11.674 -0.2070  0.3830  0.2878
  167MOL0     C22945  11.622   6.570  11.672  0.3302 -0.1550  0.0944
  167MOL0     C22946  11.728   6.474  11.735 -0.1851 -0.0187  0.3655
  167MOL0     C22947  11.866   6.498  11.686 -0.8829 -0.1833 -0.2204
  167MOL0     C22948  11.972   6.425  11.772 -0.5734 -0.2162  0.2106
  167MOL0     C22949  12.124   6.450  11.738 -0.5014 -0.1003  0.8624
  167MOL0     C22950  12.177   6.583  11.778  0.1177 -0.3766  0.6200
  167MOL0     C22951  12.321   6.609  11.765  0.2920 -0.0852  0.0137
  167MOL0     C22952  12.353   6.754  11.745  0.3104 -0.4813  0.6455
  167MOL0    Cl22953  12.293   6.806  11.587  0.0294  0.8615 -0.2720
  167MOL0     C22954  11.438   6.798  11.596 -0.4571 -0.8433  0.7627
  167MOL0     C22955  11.370   6.872  11.500 -0.3553  0.0669  0.9350
  167MOL0     O22956  11.504   7.205  11.292  0.6748 -0.3492 -0.0935
  167MOL0     C22957  11.299   7.389  11.226 -0.6604 -0.4283  0.9822
  167MOL0     C22958  11.206   7.477  11.164  0.2086 -0.1033 -0.5853
  167MOL0     N22959  10.564   7.540  10.639  0.0867 -0.2486 -0.0146
  167MOL0     N22960  10.438   7.550  10.639  0.0184  0.4226  0.4904
  167MOL0     C22961   9.406   7.504  10.529  0.4102 -0.5169  0.4316
  167MOL0     C22962   9.382   7.383  10.452  0.4718 -0.9702  1.1209
  167MOL0     C22963   9.472   7.018  10.213  0.1699  0.1990 -0.9185
  167MOL0     C22964   9.452   6.907  10.299  0.2194 -0.2252 -0.6321
  167MOL0     C22965   9.461   6.770  10.251  0.2792  0.8396 -1.1521
  167MOL0     C22966   9.502   6.740  10.118 -0.2728 -0.8360  0.1599
  167MOL0     O22967   9.504   6.620  10.060  0.0743 -0.0548  0.0987
  167MOL0     C22968   9.441   6.511  10.125 -0.2618 -0.0205 -0.0328
  167MOL0     C22969   9.283   6.527  10.141 -0.5146 -0.1845 -0.2797
  167MOL0     C22970   9.221   6.531  10.000 -0.2213 -0.2741 -0.8524
  167MOL0     C22971   9.073   6.516  10.017  0.1463  0.6364  0.2049
  167MOL0     C22972   8.994   6.544   9.901  0.2980 -0.4901  0.9002
  167MOL0     C22973   8.942   6.573   9.791  0.6567  0.7313 -0.0030
  167MOL0     C22974   9.520   6.856  10.037 -0.9453  1.0637  0.1922
  167MOL0     C22975   9.495   6.987  10.076  0.1204 -0.1602  0.2340
  167MOL0     C22976   9.500   7.080   9.962 -0.1313 -0.2268  0.1429
  167MOL0     H22977   9.609   7.185  10.602 -0.1856 -0.1013  0.1230
  167MOL0     H22978   9.644   7.387  10.737  1.5850 -1.1753  0.1653
  167MOL0     H22979   9.406   7.768  10.702 -1.3632 -1.8514 -2.1169
  167MOL0     H22980   9.523   7.765  10.558  0.2036  0.6919  0.1219
  167MOL0     H22981   9.551   7.947  10.711 -1.6350 -0.6469  0.2744
  167MOL0     H22982   9.602   7.836  10.846  0.3376 -1.6543 -0.1238
  167MOL0     H22983   9.794   7.761  10.680  0.1755  0.5441 -0.0980
  167MOL0     H22984   9.735   7.896  10.569 -0.3348  4.4879  1.3452
  167MOL0     H22985   9.820   8.064  10.717 -1.5661  0.1220 -1.8159
  167MOL0     H22986   9.848   7.953  10.855  1.1407 -3.2879  0.0155
  167MOL0     H22987  10.055   8.019  10.759  0.2751 -0.3669  0.6812
  167MOL0     H22988  10.004   7.976  10.595 -4.4676 -0.6429  0.1396
  167MOL0     H22989  10.037   7.772  10.821  1.3565  0.4092  0.5512
  167MOL0     H22990  10.025   7.748  10.641 -2.2932  2.2121 -0.7261
  167MOL0     H22991  10.257   7.891  10.775 -2.9671  1.7956  0.2160
  167MOL0     H22992  10.240   7.808  10.613 -0.5451  0.7634 -0.0844
  167MOL0     H22993  10.296   7.689  10.889 -0.1931 -0.8974  0.2616
  167MOL0     H22994  10.208   7.601  10.760  1.7659 -0.9234 -0.0865
  167MOL0     H22995  10.539   7.807  10.823 -0.4248 -1.8706  1.4303
  167MOL0     H22996  10.790   7.756  10.791 -1.2566  0.5898 -0.3972
  167MOL0     H22997  10.802   7.701  10.632  1.6540  0.4860  1.4357
  167MOL0     H22998  10.838   7.467  10.736 -0.8509 -0.3945 -0.1631
  167MOL0     H22999  10.952   7.583  10.797  0.7445 -4.4660 -2.5535
  167MOL0     H23000  10.779   7.635  10.995 -1.8408  0.5911 -1.9795
  167MOL0     H23001  10.693   7.490  10.929 -0.3997  0.8057 -2.0919
  167MOL0     H23002  10.819   7.411  11.107 -0.8274 -0.5344 -0.5094
  167MOL0     H23003  10.894   7.360  10.961 -0.3395 -2.6419  3.3115
  167MOL0     H23004  10.993   7.236  11.070 -2.2507  2.8503  0.6005
  167MOL0     H23005  11.045   7.023  11.127 -0.5247 -0.7912 -1.1913
  167MOL0     H23006  11.113   7.009  11.289 -1.7467 -2.3034 -0.3035
  167MOL0     H23007  11.217   6.983  11.146  0.5907  0.1360  2.8532
  167MOL0     H23008  11.636   7.082  11.433  2.1875 -0.5534 -0.1735
  167MOL0     H23009  11.747   6.913  11.563 -0.1345  1.9393  1.2227
  167MOL0     H23010  11.524   6.564  11.720 -0.0890  2.6068 -0.2528
  167MOL0     H23011  11.613   6.544  11.567  2.9722 -0.9761  0.0089
  167MOL0     H23012  11.717   6.484  11.844 -2.7334  2.7721 -0.0220
  167MOL0     H23013  11.705   6.370  11.713  0.1006  0.0462 -0.2516
  167MOL0     H23014  11.893   6.604  11.694  0.3811 -0.4299 -0.9524
  167MOL0     H23015  11.876   6.456  11.585  2.0360 -1.1161  0.3350
  167MOL0     H23016  11.939   6.321  11.761  1.0853 -0.4800 -5.0940
  167MOL0     H23017  11.951   6.453  11.876 -0.2284  2.8685 -0.4463
  167MOL0     H23018  12.177   6.373  11.794 -0.9750 -0.6339  0.5928
  167MOL0     H23019  12.142   6.432  11.631 -1.8746 -1.0169  0.7646
  167MOL0     H23020  12.144   6.600  11.881  0.7137 -2.8870  1.3033
  167MOL0     H23021  12.111   6.645  11.716 -1.9651 -2.2565  0.8271
  167MOL0     H23022  12.368   6.548  11.687 -0.5453  0.3733 -0.8680
  167MOL0     H23023  12.375   6.585  11.857  0.2675  2.7888  0.8628
  167MOL0     H23024  12.461   6.758  11.759  0.3540 -2.0593  0.9500
  167MOL0     H23025  12.303   6.816  11.820 -0.3742  0.4112 -0.5074
  167MOL0     H23026  11.366   6.733  11.645 -0.4098 -2.0939 -0.7600
  167MOL0     H23027  11.267   6.844  11.478 -1.0773  2.7008  0.5636
  167MOL0     H23028  11.383   7.439  11.273 -0.9477  3.2939 -1.9427
  167MOL0     H23029  11.206   7.585  11.172  0.0904 -0.2031  1.4225
  167MOL0     H23030   9.341   7.591  10.530  0.9276 -0.0899 -0.8424
  167MOL0     H23031   9.302   7.377  10.379  2.3180  1.0827 -1.2399
  167MOL0     H23032   9.427   6.929  10.402 -1.5067  1.5313 -1.3576
  167MOL0     H23033   9.442   6.700  10.331 -0.4094  0.9436 -1.2208
  167MOL0     H23034   9.466   6.423  10.065 -0.4201  0.0718 -0.2373
  167MOL0     H23035   9.468   6.501  10.231 -1.8540  0.9869  0.5065
  167MOL0     H23036   9.250   6.616  10.195 -0.7052 -1.4323  1.7992
  167MOL0     H23037   9.235   6.445  10.196 -1.3144 -0.5210 -1.4541
  167MOL0     H23038   9.242   6.630   9.959 -0.6446 -0.4690 -1.5522
  167MOL0     H23039   9.268   6.457   9.935  3.4959  0.7235  0.4455
  167MOL0     H23040   9.038   6.587  10.092  0.4228  0.1576  0.7943
  167MOL0     H23041   9.052   6.411  10.042 -0.6531  0.2670 -1.8539
  167MOL0     H23042   8.899   6.596   9.696  0.6828 -0.8045 -0.4085
  167MOL0     H23043   9.563   6.831   9.941 -1.4240 -0.1087  0.2585
  167MOL0     H23044   9.600   7.123   9.957  1.2273 -2.5179  3.9112
  167MOL0     H23045   9.474   7.038   9.864 -0.6011  0.2191  0.0645
  167MOL0     H23046   9.422   7.155   9.981 -1.2678 -1.1845 -0.5752
  168MOL0     O23047   4.953   9.021  11.409 -0.9513 -0.3723  0.0435
  168MOL0     C23048   4.962   9.115  11.331 -0.6300  0.2082  0.8360
  168MOL0     O23049   5.066   9.134  11.239 -0.7190  0.2925 -0.1012
  168MOL0     C23050   5.162   9.032  11.230  0.0883 -0.5057 -0.0807
  168MOL0     C23051   5.143   8.915  11.150 -0.1930 -0.2050 -0.7253
  168MOL0     C23052   5.251   8.823  11.135  0.6646  0.2914  0.2111
  168MOL0     C23053   5.371   8.849  11.206 -0.2212 -0.4825 -0.4226
  168MOL0     O23054   5.492   8.772  11.201 -0.0849 -0.1936  0.2298
  168MOL0     C23055   5.494   8.663  11.108  0.5335 -0.4827  0.9862
  168MOL0     C23056   5.637   8.601  11.129  0.7161  0.5217 -0.3098
  168MOL0     C23057   5.636   8.467  11.057  0.2658 -0.0330  0.2334
  168MOL0     C23058   5.771   8.388  11.065  0.1199 -0.1629 -0.3282
  168MOL0     C23059   5.880   8.447  10.974  0.0695  0.1394 -0.8767
  168MOL0     C23060   6.009   8.364  10.972 -0.0813  0.7266  0.1721
  168MOL0     C23061   6.116   8.468  10.940 -0.3067  0.1048  0.6735
  168MOL0     C23062   6.249   8.410  10.897 -0.3411  0.0418 -0.0033
  168MOL0     N23063   6.336   8.517  10.854 -0.6859  0.0175  0.7815
  168MOL0     C23064   6.472   8.517  10.883 -0.5120  0.2193 -0.1815
  168MOL0     C23065   6.523   8.603  10.803 -0.9384  0.1458  0.4334
  168MOL0     C23066   6.677   8.616  10.775 -0.4830 -0.9411 -0.0459
  168MOL0     C23067   6.772   8.633  10.899 -0.3022  0.0494 -0.6021
  168MOL0     C23068   6.899   8.714  10.863 -0.3014 -0.3221 -0.3928
  168MOL0     C23069   7.005   8.707  10.975 -0.1818  0.2375 -0.8664
  168MOL0     O23070   7.100   8.815  10.954 -0.1003  0.1146  0.2340
  168MOL0     C23071   7.220   8.802  11.026 -0.2884 -0.7595  0.2377
  168MOL0     C23072   7.299   8.920  11.038  0.1502 -0.6361  0.4083
  168MOL0     C23073   7.415   8.942  11.118 -0.4122  0.4826  0.7657
  168MOL0     C23074   7.491   9.068  11.120  0.5038 -0.3709 -0.1935
  168MOL0     C23075   7.462   8.827  11.193 -0.3445  0.8082  0.4849
  168MOL0     C23076   7.579   8.820  11.289  0.5589  0.1370  0.2797
  168MOL0     O23077   7.584   8.699  11.361  0.7059 -0.5104 -0.3798
  168MOL0     C23078   7.707   8.641  11.383 -0.5743  0.2049  0.1237
  168MOL0     C23079   7.752   8.603  11.511  0.0797 -0.1647  0.3066
  168MOL0     C23080   7.876   8.545  11.528  1.4729  0.2275  0.6302
  168MOL0     C23081   7.963   8.524  11.420 -0.0268  0.0320 -0.2086
  168MOL0     O23082   8.074   8.453  11.441  0.3021 -0.2061 -0.2685
  168MOL0     C23083   8.167   8.425  11.330 -0.5190  0.1678 -0.9586
  168MOL0     C23084   8.300   8.386  11.392 -0.0581 -0.5102  0.2643
  168MOL0     C23085   8.403   8.351  11.281  0.8598  0.2477  0.3551
  168MOL0     C23086   8.528   8.313  11.351  0.6222  0.3190  0.2077
  168MOL0     C23087   8.640   8.286  11.260  0.7901  0.0608  0.8774
  168MOL0     C23088   8.765   8.294  11.340  0.9039 -1.5050 -1.0149
  168MOL0     C23089   8.885   8.264  11.268 -1.2177 -0.0366  0.0711
  168MOL0     C23090   9.005   8.253  11.369  1.1720  0.5298  0.5702
  168MOL0    Cl23091   9.166   8.221  11.286  0.2945 -0.1769  0.1515
  168MOL0     C23092   7.920   8.559  11.288 -0.6659 -0.4466  0.2420
  168MOL0     C23093   7.794   8.619  11.270 -0.0488  0.4005 -0.6210
  168MOL0     O23094   7.663   8.905  11.296 -0.3889 -0.8867  0.5248
  168MOL0     C23095   7.381   8.711  11.188 -0.3027  0.7268  0.3626
  168MOL0     C23096   7.272   8.700  11.093  1.0636 -0.6193  0.4606
  168MOL0     N23097   6.422   8.665  10.728  0.0025  0.3072  0.8768
  168MOL0     N23098   6.308   8.611  10.756  0.3565 -0.0209 -0.0687
  168MOL0     C23099   5.387   8.966  11.277 -0.1552  1.1475  0.1114
  168MOL0     C23100   5.283   9.058  11.287 -0.2342 -0.3888  0.3183
  168MOL0     C23101   4.847   9.205  11.323 -0.8502 -0.4239  0.2303
  168MOL0     C23102   4.824   9.248  11.194 -0.5346 -1.5164  0.7728
  168MOL0     C23103   4.707   9.328  11.173 -0.3468  0.9497  0.2140
  168MOL0     C23104   4.620   9.365  11.272  0.0516 -0.2444 -0.4219
  168MOL0     O23105   4.518   9.451  11.262 -1.2680  0.1340  0.0290
  168MOL0     C23106   4.390   9.387  11.264  0.5734  0.2107 -0.1779
  168MOL0     C23107   4.296   9.454  11.164  0.2139  0.0318 -0.3857
  168MOL0     C23108   4.340   9.418  11.018 -0.8641  0.3124 -0.8890
  168MOL0     C23109   4.225   9.426  10.921  0.7311  0.5898  0.0052
  168MOL0     C23110   4.136   9.315  10.956  0.5503 -0.0756 -0.7115
  168MOL0     C23111   4.070   9.225  10.981  0.2705  0.6966 -0.0812
  168MOL0     C23112   4.649   9.320  11.400 -0.3632 -0.3932 -0.2498
  168MOL0     C23113   4.763   9.249  11.426  1.2913  0.3444 -0.6529
  168MOL0     C23114   4.801   9.218  11.575  0.5478  0.0453  0.0440
  168MOL0     H23115   5.056   8.899  11.088 -0.5280  2.1686 -0.9454
  168MOL0     H23116   5.235   8.741  11.067  1.2887  0.9936 -0.8077
  168MOL0     H23117   5.484   8.695  11.004 -0.6577 -0.1135  1.2044
  168MOL0     H23118   5.414   8.592  11.133 -2.0345  2.6589  2.4948
  168MOL0     H23119   5.723   8.662  11.098  2.6878 -1.4987  0.9246
  168MOL0     H23120   5.646   8.583  11.236 -1.6900  0.4363 -0.0704
  168MOL0     H23121   5.558   8.403  11.100 -1.1402  2.0676  1.0041
  168MOL0     H23122   5.619   8.477  10.950 -1.4293 -2.6455  0.1766
  168MOL0     H23123   5.800   8.393  11.171  0.4778  0.3259 -0.4503
  168MOL0     H23124   5.758   8.281  11.044  0.2080 -0.1037 -0.6811
  168MOL0     H23125   5.903   8.542  11.024  0.6723 -0.5783  0.2410
  168MOL0     H23126   5.845   8.456  10.871 -2.8044 -3.4197 -0.3954
  168MOL0     H23127   6.025   8.316  11.069  0.3712  0.3284 -0.0956
  168MOL0     H23128   6.003   8.288  10.893  2.8314  3.9027 -3.4959
  168MOL0     H23129   6.133   8.529  11.030 -1.0085  1.2541  0.0457
  168MOL0     H23130   6.074   8.534  10.864 -0.0934  2.1210  2.2055
  168MOL0     H23131   6.297   8.352  10.976  1.3838  1.3954  0.0212
  168MOL0     H23132   6.232   8.341  10.814 -0.6410  0.1761 -0.0538
  168MOL0     H23133   6.538   8.453  10.940  0.9401  1.3791 -0.5180
  168MOL0     H23134   6.693   8.714  10.727 -2.0313 -0.6127  0.0630
  168MOL0     H23135   6.703   8.530  10.714 -0.7817 -1.3216  0.3604
  168MOL0     H23136   6.705   8.677  10.975  0.8466 -1.3864  1.3347
  168MOL0     H23137   6.806   8.536  10.935  0.6558 -0.4245 -2.6684
  168MOL0     H23138   6.939   8.673  10.770 -0.8563  0.5627 -1.0405
  168MOL0     H23139   6.872   8.819  10.847 -2.3071 -0.8065 -0.4417
  168MOL0     H23140   6.959   8.721  11.073 -1.2320  3.0818 -1.6468
  168MOL0     H23141   7.048   8.607  10.973 -0.8738 -0.1157  0.7532
  168MOL0     H23142   7.262   9.017  11.006  2.5599  0.1554 -0.1671
  168MOL0     H23143   7.463   9.141  11.043 -0.2563 -0.8203 -0.3512
  168MOL0     H23144   7.595   9.054  11.086 -0.5729 -4.0343 -2.6119
  168MOL0     H23145   7.498   9.098  11.225  0.8155 -1.5182  0.1265
  168MOL0     H23146   7.681   8.613  11.592  0.8038  0.1936  0.9109
  168MOL0     H23147   7.909   8.510  11.625 -1.8526  0.4708  1.9657
  168MOL0     H23148   8.130   8.353  11.257 -1.5329  1.7681 -2.0845
  168MOL0     H23149   8.184   8.515  11.269  0.1093  1.5442  1.1537
  168MOL0     H23150   8.336   8.473  11.448 -2.3355  1.2533 -0.8552
  168MOL0     H23151   8.288   8.303  11.462  4.0752 -0.3337  1.4266
  168MOL0     H23152   8.424   8.442  11.224  0.9363  2.1869  3.2421
  168MOL0     H23153   8.360   8.280  11.210 -0.1242  2.0728 -0.9718
  168MOL0     H23154   8.520   8.224  11.415 -1.0295  1.0713  1.1163
  168MOL0     H23155   8.562   8.392  11.418  1.0351  0.6578 -0.3917
  168MOL0     H23156   8.630   8.195  11.201 -2.1862  0.7405  0.1706
  168MOL0     H23157   8.643   8.363  11.183  0.6523 -3.5138 -3.0071
  168MOL0     H23158   8.752   8.229  11.426 -1.0642 -0.2973 -0.3297
  168MOL0     H23159   8.793   8.396  11.370 -1.1817 -1.4794  1.1418
  168MOL0     H23160   8.912   8.342  11.197 -1.4545 -0.2862 -0.2983
  168MOL0     H23161   8.870   8.169  11.216  2.8719 -0.0994 -1.2696
  168MOL0     H23162   8.973   8.170  11.433 -1.0421  0.5716 -0.3868
  168MOL0     H23163   9.013   8.332  11.445  0.3200 -1.3023  2.6691
  168MOL0     H23164   7.984   8.527  11.207 -1.1166 -3.3094  0.9020
  168MOL0     H23165   7.770   8.665  11.175 -2.1596 -1.5419 -1.1153
  168MOL0     H23166   7.406   8.621  11.244 -3.0777 -0.9402 -0.8752
  168MOL0     H23167   7.220   8.604  11.090  0.8464 -0.5674  1.7772
  168MOL0     H23168   5.483   8.996  11.316  0.2858  1.4960 -1.2049
  168MOL0     H23169   5.294   9.147  11.348 -0.0284 -0.3468  0.2193
  168MOL0     H23170   4.882   9.213  11.109 -0.2384 -1.0572  0.7816
  168MOL0     H23171   4.685   9.353  11.070  0.8661  1.0933 -0.0261
  168MOL0     H23172   4.395   9.281  11.240 -2.0326 -0.3422  1.2824
  168MOL0     H23173   4.350   9.399  11.366 -1.2332  0.1429 -0.8379
  168MOL0     H23174   4.300   9.561  11.183 -0.6126 -0.2387  1.5766
  168MOL0     H23175   4.194   9.420  11.186  1.2162 -2.4050  0.8825
  168MOL0     H23176   4.414   9.487  10.977 -2.1536  1.5579 -1.2391
  168MOL0     H23177   4.383   9.318  11.023  1.3950  1.1598 -2.0296
  168MOL0     H23178   4.270   9.420  10.821  0.3112  1.0448 -0.2152
  168MOL0     H23179   4.169   9.519  10.935  0.6478  0.6618 -0.7820
  168MOL0     H23180   4.023   9.130  10.995  0.8677  0.2658 -0.8620
  168MOL0     H23181   4.586   9.354  11.481 -0.9445  4.3969 -2.3541
  168MOL0     H23182   4.757   9.300  11.633  0.6036 -2.0725  3.3770
  168MOL0     H23183   4.773   9.118  11.610  0.8638  0.0076  0.2005
  168MOL0     H23184   4.910   9.225  11.586  0.4114  0.0266  1.6207
  169MOL0     O23185   2.328   9.473  10.089 -0.0336 -0.3610 -0.1846
  169MOL0     C23186   2.241   9.478   9.998 -0.7743 -0.1415  0.2010
  169MOL0     O23187   2.266   9.458   9.865 -0.0279  0.2541  0.2834
  169MOL0     C23188   2.380   9.397   9.823 -0.0142  1.2956  0.1823
  169MOL0     C23189   2.463   9.474   9.740 -0.1912  0.2642  0.4326
  169MOL0     C23190   2.579   9.417   9.691  0.4063 -0.2848 -0.9648
  169MOL0     C23191   2.626   9.292   9.726  0.2143 -0.6831 -0.1611
  169MOL0     O23192   2.744   9.234   9.682  0.0555 -0.2464 -0.4749
  169MOL0     C23193   2.803   9.273   9.559  0.7273  0.1061 -0.0420
  169MOL0     C23194   2.928   9.192   9.536 -0.4219  0.6595 -0.4496
  169MOL0     C23195   3.010   9.240   9.416 -0.2939  0.0503 -0.1449
  169MOL0     C23196   3.133   9.146   9.405 -0.1887 -0.4683 -0.2540
  169MOL0     C23197   3.232   9.189   9.307  0.2424 -0.2470  0.3448
  169MOL0     C23198   3.296   9.329   9.336  0.3728 -0.1919 -0.0952
  169MOL0     C23199   3.260   9.446   9.238 -0.5512 -0.2272  0.5779
  169MOL0     C23200   3.319   9.588   9.267 -0.5567  0.0729 -0.1964
  169MOL0     N23201   3.468   9.589   9.243  1.1546 -0.0257  0.1032
  169MOL0     C23202   3.528   9.594   9.123 -0.1042  0.7216  0.6055
  169MOL0     C23203   3.658   9.581   9.147 -0.9469 -0.0434  0.9794
  169MOL0     C23204   3.755   9.570   9.031  0.0761 -0.2761  0.1046
  169MOL0     C23205   3.787   9.712   8.990 -0.4957 -1.1460 -0.6892
  169MOL0     C23206   3.895   9.749   9.085  0.7395 -0.1242 -0.9783
  169MOL0     C23207   3.954   9.887   9.064 -0.0225  0.2257  0.5155
  169MOL0     O23208   4.059   9.912   9.155  0.4380  0.0645  0.0313
  169MOL0     C23209   4.189   9.874   9.125 -0.3743  0.6116 -1.0645
  169MOL0     C23210   4.244   9.805   9.016 -0.1229 -0.4430 -0.7403
  169MOL0     C23211   4.381   9.783   8.995 -0.1650  0.4180  0.2079
  169MOL0     C23212   4.430   9.693   8.881  0.3952 -0.1666 -0.4433
  169MOL0     C23213   4.476   9.837   9.087  0.5416  0.6979 -0.1088
  169MOL0     C23214   4.621   9.854   9.062 -0.7711 -0.6262  0.9844
  169MOL0     O23215   4.679   9.785   8.962  0.3383  0.4268  0.6103
  169MOL0     C23216   4.815   9.794   8.947 -0.4250 -0.6248  0.6758
  169MOL0     C23217   4.909   9.793   9.047  0.3664 -0.2507  0.0595
  169MOL0     C23218   5.047   9.808   9.017  0.5211  0.4309  0.0917
  169MOL0     C23219   5.093   9.841   8.895  0.4422 -0.2247  0.5689
  169MOL0     O23220   5.218   9.887   8.860 -0.1529  0.4411 -0.0426
  169MOL0     C23221   5.332   9.866   8.949 -0.0848  0.2465 -0.5144
  169MOL0     C23222   5.454   9.938   8.881 -0.6814 -1.1022  0.0618
  169MOL0     C23223   5.593   9.918   8.949  0.0629  0.7976 -0.7482
  169MOL0     C23224   5.647   9.774   8.917 -0.0486  0.5805  0.1122
  169MOL0     C23225   5.794   9.776   8.958 -0.4484 -0.2785  0.0965
  169MOL0     C23226   5.868   9.652   8.913 -0.4856 -0.1858 -0.7361
  169MOL0     C23227   6.016   9.618   8.955 -0.3095 -0.7746  0.1281
  169MOL0     C23228   6.128   9.725   8.926 -0.2763  0.2753  0.9241
  169MOL0    Cl23229   6.281   9.674   9.005 -0.2132  0.0563  0.1946
  169MOL0     C23230   5.000   9.840   8.788  1.0057 -0.8163  0.1794
  169MOL0     C23231   4.859   9.815   8.818 -0.4168  0.1644 -0.2172
  169MOL0     O23232   4.683   9.922   9.146 -0.0359 -0.3715  0.4544
  169MOL0     C23233   4.421   9.914   9.198 -0.6499  1.3248  0.7795
  169MOL0     C23234   4.282   9.919   9.212 -0.7412  0.3772 -0.0600
  169MOL0     N23235   3.680   9.572   9.280  0.5218  0.0793  0.5242
  169MOL0     N23236   3.561   9.569   9.335  0.7878 -0.4628  0.4627
  169MOL0     C23237   2.544   9.223   9.823 -0.6076 -0.7833 -0.3947
  169MOL0     C23238   2.420   9.273   9.869 -0.0113 -0.5039 -0.1457
  169MOL0     C23239   2.103   9.519  10.030 -0.1261  0.4529 -0.6814
  169MOL0     C23240   2.014   9.529   9.924 -0.3164 -0.2675  0.1635
  169MOL0     C23241   1.881   9.569   9.941 -0.1327  0.3203 -0.3313
  169MOL0     C23242   1.832   9.597  10.069 -0.5840  0.3736 -0.0831
  169MOL0     O23243   1.701   9.632  10.093 -0.6991 -0.5974  0.4584
  169MOL0     C23244   1.595   9.647   9.997  0.3389 -1.1443  0.8762
  169MOL0     C23245   1.622   9.781   9.928  0.2289 -0.7392  0.0659
  169MOL0     C23246   1.608   9.902  10.025  0.4337  0.2133  0.4118
  169MOL0     C23247   1.474   9.973  10.013 -0.5638 -0.5399  0.2714
  169MOL0     C23248   1.481  10.079   9.909 -0.2363 -0.0839  0.0774
  169MOL0     C23249   1.498  10.150   9.812 -0.6388  0.3261  0.3029
  169MOL0     C23250   1.919   9.590  10.174  0.7459 -0.5388 -0.6873
  169MOL0     C23251   2.052   9.542  10.163 -0.7640  0.0612 -0.8858
  169MOL0     C23252   2.138   9.532  10.295 -0.0543 -0.4097  0.1678
  169MOL0     H23253   2.436   9.574   9.706 -1.5305 -1.2994 -3.7115
  169MOL0     H23254   2.638   9.478   9.623  1.2661 -0.6165 -0.5345
  169MOL0     H23255   2.839   9.376   9.563  0.8615  0.1244 -1.2366
  169MOL0     H23256   2.729   9.255   9.480 -0.6661  0.4649  1.1372
  169MOL0     H23257   2.986   9.203   9.628  0.7504  1.4237 -1.2453
  169MOL0     H23258   2.899   9.087   9.529  1.0303  0.1629  0.6010
  169MOL0     H23259   2.947   9.235   9.327 -2.7173  2.6674  1.2565
  169MOL0     H23260   3.039   9.345   9.426 -0.5290  0.2820 -1.6715
  169MOL0     H23261   3.174   9.126   9.505 -2.9090  0.3017  1.0968
  169MOL0     H23262   3.096   9.049   9.371 -0.2345 -1.3320  2.1116
  169MOL0     H23263   3.188   9.192   9.207 -0.3927  0.7899  0.6267
  169MOL0     H23264   3.314   9.118   9.316 -1.6711 -2.4754  1.1890
  169MOL0     H23265   3.294   9.361   9.440  0.1642  1.7617 -0.6709
  169MOL0     H23266   3.402   9.309   9.319  0.9096  0.8218  1.8294
  169MOL0     H23267   3.152   9.460   9.246 -0.8512 -2.6590  1.3997
  169MOL0     H23268   3.285   9.426   9.133  2.4114 -1.5591  1.4307
  169MOL0     H23269   3.285   9.669   9.203  3.4710  0.4035 -2.2410
  169MOL0     H23270   3.296   9.605   9.373 -1.1619 -0.9875 -0.1412
  169MOL0     H23271   3.462   9.604   9.038  0.9167  0.3583 -0.2425
  169MOL0     H23272   3.706   9.513   8.952 -1.8500  2.0010 -0.4663
  169MOL0     H23273   3.847   9.517   9.057  1.0621  1.0503 -0.5327
  169MOL0     H23274   3.826   9.724   8.888 -0.1302  1.0076 -0.3443
  169MOL0     H23275   3.704   9.783   8.997  0.7745  0.3677 -0.3829
  169MOL0     H23276   3.852   9.757   9.185 -2.1814  0.3368 -2.1894
  169MOL0     H23277   3.977   9.676   9.086  0.1893 -0.7614 -1.8152
  169MOL0     H23278   3.995   9.902   8.963  1.9724 -1.2769  1.0387
  169MOL0     H23279   3.872   9.954   9.090 -0.0400  0.3968  0.0444
  169MOL0     H23280   4.190   9.778   8.926  0.5295  0.3506 -1.3860
  169MOL0     H23281   4.470   9.752   8.799 -2.9014  1.0063 -1.3553
  169MOL0     H23282   4.346   9.627   8.855  0.8422 -0.5621 -0.9182
  169MOL0     H23283   4.498   9.617   8.921 -1.4755 -1.6847  0.0223
  169MOL0     H23284   4.877   9.773   9.149 -2.4062  0.1497 -0.6759
  169MOL0     H23285   5.106   9.798   9.108  1.3318  0.8971 -0.3666
  169MOL0     H23286   5.306   9.906   9.048 -0.4627 -2.8624  0.7309
  169MOL0     H23287   5.364   9.762   8.959 -0.1685  0.3675  1.1613
  169MOL0     H23288   5.446   9.907   8.777 -0.4885 -2.3298  0.3891
  169MOL0     H23289   5.426  10.042   8.898 -1.8101 -1.8428  3.5304
  169MOL0     H23290   5.581   9.928   9.057  0.3372 -3.1497 -0.2050
  169MOL0     H23291   5.659   9.994   8.905  0.8203  1.1126  0.8562
  169MOL0     H23292   5.628   9.739   8.816 -2.3529  0.4033  0.5564
  169MOL0     H23293   5.599   9.700   8.983  1.8165 -4.0573 -3.1433
  169MOL0     H23294   5.847   9.859   8.908  0.4070 -1.0217 -0.2751
  169MOL0     H23295   5.815   9.792   9.064  1.5164 -0.8773 -0.1638
  169MOL0     H23296   5.863   9.639   8.805 -2.7217 -0.3456 -0.6531
  169MOL0     H23297   5.808   9.569   8.950 -1.0575 -0.8424 -2.9918
  169MOL0     H23298   6.035   9.521   8.907 -2.9688 -1.3836  0.1333
  169MOL0     H23299   6.007   9.592   9.061 -1.1817  0.5753  0.4040
  169MOL0     H23300   6.103   9.822   8.969  3.7482  0.5408  3.1613
  169MOL0     H23301   6.153   9.734   8.819 -0.8900  0.1753  0.7669
  169MOL0     H23302   5.030   9.857   8.685  5.6032 -2.6828  1.0014
  169MOL0     H23303   4.782   9.822   8.741 -2.2586  0.3037  1.5581
  169MOL0     H23304   4.478   9.966   9.275  0.4806  1.1437  0.0910
  169MOL0     H23305   4.234   9.969   9.295 -1.5198 -1.9634  0.9714
  169MOL0     H23306   2.585   9.132   9.864 -0.8922  0.6955  3.5259
  169MOL0     H23307   2.364   9.209   9.937 -2.7694  2.1494  0.2920
  169MOL0     H23308   2.046   9.493   9.826 -0.1542 -2.0518  0.8397
  169MOL0     H23309   1.823   9.573   9.849  0.5694 -1.1420 -0.8694
  169MOL0     H23310   1.600   9.571   9.918  0.8196  2.1994 -2.6280
  169MOL0     H23311   1.494   9.654  10.037 -0.2964  0.6092 -0.8394
  169MOL0     H23312   1.545   9.797   9.853 -1.3495  3.0618  2.2192
  169MOL0     H23313   1.720   9.788   9.880  1.2233  0.5227  2.1235
  169MOL0     H23314   1.613   9.853  10.122  1.1595 -0.0910  0.2297
  169MOL0     H23315   1.699   9.964  10.018  0.6870 -0.3436 -2.8122
  169MOL0     H23316   1.457  10.016  10.113  2.1667  0.6197  0.3173
  169MOL0     H23317   1.397   9.907   9.972  0.5245 -0.6517 -1.7177
  169MOL0     H23318   1.505  10.214   9.727 -2.1812  0.3048  0.1311
  169MOL0     H23319   1.892   9.630  10.272 -3.4448  0.6613 -2.1024
  169MOL0     H23320   2.081   9.559  10.385 -0.3107  0.5659 -0.2772
  169MOL0     H23321   2.196   9.441  10.312  2.0760  1.3560  3.6129
  169MOL0     H23322   2.215   9.609  10.286 -2.3725  1.8294 -2.2607
  170MOL0     O23323   9.469  11.090   3.920  0.3825 -0.5171  1.1018
  170MOL0     C23324   9.478  11.203   3.967  0.2024 -0.2628 -0.4113
  170MOL0     O23325   9.370  11.294   3.992 -0.8241 -0.3756  0.4583
  170MOL0     C23326   9.240  11.269   3.969  0.0980  1.0047  0.0415
  170MOL0     C23327   9.150  11.345   4.047  0.2882  0.2335 -0.8236
  170MOL0     C23328   9.012  11.325   4.017 -0.3263 -0.2415  0.2385
  170MOL0     C23329   8.960  11.227   3.930  0.4661 -0.6254  0.2501
  170MOL0     O23330   8.825  11.208   3.919 -0.0685 -0.2946  0.0601
  170MOL0     C23331   8.761  11.080   3.915 -0.1007  0.5545  0.5202
  170MOL0     C23332   8.616  11.075   3.975 -0.1150  0.1032 -0.1470
  170MOL0     C23333   8.525  11.175   3.901 -0.3066  0.5786 -0.4054
  170MOL0     C23334   8.395  11.200   3.969 -0.6061 -0.0725  0.1558
  170MOL0     C23335   8.292  11.258   3.875  0.1431  0.4478  0.5753
  170MOL0     C23336   8.329  11.384   3.784  0.1174  0.4127 -0.0436
  170MOL0     C23337   8.356  11.508   3.868 -0.1308 -0.8118 -0.4033
  170MOL0     C23338   8.406  11.632   3.796 -0.2264  0.2509 -0.4333
  170MOL0     N23339   8.515  11.603   3.706  0.7403  0.3677 -0.2519
  170MOL0     C23340   8.648  11.584   3.731  0.5850 -0.3511 -0.0415
  170MOL0     C23341   8.694  11.547   3.613 -0.1524  0.6157  0.7932
  170MOL0     C23342   8.834  11.524   3.572  0.5927 -0.2084  0.5318
  170MOL0     C23343   8.911  11.435   3.667  0.4676 -0.1012 -0.7205
  170MOL0     C23344   9.047  11.405   3.624 -0.5030 -0.2407  0.6396
  170MOL0     C23345   9.144  11.522   3.618 -0.0235  0.3512  0.3354
  170MOL0     O23346   9.161  11.567   3.748 -0.8573  0.0116 -0.4955
  170MOL0     C23347   9.292  11.607   3.778 -0.2378  0.4173  0.5659
  170MOL0     C23348   9.307  11.715   3.855  0.1391 -0.2724  0.3827
  170MOL0     C23349   9.427  11.759   3.915 -1.6581  0.8521  0.6667
  170MOL0     C23350   9.430  11.891   3.996 -0.5420  0.3132 -0.1226
  170MOL0     C23351   9.545  11.692   3.871  0.0696 -0.1091 -0.0946
  170MOL0     C23352   9.684  11.728   3.907 -0.3620  0.1332 -0.7737
  170MOL0     O23353   9.787  11.674   3.837  1.1050 -1.1157  0.3269
  170MOL0     C23354   9.899  11.755   3.839 -0.4467 -0.4114 -0.1185
  170MOL0     C23355   9.905  11.884   3.784 -0.1876 -0.2487  0.7285
  170MOL0     C23356  10.027  11.956   3.788 -0.2405 -1.5885  0.5061
  170MOL0     C23357  10.135  11.907   3.859 -1.1791 -0.6745 -0.2594
  170MOL0     O23358  10.264  11.960   3.858 -0.3715 -0.5631  0.1636
  170MOL0     C23359  10.305  12.059   3.761 -0.3719  0.5955  0.3174
  170MOL0     C23360  10.450  12.086   3.784 -0.2564 -0.1225  0.1822
  170MOL0     C23361  10.553  11.971   3.754  0.1848 -0.5342 -0.6948
  170MOL0     C23362  10.694  12.021   3.740 -0.0061 -0.0166 -0.3896
  170MOL0     C23363  10.799  11.904   3.747 -0.7475  0.4665 -0.5298
  170MOL0     C23364  10.920  11.933   3.659 -0.2758  0.4475 -0.0704
  170MOL0     C23365  10.987  12.068   3.701  0.3621  0.7089  0.5983
  170MOL0     C23366  11.042  12.079   3.837 -0.8812  0.8613 -0.2339
  170MOL0    Cl23367  11.121  12.246   3.853 -0.7386 -0.1898 -0.3824
  170MOL0     C23368  10.123  11.786   3.927 -0.5212 -0.1682  0.1126
  170MOL0     C23369  10.007  11.715   3.920 -0.3119  0.4599 -0.1260
  170MOL0     O23370   9.683  11.796   4.011 -1.1621  0.6261  0.0769
  170MOL0     C23371   9.531  11.576   3.793  0.4954  0.3624  0.4439
  170MOL0     C23372   9.408  11.527   3.757 -1.0927  0.4862  0.6712
  170MOL0     N23373   8.598  11.547   3.518  0.4973  0.5252  0.2508
  170MOL0     N23374   8.488  11.579   3.577 -0.2881  0.3572  0.3020
  170MOL0     C23375   9.059  11.151   3.863 -0.1085 -0.1205 -0.3895
  170MOL0     C23376   9.193  11.180   3.870  0.4027  0.4574 -0.4718
  170MOL0     C23377   9.626  11.247   3.983  0.5973 -0.3483  0.9007
  170MOL0     C23378   9.727  11.171   3.913 -0.6692 -0.0854 -0.1138
  170MOL0     C23379   9.870  11.198   3.917 -0.3993 -0.1509 -1.1435
  170MOL0     C23380   9.903  11.304   3.996  0.0353 -0.3272 -1.1556
  170MOL0     O23381  10.036  11.351   4.009  0.2807 -0.4253 -0.4448
  170MOL0     C23382  10.129  11.317   3.912 -0.7357 -0.4535 -0.3380
  170MOL0     C23383  10.264  11.385   3.939 -0.1437 -0.3685 -0.1365
  170MOL0     C23384  10.379  11.331   3.847 -0.3567  0.3351  0.0348
  170MOL0     C23385  10.468  11.444   3.804  0.0858  0.9655  0.0789
  170MOL0     C23386  10.516  11.531   3.914  0.2022 -0.6027  1.0030
  170MOL0     C23387  10.555  11.611   3.999  0.5744  0.3958  0.2639
  170MOL0     C23388   9.805  11.384   4.065  0.0782  0.4029 -1.0566
  170MOL0     C23389   9.669  11.353   4.066  0.1871  0.1387  0.3459
  170MOL0     C23390   9.578  11.431   4.158 -0.2185  0.6408  0.0292
  170MOL0     H23391   9.178  11.421   4.119  0.4000  1.4654 -2.1252
  170MOL0     H23392   8.941  11.384   4.074  0.3626 -0.8378  1.7714
  170MOL0     H23393   8.833  11.017   3.968 -0.2727  1.1719  1.5328
  170MOL0     H23394   8.746  11.059   3.809 -0.5811 -1.0813  0.8848
  170MOL0     H23395   8.572  10.974   3.968  1.1803 -0.5464  0.7308
  170MOL0     H23396   8.625  11.102   4.081  1.0862 -2.0638  0.3708
  170MOL0     H23397   8.575  11.269   3.877  1.2392 -0.2366 -0.4460
  170MOL0     H23398   8.510  11.126   3.805  1.6705 -0.7395 -0.0877
  170MOL0     H23399   8.364  11.106   4.017  1.5001 -0.3850  1.0205
  170MOL0     H23400   8.422  11.276   4.043 -0.7294 -0.3263  0.4704
  170MOL0     H23401   8.200  11.276   3.931 -0.0455 -0.9044  0.7467
  170MOL0     H23402   8.259  11.173   3.815 -2.2549  0.9475  1.0714
  170MOL0     H23403   8.421  11.365   3.729  0.5227  2.2043 -0.0262
  170MOL0     H23404   8.256  11.409   3.706 -0.3859 -0.8079  0.0130
  170MOL0     H23405   8.434  11.484   3.942 -1.5631 -0.0445  1.4185
  170MOL0     H23406   8.266  11.529   3.925 -0.6779 -1.9185 -0.8293
  170MOL0     H23407   8.328  11.679   3.736  1.1913  1.9106 -1.0948
  170MOL0     H23408   8.436  11.709   3.868 -2.7933  1.5768 -0.6784
  170MOL0     H23409   8.704  11.572   3.823 -0.7314  1.7884  1.1276
  170MOL0     H23410   8.880  11.623   3.574 -1.3411  0.7219  1.2753
  170MOL0     H23411   8.828  11.492   3.467 -2.9668  1.6482  0.0331
  170MOL0     H23412   8.911  11.475   3.769 -0.7105 -1.2679 -0.2398
  170MOL0     H23413   8.862  11.338   3.678 -1.3231  0.8784  0.3056
  170MOL0     H23414   9.091  11.323   3.682 -2.4225 -1.2054  0.8163
  170MOL0     H23415   9.047  11.370   3.521  0.1868  0.7238  0.2908
  170MOL0     H23416   9.235  11.486   3.569 -0.8370 -1.3314 -0.0101
  170MOL0     H23417   9.112  11.606   3.556 -0.0808 -1.4128 -2.1570
  170MOL0     H23418   9.213  11.766   3.875 -0.6879 -1.8418  0.6708
  170MOL0     H23419   9.329  11.931   4.006  0.7605  3.6395  1.0941
  170MOL0     H23420   9.487  11.970   3.945 -0.9639  1.3059  0.8971
  170MOL0     H23421   9.470  11.875   4.096  1.7696  0.0763 -1.0190
  170MOL0     H23422   9.814  11.918   3.736 -0.4968 -0.5109  1.1193
  170MOL0     H23423  10.024  12.051   3.735  0.7928  0.1191  3.2781
  170MOL0     H23424  10.289  12.030   3.657 -2.6027  2.7544 -0.0113
  170MOL0     H23425  10.262  12.157   3.780 -0.1883  0.9057 -0.7851
  170MOL0     H23426  10.486  12.181   3.744  0.5145 -0.1424  0.7854
  170MOL0     H23427  10.457  12.116   3.889 -1.0864  5.3358 -1.0197
  170MOL0     H23428  10.523  11.912   3.668  0.1835 -1.5626 -0.0037
  170MOL0     H23429  10.548  11.907   3.843  1.7096 -0.1998 -0.3468
  170MOL0     H23430  10.713  12.097   3.817  2.3339  1.8555 -2.6165
  170MOL0     H23431  10.695  12.064   3.639  1.7527 -2.0498 -1.3128
  170MOL0     H23432  10.832  11.881   3.849 -0.8020 -0.3052 -0.6805
  170MOL0     H23433  10.749  11.815   3.708  1.0859  0.0962 -2.2084
  170MOL0     H23434  10.902  11.952   3.553 -1.0215  1.1703  0.1801
  170MOL0     H23435  10.992  11.851   3.674 -1.6527 -0.6442  0.7659
  170MOL0     H23436  10.908  12.142   3.682 -2.6804 -1.8138  2.3462
  170MOL0     H23437  11.073  12.093   3.638 -0.9278  4.0382 -0.0689
  170MOL0     H23438  11.120  12.005   3.860 -4.2508 -1.9584  3.5448
  170MOL0     H23439  10.968  12.064   3.916  0.4694 -0.9918  0.7686
  170MOL0     H23440  10.212  11.764   3.985 -1.2506 -1.5271  0.7701
  170MOL0     H23441  10.011  11.622   3.976  3.6284  0.6908  0.2969
  170MOL0     H23442   9.619  11.514   3.783 -0.2125 -0.6495  0.4504
  170MOL0     H23443   9.410  11.430   3.709  0.0912  1.1660 -0.7237
  170MOL0     H23444   9.021  11.078   3.793 -2.0302  0.0047  0.4839
  170MOL0     H23445   9.255  11.134   3.794  2.3628 -0.3943  1.5373
  170MOL0     H23446   9.703  11.085   3.851 -0.3450 -1.3807  1.5062
  170MOL0     H23447   9.936  11.140   3.854 -0.5202 -1.0834 -0.4417
  170MOL0     H23448  10.142  11.209   3.907 -1.0649 -0.6626  2.0716
  170MOL0     H23449  10.088  11.361   3.821 -0.9497  1.7252  0.7309
  170MOL0     H23450  10.287  11.378   4.046 -3.6138  2.1937  1.0160
  170MOL0     H23451  10.241  11.492   3.933  2.8452  0.3214 -0.8351
  170MOL0     H23452  10.432  11.260   3.912 -0.1307  1.9558  1.7087
  170MOL0     H23453  10.335  11.280   3.761 -0.0889  0.3115 -0.0885
  170MOL0     H23454  10.415  11.502   3.728 -1.3029  3.5213  2.8114
  170MOL0     H23455  10.566  11.402   3.778  0.2036  1.1378  0.2469
  170MOL0     H23456  10.610  11.665   4.074 -0.7434  0.0845  1.4843
  170MOL0     H23457   9.837  11.464   4.131  0.8464  0.3724 -1.3835
  170MOL0     H23458   9.625  11.481   4.243 -1.8888 -0.7938  1.9097
  170MOL0     H23459   9.532  11.508   4.094 -2.4303 -0.8145 -0.2562
  170MOL0     H23460   9.492  11.373   4.193  0.2512 -0.1210 -0.0475
  171MOL0     O23461   1.207   1.771   3.859 -0.1515  0.0635 -0.1857
  171MOL0     C23462   1.087   1.771   3.826  0.0045  0.6163 -0.0448
  171MOL0     O23463   0.990   1.703   3.898  1.0549 -0.4376 -0.8171
  171MOL0     C23464   1.031   1.603   3.980  0.5722 -0.3320  0.0395
  171MOL0     C23465   1.097   1.496   3.930 -0.5363 -0.6053  0.6010
  171MOL0     C23466   1.139   1.396   4.017  0.7129 -0.1661  0.6306
  171MOL0     C23467   1.112   1.402   4.155  0.0135  0.9660 -0.6915
  171MOL0     O23468   1.155   1.301   4.242  0.3608 -0.1402  0.3067
  171MOL0     C23469   1.220   1.346   4.361  0.2529  0.0090  0.1208
  171MOL0     C23470   1.175   1.287   4.483  0.5801 -0.1270 -0.0805
  171MOL0     C23471   1.256   1.330   4.595  0.3443 -0.9637 -0.3431
  171MOL0     C23472   1.251   1.239   4.721 -1.1399  1.0205  0.1520
  171MOL0     C23473   1.313   1.315   4.841  0.3148 -0.3306  0.0340
  171MOL0     C23474   1.285   1.252   4.980  0.3023 -0.8873 -0.0649
  171MOL0     C23475   1.298   1.098   4.988  0.4612  0.9770 -0.3176
  171MOL0     C23476   1.432   1.043   5.021  0.3623  0.4389 -0.6216
  171MOL0     N23477   1.508   1.029   4.902 -0.7094 -0.4586  0.2039
  171MOL0     C23478   1.585   1.130   4.841 -0.5229  0.3460  0.5670
  171MOL0     C23479   1.660   1.055   4.754 -0.6027 -0.2660  0.8562
  171MOL0     C23480   1.777   1.104   4.661  0.8802 -1.1736  0.0983
  171MOL0     C23481   1.739   1.214   4.556  0.2177 -0.1974  1.5718
  171MOL0     C23482   1.608   1.196   4.483 -0.9732 -0.0567  0.1030
  171MOL0     C23483   1.607   1.107   4.373  0.1918 -0.6694  0.8944
  171MOL0     O23484   1.477   1.112   4.307 -0.4838 -0.0403 -0.8266
  171MOL0     C23485   1.372   1.028   4.340  0.7637  0.0283 -0.1083
  171MOL0     C23486   1.350   0.967   4.461  0.5123  0.2993 -0.5575
  171MOL0     C23487   1.229   0.902   4.493  0.9799 -1.1575  0.1378
  171MOL0     C23488   1.222   0.833   4.626  0.0235 -0.5167 -0.2331
  171MOL0     C23489   1.127   0.899   4.391 -0.0540 -0.4029 -0.2597
  171MOL0     C23490   0.990   0.850   4.406  0.3999 -0.1544 -0.3684
  171MOL0     O23491   0.896   0.907   4.323 -0.2886  0.1805  0.4199
  171MOL0     C23492   0.769   0.848   4.317  0.1582 -0.1391  0.0182
  171MOL0     C23493   0.716   0.838   4.190  0.2187  0.0783  0.2695
  171MOL0     C23494   0.576   0.810   4.186 -0.6328 -0.1409  0.1112
  171MOL0     C23495   0.492   0.790   4.305  0.4957  0.2942  0.4672
  171MOL0     O23496   0.353   0.792   4.301 -0.5399  0.6219  0.7459
  171MOL0     C23497   0.286   0.784   4.168  0.2794  0.7330 -0.6334
  171MOL0     C23498   0.127   0.774   4.188  0.2668  0.5136  0.3018
  171MOL0     C23499   0.045   0.900   4.223 -0.0399  0.0102  1.4308
  171MOL0     C23500   0.026   0.995   4.101 -0.3001  0.2900 -1.4208
  171MOL0     C23501  -0.075   1.108   4.146  0.7793  0.2755  0.0960
  171MOL0     C23502  -0.219   1.045   4.171  0.0326  0.8463  0.1936
  171MOL0     C23503  -0.325   1.149   4.152  0.0331 -0.4312 -0.6802
  171MOL0     C23504  -0.395   1.145   4.020  0.1523 -0.3919 -0.3562
  171MOL0    Cl23505  -0.503   1.283   4.015 -0.0127  0.1638 -0.0197
  171MOL0     C23506   0.560   0.776   4.424  0.0968 -0.3683 -0.6193
  171MOL0     C23507   0.693   0.823   4.428 -0.2062  0.5096  0.0986
  171MOL0     O23508   0.965   0.765   4.486 -0.1417 -0.1261  0.0874
  171MOL0     C23509   1.154   0.954   4.264 -0.5238 -0.1677  0.3038
  171MOL0     C23510   1.278   1.017   4.240 -0.1271 -0.5792 -1.1122
  171MOL0     N23511   1.610   0.929   4.742  0.7347  0.0894 -0.7928
  171MOL0     N23512   1.521   0.912   4.834 -0.8937  0.1162  0.0171
  171MOL0     C23513   1.035   1.505   4.201  0.9123 -1.0464 -0.4305
  171MOL0     C23514   0.993   1.611   4.107 -0.3265  0.5065 -0.6834
  171MOL0     C23515   1.038   1.842   3.706 -0.9145  1.1129 -1.0327
  171MOL0     C23516   0.917   1.808   3.652 -0.8150 -0.0642  0.2109
  171MOL0     C23517   0.868   1.864   3.535 -0.4516 -0.1179  0.2807
  171MOL0     C23518   0.947   1.955   3.458  0.2052 -1.2498 -0.2011
  171MOL0     O23519   0.917   2.003   3.335 -0.4386 -0.4333  0.3339
  171MOL0     C23520   0.800   1.953   3.262  0.7371  0.0696 -0.8724
  171MOL0     C23521   0.813   1.811   3.199 -0.9262 -0.5061 -0.3442
  171MOL0     C23522   0.681   1.764   3.128  0.3770 -0.4039 -1.0694
  171MOL0     C23523   0.691   1.616   3.087 -0.1007  0.4744  0.5629
  171MOL0     C23524   0.559   1.572   3.038  0.6175  0.1987 -0.0145
  171MOL0     C23525   0.451   1.522   3.008  0.1473 -0.0380  0.0395
  171MOL0     C23526   1.066   1.993   3.521 -0.4115 -0.0769 -0.9537
  171MOL0     C23527   1.107   1.947   3.644  0.4743 -0.6674  0.0346
  171MOL0     C23528   1.229   2.006   3.705  0.2174 -0.2828 -0.6690
  171MOL0     H23529   1.115   1.496   3.823 -0.5657  6.3705  0.1230
  171MOL0     H23530   1.200   1.312   3.989 -0.3477 -0.6097 -0.4253
  171MOL0     H23531   1.204   1.454   4.370  0.3195  0.0268  0.0299
  171MOL0     H23532   1.328   1.334   4.350  0.5720  3.4403 -2.5616
  171MOL0     H23533   1.072   1.321   4.500  1.2355  1.7918  0.3029
  171MOL0     H23534   1.191   1.179   4.474  1.1776 -0.0061 -0.5773
  171MOL0     H23535   1.360   1.338   4.564  0.5651 -1.8523  0.1402
  171MOL0     H23536   1.220   1.427   4.633 -0.0723 -1.5077  0.7109
  171MOL0     H23537   1.146   1.207   4.730 -1.0601  0.8316  0.4080
  171MOL0     H23538   1.318   1.159   4.688 -2.0025  0.5798 -0.5937
  171MOL0     H23539   1.273   1.417   4.844 -1.9885 -1.1742  0.3952
  171MOL0     H23540   1.420   1.332   4.829 -0.1781  2.8304 -0.6556
  171MOL0     H23541   1.362   1.299   5.043  0.4485  0.1036 -0.9542
  171MOL0     H23542   1.188   1.281   5.020  1.0953 -0.0077  1.3330
  171MOL0     H23543   1.273   1.060   4.888 -0.0031  1.2973 -0.3263
  171MOL0     H23544   1.223   1.056   5.055  0.9800 -2.0675 -1.4872
  171MOL0     H23545   1.484   1.101   5.098 -1.4086 -0.4175  1.3244
  171MOL0     H23546   1.410   0.941   5.057 -0.0952  1.2732  1.6708
  171MOL0     H23547   1.589   1.234   4.870 -3.0649  0.8425 -0.6777
  171MOL0     H23548   1.812   1.015   4.608  3.2089 -0.1521 -0.2425
  171MOL0     H23549   1.859   1.142   4.723  2.6250 -2.6575 -1.1663
  171MOL0     H23550   1.737   1.304   4.617 -2.2853  1.9430 -1.3653
  171MOL0     H23551   1.820   1.219   4.482  0.8201  3.2907  2.3071
  171MOL0     H23552   1.520   1.178   4.546 -0.7151 -0.6167  0.3022
  171MOL0     H23553   1.595   1.292   4.432 -1.2663 -0.1019  0.0915
  171MOL0     H23554   1.679   1.138   4.297 -2.8268  0.4672 -1.7551
  171MOL0     H23555   1.628   1.007   4.412  3.5137 -1.0934 -1.5912
  171MOL0     H23556   1.421   0.981   4.541  0.7878  0.2315 -0.7902
  171MOL0     H23557   1.189   0.731   4.605 -2.0654 -0.5493  2.6262
  171MOL0     H23558   1.148   0.879   4.693  1.0283  0.7152  0.0666
  171MOL0     H23559   1.318   0.831   4.679  0.5133 -1.8627 -1.1341
  171MOL0     H23560   0.775   0.856   4.101  1.5034  0.8395  1.2525
  171MOL0     H23561   0.523   0.816   4.092 -0.8435 -0.5433  0.2049
  171MOL0     H23562   0.296   0.878   4.113 -0.5240  1.2077  0.0167
  171MOL0     H23563   0.323   0.694   4.117  0.0155 -1.3218  2.5051
  171MOL0     H23564   0.083   0.731   4.098 -1.9050 -1.0610  2.0097
  171MOL0     H23565   0.114   0.708   4.274 -2.6459 -3.1805 -2.5893
  171MOL0     H23566   0.093   0.961   4.300 -0.8139  0.2776  1.7172
  171MOL0     H23567  -0.053   0.869   4.261 -0.8510  0.9856  0.1714
  171MOL0     H23568  -0.001   0.954   4.003 -1.6711 -0.7861 -0.6221
  171MOL0     H23569   0.123   1.038   4.075  1.8941 -3.2267  0.1226
  171MOL0     H23570  -0.039   1.161   4.235 -0.3243  0.0959  0.6650
  171MOL0     H23571  -0.065   1.182   4.066 -1.4998  0.5104 -0.0120
  171MOL0     H23572  -0.228   1.002   4.271  0.4996 -1.5238 -0.7276
  171MOL0     H23573  -0.238   0.958   4.107 -1.9740  1.3160  0.0555
  171MOL0     H23574  -0.290   1.253   4.152  0.1966 -0.2766 -5.1592
  171MOL0     H23575  -0.390   1.148   4.239  0.2566 -0.1616 -0.5055
  171MOL0     H23576  -0.457   1.055   4.024  0.0392 -0.2715  1.2513
  171MOL0     H23577  -0.324   1.142   3.937 -0.4268 -2.4791 -0.8378
  171MOL0     H23578   0.507   0.751   4.516 -0.7263  0.5543 -0.8243
  171MOL0     H23579   0.740   0.832   4.526  0.1811  0.7725 -0.1068
  171MOL0     H23580   1.083   0.945   4.183 -3.0944 -1.0041  2.4672
  171MOL0     H23581   1.277   1.059   4.140 -2.8360 -2.0392 -1.8259
  171MOL0     H23582   1.014   1.525   4.305  0.1826  2.8231 -1.1317
  171MOL0     H23583   0.930   1.698   4.125 -3.0365 -1.9171  3.0533
  171MOL0     H23584   0.858   1.721   3.678 -1.1628 -1.4704 -4.3009
  171MOL0     H23585   0.770   1.838   3.495 -0.9198  0.4301  1.0512
  171MOL0     H23586   0.718   1.941   3.333  0.4514 -2.9244 -1.5619
  171MOL0     H23587   0.767   2.020   3.182  1.1701 -0.7013 -1.7188
  171MOL0     H23588   0.841   1.735   3.273  0.6702  0.9323  0.6302
  171MOL0     H23589   0.893   1.801   3.125 -1.3972 -4.2414 -0.5426
  171MOL0     H23590   0.598   1.779   3.198 -1.7683 -0.5148 -3.4612
  171MOL0     H23591   0.652   1.823   3.041  1.4453 -2.3833 -2.8553
  171MOL0     H23592   0.728   1.559   3.173 -1.3977 -1.3050 -0.0012
  171MOL0     H23593   0.765   1.604   3.007  0.4811  0.1643  1.1398
  171MOL0     H23594   0.351   1.486   2.994  0.3201 -0.4924 -0.0445
  171MOL0     H23595   1.125   2.072   3.475  0.0848  0.6174  0.8141
  171MOL0     H23596   1.237   2.113   3.682 -0.7457 -0.1612 -0.4789
  171MOL0     H23597   1.228   1.997   3.813  0.4643  2.8931 -0.3045
  171MOL0     H23598   1.318   1.953   3.669  1.6558 -0.9879  3.4171
  172MOL0     O23599   8.371   0.403  11.231  0.2280 -0.4529  0.1224
  172MOL0     C23600   8.299   0.496  11.265  0.0906  0.6029  0.6719
  172MOL0     O23601   8.325   0.588  11.356 -0.4809 -0.1341 -0.5043
  172MOL0     C23602   8.429   0.569  11.441 -0.3207 -0.3350  0.6092
  172MOL0     C23603   8.537   0.657  11.434  0.9282 -0.1710  0.5849
  172MOL0     C23604   8.650   0.642  11.515 -0.1223  0.9142 -0.0233
  172MOL0     C23605   8.647   0.533  11.609 -0.2746  0.6935  0.7264
  172MOL0     O23606   8.748   0.518  11.692 -0.5218 -0.3774 -0.1720
  172MOL0     C23607   8.742   0.593  11.814 -0.7988 -0.4166 -0.1533
  172MOL0     C23608   8.648   0.539  11.908 -0.1249  0.2902 -0.2587
  172MOL0     C23609   8.628   0.637  12.026 -0.9590  0.3151 -0.3795
  172MOL0     C23610   8.505   0.589  12.113  0.7856  0.1798  0.4629
  172MOL0     C23611   8.520   0.448  12.175 -0.5638 -1.5149 -0.6240
  172MOL0     C23612   8.448   0.438  12.310  0.1090 -0.4719 -0.3904
  172MOL0     C23613   8.432   0.286  12.338  0.5074  0.3686  0.0067
  172MOL0     C23614   8.369   0.266  12.476 -0.0464  0.9774  0.5723
  172MOL0     N23615   8.466   0.273  12.581  0.0399 -0.0951 -0.5289
  172MOL0     C23616   8.553   0.173  12.616 -0.5532 -0.3161  0.0772
  172MOL0     C23617   8.636   0.226  12.707 -0.2513 -0.2672 -0.0221
  172MOL0     C23618   8.748   0.152  12.777  0.0821  0.0188  0.3555
  172MOL0     C23619   8.885   0.211  12.757  0.0600  0.6863 -0.0711
  172MOL0     C23620   8.985   0.128  12.846 -0.6728 -0.6268  0.0377
  172MOL0     C23621   9.035   0.012  12.757 -0.3893 -0.8219 -0.2034
  172MOL0     O23622   9.127   0.050  12.651  0.0091 -0.0179 -0.9345
  172MOL0     C23623   9.259   0.065  12.677  0.0028 -0.3345 -0.1797
  172MOL0     C23624   9.326   0.156  12.602 -1.1678  0.7230 -1.0860
  172MOL0     C23625   9.469   0.163  12.602  0.7374 -0.2039  0.1365
  172MOL0     C23626   9.525   0.265  12.494 -0.1251  0.3747  0.1531
  172MOL0     C23627   9.543   0.081  12.692 -0.2985 -0.5011 -0.9430
  172MOL0     C23628   9.697   0.086  12.716  0.9750  0.8935 -0.2023
  172MOL0     O23629   9.747   0.007  12.821 -0.7334  0.6834 -0.0488
  172MOL0     C23630   9.888  -0.011  12.822 -0.4570  0.0561 -0.2472
  172MOL0     C23631   9.990   0.022  12.729  0.0620 -0.2728  0.1665
  172MOL0     C23632  10.128   0.008  12.770  0.0680  0.2112 -0.2187
  172MOL0     C23633  10.170  -0.040  12.896 -0.6164 -0.4888 -0.1165
  172MOL0     O23634  10.307  -0.063  12.913 -0.0869  0.5746 -1.1186
  172MOL0     C23635  10.347  -0.134  13.035  0.0921  0.2222  0.0288
  172MOL0     C23636  10.497  -0.128  13.047  0.4140 -0.0645  0.6258
  172MOL0     C23637  10.550  -0.001  13.110 -0.7544  0.4247 -0.2744
  172MOL0     C23638  10.701  -0.020  13.140  0.1311  0.1435  0.2226
  172MOL0     C23639  10.762   0.095  13.214  0.8320  0.7186  0.5309
  172MOL0     C23640  10.913   0.107  13.199  0.2998  1.2445  0.3906
  172MOL0     C23641  10.974  -0.008  13.266  0.3161 -0.9047 -1.0363
  172MOL0     C23642  11.121  -0.034  13.231  0.8318  0.2789 -0.1227
  172MOL0    Cl23643  11.234   0.100  13.239 -0.2567 -0.3325  0.2528
  172MOL0     C23644  10.066  -0.064  12.992 -0.2099  0.1919 -0.1591
  172MOL0     C23645   9.930  -0.052  12.950  0.3205  0.0616  0.0601
  172MOL0     O23646   9.756   0.156  12.637  0.0569  0.4734 -0.0002
  172MOL0     C23647   9.470  -0.000  12.776 -1.1569 -0.3178  0.7135
  172MOL0     C23648   9.330  -0.013  12.771  0.0533 -0.9302 -0.1112
  172MOL0     N23649   8.611   0.363  12.709 -0.1301  0.0062 -0.1945
  172MOL0     N23650   8.508   0.394  12.636  0.3841  0.6042 -0.1034
  172MOL0     C23651   8.533   0.449  11.622  0.1412  0.4828 -0.9970
  172MOL0     C23652   8.430   0.466  11.539 -0.0517 -0.5585  0.9628
  172MOL0     C23653   8.181   0.510  11.174  0.6948 -0.8538 -0.1385
  172MOL0     C23654   8.205   0.488  11.034 -0.0835 -0.6556 -1.0535
  172MOL0     C23655   8.095   0.502  10.950  0.3435  0.8514  0.6883
  172MOL0     C23656   7.971   0.544  11.000  0.6156  1.3187 -0.0824
  172MOL0     O23657   7.881   0.562  10.900 -0.3735 -0.1447  0.3124
  172MOL0     C23658   7.736   0.575  10.924  0.4377  0.3054  0.0458
  172MOL0     C23659   7.672   0.572  10.790 -0.6103 -0.2494  0.4580
  172MOL0     C23660   7.537   0.645  10.799 -0.6448 -0.0268  0.3516
  172MOL0     C23661   7.423   0.568  10.879  0.5863 -0.1679  0.4285
  172MOL0     C23662   7.439   0.595  11.019 -0.2188 -0.3438  0.3911
  172MOL0     C23663   7.454   0.614  11.140  0.0221 -0.0014 -0.0004
  172MOL0     C23664   7.950   0.566  11.135 -0.5722  0.1940  0.1801
  172MOL0     C23665   8.053   0.545  11.229  0.0898  0.3221 -0.2159
  172MOL0     C23666   8.025   0.574  11.380  0.3982  0.8311  0.6581
  172MOL0     H23667   8.525   0.736  11.360 -2.2630  1.8225  2.9406
  172MOL0     H23668   8.730   0.715  11.521 -2.0374  3.1181  0.1896
  172MOL0     H23669   8.721   0.697  11.787 -2.0270 -0.0451  2.0268
  172MOL0     H23670   8.842   0.588  11.857  0.0731 -1.4621 -2.1350
  172MOL0     H23671   8.548   0.516  11.870 -0.2285  0.5701 -0.1570
  172MOL0     H23672   8.696   0.450  11.949  3.1866  1.0981 -2.0038
  172MOL0     H23673   8.716   0.643  12.090  0.4976  0.8364 -2.3625
  172MOL0     H23674   8.606   0.738  11.991  1.5221  0.7766 -0.7633
  172MOL0     H23675   8.495   0.647  12.205 -1.4233 -2.6333  2.1740
  172MOL0     H23676   8.413   0.588  12.054  1.8595 -0.9553 -1.2802
  172MOL0     H23677   8.625   0.429  12.201 -0.1727  0.0858 -0.9287
  172MOL0     H23678   8.498   0.375  12.097  0.5099  0.0032 -2.4290
  172MOL0     H23679   8.502   0.484  12.393 -1.3510 -0.3029  0.5072
  172MOL0     H23680   8.351   0.489  12.309 -0.4608 -1.5187 -2.4204
  172MOL0     H23681   8.526   0.232  12.334  0.7219  0.8195 -1.4439
  172MOL0     H23682   8.369   0.252  12.255  0.7654 -1.8084  0.6418
  172MOL0     H23683   8.291   0.337  12.504 -1.4826 -0.1277 -0.5345
  172MOL0     H23684   8.323   0.167  12.471  0.0229  0.9745 -0.0388
  172MOL0     H23685   8.551   0.072  12.576 -0.5959 -0.8020  1.2447
  172MOL0     H23686   8.730   0.050  12.740 -0.1176  0.2812 -0.2854
  172MOL0     H23687   8.725   0.149  12.884  1.7375 -1.3999  0.7227
  172MOL0     H23688   8.926   0.211  12.656 -0.8448 -1.5665 -0.4893
  172MOL0     H23689   8.899   0.312  12.798  2.5695  0.2385  0.3482
  172MOL0     H23690   9.071   0.182  12.886 -0.7246 -0.7115  0.2689
  172MOL0     H23691   8.933   0.087  12.933 -2.7189 -0.0415 -0.8364
  172MOL0     H23692   9.088  -0.061  12.820  1.8522  1.0380  0.2307
  172MOL0     H23693   8.951  -0.036  12.707 -0.3509 -0.2499 -0.8390
  172MOL0     H23694   9.272   0.211  12.525 -3.6494 -2.4716 -1.8775
  172MOL0     H23695   9.606   0.218  12.437 -0.2015  0.3564  0.0599
  172MOL0     H23696   9.573   0.356  12.531 -1.4229  1.8047 -1.5101
  172MOL0     H23697   9.440   0.301  12.436 -1.3864 -2.9024 -0.2645
  172MOL0     H23698   9.976   0.057  12.627  0.7416  0.5207  0.3326
  172MOL0     H23699  10.201   0.021  12.691 -2.5371 -0.0236 -2.8658
  172MOL0     H23700  10.301  -0.082  13.119 -1.6088 -0.4098 -0.4683
  172MOL0     H23701  10.319  -0.240  13.028  2.7038 -0.4948 -0.7710
  172MOL0     H23702  10.543  -0.210  13.103  2.2221  1.2507  1.1803
  172MOL0     H23703  10.545  -0.136  12.949  1.2500 -2.1906  1.1484
  172MOL0     H23704  10.500   0.024  13.204 -2.4468 -0.1245 -0.9803
  172MOL0     H23705  10.526   0.071  13.032 -0.4223  1.8587  0.8933
  172MOL0     H23706  10.744  -0.033  13.041 -3.5398  2.4098 -1.9260
  172MOL0     H23707  10.714  -0.103  13.210 -1.6068 -0.4704 -0.1474
  172MOL0     H23708  10.720   0.189  13.176  1.1364  0.2223 -1.1336
  172MOL0     H23709  10.731   0.079  13.318 -0.1183  0.9728  0.2999
  172MOL0     H23710  10.947   0.202  13.241  0.1691  1.6099 -0.3145
  172MOL0     H23711  10.936   0.096  13.092 -0.4804  0.0832  0.3280
  172MOL0     H23712  10.920  -0.099  13.237  0.9930 -1.6797  0.0713
  172MOL0     H23713  10.960   0.012  13.373 -3.1297  2.4977 -1.9000
  172MOL0     H23714  11.124  -0.069  13.128 -0.0510  1.7281 -0.6762
  172MOL0     H23715  11.157  -0.113  13.297 -0.5192 -0.7923 -0.6318
  172MOL0     H23716  10.086  -0.091  13.095 -0.5458  0.2108 -0.0888
  172MOL0     H23717   9.849  -0.065  13.022  1.8170 -2.3787  1.4660
  172MOL0     H23718   9.527  -0.076  12.829  1.0362  0.4820 -0.4238
  172MOL0     H23719   9.284  -0.093  12.828 -1.7744  1.5213  2.0821
  172MOL0     H23720   8.531   0.375  11.701 -2.1454  0.6677 -0.8392
  172MOL0     H23721   8.349   0.397  11.563  0.2148 -0.2550  2.9025
  172MOL0     H23722   8.303   0.472  10.989  0.0725  1.1398 -1.4284
  172MOL0     H23723   8.098   0.484  10.843 -4.1374  0.9065  0.3705
  172MOL0     H23724   7.702   0.509  11.004 -1.8408  0.7953 -0.4382
  172MOL0     H23725   7.709   0.673  10.965  0.6190  0.1831  0.4582
  172MOL0     H23726   7.659   0.471  10.752 -1.2830  1.0645 -3.1319
  172MOL0     H23727   7.741   0.629  10.728  0.3829  2.6990  3.9005
  172MOL0     H23728   7.543   0.748  10.835 -0.5704 -0.1930  0.8145
  172MOL0     H23729   7.495   0.648  10.698 -1.1479  1.2164  0.5790
  172MOL0     H23730   7.424   0.459  10.866  2.9302 -0.4535  2.2173
  172MOL0     H23731   7.326   0.598  10.839  1.3080 -0.5296 -1.7426
  172MOL0     H23732   7.484   0.595  11.241  0.2879 -3.1614 -0.5724
  172MOL0     H23733   7.848   0.592  11.165 -1.2705  1.8829 -3.1805
  172MOL0     H23734   7.975   0.670  11.391 -3.1500 -0.7917  0.0597
  172MOL0     H23735   7.945   0.506  11.412  0.9479 -0.3428 -0.3818
  172MOL0     H23736   8.114   0.576  11.443  0.3534  2.0162  0.6958
  173MOL0     O23737   8.523   3.974   9.432 -0.6263  0.1437 -0.1575
  173MOL0     C23738   8.568   3.960   9.316  0.1732 -0.4239 -0.4979
  173MOL0     O23739   8.698   3.908   9.291  0.0241  0.1647  0.1112
  173MOL0     C23740   8.772   3.862   9.404 -0.0347  0.5648  0.4279
  173MOL0     C23741   8.901   3.897   9.419 -0.2871 -0.6622  0.1884
  173MOL0     C23742   8.981   3.844   9.515  0.4853 -1.0917 -0.1126
  173MOL0     C23743   8.934   3.738   9.595  0.1664  0.1343 -0.0363
  173MOL0     O23744   9.011   3.676   9.691  0.7998  0.5078 -0.0232
  173MOL0     C23745   9.125   3.744   9.747 -0.4868  0.8437  0.3940
  173MOL0     C23746   9.147   3.670   9.877  0.3422  0.3147  0.6230
  173MOL0     C23747   9.177   3.520   9.867 -0.2277  0.7374 -0.3082
  173MOL0     C23748   9.293   3.478   9.781 -0.0736 -0.2509  0.2979
  173MOL0     C23749   9.349   3.341   9.827 -0.4640 -0.5006 -0.0245
  173MOL0     C23750   9.454   3.291   9.723  0.7243 -0.3064  0.0038
  173MOL0     C23751   9.498   3.154   9.752 -1.3783  0.3132 -0.4698
  173MOL0     C23752   9.518   3.077   9.623 -0.7377  1.4893  0.0545
  173MOL0     N23753   9.618   3.134   9.542 -0.4746 -1.3186  0.4492
  173MOL0     C23754   9.599   3.217   9.435  0.1689 -0.2434  0.4518
  173MOL0     C23755   9.728   3.241   9.392  0.1510  0.3098  0.0735
  173MOL0     C23756   9.752   3.324   9.273  0.0304 -0.1638 -0.2663
  173MOL0     C23757   9.885   3.311   9.196  0.4387  0.2126  0.3477
  173MOL0     C23758   9.881   3.423   9.088 -0.4899  1.2484  0.5302
  173MOL0     C23759  10.006   3.430   9.000 -0.4342  0.2324  0.1899
  173MOL0     O23760  10.002   3.557   8.932 -0.5567  0.1836  0.5566
  173MOL0     C23761  10.110   3.610   8.883 -0.2196 -0.5658  0.1484
  173MOL0     C23762  10.087   3.747   8.855 -0.7020  0.3418 -0.8218
  173MOL0     C23763  10.188   3.831   8.804 -0.2387  0.1005  0.6134
  173MOL0     C23764  10.145   3.969   8.783 -0.3049 -0.1747 -0.1530
  173MOL0     C23765  10.315   3.780   8.793  0.5742 -1.2111 -0.1458
  173MOL0     C23766  10.435   3.869   8.752  0.7719 -0.4857 -0.2274
  173MOL0     O23767  10.560   3.823   8.786 -0.4088  0.1470 -0.1838
  173MOL0     C23768  10.680   3.887   8.761 -0.5810  0.1573 -0.3852
  173MOL0     C23769  10.782   3.803   8.740 -0.3853 -0.5025  0.3171
  173MOL0     C23770  10.912   3.845   8.713 -0.2647 -0.0642  0.1986
  173MOL0     C23771  10.946   3.971   8.729  1.2099 -0.5051  0.0869
  173MOL0     O23772  11.081   3.995   8.720 -0.1439  0.6390  0.1871
  173MOL0     C23773  11.134   4.127   8.706  0.4357  0.1853  0.0466
  173MOL0     C23774  11.137   4.187   8.564 -0.1252  0.2544 -0.2630
  173MOL0     C23775  11.194   4.098   8.454  0.5798  0.3628  0.3398
  173MOL0     C23776  11.338   4.137   8.413  0.2116 -0.7290  0.9809
  173MOL0     C23777  11.430   4.128   8.525 -0.0492  0.1404  0.1141
  173MOL0     C23778  11.578   4.164   8.495 -0.1394 -0.1213  0.7326
  173MOL0     C23779  11.651   4.134   8.633  0.0890 -0.3341 -1.0550
  173MOL0     C23780  11.792   4.185   8.607  0.7419 -0.5287 -0.1564
  173MOL0    Cl23781  11.810   4.355   8.593 -0.0486  0.2155 -0.0375
  173MOL0     C23782  10.844   4.062   8.745  0.3157 -0.0612 -0.3447
  173MOL0     C23783  10.709   4.022   8.763 -0.4236  0.7043  0.4872
  173MOL0     O23784  10.412   3.976   8.698 -0.1145  0.4211 -0.5821
  173MOL0     C23785  10.335   3.644   8.822  0.8302 -0.1810  0.1518
  173MOL0     C23786  10.238   3.554   8.859  0.4270  1.0546  0.3249
  173MOL0     N23787   9.818   3.171   9.463  0.5684  0.6339 -0.2348
  173MOL0     N23788   9.749   3.100   9.545 -0.7838 -0.0780  0.0103
  173MOL0     C23789   8.806   3.693   9.583 -0.4498  0.8135  0.4326
  173MOL0     C23790   8.733   3.752   9.482  0.8301  0.3245 -1.2258
  173MOL0     C23791   8.481   4.010   9.206  0.3924  1.2189 -0.1179
  173MOL0     C23792   8.547   4.063   9.095  0.7274 -0.3121 -0.0792
  173MOL0     C23793   8.477   4.100   8.982  0.0938  1.0178 -0.7395
  173MOL0     C23794   8.339   4.082   8.974 -0.9948  0.1061 -0.0245
  173MOL0     O23795   8.282   4.132   8.855 -0.2525  0.0973  0.2919
  173MOL0     C23796   8.145   4.161   8.861 -0.6734  0.6580  0.3170
  173MOL0     C23797   8.057   4.056   8.797  0.0412  0.4791  0.6737
  173MOL0     C23798   7.911   4.105   8.815  0.2354 -0.4508  0.2645
  173MOL0     C23799   7.806   4.019   8.745  0.0527 -0.4204  1.1881
  173MOL0     C23800   7.680   4.097   8.738 -0.7927 -0.9952  0.7692
  173MOL0     C23801   7.582   4.158   8.749  0.0063 -0.4256 -0.2985
  173MOL0     C23802   8.276   4.022   9.087 -0.2049 -0.1899 -0.0302
  173MOL0     C23803   8.345   3.974   9.199  0.4106 -0.4094  1.7657
  173MOL0     C23804   8.263   3.899   9.301  0.2642 -0.4202  0.1210
  173MOL0     H23805   8.935   3.975   9.351  1.9839 -0.5331  1.3811
  173MOL0     H23806   9.087   3.867   9.515  0.4864 -0.3594 -4.0904
  173MOL0     H23807   9.107   3.850   9.768  0.9406  0.7766  2.2518
  173MOL0     H23808   9.218   3.744   9.688  0.4807  3.3817  1.7601
  173MOL0     H23809   9.243   3.704   9.918  1.4312 -1.4086 -0.3602
  173MOL0     H23810   9.062   3.698   9.940  0.4175  0.8267  0.4997
  173MOL0     H23811   9.185   3.486   9.970  2.6548 -1.3055 -1.0764
  173MOL0     H23812   9.085   3.479   9.824 -3.1519  3.0472  3.1985
  173MOL0     H23813   9.263   3.472   9.676  1.9781 -0.4744 -0.3211
  173MOL0     H23814   9.375   3.549   9.795  0.7841 -0.7833 -1.6521
  173MOL0     H23815   9.273   3.264   9.843  0.2639 -1.4779 -1.0842
  173MOL0     H23816   9.411   3.342   9.917 -1.5351 -3.9298  0.8952
  173MOL0     H23817   9.400   3.296   9.628  1.2930  1.8420 -0.2747
  173MOL0     H23818   9.546   3.351   9.726  0.7504 -0.3890  2.1262
  173MOL0     H23819   9.415   3.100   9.798 -0.4614 -0.6814  0.0618
  173MOL0     H23820   9.586   3.158   9.816 -1.2874  0.9773 -0.6264
  173MOL0     H23821   9.559   2.978   9.646 -1.1859  0.7090 -2.2416
  173MOL0     H23822   9.422   3.069   9.571 -0.2287  0.5832 -0.7925
  173MOL0     H23823   9.512   3.256   9.383 -1.4949 -2.1403  1.6692
  173MOL0     H23824   9.740   3.431   9.294  0.0238  0.4806 -3.1401
  173MOL0     H23825   9.668   3.296   9.208 -1.1566 -0.3997  1.3089
  173MOL0     H23826   9.972   3.325   9.261 -0.8409  1.1261  1.9434
  173MOL0     H23827   9.896   3.208   9.161 -0.5431  0.2631 -0.1506
  173MOL0     H23828   9.789   3.411   9.029  1.4599  1.5354 -2.8021
  173MOL0     H23829   9.869   3.522   9.133  1.3379  1.2795  1.0239
  173MOL0     H23830  10.094   3.446   9.063  1.6711  0.9932 -2.7700
  173MOL0     H23831  10.012   3.357   8.919 -1.7797  1.3531 -0.9761
  173MOL0     H23832   9.994   3.795   8.882 -0.7468  0.5907 -1.4078
  173MOL0     H23833  10.168   4.004   8.681  1.0182  2.4173  0.9421
  173MOL0     H23834  10.195   4.027   8.860 -1.0521 -0.5853  0.6592
  173MOL0     H23835  10.037   3.986   8.777 -0.2617  0.0963 -0.1866
  173MOL0     H23836  10.762   3.696   8.739 -0.6506 -0.4519  0.0254
  173MOL0     H23837  10.997   3.777   8.704 -0.8241 -0.9309  1.1912
  173MOL0     H23838  11.075   4.197   8.765 -1.2604  1.1509 -2.6249
  173MOL0     H23839  11.238   4.121   8.741  0.2784  1.7972  0.8589
  173MOL0     H23840  11.040   4.224   8.530  0.2737  0.7355 -0.8993
  173MOL0     H23841  11.205   4.273   8.563  1.6300 -1.0829 -0.4120
  173MOL0     H23842  11.134   4.094   8.363 -2.6110 -3.3771  2.2993
  173MOL0     H23843  11.193   3.994   8.489  0.6877 -0.4137 -1.8238
  173MOL0     H23844  11.347   4.233   8.361  1.4646 -2.8098 -3.0055
  173MOL0     H23845  11.374   4.067   8.337  1.8047  0.3183  0.7192
  173MOL0     H23846  11.393   4.192   8.605 -0.5717 -0.9344  0.7546
  173MOL0     H23847  11.437   4.024   8.559 -4.1669  0.0870  1.3145
  173MOL0     H23848  11.588   4.269   8.466  0.1099 -0.6373 -1.1900
  173MOL0     H23849  11.614   4.102   8.412 -1.7190 -1.1934  0.7827
  173MOL0     H23850  11.655   4.025   8.644  0.0145 -0.2386  0.0215
  173MOL0     H23851  11.605   4.183   8.719  0.7361 -0.5879 -0.5568
  173MOL0     H23852  11.825   4.145   8.510  0.0225  2.5947 -1.8303
  173MOL0     H23853  11.860   4.149   8.684  0.1919 -1.0972  0.0733
  173MOL0     H23854  10.867   4.169   8.747  1.1848 -0.2235  2.2296
  173MOL0     H23855  10.625   4.082   8.797 -1.2514  0.3383 -0.8334
  173MOL0     H23856  10.431   3.596   8.810  1.1259 -0.5064  3.2267
  173MOL0     H23857  10.267   3.454   8.887  1.7016  1.4297  0.3810
  173MOL0     H23858   8.767   3.600   9.624  0.2821  0.2003 -0.2462
  173MOL0     H23859   8.632   3.716   9.470  0.5227  0.9971 -0.6920
  173MOL0     H23860   8.655   4.076   9.095  0.9189 -1.8016 -0.6987
  173MOL0     H23861   8.526   4.158   8.904  1.1219  1.1882  0.0253
  173MOL0     H23862   8.114   4.200   8.959 -1.2113  0.8791  0.0634
  173MOL0     H23863   8.138   4.253   8.802 -2.4461 -1.0620 -2.3659
  173MOL0     H23864   8.068   3.958   8.844 -2.2207  0.5621  1.4895
  173MOL0     H23865   8.079   4.052   8.690 -3.1779  1.3994 -0.1388
  173MOL0     H23866   7.899   4.128   8.921  3.8850  2.7598  0.2369
  173MOL0     H23867   7.904   4.207   8.777 -3.0464 -0.9069 -0.6592
  173MOL0     H23868   7.795   3.923   8.797 -1.2288 -0.8990  0.1092
  173MOL0     H23869   7.817   3.982   8.643 -1.4543  0.6481  0.5997
  173MOL0     H23870   7.486   4.203   8.762  0.7743  0.9347  1.0096
  173MOL0     H23871   8.169   4.004   9.082 -0.4422  0.5378  1.6650
  173MOL0     H23872   8.240   3.969   9.381  1.8203  0.4544 -0.1535
  173MOL0     H23873   8.170   3.867   9.253  1.3672 -1.0375 -1.7348
  173MOL0     H23874   8.304   3.810   9.350 -1.3177 -3.2308 -3.1874
  174MOL0     O23875   5.813  10.924   3.117 -0.0397  0.0214  0.2705
  174MOL0     C23876   5.931  10.954   3.128 -0.2276 -0.3165 -0.4905
  174MOL0     O23877   6.039  10.870   3.131  0.8400  0.5761 -0.1093
  174MOL0     C23878   6.022  10.728   3.146  0.9198 -0.7476 -0.0668
  174MOL0     C23879   6.128  10.640   3.112 -0.7694 -0.4930  0.8858
  174MOL0     C23880   6.117  10.504   3.113  0.3961  0.4254  0.1740
  174MOL0     C23881   5.992  10.449   3.171  0.9166 -0.3776  0.3007
  174MOL0     O23882   5.974  10.316   3.187 -0.6881 -0.1714 -0.1563
  174MOL0     C23883   6.003  10.242   3.071 -0.3420  0.2579  0.1997
  174MOL0     C23884   6.133  10.172   3.084 -0.0203 -0.1945  0.0714
  174MOL0     C23885   6.110  10.060   3.189  0.0586  0.0648  1.0282
  174MOL0     C23886   6.218   9.950   3.154 -0.2693 -0.3893 -0.0249
  174MOL0     C23887   6.158   9.866   3.041  0.5051  0.3987  0.2426
  174MOL0     C23888   6.232   9.731   3.041  0.1814  1.1114  0.6411
  174MOL0     C23889   6.160   9.648   2.936  0.2421  0.8003 -0.3465
  174MOL0     C23890   6.190   9.492   2.941  0.2517  0.2987  0.5835
  174MOL0     N23891   6.334   9.479   2.951  0.0426  0.2573  0.0652
  174MOL0     C23892   6.430   9.526   2.865 -0.9391 -0.0261  0.8914
  174MOL0     C23893   6.550   9.480   2.902  0.6563  0.3705 -0.2301
  174MOL0     C23894   6.683   9.525   2.850  0.3318 -0.0851  0.7527
  174MOL0     C23895   6.691   9.511   2.700  0.4092 -0.3079  0.2893
  174MOL0     C23896   6.807   9.595   2.642  0.4406 -0.5047 -0.3935
  174MOL0     C23897   6.935   9.521   2.663 -0.6044 -0.5572  0.1383
  174MOL0     O23898   7.049   9.581   2.589 -0.0117  1.4137  0.0014
  174MOL0     C23899   7.158   9.634   2.655 -0.7521 -0.9611  0.6586
  174MOL0     C23900   7.283   9.614   2.583 -0.1464  0.7758 -0.2280
  174MOL0     C23901   7.396   9.682   2.622 -0.4715  0.1421 -0.1574
  174MOL0     C23902   7.523   9.679   2.537 -0.4412 -0.0856  0.0648
  174MOL0     C23903   7.388   9.779   2.730  0.4720  0.2129  0.2646
  174MOL0     C23904   7.501   9.859   2.793 -0.2475 -0.2607 -0.0998
  174MOL0     O23905   7.623   9.869   2.729  0.5704  0.2275 -0.3358
  174MOL0     C23906   7.727   9.946   2.782  0.1047 -0.2594 -0.4718
  174MOL0     C23907   7.722  10.074   2.852 -0.4591  0.4994  0.5955
  174MOL0     C23908   7.841  10.132   2.893 -0.0545 -0.9817 -0.4733
  174MOL0     C23909   7.966  10.079   2.871  0.4174  1.4207  0.7197
  174MOL0     O23910   8.074  10.144   2.913  0.1988 -0.6276  0.0418
  174MOL0     C23911   8.099  10.158   3.053  0.0576  0.1060  0.0208
  174MOL0     C23912   8.231  10.241   3.065  0.9027  0.2713  0.2138
  174MOL0     C23913   8.344  10.165   2.996 -0.6418  0.2936  0.4312
  174MOL0     C23914   8.481  10.227   3.023 -0.2888 -0.4170  0.3933
  174MOL0     C23915   8.591  10.148   2.942  0.0431 -0.3823  0.1408
  174MOL0     C23916   8.607   9.995   2.984 -0.1955 -0.0550  0.6239
  174MOL0     C23917   8.661   9.980   3.129  0.2155 -0.4945  0.2430
  174MOL0     C23918   8.723   9.843   3.138  0.4014  0.1952 -0.5472
  174MOL0    Cl23919   8.709   9.805   3.317  0.2849 -0.2594 -0.2454
  174MOL0     C23920   7.972   9.966   2.778 -0.3055  0.0819 -0.2249
  174MOL0     C23921   7.853   9.904   2.735 -0.8477 -0.9332 -0.2228
  174MOL0     O23922   7.482   9.931   2.896  0.4504  1.0804  0.8314
  174MOL0     C23923   7.272   9.791   2.802  0.0496  0.9637  0.5399
  174MOL0     C23924   7.157   9.719   2.768 -0.6010  0.2656  1.0604
  174MOL0     N23925   6.520   9.409   3.020  0.2912 -0.7125 -0.3799
  174MOL0     N23926   6.394   9.401   3.044 -0.6458  0.5056 -0.2040
  174MOL0     C23927   5.895  10.528   3.225 -1.3924 -0.0050  0.1614
  174MOL0     C23928   5.907  10.672   3.212 -0.5944  0.4920  0.3922
  174MOL0     C23929   5.969  11.092   3.125  0.4161 -1.1289 -0.6530
  174MOL0     C23930   6.096  11.135   3.078  0.7105  0.2026  0.1824
  174MOL0     C23931   6.128  11.271   3.047  0.4289  0.4401 -0.2907
  174MOL0     C23932   6.030  11.363   3.073  0.0465 -0.4099  0.3015
  174MOL0     O23933   6.057  11.498   3.046  0.8034 -0.2039 -0.4391
  174MOL0     C23934   6.172  11.557   3.117 -0.7740 -0.8195  0.0222
  174MOL0     C23935   6.145  11.706   3.150  0.9690 -0.5055 -0.5793
  174MOL0     C23936   6.003  11.724   3.225 -0.3157  0.5359  0.2319
  174MOL0     C23937   5.984  11.855   3.276  0.2079  0.1391  0.0073
  174MOL0     C23938   5.998  11.960   3.174  0.1136 -0.7480  0.6846
  174MOL0     C23939   6.020  12.038   3.079  1.2317  0.2143  0.6184
  174MOL0     C23940   5.913  11.332   3.129  1.1398  0.7261  0.9453
  174MOL0     C23941   5.885  11.203   3.168 -1.3584 -0.3107 -0.0565
  174MOL0     C23942   5.758  11.177   3.250 -0.6282  0.4959  0.1622
  174MOL0     H23943   6.213  10.692   3.069  1.0381 -3.6932  0.2214
  174MOL0     H23944   6.199  10.439   3.085  0.0736  0.2764 -0.4432
  174MOL0     H23945   6.000  10.311   2.986 -1.1110 -2.1077 -1.8200
  174MOL0     H23946   5.932  10.165   3.040 -0.4994  0.8837 -1.0613
  174MOL0     H23947   6.152  10.129   2.985  1.8544  0.6746  0.0243
  174MOL0     H23948   6.212  10.242   3.109  0.0480  0.6033 -2.1535
  174MOL0     H23949   6.124  10.109   3.286  3.2561  1.7594 -0.1338
  174MOL0     H23950   6.009  10.019   3.184  0.5381 -1.0838 -2.6442
  174MOL0     H23951   6.305  10.009   3.124 -1.5307  0.9840 -1.1353
  174MOL0     H23952   6.246   9.894   3.243  1.1033 -2.2716 -1.5694
  174MOL0     H23953   6.171   9.913   2.944 -0.9347 -0.8057 -0.5803
  174MOL0     H23954   6.051   9.859   3.063  0.4368  2.2792  0.6756
  174MOL0     H23955   6.338   9.745   3.019  0.0172 -2.3219 -3.8956
  174MOL0     H23956   6.224   9.674   3.133 -2.7993 -1.9367 -1.2629
  174MOL0     H23957   6.191   9.687   2.839  3.4314 -0.8641 -0.1363
  174MOL0     H23958   6.052   9.654   2.954  0.2403 -0.6242  0.2734
  174MOL0     H23959   6.137   9.443   3.023 -5.0957  0.4978 -2.2764
  174MOL0     H23960   6.167   9.446   2.844 -1.5934  0.3370  0.9784
  174MOL0     H23961   6.415   9.588   2.778 -1.3642  1.6839  2.1194
  174MOL0     H23962   6.764   9.461   2.885  0.7165  0.9303  1.8145
  174MOL0     H23963   6.702   9.626   2.887  1.0930 -0.8336  2.5078
  174MOL0     H23964   6.697   9.408   2.663 -0.1259 -0.8635  1.6771
  174MOL0     H23965   6.596   9.549   2.663  0.7796 -0.4239 -0.7969
  174MOL0     H23966   6.800   9.609   2.534  1.3793 -2.7570 -0.8066
  174MOL0     H23967   6.808   9.695   2.687  3.5431 -0.9190  0.7654
  174MOL0     H23968   6.969   9.517   2.767  1.2181  0.7485 -0.3469
  174MOL0     H23969   6.910   9.422   2.624  0.6903 -0.6376 -0.5356
  174MOL0     H23970   7.304   9.551   2.498 -0.0488  3.0335 -1.9750
  174MOL0     H23971   7.616   9.660   2.592  1.3483  2.4681 -1.7856
  174MOL0     H23972   7.541   9.779   2.494 -1.7072 -1.0567 -3.0180
  174MOL0     H23973   7.507   9.617   2.448 -1.2714  0.2100  0.0025
  174MOL0     H23974   7.628  10.120   2.880 -1.2928 -1.6205  1.5602
  174MOL0     H23975   7.837  10.220   2.956  0.5884  1.5175 -3.6483
  174MOL0     H23976   8.019  10.210   3.107  0.4191 -2.1809  3.0707
  174MOL0     H23977   8.104  10.062   3.106 -2.4592  0.4906  1.1024
  174MOL0     H23978   8.230  10.339   3.016 -0.9213  1.0583  1.7119
  174MOL0     H23979   8.243  10.258   3.172 -1.3275  0.8638  0.4286
  174MOL0     H23980   8.330  10.171   2.888  2.6083  0.5840 -0.0798
  174MOL0     H23981   8.333  10.058   3.020 -3.1649  0.3362 -0.2929
  174MOL0     H23982   8.510  10.226   3.129 -0.7306  0.9398  0.5452
  174MOL0     H23983   8.485  10.333   2.995  0.7711 -0.9132 -1.4820
  174MOL0     H23984   8.562  10.147   2.836 -0.6745 -0.3086  0.3379
  174MOL0     H23985   8.694  10.184   2.953  0.0477 -1.0581  3.1541
  174MOL0     H23986   8.677   9.946   2.916 -1.9403 -0.9049 -0.6303
  174MOL0     H23987   8.516   9.937   2.971  1.6106 -3.3918  1.8207
  174MOL0     H23988   8.574   9.987   3.196 -0.3098 -1.7556 -0.2807
  174MOL0     H23989   8.737  10.047   3.169  2.8097 -3.4720  0.6452
  174MOL0     H23990   8.829   9.842   3.113  0.4416 -1.4503 -0.4140
  174MOL0     H23991   8.669   9.764   3.085 -0.0409  0.2347 -0.1588
  174MOL0     H23992   8.074   9.936   2.753 -0.3562 -0.7237  0.5081
  174MOL0     H23993   7.880   9.818   2.674  0.8603 -0.9261  0.4654
  174MOL0     H23994   7.270   9.858   2.888 -0.0045  1.6204  0.0372
  174MOL0     H23995   7.056   9.730   2.809 -1.7969  1.8635 -2.0050
  174MOL0     H23996   5.811  10.477   3.272 -0.4614 -1.7558 -0.0319
  174MOL0     H23997   5.824  10.729   3.252 -2.2537  0.3743 -2.5976
  174MOL0     H23998   6.162  11.054   3.049  0.1536 -0.4638  0.7263
  174MOL0     H23999   6.221  11.306   3.004 -0.5929  0.3891 -2.6996
  174MOL0     H24000   6.199  11.506   3.210  0.4512 -1.2392 -0.5367
  174MOL0     H24001   6.260  11.557   3.053 -1.1660  2.3290 -0.6481
  174MOL0     H24002   6.129  11.743   3.048 -1.5616 -1.2582 -0.5338
  174MOL0     H24003   6.225  11.752   3.209 -0.4039 -0.2098  1.1215
  174MOL0     H24004   5.922  11.681   3.166  0.7352 -0.9931 -0.1523
  174MOL0     H24005   6.012  11.647   3.302  2.3473  0.2741 -0.2358
  174MOL0     H24006   6.056  11.869   3.357 -0.5659  0.0905  0.7194
  174MOL0     H24007   5.892  11.875   3.333  0.2145  5.8064 -1.4370
  174MOL0     H24008   6.044  12.095   2.991 -0.0437 -0.0149  0.1065
  174MOL0     H24009   5.841  11.409   3.154 -1.4410 -1.7526  1.6817
  174MOL0     H24010   5.692  11.116   3.188  1.2278 -1.2745 -0.1892
  174MOL0     H24011   5.778  11.129   3.346  1.2004 -0.4597 -0.6440
  174MOL0     H24012   5.709  11.273   3.270  1.5494  2.0571 -1.4478
  175MOL0     O24013   0.861  11.132   5.600 -0.2098 -0.1541 -0.1993
  175MOL0     C24014   0.791  11.200   5.675  0.1812 -0.3045 -0.0896
  175MOL0     O24015   0.837  11.319   5.734 -0.0024  0.6161 -0.0173
  175MOL0     C24016   0.971  11.346   5.730 -0.5709  1.0173 -0.5935
  175MOL0     C24017   1.058  11.266   5.816  0.2619  0.2845  0.0577
  175MOL0     C24018   1.195  11.292   5.818  0.0629 -0.1918 -0.2272
  175MOL0     C24019   1.244  11.384   5.732  0.2796  0.7623  0.0782
  175MOL0     O24020   1.383  11.392   5.724 -0.6381 -0.9271 -0.5840
  175MOL0     C24021   1.442  11.518   5.687 -0.2019 -0.2706  0.5356
  175MOL0     C24022   1.590  11.507   5.713 -0.6183 -0.1521  0.3467
  175MOL0     C24023   1.617  11.467   5.858  0.6838  0.5826 -0.3874
  175MOL0     C24024   1.763  11.483   5.892 -0.5848 -0.2336 -0.4038
  175MOL0     C24025   1.801  11.440   6.041 -0.4411 -0.7185 -0.1114
  175MOL0     C24026   1.954  11.451   6.040 -0.8402  0.4561  0.0006
  175MOL0     C24027   2.001  11.464   6.188  0.0577  0.6040 -0.4575
  175MOL0     C24028   2.157  11.477   6.183  0.9226 -0.2030 -0.5592
  175MOL0     N24029   2.205  11.503   6.317 -0.0428  0.2373 -0.1588
  175MOL0     C24030   2.237  11.402   6.402  0.0953  0.2054 -0.0363
  175MOL0     C24031   2.313  11.462   6.495  0.1588  0.1478  0.6265
  175MOL0     C24032   2.382  11.395   6.602  0.1275 -0.2644 -0.1630
  175MOL0     C24033   2.507  11.323   6.557 -1.1519 -0.6047  0.9195
  175MOL0     C24034   2.613  11.421   6.516  0.1986  0.2474  0.3323
  175MOL0     C24035   2.746  11.360   6.460  1.6230 -1.0029 -0.4858
  175MOL0     O24036   2.826  11.480   6.425  0.4574 -0.1564 -0.0275
  175MOL0     C24037   2.956  11.466   6.392 -0.3839  1.1413 -1.7105
  175MOL0     C24038   3.037  11.582   6.387  0.2182 -0.0679 -0.4378
  175MOL0     C24039   3.167  11.569   6.340 -0.7171  0.1285 -0.1839
  175MOL0     C24040   3.255  11.692   6.321  0.5782  0.7587 -0.1054
  175MOL0     C24041   3.223  11.438   6.314  0.5958 -0.1004 -0.2107
  175MOL0     C24042   3.360  11.415   6.269 -0.5079 -1.2603  0.1200
  175MOL0     O24043   3.463  11.501   6.306  0.4929  0.0671 -0.2481
  175MOL0     C24044   3.593  11.468   6.265 -0.0064  1.1914  0.5919
  175MOL0     C24045   3.641  11.520   6.146  0.2864  1.0281 -0.1850
  175MOL0     C24046   3.776  11.494   6.110  0.6135 -0.4996 -0.0451
  175MOL0     C24047   3.860  11.421   6.188 -0.1788  0.5060 -0.0676
  175MOL0     O24048   3.995  11.410   6.141  0.4297 -1.0337 -0.7833
  175MOL0     C24049   4.070  11.309   6.199  0.4127  0.1732  0.5274
  175MOL0     C24050   4.186  11.267   6.111 -0.6316 -0.0621  0.8715
  175MOL0     C24051   4.324  11.298   6.172 -0.3520  0.3068  0.5856
  175MOL0     C24052   4.439  11.280   6.077  0.0067  0.4640  0.1837
  175MOL0     C24053   4.581  11.306   6.137 -0.9141 -0.0239 -0.7550
  175MOL0     C24054   4.700  11.291   6.040  0.3378  1.2673  0.3677
  175MOL0     C24055   4.813  11.380   6.093  0.1051  0.3766 -0.1198
  175MOL0     C24056   4.810  11.511   6.021  0.4167  0.2375  0.2561
  175MOL0    Cl24057   4.960  11.595   6.067  0.1057 -0.4645 -0.4580
  175MOL0     C24058   3.810  11.361   6.304  0.1899 -0.4631  0.3011
  175MOL0     C24059   3.679  11.384   6.343 -0.2375 -0.2252 -0.1461
  175MOL0     O24060   3.377  11.327   6.189  0.3708 -0.0154  0.0396
  175MOL0     C24061   3.136  11.318   6.321  0.2665 -0.0777 -0.7555
  175MOL0     C24062   3.003  11.336   6.351  0.4391 -0.4981  0.4892
  175MOL0     N24063   2.304  11.600   6.474 -0.0858  0.3261 -0.1566
  175MOL0     N24064   2.234  11.620   6.371  0.0634  0.4087 -0.1052
  175MOL0     C24065   1.162  11.463   5.649  0.6553 -0.2953  0.2164
  175MOL0     C24066   1.023  11.445   5.644  0.3142 -0.3267 -0.1606
  175MOL0     C24067   0.654  11.159   5.708 -0.0192 -0.2461 -0.3459
  175MOL0     C24068   0.591  11.230   5.813 -0.0969 -1.0593 -0.0296
  175MOL0     C24069   0.471  11.183   5.869 -0.4605 -0.3505 -0.9206
  175MOL0     C24070   0.402  11.071   5.819 -0.3946 -0.2144 -0.2223
  175MOL0     O24071   0.282  11.045   5.884 -0.1479  0.3965  0.0381
  175MOL0     C24072   0.201  10.937   5.840 -0.0477 -0.3573 -0.0079
  175MOL0     C24073   0.266  10.801   5.875  1.0502 -0.9733 -0.2757
  175MOL0     C24074   0.215  10.672   5.814 -0.4277 -0.2599 -0.5905
  175MOL0     C24075   0.201  10.558   5.921  0.3684  0.0588  0.3591
  175MOL0     C24076   0.073  10.572   5.994 -0.5970 -0.7000 -0.0897
  175MOL0     C24077  -0.025  10.607   6.055  0.9862 -0.0697 -1.1213
  175MOL0     C24078   0.461  10.998   5.715 -0.2880  0.0186 -0.8796
  175MOL0     C24079   0.583  11.038   5.657  0.4521 -0.3387  0.8912
  175MOL0     C24080   0.629  10.949   5.543  0.1674  0.4151 -0.4244
  175MOL0     H24081   1.030  11.188   5.887  1.3910  1.4327  1.8463
  175MOL0     H24082   1.260  11.237   5.886  3.4285  1.8868 -1.5093
  175MOL0     H24083   1.395  11.599   5.744 -2.7665 -1.1268 -0.2065
  175MOL0     H24084   1.426  11.546   5.582 -1.9525 -0.8372  0.6203
  175MOL0     H24085   1.634  11.437   5.642  1.2194 -1.6150  2.7575
  175MOL0     H24086   1.639  11.604   5.699  0.1007 -0.3549  1.2946
  175MOL0     H24087   1.547  11.523   5.921 -0.2013 -0.0095 -0.8241
  175MOL0     H24088   1.588  11.363   5.874 -0.0421  1.0124  1.4087
  175MOL0     H24089   1.813  11.413   5.824  0.5136 -1.4588  1.5620
  175MOL0     H24090   1.794  11.587   5.882 -2.1441  0.4451  1.2266
  175MOL0     H24091   1.752  11.345   6.064 -1.9482 -0.1794 -0.9536
  175MOL0     H24092   1.767  11.520   6.108  2.0974 -0.1768  0.6329
  175MOL0     H24093   2.008  11.367   5.993  1.3692  0.7669  1.7870
  175MOL0     H24094   1.982  11.539   5.982 -0.1923 -0.3006 -0.8785
  175MOL0     H24095   1.977  11.369   6.236  0.0966  0.5587 -0.5269
  175MOL0     H24096   1.949  11.541   6.245 -0.1489 -1.7006  2.7287
  175MOL0     H24097   2.196  11.384   6.142 -0.2046 -0.5759 -0.8359
  175MOL0     H24098   2.175  11.568   6.126  0.6788 -0.6601 -1.3806
  175MOL0     H24099   2.224  11.295   6.400 -2.0628  0.3070  2.6017
  175MOL0     H24100   2.312  11.326   6.649  0.5260 -1.5028 -1.3505
  175MOL0     H24101   2.419  11.468   6.675  1.2076 -0.8403 -0.1124
  175MOL0     H24102   2.557  11.268   6.637  2.1787 -0.0369 -0.5947
  175MOL0     H24103   2.487  11.249   6.479 -0.7119 -2.2181  2.2799
  175MOL0     H24104   2.579  11.484   6.433  2.3719  1.5028  0.3150
  175MOL0     H24105   2.628  11.487   6.602 -1.4003 -0.2993  1.0567
  175MOL0     H24106   2.776  11.302   6.548 -0.6103 -2.1804 -0.4446
  175MOL0     H24107   2.730  11.295   6.374 -0.3168 -0.2061 -0.7914
  175MOL0     H24108   2.999  11.680   6.414 -0.6004  0.1930 -2.4019
  175MOL0     H24109   3.301  11.684   6.222 -2.2335 -1.4355 -1.3806
  175MOL0     H24110   3.335  11.692   6.395 -0.8531  0.4437  1.5119
  175MOL0     H24111   3.200  11.786   6.318 -1.0530 -0.1820 -2.0049
  175MOL0     H24112   3.575  11.573   6.078  0.6410 -0.5551 -1.8550
  175MOL0     H24113   3.826  11.513   6.015  0.3418 -1.2145 -0.3332
  175MOL0     H24114   4.100  11.344   6.299  2.4000 -2.3323  0.9255
  175MOL0     H24115   4.005  11.222   6.209 -2.3106  1.9957 -0.3077
  175MOL0     H24116   4.165  11.164   6.081 -1.4781  0.2405  0.3814
  175MOL0     H24117   4.181  11.325   6.018  1.7991 -0.8470  0.1847
  175MOL0     H24118   4.322  11.238   6.264  0.5815 -1.5732 -0.5667
  175MOL0     H24119   4.319  11.400   6.212 -2.1948 -0.0865  1.4662
  175MOL0     H24120   4.431  11.356   5.999 -1.1227 -2.6587 -2.9655
  175MOL0     H24121   4.424  11.180   6.036 -3.8846  0.5271  1.0550
  175MOL0     H24122   4.583  11.409   6.173 -0.8125 -0.3163  0.1125
  175MOL0     H24123   4.595  11.240   6.224  0.5044  3.3148  1.7379
  175MOL0     H24124   4.672  11.323   5.939  0.1343  0.1912  0.0736
  175MOL0     H24125   4.724  11.185   6.050 -0.9145  1.0265  1.0918
  175MOL0     H24126   4.906  11.329   6.070  0.2585  0.5781  0.0525
  175MOL0     H24127   4.810  11.372   6.202 -0.6826 -1.7119 -0.2418
  175MOL0     H24128   4.718  11.562   6.051 -1.9105 -0.6610 -4.3380
  175MOL0     H24129   4.812  11.508   5.912  0.1950  2.6066  0.1442
  175MOL0     H24130   3.880  11.311   6.370 -1.0005  0.2955  2.2211
  175MOL0     H24131   3.644  11.351   6.440 -2.2007 -0.5330 -0.9122
  175MOL0     H24132   3.171  11.219   6.294 -0.6159 -1.1803  1.8238
  175MOL0     H24133   2.934  11.252   6.344 -1.1163  0.8100 -0.6212
  175MOL0     H24134   1.207  11.527   5.574 -0.1027 -0.8397 -0.7288
  175MOL0     H24135   0.961  11.497   5.571  0.7023  0.0576 -0.2186
  175MOL0     H24136   0.637  11.316   5.860 -0.6893 -0.5541 -0.3499
  175MOL0     H24137   0.428  11.238   5.953  0.0648 -1.5530  0.1624
  175MOL0     H24138   0.104  10.945   5.889  0.0981 -0.0100  0.2262
  175MOL0     H24139   0.191  10.934   5.731  1.0994 -3.7657 -0.1506
  175MOL0     H24140   0.258  10.796   5.984  0.9163 -0.5175 -0.2626
  175MOL0     H24141   0.374  10.811   5.859  1.0780  0.4956  0.6501
  175MOL0     H24142   0.127  10.698   5.754 -0.6057 -0.4631 -0.4176
  175MOL0     H24143   0.294  10.642   5.744 -0.0247  0.2503 -0.3605
  175MOL0     H24144   0.283  10.571   5.992  2.8087  0.2112 -2.2918
  175MOL0     H24145   0.201  10.460   5.873 -3.6144 -0.7665  1.6719
  175MOL0     H24146  -0.122  10.624   6.098  2.2608  0.7448  1.6904
  175MOL0     H24147   0.407  10.913   5.677 -1.7042  0.8405 -0.7942
  175MOL0     H24148   0.693  10.871   5.584  0.3130  1.5241  1.6160
  175MOL0     H24149   0.546  10.897   5.494  1.1541 -1.7230  0.0533
  175MOL0     H24150   0.679  11.012   5.470 -1.3743  3.4906  0.9565
  176MOL0     O24151   8.587   4.762  11.140 -0.3221  0.5018 -0.0057
  176MOL0     C24152   8.635   4.843  11.219  0.0958 -0.1730  0.8383
  176MOL0     O24153   8.573   4.954  11.275 -0.4450 -0.2110 -0.1313
  176MOL0     C24154   8.442   4.958  11.266  0.9001 -0.5558  0.2373
  176MOL0     C24155   8.383   5.005  11.150  0.7683  0.3980 -0.5356
  176MOL0     C24156   8.243   5.006  11.127 -0.3822 -0.0434  0.0224
  176MOL0     C24157   8.159   4.958  11.226 -0.3720 -0.5523 -0.3470
  176MOL0     O24158   8.020   4.960  11.206  0.0287  0.2173 -0.4423
  176MOL0     C24159   7.934   4.906  11.310 -0.0847 -0.5173 -0.3527
  176MOL0     C24160   7.790   4.915  11.262 -0.9132 -0.2674 -0.1901
  176MOL0     C24161   7.688   4.878  11.379  0.1423  0.8908 -0.1933
  176MOL0     C24162   7.554   4.948  11.357  0.0784 -0.0475 -1.0216
  176MOL0     C24163   7.483   4.913  11.227  0.2897  0.3915  0.1230
  176MOL0     C24164   7.397   5.032  11.198 -0.0068  0.0782  0.4178
  176MOL0     C24165   7.325   5.015  11.059  0.5001 -0.4051 -0.4965
  176MOL0     C24166   7.240   5.130  11.014  0.5990  1.0056 -0.4594
  176MOL0     N24167   7.179   5.133  10.878  0.0441  0.3971 -0.8537
  176MOL0     C24168   7.260   5.155  10.770 -0.7349  0.2467 -0.6523
  176MOL0     C24169   7.186   5.118  10.663  0.7056  0.0566 -0.3823
  176MOL0     C24170   7.224   5.126  10.525 -0.6250 -0.1901 -0.2449
  176MOL0     C24171   7.169   5.253  10.448 -0.6169 -0.6812  0.3000
  176MOL0     C24172   7.237   5.390  10.492  0.3884  0.5270 -0.7336
  176MOL0     C24173   7.378   5.373  10.451  0.6288  0.0359  0.7936
  176MOL0     O24174   7.438   5.502  10.473  0.5428  0.1477 -0.1711
  176MOL0     C24175   7.539   5.505  10.565 -0.2482 -0.4648 -0.2725
  176MOL0     C24176   7.550   5.437  10.682  0.4992  0.1073  0.2453
  176MOL0     C24177   7.659   5.439  10.766 -0.1759  0.0134 -0.0629
  176MOL0     C24178   7.647   5.344  10.894  0.6568 -0.0729  0.4381
  176MOL0     C24179   7.775   5.512  10.732  0.4780  0.4367  0.6643
  176MOL0     C24180   7.905   5.528  10.811 -0.1724 -0.2313 -0.5002
  176MOL0     O24181   7.959   5.413  10.866  0.0724  0.0482  0.3532
  176MOL0     C24182   8.084   5.412  10.923 -0.7119  0.6402  0.7908
  176MOL0     C24183   8.174   5.319  10.868 -0.0930 -0.4787  0.2268
  176MOL0     C24184   8.299   5.304  10.918 -0.6409  0.1599 -0.7066
  176MOL0     C24185   8.345   5.387  11.024  0.5675  0.4367 -0.0314
  176MOL0     O24186   8.477   5.387  11.053 -0.4616 -0.1442  0.8067
  176MOL0     C24187   8.517   5.401  11.192 -0.2038  0.0910  0.7161
  176MOL0     C24188   8.664   5.366  11.205 -1.0633  0.0344 -0.3757
  176MOL0     C24189   8.762   5.478  11.178 -0.5263  1.4205  0.0635
  176MOL0     C24190   8.895   5.439  11.234  1.0685 -0.1322 -0.0444
  176MOL0     C24191   9.005   5.540  11.203 -0.5854 -1.2486  0.2152
  176MOL0     C24192   9.145   5.506  11.263  0.0942 -0.0019  0.9630
  176MOL0     C24193   9.262   5.593  11.198  0.3474  0.0868 -0.7652
  176MOL0     C24194   9.406   5.552  11.197  0.5015 -0.0486  0.6379
  176MOL0    Cl24195   9.468   5.518  11.358  0.3874 -0.1456 -0.0501
  176MOL0     C24196   8.255   5.482  11.080  0.0074  1.3491 -0.8489
  176MOL0     C24197   8.122   5.487  11.036  0.1832  0.9133 -0.2301
  176MOL0     O24198   7.962   5.642  10.803  0.2051 -0.0116 -0.0456
  176MOL0     C24199   7.759   5.595  10.619 -1.1909 -0.6285 -0.7182
  176MOL0     C24200   7.639   5.596  10.537 -0.3940 -0.6896 -1.3125
  176MOL0     N24201   7.064   5.079  10.708  0.1117 -0.0784  0.7762
  176MOL0     N24202   7.056   5.102  10.837 -0.0898  0.6492  0.1350
  176MOL0     C24203   8.220   4.906  11.347 -0.2336 -0.4518  0.0076
  176MOL0     C24204   8.356   4.908  11.363  0.7162 -0.8910 -0.1578
  176MOL0     C24205   8.770   4.818  11.255 -1.5614 -1.2636  0.4576
  176MOL0     C24206   8.804   4.688  11.304  0.2210 -0.9105 -1.0855
  176MOL0     C24207   8.933   4.664  11.359 -0.3969  0.9558 -0.0698
  176MOL0     C24208   9.030   4.766  11.362  0.9187 -0.9753  0.4670
  176MOL0     O24209   9.152   4.737  11.417 -0.9119  0.2514 -0.1099
  176MOL0     C24210   9.260   4.829  11.418 -0.0667  0.1114 -0.1816
  176MOL0     C24211   9.392   4.756  11.437  0.7136 -0.2307 -1.1164
  176MOL0     C24212   9.511   4.850  11.404 -0.4281  1.4389 -0.3684
  176MOL0     C24213   9.650   4.794  11.443  0.0558 -0.7779  0.2037
  176MOL0     C24214   9.666   4.656  11.390 -0.7614  0.2684  0.0978
  176MOL0     C24215   9.682   4.537  11.364 -0.1714  1.1608 -0.3799
  176MOL0     C24216   8.999   4.894  11.303  0.4791  0.3587  0.2333
  176MOL0     C24217   8.865   4.924  11.259  0.3884 -0.5518  0.3199
  176MOL0     C24218   8.842   5.066  11.215  0.2966  1.0305  0.5457
  176MOL0     H24219   8.443   5.054  11.075  2.4042  0.8028  0.9768
  176MOL0     H24220   8.209   5.060  11.039  0.4605 -3.3414 -2.5656
  176MOL0     H24221   7.950   4.967  11.399  1.6982 -0.1569 -0.8950
  176MOL0     H24222   7.957   4.801  11.330  1.1926  0.1534  2.0985
  176MOL0     H24223   7.765   5.015  11.226 -1.2766  0.1049  1.0752
  176MOL0     H24224   7.784   4.844  11.178 -0.4521 -0.0843 -0.3826
  176MOL0     H24225   7.666   4.771  11.374  0.9023  0.6065  1.5653
  176MOL0     H24226   7.721   4.894  11.483 -0.2684 -0.1655  0.1170
  176MOL0     H24227   7.480   4.918  11.433 -1.3712  1.4864 -1.7686
  176MOL0     H24228   7.572   5.055  11.370  2.7549 -0.7322  2.4854
  176MOL0     H24229   7.425   4.820  11.233  3.0910 -1.8223 -3.0732
  176MOL0     H24230   7.557   4.912  11.146  0.4785  2.4372  0.2195
  176MOL0     H24231   7.324   5.035  11.280 -0.6459 -0.5316 -0.1100
  176MOL0     H24232   7.447   5.129  11.199 -0.0365  0.0945  0.3390
  176MOL0     H24233   7.272   4.919  11.057 -2.4980  1.0618  1.0195
  176MOL0     H24234   7.410   4.997  10.992  0.2631  0.0511 -0.9272
  176MOL0     H24235   7.166   5.128  11.094  0.2910 -1.4573 -0.7510
  176MOL0     H24236   7.300   5.219  11.038  1.8658  0.6023 -1.9498
  176MOL0     H24237   7.362   5.191  10.776 -0.7264  0.0789  0.4675
  176MOL0     H24238   7.183   5.038  10.474 -1.4964 -0.1545  0.3725
  176MOL0     H24239   7.332   5.113  10.528 -0.5649  0.4504  0.2765
  176MOL0     H24240   7.192   5.237  10.342  2.7700 -0.9547  0.9615
  176MOL0     H24241   7.062   5.265  10.467 -1.0625  2.1065 -2.9905
  176MOL0     H24242   7.193   5.471  10.433  0.2055 -0.1441 -1.5262
  176MOL0     H24243   7.226   5.418  10.598  1.0453  1.8470 -0.9983
  176MOL0     H24244   7.427   5.284  10.492  1.4386  0.6922  1.3112
  176MOL0     H24245   7.384   5.344  10.346 -2.2622 -1.2672  0.8926
  176MOL0     H24246   7.459   5.379  10.694 -1.1720  2.2236 -1.4484
  176MOL0     H24247   7.707   5.375  10.980  0.4773 -1.2806  1.0134
  176MOL0     H24248   7.674   5.239  10.878 -1.2685 -1.0642  3.0791
  176MOL0     H24249   7.541   5.336  10.919 -0.1867  1.7916 -2.1601
  176MOL0     H24250   8.141   5.250  10.791 -1.5345 -0.2902  0.6332
  176MOL0     H24251   8.370   5.233  10.877  1.2045  1.7896 -0.4970
  176MOL0     H24252   8.496   5.504  11.220 -1.5365  0.0452 -0.0208
  176MOL0     H24253   8.451   5.333  11.248 -0.6081  0.1065  0.2710
  176MOL0     H24254   8.689   5.339  11.308  0.4317  2.4168 -0.0366
  176MOL0     H24255   8.680   5.280  11.138  2.9037  0.1742  0.1525
  176MOL0     H24256   8.729   5.566  11.235  2.1535  0.6177  3.0676
  176MOL0     H24257   8.764   5.505  11.071 -2.3489  2.0081  0.1347
  176MOL0     H24258   8.936   5.345  11.194 -0.3716  0.5286 -3.3777
  176MOL0     H24259   8.882   5.435  11.343 -0.2180  3.2213  0.0281
  176MOL0     H24260   9.010   5.543  11.094  2.5634 -0.9594  0.2795
  176MOL0     H24261   8.986   5.646  11.225  1.1822 -0.2085 -2.7371
  176MOL0     H24262   9.159   5.399  11.245 -0.2018 -0.2775  2.2741
  176MOL0     H24263   9.152   5.521  11.371  2.8878  2.8190  0.5392
  176MOL0     H24264   9.261   5.676  11.270  1.1050  0.5118 -1.2309
  176MOL0     H24265   9.239   5.630  11.098  2.5464  0.4002 -1.2057
  176MOL0     H24266   9.454   5.641  11.154  0.8932 -1.4961 -2.1570
  176MOL0     H24267   9.425   5.471  11.126  4.5687  1.1693  0.0553
  176MOL0     H24268   8.298   5.541  11.161 -1.9558 -0.7770  1.9431
  176MOL0     H24269   8.044   5.557  11.066  0.2733  1.8612 -2.0259
  176MOL0     H24270   7.839   5.662  10.590 -1.3525 -0.1063  0.0215
  176MOL0     H24271   7.627   5.668  10.456 -1.1656  1.4966  0.6139
  176MOL0     H24272   8.159   4.864  11.426 -1.5536  1.5833  0.1663
  176MOL0     H24273   8.410   4.872  11.450  0.0411 -1.7033 -0.0651
  176MOL0     H24274   8.728   4.611  11.290  0.4391 -0.8785 -2.6183
  176MOL0     H24275   8.958   4.570  11.407  0.6082  1.0339 -0.4123
  176MOL0     H24276   9.260   4.881  11.322 -0.8935 -0.8023 -0.6919
  176MOL0     H24277   9.253   4.909  11.493  0.9811 -0.2964  0.3767
  176MOL0     H24278   9.409   4.664  11.380  1.6697 -1.1225  0.5429
  176MOL0     H24279   9.399   4.729  11.543  2.6755  0.0387 -1.1471
  176MOL0     H24280   9.508   4.860  11.296  0.5219 -1.5003 -0.7594
  176MOL0     H24281   9.493   4.946  11.454  1.3601  0.2055  2.9904
  176MOL0     H24282   9.664   4.803  11.551  0.5938  0.7108  0.0282
  176MOL0     H24283   9.731   4.849  11.394 -0.8738 -0.4317 -1.0045
  176MOL0     H24284   9.706   4.433  11.357 -0.1106  1.2045 -0.8171
  176MOL0     H24285   9.077   4.968  11.317  0.9246  0.3850 -2.0164
  176MOL0     H24286   8.780   5.118  11.288  1.8656  0.6510  2.2321
  176MOL0     H24287   8.940   5.115  11.221 -0.1303  1.8475  0.8691
  176MOL0     H24288   8.786   5.069  11.121 -4.5006  3.1417  3.1374
  177MOL0     O24289   9.667   4.319   5.482  0.0133 -0.1139  0.5515
  177MOL0     C24290   9.665   4.423   5.416  0.1391 -0.4077 -0.4088
  177MOL0     O24291   9.761   4.472   5.344 -0.3357 -0.7182  0.6615
  177MOL0     C24292   9.881   4.418   5.322  0.3390 -1.0078 -0.1590
  177MOL0     C24293   9.918   4.281   5.339  0.0198 -0.1402 -0.3097
  177MOL0     C24294  10.047   4.242   5.332 -0.2059  0.4293  0.1826
  177MOL0     C24295  10.150   4.346   5.303  0.3779  1.2343 -0.6065
  177MOL0     O24296  10.286   4.318   5.308  0.4018 -0.3883 -0.8612
  177MOL0     C24297  10.336   4.191   5.349  0.0197 -0.2759 -0.8014
  177MOL0     C24298  10.490   4.185   5.326  0.1458  0.4540  0.1115
  177MOL0     C24299  10.531   4.176   5.173  0.1464 -0.2109 -0.0066
  177MOL0     C24300  10.506   4.039   5.124 -0.6262  0.5409  0.4078
  177MOL0     C24301  10.545   4.009   4.971  0.3871 -0.9312 -0.3487
  177MOL0     C24302  10.692   4.015   4.944 -0.5746  0.4431 -0.4050
  177MOL0     C24303  10.779   3.933   5.038  0.6587  0.4737  0.2018
  177MOL0     C24304  10.890   3.878   4.950 -0.6674 -0.0515 -0.1135
  177MOL0     N24305  10.990   3.989   4.935 -0.1180  0.9230  0.3816
  177MOL0     C24306  11.000   4.052   4.815 -0.3716 -0.6438  0.2927
  177MOL0     C24307  11.105   4.139   4.830 -0.3004 -0.1018  0.2749
  177MOL0     C24308  11.131   4.223   4.711 -0.2371  0.6445 -1.3113
  177MOL0     C24309  11.289   4.239   4.682  0.0841  0.0842 -0.3865
  177MOL0     C24310  11.327   4.325   4.568 -0.5134  0.3913 -0.0274
  177MOL0     C24311  11.332   4.470   4.586 -0.5174 -0.3239  0.3698
  177MOL0     O24312  11.378   4.513   4.453 -0.0120  0.5967 -1.2622
  177MOL0     C24313  11.469   4.615   4.438 -0.2443  0.1923  0.5923
  177MOL0     C24314  11.499   4.636   4.307  0.3816 -0.5601 -0.0800
  177MOL0     C24315  11.568   4.755   4.268  0.0324 -0.1629  0.8828
  177MOL0     C24316  11.583   4.779   4.116 -1.4909 -0.0154  0.2204
  177MOL0     C24317  11.615   4.855   4.364 -0.6706  1.1183  0.2061
  177MOL0     C24318  11.680   4.982   4.333 -0.3847 -0.5004  0.4155
  177MOL0     O24319  11.711   5.008   4.200  0.4966 -0.0565  0.0955
  177MOL0     C24320  11.822   5.084   4.166 -0.0038 -0.2752 -0.0580
  177MOL0     C24321  11.938   5.064   4.235  0.3004  0.3488 -0.2488
  177MOL0     C24322  12.061   5.121   4.202  0.0571  0.5093 -0.2669
  177MOL0     C24323  12.061   5.215   4.101 -0.3793 -0.7443  0.3424
  177MOL0     O24324  12.185   5.264   4.058  0.3230 -0.5583 -0.3718
  177MOL0     C24325  12.207   5.407   4.060  0.5168  0.4802  0.5276
  177MOL0     C24326  12.343   5.441   4.020  0.3198 -0.2682  0.0895
  177MOL0     C24327  12.448   5.399   4.124  0.9722  0.2039  0.1619
  177MOL0     C24328  12.430   5.473   4.259  0.2588  0.1413  0.5499
  177MOL0     C24329  12.519   5.399   4.361 -0.6926  0.0461  1.1240
  177MOL0     C24330  12.669   5.425   4.347 -0.0979 -0.4643 -0.0964
  177MOL0     C24331  12.696   5.571   4.339 -0.5224 -1.2798  0.5279
  177MOL0     C24332  12.847   5.605   4.366 -0.0809  0.5336 -0.0002
  177MOL0    Cl24333  12.867   5.624   4.534  0.1420 -0.0857  0.0482
  177MOL0     C24334  11.942   5.253   4.030  0.7340  0.6654 -0.2680
  177MOL0     C24335  11.823   5.177   4.054  0.0466  0.0166 -0.2883
  177MOL0     O24336  11.710   5.058   4.424  0.5588  0.6133 -0.1908
  177MOL0     C24337  11.587   4.814   4.495 -0.0581 -0.1709 -0.0201
  177MOL0     C24338  11.514   4.706   4.535 -0.4914  0.3388  0.1082
  177MOL0     N24339  11.148   4.132   4.963 -0.3424 -0.2128 -0.7402
  177MOL0     N24340  11.087   4.034   5.022  0.4300  0.3782  0.7566
  177MOL0     C24341  10.120   4.473   5.279 -0.1918 -0.2722  0.4883
  177MOL0     C24342   9.983   4.508   5.287  0.9576 -0.3173 -0.0665
  177MOL0     C24343   9.548   4.507   5.414 -0.3354 -0.6117  0.6490
  177MOL0     C24344   9.506   4.561   5.292 -0.0135 -0.1009 -0.5217
  177MOL0     C24345   9.397   4.651   5.284  1.7445  0.6693  0.6560
  177MOL0     C24346   9.317   4.678   5.391 -0.1849  0.3682 -0.7241
  177MOL0     O24347   9.215   4.768   5.372  0.3687  0.7246  0.6165
  177MOL0     C24348   9.145   4.818   5.482 -0.3116 -0.7015 -0.1511
  177MOL0     C24349   9.040   4.918   5.429  0.1305 -0.4643 -0.3055
  177MOL0     C24350   8.997   5.006   5.549 -0.6647 -0.0345 -0.1701
  177MOL0     C24351   8.849   5.059   5.529  0.3011  0.0247 -0.7700
  177MOL0     C24352   8.837   5.164   5.636  0.3759 -0.2245 -0.7870
  177MOL0     C24353   8.823   5.239   5.730 -0.5311 -1.5226 -0.2198
  177MOL0     C24354   9.364   4.621   5.513  0.0892 -0.5703  0.2065
  177MOL0     C24355   9.461   4.531   5.522  0.5256  1.1108  0.2981
  177MOL0     C24356   9.495   4.487   5.662  0.3454 -0.0295 -0.1828
  177MOL0     H24357   9.840   4.213   5.371  0.5384 -0.7830 -0.3933
  177MOL0     H24358  10.070   4.140   5.358  1.1008 -0.1207 -2.7394
  177MOL0     H24359  10.285   4.106   5.303 -2.1430 -0.1369  1.1647
  177MOL0     H24360  10.312   4.182   5.455 -2.4308 -0.9183 -1.3451
  177MOL0     H24361  10.529   4.272   5.380  0.0616  0.5889 -0.0440
  177MOL0     H24362  10.527   4.093   5.374 -1.2725 -1.6249 -2.5343
  177MOL0     H24363  10.475   4.243   5.108 -0.0707 -0.3077  0.0819
  177MOL0     H24364  10.638   4.187   5.153 -0.3715  1.4519 -2.2333
  177MOL0     H24365  10.565   3.969   5.183 -1.1505  0.7362  1.1797
  177MOL0     H24366  10.402   4.006   5.136 -0.5859 -1.8350 -3.6790
  177MOL0     H24367  10.494   4.078   4.904 -2.1588 -0.0409  2.2895
  177MOL0     H24368  10.510   3.910   4.941 -1.0373 -0.0350 -1.8024
  177MOL0     H24369  10.714   3.989   4.841  2.1097  0.7011  0.0442
  177MOL0     H24370  10.723   4.120   4.950  0.9583 -0.0710  1.7017
  177MOL0     H24371  10.723   3.850   5.082  0.4021 -0.1254 -1.2072
  177MOL0     H24372  10.806   3.992   5.126 -1.9840  0.1092  1.3542
  177MOL0     H24373  10.933   3.793   5.004 -0.0069 -0.4242 -1.1791
  177MOL0     H24374  10.869   3.833   4.852  4.5118 -0.1513 -1.5140
  177MOL0     H24375  10.948   4.037   4.721  1.7779 -1.9638 -0.7618
  177MOL0     H24376  11.087   4.323   4.718 -1.2126  0.1295  0.3322
  177MOL0     H24377  11.080   4.184   4.623 -3.2513  1.2082  0.0600
  177MOL0     H24378  11.343   4.281   4.768  0.3607 -1.6254  0.3198
  177MOL0     H24379  11.336   4.141   4.673 -0.7310 -0.3198 -0.2993
  177MOL0     H24380  11.427   4.286   4.546 -1.4438 -2.3023  0.1265
  177MOL0     H24381  11.254   4.312   4.488  0.9638 -0.0927 -1.3458
  177MOL0     H24382  11.238   4.523   4.603 -0.5598  0.3589 -1.7197
  177MOL0     H24383  11.415   4.489   4.656  0.5545 -1.4493 -0.5454
  177MOL0     H24384  11.445   4.586   4.228  0.1914  2.3299 -1.9260
  177MOL0     H24385  11.528   4.698   4.067  1.1702 -1.9619  0.2177
  177MOL0     H24386  11.682   4.769   4.070 -0.8334 -0.0592  1.6132
  177MOL0     H24387  11.549   4.881   4.098  1.4743  1.5253  2.5527
  177MOL0     H24388  11.936   4.977   4.300 -0.8321  0.1306 -0.5415
  177MOL0     H24389  12.154   5.097   4.252 -1.0134 -1.8977  0.7508
  177MOL0     H24390  12.142   5.450   3.983  1.8179  0.7419 -0.4457
  177MOL0     H24391  12.175   5.443   4.159 -0.3135 -1.4980  1.0281
  177MOL0     H24392  12.367   5.386   3.929  0.8520 -2.6853  1.5890
  177MOL0     H24393  12.353   5.548   4.002  0.3665  0.0245  1.6705
  177MOL0     H24394  12.545   5.427   4.082  0.1534 -0.9680 -2.7590
  177MOL0     H24395  12.440   5.290   4.137  1.9644  0.2508  1.4080
  177MOL0     H24396  12.328   5.453   4.293 -0.0291 -0.2803 -0.5246
  177MOL0     H24397  12.452   5.579   4.245  2.1388 -0.0708  1.6254
  177MOL0     H24398  12.484   5.435   4.458 -0.9927 -0.3292  1.1583
  177MOL0     H24399  12.493   5.293   4.359 -1.8375  0.3148  1.1988
  177MOL0     H24400  12.710   5.365   4.265 -0.9755  0.9243 -1.6295
  177MOL0     H24401  12.718   5.399   4.441  1.1137 -1.3136 -0.9388
  177MOL0     H24402  12.632   5.633   4.403  1.9590  2.6394 -0.4801
  177MOL0     H24403  12.683   5.605   4.236  0.3964 -2.4111  0.0169
  177MOL0     H24404  12.888   5.695   4.321 -0.6553  0.2532 -1.1146
  177MOL0     H24405  12.909   5.528   4.321 -0.0446 -0.9020  2.3217
  177MOL0     H24406  11.946   5.307   3.936 -0.6422  0.0337 -0.7099
  177MOL0     H24407  11.737   5.193   3.990  1.9917  1.4147 -2.7181
  177MOL0     H24408  11.623   4.886   4.568 -1.5767  1.7093 -1.0131
  177MOL0     H24409  11.474   4.693   4.635 -0.1573  1.2312  0.3661
  177MOL0     H24410  10.205   4.537   5.259 -0.7017  0.0083 -0.9333
  177MOL0     H24411   9.957   4.612   5.271 -0.4245 -0.7273 -0.5840
  177MOL0     H24412   9.567   4.525   5.210  0.1943 -0.1288 -0.3551
  177MOL0     H24413   9.362   4.687   5.188  3.2702 -0.4569 -0.3661
  177MOL0     H24414   9.106   4.735   5.543 -1.3767 -1.3028 -1.5989
  177MOL0     H24415   9.216   4.876   5.543 -0.2794  0.9533 -1.7009
  177MOL0     H24416   8.958   4.858   5.389  1.3776 -0.5563 -2.9493
  177MOL0     H24417   9.072   4.987   5.350 -1.5297  0.3138 -0.3236
  177MOL0     H24418   9.020   4.965   5.647 -0.5082 -0.2280 -0.2867
  177MOL0     H24419   9.053   5.100   5.537  0.5895 -0.1870  3.4582
  177MOL0     H24420   8.781   4.976   5.545 -0.6973  0.7599 -1.1023
  177MOL0     H24421   8.825   5.099   5.430 -1.6378  0.4713 -0.1597
  177MOL0     H24422   8.813   5.295   5.821  0.7778 -0.8137 -0.4869
  177MOL0     H24423   9.309   4.649   5.602 -1.7374 -1.3531 -0.6260
  177MOL0     H24424   9.549   4.393   5.673 -2.6768 -2.2622 -2.5266
  177MOL0     H24425   9.548   4.563   5.720  1.9121 -2.5042  1.7851
  177MOL0     H24426   9.396   4.463   5.701 -0.2561  2.1414 -0.2590
  178MOL0     O24427  10.443   0.397   1.585 -0.6400  0.4627 -0.2738
  178MOL0     C24428  10.465   0.439   1.701 -0.0519  0.4566  0.7480
  178MOL0     O24429  10.374   0.483   1.789  0.1635  0.1640 -0.0367
  178MOL0     C24430  10.236   0.471   1.757 -0.9410 -0.2805  0.4502
  178MOL0     C24431  10.155   0.587   1.752  0.7329 -0.3882  0.7484
  178MOL0     C24432  10.016   0.568   1.737  0.3306 -0.3020 -0.3377
  178MOL0     C24433   9.958   0.444   1.709  0.4059 -0.5269  0.8429
  178MOL0     O24434   9.828   0.431   1.679  0.1176 -0.3659  0.4259
  178MOL0     C24435   9.782   0.301   1.643  0.4004  0.5844 -0.2323
  178MOL0     C24436   9.631   0.298   1.605  0.0240 -0.5944 -0.1438
  178MOL0     C24437   9.588   0.411   1.510  0.6081 -0.7025  0.8048
  178MOL0     C24438   9.433   0.426   1.475 -0.1907  0.0462 -0.9778
  178MOL0     C24439   9.391   0.570   1.434  0.4907  0.5651 -0.3229
  178MOL0     C24440   9.245   0.567   1.404 -1.1413 -0.6741 -0.0538
  178MOL0     C24441   9.194   0.713   1.368  0.0262  0.5207 -0.5252
  178MOL0     C24442   9.237   0.770   1.229 -0.2142  0.4437 -0.5582
  178MOL0     N24443   9.209   0.912   1.216 -0.1174  0.0627  0.4083
  178MOL0     C24444   9.245   1.009   1.307 -0.1148  0.0619  0.5428
  178MOL0     C24445   9.222   1.127   1.244  0.3105  1.3437 -0.4982
  178MOL0     C24446   9.232   1.262   1.313 -0.5784  0.5613  0.0748
  178MOL0     C24447   9.381   1.304   1.343 -0.8463  0.8182  0.1454
  178MOL0     C24448   9.437   1.367   1.219  0.0738 -0.0628  0.2621
  178MOL0     C24449   9.584   1.358   1.209 -0.0330 -1.0545  0.0234
  178MOL0     O24450   9.637   1.406   1.084 -0.8223  0.2769  0.5122
  178MOL0     C24451   9.772   1.377   1.068 -0.1884 -0.7639  0.4272
  178MOL0     C24452   9.814   1.375   0.937  0.2545  0.2166 -0.2379
  178MOL0     C24453   9.948   1.350   0.913 -0.3561 -0.7093  0.7337
  178MOL0     C24454   9.976   1.346   0.761 -0.1618 -0.6951 -0.4646
  178MOL0     C24455  10.040   1.322   1.012  0.8100  0.5719  0.2153
  178MOL0     C24456  10.190   1.294   0.989  0.2802 -0.9161  0.8834
  178MOL0     O24457  10.271   1.289   1.098  0.1927  0.2749 -0.4690
  178MOL0     C24458  10.409   1.284   1.083 -0.5691  0.6161 -0.2128
  178MOL0     C24459  10.493   1.367   1.157 -0.7735  0.7931 -0.3859
  178MOL0     C24460  10.632   1.355   1.130  0.8844 -0.0173 -0.0133
  178MOL0     C24461  10.683   1.259   1.050 -0.0716 -0.1669  0.2742
  178MOL0     O24462  10.822   1.255   1.033 -1.0635  0.7315  0.1286
  178MOL0     C24463  10.876   1.143   0.971 -0.0064 -0.2357 -0.3896
  178MOL0     C24464  11.032   1.177   0.965  0.1045  0.2425 -0.3179
  178MOL0     C24465  11.100   1.166   1.092  0.7687  0.8364 -0.8815
  178MOL0     C24466  11.260   1.168   1.072  0.6448 -0.6789 -0.7953
  178MOL0     C24467  11.303   1.320   1.045 -0.8507 -0.1990 -0.0912
  178MOL0     C24468  11.453   1.328   1.036 -0.3472 -0.0362  0.0728
  178MOL0     C24469  11.490   1.467   0.987 -0.1611 -0.3309 -0.6020
  178MOL0     C24470  11.644   1.500   1.011 -0.2044  0.0866  0.3687
  178MOL0    Cl24471  11.700   1.653   0.929 -0.3283  0.5079 -0.0262
  178MOL0     C24472  10.602   1.157   0.991  0.4467 -0.0622  0.2836
  178MOL0     C24473  10.466   1.180   1.005  0.7884 -0.5153  0.1138
  178MOL0     O24474  10.230   1.285   0.874 -0.0191  0.9321 -0.1164
  178MOL0     C24475  10.003   1.337   1.144 -0.5922 -0.3414  0.3092
  178MOL0     C24476   9.871   1.355   1.178  0.1608  0.0603  0.0289
  178MOL0     N24477   9.169   1.102   1.117 -0.7266 -0.2929  0.3074
  178MOL0     N24478   9.163   0.977   1.101  0.5698  0.1923  0.1376
  178MOL0     C24479  10.044   0.331   1.718  0.7871 -0.5433 -0.2352
  178MOL0     C24480  10.178   0.344   1.747  0.1752 -0.0882  0.7834
  178MOL0     C24481  10.607   0.454   1.749 -0.5031 -0.6098  0.3689
  178MOL0     C24482  10.632   0.520   1.874  0.0832  0.3491  1.0298
  178MOL0     C24483  10.761   0.547   1.919 -1.2545  0.3868 -0.3197
  178MOL0     C24484  10.880   0.513   1.845  0.4419 -0.0632  0.7432
  178MOL0     O24485  11.010   0.543   1.881 -0.0963  0.1650  0.2760
  178MOL0     C24486  11.116   0.554   1.783 -0.7162  0.2316 -0.4382
  178MOL0     C24487  11.250   0.533   1.855 -0.1375 -0.7290 -0.2947
  178MOL0     C24488  11.266   0.632   1.976 -0.2344  0.2270  0.5217
  178MOL0     C24489  11.389   0.597   2.055  0.4353 -0.1886  0.0614
  178MOL0     C24490  11.506   0.606   1.973  0.9296 -0.4130 -0.0859
  178MOL0     C24491  11.601   0.603   1.896  0.2173  0.4571 -0.0384
  178MOL0     C24492  10.852   0.452   1.721  0.5539 -0.2083 -0.3066
  178MOL0     C24493  10.727   0.421   1.678  0.2991  0.3127  0.1900
  178MOL0     C24494  10.718   0.355   1.540 -0.7799 -0.0105  0.5221
  178MOL0     H24495  10.209   0.681   1.759  1.4230 -0.7993  1.0710
  178MOL0     H24496   9.956   0.658   1.745 -0.7266 -0.7113 -2.6840
  178MOL0     H24497   9.798   0.229   1.723  1.9741 -0.4310 -1.4038
  178MOL0     H24498   9.830   0.268   1.550 -0.8563  0.0389 -0.7161
  178MOL0     H24499   9.598   0.198   1.574 -0.2379 -0.4801 -0.2369
  178MOL0     H24500   9.575   0.303   1.699  0.7618 -4.5802  0.6968
  178MOL0     H24501   9.629   0.502   1.555  4.0758 -2.3422  1.2735
  178MOL0     H24502   9.638   0.394   1.413  0.9496 -1.3250  1.0811
  178MOL0     H24503   9.407   0.362   1.390 -1.0497  1.0025 -1.4466
  178MOL0     H24504   9.379   0.386   1.561  0.7881 -2.3438 -1.3875
  178MOL0     H24505   9.458   0.608   1.357  2.0070 -0.2069  0.5705
  178MOL0     H24506   9.410   0.636   1.518  1.0400  1.1870 -0.9231
  178MOL0     H24507   9.208   0.500   1.325 -0.0910  1.5442 -2.5936
  178MOL0     H24508   9.194   0.537   1.496 -0.7629 -2.3805 -0.3632
  178MOL0     H24509   9.231   0.777   1.448  1.1948 -2.0703  1.1451
  178MOL0     H24510   9.084   0.713   1.367 -0.2598 -4.8041 -1.7628
  178MOL0     H24511   9.344   0.756   1.214 -0.3264 -0.3454 -0.6865
  178MOL0     H24512   9.204   0.713   1.141  2.4989 -2.4669  0.1472
  178MOL0     H24513   9.295   1.005   1.404  2.7747  2.0973 -0.7187
  178MOL0     H24514   9.177   1.260   1.407 -1.3262  0.3003 -0.3535
  178MOL0     H24515   9.181   1.339   1.256 -0.9947  0.1149 -0.1682
  178MOL0     H24516   9.393   1.370   1.429 -1.7075  1.8474 -0.5091
  178MOL0     H24517   9.437   1.214   1.370  0.1869  1.1744 -0.7630
  178MOL0     H24518   9.396   1.309   1.136  0.7366  0.1778 -0.2453
  178MOL0     H24519   9.409   1.473   1.219 -0.3703 -0.1542 -1.4287
  178MOL0     H24520   9.624   1.423   1.287  0.9644 -0.3558 -1.0284
  178MOL0     H24521   9.598   1.250   1.217  0.7831 -1.2813 -3.0746
  178MOL0     H24522   9.748   1.388   0.852  1.2806  0.4466 -1.0256
  178MOL0     H24523  10.044   1.429   0.739 -0.8873  0.7370  2.2824
  178MOL0     H24524   9.884   1.336   0.703 -0.9802 -0.1606  0.7027
  178MOL0     H24525  10.025   1.249   0.753  0.5035 -0.3102 -1.2688
  178MOL0     H24526  10.442   1.439   1.220 -2.5108 -1.9502  1.5667
  178MOL0     H24527  10.697   1.433   1.167  1.8765  0.3060 -2.2668
  178MOL0     H24528  10.845   1.061   1.038 -0.4809  0.2601  0.0115
  178MOL0     H24529  10.839   1.131   0.869  3.6888 -1.2134 -1.7480
  178MOL0     H24530  11.082   1.110   0.894  3.0215  1.0313  0.8387
  178MOL0     H24531  11.023   1.280   0.931 -1.0370  0.5820  0.9320
  178MOL0     H24532  11.077   1.074   1.148  1.2399  0.3875 -1.4076
  178MOL0     H24533  11.069   1.246   1.160 -0.0173  1.1982 -1.6475
  178MOL0     H24534  11.287   1.101   0.990 -2.1508 -2.1868 -0.6048
  178MOL0     H24535  11.312   1.126   1.158 -0.5887 -2.9059 -1.0656
  178MOL0     H24536  11.262   1.368   0.956  1.3422 -0.8718 -1.5638
  178MOL0     H24537  11.268   1.378   1.131 -1.2071  2.2410 -1.8042
  178MOL0     H24538  11.469   1.243   0.969 -1.0803 -0.6875  0.7110
  178MOL0     H24539  11.496   1.312   1.135  0.5594 -3.1836 -0.7100
  178MOL0     H24540  11.423   1.540   1.033  0.9120  1.4046 -1.6454
  178MOL0     H24541  11.470   1.466   0.879 -1.9799 -0.7500 -0.2853
  178MOL0     H24542  11.707   1.419   0.974 -0.8749 -0.6371  0.7805
  178MOL0     H24543  11.650   1.531   1.116 -3.9403  1.6096  0.2891
  178MOL0     H24544  10.631   1.082   0.917  2.1664 -1.1623  1.9636
  178MOL0     H24545  10.400   1.110   0.953  1.6564 -1.9452  0.8766
  178MOL0     H24546  10.073   1.332   1.226  0.2672  3.3185 -0.0421
  178MOL0     H24547   9.846   1.361   1.283 -1.1058  2.8741 -0.3638
  178MOL0     H24548   9.993   0.235   1.722 -2.4269  1.0986  1.0014
  178MOL0     H24549  10.232   0.250   1.756  0.7789 -0.1814 -2.3771
  178MOL0     H24550  10.546   0.552   1.932  2.3412  3.1780  3.1084
  178MOL0     H24551  10.773   0.601   2.012  2.2594  1.6556 -1.3503
  178MOL0     H24552  11.115   0.482   1.700  1.8685  0.7997 -1.0486
  178MOL0     H24553  11.116   0.654   1.739  1.3879  0.4453 -0.0668
  178MOL0     H24554  11.330   0.545   1.781  0.6176 -3.2520 -0.0011
  178MOL0     H24555  11.272   0.431   1.890  2.4346 -0.3091 -0.4521
  178MOL0     H24556  11.262   0.736   1.942 -1.0343  0.9620  2.7220
  178MOL0     H24557  11.188   0.607   2.047  1.2953  0.7513  2.4739
  178MOL0     H24558  11.386   0.501   2.107 -0.2710  0.5235  1.3851
  178MOL0     H24559  11.399   0.675   2.130  0.1522 -0.3514  0.2699
  178MOL0     H24560  11.685   0.591   1.831 -1.3686  0.6140 -2.2297
  178MOL0     H24561  10.935   0.417   1.659  1.2633  0.9037 -0.0070
  178MOL0     H24562  10.809   0.313   1.496 -3.0366 -0.7161 -4.0330
  178MOL0     H24563  10.640   0.279   1.533 -0.3600 -0.3015 -1.4007
  178MOL0     H24564  10.690   0.437   1.473  2.0391 -0.4878 -1.4353
  179MOL0     O24565   4.216  11.026   6.633  0.6067 -0.5278  0.1389
  179MOL0     C24566   4.140  11.011   6.727 -0.3456 -0.0408 -1.5748
  179MOL0     O24567   4.184  10.961   6.850  0.3182 -0.5322  0.7601
  179MOL0     C24568   4.306  10.906   6.883 -0.6257  0.5678 -0.4729
  179MOL0     C24569   4.306  10.781   6.945  0.0876 -0.6395 -0.8302
  179MOL0     C24570   4.426  10.732   7.000  0.4143  0.3786 -0.7089
  179MOL0     C24571   4.549  10.810   6.994 -0.0518  0.6449 -0.4391
  179MOL0     O24572   4.668  10.765   7.026  0.0503  0.2846 -0.6891
  179MOL0     C24573   4.685  10.653   7.121  0.4300  0.0664  0.9858
  179MOL0     C24574   4.827  10.628   7.147 -0.0578 -0.5335  1.0311
  179MOL0     C24575   4.820  10.511   7.242  0.4559  0.2894  0.3451
  179MOL0     C24576   4.952  10.444   7.250  0.5158 -0.1035  0.0502
  179MOL0     C24577   4.958  10.326   7.341  0.4661 -0.1386  0.4039
  179MOL0     C24578   5.103  10.281   7.356  0.6891  0.2126 -0.1900
  179MOL0     C24579   5.120  10.180   7.461 -0.0599  0.0405  0.0185
  179MOL0     C24580   5.045  10.047   7.437 -0.6886 -0.1600 -0.4391
  179MOL0     N24581   5.060   9.946   7.541  0.4016  0.0679 -0.6324
  179MOL0     C24582   5.172   9.873   7.566 -0.7070  0.5353 -0.3818
  179MOL0     C24583   5.166   9.816   7.690  0.7620  0.6671  0.1174
  179MOL0     C24584   5.263   9.710   7.746  0.2273 -0.5722 -0.4826
  179MOL0     C24585   5.392   9.774   7.800 -0.6626  0.9977  0.5490
  179MOL0     C24586   5.468   9.671   7.880  0.3002 -0.1846 -0.3140
  179MOL0     C24587   5.610   9.726   7.910  0.3283  0.6897 -0.1232
  179MOL0     O24588   5.680   9.618   7.967  0.5972  0.9306 -0.7930
  179MOL0     C24589   5.773   9.555   7.899 -0.1219 -1.1828 -0.7196
  179MOL0     C24590   5.822   9.593   7.771 -0.1220  0.1644 -0.9475
  179MOL0     C24591   5.936   9.541   7.711 -0.3415  0.7541 -0.2757
  179MOL0     C24592   5.968   9.593   7.581 -0.1879  0.2897 -0.4590
  179MOL0     C24593   6.008   9.436   7.777  0.6249  0.1747 -0.1192
  179MOL0     C24594   6.130   9.372   7.731  1.0884  0.0821 -0.3639
  179MOL0     O24595   6.209   9.316   7.822 -0.3986 -0.3831 -1.5649
  179MOL0     C24596   6.320   9.266   7.771  0.2516 -0.7745 -0.1735
  179MOL0     C24597   6.330   9.137   7.736  0.5680 -0.8414  0.1592
  179MOL0     C24598   6.441   9.075   7.681  0.9777 -0.4072 -0.8993
  179MOL0     C24599   6.554   9.157   7.659  0.5173 -0.0894  0.5627
  179MOL0     O24600   6.674   9.103   7.604  0.2864  0.0818 -0.7047
  179MOL0     C24601   6.685   9.135   7.465 -0.1514 -0.0636  0.5345
  179MOL0     C24602   6.826   9.182   7.427 -0.3867  0.3041 -0.7629
  179MOL0     C24603   6.864   9.164   7.277  0.1523  0.0437  0.9213
  179MOL0     C24604   7.002   9.227   7.254 -0.9445 -0.3790  0.0654
  179MOL0     C24605   7.044   9.240   7.108  0.7400 -0.0393 -0.7309
  179MOL0     C24606   7.057   9.096   7.052 -0.2220 -0.6255  0.6867
  179MOL0     C24607   7.140   9.108   6.923  0.6846  0.2608 -0.0904
  179MOL0     C24608   7.110   9.221   6.826 -0.0458 -0.5932  0.4131
  179MOL0    Cl24609   7.185   9.186   6.671 -0.3767  0.0275 -0.3685
  179MOL0     C24610   6.561   9.294   7.696  0.9976  0.7554  0.0357
  179MOL0     C24611   6.438   9.348   7.751  0.4175 -0.5364  0.0566
  179MOL0     O24612   6.153   9.380   7.608 -0.0402 -0.1104  0.6703
  179MOL0     C24613   5.943   9.388   7.893  0.2252 -0.5484  0.1265
  179MOL0     C24614   5.835   9.450   7.957 -0.4733 -0.2648 -0.6444
  179MOL0     N24615   5.039   9.861   7.737  0.4538  0.0560 -0.0330
  179MOL0     N24616   4.981   9.944   7.651 -0.5256  0.7901 -0.3810
  179MOL0     C24617   4.541  10.938   6.938  0.8585  0.0607  0.1312
  179MOL0     C24618   4.428  10.979   6.869  0.2248  0.2335 -0.5309
  179MOL0     C24619   3.995  11.045   6.720 -0.7917 -0.2831  0.7723
  179MOL0     C24620   3.970  11.174   6.666 -0.2182 -0.0116  0.1068
  179MOL0     C24621   3.838  11.218   6.662 -0.0304  0.3369 -0.0718
  179MOL0     C24622   3.739  11.126   6.703  0.7955  0.8378 -0.6244
  179MOL0     O24623   3.613  11.179   6.674  0.4387  0.3020 -0.8177
  179MOL0     C24624   3.494  11.108   6.699  0.3091  0.0182  0.5785
  179MOL0     C24625   3.372  11.193   6.741  0.6676  0.3784  0.3454
  179MOL0     C24626   3.311  11.264   6.622 -0.0080 -0.3201  0.2566
  179MOL0     C24627   3.177  11.324   6.656 -0.1180  0.0937 -1.2835
  179MOL0     C24628   3.076  11.213   6.660 -0.5413  0.1499  0.4836
  179MOL0     C24629   2.978  11.141   6.665 -0.1731 -0.8705 -0.1420
  179MOL0     C24630   3.766  10.992   6.750 -0.5539 -0.1801 -0.5955
  179MOL0     C24631   3.894  10.953   6.760  0.5705  0.4001  0.5602
  179MOL0     C24632   3.925  10.815   6.801  0.0360 -0.0977  0.3019
  179MOL0     H24633   4.212  10.726   6.957  0.5763 -1.2506  0.2986
  179MOL0     H24634   4.428  10.632   7.043 -1.1462  0.2580 -0.8661
  179MOL0     H24635   4.659  10.566   7.060  1.7846  0.2163  0.1501
  179MOL0     H24636   4.622  10.663   7.210  0.2116 -0.3559  0.8803
  179MOL0     H24637   4.882  10.617   7.053  2.8728  1.6983  2.3103
  179MOL0     H24638   4.867  10.715   7.200  0.8834  0.0986 -0.6584
  179MOL0     H24639   4.785  10.554   7.336  1.3323 -0.2492  0.9375
  179MOL0     H24640   4.748  10.436   7.208  0.2266  0.1891  1.0429
  179MOL0     H24641   4.985  10.403   7.153 -0.7518  0.2733 -0.5556
  179MOL0     H24642   5.032  10.515   7.274  1.6168 -1.2469 -0.1440
  179MOL0     H24643   4.897  10.247   7.297 -0.5435  0.5463  0.5414
  179MOL0     H24644   4.920  10.348   7.441  0.3740  2.0920 -0.0599
  179MOL0     H24645   5.125  10.238   7.258  0.4748  1.1840 -0.6881
  179MOL0     H24646   5.175  10.362   7.369  0.2027  0.5146  0.6919
  179MOL0     H24647   5.084  10.220   7.556 -1.7642 -1.2766 -0.0256
  179MOL0     H24648   5.227  10.161   7.471  0.1672  1.3108  0.1878
  179MOL0     H24649   4.937  10.063   7.430 -0.8080 -1.0810 -0.8965
  179MOL0     H24650   5.066  10.000   7.341 -1.7284  0.2379 -0.8819
  179MOL0     H24651   5.241   9.833   7.492 -2.2947 -0.0107 -1.6353
  179MOL0     H24652   5.280   9.630   7.674  1.9236  2.0343 -3.2538
  179MOL0     H24653   5.216   9.660   7.831 -0.5021 -0.7261 -0.9756
  179MOL0     H24654   5.450   9.810   7.714 -2.0243  1.3096 -0.2712
  179MOL0     H24655   5.370   9.854   7.872 -0.9610 -1.5559  3.4638
  179MOL0     H24656   5.415   9.650   7.973 -0.8102 -0.9650 -1.0916
  179MOL0     H24657   5.479   9.576   7.826  0.6441 -0.1184 -0.3604
  179MOL0     H24658   5.652   9.766   7.818  0.4093  0.1473 -0.3239
  179MOL0     H24659   5.611   9.811   7.979 -1.2508 -0.6110  1.6039
  179MOL0     H24660   5.764   9.660   7.708 -0.8654  0.1302 -0.3186
  179MOL0     H24661   5.945   9.513   7.510  2.1575 -2.0514  1.2424
  179MOL0     H24662   6.077   9.608   7.581  0.1131 -1.6092 -0.0023
  179MOL0     H24663   5.911   9.681   7.549 -0.5308 -0.9114 -3.4667
  179MOL0     H24664   6.235   9.085   7.729  0.9828 -1.5711 -0.1884
  179MOL0     H24665   6.456   8.970   7.659  2.5934  0.2785 -3.5134
  179MOL0     H24666   6.664   9.049   7.400 -2.6464  1.7717 -1.2761
  179MOL0     H24667   6.601   9.196   7.431 -0.1190  1.0397  2.3426
  179MOL0     H24668   6.832   9.288   7.455  0.1924  0.3125 -0.9071
  179MOL0     H24669   6.889   9.125   7.496 -2.8468 -0.9935  0.5423
  179MOL0     H24670   6.797   9.209   7.203 -1.4141 -2.2359  0.8535
  179MOL0     H24671   6.869   9.057   7.256 -0.7483  0.3940 -1.3427
  179MOL0     H24672   7.078   9.166   7.304 -1.5444 -1.0631  0.1596
  179MOL0     H24673   7.012   9.324   7.302 -1.0649 -0.2304 -0.2086
  179MOL0     H24674   6.966   9.288   7.049 -2.8608 -2.2003  1.8638
  179MOL0     H24675   7.140   9.293   7.103  0.8566 -0.2570 -0.8460
  179MOL0     H24676   6.959   9.054   7.026 -0.2238 -0.3748  0.2794
  179MOL0     H24677   7.107   9.026   7.119 -1.7928 -2.5191 -0.0114
  179MOL0     H24678   7.109   9.018   6.870  0.3325  1.3709 -1.8494
  179MOL0     H24679   7.244   9.118   6.955 -0.3412 -0.7482  4.1209
  179MOL0     H24680   7.142   9.315   6.872 -0.0056 -0.3865 -0.0299
  179MOL0     H24681   7.000   9.224   6.826 -0.0676  0.1165  2.4785
  179MOL0     H24682   6.640   9.362   7.668 -0.5961  2.9241  0.5456
  179MOL0     H24683   6.446   9.453   7.773 -0.7067 -0.0962 -1.4483
  179MOL0     H24684   5.984   9.307   7.952  0.0405  1.0615  2.6106
  179MOL0     H24685   5.804   9.408   8.052 -1.3241 -0.4916 -1.0118
  179MOL0     H24686   4.630  10.999   6.944  0.7836  0.5877 -2.6495
  179MOL0     H24687   4.432  11.075   6.817 -0.1182  1.1712  1.1030
  179MOL0     H24688   4.046  11.236   6.620 -0.8464 -0.4912 -1.7018
  179MOL0     H24689   3.811  11.320   6.640  0.1705  0.2609 -0.6946
  179MOL0     H24690   3.463  11.052   6.610  0.1166  0.9820  0.0191
  179MOL0     H24691   3.520  11.037   6.779  2.3494 -0.0194 -0.0502
  179MOL0     H24692   3.402  11.259   6.822  1.3455  0.8156 -0.2475
  179MOL0     H24693   3.297  11.122   6.777 -0.3090  0.0880 -2.0385
  179MOL0     H24694   3.371  11.347   6.584 -0.6731 -0.7036 -1.7520
  179MOL0     H24695   3.302  11.189   6.542 -2.6202  0.8725 -0.6968
  179MOL0     H24696   3.142  11.396   6.580 -2.4408 -0.6328 -0.9736
  179MOL0     H24697   3.174  11.374   6.753  0.3664 -0.4764 -0.9778
  179MOL0     H24698   2.892  11.078   6.655 -0.9906  0.0587  0.8365
  179MOL0     H24699   3.686  10.922   6.776 -0.8629  0.5993  0.6470
  179MOL0     H24700   3.836  10.756   6.777 -0.4769  1.7117 -2.7260
  179MOL0     H24701   4.009  10.786   6.738 -0.2233  2.3771 -1.3325
  179MOL0     H24702   3.930  10.825   6.910 -4.7666 -0.1518  0.7494
  180MOL0     O24703   0.259  11.258  10.198  0.3530  0.1070 -0.6613
  180MOL0     C24704   0.241  11.206  10.087 -1.0562 -0.0735 -0.2514
  180MOL0     O24705   0.330  11.115  10.041 -0.5727  0.4577  0.2982
  180MOL0     C24706   0.440  11.069  10.112  0.3315  0.7825 -1.1818
  180MOL0     C24707   0.541  11.011  10.029  1.3779  0.1737 -0.2632
  180MOL0     C24708   0.660  10.955  10.082  0.5868  0.7331 -0.5840
  180MOL0     C24709   0.684  10.965  10.223  0.1577 -0.8082  0.0859
  180MOL0     O24710   0.784  10.904  10.294 -0.5631 -0.7356  0.4964
  180MOL0     C24711   0.911  10.923  10.230  0.5378  0.4677 -0.3428
  180MOL0     C24712   1.017  10.917  10.341  0.6560  0.3528  0.4358
  180MOL0     C24713   1.164  10.965  10.315 -0.4825  0.1944  0.2375
  180MOL0     C24714   1.244  10.857  10.245 -0.1888 -0.0998  0.3726
  180MOL0     C24715   1.392  10.906  10.228 -0.0648  0.2550  0.1281
  180MOL0     C24716   1.464  10.832  10.109 -0.0331  0.3886 -0.1084
  180MOL0     C24717   1.612  10.820  10.146 -0.1693  0.4376 -0.7840
  180MOL0     C24718   1.698  10.943  10.148  0.0985 -0.6807 -0.1129
  180MOL0     N24719   1.721  11.020  10.274  0.5534 -0.1380 -0.3161
  180MOL0     C24720   1.809  11.000  10.377  0.3759  0.9067 -0.0411
  180MOL0     C24721   1.795  11.096  10.471 -0.6295  0.1789 -0.2971
  180MOL0     C24722   1.880  11.104  10.601  0.7493  0.1576  0.1812
  180MOL0     C24723   2.015  11.163  10.564 -0.2162 -0.3513  0.3838
  180MOL0     C24724   2.065  11.236  10.688  0.8831  0.8476 -0.9335
  180MOL0     C24725   2.055  11.155  10.817 -0.3613 -0.1279 -0.3400
  180MOL0     O24726   2.139  11.203  10.926  1.0021 -0.1033  0.2179
  180MOL0     C24727   2.272  11.174  10.935  0.8075 -0.1332 -0.5029
  180MOL0     C24728   2.343  11.077  10.861  0.0870  0.3479  0.7164
  180MOL0     C24729   2.478  11.048  10.898  1.0970 -0.2722  0.4257
  180MOL0     C24730   2.548  10.935  10.821 -0.1560 -0.7494 -0.0488
  180MOL0     C24731   2.543  11.119  11.001  1.3258 -0.5249 -0.9837
  180MOL0     C24732   2.678  11.084  11.052  0.2419 -0.2927 -0.4421
  180MOL0     O24733   2.717  11.143  11.170 -0.4545  0.2709 -0.6984
  180MOL0     C24734   2.820  11.087  11.241  0.6756 -0.5000 -0.2628
  180MOL0     C24735   2.810  10.961  11.282  0.0791 -0.2918  0.7133
  180MOL0     C24736   2.913  10.901  11.356  0.1875  0.6177 -0.2579
  180MOL0     C24737   3.035  10.973  11.382  0.6449 -0.2135 -0.0218
  180MOL0     O24738   3.136  10.929  11.466  0.3492  0.0922  0.3967
  180MOL0     C24739   3.194  10.810  11.432  0.1010  0.3304  0.1570
  180MOL0     C24740   3.333  10.812  11.488 -0.1608 -0.2618 -0.0226
  180MOL0     C24741   3.394  10.666  11.479  0.1878 -0.6175 -0.3907
  180MOL0     C24742   3.527  10.661  11.550 -0.1261  0.1737  0.4915
  180MOL0     C24743   3.636  10.724  11.466 -0.6315 -0.1616 -0.0507
  180MOL0     C24744   3.782  10.688  11.521 -0.0270  0.3857  0.5517
  180MOL0     C24745   3.881  10.737  11.429  0.0692 -0.4963 -0.2267
  180MOL0     C24746   4.023  10.742  11.476 -0.7195 -0.6890  0.9266
  180MOL0    Cl24747   4.132  10.818  11.352 -0.1213 -0.0852  0.1974
  180MOL0     C24748   3.046  11.106  11.332 -0.1472 -0.0161 -1.4073
  180MOL0     C24749   2.936  11.163  11.271 -0.0748 -1.1777 -0.7203
  180MOL0     O24750   2.751  11.016  10.985  0.0064  0.2307 -0.2964
  180MOL0     C24751   2.466  11.221  11.067  0.3925 -0.3664 -0.4668
  180MOL0     C24752   2.339  11.241  11.036 -0.2587  0.2783  0.0199
  180MOL0     N24753   1.699  11.180  10.425 -0.2484 -0.2938  0.9685
  180MOL0     N24754   1.660  11.141  10.309  0.2033  0.3957 -0.0010
  180MOL0     C24755   0.580  11.015  10.307  0.0630 -0.7177  0.4442
  180MOL0     C24756   0.465  11.072  10.251 -0.5517  0.2958  0.5801
  180MOL0     C24757   0.135  11.263   9.997  0.7639 -0.2098 -0.5007
  180MOL0     C24758   0.061  11.171   9.923  0.6657  0.6826  0.1243
  180MOL0     C24759  -0.043  11.207   9.842  0.2436  0.3043 -0.1601
  180MOL0     C24760  -0.086  11.337   9.832 -0.3810  0.0540 -0.3869
  180MOL0     O24761  -0.190  11.382   9.742 -0.1579 -0.3576  0.3500
  180MOL0     C24762  -0.231  11.520   9.746 -0.9406  0.4840  0.2617
  180MOL0     C24763  -0.335  11.533   9.636 -0.6738  0.4936 -1.0615
  180MOL0     C24764  -0.339  11.676   9.586 -0.4327 -0.8860  0.4260
  180MOL0     C24765  -0.369  11.788   9.682  0.3865  0.4473  0.2536
  180MOL0     C24766  -0.506  11.776   9.743  0.4410 -0.5926 -0.5835
  180MOL0     C24767  -0.626  11.766   9.778 -0.3977 -0.3722 -0.4839
  180MOL0     C24768  -0.024  11.427   9.920 -0.3550 -0.3633  0.7024
  180MOL0     C24769   0.094  11.393  10.001  0.0752  0.0347 -1.2161
  180MOL0     C24770   0.167  11.508  10.074 -0.5565 -0.2014 -0.3714
  180MOL0     H24771   0.514  10.996   9.925  0.5011 -0.6920  0.0786
  180MOL0     H24772   0.732  10.903  10.019  0.4542 -0.3858  0.1721
  180MOL0     H24773   0.910  11.019  10.176 -2.0274  0.8267  0.2102
  180MOL0     H24774   0.914  10.841  10.158 -0.5504 -0.4340  0.5996
  180MOL0     H24775   0.985  10.991  10.415 -2.1359  0.5178 -0.8355
  180MOL0     H24776   1.002  10.823  10.395 -5.0836  0.1764 -0.8885
  180MOL0     H24777   1.157  11.057  10.255 -2.8186 -0.4097 -0.5225
  180MOL0     H24778   1.227  10.985  10.402  2.6735 -0.0456 -1.8212
  180MOL0     H24779   1.233  10.767  10.306 -0.1286  1.5995  3.0617
  180MOL0     H24780   1.196  10.843  10.148  0.2518  1.4606 -0.0983
  180MOL0     H24781   1.444  10.897  10.324 -1.0587  1.8041  0.8455
  180MOL0     H24782   1.390  11.012  10.203  0.3662  0.1603 -0.3243
  180MOL0     H24783   1.417  10.735  10.087 -2.2991  1.6565 -1.2603
  180MOL0     H24784   1.457  10.887  10.015  1.8526  0.8459 -0.0161
  180MOL0     H24785   1.662  10.738  10.094 -0.5626 -1.8712  2.2006
  180MOL0     H24786   1.631  10.774  10.244  0.1638  0.3793 -0.8712
  180MOL0     H24787   1.798  10.903  10.126 -0.9110 -4.2441  1.0949
  180MOL0     H24788   1.658  11.013  10.074 -0.9639 -0.2546  0.8408
  180MOL0     H24789   1.875  10.914  10.380 -1.5689 -0.6553  1.4886
  180MOL0     H24790   1.895  11.007  10.649  0.4299 -0.5878 -1.1558
  180MOL0     H24791   1.827  11.169  10.671  1.1587 -0.4902  1.1157
  180MOL0     H24792   2.088  11.086  10.536 -0.5731 -0.5843  0.0991
  180MOL0     H24793   2.015  11.233  10.480 -1.4518  1.2917  1.6860
  180MOL0     H24794   2.162  11.283  10.669  0.8297  1.3998  0.0638
  180MOL0     H24795   2.001  11.320  10.721 -0.4702 -0.6705  0.5206
  180MOL0     H24796   1.954  11.148  10.859 -0.0757 -0.0632  0.3560
  180MOL0     H24797   2.090  11.054  10.793  0.3506 -0.0417  0.3168
  180MOL0     H24798   2.295  11.026  10.779  4.1496 -1.6708 -0.6828
  180MOL0     H24799   2.594  10.858  10.883  1.1916 -0.7031 -0.9666
  180MOL0     H24800   2.616  10.973  10.745  1.1221 -0.9255  0.9807
  180MOL0     H24801   2.468  10.884  10.766 -0.5711 -0.2832  0.1046
  180MOL0     H24802   2.723  10.896  11.280  1.8756 -2.8404 -1.4727
  180MOL0     H24803   2.909  10.795  11.379 -0.4641  0.0068 -2.8363
  180MOL0     H24804   3.150  10.729  11.490  2.4194 -0.5411  0.8144
  180MOL0     H24805   3.180  10.789  11.325  1.3185 -1.6410  0.3316
  180MOL0     H24806   3.390  10.883  11.428  0.5535 -2.1207 -1.6828
  180MOL0     H24807   3.325  10.850  11.591  1.9322  0.3860 -0.0497
  180MOL0     H24808   3.408  10.645  11.373 -0.1461 -0.5576 -0.4492
  180MOL0     H24809   3.322  10.597  11.526 -0.2329  1.0205  1.4993
  180MOL0     H24810   3.541  10.554  11.571 -1.2437  0.3349  2.2498
  180MOL0     H24811   3.520  10.702  11.651  0.3938 -1.5021  1.2434
  180MOL0     H24812   3.635  10.695  11.360 -0.7059  1.9830 -0.6776
  180MOL0     H24813   3.620  10.832  11.461  1.4854  0.1438 -1.5515
  180MOL0     H24814   3.785  10.579  11.526 -1.8490  0.1794 -1.4417
  180MOL0     H24815   3.800  10.726  11.622  2.0314 -0.6317  0.6318
  180MOL0     H24816   3.855  10.840  11.405  0.3329 -0.2856  0.3692
  180MOL0     H24817   3.866  10.679  11.337  0.0674  1.7609 -1.7299
  180MOL0     H24818   4.060  10.640  11.493  0.9063 -0.4175 -0.7270
  180MOL0     H24819   4.031  10.797  11.570 -1.7298 -0.6311  0.9840
  180MOL0     H24820   3.137  11.162  11.344 -0.1260  0.1444 -2.2068
  180MOL0     H24821   2.935  11.266  11.238  1.0272 -1.1476 -0.7047
  180MOL0     H24822   2.501  11.264  11.160 -3.2462 -1.1878  1.4751
  180MOL0     H24823   2.286  11.319  11.090 -1.7872 -0.1901 -0.7718
  180MOL0     H24824   0.597  11.022  10.414 -1.2144 -0.7216  0.6662
  180MOL0     H24825   0.397  11.119  10.321 -1.5636  0.6337 -0.6039
  180MOL0     H24826   0.101  11.070   9.923  0.0915  0.4490  0.0531
  180MOL0     H24827  -0.082  11.134   9.771  1.2355  0.8584 -1.3281
  180MOL0     H24828  -0.276  11.532   9.845 -0.2048 -1.3780  0.8561
  180MOL0     H24829  -0.147  11.587   9.725 -0.4312 -0.1045  0.3950
  180MOL0     H24830  -0.431  11.492   9.670 -0.3984 -1.4426 -2.4235
  180MOL0     H24831  -0.317  11.480   9.542 -1.0535 -2.2937  0.3218
  180MOL0     H24832  -0.249  11.716   9.539 -0.5098  0.1429  1.1034
  180MOL0     H24833  -0.411  11.683   9.503  1.5239 -0.5770 -1.3285
  180MOL0     H24834  -0.370  11.875   9.616 -0.7513  0.2170 -0.0513
  180MOL0     H24835  -0.297  11.805   9.763  0.3514  0.0641  0.3666
  180MOL0     H24836  -0.727  11.765   9.815  0.8080 -0.5950  3.2560
  180MOL0     H24837  -0.055  11.531   9.921  0.4281 -0.0780 -1.4435
  180MOL0     H24838   0.116  11.601  10.052  1.0896  0.0653 -3.6993
  180MOL0     H24839   0.162  11.486  10.181  1.2334 -5.3698 -1.0399
  180MOL0     H24840   0.269  11.522  10.035  0.2201  0.9036  1.8779
  181MOL0     O24841   1.681   4.029   9.978 -0.2773 -0.2718 -0.0120
  181MOL0     C24842   1.652   4.012   9.863 -1.0923  0.4510  0.1914
  181MOL0     O24843   1.726   4.078   9.765  0.5132  0.2734  0.7161
  181MOL0     C24844   1.817   4.177   9.793 -0.1269 -0.3689 -0.4415
  181MOL0     C24845   1.948   4.154   9.741  0.9462 -0.5628 -0.5304
  181MOL0     C24846   2.050   4.242   9.750 -0.2193 -0.5147 -0.0175
  181MOL0     C24847   2.031   4.366   9.815 -0.7587  0.4300  0.2533
  181MOL0     O24848   2.123   4.467   9.822 -0.5940  0.6029 -0.2915
  181MOL0     C24849   2.254   4.417   9.858 -0.2023  0.5629 -0.1244
  181MOL0     C24850   2.361   4.520   9.817  0.1405  0.7712  0.0307
  181MOL0     C24851   2.500   4.458   9.820  1.0379 -0.0840  0.8275
  181MOL0     C24852   2.601   4.565   9.785  0.0700  0.3812  0.5907
  181MOL0     C24853   2.739   4.511   9.828  0.2074 -0.0424  0.8974
  181MOL0     C24854   2.847   4.620   9.803  0.0651  0.3651  0.0214
  181MOL0     C24855   2.977   4.577   9.861  0.2373 -0.1983  0.7621
  181MOL0     C24856   3.091   4.669   9.821  0.2865 -0.6086 -0.3016
  181MOL0     N24857   3.129   4.637   9.687  0.3200  0.0394 -0.2423
  181MOL0     C24858   3.079   4.691   9.566 -0.0578 -0.1727 -0.7085
  181MOL0     C24859   3.150   4.635   9.466 -0.2105  0.0084 -0.4517
  181MOL0     C24860   3.134   4.662   9.327 -0.3425  0.3775  0.3478
  181MOL0     C24861   3.223   4.777   9.279  0.5785 -0.0247  0.3000
  181MOL0     C24862   3.351   4.715   9.209  1.0042 -0.7949 -0.1565
  181MOL0     C24863   3.446   4.836   9.167  1.3612 -0.0036  0.2506
  181MOL0     O24864   3.392   4.918   9.057 -0.6142  1.0433 -0.0931
  181MOL0     C24865   3.478   4.974   8.973 -0.9489 -0.0871  0.5101
  181MOL0     C24866   3.429   5.037   8.858 -0.5212 -0.2681  0.5619
  181MOL0     C24867   3.507   5.116   8.778 -0.3457 -0.6843 -0.1427
  181MOL0     C24868   3.433   5.180   8.653  0.1304 -0.4576 -0.1398
  181MOL0     C24869   3.651   5.128   8.803  0.0580  0.2961 -0.2578
  181MOL0     C24870   3.752   5.215   8.724  0.4564 -0.2534  0.0297
  181MOL0     O24871   3.874   5.231   8.772  0.1502  0.1612 -0.7675
  181MOL0     C24872   3.956   5.318   8.710 -0.6710 -0.3785  0.0001
  181MOL0     C24873   4.086   5.268   8.687 -0.5347 -0.0992  0.8351
  181MOL0     C24874   4.180   5.348   8.626 -0.5312  0.5353 -0.1691
  181MOL0     C24875   4.148   5.476   8.594 -0.9110 -0.6852  0.8168
  181MOL0     O24876   4.242   5.558   8.524  0.5134 -0.5495  0.7653
  181MOL0     C24877   4.352   5.602   8.602 -0.3276  1.2533 -0.3933
  181MOL0     C24878   4.431   5.720   8.542  0.3417  0.1237 -0.1243
  181MOL0     C24879   4.541   5.760   8.639 -0.7070  0.3879  0.3679
  181MOL0     C24880   4.636   5.644   8.674 -0.0236 -0.5043 -0.8415
  181MOL0     C24881   4.762   5.701   8.741  0.3437 -0.2784 -0.3851
  181MOL0     C24882   4.830   5.582   8.809  0.0481 -0.9931 -1.0912
  181MOL0     C24883   4.953   5.604   8.899  0.0823  0.0811  0.0380
  181MOL0     C24884   5.017   5.465   8.943  0.5150 -1.0874 -1.2509
  181MOL0    Cl24885   5.131   5.494   9.087  0.2057  0.3247 -0.3174
  181MOL0     C24886   4.022   5.523   8.609  0.2134 -0.1535  0.3474
  181MOL0     C24887   3.919   5.448   8.671  0.0385 -0.1006 -0.2160
  181MOL0     O24888   3.711   5.258   8.615 -0.0193 -0.5353  0.6450
  181MOL0     C24889   3.703   5.079   8.923 -0.8808 -0.2622  0.3568
  181MOL0     C24890   3.612   5.010   9.004 -0.3667 -0.1469 -0.0223
  181MOL0     N24891   3.241   4.547   9.519 -0.3659  0.5549 -0.1550
  181MOL0     N24892   3.236   4.558   9.649  0.8388 -0.9726 -0.6159
  181MOL0     C24893   1.896   4.398   9.857 -0.2140 -0.2246  0.0857
  181MOL0     C24894   1.791   4.302   9.849  0.1652  0.2873 -0.4918
  181MOL0     C24895   1.538   3.928   9.838 -0.5875  0.5812  0.1706
  181MOL0     C24896   1.494   3.930   9.701  0.2524 -1.0352  0.0895
  181MOL0     C24897   1.383   3.869   9.656  0.7296 -0.0980  0.0319
  181MOL0     C24898   1.314   3.783   9.744  0.0632 -0.3766  0.0134
  181MOL0     O24899   1.205   3.709   9.713 -0.4211  0.2970  0.0233
  181MOL0     C24900   1.110   3.749   9.616 -0.1216  0.2228  0.2075
  181MOL0     C24901   0.975   3.676   9.614 -0.6077 -0.5082  0.5220
  181MOL0     C24902   0.907   3.703   9.748 -0.3176  0.2466 -0.0713
  181MOL0     C24903   0.758   3.663   9.738  0.2442  0.8226  0.0433
  181MOL0     C24904   0.687   3.681   9.868  0.0778 -0.2547 -0.4298
  181MOL0     C24905   0.618   3.687   9.967  0.0360  0.1636 -0.2565
  181MOL0     C24906   1.351   3.780   9.882  0.7214 -0.0838 -0.1431
  181MOL0     C24907   1.462   3.845   9.932 -0.1699  1.2211  0.7179
  181MOL0     C24908   1.500   3.827  10.076  0.9410 -1.0786 -0.5659
  181MOL0     H24909   1.973   4.062   9.691  1.6621 -0.9674  0.5291
  181MOL0     H24910   2.145   4.222   9.700  1.2582  1.5367  1.7468
  181MOL0     H24911   2.285   4.326   9.806 -1.9539  1.3305 -2.7098
  181MOL0     H24912   2.259   4.390   9.964 -1.5240  3.1767  0.7006
  181MOL0     H24913   2.355   4.571   9.721  1.3731  0.8005 -0.0451
  181MOL0     H24914   2.357   4.592   9.899  0.4091  0.6419  0.1591
  181MOL0     H24915   2.509   4.419   9.922 -1.9219 -0.2712  1.1216
  181MOL0     H24916   2.509   4.375   9.749 -0.9380  2.5914 -2.9141
  181MOL0     H24917   2.610   4.594   9.680  0.9417  0.1878  0.6040
  181MOL0     H24918   2.580   4.661   9.833  0.6322  0.8139 -0.0086
  181MOL0     H24919   2.759   4.414   9.781 -2.5011  0.4480 -1.5513
  181MOL0     H24920   2.731   4.499   9.936 -0.1042  2.5426  1.2113
  181MOL0     H24921   2.852   4.645   9.696 -2.2720 -0.4367 -0.3240
  181MOL0     H24922   2.818   4.710   9.858  0.1402  0.9020 -0.7848
  181MOL0     H24923   3.001   4.477   9.826 -0.5565 -1.0648  2.5428
  181MOL0     H24924   2.954   4.561   9.967 -0.7548 -1.3816  0.3956
  181MOL0     H24925   3.056   4.772   9.818 -1.2915 -1.0362  1.3286
  181MOL0     H24926   3.171   4.664   9.896  0.3300 -1.8087 -0.4024
  181MOL0     H24927   3.003   4.768   9.564 -0.4975 -0.6155 -1.5809
  181MOL0     H24928   3.029   4.676   9.302 -0.6575 -2.8457 -0.5588
  181MOL0     H24929   3.145   4.573   9.264  0.8232  0.7787 -0.0535
  181MOL0     H24930   3.172   4.839   9.204 -0.3848 -0.3516  0.6716
  181MOL0     H24931   3.252   4.839   9.365  0.5610 -0.3104  0.5113
  181MOL0     H24932   3.405   4.659   9.286  0.9531  0.2388  0.6452
  181MOL0     H24933   3.329   4.651   9.123  0.0116  0.2788 -0.7247
  181MOL0     H24934   3.469   4.904   9.249 -0.8575  2.9136 -1.3620
  181MOL0     H24935   3.535   4.791   9.122 -0.0073 -0.3503 -2.3358
  181MOL0     H24936   3.325   5.032   8.827  0.7326 -1.4967 -4.2551
  181MOL0     H24937   3.472   5.127   8.565  2.3123 -2.7387  2.0372
  181MOL0     H24938   3.465   5.285   8.647  0.6434 -0.6676 -1.5003
  181MOL0     H24939   3.324   5.181   8.654  0.1304  0.3297  0.0244
  181MOL0     H24940   4.110   5.164   8.707  0.3671 -0.4341 -1.7250
  181MOL0     H24941   4.271   5.299   8.592 -0.7267 -0.9581  1.3449
  181MOL0     H24942   4.315   5.639   8.699 -0.1311  0.4844 -0.0187
  181MOL0     H24943   4.408   5.510   8.621 -0.2035  1.5150  0.5874
  181MOL0     H24944   4.466   5.700   8.441  1.7849  0.3678  0.3080
  181MOL0     H24945   4.372   5.812   8.547  0.6341  0.4364 -1.9443
  181MOL0     H24946   4.491   5.794   8.730 -0.2491  0.0313  0.7547
  181MOL0     H24947   4.605   5.837   8.596  1.6485 -2.0713 -0.8687
  181MOL0     H24948   4.658   5.585   8.585  1.7081 -2.0380  0.5201
  181MOL0     H24949   4.582   5.587   8.751  0.5991 -1.0647 -0.8147
  181MOL0     H24950   4.820   5.747   8.660 -0.1376  3.4943  1.1858
  181MOL0     H24951   4.740   5.781   8.812  1.2743  0.2772 -0.7006
  181MOL0     H24952   4.850   5.513   8.727  2.5438 -0.5026 -0.9697
  181MOL0     H24953   4.763   5.540   8.884  0.6896 -1.9581 -1.0304
  181MOL0     H24954   4.922   5.664   8.985  1.8017 -0.2399  0.9238
  181MOL0     H24955   5.033   5.654   8.844  0.2474  2.0821  1.9610
  181MOL0     H24956   5.062   5.410   8.860 -0.3074 -2.8795 -0.5763
  181MOL0     H24957   4.942   5.394   8.979 -0.3245 -0.5010 -1.8017
  181MOL0     H24958   4.000   5.624   8.574  1.2486  0.3322  1.0356
  181MOL0     H24959   3.816   5.485   8.672 -0.4158 -1.0097 -3.1449
  181MOL0     H24960   3.802   5.081   8.967  0.8366 -3.8390 -2.7084
  181MOL0     H24961   3.658   4.984   9.099  1.3463  0.9764 -0.4982
  181MOL0     H24962   1.867   4.490   9.906 -1.1517 -1.0044  1.0448
  181MOL0     H24963   1.692   4.338   9.876  0.0402 -0.9260  0.7323
  181MOL0     H24964   1.541   3.999   9.631  1.3966 -0.6095  1.2484
  181MOL0     H24965   1.362   3.880   9.550  0.3957  2.8040  0.3175
  181MOL0     H24966   1.106   3.858   9.619  1.7799  0.3361 -0.3925
  181MOL0     H24967   1.146   3.729   9.515 -2.0626  1.6964 -0.8430
  181MOL0     H24968   0.994   3.569   9.603  0.6991 -0.2668  0.3562
  181MOL0     H24969   0.909   3.714   9.535 -0.5645  2.2649  1.6943
  181MOL0     H24970   0.952   3.651   9.833 -0.4035 -1.6280 -1.1292
  181MOL0     H24971   0.915   3.809   9.774 -1.3314  0.4034 -0.3549
  181MOL0     H24972   0.759   3.561   9.698  1.4590  1.0938 -0.6453
  181MOL0     H24973   0.717   3.725   9.658  1.5505  0.9941 -0.5024
  181MOL0     H24974   0.552   3.702  10.050 -0.5986 -1.9155 -0.3137
  181MOL0     H24975   1.285   3.725   9.949 -0.4437 -1.8753 -2.5474
  181MOL0     H24976   1.477   3.913  10.140  1.9723 -0.9027 -0.3999
  181MOL0     H24977   1.448   3.739  10.115 -3.3134  1.3201 -0.2557
  181MOL0     H24978   1.608   3.811  10.077  0.9009 -1.4891  1.3180
  182MOL0     O24979   9.457   0.439   7.222  0.2349  0.0796 -0.1268
  182MOL0     C24980   9.369   0.458   7.312 -0.2831 -0.6351  0.5812
  182MOL0     O24981   9.387   0.443   7.444 -0.1442 -0.8250  0.0301
  182MOL0     C24982   9.505   0.407   7.481  0.3279 -0.0754  0.9598
  182MOL0     C24983   9.536   0.268   7.503 -0.1562 -0.5258  0.1469
  182MOL0     C24984   9.659   0.235   7.567 -0.2114 -0.3080 -0.0691
  182MOL0     C24985   9.749   0.334   7.612  0.6803  0.4935  0.3589
  182MOL0     O24986   9.849   0.292   7.701 -0.1538 -0.3175 -0.3574
  182MOL0     C24987   9.976   0.361   7.710 -0.3445 -0.7573  0.2643
  182MOL0     C24988  10.058   0.292   7.812 -0.9133  0.2928 -0.7156
  182MOL0     C24989  10.130   0.169   7.747  0.0774  0.0926 -0.2405
  182MOL0     C24990  10.220   0.102   7.851  0.0404 -1.1693  0.6393
  182MOL0     C24991  10.263  -0.045   7.807 -0.6304 -0.7768 -0.3943
  182MOL0     C24992  10.385  -0.047   7.707 -0.7861 -0.1513  0.4954
  182MOL0     C24993  10.434  -0.192   7.676  0.6414 -0.0699 -0.2894
  182MOL0     C24994  10.506  -0.219   7.546  0.5056 -0.1502 -0.7321
  182MOL0     N24995  10.630  -0.135   7.539 -1.0369 -0.8889 -0.3419
  182MOL0     C24996  10.754  -0.162   7.589  0.3759  0.3866  0.2208
  182MOL0     C24997  10.831  -0.063   7.536 -0.0882  0.3137 -0.6913
  182MOL0     C24998  10.971  -0.047   7.541 -0.7462 -0.0423  0.1568
  182MOL0     C24999  11.023  -0.015   7.398 -0.2254  0.9706 -0.0495
  182MOL0     C25000  11.172   0.028   7.411 -0.6171 -0.3345 -0.1171
  182MOL0     C25001  11.247  -0.092   7.473  0.6124 -0.0918  0.5961
  182MOL0     O25002  11.380  -0.048   7.498 -0.3566 -0.0263  0.2808
  182MOL0     C25003  11.475  -0.142   7.519 -0.7812  0.1894 -0.0813
  182MOL0     C25004  11.455  -0.280   7.528  0.7666  0.2997 -0.1505
  182MOL0     C25005  11.563  -0.371   7.556 -0.1867 -0.1562  0.4710
  182MOL0     C25006  11.522  -0.516   7.551 -1.1891  0.2267  0.2795
  182MOL0     C25007  11.696  -0.316   7.561  0.0050 -0.5402 -0.3729
  182MOL0     C25008  11.816  -0.402   7.586  0.7412  0.2228 -0.3099
  182MOL0     O25009  11.928  -0.338   7.606 -0.1392 -0.6911  0.2110
  182MOL0     C25010  12.045  -0.398   7.652  0.0245 -0.0766 -0.0619
  182MOL0     C25011  12.120  -0.337   7.755  0.8335  0.1796  0.6275
  182MOL0     C25012  12.240  -0.385   7.799  0.2357 -0.9229  0.0488
  182MOL0     C25013  12.295  -0.505   7.748 -0.6087  0.2728 -0.6392
  182MOL0     O25014  12.413  -0.530   7.806 -0.1371 -0.3983  0.2625
  182MOL0     C25015  12.493  -0.588   7.707 -0.8392 -0.5856 -0.6417
  182MOL0     C25016  12.635  -0.597   7.769  0.3510 -0.2940  0.4594
  182MOL0     C25017  12.707  -0.465   7.785 -0.0212 -0.1327  0.0016
  182MOL0     C25018  12.853  -0.467   7.829  0.5414  0.2581  0.2210
  182MOL0     C25019  12.948  -0.481   7.709 -0.0850  0.7087 -0.9462
  182MOL0     C25020  13.089  -0.472   7.760 -0.4336 -1.0248  0.0534
  182MOL0     C25021  13.199  -0.531   7.664 -0.0043 -0.4980 -0.2222
  182MOL0     C25022  13.325  -0.466   7.680  0.8637 -0.2241 -0.2885
  182MOL0    Cl25023  13.455  -0.560   7.603 -0.1510 -0.3808 -0.7019
  182MOL0     C25024  12.226  -0.571   7.648  1.1115 -0.1828  0.3115
  182MOL0     C25025  12.095  -0.522   7.607 -0.0298  0.2295  0.6094
  182MOL0     O25026  11.805  -0.523   7.594  0.3794 -0.1282 -0.7697
  182MOL0     C25027  11.706  -0.174   7.575  0.0294  0.0003  0.4221
  182MOL0     C25028  11.596  -0.087   7.528 -0.1039 -0.4007  0.0313
  182MOL0     N25029  10.749   0.033   7.484 -0.3907  0.1141  0.0079
  182MOL0     N25030  10.632  -0.011   7.478 -0.7323 -0.3958  0.3752
  182MOL0     C25031   9.729   0.467   7.576 -0.6243 -0.3184 -0.1677
  182MOL0     C25032   9.603   0.498   7.519  0.0699 -0.4782  0.7614
  182MOL0     C25033   9.238   0.509   7.264 -1.1199  0.7706  0.0931
  182MOL0     C25034   9.188   0.472   7.137  1.1019 -0.1766  0.1590
  182MOL0     C25035   9.069   0.516   7.079  0.3358  0.6884  0.4106
  182MOL0     C25036   8.980   0.584   7.164 -0.0437 -0.0652  0.2164
  182MOL0     O25037   8.851   0.599   7.124 -0.0656  0.6266 -0.9067
  182MOL0     C25038   8.760   0.516   7.206 -0.5231  0.5681  0.2157
  182MOL0     C25039   8.726   0.396   7.123  0.3490  0.6649 -0.1711
  182MOL0     C25040   8.642   0.431   6.998  0.7088  0.6425 -0.4805
  182MOL0     C25041   8.509   0.497   7.031 -0.2421 -0.7079  0.3073
  182MOL0     C25042   8.430   0.427   7.131 -0.5789  0.9179 -0.2220
  182MOL0     C25043   8.355   0.358   7.205 -0.1675 -0.4192  0.0912
  182MOL0     C25044   9.031   0.638   7.287 -0.4706  0.1203 -0.4833
  182MOL0     C25045   9.162   0.601   7.339  0.3894 -0.0037  0.8969
  182MOL0     C25046   9.204   0.672   7.469 -0.4260  0.1791  0.5829
  182MOL0     H25047   9.468   0.192   7.467  0.2670 -0.1104 -1.6149
  182MOL0     H25048   9.686   0.132   7.586 -0.4566 -0.5250 -0.8648
  182MOL0     H25049   9.962   0.459   7.757  2.0040  0.0325 -0.4959
  182MOL0     H25050  10.037   0.362   7.619 -2.4478 -2.3841 -1.2485
  182MOL0     H25051  10.121   0.366   7.862 -1.5502 -0.7511  1.7858
  182MOL0     H25052   9.995   0.241   7.886  2.6426 -0.3406  2.1297
  182MOL0     H25053  10.056   0.101   7.703  0.3515 -0.2807 -0.1318
  182MOL0     H25054  10.196   0.195   7.664  0.2588 -0.3440 -0.2341
  182MOL0     H25055  10.311   0.160   7.866 -0.3594 -1.0366  2.9503
  182MOL0     H25056  10.174   0.106   7.950 -0.1391 -0.5331  0.5332
  182MOL0     H25057  10.171  -0.085   7.762 -1.5210  2.2288 -1.5079
  182MOL0     H25058  10.293  -0.110   7.889 -0.2812 -0.5470 -0.3389
  182MOL0     H25059  10.362  -0.003   7.610 -1.2892  0.5731  0.9360
  182MOL0     H25060  10.481  -0.011   7.745 -1.5851  1.3202  1.1800
  182MOL0     H25061  10.348  -0.255   7.700  1.6439 -1.0225  0.9905
  182MOL0     H25062  10.500  -0.229   7.756  2.2967  1.2509 -0.9791
  182MOL0     H25063  10.541  -0.322   7.541 -1.8292 -0.9770 -2.1834
  182MOL0     H25064  10.438  -0.203   7.461 -0.2628 -1.2918 -0.3435
  182MOL0     H25065  10.785  -0.251   7.644 -1.2405  0.8113  1.9383
  182MOL0     H25066  11.015  -0.140   7.577  1.5597  0.5111 -0.9542
  182MOL0     H25067  10.991   0.042   7.602 -0.6572  2.2016 -2.8925
  182MOL0     H25068  11.025  -0.091   7.320 -2.7039  2.3683 -1.6261
  182MOL0     H25069  10.974   0.075   7.358  2.8112  2.5304 -0.5327
  182MOL0     H25070  11.202   0.050   7.308 -2.3375 -0.6448 -0.7289
  182MOL0     H25071  11.178   0.124   7.463  0.4522  0.5987 -1.8641
  182MOL0     H25072  11.206  -0.124   7.569 -1.4187 -1.8736 -0.7562
  182MOL0     H25073  11.245  -0.179   7.405 -0.6279 -1.4343  2.2645
  182MOL0     H25074  11.361  -0.334   7.520  1.3253 -0.5570 -1.1746
  182MOL0     H25075  11.426  -0.550   7.509 -1.3086  0.6392  0.2163
  182MOL0     H25076  11.510  -0.552   7.654  1.6537 -1.1722  0.2109
  182MOL0     H25077  11.594  -0.580   7.499 -2.0358  1.3757 -2.5051
  182MOL0     H25078  12.088  -0.244   7.802  0.4948 -0.1871  1.1371
  182MOL0     H25079  12.292  -0.326   7.873 -1.7003 -1.3592  1.8354
  182MOL0     H25080  12.466  -0.692   7.690  3.0527 -1.8074 -0.3729
  182MOL0     H25081  12.500  -0.533   7.612  1.4053 -1.9779 -1.3677
  182MOL0     H25082  12.632  -0.649   7.865 -1.5251 -2.4777 -0.6983
  182MOL0     H25083  12.703  -0.658   7.708 -0.7437 -1.4178  0.3300
  182MOL0     H25084  12.658  -0.401   7.859  4.4876  1.4617  1.9286
  182MOL0     H25085  12.688  -0.407   7.694  0.4264  0.2484  0.1500
  182MOL0     H25086  12.880  -0.540   7.906 -1.4646 -0.4446  0.3216
  182MOL0     H25087  12.869  -0.367   7.870  2.8114  0.8619 -1.9036
  182MOL0     H25088  12.930  -0.578   7.662  1.2370 -0.0516  0.0629
  182MOL0     H25089  12.935  -0.402   7.634 -1.0887  0.5600 -0.9439
  182MOL0     H25090  13.095  -0.512   7.861  1.5561 -0.5331  0.1573
  182MOL0     H25091  13.112  -0.365   7.764 -0.8353 -0.9610  0.7835
  182MOL0     H25092  13.170  -0.525   7.559  3.5215  0.4866 -1.2797
  182MOL0     H25093  13.221  -0.633   7.698  1.9610 -0.0944 -0.1563
  182MOL0     H25094  13.345  -0.478   7.786  2.0345  0.9062 -0.3704
  182MOL0     H25095  13.315  -0.360   7.654 -0.8814  0.2062  1.8225
  182MOL0     H25096  12.256  -0.668   7.610  1.8115  0.5396 -1.0390
  182MOL0     H25097  12.038  -0.572   7.530 -1.0928  1.6520  0.4045
  182MOL0     H25098  11.803  -0.125   7.581  0.0229 -0.0021  0.5336
  182MOL0     H25099  11.597   0.021   7.523  0.3463 -0.4659 -2.0621
  182MOL0     H25100   9.804   0.537   7.611 -0.5846 -0.6586  0.4297
  182MOL0     H25101   9.574   0.603   7.513  1.7040 -0.0529 -1.0087
  182MOL0     H25102   9.248   0.405   7.076  0.1115  0.4669 -1.6098
  182MOL0     H25103   9.039   0.486   6.980  2.7283 -1.4628  0.2285
  182MOL0     H25104   8.803   0.481   7.300 -0.3841  0.7123  0.2068
  182MOL0     H25105   8.683   0.585   7.240 -0.4452 -0.0615  1.7275
  182MOL0     H25106   8.684   0.326   7.196  0.5116  1.8831  1.1367
  182MOL0     H25107   8.821   0.364   7.079 -1.0149 -1.0562 -2.0220
  182MOL0     H25108   8.697   0.503   6.937  1.3096 -2.0980 -3.5017
  182MOL0     H25109   8.627   0.347   6.929 -0.4088  0.6023 -0.2109
  182MOL0     H25110   8.445   0.509   6.943 -2.9276 -5.2435  1.3003
  182MOL0     H25111   8.522   0.598   7.070 -1.0601 -1.3670  2.4336
  182MOL0     H25112   8.300   0.299   7.275 -0.8061  1.1239  0.9322
  182MOL0     H25113   8.981   0.721   7.336 -0.4187 -0.2850  0.2803
  182MOL0     H25114   9.212   0.595   7.546 -0.1763 -0.3295  0.0601
  182MOL0     H25115   9.298   0.728   7.468 -0.1642 -0.0396 -3.7575
  182MOL0     H25116   9.119   0.730   7.504 -1.4038 -0.8878  0.0544
  183MOL0     O25117   4.255   7.347   9.251  0.3919  0.4132  0.0355
  183MOL0     C25118   4.197   7.273   9.333 -0.2153 -0.4989 -0.2029
  183MOL0     O25119   4.241   7.249   9.454 -0.6842 -0.2490  0.0754
  183MOL0     C25120   4.345   7.309   9.526  0.9589  0.1093 -1.3393
  183MOL0     C25121   4.427   7.409   9.480  0.6367  0.1087  0.1201
  183MOL0     C25122   4.542   7.448   9.550  0.8827 -0.0779  0.6529
  183MOL0     C25123   4.578   7.395   9.676  0.2241  0.2588  0.7431
  183MOL0     O25124   4.698   7.423   9.738 -1.2158  0.5784  0.3436
  183MOL0     C25125   4.805   7.482   9.664  0.1833 -0.3734 -0.2535
  183MOL0     C25126   4.918   7.484   9.760  0.1208 -0.2656  0.0786
  183MOL0     C25127   5.041   7.549   9.703 -0.8413  0.0002 -0.3686
  183MOL0     C25128   5.148   7.562   9.812  1.0049 -1.0174  0.9105
  183MOL0     C25129   5.274   7.637   9.751 -0.1010  0.0450  0.4172
  183MOL0     C25130   5.388   7.528   9.721  0.2051 -0.4543 -0.5610
  183MOL0     C25131   5.516   7.589   9.666 -0.8096  0.1560  0.2658
  183MOL0     C25132   5.516   7.644   9.522  0.3426 -0.2842 -0.3656
  183MOL0     N25133   5.647   7.684   9.464  0.4075 -0.5660  0.0064
  183MOL0     C25134   5.665   7.773   9.360  0.5131 -0.0549  0.0084
  183MOL0     C25135   5.800   7.808   9.367 -0.1050 -0.0606 -0.3087
  183MOL0     C25136   5.879   7.890   9.269 -0.2786 -0.3345  0.5345
  183MOL0     C25137   6.035   7.863   9.268  0.5365  0.4609  0.6316
  183MOL0     C25138   6.124   7.953   9.163  0.0691 -0.7085  0.2211
  183MOL0     C25139   6.272   7.954   9.203 -0.4315  0.1781 -0.3984
  183MOL0     O25140   6.318   7.824   9.242 -0.5449  0.0605  0.4376
  183MOL0     C25141   6.452   7.804   9.263  0.7916  0.1814 -0.1930
  183MOL0     C25142   6.484   7.676   9.297  0.4387 -0.1237 -0.0648
  183MOL0     C25143   6.611   7.630   9.311 -0.0453  0.1187 -1.4117
  183MOL0     C25144   6.633   7.484   9.369  0.3269 -0.3993 -0.2471
  183MOL0     C25145   6.722   7.722   9.288 -1.1393 -0.4634 -0.1571
  183MOL0     C25146   6.865   7.695   9.319 -1.0513  0.2040 -0.7884
  183MOL0     O25147   6.938   7.733   9.220  0.1454 -0.1221  0.2687
  183MOL0     C25148   7.072   7.706   9.227 -0.7946 -0.5170  0.0724
  183MOL0     C25149   7.167   7.807   9.217  0.4795 -0.1146  0.3840
  183MOL0     C25150   7.309   7.773   9.224 -0.0850 -0.4200  0.4584
  183MOL0     C25151   7.345   7.643   9.250 -0.8631 -1.0720  0.4849
  183MOL0     O25152   7.475   7.595   9.255 -0.4592 -0.7021  0.5791
  183MOL0     C25153   7.586   7.680   9.307 -0.7007  0.1730 -1.1201
  183MOL0     C25154   7.702   7.589   9.344  0.2631  0.5352  0.4804
  183MOL0     C25155   7.822   7.663   9.409  0.5757 -0.7241 -0.0838
  183MOL0     C25156   7.933   7.566   9.453 -0.3718 -1.3682  0.8469
  183MOL0     C25157   8.064   7.649   9.502  0.2095  0.6268 -0.2333
  183MOL0     C25158   8.175   7.545   9.542  0.3837 -1.2170  0.4517
  183MOL0     C25159   8.299   7.618   9.588  0.4340  0.0085  0.0890
  183MOL0     C25160   8.404   7.527   9.636 -0.1405  0.4762 -0.2128
  183MOL0    Cl25161   8.353   7.443   9.783 -0.0599  0.3188  0.1474
  183MOL0     C25162   7.245   7.543   9.273 -0.4590 -0.4463 -0.4347
  183MOL0     C25163   7.114   7.571   9.253 -0.7824 -1.6486 -0.6980
  183MOL0     O25164   6.909   7.647   9.431 -0.0405  0.0880 -0.2924
  183MOL0     C25165   6.689   7.852   9.254 -0.0520  0.3459 -0.8439
  183MOL0     C25166   6.560   7.888   9.228 -0.3540  0.7081  0.1428
  183MOL0     N25167   5.852   7.735   9.473 -0.2679 -0.6472 -0.5814
  183MOL0     N25168   5.764   7.657   9.529  0.3730 -0.1817 -0.5213
  183MOL0     C25169   4.500   7.295   9.720 -1.2161  0.5008 -0.1845
  183MOL0     C25170   4.387   7.252   9.654  0.2143 -0.0623 -0.2727
  183MOL0     C25171   4.069   7.207   9.293  0.0309  0.2730 -0.4349
  183MOL0     C25172   3.971   7.173   9.382 -0.4348  0.0120  0.2149
  183MOL0     C25173   3.855   7.105   9.351  1.0385  0.1779  0.0810
  183MOL0     C25174   3.828   7.074   9.210 -0.5882 -0.4428 -0.2791
  183MOL0     O25175   3.715   7.015   9.158  0.0165  0.6067 -0.3370
  183MOL0     C25176   3.600   7.002   9.242  0.0289  0.7909  0.7344
  183MOL0     C25177   3.488   6.925   9.163 -0.0546  0.3785 -0.0499
  183MOL0     C25178   3.523   6.777   9.131 -0.0662 -0.2421 -0.2970
  183MOL0     C25179   3.397   6.699   9.096  0.0388  0.4844  0.2193
  183MOL0     C25180   3.340   6.748   8.969 -0.2992 -0.0119 -0.2791
  183MOL0     C25181   3.291   6.790   8.866  0.3652  0.1709  0.3150
  183MOL0     C25182   3.937   7.106   9.117 -0.5973  0.5296  0.0867
  183MOL0     C25183   4.059   7.164   9.156 -0.9037 -0.2622 -0.7036
  183MOL0     C25184   4.163   7.169   9.052 -0.7016  0.3385  0.6770
  183MOL0     H25185   4.417   7.456   9.383 -2.9140  2.6664  1.4890
  183MOL0     H25186   4.601   7.521   9.496 -0.9062 -0.0397 -1.3813
  183MOL0     H25187   4.783   7.588   9.649  0.3328 -0.5559 -1.8431
  183MOL0     H25188   4.841   7.440   9.570  3.6259 -2.6410  1.8364
  183MOL0     H25189   4.885   7.544   9.845 -2.9284  0.5704 -1.5205
  183MOL0     H25190   4.940   7.385   9.801  3.4571  0.8156  1.1643
  183MOL0     H25191   5.084   7.498   9.616  0.8087  1.0724 -0.2311
  183MOL0     H25192   5.010   7.648   9.667 -0.4525  0.3475  0.2450
  183MOL0     H25193   5.099   7.618   9.893  0.1657 -2.1397  1.2119
  183MOL0     H25194   5.163   7.463   9.854 -1.3719 -1.2785  1.3355
  183MOL0     H25195   5.312   7.710   9.822  0.5456  1.0782 -0.9378
  183MOL0     H25196   5.258   7.702   9.664  0.8792  0.6141  0.6501
  183MOL0     H25197   5.394   7.488   9.823  1.6482  2.4663  0.6096
  183MOL0     H25198   5.341   7.452   9.658  0.3386  0.1000 -1.3355
  183MOL0     H25199   5.603   7.525   9.686  0.8047  2.3299  0.5063
  183MOL0     H25200   5.539   7.674   9.730 -0.8836  2.0572 -2.0972
  183MOL0     H25201   5.489   7.562   9.455  2.9614  2.4754 -5.3173
  183MOL0     H25202   5.442   7.725   9.514  0.1072 -0.6429 -6.3869
  183MOL0     H25203   5.594   7.813   9.287  3.3114 -0.0060 -2.8964
  183MOL0     H25204   5.871   7.995   9.300  1.4263 -0.0948  0.2465
  183MOL0     H25205   5.842   7.877   9.167 -2.1318  4.6847  0.2980
  183MOL0     H25206   6.064   7.886   9.371 -3.0347  1.4062  1.5841
  183MOL0     H25207   6.062   7.758   9.256 -2.0338 -0.2921  0.9077
  183MOL0     H25208   6.114   7.908   9.064 -1.0848 -0.1257  0.0575
  183MOL0     H25209   6.084   8.055   9.171 -2.0732 -1.6001  1.8884
  183MOL0     H25210   6.340   7.998   9.129  0.3854  0.3647  0.4429
  183MOL0     H25211   6.287   8.025   9.285  1.4426  1.6044 -1.8732
  183MOL0     H25212   6.411   7.599   9.319 -0.4148 -0.3201 -3.2255
  183MOL0     H25213   6.611   7.478   9.476 -0.7825 -2.3997 -0.5370
  183MOL0     H25214   6.727   7.438   9.338  0.2111 -1.2293  0.5873
  183MOL0     H25215   6.566   7.424   9.307 -0.4149  1.7573 -1.6533
  183MOL0     H25216   7.134   7.910   9.206 -1.2332 -0.4363  1.9928
  183MOL0     H25217   7.372   7.860   9.207 -1.0166 -0.3505 -3.4203
  183MOL0     H25218   7.624   7.743   9.226 -0.8785 -1.6906 -2.7178
  183MOL0     H25219   7.548   7.745   9.387  0.1663  2.6796 -2.6137
  183MOL0     H25220   7.655   7.522   9.416  0.6181  0.1089  0.3173
  183MOL0     H25221   7.731   7.534   9.254 -1.4151  1.8905 -0.9920
  183MOL0     H25222   7.784   7.709   9.501 -0.4462  0.1142 -0.8943
  183MOL0     H25223   7.856   7.741   9.340  2.3828 -1.8496 -0.5404
  183MOL0     H25224   7.953   7.499   9.370 -3.3810 -0.0827 -1.0866
  183MOL0     H25225   7.916   7.492   9.532  2.4541 -2.3103  0.6826
  183MOL0     H25226   8.096   7.718   9.424  1.5436  2.1233  1.5685
  183MOL0     H25227   8.039   7.711   9.588  0.9479 -0.7169  0.9903
  183MOL0     H25228   8.196   7.488   9.450 -3.1482 -3.2171  0.6847
  183MOL0     H25229   8.124   7.491   9.622 -0.4297  0.3160  0.9869
  183MOL0     H25230   8.272   7.692   9.664  2.1979  1.1611 -0.3392
  183MOL0     H25231   8.334   7.682   9.507 -2.7240  3.2558  1.0331
  183MOL0     H25232   8.502   7.568   9.661 -0.2279 -0.1710  1.2586
  183MOL0     H25233   8.413   7.452   9.556 -2.4554 -0.6265  0.4834
  183MOL0     H25234   7.280   7.440   9.283 -1.3257 -0.8016 -0.9577
  183MOL0     H25235   7.039   7.494   9.264 -0.3883 -2.0173 -0.5700
  183MOL0     H25236   6.769   7.919   9.223  1.7295 -0.1554  2.3095
  183MOL0     H25237   6.545   7.989   9.190 -1.3923 -0.2258 -2.0988
  183MOL0     H25238   4.525   7.253   9.817  1.7960  0.1801 -0.9776
  183MOL0     H25239   4.334   7.171   9.705  0.3539  1.0793  1.8131
  183MOL0     H25240   3.998   7.199   9.485  0.5173 -1.4670  0.3628
  183MOL0     H25241   3.780   7.077   9.425  0.8770 -1.3304 -0.6084
  183MOL0     H25242   3.626   6.941   9.329  0.9197 -0.2245 -0.2095
  183MOL0     H25243   3.554   7.094   9.278 -1.2736 -0.1609  1.6106
  183MOL0     H25244   3.462   6.976   9.070 -3.9420 -0.6552  0.3281
  183MOL0     H25245   3.401   6.932   9.228 -0.0371  1.5175 -0.1404
  183MOL0     H25246   3.603   6.774   9.056  2.6579  2.9755  2.1419
  183MOL0     H25247   3.561   6.731   9.222  1.8318 -1.3021 -1.5578
  183MOL0     H25248   3.321   6.709   9.174  2.4905 -3.0300  3.4038
  183MOL0     H25249   3.406   6.593   9.073 -1.6580  0.4702 -0.5657
  183MOL0     H25250   3.252   6.812   8.769 -1.5210 -3.0431  0.2248
  183MOL0     H25251   3.926   7.075   9.014  1.2169  2.2204 -0.6786
  183MOL0     H25252   4.181   7.269   9.010 -1.3325 -0.5836 -2.0076
  183MOL0     H25253   4.254   7.132   9.100 -2.4056 -1.0772  3.0198
  183MOL0     H25254   4.145   7.097   8.972 -2.4180  0.9234  0.5027
  184MOL0     O25255   8.680   2.768   7.103 -0.2370 -0.5108 -0.0319
  184MOL0     C25256   8.641   2.779   6.984  0.7773  1.2871 -0.5645
  184MOL0     O25257   8.718   2.778   6.876 -0.0420  0.5453 -0.4429
  184MOL0     C25258   8.848   2.732   6.896 -0.7106  0.5886  0.2565
  184MOL0     C25259   8.885   2.608   6.849  0.1734  0.0267  0.1075
  184MOL0     C25260   9.013   2.557   6.857  0.6136  0.9286 -0.4518
  184MOL0     C25261   9.111   2.630   6.921  0.0927 -0.0943  0.1385
  184MOL0     O25262   9.239   2.584   6.932 -0.1869 -0.9390  0.1142
  184MOL0     C25263   9.281   2.507   6.816 -0.4898  0.9233  0.4724
  184MOL0     C25264   9.431   2.496   6.818 -0.5149 -0.6481 -0.8405
  184MOL0     C25265   9.505   2.615   6.760 -0.5352 -0.2254  0.1684
  184MOL0     C25266   9.655   2.591   6.768  0.6976  0.4043  0.2947
  184MOL0     C25267   9.749   2.691   6.695  0.3392 -0.5286 -0.6536
  184MOL0     C25268   9.897   2.655   6.711 -0.2842  0.1951  0.9355
  184MOL0     C25269   9.993   2.758   6.667  0.4816 -0.5292 -0.1658
  184MOL0     C25270  10.052   2.867   6.758  0.6419 -0.4200  0.4046
  184MOL0     N25271  10.135   2.959   6.677  0.0699  0.3525  0.3530
  184MOL0     C25272  10.100   3.084   6.645  0.1083  0.1701 -0.0774
  184MOL0     C25273  10.215   3.136   6.590  0.6103  0.3181  0.2582
  184MOL0     C25274  10.225   3.269   6.540 -0.6043  0.7410  0.2281
  184MOL0     C25275  10.174   3.284   6.390  0.1521 -0.5956  0.6182
  184MOL0     C25276  10.223   3.168   6.295 -0.1402 -0.8507  0.3713
  184MOL0     C25277  10.374   3.168   6.291 -0.7684  0.4535  0.2822
  184MOL0     O25278  10.433   3.291   6.260 -0.4521 -0.4391 -0.0146
  184MOL0     C25279  10.568   3.306   6.265  0.0023 -0.7349  0.4572
  184MOL0     C25280  10.619   3.437   6.271 -0.2805 -0.6071  0.3424
  184MOL0     C25281  10.753   3.465   6.260 -0.6037  0.5693 -0.1142
  184MOL0     C25282  10.789   3.606   6.229  0.1859 -1.0721  0.6176
  184MOL0     C25283  10.841   3.351   6.265  0.0978 -0.0515  0.3246
  184MOL0     C25284  10.984   3.368   6.236 -0.0145 -0.1942  0.5532
  184MOL0     O25285  11.076   3.321   6.325  0.8665 -0.3043  0.9386
  184MOL0     C25286  11.205   3.291   6.289  0.1359 -0.7663 -0.5450
  184MOL0     C25287  11.232   3.155   6.271  0.3778 -0.7418  0.2578
  184MOL0     C25288  11.365   3.125   6.245 -0.6962  0.0684  0.2070
  184MOL0     C25289  11.461   3.226   6.237 -0.6724  0.4172  0.1620
  184MOL0     O25290  11.582   3.186   6.182 -0.2394 -0.0840 -0.3019
  184MOL0     C25291  11.689   3.171   6.276  0.0348 -0.0662  0.6349
  184MOL0     C25292  11.819   3.127   6.205  0.3757 -0.0144 -0.0385
  184MOL0     C25293  11.936   3.146   6.299  0.3826 -0.3145  0.1550
  184MOL0     C25294  12.054   3.087   6.248  0.0633  0.1980 -0.0404
  184MOL0     C25295  12.183   3.109   6.329 -0.0497  0.1251  0.7034
  184MOL0     C25296  12.248   3.250   6.331  0.1403 -0.6021 -0.2851
  184MOL0     C25297  12.381   3.250   6.400 -0.2012  0.6752 -0.2979
  184MOL0     C25298  12.422   3.387   6.439 -0.9216 -0.1746  0.7604
  184MOL0    Cl25299  12.562   3.403   6.550 -0.0362  0.0271 -0.1459
  184MOL0     C25300  11.432   3.357   6.253 -0.4103 -0.7911  0.1801
  184MOL0     C25301  11.302   3.392   6.277 -0.3066  0.6098  0.0661
  184MOL0     O25302  11.009   3.422   6.125  0.8011 -0.1946  0.6116
  184MOL0     C25303  10.792   3.227   6.277  0.0368 -0.2694 -0.4508
  184MOL0     C25304  10.660   3.208   6.282 -0.0428 -1.4402 -0.1549
  184MOL0     N25305  10.315   3.037   6.591 -0.3037 -0.5301 -0.4598
  184MOL0     N25306  10.258   2.932   6.642 -0.0741  0.6919 -0.4449
  184MOL0     C25307   9.074   2.750   6.982 -0.4604  0.0488 -0.8294
  184MOL0     C25308   8.943   2.800   6.976  0.0011  0.3124  0.9235
  184MOL0     C25309   8.495   2.787   6.954 -0.2610  1.2717 -0.8513
  184MOL0     C25310   8.461   2.729   6.829  0.0218  0.4953 -0.1688
  184MOL0     C25311   8.318   2.710   6.803  0.3330 -0.4125 -0.4047
  184MOL0     C25312   8.220   2.753   6.891 -0.3676 -0.0738  0.3568
  184MOL0     O25313   8.086   2.737   6.860 -0.8594  0.0766 -0.3608
  184MOL0     C25314   8.048   2.677   6.733  0.3045 -0.0117 -0.8806
  184MOL0     C25315   7.900   2.679   6.713 -0.0466 -0.5970 -0.2682
  184MOL0     C25316   7.831   2.610   6.819  0.7110  0.0846  1.1732
  184MOL0     C25317   7.675   2.594   6.809  0.2699  0.4910  0.5145
  184MOL0     C25318   7.597   2.721   6.815 -0.0770  0.0187 -0.0787
  184MOL0     C25319   7.545   2.829   6.827  0.1923  0.0202  0.6073
  184MOL0     C25320   8.257   2.814   7.004  0.7929 -0.3074 -0.0071
  184MOL0     C25321   8.393   2.834   7.043 -0.3071  0.0945  0.1358
  184MOL0     C25322   8.430   2.881   7.183  0.2406 -0.1139 -0.4742
  184MOL0     H25323   8.814   2.550   6.792  1.8028 -0.9824 -0.9462
  184MOL0     H25324   9.032   2.467   6.799  0.7275  1.2029 -0.8397
  184MOL0     H25325   9.253   2.550   6.719 -1.4795 -0.0536  0.2948
  184MOL0     H25326   9.255   2.401   6.825 -1.8749  1.0624 -1.2172
  184MOL0     H25327   9.459   2.480   6.923 -0.2555 -2.5776 -1.1699
  184MOL0     H25328   9.458   2.412   6.754 -2.4630 -0.6523 -1.7376
  184MOL0     H25329   9.480   2.650   6.659 -1.5729  0.8615  0.7811
  184MOL0     H25330   9.469   2.699   6.821  0.4857 -1.4580  2.5974
  184MOL0     H25331   9.684   2.575   6.873 -0.3436  1.3513  0.7485
  184MOL0     H25332   9.682   2.501   6.713 -1.0222  1.4618 -2.4704
  184MOL0     H25333   9.734   2.786   6.748 -2.8555  0.6974 -3.4308
  184MOL0     H25334   9.710   2.703   6.594  0.3156  0.0836 -0.5781
  184MOL0     H25335   9.918   2.625   6.814 -0.6883 -0.2636  0.8843
  184MOL0     H25336   9.918   2.564   6.654 -0.2830 -0.4685  1.9751
  184MOL0     H25337   9.937   2.820   6.596 -0.7830 -2.1715 -0.6715
  184MOL0     H25338  10.078   2.704   6.624  0.2567  0.7943 -2.4725
  184MOL0     H25339   9.973   2.919   6.814  1.4533  1.1243  0.1559
  184MOL0     H25340  10.114   2.815   6.832  2.4883  1.0815 -0.0267
  184MOL0     H25341   9.998   3.119   6.653  0.3135  0.7617  0.0822
  184MOL0     H25342  10.332   3.289   6.539 -0.3808 -0.1489 -2.6909
  184MOL0     H25343  10.168   3.333   6.608 -0.7909 -0.8877  1.6493
  184MOL0     H25344  10.066   3.293   6.376  0.4068  3.1020  0.0934
  184MOL0     H25345  10.208   3.381   6.354 -0.8491  0.6379  2.7847
  184MOL0     H25346  10.177   3.072   6.320 -2.0897 -0.7207 -2.2384
  184MOL0     H25347  10.193   3.196   6.194 -0.6464 -1.4960  0.3393
  184MOL0     H25348  10.426   3.131   6.380 -0.5304 -0.7318 -0.3351
  184MOL0     H25349  10.400   3.101   6.209 -1.9703  0.4162 -0.0903
  184MOL0     H25350  10.546   3.516   6.287 -0.2087 -0.7056  1.1956
  184MOL0     H25351  10.755   3.671   6.311  1.0713  0.9484 -0.5412
  184MOL0     H25352  10.723   3.630   6.145 -0.9728 -0.1894  1.7422
  184MOL0     H25353  10.898   3.616   6.226  0.0830  0.1781  0.5304
  184MOL0     H25354  11.156   3.080   6.290 -2.5282  1.7896 -0.5499
  184MOL0     H25355  11.380   3.021   6.222 -1.3309 -0.2443  1.1386
  184MOL0     H25356  11.696   3.264   6.333 -0.5356 -0.4180  1.2961
  184MOL0     H25357  11.663   3.101   6.356 -1.3013 -2.6723 -1.8617
  184MOL0     H25358  11.818   3.025   6.164  1.4309  0.4409 -1.2877
  184MOL0     H25359  11.832   3.188   6.115 -0.1328  2.4835  1.4741
  184MOL0     H25360  11.911   3.112   6.400 -0.3817  1.4659  0.5942
  184MOL0     H25361  11.946   3.253   6.317 -0.1897 -0.7130  3.4257
  184MOL0     H25362  12.066   3.117   6.144 -4.0887 -0.9572 -1.0369
  184MOL0     H25363  12.022   2.982   6.245 -2.2313  0.6463  3.2041
  184MOL0     H25364  12.154   3.099   6.434  0.3500  1.3549  0.9563
  184MOL0     H25365  12.267   3.045   6.302 -1.4732 -1.3243 -0.4535
  184MOL0     H25366  12.180   3.308   6.395  0.4759 -2.1326  1.5465
  184MOL0     H25367  12.267   3.288   6.231  2.2389  0.1741  0.3522
  184MOL0     H25368  12.458   3.206   6.337  0.0202 -0.7389  0.9077
  184MOL0     H25369  12.371   3.187   6.489  0.8491 -1.1702 -1.4430
  184MOL0     H25370  12.339   3.443   6.484 -3.0192 -1.9055 -0.7302
  184MOL0     H25371  12.435   3.443   6.346  0.2138 -1.5105  0.0841
  184MOL0     H25372  11.503   3.438   6.240 -1.6541  0.5394  1.3634
  184MOL0     H25373  11.289   3.499   6.284  0.1312  0.6929 -0.3447
  184MOL0     H25374  10.860   3.142   6.283  0.2680 -0.0678 -0.1839
  184MOL0     H25375  10.631   3.103   6.284  2.7168 -2.2927 -0.2534
  184MOL0     H25376   9.155   2.800   7.033  0.6527  0.0887 -2.5282
  184MOL0     H25377   8.904   2.892   7.020 -0.1196  1.7952 -1.9943
  184MOL0     H25378   8.528   2.692   6.752 -0.7419  0.2734 -0.7396
  184MOL0     H25379   8.293   2.658   6.711  2.8755 -3.8740  0.6733
  184MOL0     H25380   8.095   2.738   6.656  2.1665  1.2919  1.1829
  184MOL0     H25381   8.087   2.575   6.732 -0.1203 -0.2179  1.0755
  184MOL0     H25382   7.876   2.638   6.615  0.6859  0.4625 -0.9291
  184MOL0     H25383   7.868   2.784   6.713  0.2357 -0.5056  0.1202
  184MOL0     H25384   7.876   2.511   6.825 -1.0602 -0.8754 -0.3819
  184MOL0     H25385   7.841   2.645   6.922  2.7475  0.6084  0.8327
  184MOL0     H25386   7.645   2.527   6.890  2.6468  0.2285  1.2508
  184MOL0     H25387   7.649   2.544   6.715 -2.9587  0.4938  1.2942
  184MOL0     H25388   7.493   2.922   6.831 -4.6741 -2.3968  0.1237
  184MOL0     H25389   8.176   2.857   7.062 -1.0211 -1.6054 -1.4980
  184MOL0     H25390   8.495   2.967   7.195  1.9489 -1.6416  2.2046
  184MOL0     H25391   8.340   2.923   7.230 -0.3377  1.6840 -2.9907
  184MOL0     H25392   8.459   2.792   7.240 -1.9970 -2.4697 -2.7297
  185MOL0     O25393   2.612  11.222   6.119 -0.0322  0.9761  0.2178
  185MOL0     C25394   2.619  11.259   6.000 -0.7762  0.4176 -1.0676
  185MOL0     O25395   2.711  11.207   5.912  0.7601 -0.7900  0.3069
  185MOL0     C25396   2.829  11.150   5.968  0.6899  0.1027  0.9451
  185MOL0     C25397   2.843  11.012   5.976  0.9364  0.0928  0.7324
  185MOL0     C25398   2.959  10.949   6.019 -0.1364 -0.6472 -0.1848
  185MOL0     C25399   3.069  11.034   6.045  0.1344 -0.8381 -0.3129
  185MOL0     O25400   3.194  10.973   6.067  0.8799 -0.7359  0.1147
  185MOL0     C25401   3.230  10.839   6.031 -0.6767 -0.5107 -0.5388
  185MOL0     C25402   3.365  10.845   5.965 -0.2911  1.6009  0.1793
  185MOL0     C25403   3.488  10.837   6.054  0.0985  0.0245  0.7550
  185MOL0     C25404   3.562  10.708   6.036 -0.5070 -0.0983 -0.2065
  185MOL0     C25405   3.671  10.691   6.139 -1.0048 -0.2867  0.3520
  185MOL0     C25406   3.741  10.553   6.107 -0.4144 -0.3604  0.1573
  185MOL0     C25407   3.875  10.531   6.173  0.6856  1.0250 -0.0163
  185MOL0     C25408   3.934  10.397   6.124 -0.1695  0.2264  0.4642
  185MOL0     N25409   4.044  10.363   6.226 -0.0901  0.0635 -0.6185
  185MOL0     C25410   4.040  10.250   6.310 -0.1630 -1.0196  0.8882
  185MOL0     C25411   4.158  10.263   6.369 -0.5954  0.1069 -0.6162
  185MOL0     C25412   4.226  10.168   6.463 -0.1678 -0.2460 -0.5422
  185MOL0     C25413   4.273  10.056   6.376 -0.8178  0.2164 -0.6800
  185MOL0     C25414   4.352   9.957   6.469 -0.3184 -0.2110 -0.0934
  185MOL0     C25415   4.500   9.999   6.472 -0.2071 -0.4742  0.1456
  185MOL0     O25416   4.566   9.942   6.359  0.0092 -0.3602  0.1520
  185MOL0     C25417   4.695   9.992   6.331 -0.7442  0.5559 -0.8588
  185MOL0     C25418   4.776  10.071   6.416 -0.0794 -0.2854  0.5241
  185MOL0     C25419   4.904  10.112   6.389  0.3201  0.1148  0.0455
  185MOL0     C25420   4.971  10.189   6.492 -0.6229 -0.2152  0.3865
  185MOL0     C25421   4.958  10.075   6.262  0.0536 -0.2454  0.0538
  185MOL0     C25422   5.100  10.097   6.218  0.9722  0.1952 -0.6737
  185MOL0     O25423   5.187  10.176   6.289 -0.0402 -1.0153  0.2426
  185MOL0     C25424   5.317  10.193   6.245 -0.4782 -0.2057  0.7020
  185MOL0     C25425   5.402  10.091   6.243  0.2456  0.3191 -0.5466
  185MOL0     C25426   5.531  10.111   6.192  0.1944  0.3828  0.1749
  185MOL0     C25427   5.580  10.241   6.162 -0.1765 -0.4689 -0.4022
  185MOL0     O25428   5.711  10.256   6.121 -0.6153 -0.0041 -0.0545
  185MOL0     C25429   5.791  10.342   6.199 -0.5148  0.2931 -0.0150
  185MOL0     C25430   5.870  10.263   6.307 -0.1432  0.4028 -0.1816
  185MOL0     C25431   5.963  10.353   6.390 -0.2748 -0.4826 -0.3381
  185MOL0     C25432   6.079  10.279   6.450 -0.0538 -0.1204 -0.4685
  185MOL0     C25433   6.033  10.161   6.539 -0.1956 -0.9744  0.3046
  185MOL0     C25434   6.154  10.102   6.619  0.0347  0.7026 -1.2534
  185MOL0     C25435   6.278  10.060   6.537 -0.0118 -0.0520 -0.8954
  185MOL0     C25436   6.254   9.953   6.432 -0.1878  0.6402  0.3092
  185MOL0    Cl25437   6.172   9.818   6.507  0.3455 -0.4849 -0.0530
  185MOL0     C25438   5.493  10.346   6.176  1.2071  0.0379  0.6138
  185MOL0     C25439   5.358  10.323   6.217 -0.4710  0.4704  0.3558
  185MOL0     O25440   5.122  10.039   6.111 -0.0926  0.4483  0.6144
  185MOL0     C25441   4.876  10.005   6.175  0.1683 -0.6780  0.1319
  185MOL0     C25442   4.744   9.966   6.207  0.7072 -1.0414 -0.0846
  185MOL0     N25443   4.233  10.362   6.319  0.6047  0.1136 -0.4221
  185MOL0     N25444   4.157  10.436   6.243  0.4822  0.1591 -0.0032
  185MOL0     C25445   3.057  11.178   6.042  0.6807  0.5392 -0.4233
  185MOL0     C25446   2.930  11.227   6.015  0.4641 -1.2321  0.4416
  185MOL0     C25447   2.520  11.352   5.951 -0.3338  0.9741  0.4648
  185MOL0     C25448   2.446  11.324   5.836  0.3777  0.3184  0.9260
  185MOL0     C25449   2.353  11.411   5.781 -0.1051 -0.3973  1.0710
  185MOL0     C25450   2.335  11.528   5.853 -0.4809  0.4797  0.0759
  185MOL0     O25451   2.234  11.612   5.814  0.0321  0.1347  0.2080
  185MOL0     C25452   2.266  11.738   5.756 -0.1655 -0.1486  0.0808
  185MOL0     C25453   2.336  11.741   5.626  0.8017  0.4514  0.1769
  185MOL0     C25454   2.273  11.659   5.515  0.4073  0.2291  0.0342
  185MOL0     C25455   2.149  11.724   5.462  0.2382 -0.1714  0.4206
  185MOL0     C25456   2.033  11.700   5.539 -0.4731 -0.3839 -0.2670
  185MOL0     C25457   1.932  11.673   5.595  0.0414 -0.1355 -0.2341
  185MOL0     C25458   2.404  11.553   5.965 -0.7152  0.8971 -0.4753
  185MOL0     C25459   2.503  11.472   6.012  1.1100  0.4054 -0.0666
  185MOL0     C25460   2.585  11.513   6.143  0.1126 -0.3342  0.9423
  185MOL0     H25461   2.757  10.952   5.947  0.8869 -0.2363  1.5341
  185MOL0     H25462   2.954  10.841   6.023 -0.6312 -0.6101  0.4288
  185MOL0     H25463   3.162  10.795   5.959 -1.9660 -0.7563  0.7749
  185MOL0     H25464   3.219  10.784   6.126  2.0454  0.7937  0.6401
  185MOL0     H25465   3.362  10.764   5.893  1.2421  0.2523  1.5413
  185MOL0     H25466   3.383  10.940   5.914 -0.6786  1.6211  0.0780
  185MOL0     H25467   3.545  10.928   6.038 -1.8370  1.8183  3.2893
  185MOL0     H25468   3.459  10.848   6.159  1.4131  3.1266  0.8845
  185MOL0     H25469   3.501  10.618   6.041 -1.0871  0.3580  1.5865
  185MOL0     H25470   3.614  10.713   5.940 -3.8609  1.3088 -2.1227
  185MOL0     H25471   3.645  10.707   6.244  2.6596  2.7006  1.0172
  185MOL0     H25472   3.747  10.768   6.122 -1.1743 -0.4816 -1.4994
  185MOL0     H25473   3.675  10.468   6.127 -0.1758 -0.4337  0.6384
  185MOL0     H25474   3.755  10.555   5.998  1.6643  1.9681  0.3835
  185MOL0     H25475   3.857  10.525   6.280 -0.2676 -0.2488 -0.2223
  185MOL0     H25476   3.932  10.622   6.151 -0.0568  1.5780  0.3202
  185MOL0     H25477   3.857  10.319   6.126  0.6442 -0.5771  0.6866
  185MOL0     H25478   3.966  10.419   6.021 -0.9051  0.8106  0.3505
  185MOL0     H25479   3.966  10.171   6.313 -1.2049 -0.2701 -2.0769
  185MOL0     H25480   4.151  10.138   6.537  0.1034  0.2951 -0.0462
  185MOL0     H25481   4.307  10.227   6.508 -1.9051  0.3752  1.9975
  185MOL0     H25482   4.179  10.002   6.360 -1.3080  0.1514  1.9592
  185MOL0     H25483   4.342  10.082   6.295 -0.3548  0.4502 -0.2154
  185MOL0     H25484   4.307   9.951   6.568 -0.3890 -0.8621 -0.1618
  185MOL0     H25485   4.350   9.853   6.436  0.3732 -1.1596  2.6321
  185MOL0     H25486   4.504  10.108   6.469 -1.3479 -0.3879  1.0392
  185MOL0     H25487   4.543   9.966   6.567 -1.1862  0.0578  0.7999
  185MOL0     H25488   4.747  10.092   6.519  0.7891 -3.0313  1.4165
  185MOL0     H25489   5.022  10.276   6.449  0.2702 -0.2428  1.3532
  185MOL0     H25490   5.033  10.125   6.556 -2.0668 -0.1474  1.9476
  185MOL0     H25491   4.903  10.235   6.565  0.3288  2.3166 -0.2029
  185MOL0     H25492   5.377   9.997   6.290  1.4474  0.6675  0.8787
  185MOL0     H25493   5.599  10.027   6.186  1.1583  1.2487 -3.6025
  185MOL0     H25494   5.854  10.407   6.138 -2.0248  2.6041  0.7377
  185MOL0     H25495   5.724  10.411   6.251 -4.0660 -2.4981 -0.5534
  185MOL0     H25496   5.797  10.223   6.378  3.3317 -0.5102  3.2208
  185MOL0     H25497   5.926  10.181   6.260 -3.1544 -2.8712  1.4844
  185MOL0     H25498   5.898  10.385   6.473 -1.4869  0.9290 -1.7730
  185MOL0     H25499   6.000  10.436   6.330 -1.8348 -0.1188 -0.8328
  185MOL0     H25500   6.152  10.344   6.499  1.4619 -2.8881  1.2410
  185MOL0     H25501   6.132  10.226   6.370  0.0105  0.1440 -0.6008
  185MOL0     H25502   5.954  10.188   6.610  0.7615  0.6915  0.7916
  185MOL0     H25503   5.992  10.082   6.476  2.4237 -1.9979 -0.2634
  185MOL0     H25504   6.110  10.021   6.677  0.4441  0.9755 -0.5493
  185MOL0     H25505   6.194  10.174   6.691 -1.1537  1.3078 -1.1717
  185MOL0     H25506   6.355  10.015   6.600 -0.1159  0.9822 -0.0098
  185MOL0     H25507   6.313  10.156   6.498  1.3121 -0.6547 -1.2638
  185MOL0     H25508   6.353   9.927   6.395 -0.1506  2.2049 -0.7867
  185MOL0     H25509   6.205   9.988   6.341  2.8119 -0.0987 -1.7185
  185MOL0     H25510   5.520  10.450   6.163 -1.9981  0.8222 -0.7482
  185MOL0     H25511   5.278  10.396   6.222  1.1642  2.2738  1.7481
  185MOL0     H25512   4.906   9.973   6.076  0.6577 -1.2208  0.4556
  185MOL0     H25513   4.677   9.911   6.141  0.4203 -1.4611  0.5481
  185MOL0     H25514   3.131  11.254   6.066  0.8677  0.4313 -0.6613
  185MOL0     H25515   2.910  11.333   6.011  0.5436 -1.1410  1.7982
  185MOL0     H25516   2.458  11.228   5.788 -1.5573 -0.3751  1.7361
  185MOL0     H25517   2.290  11.385   5.697 -0.9782 -0.7769  1.8179
  185MOL0     H25518   2.175  11.796   5.737  0.8288  1.0394 -1.2856
  185MOL0     H25519   2.324  11.797   5.827  0.9037 -1.2518  0.1565
  185MOL0     H25520   2.438  11.717   5.658  0.9570  1.9047  0.8471
  185MOL0     H25521   2.342  11.846   5.595  0.6689  1.3579  2.8923
  185MOL0     H25522   2.345  11.646   5.434  0.8253 -1.1460  0.5782
  185MOL0     H25523   2.250  11.561   5.559 -0.4634  0.2613 -0.3385
  185MOL0     H25524   2.133  11.689   5.360 -0.7068 -1.5862  1.0297
  185MOL0     H25525   2.169  11.830   5.442  2.1539 -0.8869 -1.9013
  185MOL0     H25526   1.850  11.636   5.653 -0.7706  1.1775 -0.5206
  185MOL0     H25527   2.385  11.643   6.023 -1.2548  1.1393 -1.0148
  185MOL0     H25528   2.546  11.446   6.220 -1.2559  0.4623  0.9599
  185MOL0     H25529   2.693  11.506   6.129  0.6419  0.4770  4.0316
  185MOL0     H25530   2.580  11.618   6.174  1.7657  0.7352 -1.9474
  186MOL0     O25531  10.939   8.352   7.124 -0.8587  0.3426 -0.1865
  186MOL0     C25532  10.921   8.298   7.234 -0.7344  0.9948  0.2881
  186MOL0     O25533  11.021   8.261   7.324  0.0010 -0.7968  0.4235
  186MOL0     C25534  11.138   8.223   7.263 -0.4435 -0.3425 -0.3450
  186MOL0     C25535  11.235   8.323   7.245 -0.3465 -0.3863 -0.5223
  186MOL0     C25536  11.353   8.291   7.174 -0.1321 -0.3168 -0.9143
  186MOL0     C25537  11.384   8.160   7.141 -0.8061  0.2970  0.0743
  186MOL0     O25538  11.504   8.144   7.079  0.0956 -0.2629  0.6671
  186MOL0     C25539  11.621   8.223   7.128 -0.0022  0.2915 -0.7308
  186MOL0     C25540  11.739   8.129   7.121 -0.1067 -0.1930  0.1255
  186MOL0     C25541  11.870   8.196   7.063  0.4791  0.4733 -0.0368
  186MOL0     C25542  11.974   8.077   7.042  0.1787  0.0306 -0.8088
  186MOL0     C25543  12.082   8.129   6.942 -0.0512  1.4036 -0.7552
  186MOL0     C25544  12.156   8.253   7.004 -0.0589  0.7827  0.8809
  186MOL0     C25545  12.294   8.262   6.951 -0.8213 -0.4699  0.3491
  186MOL0     C25546  12.396   8.197   7.051 -0.2586 -0.1339 -0.1344
  186MOL0     N25547  12.536   8.226   7.024 -0.6615  0.3438 -0.9857
  186MOL0     C25548  12.629   8.230   7.119 -0.0445  0.2908  0.7341
  186MOL0     C25549  12.746   8.195   7.064 -0.2530  0.6715 -0.4826
  186MOL0     C25550  12.877   8.195   7.132 -0.3992  0.8494  0.1711
  186MOL0     C25551  12.898   8.056   7.182  0.1582  0.4691 -0.1834
  186MOL0     C25552  13.006   8.031   7.295 -0.5703  0.1914 -0.8950
  186MOL0     C25553  13.144   8.064   7.246 -0.2252  0.8386 -0.9584
  186MOL0     O25554  13.238   7.994   7.339 -0.2139 -0.0389 -0.1515
  186MOL0     C25555  13.375   8.006   7.316  0.3418 -0.5587 -0.1214
  186MOL0     C25556  13.444   8.079   7.214  1.1683  0.4034 -0.4304
  186MOL0     C25557  13.583   8.064   7.192  0.4752  0.1605  0.1156
  186MOL0     C25558  13.651   8.121   7.065  0.3851  0.1785 -0.7566
  186MOL0     C25559  13.659   7.985   7.282 -1.1137 -0.4895 -1.2250
  186MOL0     C25560  13.812   7.967   7.278 -0.1006  0.4222 -0.1829
  186MOL0     O25561  13.868   7.928   7.392 -0.7179  0.9019 -0.4541
  186MOL0     C25562  14.004   7.899   7.385  0.1675 -0.5838 -0.4385
  186MOL0     C25563  14.086   7.999   7.338 -0.1920 -0.5136  1.1972
  186MOL0     C25564  14.226   7.975   7.347  0.0274 -0.0404 -0.8855
  186MOL0     C25565  14.279   7.852   7.395 -0.4764 -0.3368  0.4954
  186MOL0     O25566  14.413   7.817   7.394  0.3158 -0.1709  0.3045
  186MOL0     C25567  14.491   7.903   7.321 -0.5723  0.1252 -0.2573
  186MOL0     C25568  14.624   7.854   7.290 -0.1434  0.0954 -0.8082
  186MOL0     C25569  14.710   7.969   7.236 -0.3934  0.2559 -0.1478
  186MOL0     C25570  14.850   7.911   7.193 -0.2385 -0.0220  0.2935
  186MOL0     C25571  14.947   8.033   7.192  0.4175 -1.6888 -0.3864
  186MOL0     C25572  14.919   8.123   7.067  0.2945  0.2997 -0.6219
  186MOL0     C25573  15.000   8.249   7.062 -0.2363 -0.5927 -0.4052
  186MOL0     C25574  14.928   8.340   6.963  0.0845  0.4532 -0.0800
  186MOL0    Cl25575  14.967   8.259   6.803 -0.4536 -0.2827  0.0496
  186MOL0     C25576  14.188   7.761   7.447 -0.1268  0.3131 -0.5052
  186MOL0     C25577  14.049   7.787   7.447  0.0837 -0.1062  0.7244
  186MOL0     O25578  13.869   7.973   7.169  0.1168  0.6676 -0.3236
  186MOL0     C25579  13.590   7.925   7.390 -0.5532  0.3168 -0.6556
  186MOL0     C25580  13.453   7.929   7.398  0.2682 -1.0445 -0.4451
  186MOL0     N25581  12.721   8.165   6.928 -0.5414  0.1908 -0.0273
  186MOL0     N25582  12.602   8.188   6.903  0.1278  0.3606 -0.4728
  186MOL0     C25583  11.288   8.053   7.171 -0.3963 -0.0824 -0.0737
  186MOL0     C25584  11.160   8.092   7.232 -0.6234 -0.6559 -0.6308
  186MOL0     C25585  10.782   8.254   7.277  0.4655 -0.2857 -0.4793
  186MOL0     C25586  10.775   8.165   7.387 -0.0577  0.2246  0.8745
  186MOL0     C25587  10.648   8.132   7.447 -0.3678 -0.3792 -0.0419
  186MOL0     C25588  10.530   8.173   7.379 -0.6904  0.3463 -0.8127
  186MOL0     O25589  10.397   8.146   7.408 -0.4203 -0.2336  0.7860
  186MOL0     C25590  10.366   8.095   7.542  1.0457  0.3286  0.7721
  186MOL0     C25591  10.291   7.958   7.538 -0.4231 -0.0359  0.1127
  186MOL0     C25592  10.268   7.894   7.672  0.2410 -0.2518  0.3704
  186MOL0     C25593  10.148   7.944   7.749 -0.3339 -0.0508 -0.2913
  186MOL0     C25594  10.019   7.920   7.694  0.0258  0.3227  0.8820
  186MOL0     C25595   9.913   7.894   7.651 -0.0520 -0.1208  0.3449
  186MOL0     C25596  10.536   8.249   7.261 -0.3796 -0.7422 -0.5132
  186MOL0     C25597  10.661   8.277   7.204 -0.1917 -0.5896 -0.6460
  186MOL0     C25598  10.649   8.349   7.071 -0.4543 -0.5346  0.3817
  186MOL0     H25599  11.214   8.422   7.284  0.3029 -1.3343  2.5375
  186MOL0     H25600  11.421   8.370   7.143  1.1944 -0.7827  0.6452
  186MOL0     H25601  11.607   8.260   7.230  0.2294  0.2455 -0.6823
  186MOL0     H25602  11.629   8.306   7.057  0.8943  0.8700  0.0156
  186MOL0     H25603  11.758   8.084   7.219 -1.3477  0.0618  0.4969
  186MOL0     H25604  11.704   8.046   7.058 -2.8884  2.0891 -1.5845
  186MOL0     H25605  11.843   8.232   6.963  0.4480 -1.4353 -0.7616
  186MOL0     H25606  11.900   8.277   7.130 -1.5340 -0.4062  2.0643
  186MOL0     H25607  12.028   8.058   7.135 -1.9562  0.3827  0.5648
  186MOL0     H25608  11.919   7.990   7.005 -4.2865  2.7066 -1.1753
  186MOL0     H25609  12.038   8.148   6.844 -1.0897 -0.7709 -0.7746
  186MOL0     H25610  12.158   8.051   6.936  1.7907  3.1473 -1.0679
  186MOL0     H25611  12.101   8.347   6.992  0.9952  1.6780  2.6603
  186MOL0     H25612  12.160   8.233   7.111 -2.0659  2.8052  1.4026
  186MOL0     H25613  12.318   8.367   6.931 -3.6450  0.2330  0.3455
  186MOL0     H25614  12.289   8.217   6.852 -1.6489  1.7401 -0.6705
  186MOL0     H25615  12.378   8.238   7.151 -3.1660  4.2007 -2.1115
  186MOL0     H25616  12.386   8.088   7.058  4.6206 -0.8673 -0.9973
  186MOL0     H25617  12.610   8.274   7.216 -3.4873  3.1803 -0.9968
  186MOL0     H25618  12.873   8.267   7.214  3.1095  0.5926  0.7280
  186MOL0     H25619  12.963   8.219   7.068  1.2688 -0.7702  1.6739
  186MOL0     H25620  12.803   8.011   7.212 -0.7024  0.6797 -2.3661
  186MOL0     H25621  12.925   7.995   7.095  0.2251 -0.6009  0.5585
  186MOL0     H25622  12.985   8.101   7.376 -1.1047 -0.4406 -0.4838
  186MOL0     H25623  12.996   7.926   7.323  1.4116  0.0192 -0.7320
  186MOL0     H25624  13.167   8.016   7.151  0.7375 -0.8498  0.0799
  186MOL0     H25625  13.150   8.173   7.239  0.4033  0.8020 -1.0116
  186MOL0     H25626  13.378   8.137   7.150 -2.6927  1.1526  3.7070
  186MOL0     H25627  13.579   8.169   6.998  0.5382 -1.3267 -2.0665
  186MOL0     H25628  13.691   8.041   7.003 -1.0013 -0.6902 -0.5940
  186MOL0     H25629  13.723   8.199   7.093  0.4211  0.5740 -1.9142
  186MOL0     H25630  14.049   8.097   7.309  0.3149 -0.4679  0.6875
  186MOL0     H25631  14.288   8.049   7.297 -1.0697  1.0233 -0.7101
  186MOL0     H25632  14.450   7.915   7.221 -0.3225  0.3445 -0.3347
  186MOL0     H25633  14.492   8.001   7.370  2.8803 -0.4192  1.0850
  186MOL0     H25634  14.658   7.821   7.389 -1.3632  1.0290 -0.0455
  186MOL0     H25635  14.622   7.763   7.230 -2.8876 -1.3161  1.1617
  186MOL0     H25636  14.730   8.049   7.308 -0.4494  0.6093 -0.5204
  186MOL0     H25637  14.664   8.005   7.144  0.4914  0.0246 -0.7000
  186MOL0     H25638  14.855   7.854   7.100  0.0613 -1.1555  0.9819
  186MOL0     H25639  14.890   7.844   7.269 -1.0850 -0.1900  0.5905
  186MOL0     H25640  14.934   8.091   7.283  0.6135 -1.2279 -0.6479
  186MOL0     H25641  15.050   7.997   7.179  0.3742 -1.3680 -1.7340
  186MOL0     H25642  14.813   8.149   7.072  0.0519 -0.7419 -0.0344
  186MOL0     H25643  14.943   8.060   6.980  0.4014 -0.0385 -0.3482
  186MOL0     H25644  15.106   8.233   7.042 -0.5337 -1.1754 -1.6360
  186MOL0     H25645  14.991   8.284   7.165 -0.9486  0.4082 -0.7921
  186MOL0     H25646  14.974   8.439   6.957 -0.9618  0.8455 -2.4606
  186MOL0     H25647  14.820   8.353   6.964  0.0501  0.3467  1.6117
  186MOL0     H25648  14.229   7.669   7.488 -2.5336 -0.2039  0.9318
  186MOL0     H25649  13.974   7.722   7.491 -0.5717 -0.2887 -0.6103
  186MOL0     H25650  13.631   7.864   7.471 -2.8050 -2.1535 -1.2240
  186MOL0     H25651  13.410   7.881   7.485  0.9176  0.3138  0.6656
  186MOL0     H25652  11.306   7.949   7.145 -4.0802 -1.0030  0.4144
  186MOL0     H25653  11.086   8.020   7.265  0.9263 -1.0040  2.4713
  186MOL0     H25654  10.869   8.135   7.432  0.8212  1.4613 -0.0733
  186MOL0     H25655  10.637   8.064   7.531 -3.2044  1.7841  1.5301
  186MOL0     H25656  10.452   8.083   7.609  0.7559  0.6593  1.2100
  186MOL0     H25657  10.300   8.158   7.603  1.3097  2.0778 -0.6516
  186MOL0     H25658  10.366   7.892   7.494 -1.1932 -2.0438  1.5811
  186MOL0     H25659  10.198   7.949   7.481 -0.1987  0.3370 -0.3128
  186MOL0     H25660  10.240   7.790   7.653 -4.0498  0.8153 -0.1675
  186MOL0     H25661  10.363   7.900   7.727  1.8298  2.3151 -2.3673
  186MOL0     H25662  10.160   8.050   7.775  2.1902  0.4796 -3.0421
  186MOL0     H25663  10.153   7.892   7.845 -0.9600  0.2058 -0.1177
  186MOL0     H25664   9.818   7.849   7.633 -0.7000 -0.8603  4.5430
  186MOL0     H25665  10.442   8.280   7.217 -1.3191  2.6385  3.2552
  186MOL0     H25666  10.544   8.374   7.050 -0.6010 -0.2766  1.3645
  186MOL0     H25667  10.708   8.441   7.078  0.9395 -1.3586 -0.2201
  186MOL0     H25668  10.693   8.289   6.991 -2.8499 -0.1678 -1.3369
  187MOL0     O25669   6.000   5.882  10.902  0.1011  0.8172  0.2155
  187MOL0     C25670   5.882   5.851  10.885  0.6685 -0.7049  0.2194
  187MOL0     O25671   5.839   5.739  10.811  0.3359 -0.4437 -0.3000
  187MOL0     C25672   5.924   5.657  10.749  0.2894 -0.3850 -0.0500
  187MOL0     C25673   6.001   5.570  10.828  0.4374  0.0343  0.0020
  187MOL0     C25674   6.089   5.482  10.762  0.7745  0.3624  0.0885
  187MOL0     C25675   6.090   5.472  10.619 -0.9717  0.6321 -0.5207
  187MOL0     O25676   6.169   5.371  10.565  0.8878 -0.3606 -0.3128
  187MOL0     C25677   6.137   5.331  10.430  0.0786 -1.1206 -0.0748
  187MOL0     C25678   6.214   5.212  10.387 -0.1175  0.1085  0.2806
  187MOL0     C25679   6.193   5.178  10.241  0.6177 -0.5849 -0.0977
  187MOL0     C25680   6.295   5.067  10.200 -1.0880 -0.0496 -0.4951
  187MOL0     C25681   6.434   5.118  10.158 -0.6176 -0.5570  0.0525
  187MOL0     C25682   6.544   5.009  10.157  0.5384 -0.6205 -0.4832
  187MOL0     C25683   6.511   4.909  10.050 -0.2188 -0.2775 -0.1013
  187MOL0     C25684   6.617   4.798  10.043 -0.4641  0.6335 -0.7970
  187MOL0     N25685   6.748   4.852  10.002  0.1866 -0.7761  0.6279
  187MOL0     C25686   6.871   4.827  10.068  0.8002  0.0330 -0.5612
  187MOL0     C25687   6.963   4.895   9.998  0.9152  0.0475 -0.4595
  187MOL0     C25688   7.115   4.898  10.021  0.4506  0.0527  0.2343
  187MOL0     C25689   7.180   4.762   9.974 -0.9755 -0.0367  0.2777
  187MOL0     C25690   7.336   4.757   9.967  0.1694  0.6455  0.3712
  187MOL0     C25691   7.383   4.628   9.897 -0.7749 -0.3044  0.1293
  187MOL0     O25692   7.529   4.634   9.910  0.2816  0.9052  0.3155
  187MOL0     C25693   7.607   4.520   9.903  1.1481 -0.1485  0.3932
  187MOL0     C25694   7.564   4.386   9.865 -0.4152 -0.5831 -0.6015
  187MOL0     C25695   7.660   4.295   9.829  0.0075  0.0035 -0.2618
  187MOL0     C25696   7.609   4.165   9.785  0.2017 -0.2648  0.3559
  187MOL0     C25697   7.798   4.331   9.849  0.1290  0.2765  0.0519
  187MOL0     C25698   7.908   4.224   9.827  0.9601 -0.3420  0.4022
  187MOL0     O25699   8.036   4.273   9.842 -0.6970 -0.0114  0.2164
  187MOL0     C25700   8.139   4.186   9.836  0.2519 -0.1406  0.5844
  187MOL0     C25701   8.186   4.127   9.953  0.1957 -0.5611  0.5922
  187MOL0     C25702   8.302   4.049   9.956 -0.3722  0.0329  0.5041
  187MOL0     C25703   8.359   3.996   9.837 -0.4325  0.1485  0.9625
  187MOL0     O25704   8.454   3.899   9.854  0.6317  0.3512 -0.2224
  187MOL0     C25705   8.507   3.849   9.735 -0.7500 -0.3295 -0.1234
  187MOL0     C25706   8.418   3.738   9.673 -1.2849  0.1540 -0.4122
  187MOL0     C25707   8.461   3.601   9.737 -0.7034 -0.6749 -0.2670
  187MOL0     C25708   8.391   3.477   9.684  0.4355 -0.5463 -0.5149
  187MOL0     C25709   8.453   3.349   9.740  0.1230  0.4229 -0.4662
  187MOL0     C25710   8.597   3.298   9.693  0.7803  0.2781  0.0864
  187MOL0     C25711   8.616   3.159   9.753 -0.3580 -0.7331  0.5929
  187MOL0     C25712   8.759   3.106   9.724 -0.3449 -0.8548 -0.7881
  187MOL0    Cl25713   8.827   3.113   9.560  0.0794 -0.1995  0.1025
  187MOL0     C25714   8.324   4.069   9.719 -0.0906 -1.2317  0.4691
  187MOL0     C25715   8.222   4.165   9.724 -0.3997  0.9899  0.2588
  187MOL0     O25716   7.878   4.106   9.803 -0.6759 -0.4322  1.1819
  187MOL0     C25717   7.834   4.461   9.894  0.8685 -0.5402  0.3549
  187MOL0     C25718   7.739   4.556   9.921 -0.7522  0.6364  0.7270
  187MOL0     N25719   6.902   4.961   9.894  0.3324 -0.8774 -0.4840
  187MOL0     N25720   6.780   4.939   9.901  0.0313  0.2251  0.7846
  187MOL0     C25721   6.019   5.562  10.551 -0.0592 -0.4087  0.2399
  187MOL0     C25722   5.942   5.661  10.613 -0.7127 -0.2230  0.1041
  187MOL0     C25723   5.770   5.950  10.922 -0.0850 -0.2604 -0.3010
  187MOL0     C25724   5.649   5.943  10.850 -0.0078 -0.6544 -0.4944
  187MOL0     C25725   5.550   6.036  10.879 -0.6640  0.2652 -0.1002
  187MOL0     C25726   5.560   6.126  10.974  0.1946 -0.0871 -0.0790
  187MOL0     O25727   5.445   6.205  10.999 -0.7662  0.0509  0.0302
  187MOL0     C25728   5.338   6.129  11.066 -1.3448 -0.1513  1.2154
  187MOL0     C25729   5.225   6.224  11.113  0.1441 -0.0413  0.0724
  187MOL0     C25730   5.145   6.301  10.997 -0.3295 -0.7451  0.2015
  187MOL0     C25731   5.062   6.216  10.904 -0.4637  0.0145  0.7568
  187MOL0     C25732   5.005   6.297  10.793 -0.5910 -0.0497  0.2502
  187MOL0     C25733   4.942   6.345  10.701 -0.1870  0.0967  0.3638
  187MOL0     C25734   5.676   6.138  11.045  0.0462  0.3906  0.7319
  187MOL0     C25735   5.786   6.054  11.020  0.8128 -0.8780 -0.7925
  187MOL0     C25736   5.908   6.073  11.106 -0.2060  0.1905  0.9404
  187MOL0     H25737   5.968   5.570  10.931 -1.8092 -0.1428 -0.6580
  187MOL0     H25738   6.150   5.413  10.820  1.0120  1.7660  1.6080
  187MOL0     H25739   6.165   5.412  10.363  2.7651 -0.4040  1.7932
  187MOL0     H25740   6.029   5.312  10.420  0.1344 -3.1265  2.0728
  187MOL0     H25741   6.322   5.229  10.392 -0.0051 -0.8248  1.8539
  187MOL0     H25742   6.184   5.116  10.430  0.2245 -0.8362 -1.4944
  187MOL0     H25743   6.094   5.135  10.224  0.9463 -1.2057 -0.4738
  187MOL0     H25744   6.197   5.276  10.193  0.7610  0.1119  1.2854
  187MOL0     H25745   6.308   4.999  10.285 -2.5221 -0.1976 -0.3738
  187MOL0     H25746   6.253   5.012  10.116  1.5927  0.2710 -2.1476
  187MOL0     H25747   6.463   5.199  10.227 -0.4885  1.0209 -1.7795
  187MOL0     H25748   6.418   5.158  10.058  2.2482  1.0134  0.1083
  187MOL0     H25749   6.637   5.058  10.127 -0.5018  0.5132 -2.0575
  187MOL0     H25750   6.559   4.958  10.253  0.2164  1.9639  1.0456
  187MOL0     H25751   6.494   4.950   9.950  0.2930  2.7079  0.9341
  187MOL0     H25752   6.420   4.858  10.082 -1.8638  1.1811 -2.2069
  187MOL0     H25753   6.631   4.757  10.143  0.7678  0.4124 -1.0463
  187MOL0     H25754   6.584   4.715   9.980 -0.4614  0.1760 -0.2061
  187MOL0     H25755   6.900   4.762  10.150  2.2239 -0.3817 -1.3487
  187MOL0     H25756   7.133   4.913  10.128 -0.9529 -1.9915  0.8120
  187MOL0     H25757   7.168   4.981   9.974  0.8501 -0.1579  0.3092
  187MOL0     H25758   7.157   4.677  10.038 -0.9363 -0.7976 -0.7014
  187MOL0     H25759   7.138   4.747   9.874  0.5086  1.9877 -0.7432
  187MOL0     H25760   7.376   4.839   9.906  2.4926 -0.5262  0.2021
  187MOL0     H25761   7.392   4.766  10.060  0.8049  1.2120 -0.0491
  187MOL0     H25762   7.338   4.545   9.953  0.8818 -0.9969  0.4688
  187MOL0     H25763   7.347   4.626   9.794  0.2295 -4.3812 -0.3260
  187MOL0     H25764   7.460   4.378   9.835 -0.6042 -0.9115  0.1344
  187MOL0     H25765   7.619   4.089   9.864  0.3527 -0.3103  0.2936
  187MOL0     H25766   7.659   4.138   9.692  1.2481 -1.2774  1.1743
  187MOL0     H25767   7.506   4.167   9.751  1.6038 -0.8950 -4.6297
  187MOL0     H25768   8.143   4.166  10.044 -1.7906 -2.7052  0.6607
  187MOL0     H25769   8.333   4.008  10.052 -1.4420  1.2604  1.3989
  187MOL0     H25770   8.542   3.930   9.670  0.0280 -2.1980 -2.1390
  187MOL0     H25771   8.592   3.785   9.760 -1.1087 -0.9141 -0.3847
  187MOL0     H25772   8.311   3.763   9.679 -0.9783  1.5528 -0.4650
  187MOL0     H25773   8.433   3.735   9.565 -0.3345  0.5750 -0.2996
  187MOL0     H25774   8.433   3.597   9.843 -3.1213 -0.2210 -0.8312
  187MOL0     H25775   8.569   3.585   9.728  0.0480  2.5031  1.3663
  187MOL0     H25776   8.409   3.473   9.576  0.7249 -4.1764 -0.4576
  187MOL0     H25777   8.284   3.491   9.699  0.6523 -0.0496  0.6717
  187MOL0     H25778   8.463   3.353   9.849 -2.3684 -2.6078  0.0123
  187MOL0     H25779   8.368   3.281   9.736  0.9387 -0.7657  1.2856
  187MOL0     H25780   8.678   3.364   9.728  1.1518 -0.0353 -0.1734
  187MOL0     H25781   8.603   3.288   9.584  0.1015  1.8990 -0.1372
  187MOL0     H25782   8.540   3.098   9.702 -0.6563  1.4891 -1.8471
  187MOL0     H25783   8.596   3.162   9.860 -0.9294 -0.0966  0.4796
  187MOL0     H25784   8.753   3.004   9.764 -3.1037 -0.3223  0.3986
  187MOL0     H25785   8.828   3.153   9.795 -0.3980 -2.4649  0.4010
  187MOL0     H25786   8.376   4.050   9.625  2.2705 -0.6757  1.5797
  187MOL0     H25787   8.200   4.236   9.645 -1.1474 -0.1273 -0.5705
  187MOL0     H25788   7.936   4.497   9.901 -0.3405  2.9605  2.6952
  187MOL0     H25789   7.767   4.661   9.930 -0.2524  0.7489 -1.5198
  187MOL0     H25790   6.033   5.566  10.443 -1.5349  0.1361  0.0430
  187MOL0     H25791   5.900   5.741  10.553 -1.7713  0.1750  1.3252
  187MOL0     H25792   5.631   5.867  10.775 -0.5938 -0.3110 -0.7104
  187MOL0     H25793   5.453   6.030  10.831  0.7496 -1.4679 -3.0056
  187MOL0     H25794   5.302   6.060  10.990  1.0029  2.9877 -3.2502
  187MOL0     H25795   5.387   6.075  11.147  2.0750 -0.9043 -1.1144
  187MOL0     H25796   5.249   6.296  11.192 -3.3001  0.5343  0.7883
  187MOL0     H25797   5.144   6.164  11.156 -0.7383  1.2860  0.3393
  187MOL0     H25798   5.073   6.370  11.043 -0.2840 -0.3474 -0.3190
  187MOL0     H25799   5.218   6.358  10.939 -0.4356  0.9030  1.6078
  187MOL0     H25800   4.979   6.165  10.952 -0.2552 -1.6138 -0.5140
  187MOL0     H25801   5.133   6.147  10.857 -0.0290 -0.7043  2.3995
  187MOL0     H25802   4.892   6.389  10.618  1.9934  2.0687 -0.0150
  187MOL0     H25803   5.679   6.208  11.129 -0.6443  1.1971  0.1034
  187MOL0     H25804   5.913   5.986  11.172  1.0710 -0.0881  0.4904
  187MOL0     H25805   5.998   6.077  11.044 -0.7135  1.1596  0.2297
  187MOL0     H25806   5.889   6.165  11.162  0.7133  0.1591  1.3134
  188MOL0     O25807  10.023   5.428   1.601 -0.7306 -1.1017 -0.1555
  188MOL0     C25808   9.937   5.340   1.609 -0.7299 -0.5087  0.4203
  188MOL0     O25809   9.952   5.202   1.629  0.3037  0.1034 -0.6477
  188MOL0     C25810  10.079   5.150   1.656  0.5967 -0.5764 -0.2709
  188MOL0     C25811  10.174   5.219   1.730  0.6682 -0.1418  0.1954
  188MOL0     C25812  10.296   5.157   1.762 -0.5074 -0.3752  0.0344
  188MOL0     C25813  10.330   5.030   1.714 -0.2385 -0.0313  0.8411
  188MOL0     O25814  10.450   4.966   1.713  0.6958  0.7412 -0.4955
  188MOL0     C25815  10.563   5.040   1.763  0.3474 -0.4157 -0.4212
  188MOL0     C25816  10.575   5.020   1.918  0.9811  0.1436  0.0665
  188MOL0     C25817  10.712   4.972   1.963 -0.1063 -0.5293 -0.2192
  188MOL0     C25818  10.733   4.822   1.938  0.4251  0.3207 -0.1952
  188MOL0     C25819  10.876   4.784   1.987  0.4629  0.2958  0.2700
  188MOL0     C25820  10.893   4.635   1.997  0.6599  0.1858  0.5003
  188MOL0     C25821  11.034   4.593   2.038 -0.4670 -0.0902 -0.2999
  188MOL0     C25822  11.028   4.442   2.072  0.0733 -0.4062 -0.6544
  188MOL0     N25823  11.170   4.382   2.090  0.1282  0.3444  0.6366
  188MOL0     C25824  11.247   4.376   2.203 -0.8678  1.2524 -0.3360
  188MOL0     C25825  11.358   4.308   2.174 -0.1114  0.2585 -0.2624
  188MOL0     C25826  11.466   4.272   2.274 -0.0932  0.0450 -0.0041
  188MOL0     C25827  11.582   4.367   2.234 -0.6858  0.2019  0.2196
  188MOL0     C25828  11.705   4.325   2.318 -0.1060 -0.0832  0.5724
  188MOL0     C25829  11.826   4.416   2.292  0.7831 -0.6405 -0.0922
  188MOL0     O25830  11.796   4.558   2.272 -0.2933  0.1833 -0.3229
  188MOL0     C25831  11.893   4.649   2.240  0.2211 -0.1766  0.8962
  188MOL0     C25832  11.854   4.780   2.233  0.0753  0.3646  0.1320
  188MOL0     C25833  11.944   4.889   2.218  0.7269  0.4675  0.2004
  188MOL0     C25834  11.892   5.030   2.219  0.8262  0.1981  0.3235
  188MOL0     C25835  12.083   4.860   2.188  0.0151 -0.3942 -1.0374
  188MOL0     C25836  12.198   4.961   2.166 -0.3922 -0.8005 -0.5089
  188MOL0     O25837  12.299   4.925   2.086 -0.2695  0.2718 -0.6442
  188MOL0     C25838  12.419   4.995   2.071  0.9746 -0.9041 -0.6318
  188MOL0     C25839  12.485   5.053   2.180 -0.9550  0.2007 -0.0117
  188MOL0     C25840  12.595   5.138   2.155  0.3745 -0.7494 -0.3487
  188MOL0     C25841  12.643   5.147   2.020 -0.2046  0.4939 -0.8115
  188MOL0     O25842  12.748   5.226   1.989  0.7466  0.1951 -0.0209
  188MOL0     C25843  12.852   5.230   2.095 -0.0870  0.1665 -0.1603
  188MOL0     C25844  12.998   5.232   2.040  0.5621 -0.3922 -0.2281
  188MOL0     C25845  13.022   5.369   1.997 -0.1762 -0.9310  0.3708
  188MOL0     C25846  13.167   5.375   1.951 -0.0047  0.2602  0.2937
  188MOL0     C25847  13.205   5.521   1.913 -0.0228 -0.1381  0.2459
  188MOL0     C25848  13.346   5.537   1.857 -0.1503  0.5700  0.1449
  188MOL0     C25849  13.364   5.677   1.797  0.4068 -0.3695  0.1865
  188MOL0     C25850  13.499   5.737   1.748 -0.2886  0.3029  0.2824
  188MOL0    Cl25851  13.579   5.630   1.623 -0.1308 -0.0501 -0.3217
  188MOL0     C25852  12.581   5.073   1.916 -0.9881 -0.3043 -0.8300
  188MOL0     C25853  12.471   4.996   1.947  0.2845  0.7516  0.7473
  188MOL0     O25854  12.195   5.068   2.232 -0.6063 -0.0958 -0.3085
  188MOL0     C25855  12.124   4.727   2.185 -0.0592  0.8208 -0.2158
  188MOL0     C25856  12.033   4.623   2.205 -0.8927  0.4885  0.1885
  188MOL0     N25857  11.355   4.270   2.039 -0.1666  0.4353  0.0779
  188MOL0     N25858  11.244   4.307   1.995  0.9949  0.3085  0.4390
  188MOL0     C25859  10.226   4.962   1.655 -0.0085 -0.6685  0.2947
  188MOL0     C25860  10.106   5.019   1.621  0.0098 -0.6484  0.3727
  188MOL0     C25861   9.808   5.379   1.568 -0.0397  0.8550  0.3959
  188MOL0     C25862   9.772   5.397   1.441 -0.5831 -0.8500  0.1104
  188MOL0     C25863   9.645   5.407   1.393 -0.0616  0.4624  0.4085
  188MOL0     C25864   9.538   5.414   1.484  0.2594 -0.6084 -0.1159
  188MOL0     O25865   9.409   5.443   1.451 -0.0703  0.5304  0.1194
  188MOL0     C25866   9.390   5.552   1.352 -0.7494  0.1237 -0.8171
  188MOL0     C25867   9.239   5.607   1.373  1.0019  0.0077 -0.6797
  188MOL0     C25868   9.197   5.616   1.516  0.1081 -0.5034  0.0620
  188MOL0     C25869   9.048   5.664   1.537 -0.5166  0.2228 -0.0993
  188MOL0     C25870   8.947   5.556   1.536 -0.0526  0.3026  1.0257
  188MOL0     C25871   8.860   5.471   1.567 -0.8630 -0.8466  0.1102
  188MOL0     C25872   9.561   5.397   1.618 -0.8762 -0.0999  0.4784
  188MOL0     C25873   9.696   5.372   1.659  0.4443 -0.1302 -0.4447
  188MOL0     C25874   9.711   5.354   1.810 -0.0536 -0.3877  0.0160
  188MOL0     H25875  10.164   5.318   1.773  1.8684 -0.0615  0.3162
  188MOL0     H25876  10.374   5.197   1.825 -1.8007  1.0817  0.8005
  188MOL0     H25877  10.565   5.142   1.724  0.5015 -0.2810 -0.0687
  188MOL0     H25878  10.649   4.985   1.725  0.6330  0.1410 -0.5877
  188MOL0     H25879  10.542   5.112   1.967 -1.3192 -1.2904  1.3479
  188MOL0     H25880  10.503   4.941   1.939  2.3039 -0.5898  2.1101
  188MOL0     H25881  10.788   5.027   1.908 -1.2244 -0.2215 -1.5238
  188MOL0     H25882  10.719   4.997   2.069  1.5277 -1.6213 -0.0346
  188MOL0     H25883  10.662   4.759   1.992  0.0395  1.5269  0.7626
  188MOL0     H25884  10.733   4.805   1.830  0.2587  1.6846 -0.4279
  188MOL0     H25885  10.885   4.827   2.087 -1.3200  1.9531 -0.2151
  188MOL0     H25886  10.948   4.822   1.914 -1.8972 -0.1102 -2.4390
  188MOL0     H25887  10.825   4.604   2.077 -0.3871  2.7439  0.6805
  188MOL0     H25888  10.867   4.585   1.902 -0.7582  2.6916 -0.5378
  188MOL0     H25889  11.059   4.650   2.128  2.1925 -0.4272 -0.7351
  188MOL0     H25890  11.109   4.615   1.962 -0.6896 -0.5188 -0.6501
  188MOL0     H25891  10.982   4.422   2.169  2.4605  0.9483  0.8626
  188MOL0     H25892  10.978   4.400   1.984  0.3633  0.7751 -1.3989
  188MOL0     H25893  11.220   4.414   2.300 -0.1753 -0.5941  0.6300
  188MOL0     H25894  11.506   4.171   2.264  2.3710  1.1227 -2.9985
  188MOL0     H25895  11.432   4.285   2.377 -3.2073 -0.2001 -0.9194
  188MOL0     H25896  11.604   4.353   2.128 -1.6887  3.3178 -0.4844
  188MOL0     H25897  11.550   4.470   2.251  0.4293  0.5884  0.0250
  188MOL0     H25898  11.682   4.345   2.424  2.4594  1.5057  0.9011
  188MOL0     H25899  11.724   4.220   2.292 -0.7609  0.0622 -0.5483
  188MOL0     H25900  11.898   4.408   2.375  0.8972  2.1541  0.2032
  188MOL0     H25901  11.871   4.383   2.198  2.3700 -1.3436  0.8691
  188MOL0     H25902  11.747   4.779   2.250 -0.4875  0.9232 -2.8070
  188MOL0     H25903  11.962   5.113   2.220  0.6812  0.3546 -0.8057
  188MOL0     H25904  11.833   5.038   2.311 -0.1566 -3.2709  0.1345
  188MOL0     H25905  11.827   5.044   2.132  1.9389  2.4233 -0.2231
  188MOL0     H25906  12.451   5.055   2.283  3.2611 -1.5437  1.6357
  188MOL0     H25907  12.630   5.198   2.238 -0.5289 -1.5646  0.6661
  188MOL0     H25908  12.835   5.320   2.156 -3.4650  0.5700 -1.4839
  188MOL0     H25909  12.848   5.145   2.163 -1.2077  0.7502  0.5356
  188MOL0     H25910  13.069   5.201   2.118  1.4104 -0.7521 -1.1188
  188MOL0     H25911  13.000   5.174   1.948 -0.5420  0.2664 -0.6841
  188MOL0     H25912  13.009   5.448   2.071  4.8051 -0.0072  0.5660
  188MOL0     H25913  12.953   5.391   1.914 -2.1958  0.1981  2.2267
  188MOL0     H25914  13.181   5.312   1.863 -3.0823 -0.2742  0.0837
  188MOL0     H25915  13.233   5.330   2.026  0.2836 -0.3844 -0.3289
  188MOL0     H25916  13.142   5.549   1.828 -0.6200 -3.1360 -0.3872
  188MOL0     H25917  13.186   5.581   2.003 -3.8822 -0.8563  0.0632
  188MOL0     H25918  13.359   5.460   1.780  3.1148  0.8628  0.2539
  188MOL0     H25919  13.428   5.518   1.927  0.4538  1.4931 -0.2880
  188MOL0     H25920  13.324   5.750   1.868 -1.7152 -0.2332 -1.0873
  188MOL0     H25921  13.286   5.690   1.722  0.2159 -2.1380  0.0357
  188MOL0     H25922  13.569   5.756   1.830 -0.1879 -0.3773  0.3578
  188MOL0     H25923  13.470   5.830   1.698  0.1939 -1.6871 -4.2329
  188MOL0     H25924  12.622   5.076   1.815  0.3432 -2.9837 -0.4620
  188MOL0     H25925  12.407   4.950   1.873  0.8902 -0.1368  0.7570
  188MOL0     H25926  12.229   4.698   2.183  0.4005  2.1311  1.6535
  188MOL0     H25927  12.061   4.518   2.206  0.2057  0.7660  1.4082
  188MOL0     H25928  10.240   4.857   1.630 -2.2389 -0.2588 -3.3469
  188MOL0     H25929  10.028   4.976   1.558  1.4816  0.2414 -2.1942
  188MOL0     H25930   9.847   5.413   1.364 -1.3292 -2.5744 -1.0423
  188MOL0     H25931   9.627   5.403   1.287 -1.6773 -0.0250  0.6749
  188MOL0     H25932   9.467   5.629   1.363 -0.8131  0.0819  0.0163
  188MOL0     H25933   9.412   5.505   1.256 -0.5829  1.6050 -1.5265
  188MOL0     H25934   9.177   5.532   1.323  0.2760  1.0144 -1.3384
  188MOL0     H25935   9.228   5.705   1.326  2.6809  2.1753  3.0188
  188MOL0     H25936   9.202   5.516   1.562 -2.1849 -0.7480 -0.0744
  188MOL0     H25937   9.263   5.678   1.576 -0.0867 -1.3357  1.1660
  188MOL0     H25938   9.018   5.737   1.461 -1.2638 -0.3562 -0.3688
  188MOL0     H25939   9.045   5.709   1.636  0.5603  1.6930 -0.7018
  188MOL0     H25940   8.783   5.404   1.601 -2.0584  1.0817  1.4437
  188MOL0     H25941   9.484   5.415   1.693 -1.2353  0.8143 -0.0872
  188MOL0     H25942   9.620   5.320   1.860  0.7803 -0.3710  1.5961
  188MOL0     H25943   9.791   5.279   1.820  0.6401  0.4019  0.4697
  188MOL0     H25944   9.751   5.441   1.862  1.6931 -0.8537 -0.4893
  189MOL0     O25945   9.731   2.787  10.700  0.0409 -0.5151 -0.0921
  189MOL0     C25946   9.653   2.694  10.726 -0.0770 -0.1734 -0.4593
  189MOL0     O25947   9.691   2.562  10.767  0.1324 -0.5153  0.0812
  189MOL0     C25948   9.825   2.522  10.750 -1.2374  0.5786  0.0613
  189MOL0     C25949   9.866   2.489  10.626  0.0178  0.0628  0.7846
  189MOL0     C25950  10.002   2.462  10.588  0.0885 -0.3348  0.2571
  189MOL0     C25951  10.091   2.474  10.691  0.4667  0.1935 -0.5044
  189MOL0     O25952  10.221   2.452  10.670  0.0984 -0.5754 -0.1566
  189MOL0     C25953  10.262   2.324  10.616  0.2467  0.1196 -0.8383
  189MOL0     C25954  10.413   2.334  10.598  0.0576 -0.2588  0.0886
  189MOL0     C25955  10.493   2.312  10.724 -0.6555  0.5539 -0.0471
  189MOL0     C25956  10.639   2.295  10.684 -0.8789  0.0228  0.3180
  189MOL0     C25957  10.734   2.281  10.807 -0.0830 -0.1987 -0.4670
  189MOL0     C25958  10.888   2.261  10.776 -0.3764 -0.0811 -0.3658
  189MOL0     C25959  10.960   2.192  10.886  1.1820  0.1975  0.4466
  189MOL0     C25960  11.097   2.136  10.841 -0.0609 -0.4703 -0.0229
  189MOL0     N25961  11.168   2.088  10.963  0.5881 -0.6075 -0.1146
  189MOL0     C25962  11.166   1.952  11.010  0.9542 -1.0855 -0.3398
  189MOL0     C25963  11.249   1.960  11.118  0.8373 -0.1359  0.2463
  189MOL0     C25964  11.271   1.855  11.227 -0.1184  0.4018 -0.5339
  189MOL0     C25965  11.390   1.757  11.194  0.1035  0.2420 -0.2077
  189MOL0     C25966  11.516   1.788  11.273  0.0582 -0.1033  0.1772
  189MOL0     C25967  11.618   1.676  11.273  0.3999  0.0756 -0.0171
  189MOL0     O25968  11.720   1.718  11.368 -0.0997  0.1869  0.3307
  189MOL0     C25969  11.838   1.664  11.349  0.2205  0.0648 -0.4584
  189MOL0     C25970  11.869   1.541  11.285  0.0093  0.7251 -0.2319
  189MOL0     C25971  11.990   1.472  11.298  0.7169 -0.6159  0.0213
  189MOL0     C25972  12.004   1.336  11.230  0.1075 -0.6299  0.1166
  189MOL0     C25973  12.090   1.521  11.387 -0.3844 -0.2126 -0.0362
  189MOL0     C25974  12.221   1.463  11.430  0.3281  0.1222 -0.5252
  189MOL0     O25975  12.267   1.507  11.545 -0.3631  0.0474 -0.2447
  189MOL0     C25976  12.402   1.485  11.578 -0.3472 -0.1481 -0.1616
  189MOL0     C25977  12.422   1.483  11.714  0.0075 -0.2465 -0.2077
  189MOL0     C25978  12.552   1.471  11.771  0.5206 -0.0164  0.0117
  189MOL0     C25979  12.657   1.456  11.683 -0.6088 -0.0421  0.7193
  189MOL0     O25980  12.785   1.433  11.723  0.2602 -0.8888 -0.7558
  189MOL0     C25981  12.834   1.527  11.822  0.3179 -0.0657  1.2270
  189MOL0     C25982  12.986   1.500  11.818 -0.3586  0.8173  0.6958
  189MOL0     C25983  13.038   1.533  11.673 -0.6653  0.3672 -0.3457
  189MOL0     C25984  13.186   1.547  11.668 -0.3252  0.2409  0.1089
  189MOL0     C25985  13.236   1.576  11.523  0.4581 -0.1587 -0.1168
  189MOL0     C25986  13.384   1.565  11.500 -0.5213 -0.0892 -1.5135
  189MOL0     C25987  13.472   1.667  11.576 -0.0905  0.4053 -0.1848
  189MOL0     C25988  13.632   1.636  11.569  0.4666 -0.3109 -0.0738
  189MOL0    Cl25989  13.688   1.545  11.426  0.3723 -0.0288 -0.5166
  189MOL0     C25990  12.638   1.462  11.547  0.0682  1.2353 -0.0367
  189MOL0     C25991  12.511   1.484  11.491  0.1508  0.0405  0.0052
  189MOL0     O25992  12.277   1.372  11.365  0.0210 -0.4112  0.1101
  189MOL0     C25993  12.057   1.645  11.449  0.3247  0.3862 -0.3298
  189MOL0     C25994  11.934   1.715  11.432 -0.1568 -0.0054  0.0526
  189MOL0     N25995  11.301   2.088  11.130  0.1332  1.0076  0.5390
  189MOL0     N25996  11.246   2.163  11.040  0.4359 -0.3366 -0.1402
  189MOL0     C25997  10.049   2.495  10.822 -0.6039 -0.9620  0.3639
  189MOL0     C25998   9.915   2.518  10.851 -0.3896  0.6298 -0.3933
  189MOL0     C25999   9.502   2.724  10.710 -0.3090 -1.0159  0.2265
  189MOL0     C26000   9.404   2.651  10.776  0.4505  0.8864 -0.3671
  189MOL0     C26001   9.264   2.652  10.752  0.1943  0.3926 -0.2765
  189MOL0     C26002   9.220   2.757  10.673 -0.1028  0.0794 -0.9438
  189MOL0     O26003   9.091   2.767  10.623 -0.1858  0.4304 -0.1191
  189MOL0     C26004   8.989   2.674  10.671 -0.1254 -0.0578  0.3692
  189MOL0     C26005   8.853   2.705  10.617 -0.6831 -0.1811  0.2315
  189MOL0     C26006   8.783   2.803  10.715 -0.1335  0.1995 -0.7399
  189MOL0     C26007   8.648   2.845  10.658  0.5852 -0.0168 -0.2450
  189MOL0     C26008   8.548   2.737  10.676 -0.5460 -0.8340 -0.8109
  189MOL0     C26009   8.468   2.648  10.695 -0.2380  0.0476 -0.7276
  189MOL0     C26010   9.318   2.852  10.630  0.5765 -0.5324  0.2378
  189MOL0     C26011   9.452   2.832  10.638 -0.1604 -0.6757 -0.8206
  189MOL0     C26012   9.530   2.936  10.568  0.3541 -0.1392  0.5805
  189MOL0     H26013   9.796   2.497  10.543  0.0462  0.7317  0.8227
  189MOL0     H26014  10.024   2.446  10.483 -2.7076 -3.6316  0.0143
  189MOL0     H26015  10.214   2.300  10.520 -0.8392 -2.1206  0.1906
  189MOL0     H26016  10.220   2.249  10.684 -3.8981  1.8363 -1.2196
  189MOL0     H26017  10.449   2.259  10.527  0.7232 -2.8680  2.9802
  189MOL0     H26018  10.433   2.436  10.563  2.0972 -1.2059 -1.8390
  189MOL0     H26019  10.473   2.386  10.802 -0.6021 -0.0383  0.5481
  189MOL0     H26020  10.459   2.217  10.768 -0.1929 -1.1573 -3.0835
  189MOL0     H26021  10.650   2.212  10.615  0.0354  0.3098  0.0975
  189MOL0     H26022  10.660   2.387  10.628  0.7955 -0.8006 -0.4670
  189MOL0     H26023  10.694   2.194  10.860 -3.2801  1.7992  0.6669
  189MOL0     H26024  10.735   2.365  10.877  2.3653 -0.3233 -0.2701
  189MOL0     H26025  10.900   2.206  10.682 -1.8436  0.0392 -0.6399
  189MOL0     H26026  10.938   2.358  10.762 -4.3172  1.9103 -2.2718
  189MOL0     H26027  10.890   2.117  10.924  0.5042 -0.0869 -1.2412
  189MOL0     H26028  10.974   2.264  10.967 -1.4638 -0.0887  1.2623
  189MOL0     H26029  11.075   2.047  10.783 -1.5871 -0.4270  0.4470
  189MOL0     H26030  11.150   2.209  10.779  1.5473 -0.8673  0.8407
  189MOL0     H26031  11.099   1.867  10.999 -1.3355  0.8294 -2.1626
  189MOL0     H26032  11.175   1.803  11.237 -1.2082  2.6141  1.6678
  189MOL0     H26033  11.293   1.893  11.328  1.4291  0.2100 -0.7752
  189MOL0     H26034  11.365   1.653  11.219  0.6194  0.3921  0.9873
  189MOL0     H26035  11.419   1.766  11.089 -0.0721  2.2901 -0.1070
  189MOL0     H26036  11.563   1.879  11.233 -1.0066  0.1192 -0.6195
  189MOL0     H26037  11.493   1.816  11.376 -1.0004  0.8809 -0.2982
  189MOL0     H26038  11.572   1.582  11.304  0.4433 -0.1904 -0.7330
  189MOL0     H26039  11.655   1.651  11.173 -0.6689 -1.0364 -0.1534
  189MOL0     H26040  11.790   1.487  11.234  1.2287 -2.0239  0.6099
  189MOL0     H26041  12.026   1.260  11.306 -0.8977  0.2205  1.2821
  189MOL0     H26042  12.090   1.329  11.162 -0.7677  0.2346 -1.1038
  189MOL0     H26043  11.914   1.303  11.178 -0.6584  0.0259  0.9972
  189MOL0     H26044  12.336   1.501  11.778 -0.8992 -3.0591 -0.5152
  189MOL0     H26045  12.565   1.478  11.879 -1.3679  1.0588  0.2133
  189MOL0     H26046  12.813   1.628  11.786 -1.3517 -0.8055  0.0107
  189MOL0     H26047  12.784   1.508  11.917 -2.5018  1.0176  0.0803
  189MOL0     H26048  13.036   1.555  11.898 -0.8666 -1.6845  2.8550
  189MOL0     H26049  13.009   1.394  11.836 -0.8776  0.4161 -0.7784
  189MOL0     H26050  12.994   1.628  11.641  1.0048  0.7517 -1.6608
  189MOL0     H26051  13.003   1.451  11.610 -0.6386 -1.1768  1.5496
  189MOL0     H26052  13.238   1.454  11.695  0.3463  0.9844  1.4567
  189MOL0     H26053  13.226   1.625  11.734  1.5317  1.5350 -2.3959
  189MOL0     H26054  13.193   1.507  11.450 -0.7240  0.1378  0.2709
  189MOL0     H26055  13.212   1.678  11.490 -1.3943 -0.8997 -1.2145
  189MOL0     H26056  13.414   1.559  11.395 -0.1866  2.8157 -1.6549
  189MOL0     H26057  13.410   1.468  11.544  1.6731  0.8956 -0.5247
  189MOL0     H26058  13.449   1.686  11.681  1.3948 -0.9057  0.4166
  189MOL0     H26059  13.455   1.765  11.531  0.6709  2.1083  2.9436
  189MOL0     H26060  13.659   1.571  11.653  2.6762  1.3729  0.5978
  189MOL0     H26061  13.692   1.721  11.603  0.1121 -0.3384  0.6429
  189MOL0     H26062  12.726   1.436  11.490 -0.9975  0.0373 -1.2266
  189MOL0     H26063  12.501   1.498  11.384  0.1004 -0.5447 -0.0683
  189MOL0     H26064  12.125   1.697  11.515  1.3378 -0.8068 -0.3943
  189MOL0     H26065  11.911   1.805  11.487 -1.0226 -0.2232  0.0614
  189MOL0     H26066  10.128   2.506  10.896 -0.1589  0.8518 -0.3365
  189MOL0     H26067   9.899   2.538  10.957  4.2089  0.4436  0.5582
  189MOL0     H26068   9.428   2.562  10.834 -0.4386  0.6303 -0.3706
  189MOL0     H26069   9.205   2.572  10.796  1.5973 -0.1748  0.6442
  189MOL0     H26070   9.012   2.573  10.636 -4.8268 -0.7343 -1.4164
  189MOL0     H26071   8.990   2.674  10.780  0.3192 -1.0936  0.3704
  189MOL0     H26072   8.795   2.612  10.620 -0.5235 -0.3983 -2.0480
  189MOL0     H26073   8.865   2.750  10.518  2.7882 -0.3475  0.4301
  189MOL0     H26074   8.756   2.750  10.807  3.7354  1.9302  1.6498
  189MOL0     H26075   8.842   2.890  10.744 -1.1894  1.1527 -1.3896
  189MOL0     H26076   8.647   2.862  10.550  0.2664 -2.5223 -0.7006
  189MOL0     H26077   8.614   2.933  10.713 -2.4485  0.1807 -2.2165
  189MOL0     H26078   8.391   2.573  10.699 -1.2383  1.0502 -0.5206
  189MOL0     H26079   9.282   2.942  10.582  1.6751  0.1809  0.7312
  189MOL0     H26080   9.573   3.002  10.644  0.9545 -2.6801  2.5786
  189MOL0     H26081   9.618   2.901  10.512 -0.1957  0.7599 -0.9142
  189MOL0     H26082   9.470   2.994  10.497 -1.2493 -0.8414  1.3315
  190MOL0     O26083   4.156   6.316   5.543  0.7836 -0.3931 -0.1648
  190MOL0     C26084   4.092   6.421   5.520 -1.2152  0.5139 -0.2881
  190MOL0     O26085   3.985   6.433   5.440 -0.0933 -0.3965  0.6751
  190MOL0     C26086   3.942   6.327   5.365 -0.2275 -0.0130 -0.4001
  190MOL0     C26087   3.846   6.241   5.420 -1.1882  0.6430 -0.2341
  190MOL0     C26088   3.803   6.128   5.347  0.0885 -0.0187 -0.2727
  190MOL0     C26089   3.839   6.117   5.209 -0.0514 -0.7017  0.5260
  190MOL0     O26090   3.776   6.024   5.122 -0.0343  0.2383 -0.8012
  190MOL0     C26091   3.675   5.929   5.164  0.1147 -0.1825 -0.8158
  190MOL0     C26092   3.595   5.899   5.042 -0.0741  0.1172  0.1132
  190MOL0     C26093   3.513   5.770   5.063  0.0520 -0.3515  0.4986
  190MOL0     C26094   3.447   5.732   4.925 -0.6091 -0.3317 -0.5358
  190MOL0     C26095   3.336   5.619   4.946 -0.3524  0.6200 -0.0403
  190MOL0     C26096   3.395   5.491   5.007  0.1637  0.5436 -0.4185
  190MOL0     C26097   3.319   5.372   4.958  0.1302 -0.3080 -0.6264
  190MOL0     C26098   3.335   5.256   5.060 -0.0747  0.0866 -0.4705
  190MOL0     N26099   3.472   5.211   5.036  0.0952  0.3698 -0.4919
  190MOL0     C26100   3.588   5.263   5.079 -0.6623 -0.0522 -0.5760
  190MOL0     C26101   3.688   5.185   5.029 -0.7963 -0.6072 -0.5166
  190MOL0     C26102   3.831   5.225   5.022  0.0325  0.0007 -0.3723
  190MOL0     C26103   3.850   5.337   4.913  0.2578 -0.2664 -0.3334
  190MOL0     C26104   3.831   5.306   4.769  0.5121  0.9450  0.3011
  190MOL0     C26105   3.851   5.428   4.677  0.0759  0.8572 -0.5287
  190MOL0     O26106   3.982   5.489   4.680  0.7197 -0.1138  1.2612
  190MOL0     C26107   4.092   5.426   4.630 -0.1905 -0.1352 -0.3083
  190MOL0     C26108   4.217   5.457   4.690 -0.1353 -0.4857  0.2665
  190MOL0     C26109   4.336   5.400   4.643  0.3422  0.3732 -0.2211
  190MOL0     C26110   4.460   5.448   4.711 -1.6223  0.2671  0.5046
  190MOL0     C26111   4.340   5.313   4.536 -0.4562  0.3214  0.5811
  190MOL0     C26112   4.464   5.258   4.492  0.5198 -0.4397 -0.1980
  190MOL0     O26113   4.492   5.130   4.525  0.1135  0.3509 -0.0495
  190MOL0     C26114   4.609   5.083   4.481 -0.7214  0.1635 -0.2409
  190MOL0     C26115   4.720   5.117   4.558  0.1224 -0.1274 -0.3138
  190MOL0     C26116   4.847   5.088   4.504  0.0310  0.2069 -0.3201
  190MOL0     C26117   4.860   5.002   4.388  0.1928  0.1201  0.2950
  190MOL0     O26118   4.980   4.960   4.349 -0.3796  0.7594  0.1139
  190MOL0     C26119   5.108   5.000   4.394  0.6121 -0.2126  0.2653
  190MOL0     C26120   5.216   4.931   4.298  0.2946 -0.1811  1.3107
  190MOL0     C26121   5.348   5.018   4.290  0.0532 -0.0187 -0.0467
  190MOL0     C26122   5.469   4.943   4.226 -0.7112 -0.2549 -0.5059
  190MOL0     C26123   5.588   5.041   4.205  0.1326 -0.3268  0.1055
  190MOL0     C26124   5.700   4.977   4.119  0.2526  0.0306 -0.0661
  190MOL0     C26125   5.833   5.044   4.120 -0.3115 -0.5657  0.3870
  190MOL0     C26126   5.927   5.002   4.010 -0.3076  0.7887  0.0076
  190MOL0    Cl26127   6.037   4.871   4.073  0.2672 -0.2272 -0.6720
  190MOL0     C26128   4.746   4.950   4.324  1.0418 -0.6269  0.4155
  190MOL0     C26129   4.615   4.994   4.371  0.5053 -0.1649 -0.4959
  190MOL0     O26130   4.533   5.335   4.426 -0.0036 -0.1510  1.0185
  190MOL0     C26131   4.217   5.284   4.472  0.0539  0.1145  0.1809
  190MOL0     C26132   4.093   5.333   4.524 -0.1536 -0.5934 -0.3516
  190MOL0     N26133   3.625   5.077   4.957 -0.1869 -0.3943 -0.7894
  190MOL0     N26134   3.492   5.092   4.968 -0.3730  0.6652 -0.0178
  190MOL0     C26135   3.933   6.201   5.153 -0.1596 -0.1575 -0.5732
  190MOL0     C26136   3.994   6.300   5.236 -0.3740 -0.0255 -0.1239
  190MOL0     C26137   4.156   6.538   5.570 -0.3770  0.6327  0.1042
  190MOL0     C26138   4.089   6.660   5.542 -0.1389 -0.4022  0.2014
  190MOL0     C26139   4.145   6.781   5.580  0.0754  0.5214 -1.0547
  190MOL0     C26140   4.270   6.793   5.640 -0.1258 -0.3402  0.2545
  190MOL0     O26141   4.339   6.905   5.685  0.9765  0.3521 -0.0214
  190MOL0     C26142   4.302   7.036   5.634 -0.1802  0.3264 -0.0253
  190MOL0     C26143   4.420   7.122   5.659  1.3626 -0.6031  0.3550
  190MOL0     C26144   4.417   7.260   5.588 -0.4210  0.9918 -0.6336
  190MOL0     C26145   4.523   7.356   5.650  0.8145  0.3922  0.4695
  190MOL0     C26146   4.557   7.475   5.574  0.0413 -0.5449  0.2754
  190MOL0     C26147   4.587   7.580   5.524  0.0575 -0.6612 -0.6656
  190MOL0     C26148   4.336   6.674   5.680 -0.2372  1.3168  0.7223
  190MOL0     C26149   4.279   6.545   5.640  0.1588  0.0963 -0.2388
  190MOL0     C26150   4.377   6.428   5.654  0.3147  0.2405  0.5947
  190MOL0     H26151   3.815   6.258   5.523 -3.5111 -0.7890 -0.6276
  190MOL0     H26152   3.749   6.049   5.397 -0.0867  0.4713  0.3174
  190MOL0     H26153   3.599   5.977   5.227  0.9337  0.8368 -0.5773
  190MOL0     H26154   3.717   5.837   5.206 -1.0799 -1.6835 -2.7399
  190MOL0     H26155   3.530   5.983   5.016 -0.4475  0.0776  0.8877
  190MOL0     H26156   3.671   5.882   4.966  0.9668  1.5830  0.7612
  190MOL0     H26157   3.577   5.695   5.109  2.4598  2.2423  1.6923
  190MOL0     H26158   3.429   5.793   5.129 -0.9139 -0.4925 -0.6397
  190MOL0     H26159   3.400   5.812   4.867  1.4124 -0.3147 -2.2649
  190MOL0     H26160   3.528   5.696   4.861 -0.0072 -1.7518  0.9598
  190MOL0     H26161   3.289   5.588   4.852 -0.2137 -0.5840  0.2671
  190MOL0     H26162   3.258   5.661   5.011 -2.6546 -1.2877 -1.4206
  190MOL0     H26163   3.496   5.478   4.968  0.3841  1.0013 -0.0071
  190MOL0     H26164   3.397   5.512   5.114 -2.9613  2.7877 -0.6666
  190MOL0     H26165   3.362   5.334   4.866  0.1833  0.3540 -0.8826
  190MOL0     H26166   3.212   5.393   4.942  0.5930  2.9352 -0.1389
  190MOL0     H26167   3.314   5.280   5.165 -0.5141  0.2857 -0.6022
  190MOL0     H26168   3.262   5.183   5.025  0.0448 -0.3046  0.0969
  190MOL0     H26169   3.594   5.356   5.133  1.5521 -0.8909  0.7719
  190MOL0     H26170   3.887   5.138   4.989 -1.9957 -1.2573 -0.6992
  190MOL0     H26171   3.863   5.275   5.114  0.6283 -0.4464 -0.3389
  190MOL0     H26172   3.776   5.416   4.928  1.0708  0.1097  2.1234
  190MOL0     H26173   3.953   5.373   4.916  0.5198 -0.9453 -0.8095
  190MOL0     H26174   3.905   5.228   4.752  0.3370  0.7004  0.6478
  190MOL0     H26175   3.726   5.278   4.758  0.5791  0.1296  1.5388
  190MOL0     H26176   3.824   5.403   4.574 -0.2955 -0.1206 -0.2079
  190MOL0     H26177   3.778   5.506   4.698  2.3275  2.9086  0.0300
  190MOL0     H26178   4.223   5.525   4.774 -4.8535 -0.5235  0.9092
  190MOL0     H26179   4.435   5.537   4.769 -3.4305 -0.4119  0.8145
  190MOL0     H26180   4.525   5.477   4.628 -2.1866  1.0588  0.3318
  190MOL0     H26181   4.516   5.380   4.775  0.4897  2.5995  1.3219
  190MOL0     H26182   4.704   5.172   4.650  1.4536 -1.7596  0.9599
  190MOL0     H26183   4.940   5.117   4.552  0.0227  0.3109 -0.3656
  190MOL0     H26184   5.113   5.108   4.378 -2.2592 -0.1144 -0.4898
  190MOL0     H26185   5.104   4.970   4.499  0.4518 -2.7446 -0.4141
  190MOL0     H26186   5.249   4.835   4.340  0.9558  0.1396  1.5435
  190MOL0     H26187   5.185   4.925   4.194  0.9660 -0.1195  1.1057
  190MOL0     H26188   5.373   5.052   4.391 -1.2761  1.8328 -0.2847
  190MOL0     H26189   5.319   5.107   4.233  1.2944  0.2353 -0.2971
  190MOL0     H26190   5.440   4.908   4.127  1.9296 -4.7757  0.0699
  190MOL0     H26191   5.506   4.856   4.280  1.9979  0.5400 -0.8949
  190MOL0     H26192   5.548   5.126   4.149  0.0916  0.3508  1.1513
  190MOL0     H26193   5.625   5.069   4.304 -0.3647  0.4131  0.0853
  190MOL0     H26194   5.656   4.984   4.019 -0.4703  1.0089  0.3016
  190MOL0     H26195   5.716   4.873   4.149 -2.0609 -0.3654 -0.0280
  190MOL0     H26196   5.887   5.020   4.213  3.5117 -2.6692 -2.0802
  190MOL0     H26197   5.803   5.149   4.118  1.7204  0.0931  1.2519
  190MOL0     H26198   5.987   5.086   3.975  0.7171  0.4226  0.8215
  190MOL0     H26199   5.865   4.962   3.929  0.6087  1.3694 -0.9966
  190MOL0     H26200   4.749   4.869   4.252 -2.2698  0.5405 -1.2672
  190MOL0     H26201   4.522   4.969   4.321 -0.2624  0.7600  0.4299
  190MOL0     H26202   4.199   5.209   4.396 -2.6539  0.2384  0.5796
  190MOL0     H26203   4.009   5.295   4.466 -0.1343 -1.2150  0.0129
  190MOL0     H26204   3.964   6.179   5.051  1.3320 -0.2029 -0.1287
  190MOL0     H26205   4.080   6.347   5.188 -0.1630 -0.7155 -0.4221
  190MOL0     H26206   3.988   6.662   5.504  0.3320 -1.3876 -1.1679
  190MOL0     H26207   4.088   6.868   5.547  1.2633  1.1732 -1.4388
  190MOL0     H26208   4.283   7.028   5.527 -1.8453  1.8657  0.0986
  190MOL0     H26209   4.220   7.064   5.701  1.6216 -0.9497  2.9309
  190MOL0     H26210   4.517   7.075   5.640  1.3381 -1.4420  2.0551
  190MOL0     H26211   4.424   7.136   5.768  0.8575  2.5209  0.0618
  190MOL0     H26212   4.430   7.249   5.480  4.3822  0.2713 -0.2047
  190MOL0     H26213   4.319   7.300   5.615 -0.3692  0.5709  0.2100
  190MOL0     H26214   4.613   7.301   5.679  0.2322  0.5548  2.7692
  190MOL0     H26215   4.468   7.390   5.739  0.4397  0.3058  0.2720
  190MOL0     H26216   4.596   7.681   5.490  1.3764 -0.9894 -1.3873
  190MOL0     H26217   4.433   6.671   5.727 -0.1610  0.2523  0.5301
  190MOL0     H26218   4.466   6.458   5.709  0.5514 -0.4895  0.6213
  190MOL0     H26219   4.333   6.337   5.697  0.1576  0.7978  1.6324
  190MOL0     H26220   4.426   6.411   5.558  0.2866  0.1536  0.5956
  191MOL0     O26221  10.549   3.494   3.439 -0.0344 -0.0789 -0.2920
  191MOL0     C26222  10.520   3.464   3.324  0.5924  0.7766  0.5272
  191MOL0     O26223  10.416   3.385   3.281  0.2830 -0.0226 -0.7208
  191MOL0     C26224  10.337   3.340   3.385  0.2975 -0.7741  0.0640
  191MOL0     C26225  10.394   3.273   3.499 -0.4178  0.0347  0.3321
  191MOL0     C26226  10.318   3.214   3.591  0.6520  0.1014 -0.8513
  191MOL0     C26227  10.176   3.240   3.587 -0.8433  0.2363 -0.4639
  191MOL0     O26228  10.098   3.215   3.694 -0.0518 -0.0064 -0.7352
  191MOL0     C26229  10.158   3.147   3.805 -0.5532 -0.0446  0.0641
  191MOL0     C26230  10.037   3.096   3.891  0.0223  0.7792  0.1477
  191MOL0     C26231   9.984   2.971   3.822 -0.0072 -0.3452 -0.1997
  191MOL0     C26232   9.840   2.947   3.850  0.7944  0.2879 -0.0406
  191MOL0     C26233   9.797   2.796   3.840  0.4004 -0.5093 -0.2709
  191MOL0     C26234   9.640   2.769   3.868  0.2395  0.1608  0.4408
  191MOL0     C26235   9.622   2.648   3.962  0.0541  0.0565  0.7758
  191MOL0     C26236   9.476   2.591   3.975 -0.3618 -0.8290 -0.3306
  191MOL0     N26237   9.471   2.507   4.093  0.4435  0.3640  0.0721
  191MOL0     C26238   9.534   2.386   4.104 -0.2443 -0.0353  0.4904
  191MOL0     C26239   9.514   2.349   4.231 -0.0411 -0.6990 -0.1370
  191MOL0     C26240   9.581   2.236   4.304 -0.2212 -0.2326  0.3471
  191MOL0     C26241   9.717   2.293   4.351 -0.0105 -0.3540 -0.3572
  191MOL0     C26242   9.797   2.181   4.421 -0.4580  0.2949  0.2372
  191MOL0     C26243   9.925   2.255   4.458  0.4595 -1.4132  0.0024
  191MOL0     O26244  10.014   2.162   4.506 -0.7709  0.7777 -0.2630
  191MOL0     C26245  10.149   2.197   4.538 -0.1873 -0.5438  0.1235
  191MOL0     C26246  10.241   2.096   4.547 -0.0704  0.3564 -0.4551
  191MOL0     C26247  10.376   2.122   4.563  0.2529  0.3043 -0.2268
  191MOL0     C26248  10.478   2.011   4.573  0.9594  0.9503 -0.2572
  191MOL0     C26249  10.423   2.259   4.562  0.0829  0.3875 -0.2585
  191MOL0     C26250  10.560   2.313   4.576 -0.0424 -0.1641 -0.0303
  191MOL0     O26251  10.644   2.233   4.644  0.1538 -0.5937  0.2176
  191MOL0     C26252  10.778   2.244   4.631 -0.2298  0.0891  0.4842
  191MOL0     C26253  10.858   2.220   4.746  0.5233  0.2573 -0.2037
  191MOL0     C26254  10.990   2.188   4.729 -0.2257  0.7999 -0.3194
  191MOL0     C26255  11.056   2.188   4.608  0.2041 -0.6089  0.3571
  191MOL0     O26256  11.188   2.167   4.610 -0.6825  0.0927  0.5056
  191MOL0     C26257  11.238   2.104   4.489 -0.4743 -0.2836  0.8481
  191MOL0     C26258  11.368   2.039   4.509  0.6284 -0.1895 -0.3229
  191MOL0     C26259  11.408   1.974   4.379 -0.2952  1.0235  0.0595
  191MOL0     C26260  11.539   1.892   4.396  0.2608  0.2750  0.2271
  191MOL0     C26261  11.566   1.790   4.284 -0.7830  0.6764  0.2078
  191MOL0     C26262  11.540   1.647   4.329 -0.0205 -0.5489  0.2789
  191MOL0     C26263  11.586   1.544   4.231  0.4673  0.3665 -0.6885
  191MOL0     C26264  11.559   1.390   4.260 -0.6103 -0.1872  0.3267
  191MOL0    Cl26265  11.639   1.315   4.126  0.1653  0.3876 -0.0623
  191MOL0     C26266  10.979   2.227   4.494 -0.2085 -0.2727  0.1219
  191MOL0     C26267  10.845   2.257   4.502 -0.1899 -0.3035 -0.3075
  191MOL0     O26268  10.584   2.415   4.522  0.0594 -0.7802 -0.1951
  191MOL0     C26269  10.330   2.361   4.542 -0.5139 -1.3299 -0.0206
  191MOL0     C26270  10.194   2.328   4.542  1.1781 -0.3823  0.0724
  191MOL0     N26271   9.411   2.431   4.281 -0.7596 -0.4025  0.1940
  191MOL0     N26272   9.402   2.537   4.209 -0.0494 -0.0838  0.0349
  191MOL0     C26273  10.117   3.302   3.478 -0.1566 -0.1363  0.0223
  191MOL0     C26274  10.195   3.343   3.377 -0.2215  0.3882  0.5152
  191MOL0     C26275  10.613   3.525   3.225 -0.4979  0.5929 -0.0650
  191MOL0     C26276  10.736   3.547   3.260 -0.1667 -0.2415 -0.4016
  191MOL0     C26277  10.831   3.622   3.188 -0.1123  0.6111  1.0274
  191MOL0     C26278  10.794   3.677   3.062 -0.6404 -0.1123 -0.7184
  191MOL0     O26279  10.873   3.739   2.974 -0.2916 -0.2992 -0.5718
  191MOL0     C26280  11.010   3.749   2.997  0.1203  0.2938  0.3608
  191MOL0     C26281  11.080   3.815   2.873 -0.2893 -0.0614  0.0744
  191MOL0     C26282  11.038   3.749   2.746 -0.1245  0.6534  0.1367
  191MOL0     C26283  11.121   3.796   2.625 -0.2501  0.6528 -0.4304
  191MOL0     C26284  11.268   3.816   2.643 -0.3161 -1.0149  0.1881
  191MOL0     C26285  11.388   3.821   2.657  0.0835 -0.1478 -0.0251
  191MOL0     C26286  10.661   3.646   3.024 -0.0038  0.2450  0.0478
  191MOL0     C26287  10.569   3.569   3.097  0.0404 -0.0727  1.0138
  191MOL0     C26288  10.427   3.559   3.034  0.1845 -0.2749  0.1022
  191MOL0     H26289  10.502   3.283   3.509 -0.5972  0.3357  2.3758
  191MOL0     H26290  10.374   3.172   3.674 -0.9424 -4.0799 -1.6289
  191MOL0     H26291  10.220   3.213   3.867 -1.0855  0.5086  0.0206
  191MOL0     H26292  10.218   3.062   3.771  1.2327  1.1342  0.1424
  191MOL0     H26293  10.065   3.078   3.995 -0.7432 -0.4664  0.1558
  191MOL0     H26294   9.954   3.167   3.882  0.4973  1.2674 -0.5739
  191MOL0     H26295   9.987   2.957   3.713 -4.7846 -2.5663 -0.3135
  191MOL0     H26296  10.042   2.886   3.859 -1.4776 -1.6234 -0.7006
  191MOL0     H26297   9.810   2.982   3.949  0.3440 -2.5640  0.9403
  191MOL0     H26298   9.794   3.011   3.774  3.6710  2.2596 -0.2644
  191MOL0     H26299   9.849   2.742   3.920  2.9788 -0.7338 -1.9859
  191MOL0     H26300   9.831   2.761   3.743  1.4187 -0.2271 -0.0292
  191MOL0     H26301   9.603   2.863   3.911  0.5135  1.0095 -1.0925
  191MOL0     H26302   9.584   2.745   3.778  1.1770 -1.7570  0.3217
  191MOL0     H26303   9.652   2.684   4.061  3.7273  0.7786 -0.4267
  191MOL0     H26304   9.695   2.567   3.949  1.6513  1.3898  1.0688
  191MOL0     H26305   9.417   2.683   3.975  2.2907  1.0084  2.2715
  191MOL0     H26306   9.445   2.533   3.887  0.9816 -1.3358 -0.4894
  191MOL0     H26307   9.603   2.345   4.031  2.2092  4.2330  0.0687
  191MOL0     H26308   9.595   2.160   4.226 -0.2567  0.6695 -0.5688
  191MOL0     H26309   9.524   2.204   4.392  0.3747 -0.6687  0.5793
  191MOL0     H26310   9.766   2.328   4.260 -0.4065 -0.7508 -0.7278
  191MOL0     H26311   9.706   2.374   4.424  0.5300 -0.9253  0.3784
  191MOL0     H26312   9.741   2.136   4.504  0.6915 -1.6596  0.0254
  191MOL0     H26313   9.832   2.099   4.357 -0.3550 -0.7573  1.5833
  191MOL0     H26314   9.972   2.307   4.375  1.0206 -1.0774  0.5248
  191MOL0     H26315   9.899   2.325   4.538 -2.1929 -1.0926 -1.0445
  191MOL0     H26316  10.202   1.997   4.567 -1.9117  1.5641  2.7308
  191MOL0     H26317  10.514   2.005   4.676 -1.2002 -0.4458  0.4724
  191MOL0     H26318  10.563   2.028   4.505  0.9904 -1.1663 -0.8096
  191MOL0     H26319  10.442   1.914   4.538 -0.7510  2.1864 -2.1812
  191MOL0     H26320  10.813   2.211   4.844  0.7337  1.0039 -0.0327
  191MOL0     H26321  11.047   2.182   4.821  1.0951 -0.0294 -1.1594
  191MOL0     H26322  11.178   2.019   4.457  2.6906 -2.7719  1.0105
  191MOL0     H26323  11.251   2.180   4.411 -0.3961 -2.5536 -1.4816
  191MOL0     H26324  11.440   2.108   4.555  0.9180  0.1653 -1.2852
  191MOL0     H26325  11.355   1.962   4.586 -3.6171  1.4128  0.8700
  191MOL0     H26326  11.413   2.053   4.303 -0.7636 -0.4728 -1.5945
  191MOL0     H26327  11.337   1.901   4.341  3.4021 -1.7671 -2.1750
  191MOL0     H26328  11.527   1.830   4.486 -1.8523  0.6012  0.2229
  191MOL0     H26329  11.626   1.954   4.417  0.4084 -0.2981  1.3979
  191MOL0     H26330  11.506   1.810   4.195  1.6008  0.0306 -1.6302
  191MOL0     H26331  11.674   1.791   4.266 -0.2913  0.1475  2.6924
  191MOL0     H26332  11.431   1.643   4.341 -0.4796  2.1416 -1.9145
  191MOL0     H26333  11.589   1.625   4.424  1.9974  0.0930 -0.5687
  191MOL0     H26334  11.695   1.556   4.233  0.8780 -2.7042  0.1190
  191MOL0     H26335  11.545   1.553   4.130  0.9762 -0.3190 -0.9618
  191MOL0     H26336  11.452   1.368   4.252 -0.5354 -0.7211  0.6986
  191MOL0     H26337  11.605   1.368   4.356  0.0586  2.4355  0.6822
  191MOL0     H26338  11.026   2.238   4.397  0.0435 -0.0058  0.2728
  191MOL0     H26339  10.782   2.262   4.414 -1.0444 -0.7860  0.2578
  191MOL0     H26340  10.336   2.470   4.545 -0.9554 -1.1167 -3.2630
  191MOL0     H26341  10.126   2.411   4.526 -1.2689 -2.2813 -0.0374
  191MOL0     H26342  10.011   3.324   3.483 -0.0172  0.3674  3.5343
  191MOL0     H26343  10.143   3.388   3.293  1.8483 -0.2373 -1.1765
  191MOL0     H26344  10.776   3.507   3.352  2.4386  2.0540 -0.4277
  191MOL0     H26345  10.932   3.636   3.224  0.6366 -0.2722 -0.6622
  191MOL0     H26346  11.011   3.826   3.075  0.2063  1.1600 -0.4837
  191MOL0     H26347  11.046   3.658   3.045 -0.2088 -1.7541 -2.9779
  191MOL0     H26348  11.184   3.801   2.902 -1.0472 -0.2979  2.9168
  191MOL0     H26349  11.047   3.919   2.868 -0.5315 -0.1818 -1.5911
  191MOL0     H26350  11.077   3.648   2.761  2.4544  1.3459 -1.1646
  191MOL0     H26351  10.930   3.749   2.735 -0.4398 -0.8794  2.4386
  191MOL0     H26352  11.061   3.879   2.586 -3.0480 -0.8131  0.4412
  191MOL0     H26353  11.116   3.720   2.547  1.0153  0.2331 -0.1159
  191MOL0     H26354  11.493   3.840   2.666 -0.3626  2.4381  0.6359
  191MOL0     H26355  10.619   3.694   2.936  0.4952  1.4607  0.4498
  191MOL0     H26356  10.346   3.597   3.097 -0.5350  0.3681 -1.1642
  191MOL0     H26357  10.413   3.623   2.947 -0.3209  0.5197  0.7496
  191MOL0     H26358  10.411   3.455   3.007 -3.9639  0.1858  0.1489
  192MOL0     O26359  10.631   3.567   1.537 -0.0682  0.2789  0.1470
  192MOL0     C26360  10.605   3.468   1.468 -0.4681  0.2648  0.0928
  192MOL0     O26361  10.698   3.406   1.393  0.6798  0.5434  0.9011
  192MOL0     C26362  10.837   3.428   1.420 -0.0578 -0.1062  0.8707
  192MOL0     C26363  10.925   3.447   1.304  0.4191  0.0063 -0.5028
  192MOL0     C26364  11.065   3.464   1.327 -0.5523  0.1199  0.5415
  192MOL0     C26365  11.126   3.438   1.453  0.0470 -0.0447 -0.7616
  192MOL0     O26366  11.260   3.454   1.481 -0.1120 -0.6861 -0.1949
  192MOL0     C26367  11.342   3.393   1.381  0.2507  0.8099  0.1949
  192MOL0     C26368  11.498   3.377   1.414  0.4673  0.0961  0.4460
  192MOL0     C26369  11.561   3.514   1.412  0.0582 -0.1389  0.0562
  192MOL0     C26370  11.677   3.511   1.499 -0.3255  0.8432  0.2995
  192MOL0     C26371  11.756   3.646   1.490 -0.7747  0.0935  0.0513
  192MOL0     C26372  11.873   3.656   1.585  0.1050 -0.2403  0.5556
  192MOL0     C26373  11.934   3.795   1.573  0.0375 -0.6036  0.3526
  192MOL0     C26374  12.053   3.816   1.674  0.6127 -0.5285 -0.0755
  192MOL0     N26375  12.092   3.948   1.717 -0.1258 -0.4369  0.4619
  192MOL0     C26376  12.007   4.052   1.753 -0.1425 -0.0693  0.1120
  192MOL0     C26377  12.088   4.158   1.776  0.2384 -0.1569 -0.0771
  192MOL0     C26378  12.053   4.297   1.829 -0.6733  0.0229  0.2347
  192MOL0     C26379  12.137   4.408   1.770 -0.0993  0.6492  0.3839
  192MOL0     C26380  12.133   4.538   1.849  0.3698 -0.7290  0.5647
  192MOL0     C26381  12.195   4.656   1.766  0.3199  0.3205  0.3592
  192MOL0     O26382  12.329   4.636   1.725 -0.1370 -0.6869 -0.7827
  192MOL0     C26383  12.409   4.738   1.678 -0.4212 -0.9926  0.1684
  192MOL0     C26384  12.368   4.853   1.619 -0.5682  1.4459 -0.1735
  192MOL0     C26385  12.463   4.947   1.572  0.0292  0.2218 -0.2837
  192MOL0     C26386  12.411   5.074   1.513 -0.4425 -0.1192 -0.1519
  192MOL0     C26387  12.606   4.927   1.595 -0.2097  0.8941 -1.2441
  192MOL0     C26388  12.717   5.022   1.571 -0.3524 -0.1357 -0.8164
  192MOL0     O26389  12.828   5.019   1.657  0.0237 -0.3511  0.2268
  192MOL0     C26390  12.933   5.090   1.624  0.0102 -0.8021 -0.1563
  192MOL0     C26391  12.938   5.229   1.667  0.5988  0.6214  0.2482
  192MOL0     C26392  13.046   5.303   1.621  0.8508 -0.2180 -0.0793
  192MOL0     C26393  13.142   5.267   1.532 -0.9015 -0.0951  0.0007
  192MOL0     O26394  13.236   5.367   1.491  0.1949 -0.5317  0.0276
  192MOL0     C26395  13.312   5.335   1.372 -1.2752  0.1354 -0.1779
  192MOL0     C26396  13.412   5.443   1.341 -0.1294 -0.7263  0.8934
  192MOL0     C26397  13.499   5.440   1.216 -0.3215 -0.4467  0.1222
  192MOL0     C26398  13.580   5.561   1.201  0.3310  0.5003 -0.1064
  192MOL0     C26399  13.650   5.549   1.060  0.3281 -0.0360 -0.8675
  192MOL0     C26400  13.767   5.655   1.051  1.0307  0.7841 -0.5141
  192MOL0     C26401  13.839   5.632   0.923  0.6048 -0.6646 -0.3330
  192MOL0     C26402  13.971   5.698   0.931 -0.3161 -0.1997 -0.4869
  192MOL0    Cl26403  13.957   5.874   0.958 -0.2437  0.0250  0.0522
  192MOL0     C26404  13.131   5.139   1.481 -0.3308 -0.0805 -0.6829
  192MOL0     C26405  13.029   5.053   1.532  0.0376 -0.4734  0.3351
  192MOL0     O26406  12.697   5.105   1.481  0.9700  0.9157 -0.2451
  192MOL0     C26407  12.639   4.815   1.669  0.1307 -0.0616  0.3596
  192MOL0     C26408  12.543   4.706   1.692 -0.2387  0.3787  0.2523
  192MOL0     N26409  12.216   4.114   1.742  0.3448  0.4952  0.5680
  192MOL0     N26410  12.215   3.995   1.706  0.2875  0.0247  0.8998
  192MOL0     C26411  11.035   3.412   1.558 -0.4364 -0.3557  0.6655
  192MOL0     C26412  10.898   3.410   1.544 -0.4393 -0.4951  0.1734
  192MOL0     C26413  10.468   3.413   1.465  0.6698  0.1924  0.1406
  192MOL0     C26414  10.441   3.292   1.390 -0.7063  0.2110  0.2754
  192MOL0     C26415  10.309   3.245   1.364  0.4839 -0.1232  0.6112
  192MOL0     C26416  10.205   3.307   1.428 -0.0680  1.0025  0.7030
  192MOL0     O26417  10.072   3.274   1.419  0.5228  0.2924 -0.1937
  192MOL0     C26418  10.023   3.194   1.312  0.1462 -0.0453 -0.8626
  192MOL0     C26419   9.949   3.081   1.372 -0.2559 -1.0317  0.3845
  192MOL0     C26420  10.042   2.960   1.385  0.1403  0.3331 -0.1350
  192MOL0     C26421   9.958   2.826   1.387  1.0332  0.2272  0.3129
  192MOL0     C26422   9.840   2.824   1.476 -0.3095 -0.5090  0.1557
  192MOL0     C26423   9.743   2.830   1.542  0.7520 -0.5156 -0.4484
  192MOL0     C26424  10.233   3.417   1.509 -0.2181 -0.1311  0.6081
  192MOL0     C26425  10.353   3.476   1.519 -0.0229  0.2319 -0.8459
  192MOL0     C26426  10.352   3.590   1.621  0.1406 -0.4706  0.4605
  192MOL0     H26427  10.890   3.445   1.201 -0.1636 -1.0113 -0.3014
  192MOL0     H26428  11.135   3.490   1.247  1.8014 -2.2134  1.6732
  192MOL0     H26429  11.322   3.453   1.292 -2.0571  0.1926  0.2287
  192MOL0     H26430  11.297   3.294   1.367  0.6058  0.3884  1.7790
  192MOL0     H26431  11.514   3.324   1.509  1.4072 -0.4966 -0.0308
  192MOL0     H26432  11.538   3.320   1.330  2.3332  1.5455  0.2836
  192MOL0     H26433  11.578   3.544   1.308 -0.6675  0.4040  0.0808
  192MOL0     H26434  11.495   3.588   1.458 -2.3539 -1.1173 -1.5978
  192MOL0     H26435  11.653   3.488   1.603 -2.1261  1.5755  0.0683
  192MOL0     H26436  11.734   3.423   1.466  0.8916  1.9709 -0.7512
  192MOL0     H26437  11.680   3.722   1.512 -0.8590  0.1102 -0.2923
  192MOL0     H26438  11.795   3.657   1.388  0.1608 -2.3230  0.0797
  192MOL0     H26439  11.852   3.639   1.691  3.1565  0.3504  1.3619
  192MOL0     H26440  11.950   3.578   1.573  0.1266 -0.6134  2.6491
  192MOL0     H26441  11.849   3.863   1.584 -0.7518 -1.2614 -1.4827
  192MOL0     H26442  11.966   3.804   1.469 -2.4374  0.1916 -0.4011
  192MOL0     H26443  12.040   3.746   1.758 -1.3207 -0.7094 -0.4928
  192MOL0     H26444  12.140   3.778   1.619  1.3345  0.9993 -0.0277
  192MOL0     H26445  11.901   4.049   1.776 -0.0057 -0.9225  0.6980
  192MOL0     H26446  12.058   4.296   1.938  0.4485  0.0690  0.1919
  192MOL0     H26447  11.952   4.313   1.789  0.0416  0.2088 -1.6155
  192MOL0     H26448  12.241   4.373   1.772 -0.5275 -0.6483  1.0825
  192MOL0     H26449  12.110   4.419   1.665  1.1894  1.4241  0.1045
  192MOL0     H26450  12.030   4.562   1.875  0.5187  2.0805 -1.1092
  192MOL0     H26451  12.185   4.523   1.944  0.0469  0.0977  0.8796
  192MOL0     H26452  12.136   4.668   1.674  1.5772 -0.9145 -0.6607
  192MOL0     H26453  12.189   4.749   1.824 -1.6983  1.5605 -1.6319
  192MOL0     H26454  12.261   4.867   1.612 -1.1087 -0.7529  2.2212
  192MOL0     H26455  12.412   5.147   1.594 -0.1106  0.2133 -0.4540
  192MOL0     H26456  12.305   5.076   1.485 -0.3866  0.4973 -0.3228
  192MOL0     H26457  12.467   5.105   1.424 -2.1881 -0.1030 -1.2969
  192MOL0     H26458  12.863   5.258   1.740 -1.6143 -0.7234 -1.3401
  192MOL0     H26459  13.060   5.403   1.661  0.1841  0.5465 -1.6381
  192MOL0     H26460  13.382   5.252   1.390 -0.2115  1.2833  1.1835
  192MOL0     H26461  13.251   5.304   1.286  1.4705 -4.8072 -0.7660
  192MOL0     H26462  13.359   5.539   1.341  0.6220 -0.2715 -0.8223
  192MOL0     H26463  13.478   5.451   1.428 -0.5352 -0.6775  1.2014
  192MOL0     H26464  13.442   5.429   1.123  3.7084 -1.6950 -2.4452
  192MOL0     H26465  13.566   5.355   1.232  0.9952  0.7678  1.2537
  192MOL0     H26466  13.654   5.573   1.281 -1.0117  1.3945  1.0390
  192MOL0     H26467  13.518   5.651   1.195  0.5793  1.1671  4.0899
  192MOL0     H26468  13.690   5.448   1.053  1.0575  0.0896  0.8466
  192MOL0     H26469  13.574   5.560   0.983  0.0697  1.5674 -0.4326
  192MOL0     H26470  13.832   5.633   1.136  0.6026 -1.7310 -0.7597
  192MOL0     H26471  13.714   5.750   1.058 -0.9571 -0.3882  3.9821
  192MOL0     H26472  13.784   5.672   0.837  0.9562  0.3442 -0.1000
  192MOL0     H26473  13.834   5.523   0.914 -0.5805 -0.4561 -3.8282
  192MOL0     H26474  14.029   5.681   0.839 -0.2393  1.5767 -0.7939
  192MOL0     H26475  14.029   5.652   1.011 -1.3868  1.0572  1.0484
  192MOL0     H26476  13.213   5.104   1.419  0.6332  1.4124 -0.3091
  192MOL0     H26477  13.006   4.966   1.471 -1.4062  0.5420 -0.6067
  192MOL0     H26478  12.743   4.785   1.678  0.6951  0.7377 -2.5056
  192MOL0     H26479  12.587   4.614   1.729  5.2492  2.0348 -1.1514
  192MOL0     H26480  11.089   3.398   1.652  2.0451 -0.6746 -0.7069
  192MOL0     H26481  10.830   3.407   1.629 -1.7699 -2.2818 -0.8809
  192MOL0     H26482  10.527   3.244   1.345  1.1768  1.6035  2.1837
  192MOL0     H26483  10.284   3.151   1.316 -0.3327  0.6826 -0.5879
  192MOL0     H26484   9.953   3.261   1.262 -0.1771  0.0720 -0.2666
  192MOL0     H26485  10.094   3.154   1.240  1.6770  2.5624 -0.9072
  192MOL0     H26486   9.873   3.057   1.297  0.9780  0.7262 -1.5359
  192MOL0     H26487   9.891   3.106   1.461 -1.8790  0.1094 -0.9202
  192MOL0     H26488  10.110   2.942   1.302  1.1444 -1.0583  0.9505
  192MOL0     H26489  10.110   2.970   1.470 -0.2813 -0.5239  0.3137
  192MOL0     H26490  10.016   2.738   1.413 -0.5038 -0.3126  2.1986
  192MOL0     H26491   9.918   2.815   1.286  0.0709 -1.3954  0.8278
  192MOL0     H26492   9.647   2.841   1.590  0.2281  0.2129 -1.6210
  192MOL0     H26493  10.158   3.456   1.577  1.7032  0.4416  2.5234
  192MOL0     H26494  10.387   3.564   1.721 -0.0059  3.3135  1.6291
  192MOL0     H26495  10.409   3.680   1.596 -2.4191  1.1804  0.1746
  192MOL0     H26496  10.251   3.628   1.637 -0.5772 -2.8537  2.1033
  193MOL0     O26497   5.815   5.053  10.325  0.0831 -0.7715 -0.1892
  193MOL0     C26498   5.839   5.049  10.449  0.1174  0.0774  0.8684
  193MOL0     O26499   5.942   4.980  10.505 -0.6416  0.6515 -0.2680
  193MOL0     C26500   6.034   4.896  10.437 -0.1168  0.5048  0.1914
  193MOL0     C26501   6.033   4.856  10.300  0.4803  0.6333  0.2212
  193MOL0     C26502   6.143   4.790  10.241 -1.1342 -0.2182 -0.4740
  193MOL0     C26503   6.246   4.735  10.326 -0.2576  0.3279 -0.8758
  193MOL0     O26504   6.337   4.647  10.273 -0.4833  0.0061 -0.7059
  193MOL0     C26505   6.452   4.608  10.346  0.1546  0.4358 -0.6435
  193MOL0     C26506   6.539   4.515  10.263 -0.3723  0.9387  0.4138
  193MOL0     C26507   6.671   4.508  10.334  0.3799  0.6228  0.1684
  193MOL0     C26508   6.764   4.406  10.262 -0.7522 -1.2203  0.7093
  193MOL0     C26509   6.824   4.453  10.117  0.0370 -0.0048 -1.0127
  193MOL0     C26510   6.885   4.336  10.041 -0.3476 -0.4231 -0.1644
  193MOL0     C26511   6.994   4.260  10.120 -0.0982 -0.6954  0.1755
  193MOL0     C26512   7.117   4.345  10.154 -0.2500  0.1394 -0.8673
  193MOL0     N26513   7.214   4.243  10.201 -0.3475  0.0650 -0.0066
  193MOL0     C26514   7.286   4.179  10.110  0.2718  0.6076 -0.4044
  193MOL0     C26515   7.385   4.117  10.178 -0.9988  0.1095  0.4222
  193MOL0     C26516   7.490   4.019  10.127  0.8191  0.3715  0.5150
  193MOL0     C26517   7.631   4.066  10.164 -0.6855  0.4445 -0.4327
  193MOL0     C26518   7.751   3.967  10.152 -0.0265  0.3963 -0.0809
  193MOL0     C26519   7.879   4.037  10.186  0.1478 -0.4217 -0.3282
  193MOL0     O26520   7.977   3.926  10.181 -0.1833 -0.0802 -0.1337
  193MOL0     C26521   8.084   3.940  10.260 -0.4551 -0.1579 -0.7568
  193MOL0     C26522   8.104   4.022  10.382 -0.8994  0.7169  0.3846
  193MOL0     C26523   8.226   4.013  10.459  0.4719  0.1243 -0.9828
  193MOL0     C26524   8.234   4.101  10.581  0.1556 -0.0158  0.1678
  193MOL0     C26525   8.330   3.922  10.422 -1.0918  0.1276  0.1955
  193MOL0     C26526   8.453   3.898  10.491 -0.4362 -0.2693 -1.3957
  193MOL0     O26527   8.524   4.007  10.550  0.3041  0.1139 -0.4930
  193MOL0     C26528   8.645   3.989  10.608  0.4957 -0.4286 -0.4583
  193MOL0     C26529   8.764   3.939  10.548  0.3803  1.3057  0.6222
  193MOL0     C26530   8.882   3.908  10.619  1.1815 -0.0734  0.0880
  193MOL0     C26531   8.889   3.928  10.755 -0.1485 -0.0091  0.1241
  193MOL0     O26532   8.998   3.894  10.822  0.3927  0.6951 -0.2233
  193MOL0     C26533   9.116   3.977  10.806  0.6261 -0.2747 -0.4625
  193MOL0     C26534   9.213   3.912  10.712 -0.1176  1.3871  0.1738
  193MOL0     C26535   9.357   3.980  10.698 -0.1137 -0.1521 -0.3223
  193MOL0     C26536   9.342   4.125  10.639  0.0156 -0.3348  0.0799
  193MOL0     C26537   9.463   4.189  10.578  0.2629 -0.0837 -0.1323
  193MOL0     C26538   9.504   4.317  10.645  0.0470 -0.2048  0.4810
  193MOL0     C26539   9.545   4.310  10.791 -0.0634 -0.0228 -0.7741
  193MOL0     C26540   9.619   4.439  10.825 -0.2161  0.0085 -0.4031
  193MOL0    Cl26541   9.642   4.425  11.002  0.0455  0.2834  0.3545
  193MOL0     C26542   8.772   3.976  10.815 -1.0615 -0.3648 -0.2942
  193MOL0     C26543   8.656   4.012  10.744  0.0985 -0.1997  0.6915
  193MOL0     O26544   8.485   3.781  10.503 -0.1660  0.3763 -0.0303
  193MOL0     C26545   8.307   3.840  10.309 -0.8546 -1.2552  0.3000
  193MOL0     C26546   8.189   3.854  10.227  0.2946 -0.3897 -0.4657
  193MOL0     N26547   7.360   4.140  10.310 -0.5376  0.5049 -0.8662
  193MOL0     N26548   7.261   4.215  10.327  0.2387  0.8166 -0.2225
  193MOL0     C26549   6.239   4.764  10.467  0.9341 -0.6251 -0.6216
  193MOL0     C26550   6.142   4.852  10.512  0.4734 -0.0105 -0.5227
  193MOL0     C26551   5.753   5.125  10.540 -0.0772  0.0059  0.1020
  193MOL0     C26552   5.810   5.182  10.648  0.5634 -0.1711  0.3953
  193MOL0     C26553   5.743   5.256  10.741 -0.1481  0.5835  0.1727
  193MOL0     C26554   5.603   5.252  10.726 -0.4188 -0.5567 -0.0135
  193MOL0     O26555   5.511   5.300  10.821  0.5771  1.0363  0.5356
  193MOL0     C26556   5.535   5.260  10.948 -0.5262 -0.2268 -0.3554
  193MOL0     C26557   5.407   5.276  11.029 -0.4180 -0.4395  0.5275
  193MOL0     C26558   5.288   5.200  10.966 -0.1387 -0.2878 -0.1419
  193MOL0     C26559   5.163   5.222  11.065 -0.1522  0.0587 -0.6758
  193MOL0     C26560   5.034   5.197  11.000  0.7917  0.8601 -0.3573
  193MOL0     C26561   4.925   5.174  10.949 -0.5089 -0.0706  0.0511
  193MOL0     C26562   5.544   5.198  10.608  0.2349  0.5659  0.3279
  193MOL0     C26563   5.617   5.132  10.515  0.6653 -0.0332 -0.3965
  193MOL0     C26564   5.541   5.074  10.402  0.4767  0.4780 -0.1432
  193MOL0     H26565   5.951   4.876  10.231  0.6261 -2.3271 -0.9679
  193MOL0     H26566   6.134   4.765  10.135  2.0093 -1.6856 -0.5184
  193MOL0     H26567   6.441   4.562  10.445  2.0299 -0.0562 -0.6246
  193MOL0     H26568   6.509   4.701  10.349  1.9223 -0.5635 -1.3652
  193MOL0     H26569   6.503   4.412  10.258  2.0198  0.0741 -2.6308
  193MOL0     H26570   6.562   4.547  10.160  0.4562 -1.3930 -0.1883
  193MOL0     H26571   6.711   4.609  10.324  0.1060  0.6099 -1.3675
  193MOL0     H26572   6.655   4.482  10.439  1.0684 -0.0039  0.1300
  193MOL0     H26573   6.851   4.402  10.328  0.6048  3.5705 -0.4119
  193MOL0     H26574   6.724   4.305  10.253 -0.8443 -0.9828 -3.2164
  193MOL0     H26575   6.881   4.546  10.119 -1.2092  0.8252 -2.2763
  193MOL0     H26576   6.735   4.477  10.057 -1.5629  0.8381  1.5655
  193MOL0     H26577   6.804   4.267  10.015 -0.3474  0.2354 -2.0332
  193MOL0     H26578   6.924   4.373   9.946  0.4920  3.6448  1.5533
  193MOL0     H26579   7.026   4.180  10.053  0.5240 -1.0201  0.8332
  193MOL0     H26580   6.957   4.218  10.214  0.3443 -0.9948  0.2209
  193MOL0     H26581   7.150   4.412  10.074 -1.0992  1.6555 -0.0010
  193MOL0     H26582   7.088   4.409  10.238 -1.2085 -0.3091 -0.8400
  193MOL0     H26583   7.262   4.192  10.005 -0.6797 -0.1231 -0.2869
  193MOL0     H26584   7.486   3.998  10.019  1.3070 -0.9471  0.7430
  193MOL0     H26585   7.472   3.924  10.178 -1.6763  0.8481  0.6561
  193MOL0     H26586   7.652   4.162  10.116 -1.2963  1.8541  1.9679
  193MOL0     H26587   7.630   4.096  10.269  1.5057  1.2445 -0.5818
  193MOL0     H26588   7.742   3.896  10.234  2.8859  0.8712  0.7489
  193MOL0     H26589   7.762   3.923  10.052  1.6696 -0.0549  0.2790
  193MOL0     H26590   7.898   4.114  10.111 -0.1513 -1.2200 -1.2565
  193MOL0     H26591   7.876   4.082  10.285  3.3807 -1.3201  0.3201
  193MOL0     H26592   8.036   4.099  10.415 -1.9984 -0.7795  1.7668
  193MOL0     H26593   8.158   4.179  10.567 -0.6663 -1.0767 -1.6869
  193MOL0     H26594   8.331   4.149  10.599  2.3323 -2.9585 -2.5538
  193MOL0     H26595   8.215   4.063  10.681 -1.7084 -0.0807 -0.1775
  193MOL0     H26596   8.761   3.914  10.442 -0.6668  1.8402  0.5183
  193MOL0     H26597   8.966   3.879  10.556  1.1828  0.8901 -0.3666
  193MOL0     H26598   9.087   4.072  10.761 -2.7273 -0.6983  0.5436
  193MOL0     H26599   9.156   3.989  10.907  1.5100 -1.2482 -0.6815
  193MOL0     H26600   9.229   3.811  10.753  0.2178  1.3745  0.0175
  193MOL0     H26601   9.176   3.896  10.610 -1.5577  0.5361  0.8105
  193MOL0     H26602   9.418   3.923  10.627  2.3689  1.7916  0.0916
  193MOL0     H26603   9.415   3.977  10.791 -2.9595  0.2121  1.6104
  193MOL0     H26604   9.300   4.193  10.713 -0.9746 -1.2211  0.3497
  193MOL0     H26605   9.266   4.114  10.561 -1.5291  1.2497  1.2705
  193MOL0     H26606   9.547   4.118  10.576  0.5840  0.3059 -1.9635
  193MOL0     H26607   9.427   4.199  10.476  3.0026  0.9102 -1.1076
  193MOL0     H26608   9.416   4.382  10.638 -0.0224 -0.1140  1.8628
  193MOL0     H26609   9.583   4.361  10.585 -0.0412  1.8626  1.7876
  193MOL0     H26610   9.611   4.226  10.813 -0.0131  1.0386  4.4571
  193MOL0     H26611   9.463   4.294  10.861  0.5549  0.7342  0.1501
  193MOL0     H26612   9.559   4.527  10.800 -1.0706 -0.8672 -1.4786
  193MOL0     H26613   9.713   4.446  10.769 -1.4003 -3.4028 -3.1614
  193MOL0     H26614   8.775   3.986  10.923 -4.5303 -1.0562 -0.0067
  193MOL0     H26615   8.573   4.056  10.798 -0.9649  0.7445 -1.5425
  193MOL0     H26616   8.385   3.768  10.283 -0.8855 -2.0203  2.1590
  193MOL0     H26617   8.189   3.794  10.136 -0.3908  0.9036 -1.3452
  193MOL0     H26618   6.313   4.729  10.538 -0.2368 -2.9597 -0.4512
  193MOL0     H26619   6.138   4.883  10.615  0.9789  2.2482 -1.1210
  193MOL0     H26620   5.912   5.158  10.676  0.5614  0.7453  1.2878
  193MOL0     H26621   5.783   5.310  10.826 -1.8077  6.1853 -2.1510
  193MOL0     H26622   5.572   5.157  10.950  0.3158  0.0778  1.1585
  193MOL0     H26623   5.622   5.312  10.989 -0.0546 -1.8777  0.8758
  193MOL0     H26624   5.381   5.383  11.029 -1.0054 -0.5324 -1.4345
  193MOL0     H26625   5.424   5.235  11.129 -0.8073 -1.5988  0.1251
  193MOL0     H26626   5.262   5.232  10.865  0.7972  1.8365  0.2562
  193MOL0     H26627   5.302   5.091  10.957  0.8891 -0.0824 -1.2124
  193MOL0     H26628   5.174   5.322  11.109 -1.3043 -1.5122  3.7316
  193MOL0     H26629   5.160   5.156  11.152 -2.2228 -0.5805 -1.1802
  193MOL0     H26630   4.836   5.152  10.893 -1.0956 -0.3240  1.0584
  193MOL0     H26631   5.436   5.204  10.605  0.1532 -0.7635 -3.1273
  193MOL0     H26632   5.567   4.972  10.375  1.1810  0.3146  1.0572
  193MOL0     H26633   5.434   5.071  10.424  0.7002 -1.6459  0.9234
  193MOL0     H26634   5.555   5.137  10.314 -1.5336  0.7715 -0.2833
  194MOL0     O26635   3.502   9.960   4.207  0.5731  0.9413 -0.2534
  194MOL0     C26636   3.473   9.911   4.316  0.5463 -0.5170  0.2225
  194MOL0     O26637   3.541   9.808   4.374  0.0849  0.3920 -0.5193
  194MOL0     C26638   3.678   9.817   4.360 -0.0233  0.5945  0.1349
  194MOL0     C26639   3.754   9.934   4.325 -0.4804 -0.0734 -0.1847
  194MOL0     C26640   3.893   9.934   4.320  0.1809  0.0603 -0.1374
  194MOL0     C26641   3.956   9.814   4.344  0.7266 -0.3271 -0.3649
  194MOL0     O26642   4.090   9.785   4.328 -0.4476  0.4869  0.1008
  194MOL0     C26643   4.185   9.883   4.368  0.3760  0.5658  0.5160
  194MOL0     C26644   4.273   9.910   4.245 -0.0670 -0.1420 -0.3183
  194MOL0     C26645   4.317   9.799   4.161  0.5292 -0.6641 -0.3559
  194MOL0     C26646   4.411   9.712   4.248 -0.3998 -1.0127  1.5711
  194MOL0     C26647   4.515   9.640   4.161 -0.1360  0.0997  0.0983
  194MOL0     C26648   4.565   9.518   4.239  0.0783  0.5736 -0.2359
  194MOL0     C26649   4.686   9.444   4.169  0.8625 -0.3546 -0.1264
  194MOL0     C26650   4.819   9.527   4.150 -0.3801 -0.4565  0.6337
  194MOL0     N26651   4.889   9.539   4.278 -0.0950  0.0424 -0.3566
  194MOL0     C26652   4.877   9.633   4.375 -0.1010 -0.0706 -1.1329
  194MOL0     C26653   4.972   9.611   4.469  0.1413 -0.5641  0.3504
  194MOL0     C26654   5.009   9.688   4.583 -0.4479 -0.6020 -0.2407
  194MOL0     C26655   5.112   9.621   4.676 -1.2319  0.9321  0.5129
  194MOL0     C26656   5.153   9.721   4.781  0.2034 -0.4745 -0.2675
  194MOL0     C26657   5.261   9.665   4.873  0.4202  0.6073 -0.6786
  194MOL0     O26658   5.246   9.745   4.997 -0.4210  0.7717 -0.5048
  194MOL0     C26659   5.352   9.749   5.084 -0.4294  0.8957 -0.3657
  194MOL0     C26660   5.340   9.836   5.192  0.4414  0.4828  0.1609
  194MOL0     C26661   5.443   9.871   5.281  1.1978 -0.1363  0.1998
  194MOL0     C26662   5.401   9.969   5.391  0.0491 -1.2415  0.0584
  194MOL0     C26663   5.571   9.806   5.253  0.1027 -0.0495  0.6376
  194MOL0     C26664   5.692   9.831   5.329  0.5093 -0.8515 -0.1987
  194MOL0     O26665   5.687   9.922   5.427 -0.1088 -0.2568  0.7396
  194MOL0     C26666   5.806   9.967   5.473 -0.4248  0.3646  0.1280
  194MOL0     C26667   5.857   9.912   5.598 -0.6874  0.0654 -0.4931
  194MOL0     C26668   5.983   9.949   5.652 -0.3129 -0.0656 -0.4490
  194MOL0     C26669   6.057  10.038   5.573  0.8007 -0.4055  0.9249
  194MOL0     O26670   6.179  10.081   5.604  0.5276 -1.1752  0.1348
  194MOL0     C26671   6.271   9.983   5.659  0.8783  0.5587 -0.5817
  194MOL0     C26672   6.414  10.041   5.673 -0.5174 -0.4820  0.2038
  194MOL0     C26673   6.496  10.029   5.542  0.0181 -0.5356  0.7185
  194MOL0     C26674   6.575   9.893   5.536  0.1874  0.2609 -0.3123
  194MOL0     C26675   6.651   9.882   5.399 -0.1162  0.0597 -0.1332
  194MOL0     C26676   6.753  10.005   5.369  0.6764  0.9853  0.2211
  194MOL0     C26677   6.842   9.977   5.246 -0.0683 -1.0719  0.2780
  194MOL0     C26678   6.899  10.107   5.176  0.0127 -0.1906 -0.0365
  194MOL0    Cl26679   6.778  10.200   5.085  0.2127  0.1844 -0.4359
  194MOL0     C26680   5.996  10.098   5.461 -0.7165  0.6754  0.4436
  194MOL0     C26681   5.874  10.063   5.411 -0.1951 -0.5515  0.0473
  194MOL0     O26682   5.794   9.778   5.288  0.0964  0.6539 -0.9079
  194MOL0     C26683   5.585   9.710   5.151  0.1337  0.5255 -0.2244
  194MOL0     C26684   5.476   9.684   5.064 -0.1500  0.0007 -0.3867
  194MOL0     N26685   5.024   9.484   4.438 -0.4488  0.6709  0.1084
  194MOL0     N26686   4.974   9.446   4.323  0.0719  0.0796  0.1589
  194MOL0     C26687   3.887   9.703   4.379  0.0479 -0.4470  0.2442
  194MOL0     C26688   3.746   9.700   4.383  0.7549 -0.0400  0.2246
  194MOL0     C26689   3.347   9.954   4.389 -0.4869 -0.1311  0.3100
  194MOL0     C26690   3.318  10.095   4.369  0.1528 -1.1777  0.2988
  194MOL0     C26691   3.216  10.159   4.435  0.7162  0.5014 -0.0476
  194MOL0     C26692   3.123  10.081   4.521 -0.8128 -0.1925  0.4108
  194MOL0     O26693   3.015  10.152   4.573 -0.3921  0.0629  0.7486
  194MOL0     C26694   2.919  10.073   4.651  0.3076 -0.3544 -0.3283
  194MOL0     C26695   2.796  10.162   4.693 -0.0408 -0.5373  0.1319
  194MOL0     C26696   2.733  10.226   4.568 -0.1866 -0.9984  0.0152
  194MOL0     C26697   2.626  10.333   4.607 -0.9118  0.3435 -0.0368
  194MOL0     C26698   2.511  10.259   4.653 -0.4357  0.0277  0.5915
  194MOL0     C26699   2.412  10.200   4.688 -0.1857  0.6969  0.7455
  194MOL0     C26700   3.152   9.947   4.546 -0.4581 -0.5393  0.8319
  194MOL0     C26701   3.267   9.885   4.487  0.1333 -0.6850 -0.5667
  194MOL0     C26702   3.284   9.739   4.507 -0.2000  0.1018 -0.3484
  194MOL0     H26703   3.698  10.026   4.322 -0.7827 -0.2613 -0.2938
  194MOL0     H26704   3.951  10.023   4.295 -0.1214  0.2629 -0.1181
  194MOL0     H26705   4.247   9.835   4.444 -0.3445 -2.5629 -0.7160
  194MOL0     H26706   4.139   9.979   4.396  1.4080  1.5494 -0.9861
  194MOL0     H26707   4.218   9.982   4.184 -2.6229 -1.7731 -0.0841
  194MOL0     H26708   4.364   9.957   4.282  0.2508 -1.2996  0.4251
  194MOL0     H26709   4.236   9.736   4.123 -0.0039  1.2426 -2.5341
  194MOL0     H26710   4.357   9.851   4.074 -3.5991  2.1752 -0.8291
  194MOL0     H26711   4.479   9.766   4.314  0.5024 -0.1036 -0.0242
  194MOL0     H26712   4.356   9.643   4.313 -0.9520 -0.2200  1.9580
  194MOL0     H26713   4.584   9.717   4.125 -2.6292  1.8527 -1.2036
  194MOL0     H26714   4.480   9.605   4.064  0.0341  1.8301 -0.6199
  194MOL0     H26715   4.605   9.552   4.336  1.4680  2.4851 -1.4095
  194MOL0     H26716   4.473   9.462   4.253  0.0954  0.3903 -0.8520
  194MOL0     H26717   4.647   9.408   4.074 -5.3301 -2.3089  2.6292
  194MOL0     H26718   4.714   9.361   4.235  1.3004 -0.1734 -0.0782
  194MOL0     H26719   4.878   9.485   4.069 -0.6680 -1.0153  0.7079
  194MOL0     H26720   4.801   9.628   4.113  0.0239 -0.1667  1.2124
  194MOL0     H26721   4.821   9.726   4.365 -0.5817 -0.0887  0.8803
  194MOL0     H26722   4.915   9.701   4.636  0.3435  0.5361  0.9579
  194MOL0     H26723   5.042   9.784   4.541 -0.8786 -0.8123 -1.0925
  194MOL0     H26724   5.064   9.528   4.710  1.1472 -1.5075 -2.2118
  194MOL0     H26725   5.204   9.593   4.624 -0.3506  1.4162  1.7625
  194MOL0     H26726   5.181   9.815   4.733  1.2571 -1.9651 -2.7852
  194MOL0     H26727   5.063   9.748   4.837 -1.8119 -3.4719 -1.7583
  194MOL0     H26728   5.241   9.559   4.885 -1.6153  1.2301  2.9378
  194MOL0     H26729   5.353   9.674   4.814  1.3149 -1.1858  0.3684
  194MOL0     H26730   5.243   9.884   5.189 -0.9134 -1.9163  1.9758
  194MOL0     H26731   5.307   9.937   5.437 -2.5260  0.0174 -3.8734
  194MOL0     H26732   5.378  10.069   5.355 -0.3297 -0.9788  0.9923
  194MOL0     H26733   5.473   9.986   5.472 -0.3702  0.1323  0.1695
  194MOL0     H26734   5.789   9.833   5.631  0.3289 -0.6001  0.0585
  194MOL0     H26735   6.016   9.904   5.745 -1.7088 -2.0022 -0.8203
  194MOL0     H26736   6.245   9.961   5.763  0.8087 -0.6818 -0.8419
  194MOL0     H26737   6.269   9.887   5.607 -0.5046 -0.1218  0.6589
  194MOL0     H26738   6.409  10.150   5.689 -1.1401 -0.5612  0.5982
  194MOL0     H26739   6.474   9.992   5.750  0.6205  0.6033  0.0571
  194MOL0     H26740   6.564  10.113   5.531 -2.3084  1.4321  0.5422
  194MOL0     H26741   6.424  10.039   5.461  1.0278 -3.6681 -0.7501
  194MOL0     H26742   6.502   9.812   5.543 -0.2589  0.7886  1.8418
  194MOL0     H26743   6.637   9.881   5.625 -1.9002  0.8608  1.3077
  194MOL0     H26744   6.704   9.787   5.396 -1.8210 -0.9193 -0.2771
  194MOL0     H26745   6.580   9.881   5.316  0.5131  4.7011 -1.0264
  194MOL0     H26746   6.823  10.032   5.449  2.2924 -0.3936 -0.6466
  194MOL0     H26747   6.690  10.089   5.339 -1.1802 -0.6368 -0.6274
  194MOL0     H26748   6.784   9.918   5.174 -0.3498 -0.1964 -0.2293
  194MOL0     H26749   6.930   9.930   5.289 -0.2243  0.9594  3.0562
  194MOL0     H26750   6.985  10.083   5.113  1.1641  1.5462  0.8033
  194MOL0     H26751   6.925  10.167   5.263 -0.8532 -0.1834  0.2227
  194MOL0     H26752   6.056  10.164   5.399  2.3944 -2.5097 -0.2559
  194MOL0     H26753   5.834  10.111   5.322 -1.1323 -0.1737  0.6572
  194MOL0     H26754   5.672   9.647   5.134 -1.9351 -3.5076  2.5914
  194MOL0     H26755   5.489   9.608   4.987 -2.9995 -1.0011  0.0228
  194MOL0     H26756   3.943   9.614   4.406  0.0805  0.3192  2.9222
  194MOL0     H26757   3.693   9.608   4.408  2.7994 -1.9100 -1.8179
  194MOL0     H26758   3.381  10.156   4.306 -1.1565 -0.7586 -0.6317
  194MOL0     H26759   3.198  10.264   4.419  0.6044  0.6691  1.1143
  194MOL0     H26760   2.885   9.988   4.591 -1.5523  0.7982 -0.9753
  194MOL0     H26761   2.972  10.048   4.743  1.4726  4.1913  0.4855
  194MOL0     H26762   2.825  10.245   4.758  0.3097  1.0135 -1.8736
  194MOL0     H26763   2.719  10.104   4.743  0.7876 -0.6680  1.2928
  194MOL0     H26764   2.805  10.290   4.516  0.0704 -0.0055  1.5320
  194MOL0     H26765   2.704  10.150   4.494  1.2883 -0.2308 -1.4150
  194MOL0     H26766   2.612  10.389   4.514 -0.0566 -1.8303 -1.5613
  194MOL0     H26767   2.666  10.392   4.690  1.5222  0.9479 -1.5368
  194MOL0     H26768   2.316  10.156   4.708  0.9433 -2.9108 -0.9046
  194MOL0     H26769   3.087   9.898   4.618 -1.6972  0.3190  0.3428
  194MOL0     H26770   3.303   9.683   4.415 -3.2551  0.0840 -1.0897
  194MOL0     H26771   3.369   9.714   4.572 -1.8548 -1.1874  1.4600
  194MOL0     H26772   3.198   9.689   4.554  0.6185 -2.0699 -1.0600
  195MOL0     O26773   4.208   5.867   7.677 -0.6009  0.5112 -0.5553
  195MOL0     C26774   4.152   5.978   7.686 -0.7127 -0.2033 -0.4380
  195MOL0     O26775   4.179   6.076   7.601  0.1971 -0.1019  0.1345
  195MOL0     C26776   4.289   6.081   7.523 -0.4859  0.1454  0.5011
  195MOL0     C26777   4.416   6.044   7.564  0.5199  0.8961 -0.9339
  195MOL0     C26778   4.532   6.076   7.485 -0.0814 -0.2016 -0.4922
  195MOL0     C26779   4.534   6.149   7.367  0.0619  0.7307 -0.1125
  195MOL0     O26780   4.656   6.185   7.302 -0.4159  0.6414 -0.8493
  195MOL0     C26781   4.673   6.323   7.269  0.2684 -0.0611 -0.1729
  195MOL0     C26782   4.722   6.350   7.129  0.2858 -0.0786  0.6459
  195MOL0     C26783   4.833   6.253   7.078  0.6032 -0.2286  0.2670
  195MOL0     C26784   4.901   6.317   6.959 -0.1422 -0.5978  0.2303
  195MOL0     C26785   5.047   6.267   6.929 -0.2912 -0.3691  0.8162
  195MOL0     C26786   5.109   6.341   6.807 -0.0167  0.3129  0.2270
  195MOL0     C26787   5.251   6.293   6.797  0.3004  0.5705  0.3818
  195MOL0     C26788   5.303   6.276   6.651  0.7831 -0.2531  0.5872
  195MOL0     N26789   5.269   6.389   6.563  0.1889  0.2838  0.3564
  195MOL0     C26790   5.289   6.525   6.594 -0.5028  0.1934  0.5263
  195MOL0     C26791   5.285   6.581   6.470  0.1096  1.3892 -0.4723
  195MOL0     C26792   5.304   6.727   6.451 -1.0310 -0.7835 -0.2339
  195MOL0     C26793   5.449   6.785   6.477  0.3485  0.2715 -0.4593
  195MOL0     C26794   5.540   6.722   6.372 -0.0338  0.0632  0.3357
  195MOL0     C26795   5.690   6.765   6.404  0.0588  0.0068 -0.0829
  195MOL0     O26796   5.714   6.888   6.339  0.3084  0.1262  0.3054
  195MOL0     C26797   5.841   6.938   6.321  0.8017  0.5253  1.3334
  195MOL0     C26798   5.847   7.063   6.256 -0.5009  0.4509 -0.0723
  195MOL0     C26799   5.966   7.126   6.239 -0.2186  0.5011 -0.2744
  195MOL0     C26800   5.956   7.257   6.159  1.2398  0.2841 -0.1936
  195MOL0     C26801   6.092   7.064   6.286  0.5006 -1.0005  0.1910
  195MOL0     C26802   6.221   7.118   6.267 -0.8254 -0.0017  0.2149
  195MOL0     O26803   6.316   7.032   6.311 -0.0689 -0.4123  0.7306
  195MOL0     C26804   6.451   7.064   6.321 -0.1613  0.0541 -1.0580
  195MOL0     C26805   6.540   6.953   6.333  0.3948  0.1448 -1.0769
  195MOL0     C26806   6.679   6.972   6.341 -0.0950  0.1355 -0.2344
  195MOL0     C26807   6.735   7.104   6.333  0.3327  0.9157  0.2547
  195MOL0     O26808   6.874   7.124   6.341 -0.3612 -0.2868  0.6781
  195MOL0     C26809   6.919   7.247   6.407  0.3737  0.0017  0.0980
  195MOL0     C26810   7.067   7.239   6.446 -0.0430 -0.0082  0.1699
  195MOL0     C26811   7.073   7.151   6.573 -0.2058  0.4532  0.2193
  195MOL0     C26812   7.220   7.120   6.601 -0.0834 -1.1236 -0.6900
  195MOL0     C26813   7.250   7.048   6.732  0.2352 -0.5760  0.1746
  195MOL0     C26814   7.396   7.038   6.771  0.0235 -1.2225  0.5162
  195MOL0     C26815   7.453   7.159   6.845  1.0476  0.1549 -0.5391
  195MOL0     C26816   7.602   7.150   6.879 -0.0308 -0.2403 -0.0373
  195MOL0    Cl26817   7.695   7.188   6.718 -0.2185 -0.1048  0.4515
  195MOL0     C26818   6.644   7.211   6.334 -0.0714  0.4665  0.2582
  195MOL0     C26819   6.512   7.188   6.326  0.1154 -0.5385 -0.0834
  195MOL0     O26820   6.244   7.226   6.213 -0.0480  0.4065 -0.8317
  195MOL0     C26821   6.081   6.937   6.347  0.1223 -0.5314  0.4926
  195MOL0     C26822   5.958   6.878   6.367  0.5681  0.3825 -0.7374
  195MOL0     N26823   5.258   6.482   6.371 -0.1315 -0.0565 -0.3015
  195MOL0     N26824   5.250   6.366   6.432  0.6738  0.5229  0.0968
  195MOL0     C26825   4.403   6.189   7.324 -0.0656  0.1343 -0.3324
  195MOL0     C26826   4.290   6.151   7.398  0.2734 -0.4007  0.2982
  195MOL0     C26827   4.024   6.006   7.771 -0.0421 -0.5206 -0.2778
  195MOL0     C26828   3.969   6.139   7.767  0.8816 -0.1650  0.9936
  195MOL0     C26829   3.842   6.167   7.821  0.8275  0.6647 -0.4139
  195MOL0     C26830   3.771   6.069   7.900  0.6262 -0.0112  0.7851
  195MOL0     O26831   3.648   6.108   7.943  0.1638  0.0828  0.2571
  195MOL0     C26832   3.556   6.009   8.001 -0.2362  0.0072 -0.8429
  195MOL0     C26833   3.436   6.082   8.059  0.1681  0.6051  0.5396
  195MOL0     C26834   3.380   5.982   8.160  0.0577  0.2652 -0.7033
  195MOL0     C26835   3.244   6.014   8.233  0.3169  0.2094 -0.8463
  195MOL0     C26836   3.132   6.035   8.142 -0.1317  0.0374 -0.1193
  195MOL0     C26837   3.023   6.037   8.086  0.8116 -0.0929 -0.4866
  195MOL0     C26838   3.831   5.941   7.910 -0.0163  0.3264 -0.5009
  195MOL0     C26839   3.960   5.911   7.853  0.5602 -0.2178 -1.0077
  195MOL0     C26840   4.005   5.773   7.883 -0.0647  1.2188 -0.3595
  195MOL0     H26841   4.430   5.990   7.658  1.5280 -1.6336 -2.4329
  195MOL0     H26842   4.630   6.049   7.523 -1.1345 -0.0316  2.6356
  195MOL0     H26843   4.741   6.358   7.347 -1.9439 -0.9405  2.2858
  195MOL0     H26844   4.587   6.386   7.294  0.5658  0.1954  0.2144
  195MOL0     H26845   4.641   6.349   7.056  0.6564  1.2673  0.1875
  195MOL0     H26846   4.761   6.451   7.143 -1.4280  0.7956 -0.5414
  195MOL0     H26847   4.909   6.245   7.157  0.1899  4.4802  1.4917
  195MOL0     H26848   4.789   6.154   7.066 -1.0116  0.0270  3.0839
  195MOL0     H26849   4.836   6.313   6.870 -0.7236 -0.2382  0.6324
  195MOL0     H26850   4.900   6.424   6.980 -2.4426 -0.8328  1.6209
  195MOL0     H26851   5.051   6.162   6.902 -0.1743 -0.0199 -0.6013
  195MOL0     H26852   5.118   6.285   7.010  0.9694  1.3999 -0.5822
  195MOL0     H26853   5.045   6.322   6.721  0.5062  0.3492 -0.1771
  195MOL0     H26854   5.121   6.446   6.835 -2.3254  0.6877 -0.0231
  195MOL0     H26855   5.283   6.195   6.833  1.5833  0.0630 -1.9541
  195MOL0     H26856   5.313   6.367   6.848  0.0514  2.8402 -2.3742
  195MOL0     H26857   5.412   6.260   6.654  0.6483 -1.0497  2.3681
  195MOL0     H26858   5.253   6.187   6.611 -0.4388  0.5115  0.3621
  195MOL0     H26859   5.323   6.567   6.688  0.9630 -0.7218  0.4410
  195MOL0     H26860   5.253   6.782   6.530  0.1846  3.5601 -2.1705
  195MOL0     H26861   5.265   6.767   6.357 -1.8407  1.2439  0.9142
  195MOL0     H26862   5.454   6.894   6.474  0.3798  0.2710 -0.4188
  195MOL0     H26863   5.489   6.755   6.574 -1.3612  0.5716  0.3849
  195MOL0     H26864   5.528   6.613   6.370 -0.7605  0.0827  2.0842
  195MOL0     H26865   5.507   6.752   6.272 -0.6112 -0.9433  0.2058
  195MOL0     H26866   5.711   6.767   6.512  0.1527 -0.6296 -0.0859
  195MOL0     H26867   5.763   6.694   6.364  0.8841 -0.5096  2.1749
  195MOL0     H26868   5.757   7.109   6.216  0.4575  1.1624 -1.4916
  195MOL0     H26869   5.967   7.332   6.239 -2.6150  0.3276  0.4825
  195MOL0     H26870   5.860   7.270   6.108  1.2767 -4.9556 -2.1534
  195MOL0     H26871   6.029   7.240   6.080 -0.9475 -0.3936 -2.1906
  195MOL0     H26872   6.501   6.852   6.334 -1.3939  0.7344  2.0499
  195MOL0     H26873   6.746   6.887   6.331  0.1634  0.3741 -0.5587
  195MOL0     H26874   6.901   7.324   6.330 -4.8027 -1.2685 -0.3471
  195MOL0     H26875   6.859   7.275   6.494  0.5054 -0.5613  0.3698
  195MOL0     H26876   7.130   7.207   6.362  2.2337  2.0404  0.9623
  195MOL0     H26877   7.104   7.339   6.471 -0.0597  1.3876 -4.4001
  195MOL0     H26878   7.010   7.064   6.554  1.3454 -0.2344 -2.1262
  195MOL0     H26879   7.024   7.206   6.654 -1.2958  1.0142 -0.7792
  195MOL0     H26880   7.275   7.213   6.586 -2.5351  0.5263 -0.1391
  195MOL0     H26881   7.252   7.063   6.514  1.4600  1.0784 -1.6736
  195MOL0     H26882   7.199   7.108   6.809  0.5222 -0.1743  0.0559
  195MOL0     H26883   7.202   6.951   6.720  0.3423 -0.6669  0.4642
  195MOL0     H26884   7.446   7.017   6.675 -0.8679  0.8327 -0.4675
  195MOL0     H26885   7.397   6.961   6.848 -3.9590 -0.4722  1.5086
  195MOL0     H26886   7.388   7.171   6.932  0.1996  2.1303 -1.3818
  195MOL0     H26887   7.428   7.241   6.777 -0.8328  1.3499  1.4609
  195MOL0     H26888   7.627   7.047   6.906  1.6105  0.1550  0.0587
  195MOL0     H26889   7.640   7.220   6.954  0.6378 -0.4867 -0.1396
  195MOL0     H26890   6.682   7.313   6.341  0.0675  0.5356 -1.2695
  195MOL0     H26891   6.445   7.273   6.320 -0.3344 -0.5821  2.9468
  195MOL0     H26892   6.166   6.887   6.392  1.1906  1.0206  0.2478
  195MOL0     H26893   5.955   6.788   6.428  0.1156  1.5777  1.0672
  195MOL0     H26894   4.389   6.241   7.230 -0.9569  0.9025  0.2099
  195MOL0     H26895   4.198   6.202   7.371  0.1625 -0.5140  0.4576
  195MOL0     H26896   4.009   6.221   7.708  0.7137 -1.6551 -1.3104
  195MOL0     H26897   3.792   6.263   7.819  2.8276  1.7662 -0.0223
  195MOL0     H26898   3.532   5.925   7.936 -0.6811  0.8161 -1.7401
  195MOL0     H26899   3.610   5.962   8.084 -0.9040 -0.3239 -0.5919
  195MOL0     H26900   3.364   6.106   7.979  1.5921  0.3281 -0.8889
  195MOL0     H26901   3.468   6.178   8.100 -1.1920  0.5526  1.7943
  195MOL0     H26902   3.365   5.881   8.122 -0.7946 -0.8501  2.3309
  195MOL0     H26903   3.456   5.979   8.238  0.8825 -0.2330 -1.5077
  195MOL0     H26904   3.255   6.101   8.298 -1.3347  0.1856 -0.4945
  195MOL0     H26905   3.218   5.927   8.294  1.0002  0.2318 -0.5125
  195MOL0     H26906   2.922   6.026   8.051 -0.8749 -0.1230  3.8415
  195MOL0     H26907   3.781   5.862   7.965  0.3134 -0.3049 -1.0852
  195MOL0     H26908   3.932   5.725   7.948 -1.3090  0.4432 -2.2374
  195MOL0     H26909   4.000   5.713   7.792 -3.6360 -0.1764  0.5974
  195MOL0     H26910   4.108   5.767   7.919  0.2085 -0.6652 -1.3046
  196MOL0     O26911   3.514   3.718   9.387 -0.7789  0.6049  0.0238
  196MOL0     C26912   3.496   3.726   9.508 -0.1665  0.1448  0.7362
  196MOL0     O26913   3.598   3.736   9.605 -0.6428  0.1813  0.2602
  196MOL0     C26914   3.725   3.721   9.556 -0.0237 -0.3302  0.9787
  196MOL0     C26915   3.791   3.842   9.520 -0.1236 -0.1995  0.2013
  196MOL0     C26916   3.921   3.831   9.461 -0.3922  0.6415 -0.0549
  196MOL0     C26917   3.976   3.703   9.444 -0.7976 -0.3709  0.5904
  196MOL0     O26918   4.103   3.681   9.391 -0.4137 -0.0218  0.4624
  196MOL0     C26919   4.137   3.730   9.262 -0.9704 -0.1053  0.7510
  196MOL0     C26920   4.291   3.749   9.282 -0.6998 -0.0167  0.5352
  196MOL0     C26921   4.361   3.804   9.158 -0.2138  0.0326 -0.1756
  196MOL0     C26922   4.502   3.847   9.189 -0.0619  0.1874 -0.0764
  196MOL0     C26923   4.586   3.893   9.066 -0.4543  0.1783  1.3642
  196MOL0     C26924   4.521   4.003   8.980  0.7116  0.3469  0.2631
  196MOL0     C26925   4.626   4.065   8.891  0.3216 -0.3621  0.0817
  196MOL0     C26926   4.564   4.158   8.788  0.0212 -0.1984  0.5035
  196MOL0     N26927   4.477   4.267   8.840  0.4405  0.7596 -0.0353
  196MOL0     C26928   4.523   4.389   8.888 -0.3190  0.6504  0.1734
  196MOL0     C26929   4.416   4.474   8.893 -1.2289  0.4970  0.1641
  196MOL0     C26930   4.394   4.623   8.925 -0.3880  0.3758  0.3703
  196MOL0     C26931   4.373   4.719   8.806  0.4018  0.1194 -0.0660
  196MOL0     C26932   4.298   4.844   8.851  0.5678  0.4144 -0.5349
  196MOL0     C26933   4.376   4.917   8.960  0.8696 -0.6304 -0.1931
  196MOL0     O26934   4.341   5.054   8.943  1.0926 -0.2202 -0.2216
  196MOL0     C26935   4.397   5.155   9.012  0.7560 -0.3885  0.9260
  196MOL0     C26936   4.348   5.279   8.984  0.5291  0.5860 -0.0376
  196MOL0     C26937   4.403   5.393   9.050 -0.5746 -0.0913  0.1825
  196MOL0     C26938   4.322   5.523   9.020 -0.1563 -0.0293  0.3047
  196MOL0     C26939   4.520   5.383   9.128  0.0485  0.1025 -0.7636
  196MOL0     C26940   4.592   5.502   9.190 -0.1456  0.4010  0.2516
  196MOL0     O26941   4.717   5.472   9.227 -0.2001 -0.0293 -0.3653
  196MOL0     C26942   4.792   5.543   9.319 -0.1607 -0.8279 -0.0998
  196MOL0     C26943   4.803   5.682   9.317 -0.4457  0.6170 -0.0282
  196MOL0     C26944   4.878   5.738   9.418 -0.4492 -0.0300 -0.1378
  196MOL0     C26945   4.933   5.663   9.515  0.6157 -0.4571 -0.6946
  196MOL0     O26946   4.999   5.737   9.611  0.8426 -0.7614  0.0748
  196MOL0     C26947   5.106   5.690   9.689  0.0765 -0.1566  0.2947
  196MOL0     C26948   5.197   5.805   9.721 -0.0868 -0.5825 -0.0581
  196MOL0     C26949   5.320   5.768   9.809 -0.6998 -0.0431  0.4900
  196MOL0     C26950   5.401   5.889   9.866  0.0169  0.0619  0.0248
  196MOL0     C26951   5.515   5.851   9.971 -0.3669 -0.4421  0.6308
  196MOL0     C26952   5.648   5.801   9.908 -0.2268 -0.2822 -0.0308
  196MOL0     C26953   5.720   5.903   9.820 -0.2524  0.2046  0.5490
  196MOL0     C26954   5.792   6.013   9.898  0.0621  0.9313  0.8173
  196MOL0    Cl26955   5.923   6.092   9.806 -0.2543  0.1471  0.0797
  196MOL0     C26956   4.926   5.522   9.519  0.6230 -0.0978 -0.0863
  196MOL0     C26957   4.856   5.463   9.419  0.2225  0.6347 -0.5764
  196MOL0     O26958   4.536   5.605   9.203  0.3505 -0.2751 -0.8144
  196MOL0     C26959   4.568   5.250   9.149  0.1397 -0.9337 -0.0490
  196MOL0     C26960   4.510   5.142   9.092  0.5483 -0.0443  0.5758
  196MOL0     N26961   4.309   4.403   8.851 -0.2433  0.9941 -0.2436
  196MOL0     N26962   4.348   4.290   8.808 -0.2669 -0.3767  0.1209
  196MOL0     C26963   3.910   3.592   9.469 -1.4008  0.1853  0.4208
  196MOL0     C26964   3.782   3.594   9.529  0.5775 -0.6459  0.6683
  196MOL0     C26965   3.354   3.733   9.554  0.2247 -0.6466 -0.7356
  196MOL0     C26966   3.321   3.789   9.681 -0.7644  0.1217  0.0272
  196MOL0     C26967   3.200   3.796   9.740  0.0191  0.7935 -1.4132
  196MOL0     C26968   3.099   3.724   9.676 -0.4529  0.7194  0.0743
  196MOL0     O26969   2.966   3.730   9.720  0.0177 -0.3419 -0.5343
  196MOL0     C26970   2.910   3.848   9.787 -0.4694 -0.4243 -0.3033
  196MOL0     C26971   2.923   3.979   9.706 -0.5319 -0.7472  0.2364
  196MOL0     C26972   2.858   3.985   9.568  1.0087  0.0215 -0.5855
  196MOL0     C26973   2.837   4.126   9.525 -0.2354 -0.3689 -0.4601
  196MOL0     C26974   2.795   4.123   9.387 -0.3920  0.5784  0.5689
  196MOL0     C26975   2.765   4.109   9.268 -0.3466  0.4084  0.8011
  196MOL0     C26976   3.120   3.660   9.556  0.1713 -0.6413  0.0127
  196MOL0     C26977   3.252   3.661   9.490  0.3004  0.6010 -0.1764
  196MOL0     C26978   3.268   3.588   9.367  0.7583  0.0550  0.1203
  196MOL0     H26979   3.738   3.935   9.538  0.4406  0.2885 -0.5923
  196MOL0     H26980   3.981   3.918   9.437 -1.9346  1.9818  0.7257
  196MOL0     H26981   4.089   3.818   9.219  1.7551  1.5586  0.8901
  196MOL0     H26982   4.115   3.653   9.187  0.4349  1.2741 -1.1618
  196MOL0     H26983   4.300   3.820   9.364 -1.9566  0.0491  0.6371
  196MOL0     H26984   4.327   3.653   9.320 -0.5625 -0.4867 -0.7444
  196MOL0     H26985   4.360   3.727   9.081 -0.2631  0.5375 -0.6899
  196MOL0     H26986   4.300   3.889   9.123 -1.6465 -1.1450 -0.6607
  196MOL0     H26987   4.493   3.930   9.260  3.2070 -1.4155  2.4834
  196MOL0     H26988   4.555   3.766   9.239  2.1264  0.8524 -1.2003
  196MOL0     H26989   4.603   3.811   8.995  0.3674 -0.2398  2.0192
  196MOL0     H26990   4.683   3.928   9.103 -0.5956 -1.1794  3.1205
  196MOL0     H26991   4.433   3.963   8.930 -1.0332  2.5760  1.3864
  196MOL0     H26992   4.478   4.077   9.048  1.1937  0.3147  0.6136
  196MOL0     H26993   4.678   3.985   8.837 -1.8319 -2.9039  1.4850
  196MOL0     H26994   4.691   4.121   8.957 -0.7470  1.7446 -0.5516
  196MOL0     H26995   4.637   4.201   8.719  1.0078  0.6366  2.0169
  196MOL0     H26996   4.496   4.117   8.713 -0.7727  4.1205 -1.4767
  196MOL0     H26997   4.624   4.424   8.908  1.8677 -5.5422  2.1367
  196MOL0     H26998   4.488   4.659   8.969  0.8667  1.0245 -2.5574
  196MOL0     H26999   4.309   4.614   8.992 -0.4836  0.4199  0.2559
  196MOL0     H27000   4.472   4.745   8.768 -0.5282  0.4066 -2.4723
  196MOL0     H27001   4.317   4.666   8.729 -1.7834  0.8496  0.9352
  196MOL0     H27002   4.276   4.910   8.766 -1.3986 -1.2330 -1.3724
  196MOL0     H27003   4.198   4.813   8.882  1.1519 -1.0412 -0.0301
  196MOL0     H27004   4.352   4.877   9.059 -0.7534 -0.6730 -0.5702
  196MOL0     H27005   4.482   4.901   8.941  1.4739 -1.6660  3.2733
  196MOL0     H27006   4.260   5.288   8.922 -0.8101 -1.0593  1.4988
  196MOL0     H27007   4.236   5.505   8.954  0.6157  0.7071 -0.9527
  196MOL0     H27008   4.398   5.591   8.980  1.5329 -1.6389  0.6395
  196MOL0     H27009   4.280   5.563   9.112 -0.4949  1.0621 -0.3030
  196MOL0     H27010   4.744   5.736   9.244 -2.7075 -3.1550 -1.2821
  196MOL0     H27011   4.896   5.845   9.425 -1.9119  0.1277  2.9469
  196MOL0     H27012   5.058   5.649   9.778 -0.2129  0.1097  0.2632
  196MOL0     H27013   5.162   5.611   9.637 -1.4800 -2.6538  2.1843
  196MOL0     H27014   5.229   5.858   9.631 -1.0098  0.4168  0.1856
  196MOL0     H27015   5.130   5.869   9.778 -1.2271 -0.5766 -1.3316
  196MOL0     H27016   5.377   5.688   9.761 -1.6340 -0.7088  0.4559
  196MOL0     H27017   5.278   5.726   9.901 -0.2172 -0.3516  0.5737
  196MOL0     H27018   5.340   5.953   9.931  0.3617  0.0240  0.3900
  196MOL0     H27019   5.437   5.950   9.783 -0.5526 -0.1466 -0.3872
  196MOL0     H27020   5.550   5.941  10.023  0.3924  1.5726 -3.0360
  196MOL0     H27021   5.482   5.781  10.049  1.6469  1.0100  2.9488
  196MOL0     H27022   5.616   5.715   9.848 -1.2892 -2.3953  3.3049
  196MOL0     H27023   5.717   5.761   9.982  2.9929 -2.0366 -3.6050
  196MOL0     H27024   5.652   5.958   9.754  1.4696 -0.2399 -1.7332
  196MOL0     H27025   5.794   5.847   9.762 -0.5793  0.3785 -0.0453
  196MOL0     H27026   5.837   5.978   9.991 -0.0206 -2.0915 -0.1867
  196MOL0     H27027   5.711   6.085   9.914 -2.7390 -1.7008 -0.4718
  196MOL0     H27028   4.988   5.467   9.589 -1.4052 -3.2625 -0.5449
  196MOL0     H27029   4.845   5.355   9.423  0.8377  0.5982  1.4335
  196MOL0     H27030   4.646   5.231   9.222 -1.3033 -0.5152  1.6691
  196MOL0     H27031   4.543   5.045   9.127 -0.7741 -0.2530  1.3168
  196MOL0     H27032   3.974   3.506   9.450  1.8636  2.3517  0.8764
  196MOL0     H27033   3.738   3.498   9.554  1.5441 -1.1792  0.3568
  196MOL0     H27034   3.408   3.828   9.735  1.4014  0.8077 -3.6271
  196MOL0     H27035   3.179   3.850   9.831  0.6604 -2.4839  0.8334
  196MOL0     H27036   2.803   3.827   9.789 -0.7932  0.3273 -3.7974
  196MOL0     H27037   2.947   3.856   9.890  0.3629 -3.1150 -0.3051
  196MOL0     H27038   3.024   4.013   9.679 -1.2901  3.2176  1.7476
  196MOL0     H27039   2.878   4.051   9.775  0.3296  0.5385 -0.4827
  196MOL0     H27040   2.921   3.932   9.495  0.3697  1.7243 -2.4597
  196MOL0     H27041   2.766   3.927   9.582  2.5705 -1.8197  4.5395
  196MOL0     H27042   2.929   4.185   9.524 -1.2220  1.3612  2.1306
  196MOL0     H27043   2.767   4.185   9.585  2.8627  1.3588  1.6953
  196MOL0     H27044   2.732   4.095   9.168  1.4294  0.5655  0.1608
  196MOL0     H27045   3.037   3.602   9.515 -1.4364  1.7111 -0.2714
  196MOL0     H27046   3.334   3.505   9.392 -1.1205 -1.2712  0.8765
  196MOL0     H27047   3.173   3.549   9.331  0.5219 -0.1774  0.9721
  196MOL0     H27048   3.296   3.642   9.276  0.1324 -0.8418 -0.6197
  197MOL0     O27049  10.063   2.847   2.375 -0.0630  0.1295 -0.6035
  197MOL0     C27050   9.981   2.777   2.428 -0.4568 -0.6280 -0.4558
  197MOL0     O27051   9.963   2.646   2.403 -1.0104  0.5158  0.1406
  197MOL0     C27052  10.057   2.585   2.322  0.1310  0.7873 -1.0233
  197MOL0     C27053  10.017   2.512   2.209  0.3492  0.2741 -0.3239
  197MOL0     C27054  10.106   2.438   2.139 -0.9019 -0.1889  0.3071
  197MOL0     C27055  10.245   2.435   2.169  1.2155 -0.5063  0.4497
  197MOL0     O27056  10.340   2.386   2.094  0.5058 -0.5170  0.4627
  197MOL0     C27057  10.341   2.427   1.962 -0.0735 -0.3400 -0.4931
  197MOL0     C27058  10.470   2.387   1.869  0.1239 -0.0333  0.0076
  197MOL0     C27059  10.602   2.428   1.939 -0.3681 -0.0408 -0.6815
  197MOL0     C27060  10.718   2.331   1.935  0.7047  0.2378  0.7425
  197MOL0     C27061  10.842   2.384   1.995  0.2294 -0.5190  0.7838
  197MOL0     C27062  10.952   2.283   1.966  0.0448  0.2101  0.5761
  197MOL0     C27063  11.081   2.362   2.002 -0.1604  0.0637  0.4311
  197MOL0     C27064  11.210   2.288   1.968 -0.0909  0.0287 -0.2533
  197MOL0     N27065  11.315   2.333   2.045  0.3817 -0.6167 -0.6273
  197MOL0     C27066  11.404   2.436   2.017  0.3769 -0.0210 -0.0768
  197MOL0     C27067  11.495   2.425   2.114 -0.3837 -0.9173 -0.1135
  197MOL0     C27068  11.615   2.511   2.108 -0.2882 -0.2532 -0.6167
  197MOL0     C27069  11.757   2.464   2.163  1.2335  0.0826  0.2221
  197MOL0     C27070  11.868   2.565   2.107 -0.1618  0.7872  0.4973
  197MOL0     C27071  12.017   2.536   2.152 -0.3669 -0.5355  0.1789
  197MOL0     O27072  12.058   2.400   2.130  0.0174  0.0737 -0.0271
  197MOL0     C27073  12.172   2.355   2.195  0.2136  0.3821 -0.2472
  197MOL0     C27074  12.231   2.244   2.133  0.8142  0.5564 -0.2149
  197MOL0     C27075  12.326   2.172   2.206  0.4867 -0.7631  0.5555
  197MOL0     C27076  12.380   2.051   2.135  0.2266  0.7121  0.1476
  197MOL0     C27077  12.382   2.227   2.327  0.6179  0.1203  0.3743
  197MOL0     C27078  12.502   2.172   2.391  0.2069  0.5361  0.5047
  197MOL0     O27079  12.525   2.209   2.521 -0.0347 -0.5726  0.0166
  197MOL0     C27080  12.642   2.171   2.581 -0.6573 -0.3807 -0.4722
  197MOL0     C27081  12.681   2.254   2.687 -0.6296  0.6276 -0.1794
  197MOL0     C27082  12.793   2.211   2.765  1.0770 -0.3502 -0.3165
  197MOL0     C27083  12.846   2.082   2.761  0.3824  0.5063  0.6329
  197MOL0     O27084  12.949   2.037   2.839  0.5106 -0.0915  0.5361
  197MOL0     C27085  13.068   2.111   2.815  1.0760 -0.8585  0.3002
  197MOL0     C27086  13.189   2.041   2.870  1.0243 -0.3568  0.1051
  197MOL0     C27087  13.176   2.002   3.014  0.2685 -0.4767  0.3382
  197MOL0     C27088  13.290   1.905   3.064 -0.6908 -0.1666 -0.3496
  197MOL0     C27089  13.268   1.849   3.203  0.0560  0.1934 -0.5921
  197MOL0     C27090  13.388   1.774   3.259  0.4300  0.2574 -0.2229
  197MOL0     C27091  13.482   1.875   3.328  0.1506 -0.9088 -0.0652
  197MOL0     C27092  13.632   1.873   3.272 -0.2487  0.3646  0.1507
  197MOL0    Cl27093  13.743   1.942   3.393 -0.0512 -0.0454 -0.0197
  197MOL0     C27094  12.792   1.998   2.662 -0.1672 -0.3705 -0.1265
  197MOL0     C27095  12.701   2.048   2.570 -0.7267 -0.3024 -0.0882
  197MOL0     O27096  12.580   2.111   2.318 -0.3499  0.2282 -0.4391
  197MOL0     C27097  12.326   2.345   2.373 -0.5650 -0.2628 -0.1297
  197MOL0     C27098  12.223   2.404   2.315  0.2029  0.3422  0.0085
  197MOL0     N27099  11.453   2.326   2.211  0.2812 -0.1987  0.3327
  197MOL0     N27100  11.350   2.264   2.161 -0.4865  0.7788  0.1677
  197MOL0     C27101  10.279   2.503   2.286  0.5237 -0.2926  0.4638
  197MOL0     C27102  10.191   2.575   2.370  0.8607 -0.6342  1.4785
  197MOL0     C27103   9.887   2.856   2.513  0.2590 -0.1341 -0.2192
  197MOL0     C27104   9.934   2.966   2.587  0.2410 -0.7488  0.8497
  197MOL0     C27105   9.855   3.045   2.673 -0.1095  0.4036  0.6730
  197MOL0     C27106   9.730   3.007   2.694 -0.8731  0.0471  0.4630
  197MOL0     O27107   9.650   3.072   2.781 -0.0269 -0.2600  0.0585
  197MOL0     C27108   9.702   3.140   2.898  0.6617  0.2553 -0.1448
  197MOL0     C27109   9.599   3.228   2.963  0.0199 -0.3547 -0.3819
  197MOL0     C27110   9.492   3.145   3.041  0.8762  0.5609  0.3792
  197MOL0     C27111   9.393   3.237   3.110  0.0642 -0.3775 -0.0906
  197MOL0     C27112   9.263   3.176   3.138 -0.0558  1.1790 -0.6169
  197MOL0     C27113   9.150   3.122   3.145  0.1999  0.0966  0.9525
  197MOL0     C27114   9.680   2.900   2.621  1.1139 -0.3058 -0.2116
  197MOL0     C27115   9.750   2.819   2.536  0.5721  0.5654 -0.1173
  197MOL0     C27116   9.677   2.719   2.457  0.0047  0.6100  1.1956
  197MOL0     H27117   9.915   2.524   2.174  0.8436  1.5750 -1.3992
  197MOL0     H27118  10.072   2.388   2.049 -0.7162  0.3337 -0.0556
  197MOL0     H27119  10.336   2.535   1.942  0.8267 -0.9166 -4.7173
  197MOL0     H27120  10.259   2.374   1.914 -0.7898  0.1350  0.1688
  197MOL0     H27121  10.458   2.281   1.848 -0.1157  0.2330 -1.2817
  197MOL0     H27122  10.478   2.437   1.772 -0.1599  0.1632  0.0827
  197MOL0     H27123  10.626   2.529   1.904 -0.2351 -0.8937 -3.1897
  197MOL0     H27124  10.583   2.436   2.047  1.6386 -0.1072 -0.2748
  197MOL0     H27125  10.698   2.237   1.988  1.1674  0.3422  1.1152
  197MOL0     H27126  10.736   2.303   1.831  0.0933 -2.5015  1.2910
  197MOL0     H27127  10.824   2.385   2.103  1.7376  2.2212  1.0870
  197MOL0     H27128  10.865   2.482   1.955  1.4162 -0.7159  0.9596
  197MOL0     H27129  10.945   2.189   2.022  1.2035 -0.2951 -0.0928
  197MOL0     H27130  10.950   2.263   1.858  2.6805  1.2830  0.2726
  197MOL0     H27131  11.076   2.382   2.109 -2.0375  1.6832  0.0991
  197MOL0     H27132  11.087   2.454   1.942  0.4638 -0.9232 -1.0698
  197MOL0     H27133  11.189   2.181   1.968  2.0553 -0.4388 -0.0417
  197MOL0     H27134  11.232   2.323   1.867  1.4574  0.6888  0.2835
  197MOL0     H27135  11.403   2.506   1.934 -0.7282 -2.5809 -2.4065
  197MOL0     H27136  11.589   2.609   2.148 -1.8514 -1.4207  1.4072
  197MOL0     H27137  11.629   2.532   2.001 -0.0704  0.6547 -0.4178
  197MOL0     H27138  11.756   2.471   2.273 -0.7749  1.5903  0.1716
  197MOL0     H27139  11.774   2.363   2.125  1.0915  0.6456 -1.3844
  197MOL0     H27140  11.853   2.562   1.999 -3.0133 -0.2957  0.8164
  197MOL0     H27141  11.833   2.666   2.129 -1.3110  0.5246 -0.0122
  197MOL0     H27142  12.080   2.601   2.090  1.1827 -2.9759 -0.9475
  197MOL0     H27143  12.028   2.583   2.250 -1.7953  0.7638 -0.2327
  197MOL0     H27144  12.192   2.207   2.039  1.2189 -1.5881  0.3931
  197MOL0     H27145  12.295   1.995   2.094 -1.0301  1.9099  1.0424
  197MOL0     H27146  12.429   1.977   2.200  0.0181 -1.0252 -1.5844
  197MOL0     H27147  12.445   2.089   2.057 -0.3394  3.0116  0.7394
  197MOL0     H27148  12.634   2.350   2.706  2.0944  2.0119  0.1324
  197MOL0     H27149  12.838   2.282   2.835 -0.9344  0.6719  0.0362
  197MOL0     H27150  13.074   2.129   2.707 -1.4449 -0.1838  0.2156
  197MOL0     H27151  13.059   2.209   2.861 -1.4542 -0.6950 -0.3573
  197MOL0     H27152  13.213   1.957   2.803  2.1643 -2.3265  2.8020
  197MOL0     H27153  13.276   2.107   2.878  0.7654  0.0533 -0.4008
  197MOL0     H27154  13.093   1.937   3.042  0.7094 -1.3358 -0.2929
  197MOL0     H27155  13.154   2.091   3.074  0.4102 -0.6313  0.6203
  197MOL0     H27156  13.382   1.965   3.068 -0.3846 -0.6821  1.8163
  197MOL0     H27157  13.303   1.816   3.002  0.2926 -0.6800  0.5577
  197MOL0     H27158  13.235   1.934   3.263  0.5266 -0.3415  0.4423
  197MOL0     H27159  13.186   1.780   3.184  1.7109 -2.1816  0.3437
  197MOL0     H27160  13.420   1.714   3.173 -1.5410 -0.5627 -0.4220
  197MOL0     H27161  13.352   1.707   3.337  1.1118  0.7877  0.5623
  197MOL0     H27162  13.470   1.853   3.434 -3.1192 -1.0659 -0.3621
  197MOL0     H27163  13.452   1.979   3.318 -2.3631 -1.5467  0.1179
  197MOL0     H27164  13.632   1.923   3.175 -1.2628  1.6915  0.8038
  197MOL0     H27165  13.664   1.771   3.250 -0.4362  0.7059 -1.8817
  197MOL0     H27166  12.826   1.895   2.661 -0.0367 -0.3368  0.7358
  197MOL0     H27167  12.675   1.973   2.496  3.0293 -0.7663 -1.1755
  197MOL0     H27168  12.355   2.393   2.466 -0.1293 -0.1313 -0.3311
  197MOL0     H27169  12.192   2.500   2.354 -1.3834  0.4130 -1.3014
  197MOL0     H27170  10.387   2.507   2.300  0.4102  1.0578  1.1585
  197MOL0     H27171  10.225   2.621   2.462 -0.8158  0.4506  1.6010
  197MOL0     H27172  10.029   3.018   2.591  0.0203 -0.3695  3.7927
  197MOL0     H27173   9.895   3.136   2.717  1.9715  0.2927 -0.8570
  197MOL0     H27174   9.736   3.061   2.966 -3.3236 -1.0631  0.5598
  197MOL0     H27175   9.785   3.210   2.878 -1.0827  2.3435 -0.4237
  197MOL0     H27176   9.560   3.305   2.897  0.8824  1.2826  0.9468
  197MOL0     H27177   9.659   3.285   3.035  1.1299 -2.9086  0.8519
  197MOL0     H27178   9.439   3.081   2.970  0.8618  2.1453 -1.1232
  197MOL0     H27179   9.544   3.079   3.110 -2.9724 -0.3451  2.6961
  197MOL0     H27180   9.380   3.333   3.058 -0.1296 -0.3652 -0.0206
  197MOL0     H27181   9.458   3.263   3.194 -0.5012  0.8388 -0.0019
  197MOL0     H27182   9.054   3.076   3.133 -0.3420  1.0858  1.4147
  197MOL0     H27183   9.573   2.901   2.634  0.8298 -0.7082 -2.1881
  197MOL0     H27184   9.652   2.777   2.367 -1.3506  0.5406  1.5015
  197MOL0     H27185   9.727   2.626   2.428 -0.7098  0.3199  0.8654
  197MOL0     H27186   9.582   2.699   2.507  0.0313  0.8227  1.3292
  198MOL0     O27187   8.367   8.572   5.923  0.2262 -0.2898  0.2814
  198MOL0     C27188   8.300   8.668   5.888 -0.0410 -0.4123 -0.1259
  198MOL0     O27189   8.322   8.731   5.768  0.6470 -0.3409 -0.3126
  198MOL0     C27190   8.433   8.702   5.690  0.7393  0.1553  0.2074
  198MOL0     C27191   8.555   8.646   5.738  0.4949 -0.8745 -1.0685
  198MOL0     C27192   8.654   8.606   5.645  0.5374 -0.6019  0.1287
  198MOL0     C27193   8.636   8.621   5.505  0.5599 -0.1978 -0.0087
  198MOL0     O27194   8.738   8.596   5.419  0.3342  0.4819 -0.2576
  198MOL0     C27195   8.790   8.716   5.360 -0.7262 -0.3240 -0.1668
  198MOL0     C27196   8.920   8.704   5.285  0.3666  0.2510  0.7771
  198MOL0     C27197   9.025   8.638   5.371  1.0537 -0.2406  0.4444
  198MOL0     C27198   9.144   8.586   5.287  0.3486  0.2433 -0.3734
  198MOL0     C27199   9.189   8.688   5.172  0.0765  0.3833  0.0858
  198MOL0     C27200   9.220   8.823   5.224 -1.0063 -0.2620 -0.3812
  198MOL0     C27201   9.255   8.917   5.116  0.9749 -0.4669  0.0308
  198MOL0     C27202   9.158   9.038   5.120  0.1175 -0.4695  0.0133
  198MOL0     N27203   9.227   9.146   5.053 -0.8516 -0.3577  0.0539
  198MOL0     C27204   9.344   9.219   5.100  0.5520  0.0462 -0.1713
  198MOL0     C27205   9.373   9.318   5.001 -0.3665  0.7183 -0.3108
  198MOL0     C27206   9.475   9.424   5.034 -0.0587 -0.0685 -0.5053
  198MOL0     C27207   9.487   9.516   4.915  0.1574  0.7006  0.0859
  198MOL0     C27208   9.581   9.636   4.947  0.2971  0.3855  0.2486
  198MOL0     C27209   9.730   9.596   4.949  0.9820  0.6645 -0.4934
  198MOL0     O27210   9.794   9.697   5.028 -0.1184  0.1577  0.3877
  198MOL0     C27211   9.928   9.682   5.049  0.4943  0.0906  0.6669
  198MOL0     C27212   9.987   9.802   5.096  0.3725  0.1945  0.0375
  198MOL0     C27213  10.131   9.806   5.127  0.1584  0.3132  0.0520
  198MOL0     C27214  10.181   9.939   5.198 -0.2422  0.9064  0.2020
  198MOL0     C27215  10.212   9.699   5.098 -0.3051 -0.6787  0.1473
  198MOL0     C27216  10.358   9.695   5.122 -0.6178 -0.2772 -0.0780
  198MOL0     O27217  10.418   9.796   5.191  0.6217 -0.0825  0.0764
  198MOL0     C27218  10.555   9.793   5.214 -0.7950  0.1269  0.8267
  198MOL0     C27219  10.619   9.916   5.196 -0.8066  0.3504  0.1934
  198MOL0     C27220  10.752   9.926   5.241 -0.6778  0.2269  0.7793
  198MOL0     C27221  10.829   9.813   5.288  0.0329  0.8292  0.9308
  198MOL0     O27222  10.960   9.819   5.325 -0.3539  0.0420 -0.4491
  198MOL0     C27223  11.042   9.699   5.329 -0.3806  0.7738  1.0358
  198MOL0     C27224  11.088   9.673   5.470 -0.8957  0.8571 -0.4263
  198MOL0     C27225  11.221   9.600   5.469  0.3598 -0.0802 -0.1140
  198MOL0     C27226  11.259   9.552   5.597 -0.2652 -0.3918 -0.4659
  198MOL0     C27227  11.386   9.463   5.594  0.4090 -0.8804  0.0458
  198MOL0     C27228  11.516   9.540   5.553  0.6045  0.6933 -1.3112
  198MOL0     C27229  11.602   9.573   5.674 -0.1439 -0.5259 -0.0382
  198MOL0     C27230  11.747   9.616   5.632  0.2314  1.2726 -0.1571
  198MOL0    Cl27231  11.752   9.735   5.489  0.3479  0.0807 -0.2029
  198MOL0     C27232  10.761   9.689   5.298  0.3751  0.8627 -0.0397
  198MOL0     C27233  10.623   9.679   5.264  0.0726 -0.5842 -0.1872
  198MOL0     O27234  10.417   9.600   5.076 -0.2506 -0.6606  0.7144
  198MOL0     C27235  10.150   9.585   5.044 -0.0736 -0.1492 -1.0272
  198MOL0     C27236  10.009   9.574   5.022  0.5182  0.4420  0.7096
  198MOL0     N27237   9.274   9.306   4.900  0.2603 -0.4179 -0.0040
  198MOL0     N27238   9.197   9.208   4.933 -0.4413  0.6388  0.0392
  198MOL0     C27239   8.520   8.685   5.462  0.0318 -0.5811 -0.1006
  198MOL0     C27240   8.420   8.711   5.547  0.0343  0.4415 -0.3234
  198MOL0     C27241   8.197   8.735   5.975 -0.4082  0.0332 -0.1260
  198MOL0     C27242   8.134   8.849   5.921  0.4614 -0.6927  0.2978
  198MOL0     C27243   8.034   8.918   5.994  0.0815  0.4478 -0.4908
  198MOL0     C27244   7.986   8.872   6.119 -0.2382 -0.1624 -0.5322
  198MOL0     O27245   7.871   8.927   6.176  0.0015  0.2240  0.3872
  198MOL0     C27246   7.868   8.931   6.323 -0.0742 -0.3618  0.3314
  198MOL0     C27247   7.775   8.828   6.383  0.2651 -0.7667 -0.0603
  198MOL0     C27248   7.634   8.827   6.322 -0.0365  0.2041 -0.3742
  198MOL0     C27249   7.544   8.953   6.326  0.0282 -0.2319 -0.6941
  198MOL0     C27250   7.537   8.989   6.468 -0.6487 -0.4887  0.1540
  198MOL0     C27251   7.499   9.026   6.585 -0.7907 -0.0966 -0.5195
  198MOL0     C27252   8.049   8.753   6.174  0.5111  0.7468  0.3025
  198MOL0     C27253   8.152   8.692   6.100 -0.0342 -0.8756 -0.6837
  198MOL0     C27254   8.212   8.570   6.169 -0.8131  0.3657 -0.5875
  198MOL0     H27255   8.575   8.627   5.843  2.2660  1.2969 -0.9453
  198MOL0     H27256   8.751   8.566   5.672  0.0910 -2.1100 -0.4253
  198MOL0     H27257   8.801   8.803   5.427 -4.1656  2.8261 -3.2168
  198MOL0     H27258   8.723   8.745   5.279  0.3173 -0.3743 -1.0582
  198MOL0     H27259   8.901   8.658   5.188  0.7276 -0.9161  1.2449
  198MOL0     H27260   8.943   8.807   5.255  1.5372 -0.8358 -2.4673
  198MOL0     H27261   9.059   8.693   5.459  0.7293 -0.6250  0.8156
  198MOL0     H27262   8.977   8.545   5.400 -2.9508  1.2974 -0.5655
  198MOL0     H27263   9.231   8.574   5.352  2.7372 -0.5069 -3.4834
  198MOL0     H27264   9.123   8.488   5.244  0.9294  0.2493 -0.6757
  198MOL0     H27265   9.109   8.709   5.100 -0.2669  3.5414  1.2481
  198MOL0     H27266   9.277   8.649   5.119  0.8173 -0.5603  1.9233
  198MOL0     H27267   9.148   8.870   5.291 -3.4865  2.1810 -4.3543
  198MOL0     H27268   9.309   8.808   5.285 -1.1070  1.5721  0.2650
  198MOL0     H27269   9.237   8.863   5.022  1.7968  0.9269 -0.9737
  198MOL0     H27270   9.360   8.945   5.122  0.9049  0.0388 -0.8998
  198MOL0     H27271   9.059   9.018   5.078 -0.1185 -1.6181  1.0763
  198MOL0     H27272   9.154   9.075   5.223  0.4479 -0.1590 -0.0798
  198MOL0     H27273   9.394   9.199   5.194  0.1202 -4.9373 -0.7314
  198MOL0     H27274   9.567   9.366   5.046  0.0486  0.2610  0.3326
  198MOL0     H27275   9.441   9.487   5.117 -0.3296  1.4138 -1.7008
  198MOL0     H27276   9.530   9.460   4.831 -1.4648 -1.0128  0.3191
  198MOL0     H27277   9.388   9.555   4.888  0.4445  1.7823  0.5723
  198MOL0     H27278   9.570   9.714   4.871  3.5945 -0.1531 -0.9652
  198MOL0     H27279   9.556   9.692   5.038 -1.2651  1.0656 -0.5559
  198MOL0     H27280   9.732   9.503   5.007 -2.8302 -0.6361 -2.1469
  198MOL0     H27281   9.774   9.588   4.849 -1.9740  2.9133 -2.1089
  198MOL0     H27282   9.933   9.894   5.115  1.1198  0.2737  1.9974
  198MOL0     H27283  10.249   9.993   5.132 -1.9890  0.7389 -1.8622
  198MOL0     H27284  10.220   9.923   5.299 -2.4015 -1.6480  0.7538
  198MOL0     H27285  10.096  10.004   5.222  1.7334  2.5372  3.5872
  198MOL0     H27286  10.584  10.003   5.143 -1.9652 -0.6431 -0.7223
  198MOL0     H27287  10.802  10.022   5.227  2.2207 -1.1935  0.4710
  198MOL0     H27288  10.998   9.608   5.288  0.8648  0.8581 -0.5912
  198MOL0     H27289  11.122   9.730   5.261  0.5226  1.2616  2.2648
  198MOL0     H27290  11.097   9.762   5.533 -2.0985  0.7687 -0.0921
  198MOL0     H27291  11.014   9.609   5.520 -0.2329  1.4182  1.3667
  198MOL0     H27292  11.291   9.665   5.416  1.0139 -1.0725 -0.5138
  198MOL0     H27293  11.219   9.507   5.410  3.5568  1.5022 -3.0850
  198MOL0     H27294  11.170   9.503   5.639 -1.1827  0.3030 -1.5528
  198MOL0     H27295  11.270   9.627   5.676 -0.3596 -1.1881  0.3223
  198MOL0     H27296  11.402   9.425   5.695  0.6555  1.3946  0.9273
  198MOL0     H27297  11.375   9.385   5.519 -1.5603  3.1432 -4.3956
  198MOL0     H27298  11.498   9.632   5.496  3.5428  1.6823 -0.8550
  198MOL0     H27299  11.582   9.476   5.492  2.0306  0.7752  0.0690
  198MOL0     H27300  11.608   9.498   5.754  2.7865 -0.0607  0.2780
  198MOL0     H27301  11.547   9.651   5.727 -0.0619 -0.4347 -0.0867
  198MOL0     H27302  11.809   9.535   5.594 -2.2500 -0.4475 -0.8163
  198MOL0     H27303  11.789   9.656   5.725  0.2225  0.4707  0.1975
  198MOL0     H27304  10.797   9.603   5.354 -2.2634 -0.0562  0.3749
  198MOL0     H27305  10.570   9.585   5.267  1.0866 -1.2446 -1.7284
  198MOL0     H27306  10.212   9.497   5.027  1.2669  0.7855 -1.1030
  198MOL0     H27307   9.968   9.487   4.970  1.0797  1.8718 -2.3559
  198MOL0     H27308   8.514   8.701   5.355  2.2831 -1.3489 -0.3896
  198MOL0     H27309   8.330   8.760   5.511 -0.2870  0.9670  1.1293
  198MOL0     H27310   8.157   8.891   5.824  2.0994 -1.1709  0.4421
  198MOL0     H27311   7.989   9.002   5.943  0.7554 -0.2097 -2.2560
  198MOL0     H27312   7.969   8.919   6.363  0.5511 -0.1980 -1.1609
  198MOL0     H27313   7.824   9.023   6.363  0.3353  0.2649 -0.6176
  198MOL0     H27314   7.761   8.838   6.491 -0.9666  0.4990 -0.3103
  198MOL0     H27315   7.821   8.730   6.366 -0.4313 -1.7435  3.0557
  198MOL0     H27316   7.643   8.807   6.215 -0.0844  1.4630 -0.6349
  198MOL0     H27317   7.577   8.748   6.372 -1.5287  0.6321 -1.3159
  198MOL0     H27318   7.446   8.938   6.279  0.0794  1.0909 -1.2599
  198MOL0     H27319   7.594   9.036   6.276  2.5407 -1.1849  0.0756
  198MOL0     H27320   7.482   9.061   6.685 -0.1697  2.8233 -1.3465
  198MOL0     H27321   8.009   8.721   6.270 -2.1043  2.8672  0.0215
  198MOL0     H27322   8.148   8.532   6.249 -1.3768  3.0027  0.3237
  198MOL0     H27323   8.231   8.491   6.096  0.0996  1.5147 -1.6488
  198MOL0     H27324   8.309   8.599   6.211 -0.1025 -2.5520  0.0357
  199MOL0     O27325   5.357   6.963  10.456  0.3583 -0.2133 -0.3953
  199MOL0     C27326   5.437   6.930  10.367  0.6597 -0.1961 -0.5229
  199MOL0     O27327   5.571   6.964  10.360  0.0393 -0.0080 -0.7334
  199MOL0     C27328   5.624   7.014  10.480 -0.0683 -0.6099 -0.4572
  199MOL0     C27329   5.721   7.120  10.467  0.4867 -0.9398 -0.9221
  199MOL0     C27330   5.787   7.168  10.581  0.3789  0.4865 -1.0030
  199MOL0     C27331   5.764   7.115  10.712  0.6895 -0.3932 -0.0678
  199MOL0     O27332   5.834   7.171  10.819  1.1411  0.2015  0.1022
  199MOL0     C27333   5.811   7.122  10.955  0.6866 -0.6147 -0.3871
  199MOL0     C27334   5.911   7.009  10.996 -1.3340  0.2972 -0.4925
  199MOL0     C27335   6.061   7.064  11.017  0.0861  0.1299 -0.2095
  199MOL0     C27336   6.174   6.964  11.021  0.0506  0.1534 -0.2265
  199MOL0     C27337   6.300   7.023  10.959 -0.0573 -0.6160  0.4608
  199MOL0     C27338   6.424   6.932  10.937  0.9705 -0.4498  0.2711
  199MOL0     C27339   6.496   6.871  11.062  0.8960  0.1237 -0.1663
  199MOL0     C27340   6.546   6.982  11.152  0.7600 -0.2450 -0.9935
  199MOL0     N27341   6.641   7.070  11.081  0.0951  0.1627 -0.1881
  199MOL0     C27342   6.768   7.043  11.041 -0.0331 -0.3624 -0.1380
  199MOL0     C27343   6.801   7.151  10.967  0.1616 -0.5748 -0.1818
  199MOL0     C27344   6.926   7.194  10.899  0.2897 -0.3193 -0.7586
  199MOL0     C27345   7.065   7.125  10.932  0.9345 -0.2200 -0.3493
  199MOL0     C27346   7.168   7.169  10.833  0.1147  0.0447  0.1177
  199MOL0     C27347   7.305   7.119  10.882  0.3009  0.0003 -0.5625
  199MOL0     O27348   7.306   6.972  10.881 -0.5080 -0.1306  0.0906
  199MOL0     C27349   7.420   6.908  10.918  0.2619  0.7347 -0.1029
  199MOL0     C27350   7.421   6.768  10.920  0.4289 -0.6325  0.8369
  199MOL0     C27351   7.532   6.690  10.949 -0.1357 -0.4755 -0.2035
  199MOL0     C27352   7.519   6.536  10.931  0.0048  0.5590  0.0403
  199MOL0     C27353   7.645   6.762  10.996  0.4541 -0.0260 -0.1588
  199MOL0     C27354   7.769   6.700  11.058  0.2711 -0.2360  0.7861
  199MOL0     O27355   7.864   6.775  11.105 -0.5164  1.1512 -0.5661
  199MOL0     C27356   7.990   6.721  11.136  0.5121 -0.6209 -0.9615
  199MOL0     C27357   8.034   6.743  11.272  0.1609 -0.1308  0.1201
  199MOL0     C27358   8.156   6.702  11.321 -0.0524  0.3612  0.6137
  199MOL0     C27359   8.235   6.626  11.240  0.4275  0.0328  0.2433
  199MOL0     O27360   8.362   6.608  11.283 -0.1510  0.3505 -0.9115
  199MOL0     C27361   8.390   6.518  11.391  0.7867  0.4211 -0.1042
  199MOL0     C27362   8.528   6.532  11.446 -0.5984  0.4814  0.1159
  199MOL0     C27363   8.641   6.536  11.341  0.0842 -0.0922 -0.9831
  199MOL0     C27364   8.781   6.500  11.394  1.1698  0.2772  0.5205
  199MOL0     C27365   8.895   6.528  11.291  0.4326 -0.1652 -0.1300
  199MOL0     C27366   9.025   6.447  11.337  0.4825  0.1856 -0.2861
  199MOL0     C27367   9.065   6.452  11.485 -0.2102 -0.3103 -0.6317
  199MOL0     C27368   9.093   6.590  11.535 -0.1247  0.1068 -0.2091
  199MOL0    Cl27369   9.213   6.648  11.426 -0.1735  0.0223  0.0148
  199MOL0     C27370   8.190   6.592  11.113 -0.3807 -0.2642  0.7101
  199MOL0     C27371   8.068   6.639  11.054 -0.1688 -1.2032 -0.6780
  199MOL0     O27372   7.772   6.578  11.051  0.6038  0.3943  0.1021
  199MOL0     C27373   7.642   6.903  10.992  0.2972  0.4930 -0.1724
  199MOL0     C27374   7.538   6.978  10.956  0.7624  0.3543  0.5307
  199MOL0     N27375   6.698   7.241  10.971  0.9164  0.3715 -0.3043
  199MOL0     N27376   6.605   7.193  11.038 -0.4237  0.2648  0.2458
  199MOL0     C27377   5.669   7.012  10.723 -0.3552  0.3305  0.1559
  199MOL0     C27378   5.607   6.957  10.608 -0.0209 -0.3195 -0.0799
  199MOL0     C27379   5.380   6.862  10.253  0.2138  0.6333  0.5691
  199MOL0     C27380   5.269   6.776  10.270  0.3095  0.6262  0.1051
  199MOL0     C27381   5.204   6.723  10.157  0.6954  0.3347  0.2021
  199MOL0     C27382   5.253   6.732  10.019  0.9329 -0.0937 -1.0892
  199MOL0     O27383   5.193   6.672   9.909 -0.0053 -0.0491 -0.2527
  199MOL0     C27384   5.105   6.558   9.924 -0.2370  0.1680 -0.0883
  199MOL0     C27385   5.022   6.523   9.799 -0.3970  0.3055 -0.8761
  199MOL0     C27386   4.910   6.630   9.781  0.4158 -0.4499  0.6847
  199MOL0     C27387   4.812   6.597   9.667 -0.0478 -0.1833  0.2237
  199MOL0     C27388   4.698   6.680   9.658 -0.8494 -0.4431 -0.7077
  199MOL0     C27389   4.598   6.743   9.662 -0.6614  0.2037  0.5712
  199MOL0     C27390   5.346   6.827  10.005 -0.5418  0.7498 -0.3569
  199MOL0     C27391   5.414   6.891  10.115 -0.4461 -0.5868 -0.1665
  199MOL0     C27392   5.516   6.994  10.077  0.1121  0.4395  0.0882
  199MOL0     H27393   5.753   7.165  10.373 -1.8710  1.9901 -0.4908
  199MOL0     H27394   5.850   7.256  10.573  1.4840 -0.1705  0.1214
  199MOL0     H27395   5.707   7.093  10.972  0.1760  2.3597  2.5140
  199MOL0     H27396   5.836   7.204  11.023 -0.2819 -0.2947 -0.4031
  199MOL0     H27397   5.885   6.952  11.086  1.4743  0.7471  0.7258
  199MOL0     H27398   5.914   6.936  10.915 -1.8624 -0.4882  0.1769
  199MOL0     H27399   6.068   7.148  10.948  2.2110 -1.2683 -1.8456
  199MOL0     H27400   6.068   7.104  11.119  1.1839 -0.7352  0.0767
  199MOL0     H27401   6.196   6.918  11.118  2.4063 -1.5234 -1.4402
  199MOL0     H27402   6.140   6.888  10.950 -1.2201  1.3487 -0.9621
  199MOL0     H27403   6.325   7.096  11.036 -0.9422 -2.0064  2.1300
  199MOL0     H27404   6.268   7.074  10.867 -1.0778 -4.1672 -1.3321
  199MOL0     H27405   6.392   6.845  10.878 -3.1451 -0.0557  1.5860
  199MOL0     H27406   6.505   6.977  10.879  0.6037  0.2647  0.3090
  199MOL0     H27407   6.581   6.808  11.033  1.2225 -0.9631  2.8675
  199MOL0     H27408   6.431   6.804  11.119  1.8642 -1.2429 -0.6171
  199MOL0     H27409   6.457   7.030  11.195 -0.3613 -4.0267  1.4043
  199MOL0     H27410   6.598   6.938  11.237 -1.9107  0.2956  1.0853
  199MOL0     H27411   6.832   6.956  11.055 -0.7339 -0.8869 -0.1655
  199MOL0     H27412   6.939   7.301  10.917 -0.4276 -0.7650  3.3878
  199MOL0     H27413   6.907   7.189  10.791  1.9905  1.2307 -1.1802
  199MOL0     H27414   7.103   7.148  11.032  2.1598  3.5977 -1.5141
  199MOL0     H27415   7.041   7.019  10.917 -1.4659 -0.0920  1.9270
  199MOL0     H27416   7.153   7.120  10.737 -0.3357 -0.2153  0.3193
  199MOL0     H27417   7.165   7.279  10.828  2.0034  0.4700  4.0296
  199MOL0     H27418   7.383   7.160  10.816  0.7418 -0.4171 -0.3065
  199MOL0     H27419   7.331   7.154  10.982  0.2879 -2.6637  0.4394
  199MOL0     H27420   7.321   6.728  10.909 -1.0878  2.8145  0.8611
  199MOL0     H27421   7.609   6.487  10.892 -0.7877 -1.7353  0.9191
  199MOL0     H27422   7.445   6.521  10.852  0.7221  1.6348 -0.8699
  199MOL0     H27423   7.488   6.487  11.024 -2.1069 -2.3090 -2.0187
  199MOL0     H27424   7.978   6.810  11.336  1.0323 -0.0950  0.8812
  199MOL0     H27425   8.196   6.740  11.414 -1.1796  0.1847  1.1922
  199MOL0     H27426   8.322   6.523  11.477  0.0554 -0.0565 -0.6396
  199MOL0     H27427   8.372   6.424  11.337 -0.1182  2.4452 -3.6167
  199MOL0     H27428   8.535   6.618  11.514  0.2025  1.3138 -0.9794
  199MOL0     H27429   8.544   6.450  11.517  0.7235  0.2065 -0.4705
  199MOL0     H27430   8.656   6.630  11.287  2.0559  0.6509  0.7024
  199MOL0     H27431   8.603   6.464  11.269  1.9857 -3.8808  1.4516
  199MOL0     H27432   8.782   6.392  11.412 -0.2232  0.2306  0.3798
  199MOL0     H27433   8.800   6.554  11.487 -2.2860 -0.4738  1.7822
  199MOL0     H27434   8.859   6.493  11.194  1.9495  0.8001 -1.0658
  199MOL0     H27435   8.919   6.634  11.280  1.5666 -0.5443 -1.5823
  199MOL0     H27436   9.114   6.487  11.289  1.3544  4.1171  3.9202
  199MOL0     H27437   9.013   6.339  11.319 -4.4188  0.6881 -1.4079
  199MOL0     H27438   9.158   6.395  11.498 -1.7213 -2.4252  2.1056
  199MOL0     H27439   9.002   6.392  11.552 -1.0108 -0.7579 -1.7674
  199MOL0     H27440   9.140   6.586  11.633  0.8981  5.0312 -0.2201
  199MOL0     H27441   9.003   6.652  11.541 -1.3806 -1.4869 -1.6263
  199MOL0     H27442   8.256   6.525  11.060  0.8110  1.0484  0.4881
  199MOL0     H27443   8.035   6.599  10.958 -0.2975 -1.7941 -0.3892
  199MOL0     H27444   7.729   6.953  11.034  0.3581 -0.1629  0.5051
  199MOL0     H27445   7.549   7.085  10.947  1.5265  0.1106 -3.0614
  199MOL0     H27446   5.647   6.962  10.816 -0.5800  0.5071  0.1972
  199MOL0     H27447   5.543   6.870  10.609 -0.8600  0.2629 -1.1863
  199MOL0     H27448   5.229   6.750  10.368  1.9790 -0.8769  0.4302
  199MOL0     H27449   5.126   6.651  10.182  1.0465  0.1024  0.6417
  199MOL0     H27450   5.175   6.477   9.946  0.3466  0.2818 -1.4393
  199MOL0     H27451   5.041   6.586  10.008 -2.3703 -2.3278 -0.7461
  199MOL0     H27452   4.982   6.423   9.818  1.3739 -0.8282 -2.7288
  199MOL0     H27453   5.094   6.514   9.717 -0.8157 -1.1362 -1.1111
  199MOL0     H27454   4.857   6.638   9.876  1.2210 -1.0400  1.1950
  199MOL0     H27455   4.953   6.728   9.754  0.2357 -1.0025 -1.8175
  199MOL0     H27456   4.773   6.495   9.668 -1.2791  0.2588  0.1633
  199MOL0     H27457   4.854   6.617   9.568 -0.8538  0.3727 -0.0203
  199MOL0     H27458   4.499   6.784   9.675 -0.9279 -0.5022  0.7956
  199MOL0     H27459   5.365   6.862   9.904  3.4537  1.4697  0.5061
  199MOL0     H27460   5.503   7.035   9.977 -2.5774  0.9763  0.5661
  199MOL0     H27461   5.509   7.085  10.136  4.2075  1.0218 -0.0590
  199MOL0     H27462   5.612   6.944  10.093  0.2815  0.3062 -1.2734
  200MOL0     O27463  11.179   6.575   7.457  0.1402  0.0353 -0.2542
  200MOL0     C27464  11.172   6.524   7.344  0.6942 -0.2890 -0.0265
  200MOL0     O27465  11.253   6.561   7.238  0.2791  0.3308  0.0051
  200MOL0     C27466  11.343   6.656   7.265  0.2777 -0.4639  0.9301
  200MOL0     C27467  11.480   6.633   7.283 -0.1673 -0.0026  0.9269
  200MOL0     C27468  11.571   6.739   7.303  0.1266 -0.2470  0.3470
  200MOL0     C27469  11.528   6.875   7.294 -0.4809  0.7095  0.5781
  200MOL0     O27470  11.607   6.990   7.293  0.8645  0.0153 -0.4198
  200MOL0     C27471  11.743   6.996   7.240  0.4869  0.8893  0.9827
  200MOL0     C27472  11.734   6.981   7.083  0.3328  0.1917 -0.6113
  200MOL0     C27473  11.864   6.993   7.014  0.7101 -0.4561 -0.7544
  200MOL0     C27474  11.857   6.937   6.874 -0.2574 -0.4320  0.1270
  200MOL0     C27475  11.979   6.983   6.796  0.0935  0.3941  0.1023
  200MOL0     C27476  12.122   6.946   6.864  0.3529 -0.4512 -1.2983
  200MOL0     C27477  12.254   6.982   6.782  0.1708  0.5901  0.3820
  200MOL0     C27478  12.270   7.135   6.762  0.3981 -0.0677 -0.6895
  200MOL0     N27479  12.395   7.177   6.684  0.0826 -0.5118  0.2784
  200MOL0     C27480  12.444   7.308   6.674 -0.2478 -0.0193 -0.0167
  200MOL0     C27481  12.560   7.307   6.605  0.6294  0.8554  0.6694
  200MOL0     C27482  12.634   7.436   6.582 -0.9913 -0.8862  0.9213
  200MOL0     C27483  12.782   7.416   6.534 -0.6833 -0.5023  0.1488
  200MOL0     C27484  12.865   7.530   6.588  0.4557  0.3413  0.1276
  200MOL0     C27485  13.010   7.538   6.539 -0.7077  0.7954  1.4216
  200MOL0     O27486  13.070   7.407   6.545 -0.2142 -0.4558 -0.1356
  200MOL0     C27487  13.189   7.377   6.482 -0.1337 -0.6336 -0.1499
  200MOL0     C27488  13.275   7.474   6.427 -0.3486 -0.8128 -1.3232
  200MOL0     C27489  13.389   7.434   6.364 -0.0658 -0.0074  0.5812
  200MOL0     C27490  13.486   7.542   6.322  0.5787 -0.0569 -0.0463
  200MOL0     C27491  13.415   7.298   6.337 -0.5369 -1.0187 -0.3510
  200MOL0     C27492  13.526   7.240   6.259  0.4154 -0.8966 -0.5715
  200MOL0     O27493  13.627   7.326   6.204  0.2137  0.3794 -0.1781
  200MOL0     C27494  13.751   7.270   6.194 -0.5099  0.3390  0.3114
  200MOL0     C27495  13.786   7.167   6.106 -1.8188 -0.6721 -0.1723
  200MOL0     C27496  13.916   7.110   6.114  0.0416  0.5436  0.0428
  200MOL0     C27497  14.007   7.155   6.211  0.0557  0.8132 -0.3053
  200MOL0     O27498  14.133   7.092   6.201  0.3261  0.1863 -0.1609
  200MOL0     C27499  14.234   7.115   6.300 -0.6165  0.1711 -0.6836
  200MOL0     C27500  14.344   7.015   6.287 -0.5531  0.3214  0.0776
  200MOL0     C27501  14.424   7.022   6.154  0.0740  0.1258  0.0038
  200MOL0     C27502  14.540   6.916   6.170 -0.4314 -0.6008 -0.6339
  200MOL0     C27503  14.642   6.922   6.057  0.7602  0.4697  0.0511
  200MOL0     C27504  14.744   6.815   6.070 -0.7560 -0.4339  0.1290
  200MOL0     C27505  14.834   6.806   5.946 -0.3666  0.2255  0.3519
  200MOL0     C27506  14.874   6.657   5.921  0.4990 -0.4815 -0.5479
  200MOL0    Cl27507  14.956   6.629   5.776  0.2460 -0.1222  0.1901
  200MOL0     C27508  13.979   7.265   6.293  0.1764 -0.2394 -0.2509
  200MOL0     C27509  13.851   7.330   6.277  0.9379  0.0583 -0.1185
  200MOL0     O27510  13.535   7.113   6.242 -0.1026 -0.5616  0.1316
  200MOL0     C27511  13.322   7.201   6.385 -0.6071 -0.2234  0.4017
  200MOL0     C27512  13.212   7.244   6.454 -0.4378  0.4790  0.2517
  200MOL0     N27513  12.581   7.172   6.574 -0.2970  0.3560 -0.2516
  200MOL0     N27514  12.486   7.105   6.626 -0.2168 -0.4228 -0.4983
  200MOL0     C27515  11.390   6.898   7.275 -1.4084  0.6460 -0.4442
  200MOL0     C27516  11.301   6.786   7.273  0.4388  0.5784  0.0683
  200MOL0     C27517  11.062   6.422   7.312  0.0241  0.6118  1.1135
  200MOL0     C27518  11.015   6.419   7.181 -0.1523  0.3062 -0.8764
  200MOL0     C27519  10.911   6.330   7.145 -0.3772  0.0679 -0.1006
  200MOL0     C27520  10.831   6.274   7.245  0.3239 -0.4147  0.3227
  200MOL0     O27521  10.720   6.197   7.222 -0.0472  0.2841  0.8623
  200MOL0     C27522  10.599   6.266   7.225  0.6617  0.5890 -0.0575
  200MOL0     C27523  10.489   6.183   7.178  0.0920 -0.1328  1.0278
  200MOL0     C27524  10.492   6.169   7.023 -0.0196  0.5324 -0.3676
  200MOL0     C27525  10.365   6.091   6.969 -0.6129  0.2399 -0.2966
  200MOL0     C27526  10.349   5.949   7.020 -0.2047 -0.3017 -0.1097
  200MOL0     C27527  10.330   5.833   7.045  0.0171 -0.3860  0.2487
  200MOL0     C27528  10.883   6.275   7.376  0.3559 -0.2105  0.5113
  200MOL0     C27529  10.999   6.348   7.410 -0.3727  0.7400  0.1392
  200MOL0     C27530  11.039   6.338   7.557 -0.5540 -0.1708  0.3594
  200MOL0     H27531  11.523   6.534   7.271  0.2357  0.3187 -0.4769
  200MOL0     H27532  11.676   6.718   7.321 -0.3283 -2.0056  1.1423
  200MOL0     H27533  11.812   6.927   7.289  0.6471 -0.0152 -0.4553
  200MOL0     H27534  11.771   7.101   7.253  3.2528  0.3537  0.1447
  200MOL0     H27535  11.697   6.879   7.065  0.5836 -0.3214  1.5736
  200MOL0     H27536  11.662   7.056   7.049  1.2283  1.2708 -0.1871
  200MOL0     H27537  11.905   7.094   7.005 -1.8951  0.6907 -0.4897
  200MOL0     H27538  11.929   6.933   7.078  1.6957  0.1988 -1.1136
  200MOL0     H27539  11.842   6.829   6.886  1.5529 -0.4828  2.9768
  200MOL0     H27540  11.772   6.983   6.823  1.6636  1.8609 -1.1907
  200MOL0     H27541  11.975   7.091   6.780 -0.0859  0.4590  0.5756
  200MOL0     H27542  11.970   6.938   6.696 -0.3429 -1.6290  0.9887
  200MOL0     H27543  12.124   7.000   6.960  0.2962 -2.0616 -0.3499
  200MOL0     H27544  12.121   6.838   6.886 -4.0019 -0.2816  0.2011
  200MOL0     H27545  12.235   6.924   6.691 -2.5110  1.3531  0.3562
  200MOL0     H27546  12.348   6.949   6.825  0.7807  0.5496 -0.9318
  200MOL0     H27547  12.185   7.176   6.706  2.3928  4.1817 -1.0170
  200MOL0     H27548  12.278   7.186   6.858  1.5190 -0.2462 -0.6758
  200MOL0     H27549  12.386   7.389   6.718 -0.8226 -0.7010  0.4957
  200MOL0     H27550  12.637   7.490   6.677  0.7815  1.2914 -0.2816
  200MOL0     H27551  12.586   7.506   6.514 -0.7913  0.6594  2.3023
  200MOL0     H27552  12.823   7.320   6.568 -0.8062 -0.6191 -0.0361
  200MOL0     H27553  12.774   7.419   6.425  0.3744 -1.7658  0.0017
  200MOL0     H27554  12.809   7.612   6.543 -0.4811 -0.5214 -0.3147
  200MOL0     H27555  12.858   7.526   6.697  1.7507  1.6365  0.2878
  200MOL0     H27556  13.005   7.570   6.435 -0.1517  3.0391  2.0454
  200MOL0     H27557  13.072   7.618   6.580 -0.0965  0.6945  0.7128
  200MOL0     H27558  13.247   7.578   6.438  0.0779 -0.7010 -1.2614
  200MOL0     H27559  13.517   7.538   6.217  2.2373 -2.1173  0.4513
  200MOL0     H27560  13.575   7.530   6.384  1.0841 -1.0785 -0.9236
  200MOL0     H27561  13.460   7.644   6.353  0.7589 -0.4517  1.4317
  200MOL0     H27562  13.724   7.129   6.026 -0.0973  1.1148 -2.4927
  200MOL0     H27563  13.949   7.030   6.048 -2.2874  0.8348 -1.6096
  200MOL0     H27564  14.278   7.214   6.291 -0.0085 -0.2329 -2.5942
  200MOL0     H27565  14.196   7.111   6.403 -1.5810  3.0040 -0.8492
  200MOL0     H27566  14.416   7.028   6.368  1.5997 -0.7012 -1.5874
  200MOL0     H27567  14.287   6.921   6.292 -0.3011  0.0885 -1.1947
  200MOL0     H27568  14.455   7.120   6.118 -0.3900 -0.1205 -1.0930
  200MOL0     H27569  14.361   6.974   6.078  0.6082 -1.7823  0.7083
  200MOL0     H27570  14.484   6.822   6.175 -2.8527  0.7346 -0.9353
  200MOL0     H27571  14.584   6.942   6.267 -0.1348 -3.0565 -0.0560
  200MOL0     H27572  14.588   6.901   5.964 -1.9629 -0.4634  1.7059
  200MOL0     H27573  14.686   7.021   6.045 -0.3393  0.6981 -3.0835
  200MOL0     H27574  14.683   6.726   6.084  0.1605 -0.8559  1.7023
  200MOL0     H27575  14.806   6.831   6.158  0.0666 -0.4303 -0.4385
  200MOL0     H27576  14.925   6.864   5.964 -0.4688  0.5941 -0.2923
  200MOL0     H27577  14.787   6.855   5.859  0.6583 -0.5553 -0.6726
  200MOL0     H27578  14.782   6.597   5.925  0.5171 -0.5669 -1.3112
  200MOL0     H27579  14.939   6.627   6.003  0.1099  0.1974  0.0253
  200MOL0     H27580  14.046   7.293   6.375  2.0930 -1.2096 -1.4032
  200MOL0     H27581  13.829   7.418   6.337  1.0074  1.4313 -2.0174
  200MOL0     H27582  13.347   7.096   6.380  1.2885  0.1717  0.6809
  200MOL0     H27583  13.147   7.162   6.483  2.3581 -2.7851 -1.9297
  200MOL0     H27584  11.352   6.999   7.285 -3.8626 -0.2183 -0.3674
  200MOL0     H27585  11.193   6.788   7.257  0.1298 -0.9776  1.6855
  200MOL0     H27586  11.062   6.467   7.096 -0.2718 -0.1433 -1.1986
  200MOL0     H27587  10.894   6.312   7.040  1.3261 -1.4244 -0.1431
  200MOL0     H27588  10.578   6.296   7.328 -0.5078 -2.3407  0.6601
  200MOL0     H27589  10.606   6.352   7.158  2.0828  0.4146 -0.1634
  200MOL0     H27590  10.394   6.232   7.198  0.2646  1.6017 -1.7824
  200MOL0     H27591  10.480   6.089   7.233  0.7162  0.0019  1.3767
  200MOL0     H27592  10.504   6.258   6.961  1.3338  0.5673 -0.0904
  200MOL0     H27593  10.580   6.110   6.996 -0.8393  0.2664 -2.6735
  200MOL0     H27594  10.376   6.093   6.860 -2.7564  0.5641 -0.5403
  200MOL0     H27595  10.272   6.141   6.998 -0.8057 -1.3766  2.1497
  200MOL0     H27596  10.306   5.732   7.071  1.4386 -0.4800  1.3054
  200MOL0     H27597  10.826   6.218   7.449  0.2785 -0.3464  0.3485
  200MOL0     H27598  10.964   6.286   7.617 -1.5113  0.4217 -0.3082
  200MOL0     H27599  11.133   6.283   7.569  1.7906  3.6732  1.1959
  200MOL0     H27600  11.049   6.435   7.605 -1.3802  0.6721 -1.0856
  201MOL0     O27601   0.906   8.981   9.301  0.3918  0.0043 -0.5964
  201MOL0     C27602   0.836   9.011   9.205 -0.0624  0.6548  0.4111
  201MOL0     O27603   0.884   9.065   9.086 -0.7208 -0.0282  0.0935
  201MOL0     C27604   1.024   9.066   9.072  0.2333  0.2709  0.3184
  201MOL0     C27605   1.104   9.135   9.152 -0.7611 -0.4188  0.7980
  201MOL0     C27606   1.238   9.126   9.144  0.2988  0.1928 -0.8292
  201MOL0     C27607   1.303   9.049   9.052  1.3602  1.1950  0.5066
  201MOL0     O27608   1.439   9.035   9.033 -0.7843 -0.3982 -0.6042
  201MOL0     C27609   1.540   9.086   9.126 -0.4951  0.8778  0.6104
  201MOL0     C27610   1.684   9.053   9.079 -0.0301  0.2542  0.2938
  201MOL0     C27611   1.777   9.179   9.102  0.7365  0.3592  0.1307
  201MOL0     C27612   1.783   9.263   8.962  0.2139 -0.7241 -0.4459
  201MOL0     C27613   1.861   9.394   8.983 -0.2437  0.8420 -0.4572
  201MOL0     C27614   1.790   9.504   9.054  0.5818  0.6470  0.5003
  201MOL0     C27615   1.877   9.622   9.053 -0.2477 -0.3004  0.5374
  201MOL0     C27616   2.015   9.613   9.132  0.9170 -0.4943  0.9176
  201MOL0     N27617   2.096   9.738   9.118 -0.5199 -0.7907 -0.3489
  201MOL0     C27618   2.157   9.780   9.004 -0.1365  0.3017  1.1463
  201MOL0     C27619   2.229   9.889   9.037 -0.3171 -0.0809  0.0641
  201MOL0     C27620   2.306   9.991   8.955  0.3419  0.1410 -0.2141
  201MOL0     C27621   2.409   9.926   8.864  0.9763  0.0911  0.6915
  201MOL0     C27622   2.530   9.854   8.933 -0.1788  0.0340 -0.9281
  201MOL0     C27623   2.609   9.782   8.827 -0.4083  1.3652 -0.4384
  201MOL0     O27624   2.664   9.883   8.745  0.2272  0.1799  0.0961
  201MOL0     C27625   2.763   9.850   8.658  0.4638  0.5108  0.7364
  201MOL0     C27626   2.829   9.956   8.596  0.4780 -0.1141 -0.8778
  201MOL0     C27627   2.942   9.949   8.516 -0.0451  0.0258  0.0745
  201MOL0     C27628   2.995  10.082   8.455 -0.1269  0.5875  0.0525
  201MOL0     C27629   2.991   9.816   8.477 -0.5915 -0.6064  0.9901
  201MOL0     C27630   3.108   9.797   8.389  0.5392  0.6221  1.4518
  201MOL0     O27631   3.179   9.682   8.409  0.3392  0.0664 -0.0505
  201MOL0     C27632   3.294   9.667   8.340 -0.3025  0.9590 -0.3939
  201MOL0     C27633   3.416   9.668   8.414 -0.1118 -0.1823 -0.3795
  201MOL0     C27634   3.537   9.637   8.356  0.0144  0.4116 -0.6232
  201MOL0     C27635   3.543   9.601   8.223 -0.3188  0.1046  0.4776
  201MOL0     O27636   3.666   9.572   8.161  0.3127 -0.5078 -0.9307
  201MOL0     C27637   3.673   9.455   8.082  0.6126 -0.0859 -0.4375
  201MOL0     C27638   3.808   9.389   8.104  0.3416  0.1556  0.1514
  201MOL0     C27639   3.834   9.327   8.241  0.2014 -0.1524 -0.0859
  201MOL0     C27640   3.743   9.212   8.283 -0.3876 -0.3046  0.3307
  201MOL0     C27641   3.774   9.141   8.416 -0.2130 -0.6934  0.1268
  201MOL0     C27642   3.771   9.233   8.535 -0.6036 -0.4232 -0.6042
  201MOL0     C27643   3.626   9.283   8.561  0.0938 -0.7267 -0.3856
  201MOL0     C27644   3.625   9.381   8.680 -0.4172  0.5406  0.7010
  201MOL0    Cl27645   3.713   9.534   8.655 -0.4406  0.2624 -0.3529
  201MOL0     C27646   3.421   9.598   8.153 -0.3193  0.1490 -0.1967
  201MOL0     C27647   3.298   9.625   8.213 -0.7019  1.1267  0.7840
  201MOL0     O27648   3.127   9.885   8.307  0.3492  0.0333  0.2496
  201MOL0     C27649   2.926   9.704   8.540  0.2091  0.3710  0.0304
  201MOL0     C27650   2.819   9.724   8.634 -0.3863  0.0557 -1.0823
  201MOL0     N27651   2.208   9.914   9.163 -0.3117 -0.2575 -0.5250
  201MOL0     N27652   2.133   9.820   9.220  0.4814 -0.7512 -0.0583
  201MOL0     C27653   1.220   8.969   8.965 -0.4296 -0.5998 -0.0550
  201MOL0     C27654   1.076   8.976   8.979 -0.3307 -0.2313  0.2139
  201MOL0     C27655   0.692   8.985   9.212 -0.1220 -0.0803 -0.1069
  201MOL0     C27656   0.607   9.083   9.160 -0.2538 -0.1048  0.4798
  201MOL0     C27657   0.471   9.077   9.162  0.3779  0.4751 -1.2766
  201MOL0     C27658   0.408   8.966   9.219 -0.5450 -0.2906 -0.5542
  201MOL0     O27659   0.277   8.933   9.216 -0.2352  0.7983 -0.1127
  201MOL0     C27660   0.186   9.009   9.129 -0.7464 -0.1061  0.2733
  201MOL0     C27661   0.077   8.930   9.081 -0.4305  0.7751  0.6175
  201MOL0     C27662   0.005   8.879   9.202  0.1680 -0.3995  0.3595
  201MOL0     C27663  -0.144   8.908   9.200  0.5209 -0.0645 -0.0569
  201MOL0     C27664  -0.210   8.860   9.314  0.9008 -0.0874 -0.4609
  201MOL0     C27665  -0.270   8.792   9.398  0.1853 -0.5644 -0.7219
  201MOL0     C27666   0.490   8.870   9.287 -0.3486 -0.7589  0.9921
  201MOL0     C27667   0.636   8.872   9.283 -0.1446 -0.8987  0.8562
  201MOL0     C27668   0.724   8.766   9.336 -0.8297 -0.0817  0.1358
  201MOL0     H27669   1.058   9.210   9.216 -2.0671 -0.7968  0.3421
  201MOL0     H27670   1.292   9.191   9.213 -1.8365  0.3636  0.7912
  201MOL0     H27671   1.524   9.034   9.221 -1.6739 -1.5223 -0.7964
  201MOL0     H27672   1.535   9.194   9.138 -3.6735  1.0368 -1.0407
  201MOL0     H27673   1.732   8.970   9.131  2.8726  1.0544 -0.8821
  201MOL0     H27674   1.672   9.027   8.973  4.1625 -2.9559  0.3423
  201MOL0     H27675   1.745   9.246   9.183  0.1729  0.8651 -0.4921
  201MOL0     H27676   1.875   9.152   9.143  2.3781  0.2268 -3.4932
  201MOL0     H27677   1.820   9.203   8.879  0.3023 -1.8619  0.3857
  201MOL0     H27678   1.682   9.301   8.943  1.7466  3.2274 -1.7733
  201MOL0     H27679   1.869   9.434   8.882 -1.1858  0.2149 -0.7870
  201MOL0     H27680   1.956   9.369   9.031 -0.7898  1.4189  1.0044
  201MOL0     H27681   1.701   9.534   8.998 -1.0922 -1.6574  1.7462
  201MOL0     H27682   1.762   9.484   9.158  0.1343  1.6678  0.5839
  201MOL0     H27683   1.815   9.695   9.106  1.5557  0.2410  2.0315
  201MOL0     H27684   1.903   9.656   8.952 -1.3674 -0.2424  0.2638
  201MOL0     H27685   1.997   9.606   9.240 -1.5544  1.5278  0.7403
  201MOL0     H27686   2.070   9.523   9.104  0.9732 -0.6741  1.6051
  201MOL0     H27687   2.146   9.743   8.902 -0.7113 -1.3991  1.7911
  201MOL0     H27688   2.358  10.062   9.020 -2.6624  0.6525  1.8414
  201MOL0     H27689   2.222  10.030   8.896 -0.8648 -3.0314 -0.8310
  201MOL0     H27690   2.358   9.850   8.804  1.6931  1.1933 -1.3860
  201MOL0     H27691   2.444  10.003   8.795  1.1816 -0.3185  0.3350
  201MOL0     H27692   2.590   9.937   8.969 -0.6757  1.2294 -2.7119
  201MOL0     H27693   2.500   9.792   9.018  2.5035  1.4485  1.1882
  201MOL0     H27694   2.679   9.713   8.874 -0.8694  0.2028 -1.3999
  201MOL0     H27695   2.543   9.723   8.761  1.4757  1.3780 -2.4512
  201MOL0     H27696   2.778  10.050   8.613 -0.1527 -0.7780  1.2418
  201MOL0     H27697   2.953  10.090   8.354  1.1494  1.5247 -0.4208
  201MOL0     H27698   3.104  10.082   8.455 -0.0850 -1.1796  1.0758
  201MOL0     H27699   2.953  10.177   8.490 -2.8186 -0.0195 -1.2116
  201MOL0     H27700   3.412   9.699   8.518  0.2386  0.7832 -0.6348
  201MOL0     H27701   3.630   9.626   8.411 -1.6990 -0.1336  2.3618
  201MOL0     H27702   3.589   9.387   8.098 -0.7786  0.5590 -3.9400
  201MOL0     H27703   3.671   9.482   7.976  1.2874  0.1198 -0.4027
  201MOL0     H27704   3.822   9.317   8.023 -0.9079  0.1810 -0.1041
  201MOL0     H27705   3.881   9.470   8.093 -0.3498  0.5812 -1.5580
  201MOL0     H27706   3.836   9.404   8.318  0.9427  0.6288 -0.8686
  201MOL0     H27707   3.937   9.291   8.245 -0.4162 -2.0421 -0.1819
  201MOL0     H27708   3.736   9.133   8.207  3.4523  1.6277 -2.3798
  201MOL0     H27709   3.643   9.255   8.292 -0.1118  0.5903 -0.7154
  201MOL0     H27710   3.705   9.062   8.445 -2.1931  1.1149  0.6565
  201MOL0     H27711   3.873   9.097   8.405  0.7075  1.2334  0.1494
  201MOL0     H27712   3.841   9.315   8.521  0.7250 -1.7771 -2.3251
  201MOL0     H27713   3.804   9.174   8.621 -1.2085 -3.1535 -2.1069
  201MOL0     H27714   3.556   9.203   8.587  0.5029 -1.6752 -2.0554
  201MOL0     H27715   3.581   9.335   8.476  1.9173  0.5809 -0.6162
  201MOL0     H27716   3.655   9.320   8.767 -4.4517 -0.1197  1.8365
  201MOL0     H27717   3.522   9.411   8.701  0.0544  1.9838  1.0623
  201MOL0     H27718   3.428   9.573   8.047  2.1497 -0.5559  0.0552
  201MOL0     H27719   3.211   9.622   8.149 -0.2522 -2.5242  0.1036
  201MOL0     H27720   2.961   9.601   8.537  2.5668  1.1230 -0.3360
  201MOL0     H27721   2.774   9.638   8.684  2.0084 -0.2311  0.7966
  201MOL0     H27722   1.258   8.902   8.889 -2.6026  0.2450 -1.9995
  201MOL0     H27723   1.010   8.913   8.919  0.0341 -0.0204 -0.4165
  201MOL0     H27724   0.659   9.165   9.112 -1.1887  1.0605  1.4185
  201MOL0     H27725   0.409   9.159   9.127  0.4935  0.6318 -1.1163
  201MOL0     H27726   0.144   9.089   9.191  0.3780 -0.9074  2.1585
  201MOL0     H27727   0.241   9.053   9.046 -0.2546  0.7066  1.0150
  201MOL0     H27728   0.121   8.843   9.031  1.9053  2.0489  0.3099
  201MOL0     H27729   0.017   8.982   9.006 -1.5687 -1.8629 -0.4470
  201MOL0     H27730   0.022   8.772   9.212 -1.7105 -0.6412  1.5837
  201MOL0     H27731   0.029   8.929   9.297  0.5019 -1.4556  0.8412
  201MOL0     H27732  -0.185   8.857   9.113  4.3208 -3.3617 -0.1661
  201MOL0     H27733  -0.155   9.017   9.202  1.2043  0.0686  3.6342
  201MOL0     H27734  -0.321   8.749   9.482  1.3857  0.7142  0.7228
  201MOL0     H27735   0.433   8.791   9.334 -2.4336  1.8106  3.0800
  201MOL0     H27736   0.797   8.735   9.260 -0.4579  1.3437 -0.1057
  201MOL0     H27737   0.780   8.806   9.422 -1.4127 -1.2489  1.0877
  201MOL0     H27738   0.666   8.679   9.368 -2.1321 -0.2088 -2.3400
  202MOL0     O27739   7.686   0.831   9.445 -0.1108 -0.3463 -0.0901
  202MOL0     C27740   7.588   0.901   9.406 -0.6001 -0.6713  0.2869
  202MOL0     O27741   7.599   1.008   9.311 -0.0145  0.3298 -0.0477
  202MOL0     C27742   7.732   1.046   9.286  0.6081 -0.2848  0.6747
  202MOL0     C27743   7.799   1.108   9.389  0.0821 -0.2383  0.6891
  202MOL0     C27744   7.930   1.146   9.360 -0.8831 -0.1941 -0.1486
  202MOL0     C27745   7.998   1.125   9.237  0.2275  0.0959 -0.8101
  202MOL0     O27746   8.131   1.157   9.231  0.1646  0.3330  0.1623
  202MOL0     C27747   8.207   1.071   9.151  0.7708 -0.0232  0.5432
  202MOL0     C27748   8.356   1.096   9.173 -0.0979  0.5002 -0.2714
  202MOL0     C27749   8.392   1.227   9.105 -0.3900  0.0597 -0.0173
  202MOL0     C27750   8.534   1.270   9.140 -1.0915  0.0036  0.3093
  202MOL0     C27751   8.565   1.394   9.061 -0.1145 -0.7755 -1.0166
  202MOL0     C27752   8.709   1.440   9.100  0.1682 -0.2292 -0.2691
  202MOL0     C27753   8.754   1.568   9.035  0.8021 -1.1859 -0.5461
  202MOL0     C27754   8.658   1.689   9.057 -0.5101  0.9216 -0.2914
  202MOL0     N27755   8.745   1.810   9.046 -0.0982 -0.4651  0.7830
  202MOL0     C27756   8.793   1.879   9.148 -0.0981 -0.9166  0.4501
  202MOL0     C27757   8.868   1.980   9.094  0.1997  0.0649 -0.3611
  202MOL0     C27758   8.958   2.064   9.173 -0.1250 -0.6805  0.2101
  202MOL0     C27759   9.106   2.048   9.134 -0.4480  0.8415 -0.2343
  202MOL0     C27760   9.197   2.124   9.230  0.1810 -0.5885 -0.0174
  202MOL0     C27761   9.336   2.131   9.166  0.1007  0.0617 -0.6403
  202MOL0     O27762   9.410   2.014   9.190 -0.2479  0.9413 -0.2538
  202MOL0     C27763   9.550   2.016   9.160  0.3667  0.5217  0.7115
  202MOL0     C27764   9.620   1.906   9.201  0.6483  0.1457 -0.2690
  202MOL0     C27765   9.761   1.891   9.171 -0.6194 -0.1913 -1.3512
  202MOL0     C27766   9.819   1.754   9.204  0.5762 -0.1375  0.1983
  202MOL0     C27767   9.824   1.998   9.103  1.6039  0.1575 -0.0669
  202MOL0     C27768   9.962   1.991   9.069 -0.0447 -0.2164  0.8320
  202MOL0     O27769  10.006   2.071   8.972 -0.0938  0.3988 -0.0531
  202MOL0     C27770  10.144   2.085   8.951  0.5570 -0.3651 -0.4118
  202MOL0     C27771  10.211   2.174   9.031 -0.0423  0.2503  0.4342
  202MOL0     C27772  10.354   2.187   9.018  0.3834  0.1152  0.3165
  202MOL0     C27773  10.422   2.117   8.912  0.7884 -0.3002  0.4713
  202MOL0     O27774  10.563   2.123   8.886  0.3024  0.7230 -0.1857
  202MOL0     C27775  10.646   2.096   8.994  0.0919  0.4867 -0.5298
  202MOL0     C27776  10.787   2.133   8.964  0.7372 -0.1437  0.0222
  202MOL0     C27777  10.799   2.277   8.919 -0.3971  0.0014  0.5167
  202MOL0     C27778  10.942   2.297   8.863 -0.0690  0.8085 -0.2250
  202MOL0     C27779  10.985   2.441   8.876  0.1423  0.4689  0.2767
  202MOL0     C27780  11.122   2.466   8.828 -0.3595  0.1843 -0.9552
  202MOL0     C27781  11.148   2.611   8.835  0.2526 -0.8574 -0.4890
  202MOL0     C27782  11.143   2.671   8.971  0.0389 -0.7516 -0.2289
  202MOL0    Cl27783  11.282   2.779   8.996 -0.1287 -0.1442 -0.2400
  202MOL0     C27784  10.345   2.017   8.843 -0.1520 -0.4340  0.1940
  202MOL0     C27785  10.214   1.999   8.872  0.7575 -0.0304 -0.5700
  202MOL0     O27786  10.035   1.928   9.145  0.3912  0.5522  0.3680
  202MOL0     C27787   9.750   2.111   9.064 -0.9048 -0.5102  1.3606
  202MOL0     C27788   9.618   2.116   9.086  0.7647 -0.0333  0.5374
  202MOL0     N27789   8.863   1.965   8.961  0.8915 -0.7185  0.0650
  202MOL0     N27790   8.793   1.856   8.931  0.5895  0.2439  0.3938
  202MOL0     C27791   7.923   1.055   9.140 -0.7160  0.7486  0.3032
  202MOL0     C27792   7.789   1.023   9.154 -0.4394 -0.7901 -0.3191
  202MOL0     C27793   7.456   0.874   9.475  0.7120 -0.0713 -0.3655
  202MOL0     C27794   7.462   0.809   9.595 -0.6720  0.3342  0.1812
  202MOL0     C27795   7.347   0.777   9.665 -0.9886 -0.0762 -1.1505
  202MOL0     C27796   7.222   0.823   9.622  0.8377  0.6056 -0.7496
  202MOL0     O27797   7.104   0.778   9.688  0.3297  0.4283  0.1312
  202MOL0     C27798   7.122   0.691   9.799 -0.2453  0.0787  0.3958
  202MOL0     C27799   6.975   0.642   9.840 -0.6114  0.0260 -0.3758
  202MOL0     C27800   6.911   0.536   9.746  0.3968  0.4450 -0.0841
  202MOL0     C27801   6.766   0.509   9.787 -0.2067 -0.0218  0.2563
  202MOL0     C27802   6.683   0.625   9.775 -0.3579 -0.5956  1.1634
  202MOL0     C27803   6.625   0.732   9.751  0.0906 -0.2937 -0.8416
  202MOL0     C27804   7.217   0.885   9.498  0.7005 -0.3012  0.6528
  202MOL0     C27805   7.328   0.911   9.423  0.3038  0.1245 -0.8960
  202MOL0     C27806   7.309   0.982   9.296 -0.2329 -0.0723  0.6732
  202MOL0     H27807   7.744   1.122   9.481 -0.7881  0.1352  0.1274
  202MOL0     H27808   7.988   1.189   9.441  0.4203  0.2790 -1.2955
  202MOL0     H27809   8.199   1.093   9.044 -3.8526  1.1271  0.9294
  202MOL0     H27810   8.188   0.964   9.167 -0.5397  0.1378  0.1802
  202MOL0     H27811   8.381   1.105   9.279 -1.8682 -0.0882  0.2240
  202MOL0     H27812   8.417   1.012   9.138 -0.7454 -1.0138  2.0570
  202MOL0     H27813   8.393   1.210   8.997  2.1388 -3.0081  0.3279
  202MOL0     H27814   8.319   1.300   9.141  0.1103  0.7104 -0.2843
  202MOL0     H27815   8.528   1.315   9.239 -0.3618 -0.5627  0.6248
  202MOL0     H27816   8.618   1.201   9.156 -1.2933  0.0909  1.8601
  202MOL0     H27817   8.494   1.469   9.097 -0.1511 -0.3771 -1.9000
  202MOL0     H27818   8.548   1.361   8.958 -0.8883  1.6319 -1.7229
  202MOL0     H27819   8.700   1.457   9.208  1.7829  0.2611 -0.1807
  202MOL0     H27820   8.781   1.364   9.068  0.1023  0.2197 -1.5340
  202MOL0     H27821   8.757   1.545   8.928  1.3397 -0.8748 -0.6027
  202MOL0     H27822   8.852   1.596   9.075 -0.1744  0.4890  0.8177
  202MOL0     H27823   8.581   1.686   8.980  1.2728 -1.9039 -2.1718
  202MOL0     H27824   8.616   1.680   9.158  0.7449 -2.3822  0.0805
  202MOL0     H27825   8.786   1.855   9.254 -0.4654  1.4853  1.0213
  202MOL0     H27826   8.956   2.026   9.275  3.7869  0.7628  0.9800
  202MOL0     H27827   8.930   2.170   9.175  0.4385 -0.5380  0.6891
  202MOL0     H27828   9.130   1.943   9.116  0.2862  0.8759  0.4798
  202MOL0     H27829   9.125   2.108   9.045  0.4858  1.2177  0.2006
  202MOL0     H27830   9.158   2.226   9.230 -0.1643 -0.7150  0.5342
  202MOL0     H27831   9.204   2.094   9.335 -1.0746 -0.4108  0.1297
  202MOL0     H27832   9.334   2.154   9.059 -2.3239  2.1828 -0.2493
  202MOL0     H27833   9.393   2.215   9.206 -0.3673  1.0298 -1.9214
  202MOL0     H27834   9.562   1.823   9.239  2.3314  0.7383  4.1644
  202MOL0     H27835   9.889   1.755   9.288  0.0620 -1.5557  0.6614
  202MOL0     H27836   9.885   1.714   9.126  0.4124  0.4495 -0.2431
  202MOL0     H27837   9.740   1.687   9.237 -0.8798  0.9239 -1.0155
  202MOL0     H27838  10.165   2.242   9.103 -0.2640 -0.1197  0.6399
  202MOL0     H27839  10.408   2.248   9.089 -0.1210  0.6886  0.2172
  202MOL0     H27840  10.609   2.144   9.085 -0.7674  0.1028 -0.6687
  202MOL0     H27841  10.651   1.989   9.017  2.5325  0.2388 -1.9061
  202MOL0     H27842  10.842   2.116   9.057  2.8906 -0.5510 -1.2496
  202MOL0     H27843  10.825   2.059   8.893  2.5634 -1.8979  2.6465
  202MOL0     H27844  10.772   2.338   9.006 -1.2602 -0.0598  0.3003
  202MOL0     H27845  10.726   2.305   8.844 -1.1312 -0.5851  0.9966
  202MOL0     H27846  10.946   2.244   8.768 -2.4511 -4.2241  2.0912
  202MOL0     H27847  11.012   2.240   8.926  1.1531  1.6987 -0.7319
  202MOL0     H27848  10.915   2.492   8.809 -1.2259 -0.9752  0.5709
  202MOL0     H27849  10.972   2.466   8.982  1.4983 -2.9128  1.3622
  202MOL0     H27850  11.129   2.442   8.721 -4.5418  0.7604 -1.5092
  202MOL0     H27851  11.192   2.412   8.892 -0.6854 -0.0888 -0.8301
  202MOL0     H27852  11.079   2.670   8.774 -0.9709 -1.1233  0.5941
  202MOL0     H27853  11.247   2.631   8.794 -0.4116  0.5448 -1.4850
  202MOL0     H27854  11.155   2.587   9.040  1.5942 -1.7146 -1.5933
  202MOL0     H27855  11.048   2.720   8.993 -0.4953 -0.0771 -3.5236
  202MOL0     H27856  10.399   1.955   8.772  0.6686 -0.6526  0.9922
  202MOL0     H27857  10.155   1.920   8.826  0.4523  0.2236 -0.6156
  202MOL0     H27858   9.808   2.186   9.011 -1.4305 -1.2715 -0.3943
  202MOL0     H27859   9.568   2.205   9.051  2.2669  1.8615  2.8986
  202MOL0     H27860   7.953   1.040   9.037 -0.1105  0.1240  0.5578
  202MOL0     H27861   7.734   0.981   9.071  1.1501  0.1023 -1.8893
  202MOL0     H27862   7.559   0.787   9.640 -0.9941  2.6180  2.2324
  202MOL0     H27863   7.362   0.716   9.753 -2.2084 -0.4776 -1.2085
  202MOL0     H27864   7.187   0.609   9.765 -1.2082  0.0377 -1.5077
  202MOL0     H27865   7.169   0.745   9.881  2.7093 -0.1913 -0.9840
  202MOL0     H27866   6.917   0.735   9.833  0.7088  0.9379  0.4226
  202MOL0     H27867   6.965   0.614   9.945  0.5357 -0.6494 -0.4309
  202MOL0     H27868   6.922   0.575   9.645 -0.1909  0.1388 -0.2712
  202MOL0     H27869   6.973   0.446   9.757 -1.2997 -0.6757  0.8060
  202MOL0     H27870   6.759   0.464   9.887  1.4647 -0.5224  0.1734
  202MOL0     H27871   6.723   0.429   9.726  2.3452 -2.1448  1.0533
  202MOL0     H27872   6.585   0.830   9.734 -0.0333 -0.6023 -2.4985
  202MOL0     H27873   7.120   0.917   9.461  0.1919  0.3991  2.5015
  202MOL0     H27874   7.209   0.963   9.256  0.1943 -0.8789 -0.0710
  202MOL0     H27875   7.331   1.089   9.303  0.5998 -0.1756 -0.0563
  202MOL0     H27876   7.377   0.940   9.220  0.6556  0.1071  1.3543
  203MOL0     O27877   9.535   6.140  11.070 -0.4463 -0.7014 -0.4133
  203MOL0     C27878   9.422   6.152  11.118 -0.4762 -0.2267 -0.1424
  203MOL0     O27879   9.388   6.226  11.223 -0.5829 -0.6601 -0.1834
  203MOL0     C27880   9.482   6.286  11.311  0.2952  0.3682 -0.2086
  203MOL0     C27881   9.618   6.245  11.334  0.3282 -0.4521 -0.4601
  203MOL0     C27882   9.704   6.315  11.417  0.5512 -0.6280 -0.6202
  203MOL0     C27883   9.653   6.429  11.484  0.6670  0.2799 -0.8974
  203MOL0     O27884   9.733   6.499  11.571  0.3279  0.6279  0.0352
  203MOL0     C27885   9.743   6.642  11.553 -0.4154 -0.2918  0.8575
  203MOL0     C27886   9.868   6.696  11.620  0.2694 -0.0030  0.2969
  203MOL0     C27887  10.000   6.639  11.565  0.2234  0.5148  0.3843
  203MOL0     C27888  10.117   6.719  11.623 -0.5404  0.2896  0.1691
  203MOL0     C27889  10.249   6.654  11.608 -0.3819 -0.2955 -0.6464
  203MOL0     C27890  10.362   6.719  11.700  0.1807  0.7894  0.1465
  203MOL0     C27891  10.329   6.691  11.847 -0.1899  0.5624 -0.7459
  203MOL0     C27892  10.450   6.730  11.931 -0.7054  0.4191 -0.0582
  203MOL0     N27893  10.570   6.656  11.905 -0.0137 -0.2759  0.7971
  203MOL0     C27894  10.605   6.526  11.943  0.5345  0.1457  0.1397
  203MOL0     C27895  10.725   6.508  11.886 -0.4440  0.2481  0.6361
  203MOL0     C27896  10.794   6.375  11.898  0.6495 -0.6561  0.7556
  203MOL0     C27897  10.938   6.392  11.937  0.2875 -0.1621 -0.2526
  203MOL0     C27898  10.942   6.432  12.075 -0.8518 -0.4632  0.4167
  203MOL0     C27899  11.088   6.437  12.128 -0.7337  0.0029  0.3350
  203MOL0     O27900  11.167   6.544  12.065 -0.0108  0.3084 -0.2287
  203MOL0     C27901  11.299   6.556  12.102  0.2994  0.1483 -0.7145
  203MOL0     C27902  11.354   6.533  12.227  0.3027  0.4978  0.0831
  203MOL0     C27903  11.492   6.554  12.248 -0.8259  0.1872  0.4964
  203MOL0     C27904  11.546   6.499  12.374  0.1442  0.4781 -0.1976
  203MOL0     C27905  11.569   6.614  12.148  0.0150 -0.6071 -0.0729
  203MOL0     C27906  11.708   6.656  12.163  0.5354  0.3706  0.6234
  203MOL0     O27907  11.759   6.698  12.045  0.6715 -0.3587  0.4410
  203MOL0     C27908  11.874   6.769  12.038 -0.9813 -0.1633 -0.1565
  203MOL0     C27909  11.955   6.814  12.145  0.8345 -0.5588  0.7652
  203MOL0     C27910  12.070   6.885  12.125 -0.4001 -0.8091  0.0786
  203MOL0     C27911  12.123   6.916  11.996 -0.1565  0.3303 -0.0280
  203MOL0     O27912  12.227   6.995  11.963 -0.0486  0.2777 -0.3384
  203MOL0     C27913  12.286   7.067  12.070  0.2090 -0.1054 -0.2223
  203MOL0     C27914  12.383   6.988  12.147 -0.5781  1.1241  0.1361
  203MOL0     C27915  12.427   7.066  12.274  0.3484 -0.6497  0.2801
  203MOL0     C27916  12.538   7.168  12.234 -0.9024  0.5879 -0.3335
  203MOL0     C27917  12.576   7.252  12.363 -0.5979  0.5485  0.6072
  203MOL0     C27918  12.672   7.374  12.341  0.2418  0.3422 -0.4563
  203MOL0     C27919  12.775   7.409  12.455 -0.1122  0.1065  0.0173
  203MOL0     C27920  12.853   7.528  12.403  0.1607 -0.7704  0.1326
  203MOL0    Cl27921  12.970   7.475  12.287 -0.4904 -0.1784  0.0957
  203MOL0     C27922  12.048   6.877  11.889 -0.1724  0.2589 -0.4482
  203MOL0     C27923  11.924   6.807  11.911  0.5984  0.8791 -0.4408
  203MOL0     O27924  11.758   6.658  12.272 -0.3745 -0.4080  0.2653
  203MOL0     C27925  11.502   6.651  12.026 -0.7388 -0.1772  0.0050
  203MOL0     C27926  11.371   6.610  12.005  0.1665 -0.6906  0.6669
  203MOL0     N27927  10.764   6.614  11.812 -0.1443  0.1943 -0.2934
  203MOL0     N27928  10.665   6.698  11.821 -0.4236  0.1648  0.1242
  203MOL0     C27929   9.513   6.468  11.464 -0.4332  0.1539  0.0527
  203MOL0     C27930   9.436   6.396  11.382  0.3018  0.4163 -0.0912
  203MOL0     C27931   9.314   6.057  11.074  0.8543  0.0860  0.8271
  203MOL0     C27932   9.259   5.984  11.176  0.2181  0.0959 -0.1216
  203MOL0     C27933   9.145   5.902  11.151 -0.6323 -0.2893  0.0548
  203MOL0     C27934   9.103   5.879  11.019  0.1350 -1.3408  0.0487
  203MOL0     O27935   8.989   5.800  11.011  0.5663  0.0499  0.5971
  203MOL0     C27936   8.926   5.781  10.885 -0.5492 -0.6558  0.3664
  203MOL0     C27937   8.770   5.763  10.903 -0.4307 -0.4258  0.0360
  203MOL0     C27938   8.717   5.900  10.954  0.1512 -0.0038 -0.6300
  203MOL0     C27939   8.614   5.966  10.869  0.1154 -0.5261 -0.2547
  203MOL0     C27940   8.497   5.872  10.856  0.2136  1.0209 -0.0224
  203MOL0     C27941   8.399   5.800  10.849  0.4057 -0.7303  0.5033
  203MOL0     C27942   9.156   5.951  10.921  0.0252  0.0888 -0.1598
  203MOL0     C27943   9.260   6.046  10.942  0.0828  0.1770 -0.5142
  203MOL0     C27944   9.314   6.129  10.826 -0.1196  0.2763 -0.1019
  203MOL0     H27945   9.656   6.150  11.298 -1.2847 -1.7836  1.1432
  203MOL0     H27946   9.810   6.289  11.416  0.4140 -1.4791  1.5345
  203MOL0     H27947   9.654   6.697  11.583  1.0733  2.0207  1.2614
  203MOL0     H27948   9.747   6.665  11.447 -0.8016 -4.1323 -0.1603
  203MOL0     H27949   9.858   6.804  11.605 -0.9035 -0.0152  0.9214
  203MOL0     H27950   9.855   6.676  11.727 -2.1890 -0.1985  0.0034
  203MOL0     H27951   9.996   6.533  11.593 -3.1559  0.5658  0.5862
  203MOL0     H27952  10.007   6.638  11.455  0.1909 -2.2364  0.3374
  203MOL0     H27953  10.128   6.810  11.564 -0.8879 -0.6474 -1.3822
  203MOL0     H27954  10.082   6.732  11.726 -0.9335 -1.7270  0.3368
  203MOL0     H27955  10.284   6.667  11.505 -0.2488  3.0133 -0.3065
  203MOL0     H27956  10.231   6.549  11.633  1.8324 -0.2414  1.5750
  203MOL0     H27957  10.444   6.654  11.669 -0.0815 -0.3011  1.6032
  203MOL0     H27958  10.376   6.825  11.678  1.0579  0.7885  0.6657
  203MOL0     H27959  10.306   6.585  11.865 -2.4818  0.9055 -1.3294
  203MOL0     H27960  10.239   6.740  11.884  1.0238  2.2476  0.0844
  203MOL0     H27961  10.474   6.837  11.928 -1.4053  0.5760 -0.2534
  203MOL0     H27962  10.433   6.721  12.039  1.9604 -0.6319  0.3542
  203MOL0     H27963  10.540   6.461  12.000  0.3635  1.7119  1.8370
  203MOL0     H27964  10.787   6.340  11.795 -2.5230  2.9169 -0.5160
  203MOL0     H27965  10.742   6.313  11.971  1.3761 -2.3843 -0.1533
  203MOL0     H27966  10.994   6.298  11.936 -2.0811 -1.7809  2.6576
  203MOL0     H27967  10.987   6.466  11.873 -0.5153  0.7384  0.1470
  203MOL0     H27968  10.897   6.531  12.090  0.1377  0.1322 -0.4224
  203MOL0     H27969  10.877   6.375  12.142 -2.8201  2.8479  1.6154
  203MOL0     H27970  11.073   6.475  12.230 -0.0601 -3.0381  1.6783
  203MOL0     H27971  11.133   6.338  12.134  2.7920  1.3094 -1.8842
  203MOL0     H27972  11.300   6.508  12.318  2.6398 -0.2379  1.3617
  203MOL0     H27973  11.616   6.419  12.346 -1.0848 -1.1209  1.1566
  203MOL0     H27974  11.478   6.444  12.440  0.7271 -1.1106 -0.8544
  203MOL0     H27975  11.591   6.575  12.438  0.7229 -0.8114  0.9769
  203MOL0     H27976  11.937   6.803  12.251  0.6479  3.6565  1.3300
  203MOL0     H27977  12.120   6.918  12.215  0.2735 -0.2826 -0.4805
  203MOL0     H27978  12.334   7.145  12.012  1.3465 -2.1246 -2.1454
  203MOL0     H27979  12.214   7.115  12.137  2.8695  1.5778  1.6319
  203MOL0     H27980  12.335   6.892  12.168  1.2053 -0.1903 -1.4455
  203MOL0     H27981  12.468   6.954  12.087 -0.2259  2.2316 -0.0116
  203MOL0     H27982  12.461   7.004  12.357  0.9177  1.6737  1.8880
  203MOL0     H27983  12.347   7.126  12.319  0.4463 -0.0122 -0.3667
  203MOL0     H27984  12.498   7.232  12.155  0.4518  0.9257 -0.7897
  203MOL0     H27985  12.622   7.118  12.183  0.2414 -1.4208  3.1622
  203MOL0     H27986  12.492   7.296  12.418 -2.5360 -0.7893 -1.1394
  203MOL0     H27987  12.628   7.184  12.431 -1.2008 -0.5412  0.0071
  203MOL0     H27988  12.610   7.463  12.323 -1.1991 -0.3780  0.7490
  203MOL0     H27989  12.734   7.356  12.253  1.4897 -0.2678  0.5166
  203MOL0     H27990  12.831   7.325  12.498 -2.6840 -2.7494 -1.7796
  203MOL0     H27991  12.725   7.454  12.541 -0.5003  1.2921 -0.8084
  203MOL0     H27992  12.919   7.561  12.484 -0.5722 -2.7418  1.6181
  203MOL0     H27993  12.789   7.613  12.375 -0.0448 -0.0561  2.5304
  203MOL0     H27994  12.072   6.901  11.786  1.7332 -0.6383 -0.2733
  203MOL0     H27995  11.871   6.772  11.823 -0.1469  0.1136  0.3019
  203MOL0     H27996  11.556   6.701  11.947 -0.2494  1.1682  1.1560
  203MOL0     H27997  11.321   6.632  11.912  1.0874 -0.5398  0.1987
  203MOL0     H27998   9.476   6.552  11.521  0.0895 -0.4183  1.2560
  203MOL0     H27999   9.333   6.421  11.359 -0.2072 -1.7213 -0.3823
  203MOL0     H28000   9.289   5.995  11.280 -1.5047 -1.7376  0.6305
  203MOL0     H28001   9.100   5.857  11.238 -2.9958 -0.7526 -1.3285
  203MOL0     H28002   8.943   5.864  10.815  3.5363 -2.0140 -0.5017
  203MOL0     H28003   8.973   5.700  10.828  1.4435 -0.6062  1.8231
  203MOL0     H28004   8.747   5.694  10.985  0.2028  1.3401  1.7828
  203MOL0     H28005   8.716   5.733  10.813  1.4108  3.3825 -2.5808
  203MOL0     H28006   8.661   5.878  11.045  0.9829  2.1497  0.4630
  203MOL0     H28007   8.796   5.973  10.972 -0.8538  1.7270 -2.8307
  203MOL0     H28008   8.652   6.002  10.773  0.3529 -2.4558 -0.9130
  203MOL0     H28009   8.585   6.059  10.919  1.4062  1.0287 -2.2078
  203MOL0     H28010   8.318   5.731  10.836  0.0662  0.1135 -2.7019
  203MOL0     H28011   9.123   5.935  10.819  0.8855 -0.8253 -0.2942
  203MOL0     H28012   9.249   6.216  10.813 -0.2019  0.3664  0.8372
  203MOL0     H28013   9.415   6.169  10.842 -0.1724  1.0186 -1.5200
  203MOL0     H28014   9.300   6.073  10.733  1.3005  0.2192 -0.3087
  204MOL0     O28015   5.992   6.020   4.358  0.6575  0.4951 -0.2451
  204MOL0     C28016   5.907   6.079   4.421 -0.7997 -0.5063  0.1985
  204MOL0     O28017   5.932   6.170   4.516  0.6207 -0.6307  0.0199
  204MOL0     C28018   6.050   6.245   4.520  1.0648  0.4263  0.6807
  204MOL0     C28019   6.143   6.250   4.415  0.4352  0.2701  0.0736
  204MOL0     C28020   6.262   6.330   4.427 -0.2315 -0.8355 -0.4356
  204MOL0     C28021   6.293   6.388   4.547  0.0370 -0.0614  0.7123
  204MOL0     O28022   6.404   6.479   4.555 -0.1931 -0.0107  0.7576
  204MOL0     C28023   6.392   6.600   4.635  1.0849 -0.4542  0.5030
  204MOL0     C28024   6.523   6.690   4.625  0.0297  0.1517 -0.8899
  204MOL0     C28025   6.541   6.801   4.738  0.0561  0.0730 -0.4999
  204MOL0     C28026   6.683   6.843   4.759 -0.0098  0.5038 -0.1811
  204MOL0     C28027   6.705   6.995   4.795  0.0313  0.5446  0.0550
  204MOL0     C28028   6.861   7.015   4.784  0.3596 -0.0209  0.9490
  204MOL0     C28029   6.894   7.171   4.786 -1.3961 -0.2631  0.4134
  204MOL0     C28030   7.036   7.216   4.756 -0.5621 -0.0483 -0.0191
  204MOL0     N28031   7.123   7.168   4.858 -0.9032  0.3113  0.4983
  204MOL0     C28032   7.143   7.214   4.987  0.3446 -0.3862  0.6455
  204MOL0     C28033   7.226   7.125   5.034  0.6204  0.2303 -0.7741
  204MOL0     C28034   7.273   7.126   5.181  0.6619  0.6204 -0.6835
  204MOL0     C28035   7.184   7.026   5.262 -0.2062  0.4041 -0.2677
  204MOL0     C28036   7.210   7.032   5.410  0.1030 -0.1154  0.6512
  204MOL0     C28037   7.360   7.021   5.468  0.1082 -0.3826 -0.3965
  204MOL0     O28038   7.431   7.155   5.441 -0.4208  0.1839  0.1679
  204MOL0     C28039   7.567   7.165   5.461 -0.4925  0.0173 -0.0780
  204MOL0     C28040   7.633   7.283   5.415  0.4245  0.4635  0.3447
  204MOL0     C28041   7.773   7.299   5.423  1.2015  0.9807  0.0456
  204MOL0     C28042   7.829   7.423   5.367  0.5403  0.8505 -0.0942
  204MOL0     C28043   7.849   7.198   5.486 -0.1187 -0.0607  0.7309
  204MOL0     C28044   8.001   7.190   5.487 -0.4069 -0.1962  0.1637
  204MOL0     O28045   8.078   7.303   5.440  0.8702  0.0614 -0.1023
  204MOL0     C28046   8.214   7.302   5.420 -0.2750  0.6780  0.3643
  204MOL0     C28047   8.280   7.173   5.400 -0.0415  0.2027 -0.6802
  204MOL0     C28048   8.412   7.168   5.376 -1.2757 -0.9360 -0.3941
  204MOL0     C28049   8.501   7.278   5.395  0.3360 -1.2127 -0.0207
  204MOL0     O28050   8.637   7.263   5.397  0.8333  0.6449 -0.1037
  204MOL0     C28051   8.701   7.158   5.326  0.2105 -0.2496  0.1315
  204MOL0     C28052   8.856   7.166   5.359 -0.0918  0.7264  0.7563
  204MOL0     C28053   8.925   7.051   5.291 -0.1478 -0.1709  0.0092
  204MOL0     C28054   9.077   7.040   5.324  0.5169 -0.2666  0.0066
  204MOL0     C28055   9.131   6.901   5.303 -0.2002 -0.0271 -0.2987
  204MOL0     C28056   9.282   6.907   5.325 -0.4445 -0.1104 -0.0777
  204MOL0     C28057   9.336   6.773   5.281  0.5012  0.4326  0.3893
  204MOL0     C28058   9.481   6.750   5.314 -0.0449 -0.0271  0.1272
  204MOL0    Cl28059   9.530   6.795   5.469  0.0442 -0.5559  0.0731
  204MOL0     C28060   8.444   7.405   5.418  0.3750 -0.4947  0.3760
  204MOL0     C28061   8.298   7.413   5.414 -0.3128 -0.1232 -0.7370
  204MOL0     O28062   8.047   7.087   5.538  1.2565  0.1887 -0.3162
  204MOL0     C28063   7.779   7.082   5.538  0.1430 -0.1800  0.7819
  204MOL0     C28064   7.646   7.068   5.528 -0.4363  0.1203 -0.1151
  204MOL0     N28065   7.262   7.028   4.945  0.4451  0.2692  0.5389
  204MOL0     N28066   7.208   7.061   4.831  0.2601 -0.3631  0.1689
  204MOL0     C28067   6.206   6.379   4.655 -0.1892 -0.0240 -0.1517
  204MOL0     C28068   6.086   6.317   4.642  0.8724  0.3538  0.2728
  204MOL0     C28069   5.767   6.034   4.413  0.0854  0.3060  0.3024
  204MOL0     C28070   5.674   6.142   4.435 -0.1143  0.3506 -0.5220
  204MOL0     C28071   5.546   6.127   4.408 -0.3918  0.1169 -0.6758
  204MOL0     C28072   5.485   6.001   4.376 -0.7074 -0.0198 -0.5274
  204MOL0     O28073   5.352   5.976   4.352 -0.2796  0.3135  0.6172
  204MOL0     C28074   5.254   6.079   4.360  0.1614  1.2548  0.4820
  204MOL0     C28075   5.129   6.046   4.289  0.0662 -0.7283  0.0076
  204MOL0     C28076   5.152   6.046   4.131  0.1788  0.3522 -0.5278
  204MOL0     C28077   5.009   6.057   4.071  0.5778  0.4924 -0.4352
  204MOL0     C28078   5.013   6.048   3.926  0.6116 -0.8016 -0.4348
  204MOL0     C28079   4.988   6.028   3.806 -0.4848 -0.2908 -0.5139
  204MOL0     C28080   5.577   5.893   4.368  0.3733  1.0490  0.2701
  204MOL0     C28081   5.713   5.905   4.380 -0.3769  0.1170 -0.0471
  204MOL0     C28082   5.800   5.777   4.381  0.9338 -0.1413 -0.2097
  204MOL0     H28083   6.122   6.204   4.319  0.4977  1.2012 -0.3986
  204MOL0     H28084   6.328   6.345   4.342  0.3446 -1.2048 -0.0658
  204MOL0     H28085   6.372   6.571   4.738  2.9233 -1.9714  0.4917
  204MOL0     H28086   6.302   6.653   4.604  0.4471 -2.0281 -0.4574
  204MOL0     H28087   6.610   6.624   4.633  0.0882  0.0072 -2.4503
  204MOL0     H28088   6.524   6.736   4.526 -2.4202  1.1318 -0.5464
  204MOL0     H28089   6.485   6.883   4.694  0.4362  0.9986  0.7025
  204MOL0     H28090   6.494   6.771   4.832 -1.2702 -1.3957 -1.5860
  204MOL0     H28091   6.725   6.770   4.830 -0.3686  0.5552  0.0905
  204MOL0     H28092   6.739   6.841   4.666  2.1234  3.1294  0.9104
  204MOL0     H28093   6.684   7.018   4.900  0.6961  0.1683  0.2722
  204MOL0     H28094   6.642   7.052   4.725 -1.9293 -1.2025  0.2882
  204MOL0     H28095   6.906   6.968   4.872  0.1887  1.0552  1.6443
  204MOL0     H28096   6.903   6.973   4.692  1.8777  0.6879  1.2783
  204MOL0     H28097   6.867   7.214   4.883  0.3874  2.7030 -0.2695
  204MOL0     H28098   6.836   7.214   4.703  1.7568  0.2091 -1.7205
  204MOL0     H28099   7.068   7.180   4.658  1.3243 -1.5196  1.0727
  204MOL0     H28100   7.042   7.324   4.743  0.0369 -0.1932 -1.0152
  204MOL0     H28101   7.096   7.293   5.044 -0.3191  0.9854 -1.6645
  204MOL0     H28102   7.248   7.226   5.219 -0.3076  0.0724  0.2100
  204MOL0     H28103   7.380   7.112   5.195  0.8306 -2.1434 -3.6688
  204MOL0     H28104   7.077   7.026   5.240  0.5049 -2.1257 -5.0881
  204MOL0     H28105   7.203   6.926   5.223 -0.3906  0.3056 -0.1019
  204MOL0     H28106   7.169   7.127   5.446  3.7078  1.6545  0.5050
  204MOL0     H28107   7.156   6.943   5.444 -2.2787  1.1238  0.3143
  204MOL0     H28108   7.356   6.989   5.572 -1.9808  0.9916 -0.0137
  204MOL0     H28109   7.412   6.951   5.401 -0.5121 -1.5966  0.3711
  204MOL0     H28110   7.569   7.351   5.360 -1.9242 -0.6268  1.5595
  204MOL0     H28111   7.887   7.386   5.283 -0.8679 -1.1497 -0.2617
  204MOL0     H28112   7.892   7.478   5.438  1.9826  2.8591 -2.7696
  204MOL0     H28113   7.750   7.492   5.336 -0.3720 -1.0780 -2.3394
  204MOL0     H28114   8.225   7.079   5.409  2.2112 -1.1895 -0.6506
  204MOL0     H28115   8.443   7.064   5.372  0.3932 -0.4232 -2.0784
  204MOL0     H28116   8.657   7.059   5.342  1.0125 -1.1306 -2.4513
  204MOL0     H28117   8.678   7.168   5.219 -3.7456 -2.7558  0.5316
  204MOL0     H28118   8.877   7.259   5.305 -1.9312  0.7746  0.0703
  204MOL0     H28119   8.889   7.168   5.464  0.0875  0.2549  0.7120
  204MOL0     H28120   8.913   7.059   5.183 -1.1722  1.7840  0.2176
  204MOL0     H28121   8.882   6.952   5.308 -0.5195  0.0980  0.6719
  204MOL0     H28122   9.098   7.060   5.430  1.4219 -0.5293 -0.1147
  204MOL0     H28123   9.134   7.113   5.265 -0.3881  0.4559 -0.0065
  204MOL0     H28124   9.079   6.838   5.375 -0.0655  0.7381  0.4911
  204MOL0     H28125   9.105   6.862   5.205 -0.4625 -1.6017  0.3770
  204MOL0     H28126   9.307   6.919   5.431  1.4148 -3.8611  0.0439
  204MOL0     H28127   9.342   6.979   5.268 -0.1401 -2.7650 -3.4079
  204MOL0     H28128   9.330   6.764   5.173 -3.9213  1.6193  0.3467
  204MOL0     H28129   9.281   6.689   5.324 -0.5394  1.1866  0.5688
  204MOL0     H28130   9.546   6.789   5.235 -0.4916 -0.3232 -0.3950
  204MOL0     H28131   9.501   6.643   5.310  0.2745  0.0374 -0.0235
  204MOL0     H28132   8.505   7.492   5.440 -1.7120  0.6986  1.8043
  204MOL0     H28133   8.257   7.513   5.426 -0.1422 -0.0675 -0.6138
  204MOL0     H28134   7.831   6.998   5.582  1.1457  0.6115  1.1327
  204MOL0     H28135   7.593   6.979   5.560  1.0554 -0.3455  1.1521
  204MOL0     H28136   6.201   6.433   4.749  0.0051 -1.6523  0.8096
  204MOL0     H28137   6.026   6.331   4.731  1.6798  2.3013  0.5594
  204MOL0     H28138   5.708   6.242   4.461  1.1537  0.9453 -4.0217
  204MOL0     H28139   5.479   6.212   4.417 -2.9917 -1.7913 -0.5821
  204MOL0     H28140   5.228   6.098   4.465 -0.2595  0.2158  0.5830
  204MOL0     H28141   5.294   6.173   4.320 -1.1841  1.1848 -1.0945
  204MOL0     H28142   5.060   6.125   4.318  3.2926  1.8300  1.3190
  204MOL0     H28143   5.089   5.951   4.327 -0.1382  0.9207  4.4781
  204MOL0     H28144   5.212   6.133   4.104  1.1479  0.0335  0.4802
  204MOL0     H28145   5.202   5.958   4.091  0.0215  0.1596 -0.3024
  204MOL0     H28146   4.972   6.157   4.095  0.1890 -0.1293  1.7845
  204MOL0     H28147   4.950   5.984   4.128  1.0837  3.0053  3.6732
  204MOL0     H28148   4.970   6.030   3.701 -1.2277 -2.8506 -0.5225
  204MOL0     H28149   5.533   5.801   4.330 -1.5377  1.6054  0.9989
  204MOL0     H28150   5.892   5.792   4.324  0.6306  1.9861 -0.2137
  204MOL0     H28151   5.823   5.734   4.479  1.8607 -2.5616 -1.4046
  204MOL0     H28152   5.742   5.702   4.327  0.9117 -0.5637  0.3879
  205MOL0     O28153   1.200   9.585   6.345  0.3106 -0.0829  0.0846
  205MOL0     C28154   1.108   9.622   6.270  1.0100  0.1034 -0.1201
  205MOL0     O28155   1.130   9.685   6.147 -0.5271  0.3409  0.0716
  205MOL0     C28156   1.269   9.668   6.107 -0.2384 -0.6793  0.2451
  205MOL0     C28157   1.308   9.552   6.050 -0.5300 -0.8394  0.4217
  205MOL0     C28158   1.440   9.542   5.998  0.0088  0.1082 -0.3862
  205MOL0     C28159   1.536   9.636   6.014 -0.2857  0.0330  0.2609
  205MOL0     O28160   1.664   9.631   5.985 -0.2615 -0.3674  0.1453
  205MOL0     C28161   1.712   9.497   5.990  0.1401 -0.0990 -0.5092
  205MOL0     C28162   1.862   9.491   5.989 -1.0186 -0.0575  0.5708
  205MOL0     C28163   1.919   9.526   6.130 -0.4501 -0.1241  0.6761
  205MOL0     C28164   1.967   9.670   6.142  0.2392  0.0534  0.4634
  205MOL0     C28165   2.118   9.700   6.115  0.4418 -0.3319  0.3873
  205MOL0     C28166   2.171   9.840   6.170  0.5079 -0.0793  0.7910
  205MOL0     C28167   2.310   9.855   6.130  0.2211 -0.6536  0.2764
  205MOL0     C28168   2.349   9.991   6.188 -0.1824  0.0423 -0.4433
  205MOL0     N28169   2.483  10.038   6.139  0.1209  0.2815 -0.4821
  205MOL0     C28170   2.540  10.046   6.015  0.5379  0.5319  0.2105
  205MOL0     C28171   2.651  10.109   6.031  0.7758  0.1784  0.0774
  205MOL0     C28172   2.740  10.151   5.911  0.8092 -0.3926 -0.7142
  205MOL0     C28173   2.875  10.083   5.900 -0.4833  0.1553  0.4150
  205MOL0     C28174   2.877   9.947   5.820  0.4755 -0.5606 -0.5858
  205MOL0     C28175   3.000   9.856   5.831  0.1084 -0.8378  0.1928
  205MOL0     O28176   3.122   9.934   5.824 -0.5353  0.7249  0.4302
  205MOL0     C28177   3.230   9.883   5.765 -0.3350  0.3472  0.4507
  205MOL0     C28178   3.246   9.747   5.735  0.2521  0.0164  0.8910
  205MOL0     C28179   3.368   9.704   5.673 -1.0179  1.1683 -0.3454
  205MOL0     C28180   3.391   9.550   5.649  0.6588 -0.5203  0.7491
  205MOL0     C28181   3.485   9.793   5.661  0.1949  0.3767  0.1430
  205MOL0     C28182   3.622   9.763   5.589 -0.2560  0.8229 -0.8681
  205MOL0     O28183   3.713   9.869   5.580  0.4296 -0.3442  0.7894
  205MOL0     C28184   3.842   9.855   5.534 -0.4868 -1.5805 -1.0238
  205MOL0     C28185   3.869   9.814   5.401  0.1710 -1.4272 -0.4257
  205MOL0     C28186   4.000   9.814   5.357 -0.2273 -1.1104  0.3426
  205MOL0     C28187   4.109   9.853   5.449 -0.1519 -0.6571  1.1940
  205MOL0     O28188   4.243   9.862   5.422 -0.0362  0.2072 -0.5029
  205MOL0     C28189   4.293   9.767   5.316  0.0718  0.3093  0.7122
  205MOL0     C28190   4.404   9.840   5.244  0.0327 -0.3762 -0.1592
  205MOL0     C28191   4.421   9.787   5.111 -0.5600  0.1996  0.6256
  205MOL0     C28192   4.522   9.870   5.030 -0.1949  0.6547 -0.0983
  205MOL0     C28193   4.668   9.882   5.089 -0.1308  0.1008  0.2313
  205MOL0     C28194   4.757   9.962   5.005  1.1029  0.1121  0.1500
  205MOL0     C28195   4.907   9.947   5.046 -0.4002  0.7542 -0.1795
  205MOL0     C28196   5.002  10.011   4.944  0.0663 -0.7362 -0.8622
  205MOL0    Cl28197   5.048  10.174   4.993 -0.3370 -0.4013 -0.3973
  205MOL0     C28198   4.079   9.881   5.579 -0.5259  0.1265 -0.0190
  205MOL0     C28199   3.944   9.882   5.621  0.1016 -0.3323  1.4643
  205MOL0     O28200   3.654   9.644   5.567  1.0139 -0.7321 -0.3823
  205MOL0     C28201   3.470   9.926   5.707 -0.6142  0.0956  0.2705
  205MOL0     C28202   3.344   9.971   5.751 -0.6346  0.9228  0.4568
  205MOL0     N28203   2.671  10.140   6.166 -1.0811  0.4708  0.4171
  205MOL0     N28204   2.567  10.097   6.229  0.4245 -0.1575  0.5375
  205MOL0     C28205   1.492   9.756   6.083 -0.2059 -0.4384  0.5740
  205MOL0     C28206   1.359   9.778   6.125 -0.3344  0.5844 -0.5242
  205MOL0     C28207   0.963   9.610   6.311  0.2777 -0.0201 -1.0969
  205MOL0     C28208   0.873   9.694   6.240  0.2799  1.3252  0.3543
  205MOL0     C28209   0.739   9.704   6.275 -0.6519  0.5701 -0.4924
  205MOL0     C28210   0.692   9.612   6.375 -0.2887 -0.0393 -0.3690
  205MOL0     O28211   0.558   9.610   6.402 -0.2521  0.1064  0.0611
  205MOL0     C28212   0.499   9.527   6.503 -1.0244 -0.5244  0.2664
  205MOL0     C28213   0.361   9.576   6.543  0.6314  0.3975  0.4432
  205MOL0     C28214   0.298   9.479   6.654 -0.8359  0.5015  0.0016
  205MOL0     C28215   0.346   9.490   6.792 -0.3741 -0.1977  1.0818
  205MOL0     C28216   0.336   9.635   6.827  0.6478 -0.3592  0.0838
  205MOL0     C28217   0.341   9.756   6.843 -1.3448 -0.2286  0.2443
  205MOL0     C28218   0.779   9.522   6.436 -0.4454 -0.3920  0.2173
  205MOL0     C28219   0.911   9.529   6.409  0.6339  0.0510 -0.9371
  205MOL0     C28220   0.999   9.438   6.494  0.7519 -0.0586  0.6025
  205MOL0     H28221   1.234   9.475   6.031 -0.5277 -1.1076  1.4691
  205MOL0     H28222   1.461   9.447   5.949  1.5630  0.2339 -0.0210
  205MOL0     H28223   1.675   9.437   5.906  0.3115 -2.0633  0.7523
  205MOL0     H28224   1.678   9.466   6.089  2.9802  2.3258  1.3704
  205MOL0     H28225   1.880   9.388   5.956  0.5459  1.1095 -2.6923
  205MOL0     H28226   1.903   9.558   5.912 -2.5138 -0.4728 -0.6501
  205MOL0     H28227   1.857   9.510   6.218 -2.5994 -2.3285 -1.0958
  205MOL0     H28228   2.004   9.458   6.140  0.6337  0.4566 -3.0114
  205MOL0     H28229   1.900   9.729   6.078  1.9666 -1.0064 -2.5615
  205MOL0     H28230   1.952   9.699   6.246  0.0087  1.9255 -0.0595
  205MOL0     H28231   2.131   9.687   6.007 -0.2670  2.2233 -0.0840
  205MOL0     H28232   2.174   9.625   6.171  3.4201  0.5653 -1.1795
  205MOL0     H28233   2.110   9.919   6.125 -0.4135 -1.2792 -0.1216
  205MOL0     H28234   2.160   9.836   6.279  3.6752  0.1487  1.2209
  205MOL0     H28235   2.318   9.864   6.022  1.1880 -2.1236  0.2042
  205MOL0     H28236   2.373   9.774   6.168  1.2456  0.0715  0.1496
  205MOL0     H28237   2.275  10.066   6.157 -1.9663 -2.0773 -1.6206
  205MOL0     H28238   2.336   9.994   6.296 -0.4070  2.6656 -0.4641
  205MOL0     H28239   2.505   9.999   5.924 -0.7041  3.1089 -0.7668
  205MOL0     H28240   2.754  10.259   5.921 -1.3741 -0.1245  0.0023
  205MOL0     H28241   2.690  10.141   5.814 -2.0357 -1.2053  0.7216
  205MOL0     H28242   2.943  10.150   5.847 -0.8804  0.7953  0.7072
  205MOL0     H28243   2.915  10.070   6.001 -0.9233  1.5775  0.7860
  205MOL0     H28244   2.794   9.889   5.861  1.0157 -0.4910  0.6569
  205MOL0     H28245   2.871   9.971   5.714  1.5724 -1.1046 -0.7858
  205MOL0     H28246   2.998   9.810   5.930 -2.4975  0.1137  0.6567
  205MOL0     H28247   2.989   9.781   5.752 -0.0854 -1.3154  0.6630
  205MOL0     H28248   3.160   9.681   5.746 -1.7709  2.7633  3.3312
  205MOL0     H28249   3.313   9.496   5.702 -0.0888  1.0671  1.3318
  205MOL0     H28250   3.486   9.521   5.695  1.0059 -0.4071  0.1154
  205MOL0     H28251   3.400   9.532   5.542  3.3025 -1.0635  0.9782
  205MOL0     H28252   3.789   9.800   5.328  0.6663 -0.8161 -1.0990
  205MOL0     H28253   4.022   9.781   5.256  0.0319 -2.0231  0.6932
  205MOL0     H28254   4.331   9.678   5.366 -0.2021  0.0193  0.4087
  205MOL0     H28255   4.209   9.726   5.259 -0.5023  0.4599  1.4314
  205MOL0     H28256   4.385   9.947   5.230  0.9835 -0.1642  0.0777
  205MOL0     H28257   4.487   9.823   5.314 -2.3259 -1.0653  2.6588
  205MOL0     H28258   4.326   9.780   5.059 -0.0017 -1.4473 -0.2453
  205MOL0     H28259   4.470   9.689   5.114  0.2326  0.5885  1.0418
  205MOL0     H28260   4.482   9.970   5.010 -1.1579  0.1488 -0.8101
  205MOL0     H28261   4.538   9.832   4.928  0.8648  0.9039 -0.0354
  205MOL0     H28262   4.664   9.929   5.187 -0.8689 -0.0160  0.2600
  205MOL0     H28263   4.722   9.787   5.097  0.5788  0.2978 -1.5566
  205MOL0     H28264   4.743  10.071   5.009  1.3051  0.1501 -0.1644
  205MOL0     H28265   4.746   9.930   4.902 -0.2343 -0.7866  0.5474
  205MOL0     H28266   4.921   9.838   5.037 -1.5695  0.5636  0.1727
  205MOL0     H28267   4.941   9.973   5.146  4.7374 -1.4537 -1.0484
  205MOL0     H28268   4.956  10.008   4.845 -0.3686  1.6656 -0.7970
  205MOL0     H28269   5.097   9.956   4.950  2.4447  3.0765  0.7892
  205MOL0     H28270   4.158   9.916   5.644 -0.3852 -2.4980  1.3478
  205MOL0     H28271   3.911   9.933   5.712 -1.5443 -0.1656  0.8118
  205MOL0     H28272   3.551   9.999   5.709  0.3556 -0.9507  2.8355
  205MOL0     H28273   3.332  10.079   5.758  1.0513  1.0554  2.1362
  205MOL0     H28274   1.574   9.819   6.116  0.5456 -1.5112  0.7944
  205MOL0     H28275   1.323   9.856   6.192  2.3828  0.0803  1.7160
  205MOL0     H28276   0.913   9.751   6.157 -0.0950  0.2395 -0.6049
  205MOL0     H28277   0.668   9.756   6.212 -0.0954 -0.2042 -1.8048
  205MOL0     H28278   0.495   9.423   6.470 -2.0212 -0.1559 -0.8171
  205MOL0     H28279   0.561   9.538   6.593 -2.7406 -4.1356  2.0945
  205MOL0     H28280   0.294   9.570   6.458  0.9947 -1.9450  0.2446
  205MOL0     H28281   0.376   9.673   6.591 -1.4774  1.0046 -0.0500
  205MOL0     H28282   0.198   9.522   6.642 -0.1920  1.7911 -1.0021
  205MOL0     H28283   0.298   9.374   6.621  0.5769  0.7110 -0.7891
  205MOL0     H28284   0.453   9.466   6.799 -0.6896 -1.4821  1.8539
  205MOL0     H28285   0.297   9.420   6.861  0.4257 -2.1737 -0.2747
  205MOL0     H28286   0.361   9.862   6.850  0.0074 -0.2773 -1.8499
  205MOL0     H28287   0.754   9.446   6.509 -1.4162  1.0151  1.4153
  205MOL0     H28288   1.041   9.499   6.575 -1.5944  1.8028  0.5337
  205MOL0     H28289   0.939   9.364   6.548 -3.9784  2.8124 -0.1817
  205MOL0     H28290   1.079   9.381   6.445  1.4037 -1.0120  2.6254
  206MOL0     O28291  11.182   8.888   4.639  0.1247  0.4193  0.2187
  206MOL0     C28292  11.182   8.999   4.586  0.1266 -0.1585  0.0062
  206MOL0     O28293  11.293   9.080   4.583 -0.7417  0.2741  0.1326
  206MOL0     C28294  11.412   9.035   4.642  0.2261  0.8083 -0.8546
  206MOL0     C28295  11.434   9.019   4.781  0.1600  0.6690  0.2348
  206MOL0     C28296  11.561   8.968   4.821 -0.4425  1.2451 -0.2915
  206MOL0     C28297  11.666   8.933   4.728 -0.2586 -0.0874 -0.6011
  206MOL0     O28298  11.776   8.850   4.757  0.1971 -0.0781  0.0526
  206MOL0     C28299  11.760   8.756   4.869  0.0673 -0.3690  0.2826
  206MOL0     C28300  11.863   8.640   4.863 -0.2127  0.7762 -1.3369
  206MOL0     C28301  12.007   8.682   4.873 -0.5574  0.0052 -0.0391
  206MOL0     C28302  12.100   8.565   4.900 -0.4040 -0.2393 -0.4838
  206MOL0     C28303  12.251   8.603   4.919  0.1510 -0.2679 -0.7112
  206MOL0     C28304  12.318   8.676   4.803 -0.0748  0.1816 -0.4034
  206MOL0     C28305  12.461   8.719   4.829  0.5362 -0.4029 -0.1760
  206MOL0     C28306  12.556   8.615   4.859 -0.5053  0.4092  0.9190
  206MOL0     N28307  12.585   8.544   4.733 -0.1207  0.8253  0.0837
  206MOL0     C28308  12.532   8.416   4.702 -0.2594  0.1985 -0.2806
  206MOL0     C28309  12.589   8.393   4.585 -0.4510  0.0607  0.6401
  206MOL0     C28310  12.578   8.265   4.509  1.1134  0.2499  0.1069
  206MOL0     C28311  12.674   8.158   4.569 -0.1984  1.0671  0.8619
  206MOL0     C28312  12.693   8.034   4.472 -0.2540 -0.3003 -0.5462
  206MOL0     C28313  12.676   7.902   4.546  0.7735 -0.4615  0.0273
  206MOL0     O28314  12.771   7.907   4.649 -0.3260 -0.6797 -1.4384
  206MOL0     C28315  12.774   7.806   4.744  0.1248 -0.0956  1.0979
  206MOL0     C28316  12.672   7.790   4.834  0.7959  0.7631  0.6791
  206MOL0     C28317  12.673   7.685   4.923  0.0604  0.2028 -0.5338
  206MOL0     C28318  12.567   7.675   5.022 -0.2857 -0.1038  0.4597
  206MOL0     C28319  12.787   7.604   4.936  0.3348 -1.1501  0.0241
  206MOL0     C28320  12.795   7.496   5.036 -0.9724 -0.2243 -0.7596
  206MOL0     O28321  12.689   7.408   5.040 -0.4436  0.7277 -0.6570
  206MOL0     C28322  12.685   7.304   5.126 -0.9465 -0.1950  0.3810
  206MOL0     C28323  12.785   7.202   5.128  0.1607 -0.4589 -0.8348
  206MOL0     C28324  12.764   7.094   5.211 -0.0626  0.6955 -0.0706
  206MOL0     C28325  12.658   7.089   5.297 -0.0424 -0.1594 -0.6188
  206MOL0     O28326  12.619   6.977   5.367 -0.7106 -0.2397 -0.4067
  206MOL0     C28327  12.723   6.891   5.404 -0.2892  0.7206 -0.1466
  206MOL0     C28328  12.674   6.788   5.513 -0.1963  0.2373  0.5514
  206MOL0     C28329  12.774   6.677   5.539 -0.5474  0.2186  1.2167
  206MOL0     C28330  12.708   6.576   5.637  0.7025  0.7036 -0.1049
  206MOL0     C28331  12.748   6.596   5.783  0.6118 -0.6898  0.6153
  206MOL0     C28332  12.676   6.717   5.841 -0.2243  0.4350 -0.7225
  206MOL0     C28333  12.697   6.719   5.989  0.1887  0.5859 -0.1609
  206MOL0     C28334  12.566   6.667   6.061  0.7498  0.8978  0.0083
  206MOL0    Cl28335  12.427   6.780   6.041 -0.3644  0.1463 -0.3002
  206MOL0     C28336  12.574   7.201   5.313 -0.4487 -0.4103 -0.3476
  206MOL0     C28337  12.583   7.297   5.213  0.2382  0.1336  0.2342
  206MOL0     O28338  12.898   7.483   5.103  0.5201 -0.5057  0.3914
  206MOL0     C28339  12.899   7.624   4.849 -0.4586  0.0446  0.2485
  206MOL0     C28340  12.893   7.737   4.771  0.5838  0.3481  0.2428
  206MOL0     N28341  12.686   8.490   4.557 -0.0119 -0.3629  0.3396
  206MOL0     N28342  12.679   8.579   4.652 -0.3443 -0.3667 -0.9828
  206MOL0     C28343  11.643   8.969   4.597  0.6166  0.5991  0.1303
  206MOL0     C28344  11.517   9.013   4.557  0.5536 -0.3221 -0.6579
  206MOL0     C28345  11.055   9.059   4.540  0.4531 -0.0679 -0.1783
  206MOL0     C28346  11.034   9.196   4.540  0.0165  0.2415 -0.7279
  206MOL0     C28347  10.916   9.258   4.503  0.2382 -1.2860  0.8012
  206MOL0     C28348  10.813   9.174   4.469  1.2304  0.1387  0.2455
  206MOL0     O28349  10.706   9.247   4.422  0.0386  0.0122 -0.0851
  206MOL0     C28350  10.582   9.176   4.400  0.1330  0.0351 -0.5335
  206MOL0     C28351  10.461   9.263   4.363 -0.3688 -1.1809 -0.5981
  206MOL0     C28352  10.333   9.177   4.364  0.4959  0.0033  0.1350
  206MOL0     C28353  10.210   9.275   4.359 -0.4277  0.3702  0.2982
  206MOL0     C28354  10.083   9.207   4.345  0.4554  0.1867  0.5559
  206MOL0     C28355   9.973   9.161   4.345  0.6172 -0.5061  0.8641
  206MOL0     C28356  10.823   9.033   4.487 -0.1649  0.2936  0.3745
  206MOL0     C28357  10.938   8.976   4.509 -0.3981 -0.2201  0.4003
  206MOL0     C28358  10.952   8.831   4.499 -0.4695 -0.2687 -0.3386
  206MOL0     H28359  11.364   9.050   4.858  2.1125  1.7634  1.6455
  206MOL0     H28360  11.587   8.946   4.924  0.0494  0.0505 -0.6502
  206MOL0     H28361  11.660   8.713   4.866 -0.2188  0.3324 -0.9465
  206MOL0     H28362  11.775   8.807   4.964 -0.9941 -1.0977  0.8583
  206MOL0     H28363  11.837   8.570   4.944  0.0424 -0.1762 -2.0625
  206MOL0     H28364  11.848   8.581   4.773  4.4023 -0.8194 -1.3697
  206MOL0     H28365  12.041   8.731   4.781 -0.2566  0.8681  0.5151
  206MOL0     H28366  12.013   8.756   4.954 -0.1393  2.8859 -2.5337
  206MOL0     H28367  12.075   8.517   4.995 -0.1321 -1.0468 -0.8194
  206MOL0     H28368  12.092   8.485   4.826 -0.8024 -3.1372  2.4865
  206MOL0     H28369  12.309   8.518   4.956  0.3608  0.0748 -0.2445
  206MOL0     H28370  12.257   8.677   4.999 -1.3708 -3.2670  2.4380
  206MOL0     H28371  12.321   8.618   4.711 -1.3172 -0.6297  0.0472
  206MOL0     H28372  12.255   8.763   4.783 -1.5289 -0.9962 -1.1301
  206MOL0     H28373  12.452   8.790   4.911 -1.0828  2.3707 -2.5764
  206MOL0     H28374  12.500   8.764   4.738 -2.2095 -1.1600 -1.8811
  206MOL0     H28375  12.645   8.663   4.901  0.1345 -0.9566  1.1929
  206MOL0     H28376  12.528   8.541   4.935 -0.6568  0.2427  0.7024
  206MOL0     H28377  12.456   8.355   4.749  0.7361 -0.4229  0.5626
  206MOL0     H28378  12.595   8.287   4.403 -2.8294 -1.9980 -1.2149
  206MOL0     H28379  12.474   8.230   4.499  1.2232  0.5111 -3.0218
  206MOL0     H28380  12.773   8.201   4.586  1.4719 -2.6863  1.6358
  206MOL0     H28381  12.633   8.132   4.667 -1.7843  0.7381  0.1505
  206MOL0     H28382  12.625   8.037   4.386 -2.5283 -1.0874  1.1385
  206MOL0     H28383  12.797   8.031   4.438 -0.0929  1.0832 -0.2226
  206MOL0     H28384  12.575   7.891   4.588  1.5901 -3.1696  1.5871
  206MOL0     H28385  12.688   7.823   4.471  1.6372  0.9404 -1.3537
  206MOL0     H28386  12.573   7.834   4.830  0.0473 -0.6136  2.6580
  206MOL0     H28387  12.494   7.753   4.997 -1.1199 -1.2670 -0.9046
  206MOL0     H28388  12.596   7.710   5.122  0.7182  0.5484 -0.0456
  206MOL0     H28389  12.526   7.574   5.028 -1.3262  0.2498 -0.2644
  206MOL0     H28390  12.871   7.190   5.062  2.4972  0.6196  1.8144
  206MOL0     H28391  12.819   7.002   5.203 -0.5013  0.5669 -2.4303
  206MOL0     H28392  12.768   6.833   5.324  0.0513 -0.5352  0.9146
  206MOL0     H28393  12.802   6.953   5.447  0.4814  2.5869 -3.8484
  206MOL0     H28394  12.654   6.844   5.605  0.4378 -1.8807  2.0584
  206MOL0     H28395  12.583   6.738   5.478 -1.0031 -0.1292  3.0068
  206MOL0     H28396  12.861   6.723   5.588 -1.0403  1.2114  1.1863
  206MOL0     H28397  12.806   6.627   5.446 -1.2763 -1.2100  1.7117
  206MOL0     H28398  12.762   6.484   5.611  3.0270  1.6002  1.2195
  206MOL0     H28399  12.603   6.565   5.611  0.4927  3.3585 -0.6349
  206MOL0     H28400  12.727   6.498   5.826  0.0286 -1.4146 -1.2012
  206MOL0     H28401  12.856   6.610   5.792  0.4279  0.3467  1.4230
  206MOL0     H28402  12.568   6.710   5.824 -0.6218 -2.7757  2.0044
  206MOL0     H28403  12.717   6.803   5.789 -0.0216  0.6758 -0.1695
  206MOL0     H28404  12.718   6.822   6.019  4.4776 -0.6097  1.8482
  206MOL0     H28405  12.782   6.657   6.022 -2.1620 -2.6686  0.3030
  206MOL0     H28406  12.584   6.634   6.164  0.2314 -0.5651 -0.3452
  206MOL0     H28407  12.539   6.577   6.006 -0.5907  0.8907  0.6527
  206MOL0     H28408  12.490   7.194   5.380  0.6206 -1.2687  0.9606
  206MOL0     H28409  12.503   7.369   5.200  0.1894  0.4916  2.2755
  206MOL0     H28410  12.995   7.576   4.864 -0.7119 -0.6795 -0.4167
  206MOL0     H28411  12.970   7.777   4.706 -0.6979  2.0354 -0.2942
  206MOL0     H28412  11.733   8.950   4.540  1.3942  1.5437  0.9965
  206MOL0     H28413  11.501   9.037   4.452 -0.6590 -3.5205 -1.3209
  206MOL0     H28414  11.114   9.261   4.573 -1.7494  2.8623 -1.3155
  206MOL0     H28415  10.909   9.363   4.478 -1.3636 -1.3030  1.0411
  206MOL0     H28416  10.601   9.100   4.325  2.0060 -0.0957  0.0292
  206MOL0     H28417  10.554   9.122   4.491  1.6487 -0.1539 -0.1511
  206MOL0     H28418  10.470   9.291   4.258 -1.2834  0.6948 -0.2165
  206MOL0     H28419  10.452   9.355   4.421  1.3989 -2.7660  2.4184
  206MOL0     H28420  10.334   9.114   4.275 -0.9232  1.4658 -0.9699
  206MOL0     H28421  10.323   9.120   4.457 -1.3889 -1.5508 -0.9435
  206MOL0     H28422  10.219   9.349   4.279 -0.9281  3.2485  2.7253
  206MOL0     H28423  10.197   9.340   4.447 -1.3837 -0.2191  0.6015
  206MOL0     H28424   9.883   9.104   4.336 -0.1028  0.5186  1.4644
  206MOL0     H28425  10.742   8.965   4.466 -3.4516  2.5196  4.3358
  206MOL0     H28426  10.872   8.788   4.438 -1.5576  0.9176  0.2239
  206MOL0     H28427  11.046   8.816   4.444  0.1024 -0.9010  0.7742
  206MOL0     H28428  10.967   8.790   4.599  3.1099  2.8235  0.6517
  207MOL0     O28429  10.449   8.383   4.261 -0.1593  0.3243  0.0281
  207MOL0     C28430  10.436   8.269   4.300 -0.2206  1.0348 -0.8282
  207MOL0     O28431  10.505   8.162   4.261  0.6832 -0.3751  0.3568
  207MOL0     C28432  10.616   8.183   4.188  0.2893 -0.2712 -0.4968
  207MOL0     C28433  10.602   8.206   4.048  0.3231 -0.4152 -0.5320
  207MOL0     C28434  10.712   8.238   3.968 -0.0669 -0.5724  0.2936
  207MOL0     C28435  10.836   8.245   4.032 -0.9000 -0.1594  0.4286
  207MOL0     O28436  10.950   8.265   3.947  0.3373  0.0230 -0.7834
  207MOL0     C28437  11.052   8.341   4.010 -0.1543 -0.0241 -0.1510
  207MOL0     C28438  11.142   8.377   3.894 -0.1413 -0.3450  0.3712
  207MOL0     C28439  11.264   8.470   3.924  0.0513  0.1950 -0.1225
  207MOL0     C28440  11.388   8.398   3.994  0.4948 -0.5313 -0.3011
  207MOL0     C28441  11.493   8.367   3.890 -0.3836 -0.4909 -0.5233
  207MOL0     C28442  11.623   8.329   3.954 -0.4254  0.0292 -0.7841
  207MOL0     C28443  11.730   8.259   3.872  0.3780  0.5097 -0.6925
  207MOL0     C28444  11.758   8.329   3.738 -0.3490  0.7443 -0.6556
  207MOL0     N28445  11.890   8.408   3.737  0.3095  0.2357 -0.1339
  207MOL0     C28446  11.898   8.537   3.791 -0.2203  1.0897  0.9439
  207MOL0     C28447  12.030   8.572   3.783  0.6995  0.1217  0.2322
  207MOL0     C28448  12.088   8.706   3.807  0.7762  0.3639 -0.9447
  207MOL0     C28449  12.031   8.808   3.700  0.0512  0.0245  0.2213
  207MOL0     C28450  12.113   8.940   3.692  1.1433 -0.6568 -0.0366
  207MOL0     C28451  12.125   9.003   3.829 -0.4844 -0.0171 -0.1408
  207MOL0     O28452  12.006   8.998   3.909  0.4988 -0.2573 -0.2347
  207MOL0     C28453  11.902   9.090   3.896 -0.2148 -0.6795  0.3916
  207MOL0     C28454  11.907   9.202   3.810  0.5971 -1.3153 -0.0709
  207MOL0     C28455  11.800   9.288   3.798  0.0329  0.3997 -0.4731
  207MOL0     C28456  11.817   9.409   3.716  0.0056 -1.0756  0.0967
  207MOL0     C28457  11.680   9.256   3.868 -0.8698  0.9276  0.4368
  207MOL0     C28458  11.548   9.328   3.867 -0.7119 -0.1286  0.6074
  207MOL0     O28459  11.558   9.460   3.833  0.2430 -0.6428  0.0853
  207MOL0     C28460  11.448   9.512   3.765 -0.1908 -0.1037  0.0805
  207MOL0     C28461  11.465   9.546   3.631 -0.4759 -0.0476  0.2290
  207MOL0     C28462  11.356   9.600   3.547  0.0118  0.5400  0.0116
  207MOL0     C28463  11.229   9.611   3.600 -0.6466 -0.2212 -0.0863
  207MOL0     O28464  11.134   9.639   3.507 -0.8165 -0.2042 -0.7143
  207MOL0     C28465  10.995   9.622   3.551  0.4533  0.2104  0.6717
  207MOL0     C28466  10.890   9.670   3.451 -0.4908 -0.3323 -0.8537
  207MOL0     C28467  10.757   9.672   3.520  0.6865  0.1397  1.0939
  207MOL0     C28468  10.661   9.757   3.428 -0.3144  0.4825  0.5191
  207MOL0     C28469  10.613   9.702   3.300 -0.1490 -0.0135 -0.1425
  207MOL0     C28470  10.492   9.785   3.239 -0.3710 -0.0312 -0.2867
  207MOL0     C28471  10.366   9.704   3.275  0.1732 -0.0285  0.0206
  207MOL0     C28472  10.241   9.790   3.247 -0.0468 -0.2713 -0.4888
  207MOL0    Cl28473  10.228   9.903   3.376  0.4663 -0.1865 -0.5338
  207MOL0     C28474  11.219   9.588   3.742 -0.2238 -0.4392 -0.5179
  207MOL0     C28475  11.323   9.538   3.818 -0.0349  0.2410 -0.1360
  207MOL0     O28476  11.442   9.271   3.879 -0.1309  0.1695  0.1730
  207MOL0     C28477  11.677   9.136   3.945  0.5849  0.2183  0.0635
  207MOL0     C28478  11.785   9.052   3.964  0.1549 -0.2330 -0.0432
  207MOL0     N28479  12.097   8.463   3.731  0.1418 -0.6527  0.3689
  207MOL0     N28480  12.017   8.364   3.716  0.3890  0.0620  0.0520
  207MOL0     C28481  10.851   8.216   4.169 -0.0665 -0.7161 -0.8692
  207MOL0     C28482  10.740   8.191   4.244 -0.1189 -0.0593 -0.2409
  207MOL0     C28483  10.348   8.254   4.419 -0.1403 -0.3932  0.7680
  207MOL0     C28484  10.326   8.358   4.512 -0.6300  0.3137  0.0004
  207MOL0     C28485  10.240   8.356   4.623 -0.0830  0.1172  0.1848
  207MOL0     C28486  10.165   8.240   4.649 -0.6000  0.5580  0.4954
  207MOL0     O28487  10.081   8.246   4.752 -0.3712  0.0906  0.1823
  207MOL0     C28488  10.066   8.121   4.816 -1.2695  0.0796  0.1476
  207MOL0     C28489  10.006   8.142   4.950 -0.2073  0.3048  0.7526
  207MOL0     C28490   9.857   8.133   4.947  0.3754  0.6985  0.3350
  207MOL0     C28491   9.805   8.108   5.088  0.6242  0.1698 -0.1573
  207MOL0     C28492   9.823   8.231   5.164 -0.0366 -0.7189 -0.9258
  207MOL0     C28493   9.836   8.337   5.217 -0.2675  0.0467 -0.8383
  207MOL0     C28494  10.181   8.130   4.558  0.5363 -0.0288  0.0926
  207MOL0     C28495  10.260   8.143   4.443 -0.2597  0.3800 -0.2986
  207MOL0     C28496  10.266   8.025   4.347 -0.4060  0.4921  0.2787
  207MOL0     H28497  10.505   8.210   3.999  0.9336 -0.3469 -1.7636
  207MOL0     H28498  10.704   8.267   3.863  3.1836  2.7929  0.7309
  207MOL0     H28499  11.109   8.286   4.086 -0.7522  2.0120  1.8747
  207MOL0     H28500  11.004   8.428   4.056 -0.1747  0.1738 -0.5357
  207MOL0     H28501  11.180   8.287   3.845 -2.2104  0.8303 -3.8532
  207MOL0     H28502  11.083   8.432   3.821  1.1544 -0.0536 -0.5014
  207MOL0     H28503  11.307   8.520   3.836  1.1534 -1.0106 -0.2952
  207MOL0     H28504  11.232   8.547   3.996 -0.9843 -0.4114  0.0835
  207MOL0     H28505  11.440   8.463   4.066  3.1292 -0.2325 -2.3299
  207MOL0     H28506  11.359   8.304   4.041 -1.3049  1.4393  2.9008
  207MOL0     H28507  11.510   8.452   3.823  0.3484 -1.1548 -1.2030
  207MOL0     H28508  11.454   8.287   3.826 -2.8130 -1.6350  2.1675
  207MOL0     H28509  11.658   8.421   4.002  1.9049 -1.3904  0.4367
  207MOL0     H28510  11.599   8.251   4.027 -0.7274 -2.4498 -3.3168
  207MOL0     H28511  11.691   8.157   3.866  1.2653  0.0376  1.0572
  207MOL0     H28512  11.826   8.264   3.924  0.5760 -0.6430 -0.9336
  207MOL0     H28513  11.764   8.250   3.663  0.8970 -1.4546  1.6183
  207MOL0     H28514  11.683   8.403   3.707 -0.1920  1.4141  0.4884
  207MOL0     H28515  11.814   8.599   3.821 -0.3354  1.6665 -0.4558
  207MOL0     H28516  12.197   8.698   3.801  0.9932  1.6632  0.6803
  207MOL0     H28517  12.060   8.734   3.909 -0.2940 -1.3566 -0.7269
  207MOL0     H28518  12.052   8.764   3.602 -2.0735 -0.7188  0.0409
  207MOL0     H28519  11.922   8.819   3.710 -0.2122 -2.3678  0.6191
  207MOL0     H28520  12.211   8.921   3.648  1.5401  1.1252 -0.0141
  207MOL0     H28521  12.051   8.995   3.621 -1.0977  0.3110  2.4739
  207MOL0     H28522  12.196   8.943   3.887  0.2851 -0.2385 -1.2784
  207MOL0     H28523  12.168   9.103   3.834 -3.3512  1.2496  2.1484
  207MOL0     H28524  11.993   9.228   3.749  0.2561  1.2765  0.4235
  207MOL0     H28525  11.777   9.502   3.759  0.2080 -1.0067  0.1370
  207MOL0     H28526  11.766   9.403   3.620 -0.4759  2.6207 -0.0064
  207MOL0     H28527  11.919   9.441   3.695 -0.9646  0.8978 -1.9981
  207MOL0     H28528  11.568   9.531   3.600 -0.7861 -3.5034  0.4291
  207MOL0     H28529  11.374   9.614   3.441  1.7602 -0.1035  0.1884
  207MOL0     H28530  10.979   9.516   3.572 -2.4246  0.4216  0.0453
  207MOL0     H28531  10.986   9.678   3.644 -0.2167  0.5039  0.4446
  207MOL0     H28532  10.911   9.776   3.433  0.0043  0.4450  3.2803
  207MOL0     H28533  10.894   9.612   3.358 -0.5717 -1.5069 -0.1365
  207MOL0     H28534  10.777   9.710   3.620  4.3069 -2.0789  1.3871
  207MOL0     H28535  10.722   9.570   3.540 -1.4558  0.3638 -1.0218
  207MOL0     H28536  10.715   9.848   3.402 -0.9160  0.7907  0.3297
  207MOL0     H28537  10.569   9.783   3.480 -0.6019  1.5491 -0.4661
  207MOL0     H28538  10.693   9.709   3.225  0.4175 -2.3974  0.1398
  207MOL0     H28539  10.577   9.599   3.291 -0.9709  0.3323 -0.9365
  207MOL0     H28540  10.506   9.792   3.131  1.2881 -0.4366 -0.1342
  207MOL0     H28541  10.482   9.883   3.287  0.5964  0.1941 -0.5226
  207MOL0     H28542  10.357   9.675   3.380 -3.3811  0.0626 -0.1389
  207MOL0     H28543  10.366   9.613   3.214  1.6462  1.6601 -2.7102
  207MOL0     H28544  10.155   9.723   3.257 -1.3019  1.1836 -1.3253
  207MOL0     H28545  10.245   9.849   3.155 -1.1283  0.6610  0.0490
  207MOL0     H28546  11.119   9.601   3.783 -0.7340 -0.2028 -1.7864
  207MOL0     H28547  11.313   9.490   3.915 -0.0127  0.2190 -0.1447
  207MOL0     H28548  11.583   9.113   3.994  1.1081  0.4474  1.1837
  207MOL0     H28549  11.789   8.962   4.024  0.3753  0.1286  0.4898
  207MOL0     H28550  10.948   8.228   4.218 -1.3925  2.9991  1.2189
  207MOL0     H28551  10.740   8.168   4.350 -2.4133  0.9228  0.0435
  207MOL0     H28552  10.380   8.451   4.497  0.3082 -0.2549 -0.2899
  207MOL0     H28553  10.235   8.443   4.687 -1.6813 -0.3111  0.6651
  207MOL0     H28554  10.021   8.051   4.745  4.2527 -0.5882 -3.3310
  207MOL0     H28555  10.167   8.085   4.838 -0.9345  1.4239  0.9259
  207MOL0     H28556  10.039   8.239   4.988 -1.3038  0.3621  1.6334
  207MOL0     H28557  10.044   8.065   5.018  1.4363  0.8037  0.4405
  207MOL0     H28558   9.807   8.222   4.908  1.6391  1.6511  0.8253
  207MOL0     H28559   9.826   8.045   4.890 -2.1033  1.6356  0.1433
  207MOL0     H28560   9.854   8.026   5.141  1.1981  0.7109  0.1656
  207MOL0     H28561   9.701   8.085   5.067  0.9256 -0.8104 -0.6409
  207MOL0     H28562   9.843   8.433   5.264 -0.5991 -0.4559  0.2797
  207MOL0     H28563  10.130   8.035   4.576  0.7687  0.2352  2.4886
  207MOL0     H28564  10.356   7.966   4.368 -1.1742 -0.3136  1.3912
  207MOL0     H28565  10.179   7.965   4.373 -0.9689  1.5636  0.9678
  207MOL0     H28566  10.260   8.056   4.242 -0.2919  1.7156  0.6123
  208MOL0     O28567   8.810   8.355   9.271 -0.4131 -0.0259 -0.0692
  208MOL0     C28568   8.835   8.470   9.242 -0.4707  0.8350 -0.0135
  208MOL0     O28569   8.895   8.505   9.124  0.8508 -0.2840 -0.4725
  208MOL0     C28570   8.973   8.413   9.052  0.3065  0.2260 -0.1197
  208MOL0     C28571   8.956   8.403   8.908 -0.5093  0.5110 -0.0420
  208MOL0     C28572   9.034   8.326   8.829 -0.5900  0.9579  0.7129
  208MOL0     C28573   9.135   8.253   8.889 -0.4940 -0.1725 -1.2816
  208MOL0     O28574   9.208   8.157   8.820  0.6499 -0.5061 -0.0346
  208MOL0     C28575   9.125   8.076   8.731  0.5764  0.0037  0.1038
  208MOL0     C28576   9.199   7.954   8.674  0.5032  0.4095 -0.1782
  208MOL0     C28577   9.333   7.992   8.618  0.4494  0.2269 -0.2215
  208MOL0     C28578   9.444   7.999   8.728 -0.9668 -0.0207 -0.3100
  208MOL0     C28579   9.586   7.998   8.669  0.7350 -0.1238 -1.1421
  208MOL0     C28580   9.625   8.130   8.595 -0.5871  0.7550  0.1157
  208MOL0     C28581   9.782   8.135   8.561  0.8524 -0.2572  0.3915
  208MOL0     C28582   9.831   8.271   8.509  0.8450 -0.5218  0.0480
  208MOL0     N28583   9.982   8.265   8.508 -0.4450  0.1348 -0.4873
  208MOL0     C28584  10.057   8.303   8.616  0.7359 -0.3314  0.2535
  208MOL0     C28585  10.180   8.264   8.599 -0.8659 -0.1696 -0.5123
  208MOL0     C28586  10.291   8.264   8.709 -0.3479 -0.5636  0.1712
  208MOL0     C28587  10.255   8.147   8.804 -0.4290  0.3312 -0.0878
  208MOL0     C28588  10.366   8.121   8.911  0.8443  0.1608  0.1127
  208MOL0     C28589  10.498   8.064   8.851  0.3289 -0.3285 -0.6613
  208MOL0     O28590  10.552   8.005   8.967 -0.3758 -0.2037  0.4671
  208MOL0     C28591  10.681   7.952   8.951  0.4165  0.6815 -0.8148
  208MOL0     C28592  10.744   7.925   8.834 -0.8139  0.0948 -0.8826
  208MOL0     C28593  10.869   7.861   8.838  0.1723 -0.3109 -0.2480
  208MOL0     C28594  10.937   7.840   8.701 -0.6756  0.4134  0.0293
  208MOL0     C28595  10.936   7.829   8.961  0.2170  0.5434  0.0826
  208MOL0     C28596  11.061   7.764   8.967 -0.2550  0.1632  0.1480
  208MOL0     O28597  11.083   7.656   8.890  0.1179 -0.6658 -0.6106
  208MOL0     C28598  11.198   7.586   8.903 -0.0868 -0.6859  0.4304
  208MOL0     C28599  11.202   7.459   8.952 -0.1799  0.2159  0.8264
  208MOL0     C28600  11.313   7.371   8.936 -0.7108 -0.6386  0.7516
  208MOL0     C28601  11.433   7.420   8.889 -0.5585  0.0098 -0.0109
  208MOL0     O28602  11.550   7.349   8.880 -0.2048  0.3544  0.4938
  208MOL0     C28603  11.524   7.208   8.875 -0.3909  0.2790 -0.1432
  208MOL0     C28604  11.651   7.140   8.846 -0.4683 -0.4308 -0.5159
  208MOL0     C28605  11.685   7.165   8.704 -0.1918 -0.1506 -0.6453
  208MOL0     C28606  11.820   7.085   8.669  0.4162 -0.8599 -0.2525
  208MOL0     C28607  11.859   7.109   8.518  0.0262  0.1813  0.0882
  208MOL0     C28608  11.972   7.014   8.481  0.9231 -0.1667 -0.5756
  208MOL0     C28609  11.984   7.014   8.331 -1.2034  0.5126  0.0478
  208MOL0     C28610  12.095   6.916   8.275 -0.1212  0.1627 -0.1637
  208MOL0    Cl28611  12.074   6.880   8.106 -0.2196  0.0024 -0.0635
  208MOL0     C28612  11.431   7.556   8.850 -0.2759  0.0300 -0.0781
  208MOL0     C28613  11.319   7.639   8.863 -0.2178  0.0092 -0.5650
  208MOL0     O28614  11.145   7.819   9.041  0.4430 -0.2319 -0.0485
  208MOL0     C28615  10.865   7.869   9.073  0.0700  0.2860  0.1942
  208MOL0     C28616  10.744   7.920   9.074  0.0792  0.2475 -0.3902
  208MOL0     N28617  10.188   8.191   8.484  0.1570  0.1596  0.1316
  208MOL0     N28618  10.064   8.180   8.436 -0.3202 -1.2993  0.4071
  208MOL0     C28619   9.162   8.270   9.034 -0.2693 -0.1255 -0.1793
  208MOL0     C28620   9.089   8.353   9.111  0.8777  0.7512 -0.4495
  208MOL0     C28621   8.780   8.573   9.325 -0.1437 -0.3157  0.7255
  208MOL0     C28622   8.794   8.702   9.270  0.1916  0.5378  0.1298
  208MOL0     C28623   8.755   8.811   9.339 -0.2251  0.0502  1.0344
  208MOL0     C28624   8.708   8.808   9.464  0.3374 -0.0875  0.3686
  208MOL0     O28625   8.692   8.927   9.531  0.2061 -0.1275  0.2376
  208MOL0     C28626   8.658   8.901   9.667 -0.7172  0.1562  0.3455
  208MOL0     C28627   8.653   9.030   9.742 -0.5648 -0.2158  0.3292
  208MOL0     C28628   8.625   9.016   9.893  1.0986 -0.3491  0.3392
  208MOL0     C28629   8.616   9.149   9.957 -0.1100 -0.4109  0.5109
  208MOL0     C28630   8.525   9.138  10.073 -0.6267 -0.5156 -0.0595
  208MOL0     C28631   8.449   9.108  10.160 -0.8906 -0.3078 -0.5292
  208MOL0     C28632   8.687   8.683   9.521 -0.1448  0.8174 -0.1621
  208MOL0     C28633   8.717   8.562   9.453  0.0900  0.6748  1.2025
  208MOL0     C28634   8.683   8.427   9.525 -0.4322 -0.5396  0.2392
  208MOL0     H28635   8.871   8.444   8.856 -0.1685 -0.7648 -1.7178
  208MOL0     H28636   9.029   8.331   8.721  0.2677  2.1445  0.7150
  208MOL0     H28637   9.108   8.135   8.641  1.6158 -0.5644 -0.4767
  208MOL0     H28638   9.021   8.063   8.764  0.9631 -1.1558  0.9452
  208MOL0     H28639   9.213   7.876   8.749 -0.0355 -1.1474 -1.6276
  208MOL0     H28640   9.131   7.917   8.596  0.3345  0.3384  0.0025
  208MOL0     H28641   9.352   7.909   8.549 -0.8874  1.2363 -1.8706
  208MOL0     H28642   9.329   8.088   8.566  3.2740  1.2276  1.1833
  208MOL0     H28643   9.436   8.093   8.783  4.8777 -0.5903  2.2333
  208MOL0     H28644   9.431   7.920   8.802  2.6284  0.0130  0.5089
  208MOL0     H28645   9.600   7.907   8.611 -2.3942  0.8678 -3.7437
  208MOL0     H28646   9.662   7.996   8.748 -0.5518 -1.2264  0.1178
  208MOL0     H28647   9.561   8.150   8.509 -0.4402 -0.0814 -0.1885
  208MOL0     H28648   9.618   8.206   8.673  0.0939 -0.5796  1.5326
  208MOL0     H28649   9.797   8.051   8.493 -0.2716 -0.8237  0.8254
  208MOL0     H28650   9.841   8.096   8.645  1.3843 -0.6096 -0.1386
  208MOL0     H28651   9.803   8.274   8.404  1.6039 -1.5357 -0.2092
  208MOL0     H28652   9.787   8.362   8.550  0.7176  0.8342 -2.8687
  208MOL0     H28653  10.019   8.342   8.710  0.2170 -1.1631  0.3988
  208MOL0     H28654  10.291   8.360   8.762 -0.0627  0.6110 -1.8669
  208MOL0     H28655  10.386   8.228   8.667 -1.1350 -0.5721 -1.6789
  208MOL0     H28656  10.156   8.161   8.849 -1.5421 -2.3905 -1.4457
  208MOL0     H28657  10.262   8.053   8.750 -1.1806  0.5319 -0.5448
  208MOL0     H28658  10.395   8.219   8.950 -0.8904 -0.5670  3.6414
  208MOL0     H28659  10.316   8.075   8.997 -0.4500  1.5017  0.1080
  208MOL0     H28660  10.478   7.987   8.776 -0.3716  0.8125 -1.7064
  208MOL0     H28661  10.559   8.144   8.808  1.0216 -0.8328 -0.6165
  208MOL0     H28662  10.696   7.953   8.741  0.3453 -1.1824 -1.9077
  208MOL0     H28663  10.904   7.741   8.669 -2.2984  0.7184  0.6475
  208MOL0     H28664  11.045   7.838   8.716 -0.6920  0.2619  0.1271
  208MOL0     H28665  10.899   7.915   8.631 -1.6869  0.6915  0.8410
  208MOL0     H28666  11.113   7.404   8.980  0.3527 -0.3541  1.4284
  208MOL0     H28667  11.295   7.269   8.968 -0.2528 -1.0472 -0.2435
  208MOL0     H28668  11.494   7.169   8.972 -0.6168 -1.6561 -0.9432
  208MOL0     H28669  11.446   7.180   8.804 -0.0141  0.3657 -0.5996
  208MOL0     H28670  11.731   7.166   8.915  0.3422  2.1278 -2.2568
  208MOL0     H28671  11.633   7.033   8.855  0.7454 -0.5894  0.2863
  208MOL0     H28672  11.705   7.272   8.688  1.3447 -0.3105  0.0732
  208MOL0     H28673  11.601   7.135   8.641 -0.2646 -0.1379 -0.5542
  208MOL0     H28674  11.799   6.981   8.696 -5.4373 -0.0705 -0.5667
  208MOL0     H28675  11.905   7.119   8.729  1.9818 -4.0627 -0.4609
  208MOL0     H28676  11.769   7.083   8.462 -0.1705  0.2688  0.3651
  208MOL0     H28677  11.892   7.213   8.517  0.7502  0.1396  3.6551
  208MOL0     H28678  11.952   6.913   8.518 -0.1020 -0.0577 -0.7958
  208MOL0     H28679  12.068   7.045   8.522  3.0828 -2.4260 -3.4005
  208MOL0     H28680  11.997   7.112   8.284 -0.2125 -0.4455 -1.7923
  208MOL0     H28681  11.890   6.973   8.293 -3.1126  3.1099  1.5846
  208MOL0     H28682  12.096   6.817   8.321  0.5579 -0.5699 -1.6714
  208MOL0     H28683  12.199   6.950   8.281 -0.7471  3.1019 -3.1704
  208MOL0     H28684  11.526   7.592   8.815 -0.9027 -0.6692 -2.6841
  208MOL0     H28685  11.333   7.744   8.838  0.2197  0.0731 -0.0755
  208MOL0     H28686  10.900   7.844   9.173 -2.5078  1.5100  1.4994
  208MOL0     H28687  10.694   7.948   9.166  3.2797 -1.3857  2.0290
  208MOL0     H28688   9.246   8.218   9.080 -1.4074  0.0516  2.2769
  208MOL0     H28689   9.127   8.368   9.211  3.0946 -0.7182 -0.9929
  208MOL0     H28690   8.840   8.723   9.174 -1.9590 -0.5168 -1.1969
  208MOL0     H28691   8.785   8.905   9.292 -0.5752 -1.4598 -2.5766
  208MOL0     H28692   8.557   8.859   9.670  0.2243 -2.1569  1.4809
  208MOL0     H28693   8.727   8.833   9.717  1.1334  0.1245 -2.0704
  208MOL0     H28694   8.576   9.085   9.688  0.0555  0.0030 -0.3482
  208MOL0     H28695   8.755   9.070   9.732 -0.9674  0.5958 -0.5841
  208MOL0     H28696   8.529   8.965   9.890  1.7335 -1.5575 -1.8488
  208MOL0     H28697   8.696   8.956   9.951  1.1753  0.9968  1.7051
  208MOL0     H28698   8.576   9.220   9.885 -1.4842 -1.3892  0.2657
  208MOL0     H28699   8.717   9.178   9.986  0.7438 -1.0610 -1.6451
  208MOL0     H28700   8.374   9.094  10.235  0.2079  2.2768  1.2550
  208MOL0     H28701   8.638   8.661   9.616  0.9073 -6.4098 -0.7069
  208MOL0     H28702   8.662   8.347   9.454  0.9287  0.5810 -1.4849
  208MOL0     H28703   8.759   8.377   9.584 -0.0540 -1.2204 -0.8071
  208MOL0     H28704   8.590   8.450   9.579 -1.0350 -3.4284  0.6000
  209MOL0     O28705   6.449   6.286   0.455 -0.7735  0.0953  0.9118
  209MOL0     C28706   6.332   6.252   0.460 -0.4674 -0.3896 -0.2428
  209MOL0     O28707   6.283   6.117   0.451 -0.4256 -0.4597 -0.1776
  209MOL0     C28708   6.376   6.012   0.438  0.1306 -0.3468 -0.4685
  209MOL0     C28709   6.371   5.922   0.330 -0.8717 -0.5926  0.5935
  209MOL0     C28710   6.451   5.812   0.336 -0.1006  0.4625 -0.2359
  209MOL0     C28711   6.541   5.779   0.436  0.0365 -0.0022  0.1068
  209MOL0     O28712   6.605   5.659   0.427  0.0154  0.0030 -0.0566
  209MOL0     C28713   6.736   5.666   0.370  0.5654  0.4159  0.6187
  209MOL0     C28714   6.834   5.744   0.454 -0.4410  0.1901  0.4638
  209MOL0     C28715   6.865   5.669   0.586 -0.3950 -0.3646 -0.3737
  209MOL0     C28716   6.888   5.521   0.573  0.0205  0.1113  0.3111
  209MOL0     C28717   6.906   5.471   0.717 -0.2241  0.3733 -0.0877
  209MOL0     C28718   6.957   5.329   0.717  0.5751  0.3308 -0.1083
  209MOL0     C28719   6.938   5.254   0.846  0.4242  0.6250  0.2873
  209MOL0     C28720   6.964   5.105   0.838 -0.7434  0.5793 -0.0523
  209MOL0     N28721   7.103   5.073   0.797 -0.0693  0.1757 -0.9965
  209MOL0     C28722   7.200   5.035   0.881 -0.5634 -0.3851  0.0062
  209MOL0     C28723   7.312   5.002   0.813 -0.3238  0.1124 -0.1767
  209MOL0     C28724   7.446   4.964   0.873  0.2584  0.3073 -0.0099
  209MOL0     C28725   7.478   5.042   1.002 -0.4346  1.2062 -0.2167
  209MOL0     C28726   7.622   5.003   1.057 -0.8397  0.7427 -0.2462
  209MOL0     C28727   7.734   5.058   0.973  0.2597 -0.1309 -0.4701
  209MOL0     O28728   7.855   5.016   1.037 -0.6205  0.6547  0.0675
  209MOL0     C28729   7.984   5.046   0.993 -0.1424  0.3768 -0.9595
  209MOL0     C28730   8.075   4.945   1.002  0.6788  0.6558  0.2329
  209MOL0     C28731   8.208   4.960   0.959 -0.2166 -0.4848 -0.3755
  209MOL0     C28732   8.312   4.852   0.965 -0.2480  0.7242  0.1068
  209MOL0     C28733   8.253   5.095   0.926  0.6388  0.3834  0.5083
  209MOL0     C28734   8.386   5.130   0.879  0.0086  0.5264 -0.6440
  209MOL0     O28735   8.403   5.270   0.867 -0.0560 -0.2391 -0.3332
  209MOL0     C28736   8.530   5.314   0.831 -0.6530 -0.3868  0.7919
  209MOL0     C28737   8.583   5.419   0.897 -0.3573 -0.3499 -0.2696
  209MOL0     C28738   8.713   5.466   0.872  0.2407  0.3725  0.1920
  209MOL0     C28739   8.786   5.404   0.770  0.5045 -0.3489  0.1699
  209MOL0     O28740   8.914   5.433   0.736 -0.8825  0.1633  0.4093
  209MOL0     C28741   8.957   5.563   0.754  0.0684 -0.8781 -0.6469
  209MOL0     C28742   9.101   5.578   0.698  0.9701 -0.0623 -0.5003
  209MOL0     C28743   9.207   5.485   0.764  0.0246 -0.0969 -0.1707
  209MOL0     C28744   9.335   5.482   0.686 -0.4676  0.9567 -0.6452
  209MOL0     C28745   9.436   5.374   0.732 -0.7252 -0.1835  0.9911
  209MOL0     C28746   9.568   5.391   0.666 -0.6724 -0.2958 -0.3494
  209MOL0     C28747   9.676   5.295   0.720  0.0500 -0.5457 -0.0784
  209MOL0     C28748   9.823   5.350   0.731 -0.0367  0.1642 -0.6062
  209MOL0    Cl28749   9.888   5.396   0.572  0.3233 -0.4517  0.3098
  209MOL0     C28750   8.736   5.295   0.699  0.1286 -0.0136 -0.8483
  209MOL0     C28751   8.610   5.253   0.731 -0.0213 -0.7503  0.2358
  209MOL0     O28752   8.468   5.045   0.843 -0.0329  0.0492 -0.3346
  209MOL0     C28753   8.158   5.204   0.923  0.3214 -0.5474  0.2694
  209MOL0     C28754   8.023   5.169   0.953 -0.9708 -0.1745  0.0318
  209MOL0     N28755   7.273   5.023   0.681  0.0677 -0.5198 -0.5747
  209MOL0     N28756   7.152   5.050   0.676 -0.0135 -0.9401 -0.2663
  209MOL0     C28757   6.546   5.874   0.541 -0.4399  0.6926  0.1088
  209MOL0     C28758   6.462   5.985   0.545 -0.9469  0.0347 -0.0700
  209MOL0     C28759   6.230   6.366   0.447  0.8208  0.1543 -0.7632
  209MOL0     C28760   6.095   6.321   0.447 -0.0953 -0.2721 -0.2049
  209MOL0     C28761   5.988   6.416   0.432  0.3524  0.7665  0.3464
  209MOL0     C28762   6.021   6.549   0.414 -0.8903 -0.8156  0.3701
  209MOL0     O28763   5.916   6.633   0.391 -0.8921 -0.0690  0.6275
  209MOL0     C28764   5.866   6.710   0.506  0.0451 -0.5854 -0.1890
  209MOL0     C28765   5.714   6.738   0.489 -0.0876 -0.5705  0.5792
  209MOL0     C28766   5.684   6.826   0.366  0.3273 -0.0228 -0.2221
  209MOL0     C28767   5.541   6.808   0.322  0.0992  0.4137  0.0222
  209MOL0     C28768   5.454   6.892   0.405  0.1803  0.6665  0.8095
  209MOL0     C28769   5.382   6.962   0.480 -1.1033  0.3489  1.1965
  209MOL0     C28770   6.148   6.599   0.432 -1.0475 -0.0394  0.7125
  209MOL0     C28771   6.254   6.502   0.448 -0.2911  0.3437  0.0917
  209MOL0     C28772   6.397   6.555   0.446  0.1447  0.5494 -0.4142
  209MOL0     H28773   6.312   5.947   0.243  0.1018  0.9917  0.3516
  209MOL0     H28774   6.443   5.752   0.246  2.2906 -0.1735 -0.0762
  209MOL0     H28775   6.725   5.707   0.269  0.1888 -0.9839  0.0647
  209MOL0     H28776   6.771   5.567   0.342 -0.1677  0.5716 -0.9272
  209MOL0     H28777   6.924   5.731   0.394 -2.7183 -1.5769 -2.8482
  209MOL0     H28778   6.802   5.848   0.466 -2.0925 -0.2762  0.3852
  209MOL0     H28779   6.958   5.709   0.628  0.4557 -1.1356 -1.4805
  209MOL0     H28780   6.787   5.688   0.661  0.6555 -0.3940  0.7670
  209MOL0     H28781   6.795   5.477   0.535 -0.3021  0.1152  1.0737
  209MOL0     H28782   6.966   5.504   0.498 -0.0485 -0.8886  0.4476
  209MOL0     H28783   6.811   5.475   0.770 -1.1463 -1.6007 -1.4914
  209MOL0     H28784   6.972   5.543   0.768 -0.7175  1.4143 -0.9046
  209MOL0     H28785   6.911   5.271   0.637  0.7443  0.8259 -0.5716
  209MOL0     H28786   7.066   5.324   0.708  0.5471 -2.0928  0.3013
  209MOL0     H28787   6.834   5.271   0.876 -0.9519  0.9842 -3.9487
  209MOL0     H28788   7.006   5.290   0.923  0.4941  1.2645 -0.0677
  209MOL0     H28789   6.956   5.060   0.937  0.3440 -0.2027 -0.2907
  209MOL0     H28790   6.900   5.060   0.761 -0.0094 -0.1615 -0.2474
  209MOL0     H28791   7.202   5.037   0.990  0.2421 -2.6701  0.0750
  209MOL0     H28792   7.519   4.978   0.793 -2.1407  1.7029 -2.0869
  209MOL0     H28793   7.450   4.858   0.899  1.3335 -0.4916 -2.9978
  209MOL0     H28794   7.486   5.149   0.982 -1.7795  1.1182 -1.3786
  209MOL0     H28795   7.404   5.018   1.079  0.5823 -1.9120 -0.0604
  209MOL0     H28796   7.642   5.042   1.157  3.0641  1.2047 -1.0727
  209MOL0     H28797   7.620   4.894   1.064 -2.5450  0.8048  1.1099
  209MOL0     H28798   7.729   5.034   0.866 -2.1528 -0.1849 -0.3913
  209MOL0     H28799   7.726   5.167   0.971 -1.1303 -0.2258 -0.8768
  209MOL0     H28800   8.048   4.846   1.038 -0.4046  1.0887  0.6689
  209MOL0     H28801   8.273   4.761   1.010  2.0516  0.0095  0.7485
  209MOL0     H28802   8.392   4.887   1.032  1.6745 -0.3300 -1.5321
  209MOL0     H28803   8.345   4.812   0.869 -0.1468  0.6403  0.1770
  209MOL0     H28804   8.532   5.463   0.982  0.4792 -0.1991  0.1722
  209MOL0     H28805   8.749   5.559   0.914  0.5617  1.4812 -2.3242
  209MOL0     H28806   8.904   5.631   0.686  0.5273 -0.0583 -0.1969
  209MOL0     H28807   8.945   5.608   0.853 -0.8157 -0.2413 -1.0248
  209MOL0     H28808   9.092   5.580   0.589  0.0525 -3.3197 -0.5908
  209MOL0     H28809   9.135   5.678   0.727 -1.4910  1.0921 -1.2846
  209MOL0     H28810   9.165   5.385   0.774 -0.9812  0.1744 -1.4558
  209MOL0     H28811   9.240   5.516   0.864  2.5209 -0.3633 -0.8635
  209MOL0     H28812   9.383   5.579   0.702  1.1183  0.1728 -0.3961
  209MOL0     H28813   9.305   5.471   0.581 -1.3497 -0.8587 -0.2500
  209MOL0     H28814   9.450   5.381   0.840  3.7233  2.0067  0.5002
  209MOL0     H28815   9.394   5.273   0.721  1.1055 -1.1297  2.1323
  209MOL0     H28816   9.603   5.493   0.677 -1.2731 -0.2987  2.2630
  209MOL0     H28817   9.561   5.377   0.557 -2.4548  0.0725 -0.3278
  209MOL0     H28818   9.687   5.204   0.661  0.1923 -0.2657 -0.4916
  209MOL0     H28819   9.645   5.249   0.814  0.3733  0.2679  0.4451
  209MOL0     H28820   9.888   5.270   0.767  0.1495  0.0100 -1.2762
  209MOL0     H28821   9.816   5.426   0.808 -1.5621 -0.6487  0.1123
  209MOL0     H28822   8.790   5.241   0.621  2.2176 -0.3896  0.7588
  209MOL0     H28823   8.568   5.177   0.666 -0.9271  2.2108 -2.9558
  209MOL0     H28824   8.177   5.302   0.880 -1.0009 -0.2846  0.2688
  209MOL0     H28825   7.949   5.247   0.940  0.2440  0.5097 -4.0185
  209MOL0     H28826   6.610   5.850   0.625 -0.0509  0.1238 -0.3426
  209MOL0     H28827   6.471   6.042   0.637 -0.6077 -2.1164  1.2945
  209MOL0     H28828   6.074   6.215   0.458 -1.1072  0.1354  3.0666
  209MOL0     H28829   5.884   6.386   0.425 -0.1357  2.2023  1.2251
  209MOL0     H28830   5.891   6.654   0.597  1.3567 -1.1244 -0.8549
  209MOL0     H28831   5.925   6.802   0.518  0.9013 -1.4102  2.6688
  209MOL0     H28832   5.660   6.777   0.576 -2.9091 -2.7023 -0.0524
  209MOL0     H28833   5.676   6.638   0.465 -0.7500 -0.7831  2.3202
  209MOL0     H28834   5.694   6.933   0.390 -0.4346 -0.7034  3.9170
  209MOL0     H28835   5.747   6.810   0.278 -1.5754 -1.0975 -1.4354
  209MOL0     H28836   5.501   6.706   0.329 -1.2107  0.9479  0.6879
  209MOL0     H28837   5.527   6.831   0.216  2.8973 -0.5863 -0.6393
  209MOL0     H28838   5.339   7.031   0.550  1.3515  2.8323  0.4312
  209MOL0     H28839   6.179   6.703   0.436  0.7126 -0.5450  1.0479
  209MOL0     H28840   6.456   6.498   0.373 -0.1163  0.2909 -0.4238
  209MOL0     H28841   6.414   6.656   0.408  0.9859  0.0069 -1.5304
  209MOL0     H28842   6.430   6.529   0.547 -1.5405 -3.2107 -0.6591
  210MOL0     O28843   2.495  10.706   6.709 -0.5801  0.4568 -0.1077
  210MOL0     C28844   2.531  10.655   6.814  0.3698 -0.7038  0.7724
  210MOL0     O28845   2.465  10.548   6.880  0.1524 -0.6165 -0.2211
  210MOL0     C28846   2.357  10.477   6.830  0.4270 -0.3345 -0.3039
  210MOL0     C28847   2.258  10.542   6.748  0.6194 -0.1137 -0.3003
  210MOL0     C28848   2.148  10.463   6.715 -0.4713  0.5974  0.0882
  210MOL0     C28849   2.122  10.338   6.766  0.1386 -0.8315  0.4125
  210MOL0     O28850   2.012  10.272   6.719  0.2007  0.0867  0.5304
  210MOL0     C28851   2.027  10.126   6.707  0.2688  0.7631  0.7137
  210MOL0     C28852   1.928  10.074   6.606 -0.9766  0.1284  0.0664
  210MOL0     C28853   1.781  10.091   6.649 -0.8531  0.9866  0.1107
  210MOL0     C28854   1.681  10.004   6.581 -0.6239 -0.4619 -0.5511
  210MOL0     C28855   1.538   9.996   6.650 -0.9858 -0.3953 -1.3721
  210MOL0     C28856   1.464   9.871   6.607  0.0026 -0.3231  0.2681
  210MOL0     C28857   1.334   9.875   6.683  0.0172  0.2583 -0.5196
  210MOL0     C28858   1.267   9.738   6.673 -0.1440  1.4312 -0.1311
  210MOL0     N28859   1.132   9.743   6.735  0.7548  0.4051  0.0235
  210MOL0     C28860   1.011   9.759   6.675 -0.1185 -0.1573  0.1857
  210MOL0     C28861   0.916   9.723   6.765 -1.3708 -0.1819  0.1406
  210MOL0     C28862   0.769   9.727   6.753 -0.2913  0.3508  0.7869
  210MOL0     C28863   0.722   9.853   6.689 -0.1075  0.1195 -0.3101
  210MOL0     C28864   0.784   9.975   6.751 -0.0130 -0.5347 -0.3240
  210MOL0     C28865   0.727  10.097   6.680  0.1294 -0.1676  0.7543
  210MOL0     O28866   0.822  10.203   6.677 -0.2477  0.1536  0.3562
  210MOL0     C28867   0.935  10.187   6.607  0.5809 -0.1045  0.5799
  210MOL0     C28868   0.955  10.100   6.498 -0.6581  0.2509  0.1049
  210MOL0     C28869   1.076  10.115   6.417  1.1010  0.1332 -0.4944
  210MOL0     C28870   1.071  10.044   6.285  0.0651  0.3049  0.5563
  210MOL0     C28871   1.185  10.203   6.459  0.2172  1.2364  0.1804
  210MOL0     C28872   1.314  10.208   6.391  0.3563  0.4781 -0.2492
  210MOL0     O28873   1.336  10.148   6.274 -0.1440 -0.0631 -0.9428
  210MOL0     C28874   1.441  10.172   6.198 -0.4957  0.4561  0.1950
  210MOL0     C28875   1.422  10.242   6.080 -0.4848  0.1067  0.8564
  210MOL0     C28876   1.531  10.251   5.990  0.2902 -0.4712  0.5747
  210MOL0     C28877   1.656  10.178   6.015  0.3193 -0.2585  0.6710
  210MOL0     O28878   1.764  10.196   5.930  0.1825  0.7480 -0.1424
  210MOL0     C28879   1.753  10.101   5.822 -0.3028  0.0748 -0.2459
  210MOL0     C28880   1.828   9.970   5.848  0.6847  0.0545 -0.4083
  210MOL0     C28881   1.887   9.916   5.716 -0.9856  0.4515 -0.0536
  210MOL0     C28882   1.766   9.893   5.624  0.5624  0.2230 -0.3395
  210MOL0     C28883   1.665   9.789   5.689 -0.4923  0.0943  0.5923
  210MOL0     C28884   1.580   9.708   5.586 -0.0609 -0.4491  0.3607
  210MOL0     C28885   1.467   9.799   5.535  0.5853  0.0897  0.1659
  210MOL0     C28886   1.352   9.734   5.453 -0.1270  1.1671 -0.0928
  210MOL0    Cl28887   1.425   9.623   5.338  0.6795  0.2417  0.1876
  210MOL0     C28888   1.662  10.099   6.128  0.6360 -0.0452 -0.6761
  210MOL0     C28889   1.559  10.100   6.218 -0.3607  0.0048  0.4133
  210MOL0     O28890   1.393  10.282   6.446 -0.1044  0.7362  0.3125
  210MOL0     C28891   1.155  10.282   6.569 -0.9082 -0.7205  0.8281
  210MOL0     C28892   1.033  10.277   6.641 -0.1779 -0.7579  0.2809
  210MOL0     N28893   0.984   9.676   6.876 -0.3850  0.4750  0.0800
  210MOL0     N28894   1.107   9.703   6.864  0.3706  0.0221  0.3984
  210MOL0     C28895   2.210  10.289   6.867  0.2315  0.4683  0.6402
  210MOL0     C28896   2.329  10.356   6.893  0.5290 -0.0071 -0.5057
  210MOL0     C28897   2.656  10.707   6.877  0.5967  0.1116  0.6397
  210MOL0     C28898   2.745  10.617   6.935 -0.8627  0.1563 -0.5721
  210MOL0     C28899   2.859  10.669   7.002 -0.6468 -0.2504  0.4568
  210MOL0     C28900   2.897  10.806   7.003  0.5710 -0.3587  0.5303
  210MOL0     O28901   3.017  10.849   7.060 -0.3663 -0.0925  0.3396
  210MOL0     C28902   3.065  10.985   7.033  0.6063 -0.1978  0.2840
  210MOL0     C28903   3.215  10.990   7.078 -0.4869 -0.6156 -0.0141
  210MOL0     C28904   3.299  10.895   6.998  0.2790 -0.3004  0.3275
  210MOL0     C28905   3.443  10.901   7.039 -0.4011  0.8963  0.5209
  210MOL0     C28906   3.538  10.796   6.995 -0.3268 -0.0710  0.4749
  210MOL0     C28907   3.596  10.698   6.960  0.1271 -0.1337  0.3158
  210MOL0     C28908   2.813  10.893   6.936  0.6087  0.3400 -1.0083
  210MOL0     C28909   2.691  10.847   6.875 -0.5177  0.1640 -0.4384
  210MOL0     C28910   2.601  10.961   6.825  0.9018  0.7852 -0.4133
  210MOL0     H28911   2.264  10.647   6.720 -1.5501 -0.1255 -0.9502
  210MOL0     H28912   2.076  10.510   6.648  1.0394  2.5106 -0.2984
  210MOL0     H28913   2.013  10.080   6.805 -0.5701  0.9437  0.6788
  210MOL0     H28914   2.129  10.101   6.675  0.1109  0.5145  0.4022
  210MOL0     H28915   1.939  10.132   6.514 -0.1668 -0.2901 -0.1112
  210MOL0     H28916   1.945   9.968   6.586 -0.0008  0.4635 -0.9560
  210MOL0     H28917   1.784  10.072   6.757 -0.5049 -1.1540 -0.2363
  210MOL0     H28918   1.751  10.196   6.640  0.3399  1.2717 -0.6523
  210MOL0     H28919   1.681  10.025   6.473  0.1798 -3.1086 -1.1410
  210MOL0     H28920   1.727   9.905   6.572  2.4878  0.9599 -1.6739
  210MOL0     H28921   1.493  10.088   6.611  1.4116  1.0763 -0.9135
  210MOL0     H28922   1.544  10.002   6.759  2.4704  1.3767 -1.4936
  210MOL0     H28923   1.442   9.893   6.502  1.5231  1.7161  0.3220
  210MOL0     H28924   1.524   9.784   6.635 -0.6036 -0.4895  1.1057
  210MOL0     H28925   1.265   9.943   6.634 -1.5880 -0.6858  0.3486
  210MOL0     H28926   1.351   9.894   6.790  2.7037 -2.0177 -0.4306
  210MOL0     H28927   1.260   9.715   6.566  0.6662  0.7733 -0.0543
  210MOL0     H28928   1.327   9.658   6.718 -0.8891  0.7282 -0.3615
  210MOL0     H28929   1.000   9.798   6.574  1.8346 -0.1850 -0.0608
  210MOL0     H28930   0.720   9.716   6.850  2.6077 -1.5234  2.1803
  210MOL0     H28931   0.741   9.639   6.694 -0.6077 -0.5069  2.1696
  210MOL0     H28932   0.750   9.842   6.584  2.5484 -2.9170  0.5436
  210MOL0     H28933   0.613   9.854   6.691 -0.1532 -1.5376 -0.2059
  210MOL0     H28934   0.771   9.982   6.859  0.7701 -1.8059 -0.1262
  210MOL0     H28935   0.889   9.971   6.719 -0.0278  2.2341 -1.0033
  210MOL0     H28936   0.689  10.080   6.578  1.0778 -0.3785  0.4285
  210MOL0     H28937   0.640  10.142   6.730 -2.5879 -1.5278 -2.3553
  210MOL0     H28938   0.879  10.024   6.483  0.2771 -0.8402  0.7154
  210MOL0     H28939   0.978   9.992   6.260  0.8033 -0.0575 -1.7118
  210MOL0     H28940   1.148   9.966   6.281 -0.5381 -0.2484 -1.4389
  210MOL0     H28941   1.081  10.115   6.202 -0.9209  5.7063  4.5121
  210MOL0     H28942   1.330  10.291   6.051 -0.1779 -0.3785 -1.1438
  210MOL0     H28943   1.516  10.317   5.905  0.7816  0.6756  1.3479
  210MOL0     H28944   1.649  10.093   5.790 -0.0150  1.7242 -1.7240
  210MOL0     H28945   1.805  10.158   5.745  1.7793  0.7631  1.5456
  210MOL0     H28946   1.905   9.995   5.922 -1.4023 -1.0286  2.2927
  210MOL0     H28947   1.760   9.898   5.894 -0.6968 -0.3792 -2.9391
  210MOL0     H28948   1.944   9.825   5.740  1.9192  1.8782 -1.1594
  210MOL0     H28949   1.954   9.987   5.667  0.2561  0.1931  1.1955
  210MOL0     H28950   1.811   9.864   5.528  0.1884 -0.7690 -0.2281
  210MOL0     H28951   1.715   9.987   5.601  2.2223  1.0312 -0.8917
  210MOL0     H28952   1.728   9.711   5.732  1.1041  1.0818  0.1010
  210MOL0     H28953   1.597   9.828   5.765  0.7273  1.1811  1.1728
  210MOL0     H28954   1.533   9.620   5.630  2.5650 -1.6803  0.8681
  210MOL0     H28955   1.648   9.673   5.508 -0.1548  1.1928 -0.5246
  210MOL0     H28956   1.495   9.888   5.477 -2.1750 -0.8526 -2.9319
  210MOL0     H28957   1.418   9.835   5.626 -0.6813  1.5097 -1.0142
  210MOL0     H28958   1.281   9.807   5.412 -0.7932  1.0986  0.9126
  210MOL0     H28959   1.285   9.682   5.522  2.2470  2.7865  3.7603
  210MOL0     H28960   1.751  10.041   6.150  0.2063  0.2660  2.2630
  210MOL0     H28961   1.554  10.048   6.313  1.5742 -0.9175  0.0652
  210MOL0     H28962   1.229  10.345   6.617 -1.7964  0.4422  0.7039
  210MOL0     H28963   1.007  10.347   6.720 -0.5346 -0.8681  0.2592
  210MOL0     H28964   2.188  10.205   6.932  1.3589 -0.1882  0.1951
  210MOL0     H28965   2.400  10.309   6.960  0.9730  1.7541  0.3178
  210MOL0     H28966   2.727  10.510   6.940 -1.7166  0.3248  0.1927
  210MOL0     H28967   2.927  10.603   7.057  1.4839  2.7077  1.6268
  210MOL0     H28968   3.065  11.007   6.925 -2.2213  0.8486  0.4028
  210MOL0     H28969   3.003  11.064   7.077 -1.2155  1.1953 -4.1503
  210MOL0     H28970   3.221  10.959   7.183  3.3197 -2.9507 -0.7449
  210MOL0     H28971   3.259  11.089   7.061 -1.4985  0.2006  1.7904
  210MOL0     H28972   3.274  10.789   7.012 -2.5757  0.3194  0.4505
  210MOL0     H28973   3.303  10.912   6.890 -0.8483  0.0387  0.3312
  210MOL0     H28974   3.450  10.922   7.146 -0.2838 -0.9851  0.9194
  210MOL0     H28975   3.488  10.987   6.987  0.5543  0.0615 -0.0621
  210MOL0     H28976   3.656  10.615   6.929 -0.4102 -0.5714  0.4375
  210MOL0     H28977   2.839  10.999   6.938  0.8513  0.2779  0.7632
  210MOL0     H28978   2.654  11.050   6.789  0.1533  0.0962 -3.4843
  210MOL0     H28979   2.556  10.923   6.733 -4.5834  0.0181  2.1587
  210MOL0     H28980   2.527  10.990   6.900 -1.2324  0.6787 -2.3752
  211MOL0     O28981  10.025   8.619   9.394  0.4273  0.4385 -0.1786
  211MOL0     C28982   9.919   8.554   9.399 -0.3856 -0.3004  0.6332
  211MOL0     O28983   9.914   8.420   9.424 -0.7532 -0.2407 -0.5536
  211MOL0     C28984  10.028   8.334   9.444  0.0441 -0.5288 -0.1038
  211MOL0     C28985  10.090   8.341   9.566  0.1520 -0.0409  0.3237
  211MOL0     C28986  10.193   8.255   9.594 -0.2641 -0.2008 -0.2627
  211MOL0     C28987  10.225   8.149   9.513  0.6380  0.5616 -0.3415
  211MOL0     O28988  10.332   8.066   9.559 -0.8394 -0.7471 -0.0911
  211MOL0     C28989  10.391   7.979   9.466 -0.9909 -0.0994  0.2069
  211MOL0     C28990  10.505   7.904   9.528  0.4120  0.1805  0.0266
  211MOL0     C28991  10.635   7.976   9.557  1.0510  0.5351 -1.4361
  211MOL0     C28992  10.710   8.010   9.427 -0.2737 -0.8115 -0.4066
  211MOL0     C28993  10.836   8.096   9.460  0.6113 -0.1680 -0.4033
  211MOL0     C28994  10.820   8.238   9.495 -0.0778 -0.3098 -0.4660
  211MOL0     C28995  10.944   8.310   9.535 -0.3811 -0.4053  0.1309
  211MOL0     C28996  10.921   8.462   9.579 -0.5267  0.4412 -0.7665
  211MOL0     N28997  11.019   8.500   9.687 -0.6551  0.2513  0.0457
  211MOL0     C28998  10.996   8.554   9.810  0.5657 -0.4487 -0.2760
  211MOL0     C28999  11.111   8.527   9.879  0.3832 -0.8314 -0.3533
  211MOL0     C29000  11.127   8.542  10.030 -0.4529  0.0230  0.4282
  211MOL0     C29001  11.167   8.680  10.074  0.0195 -0.6054 -0.5375
  211MOL0     C29002  11.302   8.717  10.009 -0.5449 -0.7964  0.3474
  211MOL0     C29003  11.352   8.833  10.084 -0.6359 -0.5162 -0.1411
  211MOL0     O29004  11.448   8.898  10.012  0.1073 -0.5569  0.2128
  211MOL0     C29005  11.565   8.932  10.079  0.0497 -0.7906 -0.1756
  211MOL0     C29006  11.583   8.977  10.212  1.0130 -0.4656  0.5508
  211MOL0     C29007  11.697   9.046  10.251  0.1789 -0.2473 -0.2103
  211MOL0     C29008  11.711   9.104  10.384 -0.0565 -0.8700 -0.5046
  211MOL0     C29009  11.802   9.053  10.163  0.3851  0.5117 -0.1471
  211MOL0     C29010  11.940   9.086  10.201 -0.4974 -0.0921  1.3122
  211MOL0     O29011  12.034   9.076  10.103  0.1591 -0.5406  0.5588
  211MOL0     C29012  12.171   9.101  10.124  0.2259  0.5543  0.4109
  211MOL0     C29013  12.246   9.163  10.028  0.0180 -0.3332  0.3378
  211MOL0     C29014  12.385   9.177  10.044 -1.1489 -1.0269 -0.7954
  211MOL0     C29015  12.453   9.120  10.149  0.3142 -0.0475 -0.3401
  211MOL0     O29016  12.591   9.120  10.168 -0.1266  0.2860 -0.5077
  211MOL0     C29017  12.670   9.198  10.082  0.4942 -0.2190 -0.3814
  211MOL0     C29018  12.815   9.206  10.131  0.6110  1.3426  1.1277
  211MOL0     C29019  12.902   9.259  10.028  0.3359  0.7590  0.0755
  211MOL0     C29020  13.035   9.291  10.089  0.7915  0.5981 -0.3400
  211MOL0     C29021  13.138   9.182  10.128  0.7169 -0.8063 -0.1436
  211MOL0     C29022  13.181   9.092  10.010  0.1718  0.5829 -0.4144
  211MOL0     C29023  13.307   9.011  10.057  0.1920 -0.7160  0.2825
  211MOL0     C29024  13.362   8.919   9.947 -0.5253 -0.1138 -0.1721
  211MOL0    Cl29025  13.447   8.997   9.802 -0.1140  0.0331  0.1683
  211MOL0     C29026  12.379   9.050  10.250 -0.4891 -0.1083  0.5946
  211MOL0     C29027  12.234   9.050  10.237  0.1317 -0.2548  0.0525
  211MOL0     O29028  11.965   9.120  10.311 -0.0158 -0.7747 -0.0137
  211MOL0     C29029  11.782   9.012  10.035  0.2269  0.8635 -0.0683
  211MOL0     C29030  11.666   8.954   9.989 -0.1869 -0.0677 -0.8626
  211MOL0     N29031  11.205   8.476   9.792 -0.7171  0.4825 -0.4222
  211MOL0     N29032  11.148   8.472   9.671  0.1524 -0.5902 -0.0958
  211MOL0     C29033  10.157   8.132   9.392  0.5439 -0.8994 -0.6505
  211MOL0     C29034  10.060   8.229   9.359 -0.0130 -0.5072  0.2120
  211MOL0     C29035   9.800   8.634   9.383 -0.4509  0.1613 -0.7147
  211MOL0     C29036   9.685   8.565   9.344  0.0117  0.8339 -0.2854
  211MOL0     C29037   9.559   8.620   9.333  0.0368  0.1454 -0.2772
  211MOL0     C29038   9.543   8.758   9.349 -0.1008  0.4771  0.5610
  211MOL0     O29039   9.423   8.818   9.333 -0.5605 -0.4621  0.4149
  211MOL0     C29040   9.302   8.748   9.332 -0.1653 -0.6129 -0.5803
  211MOL0     C29041   9.257   8.708   9.463 -0.5793  0.6291 -1.2697
  211MOL0     C29042   9.102   8.702   9.486  0.2155 -0.5334  0.2379
  211MOL0     C29043   9.047   8.599   9.587  0.7745 -0.2189 -0.7870
  211MOL0     C29044   9.055   8.456   9.532  0.5281 -0.1452 -0.0865
  211MOL0     C29045   9.046   8.341   9.502  0.5231 -0.4952 -0.3517
  211MOL0     C29046   9.662   8.833   9.368 -0.7750  0.1525 -0.5062
  211MOL0     C29047   9.788   8.775   9.392  0.7512  0.0059  0.1263
  211MOL0     C29048   9.895   8.872   9.440 -0.0797 -0.4188 -0.5620
  211MOL0     H29049  10.062   8.411   9.645 -0.6384 -2.1196  1.9709
  211MOL0     H29050  10.244   8.256   9.690  0.4756  1.0066 -0.6504
  211MOL0     H29051  10.433   8.032   9.380  4.2089 -1.0384  1.7822
  211MOL0     H29052  10.312   7.908   9.443  2.3528 -3.4643 -1.9101
  211MOL0     H29053  10.471   7.865   9.624 -3.9851 -0.6552 -1.6284
  211MOL0     H29054  10.535   7.822   9.462  1.4080 -0.6043  1.4098
  211MOL0     H29055  10.624   8.069   9.613 -0.5815 -0.7607  0.5429
  211MOL0     H29056  10.692   7.907   9.620 -2.3359  1.6897  3.4528
  211MOL0     H29057  10.735   7.909   9.392  0.8279 -0.8676  0.4911
  211MOL0     H29058  10.643   8.060   9.356  1.5106  0.0962 -1.5296
  211MOL0     H29059  10.900   8.085   9.372  0.8199 -1.8512 -0.0659
  211MOL0     H29060  10.883   8.057   9.550 -0.3502 -1.6083 -0.4833
  211MOL0     H29061  10.775   8.292   9.411 -0.1685 -2.4545 -1.8704
  211MOL0     H29062  10.744   8.241   9.574  0.0155  2.0367 -0.4143
  211MOL0     H29063  11.016   8.308   9.454 -1.0559 -2.0724 -0.4675
  211MOL0     H29064  10.993   8.257   9.618 -4.1998  1.0373  3.7139
  211MOL0     H29065  10.932   8.534   9.497  0.3675  2.6779  1.2266
  211MOL0     H29066  10.822   8.480   9.620  0.2961  1.3651  0.8918
  211MOL0     H29067  10.900   8.594   9.839  0.4831  0.9907 -2.3735
  211MOL0     H29068  11.211   8.474  10.052  1.9543  2.0660 -1.7346
  211MOL0     H29069  11.032   8.512  10.076 -1.4370  1.2635 -0.7373
  211MOL0     H29070  11.086   8.747  10.044  1.8957  1.6807 -0.8606
  211MOL0     H29071  11.175   8.681  10.183 -0.5932 -0.0034 -0.4970
  211MOL0     H29072  11.369   8.638  10.044 -0.5958  0.6891  4.3472
  211MOL0     H29073  11.297   8.734   9.901  1.2648  0.7577  0.4742
  211MOL0     H29074  11.272   8.904  10.107 -1.7755 -1.7974 -0.0154
  211MOL0     H29075  11.399   8.792  10.173 -0.0820 -0.6033 -0.4694
  211MOL0     H29076  11.498   8.972  10.280  1.0902  1.1030  0.8164
  211MOL0     H29077  11.738   9.209  10.371 -2.0243  0.3068  3.3042
  211MOL0     H29078  11.778   9.051  10.451 -1.2583 -0.0638  1.4222
  211MOL0     H29079  11.610   9.105  10.426  0.1106 -0.9427 -0.0986
  211MOL0     H29080  12.201   9.198   9.936  4.4535 -0.3788 -2.1146
  211MOL0     H29081  12.429   9.228   9.959 -0.3804 -2.3922 -1.2413
  211MOL0     H29082  12.674   9.161   9.979  3.5460  1.6106 -1.0605
  211MOL0     H29083  12.624   9.296  10.095 -3.8823 -1.7749 -1.9922
  211MOL0     H29084  12.817   9.261  10.225 -1.5739  0.2326  1.8711
  211MOL0     H29085  12.845   9.104  10.156 -1.3966 -0.9929 -4.3178
  211MOL0     H29086  12.861   9.356   9.998 -1.0620 -0.3941 -2.0552
  211MOL0     H29087  12.900   9.201   9.935 -1.4117  2.7903 -1.2509
  211MOL0     H29088  13.011   9.333  10.188 -2.5025 -2.6302  0.4106
  211MOL0     H29089  13.090   9.363  10.027 -1.4285  1.1737 -1.7302
  211MOL0     H29090  13.233   9.229  10.156  1.4447 -3.1171  1.5994
  211MOL0     H29091  13.105   9.121  10.212  1.8285 -0.1636  0.7837
  211MOL0     H29092  13.206   9.155   9.924  0.4355  0.6402 -0.2953
  211MOL0     H29093  13.101   9.022   9.983 -0.9995  1.8218 -0.2437
  211MOL0     H29094  13.280   8.956  10.147  0.2494 -3.9082 -1.5058
  211MOL0     H29095  13.392   9.072  10.090  0.1287 -0.9866  0.9586
  211MOL0     H29096  13.291   8.846   9.908 -0.7164 -1.2854  2.1793
  211MOL0     H29097  13.440   8.862   9.999  1.2239  1.9780 -0.3432
  211MOL0     H29098  12.423   9.007  10.339 -1.0233 -0.9826  0.4486
  211MOL0     H29099  12.171   8.997  10.308  1.2226 -1.7095 -0.0188
  211MOL0     H29100  11.853   9.035   9.956 -0.6346  1.5210 -0.6714
  211MOL0     H29101  11.655   8.933   9.883  1.3275 -0.6635 -0.9182
  211MOL0     H29102  10.173   8.047   9.326 -2.3575 -1.9324 -0.1881
  211MOL0     H29103  10.002   8.220   9.268  1.9156  0.0596 -1.1445
  211MOL0     H29104   9.679   8.457   9.335 -1.7169  1.0560 -2.6407
  211MOL0     H29105   9.475   8.550   9.337  1.0913 -1.0972  1.8862
  211MOL0     H29106   9.228   8.811   9.283  0.3799 -0.1385 -0.8102
  211MOL0     H29107   9.314   8.659   9.269  2.7361  0.0407 -1.1275
  211MOL0     H29108   9.282   8.787   9.533 -1.7456 -0.4168  0.3868
  211MOL0     H29109   9.310   8.617   9.494 -1.3405  0.8405  0.7971
  211MOL0     H29110   9.079   8.802   9.523 -3.7741 -1.6902  1.3385
  211MOL0     H29111   9.053   8.679   9.391 -2.4620 -0.9902  1.6214
  211MOL0     H29112   8.945   8.622   9.620  1.9661  0.6221  2.8027
  211MOL0     H29113   9.093   8.609   9.686 -0.5451  0.5651 -0.2185
  211MOL0     H29114   9.034   8.235   9.490 -3.6283  0.0094 -2.3510
  211MOL0     H29115   9.653   8.940   9.375  0.1110  0.1418  1.3437
  211MOL0     H29116   9.968   8.892   9.362 -0.1663  0.7829 -0.3521
  211MOL0     H29117   9.851   8.963   9.482  0.7593  1.3468 -3.2615
  211MOL0     H29118   9.949   8.834   9.528  0.7591 -1.4697 -1.5106
  212MOL0     O29119   1.687   5.317   8.324 -0.1009 -0.4295  0.0515
  212MOL0     C29120   1.587   5.264   8.263  0.4927 -0.4230  0.2621
  212MOL0     O29121   1.599   5.146   8.203 -0.2002  0.3277  0.1160
  212MOL0     C29122   1.718   5.079   8.213 -0.1331  0.3032 -0.1752
  212MOL0     C29123   1.753   5.019   8.329 -0.4380 -0.2039 -0.4236
  212MOL0     C29124   1.877   4.955   8.349  0.0329 -0.5793  0.0105
  212MOL0     C29125   1.964   4.951   8.241  0.0703  0.6529 -0.3564
  212MOL0     O29126   2.092   4.901   8.268  0.3504 -0.2248 -0.3549
  212MOL0     C29127   2.200   4.915   8.167 -0.0364 -0.0915  0.4702
  212MOL0     C29128   2.325   4.844   8.223  0.3747  0.2603  0.2162
  212MOL0     C29129   2.400   4.934   8.320  0.4889  0.5413  0.2872
  212MOL0     C29130   2.515   5.008   8.250 -0.1528  0.0779  0.4570
  212MOL0     C29131   2.612   5.073   8.351  0.4207  0.6646  0.0576
  212MOL0     C29132   2.735   5.155   8.301 -0.4029  0.7641 -1.0216
  212MOL0     C29133   2.693   5.301   8.262  0.2630  0.0490 -0.5429
  212MOL0     C29134   2.819   5.389   8.234 -0.2602  0.2410 -0.0940
  212MOL0     N29135   2.910   5.400   8.350 -0.2741 -0.6110 -0.1459
  212MOL0     C29136   2.878   5.448   8.479  0.8743  0.4743 -0.2393
  212MOL0     C29137   2.988   5.414   8.552  0.1131  1.1383  0.9215
  212MOL0     C29138   3.003   5.435   8.700 -0.1810 -0.6240  0.5540
  212MOL0     C29139   2.978   5.306   8.781  0.3412 -0.4061  1.3562
  212MOL0     C29140   3.004   5.310   8.931  0.0565  0.2030 -0.1900
  212MOL0     C29141   2.987   5.167   8.997 -0.2011 -0.2953 -0.1340
  212MOL0     O29142   2.992   5.131   9.138  0.5874 -0.3480 -0.1727
  212MOL0     C29143   3.113   5.164   9.203  1.0158  1.1373  0.6210
  212MOL0     C29144   3.111   5.148   9.343  0.1221 -0.2233  0.1583
  212MOL0     C29145   3.222   5.157   9.423 -0.1260 -0.1725  0.6970
  212MOL0     C29146   3.204   5.117   9.564 -0.0642  0.1319  0.2957
  212MOL0     C29147   3.353   5.188   9.359 -0.2397  0.0900 -0.0519
  212MOL0     C29148   3.489   5.179   9.419 -0.5928 -0.5301  0.4707
  212MOL0     O29149   3.579   5.285   9.400  0.3816  0.3417  0.5329
  212MOL0     C29150   3.711   5.306   9.440 -0.2106 -1.0254 -0.2277
  212MOL0     C29151   3.798   5.205   9.484 -0.8518 -0.5290  0.8231
  212MOL0     C29152   3.930   5.246   9.505  0.0238 -0.3076 -0.7589
  212MOL0     C29153   3.974   5.384   9.492 -0.1582  0.8288 -0.1707
  212MOL0     O29154   4.111   5.405   9.509 -0.0237 -0.4268  0.2179
  212MOL0     C29155   4.164   5.533   9.471 -0.4018  0.9243  0.2804
  212MOL0     C29156   4.298   5.566   9.539 -0.3197  0.6694  0.6899
  212MOL0     C29157   4.307   5.565   9.693  0.2760  0.1873 -0.8018
  212MOL0     C29158   4.422   5.652   9.741  0.4904  0.1679  0.1346
  212MOL0     C29159   4.561   5.578   9.720  0.1304 -0.4199  0.1500
  212MOL0     C29160   4.678   5.667   9.755 -0.9117 -0.4482  0.2823
  212MOL0     C29161   4.657   5.723   9.889 -1.0839  0.6821  0.3864
  212MOL0     C29162   4.790   5.787   9.934 -0.5174  0.4229 -0.1866
  212MOL0    Cl29163   4.807   5.761  10.120 -0.2176  0.1694  0.5358
  212MOL0     C29164   3.870   5.480   9.463 -1.0434 -0.9323  0.0725
  212MOL0     C29165   3.739   5.442   9.436  0.6993 -0.4966 -0.1422
  212MOL0     O29166   3.515   5.075   9.492  0.1938  0.5665 -0.0677
  212MOL0     C29167   3.349   5.215   9.224  1.0224 -0.6147  1.1726
  212MOL0     C29168   3.234   5.197   9.147  0.2512 -0.1167  0.5894
  212MOL0     N29169   3.076   5.338   8.469 -0.2047  0.7107 -0.7439
  212MOL0     N29170   3.027   5.326   8.352 -0.4791  0.0034 -0.9505
  212MOL0     C29171   1.927   5.009   8.121  0.4835 -0.1848  0.2056
  212MOL0     C29172   1.804   5.063   8.100  0.1682 -0.6620  0.1255
  212MOL0     C29173   1.449   5.338   8.252 -0.1252 -0.3754  0.7376
  212MOL0     C29174   1.346   5.263   8.191  0.1142 -0.3992  0.7485
  212MOL0     C29175   1.222   5.316   8.158  0.4262 -0.2374  0.6544
  212MOL0     C29176   1.192   5.449   8.192  0.3911  0.4321 -0.0651
  212MOL0     O29177   1.063   5.492   8.174  0.4006  0.2759  0.1049
  212MOL0     C29178   1.016   5.600   8.251  0.3542  0.6311 -1.1476
  212MOL0     C29179   0.863   5.616   8.220 -0.4565  0.4535 -0.1814
  212MOL0     C29180   0.813   5.695   8.343  0.3024  0.2903  0.3673
  212MOL0     C29181   0.666   5.729   8.335  0.0519 -0.6882  1.4653
  212MOL0     C29182   0.594   5.772   8.461 -0.3656  0.0414  1.2785
  212MOL0     C29183   0.541   5.783   8.573  0.3835 -0.7274 -0.1009
  212MOL0     C29184   1.300   5.529   8.254  0.6080  0.6858  0.0773
  212MOL0     C29185   1.428   5.472   8.276  0.1101  0.4237 -0.2934
  212MOL0     C29186   1.541   5.567   8.312 -0.0745  0.4235  0.0031
  212MOL0     H29187   1.668   5.014   8.396 -0.0037  0.1207  0.1677
  212MOL0     H29188   1.906   4.898   8.437 -2.9952 -2.0885  0.1658
  212MOL0     H29189   2.233   5.019   8.156  0.1033 -0.2483 -0.7422
  212MOL0     H29190   2.172   4.886   8.065 -0.5398 -0.3846  0.6915
  212MOL0     H29191   2.293   4.751   8.271  2.4129 -1.7021 -2.0086
  212MOL0     H29192   2.384   4.813   8.137  0.7184  2.4980 -0.4175
  212MOL0     H29193   2.334   5.012   8.360 -0.5437 -1.3311  2.4574
  212MOL0     H29194   2.431   4.878   8.408 -0.2040  1.5010  1.1613
  212MOL0     H29195   2.568   4.933   8.191 -2.4387 -2.5294  1.5059
  212MOL0     H29196   2.477   5.087   8.184 -0.2454 -1.8519 -1.9168
  212MOL0     H29197   2.651   4.978   8.390 -1.1910 -0.1736 -0.2818
  212MOL0     H29198   2.577   5.130   8.437  3.7996  0.0741  2.0009
  212MOL0     H29199   2.808   5.161   8.382 -1.8476  1.7019  0.2409
  212MOL0     H29200   2.786   5.112   8.214  1.6339 -1.5264  1.1477
  212MOL0     H29201   2.649   5.343   8.353 -0.8013 -2.9130  0.3963
  212MOL0     H29202   2.618   5.307   8.183 -1.3803 -0.3749  0.9407
  212MOL0     H29203   2.875   5.322   8.168  0.5506 -2.2709  2.9000
  212MOL0     H29204   2.798   5.479   8.176  1.8899  0.4462 -0.6210
  212MOL0     H29205   2.793   5.510   8.506  0.9419  1.4306 -2.0414
  212MOL0     H29206   2.928   5.504   8.738  0.2094  0.0159  0.1846
  212MOL0     H29207   3.099   5.488   8.709 -1.0254  1.1277 -0.2796
  212MOL0     H29208   2.874   5.279   8.763  0.6654 -0.6774 -0.2683
  212MOL0     H29209   3.037   5.224   8.738  3.1979  1.2596  1.8106
  212MOL0     H29210   3.106   5.342   8.952  0.0126 -0.0171  0.4070
  212MOL0     H29211   2.936   5.380   8.980  0.0585  0.3950 -0.4590
  212MOL0     H29212   2.896   5.120   8.957  1.3613 -2.8651 -0.9682
  212MOL0     H29213   3.053   5.099   8.943  0.4612  0.5986 -0.4633
  212MOL0     H29214   3.014   5.129   9.387 -0.1635 -1.4708 -0.9353
  212MOL0     H29215   3.225   5.011   9.579  0.9812 -0.2267 -2.9109
  212MOL0     H29216   3.102   5.150   9.585  0.0676  0.6030  0.2267
  212MOL0     H29217   3.262   5.168   9.642  0.5494 -2.3827  1.5774
  212MOL0     H29218   3.774   5.099   9.491 -0.0634 -0.7857 -0.2203
  212MOL0     H29219   4.011   5.175   9.523  1.2929  1.0512 -0.8874
  212MOL0     H29220   4.187   5.528   9.364 -1.7529  2.1417 -0.1082
  212MOL0     H29221   4.088   5.609   9.495 -2.0555 -0.3152 -0.7518
  212MOL0     H29222   4.373   5.501   9.493 -2.1550  0.3440 -2.1148
  212MOL0     H29223   4.319   5.669   9.509 -3.6913  0.9865 -1.0637
  212MOL0     H29224   4.318   5.466   9.738  0.3833 -0.6466 -2.5480
  212MOL0     H29225   4.211   5.612   9.715 -0.5383 -0.7133 -2.2386
  212MOL0     H29226   4.405   5.668   9.848  2.6540  0.6424  0.4559
  212MOL0     H29227   4.407   5.751   9.696 -1.1320  0.0973  0.4598
  212MOL0     H29228   4.561   5.493   9.788  0.5929  0.6038  1.4893
  212MOL0     H29229   4.561   5.542   9.617  1.2938 -1.3857  0.4637
  212MOL0     H29230   4.686   5.751   9.686 -3.6414  0.2767  0.7193
  212MOL0     H29231   4.766   5.603   9.750 -1.4652 -1.1819 -0.3749
  212MOL0     H29232   4.628   5.654   9.969  1.3234  1.4251  2.0211
  212MOL0     H29233   4.586   5.803   9.872 -0.9045  0.6926 -0.3364
  212MOL0     H29234   4.798   5.893   9.910 -1.1397  0.4509 -0.2759
  212MOL0     H29235   4.875   5.745   9.879 -2.6473 -3.4481 -0.9401
  212MOL0     H29236   3.885   5.588   9.467 -0.3883 -1.0407  0.9259
  212MOL0     H29237   3.653   5.506   9.419  1.4345  0.3284 -0.8739
  212MOL0     H29238   3.432   5.260   9.170  0.6049 -1.5874 -0.3510
  212MOL0     H29239   3.242   5.213   9.040 -0.4300  0.5459  0.6279
  212MOL0     H29240   1.977   5.009   8.024 -1.7965 -1.1843 -1.0526
  212MOL0     H29241   1.787   5.102   8.000  2.2904  0.9661  0.3364
  212MOL0     H29242   1.356   5.171   8.135 -0.3646 -0.5674  0.9339
  212MOL0     H29243   1.151   5.257   8.100  0.7445  1.7349 -1.9279
  212MOL0     H29244   1.027   5.586   8.359 -2.1017 -2.6945 -1.1814
  212MOL0     H29245   1.075   5.686   8.216 -0.1945  0.6271 -2.1319
  212MOL0     H29246   0.809   5.521   8.213  2.1657 -1.2871  1.4758
  212MOL0     H29247   0.861   5.675   8.128  2.0042  2.8874  1.1834
  212MOL0     H29248   0.831   5.632   8.431 -0.8930  0.0620  0.4701
  212MOL0     H29249   0.872   5.786   8.356  1.1844 -0.1984 -0.1033
  212MOL0     H29250   0.621   5.641   8.290 -1.2244 -1.1532  3.5401
  212MOL0     H29251   0.653   5.804   8.256 -1.2700 -2.7904 -0.4125
  212MOL0     H29252   0.479   5.795   8.659  1.5444 -0.0064  0.6570
  212MOL0     H29253   1.279   5.631   8.284 -0.1273  0.1308  1.4974
  212MOL0     H29254   1.497   5.665   8.289 -4.2234 -1.0617  0.6920
  212MOL0     H29255   1.573   5.567   8.416  0.7833 -0.6850 -0.2357
  212MOL0     H29256   1.624   5.551   8.243  0.3240 -0.1190  0.5978
  213MOL0     O29257   5.594   6.689   8.737  0.1504  0.3978  0.2423
  213MOL0     C29258   5.545   6.758   8.652 -1.0828 -0.1002 -0.0497
  213MOL0     O29259   5.593   6.762   8.518  0.0258 -0.0643 -0.9460
  213MOL0     C29260   5.697   6.690   8.476 -0.2143 -0.3895  0.9011
  213MOL0     C29261   5.824   6.748   8.479 -0.2836 -0.0706 -1.1461
  213MOL0     C29262   5.928   6.662   8.430 -0.0882 -0.6746 -0.5097
  213MOL0     C29263   5.908   6.526   8.390  0.1101 -0.1320  0.0968
  213MOL0     O29264   6.025   6.449   8.373 -0.0086 -0.1962  0.2914
  213MOL0     C29265   6.028   6.306   8.374  0.2201  1.2203  0.5054
  213MOL0     C29266   6.170   6.249   8.345  0.1224 -0.3936  0.0954
  213MOL0     C29267   6.276   6.275   8.460 -1.3297 -0.5124  0.3698
  213MOL0     C29268   6.294   6.422   8.509 -0.7510 -0.8185  0.3716
  213MOL0     C29269   6.336   6.519   8.396  0.0718  0.3756 -0.4148
  213MOL0     C29270   6.324   6.674   8.443 -0.0178  0.9136 -0.1474
  213MOL0     C29271   6.427   6.711   8.557  0.9606 -0.3243 -0.8328
  213MOL0     C29272   6.569   6.708   8.505 -0.0242 -0.2886 -0.3457
  213MOL0     N29273   6.662   6.761   8.605  0.3650 -0.1172  0.1840
  213MOL0     C29274   6.714   6.710   8.718 -0.9991  0.2859  0.2220
  213MOL0     C29275   6.786   6.808   8.776  0.7238 -0.7652  0.0374
  213MOL0     C29276   6.869   6.801   8.905  0.2199  0.1049 -0.2435
  213MOL0     C29277   7.012   6.759   8.885 -0.5887 -0.2954 -0.0495
  213MOL0     C29278   7.094   6.875   8.828 -0.2095  0.0283  0.0532
  213MOL0     C29279   7.248   6.860   8.838 -0.2579  0.1137  0.9487
  213MOL0     O29280   7.290   6.738   8.780  0.5123 -0.6145 -0.0899
  213MOL0     C29281   7.415   6.717   8.740 -0.5293 -0.1035  0.6029
  213MOL0     C29282   7.518   6.814   8.763  0.3846 -0.1851  0.5665
  213MOL0     C29283   7.654   6.785   8.722  0.9476  1.4713  0.3349
  213MOL0     C29284   7.741   6.897   8.763  0.0005  0.1482  0.1738
  213MOL0     C29285   7.685   6.666   8.654 -0.2909 -0.3660 -0.9875
  213MOL0     C29286   7.824   6.632   8.618  0.9594 -0.9811  0.4612
  213MOL0     O29287   7.929   6.693   8.684 -0.0859 -0.2319 -0.0652
  213MOL0     C29288   8.062   6.681   8.637  0.7215 -0.4168 -0.3239
  213MOL0     C29289   8.120   6.554   8.637  0.7256 -0.5814 -1.1306
  213MOL0     C29290   8.251   6.538   8.606 -0.9150 -0.3381 -0.0606
  213MOL0     C29291   8.332   6.653   8.588  0.2967 -0.2252 -0.1164
  213MOL0     O29292   8.470   6.631   8.583  0.2071 -0.0785 -0.3349
  213MOL0     C29293   8.559   6.731   8.519 -0.8273  0.0319 -0.8536
  213MOL0     C29294   8.698   6.678   8.533 -0.4850 -0.7665 -0.5642
  213MOL0     C29295   8.726   6.550   8.454  0.0834 -0.1876 -0.3682
  213MOL0     C29296   8.878   6.538   8.446  0.2453  0.1087  0.4493
  213MOL0     C29297   8.919   6.399   8.373 -0.1667 -0.8453  0.3255
  213MOL0     C29298   9.062   6.380   8.323  1.0589 -0.2762  0.2694
  213MOL0     C29299   9.124   6.513   8.270 -0.7633 -0.4062  0.0340
  213MOL0     C29300   9.054   6.566   8.148 -0.0180  0.7870  0.0759
  213MOL0    Cl29301   9.144   6.481   8.026  0.4765  0.4454  0.4464
  213MOL0     C29302   8.276   6.779   8.578 -1.1213 -0.0675  0.6446
  213MOL0     C29303   8.134   6.798   8.599  0.5388 -0.6788 -0.1516
  213MOL0     O29304   7.837   6.543   8.530  0.1114 -0.1611  0.0910
  213MOL0     C29305   7.576   6.579   8.631 -0.0526  0.3397  0.8899
  213MOL0     C29306   7.445   6.602   8.670  0.3187  0.1944  0.2851
  213MOL0     N29307   6.787   6.913   8.686 -0.2013  0.6315  0.1450
  213MOL0     N29308   6.709   6.888   8.592 -0.5783 -0.3606  0.3412
  213MOL0     C29309   5.775   6.478   8.385 -0.6609 -0.9704  0.4539
  213MOL0     C29310   5.675   6.562   8.417  0.4023  0.3059  0.5910
  213MOL0     C29311   5.404   6.817   8.675 -0.2204  0.2736  0.0814
  213MOL0     C29312   5.336   6.887   8.560 -0.4996  0.2471 -0.8553
  213MOL0     C29313   5.210   6.951   8.581  0.2065  0.7295 -1.0070
  213MOL0     C29314   5.144   6.922   8.700  0.0049 -0.3058 -0.0349
  213MOL0     O29315   5.022   6.981   8.712  0.0706 -0.1993 -0.1276
  213MOL0     C29316   4.913   6.901   8.749  0.6935  0.0230 -0.1552
  213MOL0     C29317   4.789   6.979   8.702 -0.5571  0.2349  0.0610
  213MOL0     C29318   4.661   6.948   8.791  0.0136 -0.5681 -0.3730
  213MOL0     C29319   4.545   7.045   8.744  0.2161  0.4946  0.1884
  213MOL0     C29320   4.513   7.031   8.605 -0.2062  0.7361  0.4397
  213MOL0     C29321   4.507   7.000   8.489 -0.2072  0.4165  0.2861
  213MOL0     C29322   5.197   6.834   8.794  0.9957  0.0231  0.0821
  213MOL0     C29323   5.326   6.784   8.784 -0.4895  0.5426 -0.9584
  213MOL0     C29324   5.376   6.696   8.897 -1.1269  0.0903 -0.8023
  213MOL0     H29325   5.833   6.854   8.497 -1.5394 -0.0599 -0.4744
  213MOL0     H29326   6.029   6.702   8.431  0.1439 -1.2242  0.7058
  213MOL0     H29327   5.960   6.266   8.298  1.3861  2.1567 -1.0985
  213MOL0     H29328   5.993   6.274   8.472  0.0151  1.3838  0.4850
  213MOL0     H29329   6.164   6.140   8.346  0.1946 -0.3998 -0.0562
  213MOL0     H29330   6.221   6.276   8.252 -0.2703  0.7839  0.2111
  213MOL0     H29331   6.263   6.207   8.546  1.9657 -0.6741  0.8756
  213MOL0     H29332   6.373   6.252   8.415 -2.3522  0.6056 -2.6654
  213MOL0     H29333   6.212   6.454   8.574 -0.9375 -3.5620  1.6384
  213MOL0     H29334   6.369   6.417   8.588 -0.1352  3.8839  0.3403
  213MOL0     H29335   6.264   6.505   8.315  0.5261 -4.4369 -0.3022
  213MOL0     H29336   6.432   6.494   8.349 -0.1250  1.2819 -1.3223
  213MOL0     H29337   6.341   6.728   8.349  0.0686  0.2489 -0.5283
  213MOL0     H29338   6.221   6.703   8.465  0.3795  0.5434  2.4419
  213MOL0     H29339   6.417   6.648   8.645  3.7804 -1.8156 -1.4601
  213MOL0     H29340   6.410   6.817   8.579  1.9498  0.2834 -2.7210
  213MOL0     H29341   6.601   6.610   8.469  3.2020 -0.4677  2.5423
  213MOL0     H29342   6.576   6.785   8.427 -1.4727  3.0791  2.5473
  213MOL0     H29343   6.697   6.606   8.745  0.1661 -0.3211 -1.2203
  213MOL0     H29344   6.819   6.728   8.969 -0.8161 -0.7485 -1.9332
  213MOL0     H29345   6.857   6.897   8.956  0.2224  0.0728 -0.1828
  213MOL0     H29346   7.044   6.748   8.989 -2.7360  0.1594  0.7155
  213MOL0     H29347   7.021   6.671   8.820  0.7103 -0.4871  0.3635
  213MOL0     H29348   7.073   6.878   8.721 -0.1228  0.6563  0.0491
  213MOL0     H29349   7.058   6.965   8.877  0.1662  0.8710 -1.1703
  213MOL0     H29350   7.293   6.949   8.793  1.2225 -0.0753  2.0124
  213MOL0     H29351   7.269   6.857   8.945 -0.8576  1.4366  1.1310
  213MOL0     H29352   7.491   6.903   8.818 -2.0635 -0.5032 -0.0407
  213MOL0     H29353   7.779   6.882   8.865 -2.7904  1.3096  1.4723
  213MOL0     H29354   7.680   6.987   8.760 -1.4573 -0.8165  0.1375
  213MOL0     H29355   7.824   6.909   8.692  1.2808 -2.0539  1.1675
  213MOL0     H29356   8.065   6.462   8.651 -0.4272  0.3159  0.5108
  213MOL0     H29357   8.294   6.439   8.600 -0.7534 -0.3651  1.2619
  213MOL0     H29358   8.530   6.734   8.414 -0.5313  1.3322 -0.9142
  213MOL0     H29359   8.548   6.833   8.558 -0.0396 -0.7159  1.5399
  213MOL0     H29360   8.777   6.745   8.500  0.9100 -0.8297  2.3455
  213MOL0     H29361   8.709   6.658   8.640  0.2601  0.2181 -0.4401
  213MOL0     H29362   8.685   6.547   8.352  1.3733  0.0315 -0.9201
  213MOL0     H29363   8.686   6.474   8.521 -1.0818 -0.5846 -1.4630
  213MOL0     H29364   8.910   6.537   8.550 -2.3090 -1.2892  1.3271
  213MOL0     H29365   8.919   6.624   8.391  0.7528  0.1567  0.8983
  213MOL0     H29366   8.888   6.313   8.432 -0.9246 -0.3890  0.6129
  213MOL0     H29367   8.868   6.396   8.277  2.9489 -0.6759 -1.4956
  213MOL0     H29368   9.053   6.309   8.240 -0.4877 -1.0212  1.0358
  213MOL0     H29369   9.127   6.355   8.407  0.4045 -0.7706  0.6389
  213MOL0     H29370   9.232   6.501   8.256 -0.8498 -0.4022 -0.6775
  213MOL0     H29371   9.123   6.585   8.352  1.1678  1.2053 -1.2429
  213MOL0     H29372   9.077   6.671   8.124 -2.3008  1.1996 -0.5152
  213MOL0     H29373   8.948   6.544   8.139  0.4520 -1.0659 -1.7085
  213MOL0     H29374   8.339   6.867   8.571 -0.4119 -0.5251  1.1268
  213MOL0     H29375   8.084   6.894   8.603 -1.9338 -1.8447 -0.8646
  213MOL0     H29376   7.585   6.485   8.577  0.8090  0.3317  1.0334
  213MOL0     H29377   7.360   6.543   8.638 -0.6889  1.7176  0.0578
  213MOL0     H29378   5.747   6.380   8.346  1.1252 -1.6925  0.8700
  213MOL0     H29379   5.572   6.531   8.403 -0.0293  2.5931 -2.0985
  213MOL0     H29380   5.396   6.907   8.471  1.1232  2.7467  0.6768
  213MOL0     H29381   5.160   7.009   8.504  0.4271  0.7076 -1.1679
  213MOL0     H29382   4.925   6.810   8.689 -1.2190 -1.0099  0.9517
  213MOL0     H29383   4.901   6.879   8.855  1.6355  1.0106  0.1777
  213MOL0     H29384   4.784   6.956   8.595  0.6826  2.0550 -0.4344
  213MOL0     H29385   4.827   7.080   8.717  3.7078 -1.2923  0.8904
  213MOL0     H29386   4.628   6.845   8.779  1.0164 -0.9680  0.1709
  213MOL0     H29387   4.692   6.972   8.893  1.1027  0.6943 -0.9594
  213MOL0     H29388   4.582   7.146   8.764 -1.0113  0.8221  0.8832
  213MOL0     H29389   4.459   7.029   8.809  0.0282  2.2954  0.4470
  213MOL0     H29390   4.515   6.965   8.388  4.2526  1.0889  0.1943
  213MOL0     H29391   5.131   6.804   8.875 -1.7936 -1.5988 -2.5863
  213MOL0     H29392   5.454   6.744   8.957 -1.3760 -0.0369 -0.3749
  213MOL0     H29393   5.296   6.680   8.970 -1.5237 -2.6721 -1.7330
  213MOL0     H29394   5.407   6.600   8.855  0.3435  0.2798 -0.2052
  214MOL0     O29395   3.561   5.191   7.858 -0.8566 -0.1051  0.3365
  214MOL0     C29396   3.490   5.223   7.762  0.2752  0.6901 -0.5432
  214MOL0     O29397   3.535   5.298   7.659 -0.3995  0.5934  0.0759
  214MOL0     C29398   3.667   5.338   7.668 -0.2123 -1.0733  0.1343
  214MOL0     C29399   3.767   5.238   7.654 -0.0618  0.0687 -0.7933
  214MOL0     C29400   3.906   5.272   7.643 -0.7938 -0.4963  0.1682
  214MOL0     C29401   3.939   5.408   7.635 -0.5641 -0.8964 -0.3953
  214MOL0     O29402   4.069   5.447   7.607  0.1084 -0.2457  0.0627
  214MOL0     C29403   4.169   5.391   7.696  0.2704  0.1667 -0.1240
  214MOL0     C29404   4.316   5.406   7.637 -0.1256  0.9997 -0.3159
  214MOL0     C29405   4.409   5.351   7.737 -0.8193  0.0752 -0.6640
  214MOL0     C29406   4.548   5.393   7.700 -0.5126 -0.3613  0.5050
  214MOL0     C29407   4.652   5.364   7.801 -0.2466 -0.2070 -0.2144
  214MOL0     C29408   4.786   5.429   7.786 -0.1469 -0.4644  0.6612
  214MOL0     C29409   4.880   5.398   7.898 -0.2456  0.1206  0.7562
  214MOL0     C29410   5.021   5.440   7.876 -0.1033 -0.3285 -0.3210
  214MOL0     N29411   5.103   5.357   7.791  0.2875 -0.0815 -0.2192
  214MOL0     C29412   5.127   5.378   7.661  0.4589 -0.4472 -0.7032
  214MOL0     C29413   5.211   5.280   7.623 -0.4072  0.0273  0.3110
  214MOL0     C29414   5.257   5.266   7.487 -0.5805 -0.2088 -0.6777
  214MOL0     C29415   5.387   5.192   7.482  0.0998  0.1095  0.1303
  214MOL0     C29416   5.432   5.188   7.330 -0.2108 -0.1127 -0.1120
  214MOL0     C29417   5.553   5.107   7.316 -0.1469  0.1477  1.5414
  214MOL0     O29418   5.510   4.980   7.350 -0.7338  0.9004 -0.0420
  214MOL0     C29419   5.597   4.867   7.371  0.7395 -0.2244  0.3385
  214MOL0     C29420   5.577   4.790   7.482 -0.2613 -0.1976  0.4202
  214MOL0     C29421   5.647   4.671   7.505 -0.9390  0.1560 -0.5436
  214MOL0     C29422   5.614   4.607   7.633  0.5902  0.2293  0.5262
  214MOL0     C29423   5.748   4.627   7.417 -0.8478 -0.1310  0.8622
  214MOL0     C29424   5.834   4.503   7.434 -0.0698 -0.7795  0.0588
  214MOL0     O29425   5.834   4.441   7.555 -0.0346 -0.3253 -0.1783
  214MOL0     C29426   5.910   4.334   7.572 -0.5453 -0.5514  0.2223
  214MOL0     C29427   6.017   4.342   7.665  0.5738 -0.3023 -1.0144
  214MOL0     C29428   6.098   4.225   7.698  0.7394 -1.1793 -0.5571
  214MOL0     C29429   6.071   4.113   7.623  0.4422  0.2576  0.2126
  214MOL0     O29430   6.141   3.990   7.650 -0.3320  1.1663  0.4554
  214MOL0     C29431   6.250   3.957   7.563 -0.2200 -0.3231 -0.0128
  214MOL0     C29432   6.386   4.016   7.601 -0.0048 -0.7197  0.0710
  214MOL0     C29433   6.428   3.933   7.719  0.5927 -0.6246 -0.0083
  214MOL0     C29434   6.534   4.008   7.797  0.2643 -0.2164  0.1236
  214MOL0     C29435   6.588   3.929   7.922 -0.0726 -0.5305  0.7181
  214MOL0     C29436   6.479   3.870   8.010  0.1555  0.5608 -0.2721
  214MOL0     C29437   6.541   3.814   8.133 -0.2448 -1.2827 -0.7790
  214MOL0     C29438   6.429   3.754   8.210  0.9526 -0.0837 -0.3191
  214MOL0    Cl29439   6.474   3.727   8.389 -0.1305 -0.7273  0.0627
  214MOL0     C29440   5.962   4.104   7.535  0.4167  0.2775  0.6391
  214MOL0     C29441   5.881   4.211   7.516  0.2081  0.4913 -0.3779
  214MOL0     O29442   5.913   4.479   7.338 -0.0687 -0.0721  0.2543
  214MOL0     C29443   5.770   4.705   7.299  0.3262 -0.5768 -0.1313
  214MOL0     C29444   5.699   4.824   7.279  1.0809 -0.4702  0.7355
  214MOL0     N29445   5.236   5.203   7.732 -0.7574 -0.2637 -0.2690
  214MOL0     N29446   5.171   5.251   7.832 -0.1143  0.0700  0.6561
  214MOL0     C29447   3.840   5.505   7.648 -0.8083 -0.9843 -0.2977
  214MOL0     C29448   3.702   5.468   7.663 -1.5984  0.3307  0.4544
  214MOL0     C29449   3.342   5.206   7.786  0.2784 -0.4618  0.3078
  214MOL0     C29450   3.300   5.113   7.883  1.2314  0.3564 -0.1279
  214MOL0     C29451   3.160   5.087   7.907  0.0602  0.1717 -0.0696
  214MOL0     C29452   3.060   5.156   7.838 -0.2575  0.7710 -0.0941
  214MOL0     O29453   2.929   5.111   7.853 -0.2424 -0.0133 -1.0758
  214MOL0     C29454   2.822   5.185   7.785 -0.2308  0.2771  0.0763
  214MOL0     C29455   2.801   5.328   7.838  0.1289 -0.0697  0.2616
  214MOL0     C29456   2.690   5.397   7.755 -0.5790  0.4328 -0.5464
  214MOL0     C29457   2.619   5.511   7.839 -0.0145 -0.3740  0.2821
  214MOL0     C29458   2.521   5.457   7.934 -0.3322  1.1043 -0.1493
  214MOL0     C29459   2.437   5.415   8.013  0.0308 -0.0564  0.1881
  214MOL0     C29460   3.101   5.251   7.753 -0.1688 -0.0037  0.9430
  214MOL0     C29461   3.232   5.277   7.717  0.4346 -0.3016 -0.2433
  214MOL0     C29462   3.264   5.400   7.623  0.8561 -0.8495 -0.7844
  214MOL0     H29463   3.736   5.134   7.655 -0.9283  0.3155 -0.8282
  214MOL0     H29464   3.978   5.192   7.630  0.1878  0.5713 -1.1953
  214MOL0     H29465   4.137   5.287   7.709  1.2663 -0.0659  0.6565
  214MOL0     H29466   4.170   5.442   7.793 -0.8785  2.8550 -1.4482
  214MOL0     H29467   4.322   5.358   7.539  0.0450  1.7136 -0.6586
  214MOL0     H29468   4.336   5.513   7.632  2.4380  0.7262  1.8757
  214MOL0     H29469   4.383   5.395   7.835  0.0389  0.9231 -0.7964
  214MOL0     H29470   4.403   5.243   7.751  0.3345  0.0860  0.0443
  214MOL0     H29471   4.584   5.343   7.609 -0.7702 -2.1325  1.3166
  214MOL0     H29472   4.555   5.502   7.699  0.2167 -0.3262  2.6102
  214MOL0     H29473   4.668   5.256   7.813  3.1957  0.3117  0.6803
  214MOL0     H29474   4.609   5.395   7.896  0.8468  1.8356 -0.3428
  214MOL0     H29475   4.831   5.384   7.696 -1.2463 -0.7312  0.2252
  214MOL0     H29476   4.773   5.535   7.762  0.6089 -0.5238 -0.0778
  214MOL0     H29477   4.874   5.289   7.912 -3.9758  0.3757  2.2397
  214MOL0     H29478   4.854   5.446   7.993  1.6375 -1.6472  2.2662
  214MOL0     H29479   5.009   5.543   7.841  0.6165 -0.1694 -0.1003
  214MOL0     H29480   5.056   5.433   7.979 -1.7833  1.8855  0.4710
  214MOL0     H29481   5.079   5.442   7.588  1.9717  1.8770  0.2004
  214MOL0     H29482   5.267   5.365   7.442  0.5770 -0.2308 -0.5013
  214MOL0     H29483   5.187   5.207   7.427 -2.8660 -1.0222  2.5436
  214MOL0     H29484   5.463   5.251   7.534 -1.5210  2.6712 -0.2435
  214MOL0     H29485   5.382   5.098   7.538  0.4618 -0.0022 -0.0247
  214MOL0     H29486   5.350   5.158   7.265 -0.5359  0.6116 -0.0422
  214MOL0     H29487   5.453   5.291   7.300  0.6456  0.7928  3.1743
  214MOL0     H29488   5.576   5.110   7.209 -0.6825  0.4408  1.4304
  214MOL0     H29489   5.633   5.144   7.382 -0.3946  0.3093  1.7537
  214MOL0     H29490   5.502   4.828   7.550 -1.0731 -0.7180 -0.1760
  214MOL0     H29491   5.514   4.632   7.670 -0.4286 -1.7532 -0.7092
  214MOL0     H29492   5.691   4.623   7.709  0.1548  3.6391  0.4349
  214MOL0     H29493   5.603   4.499   7.621  3.1661 -0.5097  3.4716
  214MOL0     H29494   6.011   4.431   7.726  2.7386 -1.3777  0.8958
  214MOL0     H29495   6.155   4.228   7.790 -1.5335 -1.4535  0.9336
  214MOL0     H29496   6.263   3.849   7.553  0.9080 -0.1672 -0.2784
  214MOL0     H29497   6.214   3.988   7.464 -3.5148  0.1041  1.1689
  214MOL0     H29498   6.457   4.024   7.518  3.3022  2.6366  2.8611
  214MOL0     H29499   6.384   4.120   7.635  3.3050 -1.0322  1.6251
  214MOL0     H29500   6.464   3.836   7.682  1.3932 -0.5537  0.5679
  214MOL0     H29501   6.341   3.914   7.783  0.0372  2.4100  0.2921
  214MOL0     H29502   6.499   4.108   7.827  2.0608  0.1711  1.0596
  214MOL0     H29503   6.615   4.029   7.727 -1.1221 -0.1176 -1.5356
  214MOL0     H29504   6.654   3.854   7.880  1.1250  2.2026 -2.7724
  214MOL0     H29505   6.656   3.992   7.980 -0.0832 -0.3855  0.5735
  214MOL0     H29506   6.431   3.789   7.955  0.3791  0.4769 -0.3427
  214MOL0     H29507   6.398   3.937   8.041 -0.4700 -1.3446  2.6049
  214MOL0     H29508   6.584   3.896   8.191 -3.0961 -1.0109  1.1234
  214MOL0     H29509   6.621   3.742   8.114  0.1154 -1.1364  0.1373
  214MOL0     H29510   6.387   3.656   8.184 -0.0094  0.6687 -1.7361
  214MOL0     H29511   6.345   3.824   8.203 -1.3822 -2.7692 -1.0644
  214MOL0     H29512   5.944   4.015   7.475 -0.7322 -0.7060  2.3769
  214MOL0     H29513   5.801   4.206   7.442 -2.6478  1.0792  2.4361
  214MOL0     H29514   5.833   4.674   7.216 -0.2184 -0.3592 -0.6317
  214MOL0     H29515   5.735   4.889   7.199  2.1982 -0.6662  1.0640
  214MOL0     H29516   3.870   5.609   7.658  0.6145 -1.3850 -0.1075
  214MOL0     H29517   3.633   5.552   7.672 -2.1961  0.2915 -2.7617
  214MOL0     H29518   3.364   5.044   7.936 -0.2373 -2.0257 -1.2902
  214MOL0     H29519   3.140   5.005   7.976  2.3405  0.3799  0.9278
  214MOL0     H29520   2.853   5.191   7.680 -0.3341 -2.8013 -0.2344
  214MOL0     H29521   2.733   5.123   7.800 -0.9702  1.6545  1.6655
  214MOL0     H29522   2.887   5.396   7.832  1.2102 -1.5075 -2.1300
  214MOL0     H29523   2.753   5.329   7.936 -0.3333  1.4300  0.0551
  214MOL0     H29524   2.739   5.445   7.670 -0.4025 -1.3321 -1.4864
  214MOL0     H29525   2.622   5.321   7.716  0.5110 -0.0352 -1.5718
  214MOL0     H29526   2.558   5.567   7.767 -1.1944 -1.2938  0.5414
  214MOL0     H29527   2.688   5.579   7.890  0.8272 -0.6113 -0.5140
  214MOL0     H29528   2.363   5.369   8.075 -0.0608  0.0146  0.1321
  214MOL0     H29529   3.026   5.311   7.703  0.0774  2.6923  3.4991
  214MOL0     H29530   3.165   5.443   7.605  0.4138 -1.7295 -0.4910
  214MOL0     H29531   3.329   5.471   7.675 -0.2231 -1.0793  0.9623
  214MOL0     H29532   3.302   5.365   7.526  0.2156  1.2731 -1.8602
  215MOL0     O29533   5.811   1.185   1.324 -0.4336  0.4044 -0.1192
  215MOL0     C29534   5.791   1.134   1.217  0.3272  0.3959 -0.0733
  215MOL0     O29535   5.880   1.126   1.114 -0.8520 -0.5290  0.6995
  215MOL0     C29536   6.010   1.181   1.127  0.2747  0.2523 -0.7426
  215MOL0     C29537   6.112   1.125   1.208  0.0261 -0.2682  0.3176
  215MOL0     C29538   6.245   1.179   1.205 -0.4533 -0.2130 -0.4972
  215MOL0     C29539   6.270   1.302   1.143 -0.7863 -0.5676 -0.5807
  215MOL0     O29540   6.385   1.372   1.154 -0.9963 -0.4815 -0.8130
  215MOL0     C29541   6.497   1.303   1.223 -0.1195  0.5966 -0.2461
  215MOL0     C29542   6.615   1.391   1.253 -0.4448 -0.5879  0.0579
  215MOL0     C29543   6.736   1.322   1.329 -0.3525  0.6760 -0.0710
  215MOL0     C29544   6.839   1.413   1.377 -0.4528  0.0855 -0.0934
  215MOL0     C29545   6.908   1.486   1.261  0.6119 -0.0384 -0.6332
  215MOL0     C29546   7.040   1.554   1.301  0.9986  0.1509 -0.5578
  215MOL0     C29547   7.042   1.640   1.427 -0.8897  0.6273 -0.0976
  215MOL0     C29548   6.972   1.776   1.413  0.2768  0.1911  0.4322
  215MOL0     N29549   6.972   1.850   1.540 -0.5310  0.2468  0.4974
  215MOL0     C29550   6.873   1.942   1.566  0.0779 -0.5033  0.5281
  215MOL0     C29551   6.918   2.000   1.680 -0.3049 -0.7628 -0.0116
  215MOL0     C29552   6.858   2.117   1.750  0.0824 -1.2326  0.3965
  215MOL0     C29553   6.775   2.070   1.869  0.3294 -0.3289 -0.4817
  215MOL0     C29554   6.878   2.031   1.987  0.2436  0.2231 -0.0220
  215MOL0     C29555   6.918   2.157   2.073  0.0071  0.1047 -0.0830
  215MOL0     O29556   6.997   2.126   2.188  0.3881  0.0789  0.7697
  215MOL0     C29557   7.121   2.069   2.201 -0.1998 -0.1496 -0.3664
  215MOL0     C29558   7.158   2.035   2.332  0.2193 -0.5113 -0.5380
  215MOL0     C29559   7.268   1.964   2.360 -1.1204  0.1894 -0.6308
  215MOL0     C29560   7.300   1.944   2.510  0.0445 -0.1091 -0.7269
  215MOL0     C29561   7.365   1.939   2.251  0.2980  0.9313  0.2056
  215MOL0     C29562   7.506   1.889   2.271 -0.6123  0.2534 -0.5561
  215MOL0     O29563   7.575   1.853   2.157 -0.3181 -0.3332  0.0045
  215MOL0     C29564   7.696   1.787   2.159 -0.3244  1.7854 -0.2723
  215MOL0     C29565   7.741   1.690   2.251 -0.1187 -0.2164  0.2743
  215MOL0     C29566   7.866   1.627   2.247  0.5929  0.2699  0.0327
  215MOL0     C29567   7.948   1.645   2.134  0.1377  0.3961 -0.1615
  215MOL0     O29568   8.066   1.582   2.105 -0.3051 -0.1624  0.1040
  215MOL0     C29569   8.068   1.436   2.138  0.6897 -0.7657 -0.5483
  215MOL0     C29570   8.196   1.357   2.114  0.0226 -0.3251 -0.7348
  215MOL0     C29571   8.217   1.335   1.960  0.2851  0.0436 -0.5112
  215MOL0     C29572   8.293   1.442   1.887  0.7800 -0.9766  0.7291
  215MOL0     C29573   8.349   1.405   1.749 -0.8506  0.4618  0.3392
  215MOL0     C29574   8.453   1.291   1.734 -0.4043 -0.2390  0.5526
  215MOL0     C29575   8.578   1.302   1.819 -0.5185  0.1017  0.3595
  215MOL0     C29576   8.656   1.434   1.808  0.2962  0.0765  0.7458
  215MOL0    Cl29577   8.710   1.448   1.633  0.1400  0.3252  0.1222
  215MOL0     C29578   7.909   1.744   2.043  0.0466 -0.0555  0.6649
  215MOL0     C29579   7.787   1.814   2.056  0.3276 -0.0684 -0.5309
  215MOL0     O29580   7.547   1.875   2.391 -0.3134  0.1855  0.1612
  215MOL0     C29581   7.316   1.954   2.125  0.7634 -0.0522  0.2654
  215MOL0     C29582   7.200   2.026   2.099  0.1815  0.0830 -0.2279
  215MOL0     N29583   7.046   1.952   1.711  0.3898  0.0875  0.5430
  215MOL0     N29584   7.073   1.864   1.631 -0.5841  0.0132 -1.0628
  215MOL0     C29585   6.168   1.362   1.072  0.2040  0.0934  0.9531
  215MOL0     C29586   6.040   1.301   1.067 -0.8106  0.0882 -0.3618
  215MOL0     C29587   5.658   1.073   1.190  0.3285  0.3429 -0.5700
  215MOL0     C29588   5.570   1.066   1.304 -0.4422 -0.5220  0.4143
  215MOL0     C29589   5.440   1.012   1.296  0.7892  0.7055 -0.3567
  215MOL0     C29590   5.394   0.957   1.176 -0.5797  0.1826 -0.1632
  215MOL0     O29591   5.272   0.890   1.166  0.5957 -0.6231 -0.4215
  215MOL0     C29592   5.170   0.903   1.258  0.0266 -0.0754 -0.7620
  215MOL0     C29593   5.089   1.035   1.248 -0.7992  0.4642 -0.3812
  215MOL0     C29594   5.003   1.031   1.375 -0.3635  0.1049 -0.2162
  215MOL0     C29595   4.895   1.134   1.378  0.0026 -0.3816 -0.3309
  215MOL0     C29596   4.830   1.131   1.517  0.0669 -0.5000 -0.1302
  215MOL0     C29597   4.771   1.129   1.624 -1.3710 -0.5909  0.5832
  215MOL0     C29598   5.467   0.976   1.059  1.2344 -1.1083 -0.1496
  215MOL0     C29599   5.596   1.041   1.061 -0.2765 -0.5067  0.5208
  215MOL0     C29600   5.652   1.067   0.921 -0.3773 -0.7412 -0.1146
  215MOL0     H29601   6.105   1.028   1.256  2.8727 -0.5479  0.3187
  215MOL0     H29602   6.318   1.129   1.267 -0.5608  1.1963  0.8279
  215MOL0     H29603   6.532   1.214   1.170 -2.3209 -1.8302  2.0738
  215MOL0     H29604   6.463   1.267   1.320  0.0916 -3.6691 -1.5725
  215MOL0     H29605   6.673   1.418   1.164  0.0316 -2.7457 -0.3251
  215MOL0     H29606   6.594   1.489   1.297  0.2812 -0.8859  1.1095
  215MOL0     H29607   6.700   1.260   1.413 -0.5546 -1.5465 -1.6948
  215MOL0     H29608   6.775   1.256   1.252 -2.3085  0.2641 -0.7719
  215MOL0     H29609   6.792   1.484   1.446 -0.3857 -0.0005  0.0416
  215MOL0     H29610   6.907   1.345   1.430  2.4481  2.2414 -0.7979
  215MOL0     H29611   6.846   1.567   1.221  1.5906  0.1902 -1.7685
  215MOL0     H29612   6.928   1.416   1.179  0.4137  0.0920 -0.7938
  215MOL0     H29613   7.118   1.477   1.309  0.6288 -0.1748 -0.0361
  215MOL0     H29614   7.062   1.619   1.216 -2.0781  1.6372 -0.3319
  215MOL0     H29615   7.144   1.656   1.464  0.3667  0.3881 -3.1965
  215MOL0     H29616   6.995   1.586   1.510  1.4327 -2.0615 -0.3415
  215MOL0     H29617   7.005   1.836   1.328 -0.9298 -0.2046 -0.3373
  215MOL0     H29618   6.869   1.758   1.381  1.5269 -0.1945 -3.9680
  215MOL0     H29619   6.788   1.966   1.502  2.1774  1.9398 -1.6093
  215MOL0     H29620   6.795   2.162   1.672 -2.0639 -4.5713  0.0226
  215MOL0     H29621   6.941   2.183   1.778  0.7452 -2.7808  2.2795
  215MOL0     H29622   6.704   2.147   1.901 -0.8373  0.1476 -3.7957
  215MOL0     H29623   6.710   1.985   1.846 -1.3795  0.7622  0.1020
  215MOL0     H29624   6.825   1.959   2.050 -1.4214  0.7746 -0.7403
  215MOL0     H29625   6.964   1.975   1.949  0.4563 -0.1015  0.9060
  215MOL0     H29626   6.971   2.229   2.010 -3.0924  1.3820 -1.4627
  215MOL0     H29627   6.825   2.207   2.101  0.2372  0.2824  0.3732
  215MOL0     H29628   7.113   2.082   2.419  1.3879  0.7398 -0.5651
  215MOL0     H29629   7.404   1.976   2.525 -0.2200  0.2425  0.4225
  215MOL0     H29630   7.296   1.837   2.532  2.4214 -0.4098 -1.4750
  215MOL0     H29631   7.239   1.994   2.586  0.6624 -1.7411  0.9133
  215MOL0     H29632   7.687   1.664   2.342  1.0524  0.1980  1.1002
  215MOL0     H29633   7.889   1.562   2.331  2.2241 -0.9695 -1.3148
  215MOL0     H29634   8.043   1.423   2.244  1.6062 -0.2577 -0.2576
  215MOL0     H29635   7.985   1.389   2.084 -2.1564  1.6749  1.4148
  215MOL0     H29636   8.282   1.413   2.152 -0.3496 -0.7037  0.7260
  215MOL0     H29637   8.201   1.259   2.164  0.6896  0.2928  0.4492
  215MOL0     H29638   8.120   1.326   1.910  0.1663  2.3565 -0.7926
  215MOL0     H29639   8.276   1.243   1.961  2.0973  1.0904 -2.5899
  215MOL0     H29640   8.373   1.471   1.956  1.0778 -0.0559  0.0201
  215MOL0     H29641   8.226   1.527   1.870 -2.6805 -3.6792 -0.0989
  215MOL0     H29642   8.259   1.368   1.699 -0.1150 -2.8355  1.2050
  215MOL0     H29643   8.395   1.495   1.707  0.8563  0.2957  1.7655
  215MOL0     H29644   8.471   1.279   1.627 -0.9157  2.5553  0.0735
  215MOL0     H29645   8.400   1.200   1.764 -2.9279  0.9519 -0.0179
  215MOL0     H29646   8.656   1.228   1.802 -0.5365  0.0644  0.4414
  215MOL0     H29647   8.551   1.286   1.924 -0.8200  0.9034  0.4135
  215MOL0     H29648   8.742   1.413   1.872  0.0744  0.7332  1.2719
  215MOL0     H29649   8.609   1.528   1.839  0.4908  0.0602  1.0967
  215MOL0     H29650   7.978   1.765   1.962  0.0558 -4.2674 -0.6663
  215MOL0     H29651   7.763   1.888   1.980  0.6500  1.3082  0.6778
  215MOL0     H29652   7.382   1.930   2.041  2.3197  1.3140  1.0364
  215MOL0     H29653   7.192   2.049   1.994  4.4726  2.4514 -0.2880
  215MOL0     H29654   6.195   1.455   1.023  0.6569  0.6324  2.1885
  215MOL0     H29655   5.958   1.343   1.011  0.8877  0.9935 -2.2691
  215MOL0     H29656   5.601   1.117   1.395  0.4367  1.0105 -0.6949
  215MOL0     H29657   5.386   1.017   1.390  2.1511 -0.3298  0.5249
  215MOL0     H29658   5.099   0.821   1.248  0.7136 -0.4141 -3.7826
  215MOL0     H29659   5.208   0.895   1.361 -0.8982 -1.6573 -0.5201
  215MOL0     H29660   5.029   1.044   1.157  0.0653  2.1286 -0.8173
  215MOL0     H29661   5.162   1.116   1.251  0.8364 -0.8845 -1.7632
  215MOL0     H29662   4.960   0.932   1.393 -0.8749  0.4486  0.5223
  215MOL0     H29663   5.071   1.051   1.458  0.2906  0.2420 -0.7775
  215MOL0     H29664   4.824   1.127   1.295  0.6483  0.0695 -0.9350
  215MOL0     H29665   4.946   1.230   1.365  0.2862 -0.5378 -0.3829
  215MOL0     H29666   4.728   1.126   1.722 -1.8364 -0.2789  0.3878
  215MOL0     H29667   5.431   0.961   0.958  1.3442  1.0489 -0.5413
  215MOL0     H29668   5.737   1.000   0.905 -1.6414 -2.3300 -0.5337
  215MOL0     H29669   5.583   1.056   0.837  0.4363  1.5341 -1.1635
  215MOL0     H29670   5.694   1.167   0.934  0.2291 -1.3242  3.2777
  216MOL0     O29671   9.692   0.895   2.522 -0.1075 -0.1176 -0.2981
  216MOL0     C29672   9.674   0.777   2.558 -0.2784 -0.3298 -0.0016
  216MOL0     O29673   9.772   0.686   2.591 -0.1150  0.7826  0.9032
  216MOL0     C29674   9.890   0.701   2.538  0.3250 -0.1427 -0.9666
  216MOL0     C29675   9.905   0.685   2.397  0.1065  0.0107  0.3791
  216MOL0     C29676  10.023   0.713   2.338  0.0313 -0.0585 -0.0846
  216MOL0     C29677  10.136   0.727   2.417  1.3484  0.0761  0.7199
  216MOL0     O29678  10.261   0.736   2.367 -0.1738  0.7725 -0.0264
  216MOL0     C29679  10.285   0.749   2.230 -0.6231 -0.3502  0.8557
  216MOL0     C29680  10.435   0.779   2.208  0.0268 -0.3387  0.9784
  216MOL0     C29681  10.528   0.672   2.275  0.2149  0.4173  0.4331
  216MOL0     C29682  10.679   0.701   2.271 -0.0431 -0.4884 -0.6328
  216MOL0     C29683  10.773   0.596   2.336 -0.0520 -0.1085 -0.5240
  216MOL0     C29684  10.908   0.634   2.296 -0.6406 -0.1149 -0.2107
  216MOL0     C29685  10.961   0.746   2.390 -0.1685  0.0621 -0.4159
  216MOL0     C29686  11.103   0.778   2.332  0.1975  0.4942 -0.1656
  216MOL0     N29687  11.209   0.704   2.392 -0.7865 -0.1904 -0.0050
  216MOL0     C29688  11.347   0.728   2.389  0.3754 -0.2139 -0.0965
  216MOL0     C29689  11.407   0.623   2.441  0.3250 -0.2687 -0.1596
  216MOL0     C29690  11.546   0.592   2.452  0.2608  0.4477 -0.0854
  216MOL0     C29691  11.626   0.624   2.317  0.2260 -0.1549  0.0374
  216MOL0     C29692  11.772   0.589   2.330  0.2115  0.7429 -0.3603
  216MOL0     C29693  11.853   0.612   2.205 -0.3772  0.1850 -0.6783
  216MOL0     O29694  11.995   0.581   2.233  0.2705  0.1404 -0.1798
  216MOL0     C29695  12.090   0.649   2.160 -0.1501  0.3528 -0.5769
  216MOL0     C29696  12.230   0.629   2.188  0.1034  0.2233  0.5339
  216MOL0     C29697  12.325   0.698   2.108 -0.3198  0.2448  0.0519
  216MOL0     C29698  12.470   0.675   2.144  0.1866  0.1099 -0.6510
  216MOL0     C29699  12.291   0.769   1.997  0.4892  0.0658 -0.2254
  216MOL0     C29700  12.400   0.835   1.923  0.3093 -0.7831 -0.8643
  216MOL0     O29701  12.479   0.918   1.996  0.0864  0.4510  0.9823
  216MOL0     C29702  12.591   0.958   1.923  0.0802  0.6657  0.2432
  216MOL0     C29703  12.717   0.908   1.956  0.6530 -0.1472 -0.0360
  216MOL0     C29704  12.834   0.960   1.895  0.6321  0.1439 -0.3239
  216MOL0     C29705  12.825   1.059   1.797  0.0256 -0.4223 -0.5519
  216MOL0     O29706  12.940   1.088   1.737  0.5516 -0.5860 -0.6004
  216MOL0     C29707  12.998   1.212   1.788 -0.0186  0.7341 -0.5841
  216MOL0     C29708  13.140   1.220   1.718  0.3593  0.2687 -0.0832
  216MOL0     C29709  13.227   1.327   1.788  0.4619  0.4453 -0.2027
  216MOL0     C29710  13.271   1.265   1.923  0.0384  0.1390 -0.7278
  216MOL0     C29711  13.358   1.361   2.004 -0.9234  0.1394  0.0934
  216MOL0     C29712  13.403   1.294   2.135 -0.8373 -0.7364 -0.5671
  216MOL0     C29713  13.480   1.394   2.217 -0.1965 -0.3061 -0.9837
  216MOL0     C29714  13.629   1.404   2.185 -0.4729 -0.7675  0.1582
  216MOL0    Cl29715  13.722   1.277   2.261 -0.2853  0.0231  0.1376
  216MOL0     C29716  12.705   1.110   1.763  1.2712  0.0528  0.0895
  216MOL0     C29717  12.586   1.059   1.824 -0.3153 -0.3874 -0.6012
  216MOL0     O29718  12.405   0.814   1.804  0.0254  0.2514  0.3732
  216MOL0     C29719  12.148   0.775   1.967 -0.8224  1.2748 -0.2137
  216MOL0     C29720  12.055   0.719   2.046  0.2507  0.4975 -0.3527
  216MOL0     N29721  11.301   0.529   2.469 -0.9322 -0.1283  0.1630
  216MOL0     N29722  11.193   0.586   2.450  0.3371 -0.5333  0.4871
  216MOL0     C29723  10.119   0.731   2.554 -0.0047  0.1314 -0.3864
  216MOL0     C29724   9.996   0.736   2.619  0.4288  0.4632 -0.5074
  216MOL0     C29725   9.534   0.730   2.569  0.1519  0.5872  0.1121
  216MOL0     C29726   9.438   0.834   2.582  0.5185  0.0037 -0.3307
  216MOL0     C29727   9.306   0.803   2.621 -0.6048  0.3169  0.2952
  216MOL0     C29728   9.258   0.678   2.619  0.2420 -0.1363 -0.1660
  216MOL0     O29729   9.125   0.667   2.649  0.2571 -0.4739  0.0003
  216MOL0     C29730   9.085   0.530   2.667  0.2626  0.8855 -0.0145
  216MOL0     C29731   8.931   0.521   2.677 -0.2261 -1.0643  0.5812
  216MOL0     C29732   8.858   0.603   2.784  0.0279 -0.4551  0.6804
  216MOL0     C29733   8.892   0.546   2.918  0.0580 -1.1027 -0.4316
  216MOL0     C29734   8.817   0.617   3.022 -0.6202  0.3542  0.0359
  216MOL0     C29735   8.758   0.689   3.095 -0.4791 -0.6625 -0.3195
  216MOL0     C29736   9.346   0.577   2.588 -0.2904 -0.4484 -0.0477
  216MOL0     C29737   9.484   0.599   2.565  0.1511 -0.8686  0.1409
  216MOL0     C29738   9.570   0.482   2.524  0.4528  0.0476  0.5333
  216MOL0     H29739   9.817   0.654   2.341 -0.4148  3.4500 -0.9920
  216MOL0     H29740  10.024   0.720   2.230 -0.2551 -0.5774 -0.1248
  216MOL0     H29741  10.234   0.830   2.177  2.6055 -0.9677 -3.8587
  216MOL0     H29742  10.266   0.653   2.181 -0.9183 -0.3520  0.9762
  216MOL0     H29743  10.463   0.769   2.103  2.8465 -0.8352  1.6905
  216MOL0     H29744  10.460   0.880   2.244  0.1965  0.4133 -1.1219
  216MOL0     H29745  10.489   0.657   2.376  0.9783 -0.7410  0.5850
  216MOL0     H29746  10.508   0.577   2.224 -1.2029  2.0551 -2.2603
  216MOL0     H29747  10.705   0.721   2.167  0.3527 -2.6259 -1.0070
  216MOL0     H29748  10.699   0.797   2.319  2.5540 -2.4356  2.6301
  216MOL0     H29749  10.752   0.495   2.299 -2.2991  0.0541  0.1151
  216MOL0     H29750  10.763   0.600   2.445 -0.9008  0.6738 -0.6176
  216MOL0     H29751  10.981   0.555   2.313  0.0933  0.3455 -1.1114
  216MOL0     H29752  10.916   0.666   2.191 -0.6529  1.1408  0.1488
  216MOL0     H29753  10.958   0.708   2.493  1.6671 -0.2999 -0.4534
  216MOL0     H29754  10.912   0.842   2.380  2.5379  2.0944  3.2015
  216MOL0     H29755  11.111   0.764   2.224  0.7988 -1.4055  0.0860
  216MOL0     H29756  11.120   0.881   2.364 -0.8690  0.4230  0.6989
  216MOL0     H29757  11.398   0.814   2.348  3.0665 -1.9529 -0.6630
  216MOL0     H29758  11.547   0.488   2.488 -0.1749  1.1571  2.1037
  216MOL0     H29759  11.604   0.647   2.526  1.5179  1.3444 -1.6882
  216MOL0     H29760  11.572   0.567   2.241 -2.5652  0.2347  1.5995
  216MOL0     H29761  11.623   0.732   2.299  0.4689  0.2898  2.3457
  216MOL0     H29762  11.816   0.629   2.422 -0.6936  1.9399 -0.4182
  216MOL0     H29763  11.785   0.481   2.343  1.1969  0.8469 -0.3997
  216MOL0     H29764  11.813   0.558   2.119  0.6954 -1.9905  0.1263
  216MOL0     H29765  11.834   0.718   2.186 -0.3432 -0.1829 -3.0183
  216MOL0     H29766  12.256   0.563   2.270 -0.7249  1.1393  1.5860
  216MOL0     H29767  12.474   0.582   2.202 -3.2748  0.1466 -0.1027
  216MOL0     H29768  12.484   0.753   2.219 -0.9035 -0.5125  0.2353
  216MOL0     H29769  12.543   0.682   2.063 -1.5518  2.2161 -2.1727
  216MOL0     H29770  12.728   0.819   2.016  0.6026 -0.1188  0.0147
  216MOL0     H29771  12.932   0.916   1.908  0.5344 -0.8142 -2.4420
  216MOL0     H29772  12.939   1.298   1.753 -2.6548  0.1960  2.0991
  216MOL0     H29773  13.001   1.216   1.897 -0.6599  1.0178 -0.5683
  216MOL0     H29774  13.183   1.119   1.724 -0.3099 -0.0383 -0.3033
  216MOL0     H29775  13.128   1.238   1.611  0.6815  1.7068  0.1116
  216MOL0     H29776  13.171   1.417   1.815  1.2612  0.6788  0.7489
  216MOL0     H29777  13.314   1.347   1.725  0.8991  1.4251  0.6769
  216MOL0     H29778  13.330   1.174   1.904  0.7876 -0.2031  2.5350
  216MOL0     H29779  13.186   1.241   1.987 -0.7548  1.4903 -1.2368
  216MOL0     H29780  13.450   1.392   1.954 -2.8503  1.6709 -2.7820
  216MOL0     H29781  13.307   1.454   2.031  0.8408  0.9801  0.6521
  216MOL0     H29782  13.481   1.218   2.124  3.1014  2.3857  2.3371
  216MOL0     H29783  13.314   1.255   2.185 -1.4611  1.0607 -0.2083
  216MOL0     H29784  13.469   1.360   2.320  3.1647 -1.9493 -1.0239
  216MOL0     H29785  13.434   1.493   2.218 -0.3504 -0.3832 -0.1938
  216MOL0     H29786  13.670   1.498   2.223 -0.8708  0.3759 -2.0672
  216MOL0     H29787  13.647   1.395   2.078 -0.4322 -1.3438  0.2109
  216MOL0     H29788  12.702   1.195   1.696  0.7615 -1.0680 -1.3653
  216MOL0     H29789  12.492   1.102   1.792 -0.0124  1.9482  1.3311
  216MOL0     H29790  12.125   0.835   1.879 -0.2076  0.2683 -1.0987
  216MOL0     H29791  11.952   0.716   2.010 -0.5047  2.6131  1.4078
  216MOL0     H29792  10.212   0.735   2.609  1.1247 -0.6749 -2.1430
  216MOL0     H29793   9.983   0.728   2.726  0.3119 -2.4125 -0.6464
  216MOL0     H29794   9.460   0.939   2.565  0.5274  0.3518  1.6474
  216MOL0     H29795   9.237   0.886   2.635 -0.2962  0.8255 -1.0363
  216MOL0     H29796   9.099   0.479   2.571  2.3090  1.3953 -0.0274
  216MOL0     H29797   9.125   0.479   2.755  0.8816  1.9657  0.3407
  216MOL0     H29798   8.912   0.413   2.687 -1.2482 -1.0426 -0.7579
  216MOL0     H29799   8.900   0.554   2.577  0.5527  1.4355  1.0982
  216MOL0     H29800   8.895   0.706   2.778 -0.4450 -0.2524  1.1972
  216MOL0     H29801   8.751   0.600   2.761  0.0014  0.2839  0.6625
  216MOL0     H29802   9.001   0.551   2.927  0.0996  2.4681 -1.5980
  216MOL0     H29803   8.862   0.441   2.929 -1.2290 -0.4493  4.7212
  216MOL0     H29804   8.718   0.759   3.166  0.8790 -1.3601  1.2116
  216MOL0     H29805   9.311   0.474   2.587 -2.1444  0.0690 -3.2952
  216MOL0     H29806   9.519   0.387   2.539  1.5121 -0.9345 -1.6678
  216MOL0     H29807   9.588   0.484   2.416 -2.6775 -2.7946 -0.2225
  216MOL0     H29808   9.665   0.475   2.578  0.5538  0.2844  0.3905
  217MOL0     O29809   0.827   0.907   1.451  0.6395 -0.0008  0.7973
  217MOL0     C29810   0.845   0.785   1.475  0.5731 -0.4356  0.0147
  217MOL0     O29811   0.956   0.711   1.433 -0.3750 -1.1000  0.2861
  217MOL0     C29812   1.069   0.784   1.389  0.4785  0.6352  0.5130
  217MOL0     C29813   1.136   0.730   1.280 -0.6127  0.4420  0.6017
  217MOL0     C29814   1.250   0.796   1.227  0.1823  0.3763  0.3869
  217MOL0     C29815   1.296   0.910   1.288 -0.4689  0.2655  0.3150
  217MOL0     O29816   1.401   0.979   1.225  0.2721  0.5993 -0.3721
  217MOL0     C29817   1.497   1.038   1.316  0.4226  0.5313 -0.2321
  217MOL0     C29818   1.603   1.067   1.217 -0.1859  0.0545  0.5107
  217MOL0     C29819   1.714   1.147   1.283 -0.5674 -0.7680  0.3499
  217MOL0     C29820   1.842   1.120   1.202  0.4008 -1.3348 -0.1625
  217MOL0     C29821   1.966   1.176   1.281  0.5731 -0.7861  0.2052
  217MOL0     C29822   1.999   1.082   1.402  0.5498  0.7218 -0.5604
  217MOL0     C29823   2.128   1.124   1.470 -0.1303  0.5604 -0.6574
  217MOL0     C29824   2.255   1.080   1.396  0.1825  0.9746  0.3209
  217MOL0     N29825   2.374   1.111   1.474 -0.5239 -0.3671 -0.6496
  217MOL0     C29826   2.414   1.047   1.586  0.6053  0.4915 -0.2950
  217MOL0     C29827   2.541   1.085   1.616 -0.8747  0.4223 -0.2865
  217MOL0     C29828   2.631   1.052   1.727 -0.1866  0.3009 -0.2626
  217MOL0     C29829   2.768   0.980   1.678 -0.8563 -0.3122 -0.6575
  217MOL0     C29830   2.893   1.060   1.737 -0.3718  0.4495  1.1114
  217MOL0     C29831   3.026   0.998   1.668 -0.1985  0.4441 -0.0983
  217MOL0     O29832   3.046   0.859   1.692  0.0739  0.2434  0.4878
  217MOL0     C29833   3.158   0.806   1.638  0.2180 -1.4429  0.5708
  217MOL0     C29834   3.224   0.866   1.531  0.1238 -0.0482  0.2796
  217MOL0     C29835   3.347   0.817   1.484  0.9055 -0.3814 -0.6763
  217MOL0     C29836   3.428   0.909   1.385 -0.9708 -0.0356  0.7881
  217MOL0     C29837   3.410   0.705   1.554 -0.1168  0.6077 -0.5028
  217MOL0     C29838   3.546   0.651   1.519  0.1230  0.0971  0.3056
  217MOL0     O29839   3.585   0.630   1.394 -0.0627 -0.6621  0.4629
  217MOL0     C29840   3.719   0.620   1.355  0.8649  0.0137 -0.5585
  217MOL0     C29841   3.774   0.495   1.335 -0.9863 -0.2152 -0.3557
  217MOL0     C29842   3.910   0.493   1.303  0.3051  0.1631  0.7446
  217MOL0     C29843   3.987   0.610   1.294 -0.2044 -0.2367  1.2425
  217MOL0     O29844   4.116   0.607   1.258 -0.2957 -0.1487 -0.3590
  217MOL0     C29845   4.186   0.483   1.276  0.0311 -0.2357 -0.3664
  217MOL0     C29846   4.338   0.479   1.260 -0.4462 -0.8701  0.2107
  217MOL0     C29847   4.393   0.335   1.273  0.3112 -0.0642 -0.4757
  217MOL0     C29848   4.545   0.330   1.266 -0.3978 -0.8267 -0.4912
  217MOL0     C29849   4.591   0.185   1.260 -0.0044 -0.0604 -0.6800
  217MOL0     C29850   4.720   0.175   1.181  0.2111 -0.0445  0.2398
  217MOL0     C29851   4.780   0.028   1.196 -0.4843  0.3814 -0.0692
  217MOL0     C29852   4.699  -0.100   1.167  0.4865  1.4301 -0.2338
  217MOL0    Cl29853   4.788  -0.258   1.184 -0.3011 -0.2094  0.5024
  217MOL0     C29854   3.933   0.732   1.317 -0.9102 -0.5019  0.6750
  217MOL0     C29855   3.794   0.735   1.340  0.1231  0.1770 -0.0913
  217MOL0     O29856   3.626   0.640   1.616 -0.6446  0.1028 -0.0459
  217MOL0     C29857   3.338   0.651   1.666  0.5321  0.4172 -0.1310
  217MOL0     C29858   3.206   0.700   1.703 -0.9330  0.4735  0.5466
  217MOL0     N29859   2.580   1.181   1.523  0.4415 -0.3486  0.1688
  217MOL0     N29860   2.478   1.200   1.440  0.4259  0.6366 -0.2013
  217MOL0     C29861   1.226   0.959   1.398 -1.0387 -1.4102 -0.7356
  217MOL0     C29862   1.122   0.900   1.454 -0.1188  0.1757 -0.1686
  217MOL0     C29863   0.737   0.713   1.553  0.1321 -0.1636 -0.2016
  217MOL0     C29864   0.781   0.592   1.605  0.1471  0.9619 -0.3255
  217MOL0     C29865   0.698   0.515   1.685  0.1260  0.3797  0.4739
  217MOL0     C29866   0.574   0.558   1.725  0.1293 -0.2457 -0.1297
  217MOL0     O29867   0.484   0.479   1.800  0.3279 -1.0642  0.7900
  217MOL0     C29868   0.522   0.346   1.839 -0.0217 -0.0310  0.4265
  217MOL0     C29869   0.394   0.285   1.912 -0.4226 -0.8526  0.3447
  217MOL0     C29870   0.295   0.211   1.814  0.3233 -0.6239  0.1046
  217MOL0     C29871   0.214   0.316   1.743 -0.1620 -0.0311 -0.7844
  217MOL0     C29872   0.127   0.257   1.642  0.7243  0.2173 -0.0035
  217MOL0     C29873   0.049   0.193   1.561 -0.6542  0.0315 -0.4846
  217MOL0     C29874   0.524   0.679   1.669 -1.2966  0.7018 -0.5588
  217MOL0     C29875   0.606   0.764   1.589  0.1545  0.1755 -1.1015
  217MOL0     C29876   0.545   0.892   1.545 -0.8053  0.0836  0.2532
  217MOL0     H29877   1.092   0.640   1.237  0.4472  1.4761 -2.9771
  217MOL0     H29878   1.294   0.746   1.142 -1.2239 -0.7984  0.3259
  217MOL0     H29879   1.544   0.976   1.393  0.4644 -0.0272 -0.7047
  217MOL0     H29880   1.463   1.128   1.369  2.2064  1.0824  0.0334
  217MOL0     H29881   1.634   0.970   1.177 -0.7586 -0.4557  1.2864
  217MOL0     H29882   1.572   1.140   1.142 -0.3740 -0.4728  0.0753
  217MOL0     H29883   1.690   1.252   1.302  0.2162 -0.2497 -1.3839
  217MOL0     H29884   1.722   1.107   1.385 -0.9851 -1.0358  0.2783
  217MOL0     H29885   1.849   1.016   1.168 -3.2480 -0.8975 -2.9386
  217MOL0     H29886   1.833   1.184   1.113 -1.5054  1.9898  2.1754
  217MOL0     H29887   1.944   1.276   1.318 -0.3009 -0.1067 -1.9614
  217MOL0     H29888   2.060   1.185   1.226  1.1590  0.6099  1.3871
  217MOL0     H29889   1.920   1.091   1.477  3.6631 -0.6327  3.1888
  217MOL0     H29890   2.008   0.978   1.369  0.6771  0.9349 -1.2256
  217MOL0     H29891   2.144   1.079   1.569  3.4702  0.6004 -1.1121
  217MOL0     H29892   2.118   1.230   1.494 -1.6943 -0.0414  1.7689
  217MOL0     H29893   2.247   0.972   1.385  3.0410  0.6654  0.5158
  217MOL0     H29894   2.256   1.124   1.296 -0.9755  0.2316 -0.0396
  217MOL0     H29895   2.357   0.978   1.648  0.2468 -0.8935 -2.0752
  217MOL0     H29896   2.578   0.983   1.793 -1.6620  2.9690  1.5408
  217MOL0     H29897   2.655   1.140   1.787 -2.4512  3.0330 -3.0208
  217MOL0     H29898   2.760   0.874   1.705  0.0474 -0.1567  0.2660
  217MOL0     H29899   2.768   0.991   1.569  1.8098 -2.0010 -0.8963
  217MOL0     H29900   2.881   1.167   1.722 -1.7697  0.3293  1.1968
  217MOL0     H29901   2.896   1.037   1.844  0.7370  1.5626  1.3352
  217MOL0     H29902   3.006   1.009   1.561 -0.0923 -2.4239 -0.4774
  217MOL0     H29903   3.109   1.059   1.705  0.1968 -1.1634  1.7891
  217MOL0     H29904   3.188   0.955   1.481  0.4951  1.4334  2.5050
  217MOL0     H29905   3.489   0.975   1.447  1.0361  0.1861 -1.2999
  217MOL0     H29906   3.356   0.955   1.318 -0.4434  1.4181  1.1831
  217MOL0     H29907   3.489   0.843   1.322 -1.1405  0.3731  0.1954
  217MOL0     H29908   3.720   0.400   1.339 -0.0987 -0.6975  1.1706
  217MOL0     H29909   3.948   0.397   1.272  1.3992  1.0408 -0.7643
  217MOL0     H29910   4.168   0.445   1.376  2.2460  2.1331  1.0471
  217MOL0     H29911   4.141   0.415   1.203 -3.6860  1.1546  0.4268
  217MOL0     H29912   4.359   0.527   1.164  1.1609  2.0589  1.8975
  217MOL0     H29913   4.384   0.542   1.337 -1.1207  2.0659 -1.6406
  217MOL0     H29914   4.360   0.274   1.188 -2.4487 -0.0473  0.5013
  217MOL0     H29915   4.356   0.290   1.365  0.3623 -0.0761 -0.4607
  217MOL0     H29916   4.592   0.383   1.350  1.2895 -1.6569 -0.8636
  217MOL0     H29917   4.582   0.370   1.171  0.3678 -0.9325 -0.2438
  217MOL0     H29918   4.615   0.144   1.358  0.5367 -4.5565 -2.4490
  217MOL0     H29919   4.512   0.124   1.215 -1.7455  1.1203  0.5832
  217MOL0     H29920   4.800   0.240   1.218 -2.9798  3.1681  2.0112
  217MOL0     H29921   4.703   0.197   1.075  0.7068 -0.4365  0.0712
  217MOL0     H29922   4.819   0.024   1.299 -0.1568 -4.7366 -0.1686
  217MOL0     H29923   4.875   0.019   1.143 -0.9116  0.5379 -0.8800
  217MOL0     H29924   4.653  -0.105   1.068  0.9320  0.5373 -0.4096
  217MOL0     H29925   4.620  -0.104   1.242  1.5997  0.1473  0.9425
  217MOL0     H29926   3.999   0.818   1.305  0.3946 -1.8166 -3.9613
  217MOL0     H29927   3.748   0.833   1.350  2.0403  1.2355 -1.1476
  217MOL0     H29928   3.383   0.564   1.714 -0.9841  0.5781  1.6943
  217MOL0     H29929   3.142   0.661   1.781 -1.6191  2.3182  0.9455
  217MOL0     H29930   1.260   1.055   1.438 -0.4921 -1.5936 -0.7527
  217MOL0     H29931   1.051   0.953   1.518 -0.0639  1.1836 -0.9099
  217MOL0     H29932   0.880   0.561   1.571 -0.4967  2.3271 -3.8166
  217MOL0     H29933   0.736   0.416   1.707  4.1241  1.1786 -1.8684
  217MOL0     H29934   0.549   0.283   1.754  0.4191 -0.9835  1.2597
  217MOL0     H29935   0.605   0.339   1.909  0.8580 -1.5068 -0.7011
  217MOL0     H29936   0.350   0.370   1.966  0.0146 -0.8409  0.6921
  217MOL0     H29937   0.425   0.219   1.993 -0.8822 -0.5164  0.8024
  217MOL0     H29938   0.351   0.144   1.748 -0.8446 -1.6773  0.1655
  217MOL0     H29939   0.210   0.160   1.859 -0.6560 -0.4447 -1.4509
  217MOL0     H29940   0.269   0.392   1.687 -3.2230  0.3177 -3.6982
  217MOL0     H29941   0.152   0.363   1.820  1.2533  0.0777  0.3156
  217MOL0     H29942  -0.007   0.139   1.488  0.5856 -1.1889 -0.5792
  217MOL0     H29943   0.421   0.705   1.694 -1.3096  0.2107 -0.0848
  217MOL0     H29944   0.553   0.916   1.438  0.1320  1.8707  0.6956
  217MOL0     H29945   0.445   0.910   1.586 -0.3383 -0.5626  1.7060
  217MOL0     H29946   0.613   0.968   1.585 -0.2094 -1.0277  1.4196
  218MOL0     O29947   5.331   0.655   2.860 -0.6615 -0.2663  0.1160
  218MOL0     C29948   5.233   0.693   2.807 -0.6205 -0.6710  0.5615
  218MOL0     O29949   5.230   0.784   2.709  0.7587 -0.2410  0.0956
  218MOL0     C29950   5.338   0.847   2.655  0.0479  0.1073  0.0135
  218MOL0     C29951   5.332   0.985   2.637  0.3507 -0.2585  0.2567
  218MOL0     C29952   5.423   1.064   2.559 -0.6184  0.4145  0.1986
  218MOL0     C29953   5.525   0.990   2.492 -0.4968 -0.0740 -1.0203
  218MOL0     O29954   5.609   1.064   2.421  0.1314  0.1879 -0.3074
  218MOL0     C29955   5.720   0.998   2.360 -0.4239 -0.4254  0.5657
  218MOL0     C29956   5.785   1.092   2.258  0.3726 -0.0443 -0.4985
  218MOL0     C29957   5.902   1.037   2.186  0.5028 -0.2415 -0.4606
  218MOL0     C29958   5.957   1.134   2.080 -0.4418 -0.3126 -0.0640
  218MOL0     C29959   6.056   1.071   1.985  0.3462 -0.7313  0.1843
  218MOL0     C29960   6.102   1.168   1.882  0.8865  0.0566 -0.4387
  218MOL0     C29961   6.214   1.094   1.800  1.1014  0.2564 -0.3586
  218MOL0     C29962   6.249   1.159   1.665 -0.7212  0.1941  0.6314
  218MOL0     N29963   6.341   1.076   1.586 -0.7782  0.4277 -0.3989
  218MOL0     C29964   6.315   0.955   1.515  1.5990 -0.5188  0.0868
  218MOL0     C29965   6.434   0.946   1.446  0.7514  0.6134 -0.6392
  218MOL0     C29966   6.464   0.826   1.351  0.4423  1.2152  0.5642
  218MOL0     C29967   6.611   0.781   1.357  0.4218 -0.5309  0.2854
  218MOL0     C29968   6.631   0.625   1.319 -0.3573  0.0058  0.1570
  218MOL0     C29969   6.634   0.624   1.169 -0.7038  0.4728 -0.3209
  218MOL0     O29970   6.634   0.485   1.117  0.3320 -0.1916  0.8681
  218MOL0     C29971   6.523   0.468   1.034 -0.7488 -0.4767  0.3677
  218MOL0     C29972   6.546   0.439   0.896 -0.6531 -1.0122  0.0615
  218MOL0     C29973   6.442   0.404   0.809  0.4779 -0.9487  0.4729
  218MOL0     C29974   6.476   0.379   0.669  0.2464 -0.0025  0.4199
  218MOL0     C29975   6.321   0.381   0.861  1.5490  1.0745 -0.3836
  218MOL0     C29976   6.207   0.328   0.782 -0.1698 -0.1264 -0.6597
  218MOL0     O29977   6.146   0.220   0.838 -0.5691  0.2841 -0.0122
  218MOL0     C29978   6.018   0.191   0.787  0.5214 -0.9525  0.1398
  218MOL0     C29979   5.918   0.282   0.791 -0.3762 -0.1009 -0.2054
  218MOL0     C29980   5.788   0.233   0.775  0.9920 -0.2265  0.1336
  218MOL0     C29981   5.754   0.102   0.740 -0.2315  0.5506 -0.3055
  218MOL0     O29982   5.624   0.058   0.740 -0.7724  0.5349 -0.1286
  218MOL0     C29983   5.516   0.144   0.767 -0.3097  0.3705 -0.2427
  218MOL0     C29984   5.380   0.077   0.772 -0.7101  0.4844 -0.8018
  218MOL0     C29985   5.270   0.175   0.802 -0.3174 -0.3362 -0.2992
  218MOL0     C29986   5.140   0.100   0.792 -0.0526 -0.4842  0.6633
  218MOL0     C29987   5.122  -0.015   0.886  0.6458  0.6718  0.3347
  218MOL0     C29988   4.982  -0.093   0.880 -0.3448 -0.6373  0.4115
  218MOL0     C29989   4.936  -0.148   0.739 -0.1898 -0.2635 -0.0938
  218MOL0     C29990   5.039  -0.231   0.665  0.3171 -0.2149  0.3570
  218MOL0    Cl29991   5.003  -0.191   0.493 -0.1215  0.2566  0.2462
  218MOL0     C29992   5.864   0.024   0.705 -0.6187  0.0491  0.1200
  218MOL0     C29993   5.990   0.064   0.739  0.2675 -0.4606  0.7287
  218MOL0     O29994   6.164   0.400   0.690 -0.1998  0.3996  0.2394
  218MOL0     C29995   6.291   0.398   0.997  0.2806 -0.3362 -0.5245
  218MOL0     C29996   6.397   0.449   1.085 -0.0124 -0.1026  0.1371
  218MOL0     N29997   6.523   1.045   1.476  0.0990  0.1065 -0.4784
  218MOL0     N29998   6.467   1.128   1.550 -0.1074 -0.2914 -0.4305
  218MOL0     C29999   5.535   0.854   2.511 -0.2170 -0.3426  0.4676
  218MOL0     C30000   5.440   0.782   2.583 -0.3988  1.1844 -0.1051
  218MOL0     C30001   5.108   0.638   2.851 -0.9538 -0.3447  0.4558
  218MOL0     C30002   5.005   0.627   2.757 -0.0347  0.9035 -0.1646
  218MOL0     C30003   4.887   0.573   2.784 -0.4376  0.4689 -0.0247
  218MOL0     C30004   4.857   0.525   2.912 -0.0958  0.2850 -0.4338
  218MOL0     O30005   4.740   0.460   2.958  0.1708 -0.4840  0.0521
  218MOL0     C30006   4.663   0.412   2.849  0.0072 -0.3875 -0.1324
  218MOL0     C30007   4.547   0.322   2.879  0.5015  0.3676 -0.3223
  218MOL0     C30008   4.411   0.395   2.910 -0.8361 -0.0638  0.6353
  218MOL0     C30009   4.403   0.469   3.038 -0.9018 -0.4515 -0.3317
  218MOL0     C30010   4.268   0.516   3.062 -0.6169  1.2070 -0.3156
  218MOL0     C30011   4.158   0.553   3.071  1.0221  0.2203  0.5805
  218MOL0     C30012   4.950   0.556   3.012  0.5484 -0.2849  0.4498
  218MOL0     C30013   5.079   0.608   2.981 -0.4799 -0.2276 -0.6413
  218MOL0     C30014   5.161   0.658   3.096 -0.4754  0.4831  0.3181
  218MOL0     H30015   5.251   1.038   2.687  0.7159  0.5856 -0.0281
  218MOL0     H30016   5.412   1.170   2.536 -0.2646  0.7829  1.6120
  218MOL0     H30017   5.689   0.910   2.303  0.2672  0.4769 -1.3095
  218MOL0     H30018   5.804   0.970   2.422 -0.4186 -2.3317 -0.2396
  218MOL0     H30019   5.704   1.119   2.190 -0.4733 -1.1345  0.0363
  218MOL0     H30020   5.815   1.180   2.315  0.5306 -2.0534  2.7391
  218MOL0     H30021   5.974   1.007   2.262  0.3871 -0.5603 -0.4720
  218MOL0     H30022   5.877   0.948   2.127 -0.2719 -0.1136 -0.3357
  218MOL0     H30023   5.872   1.169   2.021 -0.6769 -0.1084  0.3932
  218MOL0     H30024   6.017   1.215   2.121 -2.3332  0.7838  0.7166
  218MOL0     H30025   6.011   0.987   1.932 -0.4592 -1.8105  2.4945
  218MOL0     H30026   6.146   1.034   2.033 -0.7968 -3.6534  0.2604
  218MOL0     H30027   6.014   1.183   1.819  1.4285  0.7690 -1.0392
  218MOL0     H30028   6.136   1.265   1.919  4.6189 -1.5572  0.8359
  218MOL0     H30029   6.178   0.991   1.789 -1.6502  1.0565  0.1916
  218MOL0     H30030   6.302   1.090   1.864  0.4504 -1.6338  0.4935
  218MOL0     H30031   6.147   1.169   1.624 -1.6678  1.1824  3.0776
  218MOL0     H30032   6.292   1.256   1.689  0.6305 -0.0924 -0.5129
  218MOL0     H30033   6.221   0.903   1.501  1.6560 -0.7069  0.4110
  218MOL0     H30034   6.454   0.865   1.249 -0.0856  0.6844  0.4117
  218MOL0     H30035   6.398   0.741   1.367 -0.6863  2.0732  0.6313
  218MOL0     H30036   6.679   0.841   1.297  0.9714 -2.7289 -1.4508
  218MOL0     H30037   6.632   0.792   1.464 -0.4816 -0.8534  0.5129
  218MOL0     H30038   6.727   0.584   1.353 -0.7389 -1.4165 -0.4169
  218MOL0     H30039   6.551   0.563   1.362 -0.6089  1.6365  2.1707
  218MOL0     H30040   6.541   0.673   1.137 -0.6597  2.0832  1.8289
  218MOL0     H30041   6.715   0.690   1.137 -0.3525  1.2563  2.0164
  218MOL0     H30042   6.647   0.445   0.859 -0.4725  1.5906  0.7832
  218MOL0     H30043   6.443   0.283   0.629  0.0767  0.6320 -1.0343
  218MOL0     H30044   6.584   0.370   0.657  0.3664  1.8836 -0.2217
  218MOL0     H30045   6.442   0.455   0.598 -4.0029  0.4379  2.6193
  218MOL0     H30046   5.943   0.381   0.827 -1.4966  1.2269 -2.8086
  218MOL0     H30047   5.710   0.305   0.798 -0.0333 -1.9505  2.5248
  218MOL0     H30048   5.523   0.193   0.864  0.2236 -1.3500  0.6334
  218MOL0     H30049   5.518   0.215   0.684 -2.6206 -1.4149 -1.9499
  218MOL0     H30050   5.382   0.024   0.677  0.6216  1.7809 -1.5420
  218MOL0     H30051   5.389   0.010   0.858  0.3984  1.2803 -0.2635
  218MOL0     H30052   5.273   0.256   0.729 -2.4807 -0.8313 -1.0072
  218MOL0     H30053   5.288   0.219   0.901  1.4931  4.3107 -2.3847
  218MOL0     H30054   5.106   0.073   0.691 -5.2121 -0.5640  2.0995
  218MOL0     H30055   5.063   0.172   0.822 -0.7284 -2.7264  5.0843
  218MOL0     H30056   5.202  -0.090   0.882  2.2313  2.2696  0.8568
  218MOL0     H30057   5.135   0.020   0.989 -0.8727  1.8863  0.1510
  218MOL0     H30058   4.911  -0.013   0.905  1.1678  0.7850  0.3461
  218MOL0     H30059   4.979  -0.169   0.958 -1.4224 -1.1926 -0.1618
  218MOL0     H30060   4.910  -0.061   0.679  0.0251 -0.7571 -0.9141
  218MOL0     H30061   4.845  -0.207   0.755 -1.6393  1.7379 -0.6339
  218MOL0     H30062   5.023  -0.337   0.686 -0.2801 -0.0692  0.6847
  218MOL0     H30063   5.142  -0.197   0.682  0.8240 -2.2235  1.6109
  218MOL0     H30064   5.854  -0.077   0.667  2.8336 -0.0716 -0.8089
  218MOL0     H30065   6.076  -0.000   0.725 -0.6314 -1.6247  0.3979
  218MOL0     H30066   6.201   0.364   1.047  0.8953 -0.3141  0.6462
  218MOL0     H30067   6.383   0.469   1.191 -0.3781  3.1946 -0.4223
  218MOL0     H30068   5.600   0.788   2.454 -0.9462 -0.6561 -0.0307
  218MOL0     H30069   5.447   0.674   2.585  2.6122  1.1508 -3.1691
  218MOL0     H30070   5.030   0.659   2.656  0.8030  0.2693 -0.1717
  218MOL0     H30071   4.813   0.560   2.706 -0.1287 -2.1739  0.0289
  218MOL0     H30072   4.639   0.502   2.794  2.3857  1.0997  1.0823
  218MOL0     H30073   4.733   0.355   2.786  0.3694 -2.8532  2.2531
  218MOL0     H30074   4.572   0.248   2.956 -2.9852  0.3626  0.9493
  218MOL0     H30075   4.511   0.264   2.794  0.6068 -1.9675  1.1258
  218MOL0     H30076   4.382   0.462   2.829 -1.8286 -1.9545 -0.6614
  218MOL0     H30077   4.326   0.326   2.901 -0.7646  0.0797 -1.7950
  218MOL0     H30078   4.468   0.558   3.039  0.2272 -1.2456  0.0287
  218MOL0     H30079   4.426   0.409   3.127 -0.4028 -0.3600 -0.3953
  218MOL0     H30080   4.056   0.586   3.074  1.5336  2.0111 -0.4950
  218MOL0     H30081   4.938   0.523   3.115  1.4026 -0.5459  0.4715
  218MOL0     H30082   5.252   0.599   3.085 -1.4435 -1.4761  2.1217
  218MOL0     H30083   5.175   0.766   3.096  2.5329  0.1642 -0.8975
  218MOL0     H30084   5.113   0.637   3.192 -1.9644  1.7597 -0.1094
  219MOL0     O30085   9.873  10.953   9.078 -0.2456  0.5491 -0.2829
  219MOL0     C30086   9.907  11.029   9.164  0.7343 -0.0604 -0.9163
  219MOL0     O30087   9.928  11.166   9.143 -0.1611 -0.2281 -0.2453
  219MOL0     C30088   9.876  11.215   9.022 -0.1200 -0.1349 -0.0027
  219MOL0     C30089   9.963  11.299   8.947 -0.6694 -0.5483 -0.4712
  219MOL0     C30090   9.906  11.363   8.832  0.1280  0.3692 -0.1596
  219MOL0     C30091   9.773  11.349   8.798  0.8469  0.5519 -0.2165
  219MOL0     O30092   9.722  11.394   8.680 -0.1440  0.1831 -0.0515
  219MOL0     C30093   9.773  11.309   8.570  0.3749 -1.5822 -0.5657
  219MOL0     C30094   9.676  11.310   8.455  0.2390 -0.2187 -0.2147
  219MOL0     C30095   9.560  11.221   8.478  0.3652 -0.3176  1.0379
  219MOL0     C30096   9.482  11.195   8.349 -0.3422 -0.2404 -0.2698
  219MOL0     C30097   9.359  11.113   8.380  0.5960  0.2971  0.5551
  219MOL0     C30098   9.281  11.088   8.250  0.7446 -0.2536  0.0536
  219MOL0     C30099   9.158  10.994   8.280 -0.3905 -0.1297 -0.2339
  219MOL0     C30100   9.180  10.855   8.329  0.2740  0.4375 -0.3967
  219MOL0     N30101   9.278  10.787   8.242  0.1189 -0.8757 -0.7235
  219MOL0     C30102   9.340  10.677   8.277  0.5855  0.2385  0.0166
  219MOL0     C30103   9.392  10.629   8.161  0.3608 -0.1635 -0.6049
  219MOL0     C30104   9.491  10.507   8.149 -0.8546  0.6629 -0.6895
  219MOL0     C30105   9.631  10.529   8.204  0.3839  0.3989  0.9597
  219MOL0     C30106   9.725  10.408   8.188  0.6469 -0.5337  0.9662
  219MOL0     C30107   9.868  10.440   8.239  0.4762 -0.1311 -0.5047
  219MOL0     O30108   9.868  10.465   8.378 -1.1765 -0.1518 -0.8967
  219MOL0     C30109   9.987  10.425   8.431  0.5895  1.6153 -0.1051
  219MOL0     C30110   9.986  10.319   8.520  0.2502  0.3708  0.1301
  219MOL0     C30111  10.110  10.275   8.585  0.0128  0.6133  0.2281
  219MOL0     C30112  10.089  10.159   8.682 -0.0870 -0.1193 -0.4662
  219MOL0     C30113  10.234  10.341   8.555  0.3832  0.1742  0.0535
  219MOL0     C30114  10.375  10.293   8.592 -0.1138  0.6481 -0.2614
  219MOL0     O30115  10.476  10.381   8.559 -0.1730  0.0101  0.1175
  219MOL0     C30116  10.601  10.374   8.622 -0.0012 -0.5618  0.5743
  219MOL0     C30117  10.610  10.352   8.756 -0.2789 -0.5427  0.2794
  219MOL0     C30118  10.737  10.335   8.816  0.3154 -0.8427  0.1141
  219MOL0     C30119  10.857  10.342   8.735  0.4533 -0.0662  0.5358
  219MOL0     O30120  10.981  10.338   8.789 -0.2718  0.5518 -0.4656
  219MOL0     C30121  11.074  10.439   8.746 -0.4424 -1.0216 -0.3810
  219MOL0     C30122  11.184  10.457   8.855  0.0782 -0.2397  0.8010
  219MOL0     C30123  11.293  10.568   8.815  0.1733  0.4469  0.8596
  219MOL0     C30124  11.424  10.540   8.891 -0.0178  0.3866 -0.2118
  219MOL0     C30125  11.517  10.662   8.886  0.8210  0.2317  0.1010
  219MOL0     C30126  11.583  10.699   8.749 -0.3688  0.6287  0.4140
  219MOL0     C30127  11.696  10.601   8.713  0.6356 -0.0739  0.2146
  219MOL0     C30128  11.764  10.607   8.574  0.7449  0.6283 -0.2688
  219MOL0    Cl30129  11.882  10.736   8.567  0.1669 -0.4244  0.4213
  219MOL0     C30130  10.841  10.372   8.595 -0.5142  0.4939 -0.5036
  219MOL0     C30131  10.716  10.388   8.538  1.1001  0.2299 -0.4379
  219MOL0     O30132  10.391  10.193   8.663  0.4198  0.3556 -0.9173
  219MOL0     C30133  10.222  10.456   8.474 -0.4214  0.2446 -0.0543
  219MOL0     C30134  10.106  10.491   8.405  0.1790 -0.2704 -0.2293
  219MOL0     N30135   9.355  10.715   8.060  0.3357  0.0061  0.3722
  219MOL0     N30136   9.277  10.792   8.110 -0.2850 -0.3626  0.4738
  219MOL0     C30137   9.695  11.265   8.876 -0.5491 -0.1452 -0.1588
  219MOL0     C30138   9.750  11.193   8.984 -0.3628 -0.3935 -0.3580
  219MOL0     C30139   9.947  10.972   9.295 -0.2950  0.1139 -0.1807
  219MOL0     C30140  10.025  11.056   9.383  0.2054  0.3974  1.0721
  219MOL0     C30141  10.095  11.001   9.487  0.5761  0.4374 -0.4098
  219MOL0     C30142  10.078  10.873   9.525 -0.0347  0.4797  0.4190
  219MOL0     O30143  10.145  10.839   9.642  0.5152 -0.1239 -0.5893
  219MOL0     C30144  10.181  10.701   9.666 -0.2136 -0.1792  0.5291
  219MOL0     C30145  10.315  10.685   9.753 -0.1448  0.1323 -0.4809
  219MOL0     C30146  10.439  10.692   9.658 -0.0398  0.9342 -0.2074
  219MOL0     C30147  10.555  10.730   9.738  0.1831  0.1359  0.1924
  219MOL0     C30148  10.656  10.748   9.637  0.8677 -0.4958 -0.2829
  219MOL0     C30149  10.748  10.764   9.557  0.6716  0.3815 -0.3993
  219MOL0     C30150   9.995  10.791   9.453  0.4980 -0.6187 -0.0308
  219MOL0     C30151   9.927  10.833   9.336  0.4943  0.8227  0.3580
  219MOL0     C30152   9.852  10.735   9.261 -0.1731 -0.4013 -0.4038
  219MOL0     H30153  10.065  11.323   8.976 -0.7320  1.9371 -1.9983
  219MOL0     H30154   9.975  11.410   8.763 -0.3364  1.0218 -0.1829
  219MOL0     H30155   9.785  11.208   8.610  0.1919 -1.2667  0.3038
  219MOL0     H30156   9.862  11.348   8.519 -0.1150  0.4532  0.0532
  219MOL0     H30157   9.651  11.411   8.419  0.9642  0.5509  1.3634
  219MOL0     H30158   9.736  11.262   8.378  1.2972  0.5555  0.1114
  219MOL0     H30159   9.596  11.123   8.512  0.5761 -0.7050 -0.2445
  219MOL0     H30160   9.491  11.251   8.557 -0.5010  1.9459 -0.4585
  219MOL0     H30161   9.445  11.288   8.305 -0.6425  0.5933  1.6469
  219MOL0     H30162   9.541  11.145   8.271 -1.1176 -0.9196 -0.4415
  219MOL0     H30163   9.291  11.164   8.449  0.8207 -1.6890  2.3520
  219MOL0     H30164   9.388  11.019   8.428 -0.1797  0.4870  1.4221
  219MOL0     H30165   9.226  11.178   8.220 -2.7517 -0.9862  3.4341
  219MOL0     H30166   9.333  11.049   8.162 -2.5848 -1.5300 -1.5315
  219MOL0     H30167   9.111  11.001   8.181 -0.3984 -0.8429 -0.2843
  219MOL0     H30168   9.093  11.043   8.353 -1.2228 -3.2518  1.2916
  219MOL0     H30169   9.230  10.845   8.426 -0.8875 -3.5351 -0.0200
  219MOL0     H30170   9.086  10.800   8.343 -0.1496  0.9692 -1.0944
  219MOL0     H30171   9.345  10.632   8.376 -2.7442 -1.7447 -0.5398
  219MOL0     H30172   9.498  10.462   8.049  4.1918 -1.0359  0.1727
  219MOL0     H30173   9.442  10.431   8.211  0.5996 -0.9396 -1.4210
  219MOL0     H30174   9.678  10.607   8.143  1.6950 -1.1140 -0.0332
  219MOL0     H30175   9.632  10.556   8.310 -0.8335 -1.0058  1.3694
  219MOL0     H30176   9.686  10.315   8.232 -0.8618 -0.6334 -0.4868
  219MOL0     H30177   9.743  10.383   8.083  0.7255 -2.6218  1.4243
  219MOL0     H30178   9.926  10.352   8.212  0.5205 -0.0580 -0.6508
  219MOL0     H30179   9.904  10.533   8.193 -0.4279 -0.0472 -1.0609
  219MOL0     H30180   9.890  10.270   8.532 -0.6691  1.4896 -2.0063
  219MOL0     H30181  10.140  10.077   8.631  1.9278  0.1673  0.9578
  219MOL0     H30182   9.982  10.140   8.693 -0.2820  1.3915  0.6771
  219MOL0     H30183  10.138  10.185   8.777  1.9750 -2.4690 -0.7965
  219MOL0     H30184  10.525  10.336   8.821  1.1013 -0.8701  2.0701
  219MOL0     H30185  10.753  10.301   8.918  3.0731  1.0248  0.4039
  219MOL0     H30186  11.097  10.424   8.640 -2.1167  1.2674 -1.1464
  219MOL0     H30187  11.014  10.530   8.754 -1.7034 -1.7732 -0.8803
  219MOL0     H30188  11.138  10.487   8.949 -1.9992 -2.1020  0.4496
  219MOL0     H30189  11.228  10.358   8.871 -1.0692 -0.8264  0.4072
  219MOL0     H30190  11.248  10.661   8.850 -0.6926  0.3066  0.1487
  219MOL0     H30191  11.306  10.570   8.707 -0.8195 -1.4357  0.6620
  219MOL0     H30192  11.477  10.451   8.857 -0.4330  0.4947 -1.1635
  219MOL0     H30193  11.401  10.530   8.998 -1.0927 -1.1593 -0.5613
  219MOL0     H30194  11.456  10.744   8.926  0.4385 -0.4855  1.0301
  219MOL0     H30195  11.603  10.651   8.952  1.8870  2.7523 -0.7322
  219MOL0     H30196  11.629  10.798   8.745 -2.4934  1.6092 -1.5563
  219MOL0     H30197  11.508  10.694   8.670 -0.9936  0.4166  1.0111
  219MOL0     H30198  11.650  10.502   8.722 -3.4090  1.6408  0.6887
  219MOL0     H30199  11.775  10.612   8.788 -1.9548  3.0454  2.8080
  219MOL0     H30200  11.685  10.618   8.499  0.3673 -1.9586 -0.3500
  219MOL0     H30201  11.804  10.506   8.562 -1.3768 -0.0506 -2.3123
  219MOL0     H30202  10.922  10.377   8.522  0.3089 -1.4533  0.2080
  219MOL0     H30203  10.698  10.393   8.431 -2.5963  0.5693  0.0809
  219MOL0     H30204  10.311  10.519   8.468  0.7334 -0.8973  3.0387
  219MOL0     H30205  10.105  10.581   8.344  1.1858 -0.0796  0.0215
  219MOL0     H30206   9.595  11.235   8.847 -0.0586 -0.9700 -1.0464
  219MOL0     H30207   9.687  11.123   9.039  0.5923 -0.9835  0.0040
  219MOL0     H30208  10.041  11.162   9.367 -0.6353  0.2728 -0.8960
  219MOL0     H30209  10.164  11.064   9.542  1.3568 -1.2425  0.6221
  219MOL0     H30210  10.101  10.654   9.723 -0.0783  0.7078  1.4931
  219MOL0     H30211  10.203  10.647   9.574  0.5300  2.8073 -1.1969
  219MOL0     H30212  10.316  10.583   9.792  0.3373  0.0055 -0.8206
  219MOL0     H30213  10.322  10.753   9.838 -1.4766  1.1830 -1.1721
  219MOL0     H30214  10.442  10.595   9.607 -0.8922  0.6934  0.1847
  219MOL0     H30215  10.430  10.767   9.579  0.1487 -0.1423 -1.2768
  219MOL0     H30216  10.591  10.654   9.809  3.8212  2.6686  1.3510
  219MOL0     H30217  10.530  10.816   9.801 -2.5402 -0.4070 -0.0492
  219MOL0     H30218  10.821  10.782   9.481  0.0491 -1.7436 -1.5743
  219MOL0     H30219   9.971  10.692   9.492 -3.9745 -0.6383 -2.1675
  219MOL0     H30220   9.918  10.686   9.189 -0.0404  1.3697 -1.5626
  219MOL0     H30221   9.796  10.665   9.323 -0.1855 -1.0087 -1.0922
  219MOL0     H30222   9.770  10.784   9.208 -2.6009 -1.0301  2.5242
  220MOL0     O30223   2.082   4.992   1.375 -0.0122 -0.0376 -0.9510
  220MOL0     C30224   2.092   5.036   1.488 -0.1125 -0.2094  0.1341
  220MOL0     O30225   2.174   5.144   1.523  0.2954  0.5509 -0.0118
  220MOL0     C30226   2.294   5.172   1.462 -0.4571  0.3895  0.3341
  220MOL0     C30227   2.341   5.302   1.477 -0.8893  0.0328 -0.2209
  220MOL0     C30228   2.456   5.346   1.406  0.3183  0.8376  0.7878
  220MOL0     C30229   2.513   5.262   1.309  0.1127  0.1576  0.1018
  220MOL0     O30230   2.625   5.300   1.235  0.1878 -0.3007  0.2540
  220MOL0     C30231   2.674   5.426   1.265 -1.1244 -0.1905  0.5004
  220MOL0     C30232   2.820   5.426   1.206  1.0446  0.7660  0.3260
  220MOL0     C30233   2.910   5.309   1.241 -0.2129 -0.3540  0.5794
  220MOL0     C30234   3.031   5.342   1.160 -0.8780  0.3830  0.3036
  220MOL0     C30235   3.146   5.239   1.177  0.2334  0.0761  0.1379
  220MOL0     C30236   3.268   5.271   1.085 -0.0440 -0.2702  0.3196
  220MOL0     C30237   3.394   5.186   1.136 -0.5905  0.2616  0.6263
  220MOL0     C30238   3.466   5.244   1.260  0.1461 -0.3164 -0.6434
  220MOL0     N30239   3.605   5.194   1.255  0.5227  0.0360  0.3978
  220MOL0     C30240   3.640   5.087   1.324 -0.9718  0.4532  0.0421
  220MOL0     C30241   3.772   5.086   1.310  0.7669  0.3695 -0.4304
  220MOL0     C30242   3.851   4.979   1.377 -0.1838  0.2037  0.6532
  220MOL0     C30243   3.960   5.031   1.476  0.2767  0.3761  1.1854
  220MOL0     C30244   4.067   5.100   1.393 -1.1322  0.3491 -0.2891
  220MOL0     C30245   4.188   5.148   1.476 -0.3849 -0.4513 -0.0156
  220MOL0     O30246   4.305   5.166   1.393 -0.0197  0.0922  0.1354
  220MOL0     C30247   4.398   5.066   1.385  0.6256  0.3938  0.0550
  220MOL0     C30248   4.375   4.933   1.420  0.2276  0.4223 -0.4788
  220MOL0     C30249   4.465   4.828   1.384  0.1720  0.4388 -0.3172
  220MOL0     C30250   4.432   4.684   1.427  0.4321  0.2672 -0.7286
  220MOL0     C30251   4.583   4.865   1.314 -0.8001  0.3296 -0.6807
  220MOL0     C30252   4.689   4.766   1.279 -0.4495  0.4588  0.1506
  220MOL0     O30253   4.766   4.792   1.171 -0.8384 -0.4415  0.2906
  220MOL0     C30254   4.867   4.710   1.141 -0.3793 -0.5942 -0.1164
  220MOL0     C30255   4.981   4.783   1.091 -0.1572 -0.0351  0.1195
  220MOL0     C30256   5.097   4.707   1.041 -0.3328 -0.7276  0.3203
  220MOL0     C30257   5.095   4.573   1.039  0.2184  0.5757 -0.1198
  220MOL0     O30258   5.208   4.504   0.999 -0.1418 -0.1584 -0.3393
  220MOL0     C30259   5.221   4.503   0.853 -1.2007  0.4656 -0.2143
  220MOL0     C30260   5.355   4.420   0.823 -0.6134  0.3505 -0.1783
  220MOL0     C30261   5.367   4.385   0.669 -0.5651  0.1982  0.5454
  220MOL0     C30262   5.477   4.283   0.653  0.0708 -0.4549  0.5533
  220MOL0     C30263   5.512   4.244   0.513  0.2546 -0.0563 -0.6922
  220MOL0     C30264   5.413   4.151   0.437 -0.0721 -0.6456  0.2555
  220MOL0     C30265   5.438   4.141   0.286 -0.4819 -0.5614 -0.7248
  220MOL0     C30266   5.391   4.007   0.236  0.3555 -0.7111  0.5319
  220MOL0    Cl30267   5.219   4.017   0.199 -0.0634 -0.1512 -0.0910
  220MOL0     C30268   4.983   4.504   1.089 -0.0751 -0.3378  0.9126
  220MOL0     C30269   4.866   4.567   1.128 -0.4002 -0.4361 -0.2619
  220MOL0     O30270   4.709   4.679   1.361 -0.3339 -0.0210  0.1438
  220MOL0     C30271   4.606   4.998   1.278  0.5726  0.9234 -1.2295
  220MOL0     C30272   4.512   5.094   1.313  0.1160  0.5407  0.4114
  220MOL0     N30273   3.816   5.192   1.224 -0.1182  0.0328  0.5730
  220MOL0     N30274   3.705   5.253   1.196 -0.0697 -0.3871  0.0308
  220MOL0     C30275   2.474   5.129   1.297  0.8095  0.6757 -0.0844
  220MOL0     C30276   2.361   5.085   1.377  0.2789  0.0831 -0.0272
  220MOL0     C30277   1.996   4.987   1.593 -1.1070  1.2615  0.9786
  220MOL0     C30278   1.965   5.075   1.694 -0.4366  0.0206  0.3428
  220MOL0     C30279   1.883   5.046   1.803  0.7800  1.3570 -0.6517
  220MOL0     C30280   1.828   4.919   1.810  0.5749 -0.4741  0.1497
  220MOL0     O30281   1.737   4.896   1.918 -0.4159 -0.0111  0.8191
  220MOL0     C30282   1.627   4.808   1.902  0.1069  0.3586 -0.9797
  220MOL0     C30283   1.529   4.830   2.006 -0.2886 -0.0806 -0.1521
  220MOL0     C30284   1.420   4.718   2.007 -0.1120 -0.1355  0.4958
  220MOL0     C30285   1.311   4.739   2.108  0.4354 -0.4214  0.5128
  220MOL0     C30286   1.181   4.675   2.060  0.1341  0.4910 -0.7648
  220MOL0     C30287   1.078   4.615   2.038 -0.0338 -0.2534  0.7428
  220MOL0     C30288   1.841   4.830   1.702  0.3569 -0.4601  0.0687
  220MOL0     C30289   1.925   4.858   1.593 -0.2675  0.2886 -0.2452
  220MOL0     C30290   1.937   4.749   1.490 -0.1923 -0.0125 -0.0574
  220MOL0     H30291   2.292   5.378   1.538 -1.7353  0.4921 -1.4498
  220MOL0     H30292   2.485   5.450   1.419 -2.9818  2.2428 -1.6754
  220MOL0     H30293   2.689   5.438   1.373  0.1588  2.1625  0.1316
  220MOL0     H30294   2.617   5.503   1.214  0.0912  1.4542  1.5156
  220MOL0     H30295   2.814   5.440   1.098 -1.8376 -0.6968  0.2015
  220MOL0     H30296   2.874   5.509   1.253  0.8271  0.5899  0.8990
  220MOL0     H30297   2.929   5.313   1.349 -1.9115 -1.7212  0.9713
  220MOL0     H30298   2.861   5.215   1.212  1.1759 -1.2623  1.0614
  220MOL0     H30299   3.006   5.364   1.056 -1.0725  0.8890  0.4529
  220MOL0     H30300   3.065   5.439   1.199 -1.1309  0.0133  1.4779
  220MOL0     H30301   3.122   5.133   1.161 -1.1738  0.4559 -0.4256
  220MOL0     H30302   3.180   5.256   1.280  0.2431  0.7962  0.0180
  220MOL0     H30303   3.230   5.245   0.985 -1.2709  3.6653 -0.4265
  220MOL0     H30304   3.300   5.374   1.074  0.2247 -0.4604 -0.7843
  220MOL0     H30305   3.457   5.183   1.046 -0.1198  3.0197  0.7482
  220MOL0     H30306   3.377   5.082   1.162 -0.0165  0.1502  0.5662
  220MOL0     H30307   3.469   5.353   1.254 -0.0700 -0.3075 -0.5994
  220MOL0     H30308   3.421   5.200   1.350  1.9261 -1.1093 -0.0999
  220MOL0     H30309   3.573   5.032   1.389 -0.6123  1.1937  1.0635
  220MOL0     H30310   3.891   4.904   1.309 -0.7940 -0.4933  1.0451
  220MOL0     H30311   3.797   4.907   1.440  1.2036 -3.0462 -1.6339
  220MOL0     H30312   3.909   5.097   1.547  0.6533  4.8497 -2.2603
  220MOL0     H30313   4.009   4.943   1.519 -3.2206 -2.9076 -0.9520
  220MOL0     H30314   4.105   5.035   1.314 -0.6519  2.3405 -1.7915
  220MOL0     H30315   4.035   5.192   1.343  2.1722  3.1698  2.3448
  220MOL0     H30316   4.161   5.249   1.507 -1.1525 -0.6966  0.1337
  220MOL0     H30317   4.209   5.096   1.570 -0.4307  0.4942  0.5276
  220MOL0     H30318   4.282   4.907   1.468 -0.5630  2.8524 -0.5540
  220MOL0     H30319   4.323   4.681   1.437  0.2152  2.1117 -2.0473
  220MOL0     H30320   4.489   4.654   1.515 -3.3959  1.5219  2.4339
  220MOL0     H30321   4.443   4.610   1.347  0.4926 -0.7798  0.2292
  220MOL0     H30322   4.979   4.890   1.075  1.5330 -0.1893 -1.3572
  220MOL0     H30323   5.186   4.759   1.007  0.5357 -1.1186  1.8986
  220MOL0     H30324   5.131   4.456   0.811 -1.4218  1.0730 -0.4401
  220MOL0     H30325   5.237   4.599   0.803  2.0157 -1.6679 -3.8379
  220MOL0     H30326   5.444   4.470   0.863 -1.2142  0.1584  1.4568
  220MOL0     H30327   5.364   4.324   0.875 -2.4255  0.5604  0.5980
  220MOL0     H30328   5.385   4.481   0.619  1.4608 -0.5191 -0.1926
  220MOL0     H30329   5.272   4.340   0.638 -0.3681  1.1117 -1.5895
  220MOL0     H30330   5.447   4.188   0.698 -0.7822 -0.2348  0.4672
  220MOL0     H30331   5.566   4.324   0.702  3.2940 -1.0597 -4.1081
  220MOL0     H30332   5.523   4.338   0.458  0.3570 -0.1923 -0.9050
  220MOL0     H30333   5.613   4.204   0.498  1.2962  1.2513  2.0245
  220MOL0     H30334   5.315   4.193   0.460 -1.5943 -3.6319 -0.2180
  220MOL0     H30335   5.405   4.048   0.473  0.4080 -1.2356 -1.2658
  220MOL0     H30336   5.544   4.138   0.259 -0.5777  1.4032 -1.4089
  220MOL0     H30337   5.390   4.229   0.243  0.0205  0.2597  0.3634
  220MOL0     H30338   5.394   3.922   0.306  1.6571 -1.1936 -0.0765
  220MOL0     H30339   5.448   3.989   0.144  1.0422 -0.4170  0.8972
  220MOL0     H30340   4.982   4.397   1.068 -0.0095 -0.4535  1.4630
  220MOL0     H30341   4.778   4.512   1.160  0.7492 -1.1021  1.9799
  220MOL0     H30342   4.695   5.028   1.224  0.7262  1.2477 -0.8008
  220MOL0     H30343   4.526   5.201   1.298 -1.2908  0.8225  0.9724
  220MOL0     H30344   2.512   5.057   1.225 -1.7099  2.6340 -3.6879
  220MOL0     H30345   2.329   4.982   1.372 -1.1641  0.3054  2.7072
  220MOL0     H30346   2.015   5.171   1.697  2.2445 -1.2708  0.6790
  220MOL0     H30347   1.864   5.116   1.883  0.0970  2.2324 -1.5433
  220MOL0     H30348   1.583   4.824   1.803  0.6623 -4.8862 -2.3803
  220MOL0     H30349   1.657   4.703   1.898 -1.8602 -0.4591  2.2040
  220MOL0     H30350   1.475   4.924   1.991  0.4463  0.3867  0.0835
  220MOL0     H30351   1.566   4.833   2.109 -0.6257  0.1390 -0.0356
  220MOL0     H30352   1.364   4.716   1.913 -1.4752  1.5323  1.2120
  220MOL0     H30353   1.472   4.623   2.025  2.7559  0.6631 -2.5282
  220MOL0     H30354   1.293   4.846   2.122  0.1740 -0.5968  1.5348
  220MOL0     H30355   1.341   4.703   2.206 -0.3811  0.8925  1.2663
  220MOL0     H30356   0.998   4.546   2.018 -0.5866  1.2291 -2.8971
  220MOL0     H30357   1.782   4.739   1.701 -1.8769  0.7978  2.8823
  220MOL0     H30358   2.038   4.710   1.477  0.6212  1.3146  1.9320
  220MOL0     H30359   1.871   4.666   1.516 -0.4075  0.3103  0.4388
  220MOL0     H30360   1.894   4.789   1.397  2.3942  0.6717 -1.0444
  221MOL0     O30361   2.268   4.351   2.296  0.1952 -0.6851 -0.8453
  221MOL0     C30362   2.144   4.364   2.300  0.0706 -0.1042  0.6896
  221MOL0     O30363   2.077   4.487   2.287 -0.1899  0.4003 -0.2015
  221MOL0     C30364   2.169   4.590   2.282  0.2116 -1.5588  0.1703
  221MOL0     C30365   2.183   4.674   2.388  0.6404 -0.1710  0.1125
  221MOL0     C30366   2.270   4.781   2.388 -1.0042  0.1778  0.0146
  221MOL0     C30367   2.357   4.809   2.279 -0.0184  0.2021 -0.0945
  221MOL0     O30368   2.451   4.912   2.270 -0.0084  0.4432 -0.7954
  221MOL0     C30369   2.521   4.947   2.394 -0.6262  0.2404  0.5580
  221MOL0     C30370   2.657   5.010   2.368 -0.0705 -0.3372 -0.0056
  221MOL0     C30371   2.663   5.143   2.284  0.7318 -0.6644  0.5006
  221MOL0     C30372   2.802   5.210   2.266 -0.2588  0.5244 -0.1160
  221MOL0     C30373   2.789   5.321   2.168  0.0883 -0.6536  0.0020
  221MOL0     C30374   2.923   5.376   2.135  0.0137 -0.2517 -0.1664
  221MOL0     C30375   2.961   5.499   2.236 -0.4298  0.5307  0.5083
  221MOL0     C30376   3.085   5.582   2.197 -0.7411  0.4453 -0.4701
  221MOL0     N30377   3.200   5.489   2.155 -0.0580 -0.4341 -0.3358
  221MOL0     C30378   3.263   5.405   2.235  0.6726 -0.6859 -0.5849
  221MOL0     C30379   3.364   5.362   2.153  0.8950  0.4222  0.1980
  221MOL0     C30380   3.477   5.269   2.202 -0.2511 -0.0964  0.0638
  221MOL0     C30381   3.605   5.351   2.221  0.2084  0.4008 -1.2407
  221MOL0     C30382   3.685   5.387   2.095 -0.0635 -0.1939  0.2910
  221MOL0     C30383   3.817   5.464   2.108 -0.1489  0.3727 -0.2613
  221MOL0     O30384   3.801   5.577   2.191 -0.0603 -0.2710 -0.2395
  221MOL0     C30385   3.913   5.650   2.235 -0.7841 -0.1191 -0.1864
  221MOL0     C30386   4.041   5.588   2.267  0.2366  0.1698  0.2707
  221MOL0     C30387   4.150   5.656   2.313  0.3767  0.2330  0.0360
  221MOL0     C30388   4.275   5.574   2.297 -0.1713  0.1282 -0.2631
  221MOL0     C30389   4.133   5.791   2.354 -0.0646 -0.7681 -0.0030
  221MOL0     C30390   4.245   5.866   2.416  0.0708 -0.2373  0.8163
  221MOL0     O30391   4.355   5.799   2.467  0.7409 -0.1689  0.3680
  221MOL0     C30392   4.440   5.884   2.533 -0.2736 -0.3051 -0.3363
  221MOL0     C30393   4.404   5.948   2.655  0.0488  0.9280  0.2778
  221MOL0     C30394   4.495   6.019   2.732  0.4001 -0.0621 -0.4744
  221MOL0     C30395   4.621   6.038   2.678 -0.3561 -0.4091  0.3455
  221MOL0     O30396   4.697   6.128   2.747 -0.3382  0.7660 -0.2144
  221MOL0     C30397   4.839   6.127   2.726 -0.3136 -0.4069  0.7657
  221MOL0     C30398   4.905   6.190   2.840  0.3974 -0.2664 -0.2024
  221MOL0     C30399   5.061   6.183   2.840  0.1446  0.4674  0.0151
  221MOL0     C30400   5.107   6.229   2.975 -0.7005  1.0424  0.4595
  221MOL0     C30401   5.257   6.237   2.988  0.1742 -0.1101  0.9131
  221MOL0     C30402   5.337   6.110   2.977  0.3686  0.0290 -0.8969
  221MOL0     C30403   5.486   6.136   3.004 -0.5542  0.3628  0.0008
  221MOL0     C30404   5.535   6.098   3.142 -0.3521  1.0493 -0.5846
  221MOL0    Cl30405   5.551   5.922   3.141 -0.1234 -0.1015 -0.3722
  221MOL0     C30406   4.662   5.967   2.565 -0.8840 -0.4045  0.5722
  221MOL0     C30407   4.563   5.888   2.490 -1.3164  0.5817  0.8739
  221MOL0     O30408   4.226   5.989   2.424 -0.2780 -0.1881 -0.3311
  221MOL0     C30409   4.011   5.855   2.328 -0.7356 -0.2346  0.2369
  221MOL0     C30410   3.903   5.784   2.270  0.3685 -0.0526  0.5760
  221MOL0     N30411   3.361   5.408   2.021 -0.9533 -0.2182 -1.1928
  221MOL0     N30412   3.253   5.484   2.027 -0.5474 -0.4942 -0.2277
  221MOL0     C30413   2.338   4.721   2.164 -0.5467 -0.2326 -0.3080
  221MOL0     C30414   2.243   4.614   2.158 -0.5964  0.0796 -0.0043
  221MOL0     C30415   2.057   4.249   2.309 -0.3350 -0.4811  0.8609
  221MOL0     C30416   1.914   4.258   2.281 -0.2963  0.6160  0.5970
  221MOL0     C30417   1.831   4.155   2.302  0.6109  0.5751 -0.0864
  221MOL0     C30418   1.871   4.035   2.354 -0.5971 -0.0049  0.1047
  221MOL0     O30419   1.789   3.934   2.392 -0.6836 -0.2560  0.2170
  221MOL0     C30420   1.646   3.948   2.377  0.0369 -0.1402 -0.0980
  221MOL0     C30421   1.573   3.845   2.460 -0.1661  0.3582 -0.4057
  221MOL0     C30422   1.463   3.771   2.383 -0.8638 -0.1490 -0.4693
  221MOL0     C30423   1.340   3.862   2.370  0.0044  0.2858  0.0145
  221MOL0     C30424   1.240   3.775   2.313  0.4659 -0.7303  0.3985
  221MOL0     C30425   1.168   3.699   2.250  0.1722 -0.0029 -0.5194
  221MOL0     C30426   2.010   4.018   2.385  0.3288  0.6197 -0.2968
  221MOL0     C30427   2.104   4.121   2.363  0.3412 -1.0520 -0.0192
  221MOL0     C30428   2.245   4.086   2.387 -0.3012  0.0884  0.1277
  221MOL0     H30429   2.118   4.678   2.474 -1.8349  3.9468 -1.6913
  221MOL0     H30430   2.272   4.863   2.459 -2.8412  1.7586 -1.6290
  221MOL0     H30431   2.545   4.858   2.452  1.0830 -0.8918 -1.7408
  221MOL0     H30432   2.452   5.019   2.440 -2.3577  0.4727 -2.1438
  221MOL0     H30433   2.723   5.024   2.455  0.1108 -2.9562  0.3527
  221MOL0     H30434   2.721   4.943   2.311  2.4495  2.2165 -0.4376
  221MOL0     H30435   2.623   5.121   2.185  2.8822  1.4301 -0.9128
  221MOL0     H30436   2.614   5.224   2.339  2.0280  0.0747  0.5888
  221MOL0     H30437   2.834   5.241   2.366 -0.6792 -0.0028  0.1901
  221MOL0     H30438   2.876   5.134   2.240  0.4592  1.6173 -1.4004
  221MOL0     H30439   2.717   5.395   2.205  0.2478 -0.0822 -0.7963
  221MOL0     H30440   2.740   5.280   2.079 -0.8525 -2.0264  1.1072
  221MOL0     H30441   3.003   5.302   2.137 -0.1232 -0.4048  1.8763
  221MOL0     H30442   2.917   5.417   2.034  0.6236  5.6775  1.8397
  221MOL0     H30443   2.978   5.452   2.333 -3.7501  1.3849  1.6172
  221MOL0     H30444   2.871   5.561   2.239 -1.0536 -0.3734  0.6444
  221MOL0     H30445   3.062   5.635   2.104 -1.5231 -4.4914 -3.4870
  221MOL0     H30446   3.106   5.651   2.280 -1.0313 -1.9950  1.7749
  221MOL0     H30447   3.232   5.382   2.337 -4.4241  0.9007 -1.5159
  221MOL0     H30448   3.495   5.196   2.123  0.3660 -0.1571  0.2541
  221MOL0     H30449   3.454   5.218   2.296  0.8700  2.7408  2.0458
  221MOL0     H30450   3.586   5.443   2.275 -0.0052  0.9312 -2.2010
  221MOL0     H30451   3.670   5.302   2.294 -2.1870  1.0003  1.4568
  221MOL0     H30452   3.707   5.305   2.026  0.4269  0.1117  0.0777
  221MOL0     H30453   3.619   5.463   2.051  0.6908 -0.7191 -1.8951
  221MOL0     H30454   3.893   5.405   2.160  0.5493  0.2787 -1.3515
  221MOL0     H30455   3.861   5.494   2.012  0.8011 -2.2928 -0.7558
  221MOL0     H30456   4.058   5.485   2.238  0.3318 -0.4826  2.5056
  221MOL0     H30457   4.355   5.615   2.234  0.1952  2.7838  1.7979
  221MOL0     H30458   4.260   5.473   2.258 -0.3652  1.0570 -2.7489
  221MOL0     H30459   4.323   5.569   2.395 -1.0679 -1.9923  0.1317
  221MOL0     H30460   4.307   5.928   2.699  0.8524 -1.5979  1.0655
  221MOL0     H30461   4.468   6.065   2.826 -1.2661 -0.7298 -0.5908
  221MOL0     H30462   4.868   6.022   2.719 -1.6524 -0.7549  0.0227
  221MOL0     H30463   4.863   6.174   2.630 -2.7939 -0.0753  0.2400
  221MOL0     H30464   4.882   6.296   2.831  1.9938  0.3719  2.3010
  221MOL0     H30465   4.867   6.160   2.938  0.2182  1.7630  0.3890
  221MOL0     H30466   5.104   6.251   2.766 -1.2143  0.5478 -0.7334
  221MOL0     H30467   5.092   6.081   2.816  1.1390  1.0553 -1.3494
  221MOL0     H30468   5.076   6.154   3.047 -0.5810  1.8247  1.3488
  221MOL0     H30469   5.051   6.319   3.001 -0.1204  1.8703 -1.0072
  221MOL0     H30470   5.292   6.307   2.911  0.6693 -0.1605  1.0869
  221MOL0     H30471   5.282   6.288   3.082  1.5141 -1.1117  1.1437
  221MOL0     H30472   5.322   6.072   2.876 -1.5098 -1.4679 -0.1177
  221MOL0     H30473   5.292   6.042   3.050  0.4752 -0.4501 -1.2740
  221MOL0     H30474   5.512   6.240   2.985 -1.2992  0.6314  0.4376
  221MOL0     H30475   5.539   6.076   2.928  0.5137  0.7516  0.4128
  221MOL0     H30476   5.478   6.141   3.225  4.1234  2.0975  2.3481
  221MOL0     H30477   5.638   6.132   3.156 -0.3291  0.2074  1.6125
  221MOL0     H30478   4.753   5.980   2.508 -3.0223  2.1222 -2.6844
  221MOL0     H30479   4.585   5.833   2.398 -0.4110  2.1780  0.0915
  221MOL0     H30480   4.011   5.962   2.347 -1.1749 -0.5511  2.1578
  221MOL0     H30481   3.814   5.834   2.234 -0.3103 -2.1731 -0.8655
  221MOL0     H30482   2.395   4.744   2.075 -0.3059 -0.2363 -0.1548
  221MOL0     H30483   2.236   4.530   2.090  1.7566  1.1168 -1.6423
  221MOL0     H30484   1.871   4.350   2.241  1.3351  0.0032 -2.9981
  221MOL0     H30485   1.726   4.166   2.280  0.1596 -3.1901 -0.5576
  221MOL0     H30486   1.614   4.047   2.414 -0.0536  0.1631 -0.9747
  221MOL0     H30487   1.629   3.941   2.270 -3.0986  0.0145  0.3117
  221MOL0     H30488   1.535   3.895   2.549 -0.9891  0.5982 -0.8846
  221MOL0     H30489   1.650   3.771   2.483  0.9750  1.4445 -0.6045
  221MOL0     H30490   1.493   3.741   2.283 -1.1598  3.1161 -1.6271
  221MOL0     H30491   1.446   3.682   2.446  0.7786  0.4662  0.9425
  221MOL0     H30492   1.348   3.948   2.304 -1.6356  0.8218  0.4603
  221MOL0     H30493   1.315   3.897   2.471 -0.6828 -0.1277  0.0004
  221MOL0     H30494   1.085   3.647   2.205  0.3540  0.6418 -1.6539
  221MOL0     H30495   2.035   3.915   2.406  1.8839  1.1376  0.5664
  221MOL0     H30496   2.286   4.054   2.291 -0.8609  0.0457 -0.1024
  221MOL0     H30497   2.292   4.173   2.434 -2.2590  0.9425  0.6113
  221MOL0     H30498   2.258   3.993   2.443 -0.6740 -0.7627 -1.1527
  222MOL0     O30499  10.118   2.382   0.448 -0.4676 -0.5870  0.0254
  222MOL0     C30500  10.064   2.276   0.409 -0.1557 -0.6446 -0.0766
  222MOL0     O30501  10.126   2.165   0.403 -0.0787  0.3494  0.1639
  222MOL0     C30502  10.245   2.133   0.463  0.3243  0.5224  0.1952
  222MOL0     C30503  10.333   2.222   0.524  0.0143  0.3596 -0.0184
  222MOL0     C30504  10.452   2.166   0.583  0.5519  0.2254 -0.2760
  222MOL0     C30505  10.486   2.032   0.577 -0.1353  0.6771  0.0518
  222MOL0     O30506  10.599   1.983   0.630 -0.4335  0.1131  0.3708
  222MOL0     C30507  10.608   1.845   0.670 -0.9504 -0.7703 -0.3557
  222MOL0     C30508  10.735   1.809   0.752 -0.5253  1.1929 -0.4857
  222MOL0     C30509  10.854   1.844   0.670  0.0527  0.6347  0.9389
  222MOL0     C30510  10.983   1.784   0.733  0.3346  0.0324 -0.0877
  222MOL0     C30511  11.112   1.812   0.656  0.9341  0.1916  0.7809
  222MOL0     C30512  11.236   1.767   0.739 -1.1589 -0.3763  0.4500
  222MOL0     C30513  11.366   1.826   0.681 -0.4648  0.0885 -0.0224
  222MOL0     C30514  11.397   1.745   0.547 -0.3490  0.1165  0.0298
  222MOL0     N30515  11.534   1.793   0.513  0.6101  0.5701 -0.3494
  222MOL0     C30516  11.646   1.824   0.589 -0.2421 -0.3036  0.1428
  222MOL0     C30517  11.713   1.912   0.497 -0.4883 -0.1209  0.4360
  222MOL0     C30518  11.835   2.005   0.520 -0.7986  0.5278 -0.7847
  222MOL0     C30519  11.971   1.928   0.523 -0.1253  0.9809 -0.0992
  222MOL0     C30520  12.012   1.886   0.381  0.5427 -0.9315 -0.2022
  222MOL0     C30521  12.161   1.845   0.383 -0.4698 -0.4116  0.2336
  222MOL0     O30522  12.231   1.965   0.360  0.3191 -0.3438  0.0932
  222MOL0     C30523  12.312   1.953   0.252 -0.1756 -0.8280 -0.3681
  222MOL0     C30524  12.282   2.025   0.138  0.3307  0.1431  0.7889
  222MOL0     C30525  12.339   2.005   0.015 -0.9697 -0.1353  1.1081
  222MOL0     C30526  12.278   2.080  -0.101  0.7657 -0.2604 -0.2864
  222MOL0     C30527  12.460   1.918   0.002  0.8390  0.1292 -1.5235
  222MOL0     C30528  12.539   1.870  -0.115  0.1476  0.7187  0.4401
  222MOL0     O30529  12.634   1.768  -0.087 -0.3830  0.1809  0.3473
  222MOL0     C30530  12.718   1.709  -0.178 -0.1482 -0.8771  0.3594
  222MOL0     C30531  12.830   1.634  -0.143  0.5697 -0.6927 -0.3015
  222MOL0     C30532  12.906   1.571  -0.247 -0.3547  0.7132  0.0950
  222MOL0     C30533  12.871   1.582  -0.379 -0.3183  0.0626  0.8308
  222MOL0     O30534  12.936   1.525  -0.488 -0.2149 -0.3411 -0.4596
  222MOL0     C30535  13.045   1.437  -0.465  0.0340 -0.1705 -0.0182
  222MOL0     C30536  13.079   1.391  -0.613  0.1046  0.0089  0.2059
  222MOL0     C30537  13.170   1.272  -0.614  0.1503  0.1271  0.0801
  222MOL0     C30538  13.229   1.226  -0.744  0.1774 -0.1591  0.1452
  222MOL0     C30539  13.350   1.125  -0.737 -0.1712  0.1303 -0.5146
  222MOL0     C30540  13.483   1.190  -0.708 -0.4720  0.0653  0.0324
  222MOL0     C30541  13.596   1.089  -0.722 -1.0022  0.0969 -0.0870
  222MOL0     C30542  13.728   1.165  -0.742  0.0048 -0.2661  0.0149
  222MOL0    Cl30543  13.871   1.053  -0.706  0.2681  0.2141  0.6697
  222MOL0     C30544  12.756   1.649  -0.410  0.3018  0.4764  0.5454
  222MOL0     C30545  12.678   1.709  -0.312  0.4749 -0.3532 -0.6518
  222MOL0     O30546  12.519   1.927  -0.223 -0.5565 -0.0666 -0.6445
  222MOL0     C30547  12.488   1.850   0.129 -0.4141  1.0497  0.6201
  222MOL0     C30548  12.416   1.865   0.246  0.4458  0.5080  0.6111
  222MOL0     N30549  11.648   1.919   0.372  0.0750 -0.3087  0.1854
  222MOL0     N30550  11.547   1.842   0.389  0.3602  0.3458 -0.2604
  222MOL0     C30551  10.389   1.939   0.528  0.4499  1.1751  0.7567
  222MOL0     C30552  10.272   1.988   0.467 -0.3614 -0.4739  1.1781
  222MOL0     C30553   9.920   2.257   0.392  0.4090  0.2356  1.0261
  222MOL0     C30554   9.868   2.123   0.355 -0.1653 -0.2709 -0.2248
  222MOL0     C30555   9.733   2.100   0.325  0.2738  0.8760  0.0180
  222MOL0     C30556   9.637   2.207   0.327 -0.0697  0.7751 -0.3035
  222MOL0     O30557   9.502   2.187   0.296  0.1095 -0.2392 -0.5166
  222MOL0     C30558   9.466   2.070   0.228  0.0606  0.0099 -0.4529
  222MOL0     C30559   9.369   2.092   0.107  0.2382  0.0790  0.2477
  222MOL0     C30560   9.249   2.179   0.137  0.4653 -0.2522  0.0451
  222MOL0     C30561   9.161   2.186   0.015 -0.2323  1.1661 -0.2804
  222MOL0     C30562   9.075   2.076  -0.007  0.6286  1.1584  0.0871
  222MOL0     C30563   9.003   1.976  -0.026 -0.0479 -0.0214  1.2047
  222MOL0     C30564   9.683   2.333   0.371  0.4375  0.6953  0.3321
  222MOL0     C30565   9.818   2.363   0.403 -0.7327 -0.6192 -0.0489
  222MOL0     C30566   9.848   2.505   0.433 -0.0430 -0.0992 -1.1705
  222MOL0     H30567  10.332   2.329   0.542  1.2846  0.0706  2.1583
  222MOL0     H30568  10.531   2.229   0.623 -1.4996  1.4333  2.1817
  222MOL0     H30569  10.599   1.780   0.582 -0.4981 -0.3167 -0.7421
  222MOL0     H30570  10.525   1.841   0.740 -0.0396  0.8046  0.8728
  222MOL0     H30571  10.728   1.856   0.851 -1.0964  2.2652 -1.0115
  222MOL0     H30572  10.741   1.701   0.769  2.9695  1.4392  0.7585
  222MOL0     H30573  10.839   1.800   0.571  1.4714  1.3092  0.3913
  222MOL0     H30574  10.869   1.951   0.655 -0.1726  0.3461 -1.7911
  222MOL0     H30575  10.989   1.817   0.837 -0.6817 -0.7803  0.2403
  222MOL0     H30576  10.976   1.675   0.734  1.1970 -0.0454 -0.8087
  222MOL0     H30577  11.111   1.920   0.641 -0.1741  0.1320  0.3790
  222MOL0     H30578  11.116   1.758   0.561  1.5746 -0.0187  0.9202
  222MOL0     H30579  11.221   1.803   0.841 -1.3631 -0.0017  0.2895
  222MOL0     H30580  11.256   1.660   0.748  1.9302 -0.0167 -0.7449
  222MOL0     H30581  11.446   1.816   0.755 -0.4428 -0.8461 -0.1577
  222MOL0     H30582  11.341   1.931   0.667 -0.4739  0.4201  2.1538
  222MOL0     H30583  11.415   1.640   0.572  1.1344  0.7250  1.7974
  222MOL0     H30584  11.324   1.756   0.466 -0.0046  0.3998 -0.2451
  222MOL0     H30585  11.679   1.792   0.687  1.2768  0.3969 -0.1097
  222MOL0     H30586  11.825   2.048   0.621  0.6640 -2.4503  0.7572
  222MOL0     H30587  11.846   2.084   0.446 -0.5372  0.2971 -0.9918
  222MOL0     H30588  12.055   1.985   0.564 -0.8896  0.2889  2.6235
  222MOL0     H30589  11.949   1.835   0.575 -2.5370 -0.2747 -3.0575
  222MOL0     H30590  11.949   1.801   0.356 -1.6766 -0.0037  1.9004
  222MOL0     H30591  12.001   1.972   0.314 -1.8003  1.3972  2.9156
  222MOL0     H30592  12.194   1.791   0.471  3.2169  2.7958  1.0582
  222MOL0     H30593  12.167   1.779   0.296  0.9904  0.2577 -0.1975
  222MOL0     H30594  12.195   2.088   0.154  0.8298  1.0488  0.0400
  222MOL0     H30595  12.312   2.053  -0.201  1.7136  2.1689 -0.7008
  222MOL0     H30596  12.298   2.184  -0.073 -0.3214 -0.7965  2.9412
  222MOL0     H30597  12.169   2.072  -0.102  0.7989 -0.7381 -0.3526
  222MOL0     H30598  12.849   1.618  -0.037 -1.7363  2.9951  0.8800
  222MOL0     H30599  12.992   1.507  -0.227  1.1663  2.0176 -1.8818
  222MOL0     H30600  13.136   1.483  -0.425  1.2324 -0.6608 -2.0532
  222MOL0     H30601  13.021   1.361  -0.389  0.0937  1.7866  2.0869
  222MOL0     H30602  12.981   1.371  -0.659 -1.0894  1.7534  1.8697
  222MOL0     H30603  13.133   1.471  -0.664  2.4564 -1.3562  0.4092
  222MOL0     H30604  13.123   1.187  -0.565 -2.7889  2.2305  1.2000
  222MOL0     H30605  13.247   1.300  -0.541  0.5549 -3.9889  1.4514
  222MOL0     H30606  13.266   1.316  -0.794 -1.4436 -0.2570 -1.3373
  222MOL0     H30607  13.152   1.196  -0.814  0.4484 -1.8479  0.5284
  222MOL0     H30608  13.335   1.052  -0.657  0.1747  2.3185  1.6619
  222MOL0     H30609  13.336   1.066  -0.828 -2.1791  1.1440 -0.9279
  222MOL0     H30610  13.472   1.233  -0.609 -2.9927  1.4799 -0.7724
  222MOL0     H30611  13.490   1.276  -0.775  0.1989 -0.1450 -0.1773
  222MOL0     H30612  13.574   1.028  -0.810 -1.2723 -0.3436  0.2811
  222MOL0     H30613  13.604   1.014  -0.643  0.5874 -2.6901 -2.6519
  222MOL0     H30614  13.733   1.254  -0.679 -1.7517 -0.0636 -0.0997
  222MOL0     H30615  13.742   1.206  -0.842 -0.0075  4.2806  1.6525
  222MOL0     H30616  12.723   1.658  -0.513  3.3224  2.1856 -0.3969
  222MOL0     H30617  12.602   1.766  -0.364  0.1293 -1.6248 -1.5744
  222MOL0     H30618  12.572   1.781   0.139  1.4161  3.0631 -0.0527
  222MOL0     H30619  12.444   1.818   0.340 -0.0402 -1.3408 -0.1169
  222MOL0     H30620  10.383   1.831   0.539 -0.4172  1.1708  0.3843
  222MOL0     H30621  10.191   1.926   0.431 -1.4511  1.1922  0.6776
  222MOL0     H30622   9.935   2.038   0.345 -2.0117 -1.7878 -0.2819
  222MOL0     H30623   9.698   1.997   0.318 -0.4635  0.8433  2.7673
  222MOL0     H30624   9.550   2.018   0.181 -0.4970  0.4793 -2.0674
  222MOL0     H30625   9.420   2.002   0.300  0.5124  3.6107  3.6493
  222MOL0     H30626   9.334   1.995   0.073 -0.4203 -0.4543  2.2732
  222MOL0     H30627   9.432   2.127   0.025 -2.3398  1.0794 -1.4116
  222MOL0     H30628   9.192   2.147   0.225  0.8288 -1.0086  0.0145
  222MOL0     H30629   9.285   2.280   0.158  1.2957 -0.1556 -1.6672
  222MOL0     H30630   9.223   2.210  -0.072 -1.8872  1.1611 -1.5221
  222MOL0     H30631   9.089   2.269   0.025  0.3308  1.6444 -0.1547
  222MOL0     H30632   8.939   1.893  -0.050  0.5672 -0.3702  0.7318
  222MOL0     H30633   9.603   2.406   0.360  0.6103  1.6549  4.0392
  222MOL0     H30634   9.930   2.534   0.366 -1.5326 -2.0147 -4.0453
  222MOL0     H30635   9.760   2.565   0.408 -0.9566 -0.5180  0.8239
  222MOL0     H30636   9.872   2.532   0.537 -1.5439  1.4337 -1.1668
  223MOL0     O30637   2.905   2.181   2.185  0.1097  0.0517 -0.4847
  223MOL0     C30638   2.876   2.096   2.106 -1.0532  0.9463 -0.3960
  223MOL0     O30639   2.969   2.049   2.003 -0.3252  0.6376  0.0821
  223MOL0     C30640   3.077   2.131   1.988 -0.2033 -0.8792 -0.2862
  223MOL0     C30641   3.203   2.110   2.044 -0.1041 -0.0030  0.7102
  223MOL0     C30642   3.311   2.193   1.998  0.6093 -0.9026 -0.5420
  223MOL0     C30643   3.290   2.306   1.914  0.1945 -0.6076 -0.1866
  223MOL0     O30644   3.387   2.395   1.869  0.9599  0.6465 -0.2870
  223MOL0     C30645   3.519   2.384   1.923 -0.0237  0.2633  0.4947
  223MOL0     C30646   3.606   2.503   1.876  0.6567  0.3142 -0.2985
  223MOL0     C30647   3.551   2.647   1.885 -0.0531  1.8409 -0.3053
  223MOL0     C30648   3.654   2.751   1.848 -0.5118 -0.1633 -0.8166
  223MOL0     C30649   3.603   2.900   1.857  0.0847 -0.6633  0.2391
  223MOL0     C30650   3.700   2.980   1.949  0.4634 -0.0485 -0.0309
  223MOL0     C30651   3.832   3.016   1.888  0.6544  0.4642  0.1415
  223MOL0     C30652   3.910   3.119   1.971  1.2851 -0.1069  0.6559
  223MOL0     N30653   4.033   3.156   1.898  0.5269  0.0048 -0.0833
  223MOL0     C30654   4.150   3.077   1.893  0.3231 -0.6657  0.2302
  223MOL0     C30655   4.223   3.138   1.794  0.2854  0.7604 -0.1811
  223MOL0     C30656   4.353   3.095   1.733  0.4784  0.8133  0.0457
  223MOL0     C30657   4.364   2.944   1.696  0.0806  0.9550 -0.4144
  223MOL0     C30658   4.242   2.904   1.604  0.3431  0.5648 -0.3870
  223MOL0     C30659   4.275   2.774   1.525  0.4992  0.0409  0.1106
  223MOL0     O30660   4.388   2.789   1.437 -0.2117 -0.3627  0.4954
  223MOL0     C30661   4.445   2.670   1.393  0.1634 -0.3164  0.0572
  223MOL0     C30662   4.417   2.531   1.432 -1.3776 -0.3296 -0.3427
  223MOL0     C30663   4.481   2.417   1.375 -0.7186 -0.2113  0.3138
  223MOL0     C30664   4.418   2.284   1.417 -0.0318 -0.0046  0.0013
  223MOL0     C30665   4.583   2.451   1.276 -0.2834 -1.3059 -0.2734
  223MOL0     C30666   4.640   2.345   1.187 -0.2076  0.4054 -0.5376
  223MOL0     O30667   4.758   2.379   1.130  0.0142  0.2221 -0.7314
  223MOL0     C30668   4.807   2.298   1.030 -0.4706 -0.2535 -1.2844
  223MOL0     C30669   4.849   2.362   0.918 -0.4520 -0.5538  0.0566
  223MOL0     C30670   4.903   2.294   0.811 -0.0854  0.1986 -0.1221
  223MOL0     C30671   4.925   2.155   0.817 -0.2497  0.2426 -0.6304
  223MOL0     O30672   4.993   2.101   0.712 -0.8195  0.4347  0.0808
  223MOL0     C30673   5.047   1.973   0.731 -0.1974  0.7365 -0.1603
  223MOL0     C30674   5.125   1.949   0.604 -0.3755 -0.0060  0.3403
  223MOL0     C30675   5.221   1.830   0.625 -0.4909  0.0098  0.1282
  223MOL0     C30676   5.312   1.791   0.497  0.5022  1.1132  0.4190
  223MOL0     C30677   5.407   1.672   0.525  0.2372 -0.1958  0.3750
  223MOL0     C30678   5.513   1.673   0.415 -0.1787  0.3927 -0.1649
  223MOL0     C30679   5.645   1.619   0.472  0.5092 -1.0327 -0.5840
  223MOL0     C30680   5.742   1.594   0.361 -0.7275  0.4342  0.2525
  223MOL0    Cl30681   5.785   1.760   0.310  0.6550 -0.1066  0.2485
  223MOL0     C30682   4.880   2.093   0.935 -0.1498  0.8787 -0.3674
  223MOL0     C30683   4.830   2.157   1.041 -0.0271  0.9890  0.3946
  223MOL0     O30684   4.580   2.237   1.165  0.2902 -0.2140  0.2713
  223MOL0     C30685   4.625   2.580   1.252 -0.2293 -0.5905 -0.1608
  223MOL0     C30686   4.553   2.691   1.308  0.1551 -0.3108 -0.2245
  223MOL0     N30687   4.146   3.248   1.758 -0.8539  0.4049  0.9518
  223MOL0     N30688   4.034   3.257   1.810 -0.7067 -0.4462  0.0929
  223MOL0     C30689   3.165   2.314   1.851 -0.0181  0.2225 -0.8376
  223MOL0     C30690   3.064   2.226   1.884  0.2742 -0.0416  0.5545
  223MOL0     C30691   2.750   2.025   2.126 -0.3842 -0.1149 -0.5652
  223MOL0     C30692   2.753   1.883   2.118 -1.0900  0.3603 -0.1144
  223MOL0     C30693   2.639   1.809   2.139  1.0571  0.3846  0.0596
  223MOL0     C30694   2.523   1.871   2.159 -0.6217  0.4258  0.0990
  223MOL0     O30695   2.419   1.789   2.177 -0.0025  0.2408  0.4863
  223MOL0     C30696   2.297   1.823   2.248 -0.2472  0.1935  0.1286
  223MOL0     C30697   2.168   1.786   2.161  0.0543  0.2454 -0.8735
  223MOL0     C30698   2.173   1.854   2.018  0.6248 -0.6441 -0.0059
  223MOL0     C30699   2.052   1.843   1.932 -0.8879  0.3675 -0.0453
  223MOL0     C30700   1.934   1.916   1.990 -0.0770  0.2047  0.4400
  223MOL0     C30701   1.844   1.980   2.043 -0.2933 -0.1600  0.4215
  223MOL0     C30702   2.509   2.009   2.155  0.1915 -0.0113  0.5921
  223MOL0     C30703   2.623   2.087   2.143  0.0140 -0.7406 -0.0692
  223MOL0     C30704   2.601   2.237   2.157  0.5119 -0.1100  0.1500
  223MOL0     H30705   3.212   2.031   2.117  1.9464  2.1608  3.0108
  223MOL0     H30706   3.408   2.176   2.043  0.0844  2.0202  2.0382
  223MOL0     H30707   3.568   2.291   1.892  2.4449  1.6015  0.1355
  223MOL0     H30708   3.518   2.371   2.032  0.2983  1.7238  0.6938
  223MOL0     H30709   3.699   2.500   1.933  0.8504 -1.5730 -0.6449
  223MOL0     H30710   3.633   2.478   1.774  1.7533  2.9413 -0.7292
  223MOL0     H30711   3.468   2.645   1.814  1.2405  1.4410 -1.8756
  223MOL0     H30712   3.506   2.658   1.984 -0.3013  1.1163 -0.3266
  223MOL0     H30713   3.730   2.730   1.923 -1.9886 -3.4074 -0.0105
  223MOL0     H30714   3.701   2.729   1.752 -0.0596 -0.1219 -0.6071
  223MOL0     H30715   3.504   2.906   1.903 -0.1582  0.6713 -0.4063
  223MOL0     H30716   3.591   2.955   1.763  0.1599  1.4822  1.4230
  223MOL0     H30717   3.653   3.076   1.970  0.5527 -0.6623  3.6849
  223MOL0     H30718   3.709   2.936   2.049 -1.0042  2.4014  1.2744
  223MOL0     H30719   3.820   3.043   1.783 -0.3226 -3.2187 -0.8426
  223MOL0     H30720   3.898   2.929   1.882 -1.3609 -1.1109 -0.5731
  223MOL0     H30721   3.851   3.211   1.978 -0.3164 -0.9045 -1.2911
  223MOL0     H30722   3.918   3.069   2.068 -1.4435  0.1893  1.1100
  223MOL0     H30723   4.178   2.991   1.952 -2.4488 -0.7296  1.5970
  223MOL0     H30724   4.429   3.136   1.801  1.9323  3.3311 -2.8363
  223MOL0     H30725   4.364   3.149   1.638 -0.6555 -0.5238 -0.8679
  223MOL0     H30726   4.462   2.926   1.650 -0.1728  0.9611 -0.9605
  223MOL0     H30727   4.356   2.885   1.788  0.0601  0.1517 -0.9182
  223MOL0     H30728   4.158   2.892   1.673  2.4613 -0.8866  2.1431
  223MOL0     H30729   4.221   2.982   1.530 -1.8219  0.9123  0.5176
  223MOL0     H30730   4.308   2.703   1.601  1.9562  0.4557 -0.1051
  223MOL0     H30731   4.189   2.742   1.466  0.3640 -1.6641  1.1633
  223MOL0     H30732   4.333   2.515   1.498 -1.1009 -0.3258  0.0128
  223MOL0     H30733   4.377   2.233   1.330 -0.6921 -0.3525  0.5110
  223MOL0     H30734   4.350   2.285   1.502 -0.3831 -0.4526 -0.2749
  223MOL0     H30735   4.506   2.224   1.440  0.0413  0.6242  1.4612
  223MOL0     H30736   4.841   2.470   0.923 -1.2889 -0.3284 -3.3938
  223MOL0     H30737   4.939   2.353   0.727  1.3220 -1.2393 -0.5780
  223MOL0     H30738   5.108   1.981   0.822  1.3148  1.9421 -1.2265
  223MOL0     H30739   4.976   1.890   0.743  1.1137 -0.4160 -0.1210
  223MOL0     H30740   5.059   1.920   0.522 -0.4098 -0.2324  0.4466
  223MOL0     H30741   5.188   2.031   0.569 -0.9501  0.5966  0.7155
  223MOL0     H30742   5.167   1.745   0.667 -1.9335  0.0149 -1.6104
  223MOL0     H30743   5.280   1.846   0.716  1.5610 -0.7122 -1.0084
  223MOL0     H30744   5.367   1.877   0.456  0.1053  1.3691  0.4154
  223MOL0     H30745   5.237   1.768   0.421  0.4017  0.4152  0.7231
  223MOL0     H30746   5.459   1.698   0.617  0.1243 -0.2036  0.4412
  223MOL0     H30747   5.362   1.572   0.524  1.5006 -0.7865 -0.4571
  223MOL0     H30748   5.511   1.771   0.365  1.1821 -0.2171 -1.5007
  223MOL0     H30749   5.480   1.602   0.338  0.8205 -0.8368  0.5052
  223MOL0     H30750   5.624   1.526   0.524 -0.6805  0.8063  2.4596
  223MOL0     H30751   5.676   1.682   0.556  0.0113 -0.8919 -0.5075
  223MOL0     H30752   5.710   1.520   0.286  2.6401 -0.8967 -0.0229
  223MOL0     H30753   5.837   1.554   0.396 -1.5326 -1.8394  0.0232
  223MOL0     H30754   4.881   1.986   0.953 -1.6179  1.0132  0.6969
  223MOL0     H30755   4.802   2.106   1.133  0.4144  0.4690  0.2419
  223MOL0     H30756   4.694   2.594   1.170 -2.3497  1.0778 -1.7746
  223MOL0     H30757   4.587   2.792   1.286 -0.3248 -0.4536 -1.7381
  223MOL0     H30758   3.154   2.400   1.785  1.7047  0.2659 -1.1005
  223MOL0     H30759   2.967   2.232   1.836  0.1516  0.4516  0.8626
  223MOL0     H30760   2.839   1.828   2.082  1.1064  1.1147  3.4141
  223MOL0     H30761   2.642   1.700   2.138 -2.1684  0.1947 -0.1435
  223MOL0     H30762   2.287   1.763   2.339 -2.6189 -0.6404 -0.6156
  223MOL0     H30763   2.300   1.928   2.279  1.9841  0.6356 -1.3115
  223MOL0     H30764   2.075   1.822   2.207  0.2562  1.3642 -1.3121
  223MOL0     H30765   2.165   1.678   2.147  0.8612  0.3667 -2.0789
  223MOL0     H30766   2.191   1.961   2.033 -2.4066 -0.1697  0.8967
  223MOL0     H30767   2.257   1.810   1.963 -1.3113 -2.2253 -1.8379
  223MOL0     H30768   2.028   1.738   1.912 -1.3927  0.1259  1.6285
  223MOL0     H30769   2.064   1.887   1.833 -0.2245 -2.7505 -1.4862
  223MOL0     H30770   1.763   2.030   2.092 -0.9327 -1.6097  0.8672
  223MOL0     H30771   2.413   2.059   2.166  1.7137  3.1693  0.7504
  223MOL0     H30772   2.642   2.258   2.256 -1.1854 -0.9034  1.0705
  223MOL0     H30773   2.658   2.285   2.077 -2.0120  1.3200 -0.9057
  223MOL0     H30774   2.497   2.270   2.156  0.5719  0.0584 -0.5739
  224MOL0     O30775   4.877   4.658   8.678 -0.0126 -0.0117  0.6359
  224MOL0     C30776   4.928   4.618   8.573  0.1634  1.0671 -0.1013
  224MOL0     O30777   4.861   4.570   8.457  0.1657 -0.0084  0.2886
  224MOL0     C30778   4.727   4.546   8.454 -0.2747 -0.3697  0.2547
  224MOL0     C30779   4.655   4.591   8.339 -1.0350 -0.2997  0.7486
  224MOL0     C30780   4.519   4.572   8.328  1.1815 -1.2336  0.1344
  224MOL0     C30781   4.444   4.509   8.428  1.0269 -0.0613  0.5753
  224MOL0     O30782   4.305   4.512   8.399 -0.7635  0.8579  0.1819
  224MOL0     C30783   4.240   4.400   8.453  0.4513  0.0007  0.1902
  224MOL0     C30784   4.098   4.449   8.497 -0.7613  0.2219  0.2651
  224MOL0     C30785   4.003   4.336   8.543 -0.3777  1.1613 -0.0276
  224MOL0     C30786   4.045   4.262   8.679 -1.1196  0.8426  0.0542
  224MOL0     C30787   3.961   4.141   8.702 -0.4205 -0.7957 -0.1441
  224MOL0     C30788   4.006   4.027   8.617  0.2281  0.3549  0.0962
  224MOL0     C30789   3.902   3.917   8.640  0.3828  0.3741 -0.6281
  224MOL0     C30790   3.902   3.865   8.784  0.3294 -0.8053 -0.7375
  224MOL0     N30791   3.863   3.722   8.794 -0.5615 -0.1414 -0.3024
  224MOL0     C30792   3.740   3.678   8.824  0.4030  0.2622 -0.5639
  224MOL0     C30793   3.757   3.549   8.858 -0.8231 -1.3665  0.3148
  224MOL0     C30794   3.647   3.459   8.898 -0.1829 -0.1776  0.5116
  224MOL0     C30795   3.583   3.505   9.032 -0.2500 -0.1233 -0.9506
  224MOL0     C30796   3.685   3.516   9.150  0.6006  0.1843  0.5334
  224MOL0     C30797   3.738   3.389   9.214  0.6541 -0.2499  0.2509
  224MOL0     O30798   3.767   3.285   9.119  0.6434 -0.1893  0.0159
  224MOL0     C30799   3.897   3.267   9.077  0.4423  1.0688 -0.3381
  224MOL0     C30800   4.014   3.350   9.076  0.5854 -0.1916  0.1937
  224MOL0     C30801   4.127   3.310   9.018  0.4548  0.8785  0.4056
  224MOL0     C30802   4.243   3.401   9.037  0.1530 -0.2710  1.0618
  224MOL0     C30803   4.138   3.183   8.946 -0.9949  0.8501  0.1748
  224MOL0     C30804   4.256   3.147   8.875  0.4121 -0.0946  0.0107
  224MOL0     O30805   4.262   3.011   8.849 -0.8652  0.0816 -0.6956
  224MOL0     C30806   4.345   2.960   8.752 -0.7211  0.4731  0.2019
  224MOL0     C30807   4.486   2.944   8.771  0.6114 -0.7389  0.0453
  224MOL0     C30808   4.570   2.899   8.664  0.4486  0.0797 -0.3049
  224MOL0     C30809   4.517   2.870   8.532 -0.5690  0.3439 -0.8777
  224MOL0     O30810   4.597   2.813   8.430 -0.3382  0.7532 -1.0252
  224MOL0     C30811   4.732   2.788   8.459  0.2921  0.7105 -0.4389
  224MOL0     C30812   4.807   2.738   8.339 -1.0531 -0.0742  0.9890
  224MOL0     C30813   4.946   2.661   8.376  0.4295 -1.1815 -0.0528
  224MOL0     C30814   5.012   2.590   8.259  0.5237 -0.4622  0.4970
  224MOL0     C30815   5.141   2.520   8.309 -0.1157 -0.9008 -0.6155
  224MOL0     C30816   5.214   2.450   8.200  0.0064 -0.1863  0.0738
  224MOL0     C30817   5.355   2.402   8.237  0.0334  0.6981 -0.0662
  224MOL0     C30818   5.373   2.335   8.371 -0.5736 -0.5419  0.9012
  224MOL0    Cl30819   5.537   2.311   8.419 -0.2159 -0.1160  0.5685
  224MOL0     C30820   4.373   2.887   8.518 -0.2846 -0.4634 -0.0846
  224MOL0     C30821   4.294   2.938   8.626 -0.5396 -0.5005 -0.1314
  224MOL0     O30822   4.335   3.231   8.832  0.0247 -0.1238  0.0928
  224MOL0     C30823   4.028   3.092   8.957  0.0078  0.6125 -0.4201
  224MOL0     C30824   3.910   3.132   9.020  0.3780 -0.8205  1.3575
  224MOL0     N30825   3.890   3.518   8.840 -0.3969 -0.2669 -0.3660
  224MOL0     N30826   3.950   3.620   8.797  0.7637  0.7766 -0.5635
  224MOL0     C30827   4.511   4.470   8.542 -0.2497 -0.7238 -0.7370
  224MOL0     C30828   4.649   4.489   8.551  0.2260  0.2172 -0.1382
  224MOL0     C30829   5.075   4.613   8.562 -0.6735  0.2871 -0.3436
  224MOL0     C30830   5.136   4.529   8.464 -0.4747 -0.9082 -0.1608
  224MOL0     C30831   5.275   4.534   8.438  0.2821  0.6603 -0.7214
  224MOL0     C30832   5.365   4.618   8.505 -0.1417  0.3978 -0.4070
  224MOL0     O30833   5.498   4.645   8.478 -0.0026 -0.3339  0.0224
  224MOL0     C30834   5.548   4.581   8.357 -0.3142  0.5651  0.9707
  224MOL0     C30835   5.702   4.599   8.366  1.0437 -0.0060 -0.2273
  224MOL0     C30836   5.745   4.741   8.372 -0.4402  0.0851  0.1351
  224MOL0     C30837   5.868   4.781   8.297  0.0826  0.0778  1.0959
  224MOL0     C30838   5.996   4.707   8.324  0.1919 -0.1526  0.3800
  224MOL0     C30839   6.090   4.642   8.357 -0.2455  0.3457  0.4657
  224MOL0     C30840   5.312   4.694   8.613  0.6251  1.2231  0.5779
  224MOL0     C30841   5.169   4.699   8.624  0.2694 -0.4208 -0.1511
  224MOL0     C30842   5.132   4.803   8.725 -0.2765  1.0910 -1.1175
  224MOL0     H30843   4.715   4.631   8.258 -1.6821  2.4502  1.5040
  224MOL0     H30844   4.465   4.605   8.239  0.2352 -1.5284  0.5906
  224MOL0     H30845   4.293   4.345   8.531  0.8654 -2.7282 -1.8619
  224MOL0     H30846   4.232   4.327   8.371  0.2005 -0.5681  0.7162
  224MOL0     H30847   4.130   4.517   8.576  2.7248  1.9175 -2.2833
  224MOL0     H30848   4.047   4.517   8.428 -3.3152 -0.1772  1.6352
  224MOL0     H30849   3.899   4.365   8.555 -1.4958 -2.6616  0.8327
  224MOL0     H30850   3.997   4.270   8.456  1.3155  0.1112  0.6042
  224MOL0     H30851   4.152   4.243   8.667 -0.7216  2.9664 -0.1996
  224MOL0     H30852   4.032   4.329   8.764  0.2777  2.4583 -0.9350
  224MOL0     H30853   3.857   4.170   8.689 -0.4145 -1.3533 -1.6206
  224MOL0     H30854   3.978   4.119   8.808  3.7767  1.6979 -0.0706
  224MOL0     H30855   4.005   4.064   8.514 -0.6702 -1.1880 -0.4858
  224MOL0     H30856   4.107   3.994   8.641 -0.3509 -1.5442  0.1369
  224MOL0     H30857   3.924   3.832   8.575 -0.3777 -0.1629 -0.2025
  224MOL0     H30858   3.800   3.940   8.609  0.5785 -0.6794 -2.1900
  224MOL0     H30859   3.998   3.882   8.834 -0.2010 -0.0500  0.0726
  224MOL0     H30860   3.836   3.934   8.838  0.3024 -1.5022  0.1457
  224MOL0     H30861   3.647   3.732   8.806  0.5091 -0.4193 -3.8286
  224MOL0     H30862   3.685   3.356   8.909 -0.9311 -0.4272  0.8231
  224MOL0     H30863   3.575   3.464   8.816 -0.7101  1.2558  1.0335
  224MOL0     H30864   3.543   3.606   9.019  2.0451  0.8359 -1.1659
  224MOL0     H30865   3.508   3.430   9.057  1.8793 -3.4582 -3.6073
  224MOL0     H30866   3.773   3.572   9.119  0.5635  0.2537  0.5533
  224MOL0     H30867   3.648   3.579   9.231  1.5776  3.8051 -1.6331
  224MOL0     H30868   3.823   3.417   9.276  1.3556  2.1657 -1.6707
  224MOL0     H30869   3.662   3.348   9.282 -1.5211 -0.2173 -2.0181
  224MOL0     H30870   4.017   3.444   9.130 -1.5875  0.2640 -0.3921
  224MOL0     H30871   4.339   3.349   9.028  1.7877  2.7922 -0.6414
  224MOL0     H30872   4.239   3.443   9.138 -2.1916  0.5099  0.7183
  224MOL0     H30873   4.238   3.482   8.964 -3.3941 -1.7597 -0.6159
  224MOL0     H30874   4.525   2.975   8.867 -1.4556 -1.0640  1.0493
  224MOL0     H30875   4.676   2.890   8.686  0.0182 -1.0162  1.5026
  224MOL0     H30876   4.787   2.877   8.488  1.1508  0.2240 -0.5478
  224MOL0     H30877   4.741   2.712   8.537  1.7436 -1.2256 -2.3641
  224MOL0     H30878   4.749   2.662   8.286  2.1197 -1.7307 -0.4571
  224MOL0     H30879   4.827   2.825   8.275  0.2561  1.2709  3.1103
  224MOL0     H30880   4.925   2.581   8.448  2.5975 -1.6083  0.1623
  224MOL0     H30881   5.013   2.733   8.423 -3.5690  2.2293  1.0106
  224MOL0     H30882   5.024   2.668   8.184  1.2204  2.3421  3.2684
  224MOL0     H30883   4.937   2.519   8.224 -1.5882  1.5623  0.6440
  224MOL0     H30884   5.212   2.594   8.347  1.3340 -2.6895  0.3248
  224MOL0     H30885   5.114   2.452   8.390 -1.8591  0.2032 -0.2235
  224MOL0     H30886   5.226   2.520   8.117 -0.3868 -0.3538 -0.1238
  224MOL0     H30887   5.157   2.367   8.158 -0.2811 -0.1223  0.3325
  224MOL0     H30888   5.428   2.484   8.234  1.1514 -0.2999 -0.6617
  224MOL0     H30889   5.392   2.332   8.162 -2.1107  0.4230 -0.9267
  224MOL0     H30890   5.316   2.242   8.364  0.8487 -1.3041 -2.3771
  224MOL0     H30891   5.328   2.400   8.446  0.2313  1.6470 -0.3997
  224MOL0     H30892   4.313   2.863   8.431 -2.5242  2.7212  0.4236
  224MOL0     H30893   4.187   2.956   8.626 -0.4844 -0.0138  1.1483
  224MOL0     H30894   4.034   2.993   8.912  0.6005 -0.3371  1.6098
  224MOL0     H30895   3.826   3.064   9.016  0.0162 -0.3207 -0.5926
  224MOL0     H30896   4.452   4.426   8.622 -1.7182  1.8647 -0.2718
  224MOL0     H30897   4.690   4.458   8.647  0.4596  0.7658 -0.0530
  224MOL0     H30898   5.069   4.460   8.415  0.3778 -2.1066  0.3042
  224MOL0     H30899   5.309   4.462   8.365 -0.1366 -0.2456 -0.0442
  224MOL0     H30900   5.544   4.472   8.360 -0.1871  0.3555 -2.1775
  224MOL0     H30901   5.509   4.623   8.264  0.9997 -2.1884 -0.9803
  224MOL0     H30902   5.756   4.541   8.291 -0.9168 -1.4258 -0.6177
  224MOL0     H30903   5.727   4.554   8.462  4.2797 -0.2260 -1.0697
  224MOL0     H30904   5.662   4.803   8.336 -0.2052 -0.9029 -2.3081
  224MOL0     H30905   5.763   4.766   8.477  3.0522  0.2775 -0.3952
  224MOL0     H30906   5.879   4.883   8.335  2.9782 -1.1506  4.0376
  224MOL0     H30907   5.854   4.775   8.189  0.4360  3.5119  0.7359
  224MOL0     H30908   6.181   4.591   8.383  1.8048  1.8190 -3.0075
  224MOL0     H30909   5.377   4.754   8.676  1.9372  0.9578 -0.4721
  224MOL0     H30910   5.075   4.880   8.672  0.6886  0.7343 -2.7673
  224MOL0     H30911   5.066   4.760   8.800 -0.7812  3.3584 -0.1692
  224MOL0     H30912   5.205   4.852   8.790 -0.6798 -1.3408  1.3262
  225MOL0     O30913   1.507   2.833  10.528  0.2114  0.6648 -0.4400
  225MOL0     C30914   1.526   2.858  10.645 -0.4460 -0.3890  0.2206
  225MOL0     O30915   1.641   2.925  10.690  0.5810  0.9359  0.4429
  225MOL0     C30916   1.740   2.939  10.602  1.5010 -0.8546  0.5312
  225MOL0     C30917   1.784   3.073  10.568  0.1540  0.6210  0.1221
  225MOL0     C30918   1.904   3.080  10.495  0.5520 -0.3452  0.1409
  225MOL0     C30919   1.977   2.981  10.442 -0.4535  0.6093  0.4397
  225MOL0     O30920   2.093   2.997  10.367  0.2895  0.1097 -0.4500
  225MOL0     C30921   2.186   2.890  10.365 -0.0331  0.0145  0.0638
  225MOL0     C30922   2.301   2.925  10.263  0.1353  0.3389 -1.1806
  225MOL0     C30923   2.381   3.054  10.306 -0.9074 -0.3616  0.1230
  225MOL0     C30924   2.396   3.077  10.458  0.0407 -0.5019 -0.1107
  225MOL0     C30925   2.456   3.214  10.469  1.1949 -0.8091  0.0444
  225MOL0     C30926   2.350   3.326  10.450  0.6375  0.3476 -0.3937
  225MOL0     C30927   2.406   3.456  10.503 -0.3390  0.1427 -0.0422
  225MOL0     C30928   2.309   3.574  10.466 -0.3103 -1.0706  0.1622
  225MOL0     N30929   2.380   3.693  10.516  0.0362  0.1466 -0.2487
  225MOL0     C30930   2.459   3.783  10.446 -0.8852  0.7167  0.2133
  225MOL0     C30931   2.519   3.860  10.540  0.3314 -0.4174 -0.8060
  225MOL0     C30932   2.612   3.976  10.517 -0.0090 -0.1404 -0.1852
  225MOL0     C30933   2.746   3.944  10.455 -0.6997 -0.1873 -0.1184
  225MOL0     C30934   2.834   3.826  10.508 -0.3164 -0.7369 -0.7890
  225MOL0     C30935   2.930   3.884  10.613 -0.3786  0.2318 -1.0730
  225MOL0     O30936   3.036   3.973  10.557  0.3161  0.1087 -0.3935
  225MOL0     C30937   3.149   3.915  10.509 -1.3405  0.2264  0.7301
  225MOL0     C30938   3.182   3.781  10.493 -0.3537  0.2238 -0.0457
  225MOL0     C30939   3.302   3.725  10.441 -0.1759  0.2407  0.3633
  225MOL0     C30940   3.324   3.576  10.442 -0.3258  0.4963  0.2121
  225MOL0     C30941   3.405   3.815  10.403  0.5280  0.2402 -0.1884
  225MOL0     C30942   3.534   3.771  10.348  0.1240 -0.2313  0.4244
  225MOL0     O30943   3.587   3.840  10.244  0.1098  0.6200 -0.1589
  225MOL0     C30944   3.717   3.808  10.208  0.7103 -0.3637 -0.1878
  225MOL0     C30945   3.803   3.910  10.185  0.5108 -0.0016  0.4074
  225MOL0     C30946   3.937   3.881  10.127  0.0382 -0.2575 -0.1160
  225MOL0     C30947   3.983   3.748  10.113  0.0618 -0.2430 -0.4388
  225MOL0     O30948   4.112   3.708  10.102 -0.0918 -0.4172 -0.1848
  225MOL0     C30949   4.215   3.790  10.035 -0.1350  0.0814  0.5285
  225MOL0     C30950   4.319   3.694   9.954  0.3265 -0.1082 -0.0946
  225MOL0     C30951   4.434   3.655  10.037  0.1256 -0.6672 -0.8003
  225MOL0     C30952   4.564   3.600   9.961 -0.1587  0.1886 -0.4066
  225MOL0     C30953   4.671   3.712   9.929  0.8457 -0.1588 -0.0174
  225MOL0     C30954   4.746   3.657   9.801 -0.0018  0.0532 -0.6933
  225MOL0     C30955   4.835   3.544   9.840 -0.0461  0.1289 -0.6775
  225MOL0     C30956   4.936   3.520   9.731  0.1851  0.7148 -0.3991
  225MOL0    Cl30957   5.075   3.633   9.757  0.3108  0.1802 -0.3645
  225MOL0     C30958   3.895   3.644  10.147  0.3080  0.2978 -0.5540
  225MOL0     C30959   3.759   3.675  10.187 -0.8683 -0.2898 -1.3687
  225MOL0     O30960   3.589   3.683  10.414 -0.6992 -0.4983 -0.1717
  225MOL0     C30961   3.380   3.954  10.422  0.0793 -1.3220  0.2761
  225MOL0     C30962   3.259   4.004  10.471  0.3912  0.4111 -0.1613
  225MOL0     N30963   2.462   3.821  10.665 -0.0002  0.7876  0.2976
  225MOL0     N30964   2.382   3.720  10.650  0.2754 -0.1321 -0.4029
  225MOL0     C30965   1.923   2.853  10.476  0.5662  0.2055  0.2693
  225MOL0     C30966   1.817   2.833  10.562  0.4938 -1.2029  0.1584
  225MOL0     C30967   1.413   2.847  10.736  0.4285  0.3621 -0.6496
  225MOL0     C30968   1.420   2.914  10.863 -0.7247  0.1556  0.6226
  225MOL0     C30969   1.318   2.912  10.961 -0.5239  0.3233  0.2683
  225MOL0     C30970   1.207   2.836  10.940 -0.2597  0.3609 -0.2493
  225MOL0     O30971   1.123   2.831  11.046  0.0888  0.2370 -0.1685
  225MOL0     C30972   0.999   2.760  11.031  0.4279  0.7906  0.2572
  225MOL0     C30973   1.015   2.605  11.027  0.2171 -0.3578  0.5866
  225MOL0     C30974   0.893   2.522  11.059  0.6027  0.6346  0.0140
  225MOL0     C30975   0.861   2.516  11.214  0.0313 -0.0696  1.2306
  225MOL0     C30976   0.729   2.441  11.246 -0.4007 -0.4620 -0.4210
  225MOL0     C30977   0.627   2.385  11.279 -0.4242 -0.5211 -0.7070
  225MOL0     C30978   1.184   2.785  10.810 -0.6613  0.3170 -0.0316
  225MOL0     C30979   1.287   2.778  10.711 -0.6422  0.0474  0.3944
  225MOL0     C30980   1.253   2.705  10.589  0.5959  1.0848  0.1993
  225MOL0     H30981   1.727   3.161  10.598 -3.2597 -1.8936  1.6209
  225MOL0     H30982   1.933   3.182  10.470 -2.0898  1.0591  2.3473
  225MOL0     H30983   2.128   2.805  10.327 -0.2206  0.3109 -0.3134
  225MOL0     H30984   2.229   2.869  10.463  1.2340 -4.4411 -1.1925
  225MOL0     H30985   2.373   2.843  10.273  1.0475  1.0260 -2.0144
  225MOL0     H30986   2.275   2.948  10.159 -0.4429  1.2225 -0.8544
  225MOL0     H30987   2.482   3.060  10.266 -1.3348  1.0674 -0.8077
  225MOL0     H30988   2.331   3.131  10.247  0.2411  0.3599  0.0664
  225MOL0     H30989   2.301   3.081  10.513  0.7538  0.5205  1.1333
  225MOL0     H30990   2.461   3.006  10.511 -3.3661 -1.5783  3.0254
  225MOL0     H30991   2.543   3.232  10.405  1.4915  0.2436  0.7205
  225MOL0     H30992   2.494   3.215  10.572 -1.2182 -0.9655  1.0034
  225MOL0     H30993   2.315   3.323  10.346 -1.0755 -4.1993  0.0604
  225MOL0     H30994   2.271   3.291  10.517  1.6533 -0.1857  0.5760
  225MOL0     H30995   2.502   3.482  10.457 -0.6163  3.0968  0.7753
  225MOL0     H30996   2.413   3.439  10.611 -0.2086  0.6314  0.0335
  225MOL0     H30997   2.298   3.583  10.357  0.5414  1.7271  0.2450
  225MOL0     H30998   2.209   3.551  10.503 -1.7042  1.5402 -1.6515
  225MOL0     H30999   2.479   3.799  10.341  2.7868 -0.0821  0.6608
  225MOL0     H31000   2.625   4.036  10.608 -4.1964 -2.3038  2.1462
  225MOL0     H31001   2.566   4.033  10.436  1.9926 -1.0482 -2.0571
  225MOL0     H31002   2.719   3.900  10.358 -1.5919 -0.4170  0.2297
  225MOL0     H31003   2.800   4.037  10.435  0.5100 -1.1169 -1.3847
  225MOL0     H31004   2.775   3.736  10.529 -1.7686  0.3000 -0.2724
  225MOL0     H31005   2.899   3.805  10.422  0.3577  0.6295 -0.6454
  225MOL0     H31006   2.878   3.946  10.686  1.0896 -0.2462  0.4498
  225MOL0     H31007   2.976   3.802  10.669 -2.0245 -0.5477 -0.8136
  225MOL0     H31008   3.113   3.704  10.528  1.6386 -1.5188  0.2267
  225MOL0     H31009   3.231   3.527  10.473  0.1434 -0.8048 -0.3375
  225MOL0     H31010   3.409   3.546  10.505 -0.4239 -0.8679 -0.2708
  225MOL0     H31011   3.362   3.538  10.346  2.6158 -0.6371  1.6965
  225MOL0     H31012   3.755   4.004  10.209 -1.4974 -0.5980 -1.0912
  225MOL0     H31013   4.014   3.955  10.107  0.9506 -1.1301  0.1111
  225MOL0     H31014   4.170   3.849   9.954 -0.6609 -0.2650  0.5571
  225MOL0     H31015   4.267   3.864  10.095  0.4521 -0.2897  0.4831
  225MOL0     H31016   4.258   3.606   9.933  1.6907 -0.7435 -1.5864
  225MOL0     H31017   4.351   3.743   9.862 -1.2509 -1.1676 -1.2592
  225MOL0     H31018   4.403   3.584  10.114  2.1387  1.0487  1.7521
  225MOL0     H31019   4.466   3.743  10.094 -0.4061 -0.5958 -0.6054
  225MOL0     H31020   4.529   3.563   9.864  1.8268 -1.7340 -0.4899
  225MOL0     H31021   4.619   3.526  10.021 -2.3488 -0.3588  1.0224
  225MOL0     H31022   4.614   3.805   9.914  0.5701 -0.1197  1.1745
  225MOL0     H31023   4.746   3.721  10.008  1.2735 -4.5812  0.3028
  225MOL0     H31024   4.818   3.728   9.759 -1.9696  1.3649 -2.0650
  225MOL0     H31025   4.667   3.637   9.727  0.3304 -0.1686 -0.9907
  225MOL0     H31026   4.772   3.455   9.850  1.3960 -0.7835  0.7524
  225MOL0     H31027   4.882   3.552   9.939  0.7194  2.9859 -1.1827
  225MOL0     H31028   4.897   3.531   9.629 -0.2863  1.2816 -0.1630
  225MOL0     H31029   4.966   3.416   9.746  0.7454  0.8623 -0.4648
  225MOL0     H31030   3.946   3.548  10.142  2.0560  0.7908  3.9241
  225MOL0     H31031   3.697   3.588  10.206 -1.1172  0.1470 -0.0637
  225MOL0     H31032   3.459   4.025  10.402  1.4340 -2.5863  0.9519
  225MOL0     H31033   3.245   4.110  10.485  1.4976  0.4031  1.2868
  225MOL0     H31034   1.960   2.755  10.448 -3.7395 -1.5142 -0.1357
  225MOL0     H31035   1.785   2.732  10.583 -4.6786  0.4607  1.9340
  225MOL0     H31036   1.497   2.988  10.881 -1.2226  0.6229  0.8589
  225MOL0     H31037   1.332   2.971  11.052  1.0600  2.9692 -1.5503
  225MOL0     H31038   0.932   2.792  11.111 -0.6755  0.1950 -0.4039
  225MOL0     H31039   0.953   2.798  10.939  2.9255 -1.2590 -2.0278
  225MOL0     H31040   1.095   2.577  11.096 -0.3714 -0.3350  1.2922
  225MOL0     H31041   1.044   2.585  10.924 -2.5050 -2.4860  0.1119
  225MOL0     H31042   0.798   2.556  11.016  0.4423 -2.0154 -1.9284
  225MOL0     H31043   0.909   2.418  11.031 -0.5131 -0.3175  2.6638
  225MOL0     H31044   0.863   2.617  11.254  2.1361  1.5482 -2.4788
  225MOL0     H31045   0.948   2.451  11.233 -0.7747 -1.8126 -0.6052
  225MOL0     H31046   0.537   2.344  11.320  0.0769  0.5059  1.6492
  225MOL0     H31047   1.088   2.739  10.788 -0.4128 -1.0463  1.5202
  225MOL0     H31048   1.327   2.697  10.509  1.7074  2.2328  1.0565
  225MOL0     H31049   1.219   2.605  10.617 -0.6671  1.1254 -1.0899
  225MOL0     H31050   1.166   2.750  10.542  1.7173  1.5156 -1.5471
  226MOL0     O31051   6.955   4.680  10.360 -1.3099 -0.1327  0.4767
  226MOL0     C31052   7.008   4.601  10.436 -0.7082  0.0396 -0.5526
  226MOL0     O31053   7.134   4.565  10.425 -0.3683  0.1256 -0.2942
  226MOL0     C31054   7.240   4.636  10.375  0.4794 -0.2209  0.4288
  226MOL0     C31055   7.254   4.780  10.372 -0.1116  0.1129  0.1071
  226MOL0     C31056   7.373   4.836  10.334 -0.4361 -0.4993 -0.4616
  226MOL0     C31057   7.484   4.762  10.302  0.0991 -0.3109  0.3057
  226MOL0     O31058   7.602   4.833  10.273  0.8543  0.4290 -0.2407
  226MOL0     C31059   7.721   4.766  10.235  0.3805 -0.2966 -0.2012
  226MOL0     C31060   7.837   4.862  10.248  0.7729 -0.0107  0.2063
  226MOL0     C31061   7.971   4.796  10.233  0.9202 -0.7974  0.6018
  226MOL0     C31062   8.078   4.904  10.212 -0.0104  0.1580 -0.0565
  226MOL0     C31063   8.215   4.838  10.175  1.0263 -0.0157  0.1365
  226MOL0     C31064   8.287   4.783  10.302 -0.7452 -0.5635  0.2183
  226MOL0     C31065   8.430   4.748  10.261 -0.0343  0.3529  0.1600
  226MOL0     C31066   8.507   4.710  10.378 -0.8479 -0.0765 -0.6502
  226MOL0     N31067   8.646   4.696  10.344  0.6172 -0.2935  0.5369
  226MOL0     C31068   8.699   4.573  10.310  0.3874  0.1705  0.3284
  226MOL0     C31069   8.833   4.587  10.309 -0.6509 -0.1111  0.0566
  226MOL0     C31070   8.929   4.495  10.239  0.2851  0.4707  0.1102
  226MOL0     C31071   9.071   4.514  10.301  1.4035  0.1764 -0.0992
  226MOL0     C31072   9.179   4.446  10.219 -0.6132  1.0471  0.4289
  226MOL0     C31073   9.305   4.427  10.288 -0.8360 -0.2029  0.7011
  226MOL0     O31074   9.406   4.355  10.210  0.6481  0.4133 -0.2406
  226MOL0     C31075   9.538   4.391  10.188 -0.1738 -0.1353 -0.3600
  226MOL0     C31076   9.594   4.498  10.247 -0.1678 -0.6185 -0.6356
  226MOL0     C31077   9.721   4.555  10.206  0.1835 -0.2601  0.1739
  226MOL0     C31078   9.764   4.690  10.274 -0.5086 -0.2594  0.2191
  226MOL0     C31079   9.803   4.487  10.117 -0.0594  0.6444  0.9201
  226MOL0     C31080   9.944   4.525  10.082  0.1631  0.2561 -0.0368
  226MOL0     O31081   9.984   4.496   9.946 -0.1342  0.0489  0.6074
  226MOL0     C31082  10.114   4.521   9.913 -1.1948 -0.1545 -0.4965
  226MOL0     C31083  10.148   4.624   9.824 -0.4055  1.3268 -1.0079
  226MOL0     C31084  10.275   4.647   9.788 -0.4529  0.8067 -0.0490
  226MOL0     C31085  10.381   4.585   9.855  1.2212 -0.5904  0.3837
  226MOL0     O31086  10.514   4.611   9.829  0.1964 -0.1053 -0.6130
  226MOL0     C31087  10.558   4.615   9.692 -0.1652  0.5720 -0.2452
  226MOL0     C31088  10.706   4.631   9.696  0.3630 -0.2045 -0.1735
  226MOL0     C31089  10.750   4.628   9.551  0.2227  0.4109 -0.2197
  226MOL0     C31090  10.904   4.620   9.545 -0.1305  0.3062 -0.0419
  226MOL0     C31091  10.956   4.623   9.397  0.0785  0.1408 -0.0824
  226MOL0     C31092  11.104   4.619   9.386  1.2339  0.8417 -0.4136
  226MOL0     C31093  11.176   4.728   9.471 -0.4455  0.0366 -0.0059
  226MOL0     C31094  11.332   4.717   9.463  0.4034  0.3678 -0.6670
  226MOL0    Cl31095  11.389   4.580   9.562  0.3767 -0.1642  0.1939
  226MOL0     C31096  10.353   4.492   9.945 -0.3481 -0.1002  0.3007
  226MOL0     C31097  10.222   4.451   9.971  0.7777  0.3329 -0.9976
  226MOL0     O31098  10.013   4.579  10.162 -0.1128 -0.5926 -0.2314
  226MOL0     C31099   9.753   4.365  10.064  0.3802 -0.1459 -0.7822
  226MOL0     C31100   9.626   4.317  10.102  0.2913 -0.7582  0.4453
  226MOL0     N31101   8.857   4.726  10.336 -0.1017 -0.4160 -0.0366
  226MOL0     N31102   8.744   4.786  10.354  0.4558  0.0493  0.2509
  226MOL0     C31103   7.469   4.621  10.291 -0.1042  0.7026 -0.0007
  226MOL0     C31104   7.349   4.559  10.331 -0.3458 -0.2699 -0.6382
  226MOL0     C31105   6.935   4.536  10.548  0.2647 -0.2872  0.1555
  226MOL0     C31106   6.820   4.600  10.584  0.4768 -0.9038 -0.0529
  226MOL0     C31107   6.729   4.556  10.683 -1.0983  0.1063 -1.0779
  226MOL0     C31108   6.760   4.438  10.751  0.3631  0.5538  0.6989
  226MOL0     O31109   6.677   4.388  10.853  0.1867 -0.0436  0.0421
  226MOL0     C31110   6.540   4.436  10.870 -0.2482 -0.0648 -0.5439
  226MOL0     C31111   6.443   4.367  10.779  0.1991 -0.8812  1.0090
  226MOL0     C31112   6.302   4.394  10.826  0.3663 -0.3036  0.5063
  226MOL0     C31113   6.235   4.525  10.772  0.3186  0.2514  0.3468
  226MOL0     C31114   6.101   4.541  10.832 -0.1339  0.5707 -1.2059
  226MOL0     C31115   5.987   4.557  10.885 -0.3563  1.0899 -0.4490
  226MOL0     C31116   6.881   4.375  10.725  0.1646  0.1022 -0.9911
  226MOL0     C31117   6.969   4.424  10.630 -0.0228 -0.2943  0.4738
  226MOL0     C31118   7.099   4.348  10.614  0.0605 -0.1613  0.7986
  226MOL0     H31119   7.174   4.840  10.413  1.9424  2.7606  0.5270
  226MOL0     H31120   7.382   4.944  10.330 -1.4201 -0.4394 -1.5372
  226MOL0     H31121   7.713   4.725  10.134 -0.9806 -0.4157 -0.0635
  226MOL0     H31122   7.742   4.684  10.304 -1.2911 -1.1299 -0.6393
  226MOL0     H31123   7.813   4.938  10.174  0.8014  0.1917  0.4017
  226MOL0     H31124   7.830   4.912  10.346 -1.0779  1.0144 -0.4046
  226MOL0     H31125   7.986   4.731  10.320 -0.1115  0.1159  1.5075
  226MOL0     H31126   7.970   4.723  10.152  2.1936  0.1497 -0.2910
  226MOL0     H31127   8.051   4.964  10.125  1.1331  2.4548  1.0852
  226MOL0     H31128   8.087   4.976  10.294 -0.1765 -0.4155  0.4664
  226MOL0     H31129   8.269   4.925  10.136  0.6389  1.8073  3.3223
  226MOL0     H31130   8.211   4.760  10.099 -0.4208 -1.7655  1.8952
  226MOL0     H31131   8.301   4.875  10.360 -0.5788  0.1064 -0.8404
  226MOL0     H31132   8.235   4.704  10.357 -0.6745 -0.9553 -0.2721
  226MOL0     H31133   8.480   4.837  10.223 -0.5986  0.6613  0.1277
  226MOL0     H31134   8.438   4.670  10.184 -1.7017  1.0003 -0.7262
  226MOL0     H31135   8.506   4.779  10.463 -0.9536 -0.0327 -0.6873
  226MOL0     H31136   8.481   4.614  10.423  2.3907 -1.0429 -0.5207
  226MOL0     H31137   8.641   4.491  10.267  1.0340  0.2899 -0.8111
  226MOL0     H31138   8.936   4.505  10.131  2.2297  2.3825  0.3441
  226MOL0     H31139   8.904   4.392  10.265  3.8646 -0.7330 -0.6856
  226MOL0     H31140   9.085   4.622  10.311 -1.5176  0.5207  1.3244
  226MOL0     H31141   9.064   4.466  10.399 -1.3612 -1.6798 -1.0817
  226MOL0     H31142   9.139   4.344  10.210  1.7298  0.1203 -0.2975
  226MOL0     H31143   9.186   4.478  10.114  1.9241 -2.1735 -0.5558
  226MOL0     H31144   9.339   4.530  10.299 -0.2952 -0.5244  2.3009
  226MOL0     H31145   9.299   4.377  10.385 -0.2290 -2.2684 -0.2656
  226MOL0     H31146   9.534   4.550  10.321  0.4495  1.6906 -1.6394
  226MOL0     H31147   9.841   4.742  10.216 -0.8535 -1.1060 -1.0284
  226MOL0     H31148   9.814   4.672  10.370  2.1686  2.7946 -0.4363
  226MOL0     H31149   9.678   4.756  10.281 -1.3567 -1.1313 -1.4274
  226MOL0     H31150  10.070   4.682   9.775 -0.9861  0.0580 -1.6121
  226MOL0     H31151  10.293   4.720   9.709 -0.7283  0.1168 -0.7689
  226MOL0     H31152  10.531   4.523   9.640  3.1607 -0.0427 -1.0632
  226MOL0     H31153  10.505   4.699   9.647 -0.8922 -0.6748 -1.8129
  226MOL0     H31154  10.730   4.720   9.755  3.1756 -1.3091  0.5030
  226MOL0     H31155  10.749   4.548   9.753 -0.5686  0.7689  2.0604
  226MOL0     H31156  10.716   4.722   9.505  2.7721  2.6914  2.1710
  226MOL0     H31157  10.716   4.541   9.494  1.5342 -1.8834  2.3057
  226MOL0     H31158  10.924   4.526   9.596 -0.6777 -0.5559 -1.3572
  226MOL0     H31159  10.944   4.699   9.609 -0.7859 -2.0205  3.4926
  226MOL0     H31160  10.918   4.538   9.339  0.5432  0.3264 -0.6703
  226MOL0     H31161  10.928   4.707   9.333  0.9165 -1.3633 -2.5653
  226MOL0     H31162  11.115   4.623   9.277 -0.0754  1.3924 -0.5448
  226MOL0     H31163  11.143   4.522   9.418  0.9205  1.3312  1.5488
  226MOL0     H31164  11.152   4.732   9.577 -2.1333 -0.1213 -0.3598
  226MOL0     H31165  11.149   4.821   9.419 -2.8505  0.2783  1.5510
  226MOL0     H31166  11.386   4.808   9.491 -0.5646  0.3351  1.4748
  226MOL0     H31167  11.354   4.685   9.360 -1.4462 -0.0096 -0.9728
  226MOL0     H31168  10.433   4.450  10.004 -1.3908  1.8949  3.4025
  226MOL0     H31169  10.201   4.380  10.051  1.8781  0.0261 -0.9633
  226MOL0     H31170   9.817   4.302  10.002  0.8774 -0.9347  0.4896
  226MOL0     H31171   9.590   4.226  10.055 -1.8946  0.0768  0.3737
  226MOL0     H31172   7.549   4.556  10.257 -1.0561 -0.5935  0.1697
  226MOL0     H31173   7.349   4.451  10.338 -0.1826 -0.2219  0.1978
  226MOL0     H31174   6.794   4.693  10.533 -1.5644 -0.3799  1.7874
  226MOL0     H31175   6.643   4.614  10.714  1.2863  2.1577  2.4282
  226MOL0     H31176   6.511   4.401  10.970 -1.8966  0.7000 -0.7143
  226MOL0     H31177   6.544   4.545  10.861  1.5562  0.1067  1.4458
  226MOL0     H31178   6.459   4.260  10.793 -1.3804 -1.5675 -1.7537
  226MOL0     H31179   6.449   4.383  10.671  1.2302 -0.3592  1.1299
  226MOL0     H31180   6.243   4.307  10.793  2.9071 -1.2796 -1.9058
  226MOL0     H31181   6.287   4.391  10.934 -1.7240  2.0449  0.3601
  226MOL0     H31182   6.220   4.513  10.665  0.6374  0.0252  0.3272
  226MOL0     H31183   6.297   4.614  10.787 -0.2114  1.0569 -1.9347
  226MOL0     H31184   5.889   4.578  10.923 -0.5045  1.3356 -0.9477
  226MOL0     H31185   6.888   4.291  10.793 -1.6799  0.3448 -0.4337
  226MOL0     H31186   7.178   4.421  10.635  0.9700 -0.9550  0.2098
  226MOL0     H31187   7.116   4.256  10.671  0.2587 -0.3177  0.4937
  226MOL0     H31188   7.111   4.315  10.510  0.0407  0.4242  0.6076
  227MOL0     O31189   4.853   9.103  10.269  0.2435  0.7670  0.3248
  227MOL0     C31190   4.751   9.071  10.329  0.5168  0.2072 -0.0738
  227MOL0     O31191   4.728   8.956  10.400 -0.7836 -0.7192  0.4439
  227MOL0     C31192   4.817   8.857  10.388  1.1967 -0.2122 -0.1433
  227MOL0     C31193   4.759   8.725  10.380  0.2629 -0.0208  0.0307
  227MOL0     C31194   4.839   8.616  10.371 -0.1108  0.0058 -0.1968
  227MOL0     C31195   4.977   8.633  10.377 -0.6548  0.1461  0.0003
  227MOL0     O31196   5.045   8.512  10.377 -0.8198 -0.4447  0.1769
  227MOL0     C31197   5.148   8.504  10.475  0.6787 -0.0318 -0.1999
  227MOL0     C31198   5.180   8.356  10.499 -0.5064  0.7266 -0.1357
  227MOL0     C31199   5.252   8.342  10.643  0.7713  0.2017  0.4295
  227MOL0     C31200   5.300   8.201  10.672  0.1065  0.1793 -0.1149
  227MOL0     C31201   5.445   8.186  10.611  0.4036  0.5004 -0.5350
  227MOL0     C31202   5.454   8.056  10.523 -0.7652 -0.0587  0.7187
  227MOL0     C31203   5.591   8.034  10.454  0.3613  0.5845 -0.4144
  227MOL0     C31204   5.606   7.886  10.409  0.3686 -0.4616  0.0514
  227MOL0     N31205   5.603   7.780  10.500 -0.1090 -0.1681  0.2624
  227MOL0     C31206   5.671   7.772  10.620  2.1726 -0.5613  0.2323
  227MOL0     C31207   5.619   7.660  10.671  0.1726  0.8989 -0.9170
  227MOL0     C31208   5.646   7.595  10.807 -0.2998  0.0710  0.2115
  227MOL0     C31209   5.778   7.522  10.813 -0.7877 -0.1768  0.1738
  227MOL0     C31210   5.817   7.486  10.963  0.8012 -0.0672 -0.6460
  227MOL0     C31211   5.957   7.442  10.994 -0.0521  0.6676  0.0221
  227MOL0     O31212   5.967   7.410  11.133  0.2438  0.4663 -0.9173
  227MOL0     C31213   6.086   7.387  11.194 -0.2286  0.1144  0.0313
  227MOL0     C31214   6.090   7.373  11.329 -0.2478 -1.3221  0.8726
  227MOL0     C31215   6.210   7.361  11.408  0.4334 -0.3891  0.0894
  227MOL0     C31216   6.183   7.370  11.559  0.0170  0.2542  0.2218
  227MOL0     C31217   6.332   7.347  11.345 -1.0736 -0.4153  0.4387
  227MOL0     C31218   6.461   7.328  11.412 -0.2218  0.3135 -0.5589
  227MOL0     O31219   6.575   7.342  11.339  0.2751  0.1341  0.2612
  227MOL0     C31220   6.686   7.346  11.417  0.3403  0.7397  0.6566
  227MOL0     C31221   6.714   7.454  11.499 -0.0550  0.1877  0.2236
  227MOL0     C31222   6.830   7.443  11.573  0.0828 -0.6253  0.2249
  227MOL0     C31223   6.916   7.336  11.567  0.5584 -0.0744 -0.1584
  227MOL0     O31224   7.031   7.321  11.642  0.1056  0.7071 -0.3935
  227MOL0     C31225   7.136   7.423  11.636 -0.6307  0.2376 -0.1366
  227MOL0     C31226   7.240   7.355  11.732  0.0503 -0.2498 -0.3078
  227MOL0     C31227   7.292   7.216  11.684 -0.0625  0.0232  0.5521
  227MOL0     C31228   7.434   7.197  11.715  0.3187  0.4996 -0.0695
  227MOL0     C31229   7.489   7.068  11.643  0.1314 -0.3458 -0.8728
  227MOL0     C31230   7.639   7.045  11.693  0.0853  0.0751  1.2316
  227MOL0     C31231   7.718   6.930  11.627  0.6054 -0.2636  0.0537
  227MOL0     C31232   7.853   6.927  11.696 -0.0650  0.6621  0.3195
  227MOL0    Cl31233   7.951   6.806  11.609  0.3364 -0.2559  0.4206
  227MOL0     C31234   6.887   7.234  11.489  0.0360  0.0241 -0.5815
  227MOL0     C31235   6.779   7.244  11.401 -0.3604  0.2342 -0.1727
  227MOL0     O31236   6.453   7.273  11.526  0.2549 -0.7521  0.3335
  227MOL0     C31237   6.335   7.355  11.203 -0.7427  0.1792  0.2526
  227MOL0     C31238   6.214   7.371  11.129 -0.4525 -0.5866  0.2202
  227MOL0     N31239   5.534   7.597  10.580  1.3832  0.1334 -0.2536
  227MOL0     N31240   5.531   7.666  10.473  0.8197  0.5025 -0.3609
  227MOL0     C31241   5.030   8.759  10.397  0.6931  0.5657  0.0654
  227MOL0     C31242   4.950   8.866  10.403  1.2035 -0.3014  0.3083
  227MOL0     C31243   4.642   9.172  10.354  0.5643  0.2893  1.0771
  227MOL0     C31244   4.519   9.117  10.412  0.4620 -0.2415  0.1589
  227MOL0     C31245   4.415   9.202  10.446  1.2499 -0.6865  0.6217
  227MOL0     C31246   4.424   9.350  10.437  0.3652  0.7466 -0.1953
  227MOL0     O31247   4.317   9.431  10.485 -0.5396  0.7438 -0.0366
  227MOL0     C31248   4.198   9.384  10.533  0.1924  0.2185  0.2044
  227MOL0     C31249   4.100   9.500  10.563 -0.1092 -0.6659 -0.3733
  227MOL0     C31250   4.027   9.536  10.427  0.2419 -0.5072 -0.3049
  227MOL0     C31251   3.935   9.662  10.457  0.3490  0.7112  0.0625
  227MOL0     C31252   3.896   9.728  10.333 -0.1040 -0.4905  0.1549
  227MOL0     C31253   3.845   9.785  10.238  0.2898 -0.1400 -0.7749
  227MOL0     C31254   4.541   9.397  10.379 -0.4177  0.5677  0.4933
  227MOL0     C31255   4.651   9.312  10.339  0.0934  0.3634  0.5020
  227MOL0     C31256   4.779   9.378  10.299  0.6946  1.0585  0.4640
  227MOL0     H31257   4.650   8.724  10.371  0.1115 -0.9450  1.6589
  227MOL0     H31258   4.799   8.516  10.381  1.6926 -0.7131  0.2395
  227MOL0     H31259   5.113   8.535  10.574  1.8156 -2.2062  0.9845
  227MOL0     H31260   5.237   8.561  10.448  1.7030 -1.0170  0.9145
  227MOL0     H31261   5.090   8.296  10.508 -1.3098  2.0438  1.0393
  227MOL0     H31262   5.255   8.328  10.424  1.0485  3.0526  0.4349
  227MOL0     H31263   5.329   8.419  10.654  1.7061 -0.9608  2.6580
  227MOL0     H31264   5.173   8.354  10.718  0.6771 -1.9038  0.7127
  227MOL0     H31265   5.315   8.176  10.777  0.4050 -3.3505 -0.8867
  227MOL0     H31266   5.232   8.129  10.627 -1.5923  0.2387  2.2162
  227MOL0     H31267   5.509   8.177  10.699 -0.5554 -1.4674  0.0185
  227MOL0     H31268   5.478   8.276  10.558 -3.8493  1.4089 -1.9841
  227MOL0     H31269   5.416   7.967  10.573 -1.1227  0.1897  0.8977
  227MOL0     H31270   5.379   8.061  10.444 -1.2321 -3.1181  0.8663
  227MOL0     H31271   5.658   8.061  10.536 -1.2534 -3.0501  2.3773
  227MOL0     H31272   5.618   8.091  10.365  1.7307  0.5891 -0.0197
  227MOL0     H31273   5.531   7.869  10.331  0.6797 -1.9173  0.0311
  227MOL0     H31274   5.708   7.882  10.368 -0.3269  1.8734 -2.1299
  227MOL0     H31275   5.730   7.850  10.666 -1.6042  1.4496  2.1045
  227MOL0     H31276   5.566   7.526  10.836 -0.2038 -0.1394 -0.0241
  227MOL0     H31277   5.657   7.685  10.868 -0.1085  2.7608 -3.4609
  227MOL0     H31278   5.775   7.431  10.751  2.0489 -1.8702  2.2569
  227MOL0     H31279   5.863   7.582  10.782 -0.4474  0.8748  2.8802
  227MOL0     H31280   5.793   7.577  11.020 -1.2129 -1.2573  0.5166
  227MOL0     H31281   5.748   7.408  10.995  1.9080 -1.1643 -0.8309
  227MOL0     H31282   5.993   7.361  10.930  0.0104  1.1269 -0.5361
  227MOL0     H31283   6.030   7.520  10.970  0.9459 -0.7587 -1.8418
  227MOL0     H31284   5.999   7.396  11.383  1.1148  0.4375  2.5800
  227MOL0     H31285   6.160   7.269  11.595  0.2341 -0.4984 -1.6378
  227MOL0     H31286   6.112   7.450  11.582  0.9042  0.2675  3.5118
  227MOL0     H31287   6.274   7.391  11.616 -0.6989  0.6185  1.2614
  227MOL0     H31288   6.654   7.541  11.523 -1.7658 -1.3265  1.7053
  227MOL0     H31289   6.868   7.520  11.639  0.1847 -1.2450  0.9043
  227MOL0     H31290   7.182   7.435  11.538  2.4000  1.5229  1.3362
  227MOL0     H31291   7.098   7.517  11.678  0.5531  0.8263 -0.3511
  227MOL0     H31292   7.327   7.418  11.751 -0.7505  1.3191 -1.5943
  227MOL0     H31293   7.179   7.346  11.822 -1.6037  0.4533 -1.3102
  227MOL0     H31294   7.268   7.205  11.578  0.5296  2.3384  0.1212
  227MOL0     H31295   7.237   7.138  11.738  1.4463 -2.4674 -1.2697
  227MOL0     H31296   7.451   7.197  11.823  0.9182  1.2576 -0.1519
  227MOL0     H31297   7.489   7.280  11.670  2.6097 -1.9671 -2.2263
  227MOL0     H31298   7.420   6.988  11.672  0.6479 -1.7959 -3.3952
  227MOL0     H31299   7.495   7.082  11.535 -0.9086 -0.4213 -0.9552
  227MOL0     H31300   7.633   7.024  11.800 -3.3968 -3.5860  0.5787
  227MOL0     H31301   7.697   7.135  11.671  1.3190 -1.4936 -2.7835
  227MOL0     H31302   7.709   6.925  11.518 -1.9516 -0.6501  0.2238
  227MOL0     H31303   7.669   6.835  11.649  1.4305 -1.0193 -1.2614
  227MOL0     H31304   7.819   6.890  11.793 -2.4271  1.5821 -0.0819
  227MOL0     H31305   7.896   7.027  11.695 -0.4116  0.8190 -0.5917
  227MOL0     H31306   6.956   7.151  11.499  0.3234  0.2809 -0.4208
  227MOL0     H31307   6.749   7.162  11.336 -2.3438  0.0015  0.9518
  227MOL0     H31308   6.431   7.332  11.158 -1.5489 -0.5957 -1.1182
  227MOL0     H31309   6.224   7.381  11.021  0.3647  1.8657  0.4582
  227MOL0     H31310   5.138   8.758  10.413  0.6468 -4.8214  2.3348
  227MOL0     H31311   4.998   8.962  10.422  1.1565 -0.4891  1.4079
  227MOL0     H31312   4.509   9.012  10.436 -3.5409  0.1196  0.8036
  227MOL0     H31313   4.325   9.163  10.491  0.9195  0.6824  1.1813
  227MOL0     H31314   4.151   9.306  10.472 -0.5104  0.7966 -0.0086
  227MOL0     H31315   4.231   9.326  10.620 -0.3569 -2.1905 -1.1007
  227MOL0     H31316   4.156   9.590  10.592 -1.1727  0.3358 -1.2855
  227MOL0     H31317   4.028   9.476  10.642  2.3794  0.3011  2.3891
  227MOL0     H31318   4.098   9.559  10.347  0.2248 -0.2825 -0.2555
  227MOL0     H31319   3.961   9.453  10.398  0.4154 -0.9470  0.5390
  227MOL0     H31320   3.990   9.743  10.505  1.6185  0.5289 -1.0323
  227MOL0     H31321   3.849   9.630  10.516 -0.9425 -1.8329 -2.9080
  227MOL0     H31322   3.788   9.818  10.152  0.4887  2.3818 -0.0359
  227MOL0     H31323   4.548   9.505  10.364 -1.0562  0.6537  0.7865
  227MOL0     H31324   4.810   9.354  10.196 -0.2326  2.8039 -0.2641
  227MOL0     H31325   4.773   9.487  10.293  1.2032  1.1827  1.8688
  227MOL0     H31326   4.859   9.347  10.366 -0.1657 -1.7040  0.3367
  228MOL0     O31327   5.223   5.181   4.931  0.3079 -0.2936 -0.5300
  228MOL0     C31328   5.163   5.082   4.906  0.5207  1.0639  0.0150
  228MOL0     O31329   5.205   4.982   4.815  0.6573 -0.2585  0.4014
  228MOL0     C31330   5.341   4.947   4.814  1.5416  0.2057 -0.1093
  228MOL0     C31331   5.376   4.904   4.688  0.9785 -0.2326  0.0168
  228MOL0     C31332   5.509   4.881   4.653 -0.2031 -0.4718  0.1487
  228MOL0     C31333   5.604   4.897   4.749 -0.0905 -0.0260 -0.7363
  228MOL0     O31334   5.730   4.867   4.711 -0.0955 -0.9873 -0.2975
  228MOL0     C31335   5.833   4.955   4.757 -0.6764 -0.2028  0.5388
  228MOL0     C31336   5.962   4.919   4.695  0.2197  1.7090 -0.5838
  228MOL0     C31337   5.984   4.956   4.548  0.1980 -1.2037  0.3124
  228MOL0     C31338   5.984   4.832   4.452  0.4798 -1.3573  0.1537
  228MOL0     C31339   6.096   4.732   4.481 -0.0881  0.3127 -0.5112
  228MOL0     C31340   6.150   4.661   4.357  0.7991 -0.0632  1.0075
  228MOL0     C31341   6.025   4.577   4.300 -0.3146  0.1318  0.2862
  228MOL0     C31342   6.083   4.479   4.193 -0.5258 -0.3827 -0.8372
  228MOL0     N31343   5.977   4.412   4.117 -0.0706  0.9389  0.3093
  228MOL0     C31344   5.911   4.462   4.003 -0.6950  0.4883 -0.1703
  228MOL0     C31345   5.872   4.354   3.925 -0.7083 -0.0746 -0.0019
  228MOL0     C31346   5.804   4.369   3.787  0.5438 -0.2354 -0.5739
  228MOL0     C31347   5.907   4.366   3.672 -0.2766 -0.6281 -0.6987
  228MOL0     C31348   5.844   4.361   3.535  0.1543 -0.1990  0.9787
  228MOL0     C31349   5.949   4.333   3.415  0.6778  0.1826  0.5043
  228MOL0     O31350   6.018   4.448   3.365 -0.1187  0.3721 -0.1775
  228MOL0     C31351   6.148   4.423   3.316 -0.1782 -0.3713 -0.9375
  228MOL0     C31352   6.249   4.474   3.388 -0.1620 -0.2367  0.5193
  228MOL0     C31353   6.389   4.451   3.349  0.5694 -0.2513  0.5919
  228MOL0     C31354   6.484   4.522   3.445 -0.2601  0.0342  0.1457
  228MOL0     C31355   6.411   4.397   3.221  1.0354 -0.1708 -0.2653
  228MOL0     C31356   6.545   4.379   3.165 -0.1107  0.1218 -0.2974
  228MOL0     O31357   6.550   4.295   3.056 -0.1234  0.5755 -0.4400
  228MOL0     C31358   6.667   4.249   2.998 -0.2255  0.3962  0.1977
  228MOL0     C31359   6.676   4.220   2.862 -0.0722  0.1926  0.7371
  228MOL0     C31360   6.785   4.168   2.801  0.1656  0.0149 -0.1050
  228MOL0     C31361   6.898   4.143   2.876  0.0318  0.2467 -0.2820
  228MOL0     O31362   7.014   4.095   2.818  0.0198 -0.4045  0.0279
  228MOL0     C31363   7.083   3.984   2.879  0.3740 -0.3993 -0.1442
  228MOL0     C31364   7.166   3.919   2.780  0.4456 -0.6173  0.1026
  228MOL0     C31365   7.224   3.789   2.837 -0.5279 -0.0738  0.1735
  228MOL0     C31366   7.344   3.803   2.919  0.1999 -0.7007 -0.8520
  228MOL0     C31367   7.442   3.680   2.920  0.3272 -0.2519  1.1570
  228MOL0     C31368   7.565   3.697   2.999  0.6533 -0.6368 -0.6481
  228MOL0     C31369   7.683   3.763   2.924 -0.6977 -0.0183  0.2189
  228MOL0     C31370   7.822   3.725   2.972 -0.0993 -0.7539 -1.2956
  228MOL0    Cl31371   7.834   3.717   3.158 -0.1671  0.4485  0.6190
  228MOL0     C31372   6.897   4.160   3.014  0.4643 -0.6787 -0.6590
  228MOL0     C31373   6.784   4.213   3.078  0.0847 -0.9152  0.0631
  228MOL0     O31374   6.644   4.446   3.205 -0.4217 -0.9423  0.8707
  228MOL0     C31375   6.304   4.344   3.153  0.2523 -0.0311  0.8049
  228MOL0     C31376   6.175   4.361   3.195  0.1344 -1.0661  0.6260
  228MOL0     N31377   5.904   4.244   3.995  0.7690 -0.4080 -0.0335
  228MOL0     N31378   5.966   4.274   4.102  0.8480 -0.1692  0.0900
  228MOL0     C31379   5.569   4.932   4.880 -0.6167 -0.2834  0.1899
  228MOL0     C31380   5.429   4.958   4.913 -0.5882  0.8922  0.6580
  228MOL0     C31381   5.020   5.068   4.947  0.0548  0.5564  1.0739
  228MOL0     C31382   4.948   4.970   4.875 -0.8340 -0.3251  0.1419
  228MOL0     C31383   4.812   4.951   4.896  0.4754 -0.0155  0.4712
  228MOL0     C31384   4.742   5.015   4.995  0.2071  0.6628 -0.9610
  228MOL0     O31385   4.610   4.991   5.000  0.0138  0.5568  0.2919
  228MOL0     C31386   4.526   5.108   5.006 -0.1045 -0.2690  0.4437
  228MOL0     C31387   4.383   5.069   4.964 -0.0180 -0.1191 -0.0307
  228MOL0     C31388   4.366   5.029   4.819 -0.0276 -0.0442 -0.3525
  228MOL0     C31389   4.221   5.037   4.777 -0.1546 -0.1274  0.0822
  228MOL0     C31390   4.133   4.967   4.866  0.0311  0.0560  1.7421
  228MOL0     C31391   4.065   4.901   4.935  0.3787  0.0000 -0.5756
  228MOL0     C31392   4.813   5.102   5.079 -0.1291  0.1672  0.4640
  228MOL0     C31393   4.950   5.126   5.056 -0.2708  0.4613 -0.4485
  228MOL0     C31394   5.021   5.202   5.169  0.3653 -0.0713  0.4697
  228MOL0     H31395   5.301   4.892   4.611 -1.3565  1.7227  1.8377
  228MOL0     H31396   5.533   4.848   4.553 -0.4469 -0.8622  0.2206
  228MOL0     H31397   5.853   4.939   4.863  4.0678  0.1725 -0.0808
  228MOL0     H31398   5.805   5.057   4.732 -0.9595 -1.3647 -5.3864
  228MOL0     H31399   6.039   4.971   4.753  1.1028  1.2120 -1.2987
  228MOL0     H31400   5.982   4.813   4.711 -0.4348  1.9676  2.5474
  228MOL0     H31401   5.902   5.018   4.511  1.6396  1.2893  1.0550
  228MOL0     H31402   6.073   5.018   4.539 -0.8059  0.2655  0.2303
  228MOL0     H31403   5.882   4.792   4.449 -0.8731  1.4751 -5.2708
  228MOL0     H31404   5.984   4.872   4.350 -0.5784 -0.9321  0.3083
  228MOL0     H31405   6.064   4.651   4.547 -0.8309 -1.5522 -2.9993
  228MOL0     H31406   6.180   4.781   4.531  0.8354 -0.4646 -1.2298
  228MOL0     H31407   6.186   4.736   4.286  2.1735 -1.1610  0.4952
  228MOL0     H31408   6.237   4.603   4.388  0.3511  0.7168  4.0273
  228MOL0     H31409   5.951   4.641   4.252  1.4412  1.9004 -0.1735
  228MOL0     H31410   5.973   4.508   4.367 -0.5616 -0.6387 -0.6730
  228MOL0     H31411   6.151   4.539   4.131  0.5496 -0.0921  0.5816
  228MOL0     H31412   6.140   4.403   4.247  0.2449 -0.0330 -1.1363
  228MOL0     H31413   5.898   4.565   3.969  1.5232  0.6387 -0.6760
  228MOL0     H31414   5.747   4.463   3.783  0.4482 -0.3213 -1.3221
  228MOL0     H31415   5.737   4.285   3.769  1.0889 -1.2998  1.9897
  228MOL0     H31416   5.984   4.442   3.684 -1.4966  0.4480  0.7555
  228MOL0     H31417   5.966   4.275   3.674  1.0533  0.1902 -1.5127
  228MOL0     H31418   5.764   4.287   3.532  0.1156 -0.1983  1.7390
  228MOL0     H31419   5.791   4.452   3.506 -0.7195 -0.7225  0.8885
  228MOL0     H31420   6.031   4.262   3.435 -0.1073 -1.3412 -1.3544
  228MOL0     H31421   5.899   4.282   3.332 -0.0022  0.5354  0.6918
  228MOL0     H31422   6.220   4.534   3.473 -0.3472  2.7865 -1.5219
  228MOL0     H31423   6.461   4.472   3.539  0.3214 -2.2591 -0.8821
  228MOL0     H31424   6.454   4.627   3.458  0.8760  0.1751  2.1101
  228MOL0     H31425   6.592   4.522   3.426 -0.1280 -0.0009  0.8793
  228MOL0     H31426   6.585   4.240   2.805 -0.7852 -0.1812  1.7071
  228MOL0     H31427   6.781   4.152   2.694  0.3800  0.5067 -0.1888
  228MOL0     H31428   7.156   4.018   2.953  1.1114 -0.0638 -1.0114
  228MOL0     H31429   7.014   3.919   2.934 -0.8718  3.2243  2.9920
  228MOL0     H31430   7.097   3.894   2.699  0.5466 -0.6854  0.0378
  228MOL0     H31431   7.250   3.979   2.744  0.5405 -1.4471 -1.1014
  228MOL0     H31432   7.266   3.744   2.746 -0.0340 -0.0295  0.3755
  228MOL0     H31433   7.145   3.731   2.885  0.1513 -0.7387  0.5064
  228MOL0     H31434   7.285   3.814   3.011  1.6956  2.5544 -0.1269
  228MOL0     H31435   7.386   3.904   2.914 -4.0871  1.5360  2.0273
  228MOL0     H31436   7.389   3.594   2.963 -0.3009  1.5711  4.3408
  228MOL0     H31437   7.470   3.664   2.815 -1.0800 -1.6906  0.9554
  228MOL0     H31438   7.605   3.597   3.019 -1.8041 -1.7373 -0.9402
  228MOL0     H31439   7.535   3.755   3.086 -1.2492 -0.5001 -1.3517
  228MOL0     H31440   7.671   3.871   2.918  1.7001  0.2350 -1.1693
  228MOL0     H31441   7.674   3.733   2.819 -0.6864 -0.4616  0.3437
  228MOL0     H31442   7.895   3.794   2.928 -1.8901  1.5247 -0.8919
  228MOL0     H31443   7.851   3.629   2.928 -1.6875 -0.5974 -2.7866
  228MOL0     H31444   6.989   4.157   3.072 -0.8285  1.2549  1.7004
  228MOL0     H31445   6.786   4.237   3.184 -2.2644 -1.4263  0.2726
  228MOL0     H31446   6.302   4.295   3.056 -0.9840  4.4509 -1.7438
  228MOL0     H31447   6.091   4.330   3.133  0.7078  0.4673 -1.0314
  228MOL0     H31448   5.650   4.943   4.951 -1.3616  4.4246  0.6393
  228MOL0     H31449   5.400   4.994   5.012 -2.2103  1.8902 -0.1358
  228MOL0     H31450   4.981   4.905   4.794 -1.4897 -3.8638  2.5029
  228MOL0     H31451   4.772   4.859   4.854 -0.0366  0.4078  0.0218
  228MOL0     H31452   4.529   5.138   5.111 -1.8353 -0.2056  0.5003
  228MOL0     H31453   4.555   5.193   4.944 -1.2800 -0.1186  0.0856
  228MOL0     H31454   4.320   5.157   4.966  0.6268  0.3752 -0.9407
  228MOL0     H31455   4.346   5.000   5.041  0.0060 -1.8053 -1.4591
  228MOL0     H31456   4.424   5.103   4.763  2.0609 -1.2306  0.1405
  228MOL0     H31457   4.413   4.931   4.804 -0.0499  0.1115 -1.5517
  228MOL0     H31458   4.218   5.000   4.674  1.4573 -1.3082  0.4280
  228MOL0     H31459   4.193   5.143   4.768  1.0161  0.2679  0.7733
  228MOL0     H31460   3.999   4.852   5.004  0.2223  1.3895  0.2861
  228MOL0     H31461   4.761   5.152   5.161  1.5148  0.1633  1.5568
  228MOL0     H31462   5.115   5.151   5.194  0.9438  0.3996 -0.6845
  228MOL0     H31463   5.026   5.306   5.136 -3.2911 -0.1694 -0.8283
  228MOL0     H31464   4.964   5.195   5.263  1.7406 -0.2057  1.3279
  229MOL0     O31465   9.717  10.913  10.544  0.8211 -0.1881 -0.1449
  229MOL0     C31466   9.650  10.998  10.485  0.7678  1.0613  1.1388
  229MOL0     O31467   9.645  11.124  10.520 -0.2633 -0.0886 -0.3546
  229MOL0     C31468   9.587  11.206  10.433  0.6603 -0.2820  0.3492
  229MOL0     C31469   9.468  11.271  10.471  0.0702  0.5878 -0.2836
  229MOL0     C31470   9.406  11.358  10.385 -0.0847  0.4666  0.0403
  229MOL0     C31471   9.453  11.381  10.254  0.3121  0.0551  0.0728
  229MOL0     O31472   9.387  11.475  10.172 -0.2304  0.0908 -0.2394
  229MOL0     C31473   9.239  11.488  10.186 -0.3859  0.5336 -0.0867
  229MOL0     C31474   9.205  11.616  10.271  0.0849  0.1979 -0.1234
  229MOL0     C31475   9.158  11.729  10.176  0.9464  0.4801  0.0591
  229MOL0     C31476   9.101  11.859  10.236 -0.0739  0.7652  0.2457
  229MOL0     C31477   9.074  11.951  10.124 -0.1826  0.3588 -0.2697
  229MOL0     C31478   8.931  11.952  10.075  0.4946  0.2423  0.2158
  229MOL0     C31479   8.826  11.986  10.183  0.0808 -0.3692 -0.4990
  229MOL0     C31480   8.854  12.122  10.250  0.6266  0.2923 -0.0158
  229MOL0     N31481   8.746  12.145  10.341 -0.3653  0.4499 -0.4503
  229MOL0     C31482   8.609  12.145  10.318 -0.0878  0.4576  0.6234
  229MOL0     C31483   8.552  12.189  10.435 -0.8356 -0.1054  0.7274
  229MOL0     C31484   8.406  12.205  10.473  0.3772  0.2418 -0.5882
  229MOL0     C31485   8.324  12.074  10.510 -0.1258  0.6034  0.1925
  229MOL0     C31486   8.356  12.023  10.652  0.0747 -0.0163  0.2343
  229MOL0     C31487   8.508  11.991  10.675  0.0812  0.0128 -0.9430
  229MOL0     O31488   8.518  11.896  10.779 -0.3238  0.4890  0.8474
  229MOL0     C31489   8.634  11.885  10.847 -0.5080  0.4323 -0.1070
  229MOL0     C31490   8.617  11.816  10.969 -0.3042  0.0138  0.1308
  229MOL0     C31491   8.724  11.824  11.060 -0.6039 -1.1252  0.1026
  229MOL0     C31492   8.705  11.756  11.193  0.1023  0.3534  0.1121
  229MOL0     C31493   8.852  11.861  11.016 -0.2478  0.1261  0.7818
  229MOL0     C31494   8.972  11.863  11.096  0.0133  0.1216  0.3099
  229MOL0     O31495   9.090  11.815  11.040 -0.0680 -0.1455 -0.9861
  229MOL0     C31496   9.207  11.820  11.107 -0.4562  0.3630 -0.1127
  229MOL0     C31497   9.228  11.778  11.238 -0.1661  0.3272  1.3197
  229MOL0     C31498   9.349  11.781  11.306  0.8484 -0.1876 -0.2957
  229MOL0     C31499   9.466  11.818  11.227 -0.7603 -0.3595 -0.0809
  229MOL0     O31500   9.598  11.814  11.264 -0.1117  0.0376  0.5017
  229MOL0     C31501   9.627  11.703  11.360 -0.0163 -0.2012  0.5200
  229MOL0     C31502   9.773  11.711  11.408  1.0802  0.1582 -0.9573
  229MOL0     C31503   9.863  11.661  11.291 -0.1325  0.5393 -0.8003
  229MOL0     C31504  10.016  11.694  11.312  0.4041 -0.2559 -0.6210
  229MOL0     C31505  10.072  11.613  11.430 -0.2606  0.2573  0.1504
  229MOL0     C31506  10.081  11.701  11.556  0.5139  0.4550  0.5015
  229MOL0     C31507  10.181  11.642  11.654  0.4232  0.3310 -0.1082
  229MOL0     C31508  10.191  11.728  11.773 -0.1989 -0.0207 -1.0731
  229MOL0    Cl31509  10.043  11.710  11.871  0.4066  0.3369  0.5286
  229MOL0     C31510   9.448  11.860  11.094  0.8063  0.7844 -0.4785
  229MOL0     C31511   9.325  11.863  11.033  0.6146 -0.9552  0.0309
  229MOL0     O31512   8.960  11.919  11.200 -0.8104  0.1218 -0.3407
  229MOL0     C31513   8.867  11.916  10.881 -0.7937  0.0221  0.0338
  229MOL0     C31514   8.759  11.925  10.795  1.3696  0.2589 -0.7329
  229MOL0     N31515   8.659  12.231  10.516  0.4831 -0.0351 -0.1945
  229MOL0     N31516   8.767  12.208  10.460 -0.1449  0.2422  0.0332
  229MOL0     C31517   9.568  11.321  10.213  0.1697  0.4965  0.3827
  229MOL0     C31518   9.637  11.233  10.307  0.1773  0.1148 -0.3668
  229MOL0     C31519   9.569  10.941  10.367  0.0382  0.2581 -0.2138
  229MOL0     C31520   9.428  10.962  10.361 -0.1100 -0.1867 -0.4635
  229MOL0     C31521   9.358  10.898  10.260 -0.0236  0.1069 -0.1321
  229MOL0     C31522   9.427  10.825  10.163  0.1204  0.4165 -0.3614
  229MOL0     O31523   9.355  10.757  10.069  0.0555  0.2005  0.0609
  229MOL0     C31524   9.276  10.650  10.119 -0.3066 -0.4354 -0.4286
  229MOL0     C31525   9.160  10.636  10.024  0.3978 -0.2630 -0.0247
  229MOL0     C31526   9.187  10.554   9.896 -0.4313  0.4199 -0.2207
  229MOL0     C31527   9.253  10.620   9.775 -0.1745 -0.6663 -0.2434
  229MOL0     C31528   9.260  10.524   9.663 -0.8543  0.3532  0.2147
  229MOL0     C31529   9.295  10.438   9.584  0.3892  0.4783 -0.5221
  229MOL0     C31530   9.566  10.821  10.159  0.4710 -0.6780  0.4922
  229MOL0     C31531   9.635  10.867  10.268  0.0078 -0.3193  0.0553
  229MOL0     C31532   9.787  10.857  10.260 -0.1583  0.4986 -0.0371
  229MOL0     H31533   9.411  11.255  10.563 -1.5302 -0.9766 -1.4807
  229MOL0     H31534   9.316  11.399  10.430  0.1853  1.2664 -0.1246
  229MOL0     H31535   9.198  11.399  10.235  0.1223  2.3471  4.1319
  229MOL0     H31536   9.191  11.494  10.088  0.7327  0.7980 -0.6303
  229MOL0     H31537   9.119  11.601  10.336  0.1839  0.5176  0.0818
  229MOL0     H31538   9.293  11.641  10.331 -0.4451 -2.2778  1.8510
  229MOL0     H31539   9.242  11.748  10.109 -1.1438  3.5476 -1.9646
  229MOL0     H31540   9.079  11.685  10.115 -2.7337  0.7197  4.1155
  229MOL0     H31541   9.008  11.836  10.288 -0.0919  1.3915  0.5015
  229MOL0     H31542   9.175  11.891  10.310 -1.4938 -2.9378  3.6412
  229MOL0     H31543   9.146  11.928  10.046  1.1024 -0.0062  0.9857
  229MOL0     H31544   9.100  12.052  10.157 -1.8272  0.6753  0.1737
  229MOL0     H31545   8.925  12.035  10.004  2.4573  2.5821  2.5818
  229MOL0     H31546   8.912  11.861  10.017  2.6253  1.5572 -2.7805
  229MOL0     H31547   8.829  11.910  10.262  1.5285  1.4006  1.2391
  229MOL0     H31548   8.724  11.981  10.143 -0.0634 -2.6869  0.0063
  229MOL0     H31549   8.946  12.115  10.310  0.7899 -1.0329 -0.3890
  229MOL0     H31550   8.859  12.198  10.172  1.0185 -0.1771 -0.4575
  229MOL0     H31551   8.560  12.098  10.234  2.1468 -1.6156  0.3808
  229MOL0     H31552   8.348  12.241  10.387 -2.7188 -0.9958  0.8202
  229MOL0     H31553   8.389  12.278  10.553 -2.4485 -0.7046 -0.2050
  229MOL0     H31554   8.218  12.099  10.508  0.3692  2.9893 -0.8191
  229MOL0     H31555   8.348  11.999  10.434 -2.7446  0.1809 -0.3191
  229MOL0     H31556   8.311  12.089  10.727  0.0451 -1.5959  1.6807
  229MOL0     H31557   8.297  11.931  10.666 -1.1485  1.1022  3.6969
  229MOL0     H31558   8.562  11.948  10.590 -0.9637 -1.0511 -1.0908
  229MOL0     H31559   8.551  12.084  10.712 -0.4809 -0.6474  1.5285
  229MOL0     H31560   8.513  11.791  10.992 -0.7272  1.7422  0.2370
  229MOL0     H31561   8.717  11.831  11.271  4.2111  0.1789 -0.1493
  229MOL0     H31562   8.780  11.680  11.217  0.4025  1.3665  2.6289
  229MOL0     H31563   8.603  11.714  11.195  0.0093  0.5491 -0.3876
  229MOL0     H31564   9.144  11.735  11.292 -0.9705  0.7692  0.4509
  229MOL0     H31565   9.341  11.748  11.409  0.7975  0.6134 -0.0384
  229MOL0     H31566   9.562  11.730  11.443 -1.1452  0.5351 -0.5610
  229MOL0     H31567   9.608  11.606  11.312 -1.2788 -1.4075  3.2757
  229MOL0     H31568   9.810  11.806  11.449  3.5994 -1.0849 -0.1461
  229MOL0     H31569   9.772  11.640  11.491 -0.3690  0.4363 -0.7159
  229MOL0     H31570   9.829  11.695  11.192  1.3467  0.5113 -1.3449
  229MOL0     H31571   9.843  11.554  11.281  0.3967  0.3973 -0.3747
  229MOL0     H31572  10.024  11.802  11.323  0.0747 -0.3042  0.1998
  229MOL0     H31573  10.069  11.658  11.223  0.9777 -2.2578  0.4587
  229MOL0     H31574  10.022  11.517  11.444  2.2084 -1.2022 -0.4961
  229MOL0     H31575  10.176  11.589  11.407 -0.1064  2.3457 -1.7530
  229MOL0     H31576   9.987  11.708  11.611  1.1983  2.7515  1.5039
  229MOL0     H31577  10.103  11.804  11.525  1.0759 -0.2159 -1.5534
  229MOL0     H31578  10.283  11.629  11.618  1.2494  2.6242  1.2063
  229MOL0     H31579  10.145  11.544  11.687 -0.7267  0.3348 -1.2655
  229MOL0     H31580  10.215  11.832  11.748  1.0562  0.4251  1.5967
  229MOL0     H31581  10.279  11.702  11.834 -0.2414  2.0124 -0.0458
  229MOL0     H31582   9.537  11.899  11.046  3.1637 -0.4128  2.5875
  229MOL0     H31583   9.323  11.894  10.929  0.5965  0.8396  0.5248
  229MOL0     H31584   8.964  11.947  10.845  0.5959 -2.0161  1.7457
  229MOL0     H31585   8.764  11.965  10.694  0.1174 -2.0831 -1.8148
  229MOL0     H31586   9.610  11.335  10.114  1.0056 -1.2373  0.4550
  229MOL0     H31587   9.736  11.192  10.289 -0.0155 -0.9513  0.8480
  229MOL0     H31588   9.371  11.001  10.444 -0.6398 -4.0030  1.1887
  229MOL0     H31589   9.250  10.895  10.275 -0.1437  0.9314 -0.7320
  229MOL0     H31590   9.339  10.561  10.116 -0.9595 -0.8854 -1.1039
  229MOL0     H31591   9.238  10.668  10.221  3.9034  0.1931  1.2297
  229MOL0     H31592   9.121  10.737  10.006  1.3627  0.3277  1.1204
  229MOL0     H31593   9.082  10.584  10.081  0.0947  1.7489  1.5238
  229MOL0     H31594   9.258  10.474   9.921  2.2791  1.5477 -3.4583
  229MOL0     H31595   9.093  10.518   9.855  0.8305  1.1339 -4.2201
  229MOL0     H31596   9.349  10.660   9.808 -1.8251  2.4163  1.1941
  229MOL0     H31597   9.183  10.697   9.742 -0.4326 -1.1935 -0.9522
  229MOL0     H31598   9.321  10.361   9.514  0.9769 -0.2374  0.4549
  229MOL0     H31599   9.616  10.780  10.071  0.5375  2.4277 -1.0602
  229MOL0     H31600   9.821  10.781  10.331 -2.0286 -2.4708 -2.0945
  229MOL0     H31601   9.817  10.816  10.163 -3.7608  0.6079 -1.3301
  229MOL0     H31602   9.833  10.951  10.291 -0.3010  0.1653  1.2264
  230MOL0     O31603   9.743  11.016   3.116 -0.4136  0.1411 -0.0886
  230MOL0     C31604   9.698  11.098   3.037  0.0397 -0.4856  0.0856
  230MOL0     O31605   9.761  11.201   2.981  0.3472 -0.4824 -0.1316
  230MOL0     C31606   9.890  11.227   3.014 -0.7690 -0.0592 -0.7443
  230MOL0     C31607   9.953  11.239   3.140 -0.6642  0.7401 -1.1744
  230MOL0     C31608  10.088  11.271   3.163 -0.7735 -0.2176  0.6532
  230MOL0     C31609  10.162  11.290   3.045 -0.9085  0.0421 -0.1234
  230MOL0     O31610  10.288  11.338   3.050  0.1358  0.0998  0.3629
  230MOL0     C31611  10.393  11.242   3.043 -0.4743 -0.3949 -0.0971
  230MOL0     C31612  10.460  11.217   3.170 -0.7506  0.7553  0.1967
  230MOL0     C31613  10.543  11.337   3.204 -0.6006 -0.8097  0.3702
  230MOL0     C31614  10.607  11.334   3.338 -0.0488 -0.1448 -0.5958
  230MOL0     C31615  10.704  11.450   3.362  0.5648  0.0787 -0.1050
  230MOL0     C31616  10.745  11.448   3.516 -0.8843  0.0493  0.0954
  230MOL0     C31617  10.870  11.538   3.542 -0.9814  0.3682 -0.6409
  230MOL0     C31618  11.007  11.480   3.522  0.4641 -0.0544 -1.3052
  230MOL0     N31619  11.116  11.559   3.557  0.0754 -0.3927  0.3998
  230MOL0     C31620  11.129  11.648   3.664 -0.2962  0.3775  0.6073
  230MOL0     C31621  11.246  11.708   3.643 -0.1983 -0.0688  0.6144
  230MOL0     C31622  11.320  11.779   3.752 -0.4156 -0.8367 -0.0591
  230MOL0     C31623  11.382  11.906   3.698 -0.6827 -0.2136 -1.0080
  230MOL0     C31624  11.462  11.972   3.809 -0.5765  0.0968 -0.0385
  230MOL0     C31625  11.526  12.106   3.764  0.5106  0.5955  0.5573
  230MOL0     O31626  11.632  12.154   3.851 -0.2570  0.1138 -0.9612
  230MOL0     C31627  11.764  12.146   3.835 -0.3043  0.0167  0.3390
  230MOL0     C31628  11.815  12.027   3.793  0.9076 -0.0225 -0.3125
  230MOL0     C31629  11.956  12.007   3.776  0.2616 -0.1432  0.2480
  230MOL0     C31630  12.012  11.873   3.735  0.3764  0.3577  1.1251
  230MOL0     C31631  12.046  12.121   3.798 -0.3133  0.4574  0.0166
  230MOL0     C31632  12.193  12.114   3.781  0.7347 -0.3962  0.0292
  230MOL0     O31633  12.253  12.221   3.827 -0.7006  0.2007 -0.4317
  230MOL0     C31634  12.383  12.197   3.870  0.2382 -0.5776  0.1420
  230MOL0     C31635  12.414  12.138   3.991  0.7295 -0.2549 -0.0441
  230MOL0     C31636  12.549  12.121   4.019 -0.0760 -0.1572 -0.6509
  230MOL0     C31637  12.649  12.162   3.926 -0.6401 -0.0892 -0.9249
  230MOL0     O31638  12.780  12.177   3.961 -0.1158  0.3341 -0.1673
  230MOL0     C31639  12.838  12.104   4.074 -0.1003 -0.5459  0.5497
  230MOL0     C31640  12.993  12.109   4.073  0.1411  0.3615  0.0478
  230MOL0     C31641  13.049  12.027   3.956  0.2285 -0.2218 -0.6249
  230MOL0     C31642  13.205  12.032   3.963  0.0908 -0.0421  0.8972
  230MOL0     C31643  13.248  12.171   3.902 -0.4902  0.1422 -0.0069
  230MOL0     C31644  13.393  12.156   3.867 -0.7668 -0.1929  0.4842
  230MOL0     C31645  13.491  12.132   3.982  0.0083 -0.0335  0.5077
  230MOL0     C31646  13.631  12.092   3.932  0.1352 -0.7128 -0.6693
  230MOL0    Cl31647  13.774  12.132   4.036 -0.1585  0.1424 -0.0656
  230MOL0     C31648  12.613  12.199   3.804  0.1564  0.3082 -0.2571
  230MOL0     C31649  12.483  12.222   3.778 -0.1478 -0.6595  0.9708
  230MOL0     O31650  12.245  12.022   3.718 -0.0368 -0.8280  0.3219
  230MOL0     C31651  11.984  12.248   3.826 -0.4422 -0.6398  0.3561
  230MOL0     C31652  11.841  12.258   3.844 -0.1314  0.9787  0.2493
  230MOL0     N31653  11.299  11.682   3.512 -0.2089  0.4921  0.0091
  230MOL0     N31654  11.218  11.591   3.472  0.5101  0.4378 -0.8411
  230MOL0     C31655  10.115  11.261   2.919  0.4767  0.6241  0.0398
  230MOL0     C31656   9.978  11.223   2.903 -0.7455 -0.5153 -0.6782
  230MOL0     C31657   9.559  11.084   2.987 -0.4779 -0.2079 -0.3050
  230MOL0     C31658   9.485  11.196   2.962 -0.3429  0.0735  0.2292
  230MOL0     C31659   9.358  11.195   2.918  0.7195  0.2811 -0.0741
  230MOL0     C31660   9.299  11.074   2.891  1.0733  0.0829 -0.1145
  230MOL0     O31661   9.169  11.072   2.852  0.2223  0.3519  0.5014
  230MOL0     C31662   9.082  10.993   2.932 -0.7323  0.6129  1.2196
  230MOL0     C31663   8.943  11.044   2.949 -0.6840 -0.0338 -0.2654
  230MOL0     C31664   8.866  11.042   2.819  0.2003 -0.5213  0.5714
  230MOL0     C31665   8.735  11.128   2.825  0.1678  0.3267  0.7473
  230MOL0     C31666   8.689  11.136   2.685  0.1597 -0.2321 -0.1517
  230MOL0     C31667   8.643  11.163   2.571  0.0808  0.2723 -0.0179
  230MOL0     C31668   9.367  10.957   2.931 -0.2038 -0.2242 -0.0445
  230MOL0     C31669   9.499  10.958   2.976 -0.2080 -0.6839  0.0119
  230MOL0     C31670   9.560  10.819   3.004  0.3673 -0.0885  1.0817
  230MOL0     H31671   9.889  11.245   3.227  1.7286  2.2527  0.6261
  230MOL0     H31672  10.127  11.292   3.262 -1.7732  1.8443  0.6813
  230MOL0     H31673  10.468  11.263   2.966  0.7987 -2.3423  0.5326
  230MOL0     H31674  10.352  11.148   3.004  1.1497 -2.2364  2.3719
  230MOL0     H31675  10.383  11.208   3.247 -0.3044 -1.7300  0.4405
  230MOL0     H31676  10.517  11.124   3.171 -2.3911 -0.2998 -0.2308
  230MOL0     H31677  10.625  11.347   3.133 -1.1125  2.8331  0.1125
  230MOL0     H31678  10.479  11.425   3.192 -1.5529 -1.6608 -1.1631
  230MOL0     H31679  10.531  11.324   3.417  0.6478 -0.3045  0.0668
  230MOL0     H31680  10.671  11.246   3.334  0.3706  0.0376  1.1156
  230MOL0     H31681  10.654  11.546   3.347  0.7217  0.0968 -0.5056
  230MOL0     H31682  10.786  11.438   3.290  0.5449 -0.0958 -0.0991
  230MOL0     H31683  10.664  11.490   3.576 -0.2553  0.1913  0.8626
  230MOL0     H31684  10.764  11.345   3.547  3.2599  0.2903 -1.0709
  230MOL0     H31685  10.867  11.570   3.647 -1.0965  1.5194 -0.9777
  230MOL0     H31686  10.857  11.629   3.482 -0.7949  1.2084  0.5565
  230MOL0     H31687  11.009  11.388   3.581 -2.3184 -0.0540 -1.0772
  230MOL0     H31688  11.027  11.441   3.422  0.5653 -1.7279 -0.6765
  230MOL0     H31689  11.078  11.642   3.759  0.8172  1.0169  1.2576
  230MOL0     H31690  11.409  11.716   3.765  1.3912  1.3182 -1.1771
  230MOL0     H31691  11.251  11.797   3.834 -1.7701  0.3930 -1.4165
  230MOL0     H31692  11.455  11.886   3.619  1.5833 -2.5306  1.4872
  230MOL0     H31693  11.305  11.975   3.662 -0.8689 -0.1697 -0.5316
  230MOL0     H31694  11.412  11.987   3.905  1.0403 -0.6116  0.9658
  230MOL0     H31695  11.535  11.894   3.834  0.2299  0.2248 -1.8080
  230MOL0     H31696  11.562  12.090   3.661  1.2419  1.7234  0.6214
  230MOL0     H31697  11.453  12.187   3.760 -0.9928 -0.6888 -3.1749
  230MOL0     H31698  11.756  11.939   3.767 -0.6528  0.8911  0.0178
  230MOL0     H31699  11.931  11.799   3.736  0.7866 -0.1764 -0.8463
  230MOL0     H31700  12.080  11.838   3.813  0.1572 -1.7435  0.4490
  230MOL0     H31701  12.062  11.875   3.638  0.7393 -1.9349  1.2122
  230MOL0     H31702  12.341  12.119   4.068  0.0201  1.4682 -0.2435
  230MOL0     H31703  12.595  12.107   4.116  0.6985  1.3803 -0.7561
  230MOL0     H31704  12.805  12.156   4.165  3.4273 -1.3258  2.4551
  230MOL0     H31705  12.808  11.999   4.084  2.6967 -1.6567 -1.4355
  230MOL0     H31706  13.028  12.213   4.067 -1.2192  1.0429  2.4634
  230MOL0     H31707  13.031  12.062   4.164 -0.4655  1.8907  1.1412
  230MOL0     H31708  13.008  12.069   3.864  1.5862 -0.9073 -1.5788
  230MOL0     H31709  13.038  11.919   3.953  2.9792 -0.7759  2.3607
  230MOL0     H31710  13.245  11.949   3.905 -1.2566  1.1002 -1.8464
  230MOL0     H31711  13.229  12.029   4.070 -2.7620  1.3772  1.6804
  230MOL0     H31712  13.190  12.200   3.814 -2.2699  0.3013  1.1585
  230MOL0     H31713  13.222  12.258   3.963  2.1100  1.0805 -0.1134
  230MOL0     H31714  13.421  12.247   3.812  1.5745 -2.2371 -1.9815
  230MOL0     H31715  13.409  12.076   3.795 -0.9796  1.4349 -1.4856
  230MOL0     H31716  13.450  12.050   4.042 -0.6394  0.9284  1.4104
  230MOL0     H31717  13.499  12.214   4.054 -1.6950  0.8305 -0.2509
  230MOL0     H31718  13.650  12.159   3.848 -0.1768  1.5881  0.9807
  230MOL0     H31719  13.630  11.988   3.900 -0.7646 -1.2143  0.8513
  230MOL0     H31720  12.691  12.219   3.732  1.0225  0.9158  0.8129
  230MOL0     H31721  12.454  12.252   3.677 -0.2288  2.5545  1.8264
  230MOL0     H31722  12.051  12.333   3.836 -2.1892  0.5896  2.2720
  230MOL0     H31723  11.800  12.351   3.881  0.4196  1.5916 -0.6549
  230MOL0     H31724  10.184  11.275   2.837  0.1144 -0.0304 -0.3842
  230MOL0     H31725   9.943  11.195   2.804  1.8705 -0.9500 -1.5733
  230MOL0     H31726   9.534  11.290   2.984  1.9286 -1.2201  1.0335
  230MOL0     H31727   9.302  11.287   2.905 -2.0123 -1.4105 -1.3251
  230MOL0     H31728   9.076  10.888   2.903  2.2221  1.1360 -1.9512
  230MOL0     H31729   9.131  10.992   3.030  1.9393  0.8151 -0.0355
  230MOL0     H31730   8.956  11.146   2.985 -1.7892 -0.8599  2.7483
  230MOL0     H31731   8.889  10.981   3.021  1.1522 -1.0559  0.2706
  230MOL0     H31732   8.930  11.073   2.736  2.5438 -0.9243  2.1391
  230MOL0     H31733   8.829  10.941   2.797 -1.6191  0.3552 -0.7324
  230MOL0     H31734   8.748  11.232   2.857  0.3383  0.1789  1.1621
  230MOL0     H31735   8.652  11.085   2.882 -2.1006 -0.0772 -2.6127
  230MOL0     H31736   8.597  11.185   2.477 -0.0963 -1.4025 -0.3468
  230MOL0     H31737   9.322  10.858   2.927  0.2334 -0.4725 -4.7575
  230MOL0     H31738   9.575  10.801   3.111  0.7955  0.8207  1.1834
  230MOL0     H31739   9.490  10.747   2.960 -2.7406  2.4534  1.4466
  230MOL0     H31740   9.655  10.795   2.957  0.1759  0.5317  0.3546
  231MOL0     O31741   5.237   4.509   5.541  0.0395 -0.2981  0.2263
  231MOL0     C31742   5.162   4.581   5.608  0.7056  0.6741 -0.4693
  231MOL0     O31743   5.197   4.638   5.727  0.3410 -0.5897 -0.3402
  231MOL0     C31744   5.323   4.611   5.774 -0.1073 -0.0391 -0.2216
  231MOL0     C31745   5.329   4.502   5.864 -0.0545 -0.0532  0.6703
  231MOL0     C31746   5.455   4.440   5.892  0.2977 -0.4486  0.4500
  231MOL0     C31747   5.576   4.503   5.856 -0.1298  0.0253  0.0325
  231MOL0     O31748   5.695   4.437   5.891  0.1131 -0.6870 -0.5672
  231MOL0     C31749   5.707   4.299   5.926 -0.0330 -0.9098 -0.2176
  231MOL0     C31750   5.732   4.280   6.079  0.4499  0.4274  1.2589
  231MOL0     C31751   5.650   4.175   6.157  0.7422 -0.7552 -0.1396
  231MOL0     C31752   5.505   4.209   6.187 -0.4155  0.8408  0.2509
  231MOL0     C31753   5.473   4.351   6.239  0.1789  0.0068  0.8152
  231MOL0     C31754   5.313   4.381   6.227  0.3697 -0.0282  0.2488
  231MOL0     C31755   5.270   4.533   6.233 -0.0680 -0.0499 -0.0954
  231MOL0     C31756   5.126   4.547   6.231  0.4221  0.2809 -0.4489
  231MOL0     N31757   5.053   4.503   6.346  0.5630  0.4348 -0.7925
  231MOL0     C31758   5.067   4.550   6.480  1.2265  0.2065  0.2379
  231MOL0     C31759   4.958   4.501   6.547 -0.6105 -1.0823 -0.8475
  231MOL0     C31760   4.904   4.535   6.686 -0.3622  0.1962 -0.4648
  231MOL0     C31761   4.795   4.652   6.676 -0.0738 -0.2800 -0.2558
  231MOL0     C31762   4.662   4.589   6.635 -0.4153 -0.2976 -0.7336
  231MOL0     C31763   4.557   4.707   6.618  0.4178  0.7413 -0.4117
  231MOL0     O31764   4.462   4.656   6.516  0.2738  0.5709  0.7429
  231MOL0     C31765   4.351   4.723   6.502 -1.1617 -0.3772  0.2309
  231MOL0     C31766   4.280   4.672   6.397  0.7436 -0.6433 -0.2476
  231MOL0     C31767   4.148   4.718   6.372  0.2361  0.1091  0.2407
  231MOL0     C31768   4.082   4.658   6.251  0.3418  0.4068  0.3917
  231MOL0     C31769   4.090   4.822   6.453  0.3327 -0.7173  0.1995
  231MOL0     C31770   3.959   4.876   6.434  0.7044 -0.1259 -0.1449
  231MOL0     O31771   3.882   4.811   6.348 -0.2987 -0.1980  0.8253
  231MOL0     C31772   3.745   4.837   6.347  0.2963  0.6223 -0.6525
  231MOL0     C31773   3.653   4.785   6.440  0.4687  0.2575  0.3368
  231MOL0     C31774   3.518   4.821   6.447  0.3570  1.1543 -0.1205
  231MOL0     C31775   3.473   4.907   6.348 -0.7153  0.7440 -0.8257
  231MOL0     O31776   3.344   4.956   6.358 -0.2407 -0.0413  0.0808
  231MOL0     C31777   3.322   5.032   6.467 -0.4458 -0.4833  0.7312
  231MOL0     C31778   3.186   5.087   6.472  0.5182  0.3626  0.0790
  231MOL0     C31779   3.076   4.978   6.473  0.0537 -0.3831  0.3673
  231MOL0     C31780   3.047   4.902   6.345 -0.2313 -0.5384  0.4282
  231MOL0     C31781   2.996   4.994   6.231 -0.1746 -0.5521 -0.2121
  231MOL0     C31782   2.975   4.927   6.094 -0.8009 -0.5254 -0.0573
  231MOL0     C31783   2.940   4.780   6.089  0.4183 -0.1707  0.2474
  231MOL0     C31784   2.908   4.761   5.934  0.2196  0.0013 -0.3975
  231MOL0    Cl31785   2.894   4.590   5.901 -0.2190 -0.4243 -0.1894
  231MOL0     C31786   3.558   4.955   6.248  0.1437 -0.0544  0.1268
  231MOL0     C31787   3.696   4.924   6.246 -0.0466  0.7503 -0.7821
  231MOL0     O31788   3.917   4.965   6.510 -0.2926  0.0630 -0.0071
  231MOL0     C31789   4.167   4.872   6.563 -0.4089 -0.3064 -0.0759
  231MOL0     C31790   4.299   4.828   6.581  0.5769  0.1814  0.4560
  231MOL0     N31791   4.880   4.430   6.461 -0.0751  0.0804  0.6434
  231MOL0     N31792   4.942   4.421   6.343 -0.3865  0.1446  0.8512
  231MOL0     C31793   5.566   4.621   5.773  0.3054  0.3971 -0.0810
  231MOL0     C31794   5.441   4.674   5.736  0.2773 -0.2002  0.3381
  231MOL0     C31795   5.025   4.576   5.551 -0.2715 -0.6371  0.8014
  231MOL0     C31796   5.001   4.580   5.407 -1.0448 -0.5646 -0.1192
  231MOL0     C31797   4.874   4.570   5.355 -0.4455  0.4249 -0.0087
  231MOL0     C31798   4.759   4.577   5.437 -0.0811  0.9670 -0.9026
  231MOL0     O31799   4.646   4.582   5.357  1.3518 -0.1255  0.8855
  231MOL0     C31800   4.524   4.634   5.417  0.4640 -0.1542  0.1445
  231MOL0     C31801   4.394   4.634   5.322  0.0970 -0.1472 -0.4118
  231MOL0     C31802   4.429   4.662   5.176 -0.3393 -1.0685 -0.8130
  231MOL0     C31803   4.308   4.712   5.100  0.1230  0.5950 -0.2167
  231MOL0     C31804   4.202   4.616   5.086  0.4281 -0.0020  0.5879
  231MOL0     C31805   4.112   4.537   5.076 -0.4097  0.3315 -0.6533
  231MOL0     C31806   4.773   4.589   5.574 -1.1694  0.0346 -0.5541
  231MOL0     C31807   4.905   4.585   5.630  0.5679 -0.0256  1.1691
  231MOL0     C31808   4.911   4.593   5.781  0.4910 -0.7434 -0.0456
  231MOL0     H31809   5.234   4.454   5.887 -0.3212 -0.7289 -1.5600
  231MOL0     H31810   5.453   4.344   5.943  0.5822  0.6890  2.7225
  231MOL0     H31811   5.788   4.249   5.871  1.8157  2.8955 -1.3047
  231MOL0     H31812   5.619   4.235   5.910 -0.7661 -0.5772  2.1860
  231MOL0     H31813   5.837   4.255   6.096  0.8706  0.0732 -1.4643
  231MOL0     H31814   5.716   4.374   6.133 -0.8291 -0.2618  2.1417
  231MOL0     H31815   5.666   4.081   6.105 -0.3346 -0.1487 -1.6257
  231MOL0     H31816   5.702   4.167   6.253  1.2439  3.8100  0.1950
  231MOL0     H31817   5.440   4.185   6.103  1.7820  0.4958 -1.4565
  231MOL0     H31818   5.478   4.144   6.272 -0.5504  3.4569  2.3249
  231MOL0     H31819   5.520   4.424   6.173 -1.4954 -0.3169 -0.8358
  231MOL0     H31820   5.517   4.379   6.336  0.3105  0.5364  0.6070
  231MOL0     H31821   5.280   4.333   6.135  0.0775 -1.7539  1.1886
  231MOL0     H31822   5.262   4.331   6.311  0.9337  0.0733  0.6559
  231MOL0     H31823   5.306   4.585   6.144  0.3053  1.3196  0.8229
  231MOL0     H31824   5.315   4.586   6.317  1.0556  0.0506 -0.7472
  231MOL0     H31825   5.102   4.652   6.212 -0.4953  0.2242  0.2694
  231MOL0     H31826   5.088   4.496   6.142 -0.7610  1.6916 -0.8006
  231MOL0     H31827   5.134   4.621   6.526 -0.9098  2.9947 -0.6455
  231MOL0     H31828   4.991   4.566   6.745 -0.9143 -1.2025  1.1785
  231MOL0     H31829   4.865   4.448   6.740  1.3203 -1.1663 -1.3563
  231MOL0     H31830   4.787   4.706   6.771  1.2695 -0.3886 -0.0484
  231MOL0     H31831   4.825   4.736   6.613 -2.0287 -0.0546 -0.9370
  231MOL0     H31832   4.677   4.540   6.539  1.3373  1.1461 -1.2667
  231MOL0     H31833   4.636   4.518   6.713 -0.4166 -0.1904 -0.6357
  231MOL0     H31834   4.517   4.719   6.719  2.6714 -2.3958  1.0222
  231MOL0     H31835   4.597   4.803   6.586 -0.6856  2.4454  2.9093
  231MOL0     H31836   4.327   4.600   6.331 -0.9528 -2.1908  0.1475
  231MOL0     H31837   3.986   4.615   6.280 -0.4893  3.2015  2.2624
  231MOL0     H31838   4.151   4.587   6.205  1.7429  2.5667 -1.0240
  231MOL0     H31839   4.064   4.739   6.179  2.2159  0.7694  0.2689
  231MOL0     H31840   3.691   4.714   6.513  0.4114  0.3535  0.4596
  231MOL0     H31841   3.451   4.793   6.528  0.4713  1.8217  0.2145
  231MOL0     H31842   3.338   4.986   6.565 -0.7781 -2.3576 -0.0504
  231MOL0     H31843   3.390   5.117   6.458  1.1200 -1.6706  0.8689
  231MOL0     H31844   3.183   5.137   6.569  1.5464  0.7500 -0.0693
  231MOL0     H31845   3.172   5.159   6.391 -0.7405  1.6967  1.4313
  231MOL0     H31846   2.984   5.013   6.521 -1.7618 -4.0758 -0.1104
  231MOL0     H31847   3.110   4.898   6.540 -0.8302 -2.2490 -1.3070
  231MOL0     H31848   2.966   4.832   6.366 -1.0194 -0.4056 -1.8454
  231MOL0     H31849   3.137   4.848   6.314  1.0933  2.4170 -1.3972
  231MOL0     H31850   2.896   5.017   6.267 -0.9671 -2.8850 -0.7368
  231MOL0     H31851   3.059   5.083   6.223 -1.8793  0.9241  1.7810
  231MOL0     H31852   3.059   4.955   6.030 -0.9674  1.2562  0.4471
  231MOL0     H31853   2.896   4.991   6.053  0.5525  2.1932  1.3307
  231MOL0     H31854   2.857   4.755   6.156 -1.4270 -0.3020 -1.9544
  231MOL0     H31855   3.027   4.727   6.128  2.1857  3.1045  1.1461
  231MOL0     H31856   2.992   4.796   5.874  1.0146 -2.1956 -0.6581
  231MOL0     H31857   2.810   4.808   5.920  0.4645  1.6520  2.6473
  231MOL0     H31858   3.523   5.026   6.174 -1.2020 -1.5592 -0.7276
  231MOL0     H31859   3.775   4.967   6.184  2.0199 -1.2829  0.2804
  231MOL0     H31860   4.128   4.961   6.610  0.5551  1.1320 -1.9094
  231MOL0     H31861   4.339   4.884   6.665  1.3429 -0.2652  0.3937
  231MOL0     H31862   5.658   4.666   5.738  1.1107  0.0423  1.4915
  231MOL0     H31863   5.430   4.767   5.681 -2.9474 -0.8454 -0.2826
  231MOL0     H31864   5.083   4.569   5.337  0.7903 -1.2609  2.0137
  231MOL0     H31865   4.871   4.554   5.247  0.9200  2.1666 -0.3513
  231MOL0     H31866   4.513   4.573   5.506  2.3904  0.3792  0.7894
  231MOL0     H31867   4.541   4.737   5.449 -1.1082 -0.5948  2.6816
  231MOL0     H31868   4.319   4.702   5.364 -0.6157 -1.3527  0.3511
  231MOL0     H31869   4.347   4.536   5.340  0.5873  0.1197  3.2123
  231MOL0     H31870   4.488   4.754   5.167 -0.3067 -1.2254 -2.4593
  231MOL0     H31871   4.460   4.570   5.127 -1.2763 -0.6991 -2.1518
  231MOL0     H31872   4.329   4.737   4.996  0.5600 -1.2917 -0.6133
  231MOL0     H31873   4.273   4.807   5.143 -0.0818 -0.7581  2.8304
  231MOL0     H31874   4.035   4.463   5.066  0.6356 -1.1080  1.1113
  231MOL0     H31875   4.680   4.587   5.631 -0.2785 -2.1451  0.9594
  231MOL0     H31876   4.807   4.603   5.816  1.5980  2.0919  3.0380
  231MOL0     H31877   4.962   4.517   5.840 -1.9262 -1.2934  1.5098
  231MOL0     H31878   4.951   4.691   5.808 -1.2786  0.1543 -0.4726
  232MOL0     O31879   6.941   6.938  11.315 -0.0822  0.1929 -0.2720
  232MOL0     C31880   6.984   6.832  11.279  0.3862 -0.7400  0.8207
  232MOL0     O31881   6.911   6.745  11.200  0.1195 -0.6115  0.0880
  232MOL0     C31882   6.984   6.644  11.135 -1.1821 -1.0445 -0.3813
  232MOL0     C31883   7.014   6.529  11.204  1.0335  0.7309  0.4855
  232MOL0     C31884   7.099   6.434  11.152 -0.6485 -0.5575 -0.8813
  232MOL0     C31885   7.153   6.451  11.027  0.1325 -0.2439 -0.1365
  232MOL0     O31886   7.244   6.371  10.967 -0.6814 -0.2758  1.1935
  232MOL0     C31887   7.216   6.229  10.953  0.4970 -0.3837  0.0810
  232MOL0     C31888   7.339   6.157  10.908  0.2867 -0.2196 -0.7981
  232MOL0     C31889   7.453   6.144  11.012 -0.2420  0.0891 -0.7661
  232MOL0     C31890   7.418   6.087  11.154  0.0487 -0.1439 -0.2386
  232MOL0     C31891   7.554   6.075  11.232  0.5502 -0.4616  0.4842
  232MOL0     C31892   7.528   6.029  11.377  0.6864 -0.7663  0.5430
  232MOL0     C31893   7.667   6.033  11.444  0.6145 -0.8710  0.0143
  232MOL0     C31894   7.652   5.970  11.586  0.1665 -0.1902 -0.2120
  232MOL0     N31895   7.753   6.011  11.680  0.0272  0.2422 -0.1427
  232MOL0     C31896   7.873   6.079  11.655 -0.5473 -0.2249  0.1464
  232MOL0     C31897   7.947   6.058  11.770 -0.1759  0.1454 -0.4644
  232MOL0     C31898   8.077   6.117  11.810 -0.6790 -0.2180  0.2588
  232MOL0     C31899   8.068   6.264  11.877 -0.2626  0.8807  1.0230
  232MOL0     C31900   8.026   6.360  11.764 -0.1609 -0.2366  0.7028
  232MOL0     C31901   8.034   6.503  11.819  0.1903 -0.1557 -0.0880
  232MOL0     O31902   8.169   6.544  11.837 -0.0066  0.0944 -0.0447
  232MOL0     C31903   8.194   6.672  11.888  0.1659 -0.2596 -0.3158
  232MOL0     C31904   8.105   6.770  11.927  0.1092 -0.8714  0.6423
  232MOL0     C31905   8.146   6.890  11.986 -0.4413  0.0426  0.6413
  232MOL0     C31906   8.027   6.974  12.024  0.2828 -0.0785 -0.4292
  232MOL0     C31907   8.283   6.927  11.994  0.3508  0.9616 -0.1352
  232MOL0     C31908   8.325   7.065  12.029 -0.5409  0.2838 -0.8424
  232MOL0     O31909   8.250   7.151  12.117  0.4986  0.5647  0.7767
  232MOL0     C31910   8.278   7.289  12.122  0.2043  0.3445 -0.2333
  232MOL0     C31911   8.292   7.373  12.005 -0.1254  0.3022  0.3780
  232MOL0     C31912   8.328   7.503  12.024  0.0770  0.4461 -0.5612
  232MOL0     C31913   8.371   7.555  12.154  0.2168  0.2001  0.7851
  232MOL0     O31914   8.411   7.685  12.168  0.3019  0.3551  0.3579
  232MOL0     C31915   8.370   7.793  12.075  0.1487  0.6434  0.3771
  232MOL0     C31916   8.408   7.927  12.141  0.4554  0.1024 -0.3159
  232MOL0     C31917   8.554   7.962  12.112  0.6354 -0.1569  0.9463
  232MOL0     C31918   8.613   8.056  12.209 -0.1916 -0.5542 -0.2365
  232MOL0     C31919   8.761   8.102  12.181  0.1359  0.3427  0.3827
  232MOL0     C31920   8.765   8.189  12.060  0.3521 -0.3536 -0.4935
  232MOL0     C31921   8.892   8.264  12.055 -0.7461 -0.1724  0.1867
  232MOL0     C31922   8.984   8.225  11.953 -0.4636 -0.2530  0.0426
  232MOL0    Cl31923   8.926   8.288  11.797 -0.0705  0.0158 -0.4617
  232MOL0     C31924   8.345   7.473  12.267  0.4085 -0.2307 -0.1819
  232MOL0     C31925   8.300   7.342  12.253 -0.3884 -0.1346 -0.1918
  232MOL0     O31926   8.433   7.092  11.973 -0.4298  0.0165  0.2552
  232MOL0     C31927   8.372   6.830  11.945 -0.5988  0.1629 -0.7109
  232MOL0     C31928   8.331   6.708  11.897  0.3745  0.7349  0.2276
  232MOL0     N31929   7.877   5.976  11.850 -0.1769  0.9642  0.7861
  232MOL0     N31930   7.755   5.950  11.804 -0.1629 -0.6392  0.1211
  232MOL0     C31931   7.116   6.553  10.943  0.5893  0.0900 -0.2207
  232MOL0     C31932   7.027   6.655  10.995 -0.9983  0.3937 -0.6979
  232MOL0     C31933   7.115   6.805  11.319 -0.1219  0.4111  0.7881
  232MOL0     C31934   7.224   6.808  11.232  0.0578  1.2346  0.6981
  232MOL0     C31935   7.354   6.772  11.274  0.7833  0.0399  0.0535
  232MOL0     C31936   7.382   6.748  11.407  0.9925  0.2569 -0.4602
  232MOL0     O31937   7.511   6.720  11.458 -0.6210  0.1396  0.4867
  232MOL0     C31938   7.611   6.673  11.364 -0.2452 -0.2599 -0.2278
  232MOL0     C31939   7.598   6.525  11.332  0.2189 -0.1158  1.0025
  232MOL0     C31940   7.581   6.434  11.453  0.4110 -0.0399  1.0196
  232MOL0     C31941   7.707   6.434  11.538 -0.2422 -0.7913 -0.4051
  232MOL0     C31942   7.838   6.429  11.465 -0.7049 -0.5987 -0.2052
  232MOL0     C31943   7.947   6.424  11.419  0.2410  0.0436 -1.1011
  232MOL0     C31944   7.284   6.757  11.502  0.7767 -0.3026 -0.4460
  232MOL0     C31945   7.152   6.800  11.461 -0.2718 -0.4224  1.0630
  232MOL0     C31946   7.066   6.860  11.568 -0.1223  0.8237 -0.1086
  232MOL0     H31947   6.962   6.519  11.298  0.8417 -0.0296  0.3036
  232MOL0     H31948   7.148   6.365  11.220  1.2768 -0.7417 -2.3857
  232MOL0     H31949   7.138   6.214  10.879 -1.4679 -0.4641  2.0569
  232MOL0     H31950   7.188   6.179  11.047  1.4255 -1.3306 -0.1152
  232MOL0     H31951   7.299   6.058  10.886 -0.7985  0.4283 -1.8648
  232MOL0     H31952   7.369   6.207  10.815  1.7439 -1.1108 -0.8415
  232MOL0     H31953   7.540   6.091  10.973  0.2150  0.1317  0.1685
  232MOL0     H31954   7.490   6.245  11.031 -1.6089  0.4611  0.0997
  232MOL0     H31955   7.349   6.147  11.214 -2.2546 -2.2231 -0.6548
  232MOL0     H31956   7.375   5.987  11.144 -0.0162 -0.1578  0.1565
  232MOL0     H31957   7.599   6.174  11.245 -0.3531 -0.3246  3.3437
  232MOL0     H31958   7.618   6.000  11.185  0.4571 -0.2144 -0.0449
  232MOL0     H31959   7.467   6.103  11.428  0.3919 -0.2225 -0.5595
  232MOL0     H31960   7.479   5.931  11.380  1.5961 -1.3316 -1.4286
  232MOL0     H31961   7.703   6.136  11.452  0.2548 -0.7991  0.7755
  232MOL0     H31962   7.743   5.971  11.394  0.9879 -3.3961  3.3094
  232MOL0     H31963   7.553   5.995  11.627  0.0680 -0.1626 -0.4666
  232MOL0     H31964   7.645   5.863  11.561 -2.7151  0.4096 -2.5466
  232MOL0     H31965   7.905   6.143  11.574  0.2038  1.7241  1.9133
  232MOL0     H31966   8.140   6.125  11.721  0.4064  0.3901  1.0470
  232MOL0     H31967   8.130   6.049  11.878 -1.5385 -1.7331 -0.5386
  232MOL0     H31968   8.000   6.268  11.963  1.2910  1.1948  2.2719
  232MOL0     H31969   8.167   6.287  11.916  1.1487 -0.5714 -1.4556
  232MOL0     H31970   8.093   6.352  11.678  0.5721  1.0796  1.1194
  232MOL0     H31971   7.925   6.337  11.728  0.5133  0.2679 -1.7274
  232MOL0     H31972   7.979   6.569  11.752 -1.6288 -1.1121  0.4022
  232MOL0     H31973   7.982   6.513  11.915  0.7394 -2.0835  0.4598
  232MOL0     H31974   7.999   6.755  11.910 -0.0204  0.3724  0.2578
  232MOL0     H31975   7.930   6.936  11.991  0.5653 -0.0847 -1.2856
  232MOL0     H31976   8.040   7.072  11.977  4.9111 -1.4803 -2.7138
  232MOL0     H31977   8.032   6.978  12.133  0.8331  2.1218 -0.4865
  232MOL0     H31978   8.271   7.322  11.912 -0.5142 -3.6086  2.4086
  232MOL0     H31979   8.335   7.562  11.933 -2.1801 -1.6761 -2.2008
  232MOL0     H31980   8.423   7.784  11.979 -1.4338 -2.1661 -0.3723
  232MOL0     H31981   8.264   7.794  12.048  0.8819  3.5917 -3.2340
  232MOL0     H31982   8.350   8.001  12.086 -0.9649 -0.5360  0.2710
  232MOL0     H31983   8.390   7.926  12.249  0.4391 -0.3982 -0.3202
  232MOL0     H31984   8.557   8.013  12.016 -1.1583  2.0631  1.9819
  232MOL0     H31985   8.613   7.869  12.111  3.5168  1.4901 -2.4320
  232MOL0     H31986   8.616   8.007  12.307  0.1366  0.1986  0.1298
  232MOL0     H31987   8.547   8.143  12.218  0.0189 -0.4605  0.4219
  232MOL0     H31988   8.796   8.141  12.277 -0.2572  1.1138  0.2174
  232MOL0     H31989   8.821   8.015  12.154 -1.0862  0.3020 -2.6127
  232MOL0     H31990   8.681   8.259  12.071 -0.4331 -1.6854  5.7282
  232MOL0     H31991   8.755   8.121  11.975 -1.8451 -2.3658  1.2291
  232MOL0     H31992   8.949   8.239  12.145 -4.4804 -1.0392  2.5462
  232MOL0     H31993   8.861   8.369  12.051 -1.4173 -0.3390  0.7716
  232MOL0     H31994   8.998   8.116  11.950  2.7883 -0.2350  4.4488
  232MOL0     H31995   9.086   8.260  11.971 -0.8482  0.7067  0.3733
  232MOL0     H31996   8.360   7.510  12.368  2.2112  0.7963 -0.7759
  232MOL0     H31997   8.284   7.277  12.339 -1.9241 -2.7039 -2.2716
  232MOL0     H31998   8.479   6.844  11.954 -0.7239  0.5417  0.3225
  232MOL0     H31999   8.409   6.645  11.855 -1.3589  0.0559 -2.2391
  232MOL0     H32000   7.144   6.563  10.838 -1.4667  2.3717 -0.6482
  232MOL0     H32001   6.996   6.735  10.929  0.1736  0.3132 -1.3672
  232MOL0     H32002   7.195   6.824  11.128 -2.1095 -1.7776  0.7169
  232MOL0     H32003   7.425   6.778  11.192  0.4273 -0.1568 -0.2726
  232MOL0     H32004   7.608   6.724  11.267 -0.0761 -0.0651 -0.1332
  232MOL0     H32005   7.704   6.687  11.419 -1.8388 -2.2405  3.3156
  232MOL0     H32006   7.680   6.496  11.265 -0.7710  1.3395 -0.9324
  232MOL0     H32007   7.512   6.511  11.267  1.0804 -1.9498  0.1736
  232MOL0     H32008   7.496   6.467  11.514 -1.0100  0.4062 -1.1183
  232MOL0     H32009   7.566   6.330  11.423 -2.0686 -0.1279  2.3516
  232MOL0     H32010   7.713   6.348  11.606  3.4963 -2.1635 -2.2036
  232MOL0     H32011   7.709   6.511  11.616  3.2318 -0.4198 -0.6914
  232MOL0     H32012   8.044   6.422  11.375  0.8070  0.6734  0.0706
  232MOL0     H32013   7.305   6.753  11.608 -1.8615 -2.4425  0.1023
  232MOL0     H32014   6.963   6.826  11.554 -1.2496  2.4747  3.1953
  232MOL0     H32015   7.102   6.840  11.670 -1.0722 -1.2467 -0.1221
  232MOL0     H32016   7.060   6.969  11.569 -3.9389  0.7404 -0.1295
  233MOL0     O32017   9.085   9.763   5.283  1.0054  0.3830  0.4509
  233MOL0     C32018   9.087   9.640   5.266 -0.1418  1.1628  0.5187
  233MOL0     O32019   9.188   9.559   5.314  0.4013  0.6317  0.6527
  233MOL0     C32020   9.286   9.623   5.377  0.1137  0.4332  0.2263
  233MOL0     C32021   9.388   9.692   5.309 -0.4638 -0.1603  0.6288
  233MOL0     C32022   9.497   9.751   5.387 -0.1360  0.0468  0.7740
  233MOL0     C32023   9.497   9.741   5.518 -0.0768 -0.8381 -0.7471
  233MOL0     O32024   9.608   9.776   5.590  0.3765 -0.2899  0.4781
  233MOL0     C32025   9.665   9.701   5.703 -0.8720  0.5041  0.4367
  233MOL0     C32026   9.818   9.712   5.698 -0.2579 -0.5916  0.0615
  233MOL0     C32027   9.874   9.833   5.766 -0.6051 -0.8551  0.1817
  233MOL0     C32028  10.034   9.832   5.759 -0.2448 -0.0675  0.4535
  233MOL0     C32029  10.111   9.944   5.828  1.1714  0.1210 -0.5288
  233MOL0     C32030  10.258   9.925   5.836 -0.1267 -0.2354 -0.0149
  233MOL0     C32031  10.313   9.846   5.951 -0.6951  0.2455  0.2694
  233MOL0     C32032  10.471   9.837   5.935 -0.5816 -0.7062 -0.2970
  233MOL0     N32033  10.555   9.772   6.040  0.1720 -0.3911 -0.3808
  233MOL0     C32034  10.502   9.678   6.124 -0.2240  0.3349  0.3852
  233MOL0     C32035  10.613   9.639   6.193  1.0083  0.7386 -0.9762
  233MOL0     C32036  10.619   9.532   6.298  0.7389  0.9576  1.0427
  233MOL0     C32037  10.699   9.414   6.232  0.2531  0.1159  0.1699
  233MOL0     C32038  10.630   9.347   6.106 -0.2384 -0.5173 -0.0251
  233MOL0     C32039  10.700   9.228   6.046  0.7705 -0.4011  0.1825
  233MOL0     O32040  10.823   9.261   5.990 -0.4786  0.4853 -0.1968
  233MOL0     C32041  10.888   9.156   5.918 -0.9534 -0.1242  0.0090
  233MOL0     C32042  11.010   9.195   5.856  0.3002 -0.0715 -0.2648
  233MOL0     C32043  11.087   9.107   5.772  0.6598 -0.0973  0.2380
  233MOL0     C32044  11.208   9.167   5.705 -0.2265 -0.4378 -0.1292
  233MOL0     C32045  11.046   8.963   5.759  0.4718  0.4813  0.8178
  233MOL0     C32046  11.110   8.863   5.673  0.9872  0.6959  0.3003
  233MOL0     O32047  11.044   8.734   5.668  0.5318  0.0770  0.5987
  233MOL0     C32048  11.113   8.635   5.612 -0.5125  0.7006  0.4143
  233MOL0     C32049  11.166   8.644   5.480  0.0388 -0.4898  0.2633
  233MOL0     C32050  11.233   8.536   5.425 -0.2318 -0.0011 -0.2350
  233MOL0     C32051  11.249   8.418   5.498  0.3978 -0.3142  0.0695
  233MOL0     O32052  11.307   8.321   5.413  0.4788  0.4934  0.0366
  233MOL0     C32053  11.336   8.194   5.482 -0.5975 -0.1753 -0.2298
  233MOL0     C32054  11.454   8.125   5.410  0.4435 -0.3564 -0.5237
  233MOL0     C32055  11.580   8.213   5.445 -0.5518  0.2999 -0.4959
  233MOL0     C32056  11.703   8.138   5.388  0.2152  0.0200  0.6204
  233MOL0     C32057  11.826   8.220   5.427  0.0951 -0.3131  0.1080
  233MOL0     C32058  11.832   8.345   5.327 -0.1460  0.9007 -1.1325
  233MOL0     C32059  11.950   8.433   5.368  0.3244 -0.2897 -0.0360
  233MOL0     C32060  11.968   8.564   5.277 -0.0391  1.6059 -0.0752
  233MOL0    Cl32061  12.127   8.638   5.303  0.2288  0.3749 -0.2612
  233MOL0     C32062  11.192   8.404   5.623  0.1250 -0.3290 -1.0608
  233MOL0     C32063  11.127   8.515   5.672  0.9499  0.1786 -0.4905
  233MOL0     O32064  11.224   8.883   5.625 -0.3319 -0.4854 -0.5196
  233MOL0     C32065  10.921   8.926   5.830 -0.6123  0.3987 -0.0574
  233MOL0     C32066  10.852   9.017   5.907  0.5212 -0.7176  0.1904
  233MOL0     N32067  10.716   9.726   6.156 -0.0745 -0.5170 -0.4293
  233MOL0     N32068  10.678   9.812   6.067 -0.5780 -0.1982 -0.2095
  233MOL0     C32069   9.381   9.698   5.584  0.3812  0.4952  0.5183
  233MOL0     C32070   9.285   9.632   5.510  0.4528 -0.5807 -0.8192
  233MOL0     C32071   8.974   9.576   5.201  0.3662 -0.8876 -0.1973
  233MOL0     C32072   8.990   9.447   5.154  0.2162  0.4292  1.1720
  233MOL0     C32073   8.881   9.388   5.086 -0.7826 -0.8023  0.5680
  233MOL0     C32074   8.754   9.449   5.081 -0.7376  0.1866 -0.2870
  233MOL0     O32075   8.660   9.380   5.010 -0.0464 -0.2055  0.5839
  233MOL0     C32076   8.535   9.445   4.967 -0.0961  0.6729  0.0354
  233MOL0     C32077   8.464   9.361   4.861 -0.2899 -0.1444  0.6986
  233MOL0     C32078   8.521   9.409   4.720  0.3116  0.0039  0.1053
  233MOL0     C32079   8.424   9.357   4.611  0.1501  0.3252 -0.7455
  233MOL0     C32080   8.479   9.377   4.477  0.1466  0.2154 -0.1032
  233MOL0     C32081   8.535   9.395   4.371 -0.3049  0.1953 -0.1800
  233MOL0     C32082   8.738   9.573   5.142  0.1784 -0.0057  0.0406
  233MOL0     C32083   8.844   9.637   5.199 -0.2216  0.4695 -0.1380
  233MOL0     C32084   8.801   9.780   5.246 -0.8150  0.1060  0.9374
  233MOL0     H32085   9.390   9.694   5.200 -1.3526 -0.6030  0.5913
  233MOL0     H32086   9.572   9.797   5.323 -0.5992 -1.7311 -1.1625
  233MOL0     H32087   9.631   9.597   5.705 -3.0595  1.1456 -0.5401
  233MOL0     H32088   9.623   9.741   5.796  1.1301  2.7723  0.4455
  233MOL0     H32089   9.855   9.626   5.754  0.9258 -0.3062 -0.2572
  233MOL0     H32090   9.858   9.707   5.596  0.8371  2.5675  0.2276
  233MOL0     H32091   9.831   9.922   5.719 -2.0274 -2.2194 -1.2301
  233MOL0     H32092   9.841   9.835   5.870 -1.6065 -2.7189 -0.0497
  233MOL0     H32093  10.068   9.734   5.794  1.5995  0.3850  0.0533
  233MOL0     H32094  10.060   9.830   5.653 -0.1082  0.3275  0.4767
  233MOL0     H32095  10.073   9.949   5.930 -0.3316  1.0878 -1.0952
  233MOL0     H32096  10.081  10.042   5.789 -2.6444 -0.6604  0.0269
  233MOL0     H32097  10.287   9.877   5.742  1.4291 -1.2792  0.9501
  233MOL0     H32098  10.309  10.022   5.838 -0.3698 -0.0920 -0.5408
  233MOL0     H32099  10.274   9.743   5.954 -0.2311  0.0849  1.8725
  233MOL0     H32100  10.291   9.893   6.047 -0.4620 -0.6265  0.7642
  233MOL0     H32101  10.483   9.785   5.839 -2.1023  0.1225 -0.9701
  233MOL0     H32102  10.522   9.934   5.926 -1.8240 -0.1644 -1.8695
  233MOL0     H32103  10.396   9.655   6.123 -0.7523  2.5155  1.0601
  233MOL0     H32104  10.516   9.499   6.316  0.7863  0.8637  1.1405
  233MOL0     H32105  10.661   9.579   6.387  1.4286  1.3679  0.5072
  233MOL0     H32106  10.799   9.455   6.217 -0.8765  3.3586  0.5130
  233MOL0     H32107  10.715   9.330   6.300  3.0332  0.0065 -0.5117
  233MOL0     H32108  10.529   9.330   6.145 -0.8901  1.7861 -0.5921
  233MOL0     H32109  10.615   9.424   6.030 -1.3464  0.4818  1.1778
  233MOL0     H32110  10.713   9.154   6.125 -0.3974  2.0559  2.8672
  233MOL0     H32111  10.637   9.182   5.969  0.1207 -0.6901  0.8767
  233MOL0     H32112  11.046   9.297   5.866  0.3824 -0.2090  0.9463
  233MOL0     H32113  11.284   9.089   5.692  0.4095 -0.1130  1.4808
  233MOL0     H32114  11.242   9.252   5.764  1.0331 -0.6876 -0.4683
  233MOL0     H32115  11.176   9.212   5.611  1.0118  3.4935  1.1618
  233MOL0     H32116  11.162   8.735   5.421  0.5001 -2.0586 -2.3750
  233MOL0     H32117  11.263   8.540   5.321  2.7370  0.4855  0.5535
  233MOL0     H32118  11.370   8.196   5.586  3.0223 -0.5976 -1.2714
  233MOL0     H32119  11.244   8.134   5.480 -2.1862  2.1706 -1.7391
  233MOL0     H32120  11.465   8.027   5.458  1.5046  0.8008  1.7262
  233MOL0     H32121  11.418   8.106   5.309  0.2747 -0.1850 -0.4960
  233MOL0     H32122  11.591   8.219   5.554  2.2168  0.9785 -0.7544
  233MOL0     H32123  11.573   8.317   5.413  2.9324  0.3534 -1.4315
  233MOL0     H32124  11.688   8.138   5.279  1.6128 -0.6815  0.4080
  233MOL0     H32125  11.710   8.031   5.411  2.3079 -0.1649 -0.6044
  233MOL0     H32126  11.827   8.254   5.531  2.1658 -1.6549  0.5846
  233MOL0     H32127  11.916   8.165   5.398  0.9416  2.2807 -2.6614
  233MOL0     H32128  11.742   8.406   5.340 -0.6503  0.0435 -0.4182
  233MOL0     H32129  11.837   8.324   5.220 -3.0754 -0.8211 -1.0327
  233MOL0     H32130  12.039   8.369   5.362 -0.0779 -0.7129 -2.6984
  233MOL0     H32131  11.939   8.466   5.471  0.9198 -0.1110 -0.0235
  233MOL0     H32132  11.883   8.625   5.310 -1.3468 -0.9938  1.6814
  233MOL0     H32133  11.952   8.527   5.176  0.3134 -3.0318  1.3354
  233MOL0     H32134  11.196   8.311   5.678 -1.1694 -0.0653 -0.4826
  233MOL0     H32135  11.092   8.509   5.775  0.4357  0.9449 -0.6182
  233MOL0     H32136  10.870   8.834   5.806 -2.6675  1.6282 -0.6682
  233MOL0     H32137  10.761   8.985   5.957 -1.1499  1.3980 -1.2713
  233MOL0     H32138   9.366   9.693   5.692 -0.1484 -1.1366  0.3919
  233MOL0     H32139   9.196   9.588   5.554  0.3368 -0.4080 -0.8825
  233MOL0     H32140   9.082   9.391   5.141 -0.8271 -0.9528 -0.7018
  233MOL0     H32141   8.886   9.284   5.056 -1.9182 -0.1914 -2.0007
  233MOL0     H32142   8.474   9.448   5.058  1.1132  0.8794  0.8679
  233MOL0     H32143   8.558   9.547   4.933  0.7106  0.5545  0.2032
  233MOL0     H32144   8.358   9.381   4.882 -0.1916 -0.4809  1.5525
  233MOL0     H32145   8.482   9.254   4.879  1.9920  0.0490 -0.1499
  233MOL0     H32146   8.514   9.519   4.725 -1.8483 -0.1495  1.5227
  233MOL0     H32147   8.626   9.385   4.703  0.5546  2.2916 -2.4918
  233MOL0     H32148   8.327   9.405   4.625  0.9673  1.4295  1.4611
  233MOL0     H32149   8.407   9.249   4.621  5.3231 -1.2119 -4.4343
  233MOL0     H32150   8.573   9.406   4.271 -0.3759  1.3486 -0.0883
  233MOL0     H32151   8.641   9.620   5.127 -0.8363 -1.5215  1.5373
  233MOL0     H32152   8.692   9.781   5.251 -1.1805 -0.7962 -3.2906
  233MOL0     H32153   8.850   9.827   5.332  0.7144 -1.2543  0.8757
  233MOL0     H32154   8.826   9.842   5.160 -1.0971 -0.4807  0.4261
  234MOL0     O32155   2.628   3.729   1.549 -0.1069 -0.4205 -0.2312
  234MOL0     C32156   2.659   3.719   1.667  0.2840 -0.1023  0.3621
  234MOL0     O32157   2.792   3.703   1.707  0.7264  0.3683 -0.5050
  234MOL0     C32158   2.821   3.696   1.841  0.4878 -0.7658 -0.3166
  234MOL0     C32159   2.905   3.794   1.896  0.6688 -0.1407  0.7049
  234MOL0     C32160   2.942   3.799   2.033  0.0487 -0.2757  0.5996
  234MOL0     C32161   2.905   3.698   2.117 -0.4119 -0.2706 -0.7546
  234MOL0     O32162   2.953   3.705   2.246 -0.1133 -0.3487 -0.1125
  234MOL0     C32163   2.999   3.580   2.293 -0.1927 -0.1082  0.4616
  234MOL0     C32164   3.094   3.580   2.417 -0.3610 -0.0019  0.0112
  234MOL0     C32165   3.172   3.711   2.421 -0.5653  0.7781 -0.6357
  234MOL0     C32166   3.261   3.738   2.301  1.2608 -0.1060  0.2686
  234MOL0     C32167   3.315   3.885   2.309  0.3969 -0.9282  0.6257
  234MOL0     C32168   3.446   3.919   2.242 -0.3901  0.0518  0.4065
  234MOL0     C32169   3.430   3.921   2.087 -0.0619  0.6440 -0.9149
  234MOL0     C32170   3.467   3.779   2.024  0.1548 -0.3641 -0.3056
  234MOL0     N32171   3.393   3.746   1.899 -0.4916 -0.0643  0.4229
  234MOL0     C32172   3.262   3.713   1.880  0.3789 -0.1320  0.9356
  234MOL0     C32173   3.257   3.690   1.748 -0.5354  0.1441  1.1736
  234MOL0     C32174   3.133   3.639   1.688  0.4160  0.1173 -0.1318
  234MOL0     C32175   3.094   3.509   1.746 -0.2617  0.6010  0.5400
  234MOL0     C32176   3.188   3.391   1.698  0.7124 -0.7290  1.2957
  234MOL0     C32177   3.182   3.269   1.795 -0.1328  0.4943  0.5752
  234MOL0     O32178   3.203   3.295   1.932 -0.8777 -0.3903  0.9915
  234MOL0     C32179   3.332   3.338   1.979  0.0490 -0.8659 -0.2144
  234MOL0     C32180   3.452   3.347   1.907 -0.3163 -0.7670 -0.4764
  234MOL0     C32181   3.565   3.402   1.972  0.4752  0.5436 -0.3522
  234MOL0     C32182   3.685   3.435   1.885  0.1179 -0.0651 -0.4870
  234MOL0     C32183   3.550   3.437   2.100 -0.4981 -0.5053 -0.6456
  234MOL0     C32184   3.669   3.486   2.172  0.9181  0.4095 -0.0565
  234MOL0     O32185   3.717   3.600   2.150  0.1923 -0.0638  0.2536
  234MOL0     C32186   3.804   3.662   2.238  0.5232 -0.1406 -0.5657
  234MOL0     C32187   3.805   3.801   2.231  0.1912 -0.3748  0.1872
  234MOL0     C32188   3.909   3.879   2.297  0.6704  0.3136  0.2396
  234MOL0     C32189   4.000   3.825   2.380 -0.1986  0.9229 -0.3050
  234MOL0     O32190   4.096   3.916   2.424  0.1381  0.0870 -0.2529
  234MOL0     C32191   4.096   3.930   2.567  0.2728  0.3048  0.3936
  234MOL0     C32192   4.191   4.047   2.597  0.1044 -0.1293 -0.0883
  234MOL0     C32193   4.195   4.058   2.746  0.1467  0.0323 -0.7652
  234MOL0     C32194   4.270   4.187   2.777 -0.6330 -0.7185 -0.5925
  234MOL0     C32195   4.278   4.220   2.924  0.2883 -0.4691  0.6273
  234MOL0     C32196   4.374   4.133   3.005 -0.3536 -0.9721  0.5047
  234MOL0     C32197   4.343   4.157   3.160 -0.2367  0.9431  0.8444
  234MOL0     C32198   4.346   4.025   3.248 -0.6894  0.4287 -0.4742
  234MOL0    Cl32199   4.483   3.921   3.209 -0.2372  0.0814  0.1944
  234MOL0     C32200   3.992   3.686   2.408  0.1325 -0.0280  0.9958
  234MOL0     C32201   3.894   3.607   2.338  0.3052  0.9961  0.4194
  234MOL0     O32202   3.716   3.402   2.245  0.1933 -0.3512 -0.0703
  234MOL0     C32203   3.438   3.428   2.172  0.5399  0.8397  0.2402
  234MOL0     C32204   3.320   3.376   2.115 -0.2850  0.2690  0.4776
  234MOL0     N32205   3.376   3.718   1.689 -0.8161  1.0434 -0.0936
  234MOL0     N32206   3.457   3.756   1.776 -0.1129  0.8609 -0.7510
  234MOL0     C32207   2.825   3.594   2.061 -0.4035 -1.2429 -0.3889
  234MOL0     C32208   2.789   3.591   1.924 -0.1025 -0.6757 -0.1879
  234MOL0     C32209   2.549   3.725   1.763 -0.2724  0.2802 -0.2072
  234MOL0     C32210   2.541   3.840   1.851  0.3251  0.3249 -0.1596
  234MOL0     C32211   2.448   3.845   1.942 -0.0209  0.7181 -0.0724
  234MOL0     C32212   2.352   3.745   1.965  0.5727  0.0674  0.1292
  234MOL0     O32213   2.257   3.775   2.063 -0.7434 -0.4057  0.4306
  234MOL0     C32214   2.150   3.848   2.004  0.6440 -0.2145  0.5343
  234MOL0     C32215   2.021   3.784   2.054  0.1861  0.1588 -0.2963
  234MOL0     C32216   1.900   3.857   2.012  1.1955 -0.1030 -0.2666
  234MOL0     C32217   1.778   3.768   2.035  0.1197 -0.0397  0.1103
  234MOL0     C32218   1.664   3.833   1.981 -0.2342  0.3198  0.1055
  234MOL0     C32219   1.571   3.881   1.924  0.4004 -1.1085 -0.1874
  234MOL0     C32220   2.344   3.642   1.872  0.1932  0.9183  0.3453
  234MOL0     C32221   2.442   3.629   1.773  1.7435 -0.1193  0.3234
  234MOL0     C32222   2.420   3.517   1.674  0.5840 -0.4373 -0.2161
  234MOL0     H32223   2.941   3.876   1.835 -1.1664  1.2846  1.4472
  234MOL0     H32224   3.010   3.879   2.060  3.1646 -2.1487 -0.9937
  234MOL0     H32225   3.066   3.544   2.213  0.5931  2.2629 -0.0247
  234MOL0     H32226   2.920   3.506   2.307 -0.7343  0.1047 -1.1929
  234MOL0     H32227   3.040   3.551   2.508 -3.0116  2.2181 -0.6968
  234MOL0     H32228   3.168   3.501   2.404 -1.6460 -1.4660  1.2819
  234MOL0     H32229   3.106   3.795   2.446 -1.0422  0.8502 -2.0462
  234MOL0     H32230   3.234   3.707   2.511 -0.9780  1.5939 -0.3041
  234MOL0     H32231   3.342   3.665   2.308  1.1103 -0.0643  3.7208
  234MOL0     H32232   3.195   3.719   2.215 -0.1616 -1.1658  1.5360
  234MOL0     H32233   3.320   3.907   2.416  1.1214 -2.1939  0.8671
  234MOL0     H32234   3.239   3.948   2.262 -2.3486 -5.1884 -1.2806
  234MOL0     H32235   3.468   4.022   2.269  0.0622  0.5552 -1.6892
  234MOL0     H32236   3.523   3.845   2.266 -2.6286 -2.3715  0.5407
  234MOL0     H32237   3.493   4.002   2.050 -0.2491  0.2870 -2.0627
  234MOL0     H32238   3.327   3.942   2.055 -0.5310 -4.0815 -3.3709
  234MOL0     H32239   3.575   3.773   2.007 -0.0334 -4.0743 -0.9719
  234MOL0     H32240   3.428   3.708   2.097 -1.1471  0.5478 -0.0682
  234MOL0     H32241   3.189   3.685   1.955 -1.2949  2.1289  0.2687
  234MOL0     H32242   3.153   3.610   1.584 -0.6350 -1.7509  0.1281
  234MOL0     H32243   3.054   3.714   1.692 -0.6082 -1.0031  1.8215
  234MOL0     H32244   3.092   3.503   1.855  2.1661 -1.5449  0.5683
  234MOL0     H32245   2.994   3.475   1.718 -0.9787  2.5775  0.5560
  234MOL0     H32246   3.149   3.366   1.599  0.0033 -1.2214  1.6843
  234MOL0     H32247   3.291   3.426   1.698  1.1111 -1.8455  0.5629
  234MOL0     H32248   3.087   3.219   1.774  1.3061 -2.3433  0.3679
  234MOL0     H32249   3.258   3.199   1.760 -2.0022 -0.9446 -0.8010
  234MOL0     H32250   3.447   3.324   1.801 -1.5943  1.3643 -0.9607
  234MOL0     H32251   3.784   3.429   1.931 -0.0054  0.1348 -0.1890
  234MOL0     H32252   3.672   3.537   1.850  2.9127  0.7911  0.7117
  234MOL0     H32253   3.685   3.364   1.802  0.4588  0.1095 -0.6364
  234MOL0     H32254   3.745   3.854   2.158  1.8678  0.1897 -0.8465
  234MOL0     H32255   3.921   3.981   2.261 -2.5900  0.2542 -1.3766
  234MOL0     H32256   3.997   3.951   2.608  0.9163  0.0947  2.1375
  234MOL0     H32257   4.149   3.844   2.608  1.0575 -0.5241 -2.1656
  234MOL0     H32258   4.294   4.018   2.570  1.1198  0.9490  2.3082
  234MOL0     H32259   4.149   4.137   2.552 -4.7568 -2.3025 -0.4927
  234MOL0     H32260   4.247   3.973   2.793  1.6111 -0.2465 -2.7456
  234MOL0     H32261   4.093   4.054   2.785  0.3110 -1.2044 -0.4200
  234MOL0     H32262   4.230   4.273   2.721  0.2720  0.9332  1.1721
  234MOL0     H32263   4.368   4.179   2.730 -0.0163  1.0091  0.3237
  234MOL0     H32264   4.309   4.324   2.938  0.0412  0.1481 -2.5994
  234MOL0     H32265   4.172   4.218   2.953  0.6128  1.9036  2.2644
  234MOL0     H32266   4.475   4.164   2.979 -1.3921  3.4514  0.8699
  234MOL0     H32267   4.361   4.029   2.975  0.0655 -0.9229  0.1420
  234MOL0     H32268   4.237   4.182   3.157 -0.0684  1.5672 -1.4238
  234MOL0     H32269   4.401   4.244   3.191  1.1348  0.7010 -0.8841
  234MOL0     H32270   4.256   3.964   3.244  0.8021 -2.0924  1.3589
  234MOL0     H32271   4.355   4.067   3.348  1.2587 -1.7067  0.3467
  234MOL0     H32272   4.071   3.642   2.469 -0.2321  0.4501  1.8399
  234MOL0     H32273   3.908   3.500   2.335  2.7899  1.2669  0.3515
  234MOL0     H32274   3.432   3.451   2.278 -0.8384 -0.8726  0.5968
  234MOL0     H32275   3.223   3.360   2.159 -1.4519 -1.9713 -2.5308
  234MOL0     H32276   2.815   3.498   2.109  0.1407 -0.9429  0.3505
  234MOL0     H32277   2.728   3.508   1.891 -0.5664  0.1552 -1.4662
  234MOL0     H32278   2.616   3.919   1.846  1.8866 -1.0912  0.2402
  234MOL0     H32279   2.436   3.931   2.007 -0.2664  0.8095 -0.2381
  234MOL0     H32280   2.156   3.953   2.034  0.4261 -0.3051  0.8896
  234MOL0     H32281   2.148   3.850   1.894 -0.7386  0.9501  0.5467
  234MOL0     H32282   2.032   3.795   2.162  1.5208  2.4971 -0.5934
  234MOL0     H32283   2.021   3.677   2.032  0.3088 -0.1427  1.0624
  234MOL0     H32284   1.893   3.952   2.067  2.6415 -2.2294  4.0016
  234MOL0     H32285   1.904   3.875   1.904  3.5876  1.9347  0.0819
  234MOL0     H32286   1.765   3.753   2.142 -0.9728  0.4912  0.0623
  234MOL0     H32287   1.783   3.674   1.979 -0.5043 -1.3350  2.1460
  234MOL0     H32288   1.481   3.912   1.875 -1.2773  0.0913  3.3137
  234MOL0     H32289   2.250   3.587   1.870 -0.9195  2.5346  2.9190
  234MOL0     H32290   2.510   3.455   1.670  1.5433  0.9451 -0.3896
  234MOL0     H32291   2.336   3.456   1.709  1.4061 -2.0118 -0.8721
  234MOL0     H32292   2.392   3.562   1.578 -3.4401  2.2263  1.9242
  235MOL0     O32293   0.951   1.843   7.607 -0.3643  0.7117  1.2350
  235MOL0     C32294   0.955   1.964   7.582 -0.3988 -0.1668 -0.7355
  235MOL0     O32295   1.063   2.025   7.528 -0.1692 -0.5356 -0.2444
  235MOL0     C32296   1.181   1.958   7.518  0.0172 -0.0917 -0.1196
  235MOL0     C32297   1.296   2.015   7.575 -0.1735  0.5984 -0.6543
  235MOL0     C32298   1.419   1.955   7.551 -0.9581  0.1359  0.2035
  235MOL0     C32299   1.434   1.833   7.487  0.1591  0.0696  0.4319
  235MOL0     O32300   1.559   1.779   7.469  0.0354 -0.5426 -0.7861
  235MOL0     C32301   1.574   1.645   7.428  0.1928 -0.0995  0.7030
  235MOL0     C32302   1.578   1.659   7.272 -0.0808  0.7477  0.3005
  235MOL0     C32303   1.634   1.530   7.199  0.0073 -0.2602 -0.2139
  235MOL0     C32304   1.779   1.494   7.242  0.1092 -0.2431 -0.8829
  235MOL0     C32305   1.823   1.369   7.178 -0.7538  0.2788  0.1728
  235MOL0     C32306   1.967   1.339   7.219 -1.2184  0.1138  0.9095
  235MOL0     C32307   2.017   1.203   7.169  0.5845  0.2379 -0.6560
  235MOL0     C32308   2.163   1.170   7.216 -0.0080 -0.3923  0.2595
  235MOL0     N32309   2.176   1.166   7.364 -0.2810 -0.4361  0.4777
  235MOL0     C32310   2.121   1.067   7.443 -0.2826 -0.4449  0.0083
  235MOL0     C32311   2.170   1.089   7.568  0.9075 -0.7189 -0.3296
  235MOL0     C32312   2.155   1.019   7.700  0.2020  0.9718  0.6513
  235MOL0     C32313   2.265   0.925   7.753 -0.1674  0.9536  0.9292
  235MOL0     C32314   2.339   0.845   7.639 -0.1362 -0.2246 -0.2495
  235MOL0     C32315   2.249   0.730   7.584  0.0082 -0.1786 -0.5523
  235MOL0     O32316   2.328   0.653   7.494 -0.4619  0.2308 -0.4085
  235MOL0     C32317   2.293   0.526   7.459  1.4581  0.2523  0.1967
  235MOL0     C32318   2.391   0.448   7.391 -0.1396 -0.1406 -0.3624
  235MOL0     C32319   2.364   0.322   7.338 -0.3701  0.5918  2.2528
  235MOL0     C32320   2.480   0.235   7.282 -0.1107  0.5606 -0.0002
  235MOL0     C32321   2.236   0.269   7.353 -0.0950  0.4700  1.0390
  235MOL0     C32322   2.196   0.134   7.306 -0.2874  0.5169 -0.4855
  235MOL0     O32323   2.115   0.060   7.384 -0.0930  1.2687  0.9768
  235MOL0     C32324   2.066  -0.062   7.341 -0.0270 -0.1330  0.9521
  235MOL0     C32325   1.975  -0.063   7.235  0.6461  0.1207  1.0518
  235MOL0     C32326   1.907  -0.184   7.211 -0.1438 -0.1812 -0.6204
  235MOL0     C32327   1.959  -0.306   7.266 -0.4601 -0.2071 -0.9459
  235MOL0     O32328   1.920  -0.432   7.239 -0.7146  0.5789 -0.5562
  235MOL0     C32329   1.930  -0.464   7.097 -0.0545  0.6219 -0.3237
  235MOL0     C32330   1.906  -0.614   7.084  0.7556 -0.4887  0.2636
  235MOL0     C32331   1.904  -0.634   6.923  0.2623 -0.1308  0.0012
  235MOL0     C32332   1.886  -0.767   6.869  0.3373  1.0338  0.8351
  235MOL0     C32333   1.759  -0.844   6.923 -0.2576  0.1945  0.7287
  235MOL0     C32334   1.729  -0.968   6.839 -0.4810 -0.0431 -0.5934
  235MOL0     C32335   1.606  -1.052   6.886 -0.3513  0.0309  0.5883
  235MOL0     C32336   1.489  -1.060   6.779 -0.4216  0.3992  0.0788
  235MOL0    Cl32337   1.390  -0.915   6.794 -0.1397 -0.0829 -0.3989
  235MOL0     C32338   2.062  -0.300   7.356  0.1783 -0.6801  0.0700
  235MOL0     C32339   2.112  -0.176   7.394 -0.2201 -0.3976 -0.9494
  235MOL0     O32340   2.223   0.107   7.190  0.2231  0.2217 -0.1647
  235MOL0     C32341   2.138   0.342   7.429  0.3866 -0.2421 -0.0777
  235MOL0     C32342   2.171   0.469   7.486 -0.2254  0.7459 -0.4525
  235MOL0     N32343   2.263   1.188   7.556  0.1113 -0.5193 -0.3449
  235MOL0     N32344   2.266   1.238   7.438 -0.3387  0.4301  0.2649
  235MOL0     C32345   1.313   1.781   7.434 -0.1998  0.9922 -0.5758
  235MOL0     C32346   1.189   1.840   7.447 -0.7165  0.5253 -0.3215
  235MOL0     C32347   0.830   2.043   7.607  0.1444 -0.0674 -0.0584
  235MOL0     C32348   0.716   1.967   7.615  0.0828 -0.4391  0.3135
  235MOL0     C32349   0.594   2.024   7.645  0.5789  0.6766  0.9210
  235MOL0     C32350   0.579   2.157   7.678  0.0949 -0.8603  0.7794
  235MOL0     O32351   0.455   2.197   7.713  0.1899 -0.6916 -0.4257
  235MOL0     C32352   0.435   2.334   7.746 -0.2543  0.2872 -0.4829
  235MOL0     C32353   0.287   2.343   7.803 -0.5726 -0.0563 -0.7470
  235MOL0     C32354   0.221   2.478   7.830 -0.5868 -0.0355  0.1154
  235MOL0     C32355   0.133   2.538   7.722 -0.0083  0.7024 -0.2216
  235MOL0     C32356   0.130   2.688   7.746 -0.3857 -0.0359  0.1746
  235MOL0     C32357   0.110   2.804   7.772  0.7640  0.5548  0.5047
  235MOL0     C32358   0.701   2.234   7.688  0.9268 -0.5955 -0.0500
  235MOL0     C32359   0.827   2.182   7.656 -0.8530 -0.2134  0.2435
  235MOL0     C32360   0.961   2.270   7.681  0.2633  0.6969  0.3353
  235MOL0     H32361   1.284   2.104   7.636 -0.8940  0.8350 -1.1237
  235MOL0     H32362   1.502   2.020   7.576 -1.0902  0.0852  0.7713
  235MOL0     H32363   1.484   1.591   7.459 -0.5137 -0.4365 -1.7619
  235MOL0     H32364   1.672   1.611   7.463  0.6026  0.1631 -0.1619
  235MOL0     H32365   1.478   1.688   7.239  0.2219 -0.2232 -1.5865
  235MOL0     H32366   1.639   1.745   7.244  1.4232  0.0396  1.2484
  235MOL0     H32367   1.569   1.444   7.216  0.8188 -0.8856 -0.1558
  235MOL0     H32368   1.639   1.542   7.090 -1.1688 -3.4039 -0.7344
  235MOL0     H32369   1.853   1.574   7.227 -0.0316  0.6466  2.3220
  235MOL0     H32370   1.790   1.478   7.350 -0.7159 -0.1076 -0.7737
  235MOL0     H32371   1.820   1.392   7.071  0.5840  1.6023  0.3833
  235MOL0     H32372   1.753   1.288   7.198 -1.3456  0.1897 -2.0183
  235MOL0     H32373   2.036   1.414   7.179 -0.7148  0.3670  2.2296
  235MOL0     H32374   1.973   1.336   7.328  0.1443  1.9898  0.9290
  235MOL0     H32375   2.010   1.206   7.060 -1.1156 -0.1545 -0.5805
  235MOL0     H32376   1.952   1.120   7.198 -1.9568  1.5859 -2.1073
  235MOL0     H32377   2.210   1.080   7.174  3.4009  0.5726  1.6108
  235MOL0     H32378   2.231   1.253   7.196 -0.8411  0.6890  1.7577
  235MOL0     H32379   2.042   0.999   7.414 -0.3844 -0.5174  0.4497
  235MOL0     H32380   2.060   0.965   7.693  0.0495  0.5324  4.1201
  235MOL0     H32381   2.147   1.074   7.794 -0.2036  1.2515  0.4544
  235MOL0     H32382   2.341   0.995   7.788 -0.8291  2.6367 -0.8411
  235MOL0     H32383   2.230   0.861   7.834 -0.4856  3.4648  2.9052
  235MOL0     H32384   2.363   0.916   7.559  0.3325  1.0606  1.0024
  235MOL0     H32385   2.429   0.797   7.675 -0.5479 -1.2771 -0.5817
  235MOL0     H32386   2.220   0.669   7.670  0.5360  1.4848  0.8662
  235MOL0     H32387   2.159   0.765   7.532  0.0050 -1.2717 -1.3013
  235MOL0     H32388   2.487   0.497   7.377 -1.6677  2.6032 -2.2455
  235MOL0     H32389   2.575   0.288   7.295  0.2185  0.7198 -2.5441
  235MOL0     H32390   2.465   0.215   7.175 -1.1820  1.4755 -0.0250
  235MOL0     H32391   2.479   0.143   7.342 -2.8960  1.0627  0.8577
  235MOL0     H32392   1.944   0.029   7.186  0.1788 -0.5854  0.0087
  235MOL0     H32393   1.816  -0.203   7.155 -1.3085 -0.0469  1.1529
  235MOL0     H32394   1.848  -0.411   7.049 -2.6797 -1.8495  1.0903
  235MOL0     H32395   2.026  -0.434   7.055 -0.1380  0.4823 -0.6182
  235MOL0     H32396   1.985  -0.673   7.132 -0.3922 -0.3360  2.4855
  235MOL0     H32397   1.808  -0.637   7.127 -0.3843  2.1218 -0.7174
  235MOL0     H32398   1.983  -0.586   6.865  0.7779 -0.7623  0.1724
  235MOL0     H32399   1.819  -0.571   6.893 -0.3801 -0.8799  0.2299
  235MOL0     H32400   1.979  -0.823   6.872  0.8294  1.7489 -0.4558
  235MOL0     H32401   1.861  -0.758   6.763 -1.8287 -0.5174  1.1424
  235MOL0     H32402   1.795  -0.877   7.021  4.8724 -2.0917 -1.5314
  235MOL0     H32403   1.669  -0.783   6.927 -0.6593 -0.3398  0.0848
  235MOL0     H32404   1.814  -1.036   6.843 -1.1037 -0.8146 -0.0872
  235MOL0     H32405   1.702  -0.945   6.735 -2.2295 -0.7124 -0.3163
  235MOL0     H32406   1.563  -1.018   6.980 -0.6363 -0.4522  0.6320
  235MOL0     H32407   1.639  -1.155   6.902 -2.1351 -0.1434  3.8311
  235MOL0     H32408   1.421  -1.142   6.803 -0.4978  0.0093 -1.3428
  235MOL0     H32409   1.537  -1.090   6.686 -3.0179 -1.0835 -0.9004
  235MOL0     H32410   2.114  -0.391   7.382 -0.8800 -2.1596 -2.6114
  235MOL0     H32411   2.182  -0.176   7.477 -0.8661 -3.9687 -0.2063
  235MOL0     H32412   2.033   0.314   7.438 -0.4560  2.0480 -1.8094
  235MOL0     H32413   2.098   0.522   7.546 -0.7285 -0.3576 -0.0656
  235MOL0     H32414   1.313   1.689   7.375  0.8145  2.4615 -3.0362
  235MOL0     H32415   1.106   1.801   7.389 -0.3629  0.7076 -0.9485
  235MOL0     H32416   0.718   1.859   7.604 -2.4358 -0.4460 -1.0241
  235MOL0     H32417   0.518   1.947   7.654  2.4210 -1.6011 -1.6444
  235MOL0     H32418   0.505   2.370   7.821 -0.7949 -1.1588  0.7606
  235MOL0     H32419   0.454   2.397   7.658 -0.2077 -0.8937 -1.3424
  235MOL0     H32420   0.297   2.291   7.898  3.2180  1.2449 -0.2837
  235MOL0     H32421   0.216   2.294   7.734  1.4951 -0.9723 -2.3281
  235MOL0     H32422   0.165   2.463   7.922 -1.7356 -2.0657 -0.8244
  235MOL0     H32423   0.307   2.543   7.844 -2.2259  2.5244 -0.9966
  235MOL0     H32424   0.034   2.494   7.730  0.6116 -0.5628  0.8234
  235MOL0     H32425   0.179   2.531   7.623 -0.8997  1.0612 -0.6736
  235MOL0     H32426   0.096   2.907   7.796  0.6573  0.7671 -0.4522
  235MOL0     H32427   0.700   2.336   7.724  0.4155 -1.4343  2.5328
  235MOL0     H32428   1.017   2.224   7.763 -0.9781  0.7234  1.2251
  235MOL0     H32429   1.011   2.268   7.584 -0.2909  0.6278  0.0510
  235MOL0     H32430   0.920   2.369   7.702 -4.4736 -1.1771  1.1278
  236MOL0     O32431   3.799   4.203  10.374 -0.0081 -0.0959  0.9329
  236MOL0     C32432   3.791   4.185  10.494 -0.1718  0.0996 -0.0582
  236MOL0     O32433   3.887   4.118  10.568 -0.3551 -0.2681  0.3664
  236MOL0     C32434   3.992   4.060  10.506 -0.6813  0.2194 -0.2525
  236MOL0     C32435   4.116   4.130  10.501 -0.4241 -0.1258 -0.3321
  236MOL0     C32436   4.227   4.065  10.453 -0.1416  0.1797 -0.6309
  236MOL0     C32437   4.218   3.926  10.421  0.1456 -0.1668 -0.2185
  236MOL0     O32438   4.333   3.860  10.404 -0.3271  0.0245 -0.2441
  236MOL0     C32439   4.346   3.720  10.403 -0.1331  0.1839 -0.1756
  236MOL0     C32440   4.500   3.689  10.423  0.1301  1.5477  0.0906
  236MOL0     C32441   4.529   3.536  10.414  1.0033 -0.2860 -0.0657
  236MOL0     C32442   4.635   3.490  10.512 -0.7943 -0.6491 -0.0976
  236MOL0     C32443   4.695   3.352  10.490 -0.1608  0.9600 -0.5931
  236MOL0     C32444   4.592   3.238  10.518 -0.8701  0.0174 -0.4095
  236MOL0     C32445   4.637   3.107  10.448  0.2945 -0.8226  0.1204
  236MOL0     C32446   4.754   3.039  10.516 -0.7385  0.0871 -0.2707
  236MOL0     N32447   4.795   2.930  10.428  0.3456 -0.2011 -1.4390
  236MOL0     C32448   4.870   2.823  10.478  0.0965  0.7188 -0.3770
  236MOL0     C32449   4.907   2.750  10.368  0.0442 -0.0846  0.2341
  236MOL0     C32450   4.988   2.627  10.362  0.2498  0.1061 -0.1575
  236MOL0     C32451   5.070   2.596  10.490  0.3408  0.0417 -0.2670
  236MOL0     C32452   5.190   2.694  10.516 -0.7740  0.2228 -0.2337
  236MOL0     C32453   5.264   2.692  10.654  0.1184 -0.0262  0.1019
  236MOL0     O32454   5.179   2.691  10.771  0.4318 -0.7511  0.0676
  236MOL0     C32455   5.090   2.793  10.804 -0.3553  0.0007  0.2562
  236MOL0     C32456   4.997   2.747  10.896 -0.2657  0.5833 -0.0048
  236MOL0     C32457   4.894   2.819  10.944  0.4658 -0.2328  0.9556
  236MOL0     C32458   4.822   2.746  11.058  0.7625  0.4743 -0.5636
  236MOL0     C32459   4.884   2.967  10.908 -0.3951  0.2910 -0.0398
  236MOL0     C32460   4.782   3.065  10.942  0.6994 -0.4823 -0.1144
  236MOL0     O32461   4.705   3.023  11.051 -0.0037  0.3730  0.5376
  236MOL0     C32462   4.612   3.111  11.103  0.4651 -0.7282  0.2214
  236MOL0     C32463   4.626   3.244  11.129  0.0690  0.2081 -0.6688
  236MOL0     C32464   4.531   3.324  11.192  0.1197  0.0056 -0.6408
  236MOL0     C32465   4.403   3.271  11.223 -0.8417 -0.1069 -0.2377
  236MOL0     O32466   4.296   3.335  11.271 -0.5600 -0.5657 -0.4938
  236MOL0     C32467   4.310   3.478  11.297 -0.3229 -0.3042 -0.0160
  236MOL0     C32468   4.160   3.533  11.315  0.2186  0.1434  0.2557
  236MOL0     C32469   4.153   3.688  11.335  0.7291 -0.5088  0.3430
  236MOL0     C32470   4.235   3.769  11.222 -0.0853 -0.0665 -0.1055
  236MOL0     C32471   4.217   3.922  11.223  0.2019 -0.0335  0.3690
  236MOL0     C32472   4.236   3.976  11.361 -0.8749  1.1232  0.3191
  236MOL0     C32473   4.240   4.135  11.376  0.3943 -0.4013 -0.1988
  236MOL0     C32474   4.373   4.202  11.336  0.2509 -0.1685 -0.2415
  236MOL0    Cl32475   4.513   4.152  11.439  0.3981 -0.1763 -0.0538
  236MOL0     C32476   4.378   3.134  11.183 -0.9294 -0.4079  0.1141
  236MOL0     C32477   4.485   3.056  11.140  0.7261  0.2211  0.9330
  236MOL0     O32478   4.770   3.174  10.887 -0.0650  0.4200 -0.4469
  236MOL0     C32479   4.991   3.013  10.821  0.9033 -0.0922 -0.1414
  236MOL0     C32480   5.083   2.926  10.764  0.6573  0.3886 -0.1929
  236MOL0     N32481   4.860   2.819  10.256  0.0803 -0.6917 -0.1541
  236MOL0     N32482   4.788   2.922  10.293 -0.2683  0.1093  0.1702
  236MOL0     C32483   4.095   3.850  10.431 -0.9126 -0.6025  0.0671
  236MOL0     C32484   3.978   3.926  10.473 -0.3791  0.3092 -0.3355
  236MOL0     C32485   3.658   4.225  10.557 -0.3738 -0.1838  0.0809
  236MOL0     C32486   3.558   4.297  10.482 -0.1860  1.0767  0.5276
  236MOL0     C32487   3.446   4.342  10.547 -0.3453  0.4341 -0.0201
  236MOL0     C32488   3.415   4.301  10.674  0.6776 -0.2258 -0.3634
  236MOL0     O32489   3.293   4.306  10.736  0.9953 -0.1947 -0.3265
  236MOL0     C32490   3.196   4.389  10.674  0.7365 -0.7607  0.3716
  236MOL0     C32491   3.067   4.392  10.756 -0.1262 -0.3367 -0.0180
  236MOL0     C32492   2.997   4.256  10.772  0.1012  0.3157 -0.0162
  236MOL0     C32493   2.880   4.272  10.869 -0.6402  0.1134  1.0550
  236MOL0     C32494   2.773   4.359  10.828 -0.0590 -0.1925  0.4942
  236MOL0     C32495   2.682   4.421  10.787  0.1920 -0.0787  0.3237
  236MOL0     C32496   3.509   4.224  10.745  0.6048  0.0320  0.2914
  236MOL0     C32497   3.633   4.196  10.699  0.1243  0.6381 -0.6387
  236MOL0     C32498   3.711   4.108  10.797 -0.5444  0.3335  0.0842
  236MOL0     H32499   4.123   4.238  10.512  1.2290 -0.3454  1.1156
  236MOL0     H32500   4.324   4.111  10.437 -0.3572  1.6241  1.7313
  236MOL0     H32501   4.327   3.698  10.298  0.8678 -0.7062 -0.1760
  236MOL0     H32502   4.281   3.668  10.474 -1.2208  1.3823 -0.2478
  236MOL0     H32503   4.557   3.747  10.350 -1.0350  1.6655 -0.7651
  236MOL0     H32504   4.527   3.710  10.527 -0.7149  1.3280  0.3665
  236MOL0     H32505   4.447   3.470  10.443  2.5190 -2.1099  0.2515
  236MOL0     H32506   4.556   3.501  10.313  0.5197 -2.8307  0.6186
  236MOL0     H32507   4.719   3.560  10.505 -2.8706  2.0698  0.7563
  236MOL0     H32508   4.595   3.492  10.614  2.0468 -0.6397  1.1116
  236MOL0     H32509   4.781   3.337  10.556 -0.7914 -1.1565 -0.1837
  236MOL0     H32510   4.738   3.355  10.389  2.2917 -0.6616  0.3131
  236MOL0     H32511   4.589   3.232  10.627  3.2189  1.9277  0.0011
  236MOL0     H32512   4.492   3.267  10.486 -1.3267 -0.1857  0.7652
  236MOL0     H32513   4.673   3.135  10.349  3.6533  0.1102  1.4223
  236MOL0     H32514   4.551   3.042  10.432  0.4658 -0.6857 -1.4851
  236MOL0     H32515   4.836   3.111  10.524  2.1741 -2.6875 -2.3299
  236MOL0     H32516   4.723   3.001  10.614 -2.7311  1.7592 -0.1931
  236MOL0     H32517   4.910   2.813  10.579  0.7478  2.9660 -0.3530
  236MOL0     H32518   5.061   2.643  10.282 -0.1645 -2.4108 -1.1331
  236MOL0     H32519   4.926   2.543  10.332  0.5900 -0.2379  0.0967
  236MOL0     H32520   5.000   2.585  10.573 -2.6453  3.4138 -2.0295
  236MOL0     H32521   5.112   2.499  10.464 -3.1238 -2.1232  1.4627
  236MOL0     H32522   5.259   2.675  10.433 -0.0647 -0.5444  0.5153
  236MOL0     H32523   5.154   2.794  10.489 -1.3706  0.0374 -0.1435
  236MOL0     H32524   5.327   2.604  10.670 -1.0801 -0.4752  3.0233
  236MOL0     H32525   5.320   2.785  10.662 -0.0575  0.1741 -0.9071
  236MOL0     H32526   5.008   2.641  10.915  0.8077  0.6501 -0.1893
  236MOL0     H32527   4.715   2.764  11.048  0.6630  0.5859  0.5692
  236MOL0     H32528   4.858   2.785  11.154  2.1418  0.9868 -1.2700
  236MOL0     H32529   4.820   2.637  11.057  0.1332  0.4507  0.6199
  236MOL0     H32530   4.723   3.282  11.101  1.0212 -0.2571  1.7988
  236MOL0     H32531   4.560   3.422  11.227  1.7809 -0.5066 -0.4689
  236MOL0     H32532   4.365   3.508  11.387  0.8360 -1.4071 -0.3172
  236MOL0     H32533   4.355   3.525  11.209 -3.7679  2.1054 -0.6667
  236MOL0     H32534   4.095   3.503  11.232  0.1310 -3.0003  1.3177
  236MOL0     H32535   4.119   3.476  11.399 -1.2095 -1.8472 -1.6815
  236MOL0     H32536   4.181   3.711  11.438 -1.9446 -3.7083  1.9871
  236MOL0     H32537   4.048   3.719  11.335  0.9303  0.2010  1.1478
  236MOL0     H32538   4.219   3.734  11.119  2.0568 -1.2896 -0.0959
  236MOL0     H32539   4.340   3.756  11.249 -0.3667 -0.4626  0.8251
  236MOL0     H32540   4.295   3.967  11.160  4.0729 -0.5946  4.2403
  236MOL0     H32541   4.122   3.948  11.176  1.0499 -3.6854 -4.1316
  236MOL0     H32542   4.330   3.942  11.406 -1.8967  0.4030  2.0323
  236MOL0     H32543   4.155   3.930  11.419 -1.7997  0.2234 -1.5965
  236MOL0     H32544   4.231   4.158  11.483  0.2696 -0.8608 -0.1040
  236MOL0     H32545   4.153   4.176  11.324  1.1685  1.4532 -0.1147
  236MOL0     H32546   4.362   4.311  11.340 -1.1750 -0.2895 -0.2225
  236MOL0     H32547   4.391   4.173  11.232 -1.3688  0.5075 -0.7515
  236MOL0     H32548   4.287   3.081  11.209 -0.5182 -0.7443  0.9004
  236MOL0     H32549   4.461   2.953  11.115  0.2905  0.4825  0.2626
  236MOL0     H32550   4.994   3.118  10.793 -2.4381  0.7547  2.0571
  236MOL0     H32551   5.161   2.966  10.699  0.9741  0.4405  0.2149
  236MOL0     H32552   4.101   3.743  10.413 -1.2810 -0.4860 -0.8066
  236MOL0     H32553   3.883   3.873  10.482  1.4658 -3.4027 -0.8842
  236MOL0     H32554   3.571   4.318  10.376 -0.1763 -2.2128 -0.2172
  236MOL0     H32555   3.376   4.400  10.488 -1.8540 -0.5319  0.7804
  236MOL0     H32556   3.238   4.490  10.670 -0.7218 -0.1589 -1.8015
  236MOL0     H32557   3.165   4.353  10.576 -1.9373 -0.7372  1.1050
  236MOL0     H32558   2.991   4.466  10.729 -0.1272 -0.3857 -0.1496
  236MOL0     H32559   3.098   4.424  10.856  4.2341  0.6444 -1.4632
  236MOL0     H32560   2.958   4.227  10.674  0.8613  2.7592 -1.1136
  236MOL0     H32561   3.062   4.180  10.818 -1.3130 -0.4599  0.7821
  236MOL0     H32562   2.925   4.308  10.962  1.0054  1.9653 -0.3673
  236MOL0     H32563   2.837   4.171  10.871  0.4205 -0.3713  0.4695
  236MOL0     H32564   2.588   4.456  10.747  0.8042  0.9914 -0.2170
  236MOL0     H32565   3.483   4.179  10.841 -0.2258 -0.3095 -0.0826
  236MOL0     H32566   3.737   4.011  10.753  1.0053  0.0512  1.4994
  236MOL0     H32567   3.804   4.158  10.826  0.4046 -3.6610  5.4110
  236MOL0     H32568   3.653   4.081  10.885 -0.5811  1.2999  0.3666
  237MOL0     O32569   1.205   4.096   7.343  0.1474 -0.0378  0.5073
  237MOL0     C32570   1.206   4.177   7.249  0.6307 -0.0578  0.0503
  237MOL0     O32571   1.129   4.179   7.141 -0.5611  0.7680 -0.1532
  237MOL0     C32572   1.039   4.068   7.113 -0.2176 -0.0535  0.0034
  237MOL0     C32573   0.906   4.077   7.148 -0.7360 -0.7269 -0.4521
  237MOL0     C32574   0.823   3.976   7.104 -0.6359  0.2383  0.0845
  237MOL0     C32575   0.867   3.867   7.025 -0.1304 -0.2559 -0.2882
  237MOL0     O32576   0.790   3.765   6.967  0.6387  0.0406  0.0449
  237MOL0     C32577   0.650   3.742   7.008  0.5897 -0.5932 -0.4623
  237MOL0     C32578   0.554   3.842   6.938  0.7593  0.4521 -0.2305
  237MOL0     C32579   0.571   3.826   6.784 -0.9467 -0.1648 -0.4943
  237MOL0     C32580   0.501   3.938   6.698  0.2988 -0.3283 -0.6540
  237MOL0     C32581   0.521   3.915   6.551 -0.2137 -0.2216  0.3249
  237MOL0     C32582   0.433   4.013   6.464  1.0021  0.4062 -0.5205
  237MOL0     C32583   0.410   3.958   6.326  0.5716  0.3093  0.2225
  237MOL0     C32584   0.313   4.055   6.251 -0.0710  0.2594 -0.6881
  237MOL0     N32585   0.329   4.043   6.100 -0.0469  0.9162  0.3202
  237MOL0     C32586   0.232   3.988   6.016  0.0670  0.4442 -0.3446
  237MOL0     C32587   0.284   4.000   5.885 -0.9585  0.1081 -0.5392
  237MOL0     C32588   0.215   3.956   5.757  0.3803 -0.5956 -0.2838
  237MOL0     C32589   0.262   3.821   5.714  0.1323  1.1185 -0.0927
  237MOL0     C32590   0.397   3.825   5.637 -0.1991  0.1947 -0.1330
  237MOL0     C32591   0.434   3.678   5.601 -0.0476  0.4069  0.4965
  237MOL0     O32592   0.556   3.674   5.516 -0.2545 -0.1829 -0.0673
  237MOL0     C32593   0.679   3.705   5.566  0.0534 -0.5383  0.0436
  237MOL0     C32594   0.781   3.729   5.471 -0.4027  0.1452 -0.3739
  237MOL0     C32595   0.916   3.753   5.513  0.4198  0.1146  0.1403
  237MOL0     C32596   1.019   3.756   5.408 -0.1199  0.3898  0.5701
  237MOL0     C32597   0.953   3.739   5.643 -0.3711 -1.1620  0.9184
  237MOL0     C32598   1.093   3.757   5.689  0.2805 -0.9109  0.0521
  237MOL0     O32599   1.108   3.712   5.816  0.1175  0.0760 -0.1820
  237MOL0     C32600   1.235   3.701   5.874 -0.3749 -0.0764 -0.3701
  237MOL0     C32601   1.301   3.576   5.880  0.2620  1.0903 -0.2569
  237MOL0     C32602   1.427   3.568   5.929 -0.9654 -0.0916 -0.4652
  237MOL0     C32603   1.496   3.677   5.974 -0.6995 -0.2605  0.8345
  237MOL0     O32604   1.617   3.649   6.032  0.1107  0.4346  0.6779
  237MOL0     C32605   1.718   3.746   6.019 -0.9590 -0.3602  0.2198
  237MOL0     C32606   1.849   3.675   6.063 -0.0879 -0.1851 -0.5355
  237MOL0     C32607   1.872   3.682   6.214  0.7104 -0.3968 -0.4991
  237MOL0     C32608   1.998   3.633   6.282  0.9963 -0.9949  0.8051
  237MOL0     C32609   1.997   3.652   6.435  0.1826 -0.6032 -0.3365
  237MOL0     C32610   2.126   3.620   6.506 -0.4224 -0.6590 -0.0771
  237MOL0     C32611   2.168   3.482   6.485  0.4684 -0.2099 -0.2695
  237MOL0     C32612   2.282   3.438   6.575  0.3952 -0.6150  0.7748
  237MOL0    Cl32613   2.360   3.292   6.525 -0.2328  0.0265  0.2781
  237MOL0     C32614   1.435   3.805   5.976 -0.3172 -0.2987 -0.5044
  237MOL0     C32615   1.300   3.814   5.932 -0.7182 -0.1936 -0.3332
  237MOL0     O32616   1.181   3.818   5.630 -0.1622 -0.3380  0.3637
  237MOL0     C32617   0.853   3.727   5.740 -0.3753 -0.1859  0.0238
  237MOL0     C32618   0.715   3.714   5.700  0.5601  0.7203 -0.1009
  237MOL0     N32619   0.400   4.080   5.890 -0.4215 -0.4583 -0.1227
  237MOL0     N32620   0.416   4.111   6.016  0.8054  0.0538  0.1795
  237MOL0     C32621   1.003   3.867   6.985 -0.1033  0.9430 -0.8255
  237MOL0     C32622   1.086   3.968   7.024 -0.3058 -0.6218  0.5446
  237MOL0     C32623   1.300   4.288   7.270 -0.1779 -0.2960 -0.4497
  237MOL0     C32624   1.250   4.417   7.281 -0.1439 -0.0214  0.3592
  237MOL0     C32625   1.339   4.521   7.303 -0.3667 -0.1793 -0.5842
  237MOL0     C32626   1.480   4.500   7.319 -0.4428  0.2841 -0.3872
  237MOL0     O32627   1.575   4.595   7.356 -0.3349  0.2031  0.1000
  237MOL0     C32628   1.577   4.727   7.302  0.5063 -0.0051 -0.0551
  237MOL0     C32629   1.636   4.733   7.160 -0.1011 -0.9466  0.1281
  237MOL0     C32630   1.766   4.661   7.162 -0.3544 -0.6802 -0.9549
  237MOL0     C32631   1.882   4.724   7.241 -0.2593 -0.7003  0.8749
  237MOL0     C32632   1.998   4.640   7.241 -1.3098  0.3217 -0.7662
  237MOL0     C32633   2.098   4.572   7.244  1.0855 -0.8050 -1.2499
  237MOL0     C32634   1.533   4.372   7.319 -0.3241  0.0640 -0.5180
  237MOL0     C32635   1.439   4.268   7.294  0.6253 -0.1062  0.5168
  237MOL0     C32636   1.505   4.139   7.265 -0.0200  0.0293  0.8905
  237MOL0     H32637   0.875   4.160   7.210 -3.2400 -3.1723  1.8723
  237MOL0     H32638   0.721   3.989   7.140 -0.3897  5.6692 -0.3926
  237MOL0     H32639   0.647   3.748   7.117 -3.3586 -4.3745 -0.0944
  237MOL0     H32640   0.622   3.639   6.986 -1.0903 -0.5863  1.4598
  237MOL0     H32641   0.455   3.806   6.968  1.9396 -0.3387  3.2407
  237MOL0     H32642   0.563   3.947   6.967 -3.6022  1.3144 -1.2741
  237MOL0     H32643   0.676   3.814   6.754 -0.5077  1.5296  0.2599
  237MOL0     H32644   0.530   3.728   6.756 -0.6974 -0.2038 -0.7308
  237MOL0     H32645   0.393   3.932   6.717  0.3215  0.9594  0.0037
  237MOL0     H32646   0.536   4.039   6.723 -1.7158 -0.0340  1.3613
  237MOL0     H32647   0.498   3.809   6.536  1.8902 -1.1040  2.6727
  237MOL0     H32648   0.626   3.927   6.524  0.2195 -1.5541  1.2705
  237MOL0     H32649   0.337   4.054   6.498  0.0841  0.5215 -3.0209
  237MOL0     H32650   0.497   4.102   6.461  1.6196 -0.0528 -1.9482
  237MOL0     H32651   0.353   3.866   6.336 -1.8356  1.6041 -0.8427
  237MOL0     H32652   0.503   3.950   6.270  0.3980  2.5712 -0.4872
  237MOL0     H32653   0.207   4.039   6.271 -0.8319  3.1418 -1.8858
  237MOL0     H32654   0.348   4.155   6.278  3.4811 -0.6927 -1.2557
  237MOL0     H32655   0.143   3.935   6.050  0.1620  0.4057 -0.1520
  237MOL0     H32656   0.231   4.037   5.686  1.1666  1.7496  2.3641
  237MOL0     H32657   0.109   3.961   5.784 -1.0167 -2.5584 -4.4973
  237MOL0     H32658   0.260   3.741   5.789 -1.7175 -0.6293 -1.8750
  237MOL0     H32659   0.183   3.792   5.643 -0.2557 -0.1072  0.7971
  237MOL0     H32660   0.404   3.892   5.551  3.5944 -1.9357 -1.7000
  237MOL0     H32661   0.478   3.855   5.704 -1.1129 -2.1779  2.2201
  237MOL0     H32662   0.448   3.618   5.691  1.8510 -0.6055 -0.4176
  237MOL0     H32663   0.353   3.630   5.546  0.3417 -1.1680  1.2419
  237MOL0     H32664   0.761   3.730   5.365  0.3976  1.8898 -0.5545
  237MOL0     H32665   1.055   3.857   5.387  3.9561 -0.5304  2.1746
  237MOL0     H32666   0.986   3.703   5.319 -0.0488 -1.7582  1.7514
  237MOL0     H32667   1.105   3.692   5.431 -0.4061 -0.2276 -0.0192
  237MOL0     H32668   1.260   3.489   5.831  3.7746 -0.5164 -0.6346
  237MOL0     H32669   1.471   3.470   5.916 -1.4170 -0.2002 -1.2800
  237MOL0     H32670   1.733   3.781   5.917  3.9173 -0.0713  0.8293
  237MOL0     H32671   1.701   3.832   6.085  0.9868  0.0390  0.2595
  237MOL0     H32672   1.856   3.574   6.022  1.9634  1.3620 -4.5793
  237MOL0     H32673   1.934   3.727   6.016  1.6407 -2.9842 -0.7105
  237MOL0     H32674   1.791   3.629   6.263  0.7969  0.7351  0.9077
  237MOL0     H32675   1.862   3.783   6.253  1.0575 -2.0028  4.3422
  237MOL0     H32676   2.088   3.676   6.237  1.6047 -2.4883  0.5270
  237MOL0     H32677   1.994   3.528   6.250 -1.9212 -1.8637  3.4624
  237MOL0     H32678   1.985   3.758   6.458  2.2140 -0.6547  1.1985
  237MOL0     H32679   1.913   3.600   6.482  0.1315 -1.3610 -1.2358
  237MOL0     H32680   2.108   3.654   6.608  0.2684  0.3264 -0.2679
  237MOL0     H32681   2.203   3.674   6.451 -0.2267  0.2728  1.0747
  237MOL0     H32682   2.207   3.486   6.382 -2.4028 -1.1379 -1.5012
  237MOL0     H32683   2.088   3.408   6.497  3.1616 -2.9410  2.6409
  237MOL0     H32684   2.243   3.436   6.677 -2.0157  2.1382  0.0607
  237MOL0     H32685   2.361   3.512   6.587 -0.3590  0.3352  0.0872
  237MOL0     H32686   1.464   3.905   6.007 -1.1438  0.4275 -1.9793
  237MOL0     H32687   1.255   3.912   5.928 -3.1460 -1.2133  0.2717
  237MOL0     H32688   0.871   3.737   5.846 -0.3240 -0.6324  0.0609
  237MOL0     H32689   0.645   3.696   5.781  0.0289 -1.2072 -0.9157
  237MOL0     H32690   1.039   3.787   6.922 -1.4715  0.3867 -0.9497
  237MOL0     H32691   1.189   3.969   6.991 -0.7256  1.6643 -0.9527
  237MOL0     H32692   1.145   4.445   7.278 -0.0139  0.5695  1.1834
  237MOL0     H32693   1.305   4.624   7.308  2.3446  0.7215  2.3351
  237MOL0     H32694   1.477   4.769   7.287 -0.8378 -2.7235  0.6101
  237MOL0     H32695   1.635   4.795   7.364  3.8525 -1.9203 -0.7754
  237MOL0     H32696   1.660   4.836   7.131  3.8028 -1.6648  0.2574
  237MOL0     H32697   1.574   4.688   7.082  2.0656 -0.6712 -1.8481
  237MOL0     H32698   1.775   4.552   7.167  1.3852 -0.6839 -2.7859
  237MOL0     H32699   1.798   4.671   7.058  1.6264 -1.1813 -0.4392
  237MOL0     H32700   1.854   4.753   7.343 -3.7231  1.2617 -0.4517
  237MOL0     H32701   1.910   4.823   7.203  1.7239 -1.9064 -1.0038
  237MOL0     H32702   2.183   4.506   7.244 -0.2137 -2.6170  1.1694
  237MOL0     H32703   1.640   4.366   7.334  0.3097  3.3947 -2.5763
  237MOL0     H32704   1.434   4.071   7.217  1.9802 -1.1487 -0.5029
  237MOL0     H32705   1.596   4.140   7.206  0.5586  1.2670  1.7574
  237MOL0     H32706   1.535   4.097   7.362 -1.0431 -0.3345  1.0661
  238MOL0     O32707   8.729   8.855   4.423  0.0294  0.5551  0.3352
  238MOL0     C32708   8.615   8.861   4.371 -0.2275  0.7262 -0.5322
  238MOL0     O32709   8.581   8.875   4.239  0.1992 -0.3513 -0.2972
  238MOL0     C32710   8.671   8.946   4.167 -0.3424 -0.3503  0.1026
  238MOL0     C32711   8.694   8.908   4.033 -0.0018 -0.7859  0.8358
  238MOL0     C32712   8.771   8.987   3.941  0.1580 -0.5012 -0.4980
  238MOL0     C32713   8.841   9.097   3.983  0.2632 -0.0933  0.8704
  238MOL0     O32714   8.922   9.170   3.896 -0.5551 -0.2604  0.3879
  238MOL0     C32715   8.947   9.118   3.767 -0.5870 -0.8868 -0.1123
  238MOL0     C32716   9.062   9.204   3.698 -0.5261  0.2707 -0.3156
  238MOL0     C32717   9.050   9.350   3.724  0.4101  0.0464 -0.2929
  238MOL0     C32718   9.154   9.424   3.645  0.3815  0.5370 -0.5593
  238MOL0     C32719   9.289   9.423   3.717 -0.4010 -0.2462 -0.5892
  238MOL0     C32720   9.403   9.478   3.634 -0.0445  0.4452 -0.3617
  238MOL0     C32721   9.539   9.488   3.707 -0.4117  0.1555  0.2010
  238MOL0     C32722   9.638   9.365   3.690 -0.2024 -0.0104 -0.1846
  238MOL0     N32723   9.677   9.362   3.546  0.4825 -1.1999 -0.0916
  238MOL0     C32724   9.668   9.262   3.453  0.5165  0.3697  0.1830
  238MOL0     C32725   9.702   9.317   3.339 -0.4843  0.4951  0.1142
  238MOL0     C32726   9.725   9.252   3.206  0.6246 -0.2323 -0.0801
  238MOL0     C32727   9.811   9.132   3.191 -0.2040  0.7969 -0.4165
  238MOL0     C32728   9.945   9.145   3.246  0.2466 -0.2747  0.4722
  238MOL0     C32729  10.026   9.239   3.149 -0.2496  0.0005 -0.3058
  238MOL0     O32730  10.151   9.266   3.188 -0.5255  0.3265 -0.0304
  238MOL0     C32731  10.182   9.343   3.299  0.2080  0.4467  0.1917
  238MOL0     C32732  10.305   9.319   3.368 -0.4859 -0.5407 -0.2994
  238MOL0     C32733  10.341   9.405   3.484 -0.2250  0.2250  0.5099
  238MOL0     C32734  10.471   9.388   3.541  0.9822 -0.1849  0.6387
  238MOL0     C32735  10.249   9.502   3.533 -0.6926  0.0150  0.4207
  238MOL0     C32736  10.277   9.601   3.644 -0.6462  0.5311 -0.0423
  238MOL0     O32737  10.194   9.704   3.654  0.5031 -0.2823 -0.5307
  238MOL0     C32738  10.214   9.814   3.737 -0.8790 -0.2736 -0.1376
  238MOL0     C32739  10.105   9.872   3.796 -0.0678 -0.5198  0.1863
  238MOL0     C32740  10.110   9.991   3.881 -0.5693  0.1695  0.2189
  238MOL0     C32741  10.234  10.042   3.907 -0.6105  0.4984 -0.1768
  238MOL0     O32742  10.229  10.156   3.989 -0.7380 -0.3375 -0.3858
  238MOL0     C32743  10.357  10.221   4.018  0.0872 -0.1104 -0.2607
  238MOL0     C32744  10.437  10.153   4.135 -0.1897  0.2586 -1.2766
  238MOL0     C32745  10.580  10.198   4.154 -0.9452 -0.4723 -0.1185
  238MOL0     C32746  10.638  10.268   4.033 -0.0677  0.6311  0.3113
  238MOL0     C32747  10.783  10.312   4.060 -1.0326  0.2369  0.1411
  238MOL0     C32748  10.840  10.339   3.917 -0.0060 -0.6915 -0.1701
  238MOL0     C32749  10.807  10.482   3.862 -0.7277  0.1390 -0.4408
  238MOL0     C32750  10.865  10.517   3.725  0.1587 -0.2594 -0.2726
  238MOL0    Cl32751  10.771  10.660   3.666  0.5745 -0.4145  0.0118
  238MOL0     C32752  10.348   9.980   3.847  0.3423  0.0599  0.3655
  238MOL0     C32753  10.334   9.878   3.763 -1.3108  0.5554  0.8650
  238MOL0     O32754  10.376   9.579   3.714 -0.1567 -0.0009 -0.6040
  238MOL0     C32755  10.126   9.509   3.470 -0.2482 -0.0922  0.4744
  238MOL0     C32756  10.097   9.427   3.358  0.2068 -1.0138  0.8869
  238MOL0     N32757   9.734   9.453   3.362  0.4968  0.4922 -0.2459
  238MOL0     N32758   9.719   9.478   3.488  0.1271  0.2503 -0.7737
  238MOL0     C32759   8.811   9.143   4.108 -0.1226  0.2870 -0.5103
  238MOL0     C32760   8.728   9.073   4.196  1.2823 -0.8294 -0.6635
  238MOL0     C32761   8.503   8.817   4.456 -0.2338  0.1161 -0.0649
  238MOL0     C32762   8.395   8.740   4.395 -0.6210  0.1456  0.1166
  238MOL0     C32763   8.287   8.685   4.469 -0.1413  0.7310  0.8702
  238MOL0     C32764   8.273   8.709   4.609 -0.1643 -0.2716  0.2088
  238MOL0     O32765   8.174   8.649   4.688  0.1214  0.2592  0.1916
  238MOL0     C32766   8.084   8.550   4.636  0.0597 -0.6058  0.0601
  238MOL0     C32767   8.121   8.415   4.687 -0.0506  0.4587  0.1652
  238MOL0     C32768   8.082   8.412   4.840 -0.1531  0.0978 -0.2576
  238MOL0     C32769   8.084   8.277   4.906 -0.2965 -0.1855  0.2688
  238MOL0     C32770   8.186   8.185   4.857  0.6313 -0.2433  0.4274
  238MOL0     C32771   8.259   8.102   4.808 -0.8129  0.3545 -0.3837
  238MOL0     C32772   8.375   8.790   4.666  0.6796  0.3896 -0.5633
  238MOL0     C32773   8.492   8.844   4.600  0.3753  0.2937  0.2575
  238MOL0     C32774   8.592   8.920   4.682  0.2273 -0.5525  0.4504
  238MOL0     H32775   8.641   8.819   4.000  2.2297 -1.9459  0.1828
  238MOL0     H32776   8.768   8.945   3.840 -0.9906 -1.6548 -0.0240
  238MOL0     H32777   8.857   9.105   3.707 -1.2458 -2.6188  1.1755
  238MOL0     H32778   8.993   9.019   3.773  2.8619  0.2849 -3.0242
  238MOL0     H32779   9.160   9.168   3.730 -0.5148 -0.8683 -1.5705
  238MOL0     H32780   9.050   9.181   3.592  0.1904 -0.5191 -0.2368
  238MOL0     H32781   8.956   9.386   3.681  0.9784  0.9408 -0.8010
  238MOL0     H32782   9.052   9.382   3.829 -2.9256 -0.6812  0.1132
  238MOL0     H32783   9.166   9.373   3.549  0.6478 -1.7997  0.6571
  238MOL0     H32784   9.127   9.529   3.632  1.4748  1.3267  2.6946
  238MOL0     H32785   9.322   9.319   3.726  0.3750 -0.5309 -4.7881
  238MOL0     H32786   9.284   9.472   3.814  2.2733 -1.6526  0.3772
  238MOL0     H32787   9.420   9.423   3.541  1.1903 -0.3605  0.3120
  238MOL0     H32788   9.374   9.582   3.618 -3.1091 -0.0845  0.9849
  238MOL0     H32789   9.530   9.500   3.815  1.4129 -2.6619  0.7757
  238MOL0     H32790   9.586   9.578   3.666 -3.0128  1.8758  0.7999
  238MOL0     H32791   9.729   9.375   3.749 -1.4854 -2.3623  2.4035
  238MOL0     H32792   9.584   9.274   3.717 -0.9217  0.8084  1.2289
  238MOL0     H32793   9.649   9.159   3.483 -0.1450  0.4341 -0.0065
  238MOL0     H32794   9.765   9.330   3.140  1.0789 -2.4077 -2.5349
  238MOL0     H32795   9.622   9.231   3.175 -0.7682  1.0870  3.1772
  238MOL0     H32796   9.759   9.048   3.238 -4.9654  3.3596 -0.4417
  238MOL0     H32797   9.814   9.104   3.086  1.3101 -0.1197 -0.1678
  238MOL0     H32798   9.944   9.183   3.349  0.7419 -1.9639  1.1354
  238MOL0     H32799   9.990   9.046   3.253 -2.0661 -1.4053  0.2551
  238MOL0     H32800  10.024   9.199   3.048  0.0667  0.5714 -0.5410
  238MOL0     H32801   9.984   9.338   3.131 -1.8880 -0.6726 -0.3835
  238MOL0     H32802  10.377   9.250   3.325  0.5980 -0.9122  1.9870
  238MOL0     H32803  10.536   9.475   3.528  0.5376 -0.0879 -1.1301
  238MOL0     H32804  10.525   9.306   3.493  0.9083 -1.3519  2.4441
  238MOL0     H32805  10.451   9.358   3.644 -1.9621 -1.7778 -0.2841
  238MOL0     H32806  10.007   9.828   3.785 -2.2570  3.1831  2.6994
  238MOL0     H32807  10.019  10.031   3.925 -1.9626 -3.1136  0.5734
  238MOL0     H32808  10.419  10.226   3.928 -1.2310 -2.4177 -1.3917
  238MOL0     H32809  10.344  10.326   4.043 -0.5482  0.6555 -3.3996
  238MOL0     H32810  10.392  10.170   4.233  0.6798 -1.6454 -0.4875
  238MOL0     H32811  10.440  10.044   4.127  1.6710 -0.1307  2.3951
  238MOL0     H32812  10.645  10.117   4.187 -0.7667  0.0928  0.9696
  238MOL0     H32813  10.578  10.277   4.230 -1.0908 -0.5752 -0.0161
  238MOL0     H32814  10.588  10.362   4.009 -0.3135  1.2170  2.8603
  238MOL0     H32815  10.637  10.196   3.950  1.9884 -1.5071  1.9820
  238MOL0     H32816  10.789  10.390   4.136  6.0853 -0.5184  1.0101
  238MOL0     H32817  10.833  10.222   4.097 -1.5613 -1.2881 -2.5801
  238MOL0     H32818  10.809  10.260   3.848  2.3178 -0.1881 -1.9268
  238MOL0     H32819  10.947  10.316   3.925  0.3202  0.2376 -1.5171
  238MOL0     H32820  10.842  10.556   3.934  0.7238 -1.0870  0.1782
  238MOL0     H32821  10.699  10.498   3.856 -0.8268  1.2411  2.6507
  238MOL0     H32822  10.856  10.445   3.643  1.4881  1.2001 -1.7646
  238MOL0     H32823  10.971  10.543   3.731 -0.5501  2.6645  2.0222
  238MOL0     H32824  10.445  10.028   3.859  0.3917 -0.4597  2.4978
  238MOL0     H32825  10.426   9.845   3.714 -2.5404 -1.3137 -0.3065
  238MOL0     H32826  10.058   9.588   3.499 -0.5093 -0.8969  2.1620
  238MOL0     H32827  10.006   9.453   3.305  1.8518  2.0453 -0.7047
  238MOL0     H32828   8.860   9.236   4.136  0.9637 -1.0308  2.4011
  238MOL0     H32829   8.727   9.124   4.292  2.0724  1.7598 -1.9333
  238MOL0     H32830   8.405   8.714   4.290  2.3884 -3.9426  1.1285
  238MOL0     H32831   8.224   8.619   4.411 -0.0385 -0.3618  1.9774
  238MOL0     H32832   7.981   8.574   4.664 -0.6299 -2.2440 -0.9013
  238MOL0     H32833   8.090   8.546   4.527  2.4247  2.6347 -0.0916
  238MOL0     H32834   8.227   8.398   4.664  0.1037  1.1013  0.3813
  238MOL0     H32835   8.065   8.337   4.634 -0.8597 -0.7899  2.6996
  238MOL0     H32836   8.142   8.478   4.903 -3.3922  2.2158  0.8534
  238MOL0     H32837   7.982   8.456   4.847 -0.4916 -0.8954  1.6593
  238MOL0     H32838   7.989   8.233   4.875  0.3608 -2.6497  1.5005
  238MOL0     H32839   8.084   8.287   5.015 -0.6849  1.4161  0.1452
  238MOL0     H32840   8.325   8.034   4.759 -3.0725 -0.5166 -2.4630
  238MOL0     H32841   8.368   8.793   4.774  1.5383 -0.0394 -0.4881
  238MOL0     H32842   8.666   8.976   4.625  0.9468 -0.0580  1.8096
  238MOL0     H32843   8.548   8.998   4.746  2.1189  0.1499  0.9790
  238MOL0     H32844   8.644   8.858   4.755  1.5851  3.0865  2.8703
  239MOL0     O32845   4.146   7.123   4.881  0.5046  0.6551 -0.1518
  239MOL0     C32846   4.117   7.209   4.798 -0.4693 -0.1272  0.2763
  239MOL0     O32847   4.181   7.224   4.680  0.5328 -0.1412  0.5064
  239MOL0     C32848   4.316   7.200   4.670 -0.2455 -0.6836  0.4673
  239MOL0     C32849   4.370   7.126   4.562 -0.1825 -0.6796  0.1144
  239MOL0     C32850   4.509   7.104   4.551 -0.0623  0.4117  0.2715
  239MOL0     C32851   4.603   7.174   4.639  0.4045  0.5595 -0.3632
  239MOL0     O32852   4.741   7.171   4.615 -1.0398 -0.1528  0.5118
  239MOL0     C32853   4.827   7.239   4.711 -0.0220 -0.4103  0.3676
  239MOL0     C32854   4.830   7.390   4.692 -1.1196 -0.2032 -0.4303
  239MOL0     C32855   4.846   7.452   4.555  0.4965 -0.3177  0.6383
  239MOL0     C32856   4.854   7.607   4.559 -0.2534  1.1040  0.7421
  239MOL0     C32857   4.877   7.668   4.418  0.7107  0.2474  0.2979
  239MOL0     C32858   4.844   7.816   4.409 -0.0523 -0.6293  0.2305
  239MOL0     C32859   4.875   7.867   4.271  0.0578  0.0832 -0.7161
  239MOL0     C32860   4.851   8.019   4.268  0.2606  0.4959 -0.4342
  239MOL0     N32861   4.927   8.092   4.366 -0.7146 -0.2878 -0.1631
  239MOL0     C32862   5.059   8.109   4.346 -0.4101 -0.8983  0.4788
  239MOL0     C32863   5.106   8.175   4.456  0.0002  0.0099  0.7633
  239MOL0     C32864   5.252   8.206   4.484  0.4369 -0.2462  0.4250
  239MOL0     C32865   5.315   8.074   4.499 -0.7666  0.3236 -1.0320
  239MOL0     C32866   5.248   7.987   4.608 -0.6766  0.5578  0.3217
  239MOL0     C32867   5.231   8.053   4.749  0.2653  0.1904  1.2250
  239MOL0     O32868   5.338   8.142   4.785 -0.0021  0.1140 -0.4925
  239MOL0     C32869   5.464   8.094   4.807  0.1250  0.4566  0.0948
  239MOL0     C32870   5.494   7.969   4.852 -0.2552  0.5687 -0.2922
  239MOL0     C32871   5.623   7.927   4.871  0.5472 -0.7091 -0.2703
  239MOL0     C32872   5.638   7.798   4.945 -0.1850 -0.4356  0.6981
  239MOL0     C32873   5.734   8.015   4.841 -0.0980  0.6813 -0.1119
  239MOL0     C32874   5.878   7.987   4.845 -0.2316 -0.6486 -0.2117
  239MOL0     O32875   5.959   8.081   4.791  0.7418  0.0200 -0.5664
  239MOL0     C32876   6.093   8.061   4.770  0.4997 -0.8981  0.7227
  239MOL0     C32877   6.136   8.090   4.638  0.1651  1.2025 -0.3514
  239MOL0     C32878   6.269   8.070   4.607  0.3484 -0.4943 -0.3948
  239MOL0     C32879   6.369   8.014   4.691  0.0732 -1.6767 -0.6130
  239MOL0     O32880   6.499   7.988   4.666 -0.1030 -0.5110 -0.3496
  239MOL0     C32881   6.549   8.023   4.543 -0.3717  0.6697  1.4410
  239MOL0     C32882   6.702   8.008   4.533  0.2100  0.9380 -0.2793
  239MOL0     C32883   6.748   8.046   4.399 -0.2024  0.2862  0.7252
  239MOL0     C32884   6.888   8.087   4.416 -0.1119  0.6115  0.2807
  239MOL0     C32885   6.959   8.094   4.277  0.6439  0.2487 -0.3837
  239MOL0     C32886   7.112   8.125   4.284  0.6068 -0.2814  0.2966
  239MOL0     C32887   7.183   8.141   4.153 -0.6406  0.1360 -0.5359
  239MOL0     C32888   7.126   8.264   4.079  0.1097  0.2334  1.1711
  239MOL0    Cl32889   7.206   8.425   4.120  0.2597  0.1580 -0.5025
  239MOL0     C32890   6.325   7.993   4.819  0.2558 -0.7224 -0.8038
  239MOL0     C32891   6.190   8.010   4.852 -0.5061  0.5252 -0.1010
  239MOL0     O32892   5.914   7.872   4.884 -0.5724  0.2370 -0.3277
  239MOL0     C32893   5.696   8.144   4.805  0.1380  0.4176  0.0305
  239MOL0     C32894   5.570   8.182   4.780 -0.2374  0.3442 -0.3554
  239MOL0     N32895   5.001   8.202   4.537  1.0479  0.2602 -0.0577
  239MOL0     N32896   4.894   8.140   4.487 -0.3586  0.2937  0.3084
  239MOL0     C32897   4.541   7.241   4.741 -0.4278  0.0991 -1.0486
  239MOL0     C32898   4.409   7.249   4.763 -0.8088 -0.5153 -0.6937
  239MOL0     C32899   3.990   7.276   4.812  0.5051  0.4452  0.2185
  239MOL0     C32900   3.947   7.309   4.940 -0.3676 -0.1622  0.0084
  239MOL0     C32901   3.828   7.378   4.959 -0.9114 -0.9790 -0.5261
  239MOL0     C32902   3.744   7.413   4.858 -0.8540 -0.5589  0.1298
  239MOL0     O32903   3.619   7.474   4.865  0.0530 -0.0953  0.1311
  239MOL0     C32904   3.532   7.468   4.972  0.1082 -0.0533  0.1845
  239MOL0     C32905   3.392   7.520   4.934  0.1175 -0.4973 -1.1247
  239MOL0     C32906   3.355   7.639   5.027 -0.6263 -0.3426  0.2828
  239MOL0     C32907   3.286   7.744   4.941  0.6239  0.4788  0.3554
  239MOL0     C32908   3.275   7.875   5.008 -0.2354 -0.5820 -0.1129
  239MOL0     C32909   3.244   7.972   5.077 -0.2223  0.7388  0.0766
  239MOL0     C32910   3.779   7.386   4.728 -1.0485  0.4381  0.4934
  239MOL0     C32911   3.897   7.309   4.701  0.2280  0.9204 -0.4402
  239MOL0     C32912   3.920   7.269   4.566 -0.2490  0.5292  0.7795
  239MOL0     H32913   4.292   7.103   4.490 -0.4899  1.8949 -0.4778
  239MOL0     H32914   4.543   7.046   4.466 -1.1724  2.1074 -1.3999
  239MOL0     H32915   4.930   7.206   4.693 -0.2430 -2.1506  2.0216
  239MOL0     H32916   4.807   7.215   4.815  0.2853 -3.8279 -0.2398
  239MOL0     H32917   4.745   7.441   4.738 -1.2946  1.4870 -2.4299
  239MOL0     H32918   4.913   7.418   4.757 -0.1603  0.1388 -1.7520
  239MOL0     H32919   4.939   7.414   4.511  0.6310 -1.3418  1.7584
  239MOL0     H32920   4.760   7.415   4.497  1.6345 -0.5124 -0.9819
  239MOL0     H32921   4.762   7.649   4.600 -1.8377 -1.9142  0.5344
  239MOL0     H32922   4.944   7.623   4.619  1.0361 -2.6517  0.1022
  239MOL0     H32923   4.809   7.616   4.351  2.3453 -1.1848 -0.3206
  239MOL0     H32924   4.976   7.646   4.378 -0.3904 -1.3403 -1.7608
  239MOL0     H32925   4.738   7.820   4.436 -0.1022 -2.8605  0.5411
  239MOL0     H32926   4.897   7.878   4.481  0.6614 -1.8157  0.7556
  239MOL0     H32927   4.803   7.826   4.200 -2.2676  1.5709  0.6549
  239MOL0     H32928   4.975   7.842   4.235  0.2097  1.3411 -1.1891
  239MOL0     H32929   4.870   8.063   4.170  0.1098  0.7809 -0.3387
  239MOL0     H32930   4.746   8.046   4.281 -0.5988 -2.3224 -0.9664
  239MOL0     H32931   5.110   8.068   4.259 -1.8907 -3.4688  0.7260
  239MOL0     H32932   5.272   8.269   4.571  2.8269 -1.0385  0.5137
  239MOL0     H32933   5.279   8.260   4.393 -0.9207  1.9281  1.2343
  239MOL0     H32934   5.328   8.013   4.409  0.6381 -0.2105 -0.4975
  239MOL0     H32935   5.415   8.101   4.534 -0.7468  0.4935 -1.2127
  239MOL0     H32936   5.158   7.934   4.576  0.8905 -0.7597 -2.2083
  239MOL0     H32937   5.306   7.896   4.625 -0.6150 -0.0033 -2.4652
  239MOL0     H32938   5.137   8.108   4.743 -0.0901 -0.5038 -0.2738
  239MOL0     H32939   5.220   7.969   4.817  1.5119 -2.4640 -1.5923
  239MOL0     H32940   5.415   7.902   4.886 -0.1670  0.1695 -0.8621
  239MOL0     H32941   5.702   7.823   5.030  2.3989  1.8730 -1.7089
  239MOL0     H32942   5.682   7.720   4.883 -0.8973 -0.4202  0.1560
  239MOL0     H32943   5.544   7.758   4.984 -2.3665  1.5031 -2.0448
  239MOL0     H32944   6.059   8.132   4.573 -2.9051 -1.5894  1.1636
  239MOL0     H32945   6.308   8.105   4.512  0.7930  2.2029  0.7002
  239MOL0     H32946   6.506   7.953   4.471  0.0825 -0.3047  2.0950
  239MOL0     H32947   6.524   8.123   4.507  0.7032  0.0195 -1.3654
  239MOL0     H32948   6.751   8.073   4.606  1.5139 -2.1986  1.8791
  239MOL0     H32949   6.723   7.905   4.565  0.8110  0.3059 -2.5704
  239MOL0     H32950   6.691   8.131   4.361 -2.4213 -1.4161 -0.0123
  239MOL0     H32951   6.742   7.965   4.325 -2.2007  2.0368 -1.1782
  239MOL0     H32952   6.946   8.012   4.470  1.9913  3.2261  1.9113
  239MOL0     H32953   6.905   8.184   4.464  1.3121  2.3065 -3.2024
  239MOL0     H32954   6.950   8.002   4.219  0.8031  1.3690 -2.2997
  239MOL0     H32955   6.905   8.169   4.217  3.0040  3.0120  0.7190
  239MOL0     H32956   7.161   8.047   4.344 -0.6039 -1.3802 -0.0993
  239MOL0     H32957   7.137   8.222   4.328  2.6591 -2.0210  3.3339
  239MOL0     H32958   7.180   8.049   4.093  1.1091  0.2427 -0.8310
  239MOL0     H32959   7.289   8.158   4.173 -0.4130 -2.6537  1.2756
  239MOL0     H32960   7.018   8.268   4.095 -0.3334  0.0546 -1.2898
  239MOL0     H32961   7.131   8.242   3.971 -0.3405  0.3276  1.1312
  239MOL0     H32962   6.400   7.949   4.884  3.0537  2.8016 -1.3119
  239MOL0     H32963   6.158   7.981   4.951 -1.6203  2.3775  0.1296
  239MOL0     H32964   5.772   8.220   4.786  2.1942 -1.8039 -1.1700
  239MOL0     H32965   5.544   8.280   4.743 -0.3147  0.2842 -0.4623
  239MOL0     H32966   4.593   7.302   4.814  1.3291 -2.5368  0.0448
  239MOL0     H32967   4.373   7.311   4.845  2.5201 -0.3253  0.8032
  239MOL0     H32968   4.008   7.280   5.025  2.3670  0.5149 -1.5982
  239MOL0     H32969   3.811   7.409   5.062  3.3279  0.8317 -0.1407
  239MOL0     H32970   3.513   7.368   5.013 -2.6268 -0.0045 -0.7662
  239MOL0     H32971   3.578   7.531   5.048  0.6016 -1.6033  1.2239
  239MOL0     H32972   3.311   7.448   4.945 -0.8808  0.6860 -0.4938
  239MOL0     H32973   3.395   7.553   4.830  1.7150 -1.0299 -1.2644
  239MOL0     H32974   3.293   7.606   5.112  0.3063 -1.2533  0.6310
  239MOL0     H32975   3.436   7.685   5.084 -2.3823  1.9950  1.0397
  239MOL0     H32976   3.183   7.717   4.915  0.7375  0.2673  0.1335
  239MOL0     H32977   3.338   7.760   4.847  1.9513  0.2222  1.0288
  239MOL0     H32978   3.207   8.042   5.149 -0.1583 -0.6605  1.5204
  239MOL0     H32979   3.709   7.409   4.648 -0.9827  3.1897  1.1598
  239MOL0     H32980   3.934   7.161   4.561  0.8412  0.6991 -0.3511
  239MOL0     H32981   3.845   7.304   4.494 -1.0926  0.1008  1.4239
  239MOL0     H32982   4.013   7.314   4.531  0.1910 -0.0330  1.2266
  240MOL0     O32983   1.013   4.408   8.637 -0.4788 -0.6804 -0.0310
  240MOL0     C32984   0.975   4.304   8.688 -0.4512 -0.9067 -0.4783
  240MOL0     O32985   1.011   4.261   8.807  0.4415  0.5291  0.0268
  240MOL0     C32986   1.105   4.319   8.877 -0.6559 -1.5165 -0.2040
  240MOL0     C32987   1.243   4.316   8.834 -0.4223  0.2457 -0.4606
  240MOL0     C32988   1.350   4.366   8.919 -0.7591 -0.6822  0.0726
  240MOL0     C32989   1.320   4.445   9.037 -0.1280  0.4552  0.0749
  240MOL0     O32990   1.419   4.506   9.124 -0.0114  0.2767 -0.1001
  240MOL0     C32991   1.557   4.467   9.102  0.9339 -0.4049 -0.0605
  240MOL0     C32992   1.621   4.564   9.015 -0.3517  0.4125  0.3131
  240MOL0     C32993   1.775   4.547   9.012  0.0568  1.1195  0.0754
  240MOL0     C32994   1.840   4.646   8.912  0.2923 -0.4297  0.0803
  240MOL0     C32995   1.841   4.801   8.943  0.7940  0.2910  0.4495
  240MOL0     C32996   1.882   4.838   9.085 -0.2505 -0.6756 -0.6884
  240MOL0     C32997   1.879   4.996   9.110 -0.1515  0.2346  0.1321
  240MOL0     C32998   1.932   5.031   9.245  0.3269 -0.3529  0.3920
  240MOL0     N32999   1.971   5.171   9.248 -0.5465 -0.1996 -0.4472
  240MOL0     C33000   2.085   5.215   9.176 -0.0373 -1.0056  0.3739
  240MOL0     C33001   2.106   5.342   9.213 -0.4186 -0.0430 -0.6334
  240MOL0     C33002   2.220   5.435   9.179 -0.2826  0.6094 -0.1980
  240MOL0     C33003   2.163   5.565   9.125 -0.6603  1.0758 -0.0083
  240MOL0     C33004   2.259   5.628   9.012 -0.4739  1.3657  0.1006
  240MOL0     C33005   2.395   5.681   9.075  0.2698 -0.2001  0.9924
  240MOL0     O33006   2.369   5.790   9.155  0.6577  0.6618  0.3921
  240MOL0     C33007   2.479   5.851   9.204 -0.2339 -0.7972  0.7740
  240MOL0     C33008   2.534   5.833   9.330  0.8487 -0.4039  0.7229
  240MOL0     C33009   2.659   5.880   9.364 -0.5514  0.3637  0.0904
  240MOL0     C33010   2.707   5.849   9.518  0.6357  1.1184  1.0925
  240MOL0     C33011   2.743   5.952   9.274  0.1532 -0.1021  0.2244
  240MOL0     C33012   2.885   5.999   9.294 -0.3510  0.0500 -0.2573
  240MOL0     O33013   2.964   6.014   9.180  0.0335 -0.4330 -0.3187
  240MOL0     C33014   3.068   6.107   9.194  0.3061 -0.8311  0.3003
  240MOL0     C33015   3.199   6.058   9.193  0.6188 -0.3781 -0.1870
  240MOL0     C33016   3.306   6.150   9.196  0.1003 -0.7288  0.3599
  240MOL0     C33017   3.277   6.288   9.192 -0.3592  0.1333 -0.0897
  240MOL0     O33018   3.373   6.386   9.188  1.0468  0.5251 -0.5780
  240MOL0     C33019   3.506   6.350   9.245  0.3244 -0.1401  0.3741
  240MOL0     C33020   3.503   6.323   9.404  0.1656  0.2948  0.3810
  240MOL0     C33021   3.460   6.450   9.476 -0.4395  0.0798  0.0015
  240MOL0     C33022   3.553   6.562   9.478 -0.0144 -0.5681  0.3707
  240MOL0     C33023   3.514   6.669   9.589 -0.4628  0.0954 -0.3840
  240MOL0     C33024   3.362   6.687   9.618 -0.3501  0.6224  0.5308
  240MOL0     C33025   3.347   6.796   9.726  0.6532 -0.3911  0.4435
  240MOL0     C33026   3.217   6.803   9.795  0.3836  0.0740  0.0928
  240MOL0    Cl33027   3.119   6.879   9.681  0.0659  0.1866 -0.0336
  240MOL0     C33028   3.143   6.336   9.184 -0.9363  0.1880  0.8179
  240MOL0     C33029   3.034   6.248   9.195  0.2028 -0.2812  0.2183
  240MOL0     O33030   2.915   6.050   9.406  0.2243 -0.4235 -0.7260
  240MOL0     C33031   2.689   5.970   9.141  0.0979 -0.4292 -0.8449
  240MOL0     C33032   2.559   5.925   9.108  0.2634  0.5206  0.5099
  240MOL0     N33033   2.010   5.375   9.309 -0.0955 -0.6203 -0.3977
  240MOL0     N33034   1.938   5.270   9.341  0.6731  0.3810  0.2873
  240MOL0     C33035   1.183   4.453   9.063  0.6178 -0.5584 -0.0680
  240MOL0     C33036   1.077   4.386   8.991 -0.2654 -0.3251 -0.3458
  240MOL0     C33037   0.898   4.209   8.615  0.7304  0.4221  0.1423
  240MOL0     C33038   0.838   4.095   8.675  0.7485  0.1292  0.4974
  240MOL0     C33039   0.751   4.003   8.608 -0.5984  0.1227 -0.5455
  240MOL0     C33040   0.726   4.029   8.471  0.7259 -0.2191  0.9460
  240MOL0     O33041   0.644   3.952   8.388 -0.3276 -0.3542  0.8081
  240MOL0     C33042   0.568   3.851   8.445  0.0449  0.1066  0.0990
  240MOL0     C33043   0.471   3.790   8.347  0.3031 -0.5499  0.1577
  240MOL0     C33044   0.514   3.687   8.249 -0.1567  1.2561 -0.0611
  240MOL0     C33045   0.585   3.564   8.309  0.0620 -0.0961  0.7790
  240MOL0     C33046   0.506   3.504   8.414  0.1251  0.3268  0.4979
  240MOL0     C33047   0.455   3.440   8.499  0.7287  0.2608  0.3812
  240MOL0     C33048   0.783   4.136   8.409 -0.2196  0.6836  0.7682
  240MOL0     C33049   0.875   4.218   8.475 -0.2447  0.3233 -0.3929
  240MOL0     C33050   0.937   4.321   8.383 -0.3470  0.4843 -0.0519
  240MOL0     H33051   1.270   4.260   8.745 -0.4891  0.6547 -0.7430
  240MOL0     H33052   1.455   4.345   8.903 -0.2789 -1.0579  3.1540
  240MOL0     H33053   1.575   4.364   9.070  0.1310 -0.6281  0.1813
  240MOL0     H33054   1.600   4.479   9.202 -0.5526 -1.5612  0.7670
  240MOL0     H33055   1.579   4.553   8.914  1.3951 -0.2784 -0.3657
  240MOL0     H33056   1.598   4.666   9.047  2.0220  0.7846  1.0354
  240MOL0     H33057   1.819   4.567   9.110 -1.9007  1.5320  0.9233
  240MOL0     H33058   1.788   4.443   8.979 -3.6008 -0.5304  2.9712
  240MOL0     H33059   1.944   4.615   8.902 -0.2629 -2.5657  0.3266
  240MOL0     H33060   1.797   4.631   8.813 -1.8843  2.7854  0.4075
  240MOL0     H33061   1.741   4.840   8.920  1.0918  0.3752 -0.8064
  240MOL0     H33062   1.909   4.832   8.863 -0.6485  2.6067  0.0262
  240MOL0     H33063   1.808   4.798   9.155  1.8498  0.2696  2.2659
  240MOL0     H33064   1.981   4.797   9.108  0.9795  0.2405 -3.7952
  240MOL0     H33065   1.779   5.039   9.099 -0.5909 -1.0593 -1.2567
  240MOL0     H33066   1.952   5.038   9.040  0.6302  0.4426  1.0469
  240MOL0     H33067   1.853   5.009   9.318  1.2433  2.5064  2.4180
  240MOL0     H33068   2.017   4.967   9.270  0.9395  0.0855 -0.4806
  240MOL0     H33069   2.154   5.159   9.115  0.2707  0.0565 -0.2755
  240MOL0     H33070   2.287   5.382   9.112 -0.0175  2.9484 -1.9282
  240MOL0     H33071   2.283   5.448   9.268 -0.8291 -0.9316  0.4551
  240MOL0     H33072   2.065   5.548   9.080 -0.7714  1.5131  0.0621
  240MOL0     H33073   2.166   5.647   9.198  2.5752  1.0333  0.0639
  240MOL0     H33074   2.274   5.553   8.934  0.0173 -0.2636  1.6731
  240MOL0     H33075   2.218   5.718   8.965 -1.8792  0.2411 -0.9090
  240MOL0     H33076   2.445   5.608   9.139  2.1119  0.6354  0.5772
  240MOL0     H33077   2.464   5.703   8.992  0.5536 -0.4926  1.1479
  240MOL0     H33078   2.474   5.781   9.405 -0.6358 -0.9263 -0.7589
  240MOL0     H33079   2.813   5.820   9.525  0.9625  2.5186  2.6505
  240MOL0     H33080   2.641   5.772   9.560 -0.5442  0.5994 -1.5125
  240MOL0     H33081   2.693   5.936   9.583 -2.1953  1.6433 -0.0882
  240MOL0     H33082   3.227   5.954   9.204 -0.2162 -0.3863  2.3909
  240MOL0     H33083   3.403   6.101   9.205 -0.3606 -1.4350  1.9091
  240MOL0     H33084   3.546   6.269   9.183  0.6638 -0.4637  1.0057
  240MOL0     H33085   3.566   6.440   9.231  1.9742 -0.5932  3.7062
  240MOL0     H33086   3.431   6.243   9.422 -0.9137  0.7939 -1.4827
  240MOL0     H33087   3.602   6.288   9.435  0.4970 -1.1010 -1.9811
  240MOL0     H33088   3.452   6.411   9.578 -0.0085 -2.2259 -0.7770
  240MOL0     H33089   3.363   6.493   9.454  0.6032  3.3166  1.1936
  240MOL0     H33090   3.556   6.603   9.376 -0.9545 -0.3355  0.4253
  240MOL0     H33091   3.650   6.519   9.502 -0.4858 -1.8440  0.0665
  240MOL0     H33092   3.574   6.654   9.680 -0.0998 -2.3405 -0.9492
  240MOL0     H33093   3.546   6.761   9.540  0.1428 -0.0337 -0.2496
  240MOL0     H33094   3.324   6.593   9.659  1.4176 -1.8739 -3.0244
  240MOL0     H33095   3.308   6.702   9.524 -0.0053  0.2034  0.2643
  240MOL0     H33096   3.370   6.891   9.677  4.1425 -1.0521  0.5480
  240MOL0     H33097   3.414   6.779   9.810  0.5379 -0.9329  0.4297
  240MOL0     H33098   3.220   6.861   9.888  1.5452 -0.3243  0.3245
  240MOL0     H33099   3.173   6.706   9.818  1.0641 -0.4212 -0.6397
  240MOL0     H33100   3.125   6.443   9.183  2.1215  0.8001 -0.7493
  240MOL0     H33101   2.934   6.290   9.201  0.3906  0.1382  0.4410
  240MOL0     H33102   2.745   6.028   9.067  0.0899  0.7505  0.0320
  240MOL0     H33103   2.525   5.953   9.009 -0.0533 -0.5483  0.3061
  240MOL0     H33104   1.159   4.521   9.144  1.6421 -1.2295  0.8250
  240MOL0     H33105   0.972   4.397   9.017  0.1455 -1.6339  2.2202
  240MOL0     H33106   0.847   4.079   8.781 -0.3907  2.7549  1.0877
  240MOL0     H33107   0.710   3.918   8.662  0.1756 -0.8592 -1.4655
  240MOL0     H33108   0.632   3.778   8.495 -1.5264 -1.0610  0.4642
  240MOL0     H33109   0.516   3.896   8.530  3.0796 -0.1770  2.2916
  240MOL0     H33110   0.424   3.870   8.289  1.4894 -2.6596 -4.0656
  240MOL0     H33111   0.396   3.747   8.414 -0.1936 -2.2422 -1.4105
  240MOL0     H33112   0.427   3.654   8.192  0.8671 -0.0981 -0.8854
  240MOL0     H33113   0.575   3.737   8.172  0.6138  3.9044  2.1082
  240MOL0     H33114   0.683   3.588   8.353 -0.0244  2.0900 -0.1035
  240MOL0     H33115   0.596   3.494   8.226  1.5129  2.6561 -1.5442
  240MOL0     H33116   0.402   3.372   8.563  0.5821 -0.9503 -0.9756
  240MOL0     H33117   0.758   4.143   8.303  0.8936 -1.6949  0.2905
  240MOL0     H33118   1.038   4.356   8.409 -0.0381 -0.3575 -0.0815
  240MOL0     H33119   0.937   4.284   8.280 -2.2300  0.7327 -0.1640
  240MOL0     H33120   0.880   4.414   8.389  0.3025  1.0938 -2.3101
  241MOL0     O33121   9.923   4.667   9.527  0.3090  0.0397 -0.2259
  241MOL0     C33122   9.887   4.678   9.412 -0.1131  0.0217  0.0599
  241MOL0     O33123   9.875   4.788   9.337 -0.5105 -0.1454  0.2954
  241MOL0     C33124   9.901   4.908   9.387  0.9783 -0.2897  0.1244
  241MOL0     C33125   9.992   4.985   9.302  1.1805  0.2338 -0.4122
  241MOL0     C33126  10.035   5.112   9.347  0.0164 -0.5362  0.0392
  241MOL0     C33127  10.003   5.167   9.467 -0.4078 -0.3705 -0.8723
  241MOL0     O33128  10.049   5.291   9.492  0.3698  0.8779  0.1292
  241MOL0     C33129  10.100   5.320   9.620 -0.1828 -0.6031  0.2564
  241MOL0     C33130  10.101   5.476   9.649  0.4999 -0.4213  0.4276
  241MOL0     C33131   9.964   5.539   9.652  0.9254  0.2818  0.0086
  241MOL0     C33132   9.969   5.685   9.706 -0.1195  0.0383  0.1279
  241MOL0     C33133  10.037   5.773   9.601  0.5186 -0.0923 -0.4227
  241MOL0     C33134  10.000   5.923   9.605 -0.2818  0.2526  0.0640
  241MOL0     C33135  10.072   6.006   9.504 -0.3433 -0.1146 -0.0240
  241MOL0     C33136  10.137   6.130   9.573 -0.9920 -0.3394  0.0491
  241MOL0     N33137  10.238   6.092   9.676 -0.6007  0.3212  0.4601
  241MOL0     C33138  10.344   6.005   9.657  0.1208  1.2507  0.0341
  241MOL0     C33139  10.392   5.989   9.784  0.2053  1.0115  0.1379
  241MOL0     C33140  10.514   5.905   9.824 -0.2191  0.5116  0.2258
  241MOL0     C33141  10.498   5.761   9.861 -0.0633  0.0750  0.0461
  241MOL0     C33142  10.459   5.671   9.738 -0.5429 -0.7188 -0.2912
  241MOL0     C33143  10.572   5.652   9.634  0.3888  0.4105 -0.0048
  241MOL0     O33144  10.530   5.579   9.516  0.6351 -0.0642 -0.2333
  241MOL0     C33145  10.530   5.437   9.518 -0.5516 -0.5454  0.0408
  241MOL0     C33146  10.573   5.366   9.629 -0.7665 -0.0118 -0.1714
  241MOL0     C33147  10.550   5.235   9.643  0.7864  0.4362 -0.3540
  241MOL0     C33148  10.584   5.171   9.775  0.9532  0.6668  0.1791
  241MOL0     C33149  10.489   5.157   9.540 -0.1321  0.0342  0.7515
  241MOL0     C33150  10.469   5.017   9.528 -0.1454  0.0412  0.5375
  241MOL0     O33151  10.373   4.981   9.449 -0.1100  0.1550  0.3764
  241MOL0     C33152  10.371   4.853   9.399  0.3782 -0.0835 -0.0351
  241MOL0     C33153  10.267   4.762   9.435  0.5847 -0.2008  0.1662
  241MOL0     C33154  10.250   4.644   9.366 -0.0364  0.0541  0.3264
  241MOL0     C33155  10.340   4.597   9.267  0.0980  0.6836 -0.2572
  241MOL0     O33156  10.329   4.474   9.203 -0.9775  0.8061 -0.3498
  241MOL0     C33157  10.196   4.447   9.160  0.3024 -0.0842  0.5821
  241MOL0     C33158  10.192   4.363   9.024 -0.1996  0.1073 -0.5100
  241MOL0     C33159  10.048   4.336   8.979 -0.1219 -0.1491  0.7768
  241MOL0     C33160   9.968   4.463   8.956 -0.5588  0.0686 -0.0828
  241MOL0     C33161   9.838   4.437   8.874 -0.5866 -0.3253 -0.1994
  241MOL0     C33162   9.771   4.571   8.858 -0.3251 -0.7024 -0.2681
  241MOL0     C33163   9.625   4.560   8.803  0.7182  0.1526  0.1589
  241MOL0     C33164   9.559   4.701   8.787  0.8611  0.2733  0.4875
  241MOL0    Cl33165   9.496   4.761   8.942 -0.1204 -0.2259  0.1814
  241MOL0     C33166  10.447   4.683   9.237 -0.0970 -0.5738 -0.2185
  241MOL0     C33167  10.470   4.801   9.308  0.3033 -0.5083  0.2966
  241MOL0     O33168  10.526   4.942   9.607  0.2540  0.5825 -0.6374
  241MOL0     C33169  10.447   5.235   9.421 -0.7693  0.5891  0.0516
  241MOL0     C33170  10.464   5.370   9.417 -0.5822  0.4298  0.2564
  241MOL0     N33171  10.323   6.059   9.872 -1.3539 -0.1448 -0.0542
  241MOL0     N33172  10.236   6.122   9.807 -0.3614  0.5393  0.7921
  241MOL0     C33173   9.913   5.086   9.553 -0.6860  0.4746  0.0088
  241MOL0     C33174   9.864   4.960   9.512  0.2147  0.5615  0.3287
  241MOL0     C33175   9.820   4.568   9.350 -0.6433  1.6020 -0.4694
  241MOL0     C33176   9.862   4.446   9.389 -0.3809 -0.2933 -0.5534
  241MOL0     C33177   9.820   4.331   9.325  1.2637 -0.2489 -0.1531
  241MOL0     C33178   9.709   4.333   9.235 -0.4559 -0.1127  0.1679
  241MOL0     O33179   9.651   4.218   9.181  0.6260 -0.0904 -0.6943
  241MOL0     C33180   9.704   4.090   9.222 -0.3379 -0.4357  0.0828
  241MOL0     C33181   9.667   3.980   9.119 -0.9296 -0.1130  0.3002
  241MOL0     C33182   9.688   3.830   9.165 -0.8996  0.3913 -0.2043
  241MOL0     C33183   9.619   3.733   9.074  0.9058  0.2740  0.4190
  241MOL0     C33184   9.693   3.720   8.949 -0.3525  0.9409  0.4704
  241MOL0     C33185   9.750   3.722   8.846  0.1204 -0.1291 -0.2852
  241MOL0     C33186   9.660   4.456   9.203  0.3001  0.3293  0.2782
  241MOL0     C33187   9.706   4.573   9.258  0.5760  0.2732 -0.1419
  241MOL0     C33188   9.632   4.702   9.225  0.4334 -0.2142 -0.4875
  241MOL0     H33189  10.001   4.939   9.204  0.8523  0.3784 -0.5105
  241MOL0     H33190  10.099   5.163   9.276  0.2914 -1.8536 -0.6817
  241MOL0     H33191  10.204   5.285   9.626 -0.4890 -1.4634  0.7618
  241MOL0     H33192  10.051   5.265   9.700  1.0953 -0.5805  1.0834
  241MOL0     H33193  10.157   5.489   9.742  0.7910 -0.8079  0.3088
  241MOL0     H33194  10.159   5.526   9.570  0.8824  1.7001  1.9707
  241MOL0     H33195   9.918   5.544   9.553 -1.2507  0.7483  0.9780
  241MOL0     H33196   9.901   5.478   9.717  2.8887  0.2125  1.9664
  241MOL0     H33197   9.864   5.712   9.715 -0.0008  1.0260 -1.1528
  241MOL0     H33198  10.020   5.686   9.803  2.7923 -1.5471 -1.2517
  241MOL0     H33199  10.018   5.731   9.502 -0.0587  1.1263 -0.8523
  241MOL0     H33200  10.145   5.777   9.615  0.4450  1.7316 -0.1403
  241MOL0     H33201   9.894   5.933   9.581 -0.7609 -2.2589  0.9047
  241MOL0     H33202  10.013   5.968   9.704 -4.2024  1.5476  0.1793
  241MOL0     H33203  10.003   6.026   9.421  0.7055 -0.9360 -1.1312
  241MOL0     H33204  10.150   5.945   9.457 -0.4124  1.4365 -2.2885
  241MOL0     H33205  10.186   6.171   9.485 -3.0867  0.6307 -0.7233
  241MOL0     H33206  10.064   6.201   9.612 -1.0154 -0.5740  0.4423
  241MOL0     H33207  10.376   5.958   9.564  0.6551  0.9953  0.3426
  241MOL0     H33208  10.545   5.959   9.915 -2.2589 -0.9014  1.8608
  241MOL0     H33209  10.586   5.917   9.743 -0.1129  3.2209  0.6217
  241MOL0     H33210  10.585   5.719   9.911 -0.5242 -0.5575  0.3207
  241MOL0     H33211  10.426   5.744   9.941  0.4543 -0.9236  0.3061
  241MOL0     H33212  10.427   5.574   9.776 -1.0476 -0.0170  1.1638
  241MOL0     H33213  10.374   5.716   9.686  0.4773 -0.6124 -1.9665
  241MOL0     H33214  10.614   5.748   9.601  0.7288  0.6729  1.1379
  241MOL0     H33215  10.658   5.607   9.683 -0.3166 -0.4637  0.4537
  241MOL0     H33216  10.618   5.414   9.715  1.3578 -2.7576  0.3779
  241MOL0     H33217  10.665   5.098   9.760 -0.7406 -1.1230 -0.7721
  241MOL0     H33218  10.497   5.118   9.814  1.2879 -0.3696 -0.4352
  241MOL0     H33219  10.593   5.251   9.849 -1.3189 -1.7000  3.2956
  241MOL0     H33220  10.191   4.782   9.509  0.3048 -1.0511  0.1129
  241MOL0     H33221  10.180   4.568   9.401 -0.5800 -0.6939 -2.1676
  241MOL0     H33222  10.142   4.398   9.241  1.8628 -1.1145  1.0500
  241MOL0     H33223  10.150   4.539   9.122  1.7772  1.0903  1.5309
  241MOL0     H33224  10.250   4.418   8.949  2.1477 -0.3643  0.8379
  241MOL0     H33225  10.240   4.265   9.033  3.8283  1.8396 -0.9822
  241MOL0     H33226  10.001   4.259   9.042  0.9490  0.1242  1.9446
  241MOL0     H33227  10.063   4.280   8.886 -0.9930  1.4220 -0.3400
  241MOL0     H33228  10.036   4.537   8.914  1.5332  0.8738  4.1846
  241MOL0     H33229   9.947   4.501   9.057 -0.4332  0.5714 -0.2436
  241MOL0     H33230   9.861   4.401   8.773  0.8558  1.0033 -0.3879
  241MOL0     H33231   9.773   4.363   8.922 -1.8577  0.7837 -0.1597
  241MOL0     H33232   9.825   4.631   8.784 -2.5017 -0.9530 -2.1836
  241MOL0     H33233   9.767   4.610   8.960 -1.0968 -2.9004  0.6231
  241MOL0     H33234   9.559   4.502   8.869 -1.6257  3.1282  0.6570
  241MOL0     H33235   9.630   4.517   8.703  3.6430  0.7015  0.0082
  241MOL0     H33236   9.472   4.701   8.721 -0.7307  0.0595  2.4870
  241MOL0     H33237   9.629   4.774   8.743 -3.1194  1.8277 -4.3029
  241MOL0     H33238  10.530   4.660   9.171  1.1830 -2.4395  1.9084
  241MOL0     H33239  10.557   4.860   9.280  0.7926 -0.5132  1.7383
  241MOL0     H33240  10.406   5.186   9.333  2.9449 -1.9705 -0.5017
  241MOL0     H33241  10.423   5.435   9.339 -1.0362 -0.5178 -0.3063
  241MOL0     H33242   9.878   5.115   9.651 -0.7177  1.2399 -0.2205
  241MOL0     H33243   9.790   4.906   9.570  0.1167 -1.5508 -1.6400
  241MOL0     H33244   9.953   4.423   9.443 -1.1947 -2.5645 -0.0424
  241MOL0     H33245   9.849   4.232   9.361  0.1411 -0.3467  0.5234
  241MOL0     H33246   9.813   4.092   9.235 -0.5449  2.6269  2.7804
  241MOL0     H33247   9.657   4.059   9.316  0.1880  0.4475  0.6515
  241MOL0     H33248   9.716   3.996   9.022 -0.8116 -1.0761  0.1925
  241MOL0     H33249   9.559   3.996   9.110 -0.8145  1.6848  1.6108
  241MOL0     H33250   9.796   3.816   9.162 -1.0435 -0.7645 -0.5445
  241MOL0     H33251   9.651   3.820   9.268  1.1596  1.7450  0.7256
  241MOL0     H33252   9.516   3.765   9.059  0.6833 -0.5755  0.0645
  241MOL0     H33253   9.623   3.635   9.122  0.8271  0.1852  0.2453
  241MOL0     H33254   9.798   3.726   8.750 -0.8519 -0.0886 -0.7761
  241MOL0     H33255   9.570   4.460   9.142  1.1191 -2.1988 -1.2556
  241MOL0     H33256   9.667   4.748   9.132  1.0779 -1.3649 -0.8443
  241MOL0     H33257   9.524   4.689   9.235  0.5167 -0.0219  0.7677
  241MOL0     H33258   9.647   4.776   9.304  1.0394 -1.3241  0.4770
  242MOL0     O33259   7.329   7.500  11.013  0.3112 -0.0696  0.5138
  242MOL0     C33260   7.231   7.492  11.089 -0.1975  0.2159 -0.3204
  242MOL0     O33261   7.244   7.454  11.224  0.1012  0.3160  0.3417
  242MOL0     C33262   7.354   7.371  11.249  0.1715  0.4920  0.1221
  242MOL0     C33263   7.340   7.233  11.247  0.2095 -0.7971 -0.5606
  242MOL0     C33264   7.459   7.154  11.274 -0.1939 -0.1633 -0.2393
  242MOL0     C33265   7.585   7.222  11.290 -0.0862 -0.6484  0.6037
  242MOL0     O33266   7.703   7.156  11.289  0.2674 -0.5525  0.4063
  242MOL0     C33267   7.811   7.209  11.211 -0.6721 -0.4156 -0.3795
  242MOL0     C33268   7.924   7.109  11.209 -0.1140 -0.1420 -0.0264
  242MOL0     C33269   8.010   7.098  11.345  1.3020  0.0563  0.6021
  242MOL0     C33270   8.164   7.102  11.327  0.0178 -0.4255  0.4504
  242MOL0     C33271   8.246   7.086  11.456 -0.2944 -0.2099  0.4352
  242MOL0     C33272   8.399   7.103  11.434  0.9600  0.0937  0.0430
  242MOL0     C33273   8.467   7.110  11.577 -0.5231  0.8853  0.1290
  242MOL0     C33274   8.509   6.977  11.645 -1.5021 -0.2150  0.1247
  242MOL0     N33275   8.634   6.933  11.579 -0.1975 -0.2549  0.6368
  242MOL0     C33276   8.756   6.999  11.582  0.1402 -0.1350 -0.1255
  242MOL0     C33277   8.829   6.964  11.473  0.2380  0.0146  0.7859
  242MOL0     C33278   8.963   7.011  11.435  0.1363 -0.3236  0.3714
  242MOL0     C33279   9.035   7.086  11.556  0.4912  0.1722 -0.6882
  242MOL0     C33280   9.181   7.126  11.528  0.3052 -0.3812  0.9264
  242MOL0     C33281   9.226   7.236  11.618  0.0659  1.1472  0.0699
  242MOL0     O33282   9.168   7.367  11.595  0.8529 -0.0765 -0.0618
  242MOL0     C33283   9.209   7.463  11.692  0.3035  1.0838  0.1490
  242MOL0     C33284   9.118   7.574  11.724 -0.7456  0.6576  0.1174
  242MOL0     C33285   9.144   7.675  11.821  0.2743  0.3355  0.1283
  242MOL0     C33286   9.041   7.775  11.837  0.1989  0.4151 -0.2656
  242MOL0     C33287   9.268   7.672  11.898  0.0707  0.0713 -0.6814
  242MOL0     C33288   9.313   7.768  11.996 -0.3795 -1.1029 -0.2018
  242MOL0     O33289   9.238   7.880  12.014  0.4559 -0.0940 -0.0311
  242MOL0     C33290   9.274   7.973  12.111  0.4810  0.0936 -0.2035
  242MOL0     C33291   9.403   8.029  12.110 -0.0388  0.6741 -1.0744
  242MOL0     C33292   9.434   8.118  12.212  0.1735  0.5877  0.3369
  242MOL0     C33293   9.343   8.154  12.309 -0.0956  0.6040 -0.0559
  242MOL0     O33294   9.384   8.250  12.402 -0.7416  0.2745  0.6220
  242MOL0     C33295   9.441   8.175  12.506 -0.0775 -0.1894  0.3482
  242MOL0     C33296   9.519   8.274  12.597 -0.2087  0.0696 -0.7135
  242MOL0     C33297   9.663   8.286  12.541 -0.3627  0.4413  0.4679
  242MOL0     C33298   9.748   8.357  12.646 -0.0735 -0.2107  0.0297
  242MOL0     C33299   9.887   8.358  12.599 -0.2749  0.0694 -0.2358
  242MOL0     C33300   9.980   8.387  12.718  0.2073 -0.0171 -0.4459
  242MOL0     C33301  10.109   8.435  12.660  0.2460  0.3386  0.1418
  242MOL0     C33302  10.214   8.458  12.766 -0.9783 -0.2644 -0.4324
  242MOL0    Cl33303  10.371   8.522  12.706 -0.0543 -0.2531 -0.3504
  242MOL0     C33304   9.214   8.105  12.305 -0.1674  0.6618 -0.4511
  242MOL0     C33305   9.174   8.021  12.203 -0.3018  0.7695  0.0467
  242MOL0     O33306   9.422   7.742  12.054 -0.4408  0.0919 -0.4968
  242MOL0     C33307   9.350   7.558  11.869 -0.0558 -0.0254  0.2643
  242MOL0     C33308   9.317   7.451  11.778  0.3452  0.1489 -0.1559
  242MOL0     N33309   8.751   6.865  11.406 -0.4142 -0.3246  0.2310
  242MOL0     N33310   8.640   6.849  11.472  0.9663  0.1090  0.6338
  242MOL0     C33311   7.586   7.358  11.289 -0.4346 -0.8108  0.0213
  242MOL0     C33312   7.472   7.436  11.267  0.0301  1.3477  0.2317
  242MOL0     C33313   7.088   7.536  11.051  0.0499 -0.2269 -0.2517
  242MOL0     C33314   6.982   7.486  11.133  0.5226  0.1746 -0.5372
  242MOL0     C33315   6.849   7.516  11.112 -0.8423 -0.8497  0.3882
  242MOL0     C33316   6.813   7.606  11.010  0.0787  0.0521  0.1419
  242MOL0     O33317   6.682   7.642  10.990  0.0772 -0.4552 -0.6645
  242MOL0     C33318   6.629   7.572  10.878 -0.6615  0.5358  0.8878
  242MOL0     C33319   6.477   7.601  10.854  0.3534 -0.0948  0.8004
  242MOL0     C33320   6.418   7.489  10.769 -0.5888  0.6249 -0.1070
  242MOL0     C33321   6.265   7.500  10.752 -0.0025 -0.3232  0.2073
  242MOL0     C33322   6.201   7.369  10.736  0.6309  0.4122  0.9700
  242MOL0     C33323   6.135   7.272  10.714  0.4268  0.8018 -0.8174
  242MOL0     C33324   6.909   7.665  10.929  0.1212  0.4783  0.6083
  242MOL0     C33325   7.048   7.622  10.945  0.4335 -0.3698 -0.3644
  242MOL0     C33326   7.157   7.677  10.869 -0.0718 -0.0001  0.2558
  242MOL0     H33327   7.244   7.190  11.222 -0.0919 -0.2987 -0.2754
  242MOL0     H33328   7.467   7.045  11.270 -0.0320 -0.1437 -0.4458
  242MOL0     H33329   7.854   7.298  11.260 -0.0892 -0.0181 -1.5691
  242MOL0     H33330   7.773   7.239  11.113  1.3970 -0.0758 -1.1307
  242MOL0     H33331   7.895   7.009  11.175  1.5352 -1.1638  1.4590
  242MOL0     H33332   7.995   7.143  11.133 -0.6318  0.9335 -0.0562
  242MOL0     H33333   7.974   7.180  11.408  3.3506 -0.4498  2.5651
  242MOL0     H33334   7.981   7.015  11.410  2.0720  1.4538  2.8532
  242MOL0     H33335   8.193   7.025  11.256  2.8455 -0.5965  1.6537
  242MOL0     H33336   8.191   7.198  11.281 -1.3859  0.3863  1.2595
  242MOL0     H33337   8.221   6.990  11.501 -1.0286 -0.1513  0.1715
  242MOL0     H33338   8.206   7.160  11.526 -0.6181 -0.0502  0.0864
  242MOL0     H33339   8.447   7.022  11.378 -0.7263  0.4614 -2.0848
  242MOL0     H33340   8.412   7.195  11.376  0.9885  1.4641  2.1419
  242MOL0     H33341   8.390   7.144  11.647  0.6702  4.1417 -0.0036
  242MOL0     H33342   8.549   7.181  11.578  0.2415  0.0194  0.0614
  242MOL0     H33343   8.524   6.980  11.754  0.9994 -2.8727 -0.0225
  242MOL0     H33344   8.430   6.902  11.632 -3.4634  1.5715  1.1770
  242MOL0     H33345   8.780   7.078  11.653 -0.9839  1.4465 -1.4137
  242MOL0     H33346   8.948   7.086  11.356  2.4590  1.1452  1.2318
  242MOL0     H33347   9.020   6.927  11.395 -0.7189  0.1787 -2.1279
  242MOL0     H33348   8.968   7.166  11.589 -1.0479 -1.7584  1.1570
  242MOL0     H33349   9.047   7.012  11.637  0.2184 -0.5293 -1.2778
  242MOL0     H33350   9.249   7.042  11.545 -1.3130 -1.4901  2.0952
  242MOL0     H33351   9.190   7.168  11.427  0.4001 -0.2219  0.9998
  242MOL0     H33352   9.218   7.216  11.725 -0.2334  1.3283  0.0823
  242MOL0     H33353   9.333   7.253  11.602  0.3206 -0.2815  0.1579
  242MOL0     H33354   9.032   7.581  11.658  0.1410  0.0488 -1.1137
  242MOL0     H33355   8.979   7.767  11.927  1.7729  0.2545  0.8550
  242MOL0     H33356   8.985   7.776  11.743 -0.8196  1.6349  0.3081
  242MOL0     H33357   9.082   7.877  11.838 -3.2316  1.9503  0.5716
  242MOL0     H33358   9.482   8.003  12.040  0.2149  0.9663 -0.8986
  242MOL0     H33359   9.536   8.157  12.209  0.4950 -0.2659 -2.9587
  242MOL0     H33360   9.378   8.111  12.569  0.7525  0.2752  1.6837
  242MOL0     H33361   9.506   8.098  12.463 -1.3296 -1.3034  0.3646
  242MOL0     H33362   9.470   8.372  12.589  2.2431  1.7422  2.2679
  242MOL0     H33363   9.522   8.237  12.700 -0.5404 -1.3758 -1.2117
  242MOL0     H33364   9.661   8.341  12.447 -3.4405 -0.8574 -0.3661
  242MOL0     H33365   9.710   8.189  12.522  0.1359  0.3580  1.9681
  242MOL0     H33366   9.750   8.289  12.732  0.2376 -2.4764 -1.6764
  242MOL0     H33367   9.721   8.461  12.667 -0.2270 -0.4675  1.1828
  242MOL0     H33368   9.917   8.258  12.564 -1.3044 -0.0158 -0.9307
  242MOL0     H33369   9.899   8.421  12.510  0.6774 -1.2914 -1.1165
  242MOL0     H33370   9.993   8.307  12.790  0.9043  1.3955  1.0536
  242MOL0     H33371   9.930   8.463  12.778  1.3403  1.7350 -1.6239
  242MOL0     H33372  10.082   8.536  12.628 -1.0572 -0.2714 -0.7168
  242MOL0     H33373  10.152   8.378  12.577 -1.0098  1.2597 -1.1727
  242MOL0     H33374  10.218   8.367  12.828 -0.1314  1.2893  1.9469
  242MOL0     H33375  10.180   8.541  12.829 -2.2616 -1.1696  0.1109
  242MOL0     H33376   9.136   8.143  12.370 -2.0640 -1.1436 -1.5380
  242MOL0     H33377   9.071   7.987  12.209  0.2990 -2.2226 -3.2260
  242MOL0     H33378   9.437   7.550  11.933 -1.4117  1.1162  2.3551
  242MOL0     H33379   9.379   7.362  11.776  1.6718  1.0513 -1.3909
  242MOL0     H33380   7.677   7.414  11.308 -1.7160  1.9613 -1.4303
  242MOL0     H33381   7.495   7.541  11.250  1.1885  1.0048 -0.4471
  242MOL0     H33382   6.999   7.415  11.214  1.0314 -0.8776 -1.5379
  242MOL0     H33383   6.773   7.466  11.172 -1.2319 -1.7176 -0.7986
  242MOL0     H33384   6.681   7.592  10.784 -1.6232 -0.7400  0.0528
  242MOL0     H33385   6.650   7.465  10.889  1.2814  0.9222  1.4689
  242MOL0     H33386   6.457   7.701  10.814  1.3821 -1.3109 -3.2305
  242MOL0     H33387   6.431   7.604  10.953 -0.5102  0.9082  0.3931
  242MOL0     H33388   6.460   7.491  10.668  1.4823  0.5331  0.6999
  242MOL0     H33389   6.449   7.394  10.814 -0.5746  0.6129 -0.1431
  242MOL0     H33390   6.239   7.571  10.673 -0.5398  0.4103  1.0140
  242MOL0     H33391   6.218   7.547  10.839  0.8510  0.6743  0.1426
  242MOL0     H33392   6.063   7.194  10.699 -0.7848  1.6400  0.4697
  242MOL0     H33393   6.866   7.736  10.860 -0.3000 -0.3475 -0.0031
  242MOL0     H33394   7.245   7.704  10.928  0.7007  1.5391 -1.4713
  242MOL0     H33395   7.180   7.599  10.796 -3.0261 -1.8100  1.1127
  242MOL0     H33396   7.129   7.770  10.819 -1.3220  0.0860  1.0782
  243MOL0     O33397   7.750   3.494   7.820  0.0825  0.5514 -0.5672
  243MOL0     C33398   7.797   3.545   7.721 -0.0531  0.0691 -0.2195
  243MOL0     O33399   7.732   3.563   7.603  0.4271  0.6631 -0.1075
  243MOL0     C33400   7.615   3.499   7.580  0.5289  0.1617 -0.7497
  243MOL0     C33401   7.502   3.563   7.554  0.0930 -0.4918  0.3845
  243MOL0     C33402   7.379   3.507   7.530  0.9046  0.3175 -0.1357
  243MOL0     C33403   7.368   3.367   7.552  0.1077  0.3529 -0.3639
  243MOL0     O33404   7.255   3.292   7.532 -0.9927  0.4442 -0.1558
  243MOL0     C33405   7.142   3.350   7.477  1.0647 -0.3663 -0.1836
  243MOL0     C33406   7.025   3.261   7.474  0.0311  0.7896 -0.3908
  243MOL0     C33407   6.918   3.309   7.370 -0.5670  0.3365  0.0853
  243MOL0     C33408   6.789   3.234   7.372  0.6044  0.1212 -0.3103
  243MOL0     C33409   6.794   3.086   7.346 -0.1725 -0.5990  0.0786
  243MOL0     C33410   6.655   3.028   7.332  0.9137  0.1034  1.0687
  243MOL0     C33411   6.662   2.876   7.310  0.0165  0.8336 -0.4009
  243MOL0     C33412   6.686   2.845   7.156 -0.0326  0.6451  0.2092
  243MOL0     N33413   6.827   2.846   7.106 -0.6424 -0.1388 -0.6981
  243MOL0     C33414   6.901   2.721   7.092 -0.1824  0.0556 -0.7415
  243MOL0     C33415   6.984   2.738   6.985 -0.0429 -0.0408  0.5183
  243MOL0     C33416   7.060   2.639   6.901 -0.2424  0.7165 -0.1522
  243MOL0     C33417   7.205   2.655   6.928  0.2945  0.0578  0.3993
  243MOL0     C33418   7.236   2.613   7.075  0.2779  0.1459  1.1594
  243MOL0     C33419   7.377   2.638   7.116 -0.1914  0.6280 -0.4416
  243MOL0     O33420   7.397   2.622   7.261  0.3671 -0.0678  0.3157
  243MOL0     C33421   7.527   2.652   7.295 -0.4450 -1.3319  1.3679
  243MOL0     C33422   7.625   2.725   7.226  0.4473 -0.6042  0.7208
  243MOL0     C33423   7.754   2.736   7.276  0.3241  0.3188  1.0554
  243MOL0     C33424   7.861   2.776   7.179 -0.6122  0.2133  0.3440
  243MOL0     C33425   7.784   2.690   7.408 -0.0744 -0.5072  0.0119
  243MOL0     C33426   7.916   2.709   7.475 -0.8034 -0.1742  0.1974
  243MOL0     O33427   7.935   2.602   7.556  0.0530  0.3085  0.3308
  243MOL0     C33428   8.051   2.581   7.624  0.1208 -0.0695  0.4870
  243MOL0     C33429   8.031   2.544   7.757 -0.0988  0.6219  0.4052
  243MOL0     C33430   8.143   2.498   7.830  0.7643 -0.1495 -0.5315
  243MOL0     C33431   8.266   2.493   7.778 -0.7719 -0.0455 -1.0648
  243MOL0     O33432   8.378   2.453   7.846  0.2074  0.1924 -0.1787
  243MOL0     C33433   8.397   2.499   7.985  0.2304  0.1278 -0.4849
  243MOL0     C33434   8.549   2.490   8.032  0.4080  0.2404 -0.4812
  243MOL0     C33435   8.626   2.603   7.969  0.1068 -0.4296 -0.8403
  243MOL0     C33436   8.777   2.607   8.016 -0.0625 -0.3162  0.0333
  243MOL0     C33437   8.857   2.686   7.912 -0.3198 -0.6382  0.2118
  243MOL0     C33438   9.007   2.660   7.904 -0.6639  0.6373 -0.3611
  243MOL0     C33439   9.067   2.730   7.778  0.2097  0.0503 -0.4448
  243MOL0     C33440   9.220   2.699   7.756 -0.0484  0.1626 -0.0138
  243MOL0    Cl33441   9.240   2.525   7.715  0.1615  0.1587  0.1216
  243MOL0     C33442   8.283   2.518   7.638 -0.4801 -0.2284  0.3139
  243MOL0     C33443   8.177   2.568   7.565 -0.8565 -0.0853 -0.2116
  243MOL0     O33444   7.981   2.810   7.466  0.1356 -0.4240  0.1095
  243MOL0     C33445   7.676   2.635   7.484  0.2758 -0.7324  0.1008
  243MOL0     C33446   7.554   2.609   7.420 -0.0930  0.1518 -0.4067
  243MOL0     N33447   6.956   2.857   6.930 -0.2947  0.1025  0.1267
  243MOL0     N33448   6.873   2.927   7.003 -0.9214  0.3030 -0.8525
  243MOL0     C33449   7.481   3.286   7.579  0.3482  0.0471 -0.9232
  243MOL0     C33450   7.607   3.354   7.588 -0.6300 -0.4710  0.3110
  243MOL0     C33451   7.935   3.603   7.735 -0.9362  0.8085  0.1311
  243MOL0     C33452   7.998   3.595   7.859 -0.1869 -0.8337 -0.0504
  243MOL0     C33453   8.122   3.655   7.883 -1.0596  0.2329  0.0799
  243MOL0     C33454   8.185   3.728   7.780  0.5805 -0.2348  0.3372
  243MOL0     O33455   8.293   3.792   7.819  0.1916 -0.1656 -0.2724
  243MOL0     C33456   8.368   3.885   7.731  0.2136 -0.0178 -0.5950
  243MOL0     C33457   8.465   3.960   7.816  0.3585 -0.1986  0.5810
  243MOL0     C33458   8.551   4.063   7.758 -0.9491  0.4734 -0.3982
  243MOL0     C33459   8.662   4.028   7.659  0.3910  0.3631  0.0173
  243MOL0     C33460   8.779   3.965   7.723 -0.5134  0.4269 -0.1676
  243MOL0     C33461   8.850   3.908   7.801 -1.0767  0.6614 -0.2063
  243MOL0     C33462   8.132   3.734   7.652 -0.1574  0.1723  0.4848
  243MOL0     C33463   8.012   3.657   7.625  0.3016 -0.4825  0.7930
  243MOL0     C33464   7.956   3.673   7.482  0.3040  0.7603 -0.5200
  243MOL0     H33465   7.519   3.670   7.542 -0.8535 -0.2500  1.1304
  243MOL0     H33466   7.297   3.575   7.512 -0.8346 -1.9393 -1.3501
  243MOL0     H33467   7.157   3.381   7.373 -0.8997 -0.7064 -0.6101
  243MOL0     H33468   7.116   3.442   7.531 -0.4001 -1.1465  0.4856
  243MOL0     H33469   7.068   3.163   7.451 -0.3492 -0.1517  2.5012
  243MOL0     H33470   6.995   3.261   7.580  3.0812  0.4844  0.5577
  243MOL0     H33471   6.898   3.411   7.404  0.5048  0.2443  1.0521
  243MOL0     H33472   6.957   3.299   7.268 -0.3056  0.5132  0.1634
  243MOL0     H33473   6.741   3.248   7.469  0.2923 -1.7487 -0.1559
  243MOL0     H33474   6.729   3.283   7.295  0.0297 -1.1121 -0.6647
  243MOL0     H33475   6.839   3.041   7.435  0.0336  4.4549  2.8624
  243MOL0     H33476   6.854   3.067   7.256 -1.5960 -2.0507 -0.6231
  243MOL0     H33477   6.596   3.049   7.422  0.9572 -1.9578  1.6251
  243MOL0     H33478   6.605   3.072   7.245  1.5356 -0.8996  0.1713
  243MOL0     H33479   6.567   2.830   7.340  1.1947 -0.3361  1.8197
  243MOL0     H33480   6.745   2.839   7.371  1.8640  4.1592 -0.6582
  243MOL0     H33481   6.645   2.744   7.143 -1.3866  1.3605 -1.4570
  243MOL0     H33482   6.627   2.916   7.097 -1.2138  0.5026  1.2011
  243MOL0     H33483   6.887   2.627   7.144  2.1649  0.8924  1.5955
  243MOL0     H33484   7.034   2.661   6.797 -2.0489 -2.1250 -0.4087
  243MOL0     H33485   7.029   2.536   6.922  1.7715  0.5308  2.4020
  243MOL0     H33486   7.255   2.587   6.859 -0.2435 -1.8300  1.7875
  243MOL0     H33487   7.239   2.755   6.898  0.1388  0.0138  0.0696
  243MOL0     H33488   7.170   2.666   7.144  0.9189  0.2017  1.7363
  243MOL0     H33489   7.224   2.505   7.087  2.2419 -0.3475 -0.7062
  243MOL0     H33490   7.453   2.579   7.063  0.3324 -0.5991  1.5478
  243MOL0     H33491   7.385   2.746   7.101  0.7263  0.6609  0.2081
  243MOL0     H33492   7.605   2.753   7.123 -1.8110  0.7168  1.4500
  243MOL0     H33493   7.827   2.790   7.076 -0.2235 -0.6751  0.0857
  243MOL0     H33494   7.945   2.707   7.171  1.0033  2.1581 -0.5782
  243MOL0     H33495   7.898   2.872   7.218  0.3124 -0.0220  0.0869
  243MOL0     H33496   7.935   2.552   7.807 -0.6549  0.3231 -0.5826
  243MOL0     H33497   8.121   2.478   7.935  1.3345 -0.9209 -0.5494
  243MOL0     H33498   8.350   2.597   7.997 -2.7390 -0.8497 -2.6722
  243MOL0     H33499   8.339   2.425   8.042  2.2032 -0.2328  1.1426
  243MOL0     H33500   8.551   2.492   8.141 -2.4013 -2.8272 -0.1674
  243MOL0     H33501   8.589   2.390   8.014 -0.5816  0.1126 -2.2719
  243MOL0     H33502   8.587   2.699   8.002  0.4315 -0.3699 -0.6229
  243MOL0     H33503   8.621   2.590   7.860  1.2422 -1.4969 -0.7930
  243MOL0     H33504   8.819   2.507   8.030 -0.8945 -0.7178 -0.2662
  243MOL0     H33505   8.798   2.644   8.117  1.8274 -0.6695 -0.1976
  243MOL0     H33506   8.817   2.668   7.812 -1.5435 -1.4878  0.8265
  243MOL0     H33507   8.839   2.792   7.935 -2.9488 -1.3172  1.7128
  243MOL0     H33508   9.011   2.551   7.894  1.1292  0.5451  0.9017
  243MOL0     H33509   9.066   2.681   7.993 -1.2659 -1.7921  0.6807
  243MOL0     H33510   9.048   2.837   7.784  2.0201  0.4937 -1.7556
  243MOL0     H33511   9.003   2.691   7.698 -2.1919 -2.6450  2.4851
  243MOL0     H33512   9.281   2.707   7.847 -1.8749 -0.7292  1.3483
  243MOL0     H33513   9.261   2.772   7.686 -2.0625  0.8554 -0.5124
  243MOL0     H33514   8.375   2.495   7.586 -0.9441  1.8380 -1.5861
  243MOL0     H33515   8.184   2.593   7.459  0.7109  2.7142  0.4802
  243MOL0     H33516   7.692   2.592   7.582  0.5466  0.0085  0.3900
  243MOL0     H33517   7.474   2.565   7.480  0.6801 -1.3956 -0.4451
  243MOL0     H33518   7.483   3.178   7.568 -2.0844  0.1942 -4.6619
  243MOL0     H33519   7.704   3.303   7.588  0.1729  0.9987  0.6223
  243MOL0     H33520   7.946   3.550   7.943  1.9702  0.6964  2.2388
  243MOL0     H33521   8.145   3.655   7.989 -1.7819 -0.6645  0.2511
  243MOL0     H33522   8.406   3.823   7.648 -2.2879 -0.0982 -1.7913
  243MOL0     H33523   8.300   3.957   7.684  2.6852  2.2074 -0.9676
  243MOL0     H33524   8.535   3.893   7.866  2.1727  1.8994  1.0185
  243MOL0     H33525   8.406   4.001   7.898  1.4051  0.3132  1.0947
  243MOL0     H33526   8.497   4.138   7.700  0.3677  2.7773  1.1816
  243MOL0     H33527   8.594   4.119   7.842 -1.7704  0.9527 -0.2867
  243MOL0     H33528   8.693   4.124   7.617  0.5591  1.2961  2.1389
  243MOL0     H33529   8.618   3.958   7.587  1.8321 -3.1573  2.2621
  243MOL0     H33530   8.921   3.868   7.871 -0.1707  2.6570  0.0756
  243MOL0     H33531   8.191   3.775   7.570 -1.3886  0.4926 -0.2559
  243MOL0     H33532   8.028   3.713   7.410 -2.2568 -0.4219 -3.9888
  243MOL0     H33533   7.925   3.570   7.459  0.1461  0.3877  1.1932
  243MOL0     H33534   7.870   3.741   7.481  0.4354  0.9225 -0.8578
  244MOL0     O33535   4.748   2.206   2.767 -0.7780 -0.0996  0.4736
  244MOL0     C33536   4.826   2.141   2.836  0.1163  1.7593 -0.0202
  244MOL0     O33537   4.943   2.177   2.889  0.4257 -1.3355 -0.2365
  244MOL0     C33538   5.001   2.294   2.836  0.2453 -0.2520  0.3694
  244MOL0     C33539   4.945   2.425   2.830  0.7691  0.4065  0.4459
  244MOL0     C33540   5.013   2.532   2.771  0.5582 -0.6087  0.4074
  244MOL0     C33541   5.145   2.509   2.721  0.4505 -0.1627 -0.4893
  244MOL0     O33542   5.229   2.602   2.683  0.5018 -0.3333  0.1647
  244MOL0     C33543   5.186   2.740   2.689 -0.6960 -0.2544  0.2659
  244MOL0     C33544   5.297   2.823   2.613  0.4674  0.9748  0.1317
  244MOL0     C33545   5.255   2.974   2.615  0.0673 -0.0839  0.3699
  244MOL0     C33546   5.366   3.068   2.570  1.4118 -0.3172 -0.0472
  244MOL0     C33547   5.307   3.191   2.502  0.8693 -0.4405  0.1303
  244MOL0     C33548   5.416   3.302   2.486 -0.8200 -0.0108 -0.8344
  244MOL0     C33549   5.409   3.409   2.371 -0.6562  0.4689 -0.3947
  244MOL0     C33550   5.508   3.523   2.395 -0.0784 -0.5441 -0.1222
  244MOL0     N33551   5.540   3.587   2.270 -0.8728  0.2405  0.3971
  244MOL0     C33552   5.661   3.577   2.204 -0.8532  0.2998  0.3741
  244MOL0     C33553   5.641   3.629   2.079  0.3716 -0.2241  1.1326
  244MOL0     C33554   5.727   3.642   1.956  1.2368  0.3900  0.4659
  244MOL0     C33555   5.864   3.583   1.971  0.0281 -0.3519  0.1313
  244MOL0     C33556   5.920   3.531   1.839  0.3416 -0.0587  0.1752
  244MOL0     C33557   6.075   3.558   1.841  0.3407 -0.5377  1.1431
  244MOL0     O33558   6.153   3.455   1.895  0.1936  0.0492  0.6576
  244MOL0     C33559   6.288   3.457   1.886  0.1317  0.6804  0.0071
  244MOL0     C33560   6.353   3.342   1.936 -0.0692  0.1117 -0.1399
  244MOL0     C33561   6.489   3.322   1.922  0.1298 -0.2214  0.6272
  244MOL0     C33562   6.536   3.197   1.984 -0.2272  0.1318 -0.6456
  244MOL0     C33563   6.569   3.426   1.872 -0.0521 -0.7197 -0.4350
  244MOL0     C33564   6.717   3.436   1.879  0.1536 -0.6797 -0.2529
  244MOL0     O33565   6.765   3.563   1.845  0.3423  0.0474  0.1433
  244MOL0     C33566   6.901   3.583   1.829 -0.1316  0.6100  0.7602
  244MOL0     C33567   6.956   3.715   1.851 -0.0922  0.6444  0.2092
  244MOL0     C33568   7.092   3.736   1.829  0.8505  0.1925 -0.3071
  244MOL0     C33569   7.176   3.634   1.791  0.4540  0.8731  0.1469
  244MOL0     O33570   7.312   3.659   1.780  0.6977 -0.7599  0.4267
  244MOL0     C33571   7.404   3.557   1.772  0.6879 -0.2925  0.6731
  244MOL0     C33572   7.541   3.615   1.785 -0.5504 -0.0450  0.6048
  244MOL0     C33573   7.634   3.499   1.755  0.5836  0.3017  1.0327
  244MOL0     C33574   7.782   3.549   1.760 -0.2076 -0.2497  0.3032
  244MOL0     C33575   7.875   3.423   1.759  0.0929  1.6423  0.1701
  244MOL0     C33576   8.022   3.456   1.737  0.2583 -0.0726  0.1861
  244MOL0     C33577   8.095   3.330   1.694  1.3999 -0.2247  0.1794
  244MOL0     C33578   8.235   3.358   1.634 -0.0470  0.3273  0.3835
  244MOL0    Cl33579   8.333   3.388   1.777 -0.0180  0.6896 -0.4343
  244MOL0     C33580   7.122   3.508   1.751 -0.1634 -0.0311  0.1204
  244MOL0     C33581   6.990   3.482   1.779  0.2341  0.2452  0.2980
  244MOL0     O33582   6.785   3.342   1.921  0.0600  0.5824 -0.2630
  244MOL0     C33583   6.502   3.541   1.818  0.2593  0.6552  0.9004
  244MOL0     C33584   6.358   3.554   1.821 -0.1975 -0.2141  0.4220
  244MOL0     N33585   5.514   3.684   2.078  0.3569  0.0460 -0.1630
  244MOL0     N33586   5.453   3.655   2.192  0.0703 -0.8920  0.9886
  244MOL0     C33587   5.200   2.384   2.736  0.1103  1.2294  0.5222
  244MOL0     C33588   5.133   2.273   2.790  0.0580  0.0390 -0.0057
  244MOL0     C33589   4.810   1.994   2.850 -0.6599 -0.3552 -0.6522
  244MOL0     C33590   4.928   1.915   2.840 -0.6520 -0.0178  0.5001
  244MOL0     C33591   4.923   1.779   2.838 -0.5133  0.9864 -0.0536
  244MOL0     C33592   4.805   1.708   2.854  0.8341 -0.9058 -0.3296
  244MOL0     O33593   4.804   1.571   2.866  0.1713 -0.4715  0.5400
  244MOL0     C33594   4.697   1.506   2.942  0.3307  0.2173 -0.0628
  244MOL0     C33595   4.709   1.365   2.896  0.1937  0.0544 -0.0460
  244MOL0     C33596   4.689   1.338   2.740  0.3231  0.1718 -0.6360
  244MOL0     C33597   4.547   1.330   2.698 -0.1414  0.7063 -0.2996
  244MOL0     C33598   4.475   1.216   2.752 -0.1348  1.3869 -0.5003
  244MOL0     C33599   4.419   1.122   2.806  0.5512 -0.3094 -0.2756
  244MOL0     C33600   4.688   1.783   2.856  0.3423 -1.1962  0.0134
  244MOL0     C33601   4.683   1.927   2.855 -0.1317  0.6554  0.3241
  244MOL0     C33602   4.555   1.998   2.871  0.7157 -0.4911  0.3871
  244MOL0     H33603   4.846   2.434   2.875  0.3415 -3.0440  0.5242
  244MOL0     H33604   4.972   2.631   2.753 -0.6689 -1.4962 -2.2335
  244MOL0     H33605   5.174   2.790   2.785 -2.0649 -0.9205  0.4655
  244MOL0     H33606   5.102   2.750   2.620 -1.2209  0.9456  1.0408
  244MOL0     H33607   5.387   2.794   2.668 -0.2037  0.0124  0.7501
  244MOL0     H33608   5.295   2.776   2.514  1.3270 -1.0130  0.9939
  244MOL0     H33609   5.176   2.971   2.540  1.1828 -1.4115 -0.8235
  244MOL0     H33610   5.215   2.997   2.714  0.4174 -3.0069  1.2801
  244MOL0     H33611   5.427   3.109   2.651 -0.9946  4.6196 -0.3491
  244MOL0     H33612   5.427   3.022   2.492  4.2600  2.2110  0.5321
  244MOL0     H33613   5.223   3.235   2.557 -0.9362 -3.2606 -0.1702
  244MOL0     H33614   5.265   3.168   2.404 -2.6571 -1.0840  1.6312
  244MOL0     H33615   5.415   3.352   2.583  1.6841  0.3645 -0.9389
  244MOL0     H33616   5.515   3.257   2.472  0.0673  1.3838  0.6942
  244MOL0     H33617   5.309   3.450   2.359 -0.8102  0.8677  1.8939
  244MOL0     H33618   5.442   3.352   2.283  3.5891  0.0805  1.2123
  244MOL0     H33619   5.446   3.597   2.447 -0.1342 -0.8526  0.2545
  244MOL0     H33620   5.602   3.501   2.447 -0.4773  3.2343  2.6315
  244MOL0     H33621   5.744   3.510   2.225 -1.4316 -0.3401  0.6329
  244MOL0     H33622   5.741   3.750   1.941  1.1034  0.6171  1.8431
  244MOL0     H33623   5.674   3.599   1.871  1.1107  1.3281  0.0629
  244MOL0     H33624   5.927   3.658   2.020  0.6245  0.3278 -1.6120
  244MOL0     H33625   5.862   3.502   2.045 -0.2203  0.9208  1.5673
  244MOL0     H33626   5.899   3.424   1.834 -2.7466  0.3616  1.5168
  244MOL0     H33627   5.869   3.577   1.755 -1.8735 -0.2958  1.3149
  244MOL0     H33628   6.109   3.570   1.738  1.3835  0.6029  1.5924
  244MOL0     H33629   6.100   3.656   1.882  0.7979  0.0865 -0.5423
  244MOL0     H33630   6.295   3.270   1.992  1.3135 -2.3807 -1.7060
  244MOL0     H33631   6.605   3.144   1.918 -0.7728 -2.7943  0.9476
  244MOL0     H33632   6.456   3.129   2.013  0.5384  0.6728  3.3254
  244MOL0     H33633   6.580   3.219   2.082 -0.0380 -0.9597 -0.4752
  244MOL0     H33634   6.894   3.797   1.887 -0.4928  0.1797  0.5944
  244MOL0     H33635   7.146   3.830   1.841  2.2663 -0.6426  0.1539
  244MOL0     H33636   7.387   3.490   1.856 -0.5767  0.4947  1.0673
  244MOL0     H33637   7.395   3.490   1.686 -0.7869 -1.2252  1.5178
  244MOL0     H33638   7.548   3.708   1.729 -1.3199  0.3735  1.1906
  244MOL0     H33639   7.546   3.649   1.888  1.2434  0.7414  0.2895
  244MOL0     H33640   7.613   3.458   1.656  1.3819  0.6103  0.7223
  244MOL0     H33641   7.616   3.413   1.819 -0.1000  1.3739  2.3224
  244MOL0     H33642   7.791   3.603   1.854  2.9533  1.2774 -0.7606
  244MOL0     H33643   7.802   3.611   1.673 -0.3894  0.3350  0.6719
  244MOL0     H33644   7.876   3.364   1.851  1.8091  0.0853 -0.7734
  244MOL0     H33645   7.849   3.348   1.684 -2.5716  1.3877  1.2606
  244MOL0     H33646   8.072   3.507   1.820  1.4641  0.6303 -0.9260
  244MOL0     H33647   8.028   3.530   1.657 -0.7636  0.9237  1.0011
  244MOL0     H33648   8.034   3.281   1.618 -0.3570  0.5740  1.0049
  244MOL0     H33649   8.086   3.261   1.779 -0.5125  2.3323  2.2460
  244MOL0     H33650   8.239   3.441   1.564  2.8333  0.3137  0.3855
  244MOL0     H33651   8.275   3.267   1.586  4.2809  2.5002 -0.6600
  244MOL0     H33652   7.182   3.430   1.705 -1.8778 -2.0872  1.2073
  244MOL0     H33653   6.945   3.385   1.765 -1.5365  1.1034 -0.2685
  244MOL0     H33654   6.555   3.627   1.779  2.4776 -0.7372  0.6751
  244MOL0     H33655   6.324   3.646   1.774 -0.3192 -0.3905  0.1618
  244MOL0     H33656   5.299   2.359   2.698 -1.4154 -0.5483 -2.7021
  244MOL0     H33657   5.174   2.173   2.789  2.6085  0.9844 -2.3527
  244MOL0     H33658   5.026   1.957   2.820 -0.7272 -1.0476 -2.7496
  244MOL0     H33659   5.011   1.718   2.826 -0.5782  0.4205  1.9875
  244MOL0     H33660   4.717   1.509   3.049 -0.7700 -0.6373  0.1824
  244MOL0     H33661   4.591   1.531   2.931  0.1439  0.2833  1.7213
  244MOL0     H33662   4.649   1.301   2.962 -1.9452 -1.1185 -2.8875
  244MOL0     H33663   4.813   1.335   2.910 -0.4585 -1.2794  2.4852
  244MOL0     H33664   4.724   1.425   2.684 -1.0620  0.8258 -0.5503
  244MOL0     H33665   4.740   1.252   2.696 -1.3996 -1.0806 -0.2714
  244MOL0     H33666   4.546   1.320   2.589  0.7953 -0.0560 -0.2439
  244MOL0     H33667   4.489   1.422   2.713  0.7860  0.9486  2.2072
  244MOL0     H33668   4.366   1.048   2.864  0.5111 -0.9636 -1.1345
  244MOL0     H33669   4.594   1.730   2.847  0.6710 -1.7626 -0.1711
  244MOL0     H33670   4.546   2.078   2.797 -0.2671 -3.0864 -2.5031
  244MOL0     H33671   4.464   1.937   2.875  0.6873 -0.3903  2.5777
  244MOL0     H33672   4.547   2.058   2.962  1.8816 -0.3492  0.4087
  245MOL0     O33673  11.030   9.181   0.080 -0.3427 -0.0356  0.1935
  245MOL0     C33674  10.918   9.200   0.032  0.0182 -0.5322  0.2841
  245MOL0     O33675  10.897   9.219  -0.101 -0.2124 -0.5611 -0.2166
  245MOL0     C33676  11.011   9.224  -0.178  0.1819  0.0605 -0.7201
  245MOL0     C33677  11.021   9.132  -0.279 -0.3481  0.8279  0.4648
  245MOL0     C33678  11.134   9.127  -0.359  0.6129  0.7473 -0.1194
  245MOL0     C33679  11.241   9.214  -0.333 -0.2771  0.6766  0.3781
  245MOL0     O33680  11.349   9.198  -0.418  0.4452 -0.5260  0.4571
  245MOL0     C33681  11.477   9.246  -0.377  0.3612 -0.0974 -0.4837
  245MOL0     C33682  11.577   9.177  -0.454 -0.6139  0.0660  0.4967
  245MOL0     C33683  11.722   9.198  -0.409  0.1961  0.3679 -0.5074
  245MOL0     C33684  11.773   9.342  -0.463 -0.1227 -0.3540  0.2134
  245MOL0     C33685  11.919   9.365  -0.421  0.6655  0.3258 -0.5505
  245MOL0     C33686  12.005   9.247  -0.459 -0.2830 -0.1410 -0.8094
  245MOL0     C33687  12.153   9.286  -0.454 -0.3048 -0.2798 -0.7417
  245MOL0     C33688  12.239   9.153  -0.476 -0.2958 -0.2033  0.3153
  245MOL0     N33689  12.387   9.172  -0.493  0.4441  0.4482 -0.1799
  245MOL0     C33690  12.480   9.169  -0.398 -1.3078  0.5204 -0.4628
  245MOL0     C33691  12.591   9.217  -0.455 -0.2317  0.0962  0.0194
  245MOL0     C33692  12.715   9.246  -0.378  0.3913 -0.8601  0.6142
  245MOL0     C33693  12.839   9.274  -0.473  0.2364  1.0393  0.4949
  245MOL0     C33694  12.964   9.211  -0.405 -0.3222  0.1288  0.3143
  245MOL0     C33695  12.993   9.278  -0.277  0.1588 -0.5814 -0.7881
  245MOL0     O33696  13.034   9.414  -0.291  0.3106 -0.0021  0.1871
  245MOL0     C33697  13.165   9.442  -0.290  0.1982 -1.6474 -0.4312
  245MOL0     C33698  13.228   9.438  -0.162  1.1650  0.3978 -0.6018
  245MOL0     C33699  13.362   9.461  -0.150  0.1859  0.6681 -0.2364
  245MOL0     C33700  13.413   9.487  -0.009  1.0230  0.1461 -0.4053
  245MOL0     C33701  13.441   9.480  -0.266  0.6611 -0.0868  0.0447
  245MOL0     C33702  13.588   9.503  -0.261 -1.1305  0.1787  0.2149
  245MOL0     O33703  13.654   9.552  -0.374 -0.2570  0.5551  0.4607
  245MOL0     C33704  13.784   9.587  -0.388 -0.2449 -0.5960 -0.1537
  245MOL0     C33705  13.811   9.647  -0.513  0.2240  0.0261  0.3228
  245MOL0     C33706  13.938   9.678  -0.557 -0.1624 -0.1872 -0.6208
  245MOL0     C33707  14.044   9.638  -0.473  0.4073  0.4633  0.7974
  245MOL0     O33708  14.171   9.655  -0.532  0.3112  0.5775 -1.4268
  245MOL0     C33709  14.289   9.661  -0.448 -0.2367 -0.3532 -0.1114
  245MOL0     C33710  14.392   9.742  -0.523  1.4849 -0.0022 -0.3953
  245MOL0     C33711  14.536   9.744  -0.460 -0.4659 -0.4360  1.2561
  245MOL0     C33712  14.639   9.802  -0.556  0.1942 -0.1135 -0.6066
  245MOL0     C33713  14.770   9.864  -0.501 -0.7054 -0.4624 -0.4312
  245MOL0     C33714  14.749   9.963  -0.381  0.0379 -0.5010 -0.3725
  245MOL0     C33715  14.879  10.045  -0.364  0.7564 -0.0704  0.1877
  245MOL0     C33716  14.979   9.965  -0.285  0.4040  0.6644  0.0979
  245MOL0    Cl33717  15.144  10.038  -0.307 -0.2466  0.4096 -0.3149
  245MOL0     C33718  14.020   9.571  -0.349 -0.3186  0.8540  0.5216
  245MOL0     C33719  13.889   9.557  -0.299 -0.0625  0.2159  0.4591
  245MOL0     O33720  13.649   9.458  -0.162  0.5399 -0.1901 -0.1766
  245MOL0     C33721  13.376   9.484  -0.393 -0.3907 -0.1413  0.3049
  245MOL0     C33722  13.235   9.470  -0.400 -0.0684  0.3704  0.4535
  245MOL0     N33723  12.554   9.259  -0.584 -0.5424 -0.4281 -0.2210
  245MOL0     N33724  12.429   9.234  -0.602  0.3210 -0.0470  0.4653
  245MOL0     C33725  11.218   9.318  -0.241 -1.2703 -0.2565  0.6643
  245MOL0     C33726  11.101   9.326  -0.167 -0.1456  0.2693  1.1347
  245MOL0     C33727  10.802   9.226   0.118  0.0729  0.0346 -0.0131
  245MOL0     C33728  10.800   9.161   0.242  0.0071  0.1204 -0.2967
  245MOL0     C33729  10.706   9.188   0.343  0.3657  0.0475  0.5981
  245MOL0     C33730  10.600   9.269   0.308 -0.3790 -0.8410  0.8009
  245MOL0     O33731  10.484   9.273   0.384 -0.4085  0.1362 -0.2552
  245MOL0     C33732  10.477   9.210   0.514 -0.2997 -0.8300 -0.9241
  245MOL0     C33733  10.448   9.054   0.503 -0.2731  0.2491  0.1467
  245MOL0     C33734  10.301   9.019   0.461  0.5794 -0.1674  0.3733
  245MOL0     C33735  10.270   8.866   0.476  0.2149 -0.5246  0.1031
  245MOL0     C33736  10.129   8.837   0.481 -0.3649 -0.4237 -0.5552
  245MOL0     C33737  10.020   8.798   0.476  0.8313 -0.8094  0.7163
  245MOL0     C33738  10.599   9.341   0.187 -0.2473  0.1170  0.0999
  245MOL0     C33739  10.699   9.319   0.093 -0.4000 -0.1584  0.2733
  245MOL0     C33740  10.683   9.414  -0.023  0.0590 -0.5254 -0.0303
  245MOL0     H33741  10.947   9.054  -0.293  1.0442 -0.3592 -0.6756
  245MOL0     H33742  11.133   9.043  -0.428 -1.1549 -1.0306  1.9247
  245MOL0     H33743  11.497   9.225  -0.271 -0.7648 -0.0157 -0.2420
  245MOL0     H33744  11.486   9.352  -0.400 -1.1241 -0.0762 -1.0542
  245MOL0     H33745  11.555   9.070  -0.455 -0.2332 -0.0437 -1.5858
  245MOL0     H33746  11.562   9.215  -0.555 -0.0631 -1.7427 -0.3131
  245MOL0     H33747  11.727   9.197  -0.300 -3.0129 -0.1836 -0.2943
  245MOL0     H33748  11.790   9.120  -0.445 -2.1416 -1.4833 -1.1731
  245MOL0     H33749  11.758   9.348  -0.571 -1.5858 -1.2439  0.3372
  245MOL0     H33750  11.707   9.417  -0.417 -0.6787  1.1842 -2.8592
  245MOL0     H33751  11.928   9.396  -0.316 -2.3846  3.5370 -1.0536
  245MOL0     H33752  11.955   9.453  -0.476 -1.5304  0.6310 -1.5754
  245MOL0     H33753  11.996   9.163  -0.389  0.6968  0.4270  0.0372
  245MOL0     H33754  11.984   9.214  -0.561 -0.4569 -1.4713 -0.3693
  245MOL0     H33755  12.175   9.329  -0.356 -2.1069 -0.4428 -0.2244
  245MOL0     H33756  12.185   9.358  -0.531  0.5261 -0.0068 -0.1555
  245MOL0     H33757  12.228   9.096  -0.384 -2.1245 -0.2207  0.1196
  245MOL0     H33758  12.203   9.092  -0.559 -0.2713  0.2291 -0.0156
  245MOL0     H33759  12.479   9.141  -0.293  2.2584 -1.5556 -0.8459
  245MOL0     H33760  12.736   9.162  -0.310  1.9136 -1.5370 -0.6356
  245MOL0     H33761  12.688   9.337  -0.324  0.5800  0.8542 -2.0522
  245MOL0     H33762  12.818   9.217  -0.564  2.2688 -1.2615  1.3654
  245MOL0     H33763  12.842   9.380  -0.499 -1.2897  0.8500 -0.5828
  245MOL0     H33764  12.934   9.106  -0.398 -1.2554  0.2471 -1.4528
  245MOL0     H33765  13.051   9.224  -0.470 -0.6229  2.0446  0.2367
  245MOL0     H33766  12.910   9.260  -0.208 -0.0564 -1.0428 -1.1700
  245MOL0     H33767  13.077   9.220  -0.237 -1.5139 -1.2856  1.9916
  245MOL0     H33768  13.178   9.421  -0.067  0.7594 -2.2025 -1.1974
  245MOL0     H33769  13.447   9.591  -0.010 -0.1162  0.5784 -3.0419
  245MOL0     H33770  13.496   9.421   0.017  0.5893 -0.8099 -1.3462
  245MOL0     H33771  13.337   9.470   0.067  0.4131  0.7739 -0.8564
  245MOL0     H33772  13.728   9.662  -0.581 -1.3620 -0.2247  2.1201
  245MOL0     H33773  13.959   9.712  -0.657 -0.3800  0.4047 -0.4700
  245MOL0     H33774  14.275   9.707  -0.350  1.9716 -2.4673  1.3344
  245MOL0     H33775  14.331   9.560  -0.440  0.5105 -0.2764 -2.3007
  245MOL0     H33776  14.396   9.694  -0.622 -0.1409  1.1868 -1.0829
  245MOL0     H33777  14.346   9.841  -0.528 -2.6921 -1.5385  2.4250
  245MOL0     H33778  14.579   9.645  -0.448  1.3285  0.1586  0.0128
  245MOL0     H33779  14.533   9.788  -0.359 -2.2604 -2.4747  2.1693
  245MOL0     H33780  14.601   9.885  -0.616  2.6114  0.6005 -1.2343
  245MOL0     H33781  14.659   9.718  -0.623 -1.1953 -1.7208  0.8723
  245MOL0     H33782  14.836   9.787  -0.461 -0.8556  0.4288  1.6726
  245MOL0     H33783  14.814   9.913  -0.589 -1.5535  1.1438  0.0096
  245MOL0     H33784  14.721   9.900  -0.295  0.6346  0.1651  0.3239
  245MOL0     H33785  14.662  10.027  -0.401  0.0664 -0.6218 -0.8879
  245MOL0     H33786  14.867  10.144  -0.318  0.9608 -0.8095  1.9329
  245MOL0     H33787  14.912  10.058  -0.467 -2.3147 -0.9246 -1.0261
  245MOL0     H33788  14.976   9.865  -0.329 -1.4366  1.2755 -1.2711
  245MOL0     H33789  14.959   9.952  -0.178 -2.5944  1.9217 -0.2013
  245MOL0     H33790  14.106   9.543  -0.290  1.3957  3.9765 -0.2441
  245MOL0     H33791  13.876   9.510  -0.202 -0.7800 -1.2224 -0.3003
  245MOL0     H33792  13.431   9.497  -0.485  1.2264 -1.7838  0.9771
  245MOL0     H33793  13.191   9.466  -0.499  0.1166  2.0840  0.2797
  245MOL0     H33794  11.294   9.395  -0.227 -2.1866  1.2714 -2.1640
  245MOL0     H33795  11.075   9.409  -0.102 -0.2343  1.9041 -0.8709
  245MOL0     H33796  10.884   9.102   0.277 -1.0278  0.3148  2.8435
  245MOL0     H33797  10.707   9.138   0.439 -0.3092  0.9176  1.0665
  245MOL0     H33798  10.568   9.219   0.574  0.3321  2.0316 -2.1413
  245MOL0     H33799  10.404   9.261   0.577 -0.6344  1.2008 -2.8175
  245MOL0     H33800  10.470   9.010   0.601 -0.2848  0.4758  0.2505
  245MOL0     H33801  10.522   9.004   0.439 -1.8793 -2.1005  0.0160
  245MOL0     H33802  10.227   9.077   0.516 -3.3142 -1.0316 -3.3905
  245MOL0     H33803  10.291   9.056   0.358  0.5252 -3.4213 -0.8907
  245MOL0     H33804  10.328   8.821   0.556  0.3862 -0.5279 -0.0212
  245MOL0     H33805  10.313   8.829   0.382  3.2684 -1.4046  1.7092
  245MOL0     H33806   9.923   8.757   0.456  1.1389 -0.3173 -2.1347
  245MOL0     H33807  10.512   9.403   0.170  1.7724  3.3926  0.8764
  245MOL0     H33808  10.776   9.447  -0.070  0.8672  0.2563  1.9780
  245MOL0     H33809  10.631   9.369  -0.108  1.8552 -4.2779  0.6562
  245MOL0     H33810  10.632   9.505   0.009 -0.1200  0.5396 -3.0462
  246MOL0     O33811   5.555   0.531  11.161 -0.1038 -0.6288  0.7195
  246MOL0     C33812   5.548   0.454  11.068 -1.0259 -0.1559  0.7592
  246MOL0     O33813   5.661   0.386  11.017 -0.1739 -0.6902 -0.0438
  246MOL0     C33814   5.780   0.405  11.075  0.2121 -0.1001 -0.4644
  246MOL0     C33815   5.804   0.438  11.205 -0.7388  0.9851 -0.3777
  246MOL0     C33816   5.933   0.460  11.253 -0.1548  0.1197  0.5207
  246MOL0     C33817   6.041   0.465  11.165  0.3530 -0.2651  0.0062
  246MOL0     O33818   6.168   0.485  11.195 -0.4490 -0.7450 -0.3237
  246MOL0     C33819   6.203   0.506  11.335 -0.3067 -0.3514  0.0265
  246MOL0     C33820   6.354   0.518  11.371  0.2844 -0.0019 -0.5790
  246MOL0     C33821   6.423   0.631  11.304  0.3366 -0.3936 -0.0496
  246MOL0     C33822   6.446   0.624  11.150 -0.4980 -0.3504  0.7901
  246MOL0     C33823   6.576   0.695  11.097  0.7562  0.6222  1.2239
  246MOL0     C33824   6.628   0.640  10.957 -0.2439 -0.5373 -0.5881
  246MOL0     C33825   6.518   0.646  10.846 -0.1594 -1.3141 -0.2785
  246MOL0     C33826   6.559   0.604  10.711  0.4470 -0.5685  0.5464
  246MOL0     N33827   6.563   0.465  10.700 -0.0455 -0.5983 -0.5679
  246MOL0     C33828   6.672   0.388  10.712  0.6842 -0.3792 -0.1206
  246MOL0     C33829   6.626   0.259  10.727  0.7279 -0.6080  0.0156
  246MOL0     C33830   6.722   0.142  10.733  0.3671 -0.2738 -0.0560
  246MOL0     C33831   6.654   0.014  10.782  0.1907  0.2539  0.1682
  246MOL0     C33832   6.738  -0.078  10.859 -0.9156  0.7584 -0.4608
  246MOL0     C33833   6.834  -0.160  10.772 -0.4188 -0.2001 -0.6218
  246MOL0     O33834   6.916  -0.241  10.862  0.2617 -0.3953  0.5259
  246MOL0     C33835   7.031  -0.297  10.815 -0.1796  0.3716 -0.1898
  246MOL0     C33836   7.122  -0.340  10.920  0.5897  0.0659 -0.4145
  246MOL0     C33837   7.240  -0.405  10.878 -0.2601  0.1087  0.1496
  246MOL0     C33838   7.325  -0.470  10.979  0.1295  0.3774 -0.0028
  246MOL0     C33839   7.273  -0.397  10.745 -0.0417  0.4648  0.0045
  246MOL0     C33840   7.401  -0.452  10.696  0.4360 -0.0421 -0.4269
  246MOL0     O33841   7.511  -0.381  10.739  0.2170  0.5700 -0.1932
  246MOL0     C33842   7.634  -0.442  10.713 -0.5784 -0.4117  0.2875
  246MOL0     C33843   7.713  -0.511  10.802 -0.5120 -0.2656 -0.6974
  246MOL0     C33844   7.834  -0.578  10.771 -0.4192  0.0304 -0.4375
  246MOL0     C33845   7.883  -0.553  10.638 -0.2134  0.7541 -0.0668
  246MOL0     O33846   8.009  -0.616  10.594  0.8441  0.5433 -0.7381
  246MOL0     C33847   8.078  -0.564  10.482 -0.2107  0.4429 -0.1833
  246MOL0     C33848   8.221  -0.631  10.488  0.5525  0.7111  0.1782
  246MOL0     C33849   8.332  -0.550  10.549  0.3551  0.5867  0.6248
  246MOL0     C33850   8.370  -0.431  10.465  0.8434  0.5651  0.1292
  246MOL0     C33851   8.497  -0.360  10.520 -0.4386  0.1143  0.6711
  246MOL0     C33852   8.633  -0.434  10.489 -0.3032 -0.3935 -0.3740
  246MOL0     C33853   8.742  -0.333  10.527  0.6850 -0.7524  0.6188
  246MOL0     C33854   8.888  -0.383  10.557  0.5078  0.8263  0.3978
  246MOL0    Cl33855   9.010  -0.259  10.554  0.0672 -0.2111 -0.1299
  246MOL0     C33856   7.811  -0.477  10.547  0.2725 -0.5974  0.6459
  246MOL0     C33857   7.688  -0.417  10.588  0.2544 -0.5466 -0.2994
  246MOL0     O33858   7.399  -0.544  10.614  0.3326 -0.1756  0.0285
  246MOL0     C33859   7.190  -0.355  10.639  0.4463  0.3288 -0.2148
  246MOL0     C33860   7.068  -0.302  10.683 -0.3502 -0.3588  0.3344
  246MOL0     N33861   6.489   0.263  10.720  0.8353  0.0265  0.6271
  246MOL0     N33862   6.453   0.390  10.719  0.3349 -0.0839  0.0942
  246MOL0     C33863   6.016   0.430  11.035  0.7755 -0.3770 -0.2033
  246MOL0     C33864   5.886   0.401  10.991  0.2012 -0.8105  0.6125
  246MOL0     C33865   5.421   0.427  10.998  0.4256  0.2445  0.6694
  246MOL0     C33866   5.422   0.329  10.895 -0.0919 -0.0306 -0.8568
  246MOL0     C33867   5.316   0.309  10.816  0.8930 -0.0365 -0.0774
  246MOL0     C33868   5.193   0.356  10.848 -0.0798  1.2436 -0.8277
  246MOL0     O33869   5.092   0.322  10.765  0.3798 -0.6895  0.8086
  246MOL0     C33870   4.958   0.363  10.791  0.9685  0.0995  0.6172
  246MOL0     C33871   4.931   0.505  10.742 -0.0768 -0.6008  0.1580
  246MOL0     C33872   4.792   0.562  10.767  0.2275  0.1555  0.0383
  246MOL0     C33873   4.684   0.502  10.677 -0.0909 -0.2608  0.2021
  246MOL0     C33874   4.546   0.538  10.714 -0.1397  0.0811 -0.1695
  246MOL0     C33875   4.444   0.551  10.779 -0.2843 -0.2608 -0.6732
  246MOL0     C33876   5.175   0.439  10.961 -0.3881  0.1529 -0.4723
  246MOL0     C33877   5.292   0.479  11.027 -0.0905 -0.5572  0.0267
  246MOL0     C33878   5.276   0.572  11.143 -0.0393  0.6782  0.6308
  246MOL0     H33879   5.731   0.435  11.286  2.3585  0.8597  2.6313
  246MOL0     H33880   5.936   0.494  11.356 -0.4239  3.4954 -0.4516
  246MOL0     H33881   6.172   0.419  11.394  1.0834  0.7752  2.5676
  246MOL0     H33882   6.154   0.594  11.377  0.4836 -0.3020  0.8885
  246MOL0     H33883   6.357   0.537  11.479 -0.9207  0.1295 -0.5604
  246MOL0     H33884   6.403   0.427  11.334 -0.4959  0.6795 -3.5871
  246MOL0     H33885   6.369   0.725  11.319 -0.2161 -0.2147 -2.6046
  246MOL0     H33886   6.524   0.645  11.345 -0.3325 -0.5610  1.7358
  246MOL0     H33887   6.461   0.519  11.122 -1.8457  0.1772 -2.2548
  246MOL0     H33888   6.362   0.660  11.091  1.8621  4.0087 -0.3711
  246MOL0     H33889   6.659   0.686  11.168  1.8122 -0.5471 -0.0993
  246MOL0     H33890   6.560   0.803  11.087  1.0351  0.5086 -0.8756
  246MOL0     H33891   6.714   0.702  10.934 -0.7132  0.5500  0.4714
  246MOL0     H33892   6.665   0.537  10.964  1.7120  0.1822  0.3890
  246MOL0     H33893   6.490   0.751  10.833 -2.8277 -2.1757 -2.4138
  246MOL0     H33894   6.427   0.593  10.872 -0.0560 -0.9642  0.8217
  246MOL0     H33895   6.479   0.641  10.645 -0.5864  0.9956  2.5702
  246MOL0     H33896   6.655   0.651  10.686  0.6831  0.0500  2.4808
  246MOL0     H33897   6.772   0.423  10.690  0.8943  0.1134  1.4531
  246MOL0     H33898   6.796   0.172  10.808 -0.1718  0.1912  0.3028
  246MOL0     H33899   6.775   0.124  10.639 -1.3213 -1.4492 -0.8233
  246MOL0     H33900   6.564   0.035  10.841  0.4217  2.2243 -0.1293
  246MOL0     H33901   6.623  -0.047  10.697  0.7914 -0.6760  0.6014
  246MOL0     H33902   6.796  -0.026  10.936  1.2572  1.4177 -2.4203
  246MOL0     H33903   6.669  -0.152  10.899 -0.5979 -0.5309 -2.1825
  246MOL0     H33904   6.787  -0.222  10.696  0.6455  0.1903 -1.6487
  246MOL0     H33905   6.895  -0.094  10.709 -0.5168  0.0280 -0.4800
  246MOL0     H33906   7.096  -0.314  11.022 -1.3978 -1.6407 -0.4148
  246MOL0     H33907   7.426  -0.431  10.970  0.4772 -0.2054  1.2332
  246MOL0     H33908   7.316  -0.579  10.969  0.6402  0.0030  2.9047
  246MOL0     H33909   7.284  -0.461  11.080  0.9917 -2.6736  0.7352
  246MOL0     H33910   7.683  -0.527  10.905 -0.2546 -0.3976 -0.6436
  246MOL0     H33911   7.894  -0.635  10.842 -1.0188 -0.9126 -0.6679
  246MOL0     H33912   8.026  -0.604  10.394  0.4849  1.9562 -1.3297
  246MOL0     H33913   8.079  -0.457  10.462 -2.8745  0.2203 -2.1422
  246MOL0     H33914   8.219  -0.721  10.551 -0.5708  2.0253  2.1068
  246MOL0     H33915   8.243  -0.662  10.385 -1.0122  0.0597  0.0176
  246MOL0     H33916   8.422  -0.611  10.566  0.6518 -0.3553 -3.3976
  246MOL0     H33917   8.295  -0.515  10.646 -0.5269 -0.0105  0.5180
  246MOL0     H33918   8.288  -0.359  10.462 -0.1694 -0.5431  0.6330
  246MOL0     H33919   8.385  -0.473  10.365 -3.0678  1.3848 -0.9617
  246MOL0     H33920   8.494  -0.267  10.463 -2.6032 -0.9979 -1.2026
  246MOL0     H33921   8.496  -0.339  10.627  3.9670  0.9224  0.7459
  246MOL0     H33922   8.642  -0.453  10.382 -0.8884  2.2998 -0.9839
  246MOL0     H33923   8.651  -0.525  10.545  1.2682 -1.0960 -1.9257
  246MOL0     H33924   8.720  -0.279  10.619 -1.0336 -2.9933  1.6158
  246MOL0     H33925   8.742  -0.251  10.454  0.0261 -0.5385  0.8441
  246MOL0     H33926   8.915  -0.465  10.491 -0.1367  0.6749  0.3155
  246MOL0     H33927   8.891  -0.414  10.662  2.1061 -0.7396 -0.0670
  246MOL0     H33928   7.836  -0.476  10.442 -2.2233 -0.0627 -0.0178
  246MOL0     H33929   7.642  -0.350  10.517  1.9000  0.9884  0.0102
  246MOL0     H33930   7.198  -0.369  10.532  0.5341  1.2455 -0.3386
  246MOL0     H33931   6.998  -0.271  10.606 -1.2811 -0.1846  1.2293
  246MOL0     H33932   6.102   0.424  10.969  1.5393 -0.6804  0.7975
  246MOL0     H33933   5.858   0.371  10.891 -2.6940  1.6629  0.5259
  246MOL0     H33934   5.517   0.290  10.861  0.3771  1.0637 -0.8557
  246MOL0     H33935   5.335   0.242  10.733  1.0978  1.1550 -1.0232
  246MOL0     H33936   4.890   0.292  10.743 -0.9410  1.2136  1.5474
  246MOL0     H33937   4.936   0.352  10.897  1.6167 -1.5921  0.6018
  246MOL0     H33938   4.964   0.507  10.638 -0.4303 -1.7777  0.0119
  246MOL0     H33939   5.002   0.572  10.793  0.9292 -1.6569  0.1762
  246MOL0     H33940   4.764   0.550  10.873 -1.0935 -1.2876 -0.4337
  246MOL0     H33941   4.797   0.668  10.741  2.1025 -0.5263 -2.8843
  246MOL0     H33942   4.700   0.394  10.671  1.1709 -0.0076 -2.5179
  246MOL0     H33943   4.693   0.535  10.573 -0.5201  1.6053  0.7090
  246MOL0     H33944   4.355   0.553  10.838 -0.1530 -1.2056 -0.4284
  246MOL0     H33945   5.077   0.480  10.984  1.1593  3.6427  0.5449
  246MOL0     H33946   5.321   0.666  11.111 -1.2447  0.3659 -2.2638
  246MOL0     H33947   5.171   0.575  11.173  0.4383 -0.2267  2.5568
  246MOL0     H33948   5.326   0.534  11.233  1.5629 -0.3196 -0.6230
  247MOL0     O33949   3.360   9.208   1.633 -0.6993  0.1698  0.3415
  247MOL0     C33950   3.324   9.108   1.569 -0.1808 -1.2898 -0.3630
  247MOL0     O33951   3.409   9.002   1.536 -0.0689 -0.0174  0.1176
  247MOL0     C33952   3.545   9.033   1.534 -0.7949 -0.0377 -1.5446
  247MOL0     C33953   3.636   8.983   1.634 -0.2219 -0.0068 -0.4570
  247MOL0     C33954   3.777   8.991   1.616  0.5185  1.3974 -0.2072
  247MOL0     C33955   3.834   9.028   1.503  0.0021  0.1541 -0.1262
  247MOL0     O33956   3.974   9.037   1.499 -0.0514  0.4647  0.1848
  247MOL0     C33957   4.026   8.961   1.384  0.3814  0.5132 -0.3252
  247MOL0     C33958   4.148   9.022   1.312 -0.3000 -0.1605  0.1152
  247MOL0     C33959   4.274   8.935   1.370  0.2900  0.2440  0.4065
  247MOL0     C33960   4.411   9.009   1.365  0.2858 -0.2175 -0.8824
  247MOL0     C33961   4.483   8.987   1.240 -0.2486  0.8381  0.9389
  247MOL0     C33962   4.617   9.060   1.226  0.5701  0.3747  0.4843
  247MOL0     C33963   4.656   9.047   1.083  0.0954 -0.1011  1.0103
  247MOL0     C33964   4.803   9.083   1.075 -0.1619 -0.0362  0.0557
  247MOL0     N33965   4.847   9.099   0.937  0.5660 -0.0525 -0.8096
  247MOL0     C33966   4.867   9.223   0.895 -0.8094  0.6855  0.1426
  247MOL0     C33967   4.870   9.214   0.763  0.6390 -0.8120 -0.1100
  247MOL0     C33968   4.905   9.333   0.674 -0.4247 -0.0131  0.1029
  247MOL0     C33969   4.873   9.466   0.743 -0.6162  0.9359  0.8541
  247MOL0     C33970   4.892   9.567   0.643 -0.1365 -0.5165  0.1409
  247MOL0     C33971   4.873   9.712   0.687  0.0238 -0.1228  0.5274
  247MOL0     O33972   4.961   9.738   0.797  0.2517 -0.6140  0.0109
  247MOL0     C33973   4.915   9.841   0.881  0.3129 -0.2397  0.4544
  247MOL0     C33974   4.882   9.968   0.834  0.5884 -0.2636 -0.0319
  247MOL0     C33975   4.848  10.068   0.926  0.4130  0.0112  0.3639
  247MOL0     C33976   4.806  10.199   0.862  0.4535 -0.0335  1.0125
  247MOL0     C33977   4.854  10.045   1.059  0.5328  0.0031 -0.5090
  247MOL0     C33978   4.826  10.161   1.156  0.3472  0.4388 -0.5019
  247MOL0     O33979   4.930  10.253   1.193  0.1180  0.3120 -0.7618
  247MOL0     C33980   5.058  10.230   1.154 -0.0293  0.5752  0.6385
  247MOL0     C33981   5.112  10.304   1.046 -1.2393  0.3888 -0.4032
  247MOL0     C33982   5.246  10.287   1.003  0.8233 -0.1160  0.8106
  247MOL0     C33983   5.333  10.205   1.073  0.1528 -0.3994 -0.5977
  247MOL0     O33984   5.470  10.194   1.046  0.0904 -0.0505  0.3632
  247MOL0     C33985   5.532  10.061   1.081 -1.2940 -0.5571  0.0501
  247MOL0     C33986   5.665  10.042   1.005  0.0678 -0.1070 -0.7829
  247MOL0     C33987   5.774  10.132   1.058  0.2836  0.1736 -1.0601
  247MOL0     C33988   5.917  10.097   1.014  0.3438  0.2711 -0.9514
  247MOL0     C33989   5.986   9.977   1.093 -0.1809  1.3141  0.2536
  247MOL0     C33990   6.121   9.965   1.037  1.0335 -0.1252 -0.4965
  247MOL0     C33991   6.189   9.824   1.058  0.3689 -0.7990 -0.6045
  247MOL0     C33992   6.245   9.819   1.195  0.4255  0.1494 -0.2550
  247MOL0    Cl33993   6.297   9.656   1.232 -0.2676 -0.0713 -0.1830
  247MOL0     C33994   5.279  10.133   1.180  0.2702  0.3636 -0.1505
  247MOL0     C33995   5.140  10.149   1.214 -0.8367  0.3644 -0.6084
  247MOL0     O33996   4.706  10.167   1.196 -0.3863 -0.8473  0.4365
  247MOL0     C33997   4.892   9.920   1.112 -0.6181  0.3045 -0.6300
  247MOL0     C33998   4.917   9.814   1.020  0.3610  0.2277 -0.1405
  247MOL0     N33999   4.839   9.084   0.731 -0.1030 -0.1215  1.1449
  247MOL0     N34000   4.822   9.016   0.834  0.7389  0.1435  0.9116
  247MOL0     C34001   3.746   9.076   1.398 -0.7029  0.0656 -0.5445
  247MOL0     C34002   3.612   9.079   1.412  0.4056  0.1355 -0.1566
  247MOL0     C34003   3.182   9.089   1.538  0.1612  0.3230 -0.6349
  247MOL0     C34004   3.136   8.962   1.513 -0.1110  0.1631  0.5363
  247MOL0     C34005   3.001   8.933   1.507  1.1081 -0.6542  0.2515
  247MOL0     C34006   2.907   9.039   1.518 -0.0467  0.1828 -0.2910
  247MOL0     O34007   2.774   9.028   1.494  0.7371  0.2508 -0.2455
  247MOL0     C34008   2.700   8.938   1.576  0.9667  0.0554 -0.3653
  247MOL0     C34009   2.705   8.975   1.725  0.9362  0.1052 -0.0546
  247MOL0     C34010   2.579   8.921   1.806  0.4479  0.0553  0.4205
  247MOL0     C34011   2.584   8.953   1.957 -0.7396  0.3650  0.7559
  247MOL0     C34012   2.712   8.917   2.023  0.0490  0.0040  0.1105
  247MOL0     C34013   2.816   8.876   2.070 -0.2133  0.2021 -0.2740
  247MOL0     C34014   2.950   9.171   1.533 -0.3476 -0.2388 -0.9372
  247MOL0     C34015   3.089   9.198   1.540 -0.5333 -0.2760  0.8175
  247MOL0     C34016   3.124   9.336   1.543  0.3315  1.3205  0.1892
  247MOL0     H34017   3.594   8.935   1.722 -1.5243  1.4935 -0.2093
  247MOL0     H34018   3.843   8.956   1.694 -1.5468  2.6693  2.2593
  247MOL0     H34019   3.948   8.949   1.308 -0.4241 -1.0342  0.6997
  247MOL0     H34020   4.049   8.864   1.428 -1.0675  0.1542 -0.3215
  247MOL0     H34021   4.148   9.005   1.204  1.2337  0.7449 -0.0632
  247MOL0     H34022   4.172   9.126   1.338 -1.1720  0.1183 -0.1895
  247MOL0     H34023   4.267   8.924   1.479 -0.4283  0.8365  0.4317
  247MOL0     H34024   4.270   8.840   1.317 -0.7338  0.6265 -0.2279
  247MOL0     H34025   4.410   9.116   1.387 -0.3009 -0.4101  0.1001
  247MOL0     H34026   4.469   8.956   1.440 -0.3963 -1.0732 -0.9352
  247MOL0     H34027   4.418   9.012   1.156  0.0968 -5.1998 -1.6392
  247MOL0     H34028   4.491   8.879   1.222  0.9298  1.0184  0.3107
  247MOL0     H34029   4.607   9.166   1.251  2.5216  0.6445  0.3045
  247MOL0     H34030   4.685   9.010   1.295 -1.1104 -2.9176 -0.0335
  247MOL0     H34031   4.601   9.107   1.010 -0.2642 -1.9981 -0.3416
  247MOL0     H34032   4.639   8.943   1.053 -3.6358  0.5071  0.6345
  247MOL0     H34033   4.825   9.173   1.133 -2.9198 -0.4745  1.9979
  247MOL0     H34034   4.853   8.999   1.125 -0.6518  1.3476  3.1182
  247MOL0     H34035   4.875   9.314   0.953  0.3257  1.5512 -1.2954
  247MOL0     H34036   4.855   9.320   0.578  1.5945  2.5733 -1.4232
  247MOL0     H34037   5.013   9.331   0.658  0.4512  4.3617  3.5129
  247MOL0     H34038   4.774   9.470   0.788 -1.0737  2.6745 -0.2418
  247MOL0     H34039   4.947   9.471   0.824  2.0576  2.6713 -1.4824
  247MOL0     H34040   4.992   9.559   0.601  0.4707 -1.0955  1.6508
  247MOL0     H34041   4.822   9.560   0.559 -0.3086  0.7620  0.1514
  247MOL0     H34042   4.890   9.782   0.605  2.6225  0.7473  1.7003
  247MOL0     H34043   4.768   9.727   0.714  0.1919  2.4867 -0.0048
  247MOL0     H34044   4.889   9.994   0.729  0.6999 -1.5898 -0.3618
  247MOL0     H34045   4.717  10.232   0.916 -1.8703 -1.0753 -1.8991
  247MOL0     H34046   4.774  10.195   0.758  0.2405 -2.3959  1.1236
  247MOL0     H34047   4.880  10.280   0.864 -2.8302  3.4835 -2.0843
  247MOL0     H34048   5.047  10.375   0.996 -3.2439 -1.0433  0.0722
  247MOL0     H34049   5.290  10.333   0.916 -1.2363 -0.1319 -0.2854
  247MOL0     H34050   5.558  10.062   1.188 -0.3917  3.3981 -0.0425
  247MOL0     H34051   5.455   9.990   1.049 -0.7964 -2.0396  1.8866
  247MOL0     H34052   5.691   9.937   0.994 -2.3629 -0.7646 -0.9660
  247MOL0     H34053   5.633  10.073   0.905 -2.5362  0.3708  0.1199
  247MOL0     H34054   5.763  10.134   1.167 -0.5540 -1.3441 -1.0897
  247MOL0     H34055   5.749  10.233   1.025  0.2669  1.0540  1.4103
  247MOL0     H34056   5.985  10.183   1.010  3.2406 -1.7136  1.1365
  247MOL0     H34057   5.899  10.058   0.913 -0.4804 -0.3681 -0.5716
  247MOL0     H34058   5.983   9.993   1.201 -0.5699  5.2806 -0.1949
  247MOL0     H34059   5.933   9.884   1.073  1.2119  0.4735  0.3178
  247MOL0     H34060   6.186  10.038   1.086  0.1340 -0.9172  2.0217
  247MOL0     H34061   6.110   9.979   0.929 -0.3994 -2.9760 -0.8239
  247MOL0     H34062   6.263   9.809   0.979 -0.8820 -3.8203 -1.3431
  247MOL0     H34063   6.114   9.746   1.043  0.6285 -0.9680 -1.0594
  247MOL0     H34064   6.164   9.843   1.264  1.9801 -2.5636  2.7509
  247MOL0     H34065   6.315   9.902   1.210  0.6259 -0.0583 -0.0310
  247MOL0     H34066   5.340  10.076   1.249  0.8402  0.4539 -0.5683
  247MOL0     H34067   5.109  10.090   1.300  2.0262 -3.4827 -1.9058
  247MOL0     H34068   4.910   9.905   1.218 -1.3476  0.2213 -0.5102
  247MOL0     H34069   4.950   9.717   1.055  1.5592 -0.6930 -3.4863
  247MOL0     H34070   3.781   9.113   1.302  3.4872  0.0225  0.7423
  247MOL0     H34071   3.551   9.108   1.327 -1.1954 -0.8770  0.6116
  247MOL0     H34072   3.212   8.885   1.514  0.2802  0.3826 -2.6168
  247MOL0     H34073   2.971   8.833   1.476  1.1467 -0.0808 -1.7821
  247MOL0     H34074   2.601   8.951   1.531 -0.5495 -2.0842  2.0448
  247MOL0     H34075   2.730   8.833   1.577 -0.5398 -0.4144 -1.2018
  247MOL0     H34076   2.721   9.083   1.737  2.2905  0.1592 -1.8249
  247MOL0     H34077   2.796   8.921   1.754  0.2885 -1.5432 -0.9626
  247MOL0     H34078   2.485   8.959   1.766 -0.9794 -2.5873  1.0702
  247MOL0     H34079   2.573   8.816   1.779 -0.0120 -0.5049  2.5105
  247MOL0     H34080   2.495   8.909   2.003 -3.7846  3.7296 -1.3208
  247MOL0     H34081   2.563   9.059   1.976 -0.6307  0.6508 -0.5992
  247MOL0     H34082   2.912   8.862   2.114 -0.6647  0.1908  0.7425
  247MOL0     H34083   2.873   9.247   1.531 -1.4576 -1.3202 -0.4937
  247MOL0     H34084   3.222   9.362   1.502  0.5761  1.3133  0.7551
  247MOL0     H34085   3.044   9.396   1.498  0.2511  1.6622  0.7743
  247MOL0     H34086   3.133   9.352   1.651  0.9674 -2.2300  0.7887
  248MOL0     O34087   2.659   7.436   3.143 -0.0012 -0.2826  0.4429
  248MOL0     C34088   2.621   7.498   3.236  0.3078 -0.2641 -0.7927
  248MOL0     O34089   2.693   7.594   3.306 -0.4535  0.2950 -0.0592
  248MOL0     C34090   2.828   7.613   3.299 -0.2256 -0.3270 -0.5505
  248MOL0     C34091   2.916   7.553   3.207  1.3019  0.3606 -0.0588
  248MOL0     C34092   3.042   7.608   3.200  0.2897 -0.1457  0.3038
  248MOL0     C34093   3.089   7.702   3.291  0.1804  0.0621  0.2350
  248MOL0     O34094   3.222   7.741   3.300  0.1177  0.6645  0.6390
  248MOL0     C34095   3.325   7.672   3.223  0.4127  0.2848  0.5091
  248MOL0     C34096   3.456   7.735   3.273  1.1575  0.2595 -0.1875
  248MOL0     C34097   3.466   7.772   3.417  0.0694  0.5487  0.5755
  248MOL0     C34098   3.610   7.777   3.468 -0.1801 -0.7288 -0.3666
  248MOL0     C34099   3.609   7.814   3.618  0.5782  0.5988  0.1259
  248MOL0     C34100   3.755   7.844   3.664 -0.4488  0.1962  0.1534
  248MOL0     C34101   3.852   7.733   3.673 -0.6486  0.2500  0.7079
  248MOL0     C34102   3.990   7.779   3.712  0.4183  0.0842 -0.6872
  248MOL0     N34103   4.047   7.891   3.636  0.2420  0.3678  0.4584
  248MOL0     C34104   4.062   7.880   3.497  0.6598 -0.1019 -0.0870
  248MOL0     C34105   4.068   8.010   3.457 -0.1094 -0.5799 -0.2121
  248MOL0     C34106   4.108   8.052   3.316 -0.3818  0.0510  0.1901
  248MOL0     C34107   4.016   8.006   3.206 -0.1244 -1.2868  0.5078
  248MOL0     C34108   3.871   8.051   3.222  0.9812 -0.5134  0.3861
  248MOL0     C34109   3.775   7.998   3.103 -0.3050 -0.3975  0.6128
  248MOL0     O34110   3.818   7.864   3.074 -0.3670 -0.2422  0.5866
  248MOL0     C34111   3.818   7.810   2.948 -0.3161  0.3284 -0.9380
  248MOL0     C34112   3.900   7.695   2.932  0.0620  0.0036  0.5221
  248MOL0     C34113   3.909   7.622   2.805  0.7995 -0.4850  0.4888
  248MOL0     C34114   3.995   7.498   2.800  0.2133 -0.9145 -0.0988
  248MOL0     C34115   3.818   7.670   2.704  0.8071 -1.0058 -0.1286
  248MOL0     C34116   3.799   7.607   2.579  0.9197  0.4607  0.8506
  248MOL0     O34117   3.671   7.618   2.524  0.4475  0.3588  0.3792
  248MOL0     C34118   3.652   7.541   2.413  0.2775  0.8919 -0.1786
  248MOL0     C34119   3.567   7.436   2.436  0.1903 -0.0737 -0.2018
  248MOL0     C34120   3.533   7.348   2.337  0.0528 -0.5640  0.1450
  248MOL0     C34121   3.585   7.361   2.212  0.1961  0.6472 -0.4273
  248MOL0     O34122   3.534   7.272   2.112  0.3324 -0.4574  0.1387
  248MOL0     C34123   3.620   7.233   2.006  0.2715  0.5205 -0.5794
  248MOL0     C34124   3.540   7.217   1.882 -0.0684 -1.2392 -0.2100
  248MOL0     C34125   3.605   7.123   1.779 -0.2187 -1.0161 -0.4737
  248MOL0     C34126   3.533   7.121   1.642  0.0670 -0.3193  0.3692
  248MOL0     C34127   3.600   7.024   1.540 -0.0698 -0.0241 -0.1567
  248MOL0     C34128   3.745   7.046   1.501 -0.5754 -0.0138 -0.4885
  248MOL0     C34129   3.759   7.187   1.442 -0.1737  0.4952 -0.2507
  248MOL0     C34130   3.882   7.218   1.365 -0.2956 -0.2989  1.1491
  248MOL0    Cl34131   4.025   7.189   1.459  0.0366  0.1381  0.2016
  248MOL0     C34132   3.685   7.460   2.192 -0.0786 -1.0749 -0.1122
  248MOL0     C34133   3.714   7.550   2.290  0.4503 -0.2833 -0.2715
  248MOL0     O34134   3.903   7.559   2.524 -0.8317  0.7875  0.2645
  248MOL0     C34135   3.735   7.780   2.725  0.2660 -0.1199  0.3409
  248MOL0     C34136   3.746   7.850   2.842 -0.5838  0.2528  0.2211
  248MOL0     N34137   4.079   8.096   3.564 -0.8281 -0.3354 -1.0017
  248MOL0     N34138   4.058   8.025   3.672  0.1783  0.3793  1.0442
  248MOL0     C34139   2.993   7.771   3.370 -0.1275  0.3283  0.4709
  248MOL0     C34140   2.863   7.731   3.368 -0.3713  0.5352 -0.5384
  248MOL0     C34141   2.480   7.464   3.276  0.1461  0.1879 -0.3252
  248MOL0     C34142   2.394   7.423   3.173  0.3012  0.3870 -0.5180
  248MOL0     C34143   2.263   7.394   3.195 -0.2080 -1.3135 -0.5955
  248MOL0     C34144   2.201   7.410   3.318  0.1638  0.5504 -0.7999
  248MOL0     O34145   2.078   7.367   3.353  0.0993 -0.0031 -0.0329
  248MOL0     C34146   1.973   7.343   3.259  1.1440 -0.8441 -0.2136
  248MOL0     C34147   1.847   7.300   3.340  0.5823 -0.4988 -1.0836
  248MOL0     C34148   1.738   7.229   3.259  0.1021  0.3192 -0.7328
  248MOL0     C34149   1.672   7.327   3.172  0.0609 -0.9040  0.0932
  248MOL0     C34150   1.541   7.272   3.122 -0.1299 -0.2584 -0.4791
  248MOL0     C34151   1.444   7.217   3.082  1.0117  0.7077  0.1052
  248MOL0     C34152   2.286   7.440   3.424 -0.6496  0.7499 -0.1159
  248MOL0     C34153   2.424   7.469   3.409  0.0524 -0.5834  0.1653
  248MOL0     C34154   2.507   7.494   3.528 -1.4523 -0.5299 -0.3511
  248MOL0     H34155   2.891   7.467   3.147  1.0663  0.4981 -0.1575
  248MOL0     H34156   3.110   7.561   3.130  0.4524 -1.7428  1.4762
  248MOL0     H34157   3.322   7.694   3.116  1.4612  0.8225  0.5750
  248MOL0     H34158   3.330   7.564   3.240  3.7460  0.3102  0.2659
  248MOL0     H34159   3.532   7.658   3.260 -0.1669 -1.3706  1.2559
  248MOL0     H34160   3.487   7.822   3.215  3.1936  0.2162  0.7623
  248MOL0     H34161   3.431   7.875   3.432 -1.3561  0.1066  0.4033
  248MOL0     H34162   3.417   7.694   3.476  2.6295 -2.1530 -0.6341
  248MOL0     H34163   3.651   7.676   3.461  0.1011 -0.7569  1.1727
  248MOL0     H34164   3.656   7.853   3.405 -2.2471  0.5839 -0.3834
  248MOL0     H34165   3.554   7.743   3.681 -1.5959  2.4987  0.4728
  248MOL0     H34166   3.553   7.905   3.637 -0.7409 -0.3669  0.9978
  248MOL0     H34167   3.788   7.921   3.594  2.0451 -1.8163 -1.0543
  248MOL0     H34168   3.742   7.890   3.763 -1.7989 -1.1384  0.6430
  248MOL0     H34169   3.869   7.688   3.575 -0.1971  1.3322  0.2741
  248MOL0     H34170   3.819   7.657   3.745  1.5189 -0.1789  1.3088
  248MOL0     H34171   3.967   7.819   3.811 -1.9591  0.2663 -1.2352
  248MOL0     H34172   4.062   7.697   3.716 -0.2483 -0.4993 -0.4878
  248MOL0     H34173   4.083   7.798   3.429 -1.8961  1.3446 -2.8717
  248MOL0     H34174   4.206   8.008   3.297 -0.3015  0.4953 -0.4582
  248MOL0     H34175   4.117   8.161   3.312  1.7620 -0.1002 -0.1008
  248MOL0     H34176   4.047   8.045   3.108 -3.6457  0.4337 -0.0726
  248MOL0     H34177   4.020   7.896   3.210  0.7754 -1.2290  1.5317
  248MOL0     H34178   3.827   8.013   3.316 -2.3676  0.8082 -0.4836
  248MOL0     H34179   3.874   8.160   3.230  2.7141 -0.3811 -1.3827
  248MOL0     H34180   3.673   8.009   3.142 -1.0412  2.6057 -1.7488
  248MOL0     H34181   3.780   8.060   3.013  0.9772 -0.2330  0.7799
  248MOL0     H34182   3.974   7.671   3.007  1.4049 -0.2703 -0.8324
  248MOL0     H34183   4.044   7.489   2.898 -2.0943  1.0770  1.3556
  248MOL0     H34184   4.071   7.510   2.722 -0.7651  0.6038 -0.8796
  248MOL0     H34185   3.939   7.405   2.786  1.5895 -1.7789 -0.0194
  248MOL0     H34186   3.532   7.435   2.539  4.3065 -2.1169  1.4180
  248MOL0     H34187   3.468   7.264   2.361  0.8531 -1.1094  0.4358
  248MOL0     H34188   3.703   7.301   1.983 -0.1912  0.4407 -2.7047
  248MOL0     H34189   3.666   7.142   2.045  0.7126  1.7129  1.9418
  248MOL0     H34190   3.438   7.179   1.896 -0.6621  0.3058 -0.2335
  248MOL0     H34191   3.535   7.317   1.839  2.9401 -1.7619 -2.1068
  248MOL0     H34192   3.626   7.021   1.814  1.8619 -0.5918 -0.3287
  248MOL0     H34193   3.702   7.171   1.764  1.2474 -2.1850  3.8100
  248MOL0     H34194   3.529   7.219   1.592  0.4482 -0.3058  0.3627
  248MOL0     H34195   3.432   7.081   1.656  0.0712 -0.3016  0.4510
  248MOL0     H34196   3.594   6.926   1.588 -2.1713 -0.2757 -0.8141
  248MOL0     H34197   3.550   7.024   1.442  0.3505  1.5544 -0.3983
  248MOL0     H34198   3.781   6.966   1.435 -0.9805 -1.3751  0.8716
  248MOL0     H34199   3.806   7.031   1.591 -1.9057 -0.9027  0.3138
  248MOL0     H34200   3.755   7.261   1.523  5.2551 -0.6337  1.4327
  248MOL0     H34201   3.676   7.197   1.370  1.7537  2.5805 -2.3801
  248MOL0     H34202   3.877   7.323   1.336  0.0289 -0.3805  0.7736
  248MOL0     H34203   3.876   7.156   1.274  1.1655  0.6202  0.3819
  248MOL0     H34204   3.732   7.471   2.095 -1.0429  1.8916 -0.3291
  248MOL0     H34205   3.777   7.636   2.268 -2.3809  1.9947 -0.1049
  248MOL0     H34206   3.670   7.825   2.650  2.1781 -0.5424 -1.6896
  248MOL0     H34207   3.693   7.945   2.845  1.3738  1.4436 -0.6307
  248MOL0     H34208   3.020   7.864   3.420 -3.6812  1.1992  1.0246
  248MOL0     H34209   2.782   7.786   3.415 -2.3499 -2.0303 -0.7018
  248MOL0     H34210   2.410   7.421   3.066 -1.7546  1.7772 -0.9249
  248MOL0     H34211   2.198   7.377   3.109  0.4840  0.9627 -1.6528
  248MOL0     H34212   1.951   7.438   3.209 -0.7939 -1.1718 -0.0799
  248MOL0     H34213   1.990   7.265   3.184 -1.3515  0.7864 -2.6501
  248MOL0     H34214   1.809   7.383   3.399  0.8656 -0.2967 -1.1805
  248MOL0     H34215   1.888   7.231   3.415 -1.5352 -0.7512 -0.0809
  248MOL0     H34216   1.782   7.144   3.207  0.4281 -0.4514  0.7350
  248MOL0     H34217   1.673   7.184   3.335  0.4491  2.1964  0.7562
  248MOL0     H34218   1.739   7.355   3.090 -2.5907  0.4748 -1.7732
  248MOL0     H34219   1.660   7.419   3.231 -1.6328 -1.6264  0.9424
  248MOL0     H34220   1.368   7.147   3.053  3.6238 -2.2881 -0.0264
  248MOL0     H34221   2.237   7.423   3.520 -0.8251 -1.7965 -0.5853
  248MOL0     H34222   2.458   7.453   3.617 -1.0735  1.3791  0.8083
  248MOL0     H34223   2.606   7.448   3.518 -1.4615 -0.6099 -0.0890
  248MOL0     H34224   2.531   7.600   3.544  1.0090 -0.5258 -3.2774
  249MOL0     O34225   8.509   1.111   6.700 -0.6578  0.3821 -0.6048
  249MOL0     C34226   8.492   1.177   6.599  0.1344  0.2806  0.2442
  249MOL0     O34227   8.576   1.177   6.485 -0.4895 -0.4373 -0.3454
  249MOL0     C34228   8.706   1.129   6.497 -0.1323  0.4418  0.2207
  249MOL0     C34229   8.814   1.210   6.493 -0.1987 -0.4472  0.1269
  249MOL0     C34230   8.949   1.167   6.497 -0.5947  0.8630  0.6582
  249MOL0     C34231   8.981   1.027   6.490 -0.2145 -0.3122  0.1929
  249MOL0     O34232   9.109   0.975   6.482 -0.1801  0.6328 -0.0391
  249MOL0     C34233   9.126   0.891   6.601  0.1137 -0.3595 -1.1986
  249MOL0     C34234   9.153   0.972   6.727  0.5726  0.5010  0.3121
  249MOL0     C34235   9.266   1.071   6.719 -0.5027 -0.7770 -0.2235
  249MOL0     C34236   9.416   1.016   6.725 -0.0485  0.6362 -0.7231
  249MOL0     C34237   9.516   1.129   6.725 -0.0343  0.8417 -0.5623
  249MOL0     C34238   9.649   1.071   6.698 -0.0049  1.0886  0.2416
  249MOL0     C34239   9.766   1.175   6.697  0.1503 -0.1773  0.5633
  249MOL0     C34240   9.906   1.106   6.686  0.3481 -0.0197  0.2558
  249MOL0     N34241   9.940   1.029   6.807  0.0316 -0.1578  0.0992
  249MOL0     C34242  10.011   0.913   6.805  0.5819  0.3766 -0.2389
  249MOL0     C34243  10.055   0.898   6.937  1.1653  0.3128  0.1880
  249MOL0     C34244  10.156   0.807   7.006 -0.3342 -0.2224 -0.3740
  249MOL0     C34245  10.296   0.831   6.960  0.8736  0.1670 -0.0411
  249MOL0     C34246  10.344   0.973   6.980 -0.2838 -0.3278  0.9454
  249MOL0     C34247  10.488   1.008   6.941  0.0100  0.6338 -0.2357
  249MOL0     O34248  10.573   0.921   7.013 -0.2252  0.0285 -0.2865
  249MOL0     C34249  10.711   0.941   7.013  0.1986  0.2450 -0.3396
  249MOL0     C34250  10.773   0.875   7.127  0.4152  0.3880  0.6088
  249MOL0     C34251  10.914   0.890   7.140 -0.2662 -0.2034 -0.0371
  249MOL0     C34252  10.965   0.816   7.255 -0.4508 -0.1857 -0.5959
  249MOL0     C34253  10.988   0.964   7.047 -0.7170 -0.2495 -0.2662
  249MOL0     C34254  11.148   0.972   7.048  0.5751 -0.1056  0.3466
  249MOL0     O34255  11.200   1.077   6.963  0.0782 -0.3104 -0.1469
  249MOL0     C34256  11.334   1.079   6.966 -0.3267  0.0415 -0.0110
  249MOL0     C34257  11.419   1.148   7.051  0.1363  0.6332 -0.6955
  249MOL0     C34258  11.555   1.141   7.050 -0.4344 -0.1223  0.5240
  249MOL0     C34259  11.615   1.062   6.950  0.9042  0.6948  0.4514
  249MOL0     O34260  11.750   1.051   6.934 -0.3335 -0.2006  0.2822
  249MOL0     C34261  11.833   1.147   7.006 -0.3612  0.7279 -0.5535
  249MOL0     C34262  11.977   1.144   6.946 -0.6132 -0.3363  0.0204
  249MOL0     C34263  12.070   1.239   7.021 -0.2609 -0.3099 -0.1503
  249MOL0     C34264  12.214   1.243   6.974  0.2494  0.4858 -0.6715
  249MOL0     C34265  12.295   1.139   7.052  0.3335 -0.8632 -0.0330
  249MOL0     C34266  12.443   1.139   7.019 -0.6866  0.3828  0.3678
  249MOL0     C34267  12.514   1.280   7.012 -0.5127  0.3124 -0.2730
  249MOL0     C34268  12.523   1.357   7.144  0.4241 -0.6301  0.2179
  249MOL0    Cl34269  12.570   1.243   7.275 -0.4041  0.0781  0.1147
  249MOL0     C34270  11.538   0.983   6.862  0.2071 -0.7302 -0.4954
  249MOL0     C34271  11.398   0.999   6.871  0.0668  0.5574 -0.0468
  249MOL0     O34272  11.217   0.900   7.118  0.3114 -0.2497  0.4959
  249MOL0     C34273  10.925   1.036   6.946  0.0479 -0.7071 -0.1464
  249MOL0     C34274  10.786   1.018   6.927 -0.1153 -0.0391  0.2174
  249MOL0     N34275  10.007   1.007   7.014 -1.0007 -1.1485 -0.5295
  249MOL0     N34276   9.932   1.084   6.932 -0.3298  0.2196 -0.3952
  249MOL0     C34277   8.868   0.943   6.486  0.3576 -0.2054 -0.3143
  249MOL0     C34278   8.734   0.996   6.494 -0.0295  0.5083  0.3155
  249MOL0     C34279   8.372   1.266   6.603 -0.3219  0.1466 -0.4143
  249MOL0     C34280   8.254   1.224   6.675 -0.3596 -0.1438 -0.3589
  249MOL0     C34281   8.135   1.291   6.675 -0.1932  0.3966  0.1447
  249MOL0     C34282   8.121   1.405   6.600 -0.6637 -0.6953  1.1585
  249MOL0     O34283   8.000   1.469   6.588 -0.4753  0.1501 -0.7785
  249MOL0     C34284   7.877   1.398   6.628 -0.0275 -0.2371 -0.0550
  249MOL0     C34285   7.761   1.499   6.626  0.2335  0.9005  0.4218
  249MOL0     C34286   7.784   1.590   6.744  1.0507  0.0232  0.5369
  249MOL0     C34287   7.725   1.735   6.726  0.4661 -0.7105 -0.2702
  249MOL0     C34288   7.582   1.737   6.784 -0.4029  0.0020 -0.0889
  249MOL0     C34289   7.469   1.734   6.838 -0.4081  0.2584  0.2387
  249MOL0     C34290   8.231   1.453   6.528 -0.1844  0.2468  0.0787
  249MOL0     C34291   8.354   1.386   6.524  0.5588 -0.2352  0.8024
  249MOL0     C34292   8.464   1.456   6.447  0.4945  0.6448  0.1610
  249MOL0     H34293   8.802   1.318   6.488  1.5588 -0.2795 -1.1392
  249MOL0     H34294   9.021   1.247   6.481 -1.1136  1.2154  0.0756
  249MOL0     H34295   9.217   0.831   6.588  0.4856 -0.1379  0.2150
  249MOL0     H34296   9.044   0.823   6.626 -0.5611  0.2512 -1.7111
  249MOL0     H34297   9.063   1.032   6.744 -0.8734 -1.0887 -1.3269
  249MOL0     H34298   9.162   0.898   6.807  0.2714  0.3342  0.1949
  249MOL0     H34299   9.250   1.133   6.630 -0.9287 -2.0889 -1.0940
  249MOL0     H34300   9.262   1.139   6.804  1.5216 -0.3221 -0.4462
  249MOL0     H34301   9.425   0.958   6.818 -0.2519 -1.3367 -1.8685
  249MOL0     H34302   9.438   0.960   6.634  2.4982  1.2957 -0.5703
  249MOL0     H34303   9.514   1.191   6.815  0.8556  1.7074 -1.1200
  249MOL0     H34304   9.487   1.192   6.640 -1.9991 -2.2193 -2.3537
  249MOL0     H34305   9.675   0.997   6.775 -0.5841 -0.1445 -0.7095
  249MOL0     H34306   9.662   1.015   6.605 -0.6980 -0.0799  0.8127
  249MOL0     H34307   9.761   1.238   6.787  0.6946 -1.7653  1.7425
  249MOL0     H34308   9.746   1.245   6.615  2.1981 -0.1549  0.0475
  249MOL0     H34309   9.911   1.043   6.597  0.6823 -0.8459  0.8489
  249MOL0     H34310   9.984   1.181   6.673 -0.9146  0.9290 -2.7462
  249MOL0     H34311  10.044   0.858   6.717  1.4172  0.1740  0.1904
  249MOL0     H34312  10.151   0.699   6.988  0.8629 -0.8630  2.5475
  249MOL0     H34313  10.148   0.822   7.115  0.5778  4.3214 -0.7486
  249MOL0     H34314  10.351   0.770   7.031 -0.6260 -0.1065  0.9415
  249MOL0     H34315  10.328   0.800   6.860  3.2344 -1.6083  1.1584
  249MOL0     H34316  10.278   1.047   6.934 -0.8745 -1.1514  0.4371
  249MOL0     H34317  10.335   0.992   7.087 -1.1847  1.0317  0.6535
  249MOL0     H34318  10.513   1.009   6.835 -0.4391  0.6537 -0.3421
  249MOL0     H34319  10.493   1.113   6.971 -0.0408  0.2404  1.2354
  249MOL0     H34320  10.719   0.824   7.206 -1.6291 -1.6966 -1.9420
  249MOL0     H34321  11.002   0.725   7.209  0.2650  0.7071 -1.8609
  249MOL0     H34322  10.888   0.784   7.326  1.5085  0.6071  2.0226
  249MOL0     H34323  11.042   0.866   7.315 -2.9533  1.8622  1.1662
  249MOL0     H34324  11.365   1.194   7.133  0.6861 -1.3537  0.8824
  249MOL0     H34325  11.620   1.197   7.117  1.6197  0.0148 -1.4466
  249MOL0     H34326  11.793   1.249   7.009 -0.1697  0.7993  2.4315
  249MOL0     H34327  11.840   1.115   7.110  1.5962  1.2396 -0.4793
  249MOL0     H34328  12.021   1.044   6.948  0.8041  0.1386 -2.3330
  249MOL0     H34329  11.970   1.166   6.839  0.5268 -0.1571 -0.0310
  249MOL0     H34330  12.067   1.207   7.126 -1.6593  3.2329  1.0261
  249MOL0     H34331  12.026   1.339   7.020 -3.3151 -1.3734  3.2009
  249MOL0     H34332  12.266   1.337   6.995  1.4137 -0.4031  0.5517
  249MOL0     H34333  12.218   1.214   6.869 -1.4947 -1.1951 -0.3202
  249MOL0     H34334  12.275   1.152   7.159 -0.2613 -1.7301 -0.0335
  249MOL0     H34335  12.264   1.039   7.023 -0.1666 -0.4032 -1.1269
  249MOL0     H34336  12.447   1.091   6.921  1.0682 -0.2878  0.7382
  249MOL0     H34337  12.500   1.071   7.083 -1.0642  0.5000  0.8343
  249MOL0     H34338  12.464   1.340   6.936 -0.4336  1.1626  0.3309
  249MOL0     H34339  12.620   1.277   6.986 -0.2131  1.4668  0.7097
  249MOL0     H34340  12.425   1.401   7.167 -1.0548 -2.6673 -1.7735
  249MOL0     H34341  12.595   1.437   7.128  0.4619 -0.9001 -1.0038
  249MOL0     H34342  11.579   0.912   6.791  0.9274 -0.0278 -0.7934
  249MOL0     H34343  11.329   0.941   6.810 -1.3538  1.9702  0.1315
  249MOL0     H34344  10.982   1.111   6.892  0.0593 -0.1127  0.6756
  249MOL0     H34345  10.734   1.064   6.843 -1.8630 -1.7670  0.2689
  249MOL0     H34346   8.884   0.835   6.481  0.9625 -0.0671 -2.1519
  249MOL0     H34347   8.651   0.925   6.492  0.8037 -0.5140  0.9962
  249MOL0     H34348   8.272   1.130   6.726  3.2427 -0.0472 -1.1790
  249MOL0     H34349   8.056   1.251   6.739 -0.0789  1.1092  0.7471
  249MOL0     H34350   7.882   1.312   6.561  2.3986  0.8601 -1.3839
  249MOL0     H34351   7.885   1.368   6.734  3.5418  1.5303  0.3387
  249MOL0     H34352   7.667   1.445   6.638  0.4410  0.9210  2.5420
  249MOL0     H34353   7.750   1.551   6.530 -2.4237 -0.2071  0.0471
  249MOL0     H34354   7.735   1.536   6.825 -0.3652 -3.2074 -2.2149
  249MOL0     H34355   7.889   1.599   6.772  1.1627 -0.8006  0.4090
  249MOL0     H34356   7.728   1.754   6.618  4.0989  0.3056 -0.1320
  249MOL0     H34357   7.786   1.812   6.773 -1.8449 -0.5370  2.7849
  249MOL0     H34358   7.370   1.731   6.879 -1.5340  1.3831 -2.2067
  249MOL0     H34359   8.210   1.541   6.469 -1.3134 -0.2010 -0.2072
  249MOL0     H34360   8.480   1.393   6.359  1.9349 -1.3482  1.7642
  249MOL0     H34361   8.438   1.554   6.405  1.0259  0.2064 -1.2179
  249MOL0     H34362   8.556   1.469   6.503  0.8962  1.4939 -0.6692
  250MOL0     O34363   9.350   4.398   4.510  0.0184 -0.5220  0.5895
  250MOL0     C34364   9.330   4.276   4.517  0.3161 -0.1345  0.2702
  250MOL0     O34365   9.421   4.177   4.498 -0.3155 -0.0665 -0.0191
  250MOL0     C34366   9.551   4.208   4.473  0.1710  0.3900  0.7582
  250MOL0     C34367   9.616   4.136   4.369  0.0035  0.0578  1.2330
  250MOL0     C34368   9.757   4.135   4.361  0.4511 -0.2666  0.5446
  250MOL0     C34369   9.836   4.204   4.461 -0.6623 -0.5217  0.2468
  250MOL0     O34370   9.976   4.203   4.437  0.2657 -0.6674  0.6754
  250MOL0     C34371  10.042   4.326   4.463 -0.3093 -0.0635 -0.0594
  250MOL0     C34372  10.191   4.305   4.431 -0.1857 -0.1515 -0.4761
  250MOL0     C34373  10.263   4.194   4.525  0.2454 -0.2588  0.3163
  250MOL0     C34374  10.410   4.217   4.549 -0.5289  0.8764 -0.6286
  250MOL0     C34375  10.486   4.104   4.626  0.6363 -0.2747  0.8007
  250MOL0     C34376  10.527   3.988   4.537 -0.1879  0.4387 -0.0248
  250MOL0     C34377  10.606   3.882   4.609 -0.1650  0.6564  0.2092
  250MOL0     C34378  10.650   3.769   4.522 -0.5838 -0.3387 -0.0206
  250MOL0     N34379  10.758   3.706   4.606  0.2077 -0.1578 -0.9600
  250MOL0     C34380  10.892   3.711   4.577 -1.0179 -0.9344 -0.0326
  250MOL0     C34381  10.956   3.634   4.677 -0.2219  0.6053  0.1328
  250MOL0     C34382  11.101   3.614   4.678 -0.9886  0.7289 -0.3905
  250MOL0     C34383  11.190   3.736   4.692  0.5960 -0.4689 -1.0582
  250MOL0     C34384  11.227   3.757   4.848  0.3005 -0.8662 -0.1749
  250MOL0     C34385  11.319   3.877   4.867  0.1667  0.4468  0.4069
  250MOL0     O34386  11.453   3.836   4.824 -0.3858 -0.4295 -0.4153
  250MOL0     C34387  11.553   3.935   4.812  0.4676 -0.3740  0.7527
  250MOL0     C34388  11.656   3.907   4.730  0.6280 -0.1450  0.0803
  250MOL0     C34389  11.769   3.988   4.717 -0.3721 -0.4134 -0.3536
  250MOL0     C34390  11.886   3.935   4.632 -0.3340  0.4589 -0.0353
  250MOL0     C34391  11.764   4.113   4.788  0.2489  0.0286  0.2372
  250MOL0     C34392  11.875   4.213   4.792 -0.3559  0.7617 -0.0008
  250MOL0     O34393  11.849   4.341   4.835  0.0739 -0.0166  0.8547
  250MOL0     C34394  11.959   4.408   4.867 -0.7164 -0.4991  0.4932
  250MOL0     C34395  12.008   4.513   4.781 -0.9162  0.0710 -0.0530
  250MOL0     C34396  12.111   4.599   4.815 -0.9595 -0.3099  0.4954
  250MOL0     C34397  12.189   4.576   4.933 -0.1748 -0.5862 -0.3749
  250MOL0     O34398  12.299   4.655   4.969 -0.5584  0.1818 -0.2603
  250MOL0     C34399  12.292   4.795   4.938  0.3664 -0.8213 -0.4703
  250MOL0     C34400  12.383   4.881   5.021 -0.2238  0.2855 -0.4435
  250MOL0     C34401  12.530   4.874   4.975  0.3990  0.6440 -0.0013
  250MOL0     C34402  12.621   4.968   5.047 -0.1223  0.8443 -0.1947
  250MOL0     C34403  12.767   4.943   5.020 -0.0609 -0.2309  0.2377
  250MOL0     C34404  12.854   5.039   5.119  0.7013  0.1471 -0.4256
  250MOL0     C34405  13.003   5.002   5.117  0.3568  0.4055 -0.6119
  250MOL0     C34406  13.076   5.042   5.246  0.1409  0.1832 -0.4259
  250MOL0    Cl34407  13.079   5.224   5.263 -0.0007  0.1591  0.1916
  250MOL0     C34408  12.138   4.472   5.008 -0.3245 -1.2867 -1.1777
  250MOL0     C34409  12.033   4.389   4.979 -0.2958  0.1295 -0.3409
  250MOL0     O34410  11.984   4.175   4.747  0.2464 -0.0259 -0.3822
  250MOL0     C34411  11.656   4.142   4.870 -0.3104 -0.1042 -0.1402
  250MOL0     C34412  11.553   4.049   4.891 -0.8944  0.5824 -0.1579
  250MOL0     N34413  10.856   3.585   4.759  0.6159 -0.0898  0.2162
  250MOL0     N34414  10.743   3.619   4.712 -0.1669  0.0330  0.1586
  250MOL0     C34415   9.768   4.293   4.552 -0.0936 -0.3402  0.6069
  250MOL0     C34416   9.628   4.284   4.555  0.0685 -0.0529 -0.3449
  250MOL0     C34417   9.188   4.235   4.539 -0.8976 -0.1501 -0.0391
  250MOL0     C34418   9.113   4.321   4.622 -0.6807 -0.0220  0.9466
  250MOL0     C34419   8.973   4.299   4.621  0.3078 -0.3805 -0.3648
  250MOL0     C34420   8.910   4.193   4.564 -0.5753  0.1775  0.1702
  250MOL0     O34421   8.773   4.190   4.591 -0.1000 -0.2641  0.5576
  250MOL0     C34422   8.701   4.079   4.542 -0.0717 -1.1968  0.1349
  250MOL0     C34423   8.551   4.105   4.560 -0.8219 -0.0536  0.5925
  250MOL0     C34424   8.508   4.098   4.711 -0.4416 -0.3775 -0.6163
  250MOL0     C34425   8.361   4.151   4.733  0.4335 -0.0618 -0.1857
  250MOL0     C34426   8.269   4.073   4.645  0.4186  0.2727  0.4017
  250MOL0     C34427   8.187   4.008   4.579 -0.6316  0.0806 -0.9702
  250MOL0     C34428   8.988   4.097   4.507 -0.4558  0.2597  0.1467
  250MOL0     C34429   9.125   4.115   4.494  0.0156 -0.1567  0.3070
  250MOL0     C34430   9.206   4.013   4.425 -0.4165  0.7582  0.0632
  250MOL0     H34431   9.545   4.091   4.299 -1.6385  1.2279  2.0673
  250MOL0     H34432   9.811   4.086   4.281  2.4629  2.4324  0.0763
  250MOL0     H34433  10.030   4.347   4.569  1.2825 -0.8503  0.3184
  250MOL0     H34434  10.008   4.409   4.401  0.0773  0.3116  0.2273
  250MOL0     H34435  10.196   4.255   4.334 -3.4098 -1.0127 -0.3054
  250MOL0     H34436  10.246   4.399   4.439 -0.3265 -0.1999  1.4687
  250MOL0     H34437  10.217   4.194   4.624 -0.1614  0.5662  0.1331
  250MOL0     H34438  10.239   4.100   4.474 -2.0973 -0.4277  1.5692
  250MOL0     H34439  10.460   4.235   4.453  1.2188 -1.3963 -0.2527
  250MOL0     H34440  10.418   4.304   4.614  1.4869  0.6864 -0.5380
  250MOL0     H34441  10.430   4.065   4.711 -0.8092  0.6893  0.3216
  250MOL0     H34442  10.572   4.151   4.675 -1.0807  0.5784  3.1915
  250MOL0     H34443  10.434   3.946   4.497 -0.2014 -1.6398  1.9331
  250MOL0     H34444  10.591   4.022   4.456  0.3897  1.4445  0.8191
  250MOL0     H34445  10.552   3.839   4.693  1.7306  0.4210  1.3612
  250MOL0     H34446  10.699   3.934   4.635 -0.6811  1.8938 -0.3440
  250MOL0     H34447  10.568   3.700   4.506 -0.1586 -1.0160  0.6695
  250MOL0     H34448  10.687   3.795   4.422 -3.2126 -0.3410 -1.0677
  250MOL0     H34449  10.937   3.765   4.495 -0.1091 -1.9181 -0.2168
  250MOL0     H34450  11.110   3.562   4.582 -2.2680 -0.2385 -0.0176
  250MOL0     H34451  11.138   3.538   4.747  1.6359 -0.3022 -2.7252
  250MOL0     H34452  11.278   3.712   4.631 -0.6142 -3.3834 -1.8117
  250MOL0     H34453  11.143   3.828   4.657  0.6581  0.6034  1.4701
  250MOL0     H34454  11.137   3.772   4.907  0.1946  0.3803 -0.6280
  250MOL0     H34455  11.276   3.662   4.871  2.8536 -0.6184 -3.6125
  250MOL0     H34456  11.278   3.963   4.814 -1.1235 -0.8394 -0.7372
  250MOL0     H34457  11.325   3.898   4.975  2.4154  2.4370 -0.0043
  250MOL0     H34458  11.640   3.818   4.670  1.5769 -2.2410  2.7052
  250MOL0     H34459  11.874   3.840   4.580 -0.6372 -0.4356  1.6183
  250MOL0     H34460  11.970   3.932   4.702 -2.6724 -1.4955  2.9060
  250MOL0     H34461  11.909   4.010   4.555  1.6101  2.1281  2.0258
  250MOL0     H34462  11.956   4.535   4.689 -0.2772 -1.1665 -0.7367
  250MOL0     H34463  12.145   4.673   4.744 -0.2282 -1.7182 -0.6859
  250MOL0     H34464  12.304   4.799   4.829 -0.2206 -0.6145 -0.5321
  250MOL0     H34465  12.191   4.835   4.946  0.6263 -0.4502  1.2989
  250MOL0     H34466  12.342   4.982   5.009 -0.0678  0.2899 -0.9545
  250MOL0     H34467  12.372   4.857   5.127  0.8526  1.4410 -0.0526
  250MOL0     H34468  12.547   4.890   4.868 -0.9886  0.4245 -0.2805
  250MOL0     H34469  12.562   4.771   4.992 -1.8339 -0.6426 -2.7448
  250MOL0     H34470  12.615   4.947   5.154  1.3046  2.2914  0.2111
  250MOL0     H34471  12.602   5.074   5.030 -0.5733  0.9178  0.7056
  250MOL0     H34472  12.781   4.835   5.029 -2.2653 -0.7322 -1.4600
  250MOL0     H34473  12.800   4.967   4.918  2.0197 -2.2318  0.3628
  250MOL0     H34474  12.820   5.026   5.222  0.9777 -1.8460 -0.5358
  250MOL0     H34475  12.834   5.143   5.092 -2.6017  0.2528  1.8432
  250MOL0     H34476  13.058   5.048   5.034 -0.6170  0.7900 -1.0645
  250MOL0     H34477  13.015   4.895   5.099  0.3440  0.5834 -1.7716
  250MOL0     H34478  13.177   5.004   5.230 -0.4171 -0.6797 -2.1135
  250MOL0     H34479  13.036   5.000   5.339 -0.9655  0.3164 -0.8284
  250MOL0     H34480  12.192   4.449   5.100 -1.1772  1.2923  0.0548
  250MOL0     H34481  12.014   4.311   5.052 -0.3093  0.1162 -0.3592
  250MOL0     H34482  11.647   4.234   4.926  0.6349  0.2328 -0.5160
  250MOL0     H34483  11.474   4.077   4.960 -1.0725  1.4895 -0.7016
  250MOL0     H34484   9.821   4.362   4.618  1.1879  0.2621 -0.9841
  250MOL0     H34485   9.581   4.337   4.638 -2.6771 -1.4724 -0.8787
  250MOL0     H34486   9.152   4.417   4.655 -1.3013  0.7878 -0.5603
  250MOL0     H34487   8.899   4.364   4.666  0.6591  0.4607 -0.9554
  250MOL0     H34488   8.712   4.083   4.434 -0.9467 -1.6434  0.0238
  250MOL0     H34489   8.733   3.983   4.586  0.6183 -0.0819  2.2185
  250MOL0     H34490   8.495   4.048   4.486 -2.1004  1.6483  0.1777
  250MOL0     H34491   8.526   4.208   4.530  0.4613 -0.4617 -2.1568
  250MOL0     H34492   8.519   3.992   4.737 -1.0749 -0.5959 -1.2113
  250MOL0     H34493   8.581   4.150   4.774  0.1212 -3.8309  1.8471
  250MOL0     H34494   8.371   4.255   4.698  2.8944 -0.6447 -1.4485
  250MOL0     H34495   8.337   4.151   4.840 -0.9354  1.3576 -0.4494
  250MOL0     H34496   8.108   3.951   4.533 -3.3045 -0.2701  3.4243
  250MOL0     H34497   8.940   4.010   4.464  0.4834 -0.5872  0.7576
  250MOL0     H34498   9.263   3.950   4.494 -2.3741 -1.5057 -0.2691
  250MOL0     H34499   9.138   3.942   4.376  1.4212 -1.3651  0.4035
  250MOL0     H34500   9.262   4.059   4.343 -1.2107  1.4830 -0.0773
  251MOL0     O34501   4.043   8.956   0.948 -0.1240  0.0502  0.2926
  251MOL0     C34502   4.060   9.022   0.851 -0.0429  0.0382  0.0005
  251MOL0     O34503   4.166   9.002   0.761  0.0992 -0.0078 -0.4645
  251MOL0     C34504   4.252   8.899   0.777 -0.0833 -0.7687 -0.4584
  251MOL0     C34505   4.209   8.767   0.800 -0.2454 -0.4263 -0.4977
  251MOL0     C34506   4.299   8.667   0.819 -0.1567 -0.7737  0.5899
  251MOL0     C34507   4.434   8.691   0.821 -0.5129 -0.0755 -0.4426
  251MOL0     O34508   4.512   8.587   0.858  0.8826  0.1969 -0.4497
  251MOL0     C34509   4.652   8.586   0.863 -0.9713 -0.2972 -0.2604
  251MOL0     C34510   4.702   8.594   1.012  0.6365 -0.1052 -0.5839
  251MOL0     C34511   4.849   8.637   1.026 -0.2708 -0.7396  0.1726
  251MOL0     C34512   4.885   8.655   1.177  0.4417 -0.0466 -0.9888
  251MOL0     C34513   5.030   8.693   1.210 -0.0029 -0.7456 -0.4535
  251MOL0     C34514   5.056   8.670   1.359 -0.5166  0.4746 -0.6036
  251MOL0     C34515   5.024   8.533   1.412  0.9888 -0.1513  0.4335
  251MOL0     C34516   5.063   8.502   1.556  0.0590 -0.0649 -0.4826
  251MOL0     N34517   5.032   8.363   1.587  0.0818  0.5591 -0.8210
  251MOL0     C34518   5.113   8.286   1.661 -0.2692 -0.6743 -0.0890
  251MOL0     C34519   5.039   8.174   1.687  0.3390 -0.3630  0.3366
  251MOL0     C34520   5.082   8.051   1.760 -0.6522 -0.3655  0.8566
  251MOL0     C34521   5.092   8.070   1.909 -0.0069  0.1026 -0.7753
  251MOL0     C34522   5.188   7.971   1.977  0.4969  0.3106 -0.3614
  251MOL0     C34523   5.321   8.035   2.021  0.1182 -0.2927  0.3699
  251MOL0     O34524   5.384   7.933   2.091 -0.1084 -0.3062  0.6716
  251MOL0     C34525   5.518   7.938   2.120 -0.1591  0.4968 -0.0928
  251MOL0     C34526   5.602   8.035   2.066  0.3953  0.3423  0.2057
  251MOL0     C34527   5.739   8.045   2.092 -0.2675 -0.2257  0.0990
  251MOL0     C34528   5.812   8.151   2.015 -0.2988  0.0565 -0.2586
  251MOL0     C34529   5.795   7.967   2.198  0.1935  0.0570  0.3586
  251MOL0     C34530   5.937   7.967   2.254  0.5614  0.1462 -0.8995
  251MOL0     O34531   5.969   7.861   2.336  0.1840  0.1685  0.2747
  251MOL0     C34532   6.096   7.862   2.389 -0.2033  0.8116  0.2444
  251MOL0     C34533   6.110   7.893   2.523 -0.2922 -0.6016  0.3317
  251MOL0     C34534   6.231   7.889   2.585  0.3486  0.1163  0.1177
  251MOL0     C34535   6.345   7.866   2.514  0.0343 -0.4097  0.3734
  251MOL0     O34536   6.462   7.853   2.591  0.1029 -0.1586  0.0549
  251MOL0     C34537   6.593   7.854   2.539 -0.0378 -0.3178 -0.4789
  251MOL0     C34538   6.697   7.831   2.649  0.8913  0.9030 -0.4220
  251MOL0     C34539   6.701   7.944   2.745  0.3141 -0.2964  0.2449
  251MOL0     C34540   6.800   7.912   2.863  0.3781  0.1378  0.4814
  251MOL0     C34541   6.835   8.046   2.939  0.5925  0.7999 -0.9555
  251MOL0     C34542   6.940   8.010   3.039 -0.9597 -0.2503  0.1307
  251MOL0     C34543   6.920   8.101   3.171 -0.1671  0.0712  0.5601
  251MOL0     C34544   6.855   8.019   3.291 -0.3290 -0.2836  0.5449
  251MOL0    Cl34545   6.808   8.146   3.399 -0.0708 -0.1814 -0.0566
  251MOL0     C34546   6.337   7.854   2.374 -0.1313 -0.1351  0.7954
  251MOL0     C34547   6.208   7.847   2.307  0.5856  0.1788 -0.4697
  251MOL0     O34548   6.018   8.053   2.210  0.0664  0.5215  0.2155
  251MOL0     C34549   5.703   7.873   2.257  0.2975 -0.5352 -0.4550
  251MOL0     C34550   5.572   7.858   2.220 -0.7962 -0.8190 -0.3515
  251MOL0     N34551   4.921   8.183   1.624 -0.7202  0.0609  0.6440
  251MOL0     N34552   4.912   8.300   1.578 -0.3531 -0.2860  0.7960
  251MOL0     C34553   4.475   8.822   0.807 -0.4013 -0.1994  0.3077
  251MOL0     C34554   4.388   8.925   0.774 -0.2802 -0.2182  0.1831
  251MOL0     C34555   3.951   9.118   0.829 -0.1759 -0.6590 -0.5270
  251MOL0     C34556   3.846   9.123   0.919  0.0872  0.0031  0.1785
  251MOL0     C34557   3.749   9.220   0.916  0.0334  0.0310 -0.1092
  251MOL0     C34558   3.751   9.315   0.813 -0.0816  0.6500  0.0023
  251MOL0     O34559   3.657   9.411   0.785 -0.4117  0.1837 -0.3468
  251MOL0     C34560   3.549   9.416   0.877 -0.5636  0.2322 -0.5814
  251MOL0     C34561   3.443   9.514   0.821 -0.5600 -0.1415 -0.3893
  251MOL0     C34562   3.486   9.661   0.845  0.4585 -0.6326 -1.0747
  251MOL0     C34563   3.393   9.761   0.768  0.5313  0.2573  0.1188
  251MOL0     C34564   3.264   9.748   0.825  0.5330  0.1080  0.0461
  251MOL0     C34565   3.151   9.720   0.865  0.9068 -0.6352  0.3902
  251MOL0     C34566   3.850   9.305   0.718  0.3390  0.7883  0.6049
  251MOL0     C34567   3.954   9.211   0.720  0.4452  0.5333 -0.1001
  251MOL0     C34568   4.062   9.224   0.620  0.2893 -0.3505  0.4594
  251MOL0     H34569   4.105   8.735   0.805 -1.3687  2.7534 -1.1092
  251MOL0     H34570   4.268   8.566   0.846 -1.5358 -0.8061 -0.9061
  251MOL0     H34571   4.688   8.677   0.816  1.6467 -0.7545  0.6685
  251MOL0     H34572   4.699   8.502   0.810  1.8592  1.6156 -0.9495
  251MOL0     H34573   4.629   8.668   1.046  0.2472 -0.0622 -1.4687
  251MOL0     H34574   4.683   8.504   1.071  1.0394 -2.3161 -3.5374
  251MOL0     H34575   4.915   8.560   0.984 -1.7591 -1.0171 -1.7765
  251MOL0     H34576   4.876   8.723   0.964  1.1917 -1.5279 -0.3395
  251MOL0     H34577   4.816   8.731   1.215  1.3924  0.3300  0.0391
  251MOL0     H34578   4.861   8.557   1.218  0.6790 -0.5830 -2.0954
  251MOL0     H34579   5.057   8.790   1.169  0.4194 -1.6842 -2.5047
  251MOL0     H34580   5.097   8.630   1.151  0.8406 -0.6997  0.4219
  251MOL0     H34581   5.156   8.698   1.391  0.6226 -1.3516 -2.3408
  251MOL0     H34582   5.003   8.740   1.425  2.7308 -0.2054  3.1451
  251MOL0     H34583   5.065   8.457   1.344 -1.8580 -0.2483 -1.3490
  251MOL0     H34584   4.917   8.517   1.396  1.4445 -2.0978 -1.0904
  251MOL0     H34585   5.173   8.507   1.563  0.1908 -1.1060 -1.5835
  251MOL0     H34586   5.007   8.566   1.625 -1.4012 -1.2275 -0.5535
  251MOL0     H34587   5.213   8.307   1.697  0.0420 -0.8087 -0.8656
  251MOL0     H34588   5.184   8.033   1.724 -0.9603 -0.2844 -0.0810
  251MOL0     H34589   5.025   7.961   1.739 -0.8278  0.4084 -2.8101
  251MOL0     H34590   5.129   8.171   1.926 -1.0784  0.1992  1.3919
  251MOL0     H34591   4.998   8.068   1.965 -0.0742  2.1646 -0.7466
  251MOL0     H34592   5.141   7.933   2.068  0.6975  1.0972  0.0756
  251MOL0     H34593   5.211   7.891   1.906 -0.5886  0.1206 -0.5204
  251MOL0     H34594   5.368   8.086   1.937 -0.8678  0.4839  0.2681
  251MOL0     H34595   5.287   8.112   2.091  1.2943 -0.4393  1.1232
  251MOL0     H34596   5.561   8.097   1.987 -3.1522 -0.5024  1.2086
  251MOL0     H34597   5.751   8.196   1.935 -1.2483  2.9661  1.9437
  251MOL0     H34598   5.895   8.102   1.962 -0.4696  0.3967 -0.8550
  251MOL0     H34599   5.850   8.229   2.081  0.2819 -1.0109  0.7073
  251MOL0     H34600   6.021   7.916   2.580 -0.7811  1.0604 -1.0293
  251MOL0     H34601   6.236   7.904   2.692 -1.1103 -0.1816  0.2448
  251MOL0     H34602   6.590   7.777   2.461 -1.1162 -0.6703 -0.1069
  251MOL0     H34603   6.615   7.952   2.495  0.3224 -0.7281 -1.2313
  251MOL0     H34604   6.679   7.737   2.702 -1.6850  2.2120  1.2523
  251MOL0     H34605   6.789   7.825   2.590 -0.0763  1.7738 -2.1140
  251MOL0     H34606   6.600   7.974   2.774  0.5717  2.3348 -1.3090
  251MOL0     H34607   6.745   8.032   2.698 -2.1815 -0.4776 -2.7242
  251MOL0     H34608   6.887   7.859   2.823 -0.3055  0.2370 -1.2224
  251MOL0     H34609   6.757   7.838   2.931  2.2226 -2.1435 -0.6772
  251MOL0     H34610   6.872   8.133   2.883 -0.0761  3.8628  2.9081
  251MOL0     H34611   6.740   8.079   2.982  1.4360  1.5841  0.3462
  251MOL0     H34612   7.044   8.020   3.006 -0.0893 -3.9653  1.2461
  251MOL0     H34613   6.937   7.904   3.067 -1.1193  0.3043  2.3671
  251MOL0     H34614   6.869   8.196   3.151 -0.5107 -0.4600 -1.2523
  251MOL0     H34615   7.017   8.141   3.200  0.9309  0.3349 -2.9554
  251MOL0     H34616   6.931   7.954   3.334  0.6678  0.7186  0.3263
  251MOL0     H34617   6.767   7.962   3.259 -0.3285  0.1780 -0.3114
  251MOL0     H34618   6.424   7.847   2.309  0.7637  3.7060  1.2930
  251MOL0     H34619   6.201   7.847   2.199  1.8067 -0.1379 -0.5645
  251MOL0     H34620   5.733   7.816   2.344 -0.3040  0.9219  0.7539
  251MOL0     H34621   5.512   7.788   2.277  1.8085 -1.3131  1.9954
  251MOL0     H34622   4.578   8.857   0.807 -0.6049  0.4076  0.6397
  251MOL0     H34623   4.430   9.020   0.744  2.1156 -1.1525  0.3061
  251MOL0     H34624   3.838   9.048   0.997  0.9183 -0.4522 -0.1556
  251MOL0     H34625   3.673   9.217   0.994  1.7488 -1.1600  1.6188
  251MOL0     H34626   3.499   9.319   0.880  1.5663 -0.9650 -1.8180
  251MOL0     H34627   3.583   9.436   0.979 -3.2759 -0.4799  0.5640
  251MOL0     H34628   3.345   9.482   0.858 -1.0904  2.4355  0.6424
  251MOL0     H34629   3.437   9.509   0.711  1.6933  1.1248 -0.6312
  251MOL0     H34630   3.489   9.683   0.953 -2.3069  0.7406 -1.1854
  251MOL0     H34631   3.581   9.685   0.798  0.4634 -0.4388 -0.9671
  251MOL0     H34632   3.385   9.744   0.661 -2.5099  0.6431  0.2097
  251MOL0     H34633   3.428   9.862   0.791  0.8404  0.2723 -0.4052
  251MOL0     H34634   3.056   9.697   0.908  0.1667  0.3914 -0.6301
  251MOL0     H34635   3.844   9.377   0.637 -0.6209  0.5413  0.4455
  251MOL0     H34636   4.054   9.308   0.551  2.6062 -1.8834 -1.8727
  251MOL0     H34637   4.156   9.229   0.676  0.7088 -2.9296  0.1053
  251MOL0     H34638   4.059   9.135   0.557 -0.8629  0.2999 -0.4470
  252MOL0     O34639   1.760   3.000   5.040 -0.1884 -0.5509 -0.4844
  252MOL0     C34640   1.771   2.992   4.916 -0.8407  0.1041 -0.7597
  252MOL0     O34641   1.756   2.879   4.836  0.4544 -0.1935 -0.5928
  252MOL0     C34642   1.746   2.747   4.879 -0.0277 -0.1088 -0.1088
  252MOL0     C34643   1.794   2.700   5.005 -0.2424  0.0735  0.2795
  252MOL0     C34644   1.779   2.564   5.039 -0.2992 -0.1571  1.0699
  252MOL0     C34645   1.707   2.480   4.957  0.0923 -0.4181  0.0242
  252MOL0     O34646   1.683   2.345   4.992 -0.4355  0.1487  0.3299
  252MOL0     C34647   1.614   2.256   4.897  0.5764  0.2788 -0.1664
  252MOL0     C34648   1.626   2.106   4.938  0.3172 -0.4184  0.3495
  252MOL0     C34649   1.776   2.066   4.934 -0.3851 -0.0817  0.6343
  252MOL0     C34650   1.782   1.928   4.998 -1.1981 -0.2577 -0.3500
  252MOL0     C34651   1.910   1.847   4.975 -0.3790 -0.1130 -0.4822
  252MOL0     C34652   2.032   1.908   5.046  0.4686 -0.1515  0.2367
  252MOL0     C34653   2.158   1.829   5.046  1.2481 -0.4407  0.4756
  252MOL0     C34654   2.284   1.910   5.080  0.9171 -0.2638 -0.1749
  252MOL0     N34655   2.396   1.814   5.080 -0.0909  0.1741 -0.1809
  252MOL0     C34656   2.421   1.734   5.185 -0.1063  0.0225 -0.1639
  252MOL0     C34657   2.538   1.671   5.152 -0.8049  0.0225 -0.2091
  252MOL0     C34658   2.612   1.553   5.199  0.0937 -1.0113  0.2615
  252MOL0     C34659   2.749   1.578   5.259  0.2320 -0.3789  0.4235
  252MOL0     C34660   2.839   1.451   5.250  0.4110  0.7254 -0.5477
  252MOL0     C34661   2.970   1.469   5.322  1.2108 -0.5788  0.3745
  252MOL0     O34662   3.031   1.339   5.339  0.0660 -0.1265 -0.3562
  252MOL0     C34663   3.165   1.349   5.388 -0.9911  0.3939 -0.4382
  252MOL0     C34664   3.236   1.460   5.396 -0.7892 -0.8229  0.0959
  252MOL0     C34665   3.374   1.456   5.427 -0.3879  0.4733  0.4204
  252MOL0     C34666   3.451   1.590   5.431 -0.0959  0.3840 -0.1891
  252MOL0     C34667   3.441   1.331   5.428  0.0234  0.2793 -0.3697
  252MOL0     C34668   3.589   1.312   5.452  0.0632  0.8341 -0.1728
  252MOL0     O34669   3.667   1.413   5.485  0.0817  0.1812 -1.0976
  252MOL0     C34670   3.796   1.395   5.531  0.6335  0.2448 -0.0659
  252MOL0     C34671   3.907   1.368   5.443 -0.1188  0.7968 -0.0258
  252MOL0     C34672   4.028   1.369   5.500 -0.1313  0.3476  0.2185
  252MOL0     C34673   4.047   1.384   5.634  0.2042  0.7749 -0.0273
  252MOL0     O34674   4.174   1.382   5.676 -0.9136  0.0077 -0.7680
  252MOL0     C34675   4.217   1.341   5.811  0.7284  0.7372  0.1043
  252MOL0     C34676   4.369   1.305   5.809 -0.6114  0.6934 -0.1066
  252MOL0     C34677   4.405   1.157   5.768  0.5480 -0.2507  1.4781
  252MOL0     C34678   4.337   1.124   5.627 -0.7567 -0.3414 -0.5415
  252MOL0     C34679   4.389   0.985   5.563 -0.0775  0.6575  0.4510
  252MOL0     C34680   4.346   0.861   5.646 -0.3445  1.2246  0.2074
  252MOL0     C34681   4.356   0.728   5.573  0.5369 -0.1775 -1.3724
  252MOL0     C34682   4.357   0.617   5.675 -0.2749  0.2740 -0.3938
  252MOL0    Cl34683   4.498   0.604   5.772 -0.5079  0.1369 -0.4007
  252MOL0     C34684   3.936   1.392   5.724 -0.4352 -0.5282 -0.1721
  252MOL0     C34685   3.807   1.406   5.669 -0.2076  0.9175  0.4507
  252MOL0     O34686   3.626   1.197   5.458 -0.3459  0.8444  0.2369
  252MOL0     C34687   3.363   1.217   5.398 -0.2941 -0.7472 -0.2811
  252MOL0     C34688   3.223   1.225   5.377  0.0312  0.8354  0.3194
  252MOL0     N34689   2.581   1.735   5.030  0.0425  0.3417  0.2928
  252MOL0     N34690   2.500   1.819   4.989 -0.0876  0.6891 -0.0779
  252MOL0     C34691   1.657   2.527   4.834 -0.9330 -0.3103 -0.4619
  252MOL0     C34692   1.676   2.663   4.797 -0.0231  0.1660  0.0209
  252MOL0     C34693   1.777   3.118   4.838 -0.2588 -0.1148 -0.3316
  252MOL0     C34694   1.763   3.114   4.698 -1.4368  0.2874 -0.6326
  252MOL0     C34695   1.788   3.227   4.620  1.5063 -0.4464  0.4489
  252MOL0     C34696   1.824   3.354   4.677  0.2947  1.0251 -0.9299
  252MOL0     O34697   1.840   3.469   4.609  0.2340  0.2169  0.1232
  252MOL0     C34698   1.855   3.481   4.475 -0.5231  0.3082  0.8346
  252MOL0     C34699   1.719   3.489   4.408 -1.2397 -0.4510  0.8678
  252MOL0     C34700   1.651   3.625   4.415 -0.1906 -0.5361  0.1713
  252MOL0     C34701   1.733   3.753   4.387 -0.5404 -0.0509  0.0690
  252MOL0     C34702   1.639   3.861   4.399  0.0372  0.0710 -0.2127
  252MOL0     C34703   1.554   3.942   4.427 -0.3938 -0.4555 -0.2624
  252MOL0     C34704   1.820   3.360   4.818  0.3073  0.0660 -0.7295
  252MOL0     C34705   1.801   3.245   4.900 -0.5151 -0.0980  0.0993
  252MOL0     C34706   1.824   3.284   5.046 -0.0958  0.1392 -0.6555
  252MOL0     H34707   1.844   2.774   5.067  0.3167  0.6917 -0.8907
  252MOL0     H34708   1.813   2.530   5.136 -0.7905  0.2414  1.3914
  252MOL0     H34709   1.653   2.255   4.794 -0.2112  0.2045 -0.4678
  252MOL0     H34710   1.509   2.282   4.883  0.0455 -2.1927 -1.2226
  252MOL0     H34711   1.587   2.105   5.040 -0.2757 -0.3030  0.1322
  252MOL0     H34712   1.562   2.038   4.881  0.4949 -1.6936  1.6167
  252MOL0     H34713   1.805   2.061   4.829  0.4781  0.1918  0.8497
  252MOL0     H34714   1.851   2.132   4.979  0.2844  0.2871 -0.9478
  252MOL0     H34715   1.779   1.926   5.107  1.2145 -1.1302 -0.2473
  252MOL0     H34716   1.695   1.864   4.980 -1.1976 -0.0385 -1.1702
  252MOL0     H34717   1.940   1.837   4.870  1.4056 -4.6874  0.2133
  252MOL0     H34718   1.901   1.744   5.011  3.6116  0.6107  3.4808
  252MOL0     H34719   2.056   2.008   5.009 -0.2596  0.5263  1.5342
  252MOL0     H34720   2.005   1.915   5.152  0.3995 -0.2649  0.2266
  252MOL0     H34721   2.177   1.770   4.956 -1.3402 -0.5432 -0.0727
  252MOL0     H34722   2.144   1.763   5.132  0.5284  2.6417  2.8907
  252MOL0     H34723   2.299   1.995   5.013 -2.3497 -0.1818 -0.9814
  252MOL0     H34724   2.271   1.950   5.180  2.2684 -1.6908  0.6139
  252MOL0     H34725   2.353   1.720   5.269 -2.3078 -0.0660 -1.8509
  252MOL0     H34726   2.622   1.477   5.121  3.0924  0.1225 -0.6107
  252MOL0     H34727   2.552   1.509   5.278  0.7256 -0.3932  1.1081
  252MOL0     H34728   2.806   1.656   5.208  1.5438 -1.3621  0.3285
  252MOL0     H34729   2.744   1.616   5.361 -1.1292 -1.8707  0.9455
  252MOL0     H34730   2.771   1.379   5.297 -0.5503  1.6181 -0.5338
  252MOL0     H34731   2.862   1.420   5.148  0.6217  1.6691 -0.8032
  252MOL0     H34732   3.037   1.534   5.265 -0.6658  0.9458 -0.2150
  252MOL0     H34733   2.959   1.517   5.420 -1.3913 -0.7280  0.2289
  252MOL0     H34734   3.195   1.560   5.390  3.4806  1.1637  0.5491
  252MOL0     H34735   3.388   1.678   5.414  0.1378  1.0404  2.0581
  252MOL0     H34736   3.530   1.581   5.357 -0.7069 -3.0812 -0.6057
  252MOL0     H34737   3.499   1.601   5.529  1.7277 -3.0008 -0.5490
  252MOL0     H34738   3.909   1.348   5.336  0.0807  4.0956 -0.7508
  252MOL0     H34739   4.112   1.342   5.436 -0.1292 -1.5849  0.9505
  252MOL0     H34740   4.192   1.419   5.883  4.1509 -0.0755  2.4002
  252MOL0     H34741   4.163   1.251   5.844  1.6328  0.5353  1.0509
  252MOL0     H34742   4.426   1.368   5.740  1.9217 -2.3912 -1.0565
  252MOL0     H34743   4.409   1.323   5.909 -1.9951 -3.4614  1.4471
  252MOL0     H34744   4.359   1.092   5.843 -0.9699 -1.4300 -0.3810
  252MOL0     H34745   4.514   1.154   5.762  0.5279  0.8369  0.2752
  252MOL0     H34746   4.379   1.193   5.554  3.5260 -3.7061 -1.6683
  252MOL0     H34747   4.228   1.129   5.633 -1.0634  1.9889 -4.6361
  252MOL0     H34748   4.352   0.978   5.460  1.2300  0.1453 -0.0092
  252MOL0     H34749   4.498   0.987   5.563  0.1597 -2.6662  3.0989
  252MOL0     H34750   4.242   0.875   5.677 -1.2887  1.3982 -2.7342
  252MOL0     H34751   4.399   0.851   5.741  1.2751 -0.2687 -0.7938
  252MOL0     H34752   4.453   0.726   5.520 -0.8572 -0.1974 -4.1065
  252MOL0     H34753   4.273   0.713   5.503 -0.7698  0.9372 -0.1041
  252MOL0     H34754   4.333   0.526   5.619  0.3519 -0.5491  0.6573
  252MOL0     H34755   4.270   0.622   5.741  0.6014 -0.8823  0.8816
  252MOL0     H34756   3.958   1.405   5.830 -2.0672  1.9163 -0.0483
  252MOL0     H34757   3.717   1.433   5.723 -0.5951 -3.0189  2.0875
  252MOL0     H34758   3.400   1.115   5.402 -0.9932 -1.2042 -3.4193
  252MOL0     H34759   3.163   1.141   5.345  0.1080  0.2972  1.4986
  252MOL0     H34760   1.600   2.467   4.763 -0.7729 -1.8833  0.7025
  252MOL0     H34761   1.645   2.711   4.705  3.3574  1.2727 -0.6644
  252MOL0     H34762   1.756   3.017   4.650 -0.2229  0.3619 -1.0072
  252MOL0     H34763   1.779   3.228   4.511  0.9963  0.0789  0.4901
  252MOL0     H34764   1.912   3.570   4.447  2.1425 -0.7945  2.3353
  252MOL0     H34765   1.915   3.401   4.431  0.7603  1.6490  0.0474
  252MOL0     H34766   1.655   3.417   4.458  0.7618 -1.5993  1.8850
  252MOL0     H34767   1.741   3.455   4.306  3.0970 -1.0805  1.8173
  252MOL0     H34768   1.563   3.624   4.349 -0.3488  0.9905  0.3191
  252MOL0     H34769   1.620   3.632   4.520  0.9002 -0.7048  0.5119
  252MOL0     H34770   1.783   3.763   4.290  0.6489  2.4235  0.8809
  252MOL0     H34771   1.804   3.770   4.468  0.4257  1.2518 -1.0124
  252MOL0     H34772   1.484   4.015   4.462  2.4190  2.1870  0.2843
  252MOL0     H34773   1.850   3.450   4.871 -0.7525 -0.3883  0.6879
  252MOL0     H34774   1.733   3.251   5.096  1.0671 -2.8981 -0.3529
  252MOL0     H34775   1.910   3.227   5.082 -0.9579 -0.5508  0.3466
  252MOL0     H34776   1.840   3.392   5.061  2.4661 -0.2254 -0.3717
  253MOL0     O34777   5.108   3.733   5.418 -0.7468  0.2927 -0.5855
  253MOL0     C34778   5.032   3.679   5.505 -1.1304 -1.2551  0.2665
  253MOL0     O34779   5.071   3.611   5.615  0.7848 -0.0494 -0.0186
  253MOL0     C34780   5.194   3.604   5.678 -0.6153 -0.2204 -0.2534
  253MOL0     C34781   5.208   3.565   5.813  0.8275 -0.1179 -0.0800
  253MOL0     C34782   5.337   3.539   5.871  0.0841  0.5374 -0.5795
  253MOL0     C34783   5.451   3.559   5.798  0.3148  0.0574  0.4097
  253MOL0     O34784   5.566   3.536   5.871 -0.2109 -0.6749  0.3644
  253MOL0     C34785   5.697   3.524   5.802  0.6101 -0.2039 -0.8661
  253MOL0     C34786   5.758   3.395   5.865  0.6285 -0.1349 -0.3976
  253MOL0     C34787   5.903   3.370   5.817  0.1946  0.3210  0.5407
  253MOL0     C34788   5.958   3.246   5.893 -0.5140  0.2121  0.1274
  253MOL0     C34789   6.106   3.225   5.866 -0.5747 -0.4681 -0.6451
  253MOL0     C34790   6.194   3.350   5.877  0.3491  0.1202 -0.0981
  253MOL0     C34791   6.337   3.327   5.900 -0.1405  0.2033  0.3374
  253MOL0     C34792   6.412   3.451   5.889  0.1108 -0.6924  0.3945
  253MOL0     N34793   6.553   3.432   5.935  0.0460 -0.7488 -1.0437
  253MOL0     C34794   6.603   3.484   6.054 -0.7305  0.2657  0.1416
  253MOL0     C34795   6.736   3.458   6.051  0.1146  0.1613 -0.1991
  253MOL0     C34796   6.856   3.498   6.141  0.8584 -0.6232 -0.0772
  253MOL0     C34797   6.935   3.587   6.054  0.9949  0.5192  0.5220
  253MOL0     C34798   7.045   3.658   6.134 -0.7104 -0.2506 -0.7973
  253MOL0     C34799   7.099   3.777   6.050 -0.6582  0.5463  0.1244
  253MOL0     O34800   7.182   3.856   6.134 -0.0902 -0.2634 -0.4630
  253MOL0     C34801   7.315   3.831   6.131 -0.0772  1.0706  0.9322
  253MOL0     C34802   7.371   3.805   6.249 -0.9146  0.4387 -0.6094
  253MOL0     C34803   7.505   3.791   6.259  0.3600 -0.2731 -0.1425
  253MOL0     C34804   7.564   3.777   6.397 -0.1055  0.4226  0.1679
  253MOL0     C34805   7.591   3.775   6.142  0.3714 -1.4162  0.1339
  253MOL0     C34806   7.733   3.769   6.152 -0.6324 -0.2553 -0.8576
  253MOL0     O34807   7.797   3.878   6.206 -0.4568 -0.4277 -0.7001
  253MOL0     C34808   7.938   3.872   6.218 -0.2988  0.1289 -0.1441
  253MOL0     C34809   7.988   3.817   6.341  0.3324  1.2579 -0.1430
  253MOL0     C34810   8.127   3.796   6.350 -0.1490  0.7357  0.5006
  253MOL0     C34811   8.211   3.836   6.247  1.1995 -0.0299  0.2305
  253MOL0     O34812   8.342   3.819   6.258  0.6460 -0.8988 -0.0161
  253MOL0     C34813   8.413   3.812   6.138  0.6705 -0.5734  0.0770
  253MOL0     C34814   8.559   3.756   6.144  0.4236 -0.7216 -0.6717
  253MOL0     C34815   8.672   3.861   6.119 -0.4908 -0.4186 -0.2204
  253MOL0     C34816   8.691   3.941   6.249 -0.4692 -0.4388  0.2488
  253MOL0     C34817   8.789   4.057   6.233 -0.5557 -0.5638 -1.0957
  253MOL0     C34818   8.808   4.125   6.367  0.8784  0.2882 -0.0020
  253MOL0     C34819   8.882   4.259   6.353 -0.1485  0.1812  0.0779
  253MOL0     C34820   8.935   4.302   6.491  0.9103 -0.0295 -0.0261
  253MOL0    Cl34821   9.018   4.464   6.466  0.1360  0.1396 -0.1919
  253MOL0     C34822   8.150   3.902   6.131 -0.7220 -0.8954 -0.2237
  253MOL0     C34823   8.019   3.903   6.114  0.2795  0.0068 -0.6945
  253MOL0     O34824   7.790   3.676   6.103 -0.1614 -0.2839 -0.0602
  253MOL0     C34825   7.525   3.791   6.014  0.0054  0.2573  0.8303
  253MOL0     C34826   7.387   3.820   6.011 -0.4494  0.3468 -0.0394
  253MOL0     N34827   6.763   3.388   5.930  0.3567 -0.9971 -0.4044
  253MOL0     N34828   6.653   3.378   5.862 -0.3502  0.4601  0.9800
  253MOL0     C34829   5.439   3.607   5.663  0.2091 -0.1840 -0.2478
  253MOL0     C34830   5.316   3.628   5.605  0.5438 -0.0116  0.5834
  253MOL0     C34831   4.884   3.693   5.471  0.0449 -0.6973  0.5908
  253MOL0     C34832   4.847   3.741   5.345 -0.6036 -0.4501  0.2401
  253MOL0     C34833   4.716   3.757   5.305  0.0910 -0.1056  0.5793
  253MOL0     C34834   4.618   3.734   5.402 -0.1753  0.2216  0.3134
  253MOL0     O34835   4.490   3.748   5.351  0.3020  0.4304 -1.5807
  253MOL0     C34836   4.385   3.746   5.451 -0.1125 -0.5659  0.2823
  253MOL0     C34837   4.248   3.784   5.375 -0.1644 -0.4089  0.6088
  253MOL0     C34838   4.128   3.813   5.471  0.1789 -0.5562  0.7084
  253MOL0     C34839   4.015   3.868   5.387 -0.2911  0.1793  0.0542
  253MOL0     C34840   3.964   3.768   5.295  0.4144 -0.1256 -0.4319
  253MOL0     C34841   3.920   3.693   5.207 -0.6186 -0.3916 -0.0223
  253MOL0     C34842   4.656   3.708   5.537  0.3196  0.4884 -0.2662
  253MOL0     C34843   4.787   3.687   5.569  0.0308 -1.1442 -0.2387
  253MOL0     C34844   4.813   3.642   5.713 -0.4540  0.0250  0.2335
  253MOL0     H34845   5.111   3.544   5.855  0.8973 -0.4734 -0.0974
  253MOL0     H34846   5.336   3.503   5.974 -1.0655 -1.6563 -1.2757
  253MOL0     H34847   5.766   3.608   5.816  2.4427 -1.4377 -2.0311
  253MOL0     H34848   5.686   3.510   5.694 -1.3745  0.7533 -0.8304
  253MOL0     H34849   5.735   3.398   5.972 -2.7552  0.4520 -1.0345
  253MOL0     H34850   5.693   3.312   5.837  1.1847 -0.1188 -1.8264
  253MOL0     H34851   5.899   3.345   5.710 -1.3029  1.2785  0.3346
  253MOL0     H34852   5.960   3.462   5.827 -0.5064  0.7274  0.8778
  253MOL0     H34853   5.944   3.272   5.999  5.8349 -0.6273  1.5491
  253MOL0     H34854   5.897   3.158   5.874 -2.0289  1.3735 -0.6756
  253MOL0     H34855   6.131   3.190   5.765 -1.7662 -3.2634 -0.0804
  253MOL0     H34856   6.131   3.149   5.941 -3.1301 -0.6631  0.0903
  253MOL0     H34857   6.196   3.408   5.784  2.8955  2.6367  1.3731
  253MOL0     H34858   6.146   3.414   5.951 -0.7806 -0.9947  0.1595
  253MOL0     H34859   6.363   3.262   5.816 -1.7885  1.8187 -1.5415
  253MOL0     H34860   6.362   3.283   5.997  1.2363  3.9303  1.8638
  253MOL0     H34861   6.422   3.480   5.784 -0.2378 -1.9139  0.0118
  253MOL0     H34862   6.356   3.529   5.942  1.3804  0.4531  0.1113
  253MOL0     H34863   6.542   3.539   6.125  1.8499  1.0143  1.9166
  253MOL0     H34864   6.919   3.418   6.181  0.9165  0.2346  1.6889
  253MOL0     H34865   6.809   3.559   6.219 -1.5147  0.8794 -2.5320
  253MOL0     H34866   6.986   3.529   5.976  1.8258  2.2136 -0.2450
  253MOL0     H34867   6.866   3.667   6.026  1.8840  1.4506  0.9123
  253MOL0     H34868   6.995   3.692   6.225 -0.4412  1.4773 -1.2667
  253MOL0     H34869   7.122   3.585   6.162 -3.8791 -3.6741 -0.0874
  253MOL0     H34870   7.141   3.734   5.959  0.0120  0.5946  0.4058
  253MOL0     H34871   7.015   3.838   6.017  0.1295  2.0857  0.8438
  253MOL0     H34872   7.313   3.812   6.340  1.5323  0.3303  1.0550
  253MOL0     H34873   7.549   3.675   6.433  3.4176 -0.4628 -0.5055
  253MOL0     H34874   7.511   3.840   6.469  0.3998  0.3837  0.5738
  253MOL0     H34875   7.671   3.796   6.399  0.2045 -1.2158  1.8083
  253MOL0     H34876   7.920   3.785   6.419  2.1093  1.9395  1.7734
  253MOL0     H34877   8.166   3.759   6.445  0.5296  2.8147  1.0756
  253MOL0     H34878   8.364   3.744   6.067  0.9392 -1.6441  0.8882
  253MOL0     H34879   8.416   3.912   6.093 -3.7366 -0.4373 -0.3465
  253MOL0     H34880   8.581   3.707   6.239  0.9539 -2.9180 -1.8641
  253MOL0     H34881   8.566   3.674   6.072  0.5772 -1.0117 -0.3296
  253MOL0     H34882   8.641   3.931   6.041 -1.1919  0.1171  0.5307
  253MOL0     H34883   8.765   3.811   6.089 -0.4128 -0.7656  0.5961
  253MOL0     H34884   8.722   3.866   6.322 -0.4082 -2.4065 -1.6611
  253MOL0     H34885   8.595   3.984   6.280 -0.6724  0.1494 -1.1124
  253MOL0     H34886   8.891   4.023   6.214  0.6790  1.7647  0.7624
  253MOL0     H34887   8.770   4.136   6.159 -0.2819 -1.1613 -1.8220
  253MOL0     H34888   8.871   4.057   6.426  1.5821  0.3202 -0.7053
  253MOL0     H34889   8.713   4.131   6.420  0.0846 -2.2079 -0.9656
  253MOL0     H34890   8.821   4.336   6.305  1.5626  0.3101 -2.0580
  253MOL0     H34891   8.969   4.248   6.287 -2.2826  2.7735 -3.5055
  253MOL0     H34892   9.015   4.234   6.519  0.4784 -2.5036 -4.0216
  253MOL0     H34893   8.856   4.320   6.565  1.2628  1.2522  0.0689
  253MOL0     H34894   8.204   3.951   6.051 -0.7046 -1.4732 -0.5716
  253MOL0     H34895   7.978   3.954   6.027 -0.6035 -0.9497 -0.8668
  253MOL0     H34896   7.586   3.771   5.927 -2.4111  0.4159 -0.9780
  253MOL0     H34897   7.342   3.835   5.914  0.5072 -0.1594 -0.5718
  253MOL0     H34898   5.529   3.629   5.607  0.6673 -1.2267  0.0463
  253MOL0     H34899   5.314   3.666   5.503 -0.3605  0.8974  0.9198
  253MOL0     H34900   4.916   3.750   5.262  0.4445  0.4594  1.1802
  253MOL0     H34901   4.683   3.761   5.202  1.8727 -1.0865 -0.0816
  253MOL0     H34902   4.366   3.650   5.502 -0.5071  0.0841  1.4040
  253MOL0     H34903   4.403   3.814   5.535 -2.6334  0.2633  0.2432
  253MOL0     H34904   4.220   3.710   5.300 -2.0525 -0.3329  1.1869
  253MOL0     H34905   4.275   3.876   5.323 -1.1678 -0.9844 -1.0150
  253MOL0     H34906   4.104   3.719   5.520 -0.3674 -0.9165 -0.2192
  253MOL0     H34907   4.170   3.887   5.540  1.9088 -2.4040  1.7058
  253MOL0     H34908   4.044   3.953   5.324  0.1517 -0.6978 -0.9584
  253MOL0     H34909   3.932   3.896   5.453 -0.7553 -1.3084  0.1226
  253MOL0     H34910   3.863   3.636   5.137  0.8154 -1.7386 -0.1410
  253MOL0     H34911   4.591   3.713   5.624  2.0068 -0.0361  1.1058
  253MOL0     H34912   4.728   3.641   5.783 -0.7480  0.7693 -0.0973
  253MOL0     H34913   4.858   3.543   5.700 -0.2016  0.5378 -3.9601
  253MOL0     H34914   4.878   3.708   5.771 -0.7472  0.3594  0.1820
  254MOL0     O34915   8.208   6.481   9.497 -0.3535 -0.5419  0.0654
  254MOL0     C34916   8.203   6.592   9.547  0.1359  0.2306 -0.0486
  254MOL0     O34917   8.311   6.650   9.604  1.1799  0.3082 -0.1170
  254MOL0     C34918   8.439   6.611   9.570  0.0079 -0.3756 -0.1263
  254MOL0     C34919   8.503   6.632   9.446  0.5782  1.0912 -0.3740
  254MOL0     C34920   8.622   6.581   9.409  0.1952 -0.8744 -0.7632
  254MOL0     C34921   8.695   6.505   9.503  0.3328 -0.1171 -0.7201
  254MOL0     O34922   8.817   6.442   9.479 -0.1012  0.0936 -0.2050
  254MOL0     C34923   8.889   6.493   9.371 -0.0728  0.1734  0.6411
  254MOL0     C34924   9.029   6.439   9.375  0.1386  0.1483  0.7046
  254MOL0     C34925   9.093   6.412   9.239  0.1664 -1.0461 -0.9831
  254MOL0     C34926   9.213   6.326   9.273 -0.6476  1.3215  0.2428
  254MOL0     C34927   9.319   6.309   9.170 -0.3517  0.1147  0.5424
  254MOL0     C34928   9.431   6.213   9.203  0.8356 -0.0899 -0.4462
  254MOL0     C34929   9.502   6.239   9.338  0.1807  0.8270 -0.4578
  254MOL0     C34930   9.575   6.371   9.357  0.2058 -0.7765 -0.2256
  254MOL0     N34931   9.666   6.360   9.472  0.1644 -0.0974  0.1162
  254MOL0     C34932   9.643   6.418   9.594 -0.1384  0.5355 -0.3425
  254MOL0     C34933   9.745   6.381   9.677  0.0840 -0.7610 -0.0481
  254MOL0     C34934   9.757   6.436   9.814 -0.2053  0.1013 -0.6486
  254MOL0     C34935   9.844   6.338   9.907  0.5629 -0.7242 -0.0238
  254MOL0     C34936   9.998   6.378   9.918  0.2126 -0.9774 -0.1819
  254MOL0     C34937  10.068   6.289  10.026  0.1576  0.1079  0.3765
  254MOL0     O34938  10.063   6.339  10.158 -0.3843 -0.0506 -0.1385
  254MOL0     C34939  10.143   6.273  10.248  0.2949  0.3959  0.5497
  254MOL0     C34940  10.214   6.157  10.226 -0.7225  0.3333  0.4200
  254MOL0     C34941  10.300   6.097  10.315  0.1294  0.1976 -0.7497
  254MOL0     C34942  10.385   5.980  10.258  0.5101 -0.1031 -0.7918
  254MOL0     C34943  10.313   6.159  10.438  0.0322 -0.4989 -0.4471
  254MOL0     C34944  10.400   6.090  10.541  0.2337 -0.2752 -0.5538
  254MOL0     O34945  10.433   6.169  10.654  0.7145  0.0085 -0.7383
  254MOL0     C34946  10.499   6.105  10.762 -0.1246  0.1508 -0.7148
  254MOL0     C34947  10.615   6.028  10.746 -0.1355  0.7871  1.4761
  254MOL0     C34948  10.685   5.976  10.847 -0.2731  0.4910  0.9334
  254MOL0     C34949  10.640   5.993  10.976 -0.1872  1.3509 -0.4665
  254MOL0     O34950  10.717   5.954  11.087  0.3777 -0.1423  0.6345
  254MOL0     C34951  10.852   5.922  11.070  0.1932  0.0980  0.1370
  254MOL0     C34952  10.877   5.771  11.069 -0.0219  0.8490 -0.0246
  254MOL0     C34953  11.024   5.733  11.059 -0.0479  0.5549  0.3434
  254MOL0     C34954  11.037   5.580  11.075  0.3203  0.2368 -0.4306
  254MOL0     C34955  11.031   5.538  11.222  0.7017  1.0259 -0.0454
  254MOL0     C34956  11.064   5.387  11.249 -0.0638 -0.1067  0.0755
  254MOL0     C34957  11.079   5.362  11.389  0.4411  1.0384  0.3133
  254MOL0     C34958  11.119   5.215  11.414 -0.1332 -0.0561  0.0025
  254MOL0    Cl34959  11.291   5.203  11.359 -0.0352 -0.5449  0.4430
  254MOL0     C34960  10.517   6.056  10.999  0.2695 -1.0734  0.1563
  254MOL0     C34961  10.449   6.122  10.897 -0.1851  0.2064  0.6149
  254MOL0     O34962  10.427   5.973  10.529 -0.1026  0.2221 -0.4305
  254MOL0     C34963  10.227   6.268  10.476  0.7532  0.8507 -0.4017
  254MOL0     C34964  10.146   6.319  10.378  0.0920 -1.1999 -0.3388
  254MOL0     N34965   9.828   6.298   9.608 -0.0679  0.2869 -0.5287
  254MOL0     N34966   9.780   6.276   9.487 -0.8099 -0.4610  0.3128
  254MOL0     C34967   8.646   6.492   9.633  0.5400 -0.3551 -0.1817
  254MOL0     C34968   8.518   6.545   9.672 -0.0231 -0.3745  0.0767
  254MOL0     C34969   8.069   6.655   9.554 -0.5589  0.0257  0.3035
  254MOL0     C34970   8.047   6.774   9.635 -0.3129  0.0996  0.3221
  254MOL0     C34971   7.928   6.835   9.637  0.1400  0.2161 -0.1422
  254MOL0     C34972   7.822   6.798   9.556 -0.0121 -0.8033 -0.0144
  254MOL0     O34973   7.706   6.875   9.544  0.0274 -0.0222  0.0532
  254MOL0     C34974   7.600   6.830   9.628  0.3172  0.1641 -0.2438
  254MOL0     C34975   7.504   6.949   9.614 -0.0319 -0.9309  0.2872
  254MOL0     C34976   7.376   6.940   9.705  0.6767 -0.8349 -0.1856
  254MOL0     C34977   7.270   6.828   9.672 -0.1504 -0.1310  0.3583
  254MOL0     C34978   7.319   6.708   9.740 -0.1122  0.0297 -0.0307
  254MOL0     C34979   7.356   6.604   9.801 -0.1159 -0.1680  0.3366
  254MOL0     C34980   7.838   6.687   9.474 -0.4690  0.5478 -0.1458
  254MOL0     C34981   7.955   6.604   9.488  0.0772 -0.0692  0.0554
  254MOL0     C34982   7.949   6.473   9.411  0.7843 -0.9973 -0.3697
  254MOL0     H34983   8.436   6.683   9.377  2.7845  0.0714 -3.4632
  254MOL0     H34984   8.645   6.590   9.303 -1.7727 -0.6915 -1.2195
  254MOL0     H34985   8.888   6.602   9.378 -0.8201  0.1667  0.7291
  254MOL0     H34986   8.850   6.472   9.271  0.8514  4.1434 -0.7737
  254MOL0     H34987   9.086   6.517   9.427  0.9268 -1.1281  1.8103
  254MOL0     H34988   9.034   6.347   9.433  0.8880 -0.1324  0.2045
  254MOL0     H34989   9.034   6.370   9.157  2.6271 -0.7698 -3.0186
  254MOL0     H34990   9.126   6.510   9.204 -0.6266 -0.8592 -1.2285
  254MOL0     H34991   9.255   6.364   9.366  0.1371 -0.3275  0.6003
  254MOL0     H34992   9.177   6.226   9.301 -1.1619  1.2237 -0.7259
  254MOL0     H34993   9.359   6.407   9.144 -2.2757  0.0449 -3.3619
  254MOL0     H34994   9.279   6.267   9.077 -1.7831  1.0175  0.7103
  254MOL0     H34995   9.383   6.115   9.215 -1.9980  1.3469  0.9088
  254MOL0     H34996   9.501   6.203   9.119 -1.2977 -1.7060 -2.1549
  254MOL0     H34997   9.564   6.149   9.343  0.4661  0.9236 -1.9705
  254MOL0     H34998   9.435   6.236   9.425  1.9350  1.4937  0.9927
  254MOL0     H34999   9.639   6.392   9.271  0.1474 -1.4729 -0.4414
  254MOL0     H35000   9.504   6.453   9.371 -0.4033 -1.6942  2.9985
  254MOL0     H35001   9.572   6.495   9.621 -0.1801  0.2863  0.2946
  254MOL0     H35002   9.658   6.453   9.857  0.0305 -1.0917  0.4199
  254MOL0     H35003   9.803   6.535   9.808 -1.9380  0.9095 -1.0631
  254MOL0     H35004   9.805   6.344  10.009 -1.5137  2.2912 -0.8618
  254MOL0     H35005   9.829   6.236   9.873 -1.4883  0.0491 -1.6721
  254MOL0     H35006  10.049   6.371   9.821 -0.6842  3.1402 -1.1517
  254MOL0     H35007  10.014   6.482   9.948  1.7787 -1.2723  0.1254
  254MOL0     H35008  10.021   6.190  10.024  2.0903 -0.8564 -0.5597
  254MOL0     H35009  10.173   6.283   9.995 -0.4952 -1.9175 -1.7306
  254MOL0     H35010  10.209   6.109  10.128 -0.0713 -0.9777  1.0147
  254MOL0     H35011  10.390   5.978  10.149  1.2310  2.0801 -0.8362
  254MOL0     H35012  10.336   5.884  10.278  1.2214 -0.4061 -0.4835
  254MOL0     H35013  10.488   5.981  10.294  0.0707 -0.0863  0.5174
  254MOL0     H35014  10.642   5.999  10.645 -0.3189  0.2881  1.5651
  254MOL0     H35015  10.771   5.912  10.828 -1.5379 -0.9020 -0.4697
  254MOL0     H35016  10.899   5.963  10.980  0.7738  2.1436  1.3136
  254MOL0     H35017  10.910   5.966  11.152  0.7285  1.0242 -0.7243
  254MOL0     H35018  10.826   5.739  11.161 -1.4460  0.9709 -0.7457
  254MOL0     H35019  10.818   5.723  10.990  0.7190  1.1971 -0.8031
  254MOL0     H35020  11.091   5.792  11.122  0.2430  1.3544 -0.6859
  254MOL0     H35021  11.060   5.756  10.958 -2.4814  2.8116 -0.0900
  254MOL0     H35022  11.130   5.549  11.026  0.3826 -1.1831  0.5081
  254MOL0     H35023  10.961   5.527  11.017  0.5751 -1.6446  0.8535
  254MOL0     H35024  11.100   5.595  11.284 -2.1136  3.0382  1.4764
  254MOL0     H35025  10.931   5.551  11.264  0.2169 -0.8029 -0.5249
  254MOL0     H35026  11.161   5.392  11.198  0.1013 -0.1735  0.3823
  254MOL0     H35027  10.999   5.313  11.201 -0.3409  0.6414 -0.7487
  254MOL0     H35028  10.985   5.374  11.445  0.4026  2.5409 -0.0180
  254MOL0     H35029  11.143   5.435  11.439  1.6709 -0.7460  1.4254
  254MOL0     H35030  11.051   5.148  11.360  1.1886 -1.9313  0.5298
  254MOL0     H35031  11.110   5.195  11.522  0.6229  1.7959  0.4380
  254MOL0     H35032  10.501   6.076  11.104  1.8966  1.0569  0.0587
  254MOL0     H35033  10.359   6.181  10.908  0.6153  2.2397 -2.4549
  254MOL0     H35034  10.222   6.303  10.578  0.8756 -0.4115  0.0507
  254MOL0     H35035  10.094   6.411  10.403  2.9457  0.4175 -0.0191
  254MOL0     H35036   8.710   6.443   9.706  0.6685  1.1119  0.7472
  254MOL0     H35037   8.475   6.540   9.771  0.3885 -0.7384  0.2404
  254MOL0     H35038   8.128   6.818   9.693 -2.0811  0.5378  2.6002
  254MOL0     H35039   7.919   6.920   9.704 -1.1110  1.8297 -2.2414
  254MOL0     H35040   7.548   6.735   9.609 -0.1114  0.6233 -1.4601
  254MOL0     H35041   7.640   6.822   9.730 -0.9298 -2.1568  0.1475
  254MOL0     H35042   7.474   6.957   9.509 -1.4409  0.9175  0.7715
  254MOL0     H35043   7.561   7.042   9.626  1.1279 -0.7523 -4.3835
  254MOL0     H35044   7.409   6.933   9.809 -2.8460 -2.9089  0.9555
  254MOL0     H35045   7.323   7.036   9.700  1.3843 -0.1257  3.3616
  254MOL0     H35046   7.264   6.809   9.564 -0.4738  2.9046 -0.2582
  254MOL0     H35047   7.169   6.843   9.711 -0.7167  0.3468 -1.1942
  254MOL0     H35048   7.362   6.511   9.854 -0.7204 -0.9763 -0.9548
  254MOL0     H35049   7.762   6.658   9.402 -0.3949 -2.7354  0.9351
  254MOL0     H35050   7.960   6.398   9.489  1.0405  1.4211  2.0581
  254MOL0     H35051   7.848   6.457   9.370  0.2042 -1.6928  1.2496
  254MOL0     H35052   8.028   6.475   9.336  2.4497  1.9761  1.3000
  255MOL0     O35053   9.343   2.111   6.096  0.6094  0.3952 -0.0172
  255MOL0     C35054   9.272   2.129   6.199 -0.0247  0.3408 -0.7627
  255MOL0     O35055   9.295   2.226   6.290  0.1421 -1.0167 -0.4652
  255MOL0     C35056   9.398   2.317   6.272  0.0047  0.0482  0.3596
  255MOL0     C35057   9.409   2.384   6.159  0.2425  0.1056  0.6740
  255MOL0     C35058   9.516   2.477   6.145 -0.6767 -0.6867 -0.4346
  255MOL0     C35059   9.605   2.515   6.252 -0.3480  0.2769  0.1649
  255MOL0     O35060   9.692   2.617   6.243 -0.2022  0.1060 -0.4551
  255MOL0     C35061   9.830   2.573   6.228  0.5111 -0.0350  0.5501
  255MOL0     C35062   9.910   2.691   6.260 -0.1163  0.1940 -0.7814
  255MOL0     C35063  10.062   2.655   6.262 -0.5563 -0.1696 -0.4500
  255MOL0     C35064  10.147   2.778   6.312  0.0933  0.2566 -0.9788
  255MOL0     C35065  10.290   2.759   6.370 -0.9956 -0.0227 -0.1692
  255MOL0     C35066  10.385   2.694   6.266 -0.2780 -1.2563  0.5506
  255MOL0     C35067  10.519   2.687   6.327 -1.2095 -0.0819  0.1964
  255MOL0     C35068  10.614   2.804   6.308  0.2868  0.0420 -0.5572
  255MOL0     N35069  10.752   2.767   6.329 -1.2426 -0.1156 -0.8022
  255MOL0     C35070  10.800   2.685   6.436 -1.2073 -0.7159 -0.2957
  255MOL0     C35071  10.935   2.721   6.429  0.0015  0.0982 -0.2262
  255MOL0     C35072  11.048   2.682   6.529  0.4092 -0.1409  0.3065
  255MOL0     C35073  11.018   2.730   6.674  0.0869  0.1444  0.6103
  255MOL0     C35074  11.015   2.891   6.660  0.3427  0.1421 -0.0960
  255MOL0     C35075  11.026   2.945   6.801 -0.2640 -0.9649 -0.5234
  255MOL0     O35076  11.136   2.890   6.877  0.4840 -0.2135  0.0736
  255MOL0     C35077  11.269   2.931   6.836  0.1862 -0.1209 -0.9647
  255MOL0     C35078  11.306   3.047   6.763  0.0035  1.4135  0.9166
  255MOL0     C35079  11.430   3.079   6.717 -0.8001  0.2935  0.1316
  255MOL0     C35080  11.449   3.200   6.623  0.9164  0.0036  0.3198
  255MOL0     C35081  11.527   2.972   6.745  0.1007 -0.2066  0.5906
  255MOL0     C35082  11.669   2.983   6.705 -0.4674  0.7621 -0.2288
  255MOL0     O35083  11.754   2.910   6.786  0.3339  0.1593  0.4286
  255MOL0     C35084  11.892   2.937   6.767  0.1668  0.6040  0.2477
  255MOL0     C35085  11.956   3.041   6.831  0.8772 -0.5031 -0.8677
  255MOL0     C35086  12.087   3.074   6.801 -0.5087  0.4619 -1.0249
  255MOL0     C35087  12.159   2.993   6.713 -0.5141  0.4444 -0.2958
  255MOL0     O35088  12.287   3.027   6.676 -0.9816 -0.0298 -0.0649
  255MOL0     C35089  12.361   2.930   6.592 -0.1005  0.4420  0.3056
  255MOL0     C35090  12.516   2.956   6.598 -0.4560  0.2102  1.4987
  255MOL0     C35091  12.559   2.922   6.747  0.1793  0.0068 -0.2500
  255MOL0     C35092  12.713   2.935   6.772  0.4192 -0.2807  0.3267
  255MOL0     C35093  12.757   2.900   6.916  0.6233 -0.7479  0.6955
  255MOL0     C35094  12.899   2.956   6.936  0.9555 -0.2806 -0.2944
  255MOL0     C35095  12.929   2.935   7.090 -0.7182 -1.0014 -0.0018
  255MOL0     C35096  13.066   2.996   7.141 -0.3326 -0.7393 -0.3784
  255MOL0    Cl35097  13.197   2.970   7.021 -0.3457  0.1181 -0.2913
  255MOL0     C35098  12.096   2.877   6.665 -0.5161  0.2074  0.1574
  255MOL0     C35099  11.961   2.852   6.684 -0.1632 -0.1443  0.1669
  255MOL0     O35100  11.710   3.053   6.610  0.3457 -0.2310 -0.2672
  255MOL0     C35101  11.493   2.864   6.827 -0.0255  0.0957 -0.0017
  255MOL0     C35102  11.369   2.845   6.870  0.7706  0.4344  0.4085
  255MOL0     N35103  10.958   2.820   6.333 -0.4589  0.5835 -1.5109
  255MOL0     N35104  10.841   2.848   6.276 -0.0030 -0.0175 -0.9871
  255MOL0     C35105   9.588   2.448   6.374 -0.1645 -0.8776 -0.4026
  255MOL0     C35106   9.483   2.351   6.384  0.1262  0.8083  0.4827
  255MOL0     C35107   9.142   2.049   6.215 -0.4583  0.3658  0.0101
  255MOL0     C35108   9.049   2.075   6.327 -0.0675  0.1303 -0.5201
  255MOL0     C35109   8.918   2.020   6.328 -0.3397  0.0428  0.2365
  255MOL0     C35110   8.875   1.935   6.226 -0.3888 -0.1790 -0.5528
  255MOL0     O35111   8.753   1.884   6.212 -0.2194 -0.6845  0.4291
  255MOL0     C35112   8.649   1.905   6.307  0.2342 -0.0287 -0.3376
  255MOL0     C35113   8.508   1.906   6.240  0.4670  0.8367 -0.1320
  255MOL0     C35114   8.511   1.965   6.097  0.1138 -0.6026 -1.0573
  255MOL0     C35115   8.371   2.027   6.056 -0.1443  0.7637 -0.5135
  255MOL0     C35116   8.385   2.083   5.920 -0.2021  0.2325  0.5455
  255MOL0     C35117   8.379   2.133   5.802 -0.1945  0.1954 -0.3642
  255MOL0     C35118   8.975   1.888   6.142 -0.4454 -1.0138  0.2757
  255MOL0     C35119   9.108   1.936   6.125  0.1795  0.7172  0.2811
  255MOL0     C35120   9.182   1.882   6.008  0.6191 -0.1805  0.6395
  255MOL0     H35121   9.342   2.364   6.076  0.8616 -1.6399  0.5712
  255MOL0     H35122   9.537   2.523   6.049  1.2291 -0.9150 -0.1666
  255MOL0     H35123   9.850   2.549   6.123  4.2392  3.0879  0.3432
  255MOL0     H35124   9.849   2.492   6.300  0.5579  1.1088  1.8511
  255MOL0     H35125   9.887   2.781   6.203  0.0665 -0.2611 -1.5896
  255MOL0     H35126   9.872   2.707   6.362 -1.6320 -4.1315 -0.4476
  255MOL0     H35127  10.074   2.576   6.336 -1.3110 -1.3191 -1.5125
  255MOL0     H35128  10.082   2.628   6.158  2.1392  2.1120 -0.6248
  255MOL0     H35129  10.163   2.845   6.227 -0.1671  0.2710 -1.0178
  255MOL0     H35130  10.088   2.828   6.389  0.7045  0.8151 -0.8594
  255MOL0     H35131  10.287   2.684   6.450 -1.8779  0.7586  0.5540
  255MOL0     H35132  10.333   2.858   6.385 -0.4836 -0.1202 -0.9644
  255MOL0     H35133  10.343   2.597   6.239 -2.4205 -0.6712  1.5460
  255MOL0     H35134  10.378   2.759   6.177  1.2445 -0.4540  0.9801
  255MOL0     H35135  10.571   2.612   6.267 -2.0208  1.3784 -2.4913
  255MOL0     H35136  10.525   2.658   6.432  0.7520  1.1502  0.4911
  255MOL0     H35137  10.603   2.840   6.205  0.8259 -1.7147 -1.2648
  255MOL0     H35138  10.588   2.896   6.361  2.1022 -0.4930  1.4294
  255MOL0     H35139  10.749   2.614   6.500  1.1483 -2.3385 -0.1260
  255MOL0     H35140  11.139   2.731   6.493 -0.1840  0.2378 -0.7199
  255MOL0     H35141  11.067   2.575   6.530  3.0388  0.2405  1.0239
  255MOL0     H35142  10.918   2.695   6.699  0.6831 -3.4323 -1.2579
  255MOL0     H35143  11.095   2.693   6.742  1.0077  2.3158  0.8359
  255MOL0     H35144  11.103   2.933   6.610 -0.4830 -1.2852 -2.9167
  255MOL0     H35145  10.924   2.933   6.618 -0.5748 -1.7701 -0.1198
  255MOL0     H35146  11.046   3.052   6.812  0.7122 -1.3255  1.5914
  255MOL0     H35147  10.936   2.919   6.857 -0.3273 -1.8258 -1.0093
  255MOL0     H35148  11.224   3.116   6.747 -0.4135  1.4731  2.9711
  255MOL0     H35149  11.522   3.271   6.664 -0.5529  1.0729  1.1553
  255MOL0     H35150  11.358   3.256   6.603  0.7045 -0.7280 -0.8887
  255MOL0     H35151  11.477   3.149   6.529 -2.1321 -3.9050  1.2736
  255MOL0     H35152  11.895   3.100   6.898  1.0140 -1.3260  0.0047
  255MOL0     H35153  12.151   3.151   6.843  1.3084 -1.4518 -0.0610
  255MOL0     H35154  12.350   2.825   6.618  0.7085  0.3398  0.2507
  255MOL0     H35155  12.340   2.940   6.485 -1.4527 -0.5966  0.4544
  255MOL0     H35156  12.569   2.886   6.533 -0.0873  0.7136  1.2508
  255MOL0     H35157  12.551   3.052   6.558 -0.1969 -0.5168 -0.0962
  255MOL0     H35158  12.526   2.821   6.768 -0.2126 -0.1277 -1.4276
  255MOL0     H35159  12.506   2.994   6.810  2.6756  1.6190  0.1677
  255MOL0     H35160  12.756   3.030   6.741  1.2075 -0.3943  1.0300
  255MOL0     H35161  12.755   2.857   6.707  1.5527 -0.3195  1.0764
  255MOL0     H35162  12.691   2.944   6.991  0.1529  1.1417 -0.7456
  255MOL0     H35163  12.749   2.792   6.929 -1.8324 -1.0158 -1.9689
  255MOL0     H35164  12.892   3.062   6.908 -0.6756 -0.6412 -1.4317
  255MOL0     H35165  12.975   2.902   6.880  2.5592 -1.3395  2.7071
  255MOL0     H35166  12.930   2.828   7.115  0.3093 -1.5922 -2.2754
  255MOL0     H35167  12.860   2.998   7.147  1.8350  0.2704  1.8918
  255MOL0     H35168  13.097   2.955   7.238 -0.5412 -0.2371 -0.0971
  255MOL0     H35169  13.051   3.104   7.146  1.3279 -0.4903 -0.2531
  255MOL0     H35170  12.152   2.813   6.598  0.0684 -2.4260  2.9402
  255MOL0     H35171  11.905   2.772   6.638 -2.3837  0.9682  0.8129
  255MOL0     H35172  11.568   2.788   6.849  1.0906  0.8309 -1.1572
  255MOL0     H35173  11.343   2.764   6.938 -1.9606  0.3548 -0.5768
  255MOL0     H35174   9.647   2.467   6.462 -3.0224  0.7483  1.3108
  255MOL0     H35175   9.465   2.295   6.475 -0.3839 -0.0463 -0.1286
  255MOL0     H35176   9.078   2.144   6.406 -1.4256  0.6609 -0.4592
  255MOL0     H35177   8.858   2.031   6.418  0.4104  1.0877  0.6358
  255MOL0     H35178   8.645   1.827   6.384 -1.7569 -0.1417 -0.5109
  255MOL0     H35179   8.660   1.998   6.365  1.6820 -1.3603  1.6837
  255MOL0     H35180   8.444   1.965   6.306 -1.1060  0.9571 -1.6770
  255MOL0     H35181   8.472   1.803   6.252 -1.2871  1.5654  1.3493
  255MOL0     H35182   8.591   2.038   6.081 -1.8078  1.3386 -2.5025
  255MOL0     H35183   8.526   1.880   6.030 -1.7786 -1.2684 -0.7147
  255MOL0     H35184   8.357   2.112   6.123 -1.0826 -0.3402  0.7532
  255MOL0     H35185   8.293   1.950   6.057  0.0902  0.4995 -1.6381
  255MOL0     H35186   8.365   2.183   5.707 -1.0455  1.0552  0.1862
  255MOL0     H35187   8.949   1.809   6.072  1.1030 -1.6036  0.3137
  255MOL0     H35188   9.155   1.951   5.928  0.0238  0.5905  1.4918
  255MOL0     H35189   9.290   1.872   6.014  1.3426  3.1555 -2.8324
  255MOL0     H35190   9.153   1.781   5.975 -0.6162  0.3517  0.0108
  256MOL0     O35191   1.886   4.042   1.181 -0.9572 -0.1448 -0.7156
  256MOL0     C35192   1.899   4.096   1.068 -0.4830  0.7320 -0.3548
  256MOL0     O35193   2.010   4.079   0.991 -0.4581  0.0215 -0.0159
  256MOL0     C35194   2.136   4.052   1.051 -0.4334 -1.3152  0.6695
  256MOL0     C35195   2.189   4.094   1.177  0.0977  0.2484  0.0171
  256MOL0     C35196   2.321   4.062   1.213  0.1414 -0.2374  0.1126
  256MOL0     C35197   2.399   3.984   1.132  0.3675  0.2657  0.1823
  256MOL0     O35198   2.523   3.947   1.179  0.6604  0.1786 -0.2282
  256MOL0     C35199   2.608   3.862   1.098  0.7110  0.0502 -0.3529
  256MOL0     C35200   2.731   3.816   1.176  0.9468 -0.8566  0.5235
  256MOL0     C35201   2.844   3.922   1.184 -0.3169  0.4635  0.4172
  256MOL0     C35202   2.962   3.860   1.269 -0.4312  0.0670 -0.2728
  256MOL0     C35203   3.026   3.954   1.368 -0.0129 -0.4385  0.2104
  256MOL0     C35204   3.077   4.078   1.313 -0.4782 -0.4310 -0.3539
  256MOL0     C35205   3.136   4.159   1.432 -0.3420  0.7224  0.7773
  256MOL0     C35206   3.181   4.293   1.375  0.6300 -0.5397 -0.2201
  256MOL0     N35207   3.230   4.388   1.478 -0.9934  0.5265 -0.4113
  256MOL0     C35208   3.337   4.349   1.558  0.1056 -0.1040  0.1486
  256MOL0     C35209   3.339   4.448   1.655 -1.0220  0.5414  0.4076
  256MOL0     C35210   3.457   4.472   1.750 -0.2779  1.2305  0.7030
  256MOL0     C35211   3.422   4.487   1.895  0.4506  0.0150  0.6557
  256MOL0     C35212   3.535   4.434   1.973 -0.3978  0.4270 -0.3280
  256MOL0     C35213   3.669   4.495   1.942 -0.4187  0.7395  0.2741
  256MOL0     O35214   3.647   4.638   1.921 -0.2216 -0.4434 -0.4150
  256MOL0     C35215   3.712   4.721   2.004 -0.2172  0.5428 -0.4548
  256MOL0     C35216   3.844   4.719   2.044 -0.2730 -0.2798  0.5452
  256MOL0     C35217   3.900   4.819   2.130  0.3881 -0.2918 -0.0077
  256MOL0     C35218   4.045   4.804   2.160 -0.2972  0.2024  0.9928
  256MOL0     C35219   3.826   4.932   2.167 -0.2403 -0.1189  0.3841
  256MOL0     C35220   3.887   5.040   2.242  0.6380  0.5776  0.0111
  256MOL0     O35221   3.929   5.009   2.368 -0.6541 -0.3340 -0.6493
  256MOL0     C35222   4.036   5.087   2.410  0.1174 -0.2330 -0.5038
  256MOL0     C35223   4.171   5.061   2.371 -0.3575 -0.8759  0.0596
  256MOL0     C35224   4.278   5.144   2.409  0.1852 -0.2420  0.0166
  256MOL0     C35225   4.257   5.255   2.492 -0.9406 -0.3680 -0.3967
  256MOL0     O35226   4.375   5.318   2.536  0.3249  0.1549  0.1572
  256MOL0     C35227   4.361   5.399   2.651  0.0731 -0.2093  0.3057
  256MOL0     C35228   4.480   5.488   2.682  0.3671 -0.0844 -0.1553
  256MOL0     C35229   4.470   5.558   2.821  0.3157  1.2511 -0.0453
  256MOL0     C35230   4.595   5.640   2.858 -0.7094  0.3171  0.3062
  256MOL0     C35231   4.575   5.695   2.999  0.6512  0.2817  0.2936
  256MOL0     C35232   4.677   5.805   3.035 -0.5005 -0.0450 -0.3148
  256MOL0     C35233   4.820   5.758   3.054 -0.6249 -0.2921  0.5733
  256MOL0     C35234   4.927   5.859   3.011 -0.4426 -0.1410 -1.3064
  256MOL0    Cl35235   5.080   5.766   2.988  0.2825  0.0414  0.2350
  256MOL0     C35236   4.126   5.298   2.514  0.3297  0.2119  0.1898
  256MOL0     C35237   4.018   5.214   2.468  0.5565 -0.7830 -0.6678
  256MOL0     O35238   3.901   5.154   2.191 -0.3216  0.5344  0.8350
  256MOL0     C35239   3.694   4.935   2.125 -0.4848 -0.1419  0.4165
  256MOL0     C35240   3.636   4.831   2.050  0.1226 -0.9672  0.1297
  256MOL0     N35241   3.228   4.524   1.633  0.2998 -0.6768  0.0207
  256MOL0     N35242   3.165   4.488   1.528  0.5152 -0.7671 -0.0732
  256MOL0     C35243   2.343   3.946   1.005 -0.1305 -0.6606  0.2389
  256MOL0     C35244   2.216   3.977   0.965  0.3874  0.1455 -0.4219
  256MOL0     C35245   1.782   4.173   1.007  0.0529  0.2035 -0.2718
  256MOL0     C35246   1.791   4.205   0.870 -1.0616  0.4251 -0.1559
  256MOL0     C35247   1.698   4.292   0.809 -0.0082  0.8248  0.0636
  256MOL0     C35248   1.592   4.346   0.882  0.7042  0.1066  1.1180
  256MOL0     O35249   1.499   4.415   0.805  0.0427  0.6393  0.0505
  256MOL0     C35250   1.403   4.487   0.879 -0.2626 -0.3406  0.3777
  256MOL0     C35251   1.351   4.597   0.793 -0.9984  0.1187 -0.3376
  256MOL0     C35252   1.266   4.533   0.684  0.5634  0.0993 -0.1607
  256MOL0     C35253   1.253   4.626   0.564 -1.1854  0.2557  0.1279
  256MOL0     C35254   1.187   4.754   0.613  0.2721  0.5390  0.5044
  256MOL0     C35255   1.141   4.856   0.658  0.5049 -0.1921  0.0956
  256MOL0     C35256   1.578   4.311   1.016  0.6179  0.5558 -0.0979
  256MOL0     C35257   1.672   4.227   1.077  0.0602  0.1932 -0.3193
  256MOL0     C35258   1.651   4.201   1.223 -0.0716  0.3997 -0.1222
  256MOL0     H35259   2.130   4.153   1.247  1.7075  1.7680  0.1891
  256MOL0     H35260   2.366   4.110   1.299 -0.7677  2.1099 -0.6410
  256MOL0     H35261   2.641   3.920   1.012 -1.5987  0.1543 -1.2381
  256MOL0     H35262   2.547   3.783   1.054 -0.0497  1.2180 -1.4442
  256MOL0     H35263   2.698   3.789   1.277  0.5735 -3.4155 -0.2136
  256MOL0     H35264   2.757   3.723   1.126 -0.2545 -0.2553 -1.3145
  256MOL0     H35265   2.886   3.949   1.087  2.2721 -0.1061  1.2886
  256MOL0     H35266   2.815   4.019   1.226  1.2010  1.4352 -0.6605
  256MOL0     H35267   2.924   3.773   1.324  1.0982 -0.6501 -0.3003
  256MOL0     H35268   3.036   3.833   1.193  1.5364 -0.0286  1.5637
  256MOL0     H35269   3.116   3.903   1.403  0.7249 -0.6239 -1.8064
  256MOL0     H35270   2.959   3.961   1.454  0.8069  1.1058  0.7671
  256MOL0     H35271   3.160   4.059   1.245  0.7708  0.6029  0.8326
  256MOL0     H35272   2.999   4.135   1.261  0.7799  2.0721  0.3607
  256MOL0     H35273   3.228   4.120   1.476 -1.0746  0.7399  2.3973
  256MOL0     H35274   3.072   4.175   1.519  1.4600  1.2471  2.0687
  256MOL0     H35275   3.264   4.281   1.304  0.1977  0.6839 -0.9704
  256MOL0     H35276   3.096   4.335   1.320 -1.7328 -2.7913  1.4906
  256MOL0     H35277   3.409   4.270   1.538 -0.1636  0.1831 -2.2081
  256MOL0     H35278   3.509   4.559   1.710  0.2491 -0.1526 -1.7838
  256MOL0     H35279   3.526   4.389   1.730 -2.2883 -0.1726 -0.7707
  256MOL0     H35280   3.409   4.589   1.932  0.2109 -0.0557  0.7695
  256MOL0     H35281   3.327   4.437   1.915 -0.6948  2.1286  0.7994
  256MOL0     H35282   3.507   4.453   2.077  2.4337  2.9419  0.1043
  256MOL0     H35283   3.541   4.325   1.968 -3.2319  0.1007  1.2027
  256MOL0     H35284   3.736   4.480   2.027 -0.9144  0.6686  0.6585
  256MOL0     H35285   3.716   4.458   1.850 -1.7031 -1.0642  0.2946
  256MOL0     H35286   3.916   4.647   2.007 -0.4695 -0.7850  1.1212
  256MOL0     H35287   4.057   4.790   2.268 -0.8980 -0.3642  0.9936
  256MOL0     H35288   4.092   4.896   2.125  0.7925 -0.9774 -0.8299
  256MOL0     H35289   4.090   4.717   2.111 -0.4586 -0.5361  2.0923
  256MOL0     H35290   4.207   4.983   2.305 -1.3894  1.1704 -3.1262
  256MOL0     H35291   4.381   5.120   2.386  1.0382  1.6707  1.5175
  256MOL0     H35292   4.275   5.467   2.643  1.5558  1.7031 -0.0282
  256MOL0     H35293   4.343   5.336   2.739 -0.5831 -0.5296 -0.0536
  256MOL0     H35294   4.568   5.423   2.679  0.6025  0.0391  2.1821
  256MOL0     H35295   4.485   5.558   2.599 -3.5027 -0.6876 -1.0840
  256MOL0     H35296   4.470   5.485   2.902  0.4147  1.0507 -0.2239
  256MOL0     H35297   4.376   5.613   2.811 -0.2703  0.1866 -0.5503
  256MOL0     H35298   4.610   5.726   2.792  0.7850 -2.4312 -3.2140
  256MOL0     H35299   4.691   5.588   2.847  0.5164  2.0291  2.0284
  256MOL0     H35300   4.475   5.739   3.008  1.3071  1.9432 -0.2373
  256MOL0     H35301   4.587   5.607   3.064 -1.6731 -0.5184 -0.2585
  256MOL0     H35302   4.651   5.848   3.132 -0.5136  1.7943 -1.0993
  256MOL0     H35303   4.673   5.886   2.961  0.2797  1.6236  1.3847
  256MOL0     H35304   4.837   5.678   2.981  0.6925  1.3267 -0.9910
  256MOL0     H35305   4.841   5.726   3.156  0.2137 -2.1858 -0.1542
  256MOL0     H35306   4.945   5.941   3.081  1.4784 -1.6255  0.0243
  256MOL0     H35307   4.895   5.896   2.913 -2.8427  0.0191 -0.5388
  256MOL0     H35308   4.108   5.383   2.579  3.8950  1.3345 -0.0662
  256MOL0     H35309   3.914   5.238   2.487  0.5294 -1.0537 -0.4592
  256MOL0     H35310   3.639   5.025   2.148 -0.8583 -0.5490  1.1679
  256MOL0     H35311   3.537   4.848   2.010  0.3382 -0.9730 -0.4216
  256MOL0     H35312   2.411   3.885   0.946  1.4659  1.0069  0.2779
  256MOL0     H35313   2.179   3.939   0.871  0.0856 -1.1751  0.2050
  256MOL0     H35314   1.862   4.164   0.800  0.6011  1.6672  0.7450
  256MOL0     H35315   1.696   4.297   0.701  2.1168 -1.6971 -0.2229
  256MOL0     H35316   1.334   4.416   0.925 -0.2822  0.0153  0.9173
  256MOL0     H35317   1.454   4.535   0.963 -0.9104  0.0757  0.5375
  256MOL0     H35318   1.441   4.652   0.765  1.2228 -1.5399  2.8236
  256MOL0     H35319   1.283   4.665   0.845 -2.3575 -0.4485 -1.3000
  256MOL0     H35320   1.305   4.441   0.640 -3.5091 -2.5962  1.3404
  256MOL0     H35321   1.165   4.513   0.721 -0.0963  0.6482 -1.5708
  256MOL0     H35322   1.180   4.584   0.493 -0.1312  3.8437 -3.5230
  256MOL0     H35323   1.350   4.654   0.523 -1.7466  1.8995 -0.1656
  256MOL0     H35324   1.101   4.946   0.701  0.0914 -1.1444  1.7623
  256MOL0     H35325   1.498   4.354   1.076 -3.7913 -2.5671 -3.1026
  256MOL0     H35326   1.556   4.233   1.268  0.4871  0.5678  0.9728
  256MOL0     H35327   1.662   4.095   1.247 -0.9792 -0.0520 -1.6144
  256MOL0     H35328   1.730   4.246   1.284  1.7498 -2.0309 -0.5627
  257MOL0     O35329   9.731   6.966   3.933  0.2006  0.3240 -0.1650
  257MOL0     C35330   9.732   7.067   4.002 -0.1921 -0.2392 -0.2795
  257MOL0     O35331   9.784   7.196   3.969 -0.2453  0.4916  0.6560
  257MOL0     C35332   9.827   7.213   3.843 -0.8736 -0.4189 -0.2891
  257MOL0     C35333   9.748   7.239   3.732 -0.0022  0.3646 -0.1819
  257MOL0     C35334   9.804   7.243   3.602 -0.1972  0.8266 -0.2748
  257MOL0     C35335   9.944   7.236   3.584  0.6329 -0.2322 -0.4110
  257MOL0     O35336  10.020   7.249   3.465 -0.0733  0.5635  0.4318
  257MOL0     C35337   9.944   7.248   3.345  0.3031  0.2998  0.0520
  257MOL0     C35338  10.022   7.248   3.210  0.1038  0.5714 -0.5647
  257MOL0     C35339  10.125   7.354   3.196 -0.5408 -0.1565  0.3444
  257MOL0     C35340  10.168   7.387   3.045  0.8938 -0.0104  0.0706
  257MOL0     C35341  10.244   7.520   3.025  0.3148  0.1487 -0.5269
  257MOL0     C35342  10.388   7.512   3.069 -0.5913 -0.5862 -0.2036
  257MOL0     C35343  10.456   7.651   3.068  0.1163  0.2849  0.1680
  257MOL0     C35344  10.609   7.649   3.088 -0.2105 -0.0874 -0.3136
  257MOL0     N35345  10.687   7.570   2.989  0.2591  0.5088  0.0203
  257MOL0     C35346  10.738   7.616   2.871 -0.0800  0.9748 -0.0060
  257MOL0     C35347  10.820   7.513   2.829  0.7111  0.4150  0.2176
  257MOL0     C35348  10.891   7.501   2.693 -0.0746 -0.6356 -1.4614
  257MOL0     C35349  11.040   7.529   2.701 -0.5510 -0.0732  0.0004
  257MOL0     C35350  11.067   7.679   2.761  0.5048  0.2821 -0.3669
  257MOL0     C35351  11.215   7.718   2.755 -0.6833  0.1015 -0.2745
  257MOL0     O35352  11.282   7.654   2.643 -0.2583 -0.8726  0.2918
  257MOL0     C35353  11.416   7.659   2.627  0.0374  0.5660 -0.2725
  257MOL0     C35354  11.469   7.587   2.530 -0.6431  0.3191  0.9263
  257MOL0     C35355  11.609   7.576   2.506  0.0336  0.1199  0.7108
  257MOL0     C35356  11.654   7.512   2.381 -0.2393  0.0962  0.9381
  257MOL0     C35357  11.708   7.654   2.587  1.2786 -0.2527 -0.0167
  257MOL0     C35358  11.850   7.670   2.562 -0.6688 -0.1379 -0.4549
  257MOL0     O35359  11.927   7.739   2.654  0.2808 -0.3620 -1.0146
  257MOL0     C35360  12.058   7.751   2.632 -0.0993 -0.6685  0.7588
  257MOL0     C35361  12.139   7.637   2.630 -0.1538 -0.3533 -0.1963
  257MOL0     C35362  12.268   7.633   2.590  0.0694 -0.8023  0.0310
  257MOL0     C35363  12.322   7.751   2.521 -0.1791 -0.6907  0.0049
  257MOL0     O35364  12.447   7.753   2.469  0.6261 -0.6311  0.0611
  257MOL0     C35365  12.510   7.633   2.432 -0.1736 -0.3907 -0.6574
  257MOL0     C35366  12.619   7.668   2.327 -0.1019  0.2509 -0.5105
  257MOL0     C35367  12.721   7.757   2.394  0.1615 -0.7875 -0.2785
  257MOL0     C35368  12.829   7.781   2.289 -0.0893 -0.9958  0.4745
  257MOL0     C35369  12.787   7.889   2.188 -0.1064 -0.0460  1.1681
  257MOL0     C35370  12.874   7.886   2.061  0.1426 -0.7143  0.4208
  257MOL0     C35371  13.022   7.938   2.072  0.0740  0.1104  0.4799
  257MOL0     C35372  13.101   7.928   1.947 -1.1498  0.4395  0.2564
  257MOL0    Cl35373  13.256   7.995   1.981 -0.3248 -0.0935  0.1374
  257MOL0     C35374  12.249   7.866   2.527 -0.4549 -0.0094  0.2314
  257MOL0     C35375  12.120   7.866   2.580 -0.0006 -0.1208 -0.4062
  257MOL0     O35376  11.897   7.607   2.463  0.4595  0.6616 -0.2845
  257MOL0     C35377  11.644   7.724   2.700 -0.2918  0.2200  0.9222
  257MOL0     C35378  11.504   7.735   2.708  0.6466  0.2127 -0.8453
  257MOL0     N35379  10.812   7.414   2.925 -0.2682 -0.3743  0.1754
  257MOL0     N35380  10.731   7.446   3.017  0.1419 -0.0129 -0.4322
  257MOL0     C35381  10.017   7.213   3.700  0.1871  0.4380  0.3646
  257MOL0     C35382   9.960   7.200   3.831 -0.6331 -0.0695 -0.4408
  257MOL0     C35383   9.652   7.056   4.122  0.6870 -0.0410  0.1272
  257MOL0     C35384   9.625   7.165   4.196 -0.3813  0.6838  0.5113
  257MOL0     C35385   9.550   7.165   4.314 -0.6799 -0.3793  0.5128
  257MOL0     C35386   9.483   7.050   4.363 -0.3541 -0.1078  0.6159
  257MOL0     O35387   9.390   7.066   4.460 -0.0048  0.4251  0.7970
  257MOL0     C35388   9.336   6.951   4.524  0.0518  0.0281  0.4002
  257MOL0     C35389   9.216   6.895   4.442  0.4382  0.1680  0.0602
  257MOL0     C35390   9.097   6.990   4.424 -0.3820 -0.5314  0.1248
  257MOL0     C35391   9.048   7.060   4.541 -0.7668  0.1207 -0.6449
  257MOL0     C35392   8.905   7.109   4.532 -0.4406 -0.2183  0.3011
  257MOL0     C35393   8.791   7.140   4.516  0.3419  0.4468 -0.9104
  257MOL0     C35394   9.524   6.932   4.294  0.9400  0.1737  0.6844
  257MOL0     C35395   9.594   6.935   4.175 -0.5404 -1.6876  0.5126
  257MOL0     C35396   9.581   6.798   4.104 -0.2329  0.2883 -0.8371
  257MOL0     H35397   9.641   7.250   3.751 -0.0155 -0.6500  0.3809
  257MOL0     H35398   9.736   7.247   3.518 -2.6119  2.8256  1.6223
  257MOL0     H35399   9.877   7.334   3.342  0.2424  0.2915  0.8946
  257MOL0     H35400   9.880   7.160   3.336  0.1091  0.3024  1.2200
  257MOL0     H35401  10.079   7.157   3.191 -0.4823  0.1549 -0.3501
  257MOL0     H35402   9.953   7.254   3.125 -1.1734 -0.0575  0.3888
  257MOL0     H35403  10.092   7.444   3.249 -1.1395 -1.5590  2.4786
  257MOL0     H35404  10.213   7.314   3.247  0.4216 -0.3282 -1.3905
  257MOL0     H35405  10.221   7.303   2.999 -0.6190 -0.8928 -0.1597
  257MOL0     H35406  10.071   7.399   2.995 -0.7050  1.3335  3.2163
  257MOL0     H35407  10.189   7.593   3.086 -2.0050 -2.7330  1.1270
  257MOL0     H35408  10.238   7.542   2.918  1.1802 -1.5995 -0.9694
  257MOL0     H35409  10.402   7.463   3.165 -0.4664 -0.0038  0.0802
  257MOL0     H35410  10.440   7.453   2.993  1.2643  0.7668 -0.0350
  257MOL0     H35411  10.406   7.708   3.148 -1.0309 -0.9315  0.3530
  257MOL0     H35412  10.423   7.704   2.978 -1.0576  2.1280  1.5892
  257MOL0     H35413  10.651   7.749   3.091  0.8022 -0.5175  0.8354
  257MOL0     H35414  10.632   7.604   3.185 -0.7045 -2.0892 -1.0691
  257MOL0     H35415  10.714   7.710   2.821  1.9385  1.9525  0.7333
  257MOL0     H35416  10.838   7.565   2.622 -1.1303 -1.2686 -1.2609
  257MOL0     H35417  10.893   7.398   2.654 -1.9460 -0.3165 -2.4986
  257MOL0     H35418  11.093   7.464   2.772  0.3118  0.2566 -0.3268
  257MOL0     H35419  11.083   7.520   2.601 -1.2506 -1.5898 -0.1877
  257MOL0     H35420  11.009   7.741   2.692 -0.4935 -0.0921  0.1244
  257MOL0     H35421  11.026   7.696   2.861 -2.2320 -1.6242 -1.0689
  257MOL0     H35422  11.231   7.826   2.749  5.0023 -0.3001  1.4599
  257MOL0     H35423  11.274   7.682   2.840  0.3128 -0.4320 -1.1732
  257MOL0     H35424  11.407   7.537   2.457  1.5316 -2.1885  0.6653
  257MOL0     H35425  11.568   7.476   2.323  0.3901 -0.2769  0.2146
  257MOL0     H35426  11.720   7.428   2.404  3.2833  2.2141 -0.5867
  257MOL0     H35427  11.707   7.583   2.317 -0.9087 -0.6983 -0.5683
  257MOL0     H35428  12.093   7.546   2.667 -2.9344  1.4280  1.0365
  257MOL0     H35429  12.324   7.545   2.621  1.8699  0.6599  1.1585
  257MOL0     H35430  12.567   7.600   2.519  1.2100  1.6303 -0.7264
  257MOL0     H35431  12.437   7.557   2.403  0.3423  0.0158 -3.3170
  257MOL0     H35432  12.657   7.576   2.283 -2.6049 -1.9356  1.5459
  257MOL0     H35433  12.573   7.718   2.241  4.4463  2.2667 -2.1007
  257MOL0     H35434  12.769   7.700   2.474 -0.6577 -0.6763  0.3062
  257MOL0     H35435  12.683   7.851   2.435  0.8586 -0.7608  0.3123
  257MOL0     H35436  12.851   7.691   2.230 -0.5780 -0.3635 -0.7120
  257MOL0     H35437  12.923   7.806   2.339  0.0213 -1.3527  0.4484
  257MOL0     H35438  12.684   7.872   2.156  0.1045 -2.2347  1.4710
  257MOL0     H35439  12.785   7.988   2.234 -0.8282  0.1526  0.7271
  257MOL0     H35440  12.829   7.943   1.979  0.1826 -0.3776  0.6306
  257MOL0     H35441  12.880   7.781   2.031  1.5210 -0.6451  0.3973
  257MOL0     H35442  13.074   7.888   2.154 -1.9341 -0.7855  1.2690
  257MOL0     H35443  13.006   8.042   2.101 -3.4892  0.0871 -0.8959
  257MOL0     H35444  13.052   7.970   1.858 -1.3621  3.0001  1.4763
  257MOL0     H35445  13.127   7.825   1.924 -0.5631  0.8712 -1.1510
  257MOL0     H35446  12.290   7.961   2.494 -1.6764  0.0363 -1.2871
  257MOL0     H35447  12.060   7.956   2.577 -0.7846 -0.5909  0.5045
  257MOL0     H35448  11.711   7.778   2.766  1.6980 -2.2045  1.0536
  257MOL0     H35449  11.466   7.798   2.788  1.1811 -3.8536  3.0084
  257MOL0     H35450  10.124   7.198   3.689 -0.2829 -1.0231 -3.5097
  257MOL0     H35451  10.024   7.196   3.918 -1.2854  5.0179  0.5668
  257MOL0     H35452   9.659   7.266   4.175 -3.5382  1.8738  0.6803
  257MOL0     H35453   9.519   7.261   4.354 -0.2229  0.1120 -0.2802
  257MOL0     H35454   9.416   6.878   4.534  0.8922  0.5586 -2.0021
  257MOL0     H35455   9.294   6.987   4.619 -3.1121 -1.4504 -0.2943
  257MOL0     H35456   9.175   6.805   4.488  0.1738  0.3795  0.2422
  257MOL0     H35457   9.239   6.865   4.339 -0.3309  0.1317 -0.1123
  257MOL0     H35458   9.115   7.069   4.351  0.9166 -2.5419 -1.8658
  257MOL0     H35459   9.020   6.925   4.382 -1.2560 -1.0384  2.3739
  257MOL0     H35460   9.114   7.146   4.558  3.3374 -2.6478 -1.1594
  257MOL0     H35461   9.060   6.997   4.629  1.8565  2.1127  0.5452
  257MOL0     H35462   8.690   7.170   4.497 -0.4085 -1.3861 -0.0725
  257MOL0     H35463   9.480   6.840   4.332  0.6978  1.1071  2.7787
  257MOL0     H35464   9.685   6.770   4.081  0.3143 -1.8513  3.2387
  257MOL0     H35465   9.536   6.721   4.167 -1.6724  0.5445 -1.5226
  257MOL0     H35466   9.536   6.822   4.007  1.0734 -2.0492 -2.1146
  258MOL0     O35467   1.322   2.655   9.649 -0.1329  0.1384  0.2383
  258MOL0     C35468   1.279   2.579   9.737  0.8274  0.3481 -0.2978
  258MOL0     O35469   1.357   2.518   9.833 -0.0293 -0.3222 -0.4163
  258MOL0     C35470   1.493   2.558   9.841 -0.8554  0.2494 -0.6456
  258MOL0     C35471   1.532   2.691   9.874 -0.0881 -0.4077 -0.1708
  258MOL0     C35472   1.669   2.725   9.869  0.4626 -0.3450  0.8151
  258MOL0     C35473   1.768   2.628   9.841 -0.5695  0.3602  0.0962
  258MOL0     O35474   1.897   2.668   9.840 -0.0964  0.3062 -0.3101
  258MOL0     C35475   1.980   2.610   9.933  0.3757 -0.3662  0.4523
  258MOL0     C35476   2.111   2.692   9.939 -0.0956  0.8371 -0.2649
  258MOL0     C35477   2.228   2.633  10.028  0.1960 -0.4868  0.5449
  258MOL0     C35478   2.357   2.705   9.985 -0.5075  0.7007  0.3518
  258MOL0     C35479   2.484   2.633  10.046  0.2337  0.2834  0.6291
  258MOL0     C35480   2.605   2.728  10.041  0.4080 -1.4214  0.9117
  258MOL0     C35481   2.736   2.661  10.054  0.0319 -1.2387 -0.3432
  258MOL0     C35482   2.855   2.758  10.060  1.1277  0.1808 -0.2291
  258MOL0     N35483   2.969   2.677  10.113  0.9806 -0.9681 -0.7998
  258MOL0     C35484   3.046   2.702  10.234  0.0431  0.9305 -0.4261
  258MOL0     C35485   3.159   2.626  10.212 -0.7741 -0.4658  0.4944
  258MOL0     C35486   3.289   2.629  10.300  0.1456  0.3079  0.5797
  258MOL0     C35487   3.414   2.701  10.233  0.1930 -0.0703 -0.4084
  258MOL0     C35488   3.522   2.745  10.335  0.2885  0.7248 -0.2759
  258MOL0     C35489   3.647   2.787  10.254 -0.0473 -0.5880 -0.2767
  258MOL0     O35490   3.748   2.843  10.347 -0.8779  0.6240 -0.0172
  258MOL0     C35491   3.873   2.793  10.351 -0.1574  0.5190  0.4228
  258MOL0     C35492   3.899   2.663  10.396 -0.5629 -0.3787  0.0069
  258MOL0     C35493   4.025   2.606  10.384 -0.4486  0.4365  0.2717
  258MOL0     C35494   4.041   2.473  10.456 -0.6776  0.5222 -0.3044
  258MOL0     C35495   4.135   2.685  10.336  0.6129  0.4400 -0.2474
  258MOL0     C35496   4.272   2.632  10.309 -0.6178 -0.2514  1.0623
  258MOL0     O35497   4.287   2.493  10.316 -0.2789 -0.4361  0.4693
  258MOL0     C35498   4.406   2.449  10.263  0.8322 -0.1131  0.5821
  258MOL0     C35499   4.488   2.370  10.337 -0.4632 -0.1653  0.5798
  258MOL0     C35500   4.598   2.307  10.285 -0.0524  0.3203  0.0447
  258MOL0     C35501   4.629   2.315  10.152 -0.1477 -0.2782  0.1480
  258MOL0     O35502   4.748   2.266  10.114  0.6417  0.4120 -0.7720
  258MOL0     C35503   4.826   2.334  10.018  0.0979  0.3835 -0.4345
  258MOL0     C35504   4.971   2.268  10.014 -0.4234  0.2437 -0.0964
  258MOL0     C35505   5.037   2.288  10.146 -0.1218  0.4035 -0.1780
  258MOL0     C35506   5.154   2.187  10.159  0.2425 -0.0284  0.1959
  258MOL0     C35507   5.258   2.254  10.240 -0.2371 -0.5377 -0.9604
  258MOL0     C35508   5.367   2.158  10.282  0.2586 -0.4537  0.4604
  258MOL0     C35509   5.459   2.219  10.387  0.1869 -0.2407  0.5546
  258MOL0     C35510   5.552   2.105  10.422  0.1286  0.4040 -0.4051
  258MOL0    Cl35511   5.699   2.189  10.499 -0.2385  0.2034 -0.0463
  258MOL0     C35512   4.542   2.386  10.067 -0.7236 -0.0727 -0.1252
  258MOL0     C35513   4.427   2.446  10.125 -0.8300 -0.1588  0.5453
  258MOL0     O35514   4.366   2.709  10.290  0.1514  0.5665 -0.2215
  258MOL0     C35515   4.104   2.812  10.286  0.2154 -0.1936  0.4004
  258MOL0     C35516   3.980   2.862  10.293  0.0398  0.1431 -0.8645
  258MOL0     N35517   3.141   2.561  10.087 -0.1985  1.3397 -0.0807
  258MOL0     N35518   3.030   2.589  10.031 -0.6105 -1.0036 -0.4082
  258MOL0     C35519   1.724   2.497   9.812 -0.2625  0.0079  0.3930
  258MOL0     C35520   1.590   2.465   9.819 -0.0970 -0.2552 -0.0813
  258MOL0     C35521   1.136   2.566   9.772  0.6002 -0.0601 -0.1797
  258MOL0     C35522   1.092   2.480   9.878 -0.4057 -0.5357  0.4134
  258MOL0     C35523   0.960   2.454   9.913 -0.2444  0.5973  0.2750
  258MOL0     C35524   0.862   2.498   9.825  0.4881  0.5929 -0.4153
  258MOL0     O35525   0.731   2.477   9.840 -0.2125 -0.6110  1.1417
  258MOL0     C35526   0.693   2.395   9.952 -0.0566  0.1649  0.4712
  258MOL0     C35527   0.538   2.381   9.960  0.0140  0.4515 -0.0078
  258MOL0     C35528   0.488   2.257  10.052  0.1088 -0.0760  0.0297
  258MOL0     C35529   0.337   2.237  10.043 -0.2860 -0.9095  0.2090
  258MOL0     C35530   0.275   2.269  10.172  0.0417 -0.6452 -0.1625
  258MOL0     C35531   0.247   2.258  10.289 -0.0711  0.3797 -0.1431
  258MOL0     C35532   0.896   2.579   9.720  0.1752 -0.0275  0.2896
  258MOL0     C35533   1.032   2.618   9.688  1.0001 -0.3419  0.5378
  258MOL0     C35534   1.052   2.716   9.572 -0.1417 -0.3826 -0.0540
  258MOL0     H35535   1.461   2.773   9.884 -2.2109 -2.2260  0.4331
  258MOL0     H35536   1.694   2.824   9.904  0.1294  0.0988 -0.1797
  258MOL0     H35537   2.002   2.507   9.904  0.9686 -0.3529  0.8575
  258MOL0     H35538   1.927   2.603  10.029 -0.6971 -1.8471 -0.2159
  258MOL0     H35539   2.159   2.700   9.841 -0.9429 -0.4117 -0.8143
  258MOL0     H35540   2.090   2.789   9.986 -0.0225 -0.4483  2.6293
  258MOL0     H35541   2.207   2.666  10.130  1.1991  0.6795  0.3982
  258MOL0     H35542   2.245   2.525  10.024  1.7766 -0.3210  1.7535
  258MOL0     H35543   2.372   2.723   9.879 -1.6881 -1.4655 -0.2435
  258MOL0     H35544   2.357   2.811  10.013 -1.4971  0.7036  0.3626
  258MOL0     H35545   2.512   2.539   9.999 -0.0763 -0.9096  2.6986
  258MOL0     H35546   2.467   2.622  10.154  1.0755  2.0719  0.9948
  258MOL0     H35547   2.597   2.770   9.941  1.0447  1.7171  2.0576
  258MOL0     H35548   2.595   2.809  10.114  0.2587  0.2234 -0.8930
  258MOL0     H35549   2.741   2.597   9.965  1.1805 -0.5967 -0.7644
  258MOL0     H35550   2.731   2.606  10.149  0.2705 -0.7426 -0.0399
  258MOL0     H35551   2.886   2.790   9.960 -0.7164 -0.9814 -1.2295
  258MOL0     H35552   2.831   2.840  10.128  0.3741 -1.4826  1.6079
  258MOL0     H35553   3.033   2.779  10.309 -0.2132  0.9346 -0.4743
  258MOL0     H35554   3.301   2.523  10.321  0.5380 -0.0142 -1.0831
  258MOL0     H35555   3.278   2.692  10.389 -0.5756  2.2059 -0.7759
  258MOL0     H35556   3.460   2.641  10.155  1.1764  3.2551 -2.5780
  258MOL0     H35557   3.397   2.797  10.183  1.0385  0.4651  0.3067
  258MOL0     H35558   3.485   2.835  10.385  0.6648  1.7940 -1.8465
  258MOL0     H35559   3.544   2.670  10.411 -2.5157 -0.2695 -0.3208
  258MOL0     H35560   3.673   2.699  10.195 -1.2840 -0.2802 -1.3341
  258MOL0     H35561   3.617   2.868  10.186  2.7562  0.7387 -0.0666
  258MOL0     H35562   3.818   2.623  10.456  1.0220  0.0124  2.5732
  258MOL0     H35563   3.952   2.453  10.516 -0.2789 -1.4104 -0.2882
  258MOL0     H35564   4.125   2.478  10.526 -0.3278  1.0271 -0.7517
  258MOL0     H35565   4.060   2.395  10.381 -0.8308  1.9035 -1.8489
  258MOL0     H35566   4.477   2.349  10.443  1.8829 -0.6987  0.7829
  258MOL0     H35567   4.668   2.249  10.344  2.3495  1.7232 -1.3057
  258MOL0     H35568   4.774   2.331   9.922 -3.6047  0.3469  1.4142
  258MOL0     H35569   4.838   2.436  10.056  0.9334 -0.3410  1.4157
  258MOL0     H35570   4.952   2.162   9.993 -3.6569  0.4588  1.0646
  258MOL0     H35571   5.027   2.315   9.934  1.3970 -2.6253 -0.6462
  258MOL0     H35572   4.966   2.274  10.228  1.0472  0.9095  0.9443
  258MOL0     H35573   5.071   2.392  10.149  1.7901 -0.1038 -1.8685
  258MOL0     H35574   5.204   2.162  10.065 -0.8037 -2.2014  0.1608
  258MOL0     H35575   5.128   2.098  10.216  0.1157  0.8412  1.5570
  258MOL0     H35576   5.306   2.338  10.189 -0.7552  2.0451  2.4756
  258MOL0     H35577   5.220   2.283  10.338  0.8612  1.6529 -1.1326
  258MOL0     H35578   5.429   2.137  10.194  0.2931 -2.0891  0.8351
  258MOL0     H35579   5.317   2.067  10.317  0.4854 -0.5061  0.6439
  258MOL0     H35580   5.399   2.260  10.469  0.9394  0.9125  0.5509
  258MOL0     H35581   5.508   2.306  10.343 -1.7303 -0.7687 -3.0350
  258MOL0     H35582   5.594   2.044  10.342  0.4399 -1.0909  0.8574
  258MOL0     H35583   5.512   2.047  10.506 -1.6573  0.9459 -0.8405
  258MOL0     H35584   4.560   2.409   9.963 -2.0155  2.1763  0.0780
  258MOL0     H35585   4.366   2.493  10.048 -1.7717 -0.4397  1.1038
  258MOL0     H35586   4.183   2.870  10.240  0.8740 -1.1807  0.2473
  258MOL0     H35587   3.968   2.962  10.253 -2.6421  0.8634  1.4586
  258MOL0     H35588   1.799   2.424   9.785 -1.5447 -1.2492  0.0749
  258MOL0     H35589   1.563   2.361   9.801  0.2964 -0.0378 -2.1583
  258MOL0     H35590   1.167   2.434   9.941  3.6604  4.7387  0.0777
  258MOL0     H35591   0.941   2.390   9.999  2.9289 -0.5240  0.2955
  258MOL0     H35592   0.746   2.300   9.945 -1.1673 -0.3405 -1.9013
  258MOL0     H35593   0.715   2.454  10.042 -1.4639  0.0352  0.9207
  258MOL0     H35594   0.504   2.359   9.859  1.9452 -0.8947 -0.4386
  258MOL0     H35595   0.485   2.470   9.995 -1.0617  0.6966 -2.1500
  258MOL0     H35596   0.530   2.173   9.997  1.2214  2.1295 -2.7662
  258MOL0     H35597   0.530   2.259  10.153 -0.4849 -1.8260  0.3465
  258MOL0     H35598   0.322   2.132  10.017 -1.3981 -0.4760 -0.9516
  258MOL0     H35599   0.299   2.305   9.967 -1.1755 -1.1305  0.4520
  258MOL0     H35600   0.225   2.266  10.394  0.2298 -2.1697  0.1702
  258MOL0     H35601   0.812   2.608   9.658  0.5782 -1.9729 -1.3082
  258MOL0     H35602   1.107   2.674   9.488  0.6921  3.3276 -1.5457
  258MOL0     H35603   0.953   2.732   9.528  0.3599 -0.1802 -1.1339
  258MOL0     H35604   1.087   2.815   9.602 -4.3542  1.5444 -0.7750
  259MOL0     O35605   3.569   7.052   0.544 -1.0776  0.5875  0.0414
  259MOL0     C35606   3.563   7.173   0.530  0.1691 -0.4286  0.2082
  259MOL0     O35607   3.672   7.256   0.535  0.7715  0.5576  0.4178
  259MOL0     C35608   3.795   7.216   0.547  0.8136 -0.1217  0.2862
  259MOL0     C35609   3.836   7.109   0.472 -0.0536  0.7897  0.0795
  259MOL0     C35610   3.974   7.070   0.476 -0.0849  0.3794  0.9258
  259MOL0     C35611   4.059   7.120   0.572  0.2040 -0.5756 -0.1110
  259MOL0     O35612   4.183   7.067   0.596 -0.4030 -0.7210  0.5098
  259MOL0     C35613   4.281   7.157   0.642  0.1327  0.4587  0.1778
  259MOL0     C35614   4.428   7.095   0.662  1.9342  1.0121 -0.3148
  259MOL0     C35615   4.496   7.155   0.784 -0.4762 -1.1551  0.3173
  259MOL0     C35616   4.546   7.289   0.770 -0.1507 -0.4512  0.4484
  259MOL0     C35617   4.604   7.323   0.909 -1.4053  0.2012  0.3455
  259MOL0     C35618   4.675   7.461   0.906 -0.3878  0.5067  0.0365
  259MOL0     C35619   4.768   7.493   1.021 -0.4064  0.5835  0.6483
  259MOL0     C35620   4.815   7.637   1.013  0.3908  0.3603 -0.2390
  259MOL0     N35621   4.940   7.654   1.081 -0.0823 -0.2497  0.6682
  259MOL0     C35622   5.000   7.782   1.115  0.0225 -0.4065 -0.0957
  259MOL0     C35623   5.135   7.750   1.136  0.2177 -0.8562  0.1193
  259MOL0     C35624   5.233   7.848   1.188  0.3831 -0.8307 -0.8080
  259MOL0     C35625   5.264   7.826   1.340  0.1709 -0.1311  0.9922
  259MOL0     C35626   5.144   7.769   1.415 -0.3159 -0.0178 -0.0711
  259MOL0     C35627   5.171   7.748   1.565  0.2376  0.3723  0.1498
  259MOL0     O35628   5.292   7.670   1.585  0.6593  0.3122  0.7773
  259MOL0     C35629   5.323   7.630   1.706 -0.5369  0.9759 -0.5350
  259MOL0     C35630   5.246   7.644   1.822  0.5923  0.4472  0.0000
  259MOL0     C35631   5.291   7.585   1.949  0.5887 -0.2100 -1.0233
  259MOL0     C35632   5.187   7.583   2.051  0.3677  0.2346  0.4419
  259MOL0     C35633   5.426   7.539   1.959  0.1391  0.3454  0.5504
  259MOL0     C35634   5.495   7.487   2.086  0.2448  0.5128 -0.7644
  259MOL0     O35635   5.620   7.448   2.073  0.1313  0.3965  0.0141
  259MOL0     C35636   5.695   7.450   2.186 -0.6427  0.8018  0.3415
  259MOL0     C35637   5.789   7.551   2.205  0.3183  0.2515  0.6768
  259MOL0     C35638   5.871   7.556   2.314  0.4578  0.4141 -0.1693
  259MOL0     C35639   5.864   7.461   2.422 -0.8010 -0.7056  0.9568
  259MOL0     O35640   5.949   7.446   2.533 -1.0234 -0.1909  0.6119
  259MOL0     C35641   6.042   7.553   2.564  0.0044 -0.1312 -0.1225
  259MOL0     C35642   6.033   7.603   2.711 -0.2661 -0.3861 -0.7510
  259MOL0     C35643   5.895   7.663   2.730 -0.1832  0.3753 -0.2657
  259MOL0     C35644   5.887   7.699   2.880  0.0130  0.1507 -0.8662
  259MOL0     C35645   5.738   7.709   2.941  0.1653  0.2807  0.0156
  259MOL0     C35646   5.674   7.849   2.958 -0.2121  0.4722 -0.7342
  259MOL0     C35647   5.520   7.846   2.999 -0.5050  0.1716  0.2628
  259MOL0     C35648   5.429   7.786   2.890  0.0633 -0.3002  0.7426
  259MOL0    Cl35649   5.252   7.825   2.926  0.0301  0.0081 -0.3482
  259MOL0     C35650   5.773   7.353   2.399 -0.3474 -0.0240  0.0278
  259MOL0     C35651   5.685   7.344   2.281 -0.0868  0.2475 -0.1417
  259MOL0     O35652   5.427   7.494   2.194 -0.3956 -0.6760  0.6846
  259MOL0     C35653   5.499   7.537   1.840 -0.8096 -0.9411 -0.6853
  259MOL0     C35654   5.449   7.578   1.722 -0.0516 -0.3980  0.5663
  259MOL0     N35655   5.149   7.610   1.110 -0.0200  0.4417 -0.5241
  259MOL0     N35656   5.035   7.567   1.076  0.4037  0.7068  0.4225
  259MOL0     C35657   4.017   7.241   0.643 -0.1150  1.0032  0.0068
  259MOL0     C35658   3.888   7.287   0.626 -0.0517 -0.4626  0.6651
  259MOL0     C35659   3.443   7.234   0.483 -0.2169  0.2801  0.7477
  259MOL0     C35660   3.422   7.371   0.502  0.3321  0.0611 -0.3690
  259MOL0     C35661   3.301   7.436   0.466 -0.0803 -0.5668  0.2296
  259MOL0     C35662   3.190   7.365   0.410  0.1592  0.0273  0.2335
  259MOL0     O35663   3.086   7.436   0.365 -0.2687 -0.1351 -0.1800
  259MOL0     C35664   2.967   7.370   0.323 -0.2387 -0.9141 -0.1927
  259MOL0     C35665   2.849   7.469   0.296  0.6001 -0.0672 -0.3835
  259MOL0     C35666   2.889   7.573   0.193 -0.4873  0.6706  0.2038
  259MOL0     C35667   2.777   7.679   0.186 -0.0113  0.7146  0.3833
  259MOL0     C35668   2.803   7.772   0.079  0.0334  0.6308 -0.4466
  259MOL0     C35669   2.803   7.848  -0.013 -0.6646 -0.7763 -0.1215
  259MOL0     C35670   3.213   7.224   0.375 -1.2065 -0.7346 -0.4419
  259MOL0     C35671   3.338   7.164   0.401  0.1030 -0.8788 -0.2505
  259MOL0     C35672   3.356   7.035   0.327 -0.0252 -0.7870  0.0269
  259MOL0     H35673   3.766   7.059   0.407 -1.7942  0.3632  2.1707
  259MOL0     H35674   3.998   6.984   0.415  3.7723  2.5285 -0.9086
  259MOL0     H35675   4.246   7.195   0.738 -1.4250 -0.7642  0.1271
  259MOL0     H35676   4.283   7.240   0.571  0.1950  0.2647 -0.0491
  259MOL0     H35677   4.411   6.989   0.679 -0.8519  1.1930 -1.4471
  259MOL0     H35678   4.502   7.107   0.582  1.6310 -0.8563 -0.9083
  259MOL0     H35679   4.424   7.160   0.866 -0.7382 -0.3027  0.0371
  259MOL0     H35680   4.575   7.085   0.814  0.4082  0.6773  2.5438
  259MOL0     H35681   4.621   7.284   0.690 -0.2596  2.6373  0.0361
  259MOL0     H35682   4.464   7.357   0.744  0.8219  0.0382 -1.6177
  259MOL0     H35683   4.682   7.253   0.940 -2.2705  0.4564  3.3639
  259MOL0     H35684   4.527   7.342   0.984  0.6070  2.7462  1.9330
  259MOL0     H35685   4.738   7.458   0.817  0.9043 -0.0926  0.9325
  259MOL0     H35686   4.597   7.537   0.905 -0.8426  0.0626  0.8947
  259MOL0     H35687   4.856   7.430   1.006  0.5749  1.4678  2.4029
  259MOL0     H35688   4.719   7.478   1.117 -1.9408  2.1138  0.1668
  259MOL0     H35689   4.822   7.659   0.906 -1.9884  0.3935 -0.4561
  259MOL0     H35690   4.746   7.714   1.048  0.5086  0.5300 -0.3837
  259MOL0     H35691   4.951   7.877   1.136 -1.7938 -1.2875 -0.1446
  259MOL0     H35692   5.176   7.940   1.170 -3.0627 -2.5277  0.5810
  259MOL0     H35693   5.328   7.841   1.135  0.4960 -1.5500 -0.5144
  259MOL0     H35694   5.350   7.762   1.359 -1.0418 -1.3312  2.6494
  259MOL0     H35695   5.293   7.921   1.387  1.1200  0.1131 -0.0310
  259MOL0     H35696   5.068   7.847   1.404 -2.4393 -1.9290  0.4594
  259MOL0     H35697   5.098   7.678   1.378 -4.0095  0.9901  1.5694
  259MOL0     H35698   5.183   7.842   1.620  0.3888  0.9070 -0.7702
  259MOL0     H35699   5.094   7.693   1.619  1.1632  0.1789  1.3165
  259MOL0     H35700   5.144   7.679   1.823  1.2809  2.6699  1.8907
  259MOL0     H35701   5.103   7.651   2.038 -0.5589 -1.1470 -1.2057
  259MOL0     H35702   5.226   7.614   2.148 -2.0674 -2.0128  2.2791
  259MOL0     H35703   5.150   7.480   2.058  1.4976 -0.0753  2.9727
  259MOL0     H35704   5.805   7.624   2.125  1.1411 -1.5625 -0.8917
  259MOL0     H35705   5.954   7.627   2.315  2.3413 -1.6621 -0.1136
  259MOL0     H35706   6.135   7.496   2.559  0.2856  0.2191  0.7874
  259MOL0     H35707   6.029   7.640   2.499 -0.1581 -0.3064 -0.3219
  259MOL0     H35708   6.048   7.518   2.779  0.1374  0.2675  0.0043
  259MOL0     H35709   6.111   7.675   2.739 -1.7823  0.1308  2.6675
  259MOL0     H35710   5.814   7.592   2.708 -1.3751  1.3966  0.6539
  259MOL0     H35711   5.889   7.753   2.669  1.6692  1.1460  0.6111
  259MOL0     H35712   5.940   7.795   2.889  3.4117 -1.6914  1.1682
  259MOL0     H35713   5.943   7.632   2.946 -1.3327  1.3447  1.6366
  259MOL0     H35714   5.671   7.644   2.884  2.2444 -2.0711  0.1093
  259MOL0     H35715   5.742   7.666   3.041  1.3783  3.0468  1.2569
  259MOL0     H35716   5.690   7.911   2.870  0.5698 -1.2836 -1.8975
  259MOL0     H35717   5.722   7.905   3.038 -1.5376 -1.6995  1.7544
  259MOL0     H35718   5.485   7.945   3.030 -1.9145 -0.2457  0.0538
  259MOL0     H35719   5.520   7.780   3.086  1.1008 -0.2124  0.0046
  259MOL0     H35720   5.444   7.680   2.866  0.4903  0.2246 -1.5216
  259MOL0     H35721   5.462   7.835   2.799  0.0393 -0.3009  0.7332
  259MOL0     H35722   5.772   7.273   2.472 -1.5349 -1.4474 -1.4676
  259MOL0     H35723   5.617   7.260   2.280 -1.0213  0.9370 -2.3479
  259MOL0     H35724   5.604   7.510   1.835 -0.2625  0.8482  0.3910
  259MOL0     H35725   5.521   7.569   1.641  1.5538  0.5009  1.8143
  259MOL0     H35726   4.075   7.300   0.712 -2.8418  3.1239  0.6323
  259MOL0     H35727   3.866   7.379   0.680  2.1072  0.9438 -0.6793
  259MOL0     H35728   3.499   7.431   0.550  1.8990 -1.6151 -0.6657
  259MOL0     H35729   3.299   7.542   0.488 -0.3177 -0.6670  0.6975
  259MOL0     H35730   2.982   7.313   0.231 -1.3140  1.0816 -1.6868
  259MOL0     H35731   2.948   7.309   0.412 -1.2095  0.6083  0.6761
  259MOL0     H35732   2.814   7.528   0.382  0.3469 -0.7110 -0.0436
  259MOL0     H35733   2.770   7.404   0.259 -2.3411  2.2742  1.3195
  259MOL0     H35734   2.987   7.614   0.220 -0.0345  0.3435 -0.8726
  259MOL0     H35735   2.907   7.519   0.099 -0.1757  2.3195 -0.7317
  259MOL0     H35736   2.763   7.740   0.276  3.4662  1.3685  0.6240
  259MOL0     H35737   2.682   7.629   0.166 -1.7314  4.0073 -0.1938
  259MOL0     H35738   2.814   7.927  -0.084  3.0518  0.1259  1.2154
  259MOL0     H35739   3.147   7.173   0.306  0.8509  0.0002 -3.1143
  259MOL0     H35740   3.460   7.004   0.313  1.0589  1.7685  1.5976
  259MOL0     H35741   3.306   6.958   0.386 -0.2335  1.2307  2.6497
  259MOL0     H35742   3.305   7.039   0.230  1.1458  3.0387 -0.6298
  260MOL0     O35743   4.369   9.356   6.534  0.2820 -0.3045 -0.4534
  260MOL0     C35744   4.297   9.431   6.601 -0.6982 -0.4885  0.1681
  260MOL0     O35745   4.344   9.543   6.656 -0.2177 -0.6003 -0.1113
  260MOL0     C35746   4.484   9.569   6.655 -1.3613  0.4345 -1.2119
  260MOL0     C35747   4.555   9.509   6.764  0.0440 -1.0106 -0.6161
  260MOL0     C35748   4.693   9.519   6.763 -0.1893 -0.6430  1.0441
  260MOL0     C35749   4.769   9.568   6.657 -0.1701 -1.3793  1.2286
  260MOL0     O35750   4.908   9.543   6.652  0.6757 -1.1541 -0.3288
  260MOL0     C35751   4.988   9.613   6.558 -0.3458  0.1436  0.4640
  260MOL0     C35752   5.127   9.539   6.554 -0.0803  0.6321 -0.1741
  260MOL0     C35753   5.221   9.615   6.466 -0.7762  0.1716 -0.8585
  260MOL0     C35754   5.346   9.530   6.446  0.7502 -0.6384  0.4194
  260MOL0     C35755   5.455   9.615   6.381 -0.0642  0.8440  0.6060
  260MOL0     C35756   5.554   9.666   6.486 -0.3879  0.1882 -0.6064
  260MOL0     C35757   5.655   9.757   6.429  0.1832  0.3062 -0.4477
  260MOL0     C35758   5.778   9.784   6.518 -0.4324  0.5852 -0.2263
  260MOL0     N35759   5.759   9.845   6.652  0.3448  0.2195 -0.2155
  260MOL0     C35760   5.754   9.773   6.769 -0.0330  0.0522 -0.1814
  260MOL0     C35761   5.744   9.867   6.865  0.5767 -0.4178  0.8027
  260MOL0     C35762   5.754   9.835   7.008 -0.1493  0.1984 -0.2243
  260MOL0     C35763   5.890   9.781   7.056 -0.2267  0.1138 -0.7145
  260MOL0     C35764   5.918   9.812   7.207  0.8194 -0.0764  1.1546
  260MOL0     C35765   6.049   9.754   7.259  0.5150 -0.4772  0.8849
  260MOL0     O35766   6.159   9.818   7.193 -0.1523  0.2771 -0.9337
  260MOL0     C35767   6.291   9.779   7.222 -0.5963 -0.3316  0.4527
  260MOL0     C35768   6.335   9.701   7.331 -0.7771  0.0676  0.0396
  260MOL0     C35769   6.475   9.677   7.355  0.0820  0.1474  0.1848
  260MOL0     C35770   6.499   9.586   7.470 -0.3934 -0.7490 -0.3204
  260MOL0     C35771   6.568   9.731   7.261  0.3650 -0.3202  0.3038
  260MOL0     C35772   6.712   9.691   7.248 -0.0802 -0.0885  0.3527
  260MOL0     O35773   6.794   9.770   7.170  0.5969  0.6898  0.2366
  260MOL0     C35774   6.927   9.757   7.189 -0.7626  1.0637 -0.3799
  260MOL0     C35775   6.997   9.629   7.200  1.5218 -0.4601  0.0566
  260MOL0     C35776   7.133   9.636   7.207 -0.3252  0.9408 -0.2073
  260MOL0     C35777   7.207   9.750   7.188 -0.1775 -0.7370  0.3134
  260MOL0     O35778   7.345   9.733   7.186 -0.2776 -0.2616 -0.6054
  260MOL0     C35779   7.422   9.842   7.231 -0.6152  0.0382 -0.2166
  260MOL0     C35780   7.569   9.812   7.246  1.3926 -0.1741 -0.1057
  260MOL0     C35781   7.644   9.941   7.292  0.0760  0.3099 -0.3954
  260MOL0     C35782   7.782   9.925   7.360  0.0642  0.5354 -0.1209
  260MOL0     C35783   7.860  10.055   7.384 -0.3713 -0.4223 -0.4478
  260MOL0     C35784   8.009  10.029   7.415 -0.0627 -0.7804  0.0716
  260MOL0     C35785   8.057  10.162   7.493 -0.0804  0.8011 -0.2461
  260MOL0     C35786   8.217  10.172   7.497 -0.3965  0.3033 -0.1885
  260MOL0    Cl35787   8.276  10.014   7.561  0.0943 -0.0517 -0.0245
  260MOL0     C35788   7.143   9.866   7.157 -0.7170 -0.0419 -0.0645
  260MOL0     C35789   7.006   9.868   7.165 -0.5128  0.1018  0.3086
  260MOL0     O35790   6.741   9.582   7.296  0.4596  0.5858 -0.7495
  260MOL0     C35791   6.523   9.828   7.166 -0.2519 -0.8589  0.9565
  260MOL0     C35792   6.387   9.844   7.140  0.0207  0.0864 -0.5253
  260MOL0     N35793   5.741   9.994   6.809  0.3569 -0.3738  0.9186
  260MOL0     N35794   5.741   9.972   6.680 -0.4207  0.1628  0.0345
  260MOL0     C35795   4.700   9.631   6.547 -0.2985 -0.1125 -0.3383
  260MOL0     C35796   4.561   9.631   6.550  0.4196  0.2033 -0.8192
  260MOL0     C35797   4.156   9.393   6.607  0.1641 -0.2342 -0.5126
  260MOL0     C35798   4.124   9.268   6.666 -0.6544  0.7568  0.7277
  260MOL0     C35799   3.993   9.232   6.661  0.0593  0.1116 -0.4887
  260MOL0     C35800   3.884   9.313   6.616 -0.4074  1.7354  1.2900
  260MOL0     O35801   3.748   9.284   6.631  0.8568 -0.6048  0.1257
  260MOL0     C35802   3.724   9.165   6.709  0.0646  0.6438  0.0356
  260MOL0     C35803   3.575   9.144   6.718 -0.6097 -0.3265 -0.6878
  260MOL0     C35804   3.505   9.126   6.585 -0.2276 -0.1655 -0.3068
  260MOL0     C35805   3.372   9.058   6.593 -0.2137 -0.0819 -0.2595
  260MOL0     C35806   3.269   9.147   6.656 -0.7368  0.0979  0.1392
  260MOL0     C35807   3.185   9.222   6.708 -0.3050 -0.4787 -0.1271
  260MOL0     C35808   3.922   9.436   6.551 -0.2311  0.9761 -0.8282
  260MOL0     C35809   4.053   9.478   6.559  0.9842  0.1953 -0.5317
  260MOL0     C35810   4.077   9.617   6.503 -0.6113 -0.3005  0.4447
  260MOL0     H35811   4.499   9.470   6.848  3.9837 -2.0086  1.7819
  260MOL0     H35812   4.743   9.480   6.850  2.5494  0.0384 -0.1248
  260MOL0     H35813   5.005   9.717   6.586 -1.1033  0.5568 -0.5821
  260MOL0     H35814   4.945   9.606   6.458  1.0060  0.5283 -0.1734
  260MOL0     H35815   5.161   9.525   6.657  0.1118 -0.9843 -0.4321
  260MOL0     H35816   5.109   9.440   6.511 -0.5785  0.0201  1.3921
  260MOL0     H35817   5.182   9.640   6.367 -0.1485  1.5099 -0.7877
  260MOL0     H35818   5.261   9.700   6.523  1.3932 -2.3141  1.6395
  260MOL0     H35819   5.380   9.482   6.538  2.2518  0.9700  0.7481
  260MOL0     H35820   5.326   9.445   6.379 -1.2132  0.0509  0.0677
  260MOL0     H35821   5.407   9.690   6.318  0.1345  0.3230 -0.1728
  260MOL0     H35822   5.508   9.543   6.318 -0.3745  0.6981  0.5101
  260MOL0     H35823   5.501   9.729   6.558  1.7804  2.1644 -0.6041
  260MOL0     H35824   5.598   9.578   6.535  0.2880  2.0454  2.3718
  260MOL0     H35825   5.609   9.855   6.411 -1.0859 -0.1616  0.1292
  260MOL0     H35826   5.682   9.720   6.329 -4.3490 -3.0869 -0.7417
  260MOL0     H35827   5.827   9.688   6.536 -0.2002  0.5573 -0.9852
  260MOL0     H35828   5.851   9.853   6.474  0.1752  1.9962  2.7471
  260MOL0     H35829   5.772   9.666   6.779  1.7623  0.5193  2.9186
  260MOL0     H35830   5.673   9.768   7.039 -1.7858  1.6481 -1.1672
  260MOL0     H35831   5.734   9.928   7.063 -3.3874  0.1430 -1.1154
  260MOL0     H35832   5.891   9.674   7.037  1.4148  0.4060 -2.6365
  260MOL0     H35833   5.968   9.830   6.996  1.4984 -1.3151  0.2629
  260MOL0     H35834   5.924   9.921   7.218 -2.0462  0.7319 -2.9503
  260MOL0     H35835   5.840   9.780   7.276 -0.2010 -0.4358 -0.1210
  260MOL0     H35836   6.055   9.778   7.365  2.8331 -1.2726  0.9827
  260MOL0     H35837   6.048   9.646   7.245 -0.5973 -0.3199 -0.5174
  260MOL0     H35838   6.267   9.664   7.407  0.9530 -2.1893  0.6065
  260MOL0     H35839   6.419   9.572   7.544  0.7073  0.6965  1.2455
  260MOL0     H35840   6.586   9.629   7.522 -2.1628  1.9085  0.6646
  260MOL0     H35841   6.521   9.486   7.434  3.4279 -1.1379  2.4120
  260MOL0     H35842   6.945   9.535   7.187 -0.1483  0.6823 -2.2555
  260MOL0     H35843   7.189   9.546   7.230  1.2991  1.9241 -0.2107
  260MOL0     H35844   7.411   9.908   7.145  0.4066 -0.0269 -0.4069
  260MOL0     H35845   7.379   9.878   7.325  0.8696 -1.6469  1.1853
  260MOL0     H35846   7.572   9.733   7.322  0.3154  0.5885  0.7638
  260MOL0     H35847   7.614   9.774   7.154  2.2318 -1.3286  0.7438
  260MOL0     H35848   7.584  10.001   7.360  0.9866  1.3188 -0.4533
  260MOL0     H35849   7.643  10.003   7.201  2.3587 -2.2583 -2.3466
  260MOL0     H35850   7.854   9.865   7.302 -0.4839  2.6994 -3.2667
  260MOL0     H35851   7.771   9.869   7.453 -0.5296 -0.3689 -0.7075
  260MOL0     H35852   7.856  10.121   7.297 -2.1884 -0.4723 -0.4338
  260MOL0     H35853   7.806  10.106   7.464 -0.4945  0.7326 -1.2299
  260MOL0     H35854   8.069  10.023   7.325 -1.9936 -1.8479 -1.2314
  260MOL0     H35855   8.023   9.943   7.481  0.3831 -0.8811 -0.1544
  260MOL0     H35856   8.023  10.158   7.597 -3.2638  0.3738 -1.1747
  260MOL0     H35857   8.014  10.246   7.437  1.7240  1.3464 -0.8709
  260MOL0     H35858   8.235  10.248   7.574  0.2900 -0.2887  0.2459
  260MOL0     H35859   8.273  10.205   7.409 -0.1732 -4.2000 -2.0178
  260MOL0     H35860   7.195   9.954   7.121 -1.9271  0.6759 -0.1350
  260MOL0     H35861   6.946   9.956   7.145 -2.2442 -1.5548 -2.5834
  260MOL0     H35862   6.595   9.884   7.108  0.6296 -1.6153  1.2947
  260MOL0     H35863   6.336   9.906   7.066 -1.8909  1.7091  1.9651
  260MOL0     H35864   4.749   9.674   6.460  1.3501  1.9005  1.4573
  260MOL0     H35865   4.516   9.661   6.456 -0.3404  0.3446 -0.4183
  260MOL0     H35866   4.204   9.207   6.707 -2.7009 -1.3193  1.8557
  260MOL0     H35867   3.977   9.136   6.708 -1.4540  1.0177  0.9975
  260MOL0     H35868   3.773   9.085   6.653 -1.0510 -1.8475  2.4259
  260MOL0     H35869   3.771   9.161   6.807 -1.9893 -3.7677  1.0871
  260MOL0     H35870   3.523   9.223   6.773  2.6188  1.5722 -0.0596
  260MOL0     H35871   3.564   9.048   6.769 -0.9674 -0.2302 -0.5781
  260MOL0     H35872   3.494   9.224   6.537  0.9551  0.7806  1.2645
  260MOL0     H35873   3.568   9.060   6.525 -0.3420 -0.4335 -0.1338
  260MOL0     H35874   3.392   8.967   6.650  2.5469 -0.1533 -1.2185
  260MOL0     H35875   3.333   9.030   6.494  1.1698  0.4013 -0.9658
  260MOL0     H35876   3.118   9.289   6.758 -1.9897 -1.2414 -1.2871
  260MOL0     H35877   3.844   9.505   6.521 -1.1803  0.2244 -0.1507
  260MOL0     H35878   4.184   9.627   6.485 -0.8893 -0.3154 -1.4113
  260MOL0     H35879   4.029   9.649   6.410  0.9901 -0.9624 -0.6454
  260MOL0     H35880   4.051   9.692   6.578  1.9404  1.5060 -0.3438
  261MOL0     O35881   5.157   4.627  11.144  0.2651  0.1792  0.5330
  261MOL0     C35882   5.128   4.512  11.110 -0.3529 -0.0153  0.0287
  261MOL0     O35883   5.216   4.410  11.099 -0.1683 -0.5310 -0.3566
  261MOL0     C35884   5.345   4.415  11.149  0.4276 -0.0140  0.2687
  261MOL0     C35885   5.438   4.504  11.094 -0.4040 -0.6827 -0.6218
  261MOL0     C35886   5.572   4.503  11.135 -0.3303 -0.2787  0.2591
  261MOL0     C35887   5.618   4.422  11.241 -0.1268  0.1945  0.4119
  261MOL0     O35888   5.746   4.433  11.281 -0.0627  0.2417 -0.3051
  261MOL0     C35889   5.798   4.349  11.379  0.2364  1.2769  0.8011
  261MOL0     C35890   5.949   4.349  11.393 -0.2719  0.6551  0.3803
  261MOL0     C35891   6.004   4.484  11.432 -0.3103  0.1438  0.3828
  261MOL0     C35892   6.059   4.566  11.312 -0.1059 -0.3867  0.0213
  261MOL0     C35893   6.075   4.716  11.321 -0.2599 -0.5021 -0.6867
  261MOL0     C35894   6.165   4.763  11.440 -0.1778 -0.0259  0.7830
  261MOL0     C35895   6.193   4.913  11.427  0.5723 -0.1043 -0.4680
  261MOL0     C35896   6.276   4.956  11.550  0.2829 -0.0448 -0.1419
  261MOL0     N35897   6.418   4.925  11.547  0.3641  0.7260  0.1699
  261MOL0     C35898   6.482   4.849  11.639  0.0729 -0.1166 -0.5875
  261MOL0     C35899   6.604   4.830  11.596 -0.4254  0.0193  0.5437
  261MOL0     C35900   6.695   4.739  11.670 -0.3595 -1.0867  0.3834
  261MOL0     C35901   6.769   4.657  11.567 -0.2412  0.1933 -0.6805
  261MOL0     C35902   6.879   4.569  11.614 -0.3856  0.4924 -0.3139
  261MOL0     C35903   6.971   4.555  11.499 -0.2769  0.4640 -0.2097
  261MOL0     O35904   7.066   4.455  11.530  0.3144  0.1254  0.4330
  261MOL0     C35905   7.183   4.455  11.460 -0.2226 -0.0864 -0.6383
  261MOL0     C35906   7.299   4.419  11.533  1.0359  0.1241 -0.3398
  261MOL0     C35907   7.432   4.411  11.488 -0.3932  0.0892 -0.2762
  261MOL0     C35908   7.544   4.368  11.586 -0.0604  0.4358  0.1348
  261MOL0     C35909   7.454   4.464  11.359  0.1129 -0.1443  0.1378
  261MOL0     C35910   7.581   4.449  11.284 -1.4601 -0.5839  0.7125
  261MOL0     O35911   7.619   4.551  11.212  0.0502 -0.7345  0.7693
  261MOL0     C35912   7.737   4.533  11.143  0.3995  0.3320  0.2812
  261MOL0     C35913   7.861   4.505  11.205  0.4217  0.0394 -0.3726
  261MOL0     C35914   7.977   4.492  11.125 -0.2205  0.5265 -0.1780
  261MOL0     C35915   7.980   4.527  10.991 -0.1648 -0.0895 -0.1969
  261MOL0     O35916   8.092   4.540  10.910  0.1816 -0.2063 -0.2118
  261MOL0     C35917   8.221   4.510  10.974 -0.3895 -0.1162  0.6141
  261MOL0     C35918   8.325   4.495  10.867  0.5579  0.3337  0.0563
  261MOL0     C35919   8.464   4.531  10.927 -0.5797  0.6517 -0.0242
  261MOL0     C35920   8.577   4.520  10.814  0.0047 -0.3537 -0.4109
  261MOL0     C35921   8.590   4.381  10.761 -0.5961  0.2381 -0.4733
  261MOL0     C35922   8.705   4.370  10.665 -0.2107 -0.7262  0.3562
  261MOL0     C35923   8.841   4.379  10.737  0.5825  0.2623  0.0377
  261MOL0     C35924   8.948   4.353  10.639 -0.2023 -0.0903 -0.7245
  261MOL0    Cl35925   9.113   4.376  10.719 -0.1766 -0.1106 -0.3787
  261MOL0     C35926   7.863   4.552  10.927  0.3338  0.1598  0.5530
  261MOL0     C35927   7.743   4.550  11.004  0.9088  0.8906  0.0495
  261MOL0     O35928   7.630   4.337  11.292 -0.2673  0.1605  0.1847
  261MOL0     C35929   7.341   4.521  11.287 -0.1209 -0.0830  0.2934
  261MOL0     C35930   7.210   4.508  11.332 -0.2979 -1.2823  0.2800
  261MOL0     N35931   6.628   4.909  11.482  0.6608  0.5456  0.8347
  261MOL0     N35932   6.512   4.969  11.458  0.8352 -0.1191  0.4133
  261MOL0     C35933   5.524   4.341  11.301  0.5652  0.0267  0.2349
  261MOL0     C35934   5.393   4.326  11.248 -0.1190 -0.0260  0.9275
  261MOL0     C35935   4.987   4.487  11.057  0.6381 -0.0112 -0.0114
  261MOL0     C35936   4.979   4.401  10.945 -0.6971 -0.6201 -0.2691
  261MOL0     C35937   4.853   4.359  10.912 -0.4954 -0.0135 -0.0236
  261MOL0     C35938   4.737   4.415  10.966  0.0328 -0.2044  0.5271
  261MOL0     O35939   4.613   4.372  10.922 -0.0476  0.4023  0.1869
  261MOL0     C35940   4.497   4.365  11.007 -0.1665  0.2370  0.3793
  261MOL0     C35941   4.377   4.309  10.940  0.3528  0.1012 -0.2642
  261MOL0     C35942   4.419   4.159  10.884  0.1991  0.0393 -0.4316
  261MOL0     C35943   4.302   4.111  10.797  0.3205  0.7462 -0.0794
  261MOL0     C35944   4.174   4.094  10.870 -1.0656  0.0268  0.8339
  261MOL0     C35945   4.078   4.062  10.935 -0.5579 -0.9183 -0.0196
  261MOL0     C35946   4.750   4.498  11.076 -0.2066  0.1780  1.1411
  261MOL0     C35947   4.874   4.536  11.123  0.0877  0.2455  0.6824
  261MOL0     C35948   4.885   4.616  11.247  0.3685 -0.6730 -0.2170
  261MOL0     H35949   5.418   4.569  11.010 -0.1350  3.6033  2.3303
  261MOL0     H35950   5.634   4.564  11.071 -0.1398 -2.3663 -1.6620
  261MOL0     H35951   5.763   4.248  11.355  3.7969 -0.1488  0.9870
  261MOL0     H35952   5.762   4.365  11.481  0.1327 -1.5370  1.2637
  261MOL0     H35953   5.975   4.277  11.471 -0.9254  0.4023  0.3650
  261MOL0     H35954   5.998   4.317  11.300  2.5239 -0.4023  2.1052
  261MOL0     H35955   5.925   4.543  11.480  0.9461  0.4172  2.2138
  261MOL0     H35956   6.080   4.473  11.510  0.0381  1.7854  0.2907
  261MOL0     H35957   6.160   4.535  11.287 -0.2123 -2.2099  1.5639
  261MOL0     H35958   5.989   4.554  11.228 -1.4445 -0.8035  1.1448
  261MOL0     H35959   5.975   4.760  11.332  0.0062 -0.0961  0.2022
  261MOL0     H35960   6.120   4.744  11.226 -1.2725  2.1406 -0.4890
  261MOL0     H35961   6.125   4.739  11.539  1.1472  0.3384  1.4353
  261MOL0     H35962   6.263   4.714  11.428  0.6840  2.0897 -2.0426
  261MOL0     H35963   6.097   4.967  11.432  1.7144  1.9247  1.7381
  261MOL0     H35964   6.250   4.944  11.339  0.2215  0.2641 -0.5698
  261MOL0     H35965   6.273   5.065  11.545 -2.2059  0.1367  2.6427
  261MOL0     H35966   6.230   4.934  11.646 -0.3549  0.4122 -0.3330
  261MOL0     H35967   6.438   4.805  11.728 -0.3171  2.0634  0.3667
  261MOL0     H35968   6.641   4.672  11.737  0.0176  0.6206  2.5020
  261MOL0     H35969   6.765   4.800  11.728  0.4451 -2.2719  0.6921
  261MOL0     H35970   6.692   4.588  11.531  1.3768 -2.5030  0.6773
  261MOL0     H35971   6.811   4.733  11.501  5.0662  1.2119  3.1532
  261MOL0     H35972   6.933   4.616  11.697 -0.7505  1.6448 -0.7181
  261MOL0     H35973   6.835   4.473  11.645 -1.2818  0.6246 -1.1493
  261MOL0     H35974   6.917   4.530  11.407  1.1219  1.3517 -1.3182
  261MOL0     H35975   7.019   4.652  11.488 -1.2460  0.6636 -3.7654
  261MOL0     H35976   7.273   4.392  11.635 -3.0674  0.3154 -1.1747
  261MOL0     H35977   7.551   4.259  11.576  2.2131  0.7340 -2.7621
  261MOL0     H35978   7.527   4.397  11.691  0.0621  1.0865 -0.0228
  261MOL0     H35979   7.641   4.401  11.550  0.5173 -0.8293  0.4706
  261MOL0     H35980   7.860   4.492  11.313  3.2554 -0.1533 -0.2965
  261MOL0     H35981   8.068   4.471  11.181 -0.6492 -2.0477 -0.3406
  261MOL0     H35982   8.239   4.592  11.044 -0.5669  1.0128 -0.6062
  261MOL0     H35983   8.232   4.414  11.024  2.2432 -1.2462 -1.8052
  261MOL0     H35984   8.331   4.389  10.841  2.2769 -0.0394  1.7442
  261MOL0     H35985   8.317   4.567  10.785  3.7323  0.3511 -0.3602
  261MOL0     H35986   8.493   4.471  11.014  0.3516  0.1450 -0.6644
  261MOL0     H35987   8.464   4.632  10.967 -0.3115  0.8648 -0.5581
  261MOL0     H35988   8.674   4.565  10.838 -0.7201  0.3610  1.3742
  261MOL0     H35989   8.538   4.568  10.724  2.3536 -3.1391 -3.1645
  261MOL0     H35990   8.624   4.321  10.846  1.4044 -0.8678 -1.9862
  261MOL0     H35991   8.497   4.337  10.725  0.2703 -1.4683 -0.6906
  261MOL0     H35992   8.691   4.450  10.593  0.7592 -1.0943 -0.2548
  261MOL0     H35993   8.707   4.271  10.618 -0.7398  0.8638 -3.3596
  261MOL0     H35994   8.830   4.304  10.816 -1.1182 -0.4238 -0.8001
  261MOL0     H35995   8.861   4.477  10.782  0.2672  0.5627 -0.4667
  261MOL0     H35996   8.932   4.417  10.551  1.1166 -1.7880 -2.2799
  261MOL0     H35997   8.930   4.254  10.597  1.0052 -0.8433  0.4827
  261MOL0     H35998   7.858   4.581  10.822 -0.5265 -0.7937  0.3119
  261MOL0     H35999   7.647   4.559  10.956  0.8390  0.1698  0.0358
  261MOL0     H36000   7.358   4.568  11.190 -3.3303  1.4448  0.3270
  261MOL0     H36001   7.133   4.563  11.279  1.8936  2.6092  0.7107
  261MOL0     H36002   5.555   4.272  11.379  2.2398 -2.1723 -2.2020
  261MOL0     H36003   5.327   4.248  11.285 -0.4752 -1.1673 -1.8823
  261MOL0     H36004   5.067   4.361  10.895 -0.1339 -0.5663  0.6526
  261MOL0     H36005   4.845   4.284  10.833  0.9031 -1.4954  1.1525
  261MOL0     H36006   4.526   4.310  11.097 -0.0194  1.1503  0.9038
  261MOL0     H36007   4.469   4.466  11.037  1.1024  0.6231  0.3384
  261MOL0     H36008   4.336   4.367  10.858  1.0684  1.3957  0.2551
  261MOL0     H36009   4.301   4.306  11.018  1.5165  1.3351  0.9839
  261MOL0     H36010   4.514   4.161  10.830  2.2165 -0.4619  2.7984
  261MOL0     H36011   4.433   4.093  10.971 -0.3335  0.3813 -0.0745
  261MOL0     H36012   4.332   4.015  10.755  0.5648  0.4761  0.6916
  261MOL0     H36013   4.288   4.172  10.707  1.9352 -0.7480 -1.4126
  261MOL0     H36014   3.992   4.034  10.993 -1.3190  1.0081 -0.1676
  261MOL0     H36015   4.667   4.535  11.137 -0.2648 -0.0606  1.2074
  261MOL0     H36016   4.783   4.620  11.287 -0.5662  1.7565 -2.5400
  261MOL0     H36017   4.947   4.567  11.323 -0.2618  0.4169  1.0416
  261MOL0     H36018   4.924   4.715  11.223 -1.9007  0.7147  1.4311
  262MOL0     O36019   5.718   9.091   6.285  0.4445 -0.5495  0.6470
  262MOL0     C36020   5.626   9.170   6.284  0.6740  0.3433  0.3183
  262MOL0     O36021   5.571   9.220   6.396  0.9772  0.4069 -0.2036
  262MOL0     C36022   5.662   9.274   6.481  0.5640 -0.8317  0.1288
  262MOL0     C36023   5.774   9.347   6.443 -0.0713 -0.4334  0.2380
  262MOL0     C36024   5.863   9.401   6.538 -0.0662 -0.5669  0.9116
  262MOL0     C36025   5.838   9.381   6.675  0.2769  0.0542  0.3545
  262MOL0     O36026   5.922   9.437   6.769  0.6233  0.2924  0.2450
  262MOL0     C36027   6.054   9.491   6.731  0.1990  0.2339  0.2320
  262MOL0     C36028   6.122   9.508   6.870 -0.4958 -0.2957 -0.4789
  262MOL0     C36029   6.275   9.555   6.861 -0.0076 -0.2086 -1.1045
  262MOL0     C36030   6.285   9.704   6.821  0.2678 -0.4376 -1.0926
  262MOL0     C36031   6.421   9.758   6.820 -0.3483 -0.8614 -0.9860
  262MOL0     C36032   6.503   9.719   6.699  1.1141  0.6923 -0.1988
  262MOL0     C36033   6.621   9.812   6.668 -0.5312  1.0972 -0.5472
  262MOL0     C36034   6.672   9.786   6.531 -1.5840 -0.3452  0.3762
  262MOL0     N36035   6.782   9.876   6.487  0.1790 -0.5515 -0.0019
  262MOL0     C36036   6.803   9.942   6.370  0.0774 -0.0100 -0.1367
  262MOL0     C36037   6.923  10.000   6.378 -0.5103  0.1566 -1.0753
  262MOL0     C36038   6.999  10.107   6.305  0.2062  0.5016  0.4087
  262MOL0     C36039   7.149  10.113   6.296 -1.1399 -0.3005  0.9141
  262MOL0     C36040   7.205   9.988   6.224  0.7877  0.4675 -0.4758
  262MOL0     C36041   7.356   9.978   6.221  1.7587  0.2324  0.7086
  262MOL0     O36042   7.416  10.062   6.126 -0.3335 -0.3254 -0.0120
  262MOL0     C36043   7.558  10.049   6.119  0.7341  0.2395 -0.6015
  262MOL0     C36044   7.620   9.951   6.052  1.0735  0.4162  0.3339
  262MOL0     C36045   7.759   9.938   6.048  0.2753 -0.5525  0.7101
  262MOL0     C36046   7.818   9.823   5.962  0.6000 -0.0055  0.1144
  262MOL0     C36047   7.840  10.036   6.113  0.0088  0.0251 -1.2218
  262MOL0     C36048   7.988  10.032   6.105  0.0085  0.4507 -0.6308
  262MOL0     O36049   8.049  10.152   6.091  0.3440  0.4329 -0.5606
  262MOL0     C36050   8.187  10.157   6.096 -1.0278  1.1532 -0.1292
  262MOL0     C36051   8.261  10.193   5.984  0.1208  0.0178 -0.2705
  262MOL0     C36052   8.406  10.185   5.988  0.5996  0.9363  0.7607
  262MOL0     C36053   8.470  10.154   6.103 -0.3138 -0.0023 -0.1595
  262MOL0     O36054   8.596  10.128   6.111  0.4135  0.5520 -0.1440
  262MOL0     C36055   8.660  10.255   6.131  0.3825 -0.6655  0.5393
  262MOL0     C36056   8.797  10.261   6.196 -0.0160  0.4795  0.0560
  262MOL0     C36057   8.868  10.393   6.193 -0.1386  0.3982 -0.1121
  262MOL0     C36058   9.018  10.379   6.238 -0.2819 -0.6855  0.3487
  262MOL0     C36059   9.093  10.516   6.258 -0.3838 -0.1026  0.6710
  262MOL0     C36060   9.245  10.511   6.240 -0.4953  0.1454  0.4351
  262MOL0     C36061   9.306  10.648   6.239  0.4071  0.9011  0.4274
  262MOL0     C36062   9.442  10.654   6.178  0.1127  0.1554 -0.1416
  262MOL0    Cl36063   9.513  10.803   6.217 -0.5343 -0.1403  0.2394
  262MOL0     C36064   8.398  10.132   6.219 -0.0639 -0.2761 -0.2720
  262MOL0     C36065   8.257  10.130   6.216  0.0538 -0.1952  0.2230
  262MOL0     O36066   8.043   9.926   6.115  0.5953 -0.0418 -0.8762
  262MOL0     C36067   7.776  10.142   6.188  0.0217  0.4151 -0.0925
  262MOL0     C36068   7.633  10.142   6.194  0.5354 -0.5653 -0.4485
  262MOL0     N36069   6.978   9.958   6.493 -0.1975  0.2746 -0.0525
  262MOL0     N36070   6.898   9.882   6.556 -0.1249 -0.6898  0.1529
  262MOL0     C36071   5.732   9.307   6.716 -0.2201 -0.5347  0.1399
  262MOL0     C36072   5.639   9.261   6.623  0.1007 -0.6032  0.3161
  262MOL0     C36073   5.558   9.193   6.157  0.5683 -0.0785 -0.1268
  262MOL0     C36074   5.418   9.229   6.163 -0.5731 -0.3405  0.8012
  262MOL0     C36075   5.340   9.263   6.054 -0.3336  0.0661  1.5898
  262MOL0     C36076   5.395   9.247   5.932  0.3670  0.3688  0.2461
  262MOL0     O36077   5.319   9.271   5.828 -0.0604  0.0059  0.4525
  262MOL0     C36078   5.360   9.375   5.743  0.4560 -0.9438 -0.2254
  262MOL0     C36079   5.276   9.496   5.770 -0.2494 -0.7282 -0.2918
  262MOL0     C36080   5.121   9.477   5.752 -0.8658  1.0775  0.9812
  262MOL0     C36081   5.028   9.476   5.878  0.6500  0.1990  0.6497
  262MOL0     C36082   5.053   9.597   5.961 -0.1239 -0.0007  0.2925
  262MOL0     C36083   5.081   9.695   6.032 -0.0165 -0.8245  0.0550
  262MOL0     C36084   5.530   9.211   5.916 -0.9291 -0.0659  0.6017
  262MOL0     C36085   5.612   9.179   6.023 -0.0371 -0.3455  0.7245
  262MOL0     C36086   5.755   9.134   5.998 -0.1497  0.0262 -0.0464
  262MOL0     H36087   5.811   9.348   6.341  1.4476  2.8157  0.7104
  262MOL0     H36088   5.953   9.450   6.502 -0.8198 -0.0965 -0.3903
  262MOL0     H36089   6.052   9.585   6.675 -1.1754  0.6696  0.9697
  262MOL0     H36090   6.098   9.410   6.673  2.6801 -0.5663  2.9711
  262MOL0     H36091   6.060   9.582   6.922 -0.6727 -1.1024  0.4837
  262MOL0     H36092   6.135   9.422   6.936 -0.0221 -0.1311 -0.3547
  262MOL0     H36093   6.336   9.539   6.950  1.9152 -0.1880 -2.3408
  262MOL0     H36094   6.327   9.498   6.783  1.7031 -0.2460  0.0229
  262MOL0     H36095   6.243   9.712   6.720  0.4281 -1.3120 -1.2370
  262MOL0     H36096   6.214   9.761   6.882  2.3980  0.2057  0.9475
  262MOL0     H36097   6.475   9.722   6.908 -1.7190  0.4728  0.4669
  262MOL0     H36098   6.412   9.867   6.828  1.7975 -0.6891 -0.5553
  262MOL0     H36099   6.538   9.617   6.712 -1.5895 -0.2387  0.4877
  262MOL0     H36100   6.434   9.720   6.614  0.1075  1.9894  0.5731
  262MOL0     H36101   6.706   9.802   6.735 -0.7537  2.2275 -0.0833
  262MOL0     H36102   6.573   9.909   6.682 -0.1966  0.9669  1.9469
  262MOL0     H36103   6.715   9.685   6.539 -1.2580 -0.1831  0.6836
  262MOL0     H36104   6.592   9.785   6.456  0.0991 -0.3987 -1.4978
  262MOL0     H36105   6.736   9.952   6.286  2.5750 -0.4453 -2.3337
  262MOL0     H36106   6.969  10.206   6.340  2.9911  1.5216  0.1571
  262MOL0     H36107   6.961  10.095   6.203 -0.8612  0.7010  0.7711
  262MOL0     H36108   7.184  10.206   6.249  0.7469 -2.3793 -2.1376
  262MOL0     H36109   7.190  10.114   6.398  2.1968  0.6214 -0.2840
  262MOL0     H36110   7.161   9.901   6.273 -0.1012  0.1049 -1.8456
  262MOL0     H36111   7.167   9.994   6.121  0.7311 -0.4697 -0.5220
  262MOL0     H36112   7.389   9.998   6.323 -1.8634  0.2686  2.0334
  262MOL0     H36113   7.376   9.874   6.195 -0.8102 -0.4419  1.1415
  262MOL0     H36114   7.556   9.877   6.004 -0.5005  1.8968  0.0399
  262MOL0     H36115   7.733   9.762   5.932 -0.7461  0.5784  2.4365
  262MOL0     H36116   7.896   9.763   6.011  1.2823  2.4656  2.3412
  262MOL0     H36117   7.857   9.868   5.870 -0.3589  3.2089  1.1384
  262MOL0     H36118   8.216  10.237   5.896  3.0439  0.6465 -1.5764
  262MOL0     H36119   8.454  10.196   5.891  0.9739 -2.8685  0.3760
  262MOL0     H36120   8.670  10.303   6.033  0.6851  2.2258  1.8909
  262MOL0     H36121   8.593  10.328   6.179 -2.2582 -1.0203 -2.2796
  262MOL0     H36122   8.787  10.228   6.300 -2.8219  0.1501 -0.2463
  262MOL0     H36123   8.857  10.192   6.136 -1.2047  0.0560 -0.6751
  262MOL0     H36124   8.821  10.453   6.272 -1.1071 -2.2077  1.4322
  262MOL0     H36125   8.863  10.446   6.098  1.7418 -0.5501 -0.7844
  262MOL0     H36126   9.074  10.313   6.171 -1.0099  0.1278 -1.1070
  262MOL0     H36127   9.022  10.331   6.337 -1.6589 -0.3796  0.5746
  262MOL0     H36128   9.056  10.590   6.187  3.3791  0.1863 -1.2361
  262MOL0     H36129   9.068  10.567   6.352 -0.3286  1.9263 -0.3624
  262MOL0     H36130   9.273  10.461   6.147  0.4996 -2.3541  1.9738
  262MOL0     H36131   9.290  10.450   6.319 -1.6801 -0.1280  0.9176
  262MOL0     H36132   9.309  10.706   6.332  2.0536  0.2415  0.8027
  262MOL0     H36133   9.235  10.702   6.175  0.6945  0.0555 -0.6156
  262MOL0     H36134   9.429  10.638   6.070  2.0670 -1.1367 -0.2512
  262MOL0     H36135   9.497  10.574   6.229 -0.2910  0.7460  1.2734
  262MOL0     H36136   8.452  10.106   6.310  0.5436  0.2203 -0.4826
  262MOL0     H36137   8.206  10.122   6.311 -2.8689 -0.1493 -1.2092
  262MOL0     H36138   7.839  10.217   6.233  3.6367 -2.2253 -0.2573
  262MOL0     H36139   7.580  10.221   6.245  1.2516  0.5810 -1.4104
  262MOL0     H36140   5.715   9.297   6.823  1.0534 -0.3266  0.3727
  262MOL0     H36141   5.548   9.218   6.662 -0.3783 -0.5753 -0.7452
  262MOL0     H36142   5.369   9.241   6.259 -1.0557 -2.9262  0.9489
  262MOL0     H36143   5.243   9.310   6.062  0.3438  1.4812  1.8635
  262MOL0     H36144   5.467   9.397   5.751  0.3072 -0.3912  0.4214
  262MOL0     H36145   5.347   9.340   5.640 -0.2427  0.1688 -0.5450
  262MOL0     H36146   5.309   9.579   5.707 -1.2150 -1.7518 -2.2185
  262MOL0     H36147   5.294   9.526   5.874 -0.3861  0.3496 -0.5778
  262MOL0     H36148   5.097   9.562   5.689  3.8379  1.6310 -0.4871
  262MOL0     H36149   5.108   9.379   5.706  1.1546  1.4183 -0.4531
  262MOL0     H36150   5.047   9.387   5.938 -1.6032 -0.6912  0.1140
  262MOL0     H36151   4.922   9.475   5.850  0.7627  0.2807  0.2110
  262MOL0     H36152   5.106   9.782   6.090 -2.5384 -1.2633  1.9799
  262MOL0     H36153   5.573   9.201   5.817  0.8439  1.8390  1.1178
  262MOL0     H36154   5.812   9.164   6.086 -1.2101 -0.1646  0.7211
  262MOL0     H36155   5.760   9.025   5.989  0.8726  0.1091 -0.6626
  262MOL0     H36156   5.795   9.178   5.906  1.1356 -1.5619 -0.2793
  263MOL0     O36157   3.851   1.215   3.947 -0.0738 -0.6452 -0.1672
  263MOL0     C36158   3.748   1.176   3.896  0.1981  0.5603 -0.3544
  263MOL0     O36159   3.736   1.092   3.783  0.3637 -0.0618  0.5708
  263MOL0     C36160   3.852   1.057   3.715 -0.0823  0.5782  0.3380
  263MOL0     C36161   3.955   1.142   3.683  0.5282 -0.4004 -0.0631
  263MOL0     C36162   4.074   1.098   3.622 -0.1588 -0.3912  0.3016
  263MOL0     C36163   4.073   0.960   3.584 -0.2132 -0.0984 -0.4865
  263MOL0     O36164   4.180   0.926   3.508 -0.0854 -0.0098 -0.2613
  263MOL0     C36165   4.202   0.787   3.497 -0.6614  0.5584  0.0027
  263MOL0     C36166   4.338   0.775   3.436  0.8100  0.4742  0.1601
  263MOL0     C36167   4.369   0.876   3.323 -0.2641  0.1824  0.0113
  263MOL0     C36168   4.504   0.829   3.259  0.3092 -0.6745  0.0777
  263MOL0     C36169   4.515   0.896   3.120  0.0950 -0.0025  0.3885
  263MOL0     C36170   4.654   0.853   3.066 -0.0272 -0.0505  0.2834
  263MOL0     C36171   4.700   0.963   2.956 -0.4962  1.2553  0.0234
  263MOL0     C36172   4.823   0.921   2.884 -0.3813  0.6515  0.2073
  263MOL0     N36173   4.905   1.032   2.832 -0.6058  0.6132 -0.2904
  263MOL0     C36174   4.985   1.108   2.910  0.3485  0.2343  0.0830
  263MOL0     C36175   5.047   1.196   2.820  0.3150 -0.1049  0.5826
  263MOL0     C36176   5.125   1.324   2.857  0.2995 -0.3165 -1.5589
  263MOL0     C36177   5.251   1.348   2.763  0.2442  1.0676 -0.7937
  263MOL0     C36178   5.327   1.464   2.827 -0.4726 -0.3563  0.4224
  263MOL0     C36179   5.397   1.548   2.717  0.7134  0.5041 -0.2029
  263MOL0     O36180   5.481   1.465   2.634 -0.8210 -0.0932 -0.5538
  263MOL0     C36181   5.585   1.525   2.564  0.4219  0.1600 -0.0957
  263MOL0     C36182   5.610   1.661   2.543 -0.3381 -0.2508  0.0705
  263MOL0     C36183   5.727   1.712   2.486 -0.0219 -0.4784  0.7214
  263MOL0     C36184   5.751   1.862   2.474  0.5455 -1.0260  0.2531
  263MOL0     C36185   5.823   1.624   2.429 -0.3309  0.3730  0.2592
  263MOL0     C36186   5.953   1.658   2.355 -0.1588  0.2759 -0.1314
  263MOL0     O36187   6.011   1.555   2.296 -0.2726 -0.6524 -0.5628
  263MOL0     C36188   6.124   1.572   2.224  0.4073 -0.2974 -0.1092
  263MOL0     C36189   6.238   1.643   2.266 -0.2737  0.1723 -0.5761
  263MOL0     C36190   6.347   1.634   2.188  0.5272  0.2479 -0.5582
  263MOL0     C36191   6.351   1.572   2.066 -0.8841 -0.4611  0.0288
  263MOL0     O36192   6.446   1.577   1.972 -0.9690 -0.0865  0.1285
  263MOL0     C36193   6.580   1.608   2.021  0.5774  0.5026 -0.0037
  263MOL0     C36194   6.674   1.590   1.902 -0.6450 -0.8025  0.3033
  263MOL0     C36195   6.808   1.595   1.956 -0.2716  0.1473 -0.1083
  263MOL0     C36196   6.929   1.589   1.849 -0.7920  0.3539  0.4207
  263MOL0     C36197   7.071   1.613   1.904 -0.7465  0.0603  0.1615
  263MOL0     C36198   7.175   1.570   1.803 -0.4653 -0.6282 -0.2652
  263MOL0     C36199   7.315   1.620   1.825 -0.1234 -0.1272 -0.0965
  263MOL0     C36200   7.388   1.594   1.959 -0.1319  0.0895 -0.1512
  263MOL0    Cl36201   7.571   1.576   1.940  0.2496 -0.0694 -0.4668
  263MOL0     C36202   6.241   1.502   2.023  0.3876  0.2595 -0.0463
  263MOL0     C36203   6.126   1.504   2.104  0.2255  1.1138 -0.1250
  263MOL0     O36204   6.003   1.761   2.381 -0.0214  0.2961 -0.1971
  263MOL0     C36205   5.795   1.487   2.439 -0.3960  0.0213  0.3646
  263MOL0     C36206   5.673   1.437   2.499 -0.6092  0.0472  0.6182
  263MOL0     N36207   4.997   1.171   2.692 -0.1964  0.1004 -0.1460
  263MOL0     N36208   4.916   1.063   2.704  0.7535  0.0143 -0.8512
  263MOL0     C36209   3.971   0.873   3.625  0.5859 -0.3192  0.4412
  263MOL0     C36210   3.856   0.919   3.694  0.3737  0.2486  0.1111
  263MOL0     C36211   3.626   1.219   3.959  0.3178 -0.1153  0.3578
  263MOL0     C36212   3.502   1.154   3.933  0.1591  0.5859  0.6147
  263MOL0     C36213   3.378   1.202   3.972 -0.5988 -0.5320 -0.2240
  263MOL0     C36214   3.375   1.307   4.059 -0.1636  0.1472  0.1648
  263MOL0     O36215   3.275   1.346   4.141  0.1003  0.1039 -0.2010
  263MOL0     C36216   3.146   1.332   4.085 -0.7152  1.1727  0.7896
  263MOL0     C36217   3.036   1.393   4.170  0.2806 -0.5154 -0.0678
  263MOL0     C36218   2.894   1.353   4.149 -0.1650 -0.4235 -0.1789
  263MOL0     C36219   2.874   1.202   4.121  0.7101 -0.2472  0.0734
  263MOL0     C36220   2.936   1.122   4.222 -0.5777  0.5659 -0.0630
  263MOL0     C36221   2.980   1.044   4.300 -0.8716  0.5073 -0.0338
  263MOL0     C36222   3.497   1.363   4.092 -0.1952 -0.7887  0.2710
  263MOL0     C36223   3.624   1.338   4.039 -0.2203  0.1956 -0.2487
  263MOL0     C36224   3.742   1.427   4.076  0.9013  0.0593 -0.5436
  263MOL0     H36225   3.939   1.247   3.703 -0.1442 -0.3579 -0.7797
  263MOL0     H36226   4.156   1.161   3.591  1.1448 -0.9856  2.3473
  263MOL0     H36227   4.135   0.735   3.429  3.5533 -2.8135 -2.0062
  263MOL0     H36228   4.189   0.735   3.593 -0.7940  2.9565  1.3854
  263MOL0     H36229   4.413   0.793   3.513  1.8751 -0.0099 -0.7387
  263MOL0     H36230   4.340   0.674   3.394 -0.9229  0.2982  0.4153
  263MOL0     H36231   4.289   0.877   3.249 -0.2215 -1.2546 -0.0792
  263MOL0     H36232   4.388   0.970   3.377 -2.0390 -0.4457  1.8525
  263MOL0     H36233   4.594   0.853   3.316 -0.4908  0.0887  1.0463
  263MOL0     H36234   4.498   0.720   3.253 -0.2181 -0.6609  0.3001
  263MOL0     H36235   4.511   1.005   3.128  0.6636 -0.0631  1.7487
  263MOL0     H36236   4.433   0.864   3.055 -0.2513  0.8606  0.3977
  263MOL0     H36237   4.725   0.864   3.149  0.1802  0.0100  0.0989
  263MOL0     H36238   4.658   0.752   3.025  1.5673 -0.4567  1.3382
  263MOL0     H36239   4.724   1.057   3.008  1.7376  0.9113 -0.2825
  263MOL0     H36240   4.617   0.975   2.886  0.8824  0.5014 -1.8146
  263MOL0     H36241   4.878   0.854   2.952  0.3035  0.3955 -0.5915
  263MOL0     H36242   4.785   0.866   2.798  0.2603  1.5347 -0.6493
  263MOL0     H36243   5.014   1.106   3.014  2.0056  1.5333 -0.3211
  263MOL0     H36244   5.153   1.307   2.961  1.1404  0.3774 -1.6596
  263MOL0     H36245   5.053   1.406   2.847  0.6102 -0.0902 -1.9826
  263MOL0     H36246   5.312   1.258   2.769  1.3836  1.8094 -0.9479
  263MOL0     H36247   5.220   1.377   2.663  0.2982  1.8569 -0.5935
  263MOL0     H36248   5.260   1.531   2.881  0.0800 -1.0035  1.9779
  263MOL0     H36249   5.405   1.434   2.898 -0.6549  2.8704  2.1804
  263MOL0     H36250   5.317   1.581   2.650 -0.7473 -4.0436 -1.0521
  263MOL0     H36251   5.436   1.642   2.757  1.4107 -0.8626  2.5547
  263MOL0     H36252   5.542   1.738   2.577  1.4905  0.2770  2.8999
  263MOL0     H36253   5.824   1.896   2.548  0.5931  0.8599 -0.6026
  263MOL0     H36254   5.653   1.904   2.500 -1.1445 -3.4418 -1.7024
  263MOL0     H36255   5.775   1.884   2.370 -1.7281  2.3402  0.2809
  263MOL0     H36256   6.245   1.705   2.355 -2.2036  1.0056 -0.9499
  263MOL0     H36257   6.435   1.682   2.227  0.7919 -1.7296  1.4354
  263MOL0     H36258   6.585   1.711   2.058  2.2016 -0.0064  1.2944
  263MOL0     H36259   6.613   1.543   2.102  2.6567 -2.2468 -2.8178
  263MOL0     H36260   6.656   1.495   1.851 -0.9241  0.0273 -1.1904
  263MOL0     H36261   6.660   1.673   1.832 -0.6611 -1.3394 -0.3396
  263MOL0     H36262   6.815   1.504   2.016  2.2022  0.2785 -0.0760
  263MOL0     H36263   6.831   1.674   2.029 -1.8993  0.5241  0.0249
  263MOL0     H36264   6.911   1.660   1.768 -1.8964  1.1093  1.2914
  263MOL0     H36265   6.925   1.491   1.800  2.5298 -0.1564  0.9112
  263MOL0     H36266   7.079   1.721   1.920  2.0522  0.0696 -0.8308
  263MOL0     H36267   7.100   1.565   1.998 -2.2136  2.3361  1.8730
  263MOL0     H36268   7.147   1.606   1.704 -0.0703  0.7593  0.1044
  263MOL0     H36269   7.181   1.461   1.790 -0.1460 -1.1023  2.9470
  263MOL0     H36270   7.328   1.728   1.814  0.7691 -0.2236 -0.0343
  263MOL0     H36271   7.369   1.569   1.745  0.4360 -3.2211  2.0776
  263MOL0     H36272   7.348   1.503   2.004 -0.7226  1.1409  1.5703
  263MOL0     H36273   7.363   1.677   2.025 -1.2499 -0.2684 -0.1054
  263MOL0     H36274   6.240   1.449   1.928  1.3695 -2.8729  1.5374
  263MOL0     H36275   6.038   1.455   2.065  0.8006 -0.5476  0.5590
  263MOL0     H36276   5.861   1.409   2.404  0.4710  1.0472 -0.3480
  263MOL0     H36277   5.652   1.330   2.504  3.6129 -1.2047 -2.5512
  263MOL0     H36278   3.970   0.767   3.602  0.1374 -0.8374  2.6158
  263MOL0     H36279   3.771   0.856   3.717  0.5406  0.2619  0.7825
  263MOL0     H36280   3.506   1.061   3.878  2.1488  0.3445  1.0639
  263MOL0     H36281   3.290   1.142   3.948 -0.2414 -0.9405 -0.5451
  263MOL0     H36282   3.146   1.371   3.983  0.9871  0.7503  0.6044
  263MOL0     H36283   3.135   1.224   4.078  0.9080  0.9442  1.3724
  263MOL0     H36284   3.025   1.496   4.137 -0.6924 -1.2053 -2.0404
  263MOL0     H36285   3.054   1.376   4.277  0.2385 -0.0061  0.0218
  263MOL0     H36286   2.833   1.384   4.234  0.4380 -1.8201  0.7955
  263MOL0     H36287   2.852   1.413   4.067 -0.9677  1.2872  1.4098
  263MOL0     H36288   2.928   1.179   4.029  2.0362  3.3582 -0.1923
  263MOL0     H36289   2.766   1.185   4.116  0.1030  2.4610  1.7843
  263MOL0     H36290   3.022   0.973   4.369 -1.5280 -0.5383 -0.6725
  263MOL0     H36291   3.493   1.434   4.174  2.1004 -0.0287 -0.1887
  263MOL0     H36292   3.809   1.379   4.148 -0.0220  1.1782  1.1096
  263MOL0     H36293   3.801   1.443   3.985  1.7170 -1.7303 -0.3773
  263MOL0     H36294   3.712   1.522   4.119 -0.4990 -0.1283 -1.0604
  264MOL0     O36295  10.695   6.320   5.221 -0.3391 -0.4280  0.1750
  264MOL0     C36296  10.687   6.435   5.267  0.2557  0.4806  0.2278
  264MOL0     O36297  10.793   6.507   5.314 -0.6510  0.2587  0.5353
  264MOL0     C36298  10.926   6.474   5.302 -0.5754 -0.8221  0.1539
  264MOL0     C36299  11.024   6.563   5.347 -0.0219  0.3641  0.3121
  264MOL0     C36300  11.162   6.534   5.355 -0.4599  0.1536  0.2366
  264MOL0     C36301  11.212   6.414   5.303 -0.0925  0.3673 -0.3524
  264MOL0     O36302  11.341   6.381   5.306 -1.2900 -0.1284 -0.2848
  264MOL0     C36303  11.407   6.385   5.438  0.6470 -0.0185  0.1903
  264MOL0     C36304  11.537   6.293   5.452  0.0888 -1.1661  0.9677
  264MOL0     C36305  11.654   6.348   5.375 -0.8788 -0.1032 -0.1664
  264MOL0     C36306  11.793   6.301   5.433  0.6807  0.1850 -0.2109
  264MOL0     C36307  11.915   6.368   5.364  0.2843 -0.0750  0.1977
  264MOL0     C36308  12.053   6.328   5.419 -0.0186  0.3184 -0.4360
  264MOL0     C36309  12.183   6.413   5.372  0.1616 -0.5573 -0.1552
  264MOL0     C36310  12.313   6.334   5.392  0.4438 -0.1597 -0.2022
  264MOL0     N36311  12.422   6.390   5.319  0.0967 -0.3392 -0.2742
  264MOL0     C36312  12.418   6.494   5.226  0.3903 -0.8995 -0.5176
  264MOL0     C36313  12.541   6.540   5.211  0.3359 -0.0397 -0.4489
  264MOL0     C36314  12.586   6.659   5.118 -0.5632  0.7723  0.0719
  264MOL0     C36315  12.703   6.622   5.025  0.7443 -0.3092  0.4669
  264MOL0     C36316  12.740   6.740   4.946 -0.4432  0.2820  0.1139
  264MOL0     C36317  12.838   6.709   4.834  0.2606  0.1081 -0.4499
  264MOL0     O36318  12.874   6.833   4.768  0.1534  0.4970  0.0756
  264MOL0     C36319  12.980   6.904   4.809 -0.1751 -0.2643  0.4488
  264MOL0     C36320  13.013   7.020   4.741 -1.1447 -0.1745 -1.2719
  264MOL0     C36321  13.105   7.113   4.796  0.2838 -0.5369 -0.8508
  264MOL0     C36322  13.104   7.258   4.736  0.4953 -0.2679 -0.2316
  264MOL0     C36323  13.192   7.065   4.903  0.0065 -0.4699 -0.1137
  264MOL0     C36324  13.302   7.146   4.966 -0.5046  0.1825 -0.3935
  264MOL0     O36325  13.402   7.077   5.029  0.1767  0.0021  0.3909
  264MOL0     C36326  13.511   7.156   5.060 -0.9512 -0.4289 -0.0113
  264MOL0     C36327  13.565   7.131   5.187 -0.5387  0.0648  0.1133
  264MOL0     C36328  13.677   7.209   5.222  0.0559 -0.0298 -0.0349
  264MOL0     C36329  13.743   7.299   5.133 -0.4887  0.2931 -0.0792
  264MOL0     O36330  13.853   7.361   5.176 -0.6153 -0.1401  0.0943
  264MOL0     C36331  13.905   7.462   5.088  0.0500  0.1592 -0.2303
  264MOL0     C36332  14.017   7.546   5.155 -0.6930  0.5783 -0.1732
  264MOL0     C36333  14.148   7.465   5.153  0.3117 -0.3199  0.1165
  264MOL0     C36334  14.164   7.362   5.265  0.6959  0.6389 -0.3600
  264MOL0     C36335  14.304   7.324   5.315  0.3373 -0.1971 -1.1635
  264MOL0     C36336  14.368   7.231   5.217 -0.0861  1.0513 -0.1528
  264MOL0     C36337  14.511   7.188   5.255  0.0287 -0.2569  0.0984
  264MOL0     C36338  14.606   7.293   5.193 -0.2650  1.2527 -0.7412
  264MOL0    Cl36339  14.777   7.238   5.225 -0.5153 -0.1005 -0.0425
  264MOL0     C36340  13.685   7.318   5.010 -0.3672 -0.1473  0.4898
  264MOL0     C36341  13.571   7.249   4.968 -0.2410  0.2511  0.2105
  264MOL0     O36342  13.297   7.268   4.950 -0.1591 -0.1905 -0.8376
  264MOL0     C36343  13.165   6.935   4.952 -0.2093 -0.8041  0.2587
  264MOL0     C36344  13.050   6.868   4.927  0.6930  0.2997 -0.8108
  264MOL0     N36345  12.625   6.470   5.290 -0.2781  0.0585  0.1969
  264MOL0     N36346  12.554   6.384   5.356 -0.4629 -0.3544  0.4735
  264MOL0     C36347  11.118   6.336   5.244 -0.0668 -0.0228 -0.4580
  264MOL0     C36348  10.982   6.354   5.248  0.4008  0.0225  0.8640
  264MOL0     C36349  10.555   6.483   5.279 -0.2377 -0.0593 -0.7264
  264MOL0     C36350  10.452   6.387   5.242 -0.2556 -0.6158  0.9295
  264MOL0     C36351  10.321   6.419   5.263 -0.1290  0.2345 -0.0720
  264MOL0     C36352  10.287   6.534   5.330  1.0551  0.0469 -0.0468
  264MOL0     O36353  10.165   6.567   5.389 -0.4357 -0.0516 -0.0301
  264MOL0     C36354  10.065   6.466   5.405 -0.3171 -0.0481 -0.3858
  264MOL0     C36355   9.918   6.513   5.444 -0.0787 -0.1416  0.1257
  264MOL0     C36356   9.806   6.408   5.443  0.3998  0.7782 -0.5309
  264MOL0     C36357   9.811   6.311   5.568  0.2316 -0.7980 -0.3809
  264MOL0     C36358   9.711   6.215   5.547  0.1832  0.8756 -0.4007
  264MOL0     C36359   9.640   6.119   5.537 -0.0514 -0.7070  0.4541
  264MOL0     C36360  10.381   6.630   5.356 -0.6775  0.1052  0.3660
  264MOL0     C36361  10.523   6.611   5.340 -0.5079  0.7140  0.0634
  264MOL0     C36362  10.623   6.713   5.398  1.2065 -0.8022 -0.2874
  264MOL0     H36363  10.987   6.658   5.385 -2.0139  0.4650 -1.6350
  264MOL0     H36364  11.231   6.599   5.407  1.7267 -0.1504 -2.0844
  264MOL0     H36365  11.334   6.350   5.512 -0.7671 -0.9978 -1.5934
  264MOL0     H36366  11.432   6.490   5.452 -2.4673  0.8086  0.2014
  264MOL0     H36367  11.567   6.291   5.557  0.3553  0.7524  0.9764
  264MOL0     H36368  11.508   6.197   5.410  0.0332 -0.6324 -0.2621
  264MOL0     H36369  11.638   6.322   5.270 -3.4443  0.4347  0.0202
  264MOL0     H36370  11.658   6.457   5.378 -0.4467 -0.1305  1.5726
  264MOL0     H36371  11.791   6.320   5.541 -0.0485 -0.6833 -0.0577
  264MOL0     H36372  11.800   6.192   5.426 -1.5775 -0.4890  4.4493
  264MOL0     H36373  11.903   6.473   5.393 -0.7782 -0.2869  0.5696
  264MOL0     H36374  11.921   6.359   5.255 -0.0823 -3.1330  0.3434
  264MOL0     H36375  12.051   6.321   5.529  1.2075 -0.7745 -0.4589
  264MOL0     H36376  12.069   6.225   5.386 -0.9869  0.1749 -0.4752
  264MOL0     H36377  12.181   6.508   5.426 -3.3803  1.1155 -2.8301
  264MOL0     H36378  12.166   6.441   5.268  2.9798 -0.7907 -0.7379
  264MOL0     H36379  12.322   6.325   5.501 -0.5769  2.0349  0.1155
  264MOL0     H36380  12.299   6.231   5.360  3.0333 -0.1073 -1.8265
  264MOL0     H36381  12.332   6.523   5.167 -1.0788 -1.0360  1.4527
  264MOL0     H36382  12.600   6.747   5.182 -0.5900 -0.3465  1.6980
  264MOL0     H36383  12.497   6.681   5.060 -2.7340 -2.4471  1.8870
  264MOL0     H36384  12.789   6.587   5.082 -0.0531 -0.0914  1.8597
  264MOL0     H36385  12.657   6.545   4.961 -0.0804 -0.0095  0.6899
  264MOL0     H36386  12.648   6.786   4.908  0.4548  0.7447 -1.6546
  264MOL0     H36387  12.790   6.816   5.007  0.0061  2.4350 -2.6651
  264MOL0     H36388  12.921   6.651   4.874  0.3060  0.8467  0.5873
  264MOL0     H36389  12.796   6.634   4.766  0.4036 -1.0237  0.6791
  264MOL0     H36390  12.949   7.038   4.655  0.2231 -0.3595 -2.3509
  264MOL0     H36391  13.041   7.264   4.647  2.0023 -0.0630 -1.3272
  264MOL0     H36392  13.201   7.294   4.702 -0.0832  0.7263 -0.8848
  264MOL0     H36393  13.059   7.325   4.810 -2.4304 -1.2197 -0.9945
  264MOL0     H36394  13.520   7.062   5.257 -1.6833  0.7494  0.0722
  264MOL0     H36395  13.714   7.190   5.322 -0.9511 -1.4554  0.0985
  264MOL0     H36396  13.944   7.415   4.998 -0.1350 -0.7067  0.1290
  264MOL0     H36397  13.826   7.535   5.065  0.6173  1.0588  0.5844
  264MOL0     H36398  14.013   7.636   5.093 -0.8043  1.1158  0.5934
  264MOL0     H36399  14.004   7.572   5.261 -0.8394 -0.5676  0.1024
  264MOL0     H36400  14.232   7.535   5.148  1.9915 -2.3253 -1.2625
  264MOL0     H36401  14.160   7.417   5.055  2.1017  1.4753 -0.6192
  264MOL0     H36402  14.110   7.276   5.224  2.5218 -0.2957 -0.9170
  264MOL0     H36403  14.113   7.406   5.351  0.4920 -0.2096 -0.0329
  264MOL0     H36404  14.356   7.419   5.327  0.7487 -0.3817 -1.4665
  264MOL0     H36405  14.302   7.266   5.408  1.7907  0.8413 -0.4447
  264MOL0     H36406  14.368   7.271   5.116  0.9702  0.5576 -0.3599
  264MOL0     H36407  14.300   7.145   5.216 -1.3012  1.9775 -0.1994
  264MOL0     H36408  14.534   7.092   5.208  0.5969  0.1809 -0.5380
  264MOL0     H36409  14.522   7.164   5.361 -0.0962  0.0870  0.1911
  264MOL0     H36410  14.589   7.394   5.230  1.8740  1.3471  0.1469
  264MOL0     H36411  14.586   7.308   5.086 -1.1999  0.0035 -0.7582
  264MOL0     H36412  13.730   7.379   4.932  0.9922  1.5806  2.5275
  264MOL0     H36413  13.537   7.283   4.870  0.2329  2.7964  0.8639
  264MOL0     H36414  13.215   6.911   5.045 -1.5837 -0.2857  1.1541
  264MOL0     H36415  13.036   6.785   4.996  2.0421  0.3408 -0.4685
  264MOL0     H36416  11.150   6.243   5.197 -1.7257 -1.4925  1.1171
  264MOL0     H36417  10.930   6.275   5.194 -0.4691  1.5943 -0.7295
  264MOL0     H36418  10.462   6.286   5.203 -0.8780  0.0452 -1.0276
  264MOL0     H36419  10.254   6.343   5.225 -0.3872 -0.2097  1.2025
  264MOL0     H36420  10.058   6.403   5.316 -2.0604 -0.2284 -0.1536
  264MOL0     H36421  10.104   6.395   5.479  0.0330  0.0162 -0.5079
  264MOL0     H36422   9.894   6.583   5.364  1.7354  0.1223 -0.2140
  264MOL0     H36423   9.940   6.569   5.536  3.9399  1.2730 -1.4863
  264MOL0     H36424   9.705   6.450   5.437 -1.0963 -2.4109 -0.1065
  264MOL0     H36425   9.817   6.333   5.364 -0.5730 -0.5355  0.5356
  264MOL0     H36426   9.785   6.372   5.655 -0.8088  1.8630 -2.4166
  264MOL0     H36427   9.910   6.266   5.584  1.1151  1.4839  1.1461
  264MOL0     H36428   9.586   6.030   5.509 -0.1260  0.7594 -5.5113
  264MOL0     H36429  10.343   6.724   5.394 -0.0260  0.7892 -0.6174
  264MOL0     H36430  10.691   6.734   5.315  1.9033  0.3068  0.5354
  264MOL0     H36431  10.580   6.810   5.423  0.2818 -0.3203 -3.2759
  264MOL0     H36432  10.674   6.691   5.492 -2.6455 -0.3768  2.1130
  265MOL0     O36433   4.351   5.153   0.349  0.2042 -0.4494 -0.3372
  265MOL0     C36434   4.280   5.259   0.346 -0.3393 -0.4966 -0.3761
  265MOL0     O36435   4.201   5.301   0.241  0.3450  0.1485 -0.0618
  265MOL0     C36436   4.180   5.227   0.131  0.7982 -0.3416 -0.3295
  265MOL0     C36437   4.163   5.090   0.123  0.1369  0.2561 -0.3395
  265MOL0     C36438   4.155   5.015   0.005 -0.1791 -0.4169  0.1346
  265MOL0     C36439   4.150   5.089  -0.112 -0.5385 -0.1153  0.2091
  265MOL0     O36440   4.168   5.040  -0.239  0.1683 -0.1378 -0.2475
  265MOL0     C36441   4.107   4.919  -0.268 -0.0285 -0.5556  0.5864
  265MOL0     C36442   4.055   4.912  -0.411 -0.5598 -0.3588  0.0842
  265MOL0     C36443   3.995   5.036  -0.471  0.5057 -0.2283 -0.5536
  265MOL0     C36444   3.867   5.086  -0.404 -1.5392  0.2162  0.3489
  265MOL0     C36445   3.813   5.214  -0.475 -0.4799 -0.2350 -1.4164
  265MOL0     C36446   3.906   5.331  -0.488 -0.4673 -0.5006  0.1769
  265MOL0     C36447   3.843   5.458  -0.542  1.0430 -0.3525 -0.0523
  265MOL0     C36448   3.737   5.511  -0.444 -1.1082 -0.1535  0.9013
  265MOL0     N36449   3.654   5.610  -0.520  0.0684  0.1766  0.8724
  265MOL0     C36450   3.676   5.743  -0.518 -0.1071  0.1045  0.7352
  265MOL0     C36451   3.589   5.788  -0.611 -0.1250  0.3942  0.5691
  265MOL0     C36452   3.574   5.940  -0.637 -0.2980 -0.2328 -0.2803
  265MOL0     C36453   3.695   5.998  -0.716  0.2500 -0.3177 -0.0106
  265MOL0     C36454   3.742   5.911  -0.834 -0.3600  0.7309  0.2660
  265MOL0     C36455   3.875   5.947  -0.910  0.2360 -0.5794  0.0426
  265MOL0     O36456   3.985   5.941  -0.821  0.1562  0.2165 -0.6685
  265MOL0     C36457   4.043   5.826  -0.791 -0.7264 -0.0669 -1.5164
  265MOL0     C36458   4.020   5.705  -0.848 -0.1254 -0.9681  1.5132
  265MOL0     C36459   4.093   5.589  -0.831 -1.3829 -0.2290 -0.4652
  265MOL0     C36460   4.047   5.479  -0.922  0.3456  0.3392  0.4798
  265MOL0     C36461   4.202   5.591  -0.738 -0.9003  0.1298 -0.2634
  265MOL0     C36462   4.297   5.480  -0.708 -0.0054  0.0052  0.5330
  265MOL0     O36463   4.369   5.480  -0.587 -0.5861  0.4424  0.9766
  265MOL0     C36464   4.425   5.368  -0.538  0.0069  0.5576 -0.2883
  265MOL0     C36465   4.539   5.376  -0.465  0.2320  0.5787 -0.1692
  265MOL0     C36466   4.589   5.272  -0.381  0.3305 -0.0773 -0.2338
  265MOL0     C36467   4.520   5.154  -0.382  0.4248 -0.4761 -0.6759
  265MOL0     O36468   4.559   5.046  -0.315 -0.1102  0.2439  0.2331
  265MOL0     C36469   4.551   5.055  -0.169 -0.4480 -1.1775 -0.3124
  265MOL0     C36470   4.646   4.960  -0.096  0.1489 -0.3546  0.4656
  265MOL0     C36471   4.799   4.994  -0.110  0.4670 -0.1836 -0.0161
  265MOL0     C36472   4.865   4.966   0.019 -0.6663  0.8024 -0.3266
  265MOL0     C36473   5.016   4.996   0.013 -0.4284  0.2249  0.2130
  265MOL0     C36474   5.099   4.981   0.139 -0.4175 -0.1957  0.7724
  265MOL0     C36475   5.241   5.042   0.124 -0.3632  0.1415 -0.0434
  265MOL0     C36476   5.325   4.997   0.244 -0.0523  0.1429  0.7824
  265MOL0    Cl36477   5.495   5.063   0.223  0.0340 -0.0532  0.2920
  265MOL0     C36478   4.403   5.144  -0.457 -0.5174  0.2505 -0.0819
  265MOL0     C36479   4.353   5.249  -0.522 -0.5721  0.1045  0.3794
  265MOL0     O36480   4.285   5.380  -0.784  0.2047  0.6685 -0.5114
  265MOL0     C36481   4.213   5.710  -0.661  0.3812 -0.2192 -0.0471
  265MOL0     C36482   4.143   5.825  -0.687  0.4076  0.8634  0.6016
  265MOL0     N36483   3.513   5.688  -0.654  0.4505 -0.3994  0.7901
  265MOL0     N36484   3.538   5.581  -0.588  0.3463  0.1961 -0.2759
  265MOL0     C36485   4.143   5.233  -0.106  0.9123  0.1475 -0.2578
  265MOL0     C36486   4.154   5.297   0.017 -0.8717 -0.4941 -0.6761
  265MOL0     C36487   4.286   5.347   0.470 -0.2109  0.4531  0.3401
  265MOL0     C36488   4.184   5.444   0.474  0.7133  0.2889  0.0097
  265MOL0     C36489   4.165   5.528   0.590 -0.7061 -0.4853  0.1875
  265MOL0     C36490   4.236   5.517   0.701  0.2725 -0.5205 -0.9561
  265MOL0     O36491   4.204   5.599   0.814  0.0442 -0.2731 -0.2829
  265MOL0     C36492   4.303   5.620   0.912 -0.0573  0.0211 -0.7376
  265MOL0     C36493   4.282   5.523   1.030 -0.4972 -0.2089  0.0544
  265MOL0     C36494   4.173   5.567   1.131 -0.4198  0.6843  0.1075
  265MOL0     C36495   4.137   5.463   1.233  0.5755  0.2428 -0.2204
  265MOL0     C36496   4.240   5.458   1.339 -0.6501 -0.1427 -0.1068
  265MOL0     C36497   4.324   5.482   1.424  0.5963  0.7692  0.1578
  265MOL0     C36498   4.338   5.421   0.692  0.6088 -0.3905 -0.2377
  265MOL0     C36499   4.369   5.336   0.580 -0.2511  0.0606 -0.1724
  265MOL0     C36500   4.484   5.242   0.593 -0.0551 -0.5977  0.3618
  265MOL0     H36501   4.171   5.030   0.213  2.5007  0.1210 -0.5757
  265MOL0     H36502   4.157   4.907   0.008 -1.9593 -0.5254 -1.3911
  265MOL0     H36503   4.017   4.907  -0.208  0.2027 -0.7723  0.8941
  265MOL0     H36504   4.169   4.833  -0.242 -3.0708 -3.1906 -0.2046
  265MOL0     H36505   4.146   4.890  -0.467 -0.0551  0.7980  0.4217
  265MOL0     H36506   3.991   4.824  -0.426  0.1749 -1.3492  2.3807
  265MOL0     H36507   4.076   5.109  -0.481  0.8388 -0.8825 -3.4033
  265MOL0     H36508   3.963   5.008  -0.571 -1.2497  1.2506 -0.4646
  265MOL0     H36509   3.792   5.008  -0.416 -1.8031  0.4912  0.1754
  265MOL0     H36510   3.892   5.097  -0.298 -0.5397 -1.8039  0.3672
  265MOL0     H36511   3.725   5.246  -0.419  0.9406  1.1468  0.1241
  265MOL0     H36512   3.787   5.176  -0.574 -0.0120 -1.2452 -1.1636
  265MOL0     H36513   3.942   5.354  -0.387  1.4809 -1.1852 -0.3078
  265MOL0     H36514   3.997   5.301  -0.542  0.9076 -1.9890  3.0935
  265MOL0     H36515   3.799   5.433  -0.638  1.1967 -0.3816 -0.1163
  265MOL0     H36516   3.909   5.543  -0.564  0.3700  0.2447  0.1832
  265MOL0     H36517   3.673   5.437  -0.396  1.2327 -1.0245  2.8371
  265MOL0     H36518   3.787   5.561  -0.361  1.2535  0.1615 -0.5978
  265MOL0     H36519   3.753   5.789  -0.456  1.0639 -0.0877 -0.5343
  265MOL0     H36520   3.578   6.001  -0.547  4.9705  0.0110 -0.3847
  265MOL0     H36521   3.484   5.961  -0.696 -1.4930  0.1025  1.5698
  265MOL0     H36522   3.680   6.098  -0.759 -0.9406 -1.1401 -1.5989
  265MOL0     H36523   3.776   6.005  -0.643 -1.1397  1.4613  1.4523
  265MOL0     H36524   3.750   5.806  -0.804 -2.0426  0.5561  0.1727
  265MOL0     H36525   3.666   5.901  -0.911  1.6646 -0.7309 -1.6809
  265MOL0     H36526   3.889   5.883  -0.998  0.9382 -1.0456  0.4892
  265MOL0     H36527   3.854   6.049  -0.944  0.9538 -0.6582 -0.6746
  265MOL0     H36528   3.943   5.699  -0.924  1.4759  0.6159 -0.3163
  265MOL0     H36529   4.052   5.383  -0.870  0.2373 -1.2554 -2.2832
  265MOL0     H36530   4.113   5.471  -1.009  1.1281  1.4478  0.9571
  265MOL0     H36531   3.951   5.503  -0.969  1.0567  0.8432 -0.7560
  265MOL0     H36532   4.597   5.466  -0.450 -0.6321  1.4423 -1.6927
  265MOL0     H36533   4.685   5.280  -0.330  0.8029  0.0618 -1.1263
  265MOL0     H36534   4.559   5.159  -0.135  3.8513 -0.8902 -1.6005
  265MOL0     H36535   4.450   5.030  -0.135 -1.5960  1.0786 -1.7992
  265MOL0     H36536   4.616   4.947   0.008  0.8965  4.5406  1.5208
  265MOL0     H36537   4.631   4.864  -0.148 -2.0932  0.3394 -0.2860
  265MOL0     H36538   4.801   5.100  -0.138  0.8815  0.1666  1.2519
  265MOL0     H36539   4.853   4.952  -0.195  2.7451 -0.0270  1.2856
  265MOL0     H36540   4.849   4.864   0.056  2.7741  0.7762  1.5859
  265MOL0     H36541   4.828   5.032   0.098  1.8168  2.0873 -0.1182
  265MOL0     H36542   5.060   4.927  -0.060  2.5871 -0.2729  2.3448
  265MOL0     H36543   5.004   5.101  -0.017 -2.2485  0.6302  2.1545
  265MOL0     H36544   5.092   4.875   0.162 -0.9446 -0.2319  0.4588
  265MOL0     H36545   5.048   5.040   0.217  0.6106  0.4405  0.9882
  265MOL0     H36546   5.233   5.151   0.114 -1.7928 -0.1120 -2.4776
  265MOL0     H36547   5.294   5.010   0.033 -1.2226 -0.8928 -0.1964
  265MOL0     H36548   5.316   4.889   0.254 -0.6578  0.0389 -0.6759
  265MOL0     H36549   5.274   5.037   0.333  2.2610  1.1939  1.7059
  265MOL0     H36550   4.340   5.055  -0.454  0.1178 -0.1974  2.7067
  265MOL0     H36551   4.256   5.258  -0.570 -0.9281  1.4163  1.3019
  265MOL0     H36552   4.296   5.714  -0.591  2.4292 -0.8984 -2.2918
  265MOL0     H36553   4.153   5.913  -0.624 -1.4584  0.7099  1.1723
  265MOL0     H36554   4.148   5.286  -0.201  0.0575 -0.3242 -0.5781
  265MOL0     H36555   4.145   5.405   0.027  0.7011 -0.3675 -0.4353
  265MOL0     H36556   4.121   5.454   0.387  0.7317 -0.4284 -0.0912
  265MOL0     H36557   4.080   5.596   0.583 -1.4897 -1.5522 -1.4077
  265MOL0     H36558   4.407   5.608   0.881  0.8412 -0.2081  2.0750
  265MOL0     H36559   4.291   5.726   0.937 -1.2145  0.3093 -2.3797
  265MOL0     H36560   4.375   5.510   1.087  1.4857  2.0537 -2.4344
  265MOL0     H36561   4.260   5.427   0.984  0.4851 -0.5856  0.3334
  265MOL0     H36562   4.187   5.667   1.173 -0.9010  0.4509  0.8457
  265MOL0     H36563   4.087   5.576   1.063  0.9327  0.2565 -1.7511
  265MOL0     H36564   4.129   5.373   1.172  2.5460  0.0696 -0.2606
  265MOL0     H36565   4.040   5.484   1.279  0.9184  0.0919  0.5897
  265MOL0     H36566   4.413   5.512   1.475 -0.9764  3.0002  1.7949
  265MOL0     H36567   4.405   5.397   0.774  1.6747  2.0592 -0.3032
  265MOL0     H36568   4.566   5.261   0.523  1.5058  0.7211  2.4393
  265MOL0     H36569   4.531   5.255   0.690 -1.3042 -3.3298  1.4344
  265MOL0     H36570   4.443   5.142   0.580 -1.3681  0.0517 -0.8783
  266MOL0     O36571   3.756   4.776   5.474 -0.3803  0.2806 -0.1779
  266MOL0     C36572   3.773   4.731   5.355 -0.3320 -0.1455 -1.2775
  266MOL0     O36573   3.879   4.763   5.275  0.3086 -0.3219  0.5458
  266MOL0     C36574   3.952   4.880   5.319 -0.6220 -0.3498  0.1571
  266MOL0     C36575   4.088   4.868   5.347 -0.1953  0.4981  0.2527
  266MOL0     C36576   4.160   4.980   5.391 -0.5340  0.7187  0.0389
  266MOL0     C36577   4.097   5.105   5.391 -0.6620  0.2617  0.6245
  266MOL0     O36578   4.163   5.216   5.438  0.3698  0.2562  0.3684
  266MOL0     C36579   4.284   5.243   5.369 -0.3598  0.6171  0.2641
  266MOL0     C36580   4.378   5.303   5.465  1.2036  0.2730  1.1093
  266MOL0     C36581   4.517   5.339   5.413  0.0036  0.1750 -0.0021
  266MOL0     C36582   4.568   5.458   5.485  1.0753 -0.3986 -0.5798
  266MOL0     C36583   4.709   5.482   5.432  0.2795  0.1154 -0.6293
  266MOL0     C36584   4.792   5.581   5.526 -0.1979  0.3842 -0.3403
  266MOL0     C36585   4.717   5.723   5.553 -0.5559  1.0289  0.8693
  266MOL0     C36586   4.791   5.804   5.660 -0.1329 -0.4991 -0.1443
  266MOL0     N36587   4.715   5.924   5.698 -0.7548 -0.1988  0.3631
  266MOL0     C36588   4.779   6.038   5.740 -0.1650  0.7326  0.5526
  266MOL0     C36589   4.674   6.120   5.763 -0.0450  0.3634 -0.2251
  266MOL0     C36590   4.696   6.270   5.804  0.0506 -0.4691  0.3262
  266MOL0     C36591   4.682   6.289   5.956  0.2365 -0.3783  0.0101
  266MOL0     C36592   4.532   6.302   5.995  0.1682 -0.1323  0.4810
  266MOL0     C36593   4.516   6.343   6.149 -0.0612 -0.3011  0.2940
  266MOL0     O36594   4.575   6.474   6.178  0.4624 -0.9980 -0.1402
  266MOL0     C36595   4.585   6.520   6.308 -0.5436  0.0209  0.1111
  266MOL0     C36596   4.567   6.442   6.421 -0.0106 -0.2132 -0.5400
  266MOL0     C36597   4.579   6.496   6.548 -0.8707 -0.2308  0.2668
  266MOL0     C36598   4.584   6.395   6.656 -0.4025 -0.7243 -0.6421
  266MOL0     C36599   4.609   6.636   6.565  0.6198  0.0368 -0.3435
  266MOL0     C36600   4.612   6.702   6.699  0.3735  0.3314  1.3743
  266MOL0     O36601   4.634   6.629   6.807 -0.4982  0.9740 -0.5489
  266MOL0     C36602   4.608   6.663   6.940  0.3347  0.3057  0.5811
  266MOL0     C36603   4.695   6.749   7.017  0.1516  0.3536 -0.5193
  266MOL0     C36604   4.654   6.796   7.143 -0.9433  0.3978 -0.0057
  266MOL0     C36605   4.529   6.749   7.202 -0.5584 -0.1911 -0.3043
  266MOL0     O36606   4.473   6.778   7.325  0.1739 -0.3574 -0.9180
  266MOL0     C36607   4.511   6.900   7.383  0.0300 -0.2233  0.5756
  266MOL0     C36608   4.407   6.947   7.475 -0.0771  0.8412 -0.9100
  266MOL0     C36609   4.262   6.954   7.404  0.3301  1.6287 -0.3271
  266MOL0     C36610   4.245   7.056   7.294  0.7184 -0.4173 -0.0870
  266MOL0     C36611   4.093   7.071   7.254 -0.2513  0.4038  0.0384
  266MOL0     C36612   4.070   7.158   7.128  0.0022  0.0639 -0.4634
  266MOL0     C36613   4.169   7.283   7.122  0.6767  0.4468  0.0164
  266MOL0     C36614   4.115   7.406   7.049  0.2729 -0.1215 -0.5005
  266MOL0    Cl36615   4.030   7.376   6.906 -0.0518 -0.1369  0.3712
  266MOL0     C36616   4.456   6.648   7.134 -0.6347 -0.1363 -0.4402
  266MOL0     C36617   4.496   6.602   7.000  0.2934 -0.1227 -0.4707
  266MOL0     O36618   4.591   6.824   6.697 -0.6010  0.5736  0.1635
  266MOL0     C36619   4.647   6.707   6.454 -0.0169  0.2883  0.4480
  266MOL0     C36620   4.634   6.651   6.327  0.1467  0.2207  0.2998
  266MOL0     N36621   4.554   6.062   5.733 -0.1401 -0.3742  0.5893
  266MOL0     N36622   4.583   5.941   5.695  0.1711  0.2005  0.3513
  266MOL0     C36623   3.971   5.122   5.344  0.2897 -0.8072 -0.1547
  266MOL0     C36624   3.895   5.008   5.309  0.7259  0.1968  0.6884
  266MOL0     C36625   3.656   4.650   5.302  0.2350 -0.0057 -0.0091
  266MOL0     C36626   3.561   4.600   5.396 -1.1337 -0.1894 -0.0562
  266MOL0     C36627   3.448   4.534   5.346  0.3756 -1.0163 -0.6019
  266MOL0     C36628   3.428   4.516   5.213 -0.2963  0.4677  0.0972
  266MOL0     O36629   3.316   4.456   5.160  0.5938 -0.0525  0.1014
  266MOL0     C36630   3.197   4.426   5.242 -1.1178 -0.4493 -0.0524
  266MOL0     C36631   3.134   4.549   5.314 -0.1751  1.0785 -0.4753
  266MOL0     C36632   3.035   4.491   5.421  0.3315  0.6450 -0.0410
  266MOL0     C36633   2.996   4.597   5.540 -0.8721  0.2709  0.3731
  266MOL0     C36634   2.943   4.711   5.466 -0.4143 -0.2112 -0.0394
  266MOL0     C36635   2.902   4.818   5.412 -0.1406 -0.3770 -0.1004
  266MOL0     C36636   3.512   4.572   5.118  0.2213  0.6114  0.0002
  266MOL0     C36637   3.622   4.643   5.161 -0.2329  0.2652 -0.3609
  266MOL0     C36638   3.704   4.720   5.049  0.4148  0.3423  0.1462
  266MOL0     H36639   4.133   4.769   5.353  1.7499  1.4032  1.3192
  266MOL0     H36640   4.265   4.963   5.415 -0.4763 -1.9059 -1.6318
  266MOL0     H36641   4.268   5.309   5.283  2.6143  1.2371  0.0830
  266MOL0     H36642   4.335   5.158   5.321  1.2661  1.8081 -0.2017
  266MOL0     H36643   4.332   5.395   5.502  0.2666  0.0282  0.5681
  266MOL0     H36644   4.397   5.233   5.547  0.4199  1.8089  2.6669
  266MOL0     H36645   4.585   5.255   5.431 -0.4464  0.1790  1.8906
  266MOL0     H36646   4.500   5.358   5.307 -0.8708 -0.7241 -0.0342
  266MOL0     H36647   4.498   5.541   5.475 -0.1104 -1.5904 -3.1807
  266MOL0     H36648   4.569   5.429   5.590 -0.8228 -0.2058 -0.4706
  266MOL0     H36649   4.716   5.531   5.335  4.2372 -1.3073 -1.2347
  266MOL0     H36650   4.766   5.389   5.419  0.2709 -0.0204  0.2538
  266MOL0     H36651   4.812   5.540   5.626  1.8195  0.1415 -0.8018
  266MOL0     H36652   4.889   5.603   5.480  1.2748 -1.9057  1.4446
  266MOL0     H36653   4.621   5.688   5.591  0.1872 -1.5511  0.5948
  266MOL0     H36654   4.705   5.780   5.461  1.9274  1.1233  0.5215
  266MOL0     H36655   4.799   5.741   5.749  1.9284 -0.3179 -0.1503
  266MOL0     H36656   4.895   5.817   5.630 -1.0600 -0.5253 -3.9442
  266MOL0     H36657   4.885   6.060   5.748  0.0299  0.0148  0.0082
  266MOL0     H36658   4.613   6.325   5.760  0.6291  3.3877  3.5233
  266MOL0     H36659   4.779   6.312   5.746  0.0910  0.0898  0.7839
  266MOL0     H36660   4.714   6.200   6.012  2.8066  1.7484  2.1696
  266MOL0     H36661   4.739   6.379   5.981  0.8106 -1.0634  1.2166
  266MOL0     H36662   4.479   6.381   5.940 -2.9879 -1.9506  0.6581
  266MOL0     H36663   4.476   6.209   5.979 -2.1659  1.1676  0.6386
  266MOL0     H36664   4.410   6.353   6.173  0.3922 -1.0716  2.9638
  266MOL0     H36665   4.560   6.267   6.214  0.1072 -0.2554  0.2338
  266MOL0     H36666   4.541   6.337   6.412 -2.7712  0.3692 -0.3029
  266MOL0     H36667   4.564   6.296   6.615  3.5921 -0.2980 -4.3076
  266MOL0     H36668   4.505   6.422   6.727 -0.1695  1.2408 -1.0783
  266MOL0     H36669   4.682   6.408   6.704  1.0963  4.9088 -4.2358
  266MOL0     H36670   4.783   6.792   6.971  0.8337 -1.5181 -1.0526
  266MOL0     H36671   4.724   6.866   7.190 -0.4210  0.6322 -1.1107
  266MOL0     H36672   4.606   6.886   7.435  0.6157  2.6123  0.3963
  266MOL0     H36673   4.526   6.971   7.302  1.2117 -1.9439 -0.8034
  266MOL0     H36674   4.408   6.876   7.558 -0.6981 -0.2062 -1.7699
  266MOL0     H36675   4.429   7.046   7.515 -0.7957  0.5490  0.2547
  266MOL0     H36676   4.202   6.976   7.493  0.8173 -0.3244  0.5305
  266MOL0     H36677   4.236   6.858   7.360 -0.1930  1.6517 -0.0708
  266MOL0     H36678   4.289   7.024   7.199  0.2285 -0.7235 -0.2190
  266MOL0     H36679   4.287   7.153   7.322  0.8019 -0.6791  0.7302
  266MOL0     H36680   4.048   6.973   7.238 -0.4226  0.3082  1.0460
  266MOL0     H36681   4.045   7.112   7.344 -1.6055  4.2551 -2.1894
  266MOL0     H36682   3.965   7.188   7.136 -0.4707 -2.0245  2.8154
  266MOL0     H36683   4.095   7.096   7.041 -2.2444 -1.6288  0.0004
  266MOL0     H36684   4.263   7.249   7.076  1.5452  0.2980  1.7941
  266MOL0     H36685   4.194   7.322   7.221  0.1073  0.5104  0.1390
  266MOL0     H36686   4.201   7.470   7.027 -0.6039  0.9113 -1.0057
  266MOL0     H36687   4.050   7.458   7.120  1.7702  0.2394  0.6538
  266MOL0     H36688   4.365   6.609   7.180 -0.5976 -0.5586 -0.7198
  266MOL0     H36689   4.437   6.543   6.931 -1.6189  1.4409 -0.2649
  266MOL0     H36690   4.690   6.806   6.460  1.2624 -0.1898 -0.4431
  266MOL0     H36691   4.656   6.705   6.236 -1.7385 -1.0082 -0.9463
  266MOL0     H36692   3.931   5.222   5.334  1.2674 -0.5388 -1.6786
  266MOL0     H36693   3.795   5.017   5.267  0.5794  0.3751  1.0772
  266MOL0     H36694   3.582   4.613   5.502  2.4476  0.6114 -0.7357
  266MOL0     H36695   3.379   4.509   5.427 -0.6596  2.6499 -0.1924
  266MOL0     H36696   3.120   4.384   5.177 -1.1440 -0.8893  0.2577
  266MOL0     H36697   3.217   4.339   5.306  0.5008 -0.8865 -1.0845
  266MOL0     H36698   3.096   4.620   5.241  1.8922  1.7163 -0.9897
  266MOL0     H36699   3.210   4.611   5.363  0.4016  0.4336 -0.5291
  266MOL0     H36700   2.946   4.455   5.368  1.7011 -1.6286 -0.9526
  266MOL0     H36701   3.086   4.404   5.463  0.5967 -0.0344 -1.6790
  266MOL0     H36702   3.082   4.624   5.601  0.6570 -2.5409 -0.3677
  266MOL0     H36703   2.913   4.559   5.602 -0.4847 -2.9233 -0.8698
  266MOL0     H36704   2.867   4.910   5.371  2.2385  0.6241 -0.0363
  266MOL0     H36705   3.480   4.560   5.015  1.2844 -1.7642 -0.1159
  266MOL0     H36706   3.808   4.686   5.047  0.4184  0.2413 -3.1278
  266MOL0     H36707   3.658   4.704   4.951 -1.0710 -1.4073  1.0593
  266MOL0     H36708   3.706   4.828   5.064  0.4011  0.5609 -1.2768
  267MOL0     O36709   0.805   7.534  10.564 -0.4051 -0.0397  0.1174
  267MOL0     C36710   0.790   7.413  10.585  0.0233  0.2347 -0.5765
  267MOL0     O36711   0.796   7.356  10.706  1.0027  1.0766 -0.4963
  267MOL0     C36712   0.904   7.394  10.790  0.1217 -0.3395  0.2399
  267MOL0     C36713   1.032   7.415  10.738 -0.0956  0.1074 -0.1787
  267MOL0     C36714   1.141   7.443  10.827  0.5532  0.4252 -1.0866
  267MOL0     C36715   1.121   7.451  10.960  0.2128  0.4864 -0.7994
  267MOL0     O36716   1.224   7.471  11.045 -0.2258  0.0692 -0.0245
  267MOL0     C36717   1.210   7.539  11.168 -0.3787 -0.6870  0.1882
  267MOL0     C36718   1.344   7.598  11.220 -0.0421 -0.0943  0.3116
  267MOL0     C36719   1.401   7.713  11.129 -0.2190 -0.4522 -0.2840
  267MOL0     C36720   1.556   7.709  11.120  0.2052 -0.1483 -0.3892
  267MOL0     C36721   1.613   7.838  11.063  0.2211  0.1490 -0.1820
  267MOL0     C36722   1.756   7.812  11.039 -0.2073 -0.8462 -0.4797
  267MOL0     C36723   1.815   7.940  10.964  0.6583 -0.2281  0.7968
  267MOL0     C36724   1.795   8.075  11.040 -0.4604  0.3275 -0.3104
  267MOL0     N36725   1.875   8.177  10.977 -0.0596 -0.4870  0.0608
  267MOL0     C36726   2.005   8.180  10.925  0.6921 -0.3234 -1.0986
  267MOL0     C36727   2.032   8.298  10.886  0.1950  0.3778 -0.2054
  267MOL0     C36728   2.167   8.343  10.835  0.4451  0.2490  0.2439
  267MOL0     C36729   2.181   8.492  10.809  0.3992  0.3016  0.1181
  267MOL0     C36730   2.324   8.508  10.762 -0.7801  0.4866 -0.8549
  267MOL0     C36731   2.362   8.650  10.743 -0.3313  0.1180  0.3330
  267MOL0     O36732   2.454   8.671  10.637 -0.5134  0.2216  0.2304
  267MOL0     C36733   2.586   8.661  10.659 -0.0559 -0.0866  0.7950
  267MOL0     C36734   2.649   8.598  10.767 -0.2875 -0.1107  0.1507
  267MOL0     C36735   2.791   8.598  10.787  0.5880  0.5824  0.5748
  267MOL0     C36736   2.838   8.532  10.914 -0.3711  0.5489 -0.6786
  267MOL0     C36737   2.866   8.639  10.679 -0.2122  1.5023  0.1902
  267MOL0     C36738   3.022   8.642  10.680 -0.0621  0.4334 -0.2157
  267MOL0     O36739   3.082   8.656  10.564 -0.2703 -0.4448  0.1707
  267MOL0     C36740   3.214   8.696  10.557  0.1784 -0.9499  0.2740
  267MOL0     C36741   3.247   8.825  10.522  0.4890  0.2189  0.2478
  267MOL0     C36742   3.379   8.861  10.536 -0.0612 -0.4681 -0.1183
  267MOL0     C36743   3.478   8.766  10.566  0.1577 -0.1923  0.7270
  267MOL0     O36744   3.613   8.806  10.566 -0.2266  0.5632  0.4514
  267MOL0     C36745   3.706   8.732  10.491 -0.0321 -0.6233  0.7312
  267MOL0     C36746   3.780   8.816  10.383  0.3587  0.5107 -0.4146
  267MOL0     C36747   3.687   8.895  10.288  0.4623 -0.9484 -0.0395
  267MOL0     C36748   3.749   8.980  10.176  0.0899 -0.0977  1.5234
  267MOL0     C36749   3.867   9.055  10.234 -0.5890 -0.2343  0.3553
  267MOL0     C36750   3.919   9.150  10.121 -0.3085 -0.4742  0.3508
  267MOL0     C36751   3.998   9.094  10.000  0.1772  0.0088  0.7366
  267MOL0     C36752   4.086   8.981  10.049 -0.0912  0.5555 -0.6471
  267MOL0    Cl36753   4.207   9.038  10.175 -0.2419 -0.0782 -0.1606
  267MOL0     C36754   3.447   8.631  10.584 -0.5593  0.7099 -0.7374
  267MOL0     C36755   3.315   8.601  10.593 -0.4745  0.3174  0.3658
  267MOL0     O36756   3.076   8.646  10.790 -0.1220 -0.1630  0.5522
  267MOL0     C36757   2.806   8.688  10.568 -0.0462  0.9083 -0.3201
  267MOL0     C36758   2.674   8.708  10.560  0.8245  0.7413 -0.3967
  267MOL0     N36759   1.924   8.380  10.920 -0.1929 -0.8853  0.9154
  267MOL0     N36760   1.837   8.303  10.966  0.1959 -0.1353 -0.3433
  267MOL0     C36761   0.994   7.420  11.014 -0.0842  0.2776  0.4995
  267MOL0     C36762   0.887   7.395  10.932 -0.1100 -0.6606  0.0261
  267MOL0     C36763   0.764   7.327  10.466  0.1382  0.0450 -0.8761
  267MOL0     C36764   0.692   7.208  10.479  0.6191 -0.2365 -0.8745
  267MOL0     C36765   0.664   7.116  10.372 -0.1048 -0.4618 -1.1920
  267MOL0     C36766   0.724   7.138  10.248  0.0319  0.4815 -1.1489
  267MOL0     O36767   0.710   7.055  10.140 -0.2731  0.0916 -0.1430
  267MOL0     C36768   0.590   6.972  10.114 -0.2893  0.2658 -0.7185
  267MOL0     C36769   0.613   6.824  10.159  0.3080 -0.0384  0.3440
  267MOL0     C36770   0.507   6.732  10.097 -0.7368 -0.3239  0.1226
  267MOL0     C36771   0.524   6.596  10.154 -0.3698  0.8367  0.1976
  267MOL0     C36772   0.624   6.527  10.072  0.3447  0.2599  0.1849
  267MOL0     C36773   0.716   6.473  10.020  0.0537  0.1667  0.0806
  267MOL0     C36774   0.818   7.242  10.236  0.1502 -0.3933  0.4315
  267MOL0     C36775   0.836   7.335  10.345  0.5085  0.1692  0.3693
  267MOL0     C36776   0.940   7.448  10.319  0.0126 -0.0637  1.1720
  267MOL0     H36777   1.053   7.397  10.633  0.5474 -1.4996  0.2031
  267MOL0     H36778   1.240   7.467  10.789  1.8033  0.4952  1.9335
  267MOL0     H36779   1.174   7.474  11.248  0.4658 -1.2998  0.0819
  267MOL0     H36780   1.144   7.626  11.168 -2.2297 -2.0162  1.4201
  267MOL0     H36781   1.328   7.631  11.323  0.4872  0.6949  0.1539
  267MOL0     H36782   1.418   7.519  11.230  2.0434  1.8869  1.5773
  267MOL0     H36783   1.357   7.714  11.030 -3.0773 -0.6910  0.8937
  267MOL0     H36784   1.366   7.806  11.176  1.0336 -2.0562  4.4673
  267MOL0     H36785   1.585   7.679  11.221 -3.2423 -1.2704  0.4109
  267MOL0     H36786   1.586   7.627  11.054  1.1789  0.7520 -1.0832
  267MOL0     H36787   1.597   7.922  11.131 -2.0912 -0.8048  0.5569
  267MOL0     H36788   1.567   7.858  10.966  1.6590 -0.3092 -0.9786
  267MOL0     H36789   1.800   7.790  11.136 -0.9378 -0.3638 -0.0268
  267MOL0     H36790   1.763   7.729  10.968 -0.6975 -0.4418 -1.0127
  267MOL0     H36791   1.758   7.950  10.871 -0.2204  1.7393  1.4937
  267MOL0     H36792   1.921   7.940  10.941  1.0849 -0.4693  2.6074
  267MOL0     H36793   1.691   8.102  11.057 -0.0660  0.4749  2.2573
  267MOL0     H36794   1.840   8.058  11.138  2.4082  0.1569 -1.5308
  267MOL0     H36795   2.077   8.099  10.937  1.1889  0.0475 -1.5135
  267MOL0     H36796   2.199   8.283  10.750 -0.1334  1.0347 -0.5547
  267MOL0     H36797   2.244   8.322  10.910  0.5403  0.4796  0.2139
  267MOL0     H36798   2.111   8.526  10.733  1.9712 -0.2016 -1.6288
  267MOL0     H36799   2.151   8.548  10.898  0.7683  0.4223  0.1683
  267MOL0     H36800   2.394   8.480  10.841  1.3533  1.4820 -2.2874
  267MOL0     H36801   2.340   8.440  10.678 -1.0140  0.0920 -0.5851
  267MOL0     H36802   2.271   8.702  10.711 -0.8439 -1.3620 -0.7523
  267MOL0     H36803   2.395   8.701  10.833  2.5947 -1.0582  0.0357
  267MOL0     H36804   2.589   8.573  10.854  1.2662  1.5062  1.7822
  267MOL0     H36805   2.910   8.455  10.885 -1.2366 -0.4270 -0.3171
  267MOL0     H36806   2.758   8.484  10.971  2.1579 -1.5539  1.3400
  267MOL0     H36807   2.885   8.605  10.981  1.6017 -0.5845 -0.7646
  267MOL0     H36808   3.164   8.889  10.494 -0.5855 -0.9976  0.5549
  267MOL0     H36809   3.405   8.959  10.498  2.0213 -1.4235 -1.2936
  267MOL0     H36810   3.776   8.681  10.558  2.8124  2.0702  0.0156
  267MOL0     H36811   3.658   8.648  10.439 -0.5562  1.0772 -1.7088
  267MOL0     H36812   3.838   8.890  10.440  1.3440 -0.3536 -0.2616
  267MOL0     H36813   3.845   8.747  10.330 -1.8168 -1.4751 -0.6414
  267MOL0     H36814   3.618   8.953  10.350  1.7000  1.5861 -0.8980
  267MOL0     H36815   3.623   8.820  10.241  5.2644 -5.7070  0.0282
  267MOL0     H36816   3.675   9.045  10.128 -0.9311 -1.7377  0.8074
  267MOL0     H36817   3.787   8.913  10.098  1.8010 -1.4142  3.3926
  267MOL0     H36818   3.824   9.119  10.311  0.3251 -2.3024  2.7065
  267MOL0     H36819   3.954   9.006  10.280 -0.7018  0.0445  0.8649
  267MOL0     H36820   3.965   9.235  10.173 -1.4464  0.8075 -0.6328
  267MOL0     H36821   3.836   9.204  10.074 -0.2281  0.0530  0.7935
  267MOL0     H36822   4.053   9.170   9.945  0.3156 -0.3605  0.3553
  267MOL0     H36823   3.934   9.049   9.924  0.7794  2.2913 -1.2324
  267MOL0     H36824   4.129   8.928   9.963 -0.8816  0.9898 -1.3170
  267MOL0     H36825   4.023   8.910  10.104 -0.0223  0.8931 -0.1230
  267MOL0     H36826   3.528   8.562  10.600 -0.6771 -0.4208 -4.2828
  267MOL0     H36827   3.289   8.497  10.608 -1.0624 -0.3670 -4.0152
  267MOL0     H36828   2.867   8.709  10.481 -0.4381  0.0281 -0.8183
  267MOL0     H36829   2.619   8.747  10.474 -3.0031 -1.8817  0.6228
  267MOL0     H36830   0.989   7.392  11.119  0.6296 -1.2052  0.1758
  267MOL0     H36831   0.791   7.362  10.970 -0.2914  0.2069  0.3463
  267MOL0     H36832   0.656   7.186  10.580  0.8538  0.4006 -0.6479
  267MOL0     H36833   0.597   7.031  10.380  0.9699 -1.4422 -2.2574
  267MOL0     H36834   0.494   7.001  10.158  1.7121  1.6592  3.1616
  267MOL0     H36835   0.575   6.974  10.005  0.1095 -1.6658 -0.8452
  267MOL0     H36836   0.602   6.824  10.268 -2.0734 -0.5471  0.1529
  267MOL0     H36837   0.712   6.799  10.120 -1.2312  0.1487 -4.3026
  267MOL0     H36838   0.409   6.767  10.130 -0.5573  0.0160  0.3031
  267MOL0     H36839   0.509   6.736   9.987  0.8775 -0.2085  0.1297
  267MOL0     H36840   0.429   6.540  10.158  1.9312 -3.4475  1.7126
  267MOL0     H36841   0.563   6.588  10.256 -2.3016 -0.6932  0.8878
  267MOL0     H36842   0.793   6.425   9.963  0.7687  0.6384  0.6276
  267MOL0     H36843   0.880   7.258  10.148  2.6071  4.0461  2.6412
  267MOL0     H36844   1.020   7.447  10.394 -1.6334  1.1928  3.0905
  267MOL0     H36845   0.985   7.427  10.222  2.0489 -0.2469  2.1176
  267MOL0     H36846   0.896   7.546  10.295 -3.1070 -2.2440 -3.5580
  268MOL0     O36847   2.489   5.463   0.449 -0.2715 -0.8180  0.5270
  268MOL0     C36848   2.410   5.417   0.368  1.3965 -0.5129 -0.3532
  268MOL0     O36849   2.391   5.457   0.241 -0.4643  0.0671 -0.2998
  268MOL0     C36850   2.493   5.541   0.190 -0.4706  0.0397 -0.0663
  268MOL0     C36851   2.459   5.654   0.113  0.3425 -0.4005 -0.6624
  268MOL0     C36852   2.569   5.733   0.069 -0.3567 -0.4106 -0.1627
  268MOL0     C36853   2.702   5.704   0.084  0.2570 -0.2654 -0.0633
  268MOL0     O36854   2.808   5.777   0.051  0.3634  1.0548 -0.4445
  268MOL0     C36855   2.781   5.892  -0.024 -0.8049 -0.2878  0.7269
  268MOL0     C36856   2.919   5.947  -0.074 -0.0382 -0.6003  0.0575
  268MOL0     C36857   2.904   6.085  -0.155 -0.7653  0.1075  0.2280
  268MOL0     C36858   3.042   6.160  -0.170  1.2334  0.2282 -0.5428
  268MOL0     C36859   3.033   6.304  -0.226  0.1271  0.7172  0.0455
  268MOL0     C36860   3.171   6.367  -0.224 -0.0216 -0.3089 -0.0863
  268MOL0     C36861   3.222   6.424  -0.085 -0.4651  0.4999  0.6624
  268MOL0     C36862   3.123   6.545  -0.042  0.0939  0.0868  0.3324
  268MOL0     N36863   3.186   6.618   0.060  0.3929 -0.1681 -0.3981
  268MOL0     C36864   3.193   6.574   0.189 -0.3001 -0.0444 -0.7032
  268MOL0     C36865   3.282   6.650   0.251 -0.4810  0.1828  0.4356
  268MOL0     C36866   3.297   6.641   0.395 -0.4276  0.3820 -0.5499
  268MOL0     C36867   3.438   6.680   0.439 -0.5032  0.7791 -0.5644
  268MOL0     C36868   3.427   6.685   0.594  0.7367 -0.5050  0.3646
  268MOL0     C36869   3.569   6.698   0.656 -0.5539  0.0780 -0.0633
  268MOL0     O36870   3.619   6.569   0.670  0.3512  0.6332  0.2120
  268MOL0     C36871   3.759   6.557   0.691  0.2470 -0.1632  0.3628
  268MOL0     C36872   3.854   6.653   0.658 -1.0397 -0.2748  0.4147
  268MOL0     C36873   3.988   6.631   0.669 -0.5160  1.1624 -1.0535
  268MOL0     C36874   4.064   6.757   0.646 -0.2514  0.2897 -0.3286
  268MOL0     C36875   4.043   6.505   0.714  0.1089 -0.5441 -0.0813
  268MOL0     C36876   4.191   6.477   0.725 -0.5805 -0.0608  0.4897
  268MOL0     O36877   4.251   6.451   0.846  0.1328  0.1306  0.2360
  268MOL0     C36878   4.385   6.437   0.851  0.3326  0.0320  0.5724
  268MOL0     C36879   4.469   6.540   0.893  0.2684  0.1845  0.0230
  268MOL0     C36880   4.611   6.523   0.913  0.6369 -0.9521  0.4269
  268MOL0     C36881   4.664   6.391   0.879 -0.2420  0.8692 -0.2420
  268MOL0     O36882   4.795   6.352   0.906 -0.2733  0.1959 -0.5517
  268MOL0     C36883   4.895   6.433   0.850 -0.1093 -0.4131  0.2110
  268MOL0     C36884   5.015   6.408   0.939 -1.0018  0.0611 -0.2926
  268MOL0     C36885   5.146   6.462   0.877 -0.8686  0.6411 -0.0937
  268MOL0     C36886   5.261   6.443   0.974 -0.5434 -0.4706  0.2179
  268MOL0     C36887   5.397   6.452   0.897 -0.2641  0.1838 -0.3741
  268MOL0     C36888   5.521   6.414   0.987  0.2805 -0.0084  0.5574
  268MOL0     C36889   5.651   6.380   0.905 -0.1444  0.0633 -0.3353
  268MOL0     C36890   5.752   6.489   0.915 -0.7260 -0.3011  0.0828
  268MOL0    Cl36891   5.907   6.416   0.842 -0.0515 -0.0686  0.0110
  268MOL0     C36892   4.572   6.294   0.826  0.3380 -0.5173 -0.0362
  268MOL0     C36893   4.436   6.313   0.825  0.8062 -0.1521  0.3209
  268MOL0     O36894   4.249   6.494   0.620  0.3006 -0.4301  0.5227
  268MOL0     C36895   3.945   6.408   0.736  0.1897  0.2020 -0.7809
  268MOL0     C36896   3.804   6.428   0.728 -0.3604 -0.0149 -0.0682
  268MOL0     N36897   3.334   6.743   0.154  0.3015 -0.0698  0.1682
  268MOL0     N36898   3.263   6.728   0.049 -0.1739 -1.2474  0.3380
  268MOL0     C36899   2.725   5.582   0.142 -0.9358 -0.5788  0.6342
  268MOL0     C36900   2.631   5.504   0.205  0.2783  0.5473 -0.3913
  268MOL0     C36901   2.315   5.328   0.430 -1.1053  0.8251  0.5619
  268MOL0     C36902   2.258   5.229   0.354 -0.4384 -1.2976  0.1722
  268MOL0     C36903   2.161   5.143   0.390  0.9377 -0.4374 -0.0690
  268MOL0     C36904   2.115   5.143   0.524 -0.4341 -0.2387  0.2761
  268MOL0     O36905   2.022   5.056   0.569 -0.0090  0.0120  0.6772
  268MOL0     C36906   1.887   5.101   0.555  0.2806  0.3555 -0.3202
  268MOL0     C36907   1.814   5.028   0.443 -0.4430  0.6267  0.0712
  268MOL0     C36908   1.670   5.098   0.433 -0.3086 -0.6514 -0.2683
  268MOL0     C36909   1.567   5.008   0.492  0.6852  0.0483  0.4225
  268MOL0     C36910   1.593   4.985   0.642  0.8315  0.0906 -0.5328
  268MOL0     C36911   1.578   4.955   0.757 -0.6327  0.8271  0.0365
  268MOL0     C36912   2.184   5.226   0.614  0.4863  0.0332  0.0164
  268MOL0     C36913   2.284   5.320   0.573  0.1004 -0.4362  0.4467
  268MOL0     C36914   2.333   5.417   0.678 -0.3355 -0.1372 -0.1614
  268MOL0     H36915   2.358   5.691   0.096  0.7665  0.4934 -1.3453
  268MOL0     H36916   2.544   5.823   0.013  1.1241 -0.1390 -0.4409
  268MOL0     H36917   2.740   5.966   0.045  1.7108  3.3014 -1.3079
  268MOL0     H36918   2.713   5.873  -0.107  0.2254  1.7347 -0.6539
  268MOL0     H36919   2.981   5.961   0.015 -1.3844  2.1401  0.6750
  268MOL0     H36920   2.967   5.867  -0.132  1.9420 -1.7198  2.9919
  268MOL0     H36921   2.868   6.060  -0.256  0.2603 -2.0895  0.3504
  268MOL0     H36922   2.829   6.148  -0.106 -2.3390 -0.3793 -1.4295
  268MOL0     H36923   3.092   6.169  -0.073 -2.4388 -1.3291  1.7011
  268MOL0     H36924   3.105   6.105  -0.240  1.4089 -1.1199  0.6313
  268MOL0     H36925   2.949   6.355  -0.178 -0.6707 -0.9498  0.5201
  268MOL0     H36926   3.012   6.301  -0.334 -0.9359 -0.5795  0.2566
  268MOL0     H36927   3.251   6.300  -0.254 -0.5200 -1.3282  0.7905
  268MOL0     H36928   3.172   6.450  -0.295 -2.5306 -0.8694 -0.9097
  268MOL0     H36929   3.326   6.456  -0.091  0.2526 -0.1826  5.5852
  268MOL0     H36930   3.227   6.354  -0.001 -1.9698  1.6437  1.7535
  268MOL0     H36931   3.112   6.606  -0.133  1.2873 -0.9192 -0.5313
  268MOL0     H36932   3.024   6.516  -0.007 -0.3636 -0.4226 -1.2736
  268MOL0     H36933   3.140   6.493   0.237  1.7965 -0.6279  0.7560
  268MOL0     H36934   3.282   6.542   0.438  1.6820 -0.2302 -1.1081
  268MOL0     H36935   3.229   6.710   0.446  0.0987  0.6784 -0.2360
  268MOL0     H36936   3.509   6.602   0.411 -0.4382  1.1552 -1.4720
  268MOL0     H36937   3.466   6.777   0.397  0.4034 -0.7259 -3.7310
  268MOL0     H36938   3.362   6.768   0.624  0.2346  0.1638 -2.3068
  268MOL0     H36939   3.376   6.600   0.638  2.1960 -0.6679  1.8323
  268MOL0     H36940   3.632   6.759   0.591  1.1047 -0.2621  1.1305
  268MOL0     H36941   3.555   6.748   0.752  1.0945  0.9345 -0.2311
  268MOL0     H36942   3.820   6.752   0.629 -3.7323 -1.0182  0.7607
  268MOL0     H36943   4.172   6.744   0.658 -0.7178 -2.1520  2.4868
  268MOL0     H36944   4.016   6.838   0.701  1.6226  1.1757  0.1029
  268MOL0     H36945   4.050   6.786   0.542  0.9788  2.1307 -0.0352
  268MOL0     H36946   4.423   6.639   0.899  0.5110  0.5083 -2.4798
  268MOL0     H36947   4.673   6.607   0.941  1.6329 -2.1323  1.8915
  268MOL0     H36948   4.921   6.397   0.750  2.5199 -2.0557  1.3680
  268MOL0     H36949   4.875   6.541   0.845 -2.1757 -0.8236 -2.1631
  268MOL0     H36950   5.015   6.456   1.037  0.4507  0.5221 -0.4804
  268MOL0     H36951   5.021   6.301   0.959  1.2832  0.4614  1.5961
  268MOL0     H36952   5.154   6.566   0.843  4.4466  0.4800 -0.1534
  268MOL0     H36953   5.154   6.391   0.794 -0.0615 -0.3480  0.8114
  268MOL0     H36954   5.260   6.348   1.028  0.8691  0.2303  1.5675
  268MOL0     H36955   5.246   6.506   1.062  2.7765 -0.6026  1.0041
  268MOL0     H36956   5.390   6.381   0.814 -0.2963 -0.0299 -0.1886
  268MOL0     H36957   5.421   6.549   0.852 -0.3588  1.3817  2.0027
  268MOL0     H36958   5.496   6.325   1.046 -1.6325 -1.8335 -2.7557
  268MOL0     H36959   5.547   6.501   1.049  1.2230  0.1537 -0.0416
  268MOL0     H36960   5.625   6.356   0.801 -1.4453 -2.1020  0.4093
  268MOL0     H36961   5.688   6.283   0.941 -1.1668 -0.7103 -1.2741
  268MOL0     H36962   5.769   6.517   1.019 -0.4957  1.4585 -0.3969
  268MOL0     H36963   5.717   6.574   0.855  0.6190  0.4424  0.3168
  268MOL0     H36964   4.606   6.192   0.808  0.2830 -0.3133 -1.3758
  268MOL0     H36965   4.370   6.230   0.799  2.9967 -2.2392  1.0589
  268MOL0     H36966   3.987   6.310   0.758 -2.9007 -0.8945  0.7909
  268MOL0     H36967   3.725   6.355   0.746  0.2484 -1.1755 -1.9296
  268MOL0     H36968   2.829   5.550   0.138 -0.7708  0.1036 -2.0310
  268MOL0     H36969   2.660   5.409   0.249 -0.0500  1.5739  2.1951
  268MOL0     H36970   2.289   5.222   0.250 -1.9035  3.0792 -0.7637
  268MOL0     H36971   2.110   5.082   0.317  0.4727  0.9379 -0.9416
  268MOL0     H36972   1.842   5.083   0.653 -1.9031 -0.7658 -1.4603
  268MOL0     H36973   1.882   5.209   0.536 -2.8434  0.8735  2.3787
  268MOL0     H36974   1.815   4.921   0.467 -1.1737  0.6383  0.1755
  268MOL0     H36975   1.857   5.048   0.344  0.0138  2.0040  0.5215
  268MOL0     H36976   1.666   5.192   0.489  2.2280 -1.5575  1.6438
  268MOL0     H36977   1.640   5.124   0.332 -0.7087  0.6854  0.1777
  268MOL0     H36978   1.582   4.916   0.434  3.0308 -0.1419  1.2105
  268MOL0     H36979   1.465   5.040   0.467  0.5760 -1.4416 -1.1615
  268MOL0     H36980   1.573   4.919   0.858  2.4435 -0.0694 -0.0382
  268MOL0     H36981   2.149   5.226   0.717 -1.8563 -0.1998 -0.7162
  268MOL0     H36982   2.324   5.523   0.655  0.0092  0.6166  2.8000
  268MOL0     H36983   2.272   5.410   0.769 -1.3976  0.6519 -0.8050
  268MOL0     H36984   2.439   5.396   0.696  0.4565  0.3169 -3.6780
  269MOL0     O36985   1.538   6.044   3.987 -0.1855  0.3784  0.6732
  269MOL0     C36986   1.493   5.937   4.021  0.4350 -1.1942 -0.1224
  269MOL0     O36987   1.567   5.823   4.019  0.5531  0.0790  0.2599
  269MOL0     C36988   1.699   5.830   3.976 -0.4887  0.3412 -0.1229
  269MOL0     C36989   1.723   5.851   3.846  0.7002 -0.7711  0.9035
  269MOL0     C36990   1.853   5.863   3.807 -0.0372 -0.2547  0.8487
  269MOL0     C36991   1.963   5.832   3.890  1.0147 -0.2265  0.3685
  269MOL0     O36992   2.088   5.844   3.833 -0.2175  0.4737  0.2580
  269MOL0     C36993   2.184   5.752   3.878  1.5986  0.3705  0.8920
  269MOL0     C36994   2.293   5.731   3.774 -1.6355  0.3257  0.3105
  269MOL0     C36995   2.389   5.614   3.810 -0.6519 -0.5952 -0.1874
  269MOL0     C36996   2.504   5.609   3.714 -0.0154  0.3869  0.7412
  269MOL0     C36997   2.623   5.512   3.755 -0.4767 -0.2679  0.4919
  269MOL0     C36998   2.586   5.355   3.739 -0.5867 -0.8684  0.2200
  269MOL0     C36999   2.694   5.272   3.813  0.5345 -0.7726  0.0569
  269MOL0     C37000   2.839   5.288   3.764  0.0119  0.3146  0.0295
  269MOL0     N37001   2.925   5.172   3.799 -0.2795 -0.9324 -0.2558
  269MOL0     C37002   2.954   5.127   3.924 -0.4429  0.8131  1.0258
  269MOL0     C37003   3.021   5.014   3.900  0.2416 -0.0330 -0.5383
  269MOL0     C37004   3.082   4.933   4.015 -0.2179  0.1689  0.3911
  269MOL0     C37005   3.116   5.016   4.144  0.3731 -0.1576 -0.6347
  269MOL0     C37006   3.178   4.930   4.257 -0.4778  0.3139  0.7852
  269MOL0     C37007   3.308   4.863   4.209 -0.4766 -1.1025 -1.1122
  269MOL0     O37008   3.399   4.970   4.160  0.7084  0.2996  0.0231
  269MOL0     C37009   3.535   4.949   4.182  1.0326  0.1775 -0.1612
  269MOL0     C37010   3.603   5.066   4.200 -0.1099 -0.3525 -0.8272
  269MOL0     C37011   3.738   5.063   4.241 -0.2759 -0.7726  0.4985
  269MOL0     C37012   3.808   5.198   4.270  0.3735 -0.7081  0.2529
  269MOL0     C37013   3.804   4.938   4.268  0.4476  0.8741 -0.7727
  269MOL0     C37014   3.942   4.921   4.304 -0.0860  0.1528  0.0661
  269MOL0     O37015   3.999   4.801   4.267 -0.5396  0.1267 -0.1145
  269MOL0     C37016   4.134   4.777   4.292 -0.4466 -1.1176 -0.2422
  269MOL0     C37017   4.224   4.749   4.191  0.1018 -0.2415  0.4147
  269MOL0     C37018   4.353   4.701   4.219 -0.3454 -0.6919  0.1863
  269MOL0     C37019   4.394   4.690   4.346 -0.6021  0.0078  0.4672
  269MOL0     O37020   4.523   4.641   4.360 -0.2784  0.3204 -0.1171
  269MOL0     C37021   4.576   4.600   4.485  0.6990  0.0064 -0.2520
  269MOL0     C37022   4.721   4.559   4.474 -0.1435  0.4656  0.4863
  269MOL0     C37023   4.749   4.434   4.390  0.6460 -0.3869 -0.1486
  269MOL0     C37024   4.894   4.404   4.382  0.1956 -0.9396 -0.4806
  269MOL0     C37025   4.932   4.284   4.282 -0.1202 -0.7981 -0.3262
  269MOL0     C37026   5.085   4.293   4.246 -0.6185  1.5259 -0.1149
  269MOL0     C37027   5.139   4.173   4.160 -0.1377 -0.2621  0.0485
  269MOL0     C37028   5.274   4.202   4.089  0.5737 -0.0504 -0.1368
  269MOL0    Cl37029   5.380   4.218   4.231  0.0262  0.0416 -0.1989
  269MOL0     C37030   4.299   4.713   4.450  0.1242 -0.0580 -0.1852
  269MOL0     C37031   4.178   4.770   4.420 -1.0559 -0.7713  0.5591
  269MOL0     O37032   4.004   5.023   4.339  0.3159 -0.1906 -0.6959
  269MOL0     C37033   3.731   4.827   4.235  0.6011  0.9360 -0.4768
  269MOL0     C37034   3.594   4.832   4.202  0.4326  0.8784  0.6707
  269MOL0     N37035   3.036   4.979   3.763 -0.2045 -0.5384 -0.9214
  269MOL0     N37036   2.971   5.086   3.706 -0.2362  0.1214 -0.5428
  269MOL0     C37037   1.937   5.796   4.023  0.4236 -0.6660 -0.1097
  269MOL0     C37038   1.801   5.801   4.065 -0.1792 -0.5729  1.2694
  269MOL0     C37039   1.346   5.924   4.057  0.1746 -0.6053  0.0656
  269MOL0     C37040   1.292   5.797   4.020 -0.3934  0.2033 -0.0133
  269MOL0     C37041   1.156   5.775   4.035  0.6107  0.2631  0.2411
  269MOL0     C37042   1.068   5.871   4.082 -0.2538 -0.2344 -0.8625
  269MOL0     O37043   0.940   5.838   4.104  0.5697  0.3348  0.3470
  269MOL0     C37044   0.851   5.944   4.058  0.6325  0.7212 -0.6308
  269MOL0     C37045   0.696   5.903   4.055 -0.5268 -0.3354  0.4838
  269MOL0     C37046   0.673   5.757   4.022  0.3240 -0.1424 -0.1358
  269MOL0     C37047   0.519   5.716   4.006  0.1708 -0.0147 -0.1528
  269MOL0     C37048   0.441   5.735   4.127 -1.2269 -0.8723  0.1472
  269MOL0     C37049   0.382   5.757   4.226  0.6735 -0.5575 -0.4027
  269MOL0     C37050   1.127   5.984   4.142  1.3825 -0.4065  0.1226
  269MOL0     C37051   1.266   6.021   4.118 -0.1150  0.1521 -1.0999
  269MOL0     C37052   1.331   6.150   4.172 -1.0869  0.0247 -0.3026
  269MOL0     H37053   1.637   5.862   3.780  0.9658 -0.1826  0.6460
  269MOL0     H37054   1.872   5.897   3.705 -3.0594 -0.9186 -0.0341
  269MOL0     H37055   2.137   5.657   3.905  0.9590  1.0609  2.3171
  269MOL0     H37056   2.223   5.804   3.966 -2.1878  2.9062  1.2701
  269MOL0     H37057   2.256   5.700   3.676  0.3887  2.4142 -1.2068
  269MOL0     H37058   2.344   5.827   3.763 -2.6380  0.6300 -2.2866
  269MOL0     H37059   2.436   5.646   3.904  1.7174 -0.5607 -1.3212
  269MOL0     H37060   2.328   5.524   3.817 -2.7057  0.7376  0.0026
  269MOL0     H37061   2.452   5.582   3.621 -0.8908  0.8222  1.0941
  269MOL0     H37062   2.548   5.708   3.698 -0.1048  0.1597 -1.1272
  269MOL0     H37063   2.657   5.530   3.857 -0.2458  0.3165  0.3138
  269MOL0     H37064   2.706   5.535   3.687 -1.4565  1.0725 -0.3033
  269MOL0     H37065   2.494   5.336   3.794  1.3986 -1.9194  3.4190
  269MOL0     H37066   2.571   5.327   3.634  0.0093 -0.2771 -0.0267
  269MOL0     H37067   2.665   5.167   3.805  2.0412 -1.2123 -0.0465
  269MOL0     H37068   2.696   5.287   3.921  0.2639 -0.9607  0.0890
  269MOL0     H37069   2.830   5.280   3.655 -1.2364  1.5420  0.0089
  269MOL0     H37070   2.883   5.383   3.798  1.1572 -0.2366  0.1326
  269MOL0     H37071   2.924   5.166   4.021  1.2813  2.7758  0.8287
  269MOL0     H37072   3.174   4.885   3.979 -0.9235 -0.6997 -0.3079
  269MOL0     H37073   3.009   4.856   4.039 -1.2950  0.8877 -0.4615
  269MOL0     H37074   3.178   5.103   4.117 -0.1805 -0.3336 -2.6190
  269MOL0     H37075   3.019   5.054   4.176  0.0057  0.9382 -2.8463
  269MOL0     H37076   3.216   4.984   4.345  1.1767  1.7810 -0.7352
  269MOL0     H37077   3.116   4.853   4.303  1.7207 -2.2866 -0.3127
  269MOL0     H37078   3.352   4.813   4.295 -1.4687  2.8106  1.9802
  269MOL0     H37079   3.293   4.794   4.125 -2.1564 -0.2222 -1.5928
  269MOL0     H37080   3.551   5.161   4.197 -0.9838 -0.3572  4.7122
  269MOL0     H37081   3.756   5.282   4.223  1.2798 -0.1972  0.1411
  269MOL0     H37082   3.907   5.209   4.224 -0.7217  2.6608 -1.6774
  269MOL0     H37083   3.805   5.217   4.378 -2.5264 -2.1850  0.5340
  269MOL0     H37084   4.184   4.777   4.095 -2.6481  2.8854  2.2417
  269MOL0     H37085   4.429   4.684   4.144 -1.3582  0.9224 -1.3040
  269MOL0     H37086   4.564   4.681   4.557  2.3728 -1.1715  1.4616
  269MOL0     H37087   4.519   4.521   4.535 -0.0311  1.3566  1.1125
  269MOL0     H37088   4.774   4.639   4.421 -0.1725 -0.5837 -1.1926
  269MOL0     H37089   4.767   4.546   4.572 -0.2439 -1.2150  0.3383
  269MOL0     H37090   4.707   4.449   4.290  0.2675 -2.5461 -0.3724
  269MOL0     H37091   4.695   4.349   4.433  0.4483  0.0645  0.5156
  269MOL0     H37092   4.943   4.375   4.476  2.9056  1.8803 -0.8856
  269MOL0     H37093   4.956   4.484   4.342  0.4604 -1.8268 -1.9131
  269MOL0     H37094   4.891   4.194   4.329 -2.8495  0.7393  0.4811
  269MOL0     H37095   4.878   4.313   4.191 -0.7053  1.0197  0.5567
  269MOL0     H37096   5.143   4.310   4.338 -0.6134  0.5626  0.0658
  269MOL0     H37097   5.094   4.386   4.189  1.0307  0.6042 -1.4496
  269MOL0     H37098   5.070   4.134   4.084  0.7625 -0.8304 -0.5001
  269MOL0     H37099   5.154   4.084   4.222 -0.9366 -0.6729 -0.3315
  269MOL0     H37100   5.269   4.298   4.036  0.2799  0.8095  1.3747
  269MOL0     H37101   5.306   4.124   4.020 -0.6428  1.6645 -2.8209
  269MOL0     H37102   4.309   4.699   4.557  0.4670 -0.3575 -0.2575
  269MOL0     H37103   4.116   4.791   4.507 -1.4818  1.2991 -0.1784
  269MOL0     H37104   3.771   4.726   4.239 -1.5830  0.0439  1.9934
  269MOL0     H37105   3.549   4.736   4.178  4.9941 -1.0095 -1.6269
  269MOL0     H37106   2.030   5.795   4.079  2.5178  0.7399 -3.2554
  269MOL0     H37107   1.779   5.791   4.170  3.2222 -1.0611  2.0647
  269MOL0     H37108   1.348   5.728   3.958 -1.0493  0.0936 -0.4917
  269MOL0     H37109   1.117   5.681   3.996  0.3444 -0.3830  1.9976
  269MOL0     H37110   0.855   6.023   4.133 -1.2350  0.3220 -0.0392
  269MOL0     H37111   0.885   5.981   3.961 -0.9671  0.3196 -1.3911
  269MOL0     H37112   0.642   5.965   3.982 -2.0512 -0.0051  1.8123
  269MOL0     H37113   0.647   5.926   4.150  0.7854  1.4008  0.7886
  269MOL0     H37114   0.720   5.728   3.927 -4.5817 -0.9454 -2.6376
  269MOL0     H37115   0.720   5.704   4.106 -1.8855 -1.2663  0.4832
  269MOL0     H37116   0.506   5.610   3.984 -3.6126  0.4364 -0.7292
  269MOL0     H37117   0.479   5.776   3.924  1.2853  1.6202  0.4353
  269MOL0     H37118   0.331   5.778   4.317  0.1469  1.8536 -1.1786
  269MOL0     H37119   1.072   6.051   4.208 -0.9036 -2.1900  0.1534
  269MOL0     H37120   1.427   6.124   4.217 -1.2058  1.9769  1.2289
  269MOL0     H37121   1.352   6.227   4.097  0.5647 -1.2152 -1.1619
  269MOL0     H37122   1.273   6.198   4.252 -0.9394  2.3648 -1.5115
  270MOL0     O37123   6.028  11.285   3.736  0.1034 -0.0975 -0.4142
  270MOL0     C37124   5.971  11.208   3.660 -0.4517 -0.8610 -1.0048
  270MOL0     O37125   5.872  11.253   3.566  0.3245  0.0702 -0.5895
  270MOL0     C37126   5.827  11.386   3.563  0.1006 -0.4068 -0.1800
  270MOL0     C37127   5.693  11.402   3.525 -0.9725  0.2930  0.7654
  270MOL0     C37128   5.635  11.524   3.538  0.6728 -0.0486  0.6649
  270MOL0     C37129   5.708  11.639   3.568 -0.5008  0.2538  0.3549
  270MOL0     O37130   5.642  11.759   3.563  0.2867  0.2019 -0.1874
  270MOL0     C37131   5.639  11.860   3.667 -0.0363  0.0651  0.3955
  270MOL0     C37132   5.551  11.983   3.612 -0.1953  0.7257  0.3463
  270MOL0     C37133   5.605  12.048   3.487  0.4481  0.4696 -0.2277
  270MOL0     C37134   5.747  12.107   3.508 -0.4749  0.0037 -0.4860
  270MOL0     C37135   5.780  12.191   3.381 -1.0616 -0.5985 -0.1260
  270MOL0     C37136   5.909  12.268   3.394 -0.0342 -0.2413 -0.5641
  270MOL0     C37137   5.947  12.343   3.267 -0.5864 -0.5605  0.2802
  270MOL0     C37138   6.103  12.351   3.257 -0.0671 -0.3246  0.9172
  270MOL0     N37139   6.173  12.434   3.358 -0.1181  0.3629  0.2717
  270MOL0     C37140   6.199  12.414   3.497  0.8232  0.5261  0.2348
  270MOL0     C37141   6.265  12.519   3.543 -0.8462 -0.1838 -0.6054
  270MOL0     C37142   6.283  12.542   3.692 -0.4307 -0.0699 -0.1066
  270MOL0     C37143   6.401  12.474   3.753 -0.4688  1.1591  0.7799
  270MOL0     C37144   6.524  12.552   3.724  0.0791 -0.7800 -0.2536
  270MOL0     C37145   6.625  12.513   3.832 -0.6262  0.6149  0.2645
  270MOL0     O37146   6.674  12.386   3.793 -0.1638  0.6867  0.5315
  270MOL0     C37147   6.805  12.354   3.825 -0.8078  0.0141 -0.8222
  270MOL0     C37148   6.873  12.251   3.758  0.5621 -0.5088 -0.3841
  270MOL0     C37149   7.002  12.210   3.786  0.4294 -0.7172  0.3422
  270MOL0     C37150   7.062  12.104   3.699  0.1146 -0.3685 -0.5956
  270MOL0     C37151   7.077  12.287   3.879  0.5469  0.5900 -0.0943
  270MOL0     C37152   7.230  12.285   3.895  0.5700  0.0490 -0.4036
  270MOL0     O37153   7.299  12.182   3.848  0.5616  0.2182 -0.0400
  270MOL0     C37154   7.435  12.183   3.850  0.0571 -0.0529 -1.1091
  270MOL0     C37155   7.508  12.229   3.740  0.0454  0.4630  0.3855
  270MOL0     C37156   7.647  12.248   3.749 -0.4397  0.8699  0.4088
  270MOL0     C37157   7.707  12.207   3.870 -0.1228  0.0775 -1.0068
  270MOL0     O37158   7.841  12.234   3.876 -0.4882  0.1127  0.1597
  270MOL0     C37159   7.911  12.252   4.006  1.5474 -0.3492  0.2345
  270MOL0     C37160   8.047  12.313   3.985 -0.4859 -0.0910 -0.0980
  270MOL0     C37161   8.135  12.296   4.102 -0.4421 -1.5683 -0.4166
  270MOL0     C37162   8.278  12.339   4.072 -0.7981 -0.0816 -0.4106
  270MOL0     C37163   8.355  12.361   4.200  0.1284  1.2343  0.1178
  270MOL0     C37164   8.502  12.407   4.175 -0.3367  0.7234 -0.6508
  270MOL0     C37165   8.509  12.541   4.101 -0.1065 -0.1360 -0.0476
  270MOL0     C37166   8.646  12.616   4.136  0.1258 -1.2541 -0.0039
  270MOL0    Cl37167   8.782  12.516   4.076  0.0325 -0.1921  0.0449
  270MOL0     C37168   7.646  12.140   3.970  0.2566 -0.6931 -0.1536
  270MOL0     C37169   7.504  12.132   3.960 -0.0244  0.7962 -0.1836
  270MOL0     O37170   7.280  12.385   3.939  0.6425 -0.2909 -0.2188
  270MOL0     C37171   7.010  12.387   3.946  1.0101 -0.5553  0.0197
  270MOL0     C37172   6.881  12.419   3.928 -0.2901 -0.0654  0.3326
  270MOL0     N37173   6.305  12.598   3.435  0.2857  0.1944  0.3427
  270MOL0     N37174   6.239  12.548   3.331  0.1391 -0.3241 -1.0551
  270MOL0     C37175   5.851  11.624   3.580  0.1912  0.3025 -0.7027
  270MOL0     C37176   5.908  11.497   3.582  0.3188  0.6186 -0.3003
  270MOL0     C37177   6.005  11.060   3.658 -0.1328 -0.6013 -0.2676
  270MOL0     C37178   5.910  10.981   3.599 -1.0082  0.6627 -1.1893
  270MOL0     C37179   5.930  10.837   3.589  0.0146  0.6705  0.5440
  270MOL0     C37180   6.049  10.778   3.631 -0.1298  0.3801 -0.9468
  270MOL0     O37181   6.084  10.654   3.620 -0.4359  0.3778 -0.0539
  270MOL0     C37182   5.993  10.559   3.583 -0.0469  0.7682 -0.1511
  270MOL0     C37183   6.044  10.423   3.610 -0.6067  0.7801  0.4355
  270MOL0     C37184   6.147  10.374   3.508  0.0282 -0.1141 -0.0281
  270MOL0     C37185   6.289  10.337   3.551  0.4360 -0.7075 -0.7059
  270MOL0     C37186   6.371  10.263   3.454  0.1870  0.1689 -0.6738
  270MOL0     C37187   6.430  10.195   3.377  0.0331  0.4947 -0.5914
  270MOL0     C37188   6.141  10.861   3.702 -0.0922 -0.1397 -0.2974
  270MOL0     C37189   6.114  11.003   3.711 -0.3328  1.5053  0.0903
  270MOL0     C37190   6.227  11.073   3.786  0.2422 -0.3578 -0.9727
  270MOL0     H37191   5.633  11.319   3.488 -2.3384  1.8737 -0.7710
  270MOL0     H37192   5.527  11.525   3.529  0.3888  5.5013  1.5105
  270MOL0     H37193   5.738  11.900   3.687 -0.7755  0.8753  2.8089
  270MOL0     H37194   5.591  11.815   3.755  1.9823 -1.7466  0.6370
  270MOL0     H37195   5.454  11.941   3.584 -1.3351  3.2068  0.2778
  270MOL0     H37196   5.528  12.062   3.684 -1.8995 -0.1898  0.8472
  270MOL0     H37197   5.611  11.974   3.406  3.7878  0.5617 -0.1798
  270MOL0     H37198   5.532  12.122   3.451 -1.2258 -0.1135  1.7484
  270MOL0     H37199   5.753  12.175   3.594  0.8551  1.3872 -1.6190
  270MOL0     H37200   5.807  12.016   3.511  0.7861  0.8151 -0.5325
  270MOL0     H37201   5.693  12.252   3.357 -1.9323 -2.0195 -0.7405
  270MOL0     H37202   5.790  12.116   3.303  0.8068  0.1368 -0.6348
  270MOL0     H37203   5.895  12.343   3.472  0.4865  1.2874 -1.8836
  270MOL0     H37204   5.988  12.198   3.422  2.2354  2.3292 -0.1140
  270MOL0     H37205   5.904  12.443   3.268 -3.6922 -1.7465 -0.7423
  270MOL0     H37206   5.906  12.288   3.181 -2.6615  0.2424  0.7030
  270MOL0     H37207   6.150  12.252   3.256  0.1981 -0.2004 -0.7078
  270MOL0     H37208   6.125  12.410   3.168 -0.6889 -1.9509 -0.3601
  270MOL0     H37209   6.141  12.344   3.557  0.0607 -1.2694 -2.4056
  270MOL0     H37210   6.195  12.504   3.744 -0.3208 -0.8716 -0.4831
  270MOL0     H37211   6.284  12.651   3.702 -3.1880  0.0013  0.2262
  270MOL0     H37212   6.374  12.469   3.859 -2.3795  1.8545  0.3599
  270MOL0     H37213   6.404  12.371   3.717 -2.6108  0.8811  1.2710
  270MOL0     H37214   6.558  12.521   3.624 -2.5705 -0.7133 -1.2585
  270MOL0     H37215   6.500  12.659   3.733 -0.3685 -0.8746 -0.3082
  270MOL0     H37216   6.703  12.587   3.851  0.0094 -0.2158  1.0072
  270MOL0     H37217   6.591  12.500   3.935 -0.7744  0.7718  0.2362
  270MOL0     H37218   6.829  12.193   3.677  1.8666 -0.7454 -0.9570
  270MOL0     H37219   7.059  12.010   3.754  1.0590  1.3446  2.6094
  270MOL0     H37220   7.162  12.133   3.666 -0.7869  1.9790 -1.5020
  270MOL0     H37221   7.004  12.082   3.608  0.5990 -0.2741 -0.9326
  270MOL0     H37222   7.452  12.254   3.650  1.0043 -1.4183 -0.8018
  270MOL0     H37223   7.703  12.293   3.668 -1.3933  0.1413 -0.6884
  270MOL0     H37224   7.860  12.319   4.076  0.3410  1.9896 -2.6462
  270MOL0     H37225   7.925  12.151   4.045 -1.1235 -1.0200 -0.3464
  270MOL0     H37226   8.086  12.277   3.889 -0.7128  0.2898 -0.3389
  270MOL0     H37227   8.032  12.421   3.975 -0.5721 -0.2175 -1.6966
  270MOL0     H37228   8.129  12.195   4.144 -0.3225 -1.6795 -0.6640
  270MOL0     H37229   8.098  12.364   4.179  0.9515  0.6955 -1.6599
  270MOL0     H37230   8.278  12.431   4.013  0.3165  1.0823  1.3086
  270MOL0     H37231   8.333  12.262   4.017  0.4229  1.2570 -1.1609
  270MOL0     H37232   8.302  12.437   4.257  1.4609  0.3352  2.7535
  270MOL0     H37233   8.357  12.274   4.266  1.7336  1.0100 -0.1770
  270MOL0     H37234   8.556  12.337   4.111  1.2744  2.7058 -1.5708
  270MOL0     H37235   8.564  12.424   4.263 -0.9183  1.9568 -0.4540
  270MOL0     H37236   8.427  12.602   4.141 -0.9189 -1.1145 -0.1669
  270MOL0     H37237   8.492  12.518   3.996 -1.4748 -1.1161  0.3623
  270MOL0     H37238   8.647  12.630   4.244 -0.7739  0.4044 -0.1773
  270MOL0     H37239   8.649  12.711   4.081 -0.0985 -1.1744  0.1233
  270MOL0     H37240   7.712  12.103   4.047  1.2956 -0.6062 -0.9737
  270MOL0     H37241   7.442  12.088   4.038 -0.3473  5.1905  2.3532
  270MOL0     H37242   7.066  12.452   4.013  0.5614  1.9066 -1.8286
  270MOL0     H37243   6.842  12.496   3.994 -0.7693  0.7438 -0.8561
  270MOL0     H37244   5.909  11.712   3.602  2.4424 -1.9400  3.8838
  270MOL0     H37245   6.013  11.478   3.602  0.2036 -0.8013 -0.8931
  270MOL0     H37246   5.814  11.028   3.580 -0.6402  1.8910 -0.1603
  270MOL0     H37247   5.861  10.772   3.538  0.9438 -0.2031  0.3729
  270MOL0     H37248   5.901  10.553   3.642  1.0791 -3.3774  1.5234
  270MOL0     H37249   5.971  10.571   3.476  3.2011 -3.5103 -1.5827
  270MOL0     H37250   5.965  10.347   3.614 -0.3214  0.4343 -0.3088
  270MOL0     H37251   6.091  10.420   3.708 -1.3553  0.7914  0.8084
  270MOL0     H37252   6.099  10.292   3.455  0.3629  1.2244 -2.5530
  270MOL0     H37253   6.149  10.446   3.426 -3.1157 -2.3221 -2.3014
  270MOL0     H37254   6.287  10.272   3.639 -1.3045  1.6150  1.1057
  270MOL0     H37255   6.344  10.428   3.576  0.1460 -0.7252  0.0210
  270MOL0     H37256   6.486  10.132   3.311  0.5500  1.9445 -1.5935
  270MOL0     H37257   6.229  10.824   3.754 -1.5971 -1.4255  1.4923
  270MOL0     H37258   6.267  11.149   3.719  3.0777  0.2358  1.1524
  270MOL0     H37259   6.175  11.120   3.870  0.4853  0.6015 -1.3463
  270MOL0     H37260   6.315  11.017   3.820  0.6632 -0.4516 -2.1984
  271MOL0     O37261  10.946   4.667   0.526  0.5391  0.7915 -0.2126
  271MOL0     C37262  10.858   4.592   0.485  0.1168  0.5161  0.1910
  271MOL0     O37263  10.885   4.467   0.445  0.4346 -0.2029 -0.2618
  271MOL0     C37264  10.961   4.383   0.520 -0.2966  0.2611  0.3137
  271MOL0     C37265  11.104   4.403   0.525  0.8036  0.1272 -0.3825
  271MOL0     C37266  11.190   4.305   0.579  0.7555 -0.6901 -0.6162
  271MOL0     C37267  11.125   4.193   0.643  0.9803 -0.8414 -0.4487
  271MOL0     O37268  11.210   4.103   0.690 -0.9094  0.1306 -0.7018
  271MOL0     C37269  11.162   3.972   0.730  0.0930 -0.7983  0.0689
  271MOL0     C37270  11.274   3.883   0.785  0.3901 -0.7860  0.2538
  271MOL0     C37271  11.358   3.824   0.670 -0.2509  0.1187  0.1776
  271MOL0     C37272  11.289   3.704   0.610 -0.2570 -0.1814  0.2682
  271MOL0     C37273  11.382   3.610   0.523  0.7839 -0.6044  0.4422
  271MOL0     C37274  11.301   3.486   0.472  1.0958 -0.0334  0.1931
  271MOL0     C37275  11.353   3.420   0.363  0.5631 -0.7298  0.5672
  271MOL0     C37276  11.289   3.284   0.333  0.3314 -1.0013  0.0603
  271MOL0     N37277  11.325   3.181   0.430 -1.2156  0.6610  0.2937
  271MOL0     C37278  11.246   3.132   0.533  0.0125  1.2723  0.3097
  271MOL0     C37279  11.318   3.030   0.589 -0.7753 -0.6632 -0.2054
  271MOL0     C37280  11.287   2.948   0.707  0.1090  0.2534  0.2167
  271MOL0     C37281  11.409   2.914   0.790  0.1957  0.5680  0.4126
  271MOL0     C37282  11.381   2.858   0.928  0.1959  0.1161 -0.0384
  271MOL0     C37283  11.503   2.800   0.996 -0.3502  0.1614  0.4492
  271MOL0     O37284  11.594   2.904   1.020 -0.3195  0.6409 -1.1448
  271MOL0     C37285  11.723   2.867   1.067  0.0360  0.6110 -0.7483
  271MOL0     C37286  11.755   2.741   1.126  0.8066 -0.1099  0.2616
  271MOL0     C37287  11.883   2.703   1.172  0.1279 -0.3276 -0.2270
  271MOL0     C37288  11.893   2.558   1.220  0.2032  0.4953 -0.0090
  271MOL0     C37289  11.983   2.795   1.157 -0.0531  0.2993 -0.6581
  271MOL0     C37290  12.131   2.764   1.180 -0.8411  0.7293  0.4491
  271MOL0     O37291  12.225   2.857   1.122 -0.2496  0.0932 -0.4902
  271MOL0     C37292  12.358   2.831   1.139 -0.9936  0.3764 -0.2564
  271MOL0     C37293  12.423   2.715   1.095  0.1225 -0.9770 -0.3500
  271MOL0     C37294  12.559   2.706   1.111 -1.0795  0.3634  0.0029
  271MOL0     C37295  12.640   2.800   1.188  0.2189  0.1528  0.3234
  271MOL0     O37296  12.774   2.801   1.217 -0.3843 -0.6631 -0.8672
  271MOL0     C37297  12.853   2.720   1.124 -0.1425 -0.2061  0.3358
  271MOL0     C37298  13.003   2.758   1.103 -0.0129  0.3857  0.2168
  271MOL0     C37299  13.083   2.657   1.010  0.3106  0.7795 -0.0490
  271MOL0     C37300  13.234   2.686   1.018  0.6659  0.5922  1.1845
  271MOL0     C37301  13.317   2.600   0.936 -0.2453 -0.2487  0.9470
  271MOL0     C37302  13.447   2.672   0.914  0.3132  0.4513 -0.2446
  271MOL0     C37303  13.553   2.579   0.848 -0.4310  1.1192 -0.3070
  271MOL0     C37304  13.694   2.644   0.866 -0.3237  0.0683 -0.9669
  271MOL0    Cl37305  13.693   2.808   0.799 -0.5129 -0.1711 -0.1472
  271MOL0     C37306  12.569   2.911   1.231 -1.1269  0.5634 -0.2092
  271MOL0     C37307  12.440   2.934   1.198 -0.0664  0.4529  0.7510
  271MOL0     O37308  12.162   2.667   1.254 -0.0266  0.3948  0.6333
  271MOL0     C37309  11.951   2.928   1.112 -0.9978  0.5292 -0.1060
  271MOL0     C37310  11.824   2.962   1.062  0.4144 -0.0915 -0.7167
  271MOL0     N37311  11.436   3.025   0.515  0.0695 -0.1148  0.3565
  271MOL0     N37312  11.442   3.111   0.423 -0.1666 -0.2890 -0.0460
  271MOL0     C37313  10.985   4.180   0.634  0.3556 -0.3198 -0.1744
  271MOL0     C37314  10.900   4.280   0.583  0.3352  0.5420  0.6139
  271MOL0     C37315  10.714   4.634   0.466  0.2114 -1.1038  0.0580
  271MOL0     C37316  10.627   4.552   0.389  0.3921 -0.4415  0.5778
  271MOL0     C37317  10.494   4.577   0.362 -0.0923  0.1773 -0.3359
  271MOL0     C37318  10.441   4.694   0.423  0.7916 -0.4439  1.0848
  271MOL0     O37319  10.311   4.744   0.410 -0.0272  0.4631 -0.2209
  271MOL0     C37320  10.219   4.681   0.318 -0.7424  0.1662  0.3430
  271MOL0     C37321  10.261   4.718   0.174 -0.1347 -0.1176  0.0880
  271MOL0     C37322  10.179   4.642   0.071 -0.1347  0.5723 -0.6541
  271MOL0     C37323  10.204   4.701  -0.069  0.3774  0.6377 -0.0100
  271MOL0     C37324  10.109   4.634  -0.152  0.1060 -0.0798 -0.5836
  271MOL0     C37325  10.021   4.571  -0.214  0.0130 -1.6326 -1.3232
  271MOL0     C37326  10.523   4.775   0.506  0.0836 -0.5217 -0.0927
  271MOL0     C37327  10.658   4.749   0.522 -0.0670 -0.4979  0.1240
  271MOL0     C37328  10.740   4.842   0.607  0.3564  0.2963 -0.6221
  271MOL0     H37329  11.159   4.490   0.489  1.8115  0.0495  0.8661
  271MOL0     H37330  11.296   4.324   0.594  0.2544  0.7815  1.5245
  271MOL0     H37331  11.119   3.934   0.636 -0.0826  3.0475 -1.5686
  271MOL0     H37332  11.088   3.979   0.811  0.2940  0.5456  0.1469
  271MOL0     H37333  11.335   3.935   0.859 -0.1911 -1.2072  1.0485
  271MOL0     H37334  11.223   3.801   0.836  0.2579 -1.6062 -1.1433
  271MOL0     H37335  11.391   3.901   0.600  0.2058  1.8439  2.2008
  271MOL0     H37336  11.454   3.784   0.704 -0.4430 -0.0527  0.5223
  271MOL0     H37337  11.223   3.657   0.684 -2.8281  2.3767 -0.2088
  271MOL0     H37338  11.216   3.748   0.542 -1.2829 -0.3497  1.2248
  271MOL0     H37339  11.476   3.585   0.575 -0.9077 -2.4979  2.8183
  271MOL0     H37340  11.405   3.664   0.431 -0.9788  2.0514  1.4644
  271MOL0     H37341  11.307   3.420   0.558  0.7053 -0.5403 -0.1623
  271MOL0     H37342  11.197   3.516   0.453  2.0165  2.7567 -0.9733
  271MOL0     H37343  11.460   3.401   0.377  0.3117 -1.3263  1.7628
  271MOL0     H37344  11.347   3.490   0.279 -1.9676 -0.7045  0.6875
  271MOL0     H37345  11.180   3.287   0.318  0.5358 -1.2200 -1.6989
  271MOL0     H37346  11.321   3.257   0.232  0.7478  2.0412 -0.7192
  271MOL0     H37347  11.154   3.186   0.554 -0.0748  1.7376 -1.1801
  271MOL0     H37348  11.230   2.859   0.680  1.0938  0.5837 -3.5478
  271MOL0     H37349  11.221   3.010   0.768 -0.5510 -1.4716  1.3226
  271MOL0     H37350  11.460   2.839   0.730 -1.2244 -0.4207  0.3720
  271MOL0     H37351  11.469   3.005   0.801 -1.6614  1.6227  3.1201
  271MOL0     H37352  11.321   2.932   0.982 -0.5438 -0.8684  0.5291
  271MOL0     H37353  11.319   2.771   0.904  0.9022 -0.1992 -0.7568
  271MOL0     H37354  11.472   2.750   1.089  0.5375  0.0471  0.6996
  271MOL0     H37355  11.549   2.723   0.934  1.3860  1.5845 -0.1113
  271MOL0     H37356  11.680   2.663   1.123  1.1719 -0.4621  0.3198
  271MOL0     H37357  11.895   2.562   1.329  3.3827  1.5963  0.0030
  271MOL0     H37358  11.983   2.498   1.202 -1.5419 -2.7033  1.2247
  271MOL0     H37359  11.802   2.505   1.190  1.7898 -2.1799 -0.3918
  271MOL0     H37360  12.372   2.639   1.038 -0.9468 -0.3688 -0.2390
  271MOL0     H37361  12.606   2.612   1.082  3.8216  2.9463 -1.4796
  271MOL0     H37362  12.844   2.618   1.163  0.0410 -0.6254 -0.6660
  271MOL0     H37363  12.808   2.720   1.024  0.0289  1.1437  0.2382
  271MOL0     H37364  13.008   2.865   1.081  2.4258  1.0685  3.3843
  271MOL0     H37365  13.049   2.745   1.201 -0.4117  1.4582  0.5587
  271MOL0     H37366  13.056   2.669   0.905  0.6067  2.8157  0.0617
  271MOL0     H37367  13.063   2.554   1.040  2.0118  0.8637  1.5710
  271MOL0     H37368  13.270   2.675   1.120  1.5532 -0.9246  0.7348
  271MOL0     H37369  13.249   2.788   0.980 -1.0461 -0.0301 -1.4198
  271MOL0     H37370  13.320   2.502   0.984 -2.2059 -0.8027  0.0175
  271MOL0     H37371  13.261   2.582   0.844  0.4151  0.2618  0.4287
  271MOL0     H37372  13.489   2.711   1.007  1.4586  0.0821 -0.5949
  271MOL0     H37373  13.434   2.759   0.848  0.2155  0.4204 -0.2672
  271MOL0     H37374  13.523   2.565   0.743 -2.6983  0.6721  0.3363
  271MOL0     H37375  13.552   2.480   0.894 -0.2665  1.0319 -0.4928
  271MOL0     H37376  13.764   2.579   0.813  0.6090  0.9303 -0.8157
  271MOL0     H37377  13.723   2.647   0.971 -0.6803  3.3163 -0.8374
  271MOL0     H37378  12.612   2.985   1.298 -1.2668 -1.5166  2.3148
  271MOL0     H37379  12.379   3.017   1.233  1.2144 -0.0281  4.5871
  271MOL0     H37380  12.037   2.994   1.101 -0.5327  0.2605  1.5912
  271MOL0     H37381  11.814   3.063   1.025  0.2187 -0.4898 -1.8106
  271MOL0     H37382  10.945   4.084   0.666 -2.1065 -0.5420 -3.3610
  271MOL0     H37383  10.793   4.277   0.571  0.5184  0.6601 -1.5746
  271MOL0     H37384  10.661   4.465   0.336 -1.8243 -1.2361  0.3648
  271MOL0     H37385  10.434   4.517   0.294  0.0610  1.2387 -1.4306
  271MOL0     H37386  10.220   4.573   0.335  0.8277  0.1487  0.2301
  271MOL0     H37387  10.119   4.726   0.320 -0.8192  0.6082 -3.7598
  271MOL0     H37388  10.368   4.706   0.154  0.1024  1.1978  0.5227
  271MOL0     H37389  10.245   4.825   0.156  2.9175  0.3363 -0.6432
  271MOL0     H37390  10.218   4.539   0.065  5.2239  2.2146  0.4253
  271MOL0     H37391  10.075   4.640   0.106  0.4636  1.1059  1.3062
  271MOL0     H37392  10.308   4.680  -0.096  0.8971  1.6286  1.1058
  271MOL0     H37393  10.188   4.809  -0.067 -0.8840  0.5874 -2.9233
  271MOL0     H37394   9.940   4.516  -0.257 -0.4093 -2.8609  0.8918
  271MOL0     H37395  10.477   4.853   0.565  0.5475  1.7626 -2.5694
  271MOL0     H37396  10.684   4.933   0.628 -1.6118 -0.7093 -1.2470
  271MOL0     H37397  10.768   4.786   0.697 -1.4814 -0.1651 -0.3000
  271MOL0     H37398  10.827   4.879   0.553 -2.0202 -0.3682 -5.5172
  272MOL0     O37399   9.663   1.719  11.220  0.3806 -0.7365 -0.0754
  272MOL0     C37400   9.576   1.743  11.308  0.0181  0.0003  0.2855
  272MOL0     O37401   9.594   1.837  11.400 -0.0805  0.2394 -0.5408
  272MOL0     C37402   9.720   1.876  11.417 -0.1744  0.0991  0.0187
  272MOL0     C37403   9.765   1.993  11.353  0.3119 -0.1028 -0.4120
  272MOL0     C37404   9.903   2.023  11.360 -0.8288  0.9150 -0.1264
  272MOL0     C37405   9.991   1.946  11.434  0.1807 -0.0570 -0.6231
  272MOL0     O37406  10.129   1.960  11.446  0.4868  0.2153 -0.0181
  272MOL0     C37407  10.168   2.100  11.439 -0.2916  0.4160  0.0502
  272MOL0     C37408  10.308   2.114  11.504  0.3283  0.8053  0.3068
  272MOL0     C37409  10.363   2.259  11.487 -0.6190  0.0568 -0.0667
  272MOL0     C37410  10.480   2.268  11.587 -0.0054  0.0312 -0.5696
  272MOL0     C37411  10.556   2.401  11.581 -0.2129 -0.4662 -0.2800
  272MOL0     C37412  10.654   2.418  11.702  0.8503  0.6735 -0.3818
  272MOL0     C37413  10.730   2.283  11.728 -1.0877 -0.3933  0.4771
  272MOL0     C37414  10.855   2.302  11.813  0.0093 -0.5997  0.4963
  272MOL0     N37415  10.827   2.336  11.956 -0.1249  0.0147  0.3415
  272MOL0     C37416  10.799   2.244  12.052 -0.4383 -0.0649 -0.2676
  272MOL0     C37417  10.757   2.316  12.160  0.9879  0.3525  0.0439
  272MOL0     C37418  10.713   2.269  12.300 -0.6078 -0.1821  0.5892
  272MOL0     C37419  10.782   2.136  12.347 -0.3359  0.6963 -0.3183
  272MOL0     C37420  10.889   2.175  12.449 -0.3180  0.6743 -0.6241
  272MOL0     C37421  10.987   2.060  12.468  0.5473 -0.0560 -0.6635
  272MOL0     O37422  11.066   2.057  12.354  0.0164  0.4900 -0.5955
  272MOL0     C37423  11.198   2.028  12.361 -0.8463 -0.6301 -0.4947
  272MOL0     C37424  11.248   1.942  12.459 -0.2671  0.4028 -0.3401
  272MOL0     C37425  11.381   1.932  12.485  0.9789 -0.6877  0.1679
  272MOL0     C37426  11.405   1.866  12.619  0.6359  1.0172 -0.9078
  272MOL0     C37427  11.480   1.981  12.397 -0.8055 -0.6492  0.2674
  272MOL0     C37428  11.627   1.962  12.428  0.6904 -0.8453  0.2812
  272MOL0     O37429  11.699   1.975  12.320  0.6698 -0.2454 -0.3830
  272MOL0     C37430  11.820   2.047  12.330  0.9908  0.3259  0.6754
  272MOL0     C37431  11.937   1.980  12.309 -0.2483  0.6482 -0.3340
  272MOL0     C37432  12.057   2.044  12.314 -0.4065  0.2475  0.1173
  272MOL0     C37433  12.062   2.174  12.353  0.6762  0.4845 -0.8315
  272MOL0     O37434  12.189   2.231  12.346 -0.2139 -0.2967 -0.0089
  272MOL0     C37435  12.237   2.324  12.433  0.5365 -0.1127 -0.4007
  272MOL0     C37436  12.385   2.328  12.408  0.9891 -0.4204 -0.2801
  272MOL0     C37437  12.411   2.389  12.272 -0.3774 -0.2382  0.0210
  272MOL0     C37438  12.558   2.378  12.231 -0.9160  0.9683 -0.5040
  272MOL0     C37439  12.580   2.464  12.105  0.8252 -0.8236  0.2407
  272MOL0     C37440  12.733   2.475  12.074 -1.1183 -0.6276  0.5986
  272MOL0     C37441  12.803   2.598  12.136  0.1990  0.0553 -0.1210
  272MOL0     C37442  12.774   2.731  12.065 -0.3705 -0.5244  0.5275
  272MOL0    Cl37443  12.889   2.860  12.127 -0.5368  0.2549 -0.4537
  272MOL0     C37444  11.943   2.248  12.379  0.1081 -0.4860 -0.0885
  272MOL0     C37445  11.818   2.184  12.367 -0.9080 -0.0654  0.3179
  272MOL0     O37446  11.672   1.958  12.541 -0.9617  0.0793  0.2992
  272MOL0     C37447  11.437   2.062  12.294  0.3611 -0.1030  0.4691
  272MOL0     C37448  11.297   2.088  12.288 -0.0009 -1.4314  0.9059
  272MOL0     N37449  10.783   2.445  12.130 -0.0380 -0.2231 -0.0475
  272MOL0     N37450  10.825   2.463  12.008  0.1317  0.1113 -0.1053
  272MOL0     C37451   9.937   1.836  11.501 -0.9777 -0.0996  0.1910
  272MOL0     C37452   9.806   1.804  11.495 -0.6500  0.3686  0.0151
  272MOL0     C37453   9.440   1.680  11.314  0.3326  0.2808 -0.6102
  272MOL0     C37454   9.373   1.688  11.441  0.2701 -0.2797  0.3669
  272MOL0     C37455   9.246   1.644  11.468  1.3047 -0.0843  0.3454
  272MOL0     C37456   9.171   1.581  11.362  0.3603 -0.7057  0.4277
  272MOL0     O37457   9.050   1.530  11.377 -0.0429  0.9255  0.4266
  272MOL0     C37458   8.977   1.560  11.492  0.7891 -0.7493  0.3811
  272MOL0     C37459   8.826   1.559  11.447 -0.4973 -0.4598 -0.1495
  272MOL0     C37460   8.776   1.439  11.368  0.8947 -0.6560 -0.4722
  272MOL0     C37461   8.622   1.445  11.351 -0.4626  0.2136 -0.0840
  272MOL0     C37462   8.584   1.348  11.249 -0.4280 -0.0092 -0.1745
  272MOL0     C37463   8.554   1.258  11.182 -0.0238 -0.7752  0.3719
  272MOL0     C37464   9.241   1.561  11.236 -0.0802 -0.6829 -0.9385
  272MOL0     C37465   9.376   1.603  11.206  0.0267 -0.2332 -1.1113
  272MOL0     C37466   9.441   1.582  11.072 -0.3685 -0.4794 -0.8042
  272MOL0     H37467   9.693   2.057  11.304 -0.7523 -0.3070  0.8306
  272MOL0     H37468   9.933   2.119  11.320  2.9083 -0.0802 -0.0562
  272MOL0     H37469  10.100   2.154  11.506 -0.0818 -1.9070  2.3102
  272MOL0     H37470  10.168   2.134  11.336 -1.1575  0.0691 -0.0745
  272MOL0     H37471  10.292   2.094  11.611 -4.7504 -0.7987 -0.5046
  272MOL0     H37472  10.374   2.046  11.450  0.2211  0.2662  0.8421
  272MOL0     H37473  10.402   2.278  11.387  1.5529  0.1915  0.7437
  272MOL0     H37474  10.286   2.334  11.508 -2.1610 -1.7040  0.8410
  272MOL0     H37475  10.446   2.255  11.691  1.7865 -0.8635 -0.0646
  272MOL0     H37476  10.545   2.184  11.561  1.1231  0.4764  0.6644
  272MOL0     H37477  10.479   2.478  11.593 -1.5469 -1.8309  0.3027
  272MOL0     H37478  10.609   2.409  11.486  4.0028 -0.9692  1.8353
  272MOL0     H37479  10.722   2.501  11.683  0.5955  0.1050 -4.8269
  272MOL0     H37480  10.603   2.438  11.796  2.8343 -0.8785  1.1041
  272MOL0     H37481  10.773   2.245  11.636 -0.8954  1.3031 -0.1639
  272MOL0     H37482  10.665   2.201  11.761 -2.6109  0.0405 -1.2450
  272MOL0     H37483  10.907   2.206  11.813 -1.1845 -1.2752 -0.2540
  272MOL0     H37484  10.916   2.383  11.773 -0.1329 -0.5516  0.3739
  272MOL0     H37485  10.808   2.136  12.048  0.3211  0.0110 -0.8620
  272MOL0     H37486  10.606   2.248  12.293 -0.8725  1.6191 -3.2590
  272MOL0     H37487  10.733   2.348  12.374 -1.1931  0.1545  0.3930
  272MOL0     H37488  10.712   2.059  12.382 -0.5626 -0.3010 -2.7167
  272MOL0     H37489  10.829   2.082  12.264 -1.0543 -1.3609  0.5330
  272MOL0     H37490  10.938   2.268  12.419  1.4949  0.0620  0.2842
  272MOL0     H37491  10.832   2.195  12.539  0.3080  1.2654 -0.3519
  272MOL0     H37492  11.042   2.075  12.562 -0.0982  0.4072 -0.3515
  272MOL0     H37493  10.933   1.966  12.481  0.3268 -0.0337 -1.4119
  272MOL0     H37494  11.171   1.891  12.516  0.5608  0.0480  0.4823
  272MOL0     H37495  11.485   1.791  12.610 -2.0326 -1.7936 -4.0767
  272MOL0     H37496  11.321   1.801  12.645  1.3152  1.0915  1.6959
  272MOL0     H37497  11.420   1.935  12.702 -0.2299 -0.8600  0.9065
  272MOL0     H37498  11.928   1.873  12.297 -4.6135  1.1207 -3.8307
  272MOL0     H37499  12.150   1.989  12.327  1.3293  3.1779  1.2393
  272MOL0     H37500  12.188   2.421  12.421 -0.9431 -0.5138  1.7209
  272MOL0     H37501  12.216   2.298  12.537 -0.7921 -0.2744 -0.6878
  272MOL0     H37502  12.430   2.392  12.484  0.4360  0.9826 -1.0953
  272MOL0     H37503  12.426   2.227  12.416  1.7056  0.0020  3.4847
  272MOL0     H37504  12.390   2.497  12.269 -0.5756 -0.2412  0.8665
  272MOL0     H37505  12.352   2.336  12.197 -2.0062  2.1348 -0.4866
  272MOL0     H37506  12.586   2.273  12.218  2.0634  1.8318 -1.8847
  272MOL0     H37507  12.614   2.417  12.316  1.1311  0.3312 -1.5031
  272MOL0     H37508  12.522   2.422  12.022  0.6464  2.0342 -1.2302
  272MOL0     H37509  12.541   2.566  12.119  0.0636 -0.7447 -1.9965
  272MOL0     H37510  12.755   2.473  11.967 -1.2031 -1.7380  0.5885
  272MOL0     H37511  12.786   2.390  12.118  2.2158  0.7574 -0.4254
  272MOL0     H37512  12.910   2.582  12.145  0.1379 -0.5081 -0.3256
  272MOL0     H37513  12.764   2.594  12.239 -0.0123  0.1491 -0.1956
  272MOL0     H37514  12.671   2.754  12.094 -0.0693  0.0073  1.2134
  272MOL0     H37515  12.783   2.726  11.956  2.0152 -1.5607  0.7056
  272MOL0     H37516  11.963   2.351  12.405 -0.7440 -0.9685  2.9763
  272MOL0     H37517  11.722   2.234  12.375 -0.2139  2.6145 -4.3549
  272MOL0     H37518  11.506   2.108  12.224  0.0345  0.9768  0.8340
  272MOL0     H37519  11.256   2.147  12.206  0.8474 -2.8605 -0.6103
  272MOL0     H37520  10.008   1.774  11.556 -0.4802 -0.4811 -0.8650
  272MOL0     H37521   9.773   1.713  11.544 -0.4767 -0.6011 -1.5936
  272MOL0     H37522   9.423   1.739  11.523 -0.1076  0.2782  0.2506
  272MOL0     H37523   9.199   1.664  11.564  0.6545 -1.7665  0.4057
  272MOL0     H37524   8.992   1.484  11.570 -0.7604  0.0286  1.4846
  272MOL0     H37525   9.001   1.657  11.537  0.1896 -0.0261 -0.8261
  272MOL0     H37526   8.812   1.650  11.388  1.8988 -0.4584 -0.8618
  272MOL0     H37527   8.765   1.558  11.537 -2.7603  0.1156 -1.6111
  272MOL0     H37528   8.831   1.449  11.274 -0.6760 -1.6786 -1.5462
  272MOL0     H37529   8.796   1.344  11.419  1.9914  0.4864  1.3649
  272MOL0     H37530   8.584   1.543  11.322  1.6155  1.2427  0.5019
  272MOL0     H37531   8.571   1.415  11.443  1.4266  1.0347  1.2886
  272MOL0     H37532   8.517   1.183  11.115 -2.0835  1.7072 -1.4455
  272MOL0     H37533   9.191   1.512  11.153 -2.0409  0.3314 -0.4224
  272MOL0     H37534   9.369   1.544  10.999 -2.4431  2.0945 -0.2323
  272MOL0     H37535   9.479   1.678  11.036  1.0691 -1.7607 -2.9674
  272MOL0     H37536   9.516   1.504  11.084 -2.0682 -2.1475 -0.5352
  273MOL0     O37537  10.600   8.487   9.604 -1.0138 -0.1007 -0.9167
  273MOL0     C37538  10.504   8.545   9.567 -1.0020 -0.6358 -0.4757
  273MOL0     O37539  10.458   8.543   9.440  0.3726  0.2501  0.1098
  273MOL0     C37540  10.527   8.491   9.334 -0.3208  0.7322 -0.0182
  273MOL0     C37541  10.513   8.350   9.312 -0.2097 -0.1035 -0.0408
  273MOL0     C37542  10.571   8.294   9.191  0.8934 -0.0324 -0.0913
  273MOL0     C37543  10.653   8.370   9.105  0.3737 -0.1740 -0.2361
  273MOL0     O37544  10.713   8.311   8.995 -0.0712 -0.1374  0.3689
  273MOL0     C37545  10.848   8.268   9.026 -0.6827  0.3343  0.8943
  273MOL0     C37546  10.913   8.227   8.894  0.1623 -0.0324 -0.3350
  273MOL0     C37547  11.058   8.186   8.914 -0.1021 -0.0955 -0.6725
  273MOL0     C37548  11.134   8.145   8.783 -0.1660 -0.8423  0.0744
  273MOL0     C37549  11.263   8.227   8.746 -0.3053  0.6304  0.2918
  273MOL0     C37550  11.399   8.163   8.804 -0.8612 -0.5214  0.4846
  273MOL0     C37551  11.410   8.124   8.948 -0.2631 -0.4020 -0.3031
  273MOL0     C37552  11.512   8.005   8.970  0.0620  0.5685  1.1161
  273MOL0     N37553  11.635   8.014   8.885  0.1168 -0.7410 -0.4008
  273MOL0     C37554  11.754   8.073   8.926  0.4918 -0.1332  0.0559
  273MOL0     C37555  11.844   8.031   8.830  0.1426 -1.0235  1.5612
  273MOL0     C37556  11.984   8.069   8.823 -1.1855 -0.6109  0.4607
  273MOL0     C37557  12.046   8.017   8.687 -0.7991 -0.2353  0.2615
  273MOL0     C37558  12.200   8.028   8.688  0.0416 -0.0888 -0.9112
  273MOL0     C37559  12.237   8.170   8.675  0.0492  0.7713 -0.5176
  273MOL0     O37560  12.377   8.193   8.697 -0.1252 -0.6929 -0.4292
  273MOL0     C37561  12.436   8.214   8.575 -1.1442 -0.2445 -0.5130
  273MOL0     C37562  12.567   8.153   8.556 -0.5134 -0.4891  0.0671
  273MOL0     C37563  12.648   8.182   8.442 -0.4537  0.9836  0.5031
  273MOL0     C37564  12.782   8.109   8.423  0.2583  0.5414  0.6869
  273MOL0     C37565  12.603   8.270   8.342  0.6751  0.4947  0.1688
  273MOL0     C37566  12.677   8.315   8.229  0.6098 -0.0370 -0.3370
  273MOL0     O37567  12.689   8.443   8.208 -0.3039  0.8424 -0.1472
  273MOL0     C37568  12.770   8.469   8.105  0.1339 -0.6291  0.6402
  273MOL0     C37569  12.904   8.504   8.136  0.5689  0.2105  1.5335
  273MOL0     C37570  12.992   8.540   8.030  0.4178  0.6913 -0.0250
  273MOL0     C37571  12.940   8.539   7.895 -0.5428  0.1032 -0.6845
  273MOL0     O37572  13.018   8.575   7.800 -0.4883 -0.1005  0.3441
  273MOL0     C37573  12.994   8.709   7.739 -0.0215 -0.1845 -0.1577
  273MOL0     C37574  13.121   8.758   7.672  0.6663  0.5649 -0.2959
  273MOL0     C37575  13.091   8.886   7.595  1.2600 -0.5063 -0.0033
  273MOL0     C37576  13.216   8.959   7.562 -0.8555 -0.2360 -0.6226
  273MOL0     C37577  13.195   9.068   7.455  0.8861 -1.0834  0.9120
  273MOL0     C37578  13.319   9.152   7.459 -0.1052 -1.0422  0.1921
  273MOL0     C37579  13.307   9.268   7.370  1.1858 -0.5501  0.3303
  273MOL0     C37580  13.236   9.384   7.442 -0.2250  0.0120  0.2546
  273MOL0    Cl37581  13.204   9.493   7.323  0.2671 -0.0147  0.1637
  273MOL0     C37582  12.811   8.497   7.869 -0.2410  0.3135  0.1845
  273MOL0     C37583  12.723   8.467   7.973 -0.4724  0.1621 -0.0956
  273MOL0     O37584  12.723   8.224   8.160  0.2763 -0.4255  0.5212
  273MOL0     C37585  12.475   8.324   8.357  0.1151  0.9037 -0.5832
  273MOL0     C37586  12.397   8.304   8.473  0.0799 -0.3617 -0.3181
  273MOL0     N37587  11.772   7.954   8.737 -0.2793  0.4784 -0.1923
  273MOL0     N37588  11.651   7.932   8.775  0.0682  0.0381  0.0427
  273MOL0     C37589  10.670   8.509   9.137  0.4507  0.0176 -0.0406
  273MOL0     C37590  10.613   8.564   9.254  0.2515  0.0585  0.0308
  273MOL0     C37591  10.406   8.580   9.664 -0.6605  0.7181 -0.8220
  273MOL0     C37592  10.274   8.594   9.625  0.1822  0.1899 -0.4316
  273MOL0     C37593  10.178   8.651   9.710 -0.1877 -0.1871 -0.9973
  273MOL0     C37594  10.211   8.677   9.842  0.6566 -0.5633  0.0192
  273MOL0     O37595  10.105   8.715   9.915 -0.0495  0.5518 -0.3386
  273MOL0     C37596  10.127   8.836   9.989 -0.3407 -0.0284  0.2534
  273MOL0     C37597  10.143   8.969   9.914 -0.7713  0.4402  0.3817
  273MOL0     C37598  10.013   9.012   9.842  0.1289 -0.4671 -0.3210
  273MOL0     C37599   9.954   9.152   9.894 -0.6598  0.5830 -0.1923
  273MOL0     C37600  10.054   9.258   9.879 -0.3429  0.2008  0.5328
  273MOL0     C37601  10.149   9.336   9.877 -0.2172  0.4669  0.0853
  273MOL0     C37602  10.335   8.648   9.889  0.2749  0.0117  0.3364
  273MOL0     C37603  10.438   8.610   9.800  0.6577  0.8088  0.5763
  273MOL0     C37604  10.573   8.587   9.866  0.2606  0.4189  0.4426
  273MOL0     H37605  10.466   8.275   9.375 -0.0842 -2.0477 -2.1090
  273MOL0     H37606  10.562   8.194   9.150 -2.2473  0.7438 -1.6078
  273MOL0     H37607  10.847   8.181   9.092  0.2455 -0.8000 -0.5232
  273MOL0     H37608  10.911   8.347   9.069  0.6724 -0.8978  1.2550
  273MOL0     H37609  10.857   8.147   8.845 -0.9343 -0.6300  1.7688
  273MOL0     H37610  10.914   8.313   8.826  0.8080  0.3109  0.0972
  273MOL0     H37611  11.103   8.270   8.968 -0.9314 -0.5594  0.8221
  273MOL0     H37612  11.059   8.098   8.978  1.3906 -0.1986 -0.8057
  273MOL0     H37613  11.161   8.039   8.787 -0.0877 -0.9324 -2.0917
  273MOL0     H37614  11.072   8.163   8.695  2.5689  0.9694 -1.6575
  273MOL0     H37615  11.257   8.333   8.772 -1.1963  0.4545  0.8665
  273MOL0     H37616  11.273   8.227   8.637 -0.2461  0.7183  0.2967
  273MOL0     H37617  11.408   8.081   8.732  1.2571  1.6821 -2.0161
  273MOL0     H37618  11.481   8.232   8.784 -3.7199  2.6741 -1.2300
  273MOL0     H37619  11.313   8.096   8.989 -0.8515  1.3127 -0.4571
  273MOL0     H37620  11.437   8.214   9.003 -4.1642  1.4012 -1.0246
  273MOL0     H37621  11.531   7.995   9.078 -1.0418  3.2739  1.6461
  273MOL0     H37622  11.450   7.921   8.938 -0.6954  1.4281  0.2362
  273MOL0     H37623  11.764   8.139   9.012  1.8222  1.0666 -0.9439
  273MOL0     H37624  12.041   8.030   8.908 -1.5344  0.3919  1.1712
  273MOL0     H37625  11.982   8.176   8.848 -0.3895 -1.0730  2.7954
  273MOL0     H37626  12.020   7.913   8.667 -1.3331  0.2182 -1.5741
  273MOL0     H37627  11.998   8.066   8.602  1.1126  1.3693  0.0115
  273MOL0     H37628  12.229   7.973   8.778 -3.9288 -2.9503 -1.1071
  273MOL0     H37629  12.243   7.974   8.603 -1.0469  0.1527 -1.6337
  273MOL0     H37630  12.205   8.193   8.573 -0.9717 -2.1513 -0.9446
  273MOL0     H37631  12.178   8.229   8.745 -1.9473 -1.0862 -0.5371
  273MOL0     H37632  12.595   8.078   8.629  3.0094 -0.4373 -1.0322
  273MOL0     H37633  12.755   8.008   8.390 -0.5390  0.5156  1.4054
  273MOL0     H37634  12.826   8.102   8.523  1.6816 -0.8063  0.0158
  273MOL0     H37635  12.858   8.156   8.360  1.5116 -0.9159  1.0414
  273MOL0     H37636  12.947   8.494   8.235  2.2796 -0.5839  0.7585
  273MOL0     H37637  13.096   8.560   8.053  1.2633 -1.8595 -1.1777
  273MOL0     H37638  12.913   8.708   7.666  1.9841  2.0399 -2.6616
  273MOL0     H37639  12.975   8.778   7.821  0.6189 -2.3310  1.9125
  273MOL0     H37640  13.188   8.794   7.750 -1.2620  1.9329  0.8129
  273MOL0     H37641  13.163   8.686   7.600 -0.8577  0.0512 -0.7062
  273MOL0     H37642  13.014   8.946   7.644  0.7726 -0.0717 -1.2517
  273MOL0     H37643  13.034   8.849   7.509 -1.2670 -0.1665  1.4476
  273MOL0     H37644  13.300   8.893   7.540  0.5552  0.6472  1.7524
  273MOL0     H37645  13.254   9.007   7.652  2.3101 -2.9050 -0.3677
  273MOL0     H37646  13.174   9.033   7.354  0.0092  0.7864  0.3829
  273MOL0     H37647  13.105   9.125   7.481  1.6641  0.4378  0.4062
  273MOL0     H37648  13.403   9.094   7.418  1.4369  0.0516  1.6453
  273MOL0     H37649  13.337   9.187   7.561 -2.9875 -0.1091  0.4663
  273MOL0     H37650  13.259   9.239   7.276  2.2146 -0.2423 -0.3083
  273MOL0     H37651  13.406   9.294   7.331 -0.9512  1.3579 -4.6964
  273MOL0     H37652  13.305   9.433   7.512 -1.2176 -0.6518  1.7332
  273MOL0     H37653  13.151   9.357   7.504 -1.8645  3.9066 -0.0300
  273MOL0     H37654  12.759   8.486   7.775 -3.4617 -0.6954  1.9313
  273MOL0     H37655  12.621   8.433   7.959 -0.5901  1.3198 -2.5559
  273MOL0     H37656  12.427   8.389   8.284 -0.5540 -0.3321 -1.2810
  273MOL0     H37657  12.302   8.355   8.484  0.9265  0.8939  2.1620
  273MOL0     H37658  10.715   8.570   9.060 -0.9253  0.3522 -0.6206
  273MOL0     H37659  10.616   8.672   9.266 -2.7619  0.6431 -2.9021
  273MOL0     H37660  10.234   8.573   9.526 -1.6218 -0.0327  0.3095
  273MOL0     H37661  10.072   8.653   9.685 -0.7122  2.7505  1.0042
  273MOL0     H37662  10.066   8.851  10.079  1.8000 -0.1595  1.8113
  273MOL0     H37663  10.229   8.834  10.030  0.0515  3.0092 -0.3363
  273MOL0     H37664  10.223   8.957   9.840  0.5080  2.0333  1.4376
  273MOL0     H37665  10.181   9.053   9.973  3.0169  0.4556 -1.7201
  273MOL0     H37666  10.025   9.015   9.733 -2.1595 -0.7842 -0.6312
  273MOL0     H37667   9.942   8.930   9.854  0.7337 -1.4587 -2.7605
  273MOL0     H37668   9.930   9.137  10.000  0.6544  0.4743  0.1071
  273MOL0     H37669   9.867   9.176   9.832  0.3715 -1.7693 -2.7770
  273MOL0     H37670  10.226   9.410   9.871  3.4901 -2.6414  3.4216
  273MOL0     H37671  10.357   8.668   9.994 -0.3393 -0.1749  0.5076
  273MOL0     H37672  10.654   8.622   9.802  0.5423  1.6591  1.4161
  273MOL0     H37673  10.569   8.649   9.957  2.4081  0.9314  0.2486
  273MOL0     H37674  10.597   8.483   9.891  1.0833  0.2664 -0.8943
  274MOL0     O37675   9.431   3.734   3.868 -0.8555  0.1803 -0.2554
  274MOL0     C37676   9.361   3.794   3.949 -0.0703 -0.3065 -0.4280
  274MOL0     O37677   9.410   3.861   4.059 -0.1415 -0.3962  0.2926
  274MOL0     C37678   9.545   3.853   4.090 -0.2120 -0.2804 -0.2230
  274MOL0     C37679   9.647   3.887   3.995  0.5222 -0.1952  0.5043
  274MOL0     C37680   9.776   3.846   4.018  0.0477  0.6457 -0.0003
  274MOL0     C37681   9.817   3.791   4.138 -0.7083 -1.0051  0.0594
  274MOL0     O37682   9.950   3.765   4.160  0.0688  0.5494 -0.3854
  274MOL0     C37683  10.002   3.790   4.288  0.0716  0.2932 -0.0140
  274MOL0     C37684  10.154   3.766   4.288 -0.2529  0.8942  0.5648
  274MOL0     C37685  10.222   3.860   4.188 -0.2926 -0.0321  0.1628
  274MOL0     C37686  10.375   3.850   4.200  0.6404 -0.1216  0.0404
  274MOL0     C37687  10.458   3.935   4.104  0.4937  0.0432 -0.3487
  274MOL0     C37688  10.603   3.877   4.092  0.2005 -0.2047 -0.5978
  274MOL0     C37689  10.697   3.975   4.025  0.0046 -1.0472  0.7962
  274MOL0     C37690  10.744   4.090   4.124 -0.3112 -0.5896  0.1764
  274MOL0     N37691  10.850   4.045   4.215 -0.6128  0.3629 -0.5458
  274MOL0     C37692  10.980   3.997   4.183  0.4277  0.2376  0.6306
  274MOL0     C37693  11.041   3.980   4.306  0.1039 -0.6012  0.4748
  274MOL0     C37694  11.189   3.928   4.318  0.3880  0.3796  0.0989
  274MOL0     C37695  11.286   4.026   4.388  0.0401  0.9598 -0.6921
  274MOL0     C37696  11.412   3.940   4.416  0.6399 -0.0121  0.1860
  274MOL0     C37697  11.531   4.036   4.443  1.0028 -0.6248  0.9073
  274MOL0     O37698  11.571   4.094   4.325 -0.3474 -0.6371  0.2736
  274MOL0     C37699  11.623   4.217   4.330  0.1597  0.2732  0.1304
  274MOL0     C37700  11.658   4.285   4.210 -0.8370 -0.7363 -0.7802
  274MOL0     C37701  11.744   4.394   4.201 -0.6735 -0.2405 -0.6022
  274MOL0     C37702  11.773   4.433   4.056 -0.0894 -0.0024 -0.2807
  274MOL0     C37703  11.786   4.456   4.318 -0.3109  0.4353 -0.2381
  274MOL0     C37704  11.877   4.574   4.321  0.4784 -0.9029 -0.0288
  274MOL0     O37705  11.953   4.589   4.436  0.0030  0.0820  0.1734
  274MOL0     C37706  12.014   4.706   4.455  0.2911  0.2820 -0.4695
  274MOL0     C37707  11.950   4.791   4.546  0.3947 -0.1083  0.1897
  274MOL0     C37708  12.017   4.911   4.572  0.4766 -1.0082 -0.3146
  274MOL0     C37709  12.144   4.940   4.522  0.5964 -0.4784 -1.0003
  274MOL0     O37710  12.214   5.054   4.541 -0.0593 -0.2234 -0.9694
  274MOL0     C37711  12.198   5.134   4.665  0.0162  0.4982 -0.8756
  274MOL0     C37712  12.325   5.213   4.674  0.2498  0.0971  0.0304
  274MOL0     C37713  12.317   5.263   4.820  0.4061 -0.2591  0.1660
  274MOL0     C37714  12.431   5.349   4.864 -0.0910 -0.4974 -0.8919
  274MOL0     C37715  12.382   5.413   4.990 -0.1086  0.1592 -0.1311
  274MOL0     C37716  12.497   5.466   5.083  0.3473  0.4151 -0.2185
  274MOL0     C37717  12.448   5.515   5.219  1.1319  0.5890  0.2474
  274MOL0     C37718  12.582   5.554   5.297 -0.0745 -0.3080 -0.4858
  274MOL0    Cl37719  12.712   5.432   5.315 -0.1830 -0.1594  0.1158
  274MOL0     C37720  12.207   4.846   4.442 -0.2154  0.0913  0.4134
  274MOL0     C37721  12.139   4.732   4.403 -0.5707  1.2334 -1.5255
  274MOL0     O37722  11.891   4.643   4.223  0.9148 -0.6836  0.9179
  274MOL0     C37723  11.759   4.384   4.443 -0.1593 -0.1903 -0.6298
  274MOL0     C37724  11.675   4.267   4.454  0.2784 -0.5170  0.0407
  274MOL0     N37725  10.953   4.013   4.404  0.9074  0.2317  0.2026
  274MOL0     N37726  10.841   4.058   4.352 -0.6717 -0.4947 -0.1604
  274MOL0     C37727   9.720   3.773   4.239  0.7334  0.2975 -0.2940
  274MOL0     C37728   9.580   3.797   4.216  0.3270  0.2740  0.0965
  274MOL0     C37729   9.220   3.832   3.927 -0.0109 -0.3316 -0.2037
  274MOL0     C37730   9.152   3.930   4.007  0.3536 -0.1078  0.2482
  274MOL0     C37731   9.016   3.953   4.000  0.2158 -0.5248  0.4740
  274MOL0     C37732   8.938   3.892   3.908 -0.1603  0.6672 -0.3269
  274MOL0     O37733   8.804   3.929   3.900 -0.0833 -0.2761  0.0466
  274MOL0     C37734   8.736   3.903   3.778 -0.5351 -0.6344  1.2747
  274MOL0     C37735   8.588   3.953   3.778 -0.2267  0.1245  0.0433
  274MOL0     C37736   8.499   3.876   3.670  0.3373  0.2547 -0.3101
  274MOL0     C37737   8.398   3.968   3.611  0.4951  0.3499 -0.1286
  274MOL0     C37738   8.449   4.089   3.541  0.0533  0.0673  0.3304
  274MOL0     C37739   8.491   4.181   3.466 -0.1427  0.4518 -0.0874
  274MOL0     C37740   9.002   3.800   3.828  0.1043 -0.0528  0.3710
  274MOL0     C37741   9.138   3.764   3.833  0.1909 -0.1753  0.4301
  274MOL0     C37742   9.185   3.651   3.740 -0.7223  1.2199 -0.0713
  274MOL0     H37743   9.623   3.946   3.907  1.8362  2.9153  2.1074
  274MOL0     H37744   9.855   3.851   3.943  2.1670 -0.9144  1.9433
  274MOL0     H37745   9.960   3.718   4.359 -0.0814  0.7026  0.3114
  274MOL0     H37746   9.985   3.892   4.323  1.2519  0.0196  1.4566
  274MOL0     H37747  10.188   3.800   4.387  0.4116 -1.1849  1.1067
  274MOL0     H37748  10.177   3.660   4.278  0.3455  1.1158 -0.4602
  274MOL0     H37749  10.195   3.826   4.087 -1.8643  0.4152  0.4045
  274MOL0     H37750  10.191   3.963   4.207  1.6530  0.3841  1.3074
  274MOL0     H37751  10.391   3.891   4.300 -4.6005  0.9350  0.7213
  274MOL0     H37752  10.412   3.747   4.195  1.6730  0.2564 -3.9964
  274MOL0     H37753  10.462   4.038   4.142 -2.6293  0.5439 -1.0989
  274MOL0     H37754  10.405   3.934   4.008 -2.1977 -1.0136  1.0313
  274MOL0     H37755  10.649   3.847   4.186  1.5196  1.4466 -0.6724
  274MOL0     H37756  10.592   3.793   4.023 -1.2649  0.4586 -1.2358
  274MOL0     H37757  10.640   4.015   3.941  0.1278 -0.2946  1.0569
  274MOL0     H37758  10.781   3.918   3.984  0.3879  0.4459 -0.5832
  274MOL0     H37759  10.772   4.174   4.059 -0.2281  0.3942  1.4230
  274MOL0     H37760  10.660   4.136   4.177 -0.5059 -0.1060 -0.5416
  274MOL0     H37761  11.026   3.989   4.085 -0.0336  1.3455  0.3070
  274MOL0     H37762  11.218   3.898   4.217 -1.0555  0.4698 -0.3614
  274MOL0     H37763  11.184   3.840   4.383 -0.5016  1.9674  2.2860
  274MOL0     H37764  11.305   4.110   4.320 -1.3122  2.2283  0.4517
  274MOL0     H37765  11.246   4.080   4.473  1.8213  2.7911 -0.9264
  274MOL0     H37766  11.398   3.882   4.507 -0.4525 -0.5583 -0.3105
  274MOL0     H37767  11.424   3.865   4.337 -2.0191  1.3143 -1.6240
  274MOL0     H37768  11.503   4.111   4.517  0.8506  3.0769 -2.5609
  274MOL0     H37769  11.616   3.979   4.483  2.6574 -0.5601 -2.2027
  274MOL0     H37770  11.617   4.242   4.119 -2.2086 -0.1299 -0.4845
  274MOL0     H37771  11.879   4.445   4.031  0.6862  0.6476  2.8938
  274MOL0     H37772  11.741   4.537   4.050 -3.2521 -0.7175  1.7926
  274MOL0     H37773  11.710   4.375   3.989  2.0017  1.3183 -3.6583
  274MOL0     H37774  11.851   4.773   4.588 -1.1211  3.1179 -1.6034
  274MOL0     H37775  11.953   4.970   4.637  1.5383 -0.6883  0.4689
  274MOL0     H37776  12.108   5.196   4.661  0.8260  1.7708 -0.2351
  274MOL0     H37777  12.185   5.071   4.753 -1.3727  0.4924 -1.0530
  274MOL0     H37778  12.409   5.145   4.657  1.1052  1.8254 -3.9262
  274MOL0     H37779  12.329   5.282   4.589 -3.1076 -0.4222 -0.6570
  274MOL0     H37780  12.310   5.176   4.886 -1.7546 -1.0488 -1.0165
  274MOL0     H37781  12.224   5.320   4.837 -0.1674 -1.0644 -0.2345
  274MOL0     H37782  12.456   5.429   4.793  0.9949 -1.1296 -1.2452
  274MOL0     H37783  12.517   5.283   4.877 -0.0292 -0.0742  1.0346
  274MOL0     H37784  12.309   5.492   4.971  0.1844  0.3497 -0.4790
  274MOL0     H37785  12.327   5.336   5.045 -1.0080  0.2406 -0.8908
  274MOL0     H37786  12.540   5.552   5.031  3.2656 -1.3029 -0.8931
  274MOL0     H37787  12.576   5.392   5.095  0.1530  0.3645  0.7685
  274MOL0     H37788  12.409   5.435   5.283 -1.2504 -0.0509 -1.8453
  274MOL0     H37789  12.379   5.600   5.215  0.0195 -0.3022  0.0512
  274MOL0     H37790  12.555   5.588   5.397 -0.2763  3.2004 -1.5942
  274MOL0     H37791  12.625   5.645   5.254  0.4328 -0.6515 -0.7041
  274MOL0     H37792  12.312   4.860   4.419 -0.1940 -2.1007 -1.1530
  274MOL0     H37793  12.185   4.656   4.341 -2.4977 -0.2323 -1.2418
  274MOL0     H37794  11.807   4.433   4.528  1.0200 -1.7745 -0.3452
  274MOL0     H37795  11.665   4.226   4.555  3.6498  2.3350  1.7696
  274MOL0     H37796   9.752   3.742   4.338  1.0790 -0.0090 -0.5017
  274MOL0     H37797   9.502   3.788   4.291  1.4087  0.6921  1.3247
  274MOL0     H37798   9.201   3.991   4.081  1.1130  0.5169 -0.7581
  274MOL0     H37799   8.971   4.041   4.046  1.1239  0.9749 -1.4082
  274MOL0     H37800   8.796   3.958   3.705  0.0805 -1.1017  1.4160
  274MOL0     H37801   8.733   3.799   3.747 -1.6467  0.0859 -1.2591
  274MOL0     H37802   8.587   4.063   3.775 -2.0212  0.2134  1.8690
  274MOL0     H37803   8.541   3.913   3.868 -3.8486  0.9798 -1.2863
  274MOL0     H37804   8.568   3.837   3.594  1.3554 -1.8420  1.5592
  274MOL0     H37805   8.461   3.793   3.730  0.6349  2.2977  2.9574
  274MOL0     H37806   8.333   4.004   3.691  1.1878 -1.4903  1.3424
  274MOL0     H37807   8.332   3.911   3.546 -0.0380  1.7992 -0.8951
  274MOL0     H37808   8.512   4.255   3.392  1.0394  1.1413  0.8886
  274MOL0     H37809   8.938   3.755   3.753 -1.8491  0.8495  1.4103
  274MOL0     H37810   9.253   3.678   3.659 -1.9223  0.8279 -1.2357
  274MOL0     H37811   9.247   3.580   3.797  3.5978  3.7460 -1.1641
  274MOL0     H37812   9.103   3.590   3.702 -1.6490  1.4117  1.5205
  275MOL0     O37813   7.117   6.144   2.674  0.1422 -0.4253  0.7148
  275MOL0     C37814   7.025   6.174   2.748 -0.3782  0.3537 -0.5880
  275MOL0     O37815   7.017   6.152   2.882  0.3291 -0.3083  0.2530
  275MOL0     C37816   7.127   6.119   2.956 -0.1017  0.4400 -0.4999
  275MOL0     C37817   7.097   6.134   3.094 -0.1745 -0.2735  0.1548
  275MOL0     C37818   7.198   6.108   3.189 -0.3528 -0.7194 -0.2726
  275MOL0     C37819   7.331   6.069   3.150 -0.3844  0.2399  0.3106
  275MOL0     O37820   7.431   6.048   3.237  0.4107 -0.3277  0.1009
  275MOL0     C37821   7.480   6.166   3.324  0.5363 -0.0966  0.4614
  275MOL0     C37822   7.591   6.244   3.239 -0.5387  0.1253  0.5227
  275MOL0     C37823   7.724   6.163   3.234 -0.6502  1.5436 -0.0850
  275MOL0     C37824   7.842   6.247   3.158  0.8336  0.2121 -0.1232
  275MOL0     C37825   7.970   6.160   3.131  0.9736  0.0386 -0.1680
  275MOL0     C37826   8.051   6.121   3.252 -0.1663 -0.5432 -0.3908
  275MOL0     C37827   8.172   6.040   3.201  0.4988 -0.2993 -0.1664
  275MOL0     C37828   8.279   6.133   3.161  0.1024 -0.1264  0.5257
  275MOL0     N37829   8.406   6.058   3.148  0.3735  0.6330 -0.2008
  275MOL0     C37830   8.510   6.079   3.231 -0.1636  0.4062 -0.5200
  275MOL0     C37831   8.602   5.992   3.185 -0.0626 -0.1424  0.1959
  275MOL0     C37832   8.741   5.979   3.240 -1.7669 -0.2476 -0.2961
  275MOL0     C37833   8.834   5.963   3.120 -0.4806 -0.1007 -0.8741
  275MOL0     C37834   8.985   5.938   3.155  0.0897 -0.1496  0.6551
  275MOL0     C37835   9.007   5.826   3.260 -0.3413  0.6211  0.2064
  275MOL0     O37836   9.099   5.730   3.210 -0.3906 -0.0492 -0.2412
  275MOL0     C37837   9.232   5.768   3.195 -0.0699 -0.2231 -0.0640
  275MOL0     C37838   9.299   5.716   3.077 -1.2087  0.0699 -0.9272
  275MOL0     C37839   9.438   5.743   3.056 -0.2407  0.6206  0.0116
  275MOL0     C37840   9.490   5.672   2.936  0.4912 -0.0610 -0.3480
  275MOL0     C37841   9.512   5.821   3.145 -0.5223 -0.2664  0.3682
  275MOL0     C37842   9.655   5.851   3.119  0.5156  0.5394  0.3469
  275MOL0     O37843   9.726   5.874   3.228  0.2962 -0.5218  0.3442
  275MOL0     C37844   9.860   5.852   3.215  0.4816 -0.4523 -0.2470
  275MOL0     C37845   9.938   5.959   3.270  0.7669  1.1074  0.8534
  275MOL0     C37846  10.072   5.961   3.266  0.0337 -0.2637 -0.9805
  275MOL0     C37847  10.150   5.850   3.219  0.9285 -0.7546  0.0383
  275MOL0     O37848  10.282   5.850   3.224 -0.5252 -0.7398 -0.3692
  275MOL0     C37849  10.357   5.743   3.180  0.6080 -1.4721 -0.2483
  275MOL0     C37850  10.500   5.773   3.218 -0.0992 -0.0477 -0.4732
  275MOL0     C37851  10.559   5.900   3.175  0.3408 -0.7237  0.4498
  275MOL0     C37852  10.705   5.896   3.196 -0.4950  0.5309 -0.3058
  275MOL0     C37853  10.777   6.021   3.140  0.7924  0.2870  0.1565
  275MOL0     C37854  10.924   6.005   3.113 -0.3104 -0.5300  0.3000
  275MOL0     C37855  10.990   6.140   3.080 -0.0312  0.1472  1.1007
  275MOL0     C37856  11.131   6.112   3.051  0.3830 -0.0710 -0.5218
  275MOL0    Cl37857  11.208   6.260   2.983  0.1120 -0.0047 -0.3932
  275MOL0     C37858  10.076   5.747   3.153 -0.3093 -0.6604  0.0081
  275MOL0     C37859   9.932   5.756   3.142  0.9639 -0.1890  0.6182
  275MOL0     O37860   9.698   5.852   2.999  0.1247 -0.1662 -0.0941
  275MOL0     C37861   9.447   5.869   3.261  0.3984 -0.6037 -0.0175
  275MOL0     C37862   9.312   5.848   3.279 -0.4753 -0.2189 -0.7112
  275MOL0     N37863   8.556   5.934   3.071 -0.3611 -0.0280  0.2079
  275MOL0     N37864   8.437   5.970   3.042 -0.1329 -0.8390 -0.7527
  275MOL0     C37865   7.360   6.059   3.014 -0.2510 -0.3546  0.0974
  275MOL0     C37866   7.258   6.081   2.920  0.1172 -0.3773 -0.2642
  275MOL0     C37867   6.895   6.220   2.693  0.9395 -0.5075 -0.6295
  275MOL0     C37868   6.799   6.277   2.786 -0.8091  0.1596 -0.6729
  275MOL0     C37869   6.676   6.326   2.754  1.1365 -0.4671 -0.2179
  275MOL0     C37870   6.629   6.312   2.625  0.5916 -0.5642 -0.1456
  275MOL0     O37871   6.505   6.366   2.591 -0.0890 -0.0350 -0.0889
  275MOL0     C37872   6.457   6.482   2.664  0.9338  0.4525  0.4938
  275MOL0     C37873   6.333   6.542   2.599 -0.0498  0.1985  0.9355
  275MOL0     C37874   6.372   6.563   2.454  0.2372 -0.4832 -0.2447
  275MOL0     C37875   6.245   6.620   2.376 -0.1542 -0.0757 -0.3950
  275MOL0     C37876   6.280   6.693   2.251  0.0215  0.1151 -0.1488
  275MOL0     C37877   6.312   6.764   2.158 -0.6837 -0.4620 -0.2000
  275MOL0     C37878   6.713   6.251   2.531  0.2730 -0.3271  0.2445
  275MOL0     C37879   6.841   6.215   2.561 -0.3250  0.0645 -0.1459
  275MOL0     C37880   6.920   6.147   2.445 -0.7168  0.1150 -0.0738
  275MOL0     H37881   6.993   6.161   3.111 -0.2650  1.2536 -2.2193
  275MOL0     H37882   7.177   6.116   3.295  3.3707 -0.2998  0.5761
  275MOL0     H37883   7.515   6.129   3.421  1.5555 -1.3634 -0.3462
  275MOL0     H37884   7.394   6.232   3.340  0.9251  0.2729  1.0625
  275MOL0     H37885   7.556   6.269   3.138  2.7545 -0.1501 -0.7907
  275MOL0     H37886   7.618   6.346   3.268 -0.5752  0.6621 -1.1945
  275MOL0     H37887   7.748   6.149   3.340  0.8176  1.4041 -0.4191
  275MOL0     H37888   7.710   6.067   3.183  0.2455  0.8374  0.9541
  275MOL0     H37889   7.793   6.269   3.062 -1.3989 -3.6319 -0.0630
  275MOL0     H37890   7.877   6.340   3.205  1.9907 -0.0602 -0.4157
  275MOL0     H37891   8.035   6.222   3.069  3.2267 -1.7154  0.3256
  275MOL0     H37892   7.941   6.074   3.069 -0.2046  0.2161  0.1141
  275MOL0     H37893   8.086   6.204   3.314  3.3638 -2.2230  0.0983
  275MOL0     H37894   7.985   6.069   3.323 -0.7436  0.9316  0.1897
  275MOL0     H37895   8.146   5.986   3.110 -2.7398  0.3573  0.2762
  275MOL0     H37896   8.203   5.978   3.286 -0.3401 -0.6551 -0.1094
  275MOL0     H37897   8.250   6.178   3.066  1.0018  1.9853  1.2063
  275MOL0     H37898   8.296   6.216   3.230  1.6701  1.1232 -1.2861
  275MOL0     H37899   8.509   6.130   3.327 -3.8949 -3.3663  1.8370
  275MOL0     H37900   8.739   5.892   3.307  0.5317  0.1800  0.4080
  275MOL0     H37901   8.771   6.066   3.300  2.5499 -2.4168  1.1290
  275MOL0     H37902   8.791   5.874   3.073 -2.3219 -0.7950  1.8582
  275MOL0     H37903   8.821   6.051   3.057 -2.7588  2.7299  3.0271
  275MOL0     H37904   9.035   5.923   3.059 -2.1259 -0.5575 -0.5173
  275MOL0     H37905   9.010   6.035   3.199  0.7598 -1.0592  2.3769
  275MOL0     H37906   9.043   5.877   3.350 -1.3965 -0.8920  1.5350
  275MOL0     H37907   8.910   5.780   3.279 -1.2252  2.7498  1.1342
  275MOL0     H37908   9.227   5.658   3.020 -0.3682 -1.7730 -0.1855
  275MOL0     H37909   9.498   5.743   2.853 -1.2666 -3.4414 -3.7209
  275MOL0     H37910   9.414   5.605   2.895 -0.3184  1.8102 -2.1055
  275MOL0     H37911   9.589   5.626   2.943 -0.3811 -1.7298  2.8580
  275MOL0     H37912   9.884   6.034   3.327 -1.4600  1.4145 -1.4799
  275MOL0     H37913  10.113   6.053   3.308 -2.0654  0.0412  0.5551
  275MOL0     H37914  10.328   5.650   3.230 -0.1198 -0.4253  1.3517
  275MOL0     H37915  10.338   5.716   3.075 -2.6267 -1.5203  0.2506
  275MOL0     H37916  10.503   5.777   3.327  0.3579 -0.9704 -0.4392
  275MOL0     H37917  10.559   5.688   3.181 -1.5285 -0.4060 -2.0794
  275MOL0     H37918  10.507   5.972   3.239  1.4955 -1.4607  2.3081
  275MOL0     H37919  10.523   5.923   3.075 -1.0236 -1.3188  0.7722
  275MOL0     H37920  10.747   5.810   3.143  0.0410 -0.1849  1.2045
  275MOL0     H37921  10.734   5.897   3.301 -1.4031 -0.0232 -0.0340
  275MOL0     H37922  10.729   6.045   3.044  2.3564 -0.3542 -0.8300
  275MOL0     H37923  10.766   6.098   3.217  2.3503 -0.7808  1.5116
  275MOL0     H37924  10.936   5.930   3.034  0.9099 -1.7494  1.5688
  275MOL0     H37925  10.973   5.975   3.206 -0.8690  2.0111  1.4708
  275MOL0     H37926  10.981   6.214   3.159  0.8769  0.9272  0.4875
  275MOL0     H37927  10.958   6.185   2.985  2.9555 -1.2582 -0.7052
  275MOL0     H37928  11.127   6.041   2.968 -2.7418  1.1229 -1.5581
  275MOL0     H37929  11.178   6.069   3.140  1.3710 -1.3064 -1.6015
  275MOL0     H37930  10.121   5.669   3.092 -0.9913  0.4229 -1.9883
  275MOL0     H37931   9.870   5.679   3.098 -0.8617  0.1516  2.4010
  275MOL0     H37932   9.500   5.928   3.335 -1.4823 -0.0341  0.9322
  275MOL0     H37933   9.251   5.884   3.361  0.4889  0.0118 -0.0702
  275MOL0     H37934   7.458   6.028   2.978 -1.5142 -0.7543 -3.3871
  275MOL0     H37935   7.272   6.076   2.813 -2.2596 -3.6694 -0.5669
  275MOL0     H37936   6.821   6.274   2.892 -1.5939 -2.7229 -0.4944
  275MOL0     H37937   6.605   6.366   2.827 -0.3025 -1.7701 -0.8467
  275MOL0     H37938   6.428   6.446   2.763  1.0822 -0.0526  0.3531
  275MOL0     H37939   6.537   6.555   2.676  0.1169  1.5081 -0.2736
  275MOL0     H37940   6.302   6.637   2.644  1.7104  1.1480  0.2317
  275MOL0     H37941   6.257   6.463   2.604  1.5772 -1.4901  0.3411
  275MOL0     H37942   6.448   6.642   2.446 -1.5177  1.5894  1.8802
  275MOL0     H37943   6.409   6.472   2.408  0.6032 -1.0635  1.1398
  275MOL0     H37944   6.195   6.686   2.447 -0.7701 -2.0496  1.1029
  275MOL0     H37945   6.169   6.545   2.353  0.2681 -0.0944 -1.8334
  275MOL0     H37946   6.353   6.834   2.088  1.3525  1.1750  2.4054
  275MOL0     H37947   6.674   6.213   2.437  0.3228 -0.2462  0.1907
  275MOL0     H37948   6.864   6.139   2.352  1.7472 -4.3237 -1.5167
  275MOL0     H37949   7.012   6.205   2.433 -1.4793  0.9320 -2.6651
  275MOL0     H37950   6.949   6.043   2.461  1.3751 -0.0926 -3.8924
  276MOL0     O37951   0.479   7.715   4.978 -0.2364  0.1078 -0.1638
  276MOL0     C37952   0.460   7.595   4.996  0.7834 -0.2107 -0.2726
  276MOL0     O37953   0.340   7.541   5.039 -0.6604 -0.1121 -0.5095
  276MOL0     C37954   0.242   7.619   5.096 -0.2299  0.4549  0.9921
  276MOL0     C37955   0.118   7.598   5.044  0.0591  0.2344  0.4499
  276MOL0     C37956  -0.000   7.650   5.098 -0.8137 -0.2783 -0.1134
  276MOL0     C37957   0.009   7.729   5.211  0.5363 -0.2626 -0.0631
  276MOL0     O37958  -0.094   7.788   5.272  0.6235 -0.7858 -0.2541
  276MOL0     C37959  -0.219   7.809   5.208  0.2677  0.5489  0.8067
  276MOL0     C37960  -0.289   7.928   5.281  0.0516  0.6022 -0.3765
  276MOL0     C37961  -0.316   7.886   5.434  0.6756  0.7002  1.4347
  276MOL0     C37962  -0.436   7.975   5.484 -0.1445  0.0992 -0.0104
  276MOL0     C37963  -0.469   7.917   5.623 -1.2758  0.1318 -0.2314
  276MOL0     C37964  -0.499   8.026   5.727  0.9191  0.6222  0.3421
  276MOL0     C37965  -0.528   7.964   5.859  0.3853  0.0607  0.2067
  276MOL0     C37966  -0.610   8.048   5.961  1.7536 -1.0395 -0.8472
  276MOL0     N37967  -0.606   8.009   6.107 -0.6036 -0.1416  0.7099
  276MOL0     C37968  -0.601   7.877   6.154 -0.1735 -0.3122  0.7230
  276MOL0     C37969  -0.576   7.888   6.284 -0.4615 -0.1010 -0.5658
  276MOL0     C37970  -0.528   7.784   6.377 -0.8257  0.2029  0.5591
  276MOL0     C37971  -0.389   7.733   6.337 -0.0534  0.2852 -0.4530
  276MOL0     C37972  -0.287   7.794   6.429  0.3844  0.1443 -0.6785
  276MOL0     C37973  -0.152   7.802   6.358  0.2996 -0.0903 -0.4525
  276MOL0     O37974  -0.115   7.664   6.345 -1.0805  0.0554  0.1354
  276MOL0     C37975  -0.018   7.635   6.259 -0.2820  1.2789 -0.4552
  276MOL0     C37976  -0.012   7.508   6.205  0.3309 -0.2515 -0.3821
  276MOL0     C37977   0.095   7.473   6.141 -0.8260  0.5463  0.7047
  276MOL0     C37978   0.100   7.324   6.100 -0.6303  0.1094 -0.5087
  276MOL0     C37979   0.208   7.555   6.109  0.1743 -0.7846 -0.0948
  276MOL0     C37980   0.339   7.523   6.048 -0.3790 -0.0531  0.2581
  276MOL0     O37981   0.450   7.577   6.106 -0.2693  0.2967  0.1371
  276MOL0     C37982   0.558   7.584   6.031  0.5627 -0.3177  0.0208
  276MOL0     C37983   0.587   7.712   5.987 -0.7004  1.0371  0.1143
  276MOL0     C37984   0.712   7.725   5.922  0.0116  0.1157  0.4078
  276MOL0     C37985   0.799   7.619   5.894  1.0989 -0.5967  0.1922
  276MOL0     O37986   0.902   7.640   5.811  0.2991  0.2284  0.1224
  276MOL0     C37987   1.025   7.646   5.879  0.4592 -0.2091  0.2298
  276MOL0     C37988   1.137   7.658   5.778 -1.2414 -1.1061 -0.9006
  276MOL0     C37989   1.279   7.665   5.837 -0.8382 -0.7608  0.3959
  276MOL0     C37990   1.374   7.730   5.726  0.4475  0.3325  0.1911
  276MOL0     C37991   1.512   7.741   5.771 -0.2537 -0.1202 -0.1669
  276MOL0     C37992   1.592   7.826   5.669  0.9720 -0.3574  0.3101
  276MOL0     C37993   1.743   7.837   5.699 -0.7559  0.8063 -0.0224
  276MOL0     C37994   1.810   7.959   5.639 -0.7965  0.1072 -0.1638
  276MOL0    Cl37995   1.994   7.915   5.638 -0.3428  0.4431 -0.0302
  276MOL0     C37996   0.766   7.499   5.941 -0.2990 -0.0726 -0.0798
  276MOL0     C37997   0.647   7.481   6.018 -0.2982  0.4574  0.4114
  276MOL0     O37998   0.334   7.450   5.949 -0.5440  0.4608 -0.5538
  276MOL0     C37999   0.204   7.678   6.168  1.5119 -0.5302  1.1003
  276MOL0     C38000   0.088   7.722   6.242  0.0428 -0.0395 -0.5227
  276MOL0     N38001  -0.559   8.019   6.318  0.4773  0.7002  0.5271
  276MOL0     N38002  -0.562   8.084   6.211  0.8099 -0.0098  0.5606
  276MOL0     C38003   0.137   7.745   5.268 -0.4222 -0.8091  0.4286
  276MOL0     C38004   0.252   7.692   5.211  0.3692 -0.3708  0.4167
  276MOL0     C38005   0.561   7.493   4.967 -0.2568 -0.2263  0.3971
  276MOL0     C38006   0.506   7.376   4.912 -0.8365 -0.5833  0.5186
  276MOL0     C38007   0.589   7.272   4.880 -0.2296  0.6332  0.4966
  276MOL0     C38008   0.726   7.287   4.880 -0.2812 -0.2632  0.0653
  276MOL0     O38009   0.796   7.168   4.853  0.0312  0.2072 -0.3295
  276MOL0     C38010   0.923   7.138   4.900  0.1615 -0.5660 -0.1547
  276MOL0     C38011   0.935   7.118   5.047  0.3945  0.6190 -1.2376
  276MOL0     C38012   0.834   7.012   5.104  0.1964 -0.1646 -0.2291
  276MOL0     C38013   0.866   6.861   5.056 -0.1451 -0.7312 -0.2864
  276MOL0     C38014   0.766   6.764   5.097  0.6741  0.8043 -0.5920
  276MOL0     C38015   0.680   6.682   5.125  0.3398  0.4083 -0.4491
  276MOL0     C38016   0.785   7.400   4.931 -0.0354  0.0101  0.5325
  276MOL0     C38017   0.703   7.510   4.975 -0.5331  0.4748  0.0517
  276MOL0     C38018   0.774   7.630   5.031 -0.1170 -0.3809 -0.2979
  276MOL0     H38019   0.100   7.543   4.952 -1.7058  0.4875  0.6079
  276MOL0     H38020  -0.094   7.614   5.057 -1.5575 -0.0512  1.3297
  276MOL0     H38021  -0.295   7.730   5.218 -1.2779  1.9663  0.6897
  276MOL0     H38022  -0.208   7.827   5.101  2.5108  0.5592  1.0045
  276MOL0     H38023  -0.230   8.019   5.266 -1.3600  1.5256 -0.4896
  276MOL0     H38024  -0.391   7.941   5.242 -1.2259  0.9561  2.8043
  276MOL0     H38025  -0.331   7.778   5.441  0.2459  0.5764 -0.7197
  276MOL0     H38026  -0.233   7.911   5.501  0.9926  0.7927  1.0136
  276MOL0     H38027  -0.410   8.080   5.498 -0.8177  0.2717 -0.0389
  276MOL0     H38028  -0.524   7.974   5.420 -0.2244 -0.4484  0.1023
  276MOL0     H38029  -0.383   7.857   5.653 -1.4840 -1.1977 -2.1043
  276MOL0     H38030  -0.555   7.850   5.616 -2.6199  1.3513  2.6650
  276MOL0     H38031  -0.429   8.110   5.725  3.4210 -1.3549 -1.0563
  276MOL0     H38032  -0.594   8.069   5.692  1.0295  2.2332  1.8713
  276MOL0     H38033  -0.438   7.926   5.908  0.8727  0.6236 -0.2344
  276MOL0     H38034  -0.588   7.874   5.845  0.4657 -0.4441  2.6487
  276MOL0     H38035  -0.584   8.154   5.961 -0.5958 -0.3934 -1.0509
  276MOL0     H38036  -0.710   8.044   5.916  2.1282  1.2353 -2.0460
  276MOL0     H38037  -0.625   7.786   6.099 -0.2199  0.6998 -0.9911
  276MOL0     H38038  -0.596   7.698   6.372 -1.7979  0.9083  1.2934
  276MOL0     H38039  -0.527   7.820   6.481 -0.7100  1.4690  0.1252
  276MOL0     H38040  -0.390   7.624   6.344  0.8472  0.2686 -0.4904
  276MOL0     H38041  -0.373   7.766   6.234  0.3352  0.8976 -0.2084
  276MOL0     H38042  -0.312   7.893   6.470  1.3468 -0.8304  2.6170
  276MOL0     H38043  -0.264   7.730   6.515  0.1216  2.8917  1.6051
  276MOL0     H38044  -0.175   7.844   6.260 -1.3849  0.0393 -0.0287
  276MOL0     H38045  -0.086   7.867   6.415 -1.7600  1.8976 -0.2105
  276MOL0     H38046  -0.084   7.428   6.216  1.5438 -1.4663 -0.8950
  276MOL0     H38047   0.005   7.273   6.115  0.3152 -1.3269  0.9039
  276MOL0     H38048   0.179   7.270   6.153 -1.1930 -0.5276 -0.3094
  276MOL0     H38049   0.114   7.303   5.993  1.8649 -1.1497 -0.0112
  276MOL0     H38050   0.535   7.805   6.007 -2.8815 -0.1829  0.4647
  276MOL0     H38051   0.729   7.824   5.881  2.3918  0.8756  2.9430
  276MOL0     H38052   1.017   7.734   5.945  0.2760  2.0790 -2.6596
  276MOL0     H38053   1.032   7.556   5.941  0.0865 -0.0008  0.5846
  276MOL0     H38054   1.129   7.575   5.708  0.4312 -0.8609 -1.4448
  276MOL0     H38055   1.121   7.750   5.720 -1.1778  0.6717  1.7154
  276MOL0     H38056   1.313   7.563   5.861  3.1508 -0.6254 -3.4560
  276MOL0     H38057   1.286   7.709   5.937 -0.3203 -0.1573  0.0969
  276MOL0     H38058   1.335   7.827   5.696  0.2012  0.1598 -0.0428
  276MOL0     H38059   1.382   7.665   5.639  1.3181 -1.2259  1.3684
  276MOL0     H38060   1.528   7.786   5.870  1.2726  0.6039 -0.7189
  276MOL0     H38061   1.560   7.644   5.765  0.8080  0.2517  1.6860
  276MOL0     H38062   1.552   7.928   5.669 -0.7092 -0.9801 -0.5345
  276MOL0     H38063   1.568   7.792   5.568 -1.5492  1.6704  0.1192
  276MOL0     H38064   1.798   7.746   5.675 -0.0456  1.5212 -1.2477
  276MOL0     H38065   1.748   7.857   5.806  0.2563  4.0341 -0.5522
  276MOL0     H38066   1.793   8.050   5.697  0.9568 -0.6668  1.6786
  276MOL0     H38067   1.770   7.967   5.537  0.1664  0.8292 -0.5005
  276MOL0     H38068   0.843   7.425   5.922  2.4279  3.2184 -3.5954
  276MOL0     H38069   0.647   7.384   6.066  1.2085  0.3046  0.1712
  276MOL0     H38070   0.289   7.747   6.164  0.9640  0.1718  1.2888
  276MOL0     H38071   0.085   7.817   6.294  1.1168 -0.3410  0.1246
  276MOL0     H38072   0.148   7.796   5.364  1.5772 -2.0292  0.9120
  276MOL0     H38073   0.350   7.707   5.255  1.7366  1.5279 -2.8977
  276MOL0     H38074   0.402   7.357   4.888 -0.0193 -1.8939 -2.3797
  276MOL0     H38075   0.538   7.178   4.859 -0.3427  1.3005 -2.6412
  276MOL0     H38076   0.964   7.047   4.858 -1.8529 -1.5733 -0.0693
  276MOL0     H38077   0.985   7.219   4.861 -0.0660 -0.8359 -1.0860
  276MOL0     H38078   0.929   7.217   5.093 -2.0423 -0.0252  0.0195
  276MOL0     H38079   1.033   7.081   5.078 -1.3535 -2.4870  1.1451
  276MOL0     H38080   0.830   7.023   5.213  0.5299  0.8122 -0.3081
  276MOL0     H38081   0.732   7.032   5.069 -0.6032 -2.1912  0.7646
  276MOL0     H38082   0.959   6.837   5.108 -1.5590 -2.2497  1.6584
  276MOL0     H38083   0.879   6.849   4.948  0.4444 -1.7324 -0.1237
  276MOL0     H38084   0.621   6.598   5.155  1.7017 -0.3499  0.2057
  276MOL0     H38085   0.889   7.429   4.934 -0.0043  0.2919 -1.7235
  276MOL0     H38086   0.883   7.632   5.035 -0.1569  1.2314  1.6355
  276MOL0     H38087   0.744   7.715   4.969 -0.7997  1.6969  2.6565
  276MOL0     H38088   0.741   7.637   5.135 -1.4518 -2.6814 -0.4883
  277MOL0     O38089   8.310   2.736  10.214  0.1820 -0.1946  0.0855
  277MOL0     C38090   8.405   2.708  10.146 -0.6087 -0.3273  0.0523
  277MOL0     O38091   8.418   2.592  10.068  0.4418 -0.3758 -0.4228
  277MOL0     C38092   8.319   2.496  10.070  0.1464 -0.1003 -0.3902
  277MOL0     C38093   8.362   2.358  10.063  0.3568 -0.3017  0.6241
  277MOL0     C38094   8.269   2.251  10.057  0.6454  0.3092 -0.3651
  277MOL0     C38095   8.130   2.275  10.055 -0.7615 -0.2418 -0.0408
  277MOL0     O38096   8.031   2.176  10.054  0.0284 -0.1459  0.1455
  277MOL0     C38097   7.981   2.170   9.918 -0.1464  0.9051  0.2369
  277MOL0     C38098   7.933   2.024   9.888 -0.0721  0.3509 -0.0237
  277MOL0     C38099   7.911   2.002   9.741 -0.6290 -0.0099  0.2604
  277MOL0     C38100   7.842   1.869   9.716 -0.6838  0.6971  0.9576
  277MOL0     C38101   7.838   1.843   9.563 -0.3903  0.3849  0.0120
  277MOL0     C38102   7.764   1.945   9.474 -0.5080 -0.3551  0.5271
  277MOL0     C38103   7.748   1.882   9.329  0.3431  0.6133 -0.0847
  277MOL0     C38104   7.692   1.994   9.241 -0.6526  0.0641  0.4790
  277MOL0     N38105   7.781   2.113   9.226 -0.0843 -0.7116  0.1362
  277MOL0     C38106   7.904   2.112   9.173 -0.3793  0.4582 -0.1827
  277MOL0     C38107   7.952   2.242   9.200  0.1770 -1.1446 -0.3812
  277MOL0     C38108   8.094   2.295   9.174  1.0483 -0.0500  0.4969
  277MOL0     C38109   8.128   2.260   9.033  0.1522 -0.5242  0.4280
  277MOL0     C38110   8.234   2.357   8.974  0.0830 -0.0864 -1.0528
  277MOL0     C38111   8.252   2.338   8.825  0.0332  0.1397  0.2180
  277MOL0     O38112   8.335   2.443   8.771  0.2617 -0.6129  0.2192
  277MOL0     C38113   8.464   2.454   8.811 -0.4389  0.7377  0.0781
  277MOL0     C38114   8.549   2.350   8.819  0.0149  0.1159  0.3568
  277MOL0     C38115   8.685   2.371   8.851 -0.3596 -0.0836 -0.4666
  277MOL0     C38116   8.771   2.248   8.858 -0.4361  0.0075 -0.4220
  277MOL0     C38117   8.739   2.500   8.869  0.3972 -0.3207  0.2524
  277MOL0     C38118   8.880   2.529   8.879 -0.1873 -0.1290 -0.3971
  277MOL0     O38119   8.974   2.434   8.893 -0.3534 -0.3235  0.3954
  277MOL0     C38120   9.102   2.463   8.939  0.5638 -0.3670 -0.2311
  277MOL0     C38121   9.133   2.516   9.061 -0.1956  0.4209  0.0881
  277MOL0     C38122   9.267   2.527   9.098  0.0559  0.0469  0.4782
  277MOL0     C38123   9.371   2.482   9.013 -0.1244  0.7236 -0.5019
  277MOL0     O38124   9.497   2.482   9.070 -0.1305 -0.4201  0.6546
  277MOL0     C38125   9.605   2.485   8.978 -0.1203  0.2904 -0.6110
  277MOL0     C38126   9.740   2.508   9.050 -0.9800 -0.1691  0.1792
  277MOL0     C38127   9.865   2.475   8.964  0.5265 -0.1781 -0.4391
  277MOL0     C38128   9.997   2.500   9.031  0.5796 -0.4823 -0.0348
  277MOL0     C38129  10.123   2.473   8.947 -0.9439 -0.2016  0.0338
  277MOL0     C38130  10.162   2.582   8.846  0.7928 -0.0690 -0.4710
  277MOL0     C38131  10.280   2.668   8.891  0.1803 -0.2343  0.3922
  277MOL0     C38132  10.428   2.617   8.877 -0.1137  0.4806 -0.7041
  277MOL0    Cl38133  10.490   2.622   8.713  0.0549 -0.1600 -0.6279
  277MOL0     C38134   9.337   2.439   8.879 -0.3823  0.1612  0.1143
  277MOL0     C38135   9.206   2.434   8.854  0.2241  0.5810 -0.2107
  277MOL0     O38136   8.912   2.651   8.879  0.6252 -0.0226 -0.2553
  277MOL0     C38137   8.653   2.608   8.864  0.8675  0.0816  0.2740
  277MOL0     C38138   8.520   2.583   8.825 -0.4706 -0.2892  0.0282
  277MOL0     N38139   7.851   2.316   9.261  0.0231 -0.1535  0.1697
  277MOL0     N38140   7.751   2.239   9.270 -0.1617 -0.0524 -0.7953
  277MOL0     C38141   8.090   2.409  10.070  0.3165  0.3078  0.1664
  277MOL0     C38142   8.186   2.519  10.085  0.7476  0.3833  0.3704
  277MOL0     C38143   8.515   2.816  10.141 -0.2970  0.9100 -0.2094
  277MOL0     C38144   8.468   2.939  10.179 -0.1637  0.2755 -0.0578
  277MOL0     C38145   8.545   3.058  10.167  0.2825 -0.1789  0.0095
  277MOL0     C38146   8.677   3.044  10.119  0.3801  0.0219 -0.2343
  277MOL0     O38147   8.771   3.142  10.102 -0.9446  0.1876 -0.3859
  277MOL0     C38148   8.732   3.279  10.102 -0.1814  0.1027 -0.3354
  277MOL0     C38149   8.852   3.372  10.067  1.0825  0.4653  0.1545
  277MOL0     C38150   8.809   3.509  10.029  0.2945  0.0933  0.0359
  277MOL0     C38151   8.790   3.597  10.158  0.1351  0.2827  0.2603
  277MOL0     C38152   8.716   3.720  10.132  0.1483  0.0374  0.1334
  277MOL0     C38153   8.660   3.822  10.093  0.9551 -0.5704 -0.6943
  277MOL0     C38154   8.735   2.914  10.097 -0.1656  0.1951  0.2084
  277MOL0     C38155   8.648   2.800  10.097 -0.4149 -0.2872  0.1204
  277MOL0     C38156   8.708   2.659  10.069 -0.4364  0.1516  0.0574
  277MOL0     H38157   8.469   2.340  10.071  0.4523 -0.1746 -0.2775
  277MOL0     H38158   8.297   2.147  10.072  0.1327  0.5018  2.3860
  277MOL0     H38159   8.058   2.201   9.847  1.0297 -0.7122  0.7325
  277MOL0     H38160   7.893   2.233   9.908  0.3752  2.1292  2.6734
  277MOL0     H38161   7.999   1.951   9.934  0.0849  2.0025  2.6298
  277MOL0     H38162   7.839   2.022   9.945  1.0842  2.3628  2.1812
  277MOL0     H38163   7.844   2.082   9.707 -0.6548 -0.0986  0.1051
  277MOL0     H38164   8.009   2.011   9.693 -1.5216 -2.0497 -2.1353
  277MOL0     H38165   7.892   1.786   9.767 -0.8322 -0.4225 -0.6245
  277MOL0     H38166   7.742   1.869   9.760 -1.3252  2.0153 -0.3977
  277MOL0     H38167   7.783   1.749   9.550  0.6860 -0.3340  0.5574
  277MOL0     H38168   7.939   1.837   9.521 -0.0116 -0.7879  1.0265
  277MOL0     H38169   7.668   1.975   9.516 -0.2878  0.7541  0.2806
  277MOL0     H38170   7.827   2.035   9.471  2.0119 -1.7881  4.2218
  277MOL0     H38171   7.679   1.797   9.321  1.7597 -0.5452 -0.5485
  277MOL0     H38172   7.841   1.842   9.288  0.9338  0.7950  1.0588
  277MOL0     H38173   7.672   1.944   9.146  0.5969 -2.5828  1.4772
  277MOL0     H38174   7.593   2.024   9.276 -0.7085 -0.7607  1.0649
  277MOL0     H38175   7.963   2.028   9.136 -0.3983  1.1452 -1.8698
  277MOL0     H38176   8.172   2.252   9.237 -0.6943 -2.3824  1.2241
  277MOL0     H38177   8.093   2.403   9.188  0.9114  0.1502 -0.9867
  277MOL0     H38178   8.165   2.157   9.030  0.4810 -0.3870 -1.2020
  277MOL0     H38179   8.038   2.249   8.972  0.8985 -1.0428 -0.6048
  277MOL0     H38180   8.207   2.460   8.999 -1.4896  0.0647 -3.1163
  277MOL0     H38181   8.328   2.332   9.024 -0.0914 -0.6633 -1.0021
  277MOL0     H38182   8.299   2.244   8.796  1.1786  0.6381  0.4053
  277MOL0     H38183   8.155   2.352   8.776  1.2397 -0.2331 -2.4307
  277MOL0     H38184   8.509   2.253   8.789  0.0723 -0.3699  1.7965
  277MOL0     H38185   8.840   2.239   8.774  0.7186  2.2724  0.2055
  277MOL0     H38186   8.701   2.164   8.865 -1.1995  0.7509  1.5778
  277MOL0     H38187   8.823   2.250   8.955  0.8964 -3.2784 -0.9401
  277MOL0     H38188   9.063   2.539   9.140  1.0644  0.6021  1.1854
  277MOL0     H38189   9.302   2.563   9.195  1.7838 -2.1026  0.7130
  277MOL0     H38190   9.619   2.396   8.916 -0.3905 -0.5996  0.5793
  277MOL0     H38191   9.585   2.572   8.916  0.0258  2.7629  2.5479
  277MOL0     H38192   9.753   2.610   9.088 -1.7225  0.8552 -2.1242
  277MOL0     H38193   9.747   2.442   9.137  2.8442  3.2101  2.8381
  277MOL0     H38194   9.860   2.528   8.869  0.9784 -0.5339 -0.6681
  277MOL0     H38195   9.869   2.372   8.926 -1.1679 -0.0959 -0.8950
  277MOL0     H38196   9.989   2.440   9.121 -0.8928 -2.3663 -1.3448
  277MOL0     H38197  10.002   2.607   9.055 -2.0689 -0.7031  1.9835
  277MOL0     H38198  10.213   2.466   9.009  1.0572  0.1621 -2.6751
  277MOL0     H38199  10.117   2.374   8.901 -2.2310 -0.0412 -0.1857
  277MOL0     H38200  10.084   2.653   8.817 -1.2909 -1.3666  1.5406
  277MOL0     H38201  10.198   2.527   8.759 -1.4087 -1.2142 -0.7422
  277MOL0     H38202  10.269   2.696   8.996  1.8209  0.9819  0.2931
  277MOL0     H38203  10.270   2.763   8.837 -1.2382 -0.0989  0.8383
  277MOL0     H38204  10.422   2.515   8.914  3.3021  1.1764  2.3503
  277MOL0     H38205  10.494   2.673   8.944 -0.3065 -0.4984  0.3304
  277MOL0     H38206   9.402   2.409   8.797 -1.3961  1.8083 -1.3807
  277MOL0     H38207   9.161   2.414   8.758 -2.4188  2.6926  0.4664
  277MOL0     H38208   8.693   2.709   8.867 -0.2266  0.6852  5.8781
  277MOL0     H38209   8.454   2.668   8.813 -1.2292 -0.9759 -0.7817
  277MOL0     H38210   7.985   2.432  10.077  0.7480  2.5037  0.0488
  277MOL0     H38211   8.138   2.616  10.092 -0.1936  0.0478 -0.8882
  277MOL0     H38212   8.368   2.959  10.215 -0.0311 -0.1075  0.5444
  277MOL0     H38213   8.502   3.154  10.193 -0.8463 -1.0738  1.5875
  277MOL0     H38214   8.658   3.296  10.023 -0.5454 -0.3055 -0.0875
  277MOL0     H38215   8.678   3.306  10.194 -0.4083  0.4938 -0.5796
  277MOL0     H38216   8.891   3.325   9.976  2.2061 -0.3340  1.0128
  277MOL0     H38217   8.932   3.374  10.142 -1.2785 -3.1831  3.1129
  277MOL0     H38218   8.890   3.544   9.965  0.4844 -1.3651 -0.5664
  277MOL0     H38219   8.714   3.505   9.974  0.3187  0.4126 -0.0286
  277MOL0     H38220   8.886   3.630  10.201  0.0812  2.6756 -1.2855
  277MOL0     H38221   8.735   3.537  10.231  1.2302 -1.2625 -0.1514
  277MOL0     H38222   8.617   3.910  10.049  1.2543 -0.7184 -1.3028
  277MOL0     H38223   8.841   2.902  10.078 -0.2563 -1.3334  0.5529
  277MOL0     H38224   8.685   2.590  10.151 -2.4856 -2.7525 -2.7043
  277MOL0     H38225   8.692   2.609   9.973  0.3028 -0.4030  0.2190
  277MOL0     H38226   8.816   2.671  10.081 -0.2219  0.7341 -2.0177
  278MOL0     O38227   5.226   5.826  11.160 -0.4928 -0.5774 -0.6749
  278MOL0     C38228   5.212   5.709  11.180 -0.1032  0.2000 -0.0166
  278MOL0     O38229   5.092   5.639  11.158  0.8444  0.0151 -0.6135
  278MOL0     C38230   4.981   5.703  11.118 -0.1997  0.1215  0.0159
  278MOL0     C38231   4.919   5.797  11.212 -0.1393 -0.0184  0.2336
  278MOL0     C38232   4.798   5.871  11.180 -0.0093 -0.8997  0.3971
  278MOL0     C38233   4.728   5.827  11.067  0.2735 -0.2070 -0.0669
  278MOL0     O38234   4.619   5.901  11.019  0.1883  0.3618  0.3975
  278MOL0     C38235   4.650   6.021  10.952  1.0557  0.1582 -0.5846
  278MOL0     C38236   4.527   6.072  10.882 -0.4240 -0.1117 -0.2114
  278MOL0     C38237   4.441   6.140  10.983 -0.0249  0.5024 -0.5655
  278MOL0     C38238   4.298   6.151  10.925 -0.4086  0.2901  0.4139
  278MOL0     C38239   4.204   6.224  11.011 -0.7796 -0.6142 -0.6583
  278MOL0     C38240   4.210   6.377  10.992 -0.4484 -0.8910  0.4034
  278MOL0     C38241   4.189   6.454  11.121  0.2306  0.1888  0.1486
  278MOL0     C38242   4.048   6.451  11.164 -0.7850 -0.4758 -0.1750
  278MOL0     N38243   3.987   6.582  11.133  0.8634  0.7485  0.3341
  278MOL0     C38244   3.941   6.604  11.004  0.2410  0.3287 -1.1010
  278MOL0     C38245   3.863   6.711  11.007  0.0208  0.3660  0.3001
  278MOL0     C38246   3.783   6.781  10.892  0.7043 -0.4943 -0.5271
  278MOL0     C38247   3.869   6.808  10.766  0.0954 -0.4566 -0.3467
  278MOL0     C38248   4.000   6.900  10.796  0.8878  1.2150 -0.1547
  278MOL0     C38249   4.049   6.944  10.660 -1.0781 -0.5802 -0.3795
  278MOL0     O38250   4.081   6.826  10.580  0.1685 -1.1682 -0.5077
  278MOL0     C38251   4.182   6.849  10.485 -0.7037  0.5382 -0.1749
  278MOL0     C38252   4.261   6.738  10.456  0.1915 -0.2562  0.4004
  278MOL0     C38253   4.362   6.753  10.357  0.4538  0.4418  0.9109
  278MOL0     C38254   4.433   6.625  10.340 -0.1567 -0.4515  0.0109
  278MOL0     C38255   4.394   6.876  10.297  0.5161 -0.2611  0.2665
  278MOL0     C38256   4.508   6.894  10.200 -0.2706  0.0389  0.3859
  278MOL0     O38257   4.569   7.017  10.212  0.3909  0.7589 -0.3058
  278MOL0     C38258   4.683   7.040  10.133 -0.4324  0.7925 -0.6285
  278MOL0     C38259   4.780   6.944  10.077 -0.1348  0.1469  0.0432
  278MOL0     C38260   4.882   6.987  10.001  0.2467  0.3433  1.6799
  278MOL0     C38261   4.913   7.119   9.978  0.8639  0.3637  0.5666
  278MOL0     O38262   5.021   7.157   9.898 -0.1771 -0.4082  0.3611
  278MOL0     C38263   5.071   7.061   9.801  0.2682 -0.2189 -0.2007
  278MOL0     C38264   5.166   7.118   9.687  0.0962  0.7174  0.3835
  278MOL0     C38265   5.302   7.149   9.739 -0.1045 -0.0888 -0.2599
  278MOL0     C38266   5.402   7.157   9.618  0.2313 -0.1800  0.2377
  278MOL0     C38267   5.542   7.193   9.657 -0.5299 -0.2257  0.2873
  278MOL0     C38268   5.617   7.206   9.518  0.7004 -0.2324 -1.5745
  278MOL0     C38269   5.756   7.142   9.522  0.4038 -0.3169 -0.2468
  278MOL0     C38270   5.880   7.226   9.488 -0.0025  0.8699  0.3053
  278MOL0    Cl38271   5.873   7.272   9.314  0.6412 -0.0471 -0.1355
  278MOL0     C38272   4.826   7.216  10.024 -0.9252  0.4235  0.0027
  278MOL0     C38273   4.718   7.178  10.113  0.5788 -0.1582  0.7918
  278MOL0     O38274   4.526   6.808  10.119 -0.0151  0.3682  0.2100
  278MOL0     C38275   4.315   6.989  10.332 -0.2901 -0.0236  0.9014
  278MOL0     C38276   4.213   6.975  10.423  0.8580  0.2616 -0.4509
  278MOL0     N38277   3.868   6.759  11.141  0.6888  0.2624  0.0682
  278MOL0     N38278   3.942   6.682  11.212  0.4764  0.2810 -0.1966
  278MOL0     C38279   4.780   5.720  10.983  0.6268  0.5902  0.2487
  278MOL0     C38280   4.914   5.671  11.005 -0.0667  0.5532 -0.1130
  278MOL0     C38281   5.328   5.637  11.229 -0.5991  0.3820  0.2221
  278MOL0     C38282   5.295   5.552  11.333  0.0623 -0.1766  1.0640
  278MOL0     C38283   5.398   5.465  11.381 -0.3651 -1.1357  0.0921
  278MOL0     C38284   5.528   5.466  11.327 -0.5198 -0.4220  0.4702
  278MOL0     O38285   5.632   5.390  11.372  0.8484  0.5463  0.1184
  278MOL0     C38286   5.629   5.361  11.512  0.6227 -0.0180  0.3334
  278MOL0     C38287   5.762   5.289  11.549 -0.6289 -0.1894 -0.7890
  278MOL0     C38288   5.885   5.371  11.490 -0.0727 -0.1323 -0.0532
  278MOL0     C38289   6.011   5.277  11.467  0.2356 -0.6996  1.6550
  278MOL0     C38290   6.125   5.369  11.453 -0.4208  0.1803 -0.4486
  278MOL0     C38291   6.230   5.438  11.447 -0.0277  0.0359 -0.4661
  278MOL0     C38292   5.552   5.552  11.225 -0.4330  0.4976 -0.5672
  278MOL0     C38293   5.461   5.647  11.176  0.1797 -0.2757 -0.5779
  278MOL0     C38294   5.496   5.742  11.056  0.2631 -1.1301 -0.1036
  278MOL0     H38295   4.968   5.818  11.307 -0.5678 -1.3519  0.7591
  278MOL0     H38296   4.766   5.944  11.253 -2.6482 -3.2961  1.8407
  278MOL0     H38297   4.726   5.987  10.881  0.3213 -4.3026  0.4527
  278MOL0     H38298   4.688   6.096  11.022 -0.4465  1.0991 -0.7227
  278MOL0     H38299   4.556   6.146  10.807 -1.1172 -0.1848 -0.5559
  278MOL0     H38300   4.487   5.983  10.833  0.6486 -0.4559 -0.4747
  278MOL0     H38301   4.432   6.085  11.078 -2.6227  1.5487 -0.1171
  278MOL0     H38302   4.460   6.247  10.993  1.1643  0.4566 -2.1035
  278MOL0     H38303   4.302   6.193  10.824  0.1849 -1.2685 -0.2445
  278MOL0     H38304   4.260   6.049  10.911 -1.4516  0.4350  1.9122
  278MOL0     H38305   4.209   6.198  11.117 -1.4584  1.7739  0.0237
  278MOL0     H38306   4.100   6.203  10.984 -1.1832 -0.9477  1.0483
  278MOL0     H38307   4.306   6.405  10.948  1.0345 -4.3527  1.1518
  278MOL0     H38308   4.132   6.403  10.920 -0.2154 -0.0923  0.4245
  278MOL0     H38309   4.227   6.557  11.119 -0.5686  0.4835 -0.6335
  278MOL0     H38310   4.251   6.392  11.187  3.0975  1.7737 -0.8676
  278MOL0     H38311   3.989   6.371  11.120  0.0643 -0.3003 -1.7021
  278MOL0     H38312   4.052   6.434  11.272 -0.0840 -1.1422 -0.2989
  278MOL0     H38313   3.967   6.544  10.917  0.0810 -1.4758  0.0428
  278MOL0     H38314   3.739   6.876  10.922  1.6915  0.1270 -0.9761
  278MOL0     H38315   3.704   6.706  10.882  2.1483 -2.1511 -0.1663
  278MOL0     H38316   3.888   6.713  10.715 -0.2321  0.2062 -1.7626
  278MOL0     H38317   3.795   6.861  10.705  0.6153  1.4545  0.5765
  278MOL0     H38318   3.984   6.987  10.859  1.9381  2.0609 -1.0075
  278MOL0     H38319   4.072   6.833  10.843 -0.8255 -0.9723 -0.4878
  278MOL0     H38320   3.977   7.006  10.606  1.8883 -0.5139 -4.8478
  278MOL0     H38321   4.142   7.002  10.653 -0.9281 -0.9953 -4.7323
  278MOL0     H38322   4.243   6.645  10.510  0.0765  0.6371  1.9642
  278MOL0     H38323   4.473   6.590  10.435  1.3714  3.7309  1.1329
  278MOL0     H38324   4.520   6.643  10.276  0.7840 -2.8080  0.5377
  278MOL0     H38325   4.373   6.543  10.301  1.7304 -1.9078  0.0042
  278MOL0     H38326   4.777   6.836  10.088 -0.9676  0.1592 -0.0038
  278MOL0     H38327   4.944   6.905   9.969 -0.9329 -1.6435  4.1284
  278MOL0     H38328   5.125   6.980   9.850 -0.5853 -0.6265  0.0914
  278MOL0     H38329   4.988   7.014   9.747 -0.5462  1.8742 -0.8862
  278MOL0     H38330   5.180   7.041   9.611  2.6186 -0.6490  2.0348
  278MOL0     H38331   5.119   7.206   9.644 -2.1508 -0.9094 -0.6504
  278MOL0     H38332   5.336   7.074   9.811  2.0958 -0.1341 -1.2498
  278MOL0     H38333   5.294   7.246   9.790  1.1089 -0.6679  1.1125
  278MOL0     H38334   5.356   7.222   9.543  0.5083 -2.1913 -1.7519
  278MOL0     H38335   5.399   7.058   9.573  1.1607  1.2672 -3.3311
  278MOL0     H38336   5.541   7.287   9.712  5.4669  1.0472 -1.0749
  278MOL0     H38337   5.580   7.122   9.732 -1.7852 -0.5244  0.6530
  278MOL0     H38338   5.616   7.313   9.499  0.2303 -0.0334 -0.4960
  278MOL0     H38339   5.549   7.166   9.442 -2.1083 -3.1470  2.1167
  278MOL0     H38340   5.745   7.049   9.466 -1.4014  0.6906 -1.6875
  278MOL0     H38341   5.765   7.112   9.627 -3.4161  1.2414  0.7284
  278MOL0     H38342   5.972   7.168   9.497  1.0986  2.6179  0.7662
  278MOL0     H38343   5.884   7.313   9.554 -2.1542  0.1091  1.5525
  278MOL0     H38344   4.840   7.320   9.998 -0.8018  0.0575 -1.4854
  278MOL0     H38345   4.651   7.261  10.136  2.1058  1.1633  0.5927
  278MOL0     H38346   4.343   7.086  10.294  2.7931 -1.5231 -1.0637
  278MOL0     H38347   4.159   7.062  10.457 -1.1808 -1.2497  0.3642
  278MOL0     H38348   4.715   5.686  10.903 -0.6426  1.0599  1.0458
  278MOL0     H38349   4.958   5.596  10.940 -2.4431 -1.8319  0.8477
  278MOL0     H38350   5.193   5.542  11.367 -0.5120 -0.6822 -0.7161
  278MOL0     H38351   5.373   5.398  11.462 -0.0674 -1.7611 -0.3258
  278MOL0     H38352   5.618   5.454  11.569 -0.6026 -0.4775  0.8957
  278MOL0     H38353   5.538   5.307  11.541 -0.1504  0.4315 -1.1120
  278MOL0     H38354   5.753   5.185  11.514  1.6236  0.0480 -2.2851
  278MOL0     H38355   5.767   5.281  11.658 -2.4160  0.5078 -0.6132
  278MOL0     H38356   5.867   5.429  11.399 -2.6320 -1.8324 -0.7162
  278MOL0     H38357   5.910   5.439  11.573 -4.0815  0.3932  0.9450
  278MOL0     H38358   6.007   5.217  11.376  5.0530  2.5601 -1.1977
  278MOL0     H38359   6.015   5.211  11.554 -2.2079 -1.5124  1.2279
  278MOL0     H38360   6.320   5.492  11.424  0.6170 -1.0425 -0.5373
  278MOL0     H38361   5.652   5.540  11.184 -0.2309  1.0183 -0.2328
  278MOL0     H38362   5.447   5.839  11.069 -0.9249 -1.9334  1.7884
  278MOL0     H38363   5.604   5.756  11.058  0.0101  1.8603 -1.2980
  278MOL0     H38364   5.466   5.699  10.959 -2.3261  3.7958 -1.8843
  279MOL0     O38365   6.304  10.327   1.788 -0.4486  0.1754 -0.1808
  279MOL0     C38366   6.239  10.400   1.714  0.5167 -0.1846 -0.6423
  279MOL0     O38367   6.286  10.501   1.638 -0.3615 -0.1428 -0.4773
  279MOL0     C38368   6.412  10.512   1.587  0.4284  0.3741  0.7875
  279MOL0     C38369   6.489  10.404   1.562 -0.4418  1.0738  0.1682
  279MOL0     C38370   6.611  10.427   1.498  0.3327  0.9816  0.0248
  279MOL0     C38371   6.658  10.551   1.466  0.5807  0.4371  0.3384
  279MOL0     O38372   6.760  10.550   1.379 -0.1143 -0.6953  0.1127
  279MOL0     C38373   6.875  10.618   1.425  0.0715 -0.6388 -0.6489
  279MOL0     C38374   6.913  10.734   1.334 -0.3795 -0.5004 -0.2859
  279MOL0     C38375   7.063  10.765   1.339  0.4944 -0.2475  0.3912
  279MOL0     C38376   7.110  10.856   1.226  0.1598  0.2242 -0.0022
  279MOL0     C38377   7.261  10.829   1.182 -0.3710  0.5517  1.7071
  279MOL0     C38378   7.362  10.818   1.302 -0.3977 -0.3530  0.4260
  279MOL0     C38379   7.363  10.951   1.384 -0.2064  0.5209  0.0281
  279MOL0     C38380   7.417  11.078   1.305  0.2403  0.3899  0.2462
  279MOL0     N38381   7.430  11.192   1.399  0.0251 -0.3138  0.3826
  279MOL0     C38382   7.333  11.231   1.486 -0.1003 -0.1291  0.1645
  279MOL0     C38383   7.388  11.301   1.586 -0.0933  0.2129  0.4156
  279MOL0     C38384   7.325  11.371   1.699 -0.6098  0.4567 -0.4010
  279MOL0     C38385   7.297  11.262   1.812 -0.0233 -0.3645  0.9886
  279MOL0     C38386   7.415  11.192   1.872 -0.1885  0.8937 -0.3846
  279MOL0     C38387   7.522  11.284   1.927  0.2786 -0.6913  0.7373
  279MOL0     O38388   7.608  11.219   2.024 -0.6144  0.0933  0.2725
  279MOL0     C38389   7.710  11.136   1.984  0.1707  0.1481 -0.2410
  279MOL0     C38390   7.745  11.116   1.850 -0.4815 -0.4438 -0.1096
  279MOL0     C38391   7.850  11.032   1.813  1.0115  0.3935  0.6679
  279MOL0     C38392   7.868  11.016   1.663 -0.6515  0.1169 -0.8029
  279MOL0     C38393   7.931  10.966   1.912  0.1078 -0.0038 -0.2130
  279MOL0     C38394   8.047  10.873   1.888 -0.0465 -0.3626  0.1751
  279MOL0     O38395   8.082  10.793   1.996  0.0941  0.6872 -1.3331
  279MOL0     C38396   8.210  10.733   2.006 -0.0753 -0.1569  0.4930
  279MOL0     C38397   8.278  10.737   2.130  0.0101 -0.7500  0.5177
  279MOL0     C38398   8.409  10.714   2.137 -0.4321  0.5672 -1.2388
  279MOL0     C38399   8.486  10.662   2.035 -0.4884 -0.4323  0.0470
  279MOL0     O38400   8.617  10.613   2.061  0.5862  0.3374 -0.5085
  279MOL0     C38401   8.690  10.563   1.946 -0.8968 -0.2001 -0.3809
  279MOL0     C38402   8.839  10.572   1.980 -0.9923  0.2510 -0.0687
  279MOL0     C38403   8.871  10.466   2.086  0.4739 -0.5332  1.0522
  279MOL0     C38404   9.015  10.447   2.112  0.4176 -0.4523 -0.0526
  279MOL0     C38405   9.066  10.537   2.224  0.3305 -0.5198  0.7109
  279MOL0     C38406   9.207  10.578   2.194 -0.5060  0.1494 -0.3925
  279MOL0     C38407   9.264  10.683   2.300  0.4682  0.5524  0.2029
  279MOL0     C38408   9.417  10.691   2.287 -0.5735 -0.1672  0.3688
  279MOL0    Cl38409   9.477  10.834   2.357  0.1542  0.0778  0.2148
  279MOL0     C38410   8.415  10.637   1.914 -0.3996  0.2019 -0.3274
  279MOL0     C38411   8.277  10.671   1.896 -0.5020  0.3293 -0.4827
  279MOL0     O38412   8.098  10.872   1.777  0.3071  0.8935 -0.1052
  279MOL0     C38413   7.902  10.998   2.049  0.4583 -0.5608  0.3707
  279MOL0     C38414   7.798  11.079   2.078 -0.0035  0.1602 -0.8415
  279MOL0     N38415   7.524  11.307   1.549 -0.6999 -0.4863  0.7265
  279MOL0     N38416   7.548  11.231   1.446  0.0212  0.1451  0.6248
  279MOL0     C38417   6.584  10.656   1.507  0.7438  0.1877 -0.2131
  279MOL0     C38418   6.454  10.638   1.561  0.3921  0.8898  0.7791
  279MOL0     C38419   6.089  10.408   1.741 -0.3370 -0.9444  0.7868
  279MOL0     C38420   6.010  10.524   1.703  0.9453 -0.1193 -0.3977
  279MOL0     C38421   5.866  10.529   1.700 -0.2125  0.3763 -0.9325
  279MOL0     C38422   5.800  10.416   1.759  0.6095 -1.0831 -0.4562
  279MOL0     O38423   5.664  10.424   1.782 -0.6553  0.4576  0.3344
  279MOL0     C38424   5.588  10.532   1.730 -0.0671 -0.0286  1.2293
  279MOL0     C38425   5.448  10.460   1.736  0.5747  1.2989  0.2910
  279MOL0     C38426   5.345  10.567   1.700  0.1642 -1.3422 -0.6953
  279MOL0     C38427   5.199  10.514   1.711  0.2296 -0.1328  0.8233
  279MOL0     C38428   5.095  10.614   1.733 -0.1862 -0.1679 -0.6546
  279MOL0     C38429   5.002  10.682   1.751 -0.2495 -0.5062 -0.1428
  279MOL0     C38430   5.873  10.312   1.802  0.2536  0.0865  0.0520
  279MOL0     C38431   6.014  10.299   1.788  0.4031 -0.1229  0.3792
  279MOL0     C38432   6.064  10.168   1.824  0.5616  0.7731 -0.4190
  279MOL0     H38433   6.465  10.302   1.589  1.2755  0.7969  0.7560
  279MOL0     H38434   6.661  10.335   1.471 -0.0148  1.2989 -1.7762
  279MOL0     H38435   6.960  10.550   1.414  0.2070 -0.3409 -1.5263
  279MOL0     H38436   6.866  10.652   1.529 -2.4645  0.4825 -1.1523
  279MOL0     H38437   6.881  10.712   1.232 -1.8430 -1.0267  0.2695
  279MOL0     H38438   6.854  10.822   1.361  1.1647  1.3782 -2.5988
  279MOL0     H38439   7.086  10.815   1.434  0.2830  0.6008  0.0036
  279MOL0     H38440   7.120  10.671   1.336  0.6218 -0.1448 -0.8879
  279MOL0     H38441   7.054  10.842   1.133  3.0907 -0.5591 -1.8016
  279MOL0     H38442   7.103  10.962   1.254  1.0333  1.1475 -2.8505
  279MOL0     H38443   7.290  10.910   1.115  1.9652 -0.0719  1.8699
  279MOL0     H38444   7.279  10.742   1.117  1.4402 -1.0070  4.1126
  279MOL0     H38445   7.325  10.739   1.367 -0.4174 -1.2390 -0.6269
  279MOL0     H38446   7.458  10.778   1.268 -2.1283 -5.1653  0.5314
  279MOL0     H38447   7.426  10.948   1.474 -0.1989  0.1333  0.0117
  279MOL0     H38448   7.262  10.973   1.421  0.8652  0.9449  2.9436
  279MOL0     H38449   7.518  11.067   1.264  0.3537  1.0055  0.3597
  279MOL0     H38450   7.342  11.107   1.232 -0.0885 -1.8622 -0.3727
  279MOL0     H38451   7.227  11.213   1.475  0.4667 -2.2490 -3.6453
  279MOL0     H38452   7.233  11.427   1.679  0.8510  2.6878 -1.3097
  279MOL0     H38453   7.395  11.443   1.742 -0.8895 -0.8992  2.5286
  279MOL0     H38454   7.242  11.318   1.889  0.0006  1.8534 -0.5173
  279MOL0     H38455   7.224  11.189   1.776  0.6928  0.4991 -2.5676
  279MOL0     H38456   7.379  11.133   1.957 -0.3683 -1.1443 -1.8068
  279MOL0     H38457   7.450  11.119   1.800  2.5156  0.2342  1.4594
  279MOL0     H38458   7.579  11.312   1.839  1.2150 -0.3486  1.4389
  279MOL0     H38459   7.484  11.376   1.974 -2.4484 -1.8668  1.0421
  279MOL0     H38460   7.687  11.166   1.773 -0.3731  1.8296  1.1869
  279MOL0     H38461   7.841  10.919   1.621  0.0245  0.4456 -2.0672
  279MOL0     H38462   7.974  11.035   1.645 -0.3637 -0.5505  0.1280
  279MOL0     H38463   7.816  11.089   1.600  0.1485  0.8783 -0.6087
  279MOL0     H38464   8.224  10.783   2.213 -0.4618 -0.5435  0.1076
  279MOL0     H38465   8.457  10.737   2.232  2.8519  0.3149 -2.6844
  279MOL0     H38466   8.648  10.463   1.931 -2.9512  0.4535  0.6244
  279MOL0     H38467   8.672  10.621   1.856  3.8018 -2.1478 -2.9220
  279MOL0     H38468   8.898  10.554   1.890 -2.7162  1.5242 -1.5219
  279MOL0     H38469   8.866  10.670   2.021 -0.3513  0.3142 -0.6349
  279MOL0     H38470   8.834  10.370   2.049 -1.4728  0.7338 -0.4909
  279MOL0     H38471   8.817  10.485   2.180 -0.1796  1.3321  0.3627
  279MOL0     H38472   9.068  10.461   2.017 -0.1894 -0.9709 -0.4742
  279MOL0     H38473   9.036  10.342   2.135 -2.2282 -0.8684  0.7499
  279MOL0     H38474   9.005  10.628   2.227  0.4398 -0.3937 -0.5094
  279MOL0     H38475   9.060  10.479   2.316  1.7330 -1.4342  0.2487
  279MOL0     H38476   9.199  10.631   2.098 -1.9661  1.6085  0.4839
  279MOL0     H38477   9.264  10.485   2.186  1.8314  1.3844  0.7844
  279MOL0     H38478   9.243  10.639   2.398  1.5124 -2.2167 -0.7128
  279MOL0     H38479   9.222  10.782   2.284 -1.9169 -0.4720 -0.3421
  279MOL0     H38480   9.447  10.710   2.183  1.6510  0.7179  1.1158
  279MOL0     H38481   9.462  10.602   2.332 -0.3537  0.8513  2.2843
  279MOL0     H38482   8.469  10.596   1.829 -1.2891  1.8206 -1.7402
  279MOL0     H38483   8.226  10.658   1.801  0.3849  1.7054 -1.1984
  279MOL0     H38484   7.960  10.970   2.137  1.6791  1.6254  0.3337
  279MOL0     H38485   7.788  11.118   2.179  3.4482 -0.3645 -0.1472
  279MOL0     H38486   6.608  10.757   1.475 -2.5648  1.0369 -0.4269
  279MOL0     H38487   6.387  10.723   1.570 -0.8325  0.1129 -0.4207
  279MOL0     H38488   6.070  10.606   1.665  0.7211 -1.1462 -3.1966
  279MOL0     H38489   5.820  10.627   1.690  0.5703  0.6606 -2.0042
  279MOL0     H38490   5.593  10.627   1.784 -1.1223 -0.1410  1.5592
  279MOL0     H38491   5.606  10.556   1.625  1.8898  1.9522  1.9547
  279MOL0     H38492   5.429  10.415   1.834  2.8209 -1.2305 -0.3104
  279MOL0     H38493   5.452  10.383   1.658 -0.6237  1.4714  0.0509
  279MOL0     H38494   5.356  10.648   1.773 -0.3742 -0.5072 -1.5179
  279MOL0     H38495   5.366  10.597   1.597  3.1241  4.0505  1.0591
  279MOL0     H38496   5.196  10.451   1.800  0.3881 -1.3972 -0.0303
  279MOL0     H38497   5.156  10.456   1.628 -1.0313 -0.6891  1.8345
  279MOL0     H38498   4.926  10.753   1.780  1.2738  0.6151  1.2890
  279MOL0     H38499   5.813  10.227   1.834 -2.5235  2.2693  1.0869
  279MOL0     H38500   6.103  10.143   1.725 -1.5601 -0.0778 -1.0910
  279MOL0     H38501   6.130  10.170   1.911  0.9427  0.9000 -0.7034
  279MOL0     H38502   5.984  10.096   1.838  0.5339  1.2016  2.1541
  280MOL0     O38503   4.377   4.157  10.051 -0.7349 -0.3656 -0.5413
  280MOL0     C38504   4.433   4.197  10.151 -0.1206  0.2114  0.2809
  280MOL0     O38505   4.381   4.297  10.223 -0.0425 -0.3396  0.5153
  280MOL0     C38506   4.263   4.362  10.206 -0.5156 -0.8079  0.1939
  280MOL0     C38507   4.274   4.500  10.208  0.4398 -0.4436  0.0766
  280MOL0     C38508   4.156   4.573  10.189 -0.4916  0.0987 -1.1984
  280MOL0     C38509   4.033   4.511  10.175 -0.3539  0.5356 -0.1390
  280MOL0     O38510   3.905   4.562  10.170 -1.2825  0.4730 -0.6033
  280MOL0     C38511   3.886   4.706  10.175  0.1257  0.0757  0.1910
  280MOL0     C38512   3.741   4.749  10.138  0.0961  0.0342  0.0998
  280MOL0     C38513   3.646   4.730  10.257  0.1856  0.1001 -0.0735
  280MOL0     C38514   3.648   4.845  10.362  0.6969 -0.8061 -0.3392
  280MOL0     C38515   3.508   4.886  10.428 -1.0869  0.4835  0.3045
  280MOL0     C38516   3.396   4.920  10.334  0.2917  0.0984  0.4953
  280MOL0     C38517   3.432   5.013  10.210  0.1102  0.8502 -0.5694
  280MOL0     C38518   3.320   5.030  10.108 -0.5642 -0.0511 -0.1993
  280MOL0     N38519   3.334   5.140  10.010  0.0509  0.2059 -0.1513
  280MOL0     C38520   3.450   5.183   9.957  0.4333 -0.5830 -0.6660
  280MOL0     C38521   3.404   5.296   9.890  0.1298  0.3064 -1.5449
  280MOL0     C38522   3.481   5.377   9.790 -0.2328  0.8899 -0.0236
  280MOL0     C38523   3.498   5.521   9.850 -0.2106  0.8696 -0.7292
  280MOL0     C38524   3.610   5.596   9.769  0.2724  0.3827  0.1971
  280MOL0     C38525   3.557   5.674   9.650  0.1971  0.0241  0.2089
  280MOL0     O38526   3.661   5.750   9.600 -0.4626 -0.9121 -0.3524
  280MOL0     C38527   3.656   5.794   9.472  0.7971  0.1984 -0.0847
  280MOL0     C38528   3.763   5.880   9.427  0.5352 -0.0450  0.1341
  280MOL0     C38529   3.751   5.954   9.301  0.0476 -0.8864  0.2539
  280MOL0     C38530   3.875   6.039   9.264 -0.1857  0.1174  0.5836
  280MOL0     C38531   3.643   5.920   9.211 -0.0028 -0.1919  0.5039
  280MOL0     C38532   3.634   5.977   9.070  0.4730 -0.0989  0.1675
  280MOL0     O38533   3.536   5.925   8.995 -0.3130 -0.1352 -0.0884
  280MOL0     C38534   3.544   5.945   8.862 -0.4121  0.1798 -0.8080
  280MOL0     C38535   3.655   5.910   8.781 -0.7255  0.2187  0.4185
  280MOL0     C38536   3.649   5.932   8.645  0.0338  0.3637  0.0608
  280MOL0     C38537   3.547   6.017   8.598  0.8076  0.0529  1.2351
  280MOL0     O38538   3.530   6.049   8.467  0.8327  0.7821  0.1359
  280MOL0     C38539   3.533   6.186   8.434  0.5012 -0.1500 -0.1201
  280MOL0     C38540   3.669   6.248   8.425 -0.3119 -0.0105 -0.4092
  280MOL0     C38541   3.764   6.193   8.308  1.0983 -0.1424  0.0405
  280MOL0     C38542   3.907   6.227   8.326  0.9181 -0.6186 -0.4858
  280MOL0     C38543   3.990   6.152   8.216  0.6452 -0.6566  0.4107
  280MOL0     C38544   4.144   6.149   8.246  0.1574 -0.4409  0.5360
  280MOL0     C38545   4.220   6.087   8.132  0.4030 -0.2572 -0.0106
  280MOL0     C38546   4.258   6.198   8.020  0.4300 -0.6294 -0.2369
  280MOL0    Cl38547   4.346   6.128   7.886  0.0864 -0.2347  0.0221
  280MOL0     C38548   3.429   6.042   8.675  0.9075 -0.1211 -0.9641
  280MOL0     C38549   3.433   6.004   8.809  0.2148 -0.1120  0.1778
  280MOL0     O38550   3.710   6.072   9.034 -0.6336  0.6763  0.0053
  280MOL0     C38551   3.541   5.841   9.263 -0.3124 -0.4102  0.3262
  280MOL0     C38552   3.552   5.774   9.387 -0.7911 -0.4953  0.5833
  280MOL0     N38553   3.267   5.306   9.914 -0.2244 -0.7424  0.0127
  280MOL0     N38554   3.227   5.220   9.998 -0.2469  0.1875  0.3358
  280MOL0     C38555   4.028   4.371  10.177 -0.7720  0.0395 -0.3785
  280MOL0     C38556   4.146   4.300  10.193 -0.4666 -0.3510  0.8535
  280MOL0     C38557   4.564   4.137  10.182  0.9831  0.3571 -0.1951
  280MOL0     C38558   4.580   4.001  10.193  0.8288 -0.2360  0.0670
  280MOL0     C38559   4.700   3.942  10.225  0.3728  0.9215  1.2342
  280MOL0     C38560   4.821   4.014  10.254 -1.0789 -0.1413 -0.7656
  280MOL0     O38561   4.937   3.943  10.274  0.1392 -0.2552 -0.0695
  280MOL0     C38562   5.041   3.980  10.363  0.1638  0.2743 -0.0251
  280MOL0     C38563   5.059   3.880  10.477 -0.1076  0.9314 -0.5942
  280MOL0     C38564   4.946   3.875  10.572  0.1204 -0.3248  0.3791
  280MOL0     C38565   4.921   4.000  10.657 -0.4662  0.6243 -0.3990
  280MOL0     C38566   5.027   4.023  10.764  0.5795  1.1883  0.0908
  280MOL0     C38567   5.124   4.030  10.833 -0.3903  0.5852  0.2200
  280MOL0     C38568   4.805   4.151  10.249  1.1126 -0.4378 -0.5343
  280MOL0     C38569   4.679   4.208  10.210 -0.0450 -0.3355  0.2234
  280MOL0     C38570   4.690   4.357  10.201  0.8142 -0.3054 -0.2940
  280MOL0     H38571   4.360   4.553  10.247 -1.5756  0.0517  4.4963
  280MOL0     H38572   4.172   4.680  10.197  1.5058 -0.2606  0.5712
  280MOL0     H38573   3.948   4.752  10.097  1.4576 -1.6768  0.1622
  280MOL0     H38574   3.904   4.739  10.278 -1.5092 -0.3770  0.6550
  280MOL0     H38575   3.740   4.855  10.109 -2.7823  0.2908  0.7479
  280MOL0     H38576   3.699   4.690  10.057  0.8201 -2.2425  1.3102
  280MOL0     H38577   3.546   4.699  10.226  0.4024 -0.2259 -0.4557
  280MOL0     H38578   3.686   4.643  10.310 -0.7899  0.9589  2.2203
  280MOL0     H38579   3.721   4.817  10.439  0.8358  1.0265  0.2479
  280MOL0     H38580   3.687   4.934  10.312 -2.1404  0.1562 -1.0618
  280MOL0     H38581   3.527   4.971  10.495  1.6194 -1.3985  2.1193
  280MOL0     H38582   3.470   4.806  10.492  0.4015 -1.4459 -1.1151
  280MOL0     H38583   3.346   4.827  10.303  0.8740  0.3910 -1.4441
  280MOL0     H38584   3.308   4.970  10.375  0.6503 -0.2116  1.6898
  280MOL0     H38585   3.519   4.958  10.171 -0.3212 -0.0019 -0.3633
  280MOL0     H38586   3.467   5.110  10.246  1.8506  0.1393 -0.2610
  280MOL0     H38587   3.321   4.932  10.058  1.0021 -0.3672  0.4111
  280MOL0     H38588   3.223   5.046  10.156 -1.7832  0.7567 -2.7499
  280MOL0     H38589   3.554   5.150   9.961  0.2462 -1.0840  2.0928
  280MOL0     H38590   3.422   5.382   9.698 -0.8763 -3.6699 -0.0857
  280MOL0     H38591   3.577   5.330   9.772  0.3252  1.8951  0.2207
  280MOL0     H38592   3.409   5.584   9.854  0.7808  2.2476  0.8612
  280MOL0     H38593   3.533   5.521   9.954  0.8862  1.0066 -1.0860
  280MOL0     H38594   3.662   5.666   9.834  1.2404  0.0824 -0.2434
  280MOL0     H38595   3.683   5.522   9.734  1.2905  1.2544  0.4524
  280MOL0     H38596   3.509   5.596   9.590  1.2914  0.5506 -1.3990
  280MOL0     H38597   3.473   5.741   9.675  1.4629  1.3318  1.1306
  280MOL0     H38598   3.842   5.894   9.500  1.6475  1.9621 -1.3452
  280MOL0     H38599   3.919   6.000   9.171 -1.6306 -0.0951 -0.0417
  280MOL0     H38600   3.946   6.035   9.347  0.4245  2.2838  0.2336
  280MOL0     H38601   3.859   6.145   9.240  1.5082 -0.2194 -2.6895
  280MOL0     H38602   3.743   5.863   8.823  0.8117  2.2162 -0.3747
  280MOL0     H38603   3.734   5.905   8.582 -0.7932 -0.1599 -0.8520
  280MOL0     H38604   3.499   6.190   8.330  3.8910 -2.1199 -1.4593
  280MOL0     H38605   3.463   6.235   8.503  0.8897 -0.6209  0.6189
  280MOL0     H38606   3.661   6.356   8.406 -0.2848  0.1209  0.3213
  280MOL0     H38607   3.722   6.233   8.519 -1.7084  0.2313  0.4512
  280MOL0     H38608   3.728   6.247   8.220 -1.1966  0.1237  1.0611
  280MOL0     H38609   3.759   6.084   8.300  3.4809 -0.1879 -1.7002
  280MOL0     H38610   3.929   6.191   8.427 -0.5219 -1.7220 -0.5286
  280MOL0     H38611   3.914   6.336   8.321 -2.5850  0.0100  3.2276
  280MOL0     H38612   3.965   6.046   8.222 -4.2439  0.0658 -1.7911
  280MOL0     H38613   3.961   6.206   8.125  3.2258  1.3964  0.6976
  280MOL0     H38614   4.155   6.099   8.342 -3.5796 -0.3462  1.1607
  280MOL0     H38615   4.175   6.253   8.255 -0.1387 -0.2382 -0.6174
  280MOL0     H38616   4.163   6.004   8.087  2.1738 -0.8116 -1.3841
  280MOL0     H38617   4.312   6.045   8.173  0.2819  1.8728  2.6934
  280MOL0     H38618   4.328   6.269   8.064 -0.9777  0.6078  0.1101
  280MOL0     H38619   4.167   6.251   7.989  2.2356  4.0158  1.5085
  280MOL0     H38620   3.337   6.090   8.640  1.0292 -0.0800 -1.2332
  280MOL0     H38621   3.350   6.029   8.875  2.0119  0.0510  2.5018
  280MOL0     H38622   3.447   5.827   9.211 -0.7116 -0.3521  1.0085
  280MOL0     H38623   3.459   5.726   9.417 -0.8054 -0.5253  0.4929
  280MOL0     H38624   3.934   4.318  10.172 -0.1347 -1.2122  0.4444
  280MOL0     H38625   4.149   4.192  10.203 -0.1951 -0.4726 -0.3662
  280MOL0     H38626   4.484   3.951  10.190 -0.1649  1.6277 -0.4689
  280MOL0     H38627   4.698   3.833  10.232 -1.2774  0.8559  0.2158
  280MOL0     H38628   5.141   3.981  10.320 -0.3462  1.8709 -1.2466
  280MOL0     H38629   5.029   4.082  10.401  0.0272  0.1284  0.3299
  280MOL0     H38630   5.155   3.899  10.526 -1.3448 -1.1845  3.1026
  280MOL0     H38631   5.068   3.779  10.437 -0.1929  0.9871 -0.7535
  280MOL0     H38632   4.858   3.850  10.513  1.0858 -1.8259 -0.4712
  280MOL0     H38633   4.964   3.793  10.642  0.8567  0.4163  1.0819
  280MOL0     H38634   4.829   4.000  10.716  0.8164 -1.0118  1.7437
  280MOL0     H38635   4.903   4.083  10.588 -1.8372 -0.2547 -1.1372
  280MOL0     H38636   5.190   4.047  10.915 -1.3230  2.6878  0.6068
  280MOL0     H38637   4.892   4.202  10.288  0.2096  0.5570  0.2291
  280MOL0     H38638   4.791   4.385  10.167  0.0718  1.5679 -1.0976
  280MOL0     H38639   4.620   4.395  10.126  1.6842  1.2122 -0.3846
  280MOL0     H38640   4.678   4.412  10.294  3.4149 -1.7502  1.0120
  281MOL0     O38641   0.400   9.761   4.050  0.0199  0.7029 -0.3832
  281MOL0     C38642   0.377   9.813   3.943  0.5448 -0.3135  0.1636
  281MOL0     O38643   0.462   9.824   3.841 -0.3649  0.1021  0.3834
  281MOL0     C38644   0.595   9.800   3.850  0.0216 -0.1363  0.3072
  281MOL0     C38645   0.665   9.869   3.751 -0.3034  0.3854 -0.3192
  281MOL0     C38646   0.806   9.848   3.747 -0.1742  0.5773  0.1820
  281MOL0     C38647   0.872   9.771   3.838  0.1037  0.3422 -0.5708
  281MOL0     O38648   1.006   9.746   3.857  0.0673  0.2366 -0.5314
  281MOL0     C38649   1.089   9.817   3.771  0.6308  0.6093 -0.5224
  281MOL0     C38650   1.228   9.784   3.809 -0.1478 -0.5034 -0.0083
  281MOL0     C38651   1.269   9.860   3.940  0.9442 -0.2946  0.4620
  281MOL0     C38652   1.416   9.826   3.978  0.5907 -0.7018  0.3551
  281MOL0     C38653   1.528   9.868   3.883  0.7683  0.3270 -0.0515
  281MOL0     C38654   1.654   9.871   3.957  0.2514 -0.2027  0.5195
  281MOL0     C38655   1.771   9.864   3.861 -0.9230  0.1307 -0.2021
  281MOL0     C38656   1.902   9.850   3.937  0.4426 -0.7587  0.1186
  281MOL0     N38657   2.016   9.813   3.858 -0.0475  0.0734 -0.0054
  281MOL0     C38658   2.032   9.698   3.792  0.8562 -0.3046 -0.1390
  281MOL0     C38659   2.162   9.693   3.759 -0.2648 -0.7543 -0.0285
  281MOL0     C38660   2.226   9.581   3.678  0.0632  1.2929 -0.4923
  281MOL0     C38661   2.310   9.476   3.766  0.1773  0.3749  1.3384
  281MOL0     C38662   2.459   9.531   3.796  0.1600 -0.1861 -0.0159
  281MOL0     C38663   2.525   9.424   3.879 -0.3185  0.4643  0.3893
  281MOL0     O38664   2.654   9.459   3.935  0.8395 -0.5519  0.0967
  281MOL0     C38665   2.733   9.347   3.959  0.4332  0.5167  0.1789
  281MOL0     C38666   2.672   9.246   4.029 -0.5561  0.0205 -0.9745
  281MOL0     C38667   2.744   9.150   4.096  0.9748 -0.5207 -0.0391
  281MOL0     C38668   2.655   9.051   4.168 -0.5919  0.0201  0.1676
  281MOL0     C38669   2.886   9.137   4.085  0.6068 -0.1352  0.2009
  281MOL0     C38670   2.970   9.025   4.136  0.6475  0.0740  0.1197
  281MOL0     O38671   3.106   9.065   4.150  0.6143 -0.2448  0.0467
  281MOL0     C38672   3.170   9.002   4.253  0.1064  0.3003 -0.5377
  281MOL0     C38673   3.309   9.001   4.244 -0.0035 -0.0838 -0.5825
  281MOL0     C38674   3.393   8.951   4.347  0.0200 -0.3138 -0.8342
  281MOL0     C38675   3.339   8.896   4.465  0.2882 -0.3738 -0.0774
  281MOL0     O38676   3.432   8.853   4.555 -0.1988  0.2031  0.4926
  281MOL0     C38677   3.393   8.828   4.692  0.2727 -0.6856  0.1594
  281MOL0     C38678   3.509   8.770   4.774  0.1965 -0.6346 -0.6758
  281MOL0     C38679   3.560   8.631   4.732  0.0368  1.1381  0.0023
  281MOL0     C38680   3.692   8.591   4.800  0.3307  0.2021  0.9011
  281MOL0     C38681   3.716   8.445   4.788 -0.4534 -0.8894  1.1374
  281MOL0     C38682   3.866   8.410   4.834  0.1285 -0.1956 -0.3273
  281MOL0     C38683   3.898   8.263   4.818  0.3553  0.1762 -0.4592
  281MOL0     C38684   4.039   8.230   4.879 -0.3827  0.4891 -0.1543
  281MOL0    Cl38685   4.038   8.214   5.052 -0.0649 -0.4259  0.3328
  281MOL0     C38686   3.193   8.900   4.473 -0.6176  0.0035 -0.3761
  281MOL0     C38687   3.112   8.952   4.371  0.1277  1.5603 -0.1100
  281MOL0     O38688   2.923   8.913   4.160 -0.1141  0.1778 -1.0190
  281MOL0     C38689   2.952   9.236   4.010 -0.7085  0.3577  0.8912
  281MOL0     C38690   2.874   9.346   3.952  0.8202  0.0968 -0.4288
  281MOL0     N38691   2.225   9.804   3.814 -0.5970 -0.5319  0.9476
  281MOL0     N38692   2.128   9.882   3.862 -0.8694  0.0435  0.1122
  281MOL0     C38693   0.797   9.695   3.926  0.5569  0.6727 -0.6704
  281MOL0     C38694   0.663   9.701   3.934 -0.5382 -0.8360 -0.5607
  281MOL0     C38695   0.244   9.849   3.912 -0.1525 -0.8796  0.8979
  281MOL0     C38696   0.216   9.926   3.794 -0.0296  0.4029 -0.3753
  281MOL0     C38697   0.094   9.972   3.763 -0.9191  0.2853  0.2385
  281MOL0     C38698  -0.020   9.933   3.833  0.0419 -0.5695 -0.6716
  281MOL0     O38699  -0.134   9.997   3.796 -0.6773 -0.5418 -0.3398
  281MOL0     C38700  -0.256   9.966   3.868 -0.3289  0.4746 -0.2281
  281MOL0     C38701  -0.382  10.021   3.807 -0.4800  0.8867  0.0965
  281MOL0     C38702  -0.494   9.928   3.850  0.8159 -0.7466  0.1364
  281MOL0     C38703  -0.536   9.940   3.995  0.0492  0.6473 -0.2894
  281MOL0     C38704  -0.678   9.921   4.017 -0.3862  0.5849  0.0086
  281MOL0     C38705  -0.790   9.891   4.048 -0.2208  0.4850  0.3111
  281MOL0     C38706  -0.000   9.848   3.939 -0.5992 -0.4787 -0.0344
  281MOL0     C38707   0.127   9.807   3.984 -0.1928 -0.1893  0.6802
  281MOL0     C38708   0.124   9.699   4.091  0.1780  1.2253 -0.0476
  281MOL0     H38709   0.612   9.938   3.686  0.0261 -0.6911 -1.7839
  281MOL0     H38710   0.869   9.903   3.678  0.6404 -1.6720 -0.9787
  281MOL0     H38711   1.078   9.926   3.781 -2.7483  0.3101  0.1213
  281MOL0     H38712   1.060   9.789   3.670  1.4195  2.2580 -1.2567
  281MOL0     H38713   1.231   9.675   3.819  0.2747 -0.3923  1.2478
  281MOL0     H38714   1.295   9.819   3.730 -0.5598  0.8132  0.2107
  281MOL0     H38715   1.257   9.968   3.928  0.6467 -0.4511 -0.7364
  281MOL0     H38716   1.220   9.818   4.028  1.0207 -2.6698 -0.5481
  281MOL0     H38717   1.435   9.877   4.073 -0.8210  0.2788  0.1317
  281MOL0     H38718   1.430   9.718   3.993  2.4139 -0.5313  0.0985
  281MOL0     H38719   1.493   9.961   3.838  0.9984  1.7713  2.6056
  281MOL0     H38720   1.535   9.787   3.809  2.1958 -0.1852  0.5974
  281MOL0     H38721   1.668   9.966   4.010  0.5541  0.4353 -0.6696
  281MOL0     H38722   1.659   9.793   4.034  0.3559  0.1901  0.9117
  281MOL0     H38723   1.769   9.956   3.801 -1.2053 -1.2670 -2.4385
  281MOL0     H38724   1.764   9.769   3.808 -4.8383  0.2437 -0.1848
  281MOL0     H38725   1.921   9.944   3.989 -0.1736  0.3050 -1.4956
  281MOL0     H38726   1.877   9.772   4.009  0.0400 -0.6293  0.1210
  281MOL0     H38727   1.962   9.618   3.775 -0.5665  1.1846 -1.6546
  281MOL0     H38728   2.292   9.626   3.604  0.0046  0.8277 -0.8291
  281MOL0     H38729   2.152   9.521   3.624  1.0052  0.9062 -1.3855
  281MOL0     H38730   2.250   9.452   3.854 -2.6315  2.6766  0.2336
  281MOL0     H38731   2.330   9.390   3.701 -2.4273 -0.2165  1.2332
  281MOL0     H38732   2.520   9.553   3.708 -0.3662 -0.8943 -0.5693
  281MOL0     H38733   2.452   9.620   3.860  0.3557 -0.6015  0.5964
  281MOL0     H38734   2.465   9.403   3.968 -2.2991  2.0765 -0.4738
  281MOL0     H38735   2.530   9.335   3.817  1.5179  1.7014 -1.3715
  281MOL0     H38736   2.564   9.248   4.040 -0.3718  3.2417  1.7120
  281MOL0     H38737   2.711   8.995   4.244 -0.9585  1.1160  1.3005
  281MOL0     H38738   2.600   8.980   4.105  0.1808 -0.3233 -0.1208
  281MOL0     H38739   2.583   9.112   4.224  1.0561  3.0744 -0.7837
  281MOL0     H38740   3.365   9.039   4.159 -1.1325  0.5274 -1.0742
  281MOL0     H38741   3.501   8.955   4.340 -0.1108  0.2199 -3.6375
  281MOL0     H38742   3.355   8.921   4.734  0.1511 -0.5823 -0.1772
  281MOL0     H38743   3.319   8.749   4.703  0.9916 -1.1828  1.7625
  281MOL0     H38744   3.590   8.841   4.761 -0.5403 -0.1073 -2.9361
  281MOL0     H38745   3.479   8.773   4.879  2.9795  2.0653  0.1729
  281MOL0     H38746   3.569   8.626   4.623 -1.3024 -2.5816 -0.0882
  281MOL0     H38747   3.486   8.554   4.759  1.0617  0.0762 -0.1683
  281MOL0     H38748   3.693   8.634   4.901 -3.1325  0.9467  0.7201
  281MOL0     H38749   3.760   8.643   4.732  0.0465 -0.7630 -0.1570
  281MOL0     H38750   3.652   8.392   4.860  0.6277  1.4677  4.0350
  281MOL0     H38751   3.703   8.409   4.686  1.2393  0.2031  0.4876
  281MOL0     H38752   3.862   8.430   4.941 -1.8273 -1.7469 -0.0582
  281MOL0     H38753   3.945   8.468   4.783  1.2848  0.0017  1.6024
  281MOL0     H38754   3.893   8.230   4.714  1.6813 -1.3289 -0.0748
  281MOL0     H38755   3.828   8.199   4.872 -0.9828  1.3398 -0.7599
  281MOL0     H38756   4.116   8.296   4.839  0.9772 -0.7724  0.3131
  281MOL0     H38757   4.066   8.133   4.836 -1.1098  1.3589 -2.7448
  281MOL0     H38758   3.137   8.849   4.550  0.6452 -0.3601  0.3403
  281MOL0     H38759   3.005   8.964   4.386 -0.6464 -3.3162 -0.0400
  281MOL0     H38760   3.061   9.241   4.010 -0.5352 -2.2955  0.7056
  281MOL0     H38761   2.933   9.430   3.917  1.3939 -0.5402 -1.0245
  281MOL0     H38762   0.855   9.631   3.992 -0.4087  2.2196  1.8510
  281MOL0     H38763   0.608   9.633   3.998  0.8011 -1.1572  0.2739
  281MOL0     H38764   0.299   9.947   3.727  0.7530  0.1550  0.4888
  281MOL0     H38765   0.072  10.029   3.673 -3.1228  1.4267  1.4215
  281MOL0     H38766  -0.265   9.857   3.871 -1.3768  0.4774 -1.6882
  281MOL0     H38767  -0.249  10.005   3.970  2.7212  0.5595 -0.4019
  281MOL0     H38768  -0.378  10.031   3.698  4.9234 -0.7978 -0.1540
  281MOL0     H38769  -0.392  10.124   3.844  0.8694  1.8557 -2.0668
  281MOL0     H38770  -0.582   9.960   3.793  0.5367  1.1524  1.5380
  281MOL0     H38771  -0.477   9.822   3.830 -1.2705 -1.2204  0.6325
  281MOL0     H38772  -0.494  10.031   4.040  0.2090  1.5705 -2.2055
  281MOL0     H38773  -0.481   9.861   4.047 -2.6851 -0.5862  0.9048
  281MOL0     H38774  -0.884   9.842   4.061 -1.5934  2.9057  0.2014
  281MOL0     H38775  -0.084   9.809   3.995 -0.7013  0.9991  0.8912
  281MOL0     H38776   0.021   9.664   4.103  0.7952 -0.0905  2.0872
  281MOL0     H38777   0.179   9.608   4.065 -0.3577  0.6195  0.8708
  281MOL0     H38778   0.156   9.739   4.188 -1.2266  1.2147  0.4335
  282MOL0     O38779  10.777   0.125   1.016  0.0658  0.2035  0.3591
  282MOL0     C38780  10.759   0.245   1.033  0.1547  0.7005  0.2817
  282MOL0     O38781  10.845   0.343   0.997 -0.2504 -0.1048  0.2169
  282MOL0     C38782  10.924   0.326   0.877 -0.5885 -0.4581 -0.0991
  282MOL0     C38783  11.047   0.401   0.873  0.5088  0.4832 -0.5370
  282MOL0     C38784  11.130   0.390   0.763  0.0083  0.3020 -0.1535
  282MOL0     C38785  11.110   0.290   0.668 -0.7753 -0.0657 -0.0011
  282MOL0     O38786  11.214   0.258   0.577  0.4728 -0.0791 -0.1255
  282MOL0     C38787  11.274   0.130   0.603 -0.3341 -0.5249 -0.1374
  282MOL0     C38788  11.419   0.148   0.654 -0.5688 -0.4483  0.1330
  282MOL0     C38789  11.494   0.017   0.649  0.7205 -1.0726 -0.0624
  282MOL0     C38790  11.645   0.041   0.660  1.4274  0.2304  1.3098
  282MOL0     C38791  11.723  -0.081   0.713 -0.6230  0.7726  0.3711
  282MOL0     C38792  11.875  -0.067   0.693 -0.5775  0.6043 -0.0134
  282MOL0     C38793  11.962  -0.195   0.735  0.5899 -0.3938  0.7947
  282MOL0     C38794  11.996  -0.215   0.877 -0.2448  0.3182 -0.6000
  282MOL0     N38795  11.878  -0.266   0.969 -0.2522  0.7535  0.8943
  282MOL0     C38796  11.789  -0.368   0.943  0.3293 -0.2129 -0.7631
  282MOL0     C38797  11.694  -0.359   1.034 -0.3795 -0.3707  0.0379
  282MOL0     C38798  11.567  -0.437   1.044  0.3869  0.7276 -0.4285
  282MOL0     C38799  11.535  -0.471   1.188  0.4618 -0.8369  0.0746
  282MOL0     C38800  11.649  -0.536   1.260 -0.3544 -0.2283 -0.4000
  282MOL0     C38801  11.709  -0.658   1.183  0.1521 -0.4650  0.4514
  282MOL0     O38802  11.803  -0.734   1.268  0.3775  0.0445 -0.6201
  282MOL0     C38803  11.927  -0.678   1.294  0.3266  0.2919 -0.3122
  282MOL0     C38804  11.990  -0.569   1.229  0.6374 -0.1294 -0.1106
  282MOL0     C38805  12.113  -0.516   1.269  0.2956 -1.0161 -0.2421
  282MOL0     C38806  12.150  -0.381   1.210 -0.0098 -0.3460  0.2157
  282MOL0     C38807  12.189  -0.580   1.371  0.3036 -0.6346 -0.4831
  282MOL0     C38808  12.324  -0.531   1.423  0.2375  0.3470  0.2697
  282MOL0     O38809  12.377  -0.599   1.536  0.3274 -0.3099  0.1734
  282MOL0     C38810  12.509  -0.580   1.574  0.1717 -0.3091  0.5599
  282MOL0     C38811  12.528  -0.593   1.713 -0.0112  0.2391  0.6005
  282MOL0     C38812  12.651  -0.564   1.760  0.5405 -0.6481 -0.0137
  282MOL0     C38813  12.761  -0.540   1.681  1.1039  0.1843  0.4592
  282MOL0     O38814  12.882  -0.549   1.741 -0.1799 -0.2233 -0.4462
  282MOL0     C38815  12.983  -0.589   1.654 -0.1655 -0.5473 -0.0488
  282MOL0     C38816  13.119  -0.580   1.732  0.7144  0.1139 -0.5484
  282MOL0     C38817  13.245  -0.621   1.656 -0.5297 -0.2871  0.8502
  282MOL0     C38818  13.373  -0.607   1.740 -0.2182 -0.2749  0.3555
  282MOL0     C38819  13.509  -0.651   1.677  0.5842 -0.1345 -0.1231
  282MOL0     C38820  13.628  -0.604   1.767 -0.1772  0.4349  0.0879
  282MOL0     C38821  13.757  -0.669   1.708  0.6644 -0.1406  0.1374
  282MOL0     C38822  13.876  -0.624   1.789  0.0796 -0.0283  0.2192
  282MOL0    Cl38823  13.885  -0.709   1.952 -0.3884  0.6566 -0.1468
  282MOL0     C38824  12.741  -0.524   1.544 -0.0762 -0.9222 -0.2142
  282MOL0     C38825  12.620  -0.551   1.487  0.0508 -0.2546  0.3564
  282MOL0     O38826  12.370  -0.440   1.363  0.0808 -0.0847  0.7779
  282MOL0     C38827  12.131  -0.694   1.431  0.0861 -0.4538 -0.5889
  282MOL0     C38828  12.008  -0.743   1.392 -0.3499  0.4166  0.3175
  282MOL0     N38829  11.732  -0.260   1.130  0.1157 -0.0831  0.3320
  282MOL0     N38830  11.849  -0.207   1.086  0.2737  0.9476  0.3444
  282MOL0     C38831  10.982   0.223   0.660 -0.4426 -0.1290  0.0987
  282MOL0     C38832  10.893   0.244   0.762 -0.0798 -0.6877 -0.4079
  282MOL0     C38833  10.633   0.283   1.099  0.2948 -0.2486  0.7863
  282MOL0     C38834  10.597   0.410   1.095 -0.4086 -0.3772  0.2412
  282MOL0     C38835  10.475   0.458   1.143 -0.3060 -0.5064  0.9148
  282MOL0     C38836  10.394   0.379   1.218 -0.1792  0.1079  0.3722
  282MOL0     O38837  10.274   0.436   1.249 -0.5704  0.0103 -0.2893
  282MOL0     C38838  10.177   0.362   1.327  0.0867 -0.3121  0.9814
  282MOL0     C38839  10.054   0.438   1.326  0.5485 -0.4252  0.1992
  282MOL0     C38840   9.996   0.448   1.186 -0.4144 -0.1972  0.4883
  282MOL0     C38841   9.868   0.529   1.177 -0.3857  0.7102 -0.7013
  282MOL0     C38842   9.804   0.519   1.044  0.1807 -0.6182  0.5231
  282MOL0     C38843   9.753   0.513   0.932  0.6385 -0.0567 -0.3928
  282MOL0     C38844  10.433   0.251   1.234 -0.1946  0.1819 -0.5347
  282MOL0     C38845  10.558   0.198   1.177 -0.7113 -0.2019  0.7441
  282MOL0     C38846  10.587   0.058   1.209  0.2287  0.5184  0.1930
  282MOL0     H38847  11.072   0.472   0.951  0.1941 -0.9413  0.9087
  282MOL0     H38848  11.207   0.464   0.744 -1.4391  1.2650 -2.7871
  282MOL0     H38849  11.275   0.074   0.510 -0.6213  4.2105 -3.3463
  282MOL0     H38850  11.218   0.067   0.673  1.1058 -1.6744  0.0240
  282MOL0     H38851  11.466   0.216   0.582  0.5655 -2.9842 -1.6943
  282MOL0     H38852  11.415   0.194   0.753  0.1797  4.4928 -1.8404
  282MOL0     H38853  11.471  -0.038   0.741 -0.8450 -3.8738 -1.9944
  282MOL0     H38854  11.468  -0.058   0.575  1.2339  0.2552 -1.6505
  282MOL0     H38855  11.686   0.063   0.560 -0.9031  1.3310  0.5273
  282MOL0     H38856  11.649   0.131   0.722 -4.1388  0.1174  2.3629
  282MOL0     H38857  11.686  -0.177   0.673  1.2288 -1.5594  3.7341
  282MOL0     H38858  11.703  -0.092   0.820  0.7544  2.1436  0.7954
  282MOL0     H38859  11.904  -0.049   0.589  2.4287 -2.1967  0.1815
  282MOL0     H38860  11.919   0.014   0.750  0.7563 -0.1744  0.1022
  282MOL0     H38861  12.059  -0.182   0.687  0.2035 -0.4166 -0.0229
  282MOL0     H38862  11.915  -0.283   0.690  0.7334  0.8380 -2.0135
  282MOL0     H38863  12.076  -0.290   0.879 -1.4753 -1.0735 -1.8534
  282MOL0     H38864  12.036  -0.122   0.920 -0.6684  0.4767 -0.5411
  282MOL0     H38865  11.794  -0.446   0.868  0.9931 -1.0554  0.1349
  282MOL0     H38866  11.551  -0.525   0.980  0.1449  1.1375 -0.9379
  282MOL0     H38867  11.488  -0.379   0.996  1.1015  3.1919  1.2393
  282MOL0     H38868  11.490  -0.384   1.237 -0.7870 -0.5980 -1.4122
  282MOL0     H38869  11.459  -0.548   1.174 -0.5676 -0.1049  1.4183
  282MOL0     H38870  11.721  -0.462   1.297 -0.8584  0.7424 -1.3242
  282MOL0     H38871  11.600  -0.573   1.350  1.4956  1.7025  1.5274
  282MOL0     H38872  11.630  -0.723   1.144  1.3603  0.4182 -4.0879
  282MOL0     H38873  11.759  -0.636   1.089 -0.1251  0.2469  0.4623
  282MOL0     H38874  11.929  -0.514   1.159  1.0693 -0.2759 -0.6027
  282MOL0     H38875  12.149  -0.306   1.290  0.0822 -1.3282  1.1511
  282MOL0     H38876  12.078  -0.342   1.137  0.4517  0.1419  0.0124
  282MOL0     H38877  12.244  -0.383   1.154 -0.1641  1.2473 -0.1509
  282MOL0     H38878  12.440  -0.614   1.774 -1.5800 -0.8046 -1.8141
  282MOL0     H38879  12.659  -0.569   1.868 -0.3081  0.1371  0.1029
  282MOL0     H38880  12.975  -0.693   1.621  0.6810 -1.1827  1.6132
  282MOL0     H38881  12.995  -0.513   1.576 -2.5451  1.0331  1.0190
  282MOL0     H38882  13.131  -0.479   1.771  0.0758 -0.1517  0.3915
  282MOL0     H38883  13.112  -0.651   1.816 -1.9688  0.3755 -0.4663
  282MOL0     H38884  13.250  -0.561   1.564  0.4085 -0.8486  0.5224
  282MOL0     H38885  13.237  -0.727   1.630  3.5159 -0.3756 -0.9400
  282MOL0     H38886  13.355  -0.656   1.836 -3.3508  0.7949  0.4264
  282MOL0     H38887  13.387  -0.500   1.760  1.6685 -0.6986  1.5945
  282MOL0     H38888  13.511  -0.760   1.681 -0.9263 -0.2495 -1.5572
  282MOL0     H38889  13.527  -0.617   1.574 -0.8970  0.1129 -0.3262
  282MOL0     H38890  13.619  -0.643   1.869 -0.7681  0.8771  0.2061
  282MOL0     H38891  13.639  -0.495   1.764  2.7909  0.2136 -0.7473
  282MOL0     H38892  13.763  -0.626   1.608  1.0617 -0.8665 -0.1573
  282MOL0     H38893  13.750  -0.778   1.707 -1.6700 -0.0287 -1.5176
  282MOL0     H38894  13.895  -0.517   1.801  1.1098 -0.3689  1.9453
  282MOL0     H38895  13.961  -0.667   1.735 -0.5776 -2.2207  0.8008
  282MOL0     H38896  12.818  -0.522   1.468 -1.5300  0.8751 -1.7554
  282MOL0     H38897  12.625  -0.551   1.379 -0.4802  0.7522  0.3215
  282MOL0     H38898  12.178  -0.745   1.515  1.1825  1.5596  0.0863
  282MOL0     H38899  11.973  -0.827   1.452 -0.9692  0.3966 -0.0646
  282MOL0     H38900  10.976   0.139   0.591 -2.4498 -0.0295  0.0904
  282MOL0     H38901  10.802   0.187   0.753  0.6787 -2.0487  0.2156
  282MOL0     H38902  10.657   0.479   1.036  1.0829 -0.2058  1.8866
  282MOL0     H38903  10.440   0.559   1.123  1.9152  0.1260 -0.1205
  282MOL0     H38904  10.169   0.263   1.282 -2.2348  0.0715  0.4086
  282MOL0     H38905  10.219   0.343   1.426  2.1948  2.1743  0.6418
  282MOL0     H38906  10.059   0.542   1.358 -1.4716  0.0168 -0.8058
  282MOL0     H38907   9.979   0.392   1.391  1.4434  0.5426  2.0130
  282MOL0     H38908  10.066   0.487   1.112 -0.7465 -0.2221  0.1585
  282MOL0     H38909   9.970   0.350   1.146 -0.1366 -0.3557  0.6876
  282MOL0     H38910   9.892   0.634   1.194 -0.8104  0.9276 -1.3969
  282MOL0     H38911   9.810   0.490   1.261  2.0336  1.9569  1.6665
  282MOL0     H38912   9.714   0.523   0.832 -1.0690  0.1674  0.2653
  282MOL0     H38913  10.361   0.192   1.290 -0.5023  0.2583 -0.8440
  282MOL0     H38914  10.514   0.001   1.267  0.9649 -0.0207  0.6003
  282MOL0     H38915  10.603  -0.001   1.119  0.4318  1.0142 -0.1025
  282MOL0     H38916  10.675   0.054   1.273  1.2856 -1.4520 -1.2889
  283MOL0     O38917   0.743   7.423   0.816 -0.1689 -0.0209  0.0382
  283MOL0     C38918   0.668   7.486   0.888 -0.6454 -0.1219 -0.8008
  283MOL0     O38919   0.684   7.626   0.920  0.1722  0.5734  0.0057
  283MOL0     C38920   0.797   7.697   0.897 -0.6756  0.4504  0.3306
  283MOL0     C38921   0.925   7.646   0.869  0.2032 -0.3696  0.6960
  283MOL0     C38922   1.033   7.729   0.849 -0.4277 -0.4386  0.3166
  283MOL0     C38923   1.014   7.873   0.859  0.3730 -0.0457 -0.0736
  283MOL0     O38924   1.111   7.967   0.840 -0.4548 -0.3117 -0.2541
  283MOL0     C38925   1.245   7.931   0.871 -0.3904 -0.2268 -0.4901
  283MOL0     C38926   1.289   7.962   1.012  0.0903 -0.8883  0.3502
  283MOL0     C38927   1.413   7.887   1.065  0.1919 -0.5370  0.4517
  283MOL0     C38928   1.530   7.884   0.955 -0.0126 -0.3528 -0.8303
  283MOL0     C38929   1.659   7.822   1.011 -0.2652  0.0090 -0.9132
  283MOL0     C38930   1.743   7.807   0.889  0.1894 -0.1509 -1.0242
  283MOL0     C38931   1.883   7.740   0.919  0.7629  0.1035  0.0625
  283MOL0     C38932   1.983   7.834   0.983  0.5923  0.6692 -0.1864
  283MOL0     N38933   2.100   7.764   1.034 -0.1378  0.0067 -0.5060
  283MOL0     C38934   2.148   7.773   1.165 -0.7482  0.2089  0.5679
  283MOL0     C38935   2.262   7.697   1.150 -0.8744 -1.1028 -0.0409
  283MOL0     C38936   2.363   7.676   1.262  0.3535  0.3253 -0.6842
  283MOL0     C38937   2.485   7.770   1.249 -0.3141 -0.7391  0.0512
  283MOL0     C38938   2.587   7.767   1.366 -0.2764 -0.3203  0.3647
  283MOL0     C38939   2.711   7.860   1.343  0.6989  0.6594  0.1450
  283MOL0     O38940   2.781   7.817   1.229 -0.2393  0.3300 -0.2809
  283MOL0     C38941   2.912   7.868   1.213 -0.1897 -0.4557 -0.2407
  283MOL0     C38942   2.958   7.989   1.262  0.3622 -0.8860 -0.2012
  283MOL0     C38943   3.093   8.030   1.255  0.3550 -0.0739 -0.3704
  283MOL0     C38944   3.130   8.147   1.339  0.2779 -0.0374  0.3126
  283MOL0     C38945   3.182   7.946   1.179 -0.2247 -0.6977 -0.4605
  283MOL0     C38946   3.333   7.963   1.171  0.1041 -0.2759  0.6533
  283MOL0     O38947   3.390   8.060   1.250 -0.0202 -0.3266  0.2306
  283MOL0     C38948   3.527   8.072   1.252 -0.5149 -0.9098 -0.6527
  283MOL0     C38949   3.606   7.962   1.297  0.2028  0.1743 -1.4545
  283MOL0     C38950   3.738   7.980   1.313 -0.1642 -0.5404  0.3485
  283MOL0     C38951   3.807   8.102   1.279  0.7287 -0.4703 -0.3041
  283MOL0     O38952   3.940   8.136   1.284  0.0602 -0.1012  0.3993
  283MOL0     C38953   4.023   8.040   1.356  1.1583  0.4776 -0.7694
  283MOL0     C38954   4.165   8.104   1.373  0.4263 -0.6415  0.4309
  283MOL0     C38955   4.255   7.994   1.431  0.2268  0.9791 -0.2924
  283MOL0     C38956   4.401   8.047   1.449 -0.1011  0.4468 -0.2852
  283MOL0     C38957   4.501   7.927   1.465  0.3663 -0.1348  0.5856
  283MOL0     C38958   4.649   7.976   1.479  0.6418  0.3683 -0.7006
  283MOL0     C38959   4.731   7.869   1.553  0.5890  0.7455  0.2878
  283MOL0     C38960   4.703   7.859   1.700  0.6125 -0.2359  0.0523
  283MOL0    Cl38961   4.833   7.761   1.771 -0.0880  0.0039 -0.5300
  283MOL0     C38962   3.727   8.211   1.238 -0.4369  0.5016 -0.8730
  283MOL0     C38963   3.593   8.197   1.224 -0.4555  0.5229 -1.1791
  283MOL0     O38964   3.393   7.909   1.081 -0.3910  0.9330 -0.2223
  283MOL0     C38965   3.119   7.834   1.111 -0.3864  0.0484  0.3173
  283MOL0     C38966   2.989   7.800   1.131 -0.3138 -0.0750  0.2078
  283MOL0     N38967   2.274   7.650   1.025 -0.0802  0.2329  0.1229
  283MOL0     N38968   2.180   7.699   0.949  0.7976  0.7451  0.1065
  283MOL0     C38969   0.883   7.923   0.866  0.3182  0.6498  0.4158
  283MOL0     C38970   0.775   7.836   0.877 -0.0421  0.5233 -0.4295
  283MOL0     C38971   0.547   7.414   0.942 -0.6368 -0.3084 -0.2403
  283MOL0     C38972   0.544   7.276   0.908 -0.2112 -0.7827  0.8115
  283MOL0     C38973   0.441   7.195   0.961  0.6113  0.7780 -0.8860
  283MOL0     C38974   0.340   7.242   1.043  0.0269  0.4506 -0.4272
  283MOL0     O38975   0.241   7.162   1.106 -0.0351  0.1085 -0.4045
  283MOL0     C38976   0.235   7.018   1.099 -1.2105  0.7763  0.5751
  283MOL0     C38977   0.136   6.981   0.995  0.6181 -0.6327  0.0094
  283MOL0     C38978   0.192   6.995   0.852  0.8267  0.2214 -0.3909
  283MOL0     C38979   0.086   6.971   0.747  0.0893 -0.5889 -0.1728
  283MOL0     C38980  -0.001   7.092   0.719  0.1519  0.2102  0.5574
  283MOL0     C38981  -0.072   7.189   0.699  0.5450  0.7434 -0.3900
  283MOL0     C38982   0.340   7.382   1.072  0.2747  0.6726 -0.4867
  283MOL0     C38983   0.437   7.467   1.018 -0.9494  0.6734  0.8512
  283MOL0     C38984   0.448   7.613   1.060 -0.7311 -0.6659 -1.4393
  283MOL0     H38985   0.955   7.542   0.882  3.8910  0.8350  4.0829
  283MOL0     H38986   1.131   7.682   0.845 -0.6919 -1.0742  1.1237
  283MOL0     H38987   1.309   7.993   0.807 -0.2170  2.1391  1.8112
  283MOL0     H38988   1.259   7.822   0.870  1.3792 -0.1186  2.5069
  283MOL0     H38989   1.322   8.067   1.008 -0.2592 -0.7920 -0.0196
  283MOL0     H38990   1.203   7.948   1.078 -0.4839 -1.2791 -0.4614
  283MOL0     H38991   1.451   7.927   1.159  0.2487 -1.6357  0.9148
  283MOL0     H38992   1.381   7.784   1.082 -4.3160  0.9170  2.5655
  283MOL0     H38993   1.497   7.822   0.871  1.3661 -1.8585 -0.3136
  283MOL0     H38994   1.552   7.988   0.929 -1.3945 -0.3421 -2.1335
  283MOL0     H38995   1.643   7.730   1.069  2.2787  1.5528  2.5656
  283MOL0     H38996   1.696   7.897   1.081 -3.8320  2.4993 -1.4143
  283MOL0     H38997   1.686   7.746   0.818 -1.6425 -0.7378  0.8580
  283MOL0     H38998   1.759   7.905   0.842  0.3437  1.1781  1.6577
  283MOL0     H38999   1.905   7.700   0.819  0.6057 -0.6493  0.3249
  283MOL0     H39000   1.858   7.652   0.979  3.0374 -0.0559  0.8856
  283MOL0     H39001   2.004   7.919   0.918 -3.0382  0.5652 -1.6949
  283MOL0     H39002   1.939   7.865   1.079 -0.0765 -0.3699 -0.1478
  283MOL0     H39003   2.105   7.812   1.257 -0.6002  1.1305  0.2540
  283MOL0     H39004   2.392   7.572   1.244  0.4262 -0.1830  1.9396
  283MOL0     H39005   2.330   7.678   1.366  1.6556 -0.1021 -0.2337
  283MOL0     H39006   2.539   7.744   1.158  1.1726  4.4121 -0.8603
  283MOL0     H39007   2.464   7.876   1.232  2.4364  0.7870  4.4207
  283MOL0     H39008   2.535   7.805   1.454 -0.1341 -1.7268  1.0887
  283MOL0     H39009   2.615   7.661   1.376 -2.9716 -1.2652 -0.9428
  283MOL0     H39010   2.684   7.964   1.324 -0.5042 -0.2376 -3.8927
  283MOL0     H39011   2.767   7.844   1.436 -0.0458 -0.0850  0.4751
  283MOL0     H39012   2.895   8.048   1.327  2.0423 -1.0336  1.6536
  283MOL0     H39013   3.165   8.122   1.439 -0.3612 -0.4316  0.4436
  283MOL0     H39014   3.037   8.197   1.369  0.9421 -0.0061  2.4764
  283MOL0     H39015   3.193   8.220   1.287 -1.0023  1.1890  0.4126
  283MOL0     H39016   3.571   7.862   1.321  1.1687  0.6357  2.7189
  283MOL0     H39017   3.790   7.888   1.336 -0.0885 -1.1688 -2.0615
  283MOL0     H39018   3.976   8.019   1.452 -0.8687 -0.5987 -1.9277
  283MOL0     H39019   4.030   7.951   1.292 -3.2482 -0.0970 -0.7311
  283MOL0     H39020   4.199   8.138   1.275 -0.1667 -0.4850  0.2798
  283MOL0     H39021   4.154   8.194   1.434 -1.0224 -1.0233  0.7541
  283MOL0     H39022   4.252   7.906   1.366 -2.7443  0.1948  0.7534
  283MOL0     H39023   4.213   7.947   1.521 -3.6950  0.1226 -2.3449
  283MOL0     H39024   4.399   8.114   1.535  1.3464 -1.5568  1.4293
  283MOL0     H39025   4.430   8.102   1.360 -1.0793  0.9738 -0.2978
  283MOL0     H39026   4.472   7.862   1.548 -0.8131  0.0083  0.2909
  283MOL0     H39027   4.491   7.866   1.375  0.5727 -0.7127  0.9464
  283MOL0     H39028   4.664   8.064   1.543  3.6927 -1.0181  0.7188
  283MOL0     H39029   4.698   7.993   1.383 -1.4667  2.1184 -1.5599
  283MOL0     H39030   4.837   7.881   1.529  0.6288 -0.0693  0.0103
  283MOL0     H39031   4.707   7.769   1.515  0.5692  0.9428 -0.2374
  283MOL0     H39032   4.606   7.814   1.722  0.1461  0.0903 -1.2442
  283MOL0     H39033   4.709   7.957   1.748 -1.9495  0.5569 -1.0752
  283MOL0     H39034   3.775   8.305   1.213  0.9374 -0.0925 -0.5337
  283MOL0     H39035   3.533   8.280   1.187  1.0157  1.6813 -1.0381
  283MOL0     H39036   3.177   7.776   1.040 -1.0552  0.2721 -0.4213
  283MOL0     H39037   2.942   7.712   1.088 -2.4686 -0.6691  3.3861
  283MOL0     H39038   0.854   8.027   0.862 -1.8597  0.1974  2.1190
  283MOL0     H39039   0.673   7.871   0.885  0.0722  0.7716 -0.0889
  283MOL0     H39040   0.605   7.241   0.826 -2.4838  1.6992 -2.1981
  283MOL0     H39041   0.421   7.093   0.928  0.8591  0.1612  0.7858
  283MOL0     H39042   0.325   6.968   1.064 -2.3228  0.0228 -1.3740
  283MOL0     H39043   0.197   6.980   1.195 -0.4287  0.3675  0.7331
  283MOL0     H39044   0.039   7.030   1.008 -0.9477 -3.7533  1.2612
  283MOL0     H39045   0.123   6.873   1.008  1.3555 -0.5126  2.1361
  283MOL0     H39046   0.221   7.101   0.848  1.5843 -0.0056 -2.0718
  283MOL0     H39047   0.264   6.920   0.819 -0.5093 -0.7937 -1.0884
  283MOL0     H39048   0.022   6.888   0.777  1.0043 -1.9238 -1.7544
  283MOL0     H39049   0.137   6.951   0.652  0.2128  0.6812 -0.3921
  283MOL0     H39050  -0.141   7.269   0.685  0.5161  0.6112 -1.0322
  283MOL0     H39051   0.264   7.427   1.136  2.7573  0.8421  2.5842
  283MOL0     H39052   0.547   7.639   1.100 -1.1995 -0.0001 -0.6849
  283MOL0     H39053   0.415   7.683   0.983 -1.7499 -1.3256 -1.6323
  283MOL0     H39054   0.377   7.638   1.139  1.0983  1.1842 -0.2965
  284MOL0     O39055   9.034   8.587   2.246  1.0510  0.0407  0.5925
  284MOL0     C39056   9.132   8.536   2.293  0.1569 -0.5651 -0.5704
  284MOL0     O39057   9.253   8.528   2.227 -0.2532  0.0758 -0.7835
  284MOL0     C39058   9.244   8.510   2.090 -0.9616 -0.0753 -0.7953
  284MOL0     C39059   9.359   8.532   2.022  0.0563  0.3793 -0.4124
  284MOL0     C39060   9.386   8.505   1.888 -0.2787  0.1009 -0.7966
  284MOL0     C39061   9.276   8.458   1.808 -0.5752  0.2173  1.0918
  284MOL0     O39062   9.297   8.452   1.671  0.0975 -0.4513  0.4126
  284MOL0     C39063   9.182   8.417   1.596  0.3391 -0.2893  0.5473
  284MOL0     C39064   9.209   8.422   1.448  0.4086 -0.4693 -0.4036
  284MOL0     C39065   9.084   8.371   1.380  0.1468 -0.7250  0.4174
  284MOL0     C39066   9.114   8.338   1.233 -0.5490 -0.0427 -0.7602
  284MOL0     C39067   8.986   8.349   1.149  0.4201 -0.5495  0.0220
  284MOL0     C39068   8.871   8.259   1.191  0.5099 -0.4661 -0.8679
  284MOL0     C39069   8.915   8.108   1.168  0.8045 -0.5949 -0.0918
  284MOL0     C39070   8.795   8.023   1.193  0.6196  0.1651  0.2273
  284MOL0     N39071   8.815   7.879   1.162  0.0849 -0.4089 -0.3123
  284MOL0     C39072   8.899   7.793   1.228 -0.5515  0.5377 -0.3737
  284MOL0     C39073   8.886   7.671   1.162 -1.1215  0.0819 -0.1486
  284MOL0     C39074   8.947   7.542   1.188 -0.0273  0.6981 -0.2901
  284MOL0     C39075   9.085   7.544   1.240 -0.7480 -0.1325 -0.1892
  284MOL0     C39076   9.160   7.405   1.224  0.4403  0.4447 -0.6592
  284MOL0     C39077   9.136   7.314   1.343  0.0948 -0.4206  0.3517
  284MOL0     O39078   9.160   7.380   1.473  0.0973 -0.6757  0.4534
  284MOL0     C39079   9.280   7.423   1.509 -1.0479  0.6627  0.2736
  284MOL0     C39080   9.404   7.391   1.440 -0.2995 -0.4788  0.3393
  284MOL0     C39081   9.524   7.446   1.471 -0.0518  0.0352 -0.1070
  284MOL0     C39082   9.647   7.389   1.406  0.5613 -0.1342  0.2711
  284MOL0     C39083   9.538   7.529   1.588  0.6406  0.3644  0.1832
  284MOL0     C39084   9.670   7.586   1.630  0.1777  0.3118 -0.1605
  284MOL0     O39085   9.678   7.634   1.761 -0.1243 -0.6836 -0.0328
  284MOL0     C39086   9.788   7.671   1.828 -0.2340 -0.3036  0.1196
  284MOL0     C39087   9.771   7.775   1.924 -0.2597  0.4133  0.3065
  284MOL0     C39088   9.871   7.801   2.012 -0.5350  0.8326  0.0211
  284MOL0     C39089  10.000   7.737   2.010 -0.0724 -0.0406  0.0327
  284MOL0     O39090  10.098   7.767   2.106  0.2944  0.5829  0.1255
  284MOL0     C39091  10.228   7.753   2.056 -0.1815 -0.0323  0.2343
  284MOL0     C39092  10.303   7.876   2.115  0.3406  0.5279  0.1345
  284MOL0     C39093  10.453   7.889   2.058 -0.9718  0.0664  0.0240
  284MOL0     C39094  10.556   7.823   2.148  0.5049 -0.2239 -0.5071
  284MOL0     C39095  10.677   7.753   2.071  0.2516 -0.3207  0.8145
  284MOL0     C39096  10.751   7.846   1.981  0.5243 -0.9422 -0.4545
  284MOL0     C39097  10.823   7.977   2.050 -0.5645 -0.6734  0.2126
  284MOL0     C39098  10.881   8.089   1.963 -0.5291 -0.6433  0.0422
  284MOL0    Cl39099  11.048   8.041   1.904  0.0673  0.1474 -0.2810
  284MOL0     C39100  10.018   7.635   1.918  0.6671  0.2894 -0.5817
  284MOL0     C39101   9.911   7.599   1.834 -0.3817  0.0279  0.6830
  284MOL0     O39102   9.759   7.573   1.552 -0.3720 -0.7563  0.1630
  284MOL0     C39103   9.416   7.566   1.653  0.5070 -0.0700 -0.3353
  284MOL0     C39104   9.293   7.510   1.621 -0.6133  0.2839  0.0332
  284MOL0     N39105   8.804   7.695   1.053 -0.4404 -0.4779 -0.1252
  284MOL0     N39106   8.751   7.813   1.057  0.3971  0.3020  1.0270
  284MOL0     C39107   9.155   8.436   1.877 -0.4921  0.4574 -0.5167
  284MOL0     C39108   9.142   8.465   2.014  0.1162 -0.4667 -0.7987
  284MOL0     C39109   9.126   8.501   2.442  0.3801 -0.0787 -0.2632
  284MOL0     C39110   9.241   8.529   2.525  1.0030 -0.0849 -0.3267
  284MOL0     C39111   9.248   8.491   2.657 -0.1629  0.5875 -0.7132
  284MOL0     C39112   9.147   8.412   2.711 -0.4800  0.4125 -1.2660
  284MOL0     O39113   9.146   8.360   2.839  0.0849  0.1535 -0.2533
  284MOL0     C39114   9.219   8.426   2.945 -0.0913 -0.6377 -0.4618
  284MOL0     C39115   9.156   8.566   2.979  0.4033 -0.1591 -0.8659
  284MOL0     C39116   9.007   8.562   3.015  0.1429  0.1842  0.3010
  284MOL0     C39117   8.960   8.460   3.121 -0.2171 -1.0024 -0.0166
  284MOL0     C39118   8.824   8.471   3.179 -0.5511  0.1533 -0.5997
  284MOL0     C39119   8.725   8.473   3.242  0.2121 -0.0536  0.2671
  284MOL0     C39120   9.039   8.385   2.633  0.0644  0.0660  0.2618
  284MOL0     C39121   9.021   8.425   2.500  0.0329  0.0662  0.0864
  284MOL0     C39122   8.899   8.372   2.425  0.1499  0.1259  0.1720
  284MOL0     H39123   9.440   8.558   2.090 -0.3717  1.6934 -0.3765
  284MOL0     H39124   9.475   8.521   1.828  2.1404  1.0819  2.7519
  284MOL0     H39125   9.104   8.489   1.618 -2.1112 -1.0869 -4.2075
  284MOL0     H39126   9.150   8.317   1.629  0.0933 -0.0386  1.0762
  284MOL0     H39127   9.219   8.527   1.420  2.2973 -0.5986 -0.2880
  284MOL0     H39128   9.286   8.351   1.418  1.7547 -0.7586  3.2099
  284MOL0     H39129   9.050   8.274   1.417  0.5729 -1.1319 -0.2233
  284MOL0     H39130   9.006   8.447   1.387  0.1541 -0.6592 -0.1329
  284MOL0     H39131   9.186   8.401   1.181  0.2431 -1.5192 -1.5199
  284MOL0     H39132   9.153   8.236   1.242  0.7903  0.4927 -0.3395
  284MOL0     H39133   9.016   8.340   1.044 -1.2662  1.3925 -0.6706
  284MOL0     H39134   8.950   8.452   1.154  1.5927  0.3019 -4.2576
  284MOL0     H39135   8.866   8.270   1.300  2.1365 -2.6535 -0.5060
  284MOL0     H39136   8.779   8.289   1.140  0.8318  2.3105  0.0026
  284MOL0     H39137   8.990   8.075   1.241  0.7033 -0.8296 -0.0900
  284MOL0     H39138   8.959   8.090   1.070  4.1248 -2.9986  1.6259
  284MOL0     H39139   8.742   8.043   1.287 -2.1889  0.7728 -1.3780
  284MOL0     H39140   8.717   8.054   1.123  0.4277 -1.4059 -0.3120
  284MOL0     H39141   8.961   7.800   1.317  0.1430 -0.0524 -0.7957
  284MOL0     H39142   8.937   7.489   1.093 -0.1174 -0.5242  0.3746
  284MOL0     H39143   8.882   7.496   1.264 -0.7866  2.8299  0.4343
  284MOL0     H39144   9.155   7.617   1.199  2.1861 -2.0071  1.1701
  284MOL0     H39145   9.080   7.570   1.346  2.1315 -0.1394  0.0179
  284MOL0     H39146   9.121   7.350   1.138  1.2241 -1.0245 -0.1177
  284MOL0     H39147   9.264   7.429   1.204  0.9010 -0.5876  0.4254
  284MOL0     H39148   9.031   7.284   1.348  0.4305 -1.4890  1.5586
  284MOL0     H39149   9.197   7.223   1.337 -1.2041 -1.4097  1.5130
  284MOL0     H39150   9.395   7.329   1.352 -1.1324  1.3596 -0.9437
  284MOL0     H39151   9.604   7.323   1.330 -2.6775  2.4838 -0.3888
  284MOL0     H39152   9.706   7.331   1.478  0.4621 -0.2621  0.2510
  284MOL0     H39153   9.711   7.452   1.344  0.1620 -0.1754 -0.1936
  284MOL0     H39154   9.671   7.818   1.929 -2.9145 -4.8265 -0.4251
  284MOL0     H39155   9.854   7.872   2.092 -0.7671  0.8679 -0.0577
  284MOL0     H39156  10.278   7.657   2.073  0.5509  0.2988  0.0011
  284MOL0     H39157  10.237   7.769   1.948 -0.1425  1.3919  0.4402
  284MOL0     H39158  10.258   7.974   2.095 -0.6572  0.2926  1.0974
  284MOL0     H39159  10.296   7.876   2.224 -1.3232 -0.4600  0.0542
  284MOL0     H39160  10.475   7.996   2.063 -0.8246  0.0172  0.4997
  284MOL0     H39161  10.463   7.858   1.954  1.7876  0.7907  0.0131
  284MOL0     H39162  10.514   7.747   2.215  1.9263  0.2681  1.0454
  284MOL0     H39163  10.591   7.909   2.207 -0.0838  0.3202 -0.9403
  284MOL0     H39164  10.761   7.717   2.132  0.9019 -1.2656 -0.5993
  284MOL0     H39165  10.639   7.660   2.029  0.0198 -0.4111  1.2155
  284MOL0     H39166  10.681   7.884   1.906  0.6289 -0.4306 -0.2967
  284MOL0     H39167  10.824   7.797   1.915  0.4719  0.7648 -1.8601
  284MOL0     H39168  10.899   7.939   2.119 -0.8001  0.6590  1.2554
  284MOL0     H39169  10.753   8.033   2.113  0.8695  0.8296  0.5415
  284MOL0     H39170  10.899   8.177   2.025  2.8737  0.6157 -2.3847
  284MOL0     H39171  10.815   8.122   1.882 -1.1692 -0.8836  0.4599
  284MOL0     H39172  10.104   7.569   1.912 -0.8631 -1.8514 -0.3468
  284MOL0     H39173   9.914   7.509   1.773 -0.0968 -1.1703  2.3811
  284MOL0     H39174   9.430   7.632   1.738 -0.0464 -0.9240  0.4302
  284MOL0     H39175   9.207   7.524   1.686 -2.1545 -2.7418 -1.1777
  284MOL0     H39176   9.057   8.412   1.835 -0.1645 -1.5349 -0.2251
  284MOL0     H39177   9.046   8.444   2.058 -0.2792 -2.9876 -2.6406
  284MOL0     H39178   9.318   8.576   2.465 -2.2074  1.0917 -4.0086
  284MOL0     H39179   9.327   8.524   2.724 -1.7407  0.4536  1.3058
  284MOL0     H39180   9.216   8.354   3.028 -1.1707 -1.2507 -1.0121
  284MOL0     H39181   9.323   8.435   2.913 -0.1046 -0.3128 -0.4179
  284MOL0     H39182   9.161   8.624   2.887 -0.7941 -1.6528 -1.9240
  284MOL0     H39183   9.219   8.608   3.058  1.0360 -1.0948 -0.8587
  284MOL0     H39184   8.969   8.663   3.033 -0.4406  0.1019 -0.4234
  284MOL0     H39185   8.960   8.537   2.919  2.0609  0.7093 -0.8344
  284MOL0     H39186   9.031   8.466   3.205 -0.5804  1.8186  0.1870
  284MOL0     H39187   8.971   8.356   3.091 -0.6508 -1.9501  2.7643
  284MOL0     H39188   8.629   8.470   3.291  1.1690 -2.6107  2.2108
  284MOL0     H39189   8.965   8.328   2.689  1.1067 -1.4459  0.1610
  284MOL0     H39190   8.935   8.322   2.335 -0.1737  0.1632  0.0182
  284MOL0     H39191   8.843   8.303   2.489  0.3642 -0.5914 -0.4107
  284MOL0     H39192   8.833   8.459   2.412 -0.7234 -0.5821 -0.1931
  285MOL0     O39193   8.007   5.136   6.797  0.7513  0.2725 -0.0687
  285MOL0     C39194   7.975   5.210   6.887 -0.0087 -0.0909  0.0291
  285MOL0     O39195   8.055   5.302   6.949 -0.5487  0.3051 -0.1123
  285MOL0     C39196   8.190   5.311   6.917 -0.8456 -0.2487 -0.4912
  285MOL0     C39197   8.273   5.194   6.896  0.5430 -0.7238 -0.2772
  285MOL0     C39198   8.405   5.208   6.873 -0.4622 -0.4639 -0.7614
  285MOL0     C39199   8.463   5.335   6.867 -0.3353 -0.6533 -0.1875
  285MOL0     O39200   8.596   5.363   6.842 -0.6958 -0.1686  0.2837
  285MOL0     C39201   8.668   5.257   6.766  0.4534  0.4689 -1.0487
  285MOL0     C39202   8.780   5.326   6.702  0.0525 -0.2320 -0.4015
  285MOL0     C39203   8.849   5.236   6.598 -0.4798 -0.1123  0.0393
  285MOL0     C39204   8.951   5.322   6.529  0.1637  0.5431 -0.2393
  285MOL0     C39205   9.065   5.232   6.475 -0.3687  0.3234  0.6947
  285MOL0     C39206   9.187   5.316   6.423  0.2858  0.0081  0.0135
  285MOL0     C39207   9.294   5.245   6.350 -0.8184  0.2950  0.1914
  285MOL0     C39208   9.407   5.345   6.334  1.0447  1.2549  1.1373
  285MOL0     N39209   9.532   5.288   6.281  0.3009  0.6688  0.0051
  285MOL0     C39210   9.656   5.327   6.312 -0.1677  0.0837 -0.5297
  285MOL0     C39211   9.738   5.259   6.225 -0.4660 -0.0765  0.1624
  285MOL0     C39212   9.881   5.277   6.205 -0.6518 -0.4257 -0.1395
  285MOL0     C39213   9.944   5.215   6.076  0.2234 -0.8795  0.2976
  285MOL0     C39214  10.095   5.234   6.080 -0.6850  0.4199  0.5749
  285MOL0     C39215  10.158   5.202   5.936 -0.5111  1.0629 -0.5771
  285MOL0     O39216  10.296   5.167   5.967 -0.1165 -0.1163  0.1393
  285MOL0     C39217  10.403   5.200   5.891  0.7829 -0.4521  0.2296
  285MOL0     C39218  10.394   5.229   5.754  0.4223  0.6971  0.2940
  285MOL0     C39219  10.504   5.281   5.684 -0.5569 -0.4674  0.1013
  285MOL0     C39220  10.476   5.334   5.549  0.1499 -0.9541 -0.8798
  285MOL0     C39221  10.628   5.302   5.754  0.4189  0.1862  0.5849
  285MOL0     C39222  10.754   5.332   5.687  0.2860 -1.0507 -0.3379
  285MOL0     O39223  10.760   5.284   5.565 -1.0746  0.0662  0.1159
  285MOL0     C39224  10.866   5.335   5.486  0.1197  0.2681 -0.2421
  285MOL0     C39225  11.010   5.336   5.519 -0.6461  0.5854  0.2703
  285MOL0     C39226  11.104   5.362   5.424 -0.5808 -0.4243 -0.2793
  285MOL0     C39227  11.068   5.383   5.290 -0.3738  0.9326 -0.7764
  285MOL0     O39228  11.156   5.413   5.189 -0.4617 -0.3401 -0.0154
  285MOL0     C39229  11.264   5.504   5.218  0.7506 -0.0875 -0.5312
  285MOL0     C39230  11.203   5.646   5.206 -0.4225  0.2777  0.7690
  285MOL0     C39231  11.309   5.749   5.245  0.2505 -0.4960 -0.0819
  285MOL0     C39232  11.269   5.882   5.186  0.7842 -0.7471  0.0953
  285MOL0     C39233  11.372   5.985   5.197 -0.7668 -0.4070 -0.6302
  285MOL0     C39234  11.476   5.974   5.071  0.1028  0.0923  0.8210
  285MOL0     C39235  11.567   6.098   5.038 -0.3384 -0.0950  0.5427
  285MOL0     C39236  11.488   6.221   4.997 -0.0020 -0.4384 -0.4330
  285MOL0    Cl39237  11.443   6.193   4.825  0.1385  0.1420  0.0120
  285MOL0     C39238  10.937   5.355   5.254  0.0401  0.5049 -0.2609
  285MOL0     C39239  10.833   5.331   5.349  0.2021  0.0000 -0.4287
  285MOL0     O39240  10.838   5.402   5.743  0.2216  0.2100 -0.1346
  285MOL0     C39241  10.639   5.266   5.888  1.2088  0.6588  0.1173
  285MOL0     C39242  10.523   5.227   5.952 -0.3731 -0.6732 -0.2000
  285MOL0     N39243   9.651   5.184   6.140 -0.5468 -0.0333 -0.0411
  285MOL0     N39244   9.533   5.199   6.179  0.1637  0.4278 -0.0033
  285MOL0     C39245   8.387   5.449   6.896  0.2794  0.6276  0.4134
  285MOL0     C39246   8.247   5.442   6.932 -0.3677  0.8749  0.5332
  285MOL0     C39247   7.833   5.215   6.913  0.7167 -0.2202 -0.2193
  285MOL0     C39248   7.791   5.326   6.994 -0.1085 -0.6616 -1.3055
  285MOL0     C39249   7.657   5.350   7.031 -0.5387 -0.6319 -0.3179
  285MOL0     C39250   7.560   5.274   6.961  0.3779  0.6162  0.5654
  285MOL0     O39251   7.430   5.310   6.979  0.4799 -0.4059  0.3581
  285MOL0     C39252   7.327   5.263   6.885 -0.2823  0.3298  0.3745
  285MOL0     C39253   7.210   5.355   6.926  0.4073 -0.5894  0.2988
  285MOL0     C39254   7.069   5.298   6.912  0.0867  0.0257 -0.1430
  285MOL0     C39255   6.958   5.399   6.871  0.3539 -0.5504 -0.4512
  285MOL0     C39256   6.825   5.344   6.896 -0.5094  0.4296 -0.6045
  285MOL0     C39257   6.713   5.316   6.933 -0.1273  0.2437  0.9299
  285MOL0     C39258   7.600   5.158   6.887 -0.4079 -0.4056  0.9119
  285MOL0     C39259   7.734   5.127   6.865 -0.2691 -0.3370  0.4434
  285MOL0     C39260   7.759   5.005   6.774  0.6194  0.6901  0.2041
  285MOL0     H39261   8.214   5.103   6.886 -1.8480  0.6177  0.9062
  285MOL0     H39262   8.458   5.115   6.855  0.8378 -0.3192  1.9041
  285MOL0     H39263   8.601   5.225   6.685  1.7350 -2.8130 -0.9429
  285MOL0     H39264   8.694   5.167   6.823 -0.1104 -0.1007 -1.6751
  285MOL0     H39265   8.755   5.422   6.656  1.8764  0.4240 -0.1023
  285MOL0     H39266   8.835   5.354   6.793 -1.5206 -3.4811  1.7507
  285MOL0     H39267   8.907   5.163   6.656  1.4890  1.4574  0.1735
  285MOL0     H39268   8.767   5.197   6.537 -3.3986  3.9244  1.0245
  285MOL0     H39269   8.906   5.379   6.447 -1.2915  2.2590  1.6536
  285MOL0     H39270   8.993   5.395   6.598 -0.8085  0.8426  0.0495
  285MOL0     H39271   9.035   5.160   6.398  0.3449  1.8303 -1.0588
  285MOL0     H39272   9.101   5.179   6.564 -0.9654  0.0966  0.8080
  285MOL0     H39273   9.151   5.386   6.347  0.1986 -1.3024 -1.1920
  285MOL0     H39274   9.231   5.366   6.510  2.8207  0.5341 -1.4638
  285MOL0     H39275   9.260   5.181   6.268  3.7262 -1.6350 -0.4881
  285MOL0     H39276   9.335   5.172   6.421 -1.4930  0.1971  0.4849
  285MOL0     H39277   9.384   5.422   6.260  3.2909 -0.4089 -1.4823
  285MOL0     H39278   9.434   5.380   6.434  2.8641  1.7193  0.5261
  285MOL0     H39279   9.685   5.411   6.374 -0.8265  1.1479 -1.6182
  285MOL0     H39280   9.941   5.231   6.284  0.6507 -1.0508 -1.4372
  285MOL0     H39281   9.896   5.385   6.204  0.4476 -0.5561  0.5090
  285MOL0     H39282   9.919   5.109   6.066 -5.1059  0.0263  1.1876
  285MOL0     H39283   9.900   5.266   5.989 -1.9559  3.3117  3.4882
  285MOL0     H39284  10.116   5.336   6.113  1.5758 -0.2516  1.4376
  285MOL0     H39285  10.125   5.161   6.156 -2.9885 -0.5498  0.6129
  285MOL0     H39286  10.106   5.124   5.881  2.3682 -0.4385 -1.3820
  285MOL0     H39287  10.155   5.286   5.865  0.0603 -0.1897 -2.1433
  285MOL0     H39288  10.299   5.230   5.700  0.3780  2.5025  0.3436
  285MOL0     H39289  10.501   5.264   5.469  2.1503 -0.7460 -0.4693
  285MOL0     H39290  10.527   5.430   5.540  1.6200 -1.4240  1.4555
  285MOL0     H39291  10.368   5.347   5.535  0.3204  3.1739  0.4226
  285MOL0     H39292  11.041   5.327   5.622  0.7176  0.3522 -0.1267
  285MOL0     H39293  11.205   5.365   5.463 -0.3251  0.0219 -0.9463
  285MOL0     H39294  11.307   5.497   5.318 -3.1304 -0.0595  1.3393
  285MOL0     H39295  11.349   5.488   5.152  1.2031  1.7747 -0.4615
  285MOL0     H39296  11.191   5.661   5.099  0.3002  0.8804  0.7590
  285MOL0     H39297  11.111   5.657   5.264 -1.0418 -0.5964 -0.0205
  285MOL0     H39298  11.408   5.713   5.214  0.7298 -0.2063  1.0442
  285MOL0     H39299  11.310   5.752   5.355 -3.9930  0.4445  0.0872
  285MOL0     H39300  11.183   5.927   5.236  0.9026  0.5120 -0.7808
  285MOL0     H39301  11.241   5.874   5.081 -0.7587  2.3833  0.1537
  285MOL0     H39302  11.328   6.085   5.203  0.9214  0.3047  1.0603
  285MOL0     H39303  11.431   5.988   5.289 -2.8462  0.2416  0.7532
  285MOL0     H39304  11.417   5.963   4.980 -0.7123  2.0139  1.0707
  285MOL0     H39305  11.541   5.888   5.093  0.7305  0.7541  1.6454
  285MOL0     H39306  11.634   6.081   4.953  0.5218  3.1335  0.4441
  285MOL0     H39307  11.627   6.127   5.124  3.2798  3.1196 -2.6735
  285MOL0     H39308  11.542   6.313   5.022 -1.9298  0.7188 -0.3845
  285MOL0     H39309  11.399   6.234   5.058 -0.3183 -1.6950 -0.5832
  285MOL0     H39310  10.896   5.350   5.153 -1.8010 -0.8082  0.4907
  285MOL0     H39311  10.729   5.315   5.325 -0.6872  0.8866  2.4817
  285MOL0     H39312  10.730   5.295   5.939  1.5875  1.2260 -0.8605
  285MOL0     H39313  10.502   5.209   6.057  1.1408 -3.2185 -0.2566
  285MOL0     H39314   8.435   5.547   6.891  0.0055  0.7013 -1.6722
  285MOL0     H39315   8.180   5.526   6.950 -1.3408  0.7596 -2.0787
  285MOL0     H39316   7.858   5.399   7.039 -2.0116 -1.0239  2.5654
  285MOL0     H39317   7.635   5.439   7.090 -2.1435  0.4101 -2.3297
  285MOL0     H39318   7.353   5.281   6.781 -4.0968  0.6799 -0.6557
  285MOL0     H39319   7.301   5.157   6.890  0.3974  0.0479 -1.4940
  285MOL0     H39320   7.213   5.441   6.858 -1.0168 -1.9824 -1.6678
  285MOL0     H39321   7.223   5.397   7.026 -2.1471  4.2789 -1.0751
  285MOL0     H39322   7.069   5.218   6.838  0.9457  1.6266 -1.9772
  285MOL0     H39323   7.054   5.250   7.009  0.4619 -0.5193 -0.3464
  285MOL0     H39324   6.972   5.418   6.764 -1.4888 -0.8207 -0.7734
  285MOL0     H39325   6.959   5.492   6.929 -3.3421 -0.2509 -0.6008
  285MOL0     H39326   6.616   5.285   6.966 -0.9145  0.5309 -0.9596
  285MOL0     H39327   7.526   5.096   6.836  0.9007 -1.2749  0.0206
  285MOL0     H39328   7.837   4.943   6.819  2.0784  1.3755 -1.2776
  285MOL0     H39329   7.671   4.940   6.770  0.9706  0.2052  0.3605
  285MOL0     H39330   7.784   5.032   6.671 -2.1186  0.4783 -0.5938
  286MOL0     O39331  10.492   6.121   3.785  0.5535  0.1389 -1.1122
  286MOL0     C39332  10.471   6.048   3.694  0.9055  0.8456  0.4206
  286MOL0     O39333  10.560   6.012   3.596 -0.2553 -0.6467  0.3711
  286MOL0     C39334  10.694   6.045   3.606  0.3769 -0.1912  0.0626
  286MOL0     C39335  10.776   6.018   3.715  0.6908  0.4169 -0.2871
  286MOL0     C39336  10.912   6.040   3.711 -0.2662  0.8412  0.0269
  286MOL0     C39337  10.977   6.086   3.593 -0.4391 -0.9972 -0.2640
  286MOL0     O39338  11.116   6.077   3.595  0.0977  0.4432  0.1117
  286MOL0     C39339  11.187   6.149   3.495  0.4407 -1.6371  1.2081
  286MOL0     C39340  11.334   6.142   3.512 -0.0605 -0.6319  0.9257
  286MOL0     C39341  11.422   6.223   3.410  1.3135 -0.6543 -0.2671
  286MOL0     C39342  11.460   6.150   3.272 -0.5621  0.0460  0.2720
  286MOL0     C39343  11.544   6.250   3.184  0.1943 -0.3474 -0.2582
  286MOL0     C39344  11.589   6.178   3.062 -0.1925  0.3766  0.1575
  286MOL0     C39345  11.671   6.276   2.980 -0.3910 -0.0041  0.1326
  286MOL0     C39346  11.698   6.219   2.844  0.3901 -0.4338 -0.1449
  286MOL0     N39347  11.828   6.262   2.793  0.1303  0.4298  0.0009
  286MOL0     C39348  11.895   6.180   2.711 -0.1222 -0.3142 -0.0490
  286MOL0     C39349  12.015   6.242   2.682  0.5650 -0.5981 -0.5053
  286MOL0     C39350  12.116   6.184   2.586  0.6808 -0.3089  0.7165
  286MOL0     C39351  12.141   6.250   2.455 -0.4417  0.2731  0.1720
  286MOL0     C39352  12.220   6.385   2.459 -0.2490  0.1280 -0.3047
  286MOL0     C39353  12.357   6.374   2.530 -0.6659  0.5768  0.5313
  286MOL0     O39354  12.442   6.292   2.446  0.4745  0.2264 -0.5484
  286MOL0     C39355  12.579   6.325   2.434  0.1394  0.4207 -0.7653
  286MOL0     C39356  12.665   6.287   2.328  0.5548 -0.9523 -0.2417
  286MOL0     C39357  12.804   6.298   2.331 -0.1063  0.2285 -1.1242
  286MOL0     C39358  12.887   6.233   2.217 -0.5476 -0.4018  0.1268
  286MOL0     C39359  12.867   6.355   2.441 -0.7320 -0.1026 -0.4390
  286MOL0     C39360  13.017   6.372   2.455 -0.0914 -0.2025  0.6043
  286MOL0     O39361  13.058   6.447   2.559  0.2359  0.1399  0.4908
  286MOL0     C39362  13.195   6.480   2.579  0.3415  0.4189  0.3933
  286MOL0     C39363  13.264   6.436   2.694 -0.2522  1.1554 -0.2976
  286MOL0     C39364  13.398   6.473   2.716  0.7850  0.0788  0.1631
  286MOL0     C39365  13.468   6.546   2.616  0.7975  0.1023 -0.2115
  286MOL0     O39366  13.601   6.573   2.625 -0.6023 -0.4316 -0.1905
  286MOL0     C39367  13.667   6.612   2.753  0.6757 -0.2920 -0.1993
  286MOL0     C39368  13.727   6.751   2.736 -0.8455  0.8979 -0.9423
  286MOL0     C39369  13.828   6.784   2.836  0.6059 -0.0098  0.8042
  286MOL0     C39370  13.951   6.696   2.826 -0.2797 -0.2470  0.1973
  286MOL0     C39371  14.071   6.782   2.759  0.5165  1.2761 -0.0207
  286MOL0     C39372  14.192   6.687   2.755  0.1357 -0.5054  0.1173
  286MOL0     C39373  14.309   6.745   2.666  0.4206  0.2649 -0.7200
  286MOL0     C39374  14.385   6.639   2.602  0.1929 -0.0267 -0.0894
  286MOL0    Cl39375  14.475   6.726   2.473 -0.4081 -0.2187  0.4443
  286MOL0     C39376  13.402   6.573   2.501 -0.1665  0.0898  0.4479
  286MOL0     C39377  13.265   6.548   2.478 -0.0599 -0.2789 -0.2120
  286MOL0     O39378  13.090   6.333   2.373 -0.6114  0.3540 -0.4417
  286MOL0     C39379  12.788   6.398   2.546  0.3300 -0.6797 -0.5518
  286MOL0     C39380  12.645   6.386   2.541  1.0432 -0.6360 -0.6825
  286MOL0     N39381  12.009   6.365   2.750  0.4992  0.2562  0.0346
  286MOL0     N39382  11.895   6.379   2.814 -0.2464  0.2652  1.0042
  286MOL0     C39383  10.891   6.131   3.489  0.3607 -0.5883 -0.5003
  286MOL0     C39384  10.754   6.115   3.496 -0.1326 -0.0549 -0.9980
  286MOL0     C39385  10.336   5.987   3.666  0.0024 -0.8013 -0.0498
  286MOL0     C39386  10.333   5.855   3.617  0.6286 -0.3610 -0.0834
  286MOL0     C39387  10.213   5.797   3.592 -0.2879 -0.1058  0.6639
  286MOL0     C39388  10.094   5.859   3.614  0.8322  0.2706 -0.1984
  286MOL0     O39389   9.963   5.804   3.595 -0.1531  0.3095 -0.3285
  286MOL0     C39390   9.961   5.679   3.527 -0.1852  0.3177 -0.7413
  286MOL0     C39391   9.816   5.630   3.521  0.6410 -0.5093  0.2461
  286MOL0     C39392   9.802   5.509   3.440  0.6954  0.3924  0.6741
  286MOL0     C39393   9.651   5.463   3.418 -0.4354 -0.2983  0.0079
  286MOL0     C39394   9.588   5.412   3.539 -0.1597  0.3584  0.5216
  286MOL0     C39395   9.534   5.381   3.642 -0.2381 -0.0256 -0.0134
  286MOL0     C39396  10.097   5.986   3.660 -0.4020 -0.4163 -0.1620
  286MOL0     C39397  10.212   6.051   3.694 -0.1217 -0.4354  0.6112
  286MOL0     C39398  10.217   6.191   3.723  0.8463 -0.0823 -0.0044
  286MOL0     H39399  10.720   5.957   3.786  0.6122  0.1758 -0.5574
  286MOL0     H39400  10.976   6.013   3.794 -1.5271  1.5901  1.2949
  286MOL0     H39401  11.161   6.255   3.506 -0.0556 -1.7105  0.7764
  286MOL0     H39402  11.161   6.108   3.397 -0.5616 -0.0031  0.7481
  286MOL0     H39403  11.347   6.182   3.612 -4.3571  0.6647  1.1625
  286MOL0     H39404  11.351   6.034   3.507 -0.5931 -0.7445  1.4442
  286MOL0     H39405  11.379   6.322   3.391 -1.2721 -1.3875  1.2165
  286MOL0     H39406  11.518   6.250   3.456  0.1019 -0.1733  2.1511
  286MOL0     H39407  11.512   6.055   3.282 -1.5412 -0.4380  0.9417
  286MOL0     H39408  11.371   6.121   3.215  1.1483 -2.3321 -1.3621
  286MOL0     H39409  11.629   6.285   3.243 -2.0975  3.4087  1.1531
  286MOL0     H39410  11.486   6.340   3.164  0.8792  1.0511  3.3030
  286MOL0     H39411  11.638   6.084   3.087 -1.0928 -0.2869 -0.4910
  286MOL0     H39412  11.496   6.158   3.007 -1.7928 -0.0366  2.8447
  286MOL0     H39413  11.764   6.298   3.033  0.7138 -1.4976 -1.1022
  286MOL0     H39414  11.617   6.369   2.964 -1.7820 -0.6616  0.7909
  286MOL0     H39415  11.696   6.110   2.836  1.2823 -0.3147 -3.5971
  286MOL0     H39416  11.624   6.256   2.772 -0.1154 -2.8271 -0.9404
  286MOL0     H39417  11.860   6.085   2.672 -1.0038 -0.3899  0.8981
  286MOL0     H39418  12.080   6.085   2.556  2.0946 -0.4608 -0.5905
  286MOL0     H39419  12.211   6.174   2.639  0.2156 -0.1786  1.5947
  286MOL0     H39420  12.192   6.174   2.396 -1.4510  0.5333 -1.0839
  286MOL0     H39421  12.051   6.261   2.394 -0.2730 -2.5030 -0.6863
  286MOL0     H39422  12.235   6.413   2.355 -1.8595  2.1254 -0.0621
  286MOL0     H39423  12.167   6.466   2.510  1.3645  1.6777 -0.9624
  286MOL0     H39424  12.407   6.471   2.541  2.5176 -0.7856 -0.7782
  286MOL0     H39425  12.350   6.325   2.627 -2.7352 -0.0518  0.1124
  286MOL0     H39426  12.613   6.231   2.251 -1.5644 -2.1079  1.8994
  286MOL0     H39427  12.950   6.156   2.262  2.2339  0.8640 -1.3786
  286MOL0     H39428  12.947   6.305   2.161  0.4388 -3.0637 -2.5338
  286MOL0     H39429  12.830   6.182   2.138  0.8456  0.8456 -1.7538
  286MOL0     H39430  13.214   6.387   2.778 -0.5352 -0.0342 -1.1293
  286MOL0     H39431  13.454   6.447   2.806  1.4716  0.0206 -0.2681
  286MOL0     H39432  13.589   6.626   2.828  0.4762  1.1841 -0.6518
  286MOL0     H39433  13.738   6.534   2.782 -2.1966 -3.5263 -1.0845
  286MOL0     H39434  13.788   6.737   2.646  1.8907 -1.0120  1.0358
  286MOL0     H39435  13.656   6.834   2.725  1.4864  2.7739 -3.2527
  286MOL0     H39436  13.778   6.762   2.930 -0.2856 -1.3781  0.0494
  286MOL0     H39437  13.850   6.891   2.838 -0.5177  0.2343  0.7772
  286MOL0     H39438  13.931   6.614   2.757 -0.1768 -0.4993  0.4675
  286MOL0     H39439  13.988   6.657   2.921  4.2941  0.1377 -1.1800
  286MOL0     H39440  14.041   6.811   2.658 -0.2935 -2.6478 -1.1035
  286MOL0     H39441  14.102   6.868   2.819  0.7448  2.7899 -2.1829
  286MOL0     H39442  14.162   6.589   2.717  2.5110 -1.0292 -0.5829
  286MOL0     H39443  14.234   6.678   2.856 -0.9791 -0.8725  0.5578
  286MOL0     H39444  14.381   6.811   2.717  1.6814  0.0923 -2.2146
  286MOL0     H39445  14.255   6.809   2.596 -1.2761 -1.5093 -1.0808
  286MOL0     H39446  14.321   6.568   2.548  1.0740 -0.0062 -1.1984
  286MOL0     H39447  14.453   6.581   2.664 -1.6864 -1.2499  0.9261
  286MOL0     H39448  13.468   6.606   2.421  2.8517  0.1642  2.7948
  286MOL0     H39449  13.219   6.594   2.391  1.5970  2.7826  0.4067
  286MOL0     H39450  12.820   6.457   2.632 -2.3730  1.0153 -0.5703
  286MOL0     H39451  12.591   6.431   2.623 -0.1696  2.3213 -2.8917
  286MOL0     H39452  10.936   6.182   3.405  0.3310  2.6197  1.2479
  286MOL0     H39453  10.679   6.149   3.425  1.5377 -0.7320 -3.1771
  286MOL0     H39454  10.423   5.797   3.602  0.4196 -0.4476 -1.1135
  286MOL0     H39455  10.214   5.692   3.564 -0.9528  0.1600 -0.4486
  286MOL0     H39456  10.005   5.677   3.427  1.0354  0.9866 -0.2500
  286MOL0     H39457  10.024   5.605   3.578 -2.0872 -0.7342  0.1851
  286MOL0     H39458   9.748   5.708   3.485  2.8536  0.7311 -1.5685
  286MOL0     H39459   9.799   5.615   3.628  2.1492 -0.6586  0.4982
  286MOL0     H39460   9.841   5.535   3.342 -5.5778 -0.1971 -2.4444
  286MOL0     H39461   9.873   5.440   3.488  0.3677  0.3135  1.0521
  286MOL0     H39462   9.659   5.385   3.343 -0.0879 -0.2718  0.0155
  286MOL0     H39463   9.594   5.541   3.366  0.3717 -0.5417 -1.2991
  286MOL0     H39464   9.478   5.345   3.726 -2.4144 -0.1467 -1.4430
  286MOL0     H39465  10.003   6.038   3.676 -0.3053 -0.8911  2.3457
  286MOL0     H39466  10.122   6.246   3.718  0.2551 -1.1507 -0.9816
  286MOL0     H39467  10.245   6.195   3.829 -1.8368 -0.3460  0.7918
  286MOL0     H39468  10.292   6.241   3.660  2.5312  0.4736  2.3064
  287MOL0     O39469   6.953   9.685   5.527  0.0813 -0.2859 -1.2327
  287MOL0     C39470   6.945   9.621   5.423 -0.0318 -0.2592  0.6249
  287MOL0     O39471   7.020   9.631   5.304 -0.9255  0.5866  0.1281
  287MOL0     C39472   7.134   9.716   5.285 -0.1327 -0.9022  0.7980
  287MOL0     C39473   7.177   9.725   5.152 -0.0875 -0.7150  0.6791
  287MOL0     C39474   7.292   9.795   5.124 -0.0417 -0.5114  1.1467
  287MOL0     C39475   7.356   9.874   5.219  0.0608 -1.3142  0.9029
  287MOL0     O39476   7.452   9.958   5.171  0.2322 -0.0314 -0.4413
  287MOL0     C39477   7.548  10.022   5.253 -0.2649  0.1683  0.1025
  287MOL0     C39478   7.666  10.088   5.183  0.2931  0.8223  0.2909
  287MOL0     C39479   7.652  10.162   5.046  0.1702 -0.2693  0.1312
  287MOL0     C39480   7.799  10.204   5.013  0.0195 -0.4890 -0.7108
  287MOL0     C39481   7.773  10.313   4.911 -0.1210 -0.5187 -0.3159
  287MOL0     C39482   7.914  10.365   4.884  0.9381  0.1948  0.7299
  287MOL0     C39483   7.916  10.456   4.758  0.0961  0.2090 -0.9833
  287MOL0     C39484   7.843  10.584   4.758 -0.2040  0.2455 -0.2482
  287MOL0     N39485   7.846  10.647   4.624 -0.1220  0.5770  0.4128
  287MOL0     C39486   7.731  10.675   4.545 -0.3827 -0.0331 -0.0853
  287MOL0     C39487   7.787  10.734   4.443  0.5057 -0.7145  0.2102
  287MOL0     C39488   7.699  10.780   4.327 -0.2444  0.2723 -0.6699
  287MOL0     C39489   7.641  10.669   4.240  0.3113 -0.1737 -0.4416
  287MOL0     C39490   7.571  10.739   4.118  0.3869  0.5589  0.2010
  287MOL0     C39491   7.510  10.638   4.015  0.4962  0.4756 -0.1567
  287MOL0     O39492   7.430  10.554   4.103  0.2862 -0.3256  0.3012
  287MOL0     C39493   7.301  10.588   4.133 -0.2013 -0.3032  0.2272
  287MOL0     C39494   7.233  10.702   4.092 -0.1443 -0.3756 -0.3620
  287MOL0     C39495   7.090  10.717   4.110 -1.2459  0.1410  0.4364
  287MOL0     C39496   7.008  10.840   4.077 -0.8417  0.3829  0.1129
  287MOL0     C39497   7.027  10.622   4.189  0.2674  0.7976  0.0795
  287MOL0     C39498   6.871  10.618   4.220 -0.1005  0.4650 -0.0229
  287MOL0     O39499   6.823  10.548   4.330 -0.6642 -0.9863  0.8940
  287MOL0     C39500   6.692  10.506   4.329 -0.7243  0.0008  1.0413
  287MOL0     C39501   6.651  10.416   4.225  0.0561 -0.4060 -0.2654
  287MOL0     C39502   6.522  10.368   4.242  0.4016 -0.3497  0.2436
  287MOL0     C39503   6.429  10.416   4.343  0.7713 -0.4465  0.1919
  287MOL0     O39504   6.303  10.373   4.368 -0.0820 -0.2862 -0.3612
  287MOL0     C39505   6.255  10.257   4.305 -0.5945  0.7649  0.6055
  287MOL0     C39506   6.112  10.231   4.349 -0.1042 -0.6781  1.1693
  287MOL0     C39507   6.099  10.185   4.494 -0.0156 -0.7148 -0.1472
  287MOL0     C39508   5.978  10.098   4.511  0.2078  0.3160  0.2112
  287MOL0     C39509   5.897  10.113   4.633 -0.0945 -0.3996 -0.0178
  287MOL0     C39510   5.822  10.243   4.640 -0.2958 -0.0307 -0.5274
  287MOL0     C39511   5.696  10.259   4.545  0.1196 -1.2122 -0.7645
  287MOL0     C39512   5.572  10.328   4.614  0.1059 -0.1590  0.5587
  287MOL0    Cl39513   5.560  10.488   4.531 -0.2340 -0.0636 -0.3292
  287MOL0     C39514   6.482  10.505   4.444  0.0251 -0.3101 -0.5357
  287MOL0     C39515   6.615  10.550   4.428 -0.2445 -0.0449 -0.4131
  287MOL0     O39516   6.793  10.662   4.131 -0.2909  0.2495 -0.1298
  287MOL0     C39517   7.102  10.512   4.247  0.3991  0.0850  0.2861
  287MOL0     C39518   7.237  10.493   4.214 -0.6772  0.4829  0.7396
  287MOL0     N39519   7.923  10.742   4.462  0.3763  0.1871  0.0997
  287MOL0     N39520   7.953  10.690   4.569 -0.1884 -0.1304  0.5106
  287MOL0     C39521   7.304   9.881   5.347  0.6545 -0.6522 -0.2529
  287MOL0     C39522   7.189   9.803   5.381  0.2468 -0.1596 -0.1843
  287MOL0     C39523   6.826   9.534   5.420  0.9901 -1.0921 -0.1443
  287MOL0     C39524   6.771   9.510   5.290 -0.3954 -0.2907  0.3007
  287MOL0     C39525   6.660   9.431   5.272 -0.8232  0.2760  0.8046
  287MOL0     C39526   6.605   9.362   5.373 -0.6230 -0.0868  0.4734
  287MOL0     O39527   6.512   9.272   5.356 -0.1444 -0.3944  0.1720
  287MOL0     C39528   6.383   9.336   5.357  0.0180  0.6795 -0.1765
  287MOL0     C39529   6.287   9.224   5.314  0.8533  0.0632 -0.0190
  287MOL0     C39530   6.156   9.275   5.256  0.2008  0.0964  0.3754
  287MOL0     C39531   6.044   9.170   5.249 -0.1491 -0.3311 -0.4485
  287MOL0     C39532   5.985   9.146   5.376 -0.5937  0.0062 -0.5870
  287MOL0     C39533   5.930   9.113   5.477  0.1742  0.2878 -0.6031
  287MOL0     C39534   6.651   9.386   5.502 -0.4180 -0.0900  0.0684
  287MOL0     C39535   6.757   9.477   5.528 -0.8317  0.5374  0.2641
  287MOL0     C39536   6.801   9.484   5.671 -0.3450  0.3126 -0.5389
  287MOL0     H39537   7.126   9.673   5.071  2.9440 -2.5574 -0.2251
  287MOL0     H39538   7.325   9.809   5.022 -1.1586 -1.1391  0.6731
  287MOL0     H39539   7.569   9.958   5.339  1.4550  2.6576  1.6721
  287MOL0     H39540   7.518  10.114   5.305  1.3056 -0.4406  2.2422
  287MOL0     H39541   7.720  10.154   5.252  2.3208  2.3161 -2.5026
  287MOL0     H39542   7.731  10.001   5.167  0.8530  0.4732  3.7031
  287MOL0     H39543   7.593  10.110   4.970 -1.6556 -2.1693  2.6813
  287MOL0     H39544   7.587  10.248   5.068 -1.0374 -1.0215 -0.4156
  287MOL0     H39545   7.862  10.248   5.091  0.1014  0.1557 -1.1358
  287MOL0     H39546   7.848  10.118   4.965  2.1480 -0.7415  1.7347
  287MOL0     H39547   7.726  10.406   4.943 -1.3447 -1.2866  0.2141
  287MOL0     H39548   7.721  10.269   4.825 -1.0482 -1.4585  0.6956
  287MOL0     H39549   7.951  10.416   4.974  1.9641  0.8999 -0.0658
  287MOL0     H39550   7.967  10.277   4.848  0.0995  1.0374 -3.0574
  287MOL0     H39551   7.881  10.399   4.672  1.8421 -0.3687 -1.3704
  287MOL0     H39552   8.020  10.484   4.737  0.5621  1.4297  2.2829
  287MOL0     H39553   7.737  10.580   4.783 -0.5105  0.7535 -1.4331
  287MOL0     H39554   7.899  10.644   4.832  2.5604 -2.0090 -0.3263
  287MOL0     H39555   7.626  10.656   4.565 -0.3627  1.1732  1.2790
  287MOL0     H39556   7.770  10.848   4.278  1.1183  1.2099  2.3687
  287MOL0     H39557   7.617  10.826   4.383  0.0975 -1.6981  1.5934
  287MOL0     H39558   7.713  10.594   4.205 -0.4648  0.3110 -3.3382
  287MOL0     H39559   7.560  10.624   4.298 -1.2640  1.4806 -1.2403
  287MOL0     H39560   7.501  10.806   4.168  1.1731  0.2388  1.7934
  287MOL0     H39561   7.650  10.790   4.061 -0.0326  0.9951  0.0022
  287MOL0     H39562   7.457  10.690   3.935  0.9924  1.4239  0.1133
  287MOL0     H39563   7.599  10.586   3.979  1.2152  2.2337 -1.0579
  287MOL0     H39564   7.278  10.775   4.025 -1.4132  0.0574 -0.7787
  287MOL0     H39565   6.933  10.818   4.002  0.5300 -0.2513 -1.1204
  287MOL0     H39566   7.073  10.913   4.028 -0.1795 -0.3213 -0.0828
  287MOL0     H39567   6.975  10.896   4.166 -3.8243  1.3784 -1.4906
  287MOL0     H39568   6.693  10.375   4.134 -0.8481 -0.8268 -0.5044
  287MOL0     H39569   6.484  10.297   4.169  1.0384 -2.1899  1.6249
  287MOL0     H39570   6.258  10.275   4.197 -2.0564 -0.3546  0.3396
  287MOL0     H39571   6.314  10.167   4.324  0.1179  1.2479  0.6943
  287MOL0     H39572   6.065  10.328   4.330  2.1662  0.5089  1.2017
  287MOL0     H39573   6.074  10.151   4.285 -3.0607  0.7026  1.0638
  287MOL0     H39574   6.103  10.275   4.556  0.9741 -1.4117  0.8508
  287MOL0     H39575   6.187  10.126   4.522 -0.7521 -2.5074 -1.4034
  287MOL0     H39576   6.001   9.991   4.508 -0.6075  0.1546 -1.1800
  287MOL0     H39577   5.906  10.111   4.430 -0.0189 -0.6512  0.2371
  287MOL0     H39578   5.823  10.033   4.636 -1.5110  0.7371 -2.1137
  287MOL0     H39579   5.968  10.106   4.716 -1.7818 -0.2832  1.4925
  287MOL0     H39580   5.882  10.331   4.614 -1.9893  0.1338 -4.5602
  287MOL0     H39581   5.789  10.257   4.743 -2.2088  0.3474 -1.1517
  287MOL0     H39582   5.671  10.156   4.518 -0.1437 -1.4556  0.3946
  287MOL0     H39583   5.715  10.315   4.452 -2.6649  0.7698 -0.2725
  287MOL0     H39584   5.580  10.337   4.723  1.2287 -1.7526  0.6363
  287MOL0     H39585   5.493  10.259   4.583 -0.7979 -0.0420  2.4974
  287MOL0     H39586   6.417  10.533   4.526 -0.4571  0.0826 -1.0461
  287MOL0     H39587   6.658  10.622   4.497  2.7618 -0.8593 -1.2672
  287MOL0     H39588   7.051  10.440   4.310 -0.8538  0.0253 -0.7533
  287MOL0     H39589   7.285  10.399   4.239 -0.1231  0.1635 -1.3622
  287MOL0     H39590   7.342   9.944   5.427 -0.2633  2.9008 -2.4079
  287MOL0     H39591   7.147   9.804   5.481 -1.8197  1.6602 -0.9987
  287MOL0     H39592   6.813   9.557   5.201  0.8040 -2.3891 -0.3190
  287MOL0     H39593   6.614   9.398   5.180 -1.5234 -1.1591  1.6421
  287MOL0     H39594   6.368   9.370   5.460 -0.0235  0.5186 -0.1294
  287MOL0     H39595   6.380   9.428   5.298 -2.3293  0.2680 -0.8063
  287MOL0     H39596   6.259   9.157   5.397  0.9924  1.5070  1.2355
  287MOL0     H39597   6.345   9.160   5.247 -0.6565 -0.6463 -0.7038
  287MOL0     H39598   6.130   9.358   5.322  1.1260 -0.7266  1.8154
  287MOL0     H39599   6.182   9.318   5.158 -0.9808 -1.5006 -0.6888
  287MOL0     H39600   6.094   9.074   5.235 -1.0634 -0.8805 -0.0898
  287MOL0     H39601   5.963   9.193   5.178 -1.9696  2.5967  2.3170
  287MOL0     H39602   5.876   9.088   5.566 -2.1549  1.6251 -1.5325
  287MOL0     H39603   6.589   9.342   5.580  0.6851  1.5140  1.9277
  287MOL0     H39604   6.909   9.500   5.677 -0.2542 -0.4934  0.0864
  287MOL0     H39605   6.750   9.566   5.724 -2.4781 -2.2409  1.6669
  287MOL0     H39606   6.767   9.395   5.726 -0.9324  0.7894 -0.1120
  288MOL0     O39607  10.933   1.549   0.450 -0.6971  0.3485 -0.3212
  288MOL0     C39608  10.864   1.471   0.508  0.1454  0.2852  0.3487
  288MOL0     O39609  10.901   1.355   0.569  0.2044 -0.1965  0.8641
  288MOL0     C39610  11.031   1.322   0.593 -0.6639  0.7076  0.4565
  288MOL0     C39611  11.069   1.191   0.565  0.4040 -0.1820  0.1091
  288MOL0     C39612  11.194   1.136   0.601  1.1957  0.1573 -0.1503
  288MOL0     C39613  11.294   1.212   0.663 -0.1273  0.0605 -0.2921
  288MOL0     O39614  11.421   1.169   0.705  0.7281  0.2115 -0.0553
  288MOL0     C39615  11.501   1.103   0.607 -0.0017  0.7880 -0.1005
  288MOL0     C39616  11.634   1.069   0.654 -0.2112 -0.3944 -0.0736
  288MOL0     C39617  11.710   0.979   0.551  0.2058 -0.5813  0.1212
  288MOL0     C39618  11.849   0.934   0.614 -0.0085 -0.5577 -0.8678
  288MOL0     C39619  11.952   0.886   0.510  0.3566 -0.4251  0.0899
  288MOL0     C39620  12.068   0.802   0.571  0.1080 -0.0044 -0.2073
  288MOL0     C39621  12.165   0.736   0.468  0.2981 -0.5580 -0.3270
  288MOL0     C39622  12.296   0.714   0.540 -0.4558  0.6601 -0.3060
  288MOL0     N39623  12.391   0.613   0.475 -0.4843 -0.2304 -0.0974
  288MOL0     C39624  12.487   0.638   0.368  0.0463 -0.8987 -0.5008
  288MOL0     C39625  12.576   0.536   0.370 -0.0051  0.1947 -0.4838
  288MOL0     C39626  12.701   0.524   0.293 -0.0522 -0.1612 -0.1972
  288MOL0     C39627  12.810   0.449   0.372  0.5423 -0.1046  0.8166
  288MOL0     C39628  12.870   0.541   0.475 -0.0006  0.4148 -0.5319
  288MOL0     C39629  12.951   0.474   0.584  0.1654 -0.8224  0.2493
  288MOL0     O39630  13.030   0.567   0.655  0.2209 -0.1243 -0.3249
  288MOL0     C39631  13.159   0.587   0.626 -0.9479 -0.1853 -0.0396
  288MOL0     C39632  13.241   0.627   0.735  0.3308 -0.1524  0.5977
  288MOL0     C39633  13.382   0.646   0.727 -0.3560  0.3346  0.7678
  288MOL0     C39634  13.464   0.696   0.845  1.0096  0.5474 -0.0481
  288MOL0     C39635  13.444   0.636   0.596  0.4925  0.8571 -0.2052
  288MOL0     C39636  13.583   0.678   0.560  0.5932 -0.9039 -0.0075
  288MOL0     O39637  13.660   0.736   0.652 -0.0051  0.2928 -0.7961
  288MOL0     C39638  13.785   0.779   0.615 -0.4247  1.0228  0.8800
  288MOL0     C39639  13.890   0.699   0.553  0.1620  0.7014  0.1519
  288MOL0     C39640  14.019   0.758   0.559 -0.2528  0.5097  0.5348
  288MOL0     C39641  14.057   0.894   0.589  0.2864 -0.1450 -0.7300
  288MOL0     O39642  14.175   0.959   0.571  0.4526  0.5341 -0.3889
  288MOL0     C39643  14.285   0.870   0.560  0.4125  1.0862 -0.0150
  288MOL0     C39644  14.398   0.958   0.533 -0.8759  0.1223  0.3905
  288MOL0     C39645  14.524   0.883   0.488  0.2179 -0.3166  0.1942
  288MOL0     C39646  14.654   0.962   0.459  0.5067 -0.3458  0.6640
  288MOL0     C39647  14.776   0.888   0.400 -0.6096 -0.5632  0.5821
  288MOL0     C39648  14.759   0.862   0.243 -0.3072 -0.5979 -0.1736
  288MOL0     C39649  14.889   0.792   0.191 -0.8454 -0.6860 -0.8259
  288MOL0     C39650  15.011   0.895   0.167 -0.5713 -0.2813 -0.2024
  288MOL0    Cl39651  15.146   0.810   0.088 -0.3136 -0.0217  0.0437
  288MOL0     C39652  13.945   0.964   0.635 -0.6098 -0.7484 -0.7171
  288MOL0     C39653  13.818   0.910   0.652 -0.4669 -0.1038  0.0446
  288MOL0     O39654  13.624   0.647   0.447  0.4292 -0.4943  0.0033
  288MOL0     C39655  13.360   0.593   0.488  0.4167 -0.1866  0.2138
  288MOL0     C39656  13.218   0.566   0.500  0.4083 -0.4491 -0.1872
  288MOL0     N39657  12.537   0.457   0.479  0.2784 -0.3590  0.2591
  288MOL0     N39658  12.426   0.497   0.528  0.4439 -0.3810 -0.1132
  288MOL0     C39659  11.262   1.354   0.679  0.4860 -0.2268 -0.1001
  288MOL0     C39660  11.129   1.399   0.647  0.3035 -0.4522 -0.4324
  288MOL0     C39661  10.725   1.514   0.504  0.8538  0.2234  0.1672
  288MOL0     C39662  10.678   1.602   0.399 -0.9572  0.0534  0.4103
  288MOL0     C39663  10.549   1.631   0.372  0.1216  0.0607  0.3114
  288MOL0     C39664  10.447   1.579   0.456 -0.0783 -0.7505 -0.0790
  288MOL0     O39665  10.317   1.614   0.415  0.2509 -0.3868 -0.1501
  288MOL0     C39666  10.201   1.582   0.491 -0.9020 -0.4083 -0.7103
  288MOL0     C39667  10.069   1.658   0.456  0.3482 -0.1540 -0.5335
  288MOL0     C39668   9.952   1.573   0.480 -1.0116 -0.2400  0.0609
  288MOL0     C39669   9.817   1.648   0.430 -0.9706  0.7688 -0.1045
  288MOL0     C39670   9.766   1.740   0.526  0.7140 -0.3376  0.3008
  288MOL0     C39671   9.723   1.797   0.625  0.7371  0.1583  0.4474
  288MOL0     C39672  10.484   1.507   0.576 -0.9148 -0.0426 -0.2840
  288MOL0     C39673  10.621   1.476   0.598 -0.3762 -0.0378  0.0790
  288MOL0     C39674  10.647   1.391   0.724 -0.6278 -0.3855 -0.0377
  288MOL0     H39675  10.985   1.139   0.522 -0.3457  1.4266 -0.4535
  288MOL0     H39676  11.207   1.028   0.596  1.8696  0.2682 -1.0533
  288MOL0     H39677  11.506   1.167   0.518 -1.0402 -0.8733 -1.4308
  288MOL0     H39678  11.451   1.008   0.586  0.8435  0.1174  0.8389
  288MOL0     H39679  11.688   1.165   0.654 -0.4708 -0.2245 -1.8055
  288MOL0     H39680  11.632   1.025   0.754  0.0412  3.1785  1.6666
  288MOL0     H39681  11.648   0.891   0.534  1.0699 -1.4631  1.3890
  288MOL0     H39682  11.712   1.044   0.463  0.2860  1.3755  1.4762
  288MOL0     H39683  11.901   1.017   0.662 -0.5699 -1.0826  0.7293
  288MOL0     H39684  11.830   0.862   0.695  5.0584  0.0389  1.1801
  288MOL0     H39685  11.987   0.976   0.458 -0.5614  1.3584  2.3916
  288MOL0     H39686  11.891   0.828   0.440  0.0335  0.6222 -0.5222
  288MOL0     H39687  12.120   0.863   0.645  0.5277  0.8008 -1.1618
  288MOL0     H39688  12.015   0.725   0.629  1.1873 -0.0924  0.7033
  288MOL0     H39689  12.198   0.805   0.391  1.7432 -0.2296  0.5517
  288MOL0     H39690  12.118   0.646   0.426 -4.0386  2.1174 -1.8985
  288MOL0     H39691  12.356   0.802   0.564  1.2686  0.1507 -2.3999
  288MOL0     H39692  12.267   0.682   0.640 -1.0440  2.6977  0.2344
  288MOL0     H39693  12.493   0.725   0.304  0.7495  2.2903  3.4552
  288MOL0     H39694  12.729   0.618   0.243  0.1749 -0.7571 -1.2267
  288MOL0     H39695  12.682   0.454   0.211  1.1434  0.4490 -1.0264
  288MOL0     H39696  12.767   0.361   0.420 -1.1557 -0.2360 -0.8426
  288MOL0     H39697  12.882   0.416   0.297 -1.9377 -0.0739 -1.7628
  288MOL0     H39698  12.934   0.606   0.415  0.3434 -0.4843 -1.1509
  288MOL0     H39699  12.794   0.597   0.530  0.6489  2.0240 -1.2078
  288MOL0     H39700  12.879   0.436   0.656 -1.2733  1.9222  0.3809
  288MOL0     H39701  13.003   0.384   0.551 -3.5322 -3.1067  0.1012
  288MOL0     H39702  13.196   0.656   0.830  0.9422 -1.1125  1.1940
  288MOL0     H39703  13.543   0.623   0.861 -0.7403 -1.6533 -0.9211
  288MOL0     H39704  13.394   0.721   0.926 -0.1150 -0.4260 -0.6907
  288MOL0     H39705  13.513   0.792   0.829  1.1189  0.4608 -0.2338
  288MOL0     H39706  13.867   0.598   0.522 -1.0073 -0.0724  3.1901
  288MOL0     H39707  14.092   0.687   0.520 -0.4074  0.8166 -0.3276
  288MOL0     H39708  14.291   0.816   0.655 -1.7134  0.5380 -0.1277
  288MOL0     H39709  14.274   0.799   0.478 -0.8058  1.0374  0.1674
  288MOL0     H39710  14.361   1.028   0.458  0.0863 -0.4262 -0.6280
  288MOL0     H39711  14.424   1.014   0.622 -0.7398 -2.6773  2.2521
  288MOL0     H39712  14.503   0.823   0.399  0.5170 -0.7762  0.4264
  288MOL0     H39713  14.559   0.815   0.566  2.3531 -0.9192 -1.1945
  288MOL0     H39714  14.679   1.011   0.554  1.4546  1.2310 -0.3493
  288MOL0     H39715  14.625   1.042   0.390 -1.7772 -1.3122  0.4203
  288MOL0     H39716  14.867   0.950   0.400  0.0599 -1.5271 -0.0204
  288MOL0     H39717  14.797   0.796   0.455  1.3486  0.3346  1.4434
  288MOL0     H39718  14.738   0.959   0.196 -1.1475 -0.4442  0.4839
  288MOL0     H39719  14.673   0.797   0.228 -1.5253  1.2391 -1.6158
  288MOL0     H39720  14.877   0.741   0.095 -1.1494  0.1895 -1.2654
  288MOL0     H39721  14.919   0.721   0.268  1.3449  0.0749 -0.8968
  288MOL0     H39722  15.052   0.941   0.257  1.2802  1.4159 -1.8371
  288MOL0     H39723  14.987   0.989   0.117  0.9418  2.0923  3.1794
  288MOL0     H39724  13.967   1.068   0.657  0.0067 -1.2052  1.0027
  288MOL0     H39725  13.740   0.969   0.700 -0.6963 -0.1462 -0.2733
  288MOL0     H39726  13.395   0.570   0.388 -0.2476  1.6920 -0.5004
  288MOL0     H39727  13.162   0.518   0.421  0.7131 -0.5149 -0.3658
  288MOL0     H39728  11.341   1.413   0.724  1.7328 -1.3697 -0.7003
  288MOL0     H39729  11.107   1.503   0.668 -2.1646 -0.2070 -3.3345
  288MOL0     H39730  10.749   1.639   0.326 -0.8369 -0.3300  0.3285
  288MOL0     H39731  10.532   1.692   0.284 -1.4436  1.3583  1.4546
  288MOL0     H39732  10.188   1.473   0.484  0.2947 -0.4610 -3.7090
  288MOL0     H39733  10.232   1.619   0.589  2.3809 -1.0037 -1.3933
  288MOL0     H39734  10.066   1.701   0.356  2.2953  0.2836 -0.4445
  288MOL0     H39735  10.056   1.737   0.531  0.9043 -0.2638 -0.3136
  288MOL0     H39736   9.970   1.481   0.424  0.1768 -1.1249  1.8182
  288MOL0     H39737   9.943   1.540   0.584 -1.1524  1.0338  0.4645
  288MOL0     H39738   9.744   1.567   0.422 -2.1170  1.6568  1.1010
  288MOL0     H39739   9.832   1.700   0.335 -0.7194  0.3328 -0.3049
  288MOL0     H39740   9.692   1.840   0.718  1.2431 -3.0562  2.2623
  288MOL0     H39741  10.407   1.456   0.634  1.0309  0.0128  2.5310
  288MOL0     H39742  10.612   1.288   0.712 -4.5050  0.6975  0.6973
  288MOL0     H39743  10.743   1.413   0.772 -0.8220  1.0742 -0.2889
  288MOL0     H39744  10.577   1.446   0.787 -1.1531  1.2151 -1.8978
  289MOL0     O39745  10.367   1.343   9.388 -0.3730 -0.5230 -0.6886
  289MOL0     C39746  10.315   1.437   9.333 -0.8580 -1.1867 -0.4824
  289MOL0     O39747  10.369   1.565   9.326  0.0504 -0.4143 -0.2441
  289MOL0     C39748  10.494   1.588   9.396 -0.7861 -0.3932  0.3837
  289MOL0     C39749  10.605   1.615   9.325 -0.4016  0.8687  0.6104
  289MOL0     C39750  10.730   1.629   9.386 -0.0072 -0.1224  0.0228
  289MOL0     C39751  10.748   1.622   9.523  1.1404 -0.6657  0.4077
  289MOL0     O39752  10.873   1.619   9.590 -0.4798 -0.0285 -0.7681
  289MOL0     C39753  10.989   1.660   9.513  0.0911  0.1177  0.2324
  289MOL0     C39754  11.123   1.634   9.595  0.1933  0.4980  0.6978
  289MOL0     C39755  11.251   1.693   9.523  0.1338  0.9043  0.2154
  289MOL0     C39756  11.366   1.691   9.616  0.0924  0.6796  0.0225
  289MOL0     C39757  11.492   1.750   9.563 -0.1342 -0.2564  0.4662
  289MOL0     C39758  11.581   1.789   9.678  0.0225 -1.0307 -0.3307
  289MOL0     C39759  11.709   1.848   9.630 -1.0531 -0.6247  0.3527
  289MOL0     C39760  11.807   1.854   9.740  0.7733 -0.8727 -0.1043
  289MOL0     N39761  11.927   1.928   9.705 -0.6109 -0.1047 -0.5077
  289MOL0     C39762  11.922   2.058   9.666 -0.0723 -0.1037  1.0804
  289MOL0     C39763  12.055   2.077   9.659 -0.0103 -0.4804  0.4712
  289MOL0     C39764  12.106   2.206   9.598 -0.2711  0.4874 -0.0383
  289MOL0     C39765  12.258   2.219   9.618  0.3217 -0.2600  0.3806
  289MOL0     C39766  12.345   2.191   9.495  0.1215  0.4362 -0.2716
  289MOL0     C39767  12.479   2.255   9.507  0.2339  0.4382  0.0562
  289MOL0     O39768  12.545   2.244   9.386  0.1231  0.4269  0.1736
  289MOL0     C39769  12.665   2.308   9.370  0.5888 -0.1984  0.0703
  289MOL0     C39770  12.718   2.308   9.240  0.1206 -1.0889  0.2123
  289MOL0     C39771  12.853   2.361   9.214  0.2282 -0.3218  0.1619
  289MOL0     C39772  12.897   2.366   9.071 -0.1560  0.4877 -0.2638
  289MOL0     C39773  12.930   2.410   9.327 -0.1670 -0.2196  0.8561
  289MOL0     C39774  13.060   2.479   9.315 -0.7316  0.5563  0.1419
  289MOL0     O39775  13.146   2.491   9.424  0.6872  0.1927 -0.1896
  289MOL0     C39776  13.259   2.567   9.412 -0.0865 -0.0876  0.0830
  289MOL0     C39777  13.261   2.694   9.470  0.1361 -0.5009 -0.6569
  289MOL0     C39778  13.378   2.774   9.467  0.5653 -1.1829  0.1066
  289MOL0     C39779  13.492   2.720   9.406  0.3705 -0.0562 -0.1951
  289MOL0     O39780  13.619   2.776   9.411 -0.2472 -0.1787  0.0064
  289MOL0     C39781  13.631   2.908   9.446  0.0580  0.3864 -0.4464
  289MOL0     C39782  13.574   2.999   9.333 -0.2009  0.0459 -0.8684
  289MOL0     C39783  13.625   3.149   9.353 -0.0000 -0.3615  0.5704
  289MOL0     C39784  13.591   3.247   9.236  0.2542  0.8101  0.1475
  289MOL0     C39785  13.649   3.384   9.275  1.0461 -0.2538 -0.2098
  289MOL0     C39786  13.669   3.461   9.141 -0.5612 -0.5056 -0.0349
  289MOL0     C39787  13.791   3.558   9.137  0.3792 -0.3829  0.1553
  289MOL0     C39788  13.753   3.677   9.237 -0.4832  0.9680 -0.7238
  289MOL0    Cl39789  13.870   3.812   9.225  0.1392 -0.1773 -0.0748
  289MOL0     C39790  13.481   2.603   9.342  0.0224  0.1041  0.1894
  289MOL0     C39791  13.369   2.516   9.338  0.1810  0.0494 -0.3585
  289MOL0     O39792  13.065   2.534   9.211 -0.2041 -0.7639  0.3230
  289MOL0     C39793  12.871   2.407   9.449 -0.0932  1.1383  0.6704
  289MOL0     C39794  12.740   2.366   9.471 -0.1613  0.3804 -0.8417
  289MOL0     N39795  12.134   1.967   9.683  0.3275  0.2825 -0.5631
  289MOL0     N39796  12.053   1.876   9.715 -0.6859 -0.6162 -0.0120
  289MOL0     C39797  10.632   1.594   9.596  0.8520 -0.3259  0.7039
  289MOL0     C39798  10.508   1.578   9.537  0.5232 -0.0992  0.3769
  289MOL0     C39799  10.188   1.412   9.270 -0.0343  0.3609 -0.1187
  289MOL0     C39800  10.108   1.310   9.325  0.4636 -0.5934 -0.1160
  289MOL0     C39801   9.973   1.287   9.273 -0.9825  0.0880 -0.5128
  289MOL0     C39802   9.920   1.374   9.183 -0.2155  0.2190 -0.1451
  289MOL0     O39803   9.782   1.353   9.150 -0.0434 -0.7291  0.4826
  289MOL0     C39804   9.743   1.387   9.017  0.7227  0.0905  0.0199
  289MOL0     C39805   9.596   1.345   9.011 -0.0706 -0.2514 -0.0807
  289MOL0     C39806   9.591   1.196   9.004  0.2300  0.0988 -0.9196
  289MOL0     C39807   9.456   1.137   9.025  1.2573 -0.1124 -0.0619
  289MOL0     C39808   9.471   0.991   9.045 -1.1789 -1.0578  0.1242
  289MOL0     C39809   9.491   0.874   9.071  0.1885 -0.3362  0.7017
  289MOL0     C39810  10.000   1.467   9.121 -0.2957 -0.0934  0.5775
  289MOL0     C39811  10.134   1.486   9.162 -0.5647  0.0343  0.4966
  289MOL0     C39812  10.203   1.609   9.096 -0.9612  0.2731 -0.3782
  289MOL0     H39813  10.588   1.615   9.217  1.9338  0.6571  0.1832
  289MOL0     H39814  10.821   1.627   9.328  0.3868 -0.2411  0.6391
  289MOL0     H39815  10.982   1.767   9.492  1.0772  0.0324 -0.5888
  289MOL0     H39816  10.991   1.611   9.416  1.0902  1.1096 -0.2752
  289MOL0     H39817  11.119   1.680   9.694 -1.4597  0.7226  0.5585
  289MOL0     H39818  11.134   1.526   9.604 -2.5122  0.2251  1.6490
  289MOL0     H39819  11.269   1.632   9.434 -1.4772  0.9569 -0.1841
  289MOL0     H39820  11.230   1.797   9.494 -0.5088  1.2297  1.7754
  289MOL0     H39821  11.342   1.744   9.709  0.3613  2.4024 -0.8344
  289MOL0     H39822  11.376   1.584   9.637  0.0433  0.8125  0.7698
  289MOL0     H39823  11.456   1.825   9.492  0.8984  0.5508  0.7612
  289MOL0     H39824  11.543   1.684   9.491 -1.0008  0.0916 -0.4886
  289MOL0     H39825  11.534   1.865   9.740  3.7544  1.1098  0.1658
  289MOL0     H39826  11.601   1.709   9.750 -2.1457  0.3107  1.8672
  289MOL0     H39827  11.693   1.949   9.594  1.1245  0.8555  3.1591
  289MOL0     H39828  11.747   1.781   9.552 -0.1370 -1.0639  1.1519
  289MOL0     H39829  11.757   1.916   9.815  0.9101  0.4939 -1.1118
  289MOL0     H39830  11.832   1.754   9.777  0.3686 -0.9181  0.0564
  289MOL0     H39831  11.837   2.125   9.658  0.5884  0.6223 -0.2445
  289MOL0     H39832  12.054   2.280   9.660 -0.1920  0.4265  0.1035
  289MOL0     H39833  12.083   2.228   9.494  2.0827  2.9040 -0.1658
  289MOL0     H39834  12.270   2.323   9.652 -1.4669  0.4742 -1.0459
  289MOL0     H39835  12.299   2.144   9.687 -0.0046 -3.2284 -2.4482
  289MOL0     H39836  12.349   2.083   9.479  0.4523  0.7605 -2.7424
  289MOL0     H39837  12.295   2.239   9.410  0.1544  1.1547  0.1085
  289MOL0     H39838  12.474   2.359   9.538 -0.2983  0.1780  0.8763
  289MOL0     H39839  12.513   2.194   9.591 -5.2715 -2.0427  0.9607
  289MOL0     H39840  12.669   2.260   9.156 -1.3878 -4.0850  2.5986
  289MOL0     H39841  12.994   2.316   9.072 -1.5229 -2.3453  0.1562
  289MOL0     H39842  12.909   2.470   9.039  3.3083  0.6381  1.0471
  289MOL0     H39843  12.829   2.304   9.012  0.9688 -1.5691  0.4868
  289MOL0     H39844  13.169   2.729   9.516  0.1510  0.8166 -1.5687
  289MOL0     H39845  13.375   2.867   9.523 -2.0986  0.5996 -2.6906
  289MOL0     H39846  13.582   2.920   9.543  1.2726 -2.1546  0.5721
  289MOL0     H39847  13.738   2.928   9.460 -0.3459  2.2837  0.3148
  289MOL0     H39848  13.617   2.958   9.241 -0.0033  1.3658 -1.3817
  289MOL0     H39849  13.466   3.013   9.320 -0.7089  2.3576  3.6805
  289MOL0     H39850  13.733   3.149   9.370  0.0083 -0.1682  0.5285
  289MOL0     H39851  13.586   3.197   9.443  3.5898  0.8106  1.6972
  289MOL0     H39852  13.483   3.254   9.218  0.3040  0.5340 -0.2728
  289MOL0     H39853  13.647   3.203   9.153  0.4779  0.9200  0.2407
  289MOL0     H39854  13.574   3.433   9.338  0.4609 -1.7712  0.3229
  289MOL0     H39855  13.736   3.369   9.340  0.5369 -3.8678 -0.1602
  289MOL0     H39856  13.580   3.524   9.132  0.1981  0.4902 -0.8269
  289MOL0     H39857  13.683   3.390   9.059  1.2068  0.5706 -0.7206
  289MOL0     H39858  13.798   3.605   9.039 -2.4080  1.6873  0.8558
  289MOL0     H39859  13.881   3.505   9.172  0.9649  0.2959 -0.2991
  289MOL0     H39860  13.746   3.635   9.338 -0.9539  1.8439 -0.3834
  289MOL0     H39861  13.653   3.715   9.215 -0.4654  0.7725 -1.1582
  289MOL0     H39862  13.572   2.589   9.284  0.8578  0.9231  1.2402
  289MOL0     H39863  13.361   2.414   9.300 -2.5880 -0.5005  1.3987
  289MOL0     H39864  12.921   2.453   9.534  1.8135  1.8915 -0.7830
  289MOL0     H39865  12.711   2.379   9.575 -1.0713  1.1234 -1.1806
  289MOL0     H39866  10.644   1.598   9.704  2.3237  4.2115  0.5831
  289MOL0     H39867  10.419   1.562   9.596  0.2405 -0.2222 -0.0791
  289MOL0     H39868  10.142   1.238   9.399 -1.2071  1.0376  2.3826
  289MOL0     H39869   9.925   1.204   9.324 -0.3868 -0.2754 -0.5298
  289MOL0     H39870   9.757   1.495   9.014  2.5900 -0.1048  0.3919
  289MOL0     H39871   9.807   1.323   8.955  2.3785 -0.9561  2.6357
  289MOL0     H39872   9.533   1.399   8.939  2.3910  0.0334 -2.1539
  289MOL0     H39873   9.551   1.366   9.109  0.8345 -1.5832  0.6462
  289MOL0     H39874   9.641   1.158   8.913  1.4522 -3.9687  1.1855
  289MOL0     H39875   9.653   1.158   9.085 -1.7228 -0.6539  0.3015
  289MOL0     H39876   9.389   1.149   8.940 -0.4072 -2.1897  0.8498
  289MOL0     H39877   9.392   1.175   9.105 -3.0341 -1.0202 -2.7217
  289MOL0     H39878   9.504   0.769   9.088 -0.0420 -0.2575  1.4039
  289MOL0     H39879   9.964   1.529   9.040  2.6267  1.1532  0.1259
  289MOL0     H39880  10.175   1.707   9.136  0.3356  1.2773 -1.8112
  289MOL0     H39881  10.309   1.583   9.093 -1.2136 -0.7036 -1.5500
  289MOL0     H39882  10.165   1.607   8.993  3.3916 -2.0630 -2.1845
  290MOL0     O39883   9.955   3.201  10.311  0.6200 -0.1362  0.3617
  290MOL0     C39884   9.855   3.211  10.389  0.3148 -0.3463  0.7424
  290MOL0     O39885   9.866   3.235  10.523 -0.5167  0.1951  0.8173
  290MOL0     C39886   9.966   3.160  10.576 -0.6797 -0.2088  0.4908
  290MOL0     C39887   9.948   3.020  10.584 -0.2946 -0.2403  0.6955
  290MOL0     C39888  10.050   2.942  10.638 -0.2513 -0.3497  0.0993
  290MOL0     C39889  10.172   2.997  10.681  0.1305 -0.3598 -1.1614
  290MOL0     O39890  10.281   2.938  10.736 -0.1781  0.3471  0.3562
  290MOL0     C39891  10.279   2.795  10.748 -0.3673  0.3415  0.3893
  290MOL0     C39892  10.392   2.747  10.834 -0.0287  0.0227  0.6426
  290MOL0     C39893  10.539   2.778  10.797  0.2513  0.7324  0.3333
  290MOL0     C39894  10.597   2.700  10.672 -0.1126 -0.1582  0.1030
  290MOL0     C39895  10.759   2.715  10.658  0.6027  0.6592 -0.0858
  290MOL0     C39896  10.809   2.861  10.663  0.1217 -0.3680  0.1409
  290MOL0     C39897  10.956   2.871  10.673 -0.4521 -0.3890  0.3798
  290MOL0     C39898  11.001   3.012  10.731 -0.3059 -0.0111 -0.0873
  290MOL0     N39899  11.148   3.011  10.768 -0.7023 -0.2045  0.5354
  290MOL0     C39900  11.254   2.951  10.701 -0.2056  0.0042 -0.7103
  290MOL0     C39901  11.360   2.952  10.785  0.2078 -0.2013  0.4510
  290MOL0     C39902  11.497   2.895  10.742  0.9230 -0.0144 -0.0962
  290MOL0     C39903  11.608   2.983  10.783 -0.5819 -0.3012  0.3357
  290MOL0     C39904  11.742   2.937  10.718 -0.1770 -0.9837  0.7953
  290MOL0     C39905  11.857   3.021  10.770  0.1192  0.9326  1.3264
  290MOL0     O39906  11.874   3.006  10.911  0.2372  0.2746 -0.5214
  290MOL0     C39907  11.998   3.032  10.967  0.0941  0.4588 -0.0254
  290MOL0     C39908  12.007   2.986  11.102 -0.1878  0.2157  0.0540
  290MOL0     C39909  12.113   3.015  11.183 -0.1514 -0.0466  0.1577
  290MOL0     C39910  12.090   2.992  11.327  0.0181  0.0969  0.1438
  290MOL0     C39911  12.233   3.071  11.121  0.3389  0.2094  0.1495
  290MOL0     C39912  12.358   3.101  11.182 -0.4049  0.0717  0.9944
  290MOL0     O39913  12.445   3.177  11.107  0.0458 -0.2357 -0.7530
  290MOL0     C39914  12.577   3.208  11.157 -0.4075  0.5479 -0.3569
  290MOL0     C39915  12.627   3.338  11.140  0.2496  0.3416 -0.2614
  290MOL0     C39916  12.746   3.380  11.198  0.2844  0.8398  0.7847
  290MOL0     C39917  12.817   3.298  11.275 -0.2804  0.5178 -0.2611
  290MOL0     O39918  12.933   3.345  11.318 -0.2165 -0.7057 -0.5668
  290MOL0     C39919  12.993   3.297  11.436  0.3180  0.6768  0.1472
  290MOL0     C39920  13.130   3.367  11.458 -0.1293  0.1011  0.7209
  290MOL0     C39921  13.212   3.357  11.332  0.5197  0.5201 -0.3032
  290MOL0     C39922  13.360   3.395  11.339 -0.6650  0.0947  1.2508
  290MOL0     C39923  13.377   3.543  11.366  0.1197  0.2769  0.5389
  290MOL0     C39924  13.523   3.576  11.392  0.1037 -0.1415 -0.2569
  290MOL0     C39925  13.511   3.722  11.448 -0.7009  0.3365  0.4493
  290MOL0     C39926  13.650   3.790  11.465  0.0406 -0.3505 -0.0497
  290MOL0    Cl39927  13.613   3.950  11.524 -0.5412  0.0091 -0.3755
  290MOL0     C39928  12.779   3.158  11.284 -0.3657 -0.0170  0.8316
  290MOL0     C39929  12.656   3.118  11.226  0.6227  0.5720  0.0215
  290MOL0     O39930  12.370   3.082  11.298  0.2034 -0.2207 -0.5470
  290MOL0     C39931  12.223   3.105  10.983  0.0802 -0.1086  0.1648
  290MOL0     C39932  12.111   3.083  10.906  0.0176  0.0419 -0.0294
  290MOL0     N39933  11.319   3.019  10.900  0.0483  0.6581  0.5265
  290MOL0     N39934  11.191   3.043  10.891  0.4243  0.0111 -0.5741
  290MOL0     C39935  10.182   3.139  10.686 -0.1945 -0.3108 -0.0754
  290MOL0     C39936  10.082   3.224  10.635  0.0634 -0.3395  0.1840
  290MOL0     C39937   9.712   3.224  10.332 -0.4688 -0.0722 -0.2942
  290MOL0     C39938   9.611   3.301  10.395 -0.2412 -0.7326  0.5417
  290MOL0     C39939   9.482   3.301  10.346  0.2866 -0.1992  0.3255
  290MOL0     C39940   9.455   3.241  10.224 -0.0815  1.0198  0.0701
  290MOL0     O39941   9.325   3.245  10.179  0.1866  0.4192  0.1956
  290MOL0     C39942   9.251   3.130  10.234 -0.1870 -0.1705  0.0562
  290MOL0     C39943   9.138   3.075  10.147  0.0649 -0.3724 -0.3018
  290MOL0     C39944   9.170   3.031  10.001  0.6605 -0.4377  0.2086
  290MOL0     C39945   9.055   3.049   9.904 -0.9786 -0.3219 -0.2155
  290MOL0     C39946   9.081   2.968   9.779 -0.4157 -0.1729 -0.3554
  290MOL0     C39947   9.098   2.891   9.687 -0.4049 -0.1886 -0.3499
  290MOL0     C39948   9.552   3.166  10.162  0.7470  0.3532 -0.6278
  290MOL0     C39949   9.679   3.150  10.215 -0.0402 -0.2472 -0.8877
  290MOL0     C39950   9.776   3.070  10.134  0.3559  0.1537  1.2580
  290MOL0     H39951   9.849   2.987  10.556 -1.0831  0.7225  2.2246
  290MOL0     H39952  10.032   2.835  10.633 -2.6297 -0.1309  2.1307
  290MOL0     H39953  10.288   2.747  10.650 -1.4753  0.4072  0.2383
  290MOL0     H39954  10.180   2.770  10.788 -1.2163  0.8450 -1.2649
  290MOL0     H39955  10.375   2.786  10.935 -4.6519  0.9314 -0.2496
  290MOL0     H39956  10.378   2.641  10.855 -1.5554  0.3290  1.3148
  290MOL0     H39957  10.536   2.888  10.791 -1.4077  0.7431  0.7542
  290MOL0     H39958  10.607   2.764  10.881 -1.1056  0.1751  1.3708
  290MOL0     H39959  10.569   2.595  10.686  1.6266 -0.3161  3.5688
  290MOL0     H39960  10.554   2.741  10.580  1.5550  2.3210  0.3220
  290MOL0     H39961  10.787   2.666  10.565  0.1968  2.4631 -1.2128
  290MOL0     H39962  10.805   2.658  10.740  1.4227  0.4753 -0.6569
  290MOL0     H39963  10.773   2.913  10.573  0.1268 -1.6668 -0.6421
  290MOL0     H39964  10.768   2.917  10.747  3.7215  0.0048  1.8372
  290MOL0     H39965  11.007   2.850  10.579 -0.1752  2.0460 -0.0704
  290MOL0     H39966  10.998   2.804  10.749 -0.5862  0.2951  1.0716
  290MOL0     H39967  10.992   3.087  10.652  0.7350  0.1536 -0.0689
  290MOL0     H39968  10.940   3.041  10.817  2.1905  0.6803  1.5613
  290MOL0     H39969  11.254   2.928  10.595 -1.4397  0.3780 -0.8149
  290MOL0     H39970  11.500   2.878  10.634  4.1545 -1.3061  0.0779
  290MOL0     H39971  11.513   2.795  10.785 -1.2601 -0.5363 -0.3819
  290MOL0     H39972  11.598   3.090  10.763  4.0206 -0.1787 -2.6966
  290MOL0     H39973  11.596   2.989  10.892 -2.0138  0.1526  0.1735
  290MOL0     H39974  11.764   2.831  10.734 -2.4666 -1.5191  0.6766
  290MOL0     H39975  11.738   2.952  10.610 -1.4525 -3.6604  0.4062
  290MOL0     H39976  11.943   2.993  10.709  0.0178 -0.0453  1.6108
  290MOL0     H39977  11.838   3.127  10.750  0.0466  0.8349  0.8639
  290MOL0     H39978  11.928   2.938  11.159  3.0922 -0.0207  5.0223
  290MOL0     H39979  11.988   2.972  11.362  0.3108  1.7280  2.0870
  290MOL0     H39980  12.115   3.082  11.383  0.4114  0.2135 -0.2090
  290MOL0     H39981  12.147   2.905  11.361 -2.3656 -0.9630  1.6376
  290MOL0     H39982  12.572   3.403  11.073  2.3090  2.2587 -0.2136
  290MOL0     H39983  12.784   3.482  11.194  4.5661 -0.5337 -3.8400
  290MOL0     H39984  12.941   3.328  11.527 -2.4959  3.9374 -2.3084
  290MOL0     H39985  13.005   3.188  11.434 -2.6449  0.2603 -2.2214
  290MOL0     H39986  13.124   3.467  11.502 -0.7621  0.2665  0.2752
  290MOL0     H39987  13.173   3.309  11.540  3.0867  0.1364 -0.7940
  290MOL0     H39988  13.166   3.419  11.254  0.6971 -0.5933 -1.3336
  290MOL0     H39989  13.211   3.251  11.307  2.4550  0.6086 -0.9614
  290MOL0     H39990  13.399   3.361  11.242  0.0140  3.5573  0.1803
  290MOL0     H39991  13.410   3.331  11.413  1.9441 -0.1428 -0.5535
  290MOL0     H39992  13.345   3.600  11.278  2.6091  3.0098  1.2076
  290MOL0     H39993  13.326   3.569  11.459 -0.4456  0.3165  0.2191
  290MOL0     H39994  13.576   3.578  11.296  1.1021 -1.5936  0.2282
  290MOL0     H39995  13.566   3.510  11.468 -2.0018  0.1220  1.2616
  290MOL0     H39996  13.462   3.720  11.546  1.2110 -1.9157  1.4571
  290MOL0     H39997  13.449   3.780  11.378 -0.6145 -0.8676 -0.6486
  290MOL0     H39998  13.689   3.799  11.364 -3.6220  1.3704 -1.4857
  290MOL0     H39999  13.717   3.736  11.533 -0.5743 -1.1036 -0.0310
  290MOL0     H40000  12.843   3.088  11.337  1.4630  1.3514  0.5324
  290MOL0     H40001  12.608   3.022  11.241 -2.6238  2.1869  1.1184
  290MOL0     H40002  12.309   3.155  10.940 -0.3747  0.6334  0.1013
  290MOL0     H40003  12.094   3.142  10.816 -2.4613  0.1665  0.4425
  290MOL0     H40004  10.273   3.180  10.728  1.9178 -1.5350 -3.0722
  290MOL0     H40005  10.090   3.332  10.642 -1.8225 -0.0062 -1.7144
  290MOL0     H40006   9.640   3.368  10.475  1.5054 -1.6021  0.6799
  290MOL0     H40007   9.404   3.361  10.391 -0.0549 -1.0293  0.8746
  290MOL0     H40008   9.322   3.052  10.259 -0.9968 -1.5116 -1.6562
  290MOL0     H40009   9.206   3.159  10.330  0.2110 -0.7753  0.4282
  290MOL0     H40010   9.059   3.149  10.133 -1.1049 -1.3790  0.7263
  290MOL0     H40011   9.082   3.000  10.204  0.4146 -0.5683 -0.2151
  290MOL0     H40012   9.256   3.092   9.972  1.2321 -0.3609  1.9844
  290MOL0     H40013   9.187   2.923  10.010  0.3919 -0.6292 -1.2561
  290MOL0     H40014   9.044   3.155   9.881  2.3853  0.5589  1.5551
  290MOL0     H40015   8.964   3.014   9.955  0.3562 -3.8799 -0.0010
  290MOL0     H40016   9.108   2.819   9.609  1.5108 -0.1487 -0.1930
  290MOL0     H40017   9.523   3.110  10.074  0.4986  0.9531 -0.9351
  290MOL0     H40018   9.839   3.136  10.073 -1.3844 -0.2710 -1.1645
  290MOL0     H40019   9.836   3.007  10.200 -0.1722  0.1577  1.7451
  290MOL0     H40020   9.734   3.006  10.056 -0.3060  4.4224 -2.3014
  291MOL0     O40021   2.193   5.129   2.550  0.8083 -0.7310 -0.2843
  291MOL0     C40022   2.134   5.215   2.619  0.2302 -0.5181 -0.1390
  291MOL0     O40023   2.174   5.348   2.637 -0.7720 -0.0728 -0.6000
  291MOL0     C40024   2.301   5.375   2.594  0.4771  0.4469  0.5065
  291MOL0     C40025   2.413   5.333   2.664  0.2094  0.5733  0.1324
  291MOL0     C40026   2.543   5.378   2.631 -0.6685 -0.6277 -0.2929
  291MOL0     C40027   2.575   5.466   2.527 -0.1439  0.4841  0.5589
  291MOL0     O40028   2.700   5.507   2.481 -0.6053  0.6243  0.2976
  291MOL0     C40029   2.805   5.519   2.580 -1.3211  0.3068 -0.2880
  291MOL0     C40030   2.934   5.592   2.529  0.1618  0.3099 -0.1984
  291MOL0     C40031   2.996   5.692   2.635 -0.4163 -0.0501 -0.0043
  291MOL0     C40032   2.924   5.824   2.661 -0.8267  0.3841  0.4575
  291MOL0     C40033   3.006   5.933   2.716 -0.4458 -0.5188  0.4407
  291MOL0     C40034   3.003   6.056   2.627  0.0385  0.0557  0.0268
  291MOL0     C40035   3.104   6.048   2.506 -0.8127 -0.2732 -0.5829
  291MOL0     C40036   3.124   6.187   2.446 -0.0621 -0.1377  0.7008
  291MOL0     N40037   3.199   6.276   2.530  0.1067 -0.3245 -0.0102
  291MOL0     C40038   3.329   6.254   2.560 -0.6840  0.4467 -0.5992
  291MOL0     C40039   3.361   6.351   2.653  0.1339  0.2072 -0.0739
  291MOL0     C40040   3.483   6.355   2.729 -0.7282  0.2027 -0.0186
  291MOL0     C40041   3.591   6.439   2.670 -0.5337 -0.1568  0.0001
  291MOL0     C40042   3.708   6.463   2.764 -0.6823 -0.5056  0.7958
  291MOL0     C40043   3.805   6.568   2.720  0.5265  0.6013  0.2470
  291MOL0     O40044   3.905   6.590   2.829  0.4360 -0.5840  0.3015
  291MOL0     C40045   4.006   6.683   2.799 -0.0425  0.7646  0.5396
  291MOL0     C40046   4.003   6.760   2.677  0.9304  0.4074 -0.7842
  291MOL0     C40047   4.104   6.858   2.644  0.2014 -0.1122  0.1892
  291MOL0     C40048   4.111   6.914   2.503  0.2010 -0.1237  0.7262
  291MOL0     C40049   4.210   6.878   2.738 -0.5360  0.6199  0.2769
  291MOL0     C40050   4.324   6.977   2.729 -0.0023 -0.1087  0.4456
  291MOL0     O40051   4.300   7.060   2.626 -0.2963 -0.6254  0.0329
  291MOL0     C40052   4.371   7.175   2.621  0.5970 -0.7386 -0.3204
  291MOL0     C40053   4.488   7.177   2.548 -0.5330  0.0436  0.8284
  291MOL0     C40054   4.569   7.300   2.555 -0.5386  0.7646 -0.5860
  291MOL0     C40055   4.536   7.409   2.634 -0.0958  0.0725 -0.1440
  291MOL0     O40056   4.605   7.531   2.640  0.0464 -0.1314  0.3249
  291MOL0     C40057   4.702   7.570   2.542  1.3035 -0.5273 -0.7807
  291MOL0     C40058   4.834   7.566   2.614  0.4610 -0.1457 -0.3570
  291MOL0     C40059   4.920   7.682   2.558 -0.0383 -0.0860  0.5611
  291MOL0     C40060   5.055   7.695   2.630 -0.3476 -0.5036 -0.1279
  291MOL0     C40061   5.162   7.611   2.570 -0.6219 -0.0451  0.5012
  291MOL0     C40062   5.312   7.641   2.610 -0.4752  0.1390  0.1033
  291MOL0     C40063   5.408   7.590   2.495  0.0385  0.4188 -0.1655
  291MOL0     C40064   5.552   7.609   2.523  0.6535  0.1735  0.6111
  291MOL0    Cl40065   5.601   7.776   2.577 -0.2661  0.3558  0.0615
  291MOL0     C40066   4.415   7.404   2.702 -0.6338 -0.1616  0.0241
  291MOL0     C40067   4.339   7.289   2.695  0.3894 -0.0589  0.3725
  291MOL0     O40068   4.416   6.979   2.813  0.2101 -0.9568  0.0464
  291MOL0     C40069   4.212   6.804   2.858  0.0190 -0.4852  0.5312
  291MOL0     C40070   4.116   6.698   2.874 -0.1137 -0.1797 -0.9466
  291MOL0     N40071   3.247   6.428   2.674 -0.4909 -0.5526 -0.2027
  291MOL0     N40072   3.151   6.382   2.599 -0.4841  0.3529  0.0114
  291MOL0     C40073   2.456   5.507   2.457 -0.4623  0.0384  0.5578
  291MOL0     C40074   2.325   5.466   2.489  0.3375  0.2558 -0.4085
  291MOL0     C40075   2.011   5.178   2.689  0.6389  0.1770 -0.0163
  291MOL0     C40076   1.920   5.286   2.716  0.8537 -0.0684 -0.6024
  291MOL0     C40077   1.783   5.262   2.765  0.1641  0.0750 -0.0569
  291MOL0     C40078   1.743   5.132   2.783 -0.4275  0.4170  0.2105
  291MOL0     O40079   1.620   5.105   2.832  0.1011 -0.9324  0.3165
  291MOL0     C40080   1.531   5.029   2.748 -0.7012  1.0488  0.9035
  291MOL0     C40081   1.484   4.909   2.818 -0.0077  1.0737 -0.3789
  291MOL0     C40082   1.391   4.943   2.925  0.0007  0.3172  0.0957
  291MOL0     C40083   1.250   4.991   2.883  0.4977  0.1016  1.0141
  291MOL0     C40084   1.168   4.878   2.824 -0.0162  0.3700 -0.8322
  291MOL0     C40085   1.111   4.777   2.784 -0.3646 -0.3489  0.0409
  291MOL0     C40086   1.835   5.030   2.761 -0.5399 -0.1379 -0.3503
  291MOL0     C40087   1.971   5.045   2.715  0.6424  0.6454  0.6507
  291MOL0     C40088   2.053   4.924   2.691  0.7016  1.1455 -0.0204
  291MOL0     H40089   2.401   5.270   2.751 -2.7917  2.0099  0.9235
  291MOL0     H40090   2.629   5.357   2.695 -0.0249 -2.3598 -1.6518
  291MOL0     H40091   2.833   5.421   2.620  1.6789  1.1566 -0.0981
  291MOL0     H40092   2.768   5.572   2.667  1.3390  1.4203  0.2730
  291MOL0     H40093   3.011   5.515   2.516 -1.1455 -1.4491  1.7841
  291MOL0     H40094   2.905   5.654   2.443  1.3646  0.1618 -0.7287
  291MOL0     H40095   3.005   5.626   2.722  4.2042  1.1299  0.6354
  291MOL0     H40096   3.096   5.714   2.598 -0.1589  1.0686  1.2605
  291MOL0     H40097   2.871   5.849   2.568 -0.2754 -2.7336 -0.8195
  291MOL0     H40098   2.843   5.808   2.732 -1.8597 -2.8603 -1.2382
  291MOL0     H40099   3.111   5.908   2.733  0.1130  1.7203  0.6099
  291MOL0     H40100   2.970   5.943   2.819  0.5485 -1.1184  0.8627
  291MOL0     H40101   2.903   6.074   2.585  0.6734  1.1047 -1.0944
  291MOL0     H40102   3.025   6.140   2.693  0.6258  0.4656 -0.6733
  291MOL0     H40103   3.068   5.983   2.426  1.6418  0.8928 -2.8058
  291MOL0     H40104   3.195   6.000   2.544  0.8509  4.2554  1.8425
  291MOL0     H40105   3.176   6.175   2.351 -1.9243  2.4763 -0.7912
  291MOL0     H40106   3.027   6.234   2.425  0.5971 -0.3295 -3.5884
  291MOL0     H40107   3.402   6.175   2.543 -1.1318 -0.4388  1.3187
  291MOL0     H40108   3.534   6.259   2.743 -0.3140  0.3421 -0.5683
  291MOL0     H40109   3.449   6.391   2.827 -0.1259  0.4794  0.0923
  291MOL0     H40110   3.630   6.397   2.577  1.4426  1.9706 -0.2204
  291MOL0     H40111   3.547   6.538   2.652 -1.9319 -0.6726  0.4910
  291MOL0     H40112   3.678   6.504   2.861 -0.8469 -1.0886  0.9917
  291MOL0     H40113   3.765   6.371   2.775  0.9176  0.5889  2.0914
  291MOL0     H40114   3.856   6.530   2.631 -1.4116 -1.3623 -0.1133
  291MOL0     H40115   3.750   6.660   2.700  1.1034  0.8213 -0.3593
  291MOL0     H40116   3.919   6.748   2.609  0.6331 -4.2986  0.0626
  291MOL0     H40117   4.201   6.894   2.443 -0.7071 -0.0933 -0.7075
  291MOL0     H40118   4.093   7.022   2.504 -0.2080 -0.1938  1.1080
  291MOL0     H40119   4.042   6.863   2.435 -0.3508 -0.3682  1.4558
  291MOL0     H40120   4.524   7.091   2.493 -0.9627  0.4936 -0.1671
  291MOL0     H40121   4.659   7.309   2.495 -0.2055 -0.2351 -0.2492
  291MOL0     H40122   4.700   7.509   2.451  2.4831 -2.6707  0.5290
  291MOL0     H40123   4.679   7.676   2.528  0.9971 -0.7273 -1.8305
  291MOL0     H40124   4.830   7.578   2.723 -0.9796 -1.9230 -0.1455
  291MOL0     H40125   4.884   7.470   2.595 -0.2506  0.0690 -4.0875
  291MOL0     H40126   4.867   7.777   2.566  0.0117 -0.0114  0.0573
  291MOL0     H40127   4.945   7.672   2.452  1.1427 -0.0388  0.8221
  291MOL0     H40128   5.058   7.687   2.739  4.8926  2.4671  0.2666
  291MOL0     H40129   5.077   7.802   2.622 -0.6413 -0.5753 -2.9780
  291MOL0     H40130   5.140   7.505   2.585 -2.4940  0.4700  1.6677
  291MOL0     H40131   5.157   7.620   2.461 -0.2733  1.4327  0.5854
  291MOL0     H40132   5.334   7.591   2.705 -2.2587 -1.7836 -0.4270
  291MOL0     H40133   5.330   7.749   2.616 -0.9537  0.2705 -0.7438
  291MOL0     H40134   5.389   7.659   2.412 -1.7882 -1.4872 -1.4518
  291MOL0     H40135   5.367   7.492   2.467 -1.3263 -0.0196  2.9983
  291MOL0     H40136   5.607   7.580   2.433 -0.7644  1.9433 -0.8852
  291MOL0     H40137   5.579   7.529   2.593  1.6446 -0.3640 -0.3623
  291MOL0     H40138   4.388   7.488   2.765  1.7264  0.0336  0.8734
  291MOL0     H40139   4.248   7.280   2.752  0.9018 -0.2287  1.1701
  291MOL0     H40140   4.292   6.807   2.932  0.8257 -0.1003 -0.3298
  291MOL0     H40141   4.133   6.632   2.958  0.6776  2.3670  1.0227
  291MOL0     H40142   2.462   5.571   2.370 -1.9054 -2.0183 -1.1726
  291MOL0     H40143   2.251   5.528   2.441 -0.5217 -1.0234 -0.7801
  291MOL0     H40144   1.945   5.392   2.721 -1.9967  0.6263  0.6285
  291MOL0     H40145   1.726   5.351   2.790  0.0434 -0.1730  0.5757
  291MOL0     H40146   1.448   5.095   2.722 -0.0800  0.3953 -3.3947
  291MOL0     H40147   1.585   5.009   2.655 -1.3742  1.2973  0.4533
  291MOL0     H40148   1.576   4.861   2.851  0.1575  0.3516 -1.8095
  291MOL0     H40149   1.426   4.841   2.755 -1.9766  2.7394 -0.4940
  291MOL0     H40150   1.385   4.849   2.980 -0.7636 -0.5779 -1.4280
  291MOL0     H40151   1.431   5.005   3.005  0.4678 -4.1434  3.7218
  291MOL0     H40152   1.266   5.064   2.803  0.1267  0.3883  1.2007
  291MOL0     H40153   1.188   5.036   2.961 -0.9384  1.3316 -0.7508
  291MOL0     H40154   1.060   4.690   2.746 -1.1462 -0.8451  2.1108
  291MOL0     H40155   1.790   4.935   2.789 -1.3367  0.9488  2.4132
  291MOL0     H40156   2.066   4.902   2.584 -1.2064  0.7173 -0.2016
  291MOL0     H40157   2.154   4.954   2.721  0.4992  2.8998 -0.9939
  291MOL0     H40158   2.033   4.837   2.754 -0.0207 -0.2035 -2.0011
  292MOL0     O40159   7.057   6.471   1.976  0.2419 -0.4008 -0.7112
  292MOL0     C40160   7.008   6.416   2.079 -0.4463  0.6483  0.4225
  292MOL0     O40161   7.076   6.386   2.195 -0.2298  0.4495  0.1965
  292MOL0     C40162   7.211   6.397   2.190  0.2891  0.8712 -0.2516
  292MOL0     C40163   7.279   6.280   2.157  0.0144  0.2374  0.3217
  292MOL0     C40164   7.413   6.278   2.173 -0.2809 -0.2656  0.8289
  292MOL0     C40165   7.492   6.387   2.206  0.2094  0.1463 -0.1615
  292MOL0     O40166   7.630   6.381   2.207 -0.2882  0.4710 -0.1255
  292MOL0     C40167   7.692   6.263   2.267 -0.0702 -0.1116 -0.7602
  292MOL0     C40168   7.838   6.296   2.306 -0.0013  0.4349 -1.2996
  292MOL0     C40169   7.914   6.309   2.172 -0.9372 -0.1776 -0.4774
  292MOL0     C40170   8.054   6.353   2.228  0.0352 -0.3463 -0.9842
  292MOL0     C40171   8.165   6.395   2.132  0.1161  0.7451 -0.6137
  292MOL0     C40172   8.310   6.396   2.189 -0.7593 -0.1610 -0.1156
  292MOL0     C40173   8.404   6.411   2.071 -0.1732  0.4206 -0.2296
  292MOL0     C40174   8.548   6.434   2.120 -0.5825 -0.1302 -0.0491
  292MOL0     N40175   8.643   6.429   2.012  0.0636  0.0530  0.8736
  292MOL0     C40176   8.685   6.534   1.938  0.0648  0.2137 -0.2101
  292MOL0     C40177   8.726   6.480   1.820  0.3408 -0.6931 -0.6793
  292MOL0     C40178   8.786   6.555   1.710 -0.3288  0.0444  1.1433
  292MOL0     C40179   8.709   6.675   1.648  0.1248 -0.8907 -0.3698
  292MOL0     C40180   8.784   6.730   1.532  0.1785 -0.1018  0.3394
  292MOL0     C40181   8.788   6.645   1.404  0.5439 -0.0438  0.2905
  292MOL0     O40182   8.851   6.730   1.315  0.2009 -0.3482 -0.4137
  292MOL0     C40183   8.997   6.738   1.313  0.7962 -0.7274 -1.0208
  292MOL0     C40184   9.078   6.644   1.377 -1.4135  0.1274  0.5934
  292MOL0     C40185   9.215   6.657   1.387  0.7577  0.0651 -0.2140
  292MOL0     C40186   9.288   6.548   1.469  0.4909  0.2709 -0.9763
  292MOL0     C40187   9.267   6.774   1.326 -0.7635 -0.3289  0.3330
  292MOL0     C40188   9.417   6.805   1.319 -0.1043  1.1192  0.0487
  292MOL0     O40189   9.451   6.931   1.289  0.4331  0.0346  0.5309
  292MOL0     C40190   9.580   6.969   1.324 -0.1473  1.0243  0.1315
  292MOL0     C40191   9.639   6.946   1.450  0.6545 -0.4952  0.1425
  292MOL0     C40192   9.774   6.983   1.478  0.3317  0.5676  0.0069
  292MOL0     C40193   9.850   7.027   1.372 -0.1950 -0.2269 -0.4876
  292MOL0     O40194   9.982   7.042   1.390  0.0133  0.2743 -0.4025
  292MOL0     C40195  10.012   7.172   1.441 -0.0058 -0.1005  0.4617
  292MOL0     C40196  10.118   7.239   1.358  0.1472  0.3018 -0.4081
  292MOL0     C40197  10.166   7.378   1.410  0.3373  0.1242 -0.0031
  292MOL0     C40198  10.235   7.390   1.550  0.8179  0.1581 -0.0797
  292MOL0     C40199  10.252   7.544   1.579 -0.2406  0.8217 -0.2664
  292MOL0     C40200  10.355   7.619   1.493 -0.4073  0.5529 -0.2598
  292MOL0     C40201  10.380   7.762   1.537 -0.5162 -0.1084 -0.1525
  292MOL0     C40202  10.450   7.782   1.680  0.6586  0.0970  0.2126
  292MOL0    Cl40203  10.598   7.679   1.694  0.0169  0.4243 -0.0254
  292MOL0     C40204   9.802   7.054   1.248  0.0850 -0.0066  0.3607
  292MOL0     C40205   9.667   7.018   1.224 -0.5129 -0.2558 -0.4338
  292MOL0     O40206   9.490   6.714   1.343  0.1669 -0.3410 -0.0077
  292MOL0     C40207   9.182   6.868   1.266  1.1314 -0.0427  0.9400
  292MOL0     C40208   9.043   6.849   1.256 -0.6838 -0.4089  0.4270
  292MOL0     N40209   8.703   6.340   1.828 -0.5469 -0.5447  0.0087
  292MOL0     N40210   8.646   6.315   1.941 -0.0606  0.0237 -0.5193
  292MOL0     C40211   7.426   6.509   2.232 -0.1321 -0.1850 -0.4668
  292MOL0     C40212   7.286   6.514   2.226 -0.0013  1.1205  0.2648
  292MOL0     C40213   6.863   6.399   2.077  0.4611 -0.5774 -0.4092
  292MOL0     C40214   6.809   6.274   2.067  0.1526 -0.2873 -0.7788
  292MOL0     C40215   6.674   6.254   2.084 -0.0084  0.3177  0.9269
  292MOL0     C40216   6.584   6.355   2.114 -0.3948 -0.0917  0.4071
  292MOL0     O40217   6.451   6.347   2.123  0.4856 -0.2194  0.1607
  292MOL0     C40218   6.385   6.264   2.026  0.3602 -0.2602 -0.3278
  292MOL0     C40219   6.322   6.137   2.078 -0.1197  0.3522  0.1138
  292MOL0     C40220   6.226   6.070   1.977  1.1040 -0.2094  0.3188
  292MOL0     C40221   6.290   5.947   1.908  0.2192  0.5209 -0.4138
  292MOL0     C40222   6.256   5.821   1.973  0.0471 -0.3822 -0.5274
  292MOL0     C40223   6.219   5.736   2.056  0.0743 -0.0213 -0.2009
  292MOL0     C40224   6.636   6.477   2.137 -0.0395 -1.2603  0.6847
  292MOL0     C40225   6.775   6.498   2.121  0.2816  0.0385 -0.2634
  292MOL0     C40226   6.826   6.637   2.153  0.5925  0.3123 -0.0053
  292MOL0     H40227   7.231   6.189   2.123  1.7776 -0.3855 -0.5864
  292MOL0     H40228   7.460   6.182   2.158 -0.0089 -0.0092 -0.0411
  292MOL0     H40229   7.690   6.190   2.186  2.4975 -0.6227 -0.4433
  292MOL0     H40230   7.625   6.231   2.348 -1.5385 -1.9240 -2.5846
  292MOL0     H40231   7.840   6.385   2.370 -0.7735 -1.5986  1.7821
  292MOL0     H40232   7.879   6.214   2.367 -0.4274  0.7629 -0.5632
  292MOL0     H40233   7.928   6.214   2.120 -2.4535 -1.1727  0.8408
  292MOL0     H40234   7.856   6.379   2.112 -1.4012 -1.8658 -2.0842
  292MOL0     H40235   8.043   6.448   2.282  1.7367 -0.4835 -0.3244
  292MOL0     H40236   8.094   6.281   2.299  1.4256  3.0186  1.9621
  292MOL0     H40237   8.152   6.497   2.097  1.8086  1.4293  0.6009
  292MOL0     H40238   8.161   6.324   2.048 -2.2775 -4.6481  3.4575
  292MOL0     H40239   8.325   6.479   2.259  0.3037 -1.5032  1.3188
  292MOL0     H40240   8.344   6.307   2.243  1.6635 -0.0628 -1.3402
  292MOL0     H40241   8.368   6.493   2.008  0.1091  0.6438 -0.1024
  292MOL0     H40242   8.413   6.325   2.003  3.1125  1.1201 -0.8520
  292MOL0     H40243   8.555   6.541   2.144  0.8066 -0.1543 -0.2643
  292MOL0     H40244   8.574   6.377   2.210  1.7106 -2.7656 -2.2133
  292MOL0     H40245   8.700   6.640   1.954 -0.2641  0.1448  0.5637
  292MOL0     H40246   8.821   6.484   1.634  0.3702  0.6156  0.9194
  292MOL0     H40247   8.881   6.594   1.747  1.2364 -1.2808 -1.2593
  292MOL0     H40248   8.609   6.642   1.617  0.0740  0.4261 -1.7108
  292MOL0     H40249   8.687   6.753   1.721  0.3790 -0.4019 -0.8077
  292MOL0     H40250   8.744   6.831   1.515  3.5002  1.3124  0.1533
  292MOL0     H40251   8.890   6.741   1.557  0.9696 -5.4421  0.6096
  292MOL0     H40252   8.841   6.550   1.413  0.9425  0.0811 -0.6009
  292MOL0     H40253   8.692   6.628   1.354 -0.1383  0.1425  1.5125
  292MOL0     H40254   9.032   6.558   1.425 -2.0378  1.6385  2.8239
  292MOL0     H40255   9.217   6.478   1.514  0.6626 -1.4359 -3.1854
  292MOL0     H40256   9.337   6.605   1.548 -1.3727 -0.1879  0.5840
  292MOL0     H40257   9.360   6.497   1.404 -0.1400  0.2611 -1.6807
  292MOL0     H40258   9.578   6.904   1.528  0.1311 -2.2257 -1.1415
  292MOL0     H40259   9.811   6.969   1.579 -0.1931 -1.4616 -0.0228
  292MOL0     H40260   9.924   7.235   1.460  0.9358  1.7016 -0.8853
  292MOL0     H40261  10.051   7.160   1.542 -0.3603 -0.2728  0.5819
  292MOL0     H40262  10.210   7.179   1.352  0.9271  1.2982  0.8717
  292MOL0     H40263  10.082   7.263   1.258 -2.2060  2.1873  0.8117
  292MOL0     H40264  10.074   7.438   1.408  0.3588  0.2323  1.1851
  292MOL0     H40265  10.240   7.413   1.337  1.0113  1.4797  1.2737
  292MOL0     H40266  10.334   7.347   1.535  0.9219  0.7111 -1.1400
  292MOL0     H40267  10.173   7.342   1.626 -0.4310  2.4606  0.4730
  292MOL0     H40268  10.155   7.594   1.578 -2.6735 -3.3508  1.7026
  292MOL0     H40269  10.273   7.565   1.684 -3.1093 -0.3352  0.6380
  292MOL0     H40270  10.328   7.609   1.387  1.6448 -3.7564 -0.5831
  292MOL0     H40271  10.452   7.571   1.505  0.7639  3.2027  1.9128
  292MOL0     H40272  10.278   7.801   1.543 -1.5971 -2.4185 -1.9057
  292MOL0     H40273  10.444   7.808   1.462 -0.0887 -0.7216 -0.1700
  292MOL0     H40274  10.375   7.754   1.756  0.7587 -1.6872 -0.2923
  292MOL0     H40275  10.479   7.887   1.692  1.6341  0.0046 -1.1662
  292MOL0     H40276   9.868   7.107   1.181 -1.2713  0.4817 -0.6192
  292MOL0     H40277   9.625   7.033   1.125  1.0365 -1.3403 -1.2980
  292MOL0     H40278   9.226   6.956   1.223  0.9083  0.3033  1.4111
  292MOL0     H40279   8.981   6.927   1.211  0.4430 -0.2476 -0.9122
  292MOL0     H40280   7.481   6.598   2.258 -0.3744  0.3717 -1.7989
  292MOL0     H40281   7.240   6.604   2.265  0.0413  0.7682  1.1577
  292MOL0     H40282   6.863   6.185   2.035  0.3589 -0.5203  0.1830
  292MOL0     H40283   6.629   6.156   2.069 -0.3103  0.7138 -1.0178
  292MOL0     H40284   6.311   6.322   1.970 -1.3332 -1.7968  0.2439
  292MOL0     H40285   6.458   6.236   1.949  0.4347 -0.2926 -0.2456
  292MOL0     H40286   6.262   6.165   2.165  0.8072 -1.3354  1.3503
  292MOL0     H40287   6.401   6.075   2.121 -1.5500 -0.8342  1.1092
  292MOL0     H40288   6.134   6.040   2.030  0.6218 -0.9061 -0.8679
  292MOL0     H40289   6.209   6.140   1.895 -0.8706 -0.8475  0.1120
  292MOL0     H40290   6.398   5.963   1.900  0.2561  0.0643 -0.9129
  292MOL0     H40291   6.246   5.932   1.809 -0.7215  2.3083 -0.3110
  292MOL0     H40292   6.175   5.661   2.118 -1.7864  2.2294  1.3395
  292MOL0     H40293   6.572   6.552   2.182  2.4261  3.1925 -2.4560
  292MOL0     H40294   6.876   6.640   2.250 -0.7444 -1.9618  0.8350
  292MOL0     H40295   6.898   6.663   2.074  0.7744  2.1740  0.7302
  292MOL0     H40296   6.744   6.709   2.145  1.6952  1.4129 -4.1631
  293MOL0     O40297   9.682   1.382  10.030 -0.0711 -0.0946 -0.3436
  293MOL0     C40298   9.708   1.335   9.923 -0.8116 -0.3163 -0.6115
  293MOL0     O40299   9.625   1.326   9.821  0.5296 -0.2515 -0.1565
  293MOL0     C40300   9.500   1.362   9.842 -0.0547  0.0161 -0.0266
  293MOL0     C40301   9.460   1.489   9.858 -0.3247 -0.4766 -0.8340
  293MOL0     C40302   9.331   1.524   9.866  0.5904  0.2850 -0.2499
  293MOL0     C40303   9.225   1.438   9.844  0.6757  1.0500  0.0814
  293MOL0     O40304   9.097   1.479   9.865  0.9811  0.4393  0.3772
  293MOL0     C40305   9.000   1.373   9.882  0.0561 -0.1140  1.0962
  293MOL0     C40306   8.871   1.424   9.930  0.5245 -0.0797 -0.1210
  293MOL0     C40307   8.853   1.475  10.074 -0.1877 -0.4830 -0.7746
  293MOL0     C40308   8.920   1.617  10.098 -1.1127  0.2564 -0.9695
  293MOL0     C40309   8.872   1.665  10.239 -0.9794 -0.6996  0.1014
  293MOL0     C40310   8.927   1.805  10.268 -0.1805  0.2300  0.2140
  293MOL0     C40311   9.070   1.808  10.307  0.5096  0.4064 -0.0544
  293MOL0     C40312   9.169   1.858  10.197 -0.1143 -0.5022  0.0356
  293MOL0     N40313   9.306   1.844  10.230  0.5890  0.6317 -0.0296
  293MOL0     C40314   9.397   1.759  10.173 -0.2303  0.4473 -0.4119
  293MOL0     C40315   9.515   1.777  10.242  0.3384  0.1721  0.1608
  293MOL0     C40316   9.649   1.713  10.227 -0.5904  0.6764 -0.0024
  293MOL0     C40317   9.670   1.576  10.286  0.0881  0.2972  0.1610
  293MOL0     C40318   9.682   1.579  10.434  0.2607  0.1057  0.0953
  293MOL0     C40319   9.800   1.655  10.486 -0.5827 -0.0756 -0.1254
  293MOL0     O40320   9.920   1.601  10.431  0.0356  0.6016 -0.4118
  293MOL0     C40321  10.037   1.662  10.467 -0.8986 -0.1511 -0.0186
  293MOL0     C40322  10.056   1.740  10.576 -0.0002 -0.1358 -0.6125
  293MOL0     C40323  10.174   1.809  10.598 -0.0116 -0.0401  0.8971
  293MOL0     C40324  10.177   1.905  10.717  0.3122  1.0302  0.5556
  293MOL0     C40325  10.296   1.778  10.525  0.1399 -0.3235 -0.1142
  293MOL0     C40326  10.424   1.849  10.544 -0.8429 -0.5452 -0.2788
  293MOL0     O40327  10.526   1.775  10.486 -0.7176  0.3257 -0.3438
  293MOL0     C40328  10.660   1.807  10.508  0.7647 -0.3796 -0.3337
  293MOL0     C40329  10.755   1.775  10.410  0.2973  0.1812 -0.0851
  293MOL0     C40330  10.890   1.796  10.443 -0.0710  0.1437  0.1551
  293MOL0     C40331  10.935   1.849  10.565  1.1345 -0.0583 -0.3078
  293MOL0     O40332  11.068   1.893  10.599 -0.4277  0.2168 -0.1569
  293MOL0     C40333  11.175   1.822  10.537  0.1055  0.0324  0.6293
  293MOL0     C40334  11.296   1.820  10.633  0.5243  0.3083 -0.4455
  293MOL0     C40335  11.364   1.955  10.651 -0.0993  0.5093  0.6620
  293MOL0     C40336  11.455   1.945  10.769 -0.1415 -0.0553 -0.8003
  293MOL0     C40337  11.528   2.082  10.796 -0.5261  0.2089  0.2442
  293MOL0     C40338  11.639   2.131  10.700  0.3157  1.3727  0.2625
  293MOL0     C40339  11.760   2.032  10.697  0.7061  0.3251  0.1409
  293MOL0     C40340  11.878   2.114  10.636  0.0259  0.3454 -0.5897
  293MOL0    Cl40341  12.031   2.021  10.641  0.2645  0.3607  0.2382
  293MOL0     C40342  10.831   1.876  10.659 -0.1072 -0.1013 -0.1972
  293MOL0     C40343  10.702   1.847  10.638  0.3759  0.3422 -0.0264
  293MOL0     O40344  10.428   1.960  10.590 -0.2816 -0.5156  1.2121
  293MOL0     C40345  10.274   1.679  10.427 -0.3005  0.7062 -0.2415
  293MOL0     C40346  10.152   1.612  10.401  0.3001 -0.6424 -0.2490
  293MOL0     N40347   9.487   1.873  10.337 -0.3563 -0.8678  0.5316
  293MOL0     N40348   9.360   1.909  10.330 -0.5644  0.6089 -0.2432
  293MOL0     C40349   9.263   1.302   9.825  0.0681  0.7009 -0.3162
  293MOL0     C40350   9.400   1.261   9.825 -0.0263  0.1764 -0.0910
  293MOL0     C40351   9.841   1.275   9.898  0.1965 -0.6703  0.0877
  293MOL0     C40352   9.883   1.224   9.771  0.2642  0.9854  0.4456
  293MOL0     C40353  10.012   1.175   9.742 -0.7091 -0.8158 -0.5390
  293MOL0     C40354  10.101   1.159   9.841 -0.6561 -0.0200 -0.3391
  293MOL0     O40355  10.229   1.110   9.823  0.7687 -0.6410  0.0238
  293MOL0     C40356  10.307   1.183   9.736  0.2377  0.7454  0.6794
  293MOL0     C40357  10.442   1.136   9.719 -0.4137  0.0158 -0.3648
  293MOL0     C40358  10.524   1.181   9.845  0.2744 -0.1821  1.0834
  293MOL0     C40359  10.665   1.151   9.837 -0.6237  0.7296  0.3892
  293MOL0     C40360  10.734   1.215   9.725  0.0345 -0.1412  0.1315
  293MOL0     C40361  10.802   1.276   9.646 -0.1912  0.4736  0.0224
  293MOL0     C40362  10.068   1.204   9.969 -0.1184  0.1491  0.7288
  293MOL0     C40363   9.942   1.263  10.001  0.3087  0.4764 -0.3699
  293MOL0     C40364   9.918   1.286  10.150 -0.1620 -0.5711 -0.0190
  293MOL0     H40365   9.526   1.575   9.860 -2.0576  0.8989  0.7863
  293MOL0     H40366   9.303   1.626   9.891 -1.7318 -0.2936 -0.2936
  293MOL0     H40367   9.039   1.301   9.954  1.6577 -0.0605  0.3404
  293MOL0     H40368   8.988   1.330   9.782 -0.9419 -0.6784  1.4472
  293MOL0     H40369   8.848   1.513   9.871 -2.2223 -0.4912  0.1751
  293MOL0     H40370   8.794   1.347   9.917 -0.5452  0.6697  1.4654
  293MOL0     H40371   8.752   1.476  10.115  0.4738  0.2316  0.9450
  293MOL0     H40372   8.902   1.410  10.147  0.1173  1.7283  1.1296
  293MOL0     H40373   9.028   1.603  10.091 -1.2987 -0.5059 -2.9220
  293MOL0     H40374   8.904   1.689  10.018  0.9704  1.0764 -0.7000
  293MOL0     H40375   8.901   1.587  10.311  0.2908 -0.4892 -0.1608
  293MOL0     H40376   8.763   1.673  10.236 -1.0805 -0.7897  1.9306
  293MOL0     H40377   8.906   1.864  10.179  0.4575 -0.1134 -0.1709
  293MOL0     H40378   8.868   1.843  10.352 -0.5466 -1.0455  0.5564
  293MOL0     H40379   9.102   1.713  10.352 -0.1192  0.9017  1.5360
  293MOL0     H40380   9.066   1.879  10.390 -1.8268  3.2865 -2.4191
  293MOL0     H40381   9.149   1.808  10.101 -0.3779 -0.9277  0.3040
  293MOL0     H40382   9.152   1.964  10.176  3.7129 -0.0646 -1.5792
  293MOL0     H40383   9.386   1.680  10.099 -1.8387  0.2894 -0.0343
  293MOL0     H40384   9.728   1.782  10.258 -0.0154 -1.1825  3.1494
  293MOL0     H40385   9.660   1.679  10.123 -2.0459 -3.7902  1.0495
  293MOL0     H40386   9.580   1.524  10.252 -0.3595  1.2451 -0.1430
  293MOL0     H40387   9.758   1.526  10.246  1.0641  2.0167  0.0380
  293MOL0     H40388   9.588   1.607  10.482 -0.5583 -3.0189  0.5478
  293MOL0     H40389   9.693   1.474  10.462 -1.7398  0.0512  0.8213
  293MOL0     H40390   9.791   1.764  10.485  0.8877  0.0889 -2.2669
  293MOL0     H40391   9.797   1.631  10.593 -3.0982 -0.7638 -0.2933
  293MOL0     H40392   9.967   1.766  10.633 -0.3833 -2.1006 -0.2495
  293MOL0     H40393  10.105   1.882  10.797 -3.0002  0.3937 -2.3720
  293MOL0     H40394  10.166   2.008  10.685 -1.5544  1.4510  2.3228
  293MOL0     H40395  10.275   1.892  10.765 -0.5499 -0.4103  2.0579
  293MOL0     H40396  10.723   1.733  10.315  2.3333 -2.2154  0.1964
  293MOL0     H40397  10.955   1.777  10.358 -0.5156 -3.8027  0.5255
  293MOL0     H40398  11.148   1.726  10.491  0.9423  1.3461 -2.9488
  293MOL0     H40399  11.205   1.885  10.453 -2.9051  0.2539 -0.3987
  293MOL0     H40400  11.251   1.803  10.732  0.9641  1.1507 -0.0894
  293MOL0     H40401  11.365   1.740  10.604 -0.9858 -1.1809 -0.0917
  293MOL0     H40402  11.298   2.037  10.680 -0.5341  0.0054  1.1064
  293MOL0     H40403  11.418   1.972  10.557 -1.0496  1.2560  0.2358
  293MOL0     H40404  11.526   1.865  10.744 -0.0779 -0.7148  1.3314
  293MOL0     H40405  11.399   1.915  10.858  0.6470  0.1107 -0.2387
  293MOL0     H40406  11.442   2.149  10.790 -1.7725 -1.2403  1.1048
  293MOL0     H40407  11.566   2.084  10.898  3.4554 -1.8990 -0.9734
  293MOL0     H40408  11.671   2.228  10.739  1.0193  0.2139  2.7659
  293MOL0     H40409  11.606   2.150  10.598 -1.9694  3.0087  1.2088
  293MOL0     H40410  11.734   1.944  10.637 -1.8343  0.4142  0.9886
  293MOL0     H40411  11.794   2.000  10.796  1.2405 -0.1231 -0.1807
  293MOL0     H40412  11.888   2.211  10.685 -2.6941 -0.8380  2.6815
  293MOL0     H40413  11.842   2.127  10.533  0.8329 -0.0912 -0.9377
  293MOL0     H40414  10.859   1.929  10.749 -1.3894  0.8273 -0.3255
  293MOL0     H40415  10.626   1.860  10.714 -1.4290 -0.1844 -1.6503
  293MOL0     H40416  10.357   1.631  10.376 -0.0159 -0.1682  0.9876
  293MOL0     H40417  10.135   1.536  10.326  1.1160  0.8560 -2.0225
  293MOL0     H40418   9.184   1.228   9.812 -2.9305  2.9497  3.0199
  293MOL0     H40419   9.432   1.161   9.800 -0.7161  0.4414 -2.2608
  293MOL0     H40420   9.816   1.229   9.686 -1.0842 -1.0672  1.2983
  293MOL0     H40421  10.039   1.151   9.640 -1.8455  0.3231 -1.1363
  293MOL0     H40422  10.263   1.174   9.636 -1.0150  1.1395  1.1731
  293MOL0     H40423  10.307   1.288   9.764 -2.4755  0.2260  3.0177
  293MOL0     H40424  10.473   1.183   9.625 -0.2907 -0.9329 -0.8087
  293MOL0     H40425  10.443   1.027   9.713 -2.9781 -0.2490  1.7370
  293MOL0     H40426  10.501   1.281   9.884  0.3116  0.0800  0.4553
  293MOL0     H40427  10.484   1.112   9.920 -1.7350  1.9196  2.0889
  293MOL0     H40428  10.684   1.045   9.852 -1.7076  0.5581  0.6848
  293MOL0     H40429  10.704   1.207   9.923 -1.6394  3.1962 -0.6368
  293MOL0     H40430  10.862   1.317   9.567 -0.3393  1.0874  0.2194
  293MOL0     H40431  10.150   1.181  10.037  2.3135 -1.5228 -2.5216
  293MOL0     H40432  10.014   1.275  10.200 -0.0589  0.5096  0.0477
  293MOL0     H40433   9.877   1.386  10.171  0.3139  0.0261 -1.8070
  293MOL0     H40434   9.837   1.219  10.183 -0.9890  0.2484 -0.3282
  294MOL0     O40435   1.877   2.476  10.238 -0.0294  0.3936  0.1209
  294MOL0     C40436   1.846   2.368  10.184 -0.5154 -0.0565 -0.5667
  294MOL0     O40437   1.934   2.262  10.164 -0.2067  0.0468  0.4559
  294MOL0     C40438   2.066   2.285  10.174 -0.1656  0.2445 -0.1543
  294MOL0     C40439   2.155   2.243  10.081 -0.0163  0.0765  1.0193
  294MOL0     C40440   2.290   2.241  10.101 -0.6944 -0.5195 -0.0058
  294MOL0     C40441   2.346   2.302  10.218  0.0535  0.6054  0.1854
  294MOL0     O40442   2.484   2.305  10.243  0.0821 -0.2758 -0.4791
  294MOL0     C40443   2.529   2.288  10.378  0.0327 -0.8982 -0.0630
  294MOL0     C40444   2.685   2.278  10.376 -0.2099  0.3585 -0.3921
  294MOL0     C40445   2.769   2.359  10.275  0.6264 -0.1785 -0.9843
  294MOL0     C40446   2.906   2.298  10.240  0.1656 -1.0613 -0.3606
  294MOL0     C40447   3.001   2.317  10.360  0.1765 -0.0929 -0.3942
  294MOL0     C40448   3.121   2.227  10.323  1.1113 -1.2255  0.3492
  294MOL0     C40449   3.217   2.224  10.436 -0.7234 -0.4068  0.3010
  294MOL0     C40450   3.344   2.161  10.389  0.6685  0.5466 -0.5801
  294MOL0     N40451   3.429   2.257  10.316  0.5109  0.0725 -0.0470
  294MOL0     C40452   3.481   2.247  10.192 -0.0358  0.6373  0.3617
  294MOL0     C40453   3.566   2.348  10.182 -0.3593 -0.4783  0.4647
  294MOL0     C40454   3.664   2.399  10.073  0.2126 -0.2884 -0.8238
  294MOL0     C40455   3.768   2.305  10.015  0.9086  0.3535 -0.3945
  294MOL0     C40456   3.887   2.380   9.946  0.0271 -0.2554 -0.6822
  294MOL0     C40457   3.981   2.288   9.866  0.4978  0.1660  0.4807
  294MOL0     O40458   4.110   2.345   9.846 -0.4143  0.0407  0.0521
  294MOL0     C40459   4.208   2.259   9.793  0.1721  0.0178  0.1642
  294MOL0     C40460   4.190   2.118   9.777  0.0284  0.9067  1.2325
  294MOL0     C40461   4.291   2.036   9.721 -0.0925 -0.2904 -0.7760
  294MOL0     C40462   4.256   1.889   9.690  0.1135  0.6244 -0.4330
  294MOL0     C40463   4.418   2.094   9.702 -0.2144 -0.3675 -0.0660
  294MOL0     C40464   4.539   2.020   9.660 -0.0543 -0.3743  0.6800
  294MOL0     O40465   4.650   2.095   9.638 -0.0288 -0.0379 -0.6056
  294MOL0     C40466   4.780   2.041   9.616  0.3410  0.3306  0.2566
  294MOL0     C40467   4.852   2.068   9.503 -0.5967 -0.1670  0.0294
  294MOL0     C40468   4.988   2.033   9.483 -0.5407 -0.1704 -0.3642
  294MOL0     C40469   5.059   1.963   9.583  0.3394  0.1649  0.1317
  294MOL0     O40470   5.191   1.933   9.554  0.8127 -0.4608 -0.2478
  294MOL0     C40471   5.268   1.859   9.646  0.3444  0.3072 -0.1104
  294MOL0     C40472   5.331   1.946   9.759  0.9848 -0.9631  0.8087
  294MOL0     C40473   5.416   1.869   9.857  0.4013  0.8079  0.3293
  294MOL0     C40474   5.471   1.960   9.968  0.1713  1.1694 -0.0822
  294MOL0     C40475   5.595   1.900  10.025 -0.3077  0.0322  0.1785
  294MOL0     C40476   5.599   1.753  10.070  1.1257  0.1320  0.1266
  294MOL0     C40477   5.494   1.726  10.180  0.5022 -1.1037 -0.2045
  294MOL0     C40478   5.514   1.586  10.235 -0.2945  0.1150  0.4344
  294MOL0    Cl40479   5.445   1.571  10.403 -0.2029  0.3939 -0.0936
  294MOL0     C40480   4.982   1.929   9.705  0.4640 -0.6527  0.4194
  294MOL0     C40481   4.846   1.958   9.715 -0.1348  0.3546  0.4113
  294MOL0     O40482   4.547   1.902   9.667 -0.1913 -0.2475  0.3741
  294MOL0     C40483   4.437   2.239   9.729  0.6396  0.8816 -0.0959
  294MOL0     C40484   4.334   2.322   9.774  0.1153 -0.0694 -0.2050
  294MOL0     N40485   3.589   2.407  10.307 -0.1963 -0.5020  0.7076
  294MOL0     N40486   3.511   2.345  10.385  0.2516  1.2490 -0.2148
  294MOL0     C40487   2.247   2.351  10.314 -0.8736  0.0686 -0.1779
  294MOL0     C40488   2.114   2.347  10.290 -0.2319 -0.1257 -0.3641
  294MOL0     C40489   1.704   2.344  10.145  0.6193 -0.4705  0.4859
  294MOL0     C40490   1.672   2.216  10.096  0.2377  0.4780  0.3755
  294MOL0     C40491   1.547   2.184  10.056  0.0108 -0.6598 -0.1300
  294MOL0     C40492   1.434   2.272  10.069  0.3787 -0.4007  0.0489
  294MOL0     O40493   1.301   2.240  10.056  0.8949 -0.3797 -0.7806
  294MOL0     C40494   1.267   2.099  10.070  0.2356 -0.3505  0.6033
  294MOL0     C40495   1.120   2.076  10.028  0.3550  1.4829 -0.0633
  294MOL0     C40496   1.097   1.929  10.000 -0.5735 -0.1562 -0.2928
  294MOL0     C40497   0.949   1.892   9.994 -0.5279  0.1169  0.0299
  294MOL0     C40498   0.955   1.753   9.952  0.3607  0.8070  1.1200
  294MOL0     C40499   0.968   1.642   9.913  0.5328 -0.4129 -0.0724
  294MOL0     C40500   1.459   2.402  10.120 -0.7953  0.4131 -0.1643
  294MOL0     C40501   1.599   2.440  10.148  0.1772 -0.4314  0.0477
  294MOL0     C40502   1.620   2.587  10.194  0.4696  0.3020 -0.3980
  294MOL0     H40503   2.102   2.203   9.995  1.4988 -1.1690  0.6284
  294MOL0     H40504   2.368   2.212  10.031  0.6166 -0.4672  1.3959
  294MOL0     H40505   2.478   2.206  10.430  1.1448 -2.2276 -0.9864
  294MOL0     H40506   2.500   2.382  10.424 -1.0375 -1.3863  0.2947
  294MOL0     H40507   2.717   2.297  10.479  1.6963 -1.5518 -0.5629
  294MOL0     H40508   2.716   2.174  10.361 -2.1573 -0.7037  2.1255
  294MOL0     H40509   2.712   2.365  10.181 -1.8913  2.1302  0.5505
  294MOL0     H40510   2.783   2.461  10.314  1.5613 -0.0109 -1.7032
  294MOL0     H40511   2.883   2.194  10.217 -1.9091 -0.5868 -0.6607
  294MOL0     H40512   2.946   2.351  10.153  0.4689 -1.7626 -0.6535
  294MOL0     H40513   2.954   2.284  10.453  2.3484  1.1329  1.2482
  294MOL0     H40514   3.024   2.424  10.368  1.5953 -0.1945 -2.1837
  294MOL0     H40515   3.089   2.129  10.288 -3.1431  0.7638 -2.1625
  294MOL0     H40516   3.169   2.270  10.235  0.0570 -1.7848 -0.5219
  294MOL0     H40517   3.181   2.150  10.508 -2.7083 -0.6499 -0.8673
  294MOL0     H40518   3.225   2.325  10.477  2.2737 -0.2407 -0.4696
  294MOL0     H40519   3.401   2.123  10.474 -1.7295 -1.2741  0.3232
  294MOL0     H40520   3.330   2.072  10.328 -0.3058 -1.8580  2.9081
  294MOL0     H40521   3.457   2.165  10.125 -2.2947 -1.1051  3.0449
  294MOL0     H40522   3.713   2.488  10.113 -2.2401  0.7734  0.0299
  294MOL0     H40523   3.610   2.433   9.984 -3.2991 -0.7013  0.9659
  294MOL0     H40524   3.805   2.245  10.098 -1.7767  1.5316  1.8492
  294MOL0     H40525   3.724   2.237   9.942  0.9102 -0.9332  0.7559
  294MOL0     H40526   3.855   2.456   9.874  2.6124 -0.9288 -2.6815
  294MOL0     H40527   3.943   2.439  10.019  0.6865 -1.5228 -0.1361
  294MOL0     H40528   3.996   2.194   9.919  1.2996 -0.7551 -1.3031
  294MOL0     H40529   3.931   2.263   9.772 -4.0102 -2.6084  3.2146
  294MOL0     H40530   4.097   2.064   9.788 -0.2224  1.4141  1.5989
  294MOL0     H40531   4.149   1.874   9.711  0.2789  1.5710  1.3291
  294MOL0     H40532   4.305   1.822   9.762  1.1181 -2.5201 -3.7663
  294MOL0     H40533   4.295   1.851   9.595 -3.8700  0.2903 -2.1526
  294MOL0     H40534   4.793   2.118   9.427  0.3056 -0.1433 -0.6746
  294MOL0     H40535   5.024   2.043   9.381  0.3312  0.3983 -0.0075
  294MOL0     H40536   5.198   1.786   9.689 -0.9406  1.5753  0.0220
  294MOL0     H40537   5.349   1.800   9.602 -1.1642 -4.2733  2.5376
  294MOL0     H40538   5.408   2.011   9.715  0.6923 -1.7485 -0.9257
  294MOL0     H40539   5.260   2.002   9.820  1.3231  0.4024 -0.0108
  294MOL0     H40540   5.496   1.811   9.810 -2.1190 -2.2337 -0.5591
  294MOL0     H40541   5.350   1.795   9.905  2.5051 -0.8256  0.8330
  294MOL0     H40542   5.390   1.965  10.041 -0.9945 -2.5065 -0.8759
  294MOL0     H40543   5.501   2.055   9.925  0.6489  0.9506 -0.2372
  294MOL0     H40544   5.677   1.916   9.953 -2.0890  3.4316 -1.3037
  294MOL0     H40545   5.624   1.958  10.113  0.1953 -0.4394  0.3359
  294MOL0     H40546   5.696   1.727  10.112  0.3598  0.7569  2.4438
  294MOL0     H40547   5.588   1.687   9.983  0.4218 -0.0927  0.3739
  294MOL0     H40548   5.394   1.753  10.145  0.1430 -0.6334  1.1109
  294MOL0     H40549   5.514   1.791  10.266 -2.5561 -2.2792  1.5292
  294MOL0     H40550   5.623   1.574  10.238  0.1066  3.1047  1.0000
  294MOL0     H40551   5.471   1.519  10.160 -1.2364  1.3711 -0.1788
  294MOL0     H40552   5.026   1.875   9.788 -1.4456 -2.0886  0.5683
  294MOL0     H40553   4.799   1.941   9.811  1.3909  3.0002  1.7542
  294MOL0     H40554   4.541   2.267   9.713  1.9469 -3.1318  0.1770
  294MOL0     H40555   4.349   2.430   9.777 -2.1337  0.3139 -0.5480
  294MOL0     H40556   2.267   2.388  10.414  2.5436 -0.1929 -0.6559
  294MOL0     H40557   2.054   2.384  10.372 -0.7023 -0.3134 -0.6211
  294MOL0     H40558   1.747   2.138  10.082 -0.9516 -0.9246  1.4939
  294MOL0     H40559   1.526   2.093  10.000  0.9916 -0.6696 -0.4991
  294MOL0     H40560   1.336   2.040  10.009 -0.0247 -1.6676  1.5434
  294MOL0     H40561   1.282   2.062  10.171  0.1968  1.4695  1.3203
  294MOL0     H40562   1.096   2.130   9.937  1.0077  1.8989  0.0069
  294MOL0     H40563   1.063   2.116  10.112 -0.6712  0.2934 -0.1656
  294MOL0     H40564   1.133   1.908   9.899 -2.0005  1.0629 -1.0851
  294MOL0     H40565   1.144   1.872  10.081 -1.5693  0.7009  0.9287
  294MOL0     H40566   0.901   1.935   9.907  3.3621 -0.0679 -2.4632
  294MOL0     H40567   0.895   1.911  10.087 -1.6059 -0.4595 -0.4590
  294MOL0     H40568   0.967   1.540   9.882 -4.5603 -0.6153 -0.1355
  294MOL0     H40569   1.373   2.461  10.149  0.7536  1.4647  2.7405
  294MOL0     H40570   1.676   2.598  10.287  0.4666 -0.2013 -0.3318
  294MOL0     H40571   1.672   2.639  10.113 -3.6071  1.4000 -2.6049
  294MOL0     H40572   1.533   2.646  10.223  0.9242  1.2374 -0.9122
  295MOL0     O40573   0.473   5.003  10.070 -0.4230  0.5370  0.2087
  295MOL0     C40574   0.447   4.882  10.081 -0.4294  0.4694  0.1470
  295MOL0     O40575   0.536   4.788  10.135 -0.4914 -0.2335  0.6576
  295MOL0     C40576   0.648   4.840  10.201  0.0913  0.3428  0.0541
  295MOL0     C40577   0.767   4.889  10.137 -0.2813 -0.5004  0.1409
  295MOL0     C40578   0.881   4.929  10.203 -0.3145 -0.8314  0.6078
  295MOL0     C40579   0.880   4.930  10.344  0.0483 -0.0825  0.7018
  295MOL0     O40580   0.992   4.952  10.418  0.1572  0.4543 -0.4103
  295MOL0     C40581   1.118   4.954  10.353 -0.1720 -0.6004 -0.1880
  295MOL0     C40582   1.223   5.017  10.437 -1.2885 -0.2131  0.2431
  295MOL0     C40583   1.284   4.925  10.538  0.1518 -0.4459  0.2960
  295MOL0     C40584   1.389   4.998  10.608 -0.1048 -0.0432 -0.3623
  295MOL0     C40585   1.502   5.049  10.520 -0.1524 -0.1224  0.3435
  295MOL0     C40586   1.632   5.064  10.596 -0.0285 -0.5115  0.6073
  295MOL0     C40587   1.626   5.160  10.716 -0.2528 -0.4538 -0.6957
  295MOL0     C40588   1.760   5.171  10.782  0.6367  0.1360  0.0628
  295MOL0     N40589   1.869   5.235  10.720  0.6688  0.5296  0.2190
  295MOL0     C40590   1.871   5.367  10.679  0.2189  0.6119  0.3493
  295MOL0     C40591   1.977   5.382  10.606  0.6088  0.1351  0.7131
  295MOL0     C40592   2.013   5.507  10.535  0.5609 -0.8100 -0.5464
  295MOL0     C40593   2.078   5.607  10.631 -0.8502  0.4893  0.0011
  295MOL0     C40594   2.230   5.555  10.631  0.0414 -0.2068 -0.0194
  295MOL0     C40595   2.319   5.620  10.734  0.1682 -0.6914 -0.3925
  295MOL0     O40596   2.336   5.753  10.698  0.5832 -0.2271 -0.5735
  295MOL0     C40597   2.454   5.783  10.623  0.2215  0.1917 -0.2504
  295MOL0     C40598   2.529   5.691  10.555 -0.1369 -0.2590 -0.0228
  295MOL0     C40599   2.646   5.731  10.490 -0.1862  0.8920  1.1617
  295MOL0     C40600   2.746   5.629  10.423  0.2860  0.3799 -0.8639
  295MOL0     C40601   2.686   5.871  10.489  0.7018 -0.0988 -0.2750
  295MOL0     C40602   2.806   5.934  10.424 -0.3174 -0.1525 -0.4475
  295MOL0     O40603   2.816   6.073  10.427  0.3847 -0.2433 -0.2395
  295MOL0     C40604   2.916   6.134  10.351  0.5971 -0.3254 -0.2563
  295MOL0     C40605   2.967   6.259  10.401  0.4462 -0.5327 -0.5889
  295MOL0     C40606   3.067   6.331  10.338 -0.4101 -0.1567  0.6580
  295MOL0     C40607   3.115   6.280  10.211  0.2668  0.3926 -0.3983
  295MOL0     O40608   3.210   6.352  10.137  0.1443 -0.9456 -0.3751
  295MOL0     C40609   3.218   6.325   9.993 -0.5124 -0.0395 -0.5353
  295MOL0     C40610   3.299   6.434   9.919  0.1736  0.8988 -0.5678
  295MOL0     C40611   3.435   6.478   9.982  0.6185  0.9369  0.4670
  295MOL0     C40612   3.538   6.361   9.997  0.2644  0.6210  0.4035
  295MOL0     C40613   3.651   6.401  10.085 -0.5923  0.2071  0.1049
  295MOL0     C40614   3.768   6.303  10.099  0.4058 -0.3771  0.5264
  295MOL0     C40615   3.885   6.347  10.190 -0.5572 -1.5101  0.1277
  295MOL0     C40616   4.004   6.254  10.174 -1.3059 -0.8063  0.1019
  295MOL0    Cl40617   3.949   6.089  10.215  0.1130 -0.3901  0.5571
  295MOL0     C40618   3.079   6.153  10.174  0.7535 -0.5991  0.5934
  295MOL0     C40619   2.973   6.082  10.234 -0.7707 -0.6396 -0.1620
  295MOL0     O40620   2.900   5.867  10.398  0.2438 -0.6672  0.1249
  295MOL0     C40621   2.601   5.965  10.559 -0.0331  0.5037  0.3052
  295MOL0     C40622   2.481   5.921  10.616  0.2543  0.2207 -0.7673
  295MOL0     N40623   2.040   5.263  10.606 -0.1209  0.0812  0.7256
  295MOL0     N40624   1.979   5.175  10.674 -0.0392 -0.0377  0.4216
  295MOL0     C40625   0.766   4.873  10.411  0.3330 -0.2128  0.3458
  295MOL0     C40626   0.648   4.834  10.338 -0.4669  0.3798 -0.7043
  295MOL0     C40627   0.310   4.836  10.043  0.1420 -0.2794  0.2042
  295MOL0     C40628   0.259   4.726  10.123 -0.3219 -0.7487 -0.0863
  295MOL0     C40629   0.121   4.695  10.102  0.4122  0.2485 -0.7180
  295MOL0     C40630   0.045   4.758  10.002  0.1033  0.3201 -0.4484
  295MOL0     O40631  -0.085   4.714   9.986  0.3622  0.4450 -0.4256
  295MOL0     C40632  -0.139   4.694   9.852 -0.7512 -0.1763  0.6350
  295MOL0     C40633  -0.265   4.597   9.858  0.4498 -0.6884 -0.6491
  295MOL0     C40634  -0.269   4.493   9.965 -0.1668  0.4265 -0.8124
  295MOL0     C40635  -0.382   4.387   9.949  0.0164  0.5666 -0.2598
  295MOL0     C40636  -0.513   4.429   9.990  0.1214 -0.3022 -0.6876
  295MOL0     C40637  -0.628   4.456  10.014 -0.4633 -0.6717 -1.0181
  295MOL0     C40638   0.108   4.859   9.924  0.6372 -0.0750 -0.3416
  295MOL0     C40639   0.238   4.895   9.942 -0.3313 -0.1905 -0.3846
  295MOL0     C40640   0.300   5.005   9.852  1.0247 -0.1215  1.1016
  295MOL0     H40641   0.759   4.897  10.029  1.0307 -1.9244 -0.1067
  295MOL0     H40642   0.958   4.968  10.138 -2.2301 -0.0978 -1.3491
  295MOL0     H40643   1.118   5.021  10.267  0.4265  0.9967  1.0046
  295MOL0     H40644   1.140   4.849  10.327 -1.4885 -1.5631  2.2482
  295MOL0     H40645   1.297   5.038  10.359 -2.7136  0.9853 -0.8477
  295MOL0     H40646   1.181   5.106  10.483 -3.0178 -0.4479 -0.7893
  295MOL0     H40647   1.217   4.888  10.616  0.4980  0.2425  0.9339
  295MOL0     H40648   1.336   4.843  10.489 -0.0876  0.1495 -0.9886
  295MOL0     H40649   1.343   5.076  10.670  0.5136  0.4353 -0.4815
  295MOL0     H40650   1.438   4.924  10.672 -1.0839  0.2379  0.7422
  295MOL0     H40651   1.474   5.147  10.480 -1.0580 -0.1725  0.8227
  295MOL0     H40652   1.522   4.978  10.439  2.4202 -2.7549  3.0592
  295MOL0     H40653   1.662   4.963  10.624  0.5923 -0.2947  0.7598
  295MOL0     H40654   1.706   5.109  10.529 -0.9229  1.6254  0.9777
  295MOL0     H40655   1.561   5.111  10.789  2.1530 -3.9893 -0.7043
  295MOL0     H40656   1.594   5.263  10.697  2.5837  1.6157  4.1285
  295MOL0     H40657   1.745   5.230  10.873  2.3090  1.7025 -0.6350
  295MOL0     H40658   1.781   5.069  10.816 -1.2028 -1.1640 -2.4115
  295MOL0     H40659   1.798   5.446  10.691 -0.7686 -0.2475  0.1506
  295MOL0     H40660   1.929   5.554  10.482  0.0449 -2.4015 -1.1998
  295MOL0     H40661   2.085   5.482  10.457  1.4108 -1.1327  0.3197
  295MOL0     H40662   2.080   5.709  10.592 -0.7926  1.2547  1.8873
  295MOL0     H40663   2.029   5.608  10.729 -1.1773 -0.0040 -0.1553
  295MOL0     H40664   2.234   5.448  10.655 -1.3098 -0.0713  0.9369
  295MOL0     H40665   2.284   5.556  10.536  2.0611  3.4976  0.9757
  295MOL0     H40666   2.260   5.627  10.825  0.7254 -1.5513  0.0424
  295MOL0     H40667   2.410   5.562  10.749  0.6793  0.2684  0.3503
  295MOL0     H40668   2.497   5.587  10.551 -0.4786 -0.1257 -2.3172
  295MOL0     H40669   2.696   5.533  10.411 -2.1439  1.2234  1.5289
  295MOL0     H40670   2.840   5.621  10.479  1.5984  5.1592 -1.8979
  295MOL0     H40671   2.782   5.657  10.323  0.8718  0.2003 -0.7092
  295MOL0     H40672   2.923   6.309  10.487  1.5761  0.7570 -0.7261
  295MOL0     H40673   3.098   6.423  10.386 -1.1725  0.1581  0.5665
  295MOL0     H40674   3.274   6.233   9.977  0.6455  0.5357  0.1082
  295MOL0     H40675   3.115   6.324   9.956 -1.0567 -2.9034  0.7854
  295MOL0     H40676   3.326   6.411   9.816  2.0348 -1.2076  0.2897
  295MOL0     H40677   3.237   6.523   9.907 -0.4289  0.6555  0.5797
  295MOL0     H40678   3.412   6.520  10.080 -0.2580  5.2102 -1.3290
  295MOL0     H40679   3.477   6.560   9.923 -0.9990  1.2600 -0.2909
  295MOL0     H40680   3.573   6.326   9.899  2.4160 -3.1508  2.2950
  295MOL0     H40681   3.477   6.276  10.029 -0.8163  1.7660  1.5040
  295MOL0     H40682   3.681   6.493  10.033 -2.0287 -0.3009 -1.7161
  295MOL0     H40683   3.603   6.432  10.178 -3.2521 -0.8705 -0.8079
  295MOL0     H40684   3.809   6.285  10.000 -1.1991 -2.4715  0.1729
  295MOL0     H40685   3.728   6.204  10.124  1.0773 -0.4672  1.2885
  295MOL0     H40686   3.857   6.339  10.296 -0.2847  0.3783  0.3683
  295MOL0     H40687   3.926   6.446  10.170  1.6047 -1.9356  2.0435
  295MOL0     H40688   4.091   6.277  10.236 -1.5666 -1.5442  0.7475
  295MOL0     H40689   4.037   6.246  10.070  0.4271 -2.8007  0.7324
  295MOL0     H40690   3.127   6.105  10.089 -2.6980  0.2563 -2.0343
  295MOL0     H40691   2.937   5.990  10.189  0.6480 -0.6737 -1.2824
  295MOL0     H40692   2.635   6.068  10.564  2.1778 -0.2290  1.9904
  295MOL0     H40693   2.418   5.982  10.681 -1.4358 -2.4723  0.2914
  295MOL0     H40694   0.780   4.863  10.518  2.4792 -0.7309  0.0715
  295MOL0     H40695   0.564   4.787  10.388  0.6564  0.8582  1.8272
  295MOL0     H40696   0.321   4.673  10.195  0.5076  0.0694 -0.1788
  295MOL0     H40697   0.076   4.618  10.164  1.8475  0.1680  0.2523
  295MOL0     H40698  -0.171   4.795   9.823 -1.9183 -0.1660  1.8437
  295MOL0     H40699  -0.056   4.656   9.792  1.1437  0.0577  2.9539
  295MOL0     H40700  -0.277   4.546   9.762 -2.6731  0.7263 -1.1435
  295MOL0     H40701  -0.356   4.659   9.862 -0.7304 -2.2811 -1.4588
  295MOL0     H40702  -0.175   4.436   9.959  1.8975  3.3200  1.0396
  295MOL0     H40703  -0.290   4.540  10.062  0.2115 -0.5751 -0.2322
  295MOL0     H40704  -0.359   4.299  10.010 -0.1749  0.4241 -0.3904
  295MOL0     H40705  -0.396   4.349   9.847 -2.4206  1.4498 -0.3183
  295MOL0     H40706  -0.732   4.481  10.024  0.4399  2.8491  1.3524
  295MOL0     H40707   0.058   4.920   9.850  2.4279  1.0953 -0.6548
  295MOL0     H40708   0.395   4.977   9.806 -0.7356 -1.1832 -2.1841
  295MOL0     H40709   0.221   5.023   9.778 -2.7951  0.8074  4.9965
  295MOL0     H40710   0.297   5.097   9.911 -0.0255  1.2157 -0.9260
  296MOL0     O40711   0.290   5.827   6.215 -0.6610  0.5163 -0.6558
  296MOL0     C40712   0.231   5.906   6.141 -0.8399 -0.4113  0.0491
  296MOL0     O40713   0.290   6.006   6.074  0.5360  0.6029  0.1401
  296MOL0     C40714   0.413   6.060   6.093 -0.0075  0.8525 -0.0644
  296MOL0     C40715   0.495   6.039   6.205  0.3711 -0.5025  0.2160
  296MOL0     C40716   0.619   6.106   6.217 -0.7715  0.5069 -0.2265
  296MOL0     C40717   0.658   6.190   6.107  0.1352  0.7170  0.0305
  296MOL0     O40718   0.776   6.261   6.126 -0.5895 -0.3180  0.5461
  296MOL0     C40719   0.856   6.286   6.014  0.6200  0.0949  0.0494
  296MOL0     C40720   0.998   6.308   6.053 -0.2572 -0.4058  0.4063
  296MOL0     C40721   1.059   6.208   6.142 -0.2264 -0.4872 -1.1479
  296MOL0     C40722   1.195   6.264   6.183  0.0260  0.0115  0.0732
  296MOL0     C40723   1.290   6.162   6.256 -0.5979 -0.1722 -0.4827
  296MOL0     C40724   1.245   6.133   6.400 -0.7664 -0.0279 -1.1906
  296MOL0     C40725   1.364   6.044   6.471  0.0821 -0.2884  0.0718
  296MOL0     C40726   1.309   5.977   6.597  0.1445  0.4204  1.3560
  296MOL0     N40727   1.412   5.885   6.636 -0.0882  0.1018 -0.3784
  296MOL0     C40728   1.408   5.759   6.593 -0.0796 -0.8728  1.0087
  296MOL0     C40729   1.525   5.703   6.640 -0.5502 -0.1521 -0.5215
  296MOL0     C40730   1.550   5.557   6.613 -0.0352  0.1833  0.1235
  296MOL0     C40731   1.656   5.536   6.507  0.6928 -0.7051  0.9744
  296MOL0     C40732   1.637   5.407   6.420 -0.0719 -0.4342 -0.0142
  296MOL0     C40733   1.651   5.284   6.506  0.3347 -0.2930  0.0035
  296MOL0     O40734   1.760   5.279   6.599  0.1911  0.4207  0.3411
  296MOL0     C40735   1.889   5.277   6.555 -0.2037 -0.5733  0.8637
  296MOL0     C40736   1.980   5.320   6.643  0.0282 -0.4173 -0.5419
  296MOL0     C40737   2.114   5.321   6.619  1.1447  0.3953 -0.8569
  296MOL0     C40738   2.202   5.374   6.730 -0.0422 -1.2200  0.4859
  296MOL0     C40739   2.163   5.282   6.494  0.6405  1.1053  0.4320
  296MOL0     C40740   2.309   5.283   6.452  0.5109 -0.1424  0.0042
  296MOL0     O40741   2.398   5.268   6.548  0.4997 -0.7366  0.2818
  296MOL0     C40742   2.535   5.288   6.532 -0.3053 -0.0149 -0.4288
  296MOL0     C40743   2.607   5.207   6.446  0.5573 -0.4049 -0.1555
  296MOL0     C40744   2.742   5.227   6.421  0.7086 -0.1669 -0.2261
  296MOL0     C40745   2.808   5.338   6.477 -0.6227 -0.0447  0.5728
  296MOL0     O40746   2.944   5.344   6.447 -0.1571  0.1915 -0.0892
  296MOL0     C40747   3.014   5.458   6.489 -0.3586 -0.0630 -0.2722
  296MOL0     C40748   3.151   5.459   6.431 -0.9438  0.2256 -0.2154
  296MOL0     C40749   3.214   5.599   6.454  0.4245 -0.0857  0.2343
  296MOL0     C40750   3.357   5.594   6.405 -1.3205  0.1910 -1.0373
  296MOL0     C40751   3.421   5.733   6.411 -0.8876 -1.1804 -0.2102
  296MOL0     C40752   3.404   5.827   6.287  0.4467  0.5503 -0.0981
  296MOL0     C40753   3.522   5.930   6.288 -0.6161 -0.2120 -0.3478
  296MOL0     C40754   3.518   6.025   6.169 -0.0160 -0.7198 -0.1884
  296MOL0    Cl40755   3.371   6.133   6.169  0.3682  0.3325 -0.1563
  296MOL0     C40756   2.742   5.408   6.584 -0.4883  0.1456  0.1583
  296MOL0     C40757   2.604   5.384   6.611 -0.2752 -0.0525  0.1274
  296MOL0     O40758   2.334   5.302   6.331  0.5224 -0.1431 -0.6693
  296MOL0     C40759   2.071   5.229   6.402  1.3018  0.2101 -0.4076
  296MOL0     C40760   1.932   5.219   6.433 -0.7498  0.0502 -0.4935
  296MOL0     N40761   1.599   5.800   6.712  0.0162  0.4472  0.5171
  296MOL0     N40762   1.531   5.911   6.698  0.0740 -0.6434 -0.5088
  296MOL0     C40763   0.577   6.205   5.999  0.2955 -0.6589 -0.0184
  296MOL0     C40764   0.461   6.138   5.992 -0.5434  0.0834 -0.3406
  296MOL0     C40765   0.092   5.887   6.126  0.0343 -0.3651  0.9832
  296MOL0     C40766   0.052   5.747   6.143 -0.8630  0.6669 -0.4333
  296MOL0     C40767  -0.083   5.715   6.137  0.3352  0.4486 -0.2285
  296MOL0     C40768  -0.179   5.817   6.110 -0.1745  0.5115 -1.4497
  296MOL0     O40769  -0.311   5.783   6.103 -0.6066  0.1102  0.1801
  296MOL0     C40770  -0.408   5.881   6.079 -0.5016 -0.4223 -0.1501
  296MOL0     C40771  -0.548   5.822   6.063  0.2909  0.0547 -0.1681
  296MOL0     C40772  -0.546   5.707   5.959 -0.1284 -0.8761 -0.7404
  296MOL0     C40773  -0.687   5.671   5.914  0.1417 -0.0915  0.8206
  296MOL0     C40774  -0.758   5.580   5.999  0.7455  0.6766  0.5377
  296MOL0     C40775  -0.826   5.512   6.076  0.2069  0.0894  0.1016
  296MOL0     C40776  -0.138   5.949   6.102  0.3188 -0.0615  0.0266
  296MOL0     C40777  -0.005   5.988   6.105 -0.2334  0.2599  0.3074
  296MOL0     C40778   0.030   6.134   6.087  0.2007  0.1712  0.0815
  296MOL0     H40779   0.439   5.989   6.283 -2.2508 -0.7847 -1.7139
  296MOL0     H40780   0.686   6.094   6.301 -2.1593  0.0977  0.8726
  296MOL0     H40781   0.812   6.371   5.961 -1.6119 -1.3400 -0.5478
  296MOL0     H40782   0.848   6.204   5.941  1.5272  0.1622 -0.1421
  296MOL0     H40783   1.053   6.317   5.959  0.1158 -1.7819  0.4666
  296MOL0     H40784   1.006   6.406   6.100  0.3790 -1.0162  1.6256
  296MOL0     H40785   0.985   6.184   6.219  0.8927 -0.6105 -0.0790
  296MOL0     H40786   1.072   6.117   6.082  0.1193  0.1788 -2.1030
  296MOL0     H40787   1.249   6.307   6.099  0.0334  3.0911  1.5026
  296MOL0     H40788   1.168   6.350   6.246 -3.6405 -0.8525 -0.0804
  296MOL0     H40789   1.386   6.214   6.267 -1.2063  1.1199 -1.0890
  296MOL0     H40790   1.303   6.071   6.198 -1.2444 -1.3072  1.1028
  296MOL0     H40791   1.228   6.221   6.463 -2.3865 -1.5386  0.6266
  296MOL0     H40792   1.157   6.067   6.395 -1.4277  0.7022  0.2295
  296MOL0     H40793   1.445   6.113   6.495 -0.1918  0.1087 -0.1303
  296MOL0     H40794   1.397   5.971   6.396 -1.5685 -2.3631  1.2731
  296MOL0     H40795   1.288   6.048   6.678  2.4911 -0.4750  2.8653
  296MOL0     H40796   1.215   5.924   6.580  0.2577  0.8398 -0.8230
  296MOL0     H40797   1.333   5.716   6.527 -0.4563 -1.0215  1.5315
  296MOL0     H40798   1.457   5.507   6.584 -0.3046  0.8398 -0.1716
  296MOL0     H40799   1.579   5.514   6.709 -2.5656 -3.5394 -0.5809
  296MOL0     H40800   1.653   5.620   6.437 -0.1258 -0.0473  1.7889
  296MOL0     H40801   1.758   5.543   6.545  1.2555 -0.6344 -0.4620
  296MOL0     H40802   1.543   5.406   6.364  0.6366  0.3722 -1.2855
  296MOL0     H40803   1.714   5.406   6.342  0.8114 -1.7658  0.8310
  296MOL0     H40804   1.564   5.272   6.571 -0.2839  1.0621 -0.5481
  296MOL0     H40805   1.644   5.192   6.447  0.2577 -2.0383  2.5854
  296MOL0     H40806   1.945   5.349   6.742  2.5111 -1.2649  0.6493
  296MOL0     H40807   2.137   5.423   6.804 -0.3762  1.1525 -1.2420
  296MOL0     H40808   2.257   5.452   6.677 -2.6001  0.5760  0.2672
  296MOL0     H40809   2.261   5.294   6.776 -1.7385 -2.6984  0.2214
  296MOL0     H40810   2.557   5.124   6.397 -0.6330  1.8272 -2.9516
  296MOL0     H40811   2.802   5.159   6.361  0.5477 -1.8210  1.4179
  296MOL0     H40812   2.952   5.546   6.470 -0.8012 -0.0959  0.9012
  296MOL0     H40813   3.028   5.448   6.597 -2.8092 -0.0841  0.0975
  296MOL0     H40814   3.212   5.379   6.473 -1.5921  0.3307  0.9922
  296MOL0     H40815   3.131   5.446   6.324  1.0995 -0.1869 -0.5783
  296MOL0     H40816   3.216   5.621   6.561 -2.2937  0.1164  0.2997
  296MOL0     H40817   3.155   5.686   6.424 -0.8903 -1.2165 -0.6388
  296MOL0     H40818   3.358   5.553   6.304  3.9443 -3.8832  0.2412
  296MOL0     H40819   3.416   5.524   6.464  1.0053  2.7564 -0.1037
  296MOL0     H40820   3.384   5.786   6.499 -0.8129  1.5319 -1.7223
  296MOL0     H40821   3.525   5.700   6.425 -1.7367 -5.4829 -2.2973
  296MOL0     H40822   3.312   5.882   6.305 -0.1511 -1.1376  2.5665
  296MOL0     H40823   3.400   5.760   6.200 -0.4803  0.3738  0.0741
  296MOL0     H40824   3.611   5.869   6.296 -1.5827 -1.5430  0.6996
  296MOL0     H40825   3.521   5.995   6.376  2.9323 -0.8956  0.3511
  296MOL0     H40826   3.520   5.974   6.072  0.8406  3.5154 -2.6445
  296MOL0     H40827   3.607   6.088   6.171  0.6232 -1.6087  0.4120
  296MOL0     H40828   2.807   5.472   6.643 -0.3149  1.7699 -1.7130
  296MOL0     H40829   2.540   5.432   6.684 -0.7881 -0.9231  0.2715
  296MOL0     H40830   2.111   5.199   6.306  2.2460 -0.1916  0.1035
  296MOL0     H40831   1.871   5.163   6.362  1.0003 -3.3107  0.4739
  296MOL0     H40832   0.596   6.291   5.935 -0.5696  0.1716  0.8071
  296MOL0     H40833   0.395   6.157   5.908 -1.5990  0.7325  0.6011
  296MOL0     H40834   0.124   5.667   6.161  0.7547  2.1720  0.1409
  296MOL0     H40835  -0.120   5.613   6.134  0.8007  0.3016 -1.7597
  296MOL0     H40836  -0.408   5.951   6.163  3.0389  0.1670 -0.4821
  296MOL0     H40837  -0.389   5.940   5.990 -0.0135  1.2026  0.9806
  296MOL0     H40838  -0.614   5.900   6.025  1.2083  0.3127 -1.2872
  296MOL0     H40839  -0.576   5.791   6.164 -0.5833  0.8929 -0.1394
  296MOL0     H40840  -0.481   5.734   5.875  3.1729 -0.9238  1.6013
  296MOL0     H40841  -0.507   5.614   6.000  1.7638  1.4810  3.4574
  296MOL0     H40842  -0.681   5.617   5.819 -0.4920  0.0609  0.6884
  296MOL0     H40843  -0.746   5.763   5.901  1.5200  0.9257  1.4781
  296MOL0     H40844  -0.875   5.444   6.143 -1.2283  0.3691 -0.6430
  296MOL0     H40845  -0.212   6.029   6.110  2.7561  2.1920  2.7598
  296MOL0     H40846   0.092   6.170   6.169  1.9178  3.4348 -2.4056
  296MOL0     H40847   0.084   6.144   5.992 -0.1149 -1.6216 -0.3216
  296MOL0     H40848  -0.063   6.192   6.092  0.8794  1.1805  1.6926
  297MOL0     O40849   0.868   3.693   2.906  0.0514 -0.0646  0.6240
  297MOL0     C40850   0.900   3.579   2.928  0.3380  0.7158  0.3901
  297MOL0     O40851   1.027   3.531   2.959  0.4068  0.4507  0.4437
  297MOL0     C40852   1.125   3.611   2.922 -0.3142  0.0031 -0.4018
  297MOL0     C40853   1.157   3.624   2.786 -0.3013  0.0394  0.4170
  297MOL0     C40854   1.261   3.710   2.750 -0.6242  0.5195  0.2526
  297MOL0     C40855   1.354   3.763   2.842  0.1638  0.0021  0.3970
  297MOL0     O40856   1.461   3.832   2.787  0.0144 -0.3447 -0.6946
  297MOL0     C40857   1.567   3.867   2.876 -0.2521 -0.5157  0.8236
  297MOL0     C40858   1.693   3.891   2.791 -0.2713 -0.3368 -0.1045
  297MOL0     C40859   1.806   3.969   2.863  0.2412  0.5133  0.7243
  297MOL0     C40860   1.931   3.982   2.765  0.9428 -0.1939 -0.3817
  297MOL0     C40861   2.027   4.073   2.838  0.9636 -0.6607  0.7883
  297MOL0     C40862   2.158   4.071   2.778  0.7946  0.2199  0.6332
  297MOL0     C40863   2.233   4.192   2.810  0.6890 -0.9839 -0.6271
  297MOL0     C40864   2.216   4.300   2.700 -0.1613 -0.1106 -0.3582
  297MOL0     N40865   2.261   4.438   2.726 -0.1222 -0.4208  0.3316
  297MOL0     C40866   2.384   4.493   2.759  0.7081 -0.1229 -0.2980
  297MOL0     C40867   2.364   4.631   2.757  0.3160  0.1547 -0.2036
  297MOL0     C40868   2.458   4.742   2.789  0.5299  0.1926  0.2924
  297MOL0     C40869   2.410   4.837   2.907 -0.0965 -1.7248 -1.0143
  297MOL0     C40870   2.520   4.932   2.966 -0.1897  0.2675 -0.4995
  297MOL0     C40871   2.609   4.985   2.854 -0.1654 -0.2348 -0.1629
  297MOL0     O40872   2.678   5.102   2.894  0.4556 -0.2268 -0.6575
  297MOL0     C40873   2.788   5.144   2.839  0.1421  0.0247  0.1546
  297MOL0     C40874   2.849   5.081   2.727 -0.2493 -0.5231  0.5730
  297MOL0     C40875   2.963   5.134   2.665 -0.3211 -1.6216  0.7519
  297MOL0     C40876   3.020   5.067   2.534  0.0940 -0.1298 -0.2808
  297MOL0     C40877   3.023   5.254   2.716  0.5557  0.3127  0.3996
  297MOL0     C40878   3.146   5.319   2.652  0.5741  0.6175 -1.2117
  297MOL0     O40879   3.219   5.401   2.736 -0.3248  0.8151 -0.1582
  297MOL0     C40880   3.346   5.446   2.701  1.2322  0.5972  0.8398
  297MOL0     C40881   3.444   5.387   2.615  0.4100  1.3341 -0.7473
  297MOL0     C40882   3.567   5.435   2.591  0.4369  0.6465 -1.0119
  297MOL0     C40883   3.590   5.560   2.645 -0.2770 -0.1544 -0.1775
  297MOL0     O40884   3.710   5.629   2.609  0.3232 -0.2873  0.4122
  297MOL0     C40885   3.830   5.574   2.585 -0.2050 -0.1831  0.6101
  297MOL0     C40886   3.940   5.677   2.630 -0.7464 -0.1706  0.2871
  297MOL0     C40887   3.939   5.697   2.781  0.2740 -0.0968  0.1287
  297MOL0     C40888   4.059   5.784   2.812 -0.8107  0.3546 -0.3895
  297MOL0     C40889   4.056   5.838   2.953 -0.3157  0.0674 -0.6335
  297MOL0     C40890   4.180   5.933   2.973  0.9631  0.3589 -0.1210
  297MOL0     C40891   4.164   6.037   3.085 -0.6098  0.7974  0.0441
  297MOL0     C40892   4.284   6.132   3.107 -0.4665  0.0776  0.2933
  297MOL0    Cl40893   4.437   6.054   3.159 -0.3382  0.1002 -0.1380
  297MOL0     C40894   3.494   5.630   2.723  0.8105 -0.2421  0.3158
  297MOL0     C40895   3.366   5.572   2.744  0.6347  0.3560 -0.3379
  297MOL0     O40896   3.170   5.295   2.535  0.0394  0.2040 -0.0078
  297MOL0     C40897   2.964   5.312   2.830 -0.6592  0.9699 -0.0271
  297MOL0     C40898   2.848   5.261   2.890  0.9176  0.2378 -0.2004
  297MOL0     N40899   2.230   4.654   2.728  0.5577  0.6537 -0.5949
  297MOL0     N40900   2.176   4.538   2.710  0.0802  0.4155  0.7236
  297MOL0     C40901   1.332   3.734   2.976  0.9199  0.5594 -0.8228
  297MOL0     C40902   1.219   3.656   3.018 -0.8741  0.0264 -0.2881
  297MOL0     C40903   0.787   3.478   2.920 -0.1764 -0.3369 -0.5714
  297MOL0     C40904   0.716   3.472   2.797 -0.1796  0.8236  0.3387
  297MOL0     C40905   0.613   3.385   2.780  0.3334  0.0063  0.3983
  297MOL0     C40906   0.565   3.300   2.882 -1.3226  0.3741  0.0728
  297MOL0     O40907   0.451   3.225   2.856 -0.0983  0.3863  0.0818
  297MOL0     C40908   0.418   3.117   2.948 -1.1085 -0.9045  0.1177
  297MOL0     C40909   0.320   3.023   2.880  0.5212  0.3874  0.2837
  297MOL0     C40910   0.185   3.056   2.930  0.1116 -0.2102  0.5411
  297MOL0     C40911   0.077   2.978   2.850  0.3085  1.0355 -0.1074
  297MOL0     C40912   0.068   2.830   2.881 -0.2872  0.0899  0.2912
  297MOL0     C40913   0.044   2.714   2.893  0.1800  0.3236 -0.5413
  297MOL0     C40914   0.632   3.304   3.004 -0.8778 -0.3009  0.1008
  297MOL0     C40915   0.745   3.388   3.024  0.1054 -0.6710  0.2265
  297MOL0     C40916   0.801   3.401   3.163 -0.6299  0.5048 -0.5629
  297MOL0     H40917   1.097   3.578   2.708  0.3099  2.7805 -1.8149
  297MOL0     H40918   1.279   3.746   2.649 -2.3285  2.5885  0.6241
  297MOL0     H40919   1.596   3.781   2.938  0.3214 -2.7237 -2.2322
  297MOL0     H40920   1.533   3.948   2.940  1.0466  1.2507 -0.6250
  297MOL0     H40921   1.732   3.799   2.745 -1.0662 -0.6104 -0.2502
  297MOL0     H40922   1.657   3.956   2.711  2.0420 -1.7279 -2.4490
  297MOL0     H40923   1.780   4.073   2.884  0.7627  0.0539  4.2544
  297MOL0     H40924   1.836   3.925   2.959 -1.4806 -1.9640  0.2391
  297MOL0     H40925   1.982   3.888   2.741 -1.4048 -1.5808 -0.2521
  297MOL0     H40926   1.906   4.032   2.671  1.8693  1.5216  0.2468
  297MOL0     H40927   2.029   4.059   2.946  1.3961  2.1482  1.2316
  297MOL0     H40928   1.978   4.170   2.827 -0.8170 -1.3729  2.0989
  297MOL0     H40929   2.223   3.990   2.812  0.6792 -0.2747 -0.2913
  297MOL0     H40930   2.155   4.050   2.671  1.2979  0.8785  0.4795
  297MOL0     H40931   2.338   4.167   2.829  0.9392 -0.7221 -1.6176
  297MOL0     H40932   2.190   4.226   2.905  0.6890 -0.5966 -0.7601
  297MOL0     H40933   2.285   4.270   2.620  0.3350 -0.7449  0.2868
  297MOL0     H40934   2.113   4.295   2.664 -0.1508 -0.2070 -0.3765
  297MOL0     H40935   2.477   4.438   2.758  2.7205  2.9366 -2.4821
  297MOL0     H40936   2.452   4.803   2.699  0.8709  2.1453  1.5493
  297MOL0     H40937   2.553   4.692   2.812 -0.2081 -0.8906  1.0949
  297MOL0     H40938   2.325   4.891   2.864  0.3181 -0.7661 -0.6555
  297MOL0     H40939   2.367   4.779   2.989  0.4192  1.2956  1.5504
  297MOL0     H40940   2.465   5.017   3.006 -1.6793  0.1435 -2.1608
  297MOL0     H40941   2.572   4.872   3.042 -2.3007 -0.0318  0.7877
  297MOL0     H40942   2.674   4.906   2.817 -1.0379  0.0032 -2.3636
  297MOL0     H40943   2.554   5.014   2.764  0.6523  1.2923 -0.2028
  297MOL0     H40944   2.795   5.009   2.667  1.8250 -1.4941 -0.2525
  297MOL0     H40945   2.952   4.985   2.511 -1.0944 -0.2986  3.2648
  297MOL0     H40946   3.119   5.022   2.547  0.7958  0.8123 -1.9859
  297MOL0     H40947   3.012   5.132   2.446  1.4241  0.4365 -0.0163
  297MOL0     H40948   3.418   5.288   2.577 -1.2805  2.4873 -2.7894
  297MOL0     H40949   3.637   5.363   2.550  2.8229  1.9616  0.5547
  297MOL0     H40950   3.839   5.481   2.643 -1.2157 -0.5573  0.1978
  297MOL0     H40951   3.845   5.556   2.478 -0.4916  0.6694  0.4187
  297MOL0     H40952   4.038   5.638   2.600 -0.0031  1.3753  0.5813
  297MOL0     H40953   3.936   5.774   2.580  1.7088  0.4224  1.1144
  297MOL0     H40954   3.922   5.604   2.837  0.9931 -1.6908 -2.1594
  297MOL0     H40955   3.850   5.755   2.805  0.9685  0.5712  1.1592
  297MOL0     H40956   4.068   5.870   2.745 -0.8298  1.9715  1.5869
  297MOL0     H40957   4.154   5.731   2.798 -0.9312  0.6348 -2.6362
  297MOL0     H40958   3.967   5.900   2.971 -2.0158 -2.2567 -0.6544
  297MOL0     H40959   4.062   5.752   3.020 -1.0722  0.7383  0.3120
  297MOL0     H40960   4.195   5.984   2.877 -0.7932 -0.4153 -0.8611
  297MOL0     H40961   4.261   5.865   3.001 -0.5474 -1.0941  0.9055
  297MOL0     H40962   4.146   5.979   3.175 -2.0851  1.0597 -0.0599
  297MOL0     H40963   4.072   6.093   3.066  0.0706  1.5700 -1.1066
  297MOL0     H40964   4.267   6.194   3.195 -3.4904 -0.5374  0.2424
  297MOL0     H40965   4.287   6.203   3.024  0.5095  0.1150  0.3462
  297MOL0     H40966   3.529   5.724   2.762 -0.4161 -0.5264  2.2106
  297MOL0     H40967   3.290   5.625   2.801  0.7368  1.4751 -1.2301
  297MOL0     H40968   3.006   5.401   2.875  2.1649 -0.8794  1.2479
  297MOL0     H40969   2.799   5.310   2.973 -2.6451 -1.1857 -1.2610
  297MOL0     H40970   1.400   3.768   3.053  1.3298 -1.1403 -0.3827
  297MOL0     H40971   1.210   3.634   3.123  3.6804 -0.7329  0.1416
  297MOL0     H40972   0.745   3.537   2.715  2.8840  0.2236  0.8246
  297MOL0     H40973   0.564   3.404   2.685  0.6003 -0.5106  0.1537
  297MOL0     H40974   0.510   3.067   2.980  0.9234  2.7589  0.6792
  297MOL0     H40975   0.378   3.162   3.039 -3.3993 -1.0124 -0.7749
  297MOL0     H40976   0.350   2.919   2.899  1.7800  0.4355 -1.2071
  297MOL0     H40977   0.319   3.036   2.771  0.0184  0.1272  0.2555
  297MOL0     H40978   0.174   3.029   3.036 -1.0067 -1.7254  0.0677
  297MOL0     H40979   0.164   3.163   2.921 -1.7830 -0.5837  0.0797
  297MOL0     H40980   0.110   2.991   2.747  2.5532  1.6860  0.6323
  297MOL0     H40981  -0.022   3.015   2.879  0.0712  0.7692 -0.5616
  297MOL0     H40982   0.011   2.613   2.908  0.9372  0.0951 -0.3910
  297MOL0     H40983   0.584   3.247   3.083 -0.8518 -1.5868 -0.7687
  297MOL0     H40984   0.897   3.454   3.163 -1.0286  1.4420  2.6536
  297MOL0     H40985   0.730   3.456   3.226 -0.5035  0.6928 -0.5814
  297MOL0     H40986   0.831   3.306   3.208  0.1459  1.4361  1.0042
  298MOL0     O40987   1.818   0.120  10.747 -0.7594 -0.3303  0.0639
  298MOL0     C40988   1.806   0.230  10.694 -0.0978  0.4850 -0.2772
  298MOL0     O40989   1.905   0.327  10.684 -0.3542  0.0124  0.2583
  298MOL0     C40990   2.037   0.312  10.713  0.6655 -0.0366 -0.0413
  298MOL0     C40991   2.131   0.338  10.615  0.8102  0.3285  0.8613
  298MOL0     C40992   2.262   0.324  10.638 -0.3413 -0.8750  0.4662
  298MOL0     C40993   2.318   0.284  10.751  0.1563 -0.3805 -1.1642
  298MOL0     O40994   2.449   0.271  10.774 -0.3231  0.9220 -0.3109
  298MOL0     C40995   2.540   0.263  10.667  0.1039 -0.3353 -0.1214
  298MOL0     C40996   2.680   0.235  10.726  0.5322  0.0997 -0.4504
  298MOL0     C40997   2.785   0.224  10.621 -0.1988  0.4588  1.1478
  298MOL0     C40998   2.918   0.180  10.685  0.0120  0.0223 -0.0979
  298MOL0     C40999   3.032   0.174  10.585  0.4340  0.3252 -0.1362
  298MOL0     C41000   3.155   0.130  10.660  0.6406  0.3889 -0.2154
  298MOL0     C41001   3.276   0.135  10.572 -0.4302  1.0427 -0.3724
  298MOL0     C41002   3.264   0.057  10.450 -0.3140 -0.0049 -0.2968
  298MOL0     N41003   3.387   0.034  10.374  1.1714 -0.3350 -0.4967
  298MOL0     C41004   3.456   0.135  10.316 -0.1579  0.4703 -0.8384
  298MOL0     C41005   3.573   0.079  10.272  0.2720  0.1435 -0.9362
  298MOL0     C41006   3.671   0.141  10.186 -0.3236  0.1233 -0.5430
  298MOL0     C41007   3.796   0.193  10.259 -0.2558  0.0855 -0.4377
  298MOL0     C41008   3.914   0.210  10.170  0.0024 -0.2273 -0.1341
  298MOL0     C41009   3.991   0.090  10.147 -0.0866 -0.1035 -0.5379
  298MOL0     O41010   4.122   0.125  10.092 -0.2331  0.4738 -0.3854
  298MOL0     C41011   4.235   0.139  10.171 -0.2955 -0.2297 -0.2039
  298MOL0     C41012   4.251   0.119  10.303 -0.1863  0.3710 -0.0774
  298MOL0     C41013   4.370   0.156  10.371 -0.2785  0.4914 -0.0278
  298MOL0     C41014   4.361   0.142  10.527 -0.0559  0.0855  0.3738
  298MOL0     C41015   4.485   0.197  10.303 -0.3686  0.5490  0.3001
  298MOL0     C41016   4.619   0.224  10.358 -0.0351 -0.0582 -0.1556
  298MOL0     O41017   4.730   0.209  10.270  0.2195 -0.0808  0.6037
  298MOL0     C41018   4.848   0.169  10.327  0.4223  0.6506  0.6457
  298MOL0     C41019   4.908   0.056  10.274 -0.5544  0.1190 -0.3747
  298MOL0     C41020   5.032   0.014  10.322  0.0618  1.1382 -0.4142
  298MOL0     C41021   5.108   0.096  10.416 -0.1634  0.9263 -0.6596
  298MOL0     O41022   5.236   0.073  10.464 -0.0088  0.5879  0.3521
  298MOL0     C41023   5.264  -0.064  10.490 -0.2881 -0.2583  0.2700
  298MOL0     C41024   5.364  -0.095  10.369 -0.1862 -0.3634 -0.3723
  298MOL0     C41025   5.502  -0.043  10.390 -0.4084 -0.4743 -0.7871
  298MOL0     C41026   5.594  -0.040  10.265 -0.0105 -1.0243  1.0743
  298MOL0     C41027   5.735   0.002  10.293  0.1045 -0.2988  0.2151
  298MOL0     C41028   5.792   0.048  10.167 -0.0145  0.3659  0.4801
  298MOL0     C41029   5.947   0.055  10.174  0.0095 -0.5264  0.2204
  298MOL0     C41030   6.023   0.164  10.088  0.9011  0.3177  0.2841
  298MOL0    Cl41031   5.988   0.156   9.911 -0.2008 -0.0995 -0.2161
  298MOL0     C41032   5.052   0.208  10.466  0.7015  0.0630 -0.8245
  298MOL0     C41033   4.923   0.248  10.421  0.0966  0.8049 -0.0510
  298MOL0     O41034   4.626   0.258  10.479 -0.3917 -0.7711  0.4770
  298MOL0     C41035   4.474   0.212  10.158 -0.4221 -0.3846 -0.8441
  298MOL0     C41036   4.347   0.190  10.102 -0.6012 -0.1606 -0.0320
  298MOL0     N41037   3.558  -0.058  10.289 -0.1930 -0.4825  0.4194
  298MOL0     N41038   3.447  -0.080  10.339  0.8735 -0.0515 -0.1389
  298MOL0     C41039   2.229   0.258  10.858 -0.0501 -1.9257 -0.0813
  298MOL0     C41040   2.086   0.269  10.839 -0.2023 -0.0840  0.3592
  298MOL0     C41041   1.679   0.265  10.645  0.6236  0.2640 -0.3597
  298MOL0     C41042   1.584   0.297  10.742 -0.8628  1.2020  0.0267
  298MOL0     C41043   1.472   0.365  10.710 -0.0111 -0.1814  0.5221
  298MOL0     C41044   1.437   0.394  10.578  0.0241  0.3031  0.1171
  298MOL0     O41045   1.319   0.437  10.530 -0.3871  0.3448 -0.1792
  298MOL0     C41046   1.194   0.431  10.601 -0.0021 -0.3857 -0.0479
  298MOL0     C41047   1.093   0.507  10.518 -0.0377 -0.3791 -0.4488
  298MOL0     C41048   0.953   0.446  10.541 -0.3095 -0.2461 -0.1995
  298MOL0     C41049   0.838   0.546  10.515  0.0982 -0.1375  0.0759
  298MOL0     C41050   0.851   0.614  10.393  0.1466 -0.6508  0.2596
  298MOL0     C41051   0.859   0.689  10.301 -0.2584 -0.5662 -0.0563
  298MOL0     C41052   1.532   0.363  10.483  1.0555 -0.1779  1.1283
  298MOL0     C41053   1.655   0.302  10.511  0.3162  0.7006  0.4726
  298MOL0     C41054   1.756   0.269  10.402  0.1835  0.8505  0.3788
  298MOL0     H41055   2.095   0.383  10.523  3.0236  4.4271  1.7996
  298MOL0     H41056   2.326   0.346  10.553 -0.4261  3.4215  1.2958
  298MOL0     H41057   2.552   0.351  10.604 -2.7591  0.2048 -0.0599
  298MOL0     H41058   2.506   0.182  10.601  1.3431  0.4057 -1.7230
  298MOL0     H41059   2.713   0.309  10.800  3.0737  1.1037 -2.4201
  298MOL0     H41060   2.675   0.142  10.784 -2.1665 -0.2959 -1.1874
  298MOL0     H41061   2.748   0.152  10.548 -1.6809  1.5797  0.7418
  298MOL0     H41062   2.792   0.323  10.575 -0.6271  0.4072  0.9647
  298MOL0     H41063   2.947   0.248  10.765  2.4729  0.1229 -0.9905
  298MOL0     H41064   2.910   0.079  10.727  0.2151 -1.3250 -3.0729
  298MOL0     H41065   3.047   0.268  10.531 -0.2467  0.8208  0.5184
  298MOL0     H41066   3.005   0.099  10.509  2.2571  0.6499 -1.1714
  298MOL0     H41067   3.166   0.183  10.755 -0.1471 -0.8711  0.6048
  298MOL0     H41068   3.144   0.027  10.695  2.4923 -0.1998 -1.2449
  298MOL0     H41069   3.359   0.093  10.628  0.9062  2.3004 -1.3500
  298MOL0     H41070   3.308   0.238  10.555  2.1499  0.2751 -0.6107
  298MOL0     H41071   3.237  -0.047  10.471 -0.5474  0.3270  1.0799
  298MOL0     H41072   3.191   0.094  10.377  1.7712 -2.3191 -3.8480
  298MOL0     H41073   3.420   0.236  10.301 -2.3442  0.2168  1.9065
  298MOL0     H41074   3.632   0.230  10.135  1.6904  3.2912  2.9111
  298MOL0     H41075   3.690   0.063  10.112 -0.6232 -0.3926 -0.0867
  298MOL0     H41076   3.773   0.281  10.320 -0.1893  0.5327 -1.0550
  298MOL0     H41077   3.830   0.128  10.341  1.0498 -0.2785 -1.2497
  298MOL0     H41078   3.884   0.258  10.076 -0.3263  1.0245  0.5925
  298MOL0     H41079   3.987   0.279  10.212 -2.6513  2.2341  0.7590
  298MOL0     H41080   3.998   0.026  10.236 -1.9211 -0.9816 -0.9653
  298MOL0     H41081   3.929   0.035  10.074 -1.4308  0.4545  0.1460
  298MOL0     H41082   4.174   0.057  10.349  0.6757 -1.7793 -1.3781
  298MOL0     H41083   4.275   0.078  10.551 -0.8141  1.1851  0.6859
  298MOL0     H41084   4.363   0.243  10.570  1.7219  0.8458 -1.3354
  298MOL0     H41085   4.447   0.084  10.561 -0.2019  1.5931  3.6844
  298MOL0     H41086   4.859   0.005  10.192 -2.5968  3.2540 -1.2882
  298MOL0     H41087   5.062  -0.085  10.288  0.1006  0.0464  2.4993
  298MOL0     H41088   5.306  -0.085  10.589 -1.0833  2.5294  1.2946
  298MOL0     H41089   5.182  -0.136  10.479  0.1130 -0.9583  1.6507
  298MOL0     H41090   5.370  -0.205  10.366  2.2938 -0.4513  2.3903
  298MOL0     H41091   5.317  -0.054  10.279  0.7886  1.4734 -0.0941
  298MOL0     H41092   5.551  -0.086  10.477 -1.3708  3.0373  1.6890
  298MOL0     H41093   5.500   0.062  10.418 -0.7498 -0.3533 -1.2340
  298MOL0     H41094   5.550   0.040  10.205  1.5959  0.2963  1.5932
  298MOL0     H41095   5.589  -0.135  10.211  1.4574  0.4615 -1.9260
  298MOL0     H41096   5.744   0.079  10.370 -0.0267  1.3020 -1.2879
  298MOL0     H41097   5.780  -0.086  10.340 -1.0954 -0.4026  1.2162
  298MOL0     H41098   5.748   0.139  10.127  0.7620  0.2679 -0.6453
  298MOL0     H41099   5.766  -0.028  10.093 -3.1572 -0.7247  2.5124
  298MOL0     H41100   5.984  -0.042  10.141 -2.8559 -2.1949  1.5589
  298MOL0     H41101   5.977   0.062  10.279 -0.8126 -0.3300  0.4513
  298MOL0     H41102   6.130   0.158  10.107  0.6290 -0.9348  1.6135
  298MOL0     H41103   5.990   0.261  10.126  1.7871  1.4111 -1.6020
  298MOL0     H41104   5.104   0.269  10.539  0.6918  0.7043 -1.3407
  298MOL0     H41105   4.878   0.341  10.456 -0.3343  1.8722 -3.1315
  298MOL0     H41106   4.560   0.250  10.103 -0.5242  0.1855 -0.6197
  298MOL0     H41107   4.341   0.209   9.996 -0.2348 -2.3384 -0.4953
  298MOL0     H41108   2.271   0.210  10.946  1.6377 -1.6690 -0.6977
  298MOL0     H41109   2.028   0.233  10.924  1.7144 -0.4076  1.5945
  298MOL0     H41110   1.602   0.268  10.845  2.5531 -1.9566 -1.2044
  298MOL0     H41111   1.403   0.399  10.787 -2.1587  0.2876 -1.5021
  298MOL0     H41112   1.154   0.330  10.616 -3.8006  0.9631  0.0082
  298MOL0     H41113   1.211   0.476  10.699  0.3576 -0.0324 -0.2695
  298MOL0     H41114   1.132   0.496  10.416  2.1802  1.0808  0.1443
  298MOL0     H41115   1.089   0.612  10.550  3.7379  0.1927 -1.3580
  298MOL0     H41116   0.929   0.357  10.483 -0.4311  0.2820 -0.9831
  298MOL0     H41117   0.949   0.411  10.644 -0.7031 -2.0651 -0.8058
  298MOL0     H41118   0.837   0.628  10.588  2.6384 -1.5299  1.8520
  298MOL0     H41119   0.743   0.492  10.524 -0.9907  1.6380 -0.3742
  298MOL0     H41120   0.876   0.752  10.217 -2.8492  1.4546  0.8132
  298MOL0     H41121   1.494   0.381  10.383 -0.9024 -3.3037  1.1641
  298MOL0     H41122   1.772   0.358  10.341 -0.8015  1.1479  0.5357
  298MOL0     H41123   1.855   0.244  10.440  0.4567  2.4476  0.7895
  298MOL0     H41124   1.713   0.195  10.333 -3.0382  2.3605  0.5750
  299MOL0     O41125  10.728  10.415   0.803 -0.3006  0.1515 -0.9391
  299MOL0     C41126  10.729  10.294   0.776  0.9484 -0.1088  0.1883
  299MOL0     O41127  10.831  10.202   0.808  0.4410 -0.7003  0.3512
  299MOL0     C41128  10.933  10.237   0.889  0.0710  1.0184 -0.8120
  299MOL0     C41129  10.914  10.309   1.005  0.3080 -0.7660  0.1991
  299MOL0     C41130  11.026  10.344   1.076  0.1665  0.3144 -0.7066
  299MOL0     C41131  11.153  10.291   1.059  0.3852 -0.4119 -0.1113
  299MOL0     O41132  11.269  10.320   1.130  0.0677  0.6019 -0.2447
  299MOL0     C41133  11.283  10.445   1.213  0.0309 -0.1036 -0.0145
  299MOL0     C41134  11.433  10.472   1.254  0.5420  1.0860 -0.2522
  299MOL0     C41135  11.482  10.345   1.327  0.3150  0.5880 -0.4351
  299MOL0     C41136  11.625  10.363   1.375  0.1967 -0.8573  0.2081
  299MOL0     C41137  11.704  10.234   1.394 -0.3340  0.2574  0.1952
  299MOL0     C41138  11.858  10.258   1.427  0.6242  0.1586  0.3617
  299MOL0     C41139  11.896  10.319   1.566  0.5287  0.2985  0.0339
  299MOL0     C41140  12.050  10.337   1.570 -0.7206 -0.1799 -0.2430
  299MOL0     N41141  12.096  10.385   1.702  0.0777 -0.8756  0.3217
  299MOL0     C41142  12.062  10.507   1.755  0.1408  0.2408 -0.0751
  299MOL0     C41143  12.092  10.495   1.880  0.0297 -0.0688 -0.3162
  299MOL0     C41144  12.034  10.588   1.976  0.1114  0.3374  0.8018
  299MOL0     C41145  12.138  10.636   2.079 -0.5928  0.8835  0.0853
  299MOL0     C41146  12.086  10.745   2.173  0.9541 -0.2317 -0.0007
  299MOL0     C41147  12.199  10.827   2.241  0.0018  0.3978  0.0747
  299MOL0     O41148  12.260  10.916   2.145 -0.6016 -0.5463 -0.2421
  299MOL0     C41149  12.367  10.993   2.184  1.2938  0.3666  0.1818
  299MOL0     C41150  12.424  10.996   2.308 -0.1862 -0.5126 -0.0734
  299MOL0     C41151  12.528  11.079   2.338 -0.1872 -1.0592 -0.8241
  299MOL0     C41152  12.580  11.088   2.482 -0.8424 -0.0246 -0.6970
  299MOL0     C41153  12.589  11.157   2.236 -0.1300  0.0752  0.3727
  299MOL0     C41154  12.704  11.255   2.243 -0.1950 -0.1205  0.2163
  299MOL0     O41155  12.756  11.290   2.127  0.2080 -0.5621 -0.5003
  299MOL0     C41156  12.860  11.376   2.101 -0.0952 -0.6499 -0.1343
  299MOL0     C41157  12.856  11.434   1.972  0.4928  0.4107 -0.3409
  299MOL0     C41158  12.967  11.508   1.937 -0.5327 -0.0392  0.2392
  299MOL0     C41159  13.071  11.530   2.017  0.2765  0.6145 -1.3568
  299MOL0     O41160  13.175  11.609   1.966  0.2330 -0.1822  0.3263
  299MOL0     C41161  13.301  11.546   1.975 -0.2504  0.4000 -0.3768
  299MOL0     C41162  13.378  11.607   1.855  0.2782  0.0468  0.3997
  299MOL0     C41163  13.525  11.569   1.851  0.4198 -0.1781 -0.1361
  299MOL0     C41164  13.615  11.690   1.840  0.2184  0.3146 -0.0516
  299MOL0     C41165  13.765  11.651   1.832  0.0169  0.5725  0.2451
  299MOL0     C41166  13.866  11.772   1.801 -0.1025 -0.1738 -0.3876
  299MOL0     C41167  14.007  11.726   1.836 -0.4814  0.0603 -0.5296
  299MOL0     C41168  14.117  11.836   1.808  0.7586  0.6777  0.2038
  299MOL0    Cl41169  14.284  11.773   1.785  0.0863  0.5319 -0.0956
  299MOL0     C41170  13.072  11.466   2.148 -0.2567  0.4530  0.8847
  299MOL0     C41171  12.967  11.392   2.186 -0.1667  1.0058  0.2957
  299MOL0     O41172  12.740  11.290   2.356  0.0308 -0.0072  1.1921
  299MOL0     C41173  12.528  11.148   2.108 -0.3853 -0.6371 -0.8484
  299MOL0     C41174  12.427  11.067   2.081  0.9845  0.6929 -0.7035
  299MOL0     N41175  12.164  10.376   1.903  0.3060  0.1145 -0.2720
  299MOL0     N41176  12.159  10.305   1.798  0.2993 -0.3657 -1.1434
  299MOL0     C41177  11.170  10.211   0.948  0.4913  0.1702 -0.7617
  299MOL0     C41178  11.050  10.168   0.870 -1.1019 -0.4330  0.2515
  299MOL0     C41179  10.606  10.223   0.714  0.2014 -0.6988 -0.5432
  299MOL0     C41180  10.601  10.086   0.704 -0.3550  0.1127  0.1799
  299MOL0     C41181  10.508  10.020   0.628  0.4633  0.9089  0.2068
  299MOL0     C41182  10.423  10.086   0.543 -0.5140  0.0926  0.2584
  299MOL0     O41183  10.336  10.011   0.475  0.9271 -0.4852  0.3647
  299MOL0     C41184  10.259   9.913   0.535  0.2485 -0.8164 -0.7177
  299MOL0     C41185  10.108   9.949   0.533 -0.0307 -0.6592  0.3245
  299MOL0     C41186  10.045   9.969   0.390 -0.1904  0.2687 -0.2431
  299MOL0     C41187  10.044   9.837   0.316  1.0381 -0.3082  0.0005
  299MOL0     C41188   9.934   9.755   0.368  0.0015 -0.5114  0.0326
  299MOL0     C41189   9.848   9.684   0.417 -0.1577 -0.3428 -0.1477
  299MOL0     C41190  10.408  10.226   0.559 -0.2140  0.0945  0.0831
  299MOL0     C41191  10.497  10.286   0.651  0.5157 -0.2295 -0.2695
  299MOL0     C41192  10.500  10.440   0.640 -0.3462  0.1039 -0.2520
  299MOL0     H41193  10.818  10.352   1.032 -1.0644 -2.3882 -1.8476
  299MOL0     H41194  11.019  10.412   1.161  1.2738  0.2421 -0.5401
  299MOL0     H41195  11.226  10.424   1.304 -1.8949  0.8450 -0.9377
  299MOL0     H41196  11.246  10.535   1.164  0.8503  0.8680  1.0804
  299MOL0     H41197  11.488  10.495   1.163 -0.4173  0.7282 -0.9358
  299MOL0     H41198  11.435  10.564   1.313  1.5028  0.3445  0.9486
  299MOL0     H41199  11.425  10.329   1.419 -0.3140  0.1354 -0.8899
  299MOL0     H41200  11.473  10.261   1.257 -1.3597 -0.0167  0.4467
  299MOL0     H41201  11.687  10.425   1.310 -1.6087  1.1815  0.2769
  299MOL0     H41202  11.612  10.416   1.470 -2.5187  0.1409 -0.6183
  299MOL0     H41203  11.682  10.170   1.309 -0.6173 -0.0499  0.4987
  299MOL0     H41204  11.662  10.178   1.478  2.8860 -1.1785  1.0120
  299MOL0     H41205  11.909  10.162   1.411  0.3562  0.3400 -2.0691
  299MOL0     H41206  11.910  10.318   1.351  1.1726 -1.0349 -0.2529
  299MOL0     H41207  11.851  10.261   1.647  2.2764  0.1598  0.9463
  299MOL0     H41208  11.860  10.421   1.583 -0.9160 -0.2990  0.7571
  299MOL0     H41209  12.092  10.237   1.555  0.4964  0.2702  0.0137
  299MOL0     H41210  12.079  10.410   1.493 -1.6408  1.9304  1.3214
  299MOL0     H41211  12.001  10.588   1.716  2.3758  1.7828 -0.5942
  299MOL0     H41212  11.952  10.530   2.020 -2.9967 -0.0994 -4.6482
  299MOL0     H41213  11.994  10.676   1.925  1.9025  1.2415  0.8817
  299MOL0     H41214  12.177  10.555   2.141 -2.2835  0.9293  1.2953
  299MOL0     H41215  12.222  10.674   2.021 -1.2688  2.2232 -0.0639
  299MOL0     H41216  12.022  10.815   2.119  0.9202 -0.6483 -0.5132
  299MOL0     H41217  12.029  10.696   2.252 -0.2367  1.3895  0.1670
  299MOL0     H41218  12.152  10.889   2.319 -1.8296 -0.1185 -0.5686
  299MOL0     H41219  12.275  10.766   2.290 -1.4061 -0.3996  1.3572
  299MOL0     H41220  12.392  10.936   2.393  1.1869 -1.4202 -0.1576
  299MOL0     H41221  12.584  11.191   2.518  2.2238  0.1933 -1.3857
  299MOL0     H41222  12.679  11.044   2.491  0.4784  2.8349 -0.3961
  299MOL0     H41223  12.510  11.038   2.550 -2.4016 -1.0151 -2.8729
  299MOL0     H41224  12.774  11.419   1.903 -0.5075 -0.8103  1.0453
  299MOL0     H41225  12.959  11.558   1.840 -3.2086  0.5874  0.6998
  299MOL0     H41226  13.352  11.560   2.071  0.5915 -1.0567 -0.5786
  299MOL0     H41227  13.290  11.438   1.965  1.0468  0.3919 -2.3459
  299MOL0     H41228  13.337  11.563   1.764  2.2305 -0.4228 -0.3051
  299MOL0     H41229  13.381  11.716   1.842  1.6786 -0.0313 -0.2149
  299MOL0     H41230  13.547  11.510   1.761 -1.5061 -0.4662 -0.4509
  299MOL0     H41231  13.544  11.505   1.937 -0.2873  0.7207  0.7144
  299MOL0     H41232  13.591  11.753   1.926 -2.2896  1.2935 -1.3656
  299MOL0     H41233  13.581  11.749   1.754  3.5523  3.3993  0.5205
  299MOL0     H41234  13.795  11.609   1.929  0.8471  1.7763  0.5440
  299MOL0     H41235  13.786  11.576   1.755  1.5192  0.2152  0.9499
  299MOL0     H41236  13.837  11.860   1.861 -0.5312  0.2703 -1.2218
  299MOL0     H41237  13.843  11.799   1.698 -3.4208  0.0024  0.2872
  299MOL0     H41238  14.039  11.644   1.772  3.9876 -0.2079  1.6826
  299MOL0     H41239  14.017  11.687   1.938 -2.4109 -2.5570 -1.2458
  299MOL0     H41240  14.109  11.910   1.888  1.0044 -0.9655  1.8158
  299MOL0     H41241  14.080  11.892   1.722  3.7656  2.5531 -0.0220
  299MOL0     H41242  13.159  11.468   2.213  0.1800 -0.5827  0.3580
  299MOL0     H41243  12.967  11.345   2.284  1.8071  0.2921  0.0066
  299MOL0     H41244  12.565  11.208   2.026  0.2415  0.1765 -0.0007
  299MOL0     H41245  12.385  11.059   1.981 -0.6341  1.7271 -0.1409
  299MOL0     H41246  11.267  10.166   0.933 -0.0186 -1.1737 -0.1931
  299MOL0     H41247  11.054  10.094   0.790 -0.8154 -0.8422  0.6441
  299MOL0     H41248  10.663  10.025   0.769 -1.2484 -0.6268  0.3604
  299MOL0     H41249  10.514   9.912   0.634  0.1183  0.9255  0.9742
  299MOL0     H41250  10.277   9.826   0.471  0.7525 -0.8779 -0.4925
  299MOL0     H41251  10.286   9.878   0.635 -1.7388  0.9959  0.5328
  299MOL0     H41252  10.086  10.044   0.582 -1.0732 -0.0060 -1.2967
  299MOL0     H41253  10.055   9.869   0.586 -0.2694 -0.4054  0.4683
  299MOL0     H41254   9.941  10.002   0.400 -0.8442 -1.8610  0.4751
  299MOL0     H41255  10.094  10.053   0.340  3.4854 -0.3489  1.9668
  299MOL0     H41256  10.142   9.789   0.324  0.1596 -1.7665  3.7103
  299MOL0     H41257  10.015   9.856   0.212 -2.7810  2.3284  1.3327
  299MOL0     H41258   9.781   9.636   0.485 -1.5240  1.1282 -0.3815
  299MOL0     H41259  10.325  10.264   0.501  0.9180  0.9326 -1.0511
  299MOL0     H41260  10.513  10.499   0.731 -2.6752 -1.1370  0.9571
  299MOL0     H41261  10.583  10.467   0.574  3.0092 -5.1758  1.2294
  299MOL0     H41262  10.405  10.466   0.593 -0.0504 -0.7547 -1.3854
  300MOL0     O41263   8.208   1.665   5.703  0.5120 -0.6426 -0.5754
  300MOL0     C41264   8.208   1.781   5.660 -0.7926  0.2499  0.4445
  300MOL0     O41265   8.328   1.843   5.623 -0.5148  0.0666 -0.2395
  300MOL0     C41266   8.444   1.766   5.621 -0.3407 -0.6383 -0.4364
  300MOL0     C41267   8.552   1.804   5.704 -1.0591  0.2995  0.2834
  300MOL0     C41268   8.672   1.726   5.707  0.4326 -0.1254 -0.4852
  300MOL0     C41269   8.686   1.618   5.633  0.1644  0.1618 -0.1580
  300MOL0     O41270   8.794   1.533   5.643 -0.3320  0.1058 -0.2048
  300MOL0     C41271   8.926   1.598   5.626  0.0846  0.5213 -1.0190
  300MOL0     C41272   9.026   1.559   5.728 -0.3258  0.0965  0.6306
  300MOL0     C41273   9.096   1.423   5.699 -0.4716 -0.1517  0.0775
  300MOL0     C41274   9.222   1.408   5.795 -0.7703 -0.2144 -0.2448
  300MOL0     C41275   9.316   1.299   5.752  0.3397 -0.1067 -0.7828
  300MOL0     C41276   9.458   1.312   5.804 -0.2241 -0.1355 -0.0453
  300MOL0     C41277   9.555   1.218   5.746  0.2000 -0.0516  0.1623
  300MOL0     C41278   9.705   1.238   5.773 -0.0297 -0.3268 -0.0339
  300MOL0     N41279   9.786   1.118   5.743 -0.3935 -0.6208 -0.1480
  300MOL0     C41280   9.786   1.048   5.632  0.2308  0.3759  0.4860
  300MOL0     C41281   9.867   0.936   5.657  0.7379 -0.5500  0.1864
  300MOL0     C41282   9.882   0.830   5.550 -0.5450  0.4022  0.6704
  300MOL0     C41283   9.807   0.705   5.589 -0.1799  0.0054 -0.6195
  300MOL0     C41284   9.771   0.611   5.474 -0.2655 -0.6265 -0.5144
  300MOL0     C41285   9.890   0.557   5.398 -0.6605 -0.5709  0.5612
  300MOL0     O41286  10.000   0.514   5.481  0.7647 -0.0604  0.0071
  300MOL0     C41287  10.115   0.478   5.416  0.0893  0.4539 -0.3927
  300MOL0     C41288  10.134   0.479   5.278  0.1468  0.5428  0.2276
  300MOL0     C41289  10.258   0.433   5.220 -0.7608  0.4791  0.1850
  300MOL0     C41290  10.286   0.451   5.068 -0.0707  0.1188  0.2001
  300MOL0     C41291  10.365   0.386   5.303  0.0625 -0.4710 -0.5510
  300MOL0     C41292  10.503   0.347   5.265 -0.3229  0.5790 -0.3559
  300MOL0     O41293  10.598   0.315   5.360  1.2411  0.4789 -0.1687
  300MOL0     C41294  10.726   0.294   5.319  0.2323 -0.7465 -0.4012
  300MOL0     C41295  10.824   0.375   5.378  0.1832 -0.2518 -0.6217
  300MOL0     C41296  10.960   0.360   5.336  0.3324  0.4273 -0.3166
  300MOL0     C41297  10.993   0.260   5.246 -1.2971  0.1743  0.4440
  300MOL0     O41298  11.119   0.238   5.196  0.3048 -0.1689 -0.2040
  300MOL0     C41299  11.227   0.320   5.235 -0.4014 -0.4107 -0.5042
  300MOL0     C41300  11.358   0.268   5.183 -0.4888 -0.2130 -0.5236
  300MOL0     C41301  11.425   0.153   5.260  0.8068 -0.5799 -0.1057
  300MOL0     C41302  11.561   0.126   5.195  1.0437 -0.6267 -0.0284
  300MOL0     C41303  11.631   0.014   5.260  0.5324 -0.2550  0.3811
  300MOL0     C41304  11.762   0.002   5.193  0.3788 -0.3652  0.7616
  300MOL0     C41305  11.854  -0.091   5.267  0.5702  0.1558 -0.0504
  300MOL0     C41306  11.813  -0.236   5.290  1.2801 -0.4492  0.2111
  300MOL0    Cl41307  11.732  -0.311   5.142 -0.2160  0.0168 -0.1121
  300MOL0     C41308  10.892   0.166   5.201 -0.0594 -0.2142  0.3435
  300MOL0     C41309  10.765   0.191   5.237  0.4843 -0.4419 -0.6033
  300MOL0     O41310  10.534   0.365   5.149 -0.3376 -0.8483 -0.1543
  300MOL0     C41311  10.332   0.396   5.447 -0.5874  0.7022  0.5592
  300MOL0     C41312  10.218   0.450   5.503 -0.1583  0.2181 -0.0413
  300MOL0     N41313   9.925   0.948   5.779 -0.4073 -0.4989  0.7400
  300MOL0     N41314   9.876   1.064   5.828 -0.7422 -0.1182  0.2821
  300MOL0     C41315   8.579   1.582   5.545 -0.6090  0.1525 -0.1396
  300MOL0     C41316   8.457   1.649   5.547 -1.0982 -0.7844 -0.2150
  300MOL0     C41317   8.086   1.854   5.636  1.1257  0.4110 -0.1106
  300MOL0     C41318   8.082   1.998   5.625 -0.0750  0.0102  0.1530
  300MOL0     C41319   7.965   2.065   5.623  0.4079 -0.0847  0.5426
  300MOL0     C41320   7.843   1.998   5.602  0.3912 -0.0412  0.1147
  300MOL0     O41321   7.731   2.075   5.589 -0.3093  0.0410 -1.3968
  300MOL0     C41322   7.609   2.019   5.540  0.1886 -0.2785  0.5914
  300MOL0     C41323   7.617   1.937   5.410  0.4726 -0.2270 -1.2657
  300MOL0     C41324   7.473   1.904   5.376  0.5368  0.1353 -0.1194
  300MOL0     C41325   7.455   1.816   5.259  0.2317  0.8875  0.6090
  300MOL0     C41326   7.336   1.729   5.276  0.4969  0.1221 -0.2392
  300MOL0     C41327   7.238   1.656   5.292 -0.5930 -0.0248  0.1203
  300MOL0     C41328   7.838   1.857   5.617  0.1778 -0.1480  0.3502
  300MOL0     C41329   7.960   1.782   5.619 -0.0308  0.8076 -0.6630
  300MOL0     C41330   7.941   1.630   5.650  0.4734 -0.0809  0.0614
  300MOL0     H41331   8.540   1.890   5.768 -0.2395  0.5077  0.1686
  300MOL0     H41332   8.743   1.767   5.779  0.9863 -1.0961 -0.4542
  300MOL0     H41333   8.916   1.706   5.635 -1.2536  0.4355 -1.2966
  300MOL0     H41334   8.957   1.572   5.524  0.3012 -0.6066 -0.6864
  300MOL0     H41335   9.100   1.640   5.731 -0.2853  0.0496  1.0369
  300MOL0     H41336   8.967   1.560   5.820  0.9553  1.0361  1.4831
  300MOL0     H41337   9.026   1.339   5.710  0.0831 -0.5929  0.3158
  300MOL0     H41338   9.127   1.421   5.594 -1.7796  0.6154 -0.3395
  300MOL0     H41339   9.275   1.504   5.791 -0.1336 -0.5036  0.7446
  300MOL0     H41340   9.192   1.397   5.900  0.8261 -1.6331  0.1175
  300MOL0     H41341   9.304   1.298   5.643  1.7665  4.2830 -1.1613
  300MOL0     H41342   9.274   1.209   5.798 -0.3816 -0.2895 -1.7619
  300MOL0     H41343   9.485   1.416   5.785 -2.6959  0.5984  0.0621
  300MOL0     H41344   9.450   1.303   5.913  0.1138  2.1494  0.2275
  300MOL0     H41345   9.539   1.224   5.638 -1.5512  1.0907  0.4509
  300MOL0     H41346   9.517   1.121   5.778 -1.5596  1.5015  3.2172
  300MOL0     H41347   9.744   1.324   5.718 -1.1894  1.9875  2.5039
  300MOL0     H41348   9.713   1.269   5.878  0.0909 -0.3325 -0.0410
  300MOL0     H41349   9.719   1.076   5.551  1.9103 -2.8055 -2.2622
  300MOL0     H41350   9.987   0.800   5.542 -0.5598  0.6302 -0.6162
  300MOL0     H41351   9.856   0.860   5.448 -1.9714  1.1174  1.2190
  300MOL0     H41352   9.874   0.646   5.653 -0.7577 -0.3009 -0.2959
  300MOL0     H41353   9.730   0.737   5.660  0.5543 -1.0306  0.6891
  300MOL0     H41354   9.729   0.522   5.520  0.7345 -1.1993 -0.6711
  300MOL0     H41355   9.699   0.664   5.411  0.7938 -0.2360 -1.4309
  300MOL0     H41356   9.861   0.477   5.330 -0.2445 -2.6441  2.6961
  300MOL0     H41357   9.919   0.636   5.328 -0.1151 -2.3601 -1.3231
  300MOL0     H41358  10.052   0.497   5.209 -0.3055 -3.3987 -0.4867
  300MOL0     H41359  10.364   0.521   5.038 -0.6545  0.6146 -0.1807
  300MOL0     H41360  10.193   0.487   5.023  0.3009  1.6578  0.6190
  300MOL0     H41361  10.304   0.356   5.015  1.6043  0.7474 -0.4372
  300MOL0     H41362  10.796   0.449   5.453  0.8204  2.1928 -2.6799
  300MOL0     H41363  11.032   0.430   5.376  2.3716 -1.5102 -0.4005
  300MOL0     H41364  11.220   0.417   5.185  0.5149 -0.9020 -1.6378
  300MOL0     H41365  11.235   0.328   5.344  2.1038 -0.1256 -0.6356
  300MOL0     H41366  11.337   0.222   5.086  1.5302  1.2160 -1.7031
  300MOL0     H41367  11.422   0.356   5.173  0.5097 -0.9585 -0.8172
  300MOL0     H41368  11.356   0.068   5.255  0.9242 -0.6421 -0.9355
  300MOL0     H41369  11.451   0.186   5.361 -0.0120  2.3348 -0.7372
  300MOL0     H41370  11.612   0.223   5.192 -0.6299  0.2864 -0.2166
  300MOL0     H41371  11.554   0.114   5.086  1.1640  3.4400 -0.6669
  300MOL0     H41372  11.637   0.038   5.367  0.8440 -1.0556  0.5517
  300MOL0     H41373  11.570  -0.077   5.254 -1.3586  1.0221 -1.0967
  300MOL0     H41374  11.813   0.099   5.196  0.3097 -0.3397  1.1091
  300MOL0     H41375  11.753  -0.023   5.087  1.1815  3.5144 -0.3815
  300MOL0     H41376  11.876  -0.043   5.362 -0.8608  1.7205 -0.4603
  300MOL0     H41377  11.946  -0.098   5.208 -0.2128  0.5883 -1.3757
  300MOL0     H41378  11.738  -0.232   5.369  1.9331  0.7027  0.7864
  300MOL0     H41379  11.901  -0.293   5.321  1.4560 -1.7063 -2.2860
  300MOL0     H41380  10.922   0.072   5.157  3.0636  0.4808  0.7654
  300MOL0     H41381  10.701   0.129   5.175 -1.2548  1.0017 -0.3278
  300MOL0     H41382  10.409   0.382   5.522 -1.0583  0.9763  1.1055
  300MOL0     H41383  10.215   0.459   5.611 -2.0598  1.2436 -0.1464
  300MOL0     H41384   8.610   1.499   5.482 -0.3647  0.3974 -0.3452
  300MOL0     H41385   8.378   1.615   5.481 -1.7475 -2.3349  1.2948
  300MOL0     H41386   8.167   2.067   5.629 -2.3597  3.0040  0.7290
  300MOL0     H41387   7.966   2.173   5.624 -0.8288 -0.0511  0.0068
  300MOL0     H41388   7.575   1.961   5.627 -0.0924  0.4070  0.9427
  300MOL0     H41389   7.541   2.103   5.522  0.3131  0.0134  1.4373
  300MOL0     H41390   7.685   1.853   5.430 -1.5486 -1.7753 -0.5219
  300MOL0     H41391   7.666   1.999   5.335 -1.4853 -0.0152 -2.4247
  300MOL0     H41392   7.437   1.847   5.462  1.4480 -1.5980 -0.8268
  300MOL0     H41393   7.409   1.992   5.368  1.2328  1.0209  2.7108
  300MOL0     H41394   7.547   1.761   5.238 -0.0443  0.5667  0.2304
  300MOL0     H41395   7.439   1.884   5.175  1.2608  0.7243  0.2669
  300MOL0     H41396   7.153   1.601   5.327  1.7908 -3.9273  0.3709
  300MOL0     H41397   7.742   1.806   5.623 -1.5043  2.8048  0.1571
  300MOL0     H41398   7.994   1.574   5.572  0.1795 -0.9721  0.4934
  300MOL0     H41399   7.969   1.606   5.753 -1.1609  3.6985  1.5475
  300MOL0     H41400   7.836   1.602   5.645  0.4797 -0.1868  0.4999
  301MOL0     O41401   6.341  11.141   0.831  0.9477 -0.0705  0.2055
  301MOL0     C41402   6.310  11.196   0.728 -0.4478  0.7438  0.7730
  301MOL0     O41403   6.378  11.293   0.664  0.8130 -0.0933  0.2314
  301MOL0     C41404   6.491  11.341   0.718  0.7064  0.0019  0.7402
  301MOL0     C41405   6.565  11.396   0.614 -0.1256  0.3833 -0.1407
  301MOL0     C41406   6.688  11.459   0.640 -0.0015  0.2846 -0.0625
  301MOL0     C41407   6.720  11.479   0.770 -0.9133 -0.8310  0.1102
  301MOL0     O41408   6.833  11.553   0.795  0.9560 -0.5383 -0.3565
  301MOL0     C41409   6.902  11.562   0.919  0.0194  0.0758 -0.4965
  301MOL0     C41410   7.038  11.639   0.904  0.3956 -0.5007  0.4334
  301MOL0     C41411   7.078  11.688   1.041  0.3127 -0.0291 -0.5768
  301MOL0     C41412   7.223  11.731   1.054  0.0205  0.2251 -0.4623
  301MOL0     C41413   7.302  11.609   1.011  0.4628  0.1506  0.2807
  301MOL0     C41414   7.448  11.617   1.070  0.6281  0.4614  0.9124
  301MOL0     C41415   7.463  11.554   1.209 -0.4206  0.0901  0.0273
  301MOL0     C41416   7.597  11.586   1.278  0.5419  0.2206 -0.0858
  301MOL0     N41417   7.706  11.503   1.223  0.6762 -0.7123 -0.0722
  301MOL0     C41418   7.767  11.397   1.290 -0.2039  0.2082  0.2177
  301MOL0     C41419   7.853  11.333   1.207 -0.3929 -0.2218 -1.1192
  301MOL0     C41420   7.945  11.210   1.221  0.6329  0.2944  0.2244
  301MOL0     C41421   7.861  11.078   1.229  0.3636 -0.7909  0.0316
  301MOL0     C41422   7.953  10.959   1.249  0.2907  0.4240 -0.3259
  301MOL0     C41423   7.928  10.853   1.140 -0.0599  0.4899  0.8761
  301MOL0     O41424   8.021  10.887   1.022  0.6250 -0.3148  0.0763
  301MOL0     C41425   8.148  10.829   1.022  0.2395  0.0881 -0.3042
  301MOL0     C41426   8.212  10.803   0.904 -0.0026 -0.4310  0.7200
  301MOL0     C41427   8.339  10.754   0.886 -0.3311  0.0441  0.4309
  301MOL0     C41428   8.374  10.737   0.735  0.3605 -0.1111  0.5799
  301MOL0     C41429   8.419  10.727   0.998 -0.2914 -0.2558  0.4422
  301MOL0     C41430   8.565  10.689   0.984  1.1847 -0.6120  0.1328
  301MOL0     O41431   8.638  10.712   1.096 -0.4879 -0.5076 -0.3434
  301MOL0     C41432   8.770  10.677   1.093 -0.2891 -0.4100 -0.0327
  301MOL0     C41433   8.811  10.547   1.062  0.2590  0.0417 -0.7835
  301MOL0     C41434   8.947  10.506   1.058  0.8636  0.5303 -0.2469
  301MOL0     C41435   9.044  10.607   1.082 -0.3663 -0.9919  0.7835
  301MOL0     O41436   9.179  10.598   1.075 -0.3892  0.3721 -0.3423
  301MOL0     C41437   9.225  10.462   1.104  0.2071  0.2889 -0.0335
  301MOL0     C41438   9.377  10.447   1.093 -0.9919 -0.4333 -0.1771
  301MOL0     C41439   9.446  10.505   1.221  0.5140  0.4488  0.7441
  301MOL0     C41440   9.601  10.487   1.208 -0.4041  0.8631  0.7418
  301MOL0     C41441   9.689  10.569   1.302 -0.2246 -0.2585  0.4574
  301MOL0     C41442   9.843  10.528   1.269  0.4949 -0.1192  0.3462
  301MOL0     C41443   9.922  10.539   1.403  0.7252  0.0614 -0.7617
  301MOL0     C41444   9.875  10.437   1.505  0.2928 -0.5188 -0.7040
  301MOL0    Cl41445  10.009  10.430   1.626 -0.4738  0.0658  0.0789
  301MOL0     C41446   9.001  10.736   1.116 -0.2961 -0.5155  0.5732
  301MOL0     C41447   8.869  10.774   1.123  0.0121  0.2072 -0.2165
  301MOL0     O41448   8.602  10.641   0.881 -0.5120  0.7073  0.0496
  301MOL0     C41449   8.351  10.738   1.120 -0.2247 -0.3278 -0.5632
  301MOL0     C41450   8.221  10.789   1.132 -0.7150  0.1855 -0.7294
  301MOL0     N41451   7.835  11.398   1.094 -0.1964 -0.1014  0.7815
  301MOL0     N41452   7.760  11.498   1.105  0.3842 -0.0051 -0.2787
  301MOL0     C41453   6.647  11.430   0.872 -0.6096  0.3637 -0.9994
  301MOL0     C41454   6.532  11.359   0.849 -0.4779 -0.1237  0.0665
  301MOL0     C41455   6.174  11.161   0.672  0.1390 -0.2813 -0.6417
  301MOL0     C41456   6.098  11.071   0.746  0.4408  0.6461 -0.5487
  301MOL0     C41457   5.960  11.046   0.717 -0.1602 -0.3618  0.3073
  301MOL0     C41458   5.917  11.099   0.596 -0.0325  0.2998 -0.4478
  301MOL0     O41459   5.798  11.083   0.539  0.9556  0.6212  0.1213
  301MOL0     C41460   5.688  11.013   0.607 -0.0047  0.4891 -0.2377
  301MOL0     C41461   5.560  11.033   0.525 -0.6384  0.1400  0.1529
  301MOL0     C41462   5.530  11.185   0.518  0.3289  0.0720 -0.1664
  301MOL0     C41463   5.392  11.216   0.463  0.0445 -0.5441 -0.3737
  301MOL0     C41464   5.354  11.148   0.344 -1.0575  0.2214  0.4815
  301MOL0     C41465   5.332  11.113   0.228  0.2391 -0.2154  0.3890
  301MOL0     C41466   5.993  11.180   0.521  0.1709 -0.7905 -0.8206
  301MOL0     C41467   6.124  11.217   0.552  0.4900 -0.1656 -1.6254
  301MOL0     C41468   6.199  11.297   0.454 -0.2194 -0.1488 -0.2074
  301MOL0     H41469   6.532  11.378   0.512 -0.2572  0.1502 -0.0578
  301MOL0     H41470   6.739  11.497   0.552 -1.1370  0.1164 -0.8236
  301MOL0     H41471   6.923  11.461   0.955 -2.8081 -0.4519 -0.0916
  301MOL0     H41472   6.841  11.631   0.977  0.8245  2.1729 -2.0175
  301MOL0     H41473   7.108  11.572   0.854 -0.5342 -0.5189 -0.8791
  301MOL0     H41474   7.037  11.726   0.837  0.3634 -0.8739 -0.0505
  301MOL0     H41475   7.008  11.768   1.064  1.8358  1.3822 -0.6910
  301MOL0     H41476   7.049  11.612   1.114 -1.5274 -0.8520 -2.0935
  301MOL0     H41477   7.253  11.818   0.995 -0.0722  0.5037 -0.1013
  301MOL0     H41478   7.242  11.735   1.162  0.9459 -0.3319 -0.5921
  301MOL0     H41479   7.305  11.619   0.902 -0.9634  1.3773  0.3210
  301MOL0     H41480   7.251  11.516   1.039 -0.3146 -0.0293 -1.6070
  301MOL0     H41481   7.511  11.563   0.998 -1.0898  1.1093 -1.1970
  301MOL0     H41482   7.476  11.722   1.059 -0.7671  0.7456 -0.2487
  301MOL0     H41483   7.462  11.445   1.198  1.3990  0.0959 -0.6231
  301MOL0     H41484   7.380  11.587   1.272 -0.9653  1.2061 -1.2082
  301MOL0     H41485   7.626  11.691   1.271  2.5998 -0.2139  1.2183
  301MOL0     H41486   7.585  11.571   1.386 -1.9024 -0.0060 -0.3312
  301MOL0     H41487   7.767  11.370   1.395  3.5813  0.7989  0.5350
  301MOL0     H41488   8.007  11.239   1.306  0.9509  3.3952 -0.9329
  301MOL0     H41489   8.024  11.197   1.147  0.9929  0.0810  0.6363
  301MOL0     H41490   7.788  11.083   1.310  0.0798 -2.0486 -0.1291
  301MOL0     H41491   7.824  11.081   1.126  2.9912  3.2916 -1.0536
  301MOL0     H41492   8.058  10.981   1.270  0.2296 -1.3432  2.1869
  301MOL0     H41493   7.916  10.914   1.342 -2.0358  2.4912 -0.1296
  301MOL0     H41494   7.959  10.752   1.171  2.9900  1.1905  0.4211
  301MOL0     H41495   7.823  10.850   1.110  0.4820  2.3852 -1.5114
  301MOL0     H41496   8.140  10.817   0.824 -1.1765 -3.7707  1.0151
  301MOL0     H41497   8.297  10.772   0.666  0.7854 -1.5418 -0.6618
  301MOL0     H41498   8.373  10.631   0.709  1.4761  0.1596 -0.7032
  301MOL0     H41499   8.465  10.786   0.698 -1.6293  2.6211 -1.1037
  301MOL0     H41500   8.734  10.475   1.039 -0.3493 -0.1458  1.6398
  301MOL0     H41501   8.963  10.403   1.028 -0.6107  0.5249 -1.1521
  301MOL0     H41502   9.188  10.441   1.205 -0.3025 -0.3715 -0.3486
  301MOL0     H41503   9.181  10.391   1.033  0.5496  1.4454 -1.4351
  301MOL0     H41504   9.407  10.343   1.076 -1.9811 -0.2723 -3.4391
  301MOL0     H41505   9.417  10.496   1.004  0.7861 -1.2874  0.1003
  301MOL0     H41506   9.397  10.451   1.303 -1.1231 -0.7073 -0.9102
  301MOL0     H41507   9.427  10.612   1.225 -1.7432  0.2093 -0.9475
  301MOL0     H41508   9.634  10.513   1.107 -0.0637 -1.0577  0.3258
  301MOL0     H41509   9.625  10.384   1.234 -3.4969  0.1026  0.9477
  301MOL0     H41510   9.674  10.674   1.275 -1.3430 -0.3878  0.5228
  301MOL0     H41511   9.656  10.565   1.406 -1.7495  1.3034  0.0748
  301MOL0     H41512   9.880  10.588   1.185 -1.6291  3.2562  1.6143
  301MOL0     H41513   9.862  10.423   1.247 -0.0120 -0.1196 -0.1105
  301MOL0     H41514   9.916  10.638   1.448  2.4922  0.1373 -0.6587
  301MOL0     H41515  10.026  10.520   1.375  1.0404 -1.3580  1.0854
  301MOL0     H41516   9.853  10.338   1.462 -3.8180  0.3114 -0.9309
  301MOL0     H41517   9.781  10.462   1.555 -0.6773  0.3848 -2.8247
  301MOL0     H41518   9.075  10.813   1.136 -2.0835  1.5203 -0.2393
  301MOL0     H41519   8.843  10.878   1.136  0.5283  0.1417  1.6348
  301MOL0     H41520   8.406  10.723   1.212 -0.6332  0.8474 -0.1063
  301MOL0     H41521   8.183  10.800   1.233 -0.7129 -1.3480 -0.5358
  301MOL0     H41522   6.676  11.443   0.976 -3.3269 -0.6155 -0.0316
  301MOL0     H41523   6.469  11.313   0.924 -0.9110 -0.0118 -0.2200
  301MOL0     H41524   6.138  11.021   0.833 -0.0473  0.8279 -0.2157
  301MOL0     H41525   5.892  10.977   0.766 -1.0366  0.3599  0.1277
  301MOL0     H41526   5.701  10.904   0.602  0.3246  0.5896 -1.8540
  301MOL0     H41527   5.668  11.052   0.707  1.8941 -0.9161  0.7740
  301MOL0     H41528   5.473  10.977   0.562 -0.4945  1.1670  2.2031
  301MOL0     H41529   5.571  11.006   0.420  0.0704  0.6395  0.0931
  301MOL0     H41530   5.548  11.223   0.619  0.3581  0.5411 -0.3472
  301MOL0     H41531   5.605  11.237   0.458 -0.9128  1.5586 -0.4777
  301MOL0     H41532   5.398  11.322   0.437  1.7574 -0.4328  0.3183
  301MOL0     H41533   5.315  11.195   0.538  1.6687 -2.5512  0.8647
  301MOL0     H41534   5.305  11.095   0.126  0.6894  2.8609 -0.3678
  301MOL0     H41535   5.952  11.209   0.425  1.7268 -2.6103 -2.1041
  301MOL0     H41536   6.151  11.285   0.356 -0.9480 -0.3323  0.1632
  301MOL0     H41537   6.211  11.402   0.482  1.9003  0.4117 -2.7664
  301MOL0     H41538   6.297  11.250   0.448 -0.8375 -1.6703  0.8050
  302MOL0     O41539   3.888   6.770   9.523 -0.0982  0.1883  0.1200
  302MOL0     C41540   3.931   6.838   9.609 -0.2538  0.2633 -0.5738
  302MOL0     O41541   4.043   6.910   9.599  0.0981  0.1538  0.4836
  302MOL0     C41542   4.141   6.882   9.496 -0.6287 -0.4084 -0.3437
  302MOL0     C41543   4.274   6.909   9.540  0.1782  0.5676  0.7052
  302MOL0     C41544   4.379   6.905   9.456  0.2943 -0.3612 -0.2302
  302MOL0     C41545   4.366   6.850   9.325  0.4015 -0.4956  0.3360
  302MOL0     O41546   4.479   6.837   9.253  0.6395 -0.2123 -0.5971
  302MOL0     C41547   4.490   6.740   9.146 -0.2201  0.3488 -0.9316
  302MOL0     C41548   4.630   6.753   9.094  0.8216 -0.2496  0.2438
  302MOL0     C41549   4.721   6.639   9.145 -0.2072 -0.2347 -0.1751
  302MOL0     C41550   4.860   6.642   9.090 -0.2589 -0.1373  0.2111
  302MOL0     C41551   4.947   6.543   9.180 -0.4344 -0.4360  0.1342
  302MOL0     C41552   5.091   6.549   9.116 -0.7165  0.4785 -0.3628
  302MOL0     C41553   5.186   6.475   9.218  0.3545 -0.0533  0.4968
  302MOL0     C41554   5.332   6.498   9.185  0.6161  0.2765  0.1831
  302MOL0     N41555   5.409   6.403   9.278  0.0154 -0.5435 -0.4974
  302MOL0     C41556   5.450   6.283   9.249  0.0708  0.0437  0.3741
  302MOL0     C41557   5.484   6.229   9.368  1.1247  0.8529 -0.0073
  302MOL0     C41558   5.545   6.094   9.382  0.2297  0.1533  0.1010
  302MOL0     C41559   5.698   6.115   9.403  0.5841  0.1445  0.3124
  302MOL0     C41560   5.754   5.982   9.448  0.3568 -0.4502  0.1504
  302MOL0     C41561   5.902   5.989   9.467  0.2994 -0.2763 -0.8653
  302MOL0     O41562   5.940   5.863   9.533  0.3441 -0.7390 -0.3908
  302MOL0     C41563   6.078   5.843   9.554  1.4081  0.5113  0.3402
  302MOL0     C41564   6.111   5.780   9.671 -0.2626  0.0955 -1.1743
  302MOL0     C41565   6.242   5.745   9.699 -1.0273  0.4614  0.1784
  302MOL0     C41566   6.262   5.666   9.819  1.1623 -0.0089  0.2362
  302MOL0     C41567   6.348   5.779   9.614  0.5475 -0.6611 -0.5811
  302MOL0     C41568   6.493   5.756   9.645  0.9563 -1.2137  0.6483
  302MOL0     O41569   6.570   5.734   9.540  0.1292 -0.7032 -0.4424
  302MOL0     C41570   6.702   5.740   9.559 -0.4944 -0.2047 -0.1426
  302MOL0     C41571   6.775   5.860   9.527 -0.3150  0.1839 -0.4786
  302MOL0     C41572   6.907   5.874   9.569 -0.1287  0.1771  0.3774
  302MOL0     C41573   6.976   5.767   9.617  0.3813  0.6300 -0.0680
  302MOL0     O41574   7.108   5.768   9.662 -0.2772  0.1385  0.4640
  302MOL0     C41575   7.185   5.894   9.659  0.3317  0.4636 -0.6916
  302MOL0     C41576   7.329   5.854   9.689 -0.3674  0.1593 -0.3826
  302MOL0     C41577   7.399   5.749   9.605 -0.1464  0.7480  0.0527
  302MOL0     C41578   7.522   5.703   9.682 -1.1412  0.5472 -0.1136
  302MOL0     C41579   7.631   5.808   9.727  0.6850 -0.0473  0.0658
  302MOL0     C41580   7.755   5.745   9.769 -0.3596  0.3419 -0.1579
  302MOL0     C41581   7.841   5.741   9.646 -1.3756 -0.0682 -0.3922
  302MOL0     C41582   7.982   5.709   9.678  0.3520 -0.0985 -0.2307
  302MOL0    Cl41583   8.075   5.823   9.773 -0.1062 -0.3824 -0.0836
  302MOL0     C41584   6.910   5.640   9.636  0.3888  0.4551 -0.7506
  302MOL0     C41585   6.773   5.631   9.608  0.0300  0.2019  0.2054
  302MOL0     O41586   6.525   5.740   9.762 -0.5917  0.1454  0.1051
  302MOL0     C41587   6.313   5.835   9.490  0.2401  0.2791 -0.2536
  302MOL0     C41588   6.180   5.869   9.465 -0.3613 -0.0293 -0.5362
  302MOL0     N41589   5.460   6.319   9.467 -0.9454 -0.0014 -0.4858
  302MOL0     N41590   5.417   6.424   9.411  0.3216  0.0643 -0.7583
  302MOL0     C41591   4.243   6.808   9.283  0.8379 -0.8111 -0.6278
  302MOL0     C41592   4.130   6.838   9.362  0.4315  0.4645  0.0704
  302MOL0     C41593   3.841   6.865   9.719 -0.5940  0.8995  0.0116
  302MOL0     C41594   3.796   6.993   9.743 -0.6244  0.8524  0.5452
  302MOL0     C41595   3.705   7.026   9.846 -0.3795 -0.0261 -1.1494
  302MOL0     C41596   3.652   6.924   9.926 -0.4411 -0.2440  0.5281
  302MOL0     O41597   3.565   6.947  10.030 -1.2065 -0.4427  0.0225
  302MOL0     C41598   3.523   7.082  10.062 -0.8348 -0.6042  0.1895
  302MOL0     C41599   3.446   7.084  10.190 -0.1220 -0.3260 -0.0425
  302MOL0     C41600   3.376   7.221  10.202 -0.2366  0.7079  0.2785
  302MOL0     C41601   3.298   7.217  10.328  0.5627 -0.8004 -0.6114
  302MOL0     C41602   3.172   7.146  10.312  0.1712  0.4072  0.5834
  302MOL0     C41603   3.061   7.100  10.297 -0.1597  0.2112  0.4842
  302MOL0     C41604   3.704   6.798   9.902  0.1418  0.7576 -0.8976
  302MOL0     C41605   3.793   6.766   9.801 -0.2712 -0.5532 -0.1544
  302MOL0     C41606   3.827   6.625   9.803  0.6070  0.0668 -0.3771
  302MOL0     H41607   4.289   6.938   9.644  2.2961 -3.1473  1.6090
  302MOL0     H41608   4.478   6.933   9.490 -0.2783  1.5753 -0.0273
  302MOL0     H41609   4.415   6.761   9.069 -2.6682  0.5906  1.3725
  302MOL0     H41610   4.468   6.640   9.184  1.9134 -0.4645 -1.6647
  302MOL0     H41611   4.624   6.755   8.985  1.1788 -0.0348  0.2254
  302MOL0     H41612   4.668   6.850   9.128 -1.6807 -0.7302  5.4560
  302MOL0     H41613   4.723   6.646   9.254 -1.8239 -1.2728 -0.0499
  302MOL0     H41614   4.690   6.536   9.123  0.5705  0.0791 -3.0979
  302MOL0     H41615   4.867   6.625   8.982 -0.3677  1.2437 -0.0342
  302MOL0     H41616   4.906   6.740   9.109  2.3121 -0.9143 -1.4355
  302MOL0     H41617   4.906   6.442   9.176 -3.6871  0.7852 -0.4444
  302MOL0     H41618   4.947   6.569   9.287 -3.5188 -0.9219  0.3333
  302MOL0     H41619   5.081   6.491   9.025 -0.8437 -0.7577  0.4197
  302MOL0     H41620   5.117   6.655   9.108  0.3323  0.5359  2.3626
  302MOL0     H41621   5.158   6.370   9.216 -1.0449  0.2827  1.0154
  302MOL0     H41622   5.181   6.517   9.319  2.0697  0.6880  0.3059
  302MOL0     H41623   5.359   6.469   9.083  0.3124 -2.6169  0.8467
  302MOL0     H41624   5.350   6.606   9.194 -0.2214  0.3506  1.0105
  302MOL0     H41625   5.444   6.231   9.155 -1.4571 -0.6982  0.8499
  302MOL0     H41626   5.523   6.039   9.291 -0.7078  0.8574 -0.1084
  302MOL0     H41627   5.512   6.042   9.472  1.4571 -0.6641  0.1006
  302MOL0     H41628   5.744   6.145   9.308 -0.3864  1.5249  0.2349
  302MOL0     H41629   5.708   6.193   9.479  2.0589  0.5787 -0.2958
  302MOL0     H41630   5.711   5.955   9.545  2.2847  1.4129  1.6114
  302MOL0     H41631   5.732   5.901   9.378 -0.9852  2.1814 -2.7266
  302MOL0     H41632   5.954   6.013   9.374 -0.3226  0.2926 -1.0746
  302MOL0     H41633   5.923   6.074   9.533  0.2959 -0.4399 -0.6523
  302MOL0     H41634   6.033   5.756   9.743  0.6583  1.2536  0.2778
  302MOL0     H41635   6.165   5.643   9.863 -0.2885  1.4503 -2.0022
  302MOL0     H41636   6.324   5.717   9.894  2.5050  0.2975 -1.0375
  302MOL0     H41637   6.317   5.577   9.789  2.4032  0.2661  1.5545
  302MOL0     H41638   6.706   5.935   9.490  2.5864  3.4419  0.1922
  302MOL0     H41639   6.944   5.975   9.555 -0.6774 -0.0257 -3.3050
  302MOL0     H41640   7.178   5.952   9.566 -1.6863  4.0438  1.4798
  302MOL0     H41641   7.157   5.963   9.739  0.3625 -2.0210  1.6108
  302MOL0     H41642   7.389   5.945   9.694 -1.1159  0.6246  0.8297
  302MOL0     H41643   7.326   5.811   9.790  1.1935  0.2806 -0.2742
  302MOL0     H41644   7.432   5.797   9.512  1.7350  3.0841  1.7789
  302MOL0     H41645   7.329   5.668   9.583 -0.2212  1.1223 -1.1684
  302MOL0     H41646   7.565   5.630   9.612 -2.8410  0.6063 -1.2749
  302MOL0     H41647   7.494   5.649   9.773 -0.6835 -0.3564 -0.4878
  302MOL0     H41648   7.644   5.883   9.649 -0.0087 -0.9317 -0.9318
  302MOL0     H41649   7.586   5.857   9.814  0.9407 -1.1985  0.8754
  302MOL0     H41650   7.742   5.648   9.819  0.1199 -0.1571 -0.9746
  302MOL0     H41651   7.803   5.806   9.847  1.2931 -2.1746  0.9648
  302MOL0     H41652   7.844   5.843   9.605  0.3158  1.2259  2.5962
  302MOL0     H41653   7.799   5.663   9.583  0.4506 -0.0879 -1.6794
  302MOL0     H41654   8.032   5.685   9.584  0.2080  0.7109 -0.5239
  302MOL0     H41655   7.973   5.618   9.738 -0.4145  0.7422  0.9923
  302MOL0     H41656   6.967   5.560   9.681 -1.3476  0.1480  1.0701
  302MOL0     H41657   6.738   5.532   9.634  0.3013 -0.0471 -0.3584
  302MOL0     H41658   6.384   5.875   9.419 -0.8997  0.5772 -1.2560
  302MOL0     H41659   6.154   5.920   9.373 -0.0968  2.3563  0.6557
  302MOL0     H41660   4.232   6.767   9.183 -0.2635 -2.1459  0.0063
  302MOL0     H41661   4.037   6.808   9.316  0.7732 -0.1603 -0.2387
  302MOL0     H41662   3.846   7.066   9.680  0.4057 -0.9214 -0.7961
  302MOL0     H41663   3.677   7.131   9.855  2.3233  0.5511  4.0915
  302MOL0     H41664   3.602   7.154  10.087 -3.8722  2.5988  1.3925
  302MOL0     H41665   3.474   7.137   9.981  0.5637 -1.0221 -0.9942
  302MOL0     H41666   3.514   7.062  10.273  0.8093  0.1671 -0.6645
  302MOL0     H41667   3.368   7.006  10.195 -1.0884  0.6832  2.6532
  302MOL0     H41668   3.451   7.300  10.195  0.4857 -0.1276 -2.6256
  302MOL0     H41669   3.309   7.238  10.117  1.6239 -1.0806 -1.6867
  302MOL0     H41670   3.282   7.320  10.359  0.6260  0.4678 -4.2789
  302MOL0     H41671   3.357   7.179  10.411 -0.1961  1.7146  1.1986
  302MOL0     H41672   2.961   7.060  10.291 -0.3605  0.7314  0.3398
  302MOL0     H41673   3.667   6.729   9.977 -1.0948  0.6856 -1.5467
  302MOL0     H41674   3.878   6.589   9.893 -1.7478 -0.8554  0.6612
  302MOL0     H41675   3.729   6.577   9.811  0.7463 -0.0031  1.4160
  302MOL0     H41676   3.865   6.588   9.708  0.0952  1.5127 -1.1777
  303MOL0     O41677   8.809   3.856   4.330  0.0171 -0.7228 -0.0673
  303MOL0     C41678   8.754   3.756   4.373 -0.3996 -0.3548  0.8456
  303MOL0     O41679   8.819   3.651   4.441  0.4322  0.0202 -0.2964
  303MOL0     C41680   8.956   3.644   4.448 -0.4868  0.0418  0.3468
  303MOL0     C41681   9.031   3.652   4.330  0.4706  0.8843 -0.4959
  303MOL0     C41682   9.173   3.649   4.338  0.1102 -0.4317 -0.0214
  303MOL0     C41683   9.236   3.631   4.462  0.3061 -0.4016 -0.1802
  303MOL0     O41684   9.364   3.612   4.461  0.0671 -0.5152 -0.8240
  303MOL0     C41685   9.408   3.471   4.454 -0.2098 -0.1270 -0.5564
  303MOL0     C41686   9.559   3.464   4.462  1.0050  1.1022 -0.4217
  303MOL0     C41687   9.616   3.326   4.521  0.0572 -0.4999  1.0360
  303MOL0     C41688   9.757   3.345   4.575 -0.1102  0.6527  0.0498
  303MOL0     C41689   9.802   3.202   4.609 -0.0258  1.2954  0.5783
  303MOL0     C41690   9.938   3.194   4.685 -0.2163  0.4104 -0.1455
  303MOL0     C41691   9.987   3.054   4.693 -0.2560  0.6462  0.0986
  303MOL0     C41692  10.083   3.009   4.577 -0.4111 -0.1603  0.7721
  303MOL0     N41693  10.146   2.886   4.617  0.7936  0.3494  0.3262
  303MOL0     C41694  10.254   2.864   4.704 -0.2229  0.7887  1.0296
  303MOL0     C41695  10.259   2.726   4.712  0.0164 -1.0163  0.7008
  303MOL0     C41696  10.370   2.657   4.785  0.2050 -0.2021  0.7796
  303MOL0     C41697  10.513   2.692   4.724 -0.1934 -0.5179 -0.4907
  303MOL0     C41698  10.617   2.616   4.800 -0.1482 -0.8859  0.4520
  303MOL0     C41699  10.756   2.672   4.757  0.1346 -0.5665 -1.0331
  303MOL0     O41700  10.861   2.612   4.831 -0.6104  0.5719 -0.4425
  303MOL0     C41701  10.987   2.639   4.787  0.2309  1.2115 -0.4566
  303MOL0     C41702  11.049   2.573   4.683 -0.0426  0.2593 -0.0692
  303MOL0     C41703  11.188   2.606   4.641  0.0224  1.2954 -0.4195
  303MOL0     C41704  11.255   2.520   4.535 -0.1182 -0.3499 -0.1500
  303MOL0     C41705  11.256   2.710   4.709  0.3525 -0.1417  0.1070
  303MOL0     C41706  11.387   2.762   4.667 -0.7813  0.7134  0.9103
  303MOL0     O41707  11.470   2.800   4.770 -0.2330 -0.3643 -0.5513
  303MOL0     C41708  11.590   2.864   4.740  0.3827 -1.1205 -0.7045
  303MOL0     C41709  11.713   2.815   4.776  0.3104 -0.7204  0.1058
  303MOL0     C41710  11.832   2.874   4.746  0.4470 -1.3606  0.1026
  303MOL0     C41711  11.832   2.999   4.695  0.0107 -0.2355 -0.0132
  303MOL0     O41712  11.960   3.053   4.667  0.0885 -0.0206 -0.6216
  303MOL0     C41713  11.965   3.195   4.664  0.6090  0.9524  0.3425
  303MOL0     C41714  12.113   3.226   4.674 -0.1928 -0.0841  0.1621
  303MOL0     C41715  12.157   3.248   4.820  0.4857 -0.5405 -0.3618
  303MOL0     C41716  12.296   3.312   4.845 -0.7813  0.5918 -0.1291
  303MOL0     C41717  12.322   3.348   4.988 -0.0201  0.3497 -0.3387
  303MOL0     C41718  12.449   3.429   5.014 -0.1035  0.2359 -0.4892
  303MOL0     C41719  12.576   3.367   4.969  0.1166 -0.5375 -0.2616
  303MOL0     C41720  12.697   3.432   5.035 -0.2096 -0.5015  0.4535
  303MOL0    Cl41721  12.855   3.334   5.010 -0.0124 -0.8286  0.2630
  303MOL0     C41722  11.715   3.064   4.666  0.3147  0.9743  0.1877
  303MOL0     C41723  11.590   2.999   4.689  0.7927  0.0453  1.3863
  303MOL0     O41724  11.417   2.769   4.547 -0.0930  0.2491 -0.4789
  303MOL0     C41725  11.189   2.771   4.818  0.7059 -0.9839  0.0427
  303MOL0     C41726  11.055   2.740   4.853  0.2430  0.1667 -0.0545
  303MOL0     N41727  10.160   2.668   4.633 -0.4296 -0.0625  0.0421
  303MOL0     N41728  10.089   2.768   4.580 -0.2023 -0.1010 -0.3751
  303MOL0     C41729   9.161   3.621   4.583 -0.7675 -0.3533 -0.3047
  303MOL0     C41730   9.020   3.624   4.571  0.2275  0.6806 -0.3317
  303MOL0     C41731   8.602   3.745   4.384  0.4511  0.6420  0.0841
  303MOL0     C41732   8.544   3.676   4.494 -0.3976 -0.9184  0.2148
  303MOL0     C41733   8.407   3.677   4.502  0.1594 -0.1090 -0.1769
  303MOL0     C41734   8.318   3.735   4.411  0.1933 -0.2835 -1.0390
  303MOL0     O41735   8.184   3.731   4.416 -0.1431  0.8799  0.3124
  303MOL0     C41736   8.122   3.646   4.513 -0.1234 -0.5787  0.0622
  303MOL0     C41737   7.966   3.650   4.501 -0.0022 -0.3518 -0.0602
  303MOL0     C41738   7.911   3.626   4.358 -1.1823 -0.0428  0.0193
  303MOL0     C41739   7.766   3.600   4.347  0.5198 -0.0327  0.1435
  303MOL0     C41740   7.734   3.608   4.209 -0.1922 -0.6287  0.3115
  303MOL0     C41741   7.714   3.625   4.091 -0.5138 -0.4136  0.5987
  303MOL0     C41742   8.378   3.807   4.312 -0.5139  0.4390 -0.5051
  303MOL0     C41743   8.518   3.815   4.296  0.4712  0.5414 -0.1567
  303MOL0     C41744   8.564   3.898   4.181 -0.2097 -0.0813  0.1816
  303MOL0     H41745   8.973   3.646   4.239  0.3942  0.5941 -0.4303
  303MOL0     H41746   9.242   3.657   4.255 -0.3828  0.4051 -0.3639
  303MOL0     H41747   9.365   3.412   4.373  1.6685  0.1811 -1.8349
  303MOL0     H41748   9.372   3.442   4.553  0.4747  1.4005  0.1735
  303MOL0     H41749   9.592   3.480   4.359 -0.2654 -0.0980 -1.0501
  303MOL0     H41750   9.604   3.547   4.517  1.4032  0.0565  0.8985
  303MOL0     H41751   9.550   3.273   4.590 -0.7367 -0.7893  0.0939
  303MOL0     H41752   9.630   3.261   4.434  0.2213  1.1964 -0.2648
  303MOL0     H41753   9.823   3.403   4.510 -0.3094  1.8631  0.8940
  303MOL0     H41754   9.746   3.389   4.674  0.7552 -1.7077  1.2693
  303MOL0     H41755   9.816   3.145   4.516 -0.8323 -2.5504  2.6050
  303MOL0     H41756   9.722   3.147   4.658 -0.3272 -0.2744 -1.5249
  303MOL0     H41757   9.999   3.271   4.639  0.6887  0.7815  1.5979
  303MOL0     H41758   9.917   3.227   4.788  1.0502 -2.2292  1.0549
  303MOL0     H41759   9.912   2.975   4.685  1.0607 -0.6329 -0.1224
  303MOL0     H41760  10.038   3.047   4.790  0.8286 -0.0494 -0.5014
  303MOL0     H41761  10.038   2.999   4.478  2.4743 -0.9968 -0.5655
  303MOL0     H41762  10.160   3.083   4.555  0.9812 -1.2484  1.8032
  303MOL0     H41763  10.321   2.937   4.748  1.6988 -0.3348  0.0809
  303MOL0     H41764  10.358   2.548   4.781  2.9861 -0.5956  1.4797
  303MOL0     H41765  10.344   2.679   4.888  0.4054 -0.7805  0.9620
  303MOL0     H41766  10.522   2.665   4.618  2.2348 -0.4413 -0.3666
  303MOL0     H41767  10.525   2.800   4.738  0.3809 -0.3661 -1.9343
  303MOL0     H41768  10.603   2.626   4.908 -1.0550 -0.3648  0.2886
  303MOL0     H41769  10.622   2.509   4.778 -1.5433 -1.0774  0.9702
  303MOL0     H41770  10.772   2.661   4.649 -0.0581  0.1897 -1.1480
  303MOL0     H41771  10.763   2.780   4.775 -6.0377 -0.3973  3.5347
  303MOL0     H41772  11.009   2.485   4.633 -1.3420 -0.8246  2.6494
  303MOL0     H41773  11.270   2.584   4.448 -1.2212  1.9615  1.2631
  303MOL0     H41774  11.190   2.435   4.514 -2.5744  1.4577 -0.1746
  303MOL0     H41775  11.342   2.469   4.578  1.7970  4.0210  1.6741
  303MOL0     H41776  11.728   2.720   4.827  4.0182 -0.4545 -0.2267
  303MOL0     H41777  11.927   2.832   4.778  3.4093  2.6208 -2.4806
  303MOL0     H41778  11.921   3.240   4.575  0.5460  0.5211  0.1530
  303MOL0     H41779  11.909   3.237   4.748 -0.6026 -2.2448  1.2960
  303MOL0     H41780  12.171   3.148   4.624 -0.7734 -0.6378  0.3354
  303MOL0     H41781  12.145   3.316   4.620  2.9688  0.3220  2.4518
  303MOL0     H41782  12.162   3.144   4.856 -0.6198 -1.7202 -3.3676
  303MOL0     H41783  12.085   3.315   4.869  1.5812 -0.5122  1.3122
  303MOL0     H41784  12.310   3.407   4.792  1.9803 -0.1816 -0.9353
  303MOL0     H41785  12.366   3.237   4.807 -2.7020 -1.6496  0.5481
  303MOL0     H41786  12.237   3.408   5.022 -0.1584  1.5485 -2.6414
  303MOL0     H41787  12.331   3.251   5.039  0.5499 -0.6933 -2.3124
  303MOL0     H41788  12.463   3.446   5.121  0.8569 -1.1917 -0.3512
  303MOL0     H41789  12.442   3.528   4.970  1.2504  1.9283  2.7971
  303MOL0     H41790  12.579   3.353   4.861  1.9981  2.7002 -0.7504
  303MOL0     H41791  12.586   3.266   5.010  0.7163 -0.3747 -0.0018
  303MOL0     H41792  12.692   3.439   5.144  1.5636 -1.9263  0.6824
  303MOL0     H41793  12.696   3.538   5.008  0.2963  0.5216  3.8833
  303MOL0     H41794  11.717   3.157   4.608  1.2009 -0.0821 -1.5666
  303MOL0     H41795  11.495   3.036   4.652  1.3635 -1.2543 -1.6940
  303MOL0     H41796  11.239   2.854   4.867 -2.2092  0.4819  0.7809
  303MOL0     H41797  10.987   2.793   4.919 -2.7812 -0.8455 -2.1196
  303MOL0     H41798   9.211   3.611   4.679 -1.5709  3.3553  0.6619
  303MOL0     H41799   8.961   3.614   4.662 -1.7751  0.3470 -1.6190
  303MOL0     H41800   8.615   3.633   4.564  1.6077 -0.5067 -1.4614
  303MOL0     H41801   8.369   3.621   4.587 -2.0618  0.2739 -0.8496
  303MOL0     H41802   8.154   3.543   4.494 -0.8781 -0.4453 -2.3455
  303MOL0     H41803   8.144   3.683   4.613  2.4798  1.4692 -1.1387
  303MOL0     H41804   7.932   3.747   4.538  0.9794 -0.6001  1.5718
  303MOL0     H41805   7.926   3.574   4.569 -1.5869 -0.0141 -0.5785
  303MOL0     H41806   7.943   3.715   4.303  1.3141 -0.8089  0.1125
  303MOL0     H41807   7.961   3.543   4.306 -3.1462 -2.0160  1.0985
  303MOL0     H41808   7.711   3.674   4.406 -0.1543  0.4516 -1.0620
  303MOL0     H41809   7.740   3.502   4.388  1.0738  0.2837  1.3007
  303MOL0     H41810   7.691   3.646   3.988  1.6817  2.4303  0.5710
  303MOL0     H41811   8.321   3.858   4.236 -1.1460  1.4068  0.5870
  303MOL0     H41812   8.615   3.987   4.218 -0.9185 -0.1922  1.5152
  303MOL0     H41813   8.636   3.833   4.131 -1.2521 -1.2631  0.1558
  303MOL0     H41814   8.484   3.926   4.112 -0.4012 -2.5656 -0.6869
  304MOL0     O41815  10.971   7.307   9.901 -0.5421  0.6023 -0.0507
  304MOL0     C41816  10.982   7.224   9.813  0.1060  0.3921 -0.4925
  304MOL0     O41817  10.905   7.110   9.802 -0.0403 -0.4301  0.3812
  304MOL0     C41818  10.788   7.101   9.880  0.3761 -0.4495  0.5538
  304MOL0     C41819  10.786   7.038  10.000 -0.2387 -0.5476  0.2959
  304MOL0     C41820  10.663   7.041  10.068 -0.3860 -0.2641  0.0570
  304MOL0     C41821  10.548   7.105  10.014 -0.4219 -0.1889 -1.0132
  304MOL0     O41822  10.433   7.129  10.070  0.2438  0.0596 -0.7911
  304MOL0     C41823  10.406   7.051  10.186 -0.0606  0.1959 -0.4196
  304MOL0     C41824  10.257   7.051  10.227  0.6632 -0.2879  0.0639
  304MOL0     C41825  10.218   6.955  10.337  0.1316 -0.5931  0.3232
  304MOL0     C41826  10.246   6.807  10.324  0.8416  0.4663  0.9386
  304MOL0     C41827  10.185   6.737  10.451  0.4471  0.8714  0.3363
  304MOL0     C41828  10.278   6.738  10.586  0.3496  0.2661  0.1796
  304MOL0     C41829  10.198   6.658  10.692  0.7093 -0.3294  0.0037
  304MOL0     C41830  10.252   6.684  10.836  0.1530  0.2582  0.1398
  304MOL0     N41831  10.397   6.649  10.836 -0.1714  0.2918 -0.8395
  304MOL0     C41832  10.451   6.532  10.777  0.6299 -0.0019  0.2270
  304MOL0     C41833  10.579   6.560  10.762  1.1159 -1.1234  0.0921
  304MOL0     C41834  10.686   6.494  10.674 -0.2698 -0.5789  0.1206
  304MOL0     C41835  10.820   6.463  10.749 -0.3921  0.4093  0.4356
  304MOL0     C41836  10.786   6.366  10.865 -0.0917 -0.0571 -0.2381
  304MOL0     C41837  10.910   6.338  10.951 -0.2450  0.1890 -0.2660
  304MOL0     O41838  10.884   6.260  11.073  0.5050  0.5102 -0.1833
  304MOL0     C41839  10.981   6.268  11.166 -0.1417  0.8443 -0.3533
  304MOL0     C41840  10.941   6.245  11.295 -0.4181  0.3218  0.7854
  304MOL0     C41841  11.032   6.234  11.403  0.6205  0.2401 -0.1919
  304MOL0     C41842  10.967   6.216  11.539  0.2703  0.9478 -0.4164
  304MOL0     C41843  11.173   6.241  11.384 -0.0149  0.1843 -0.0411
  304MOL0     C41844  11.274   6.223  11.488 -0.2920  0.2604 -0.7126
  304MOL0     O41845  11.247   6.178  11.618  0.0612 -0.1497 -0.0338
  304MOL0     C41846  11.351   6.154  11.707 -0.1722 -0.3027 -0.4382
  304MOL0     C41847  11.394   6.265  11.777 -0.4195  0.1552  0.6805
  304MOL0     C41848  11.493   6.245  11.874  0.1617 -0.4062  0.0897
  304MOL0     C41849  11.557   6.123  11.893  0.6306 -0.6368 -0.5500
  304MOL0     O41850  11.656   6.107  11.991 -0.3419 -0.2871  1.0106
  304MOL0     C41851  11.734   6.222  12.035  0.0899  1.4140 -0.1365
  304MOL0     C41852  11.828   6.177  12.152 -0.0164 -0.5944 -0.3606
  304MOL0     C41853  11.887   6.287  12.222  0.3000 -1.3706  0.3054
  304MOL0     C41854  12.041   6.311  12.203 -0.5809  0.1549  0.4302
  304MOL0     C41855  12.072   6.451  12.263  0.3103  0.6565 -0.2913
  304MOL0     C41856  12.208   6.493  12.194  0.6429  0.1654 -0.1555
  304MOL0     C41857  12.296   6.581  12.283 -0.7471 -0.0019 -0.2303
  304MOL0     C41858  12.423   6.612  12.203 -0.2805 -0.1217 -0.3096
  304MOL0    Cl41859  12.540   6.695  12.317  0.0642  0.3640  0.3281
  304MOL0     C41860  11.522   6.019  11.815 -0.0346  0.1515  0.7842
  304MOL0     C41861  11.419   6.032  11.722  0.0100  1.2717  0.1522
  304MOL0     O41862  11.390   6.257  11.454  0.1700  0.5786  0.7575
  304MOL0     C41863  11.210   6.262  11.249  0.4978 -0.2253 -0.3640
  304MOL0     C41864  11.115   6.276  11.145 -0.6775  0.2745 -0.0159
  304MOL0     N41865  10.606   6.682  10.828 -0.1044 -0.4553  1.0728
  304MOL0     N41866  10.493   6.738  10.855 -0.6573  0.0253 -0.0109
  304MOL0     C41867  10.557   7.161   9.885 -0.1838  0.0723 -0.0546
  304MOL0     C41868  10.675   7.157   9.816  0.1677  0.1106  0.8029
  304MOL0     C41869  11.108   7.245   9.727 -0.8255  0.2671  1.0254
  304MOL0     C41870  11.173   7.374   9.735  0.7439 -0.3781 -0.5984
  304MOL0     C41871  11.287   7.406   9.659  0.9050 -0.2165  0.4194
  304MOL0     C41872  11.322   7.320   9.551  0.1060  0.4901  0.4825
  304MOL0     O41873  11.419   7.337   9.457 -0.4003 -0.0001  0.1281
  304MOL0     C41874  11.502   7.450   9.455 -0.2646  0.0558 -0.1957
  304MOL0     C41875  11.604   7.438   9.335 -0.0292  0.8532 -0.2614
  304MOL0     C41876  11.696   7.328   9.350 -0.1350 -0.4684  1.1977
  304MOL0     C41877  11.812   7.328   9.241 -0.0751  0.5470  0.8857
  304MOL0     C41878  11.893   7.207   9.247 -0.3984  0.1673 -0.4057
  304MOL0     C41879  11.953   7.100   9.237  0.3972  0.0079 -1.2359
  304MOL0     C41880  11.245   7.192   9.538  0.4385 -0.3390 -0.3258
  304MOL0     C41881  11.137   7.156   9.618 -0.4381 -0.1311 -1.2088
  304MOL0     C41882  11.067   7.023   9.587  0.7207 -0.2598 -0.4453
  304MOL0     H41883  10.871   6.993  10.050  0.2872  1.1378  0.9902
  304MOL0     H41884  10.660   7.000  10.169 -0.6857  0.7484  0.4717
  304MOL0     H41885  10.462   7.096  10.267  0.2136  0.2054 -0.6133
  304MOL0     H41886  10.441   6.947  10.179  1.7771  0.5911  1.7285
  304MOL0     H41887  10.225   7.152  10.256  0.4820 -0.3213 -0.0151
  304MOL0     H41888  10.193   7.022  10.143  0.5799  0.1982 -0.0450
  304MOL0     H41889  10.269   7.001  10.423  1.8850  0.1147 -1.0440
  304MOL0     H41890  10.110   6.973  10.349  0.0020 -1.3665  0.3497
  304MOL0     H41891  10.191   6.764  10.240 -0.5699  1.3123  1.3907
  304MOL0     H41892  10.352   6.783  10.327 -0.1007 -4.7907  0.9436
  304MOL0     H41893  10.168   6.633  10.419 -1.4668  1.9887 -2.7136
  304MOL0     H41894  10.086   6.779  10.471 -0.1436  0.3997 -1.4123
  304MOL0     H41895  10.375   6.698  10.554  1.3153  1.5548  1.3583
  304MOL0     H41896  10.297   6.843  10.610  0.0379 -0.1883  2.6164
  304MOL0     H41897  10.200   6.549  10.682 -1.7839 -0.6501  2.1696
  304MOL0     H41898  10.098   6.702  10.698  1.1026  1.3653 -3.3990
  304MOL0     H41899  10.243   6.784  10.880  1.3833  0.7625 -0.7053
  304MOL0     H41900  10.205   6.612  10.904 -0.0208  0.4836  0.2614
  304MOL0     H41901  10.399   6.447  10.735  2.5208 -2.4681  2.5574
  304MOL0     H41902  10.699   6.560  10.588  2.0517  1.5427  1.9362
  304MOL0     H41903  10.640   6.404  10.633 -0.6987  0.1119 -0.9384
  304MOL0     H41904  10.897   6.428  10.679 -0.4651 -0.9611  1.0157
  304MOL0     H41905  10.866   6.555  10.785 -1.3804  1.9648 -2.0077
  304MOL0     H41906  10.705   6.411  10.922  1.1858  0.5002  1.2084
  304MOL0     H41907  10.730   6.281  10.825 -1.3876  0.8753 -0.4841
  304MOL0     H41908  10.977   6.287  10.881  1.6723 -0.6502  2.0401
  304MOL0     H41909  10.955   6.432  10.982  0.7079  0.4535 -2.2589
  304MOL0     H41910  10.836   6.215  11.300  0.1553 -2.0750 -0.1307
  304MOL0     H41911  10.862   6.246  11.532  0.1749  0.3512 -1.7955
  304MOL0     H41912  11.010   6.271  11.623  0.2469 -0.6511  0.6918
  304MOL0     H41913  10.979   6.114  11.576  1.2004  1.1427 -0.1619
  304MOL0     H41914  11.337   6.357  11.782 -1.7463 -0.5332 -0.6435
  304MOL0     H41915  11.517   6.324  11.944  1.0167  0.1144 -0.7605
  304MOL0     H41916  11.796   6.261  11.954  2.1944 -1.8609 -0.2574
  304MOL0     H41917  11.664   6.297  12.075 -2.5062 -0.2236 -1.4081
  304MOL0     H41918  11.767   6.125  12.227  2.1025 -1.5124  0.8026
  304MOL0     H41919  11.910   6.109  12.128  2.2031  2.1322 -0.8895
  304MOL0     H41920  11.872   6.272  12.329  1.3591  0.8724  0.8243
  304MOL0     H41921  11.823   6.371  12.190  0.8327 -1.3233 -0.6745
  304MOL0     H41922  12.064   6.303  12.096  1.8643 -0.6204  0.9477
  304MOL0     H41923  12.087   6.229  12.260 -0.6098  0.1692  0.4731
  304MOL0     H41924  11.993   6.520  12.231 -0.0568  0.0661 -0.6797
  304MOL0     H41925  12.097   6.462  12.369  1.2147  0.3433 -0.4636
  304MOL0     H41926  12.189   6.534  12.095  0.8250  0.1390 -0.2016
  304MOL0     H41927  12.270   6.405  12.176  0.6843 -0.0750  1.0416
  304MOL0     H41928  12.327   6.524  12.371 -0.0536 -0.7472 -0.9416
  304MOL0     H41929  12.235   6.668  12.308 -2.2478 -1.5245  1.7242
  304MOL0     H41930  12.396   6.674  12.117 -0.0771  0.1035 -0.2136
  304MOL0     H41931  12.458   6.517  12.165 -1.2076 -0.6029  0.0017
  304MOL0     H41932  11.566   5.920  11.817  0.7380  0.4794  0.5454
  304MOL0     H41933  11.391   5.956  11.649 -0.2316  0.9968  0.5259
  304MOL0     H41934  11.315   6.252  11.225  1.2446  0.7669  2.1724
  304MOL0     H41935  11.144   6.287  11.041 -0.0630 -1.3769 -0.0443
  304MOL0     H41936  10.470   7.207   9.840 -0.7455 -0.1598  0.7818
  304MOL0     H41937  10.675   7.202   9.717 -0.2512  0.7024  1.0723
  304MOL0     H41938  11.139   7.452   9.802  0.4081 -2.0653  1.3119
  304MOL0     H41939  11.340   7.499   9.675 -0.3587  0.8238 -1.0745
  304MOL0     H41940  11.439   7.539   9.454  1.7329  1.5470 -0.3078
  304MOL0     H41941  11.553   7.464   9.551 -2.1968  0.5143  0.8048
  304MOL0     H41942  11.662   7.530   9.347 -0.2641  1.2744 -1.9876
  304MOL0     H41943  11.567   7.448   9.232  1.5435 -0.9488 -1.0489
  304MOL0     H41944  11.732   7.334   9.453  0.8166 -0.1493  0.8544
  304MOL0     H41945  11.646   7.231   9.342  0.7909 -0.8112 -1.3015
  304MOL0     H41946  11.879   7.412   9.258 -0.8848  1.3494  0.2187
  304MOL0     H41947  11.757   7.332   9.146 -2.3848  0.3517  2.1492
  304MOL0     H41948  12.010   7.009   9.232  2.7649  1.0489  2.5598
  304MOL0     H41949  11.267   7.136   9.447 -1.7472  1.4820 -2.0750
  304MOL0     H41950  11.044   6.970   9.680 -1.0893  3.2382  1.2931
  304MOL0     H41951  10.968   7.039   9.544  0.0504  1.9696  1.7428
  304MOL0     H41952  11.121   6.954   9.520 -0.1081 -1.9193  0.5335
  305MOL0     O41953   3.071   0.276   9.028 -0.4610 -0.3793  0.5224
  305MOL0     C41954   3.128   0.269   8.922  0.1907 -0.5414  0.2872
  305MOL0     O41955   3.070   0.206   8.816 -0.9296 -0.0118  0.6220
  305MOL0     C41956   2.973   0.109   8.827  0.2047  0.6328  0.7536
  305MOL0     C41957   2.870   0.102   8.728  0.5597 -0.3836  0.0480
  305MOL0     C41958   2.779   0.000   8.729 -0.1079 -0.6164  0.3132
  305MOL0     C41959   2.762  -0.097   8.833  0.0688  0.2455  0.0883
  305MOL0     O41960   2.655  -0.181   8.817 -0.3376  0.4608  0.2647
  305MOL0     C41961   2.649  -0.287   8.909  0.2008 -0.1368 -0.3939
  305MOL0     C41962   2.518  -0.359   8.878  0.2670  0.6794 -0.6439
  305MOL0     C41963   2.514  -0.409   8.731 -0.7222 -0.1631  0.3301
  305MOL0     C41964   2.390  -0.493   8.699  0.6299  0.0696  0.1048
  305MOL0     C41965   2.394  -0.526   8.546 -0.3304 -0.2253 -0.0702
  305MOL0     C41966   2.516  -0.596   8.490 -0.0683 -0.5169  0.0682
  305MOL0     C41967   2.530  -0.733   8.556 -0.5564 -0.2350 -0.3006
  305MOL0     C41968   2.658  -0.804   8.513  0.0827  0.0389  0.1507
  305MOL0     N41969   2.663  -0.935   8.580 -0.3811  0.3664  0.1017
  305MOL0     C41970   2.698  -0.956   8.714 -0.2410 -0.0295  0.4328
  305MOL0     C41971   2.659  -1.090   8.734 -0.0779 -1.1138  0.9193
  305MOL0     C41972   2.664  -1.171   8.860  0.9507 -0.4121 -0.6750
  305MOL0     C41973   2.804  -1.173   8.925  0.4946 -0.4507  0.3237
  305MOL0     C41974   2.916  -1.196   8.833 -0.5130 -0.0349 -0.8735
  305MOL0     C41975   3.042  -1.228   8.912 -0.2585  0.3331  0.0914
  305MOL0     O41976   3.069  -1.129   9.004 -0.8356 -0.3365  0.1424
  305MOL0     C41977   3.180  -1.052   8.971 -0.4520  0.4326 -0.4039
  305MOL0     C41978   3.162  -0.921   8.940  1.0210 -0.0469  0.2860
  305MOL0     C41979   3.270  -0.834   8.909 -0.0055  0.4361 -0.3801
  305MOL0     C41980   3.242  -0.692   8.868  0.6581  0.4627 -0.0110
  305MOL0     C41981   3.399  -0.884   8.918  0.0454 -0.3386  0.0757
  305MOL0     C41982   3.525  -0.811   8.891  0.9770 -0.1188  0.3919
  305MOL0     O41983   3.631  -0.853   8.962  0.1706  0.1128 -0.6368
  305MOL0     C41984   3.759  -0.837   8.904 -0.6963  0.0705  0.3708
  305MOL0     C41985   3.859  -0.811   8.994  0.0362 -0.5426 -0.6725
  305MOL0     C41986   3.993  -0.800   8.961  0.2387  0.1402  0.6588
  305MOL0     C41987   4.037  -0.820   8.832  0.0154  0.0969 -0.1025
  305MOL0     O41988   4.172  -0.811   8.809 -0.1554  0.5787  0.4238
  305MOL0     C41989   4.226  -0.883   8.695  0.1046 -0.8184  0.2307
  305MOL0     C41990   4.383  -0.869   8.691  1.0141  0.8433  0.5669
  305MOL0     C41991   4.429  -0.728   8.648 -0.4725 -0.1228 -0.0161
  305MOL0     C41992   4.433  -0.610   8.753  0.1156  0.9536  0.2939
  305MOL0     C41993   4.483  -0.489   8.678  0.1787  0.9700 -0.4265
  305MOL0     C41994   4.500  -0.370   8.767  0.2382  0.3498  1.1589
  305MOL0     C41995   4.529  -0.238   8.690  0.0941  0.6839  0.1203
  305MOL0     C41996   4.420  -0.196   8.585 -0.3001  0.6532 -0.6133
  305MOL0    Cl41997   4.503  -0.122   8.439  0.2525  0.0854  0.1904
  305MOL0     C41998   3.941  -0.851   8.737  0.0892 -0.0312 -0.2614
  305MOL0     C41999   3.805  -0.866   8.770 -0.0005  0.2738 -0.2878
  305MOL0     O42000   3.523  -0.722   8.813  0.4658 -0.7439  0.6072
  305MOL0     C42001   3.413  -1.018   8.948  0.0323  0.6310 -0.0371
  305MOL0     C42002   3.304  -1.099   8.976 -0.2441  0.0717  0.1971
  305MOL0     N42003   2.617  -1.136   8.616  0.7548  0.1401  0.2679
  305MOL0     N42004   2.625  -1.045   8.521  0.1477  0.1423  0.0556
  305MOL0     C42005   2.858  -0.081   8.938 -0.2152 -0.1131 -0.5296
  305MOL0     C42006   2.963   0.020   8.932 -0.1004 -0.0888 -0.0863
  305MOL0     C42007   3.251   0.355   8.900  1.1182 -0.2042 -0.8254
  305MOL0     C42008   3.335   0.380   9.018 -0.2240  0.7106  0.0782
  305MOL0     C42009   3.445   0.459   9.001  0.2181  0.0328  0.0043
  305MOL0     C42010   3.497   0.505   8.877  0.1093  0.3031 -0.4214
  305MOL0     O42011   3.625   0.558   8.855  0.2137  0.1118 -0.5403
  305MOL0     C42012   3.690   0.613   8.965 -0.1875  0.1345  0.7162
  305MOL0     C42013   3.633   0.744   9.002  0.1340  1.1537  0.5629
  305MOL0     C42014   3.613   0.847   8.880  0.2536  0.3105 -0.4284
  305MOL0     C42015   3.641   0.987   8.923  0.1665  0.5307 -0.2255
  305MOL0     C42016   3.528   1.055   8.989 -0.7023  0.2070  0.2877
  305MOL0     C42017   3.437   1.106   9.047 -1.0028  1.0950 -0.6534
  305MOL0     C42018   3.419   0.472   8.765  1.2814  0.0257 -0.4618
  305MOL0     C42019   3.289   0.416   8.777  0.4518  0.0129  0.0396
  305MOL0     C42020   3.214   0.405   8.640 -0.7028 -0.0092  0.8815
  305MOL0     H42021   2.857   0.175   8.649 -0.5007  1.1427  1.5863
  305MOL0     H42022   2.706  -0.006   8.648  0.2714 -2.1801  0.0648
  305MOL0     H42023   2.649  -0.256   9.014  2.4384  2.5477 -1.0869
  305MOL0     H42024   2.725  -0.364   8.895 -0.1235 -0.1491 -2.3272
  305MOL0     H42025   2.521  -0.442   8.949  1.7875  0.9748 -0.3307
  305MOL0     H42026   2.426  -0.306   8.905  0.0862  0.5634 -1.0294
  305MOL0     H42027   2.506  -0.320   8.669  1.7773 -0.2362 -0.2210
  305MOL0     H42028   2.606  -0.463   8.705 -0.7685  0.1369 -0.5014
  305MOL0     H42029   2.380  -0.581   8.763  1.0897  0.1367  0.2730
  305MOL0     H42030   2.298  -0.435   8.705  1.9274  3.0335 -4.0211
  305MOL0     H42031   2.382  -0.436   8.485 -0.7071  0.4061  0.9066
  305MOL0     H42032   2.300  -0.573   8.517  0.1810  0.2398 -2.7445
  305MOL0     H42033   2.509  -0.612   8.382 -0.1621  2.0488 -0.3805
  305MOL0     H42034   2.608  -0.538   8.506 -0.7219 -0.1411  3.1037
  305MOL0     H42035   2.446  -0.800   8.533  0.7480 -2.7772  1.8150
  305MOL0     H42036   2.523  -0.721   8.665  0.7472 -3.1677  0.2048
  305MOL0     H42037   2.656  -0.819   8.405  3.1639 -2.2258  0.2397
  305MOL0     H42038   2.735  -0.739   8.556 -1.6113  0.8788  2.0685
  305MOL0     H42039   2.741  -0.899   8.796  1.0616 -1.7708  1.0404
  305MOL0     H42040   2.632  -1.275   8.854  0.7616 -0.4068  0.0487
  305MOL0     H42041   2.591  -1.120   8.925  3.0986  1.4164  0.4480
  305MOL0     H42042   2.822  -1.083   8.985  2.1147 -1.5984  1.6647
  305MOL0     H42043   2.810  -1.253   8.999 -0.6548  0.5462  1.5391
  305MOL0     H42044   2.907  -1.278   8.761  1.2577  0.3683 -1.6045
  305MOL0     H42045   2.938  -1.107   8.774 -3.3123  1.6204  0.4034
  305MOL0     H42046   3.037  -1.325   8.962  1.9734 -0.8763 -1.8277
  305MOL0     H42047   3.119  -1.231   8.835 -0.8739 -1.7929 -0.4986
  305MOL0     H42048   3.060  -0.885   8.936  1.0968  0.0914 -2.2099
  305MOL0     H42049   3.141  -0.683   8.909 -0.0169 -0.0898 -1.4850
  305MOL0     H42050   3.246  -0.682   8.759 -1.2232  2.1698  0.0040
  305MOL0     H42051   3.310  -0.622   8.917 -0.5609  1.1378  0.7855
  305MOL0     H42052   3.823  -0.785   9.093  0.6365  0.4858 -0.7068
  305MOL0     H42053   4.059  -0.783   9.045  1.6698  1.1211 -0.5952
  305MOL0     H42054   4.187  -0.984   8.681 -1.5328 -0.1152 -0.4816
  305MOL0     H42055   4.192  -0.830   8.606  3.2170 -0.0124 -0.6091
  305MOL0     H42056   4.425  -0.906   8.785  0.3819 -2.7075 -0.3917
  305MOL0     H42057   4.426  -0.937   8.616  1.2815  0.2462  1.2413
  305MOL0     H42058   4.358  -0.709   8.568 -0.0330 -0.6393 -0.5362
  305MOL0     H42059   4.529  -0.736   8.604  0.7017  2.4249  1.9420
  305MOL0     H42060   4.493  -0.645   8.838  0.5445 -1.4107 -0.8894
  305MOL0     H42061   4.327  -0.601   8.780 -0.7776 -2.3170 -1.5480
  305MOL0     H42062   4.578  -0.507   8.628  0.1776  1.5088 -0.6271
  305MOL0     H42063   4.415  -0.471   8.594  0.5028  1.3745 -0.6086
  305MOL0     H42064   4.587  -0.388   8.830  0.8471  2.6457  1.0711
  305MOL0     H42065   4.411  -0.355   8.829 -1.4226  0.8798 -1.2156
  305MOL0     H42066   4.623  -0.237   8.636 -0.3851 -0.2281 -0.7581
  305MOL0     H42067   4.538  -0.157   8.764  0.7059 -2.0798  3.3004
  305MOL0     H42068   4.352  -0.127   8.637  2.1257  1.5802  1.5470
  305MOL0     H42069   4.362  -0.283   8.553  1.1631 -0.5375 -0.1165
  305MOL0     H42070   3.977  -0.872   8.637  3.2168 -0.9225  0.9435
  305MOL0     H42071   3.747  -0.897   8.684 -0.4989  0.9500 -0.2053
  305MOL0     H42072   3.503  -1.078   8.943 -1.3109 -1.5335  0.3953
  305MOL0     H42073   3.322  -1.205   8.993  1.7644  0.5433  1.3688
  305MOL0     H42074   2.849  -0.140   9.029 -2.4439  1.2729  0.2334
  305MOL0     H42075   3.033   0.023   9.014 -1.8777  2.1805  1.4837
  305MOL0     H42076   3.298   0.346   9.115  0.8808  0.2690  0.3579
  305MOL0     H42077   3.508   0.469   9.088 -0.0355 -2.1156  0.4895
  305MOL0     H42078   3.688   0.551   9.055 -1.5035  0.6600  1.0715
  305MOL0     H42079   3.792   0.636   8.931  0.2977 -1.7662  0.7983
  305MOL0     H42080   3.705   0.780   9.076  1.7300  1.4445 -1.0597
  305MOL0     H42081   3.536   0.731   9.049 -1.3992 -2.3182 -2.9109
  305MOL0     H42082   3.682   0.824   8.798 -0.4976  1.5516 -1.4332
  305MOL0     H42083   3.512   0.833   8.840 -1.3872  4.4216  1.6307
  305MOL0     H42084   3.672   1.054   8.842  0.1597 -0.6179 -1.1967
  305MOL0     H42085   3.731   0.983   8.985  0.1516 -0.5577 -0.2580
  305MOL0     H42086   3.356   1.157   9.095 -1.0262  0.0782  0.4394
  305MOL0     H42087   3.463   0.500   8.670  2.5562  0.9762  0.3696
  305MOL0     H42088   3.261   0.329   8.578 -0.1292  0.7929  0.3142
  305MOL0     H42089   3.107   0.383   8.650 -0.7748 -0.1700 -0.2020
  305MOL0     H42090   3.230   0.495   8.581 -1.0662 -0.1565  0.5608
  306MOL0     O42091   9.949   7.101   0.159  0.7297  0.0460 -0.5138
  306MOL0     C42092  10.045   7.101   0.081 -0.0814 -0.1330 -0.3188
  306MOL0     O42093  10.149   7.198   0.090 -0.3371  0.2200  0.5290
  306MOL0     C42094  10.149   7.306   0.182  0.8345  0.3669  0.2711
  306MOL0     C42095  10.043   7.395   0.205  0.0279  1.1286 -0.1869
  306MOL0     C42096  10.050   7.498   0.296 -0.5567  0.5107 -0.3275
  306MOL0     C42097  10.172   7.526   0.365  0.2389  0.6908 -0.6297
  306MOL0     O42098  10.169   7.638   0.442  0.2221  0.9758 -0.3756
  306MOL0     C42099  10.298   7.683   0.485 -0.1894 -0.1061 -0.5555
  306MOL0     C42100  10.276   7.765   0.616 -0.1298  0.1927 -0.4298
  306MOL0     C42101  10.407   7.770   0.703  0.0190  0.7565 -0.4067
  306MOL0     C42102  10.535   7.838   0.628  0.0325  0.2416  0.1132
  306MOL0     C42103  10.662   7.836   0.719  0.1195 -0.6630 -0.7352
  306MOL0     C42104  10.783   7.905   0.642  0.1100 -0.4103  0.0898
  306MOL0     C42105  10.836   7.826   0.522 -0.7333 -0.7038  0.4180
  306MOL0     C42106  10.974   7.872   0.460 -0.4089  0.4201  0.2290
  306MOL0     N42107  10.949   7.997   0.400 -0.3282 -0.5019  0.3572
  306MOL0     C42108  10.864   8.029   0.288  0.2475  0.4800 -0.5211
  306MOL0     C42109  10.913   8.154   0.248 -0.4498  0.4858 -0.7530
  306MOL0     C42110  10.856   8.234   0.127  0.1271 -0.0464  0.5478
  306MOL0     C42111  10.956   8.235   0.003 -0.1836 -0.4979 -0.3508
  306MOL0     C42112  10.880   8.236  -0.133  0.3894  0.1648  0.1475
  306MOL0     C42113  10.967   8.244  -0.256 -1.3905  0.7143 -0.5542
  306MOL0     O42114  11.034   8.371  -0.245 -0.5987 -0.7084  0.0827
  306MOL0     C42115  11.164   8.373  -0.294  0.1645 -0.6404 -0.2374
  306MOL0     C42116  11.259   8.390  -0.195  0.5870  0.0675 -0.2953
  306MOL0     C42117  11.401   8.390  -0.224 -0.1390  0.0876  0.6997
  306MOL0     C42118  11.490   8.387  -0.107 -0.8377 -0.6736  0.5083
  306MOL0     C42119  11.446   8.364  -0.356 -0.4817  0.5523  1.1328
  306MOL0     C42120  11.587   8.363  -0.407  0.8271  0.1808  1.0084
  306MOL0     O42121  11.600   8.318  -0.536 -0.1712 -0.1729 -0.5716
  306MOL0     C42122  11.721   8.340  -0.594 -0.0296  0.6772 -0.2374
  306MOL0     C42123  11.745   8.458  -0.666 -0.2403 -0.0030  0.0669
  306MOL0     C42124  11.877   8.477  -0.697 -0.5975  0.0917 -0.0953
  306MOL0     C42125  11.987   8.395  -0.667  0.0517  0.2426  0.5700
  306MOL0     O42126  12.103   8.434  -0.727  0.5298 -0.4177 -0.3525
  306MOL0     C42127  12.215   8.347  -0.711  0.5824  1.0967  0.0696
  306MOL0     C42128  12.287   8.416  -0.589 -0.9624  0.2345 -0.8696
  306MOL0     C42129  12.427   8.362  -0.563  0.0700  0.4693 -0.2113
  306MOL0     C42130  12.536   8.416  -0.660  0.5481 -0.3357 -0.1102
  306MOL0     C42131  12.669   8.385  -0.589 -0.0595 -0.3778  0.4460
  306MOL0     C42132  12.775   8.421  -0.687 -0.1061  0.2723 -0.2008
  306MOL0     C42133  12.906   8.397  -0.617 -0.1237 -0.4889 -0.4028
  306MOL0     C42134  12.977   8.268  -0.647  0.0873  1.0584  0.9117
  306MOL0    Cl42135  12.895   8.145  -0.551 -0.5181 -0.2930  0.1630
  306MOL0     C42136  11.961   8.276  -0.593 -0.2958 -0.0363 -0.0123
  306MOL0     C42137  11.826   8.249  -0.569  0.0145  0.2166  0.5261
  306MOL0     O42138  11.681   8.404  -0.339  0.0491  0.0001  0.8418
  306MOL0     C42139  11.345   8.352  -0.454 -0.1518  0.5241  0.2319
  306MOL0     C42140  11.202   8.356  -0.427 -0.7770 -0.4868  0.0451
  306MOL0     N42141  11.020   8.191   0.329 -0.3365 -0.2256 -0.3097
  306MOL0     N42142  11.031   8.108   0.424  0.2257  0.4893 -0.0464
  306MOL0     C42143  10.279   7.449   0.327  0.3126  0.0526  0.6694
  306MOL0     C42144  10.267   7.341   0.236 -0.4041 -0.6166  0.8418
  306MOL0     C42145  10.048   7.005  -0.032  0.4047 -0.1789  0.1739
  306MOL0     C42146   9.924   6.960  -0.074 -0.2867 -0.0571  0.7265
  306MOL0     C42147   9.910   6.882  -0.187 -0.1281  0.4981 -0.1650
  306MOL0     C42148  10.025   6.845  -0.258 -0.2244  0.1450  0.1000
  306MOL0     O42149  10.010   6.778  -0.373 -0.3300 -0.8120 -0.7440
  306MOL0     C42150   9.886   6.748  -0.435  0.2663  0.5421 -0.3815
  306MOL0     C42151   9.827   6.617  -0.394  0.3231  0.5028  0.1978
  306MOL0     C42152   9.690   6.599  -0.454  0.3488  0.7039 -0.4875
  306MOL0     C42153   9.606   6.499  -0.374  0.1779 -0.0334 -0.6489
  306MOL0     C42154   9.460   6.499  -0.404  1.0452  0.1496  0.0016
  306MOL0     C42155   9.339   6.490  -0.411  0.9484  0.5593  0.1614
  306MOL0     C42156  10.151   6.888  -0.223 -0.2845  0.0639  0.0584
  306MOL0     C42157  10.163   6.969  -0.104  0.5227 -1.1770  0.0094
  306MOL0     C42158  10.308   7.006  -0.067  0.1362  0.0653 -0.2085
  306MOL0     H42159   9.947   7.370   0.162  1.3428 -0.1791 -2.6328
  306MOL0     H42160   9.963   7.560   0.316 -1.4209  0.4069 -3.2834
  306MOL0     H42161  10.344   7.740   0.403  1.3973  0.3777  0.6290
  306MOL0     H42162  10.359   7.595   0.504  0.4926  0.2875 -0.8553
  306MOL0     H42163  10.225   7.860   0.597 -2.4934 -0.9496 -0.1816
  306MOL0     H42164  10.199   7.712   0.672 -1.3429 -1.4965 -3.4122
  306MOL0     H42165  10.387   7.825   0.795  1.4232 -0.9069  0.9736
  306MOL0     H42166  10.443   7.671   0.734  0.9343  1.5641  1.2441
  306MOL0     H42167  10.561   7.775   0.543 -0.5435 -0.7575  0.6612
  306MOL0     H42168  10.504   7.936   0.590 -2.7245 -1.3154 -2.0182
  306MOL0     H42169  10.703   7.744   0.761  3.0214  1.5925  1.9306
  306MOL0     H42170  10.635   7.888   0.812 -0.8687 -0.2458 -1.2476
  306MOL0     H42171  10.757   8.008   0.614  2.0696  0.4026  1.0776
  306MOL0     H42172  10.871   7.916   0.706  0.8935 -1.0311 -0.8591
  306MOL0     H42173  10.770   7.814   0.436  0.1079  0.0583 -0.3526
  306MOL0     H42174  10.841   7.725   0.564  3.2879 -0.7817  0.1752
  306MOL0     H42175  11.060   7.862   0.527 -0.0632 -1.6625 -0.4436
  306MOL0     H42176  10.997   7.795   0.385 -0.1996 -1.2128  1.8851
  306MOL0     H42177  10.799   7.968   0.227  1.6961  1.1998 -2.9616
  306MOL0     H42178  10.827   8.334   0.161  0.1743 -0.0015  0.4536
  306MOL0     H42179  10.762   8.197   0.085  0.4252  0.1315 -0.2950
  306MOL0     H42180  11.033   8.312   0.012 -0.4393  0.0677 -2.4793
  306MOL0     H42181  11.006   8.138   0.006 -0.7085 -0.9440 -3.0476
  306MOL0     H42182  10.815   8.150  -0.146  4.4048 -2.7504 -3.7410
  306MOL0     H42183  10.822   8.328  -0.138  1.8782  1.1205 -0.1612
  306MOL0     H42184  11.039   8.162  -0.266  1.1615  2.9287 -1.7865
  306MOL0     H42185  10.915   8.241  -0.353  0.2043  0.2928 -1.4418
  306MOL0     H42186  11.226   8.411  -0.094 -0.3289 -1.2223 -0.3020
  306MOL0     H42187  11.439   8.378  -0.010  1.0467 -2.9100  1.4159
  306MOL0     H42188  11.544   8.482  -0.109 -0.4596 -0.8121  2.3345
  306MOL0     H42189  11.550   8.295  -0.105  0.9036  0.4122  2.4291
  306MOL0     H42190  11.667   8.534  -0.672  0.3492  0.9594  2.9213
  306MOL0     H42191  11.912   8.571  -0.740 -0.2493 -0.8959 -2.0896
  306MOL0     H42192  12.191   8.242  -0.690  0.5444  1.0836 -0.0369
  306MOL0     H42193  12.283   8.346  -0.797 -0.5210 -2.5723 -0.9237
  306MOL0     H42194  12.303   8.524  -0.597  0.1933  0.1902  0.4687
  306MOL0     H42195  12.224   8.408  -0.500 -0.4670  0.0005 -0.5351
  306MOL0     H42196  12.409   8.255  -0.582 -1.0796  0.3708  1.3148
  306MOL0     H42197  12.459   8.383  -0.460 -1.0187 -2.7203  0.9001
  306MOL0     H42198  12.529   8.525  -0.668  1.2450  0.1291  3.6743
  306MOL0     H42199  12.533   8.361  -0.754  0.0946 -2.8467  1.3004
  306MOL0     H42200  12.671   8.437  -0.493 -2.8271 -1.3053  1.1056
  306MOL0     H42201  12.675   8.279  -0.563  2.2537 -0.1295  1.1239
  306MOL0     H42202  12.763   8.529  -0.699 -0.6632 -0.0329 -2.8934
  306MOL0     H42203  12.758   8.371  -0.782 -4.3391  2.2847 -0.6956
  306MOL0     H42204  12.891   8.408  -0.509  0.5067 -1.8938 -0.1569
  306MOL0     H42205  12.979   8.471  -0.650 -0.6401  1.2233  1.9817
  306MOL0     H42206  13.080   8.263  -0.609 -0.2314 -0.6402  1.6360
  306MOL0     H42207  12.962   8.232  -0.749 -0.1959 -0.4361  1.4536
  306MOL0     H42208  12.036   8.205  -0.559 -1.1004 -0.8862  0.0324
  306MOL0     H42209  11.797   8.159  -0.516 -2.6940  2.0956  2.5009
  306MOL0     H42210  11.372   8.356  -0.559 -2.3996  1.9840 -0.3467
  306MOL0     H42211  11.125   8.335  -0.500 -3.2136  1.1868  1.9470
  306MOL0     H42212  10.382   7.473   0.353  0.2355  1.6763 -0.4170
  306MOL0     H42213  10.360   7.309   0.190 -2.2227 -0.7507 -3.1722
  306MOL0     H42214   9.832   6.990  -0.024 -1.1854 -3.5263  1.3946
  306MOL0     H42215   9.809   6.852  -0.215  0.0744 -2.1639  1.5494
  306MOL0     H42216   9.809   6.825  -0.423  1.6370  1.6489  1.9620
  306MOL0     H42217   9.905   6.736  -0.542  3.6890 -0.8108  0.2559
  306MOL0     H42218   9.809   6.619  -0.286  0.6681 -0.0649  0.2688
  306MOL0     H42219   9.887   6.535  -0.434 -1.8574  0.2892 -3.0300
  306MOL0     H42220   9.636   6.693  -0.466 -0.7617 -0.1326 -2.4623
  306MOL0     H42221   9.703   6.562  -0.556 -0.7089  3.6802 -1.7967
  306MOL0     H42222   9.613   6.522  -0.267  2.9496 -2.8081 -0.0914
  306MOL0     H42223   9.644   6.397  -0.370 -1.8614 -0.8092  1.0405
  306MOL0     H42224   9.234   6.470  -0.419  0.7261  0.7596  1.9677
  306MOL0     H42225  10.232   6.857  -0.288 -2.6762 -2.8894 -1.7605
  306MOL0     H42226  10.378   6.947  -0.126  2.2447  0.0855  2.1163
  306MOL0     H42227  10.321   7.114  -0.080 -1.6800  0.3295 -0.0424
  306MOL0     H42228  10.319   6.990   0.040 -0.3084 -1.7381 -0.4084
  307MOL0     O42229   0.635   9.534   7.987  0.4215 -0.3527 -0.1789
  307MOL0     C42230   0.561   9.496   7.898 -1.2785 -0.1935  0.1214
  307MOL0     O42231   0.611   9.472   7.775  0.0541 -0.1936  1.0853
  307MOL0     C42232   0.742   9.478   7.758 -0.2918  0.1750  0.4685
  307MOL0     C42233   0.793   9.567   7.663  0.6729 -0.3475 -0.4836
  307MOL0     C42234   0.918   9.578   7.641 -1.2492  0.6508 -0.0753
  307MOL0     C42235   1.008   9.494   7.701 -0.0200 -0.7277 -1.0167
  307MOL0     O42236   1.147   9.506   7.698  0.0095  0.1547 -0.5814
  307MOL0     C42237   1.206   9.610   7.630  0.4955 -0.3390 -0.0382
  307MOL0     C42238   1.357   9.603   7.642 -0.1926 -1.5703 -1.2511
  307MOL0     C42239   1.428   9.730   7.584 -0.2151  0.2011 -0.0645
  307MOL0     C42240   1.573   9.729   7.614 -0.5405 -0.2293  1.3531
  307MOL0     C42241   1.645   9.835   7.528  0.1080  0.3908 -0.6933
  307MOL0     C42242   1.798   9.807   7.526  0.8548  0.2548 -0.3592
  307MOL0     C42243   1.880   9.901   7.450 -0.2302 -0.3558 -0.7653
  307MOL0     C42244   2.011   9.839   7.421 -0.2335 -0.3568 -0.8477
  307MOL0     N42245   2.088   9.928   7.335 -0.5127  0.4989  0.2500
  307MOL0     C42246   2.203   9.985   7.379 -0.4451 -0.5607  0.0129
  307MOL0     C42247   2.254  10.047   7.270 -0.5674 -0.6023  0.2790
  307MOL0     C42248   2.372  10.141   7.265 -0.2069 -0.1657 -0.8386
  307MOL0     C42249   2.324  10.285   7.264  0.5989 -0.0594  0.3161
  307MOL0     C42250   2.420  10.396   7.245 -0.5419 -0.5291 -0.2807
  307MOL0     C42251   2.521  10.426   7.361  0.5146  0.3623  0.1432
  307MOL0     O42252   2.604  10.527   7.323 -0.1604 -0.4198 -0.6187
  307MOL0     C42253   2.689  10.576   7.410  0.0401 -0.2207 -0.3477
  307MOL0     C42254   2.747  10.704   7.372 -0.4311  0.4064 -0.1861
  307MOL0     C42255   2.831  10.770   7.458  0.1750  0.4589  0.1757
  307MOL0     C42256   2.879  10.906   7.410 -0.1458 -0.9726  0.5462
  307MOL0     C42257   2.871  10.718   7.579  0.3455  0.4302  0.3395
  307MOL0     C42258   2.954  10.786   7.674  0.4800  0.0675 -0.4279
  307MOL0     O42259   3.026  10.709   7.758 -0.1369 -0.0491 -0.8634
  307MOL0     C42260   3.126  10.749   7.845 -0.1742  0.2561 -0.2517
  307MOL0     C42261   3.180  10.657   7.933  0.2835  0.2454  0.2470
  307MOL0     C42262   3.274  10.693   8.026 -0.3841 -0.5591  0.1318
  307MOL0     C42263   3.327  10.823   8.043 -0.2320 -0.3674  0.0035
  307MOL0     O42264   3.431  10.846   8.135  0.1163  0.0557  0.0448
  307MOL0     C42265   3.434  10.975   8.198  2.2034  0.3135  0.6199
  307MOL0     C42266   3.430  10.958   8.353 -0.0668 -0.2123  0.2685
  307MOL0     C42267   3.437  11.101   8.422 -0.5488 -0.1084 -0.2062
  307MOL0     C42268   3.299  11.161   8.411 -0.5410  0.4358  0.8528
  307MOL0     C42269   3.297  11.294   8.485  0.5171 -0.3198 -1.0793
  307MOL0     C42270   3.196  11.388   8.422  0.1193 -0.7116 -0.4783
  307MOL0     C42271   3.056  11.332   8.417 -1.0809 -0.2066  0.6784
  307MOL0     C42272   2.965  11.434   8.361 -0.5365 -0.1923  0.4348
  307MOL0    Cl42273   2.800  11.359   8.322 -0.0933 -0.3539  0.4403
  307MOL0     C42274   3.280  10.915   7.944 -0.8205  0.0906 -0.7730
  307MOL0     C42275   3.180  10.879   7.858 -0.7670 -0.2452 -0.6142
  307MOL0     O42276   2.937  10.910   7.684  0.0951  0.2510 -1.0701
  307MOL0     C42277   2.814  10.595   7.620  0.3680 -0.0745 -0.6598
  307MOL0     C42278   2.722  10.524   7.537  0.3067 -0.4885  0.2253
  307MOL0     N42279   2.171  10.014   7.162  0.1104 -0.1171  0.2505
  307MOL0     N42280   2.070   9.946   7.205 -0.0364  0.0793 -0.1789
  307MOL0     C42281   0.964   9.407   7.803 -1.0581 -0.1720  1.0220
  307MOL0     C42282   0.824   9.397   7.830  0.1720  0.0687 -0.8053
  307MOL0     C42283   0.422   9.468   7.926 -0.4520  1.1581 -0.0976
  307MOL0     C42284   0.339   9.500   7.817 -0.9788  0.4020  0.4672
  307MOL0     C42285   0.203   9.491   7.832  0.0340 -0.0951  1.3297
  307MOL0     C42286   0.149   9.456   7.945  0.6540 -0.1936 -0.7162
  307MOL0     O42287   0.015   9.456   7.977 -0.0248  0.1358  0.0072
  307MOL0     C42288  -0.066   9.570   7.932 -0.3023  0.4732  0.2975
  307MOL0     C42289  -0.017   9.711   7.977 -0.2524 -0.2437  0.1591
  307MOL0     C42290   0.013   9.710   8.129 -0.3363 -1.0083 -0.8872
  307MOL0     C42291   0.076   9.833   8.192 -0.1214 -0.1199  0.2284
  307MOL0     C42292   0.219   9.861   8.155 -0.1076 -0.8827 -0.6145
  307MOL0     C42293   0.317   9.896   8.097  0.9358 -0.1895  0.3042
  307MOL0     C42294   0.225   9.420   8.059 -0.8227  0.3522  0.6997
  307MOL0     C42295   0.361   9.431   8.046 -0.7626 -0.3054 -0.3297
  307MOL0     C42296   0.439   9.403   8.176  0.2670  0.3694  0.3462
  307MOL0     H42297   0.718   9.628   7.614  1.0632  0.2669 -0.3306
  307MOL0     H42298   0.954   9.655   7.574  0.6690 -1.3593 -1.5119
  307MOL0     H42299   1.173   9.705   7.673  2.2360  0.1149  0.3924
  307MOL0     H42300   1.175   9.610   7.525  0.0048  2.4113  0.0239
  307MOL0     H42301   1.386   9.587   7.746  0.3233 -0.7432 -1.2618
  307MOL0     H42302   1.394   9.518   7.585  0.8362 -0.7533 -1.8426
  307MOL0     H42303   1.417   9.719   7.475  0.0714  1.9700 -0.2896
  307MOL0     H42304   1.387   9.827   7.613  0.8970  0.3581  1.0602
  307MOL0     H42305   1.577   9.741   7.723 -1.5332  1.6641  1.2206
  307MOL0     H42306   1.610   9.632   7.579 -1.0820  0.5200 -1.5714
  307MOL0     H42307   1.625   9.937   7.563 -1.1573 -0.5926  1.6967
  307MOL0     H42308   1.613   9.830   7.424  2.3349  2.5385 -1.6019
  307MOL0     H42309   1.831   9.812   7.630  3.8400 -1.6783 -1.1008
  307MOL0     H42310   1.817   9.709   7.481 -2.1490 -0.6385  0.0890
  307MOL0     H42311   1.888  10.002   7.492  0.3335 -0.6350 -0.1865
  307MOL0     H42312   1.841   9.919   7.350  2.8713  1.9077 -1.7429
  307MOL0     H42313   2.067   9.819   7.513  1.0058  3.9074 -0.4759
  307MOL0     H42314   2.010   9.741   7.372 -0.4792 -2.5902  3.1420
  307MOL0     H42315   2.237   9.979   7.482 -0.5849 -2.6652 -0.0175
  307MOL0     H42316   2.421  10.110   7.172  1.3467 -1.0010  0.2138
  307MOL0     H42317   2.441  10.122   7.348  0.6988 -0.9173 -1.7270
  307MOL0     H42318   2.250  10.304   7.186  0.6257  0.5942  0.4504
  307MOL0     H42319   2.289  10.299   7.367  2.6456 -1.7695  1.3302
  307MOL0     H42320   2.480  10.365   7.159 -2.7799 -2.0140 -1.3932
  307MOL0     H42321   2.367  10.488   7.217  0.3063  0.5995  1.6397
  307MOL0     H42322   2.456  10.458   7.443 -2.1794  0.7246 -1.9557
  307MOL0     H42323   2.569  10.332   7.388 -0.1551  0.6209  2.4391
  307MOL0     H42324   2.736  10.742   7.271  0.2628  0.7647 -0.1288
  307MOL0     H42325   2.847  10.984   7.480  1.2401 -3.1408  3.8611
  307MOL0     H42326   2.858  10.922   7.304  1.4130  4.1215  0.7320
  307MOL0     H42327   2.988  10.906   7.414 -0.0507 -4.2393  0.2433
  307MOL0     H42328   3.135  10.558   7.928  2.2758 -0.6542 -1.8451
  307MOL0     H42329   3.310  10.616   8.093  2.9077  0.4537 -0.2714
  307MOL0     H42330   3.524  11.026   8.162  1.0646  2.6516  0.9037
  307MOL0     H42331   3.354  11.036   8.155  3.1143 -0.8409 -3.0202
  307MOL0     H42332   3.340  10.903   8.384 -1.0563  0.1212 -1.8367
  307MOL0     H42333   3.520  10.904   8.383  0.5279  0.3248 -0.5180
  307MOL0     H42334   3.515  11.162   8.376 -0.0902 -0.8813 -0.4785
  307MOL0     H42335   3.457  11.093   8.529  2.9479 -1.5722 -0.8383
  307MOL0     H42336   3.232  11.087   8.456  0.5000 -0.3838  1.1156
  307MOL0     H42337   3.274  11.164   8.305  0.6836 -0.0168  0.5378
  307MOL0     H42338   3.266  11.275   8.588  1.5033  0.5935 -0.5989
  307MOL0     H42339   3.396  11.340   8.482  0.9411 -0.0727  5.0572
  307MOL0     H42340   3.239  11.418   8.326 -1.8600  0.6945 -0.9862
  307MOL0     H42341   3.197  11.482   8.478  1.2271 -0.0356 -1.5705
  307MOL0     H42342   3.026  11.298   8.516  2.1517 -2.0805  1.1725
  307MOL0     H42343   3.048  11.246   8.349  1.0278  0.8254 -1.0072
  307MOL0     H42344   3.006  11.470   8.266  1.5284 -1.3735  0.8215
  307MOL0     H42345   2.943  11.514   8.433 -2.1884  1.9880 -2.2926
  307MOL0     H42346   3.322  11.014   7.957 -0.6619 -0.0628 -0.0608
  307MOL0     H42347   3.135  10.954   7.794 -0.2070 -0.4550 -1.2744
  307MOL0     H42348   2.836  10.540   7.711  0.8376  2.2901  0.7311
  307MOL0     H42349   2.674  10.429   7.557  0.9300 -1.4411 -2.3594
  307MOL0     H42350   1.044   9.356   7.857  2.1814  0.9063 -2.3315
  307MOL0     H42351   0.787   9.321   7.898  2.7038 -1.5612 -1.1385
  307MOL0     H42352   0.385   9.529   7.723 -0.8603 -1.8622 -0.2430
  307MOL0     H42353   0.140   9.529   7.753  2.1185 -0.2639 -0.5186
  307MOL0     H42354  -0.066   9.570   7.823 -1.2671  3.0560  0.2285
  307MOL0     H42355  -0.168   9.551   7.965 -0.4480  2.0154  0.8405
  307MOL0     H42356  -0.097   9.780   7.951  2.0939  1.9648 -1.7554
  307MOL0     H42357   0.078   9.736   7.928  0.7477  1.9976  3.0010
  307MOL0     H42358  -0.084   9.692   8.176 -1.1287  0.2895 -1.9727
  307MOL0     H42359   0.077   9.623   8.148  0.4318 -0.1647  0.5728
  307MOL0     H42360   0.075   9.820   8.300  2.0516  0.2243  0.3406
  307MOL0     H42361   0.016   9.923   8.174 -0.0398  0.3585  2.1005
  307MOL0     H42362   0.411   9.922   8.054  2.6531  1.7333  4.6977
  307MOL0     H42363   0.180   9.394   8.154 -0.4599 -2.9459  0.0910
  307MOL0     H42364   0.488   9.306   8.174 -0.1877  0.1288  0.9121
  307MOL0     H42365   0.520   9.476   8.188  0.2293  0.9344 -2.1817
  307MOL0     H42366   0.370   9.397   8.261 -1.0078 -0.2155 -0.6888
  308MOL0     O42367   2.851   0.722   4.770 -0.4208  0.0202 -0.1903
  308MOL0     C42368   2.838   0.762   4.653 -0.4962  0.5899 -0.1797
  308MOL0     O42369   2.925   0.735   4.554 -0.3210  0.5827 -0.5751
  308MOL0     C42370   3.022   0.644   4.587 -0.1774  0.2205 -0.2598
  308MOL0     C42371   3.161   0.677   4.583 -0.2762 -0.7771  0.4290
  308MOL0     C42372   3.263   0.581   4.603  0.1670  0.1053  0.8880
  308MOL0     C42373   3.231   0.448   4.645  0.5528 -0.0618  0.0319
  308MOL0     O42374   3.331   0.363   4.682  0.3191  0.4346 -0.0629
  308MOL0     C42375   3.325   0.286   4.803 -0.1384  0.6861  0.1380
  308MOL0     C42376   3.448   0.203   4.815  0.0546  0.3067 -0.5220
  308MOL0     C42377   3.580   0.275   4.801  0.1605 -0.0930 -0.1485
  308MOL0     C42378   3.585   0.402   4.893  0.3364  0.2679  0.4487
  308MOL0     C42379   3.724   0.456   4.895 -1.1172  0.0732 -0.1358
  308MOL0     C42380   3.727   0.602   4.944 -0.2518 -0.9761 -0.3008
  308MOL0     C42381   3.865   0.660   4.970 -0.1302 -0.3267 -0.5936
  308MOL0     C42382   3.914   0.616   5.104 -1.2204  0.0476 -1.2920
  308MOL0     N42383   4.010   0.713   5.163  0.2227  0.3274  0.1138
  308MOL0     C42384   4.004   0.849   5.170 -0.0731 -0.2858 -0.4117
  308MOL0     C42385   4.135   0.897   5.182  0.4759 -0.0304  0.3936
  308MOL0     C42386   4.166   1.044   5.194 -0.3893 -0.0486  0.2699
  308MOL0     C42387   4.105   1.118   5.071  0.2749  0.6607  0.3980
  308MOL0     C42388   4.187   1.108   4.949 -0.7904 -0.0160  0.2384
  308MOL0     C42389   4.134   1.186   4.831  0.6417 -0.5897 -0.3955
  308MOL0     O42390   4.107   1.321   4.857 -0.2059 -0.4958  0.0798
  308MOL0     C42391   4.196   1.412   4.802  0.0861  0.4619  0.6773
  308MOL0     C42392   4.299   1.463   4.881  0.2285 -0.3137 -0.2467
  308MOL0     C42393   4.395   1.552   4.835 -0.1799 -0.8932  0.3983
  308MOL0     C42394   4.485   1.606   4.945 -1.0441 -1.1311  0.2678
  308MOL0     C42395   4.387   1.591   4.696  0.1664  0.2234 -0.5869
  308MOL0     C42396   4.486   1.685   4.633  0.9351 -0.2033 -0.7782
  308MOL0     O42397   4.525   1.678   4.499 -0.3993 -0.1135 -0.6085
  308MOL0     C42398   4.624   1.764   4.460  0.2875 -0.4064  0.3791
  308MOL0     C42399   4.757   1.749   4.489 -0.3456 -0.1273 -0.3934
  308MOL0     C42400   4.850   1.838   4.438  0.1324 -0.0509 -0.1537
  308MOL0     C42401   4.823   1.948   4.360 -0.9201  0.4878  0.7197
  308MOL0     O42402   4.926   2.034   4.313  0.1415  0.2676 -0.2401
  308MOL0     C42403   4.929   2.064   4.173  0.0860  0.1293  0.1314
  308MOL0     C42404   5.076   2.071   4.132 -0.1266 -0.0165 -0.1928
  308MOL0     C42405   5.133   1.937   4.063  1.0073  0.6763  0.5394
  308MOL0     C42406   5.285   1.948   4.079 -0.0491  0.5766 -0.2156
  308MOL0     C42407   5.348   1.825   4.026 -0.2158  0.5542 -0.7496
  308MOL0     C42408   5.498   1.838   4.021 -0.0626  0.4165 -0.3009
  308MOL0     C42409   5.568   1.720   3.941  0.4266  0.5127 -0.9892
  308MOL0     C42410   5.649   1.616   4.032  0.0310  0.6458 -0.5515
  308MOL0    Cl42411   5.781   1.701   4.128  0.0916 -0.0572 -0.4468
  308MOL0     C42412   4.676   1.966   4.333 -0.7198 -0.1895 -0.1458
  308MOL0     C42413   4.588   1.874   4.385  0.4854 -0.9186 -0.2501
  308MOL0     O42414   4.551   1.754   4.712 -0.9805  0.1611  0.2486
  308MOL0     C42415   4.289   1.536   4.614 -0.4337  0.2997 -0.2893
  308MOL0     C42416   4.190   1.447   4.664  0.2479 -0.4572  0.4489
  308MOL0     N42417   4.216   0.780   5.180  0.3254 -0.5421 -0.6195
  308MOL0     N42418   4.139   0.676   5.183 -0.1987  0.6925  0.2794
  308MOL0     C42419   3.098   0.413   4.649  0.2220  0.8125 -0.6038
  308MOL0     C42420   2.993   0.507   4.616 -0.6900  0.0522  0.5715
  308MOL0     C42421   2.728   0.855   4.623 -0.8148 -1.0971 -0.1156
  308MOL0     C42422   2.739   0.928   4.505 -0.0180 -0.6682  0.3583
  308MOL0     C42423   2.656   1.031   4.467  0.1589 -0.6367 -1.1395
  308MOL0     C42424   2.555   1.065   4.552  0.8642  0.1736 -0.6473
  308MOL0     O42425   2.450   1.143   4.501 -0.2109 -0.3689  0.5734
  308MOL0     C42426   2.346   1.185   4.594  0.1097  0.2451  0.6711
  308MOL0     C42427   2.234   1.077   4.603 -0.3043  0.0020 -0.6112
  308MOL0     C42428   2.131   1.079   4.492 -0.7985  0.3489 -0.6787
  308MOL0     C42429   2.197   1.066   4.348 -0.1818  0.6815  0.0392
  308MOL0     C42430   2.087   1.074   4.260  0.3873 -0.1162  0.2965
  308MOL0     C42431   2.000   1.085   4.178 -0.0699 -0.3157 -0.4124
  308MOL0     C42432   2.540   0.995   4.675  0.1537  0.1503 -0.7078
  308MOL0     C42433   2.628   0.891   4.712 -0.5781  0.4044 -0.5334
  308MOL0     C42434   2.595   0.808   4.834 -0.6034 -0.9160 -0.2669
  308MOL0     H42435   3.180   0.784   4.575  0.2741 -0.9353 -0.5378
  308MOL0     H42436   3.363   0.622   4.594 -0.6771  1.9009 -0.8673
  308MOL0     H42437   3.245   0.212   4.803  0.9350 -0.5314  1.8254
  308MOL0     H42438   3.315   0.361   4.883 -1.6431  1.4963 -0.7756
  308MOL0     H42439   3.443   0.163   4.916 -0.2065  2.5305  0.4019
  308MOL0     H42440   3.439   0.120   4.744  0.7250  0.7538 -1.1498
  308MOL0     H42441   3.658   0.206   4.835  1.3752  0.3211 -1.9688
  308MOL0     H42442   3.600   0.301   4.697  0.5325  0.2254  0.0029
  308MOL0     H42443   3.513   0.474   4.854 -0.0787  0.4750  1.5738
  308MOL0     H42444   3.567   0.375   4.997  0.0892  0.5008  0.4676
  308MOL0     H42445   3.772   0.459   4.797  3.4249 -1.2617  1.7936
  308MOL0     H42446   3.786   0.396   4.963  1.6738  0.0628 -2.5229
  308MOL0     H42447   3.693   0.657   4.855  1.8139 -0.5847 -0.9056
  308MOL0     H42448   3.657   0.623   5.025  1.5960 -0.3769  1.1897
  308MOL0     H42449   3.847   0.767   4.984 -1.4740 -0.8147  2.3791
  308MOL0     H42450   3.939   0.633   4.894 -1.4752  0.8968 -2.3973
  308MOL0     H42451   3.834   0.586   5.173  0.2901 -1.4401 -0.0917
  308MOL0     H42452   3.983   0.535   5.079 -0.8100  0.3993 -1.3116
  308MOL0     H42453   3.918   0.914   5.186  0.0945 -0.0942 -0.2733
  308MOL0     H42454   4.274   1.062   5.194 -0.4318  0.2545  1.0669
  308MOL0     H42455   4.137   1.096   5.286 -2.1831 -0.1901 -0.1651
  308MOL0     H42456   4.012   1.067   5.043  1.2396 -1.1062  0.2660
  308MOL0     H42457   4.077   1.221   5.095 -2.6604 -0.0499  0.5299
  308MOL0     H42458   4.286   1.147   4.974 -0.5129  0.1767 -1.1240
  308MOL0     H42459   4.202   1.005   4.916  4.1437  0.4700  0.2475
  308MOL0     H42460   4.200   1.176   4.744 -0.4658  2.8069 -1.7694
  308MOL0     H42461   4.034   1.148   4.811 -0.1887  0.6692  1.0919
  308MOL0     H42462   4.294   1.438   4.987  2.0090  0.9798  0.1994
  308MOL0     H42463   4.483   1.552   5.041 -2.5918 -1.5005  0.0561
  308MOL0     H42464   4.447   1.706   4.968 -0.1912 -0.5472 -0.7725
  308MOL0     H42465   4.585   1.622   4.905 -2.6520  4.2677 -2.4403
  308MOL0     H42466   4.804   1.675   4.553  1.6357  1.7255  0.3982
  308MOL0     H42467   4.956   1.836   4.459 -0.0702 -0.8825  0.8255
  308MOL0     H42468   4.882   1.991   4.106  2.7669 -0.7613 -0.9351
  308MOL0     H42469   4.880   2.159   4.152  1.3332  0.8166  0.2184
  308MOL0     H42470   5.098   2.157   4.068 -0.1475  1.9442  2.2874
  308MOL0     H42471   5.135   2.092   4.221 -3.4120  1.1155  1.9269
  308MOL0     H42472   5.095   1.931   3.961 -0.1278 -2.9492  1.0226
  308MOL0     H42473   5.100   1.845   4.112  1.9621 -0.9588 -1.6856
  308MOL0     H42474   5.320   1.953   4.183  0.1114 -0.5484 -0.1999
  308MOL0     H42475   5.329   2.038   4.034  2.9952 -0.9286 -0.5482
  308MOL0     H42476   5.322   1.740   4.089  0.9224  3.6100  4.3763
  308MOL0     H42477   5.308   1.802   3.926  1.0370 -0.6460 -1.0051
  308MOL0     H42478   5.539   1.850   4.121  4.1709  2.2666 -1.9999
  308MOL0     H42479   5.528   1.937   3.985  1.9539  1.4906  3.8157
  308MOL0     H42480   5.631   1.753   3.858 -1.2332  1.6003 -1.8711
  308MOL0     H42481   5.485   1.667   3.894 -0.6398 -1.1640  2.4270
  308MOL0     H42482   5.698   1.541   3.969 -1.7921 -3.1948  2.1712
  308MOL0     H42483   5.578   1.561   4.094  1.1605  0.5358  0.6928
  308MOL0     H42484   4.659   2.044   4.259 -0.2201  0.4896  0.4421
  308MOL0     H42485   4.488   1.878   4.344  0.5646  0.9318 -0.3354
  308MOL0     H42486   4.286   1.557   4.507 -1.7046 -0.8242 -0.5059
  308MOL0     H42487   4.103   1.413   4.609  1.3202 -2.2216 -0.2832
  308MOL0     H42488   3.070   0.313   4.681  1.7289  0.3519 -0.6629
  308MOL0     H42489   2.888   0.482   4.613 -0.8059  0.6060 -0.6815
  308MOL0     H42490   2.815   0.894   4.435  1.0073 -0.0563  1.1530
  308MOL0     H42491   2.660   1.079   4.370  0.2043 -0.9599 -1.3000
  308MOL0     H42492   2.378   1.217   4.694 -0.0218  1.7727  0.2534
  308MOL0     H42493   2.314   1.281   4.551 -1.2284 -0.3738  0.2560
  308MOL0     H42494   2.183   1.099   4.697  1.7779  1.8863  0.1650
  308MOL0     H42495   2.282   0.979   4.594  1.2680  0.8755 -2.5457
  308MOL0     H42496   2.063   0.999   4.522  0.4125 -0.4489  0.0588
  308MOL0     H42497   2.091   1.180   4.506 -0.1524  0.8664 -2.3107
  308MOL0     H42498   2.249   0.970   4.337  1.0218  1.3507 -0.3588
  308MOL0     H42499   2.269   1.147   4.334  2.2460 -1.0338  1.7976
  308MOL0     H42500   1.923   1.089   4.104  1.4855 -1.2293 -2.1492
  308MOL0     H42501   2.455   1.005   4.742 -0.0097  1.2694 -1.0712
  308MOL0     H42502   2.660   0.833   4.918  0.1672 -0.8633 -0.8696
  308MOL0     H42503   2.495   0.841   4.863 -0.0167  1.0293 -0.3312
  308MOL0     H42504   2.586   0.701   4.813 -1.8248 -0.7500 -0.7061
  309MOL0     O42505   0.354   2.680   6.055 -0.4470 -0.2009  0.5979
  309MOL0     C42506   0.443   2.750   5.995  0.3933  0.0242 -0.3800
  309MOL0     O42507   0.414   2.825   5.882  0.0643  0.3104  0.0333
  309MOL0     C42508   0.275   2.819   5.836 -0.1880 -0.5608 -0.6011
  309MOL0     C42509   0.180   2.882   5.914  0.4350 -0.7506 -0.1312
  309MOL0     C42510   0.047   2.894   5.879 -0.1918 -0.0113  1.1161
  309MOL0     C42511  -0.002   2.835   5.764  1.4981  0.9260 -0.0500
  309MOL0     O42512  -0.138   2.840   5.733 -0.3091  0.2599  0.0182
  309MOL0     C42513  -0.179   2.861   5.600 -0.0352 -1.0306  0.4278
  309MOL0     C42514  -0.171   3.003   5.546 -0.7953  0.3263  0.4685
  309MOL0     C42515  -0.028   3.058   5.557 -0.5070 -0.6890 -0.1754
  309MOL0     C42516  -0.008   3.197   5.493  0.1435 -0.2546 -0.1981
  309MOL0     C42517   0.135   3.231   5.486 -1.2244 -0.6418 -0.1094
  309MOL0     C42518   0.189   3.282   5.620 -0.1632  0.1746 -0.6635
  309MOL0     C42519   0.206   3.167   5.735  0.4298 -0.6691 -0.2063
  309MOL0     C42520   0.350   3.169   5.801 -0.0834  0.6986  0.2828
  309MOL0     N42521   0.390   3.300   5.855  0.1402  0.1252 -0.0736
  309MOL0     C42522   0.319   3.379   5.934 -0.3477  0.1042 -0.0312
  309MOL0     C42523   0.397   3.493   5.950 -0.2369 -1.2523 -0.6938
  309MOL0     C42524   0.357   3.621   6.027 -0.1540 -0.1466  0.1285
  309MOL0     C42525   0.342   3.601   6.181  0.0395  0.2451  0.4583
  309MOL0     C42526   0.467   3.557   6.252  0.4571  0.5154 -0.2063
  309MOL0     C42527   0.601   3.638   6.232 -0.6848 -0.6226  0.3850
  309MOL0     O42528   0.691   3.600   6.342 -0.1199 -0.2121  0.5881
  309MOL0     C42529   0.788   3.687   6.361 -0.2699  0.6776  0.1439
  309MOL0     C42530   0.878   3.713   6.257  0.8063 -0.9737  0.2744
  309MOL0     C42531   0.967   3.822   6.268  0.8082  0.5301  0.1348
  309MOL0     C42532   1.058   3.850   6.150  0.1522 -0.0590 -0.5189
  309MOL0     C42533   0.981   3.877   6.406  0.5999 -0.3389 -0.3089
  309MOL0     C42534   1.088   3.976   6.445 -0.6304 -0.2582  0.5577
  309MOL0     O42535   1.100   4.007   6.576  0.6811 -0.0086 -0.2574
  309MOL0     C42536   1.208   4.066   6.622 -0.6214 -0.2708 -0.0611
  309MOL0     C42537   1.190   4.139   6.738  0.3596 -0.7768 -0.3221
  309MOL0     C42538   1.299   4.177   6.810 -0.4058  0.7434 -0.7063
  309MOL0     C42539   1.427   4.164   6.760 -0.7482 -0.0598  0.7278
  309MOL0     O42540   1.545   4.216   6.815  0.3192  0.0156 -0.0011
  309MOL0     C42541   1.534   4.294   6.932  0.3100 -0.2200 -0.0319
  309MOL0     C42542   1.671   4.328   6.996  0.1760  0.0688  0.5367
  309MOL0     C42543   1.774   4.211   6.981  0.9132 -0.8424 -0.2142
  309MOL0     C42544   1.907   4.252   7.051  0.3363  0.7480  0.5905
  309MOL0     C42545   2.018   4.148   7.045 -1.4327  0.7354 -0.6563
  309MOL0     C42546   2.141   4.171   7.129  0.1459 -0.7484 -0.4408
  309MOL0     C42547   2.262   4.075   7.104  0.9335  0.2412  1.2067
  309MOL0     C42548   2.365   4.086   7.216  0.1450 -0.2140 -0.1816
  309MOL0    Cl42549   2.449   3.933   7.227 -0.3293 -0.5720 -0.0284
  309MOL0     C42550   1.447   4.098   6.640 -0.0109 -0.1241 -0.6323
  309MOL0     C42551   1.338   4.041   6.571  0.0684  0.8138 -0.0028
  309MOL0     O42552   1.148   4.038   6.355  0.7104  0.1592 -0.1347
  309MOL0     C42553   0.897   3.837   6.510 -0.7180 -0.9994 -0.2307
  309MOL0     C42554   0.798   3.755   6.482 -0.8598  0.5355 -0.6192
  309MOL0     N42555   0.523   3.473   5.893  1.0270 -0.4223 -0.6467
  309MOL0     N42556   0.515   3.355   5.841 -1.1877 -0.4778  0.1342
  309MOL0     C42557   0.094   2.761   5.691  1.0658  0.2359  0.1514
  309MOL0     C42558   0.231   2.761   5.717  0.3554  0.0107 -0.3441
  309MOL0     C42559   0.576   2.766   6.049  0.2012 -0.6534  0.0024
  309MOL0     C42560   0.677   2.784   5.959  0.2782 -0.1676  0.0178
  309MOL0     C42561   0.813   2.777   6.007  0.4090 -0.9166 -0.6391
  309MOL0     C42562   0.847   2.755   6.140 -0.5675  0.6287  0.8031
  309MOL0     O42563   0.977   2.763   6.182 -0.0992 -0.6041  0.2167
  309MOL0     C42564   1.033   2.709   6.299  0.3221 -0.5486 -0.7275
  309MOL0     C42565   1.128   2.599   6.271 -0.4068 -0.7147  0.5204
  309MOL0     C42566   1.254   2.645   6.191  0.2972  0.4082 -0.4212
  309MOL0     C42567   1.342   2.522   6.150  0.2457 -0.4344  0.9367
  309MOL0     C42568   1.410   2.462   6.265  0.1667 -0.0181  0.5725
  309MOL0     C42569   1.476   2.402   6.348  0.9172  0.4077  0.6707
  309MOL0     C42570   0.739   2.749   6.230 -0.0793 -0.0851  0.0302
  309MOL0     C42571   0.608   2.735   6.185  0.5660  0.6062  0.3342
  309MOL0     C42572   0.500   2.707   6.287  0.1322 -0.2650  0.5007
  309MOL0     H42573   0.212   2.908   6.014 -1.4845  1.0343  0.1081
  309MOL0     H42574  -0.008   2.958   5.948 -0.1999 -1.8100  2.8543
  309MOL0     H42575  -0.280   2.821   5.587  0.3825 -1.6085 -1.2459
  309MOL0     H42576  -0.120   2.808   5.525 -1.1789  1.2278 -2.2537
  309MOL0     H42577  -0.210   3.007   5.444  1.7690  1.9288 -0.5438
  309MOL0     H42578  -0.241   3.065   5.603 -1.4801  1.4194 -1.4813
  309MOL0     H42579  -0.013   3.083   5.662  0.3342  1.5794 -0.7868
  309MOL0     H42580   0.048   2.995   5.510 -1.9886 -1.1711 -2.0493
  309MOL0     H42581  -0.047   3.194   5.391  0.6913 -1.0793 -0.3959
  309MOL0     H42582  -0.059   3.279   5.544 -0.3787  1.1980 -2.8633
  309MOL0     H42583   0.151   3.311   5.413 -2.6382  1.4926  1.7791
  309MOL0     H42584   0.182   3.138   5.454 -1.6153 -1.2337  1.0098
  309MOL0     H42585   0.288   3.326   5.605 -0.4930  1.8463  1.5686
  309MOL0     H42586   0.124   3.364   5.653 -0.2921 -1.3976  3.6037
  309MOL0     H42587   0.203   3.073   5.680 -0.2827  1.8267 -4.9742
  309MOL0     H42588   0.122   3.170   5.806 -2.2950  0.4734 -3.2009
  309MOL0     H42589   0.374   3.088   5.870  0.0574  0.7625  0.3086
  309MOL0     H42590   0.417   3.147   5.717 -0.6047  1.8159 -0.4582
  309MOL0     H42591   0.221   3.354   5.972 -0.3511 -2.6123 -1.6057
  309MOL0     H42592   0.259   3.644   5.985 -0.6929 -3.4812 -0.7301
  309MOL0     H42593   0.421   3.707   6.007 -0.7314  0.2765  0.0831
  309MOL0     H42594   0.295   3.675   6.246 -2.7568 -1.5106  0.6138
  309MOL0     H42595   0.279   3.513   6.199  1.1705 -0.4817  1.0192
  309MOL0     H42596   0.441   3.541   6.357 -0.8873  1.0617 -0.4350
  309MOL0     H42597   0.481   3.455   6.214  0.3688  0.3939  0.0824
  309MOL0     H42598   0.642   3.605   6.137  0.2960 -1.1249  0.9650
  309MOL0     H42599   0.590   3.746   6.236  1.4164 -0.3055 -1.0349
  309MOL0     H42600   0.875   3.659   6.163 -0.4372  0.2707 -0.4453
  309MOL0     H42601   1.055   3.952   6.112 -1.9824  0.3723  0.6907
  309MOL0     H42602   1.043   3.774   6.072  1.0810  0.1547 -0.9150
  309MOL0     H42603   1.166   3.835   6.165  0.0593 -1.2024 -0.8507
  309MOL0     H42604   1.089   4.154   6.774  0.9694 -1.8959  2.0461
  309MOL0     H42605   1.287   4.216   6.910  1.7361 -1.3463  0.4681
  309MOL0     H42606   1.469   4.381   6.918 -0.2711 -0.8378 -1.3725
  309MOL0     H42607   1.481   4.235   7.008  0.8815 -1.0573 -0.2749
  309MOL0     H42608   1.715   4.413   6.943 -0.1611  1.7839  2.8461
  309MOL0     H42609   1.655   4.356   7.100  3.8407 -1.0318  1.5595
  309MOL0     H42610   1.797   4.188   6.877  3.7154  2.3464 -0.4664
  309MOL0     H42611   1.726   4.123   7.026 -0.9712  0.7157  0.9887
  309MOL0     H42612   1.895   4.275   7.157  5.2643  2.2329  1.0771
  309MOL0     H42613   1.941   4.343   7.000  3.5452 -0.0545  1.0537
  309MOL0     H42614   1.975   4.054   7.078 -2.2081  1.0202 -0.8514
  309MOL0     H42615   2.047   4.136   6.940 -1.7189  2.0159 -0.9027
  309MOL0     H42616   2.112   4.172   7.234 -0.0368  2.7154 -0.4136
  309MOL0     H42617   2.172   4.275   7.112 -2.7246 -0.2739 -4.0641
  309MOL0     H42618   2.315   4.107   7.013  0.2460 -3.4276 -0.7020
  309MOL0     H42619   2.228   3.972   7.091 -1.0013  1.0837 -0.9768
  309MOL0     H42620   2.310   4.099   7.309  1.4492 -0.1234  0.6061
  309MOL0     H42621   2.431   4.172   7.200 -0.3486 -0.1999 -2.5211
  309MOL0     H42622   1.548   4.098   6.603 -0.3117  2.6239 -1.7100
  309MOL0     H42623   1.363   3.970   6.493  0.1184 -1.4502  1.9580
  309MOL0     H42624   0.903   3.884   6.607 -0.0959  0.8871 -1.1362
  309MOL0     H42625   0.730   3.715   6.557 -3.3544  0.7330 -2.6047
  309MOL0     H42626   0.065   2.704   5.603  2.5195  0.8710 -0.7815
  309MOL0     H42627   0.303   2.711   5.653  2.1318  2.0923 -0.0950
  309MOL0     H42628   0.662   2.782   5.851  0.1472 -3.1484 -0.0008
  309MOL0     H42629   0.891   2.809   5.940  0.8512  2.2707  1.1821
  309MOL0     H42630   1.091   2.787   6.351  1.1645 -1.4562 -0.2716
  309MOL0     H42631   0.957   2.683   6.373  0.0497  0.7849 -0.5083
  309MOL0     H42632   1.082   2.512   6.224  1.1657 -0.4796 -1.6419
  309MOL0     H42633   1.168   2.571   6.368  1.3032 -3.6112 -0.8796
  309MOL0     H42634   1.219   2.705   6.106 -1.2293 -0.9233 -0.7875
  309MOL0     H42635   1.310   2.705   6.263  2.2131 -1.3275 -0.3775
  309MOL0     H42636   1.413   2.543   6.069  1.2926 -0.4070  1.8281
  309MOL0     H42637   1.272   2.452   6.105  2.2477 -1.3542 -0.9225
  309MOL0     H42638   1.535   2.338   6.410  1.6975 -0.7709 -1.1966
  309MOL0     H42639   0.762   2.750   6.336 -0.1339  2.7155  0.0975
  309MOL0     H42640   0.441   2.620   6.258  0.5205 -0.7086  1.0135
  309MOL0     H42641   0.540   2.695   6.388  3.0325  3.2436 -0.0288
  309MOL0     H42642   0.430   2.792   6.294  1.0977  0.7231 -1.2332
  310MOL0     O42643  10.963   9.547   4.030  0.2846 -0.4922  0.4585
  310MOL0     C42644  10.904   9.548   4.133 -0.6856  0.1606 -0.4101
  310MOL0     O42645  10.965   9.540   4.246  0.5321  0.5903 -0.0585
  310MOL0     C42646  11.093   9.494   4.246 -0.2133 -0.4060  0.7161
  310MOL0     C42647  11.116   9.357   4.234 -0.2431  0.5486 -1.1569
  310MOL0     C42648  11.243   9.307   4.248 -0.1903  0.9149 -0.4381
  310MOL0     C42649  11.348   9.392   4.268 -1.2755 -0.6370  0.5030
  310MOL0     O42650  11.470   9.347   4.299 -0.1405 -0.2567 -0.4632
  310MOL0     C42651  11.541   9.282   4.198 -0.5042 -0.2245  0.1011
  310MOL0     C42652  11.689   9.268   4.257  0.2716  0.2509 -0.0612
  310MOL0     C42653  11.765   9.392   4.203  0.1141  0.0066  0.5726
  310MOL0     C42654  11.893   9.394   4.267 -0.8099  0.3387 -0.3727
  310MOL0     C42655  11.991   9.306   4.192  0.3108  0.1818 -0.6347
  310MOL0     C42656  12.123   9.302   4.268 -0.1870 -0.2468 -0.1701
  310MOL0     C42657  12.253   9.270   4.192  0.4847  0.4540  0.7217
  310MOL0     C42658  12.267   9.117   4.155 -0.1324 -0.2717 -0.3654
  310MOL0     N42659  12.406   9.091   4.095  0.1591 -0.0234  0.3095
  310MOL0     C42660  12.523   9.142   4.140 -0.0303 -0.0874 -0.4583
  310MOL0     C42661  12.616   9.099   4.054  0.0686 -0.7827  0.3815
  310MOL0     C42662  12.760   9.135   4.060  0.0497 -0.0985  0.5863
  310MOL0     C42663  12.849   9.014   4.073  0.1775 -0.4463 -0.4397
  310MOL0     C42664  12.995   9.062   4.090  0.0889 -0.4108  0.0476
  310MOL0     C42665  13.091   8.944   4.100 -0.1909 -0.3920 -0.3901
  310MOL0     O42666  13.223   8.997   4.088 -0.1830  0.5724  0.0106
  310MOL0     C42667  13.335   8.914   4.111 -0.2544 -0.1590  0.0886
  310MOL0     C42668  13.455   8.987   4.124  0.0143 -0.2661 -0.0915
  310MOL0     C42669  13.576   8.924   4.147  0.4747 -0.2309 -0.2429
  310MOL0     C42670  13.697   9.009   4.147 -0.8491 -0.4274  0.1718
  310MOL0     C42671  13.574   8.782   4.174  0.4516 -0.2394  0.2924
  310MOL0     C42672  13.686   8.695   4.217 -0.2624 -1.0748 -0.3249
  310MOL0     O42673  13.657   8.563   4.216 -0.1741 -0.8086 -0.5937
  310MOL0     C42674  13.764   8.470   4.218 -0.2007  0.1626  0.3840
  310MOL0     C42675  13.732   8.339   4.257 -0.0463 -0.0327  0.2625
  310MOL0     C42676  13.819   8.228   4.247  0.2345 -0.6069  0.4926
  310MOL0     C42677  13.954   8.248   4.211  0.1355  0.0721  0.1060
  310MOL0     O42678  14.044   8.149   4.191 -0.2206  0.0033  0.0379
  310MOL0     C42679  14.166   8.163   4.271 -0.1983 -0.2841  0.2431
  310MOL0     C42680  14.271   8.062   4.227 -0.8241 -0.0297  0.0955
  310MOL0     C42681  14.387   8.046   4.319  0.3032 -0.6482  1.2058
  310MOL0     C42682  14.489   7.946   4.280 -0.0855 -0.2395  0.2674
  310MOL0     C42683  14.599   7.899   4.383  0.8521 -0.2395 -0.3377
  310MOL0     C42684  14.686   7.779   4.322  0.0738  0.2419  0.0519
  310MOL0     C42685  14.824   7.777   4.386  0.8190  0.5312 -0.3051
  310MOL0     C42686  14.869   7.624   4.401 -0.3571 -0.1906 -0.1689
  310MOL0    Cl42687  14.778   7.550   4.522  0.7305 -0.2710 -0.1847
  310MOL0     C42688  13.987   8.383   4.178 -0.2385 -0.8950 -1.0051
  310MOL0     C42689  13.895   8.481   4.173 -0.4575 -0.3707 -0.3629
  310MOL0     O42690  13.793   8.747   4.237 -0.5578  1.4053 -0.0501
  310MOL0     C42691  13.454   8.710   4.162 -0.1744  0.2000  0.4838
  310MOL0     C42692  13.337   8.777   4.134 -0.1110  0.2871 -0.1657
  310MOL0     N42693  12.552   9.015   3.961 -0.8702  0.4482  0.0542
  310MOL0     N42694  12.427   9.017   3.985  0.9093 -0.9868  0.8991
  310MOL0     C42695  11.322   9.526   4.287  0.3831 -0.3942 -0.2289
  310MOL0     C42696  11.196   9.584   4.280 -0.0964  0.0280  0.0848
  310MOL0     C42697  10.763   9.553   4.131  0.4960 -0.0186  0.5918
  310MOL0     C42698  10.695   9.573   4.253 -0.7771  0.0931  0.2255
  310MOL0     C42699  10.559   9.579   4.266  0.1586 -0.1912 -0.4494
  310MOL0     C42700  10.472   9.556   4.155  1.1360  0.4507  0.7535
  310MOL0     O42701  10.336   9.565   4.172  0.0995  0.6970  0.5195
  310MOL0     C42702  10.248   9.539   4.051  1.4751  0.2527 -0.2398
  310MOL0     C42703  10.102   9.539   4.107 -0.8781  0.0165  0.7278
  310MOL0     C42704  10.017   9.532   3.975 -0.0473  0.1081 -0.3572
  310MOL0     C42705   9.875   9.530   4.014  0.7236  0.1925 -0.1005
  310MOL0     C42706   9.785   9.633   3.958 -0.9104  0.5494 -0.0957
  310MOL0     C42707   9.688   9.699   3.924 -0.3806  0.1431 -0.4814
  310MOL0     C42708  10.536   9.525   4.029 -0.2666  0.6543 -0.8411
  310MOL0     C42709  10.681   9.536   4.014  0.1633  0.3459  0.0484
  310MOL0     C42710  10.716   9.507   3.872 -0.0621  0.4021  0.2744
  310MOL0     H42711  11.033   9.289   4.219  0.1633  0.3021 -2.4087
  310MOL0     H42712  11.257   9.199   4.256  0.5602  1.1062  1.5987
  310MOL0     H42713  11.539   9.344   4.108  0.5210  1.1918  1.0121
  310MOL0     H42714  11.501   9.182   4.179  1.1204 -0.7641 -0.6594
  310MOL0     H42715  11.674   9.253   4.365 -3.5320 -2.2127 -0.7247
  310MOL0     H42716  11.737   9.175   4.228  3.1429  0.7075  2.6730
  310MOL0     H42717  11.783   9.386   4.095  0.8239 -1.5720  0.7431
  310MOL0     H42718  11.722   9.490   4.224  0.3611 -0.1782  2.0191
  310MOL0     H42719  11.934   9.496   4.265  0.2964 -0.0557 -3.1586
  310MOL0     H42720  11.878   9.367   4.372 -0.0542  0.2271 -0.2839
  310MOL0     H42721  12.008   9.337   4.088  0.1097 -0.3469 -0.8284
  310MOL0     H42722  11.962   9.201   4.186 -0.6071  0.4712 -1.4663
  310MOL0     H42723  12.139   9.401   4.311 -0.3777  0.9167 -2.6220
  310MOL0     H42724  12.108   9.226   4.345  0.0445  2.7617  3.1425
  310MOL0     H42725  12.335   9.306   4.255  0.4082 -0.0381  1.1071
  310MOL0     H42726  12.236   9.322   4.097 -0.0187  0.5384  0.8608
  310MOL0     H42727  12.260   9.059   4.248  0.2389  1.3724  0.7313
  310MOL0     H42728  12.184   9.082   4.093 -1.3267 -0.6785  1.3937
  310MOL0     H42729  12.536   9.200   4.231 -2.3511 -2.0178  1.2396
  310MOL0     H42730  12.780   9.201   4.145 -3.4051 -0.1947  1.6040
  310MOL0     H42731  12.787   9.185   3.967 -2.5609 -2.1211 -1.3936
  310MOL0     H42732  12.813   8.944   4.149 -0.5220  0.3666 -0.0106
  310MOL0     H42733  12.851   8.960   3.978  0.5545  0.5571 -1.0247
  310MOL0     H42734  13.027   9.117   4.001  3.3773 -3.2469 -0.7011
  310MOL0     H42735  13.005   9.127   4.178 -0.3210 -1.7974  1.1677
  310MOL0     H42736  13.063   8.887   4.189  1.5433  0.0095  0.4607
  310MOL0     H42737  13.061   8.884   4.014 -2.2262 -0.4868  0.3339
  310MOL0     H42738  13.454   9.093   4.100  2.7974 -0.7963 -3.2979
  310MOL0     H42739  13.754   8.967   4.064  1.4720 -1.0259  1.9616
  310MOL0     H42740  13.754   8.991   4.238  1.3688 -1.5572 -1.3569
  310MOL0     H42741  13.683   9.114   4.118  2.4813 -0.3297 -1.5717
  310MOL0     H42742  13.631   8.312   4.284 -0.9994  0.0839 -2.8030
  310MOL0     H42743  13.785   8.129   4.275  0.4033 -0.2864  1.8701
  310MOL0     H42744  14.213   8.261   4.258 -0.9559 -0.0470 -0.7649
  310MOL0     H42745  14.149   8.136   4.376  2.8287  1.8892  1.4335
  310MOL0     H42746  14.218   7.967   4.211 -0.3993 -0.8226  2.8442
  310MOL0     H42747  14.308   8.097   4.131  0.2148 -2.0904 -0.3139
  310MOL0     H42748  14.346   8.021   4.418 -1.0930  1.7936  1.3444
  310MOL0     H42749  14.425   8.148   4.326 -0.2621 -0.2888 -0.5945
  310MOL0     H42750  14.535   7.990   4.191  0.6420 -1.2297  0.1382
  310MOL0     H42751  14.436   7.855   4.252  3.2176 -2.5148  0.7518
  310MOL0     H42752  14.659   7.989   4.393 -0.9728  1.0572 -0.4991
  310MOL0     H42753  14.553   7.862   4.475 -1.3503 -1.9663 -1.9980
  310MOL0     H42754  14.702   7.789   4.214  0.7310  1.0492  0.2167
  310MOL0     H42755  14.628   7.686   4.325  1.9014 -1.3572 -4.4601
  310MOL0     H42756  14.822   7.829   4.482  1.1941 -1.9222  1.1041
  310MOL0     H42757  14.897   7.838   4.331  1.9563  1.8319  2.4598
  310MOL0     H42758  14.975   7.612   4.428  0.0621 -0.7157 -1.9298
  310MOL0     H42759  14.863   7.572   4.305  0.4005 -0.2889 -0.1756
  310MOL0     H42760  14.088   8.406   4.146  1.0716 -2.6595  1.5698
  310MOL0     H42761  13.929   8.577   4.135 -1.9921  1.1758  1.9370
  310MOL0     H42762  13.439   8.606   4.189  1.9348  0.4316  2.8526
  310MOL0     H42763  13.240   8.728   4.137 -0.9641  1.9550  1.4298
  310MOL0     H42764  11.402   9.594   4.314 -0.2870 -0.7209  2.8991
  310MOL0     H42765  11.177   9.687   4.308 -3.7522 -0.9847  2.0049
  310MOL0     H42766  10.754   9.574   4.344  0.8108 -1.4056 -0.7334
  310MOL0     H42767  10.500   9.609   4.352 -1.9243  0.3895 -1.9987
  310MOL0     H42768  10.267   9.616   3.976 -1.4736  2.0573  0.6690
  310MOL0     H42769  10.262   9.440   4.006 -2.7005 -0.2835 -0.7788
  310MOL0     H42770  10.081   9.621   4.176 -0.3799  0.8712 -0.1147
  310MOL0     H42771  10.087   9.441   4.154  3.3364 -1.6981 -1.0503
  310MOL0     H42772  10.036   9.616   3.907 -3.2358 -0.1215 -1.6988
  310MOL0     H42773  10.031   9.449   3.906 -2.2288  0.5194 -1.3996
  310MOL0     H42774   9.859   9.535   4.122 -0.2613 -0.4457 -0.1988
  310MOL0     H42775   9.822   9.438   3.990 -4.6293  2.9987 -0.5737
  310MOL0     H42776   9.607   9.761   3.891 -0.1820 -0.2626 -1.7936
  310MOL0     H42777  10.476   9.509   3.940 -3.1187  4.3230  0.1711
  310MOL0     H42778  10.801   9.439   3.868  0.1105  0.6612 -1.8336
  310MOL0     H42779  10.634   9.449   3.829  0.0696 -3.1092  4.1508
  310MOL0     H42780  10.755   9.596   3.820  2.1616 -0.9187 -0.4777
  311MOL0     O42781  10.878   5.017   3.401  0.3871  0.1876 -0.2477
  311MOL0     C42782  10.901   4.926   3.327  0.0426 -0.0883 -0.2519
  311MOL0     O42783  11.005   4.925   3.234  0.0531 -0.1268 -0.0246
  311MOL0     C42784  11.098   5.029   3.258  0.7787 -0.2192  0.6071
  311MOL0     C42785  11.072   5.157   3.196 -1.1977  0.1186 -0.6390
  311MOL0     C42786  11.156   5.269   3.234 -0.2285  0.7633  1.1139
  311MOL0     C42787  11.255   5.253   3.335  0.2327  0.6472 -0.0776
  311MOL0     O42788  11.348   5.349   3.357  0.5067  0.5414  0.0436
  311MOL0     C42789  11.389   5.368   3.495 -0.1334  0.3268  0.0194
  311MOL0     C42790  11.501   5.473   3.497  0.2678  0.6134 -1.0553
  311MOL0     C42791  11.602   5.453   3.616  0.9967 -0.0884  0.8023
  311MOL0     C42792  11.539   5.469   3.757  0.1503 -0.4398 -1.0112
  311MOL0     C42793  11.657   5.494   3.853  0.3277 -0.3700  0.0388
  311MOL0     C42794  11.626   5.517   4.001  0.0069  1.0635 -0.2076
  311MOL0     C42795  11.524   5.409   4.055 -0.1016 -0.6627 -0.0472
  311MOL0     C42796  11.481   5.439   4.199 -0.7100  0.2644  0.1782
  311MOL0     N42797  11.586   5.462   4.298  0.9167  0.1207  0.4551
  311MOL0     C42798  11.695   5.384   4.331 -0.0865 -0.4092 -0.1884
  311MOL0     C42799  11.750   5.437   4.435  0.7621  0.5057  0.2549
  311MOL0     C42800  11.851   5.369   4.521  0.0469  0.3420  0.5537
  311MOL0     C42801  11.995   5.382   4.467 -0.7407  0.6109 -0.0464
  311MOL0     C42802  12.025   5.525   4.439  0.5722  0.8977 -0.5702
  311MOL0     C42803  11.990   5.627   4.551 -0.1455  0.2194 -0.4490
  311MOL0     O42804  12.042   5.575   4.679 -0.1054 -1.0044  0.1525
  311MOL0     C42805  12.012   5.638   4.797  0.0302 -0.0595  0.3353
  311MOL0     C42806  12.048   5.566   4.912 -0.3215  0.3863 -0.8259
  311MOL0     C42807  12.032   5.628   5.039 -0.0645  0.1693 -0.4649
  311MOL0     C42808  12.064   5.549   5.166 -0.9317  0.5111 -0.0137
  311MOL0     C42809  11.980   5.758   5.054  1.0536 -0.0703  0.6214
  311MOL0     C42810  11.947   5.819   5.181  0.5497  0.3107  0.1574
  311MOL0     O42811  12.039   5.899   5.244 -0.0465  0.8654  0.4400
  311MOL0     C42812  12.175   5.892   5.223 -0.5409  0.2144  0.1292
  311MOL0     C42813  12.258   5.906   5.343 -0.7499 -0.5960 -0.6704
  311MOL0     C42814  12.398   5.900   5.337 -0.8436  0.7514  0.7914
  311MOL0     C42815  12.461   5.893   5.210 -0.4870  0.2392  0.5618
  311MOL0     O42816  12.594   5.905   5.178 -0.6008  0.2017 -0.3998
  311MOL0     C42817  12.684   5.906   5.283  0.3214 -0.1884 -0.1996
  311MOL0     C42818  12.714   6.051   5.325 -0.0313 -0.0485 -0.5146
  311MOL0     C42819  12.849   6.072   5.400  0.6425 -0.2424 -0.7216
  311MOL0     C42820  12.882   6.211   5.444 -0.5678  0.7059  0.0664
  311MOL0     C42821  13.024   6.211   5.505  0.6781 -0.1376 -0.3255
  311MOL0     C42822  13.075   6.361   5.537 -0.0260  0.5880  0.0340
  311MOL0     C42823  13.209   6.351   5.600  0.2104  0.1624 -0.3635
  311MOL0     C42824  13.327   6.347   5.501 -0.0606 -0.5743 -0.0221
  311MOL0    Cl42825  13.385   6.513   5.449 -0.0180 -0.0790 -0.1847
  311MOL0     C42826  12.385   5.887   5.091  0.3316 -0.4124  0.2273
  311MOL0     C42827  12.243   5.877   5.096  0.5746 -0.0362 -0.5723
  311MOL0     O42828  11.836   5.786   5.221  0.7235  0.5590 -0.7154
  311MOL0     C42829  11.938   5.817   4.932  0.6571 -0.3278 -0.1765
  311MOL0     C42830  11.954   5.757   4.807 -0.3851 -0.1742  0.3453
  311MOL0     N42831  11.674   5.542   4.471  0.7307  0.2833 -0.0391
  311MOL0     N42832  11.580   5.560   4.390  0.9653  0.0638 -0.0090
  311MOL0     C42833  11.267   5.122   3.395 -0.9243 -0.5446  0.3648
  311MOL0     C42834  11.184   5.019   3.360 -0.6857  0.2590  0.7502
  311MOL0     C42835  10.809   4.801   3.336 -0.6669 -0.0567 -0.9017
  311MOL0     C42836  10.804   4.718   3.220  0.1374 -0.1910 -0.0634
  311MOL0     C42837  10.724   4.605   3.209 -0.1593  0.6689 -0.8518
  311MOL0     C42838  10.649   4.565   3.321  0.2926 -0.3174  0.2277
  311MOL0     O42839  10.589   4.435   3.321 -0.2144 -0.3043  0.3333
  311MOL0     C42840  10.453   4.454   3.362  0.0856  0.5666  0.1851
  311MOL0     C42841  10.368   4.326   3.327 -0.3274  0.4795  0.2795
  311MOL0     C42842  10.325   4.323   3.186 -0.4497 -0.6171  0.3023
  311MOL0     C42843  10.195   4.240   3.174  0.4066  1.3620  0.7934
  311MOL0     C42844  10.113   4.259   3.058 -0.9134  0.1572  0.5219
  311MOL0     C42845  10.056   4.278   2.950 -1.4474  0.0469  0.0309
  311MOL0     C42846  10.656   4.653   3.434 -0.6057  0.2602 -0.2856
  311MOL0     C42847  10.730   4.765   3.450 -0.4523 -0.7453  0.7766
  311MOL0     C42848  10.724   4.841   3.579 -0.8508  0.4940  0.4756
  311MOL0     H42849  10.989   5.163   3.126 -1.8641  1.8498  0.2432
  311MOL0     H42850  11.139   5.361   3.178 -1.0422 -0.6877 -1.1178
  311MOL0     H42851  11.414   5.275   3.547 -1.4141 -0.5243 -0.8351
  311MOL0     H42852  11.307   5.409   3.555 -2.1092 -0.4928 -1.9937
  311MOL0     H42853  11.561   5.457   3.407  2.7110  1.8052  0.2520
  311MOL0     H42854  11.448   5.569   3.496 -0.4188  0.3331  1.6230
  311MOL0     H42855  11.660   5.361   3.601  3.9411  1.8608 -0.6743
  311MOL0     H42856  11.678   5.523   3.580 -0.9957  0.7206 -2.1330
  311MOL0     H42857  11.478   5.560   3.770  2.0937  1.3985 -3.6013
  311MOL0     H42858  11.483   5.382   3.791  0.5312  0.1242  1.2460
  311MOL0     H42859  11.708   5.577   3.803  0.3970 -0.5640 -0.2140
  311MOL0     H42860  11.721   5.405   3.851 -0.3605 -0.8538 -0.9784
  311MOL0     H42861  11.719   5.499   4.055 -0.5499  0.5815  0.5936
  311MOL0     H42862  11.591   5.621   4.007  0.7342  1.2649  0.6365
  311MOL0     H42863  11.554   5.304   4.047 -0.4456 -0.9127  1.5444
  311MOL0     H42864  11.441   5.409   3.984  0.7757 -2.1538 -1.1056
  311MOL0     H42865  11.423   5.532   4.197 -0.5202  0.3986 -2.2808
  311MOL0     H42866  11.412   5.359   4.230  2.1525 -2.2852  0.4019
  311MOL0     H42867  11.733   5.290   4.294  1.5422 -0.3734  1.2670
  311MOL0     H42868  11.827   5.262   4.524 -0.1139  0.3981  1.9769
  311MOL0     H42869  11.845   5.425   4.615  0.0774  2.0195 -0.4060
  311MOL0     H42870  12.071   5.349   4.538  1.8119  0.9495 -2.4776
  311MOL0     H42871  11.995   5.324   4.374  2.2373  1.3774 -0.6239
  311MOL0     H42872  12.133   5.541   4.433  1.9001 -3.4402  4.2848
  311MOL0     H42873  11.975   5.546   4.344  1.5204 -3.6836 -2.3523
  311MOL0     H42874  12.031   5.721   4.511 -0.4205  0.0596 -1.1239
  311MOL0     H42875  11.882   5.645   4.546 -0.0012  1.2505  0.0044
  311MOL0     H42876  12.084   5.463   4.911  2.6411  1.3399 -0.9280
  311MOL0     H42877  12.107   5.614   5.243  0.3091  2.0116 -1.8673
  311MOL0     H42878  12.133   5.467   5.146 -0.9267  0.7047 -0.8132
  311MOL0     H42879  11.968   5.504   5.192 -1.1194  0.4116 -0.8488
  311MOL0     H42880  12.212   5.915   5.441 -0.9896  5.4765 -0.9361
  311MOL0     H42881  12.453   5.900   5.431  0.8971  3.7732 -0.0975
  311MOL0     H42882  12.651   5.850   5.370 -2.2659  0.9085 -0.3736
  311MOL0     H42883  12.782   5.873   5.248  1.3257  0.4153  1.9223
  311MOL0     H42884  12.720   6.119   5.240 -1.1019  1.0635  0.2638
  311MOL0     H42885  12.634   6.093   5.386 -1.8522 -1.9095 -1.4983
  311MOL0     H42886  12.922   6.042   5.324  0.9589 -0.8558 -0.1879
  311MOL0     H42887  12.855   6.002   5.484  0.8843 -4.7854 -4.1034
  311MOL0     H42888  12.817   6.244   5.526  3.0306  1.4723  2.8989
  311MOL0     H42889  12.880   6.284   5.363  1.4291 -0.7657 -1.4002
  311MOL0     H42890  13.024   6.152   5.597  0.0177 -3.2693 -2.1682
  311MOL0     H42891  13.095   6.176   5.429  2.1016  2.1432 -0.1455
  311MOL0     H42892  13.002   6.414   5.599 -0.0101  1.2669 -0.5084
  311MOL0     H42893  13.080   6.421   5.446 -1.4517 -0.1871 -0.5921
  311MOL0     H42894  13.206   6.260   5.660 -2.4911  0.4652  0.0752
  311MOL0     H42895  13.218   6.435   5.670  0.4866 -0.6246  0.5571
  311MOL0     H42896  13.288   6.291   5.416 -0.2780  1.2446 -1.1555
  311MOL0     H42897  13.418   6.302   5.542 -1.4365 -1.6100  2.0752
  311MOL0     H42898  12.429   5.879   4.992  0.8940 -2.3786  0.5977
  311MOL0     H42899  12.202   5.880   4.996  3.8665  0.4880 -2.0308
  311MOL0     H42900  11.888   5.913   4.940 -0.3467 -0.9239  1.0217
  311MOL0     H42901  11.918   5.806   4.717 -1.7959 -1.2222  0.3010
  311MOL0     H42902  11.331   5.096   3.479  0.4260  1.0829 -0.1112
  311MOL0     H42903  11.186   4.930   3.422 -1.8964  0.5421  1.2303
  311MOL0     H42904  10.867   4.747   3.137  0.5383  0.7481  0.5542
  311MOL0     H42905  10.729   4.556   3.112  0.1277 -3.4792  1.0360
  311MOL0     H42906  10.458   4.444   3.471  1.3177 -4.8517 -0.0825
  311MOL0     H42907  10.402   4.542   3.322  1.1792  0.2172 -2.1515
  311MOL0     H42908  10.280   4.323   3.392  0.1016 -3.9277  0.9737
  311MOL0     H42909  10.425   4.236   3.353 -1.1695 -0.2197 -0.2124
  311MOL0     H42910  10.312   4.420   3.137 -1.9125 -1.8928 -2.0396
  311MOL0     H42911  10.404   4.266   3.137 -2.5836 -1.3276 -2.6096
  311MOL0     H42912  10.136   4.246   3.266  1.2054 -0.6932  1.4972
  311MOL0     H42913  10.227   4.135   3.180 -0.4518  1.1057  0.9888
  311MOL0     H42914  10.012   4.310   2.858 -0.1181 -0.0107 -0.6462
  311MOL0     H42915  10.609   4.620   3.526  0.4183  3.2564  1.4432
  311MOL0     H42916  10.643   4.809   3.646 -1.5802  1.6145  0.1680
  311MOL0     H42917  10.819   4.823   3.631 -1.6487 -0.4372  1.6637
  311MOL0     H42918  10.694   4.942   3.551 -2.3605 -0.3108 -0.9608
  312MOL0     O42919   6.054   7.973   8.070  0.0291  0.0876  0.0299
  312MOL0     C42920   6.006   7.979   8.184  0.8855 -0.3546 -0.1519
  312MOL0     O42921   6.060   7.929   8.301  0.2280 -0.1801 -0.6920
  312MOL0     C42922   6.165   7.847   8.280 -0.0475  0.4692  0.3122
  312MOL0     C42923   6.144   7.723   8.214  0.2944 -1.6755 -0.5520
  312MOL0     C42924   6.251   7.638   8.182 -0.5377  0.4043  0.5337
  312MOL0     C42925   6.379   7.665   8.216  1.0533 -0.1464  0.4118
  312MOL0     O42926   6.474   7.583   8.162 -0.2341  0.0901  0.0646
  312MOL0     C42927   6.586   7.552   8.250  0.0215  0.0224 -0.3506
  312MOL0     C42928   6.725   7.566   8.173  0.2313  0.9000 -0.0609
  312MOL0     C42929   6.728   7.439   8.083  0.1749 -0.4597 -0.0545
  312MOL0     C42930   6.819   7.449   7.974 -0.3876 -0.4073  0.7159
  312MOL0     C42931   6.873   7.311   7.921  0.6013 -0.1110  0.3011
  312MOL0     C42932   6.975   7.328   7.814 -0.0914  0.0696  0.1386
  312MOL0     C42933   7.057   7.200   7.801 -0.3935  0.3950  1.1593
  312MOL0     C42934   7.121   7.202   7.662  0.1954 -0.9798 -0.1305
  312MOL0     N42935   7.222   7.102   7.651 -0.3601 -0.3017 -0.3819
  312MOL0     C42936   7.345   7.120   7.707 -0.1254 -0.4883  1.2058
  312MOL0     C42937   7.400   6.994   7.711 -0.2111 -0.7801  0.4466
  312MOL0     C42938   7.541   6.956   7.752 -0.0591 -0.8701 -0.5986
  312MOL0     C42939   7.610   6.865   7.651  0.1043 -0.6266 -0.5241
  312MOL0     C42940   7.760   6.807   7.668  0.4468  0.3719 -0.2364
  312MOL0     C42941   7.804   6.823   7.814  0.5565 -0.3959 -0.0123
  312MOL0     O42942   7.922   6.755   7.830 -0.0371  0.3862 -0.1815
  312MOL0     C42943   8.040   6.789   7.759  1.0816 -1.3180 -0.2188
  312MOL0     C42944   8.058   6.910   7.683  0.2118  0.1353  0.1645
  312MOL0     C42945   8.176   6.935   7.617 -0.1408  0.1882  0.3476
  312MOL0     C42946   8.182   7.080   7.563 -0.2006 -0.7667  0.6238
  312MOL0     C42947   8.283   6.845   7.616 -0.1632  0.4272 -0.5523
  312MOL0     C42948   8.412   6.860   7.537  0.6808 -0.5735  0.0536
  312MOL0     O42949   8.512   6.770   7.558  0.1288  0.9118 -0.3601
  312MOL0     C42950   8.635   6.793   7.504  0.0764 -0.1236 -0.4140
  312MOL0     C42951   8.703   6.684   7.460  0.4099  1.0042  0.0950
  312MOL0     C42952   8.828   6.698   7.404  0.1791 -0.1715 -0.4914
  312MOL0     C42953   8.900   6.819   7.416  0.0332 -0.4136 -0.1485
  312MOL0     O42954   9.028   6.837   7.363  0.1956 -0.5585  0.4548
  312MOL0     C42955   9.064   6.751   7.262  0.0133  0.1435  1.6193
  312MOL0     C42956   9.202   6.792   7.218  0.3063  0.2976 -0.3797
  312MOL0     C42957   9.286   6.683   7.155  0.0196 -0.5122  1.2018
  312MOL0     C42958   9.268   6.668   7.006  0.0380 -0.3276 -0.1451
  312MOL0     C42959   9.349   6.548   6.951  0.2296  0.0278  0.0529
  312MOL0     C42960   9.364   6.553   6.796 -0.4713  0.3839 -0.3316
  312MOL0     C42961   9.451   6.443   6.726 -0.4867  0.8785  0.1978
  312MOL0     C42962   9.600   6.443   6.751  1.0383 -0.0471 -0.3907
  312MOL0    Cl42963   9.678   6.290   6.704  0.3149 -0.3309 -0.1718
  312MOL0     C42964   8.831   6.930   7.474 -0.2240 -0.7647 -0.1676
  312MOL0     C42965   8.698   6.917   7.520 -0.4834  0.2635  0.1789
  312MOL0     O42966   8.416   6.957   7.459 -0.6856  0.0451  0.3052
  312MOL0     C42967   8.265   6.721   7.685  0.4217 -0.5979 -0.3627
  312MOL0     C42968   8.141   6.695   7.752 -0.1342  0.8567 -0.3345
  312MOL0     N42969   7.305   6.913   7.661 -0.2953  0.9429 -0.5373
  312MOL0     N42970   7.197   6.970   7.624 -0.0480 -0.2478 -0.3664
  312MOL0     C42971   6.402   7.790   8.279  0.3487  0.2260  0.4065
  312MOL0     C42972   6.302   7.880   8.311 -0.7200  0.4469  0.3202
  312MOL0     C42973   5.880   8.054   8.197 -0.7052 -0.0819 -0.5056
  312MOL0     C42974   5.860   8.107   8.325 -0.5786 -0.2300  0.2471
  312MOL0     C42975   5.747   8.184   8.355  0.2486  0.4040  0.1744
  312MOL0     C42976   5.648   8.202   8.257 -0.0111 -0.0825  0.8933
  312MOL0     O42977   5.522   8.262   8.267  0.2570 -0.0800 -0.1968
  312MOL0     C42978   5.485   8.306   8.404  0.7066 -0.5082 -0.0472
  312MOL0     C42979   5.341   8.351   8.397 -0.0201 -0.6276  0.6342
  312MOL0     C42980   5.269   8.363   8.528 -0.2027 -0.8912  0.6160
  312MOL0     C42981   5.116   8.391   8.511 -0.1512  0.2572  0.4790
  312MOL0     C42982   5.036   8.366   8.632 -0.4673 -0.8952 -0.0451
  312MOL0     C42983   4.966   8.368   8.734 -0.1078 -0.6330 -0.2350
  312MOL0     C42984   5.680   8.161   8.128 -0.5781 -0.0405  0.9878
  312MOL0     C42985   5.794   8.080   8.095  0.5308 -0.0690 -0.8117
  312MOL0     C42986   5.796   8.017   7.958  0.1174 -0.4734 -0.5238
  312MOL0     H42987   6.040   7.696   8.197 -0.1757 -0.1721 -0.1951
  312MOL0     H42988   6.240   7.539   8.138  3.0788 -0.5184  1.4277
  312MOL0     H42989   6.579   7.449   8.286  1.6549 -0.2553 -0.7334
  312MOL0     H42990   6.584   7.620   8.336 -1.8151  1.4751 -1.4690
  312MOL0     H42991   6.732   7.666   8.128  0.7922  0.5359 -0.7920
  312MOL0     H42992   6.806   7.549   8.244  1.4875 -0.8131 -1.8134
  312MOL0     H42993   6.746   7.353   8.149 -0.8395 -0.1792  0.6060
  312MOL0     H42994   6.635   7.424   8.028 -0.9709  4.2233  0.1606
  312MOL0     H42995   6.775   7.513   7.897 -1.8451  0.7494  2.4260
  312MOL0     H42996   6.906   7.503   8.013  1.2646 -0.7297 -2.2390
  312MOL0     H42997   6.789   7.247   7.892  0.3437  0.3431  0.0109
  312MOL0     H42998   6.924   7.251   7.997  1.6204  1.9374  1.3244
  312MOL0     H42999   6.929   7.355   7.718  1.1405  0.3146 -0.4037
  312MOL0     H43000   7.042   7.405   7.854  1.2448  0.0760 -1.9368
  312MOL0     H43001   6.984   7.119   7.806 -1.3598  1.1084 -0.5204
  312MOL0     H43002   7.123   7.203   7.889  1.8855  4.3426 -0.4314
  312MOL0     H43003   7.043   7.188   7.587 -2.9150 -1.4056  2.9132
  312MOL0     H43004   7.172   7.298   7.651 -1.5781  0.3024  1.9577
  312MOL0     H43005   7.389   7.219   7.711 -1.1234  0.0504 -0.3152
  312MOL0     H43006   7.539   6.901   7.846  0.9666  1.1315  0.6735
  312MOL0     H43007   7.597   7.048   7.772 -0.4849 -0.4994 -1.0651
  312MOL0     H43008   7.556   6.770   7.643 -1.5958  0.1349  1.2037
  312MOL0     H43009   7.587   6.920   7.559 -1.6254  1.3118  0.9823
  312MOL0     H43010   7.779   6.706   7.632  2.3014  0.4660  0.3706
  312MOL0     H43011   7.814   6.882   7.610  0.0728  2.6383  2.1279
  312MOL0     H43012   7.813   6.931   7.831  0.7297 -0.2502 -0.9747
  312MOL0     H43013   7.730   6.791   7.888  1.0482 -1.7241 -0.0696
  312MOL0     H43014   7.979   6.984   7.686 -0.0930 -0.2073  1.0715
  312MOL0     H43015   8.265   7.142   7.598 -1.2160 -0.9024  3.5800
  312MOL0     H43016   8.090   7.137   7.581 -0.4976 -1.4186  1.2540
  312MOL0     H43017   8.191   7.087   7.455  1.9611  1.3927  0.8623
  312MOL0     H43018   8.660   6.586   7.438  1.6877  0.6843 -1.1700
  312MOL0     H43019   8.866   6.609   7.356 -1.5188 -1.9983  1.3876
  312MOL0     H43020   9.057   6.644   7.281 -0.0643  0.2517  2.1957
  312MOL0     H43021   9.008   6.782   7.173  2.8840  1.2657  0.0695
  312MOL0     H43022   9.192   6.871   7.143  2.3797  1.2171  0.2335
  312MOL0     H43023   9.263   6.837   7.297 -1.0869 -0.3099  1.0783
  312MOL0     H43024   9.270   6.585   7.202 -1.0335  0.2371  2.4707
  312MOL0     H43025   9.391   6.713   7.164 -0.2338  1.0238 -0.4619
  312MOL0     H43026   9.287   6.758   6.948 -3.3410 -1.1776 -2.9275
  312MOL0     H43027   9.164   6.639   6.987  0.4635 -2.4508  0.4172
  312MOL0     H43028   9.449   6.543   6.995 -0.1272 -0.4293  0.8425
  312MOL0     H43029   9.293   6.458   6.978  0.2732  0.7916  3.0812
  312MOL0     H43030   9.419   6.646   6.774  1.7666 -1.3190 -2.4849
  312MOL0     H43031   9.270   6.573   6.744 -1.9958  1.6360  2.6466
  312MOL0     H43032   9.427   6.446   6.619 -5.0707  1.4140  1.0167
  312MOL0     H43033   9.410   6.345   6.752 -0.7910  1.0682  0.4394
  312MOL0     H43034   9.616   6.453   6.858  0.3373 -0.6351 -0.2264
  312MOL0     H43035   9.641   6.534   6.706 -2.2964  1.8462  0.1312
  312MOL0     H43036   8.870   7.030   7.489  0.4416 -0.9984 -0.2881
  312MOL0     H43037   8.646   6.998   7.570 -1.1363  1.1769 -1.8696
  312MOL0     H43038   8.345   6.648   7.688  1.3065  0.1230 -3.3587
  312MOL0     H43039   8.125   6.602   7.806 -0.9647  1.1949  0.0247
  312MOL0     H43040   6.502   7.824   8.302  0.3256  0.2701  0.4400
  312MOL0     H43041   6.330   7.976   8.354 -0.8308 -0.5659  2.8259
  312MOL0     H43042   5.933   8.107   8.405  2.7478  1.3743 -2.5272
  312MOL0     H43043   5.731   8.227   8.453  2.3475  1.4389  0.1066
  312MOL0     H43044   5.499   8.217   8.466 -1.2939 -0.9171 -0.1012
  312MOL0     H43045   5.542   8.384   8.456 -1.2649  1.9573 -1.3685
  312MOL0     H43046   5.294   8.270   8.341  1.9498 -0.6832 -1.0347
  312MOL0     H43047   5.335   8.446   8.343  0.3055  0.4449  2.4006
  312MOL0     H43048   5.290   8.278   8.593  1.9187 -0.5526  0.4277
  312MOL0     H43049   5.311   8.446   8.586 -2.8964 -0.2905  1.9047
  312MOL0     H43050   5.087   8.309   8.444 -0.1362  0.9090 -0.3355
  312MOL0     H43051   5.096   8.494   8.481  1.3388  1.0637  2.0810
  312MOL0     H43052   4.905   8.369   8.822  2.1947  0.4971  1.4437
  312MOL0     H43053   5.600   8.186   8.060  1.7582  0.3701 -1.8123
  312MOL0     H43054   5.863   8.070   7.889 -4.2726  2.3899 -3.0598
  312MOL0     H43055   5.811   7.908   7.964  1.6833 -0.2175  1.0890
  312MOL0     H43056   5.696   8.019   7.913  0.1591 -2.2597 -0.7900
  313MOL0     O43057  11.165   3.372   3.914 -0.0478 -1.0136  0.8264
  313MOL0     C43058  11.245   3.286   3.883 -0.6143  0.1373  0.0469
  313MOL0     O43059  11.376   3.301   3.863 -0.3083 -0.6482  0.0647
  313MOL0     C43060  11.422   3.424   3.837 -0.0218 -0.4699 -0.4375
  313MOL0     C43061  11.396   3.486   3.717 -0.2822  0.1304  1.3628
  313MOL0     C43062  11.466   3.602   3.677  0.0937 -0.6081 -0.6010
  313MOL0     C43063  11.544   3.679   3.759 -0.2425  0.6497 -0.4585
  313MOL0     O43064  11.596   3.793   3.718 -0.6905 -0.5673 -0.7229
  313MOL0     C43065  11.722   3.829   3.765 -0.3424  1.1823  0.8905
  313MOL0     C43066  11.726   3.915   3.895  0.1959 -0.3608 -0.3244
  313MOL0     C43067  11.872   3.930   3.953 -0.4166 -0.3520  0.8580
  313MOL0     C43068  11.876   4.059   4.041  0.2039 -0.3242 -0.3620
  313MOL0     C43069  12.016   4.065   4.090  0.2753  0.9451  0.8601
  313MOL0     C43070  12.046   4.190   4.185 -0.3510 -0.4150 -0.5773
  313MOL0     C43071  12.193   4.182   4.240  0.6097 -0.3911  1.1393
  313MOL0     C43072  12.201   4.296   4.345 -0.1520  0.3303  0.0714
  313MOL0     N43073  12.325   4.284   4.429  0.1335 -1.0196 -0.0669
  313MOL0     C43074  12.346   4.188   4.522  0.1264 -0.6579  0.4023
  313MOL0     C43075  12.467   4.220   4.572  0.2330 -0.0235 -0.5255
  313MOL0     C43076  12.524   4.150   4.691 -0.0621 -0.6953  0.3919
  313MOL0     C43077  12.421   4.114   4.799  0.1185  0.2435 -0.4266
  313MOL0     C43078  12.368   4.237   4.874 -0.9445  0.4273 -0.3791
  313MOL0     C43079  12.469   4.335   4.923  0.2005  0.1652  0.5674
  313MOL0     O43080  12.578   4.257   4.970 -0.1456  0.3660 -0.1948
  313MOL0     C43081  12.702   4.320   4.991 -1.2703 -0.1958 -0.2051
  313MOL0     C43082  12.812   4.244   4.966 -1.2701 -0.1058 -0.4625
  313MOL0     C43083  12.940   4.290   5.001  0.1527  0.3787 -0.6734
  313MOL0     C43084  13.061   4.206   4.967 -0.2410 -0.2599 -0.2929
  313MOL0     C43085  12.948   4.428   5.049  0.0721  0.3086  0.1421
  313MOL0     C43086  13.084   4.491   5.084 -0.3751 -0.3077  0.4199
  313MOL0     O43087  13.086   4.627   5.094 -0.4802 -0.0821 -0.0840
  313MOL0     C43088  13.176   4.676   5.185  0.3084  0.8562 -1.6062
  313MOL0     C43089  13.144   4.659   5.323 -0.4039  0.3825  0.3868
  313MOL0     C43090  13.233   4.701   5.421 -0.2073  0.7699 -0.2719
  313MOL0     C43091  13.360   4.744   5.390 -0.7522  0.9056  0.1820
  313MOL0     O43092  13.466   4.772   5.465 -0.1459  0.7677 -0.6072
  313MOL0     C43093  13.445   4.859   5.578 -0.0390 -0.2849 -0.6790
  313MOL0     C43094  13.571   4.856   5.670  0.0636  0.0710  0.1795
  313MOL0     C43095  13.692   4.888   5.585  0.2540  0.3192 -0.1920
  313MOL0     C43096  13.816   4.873   5.683  0.6607  0.5513 -0.0766
  313MOL0     C43097  13.943   4.875   5.606  0.5232  0.7344  0.0851
  313MOL0     C43098  13.983   4.999   5.528  0.0370 -0.3440  0.1609
  313MOL0     C43099  13.998   5.122   5.624  0.1546 -0.5008  0.2068
  313MOL0     C43100  14.047   5.251   5.545  0.9195  1.0116 -0.2729
  313MOL0    Cl43101  14.218   5.227   5.490 -0.1762 -0.0429  0.3208
  313MOL0     C43102  13.390   4.765   5.256  0.3126  0.0853 -0.1700
  313MOL0     C43103  13.298   4.733   5.154  0.5931  0.2629  0.1850
  313MOL0     O43104  13.182   4.419   5.118  0.0939  0.0133 -0.1966
  313MOL0     C43105  12.832   4.509   5.066 -0.5548 -0.1619 -0.5400
  313MOL0     C43106  12.711   4.455   5.032 -0.0792  0.8835 -0.4443
  313MOL0     N43107  12.516   4.331   4.509 -0.1788  0.0392  0.8491
  313MOL0     N43108  12.428   4.366   4.423  0.6025 -0.5871 -0.2063
  313MOL0     C43109  11.569   3.613   3.891  0.4306  0.2636  0.9415
  313MOL0     C43110  11.512   3.486   3.919 -0.5869 -0.1576  0.3577
  313MOL0     C43111  11.187   3.161   3.830  0.9901 -1.4090 -0.2587
  313MOL0     C43112  11.247   3.095   3.721  0.8911  0.1995  0.5548
  313MOL0     C43113  11.193   2.975   3.667  0.3953 -0.1763 -0.3919
  313MOL0     C43114  11.086   2.917   3.722  0.2697  0.2531 -0.4677
  313MOL0     O43115  11.044   2.796   3.675  0.0615 -0.0869 -0.1859
  313MOL0     C43116  11.106   2.734   3.562 -0.0401  0.8836  0.6847
  313MOL0     C43117  11.026   2.602   3.558 -0.2930  0.3378  0.3001
  313MOL0     C43118  11.066   2.507   3.673  0.0917  0.3568  1.0577
  313MOL0     C43119  11.181   2.419   3.622  1.1360  0.2461  0.2672
  313MOL0     C43120  11.123   2.316   3.529  0.7131 -0.8943 -0.0304
  313MOL0     C43121  11.081   2.237   3.446 -0.1883  0.4645  0.0729
  313MOL0     C43122  11.018   2.982   3.828 -0.7107  0.9407  0.3198
  313MOL0     C43123  11.066   3.107   3.881  0.0386  0.0843 -0.1600
  313MOL0     C43124  10.984   3.161   3.994  0.7444  0.2141  0.0920
  313MOL0     H43125  11.325   3.453   3.643 -1.2206  2.1332  1.2993
  313MOL0     H43126  11.451   3.644   3.578 -0.5459  0.6004 -0.0029
  313MOL0     H43127  11.760   3.903   3.694  0.1607  1.4666  1.4465
  313MOL0     H43128  11.789   3.744   3.781  0.7129  2.0548  1.2556
  313MOL0     H43129  11.687   4.013   3.868  0.3931 -0.2516 -0.2152
  313MOL0     H43130  11.661   3.862   3.965  0.5141 -1.4477 -0.8323
  313MOL0     H43131  11.910   3.839   4.000  1.0643 -0.9956 -1.4609
  313MOL0     H43132  11.932   3.941   3.863  0.0718 -5.3065  0.3328
  313MOL0     H43133  11.849   4.153   3.993 -1.5539 -0.1208  0.9501
  313MOL0     H43134  11.813   4.051   4.130  1.3009  2.3112  0.7534
  313MOL0     H43135  12.075   4.070   3.998 -0.0931 -0.0677  0.5564
  313MOL0     H43136  12.029   3.970   4.143 -0.8559  0.2131 -0.1124
  313MOL0     H43137  12.041   4.286   4.133 -2.1064  0.9446  1.9237
  313MOL0     H43138  11.968   4.202   4.260 -0.7143  2.4717 -1.3146
  313MOL0     H43139  12.266   4.199   4.161 -1.3825  2.7937 -0.2122
  313MOL0     H43140  12.201   4.085   4.289 -0.4018 -0.3154  1.4839
  313MOL0     H43141  12.193   4.392   4.294  0.3338  1.3488  1.8038
  313MOL0     H43142  12.118   4.285   4.415 -3.2918  1.8588 -3.1098
  313MOL0     H43143  12.274   4.113   4.553  0.8047 -1.1120  0.9114
  313MOL0     H43144  12.605   4.218   4.720  0.9007 -1.5654 -0.2063
  313MOL0     H43145  12.550   4.047   4.665 -0.6442 -0.7460 -0.0060
  313MOL0     H43146  12.330   4.077   4.750 -0.6379  1.7530 -0.2106
  313MOL0     H43147  12.466   4.037   4.862 -0.1377  0.1648 -0.3371
  313MOL0     H43148  12.301   4.291   4.807 -0.3217 -0.1136 -1.4689
  313MOL0     H43149  12.301   4.212   4.957 -1.5441  3.4466  0.1813
  313MOL0     H43150  12.487   4.407   4.843 -0.7772  2.3366  2.1828
  313MOL0     H43151  12.433   4.396   5.007 -1.8572  0.5075 -0.5135
  313MOL0     H43152  12.798   4.141   4.935  0.6316 -1.5421  2.9009
  313MOL0     H43153  13.084   4.152   5.059 -0.8184  2.3694  1.4975
  313MOL0     H43154  13.147   4.263   4.932  0.9152 -0.7947  1.5404
  313MOL0     H43155  13.040   4.133   4.888  0.8916  1.3138 -2.1668
  313MOL0     H43156  13.060   4.596   5.351 -0.2000 -0.6442 -1.2136
  313MOL0     H43157  13.203   4.697   5.525 -2.0816 -0.3260 -0.8108
  313MOL0     H43158  13.436   4.956   5.528  1.2375 -0.9809 -2.3684
  313MOL0     H43159  13.349   4.842   5.628  1.7762  0.1945  3.3383
  313MOL0     H43160  13.542   4.914   5.758 -3.2663 -1.1538  0.0136
  313MOL0     H43161  13.571   4.755   5.712  1.4599 -1.0853 -2.3827
  313MOL0     H43162  13.699   4.991   5.548  5.2789 -0.0568 -0.9749
  313MOL0     H43163  13.706   4.817   5.503 -0.1649  0.5112 -0.4299
  313MOL0     H43164  13.808   4.774   5.729 -0.4399  1.1035  0.9891
  313MOL0     H43165  13.814   4.953   5.757 -0.0902  2.0359 -1.6234
  313MOL0     H43166  14.019   4.854   5.682  0.1156  0.3255  0.3850
  313MOL0     H43167  13.952   4.790   5.538 -0.9247  0.0911  0.6695
  313MOL0     H43168  13.911   5.007   5.446  0.4799 -2.7425 -0.5439
  313MOL0     H43169  14.077   4.980   5.476 -1.4766  0.2419 -2.9923
  313MOL0     H43170  14.059   5.096   5.711 -0.5170  1.3426  1.2838
  313MOL0     H43171  13.899   5.155   5.658 -0.1207 -1.5299  0.4309
  313MOL0     H43172  14.035   5.327   5.623 -3.6721 -2.0459  2.5009
  313MOL0     H43173  13.982   5.277   5.461 -0.4572  2.8436  1.2736
  313MOL0     H43174  13.485   4.806   5.224  0.3347  0.0723 -0.1216
  313MOL0     H43175  13.322   4.735   5.048 -0.2591 -0.3008 -0.0253
  313MOL0     H43176  12.834   4.608   5.111 -0.3791 -0.6366  0.5265
  313MOL0     H43177  12.624   4.517   5.050 -1.4382 -1.1162  0.2654
  313MOL0     H43178  11.635   3.653   3.968  1.8802 -2.3837  1.1876
  313MOL0     H43179  11.530   3.438   4.015  2.9277 -1.5167 -0.8106
  313MOL0     H43180  11.335   3.137   3.675  1.0224  1.6366  2.0280
  313MOL0     H43181  11.224   2.947   3.567 -2.1576 -1.4999 -0.8747
  313MOL0     H43182  11.088   2.794   3.472  0.0901  0.0280  0.0835
  313MOL0     H43183  11.213   2.725   3.581  0.2806 -2.5465 -1.8475
  313MOL0     H43184  11.039   2.554   3.461  4.5318 -0.2752  0.9948
  313MOL0     H43185  10.922   2.632   3.575  0.3972  1.2659  3.5785
  313MOL0     H43186  11.094   2.562   3.763 -0.0239 -1.4225  2.2277
  313MOL0     H43187  10.987   2.432   3.690 -1.5746  1.7655 -0.1369
  313MOL0     H43188  11.234   2.363   3.700  0.6846 -0.0865  0.3397
  313MOL0     H43189  11.246   2.483   3.562  0.5129  0.0018 -0.6903
  313MOL0     H43190  11.050   2.153   3.387  2.6563 -1.0635  0.5787
  313MOL0     H43191  10.932   2.934   3.873  0.0644 -0.3378  0.4900
  313MOL0     H43192  10.942   3.256   3.958 -0.7197  0.3596  1.9984
  313MOL0     H43193  10.898   3.096   4.017 -0.0289  0.8617 -0.8745
  313MOL0     H43194  11.038   3.187   4.085  1.9162 -0.0326 -0.5170
  314MOL0     O43195   5.028  10.918   8.506  0.1523  0.4347  0.6324
  314MOL0     C43196   4.981  10.973   8.604  0.1298 -0.7569 -0.2928
  314MOL0     O43197   5.013  11.098   8.642  0.4611  0.2175 -0.0198
  314MOL0     C43198   5.043  11.190   8.545 -0.2590  0.9828 -0.6954
  314MOL0     C43199   4.944  11.278   8.497 -0.0885 -0.4642  0.3729
  314MOL0     C43200   4.974  11.373   8.396 -1.0332  0.3303 -1.1845
  314MOL0     C43201   5.102  11.373   8.339 -0.3863 -1.0558 -0.4776
  314MOL0     O43202   5.134  11.478   8.253 -0.3781 -0.2461 -0.9118
  314MOL0     C43203   5.266  11.526   8.260 -1.3824  0.4412 -0.2490
  314MOL0     C43204   5.298  11.614   8.143 -0.8425  0.1462 -0.1688
  314MOL0     C43205   5.436  11.675   8.172 -0.2229 -0.0418  0.2585
  314MOL0     C43206   5.456  11.810   8.107  0.2294 -0.2993 -0.0004
  314MOL0     C43207   5.583  11.877   8.135 -0.3556 -0.1538 -0.8733
  314MOL0     C43208   5.705  11.824   8.054  0.9072 -0.6371 -0.1448
  314MOL0     C43209   5.847  11.883   8.087  0.7678  0.9631 -0.4302
  314MOL0     C43210   5.864  12.033   8.073  0.2443 -0.4754 -0.2273
  314MOL0     N43211   6.001  12.066   8.037 -1.0736 -0.5571  0.1340
  314MOL0     C43212   6.063  12.060   7.911  0.0817  0.4301  0.2263
  314MOL0     C43213   6.194  12.084   7.934 -0.0738  1.1370 -0.6907
  314MOL0     C43214   6.291  12.097   7.821  0.0398 -0.8433  0.6719
  314MOL0     C43215   6.255  12.235   7.765 -0.1785 -1.5114 -0.4650
  314MOL0     C43216   6.350  12.268   7.650  0.2115  0.6337 -0.7422
  314MOL0     C43217   6.489  12.310   7.692  0.0729  0.1780  0.6131
  314MOL0     O43218   6.497  12.433   7.769  0.1058  0.0499 -0.1377
  314MOL0     C43219   6.601  12.448   7.864 -0.2718 -0.7596 -0.5629
  314MOL0     C43220   6.569  12.457   8.000  0.0122 -0.3911 -0.8571
  314MOL0     C43221   6.659  12.465   8.106 -0.3613 -0.4187 -0.9885
  314MOL0     C43222   6.597  12.468   8.248 -0.0872  0.8771 -0.0989
  314MOL0     C43223   6.798  12.468   8.075 -0.1219 -0.0120  0.2593
  314MOL0     C43224   6.902  12.507   8.173  0.3245  0.3953  0.9792
  314MOL0     O43225   6.875  12.587   8.283  1.0318 -0.2973  0.3029
  314MOL0     C43226   6.984  12.631   8.349  0.1691 -0.4640  0.8867
  314MOL0     C43227   6.982  12.630   8.492 -0.4634 -0.0992 -0.0599
  314MOL0     C43228   7.087  12.686   8.559 -0.3904 -0.4522 -0.0436
  314MOL0     C43229   7.187  12.754   8.484 -0.4098  0.1210  0.0002
  314MOL0     O43230   7.293  12.810   8.552  0.1495  0.0672 -0.2963
  314MOL0     C43231   7.271  12.855   8.687  0.6074  0.5119 -0.7427
  314MOL0     C43232   7.350  12.982   8.717 -0.8491 -0.1006  0.3475
  314MOL0     C43233   7.320  13.100   8.623  0.3753 -0.0263 -0.2606
  314MOL0     C43234   7.210  13.197   8.672  0.1395  0.2220  0.3471
  314MOL0     C43235   7.223  13.321   8.576 -0.1915 -0.7597  0.3074
  314MOL0     C43236   7.155  13.446   8.629 -0.0415 -0.2610 -0.2986
  314MOL0     C43237   7.003  13.422   8.632  0.3959  0.7482  0.0722
  314MOL0     C43238   6.934  13.554   8.664 -1.1382  0.0427 -1.3166
  314MOL0    Cl43239   6.881  13.641   8.526  0.3827 -0.0452  0.1236
  314MOL0     C43240   7.183  12.761   8.344  0.4473  0.1291 -0.7285
  314MOL0     C43241   7.087  12.694   8.272  0.9247 -1.0711 -0.6201
  314MOL0     O43242   7.016  12.461   8.149 -0.1756 -0.0615  0.2914
  314MOL0     C43243   6.832  12.454   7.942  0.2971 -0.8651 -0.2250
  314MOL0     C43244   6.737  12.426   7.838 -0.3019 -0.6203  0.4666
  314MOL0     N43245   6.220  12.109   8.066 -0.1556 -0.2589 -0.8002
  314MOL0     N43246   6.106  12.105   8.126  0.0091  0.0110 -0.1066
  314MOL0     C43247   5.202  11.284   8.390 -0.1486 -0.2991  0.2851
  314MOL0     C43248   5.166  11.196   8.493 -0.7139  0.9586 -0.5676
  314MOL0     C43249   4.908  10.891   8.702 -0.2386  0.2631  0.2824
  314MOL0     C43250   4.914  10.922   8.840 -0.1278  0.4734  0.3228
  314MOL0     C43251   4.854  10.847   8.932 -0.0197  0.1474 -0.2421
  314MOL0     C43252   4.785  10.732   8.888 -0.0860  0.1224 -0.1553
  314MOL0     O43253   4.704  10.659   8.968  0.2048 -0.3598  0.1276
  314MOL0     C43254   4.650  10.724   9.082 -0.0852  0.8247 -0.2627
  314MOL0     C43255   4.512  10.663   9.119  0.1968  0.2622  0.2490
  314MOL0     C43256   4.460  10.742   9.242  0.0333  0.1172  0.4110
  314MOL0     C43257   4.536  10.700   9.375 -0.4221 -0.7225  0.0970
  314MOL0     C43258   4.652  10.793   9.397  0.3433  1.0037 -0.8569
  314MOL0     C43259   4.750  10.865   9.413  0.1871 -0.2837 -0.1396
  314MOL0     C43260   4.779  10.693   8.759  0.0556 -0.0245  0.9456
  314MOL0     C43261   4.842  10.770   8.662 -0.1460  0.8721  0.4334
  314MOL0     C43262   4.815  10.729   8.518  0.2223 -0.2555  0.9548
  314MOL0     H43263   4.853  11.279   8.556  0.9438  0.7243  2.0142
  314MOL0     H43264   4.900  11.449   8.372 -2.7264 -1.0710 -0.6192
  314MOL0     H43265   5.343  11.449   8.265 -0.0610  1.7792  1.2535
  314MOL0     H43266   5.274  11.590   8.348  1.8817  1.5579 -1.2181
  314MOL0     H43267   5.302  11.538   8.064 -1.3950 -1.6780  1.4766
  314MOL0     H43268   5.215  11.685   8.132 -2.1570 -1.1015  1.1451
  314MOL0     H43269   5.450  11.685   8.280 -2.3333 -1.3376  0.7007
  314MOL0     H43270   5.513  11.606   8.138  0.2502  0.8069 -0.4484
  314MOL0     H43271   5.430  11.788   8.003 -2.2772  0.1486  0.4693
  314MOL0     H43272   5.373  11.870   8.143 -0.4219 -1.7714  1.0584
  314MOL0     H43273   5.603  11.878   8.243 -1.7650 -0.0123 -0.5939
  314MOL0     H43274   5.571  11.983   8.111  0.2986  0.8144  2.5005
  314MOL0     H43275   5.710  11.715   8.061  0.0480 -1.0573 -4.0994
  314MOL0     H43276   5.678  11.841   7.950 -1.1499  1.7843  0.6754
  314MOL0     H43277   5.908  11.840   8.007 -2.6941 -0.6456 -2.4333
  314MOL0     H43278   5.883  11.856   8.186 -0.0865  2.8894  0.4694
  314MOL0     H43279   5.791  12.072   8.002 -0.7839 -2.0513 -0.0817
  314MOL0     H43280   5.836  12.081   8.167  2.1102 -0.2447  0.2611
  314MOL0     H43281   6.013  12.050   7.816 -1.0608 -1.9502  0.9860
  314MOL0     H43282   6.270  12.025   7.741  0.2245  1.5741 -1.6719
  314MOL0     H43283   6.394  12.098   7.859  0.9493  2.7749 -1.4982
  314MOL0     H43284   6.156  12.237   7.720  0.1137  1.1818 -1.2010
  314MOL0     H43285   6.257  12.316   7.838 -1.7797 -2.3443  0.5529
  314MOL0     H43286   6.363  12.176   7.592 -1.2519  1.4295 -2.4428
  314MOL0     H43287   6.311  12.348   7.586 -4.7702 -0.2219  0.7871
  314MOL0     H43288   6.544  12.229   7.741  0.6254 -1.4391 -2.4380
  314MOL0     H43289   6.543  12.338   7.601  1.2258  1.3120  1.5953
  314MOL0     H43290   6.467  12.472   8.034  0.5996  1.7418  0.2027
  314MOL0     H43291   6.502  12.413   8.249  1.7758 -2.6636 -0.5230
  314MOL0     H43292   6.583  12.572   8.280  1.7370  1.7899 -2.0792
  314MOL0     H43293   6.660  12.413   8.319 -0.4188  1.7971  0.9409
  314MOL0     H43294   6.902  12.587   8.551  0.8141 -0.0829  1.7677
  314MOL0     H43295   7.077  12.692   8.667 -2.1455  0.0534 -0.2131
  314MOL0     H43296   7.166  12.883   8.700  1.3119  2.7728  0.7728
  314MOL0     H43297   7.294  12.780   8.763 -0.6172  1.8027  0.9968
  314MOL0     H43298   7.334  13.000   8.824 -2.1056  0.0481  0.1525
  314MOL0     H43299   7.456  12.960   8.707 -0.3316  2.4384 -0.5418
  314MOL0     H43300   7.283  13.060   8.528 -1.6371 -0.0361  0.4865
  314MOL0     H43301   7.413  13.156   8.613  2.6924 -3.5988 -0.5343
  314MOL0     H43302   7.225  13.221   8.777  1.7699 -1.6681  0.6110
  314MOL0     H43303   7.110  13.158   8.652  0.7817 -0.3839 -1.9827
  314MOL0     H43304   7.331  13.335   8.562  0.1253 -2.5513  0.6856
  314MOL0     H43305   7.188  13.299   8.474  2.0465  2.5050 -1.3280
  314MOL0     H43306   7.168  13.531   8.562 -0.6659 -0.6000 -0.8687
  314MOL0     H43307   7.199  13.477   8.724  0.8242 -0.0630 -0.7625
  314MOL0     H43308   6.975  13.349   8.709  1.8182 -0.2585 -0.3399
  314MOL0     H43309   6.963  13.370   8.545 -0.8661  0.8657  0.5453
  314MOL0     H43310   6.990  13.607   8.742 -0.5166  0.3175 -1.9333
  314MOL0     H43311   6.840  13.536   8.717  0.7368 -0.4007  2.1676
  314MOL0     H43312   7.261  12.825   8.303 -0.4605  2.5775  1.0616
  314MOL0     H43313   7.103  12.684   8.165 -1.6158 -3.5296 -0.9156
  314MOL0     H43314   6.935  12.472   7.913  0.4955  0.0895  0.9745
  314MOL0     H43315   6.764  12.428   7.733 -3.1191  2.9891 -0.4022
  314MOL0     H43316   5.300  11.270   8.347  0.8052 -0.5448  2.4290
  314MOL0     H43317   5.238  11.134   8.545  0.3199  3.1765  0.7871
  314MOL0     H43318   4.976  11.001   8.880 -0.7990  2.2168 -1.8218
  314MOL0     H43319   4.860  10.878   9.036 -2.8316  3.0718 -0.7922
  314MOL0     H43320   4.721  10.700   9.161 -0.5427  1.8412  0.4784
  314MOL0     H43321   4.641  10.832   9.070 -2.1229  1.0985  2.7169
  314MOL0     H43322   4.531  10.560   9.150  1.6727  1.0438  2.2497
  314MOL0     H43323   4.438  10.662   9.039  0.1364  0.8416  0.2891
  314MOL0     H43324   4.466  10.850   9.222  2.5361  0.0269  0.4060
  314MOL0     H43325   4.355  10.714   9.254 -0.3821  2.2181  2.5324
  314MOL0     H43326   4.576  10.598   9.371 -0.6785 -0.8516  0.7757
  314MOL0     H43327   4.471  10.704   9.463 -0.4951 -1.3646  0.0770
  314MOL0     H43328   4.832  10.927   9.443  0.7426 -1.3053  0.4725
  314MOL0     H43329   4.725  10.606   8.724  1.6785 -0.8414  0.3534
  314MOL0     H43330   4.729  10.663   8.504 -1.2266  2.1006 -2.6838
  314MOL0     H43331   4.782  10.817   8.463  0.8051 -1.3696 -1.2888
  314MOL0     H43332   4.909  10.694   8.475 -0.6991 -1.6586 -0.0204
  315MOL0     O43333   6.333   4.670   5.486  0.5631 -0.3801 -0.4377
  315MOL0     C43334   6.269   4.581   5.533  0.2585 -0.3059  0.0578
  315MOL0     O43335   6.281   4.451   5.493 -0.0906 -0.4143 -0.3617
  315MOL0     C43336   6.391   4.422   5.417  0.0231  0.6649  0.7846
  315MOL0     C43337   6.389   4.444   5.282 -0.1092  1.0816  0.9087
  315MOL0     C43338   6.499   4.410   5.204  0.5061 -0.4294 -0.2955
  315MOL0     C43339   6.605   4.337   5.260 -0.5597 -0.0332  0.6361
  315MOL0     O43340   6.714   4.294   5.193  1.0063 -0.5730  0.2525
  315MOL0     C43341   6.706   4.215   5.072  0.1888  0.2240  0.0225
  315MOL0     C43342   6.842   4.215   4.994 -0.0157  0.2672  0.7412
  315MOL0     C43343   6.968   4.220   5.082 -0.5585 -0.2783  0.1457
  315MOL0     C43344   6.972   4.094   5.166 -0.1217  0.3425 -0.2684
  315MOL0     C43345   7.111   4.062   5.219 -0.6403  0.7182 -0.9023
  315MOL0     C43346   7.101   3.953   5.326 -1.0157  0.0960 -0.0035
  315MOL0     C43347   7.225   3.913   5.397  0.1184 -0.4221 -0.2945
  315MOL0     C43348   7.246   4.027   5.505  0.1380 -0.3459  0.2079
  315MOL0     N43349   7.364   4.004   5.588  0.0914 -0.1234 -0.5587
  315MOL0     C43350   7.417   4.107   5.669 -1.5630 -0.6810  0.5446
  315MOL0     C43351   7.514   4.051   5.746 -0.3833  0.3625 -0.1119
  315MOL0     C43352   7.590   4.109   5.863 -0.5362 -0.6052  0.7040
  315MOL0     C43353   7.738   4.075   5.845 -0.2673  0.6426 -0.6202
  315MOL0     C43354   7.813   4.163   5.747  0.5500 -0.0575  0.1351
  315MOL0     C43355   7.970   4.154   5.764 -0.7050 -0.1553 -0.3592
  315MOL0     O43356   8.018   4.022   5.742 -0.3750 -0.5503 -0.4623
  315MOL0     C43357   8.150   3.979   5.751 -0.8521 -0.9028  0.3287
  315MOL0     C43358   8.173   3.846   5.712  0.0688  0.1262 -1.0102
  315MOL0     C43359   8.292   3.787   5.710 -0.4761 -0.7289  0.1111
  315MOL0     C43360   8.302   3.654   5.656 -0.5059  0.6646 -0.0648
  315MOL0     C43361   8.407   3.865   5.760 -0.4094  0.5731  0.1364
  315MOL0     C43362   8.544   3.804   5.767 -0.8034  0.3327 -0.1866
  315MOL0     O43363   8.654   3.888   5.748  0.5565 -0.3427 -0.0596
  315MOL0     C43364   8.779   3.847   5.750  0.0189  0.1960  0.5525
  315MOL0     C43365   8.867   3.949   5.778  0.1627 -0.0835 -0.3077
  315MOL0     C43366   9.005   3.919   5.781  0.3032  0.2691 -0.3925
  315MOL0     C43367   9.045   3.789   5.759 -0.2368  0.1514 -0.1535
  315MOL0     O43368   9.186   3.759   5.774 -0.2753 -0.4687  0.0181
  315MOL0     C43369   9.225   3.625   5.746  0.7761  0.2788 -0.1908
  315MOL0     C43370   9.371   3.619   5.770 -0.1214  1.4978  0.2905
  315MOL0     C43371   9.401   3.625   5.916 -0.2947 -1.4548 -0.2057
  315MOL0     C43372   9.546   3.636   5.943  0.5002 -0.3537  0.9644
  315MOL0     C43373   9.584   3.687   6.086 -0.2917 -0.1960  0.9480
  315MOL0     C43374   9.731   3.656   6.098 -0.3517 -0.8884  1.1215
  315MOL0     C43375   9.795   3.732   6.205  0.3635 -0.5334 -0.2316
  315MOL0     C43376   9.949   3.729   6.188 -0.1795 -0.8590 -0.0179
  315MOL0    Cl43377  10.013   3.559   6.171 -0.1203  0.0793  0.9028
  315MOL0     C43378   8.953   3.689   5.720  0.2634  0.3770  0.2069
  315MOL0     C43379   8.820   3.717   5.718  0.0769  0.1419 -0.4044
  315MOL0     O43380   8.553   3.684   5.795  0.4392  0.9554 -0.3218
  315MOL0     C43381   8.390   3.996   5.790 -0.0984 -0.2525  0.2417
  315MOL0     C43382   8.259   4.057   5.794 -0.0376  0.3343 -0.1462
  315MOL0     N43383   7.524   3.919   5.695 -1.0163  0.0729 -0.4341
  315MOL0     N43384   7.437   3.894   5.606  0.5127  0.2063 -0.4156
  315MOL0     C43385   6.602   4.310   5.400  0.1685 -0.2439 -0.0893
  315MOL0     C43386   6.496   4.352   5.476  0.5078  0.0763  0.3662
  315MOL0     C43387   6.182   4.620   5.641 -0.0953  0.1731 -0.6219
  315MOL0     C43388   6.087   4.513   5.677  0.3522  0.2544 -0.3821
  315MOL0     C43389   6.002   4.538   5.790  0.7547  0.3084  0.1604
  315MOL0     C43390   5.992   4.661   5.848  0.0909 -0.3107  0.1096
  315MOL0     O43391   5.903   4.672   5.955 -0.2705 -0.0847 -0.0555
  315MOL0     C43392   5.852   4.801   5.988 -0.0201 -0.2437  0.4046
  315MOL0     C43393   5.721   4.777   6.062 -0.2267  0.3331 -0.0787
  315MOL0     C43394   5.668   4.907   6.126  0.2805 -0.8257 -0.1131
  315MOL0     C43395   5.526   4.885   6.174  0.7700 -0.0247 -0.2859
  315MOL0     C43396   5.471   5.014   6.229  0.2196  0.9432 -0.4846
  315MOL0     C43397   5.446   5.122   6.277 -0.2775  0.3160 -0.0808
  315MOL0     C43398   6.070   4.767   5.806 -0.1847  0.0730 -0.0174
  315MOL0     C43399   6.172   4.748   5.711 -0.0518  0.2973  0.3293
  315MOL0     C43400   6.254   4.876   5.674  0.0599 -1.1423  0.6261
  315MOL0     H43401   6.303   4.492   5.236  0.4168  2.1578  1.0285
  315MOL0     H43402   6.491   4.440   5.100  1.2874  0.8991  0.0073
  315MOL0     H43403   6.632   4.258   5.004 -1.1236 -0.1625  1.1660
  315MOL0     H43404   6.666   4.116   5.095 -2.2483  0.4682 -2.6737
  315MOL0     H43405   6.838   4.130   4.925  2.2018  0.5327  0.2044
  315MOL0     H43406   6.840   4.310   4.939  1.5646  1.8389  3.2097
  315MOL0     H43407   7.053   4.231   5.015 -0.8692  0.1146 -0.1822
  315MOL0     H43408   6.957   4.303   5.152 -1.5620 -2.0972  2.3017
  315MOL0     H43409   6.898   4.097   5.247 -0.1380 -3.0489 -0.0149
  315MOL0     H43410   6.942   4.003   5.112 -0.4693  0.3105 -0.0225
  315MOL0     H43411   7.168   4.148   5.257  0.8819 -0.8085  0.4512
  315MOL0     H43412   7.177   4.024   5.140 -1.5042 -1.2477 -0.7244
  315MOL0     H43413   7.030   3.983   5.403  1.6300  0.2823  2.5544
  315MOL0     H43414   7.064   3.857   5.289  0.4591  0.0631 -1.5126
  315MOL0     H43415   7.313   3.915   5.333  0.1876  1.0652 -0.1939
  315MOL0     H43416   7.207   3.809   5.426  0.5928 -1.0975 -2.3230
  315MOL0     H43417   7.258   4.126   5.460 -1.6068  1.1748  2.8176
  315MOL0     H43418   7.164   4.034   5.578 -1.3630  2.6641 -1.5930
  315MOL0     H43419   7.386   4.210   5.659  0.2153 -0.2401 -0.7846
  315MOL0     H43420   7.550   4.069   5.957  1.2218 -2.3978  0.7403
  315MOL0     H43421   7.579   4.217   5.876 -1.6963 -0.9813  3.7177
  315MOL0     H43422   7.777   4.085   5.947 -0.5221 -0.3063 -0.4277
  315MOL0     H43423   7.750   3.971   5.815 -1.0587  0.4724 -0.3777
  315MOL0     H43424   7.784   4.133   5.646  3.9097 -1.1509 -0.6372
  315MOL0     H43425   7.796   4.271   5.760  0.4659 -0.2806  2.0976
  315MOL0     H43426   8.029   4.223   5.703  0.2468  0.6598  1.4181
  315MOL0     H43427   8.008   4.186   5.862  2.0229  1.1108 -1.7144
  315MOL0     H43428   8.090   3.782   5.684  1.3454 -0.7483 -3.0607
  315MOL0     H43429   8.215   3.620   5.598 -0.7515 -1.1778  1.2666
  315MOL0     H43430   8.314   3.584   5.739 -0.9985  2.1792  1.3254
  315MOL0     H43431   8.386   3.645   5.586 -0.6223  1.0460 -0.2576
  315MOL0     H43432   8.835   4.052   5.783  0.1917 -0.1053  0.3559
  315MOL0     H43433   9.077   3.992   5.816 -1.1482  1.8791 -0.6305
  315MOL0     H43434   9.167   3.556   5.809 -1.8624  0.8464 -1.8171
  315MOL0     H43435   9.190   3.592   5.648 -0.9804  0.8098  0.2100
  315MOL0     H43436   9.415   3.523   5.741  2.7453  2.0951  2.2731
  315MOL0     H43437   9.417   3.705   5.722 -2.6926  3.0382  0.3748
  315MOL0     H43438   9.349   3.542   5.965  2.6559 -2.9408  0.6452
  315MOL0     H43439   9.355   3.716   5.956 -0.3476 -2.2560  1.6427
  315MOL0     H43440   9.591   3.694   5.862 -2.4918  4.2387  2.2148
  315MOL0     H43441   9.594   3.538   5.932  1.9371  0.5593 -2.3683
  315MOL0     H43442   9.559   3.791   6.105  2.0793  1.3300 -3.0885
  315MOL0     H43443   9.530   3.619   6.153 -1.2532 -1.3643 -0.9307
  315MOL0     H43444   9.784   3.690   6.008  3.0447 -1.8751  2.6000
  315MOL0     H43445   9.753   3.550   6.115  0.9845 -0.7857  0.1998
  315MOL0     H43446   9.783   3.675   6.297  1.1926 -0.9070 -0.3474
  315MOL0     H43447   9.755   3.834   6.210 -0.1023 -0.6976 -0.5253
  315MOL0     H43448   9.992   3.780   6.275 -1.6692  1.2271 -0.4186
  315MOL0     H43449   9.973   3.787   6.098  0.8619 -1.4089 -0.1093
  315MOL0     H43450   8.983   3.587   5.698  3.2018  0.5920  2.4963
  315MOL0     H43451   8.752   3.641   5.683 -1.2147  0.6943  0.8131
  315MOL0     H43452   8.474   4.057   5.820 -0.6049  1.0225 -0.8344
  315MOL0     H43453   8.247   4.160   5.824 -3.0034 -0.4846  1.9285
  315MOL0     H43454   6.672   4.240   5.444 -0.4076 -0.5272  0.4050
  315MOL0     H43455   6.488   4.320   5.579  0.1230 -2.7005 -0.4365
  315MOL0     H43456   6.088   4.411   5.639 -0.5754  0.6825 -1.5959
  315MOL0     H43457   5.940   4.457   5.825 -0.6571  1.1231 -0.3510
  315MOL0     H43458   5.925   4.855   6.049  0.5774 -0.8116  0.2059
  315MOL0     H43459   5.824   4.852   5.895 -1.4174 -0.2803  0.7859
  315MOL0     H43460   5.738   4.704   6.142  0.2568  0.4483 -0.0756
  315MOL0     H43461   5.647   4.739   5.990  1.6740 -2.5559 -0.6790
  315MOL0     H43462   5.729   4.934   6.213  0.7549 -3.0026  0.2882
  315MOL0     H43463   5.685   4.982   6.048  0.1761  0.0897  0.7071
  315MOL0     H43464   5.530   4.807   6.251  0.4729 -1.2396 -1.4635
  315MOL0     H43465   5.457   4.848   6.097  0.9055  2.1687 -1.5143
  315MOL0     H43466   5.414   5.216   6.317  0.3345  0.3600  0.3288
  315MOL0     H43467   6.062   4.862   5.856  1.8986  0.1120  0.3416
  315MOL0     H43468   6.227   4.961   5.738 -2.0549  0.6386 -2.3957
  315MOL0     H43469   6.362   4.856   5.676 -0.0515 -1.8832  3.0493
  315MOL0     H43470   6.221   4.909   5.575 -3.4165  0.3195  2.1100
  316MOL0     O43471   2.116   9.141   1.170 -0.2861  0.2835  0.2557
  316MOL0     C43472   2.042   9.100   1.257  0.5230  0.3651 -0.9067
  316MOL0     O43473   2.059   9.132   1.387 -0.5521  0.1492  0.2510
  316MOL0     C43474   2.183   9.169   1.455  0.7013  1.1564 -1.0107
  316MOL0     C43475   2.314   9.167   1.408 -0.1453  0.0602 -0.4226
  316MOL0     C43476   2.425   9.208   1.479  0.5709  0.5758  1.1215
  316MOL0     C43477   2.411   9.246   1.612  0.7674 -0.3261 -0.3066
  316MOL0     O43478   2.514   9.275   1.699  0.4112  0.3410  0.0504
  316MOL0     C43479   2.589   9.386   1.667  0.2448 -0.0462  0.9651
  316MOL0     C43480   2.652   9.453   1.786 -0.3890 -0.3917  0.2728
  316MOL0     C43481   2.712   9.352   1.876 -0.9191  0.2891  0.0996
  316MOL0     C43482   2.787   9.427   1.982  0.0417 -0.3491 -1.1731
  316MOL0     C43483   2.866   9.338   2.089  0.0839 -0.5786 -0.2632
  316MOL0     C43484   2.949   9.235   2.035 -0.3411  0.1259  1.1585
  316MOL0     C43485   3.065   9.310   1.961  0.4858  0.2740 -0.4662
  316MOL0     C43486   3.152   9.207   1.884 -0.3621  0.4809 -0.3491
  316MOL0     N43487   3.239   9.134   1.972 -0.4453  0.3228  0.6153
  316MOL0     C43488   3.349   9.175   2.034 -0.5789 -0.1441  0.0036
  316MOL0     C43489   3.394   9.070   2.109  1.2757  0.1002  0.3631
  316MOL0     C43490   3.507   9.074   2.201  0.0106 -0.7236 -0.0453
  316MOL0     C43491   3.586   8.949   2.178 -0.7303  0.0310  0.3132
  316MOL0     C43492   3.674   8.950   2.054  0.8464  0.7047  0.7639
  316MOL0     C43493   3.800   9.022   2.093 -0.5445 -1.0778  0.6544
  316MOL0     O43494   3.887   9.008   1.983 -0.2534 -0.1605  0.7179
  316MOL0     C43495   4.026   9.043   1.994  0.2800 -0.1466 -0.0897
  316MOL0     C43496   4.111   9.035   1.885  0.2395 -0.5423 -0.1864
  316MOL0     C43497   4.244   9.072   1.875  0.6833 -0.3898 -0.2383
  316MOL0     C43498   4.310   9.071   1.736  0.2744 -0.4145 -0.0381
  316MOL0     C43499   4.297   9.135   1.990 -0.1770 -0.1198  0.0647
  316MOL0     C43500   4.441   9.174   1.995  0.5625 -0.2833 -0.0035
  316MOL0     O43501   4.472   9.246   2.109 -0.2629 -0.7855  0.8736
  316MOL0     C43502   4.602   9.276   2.135 -0.1938 -0.2243  0.4054
  316MOL0     C43503   4.654   9.403   2.099  0.5213  0.1553  0.4444
  316MOL0     C43504   4.782   9.433   2.139 -0.3865  0.7664 -0.2071
  316MOL0     C43505   4.865   9.344   2.209 -0.4351  0.6446  0.0551
  316MOL0     O43506   4.993   9.391   2.249 -0.3611  0.8521  0.0641
  316MOL0     C43507   5.099   9.301   2.224  0.2270  0.3313  0.5985
  316MOL0     C43508   5.219   9.368   2.279 -1.0493  0.0967  0.3591
  316MOL0     C43509   5.360   9.299   2.252 -0.1517  0.3515  1.0912
  316MOL0     C43510   5.370   9.166   2.311 -0.1465  0.4782 -0.2138
  316MOL0     C43511   5.513   9.114   2.350  0.1168 -1.3240 -0.0013
  316MOL0     C43512   5.616   9.143   2.239 -0.0562  0.0004  0.0613
  316MOL0     C43513   5.759   9.112   2.282 -0.0462 -0.5950 -0.0635
  316MOL0     C43514   5.865   9.176   2.201 -1.2622  0.2153  0.1966
  316MOL0    Cl43515   6.027   9.099   2.223  0.3379  0.5704  0.3069
  316MOL0     C43516   4.809   9.220   2.253  0.5397  0.3131 -0.1923
  316MOL0     C43517   4.679   9.189   2.218  0.3260 -0.3849  1.0608
  316MOL0     O43518   4.523   9.127   1.913 -0.3748 -0.1571 -1.1088
  316MOL0     C43519   4.218   9.132   2.106 -0.0510 -0.3331 -0.4494
  316MOL0     C43520   4.086   9.099   2.110  1.0000  0.0000  0.4568
  316MOL0     N43521   3.291   8.976   2.105  0.0249  0.3198  0.1163
  316MOL0     N43522   3.201   9.008   2.013  0.0655  0.3168 -0.2863
  316MOL0     C43523   2.286   9.246   1.666  0.8925 -0.6635  0.1350
  316MOL0     C43524   2.175   9.202   1.592 -0.6170 -0.4845 -0.0355
  316MOL0     C43525   1.929   9.011   1.216 -0.5552 -0.3380  0.9425
  316MOL0     C43526   1.835   8.982   1.321 -1.1178  0.3723  1.0430
  316MOL0     C43527   1.724   8.898   1.298  0.3149  0.3144 -0.5687
  316MOL0     C43528   1.689   8.874   1.168  0.4290  0.5918  0.4960
  316MOL0     O43529   1.560   8.847   1.118 -0.0349 -0.8721 -0.5725
  316MOL0     C43530   1.458   8.926   1.184  0.1987  0.2499  0.2688
  316MOL0     C43531   1.367   8.968   1.062 -0.3000  0.3935  0.1789
  316MOL0     C43532   1.324   8.857   0.967  0.8147  0.1394  0.1563
  316MOL0     C43533   1.208   8.769   1.021 -0.9480  0.1834  0.7666
  316MOL0     C43534   1.097   8.835   1.075  0.3081  0.3764 -0.0036
  316MOL0     C43535   1.001   8.886   1.122  0.4518 -0.4502 -0.4013
  316MOL0     C43536   1.772   8.902   1.060  0.1696  0.2824  0.0617
  316MOL0     C43537   1.897   8.972   1.081 -0.1631 -0.2975  0.7951
  316MOL0     C43538   1.976   8.983   0.953  0.4439  0.4397  0.8393
  316MOL0     H43539   2.324   9.146   1.302 -1.6146 -0.8454 -0.4164
  316MOL0     H43540   2.526   9.201   1.440 -0.3768 -1.0787 -1.2095
  316MOL0     H43541   2.542   9.470   1.617  3.8054  1.6523  0.1350
  316MOL0     H43542   2.675   9.347   1.610  0.7793  2.1329  0.1931
  316MOL0     H43543   2.725   9.526   1.749 -1.6262 -0.0746 -1.7168
  316MOL0     H43544   2.575   9.508   1.842  1.2219  0.7973  1.4128
  316MOL0     H43545   2.643   9.275   1.913 -0.3952 -0.2514 -0.0442
  316MOL0     H43546   2.789   9.299   1.820 -0.5385  0.0507  0.8457
  316MOL0     H43547   2.865   9.495   1.945 -0.1533 -0.3992 -1.6753
  316MOL0     H43548   2.721   9.495   2.037  0.9844  0.0630 -0.5197
  316MOL0     H43549   2.785   9.293   2.146  0.2791  1.2567  1.5917
  316MOL0     H43550   2.925   9.392   2.163 -1.3734  1.3666 -0.4197
  316MOL0     H43551   2.972   9.170   2.120 -1.2158  0.0004  1.3172
  316MOL0     H43552   2.891   9.176   1.964 -0.5265  0.6380  0.8730
  316MOL0     H43553   3.121   9.366   2.036 -2.9617 -0.2418  2.7472
  316MOL0     H43554   3.027   9.380   1.886 -0.7674 -0.5253 -0.6051
  316MOL0     H43555   3.088   9.131   1.838 -0.6798 -1.5566  3.1016
  316MOL0     H43556   3.199   9.274   1.812 -0.8204  2.1467  0.8187
  316MOL0     H43557   3.393   9.272   2.011 -2.1486  0.8044  0.8265
  316MOL0     H43558   3.472   9.064   2.304 -1.7616  0.9773 -0.4215
  316MOL0     H43559   3.562   9.168   2.191 -0.3188 -0.4124  0.8830
  316MOL0     H43560   3.633   8.928   2.275 -1.5171  0.3736  0.7860
  316MOL0     H43561   3.518   8.867   2.152  2.0561 -2.4672  0.4125
  316MOL0     H43562   3.695   8.850   2.014 -3.0643 -0.0365  0.0712
  316MOL0     H43563   3.614   8.996   1.975 -0.3030  0.4026  1.4327
  316MOL0     H43564   3.778   9.128   2.102  1.2908 -0.2103 -3.0806
  316MOL0     H43565   3.834   8.972   2.184  3.6827  0.2733  0.0348
  316MOL0     H43566   4.074   8.977   1.801 -3.4199  2.4545 -0.9047
  316MOL0     H43567   4.347   9.170   1.709  4.7113 -2.4945 -2.7515
  316MOL0     H43568   4.246   9.035   1.655  0.4690  2.2217 -1.4829
  316MOL0     H43569   4.396   9.003   1.739 -1.6321 -2.9580  1.4882
  316MOL0     H43570   4.592   9.472   2.042  1.5847  0.4709 -0.3736
  316MOL0     H43571   4.823   9.527   2.104  3.5019 -0.1205  1.5287
  316MOL0     H43572   5.084   9.207   2.278 -0.9934  0.1640 -0.0181
  316MOL0     H43573   5.104   9.276   2.118  0.3536  0.5358  0.5569
  316MOL0     H43574   5.229   9.470   2.239 -0.9996  0.1267  0.4507
  316MOL0     H43575   5.206   9.393   2.384  0.7329 -2.0722  1.1773
  316MOL0     H43576   5.430   9.367   2.301 -2.0411  3.9425 -0.7377
  316MOL0     H43577   5.384   9.283   2.146  0.1358 -1.1966  1.3790
  316MOL0     H43578   5.336   9.087   2.243 -0.7734 -1.0338  1.7813
  316MOL0     H43579   5.314   9.182   2.403 -0.1567  2.2588 -0.4816
  316MOL0     H43580   5.544   9.172   2.437 -1.3146 -0.8728  0.2270
  316MOL0     H43581   5.507   9.006   2.367  0.1532 -1.2431  0.5202
  316MOL0     H43582   5.625   9.250   2.220 -2.4642  0.3628  0.5529
  316MOL0     H43583   5.584   9.091   2.148  0.6741 -1.5575  0.6599
  316MOL0     H43584   5.766   9.003   2.285  1.1574 -0.5286 -0.1552
  316MOL0     H43585   5.767   9.140   2.387 -1.8715  0.8557 -0.2444
  316MOL0     H43586   5.882   9.281   2.226  1.4380 -0.3402  1.0417
  316MOL0     H43587   5.830   9.174   2.097 -1.7395  1.5043  0.3117
  316MOL0     H43588   4.865   9.143   2.306  1.4924 -0.5151 -2.2861
  316MOL0     H43589   4.622   9.103   2.251 -0.7213  0.0267  0.3912
  316MOL0     H43590   4.262   9.164   2.199 -0.9727 -0.8415  0.1778
  316MOL0     H43591   4.048   9.094   2.211 -0.2178  2.7133  0.2023
  316MOL0     H43592   2.278   9.275   1.771  2.1690  1.7503 -0.3612
  316MOL0     H43593   2.080   9.191   1.643 -0.9656 -1.3005 -0.8294
  316MOL0     H43594   1.852   9.019   1.422 -2.9955  1.1683  1.1173
  316MOL0     H43595   1.663   8.864   1.381  0.0817 -0.7370 -1.1572
  316MOL0     H43596   1.403   8.871   1.261 -0.5714 -0.7286 -0.9525
  316MOL0     H43597   1.487   9.016   1.238 -1.6727  0.1991  1.4416
  316MOL0     H43598   1.436   9.034   1.008  1.5183 -1.2995  0.3233
  316MOL0     H43599   1.282   9.019   1.108  0.2720 -0.3406  2.2096
  316MOL0     H43600   1.288   8.911   0.879 -3.9953 -2.5079  0.1925
  316MOL0     H43601   1.417   8.802   0.947  0.1281 -1.3355  0.8298
  316MOL0     H43602   1.250   8.698   1.093 -0.7765  1.2987  1.7840
  316MOL0     H43603   1.176   8.704   0.939 -0.5793  0.4551  0.4025
  316MOL0     H43604   0.910   8.924   1.165  0.7777  0.8846 -0.8463
  316MOL0     H43605   1.744   8.869   0.961  1.7431  0.3141 -0.4279
  316MOL0     H43606   2.007   9.085   0.929  0.3882  0.2916  0.1157
  316MOL0     H43607   2.056   8.909   0.955 -0.4684 -0.5841  0.7728
  316MOL0     H43608   1.928   8.966   0.856 -2.4939  1.6643  1.9466
  317MOL0     O43609   9.537   4.815   5.050  0.0727  0.0649  0.3431
  317MOL0     C43610   9.482   4.760   4.955 -0.3149 -0.5024  0.3796
  317MOL0     O43611   9.545   4.681   4.862  0.3238 -0.3052 -0.2037
  317MOL0     C43612   9.685   4.677   4.848  0.0449  0.7162 -0.3519
  317MOL0     C43613   9.731   4.651   4.718 -0.3170 -1.2054  0.1463
  317MOL0     C43614   9.867   4.641   4.684 -0.3091 -0.4805  0.0367
  317MOL0     C43615   9.963   4.629   4.787  0.4311  0.0750 -0.0316
  317MOL0     O43616  10.089   4.593   4.749  0.2324  0.4251 -0.1299
  317MOL0     C43617  10.196   4.582   4.850  0.3276 -0.4791  1.4177
  317MOL0     C43618  10.319   4.529   4.769 -0.0055 -0.8606 -0.0213
  317MOL0     C43619  10.447   4.561   4.850  0.0152  0.8137 -0.2951
  317MOL0     C43620  10.572   4.487   4.799  0.5851  0.9621  0.3369
  317MOL0     C43621  10.693   4.515   4.883  0.6867  0.5619  0.1428
  317MOL0     C43622  10.816   4.417   4.861  0.0592 -0.1652 -0.0183
  317MOL0     C43623  10.893   4.396   4.993  0.0955  0.4517 -0.5394
  317MOL0     C43624  10.954   4.523   5.038  0.2808 -0.2266 -0.0219
  317MOL0     N43625  11.091   4.542   4.989  0.3219  0.1079  0.0834
  317MOL0     C43626  11.203   4.506   5.049 -0.8544  0.8139 -0.3576
  317MOL0     C43627  11.308   4.525   4.968 -1.3986  0.1918 -0.2423
  317MOL0     C43628  11.456   4.471   4.992  0.7409 -0.1085 -0.7939
  317MOL0     C43629  11.539   4.554   5.093  0.0341 -1.4905 -0.9882
  317MOL0     C43630  11.584   4.700   5.037  0.7813 -0.3522  0.3255
  317MOL0     C43631  11.690   4.687   4.927  0.5148  1.0058 -0.7633
  317MOL0     O43632  11.748   4.812   4.905  0.6831  0.4547 -0.3912
  317MOL0     C43633  11.827   4.872   4.995 -0.0768  0.5931 -0.5854
  317MOL0     C43634  11.840   5.009   4.993  0.3853 -0.3072  0.0018
  317MOL0     C43635  11.945   5.085   5.057  0.2870  0.2191  0.0999
  317MOL0     C43636  11.952   5.236   5.035  0.1107  0.3943  0.3154
  317MOL0     C43637  12.023   5.020   5.157 -0.0073  0.3056  0.7407
  317MOL0     C43638  12.135   5.078   5.243 -0.0414 -0.5392 -0.3045
  317MOL0     O43639  12.168   5.010   5.364  0.1390  0.3898  0.4275
  317MOL0     C43640  12.291   5.019   5.427  0.6653 -0.5103 -0.5953
  317MOL0     C43641  12.408   5.071   5.368  0.1354  0.0397  0.0508
  317MOL0     C43642  12.529   5.069   5.440 -0.1040 -0.5873 -0.1947
  317MOL0     C43643  12.537   5.029   5.574  0.1183 -0.1189  0.2450
  317MOL0     O43644  12.640   5.029   5.662 -0.6696 -0.2394  0.5593
  317MOL0     C43645  12.771   5.051   5.602  0.0214  0.1620 -0.7480
  317MOL0     C43646  12.860   5.056   5.722 -0.0793  0.1543 -0.1772
  317MOL0     C43647  13.002   5.087   5.678  0.4130  0.1777 -1.1368
  317MOL0     C43648  13.016   5.236   5.652 -0.3328  0.6077  0.1180
  317MOL0     C43649  13.165   5.283   5.629 -0.7783  0.0436  0.2762
  317MOL0     C43650  13.256   5.272   5.761 -0.1270 -0.2499  0.1259
  317MOL0     C43651  13.230   5.374   5.878  1.0565  0.2433 -0.2256
  317MOL0     C43652  13.317   5.354   6.000  0.3238  0.1372 -0.3064
  317MOL0    Cl43653  13.301   5.489   6.122  0.0836  0.2236  0.2474
  317MOL0     C43654  12.417   4.978   5.635 -0.3253 -0.3476 -0.2627
  317MOL0     C43655  12.304   4.981   5.557 -0.4860  0.4833 -0.5442
  317MOL0     O43656  12.199   5.170   5.192  0.2432  0.2039  0.0003
  317MOL0     C43657  12.012   4.880   5.159  0.3743 -0.2440  0.3957
  317MOL0     C43658  11.917   4.801   5.079 -0.7507 -0.0042 -0.2641
  317MOL0     N43659  11.258   4.583   4.856 -0.1421 -0.3891  0.6034
  317MOL0     N43660  11.123   4.594   4.869 -0.2579 -0.1520  0.1789
  317MOL0     C43661   9.925   4.662   4.918 -0.0154 -0.6306  0.3146
  317MOL0     C43662   9.787   4.690   4.943 -0.3733 -0.5645  0.1148
  317MOL0     C43663   9.330   4.775   4.943  0.1416 -0.9332 -0.1858
  317MOL0     C43664   9.270   4.697   4.849  0.4598  0.7924  0.4051
  317MOL0     C43665   9.132   4.699   4.820 -0.5623 -0.3899 -0.7389
  317MOL0     C43666   9.051   4.791   4.895 -0.6492 -0.0727  1.0447
  317MOL0     O43667   8.921   4.818   4.867 -0.6996 -0.6338 -0.0930
  317MOL0     C43668   8.838   4.729   4.799  0.5620 -0.0097  0.1103
  317MOL0     C43669   8.849   4.763   4.649 -0.0330  0.4238  0.5637
  317MOL0     C43670   8.802   4.638   4.564  0.5492  0.3658  0.5693
  317MOL0     C43671   8.837   4.652   4.415  0.0444 -0.3597  0.8266
  317MOL0     C43672   8.979   4.615   4.395 -0.4247  0.0138  0.3577
  317MOL0     C43673   9.098   4.600   4.396 -0.2885  0.0015 -0.2445
  317MOL0     C43674   9.116   4.869   4.994  0.7815 -0.3361 -0.1348
  317MOL0     C43675   9.254   4.867   5.020  0.3872 -0.0782  0.6013
  317MOL0     C43676   9.302   4.961   5.125  0.2213 -0.0156 -0.6005
  317MOL0     H43677   9.660   4.647   4.636 -1.0220  0.5039  0.6283
  317MOL0     H43678   9.885   4.620   4.579  1.3269  1.4195 -0.1148
  317MOL0     H43679  10.178   4.526   4.943  0.3706 -2.0011  0.5410
  317MOL0     H43680  10.214   4.687   4.877  1.5152 -0.0211 -0.9337
  317MOL0     H43681  10.303   4.422   4.754 -0.1274 -1.2526  2.5464
  317MOL0     H43682  10.332   4.584   4.675 -0.0804  1.0630  1.0418
  317MOL0     H43683  10.479   4.664   4.835  1.3627  0.4140 -0.3701
  317MOL0     H43684  10.433   4.529   4.954  1.1387  1.8621  0.2172
  317MOL0     H43685  10.551   4.380   4.804 -1.5221  1.2546 -1.1152
  317MOL0     H43686  10.583   4.517   4.694 -0.1888  2.7189  0.7317
  317MOL0     H43687  10.654   4.480   4.979  1.9243 -1.1209  0.0749
  317MOL0     H43688  10.726   4.619   4.879  1.2522  0.3502 -2.5393
  317MOL0     H43689  10.785   4.315   4.834  0.4844 -0.3482  0.1699
  317MOL0     H43690  10.890   4.442   4.785  2.2379 -1.0422  1.7001
  317MOL0     H43691  10.962   4.312   4.984 -0.5430 -0.0883 -0.5323
  317MOL0     H43692  10.824   4.353   5.067 -1.0443  0.6818 -1.4481
  317MOL0     H43693  10.903   4.612   5.000 -0.2165 -0.2610  0.5428
  317MOL0     H43694  10.948   4.530   5.147 -0.5675  0.2182 -0.0894
  317MOL0     H43695  11.205   4.456   5.145 -2.6190  0.1675 -0.6058
  317MOL0     H43696  11.512   4.456   4.900  1.7391 -0.2135 -0.1903
  317MOL0     H43697  11.452   4.369   5.034  1.2448 -0.3664 -1.3593
  317MOL0     H43698  11.475   4.572   5.180  0.7173 -1.3762 -0.5043
  317MOL0     H43699  11.634   4.513   5.128 -0.1537 -0.3970  0.9614
  317MOL0     H43700  11.502   4.754   4.989  2.6620  1.2630 -1.2225
  317MOL0     H43701  11.612   4.760   5.124  0.4142 -2.3069  1.8759
  317MOL0     H43702  11.768   4.614   4.949  0.9632  1.4620 -0.8307
  317MOL0     H43703  11.633   4.657   4.839 -0.7797  2.6154 -0.5239
  317MOL0     H43704  11.776   5.054   4.917  0.1896  1.0380  0.9228
  317MOL0     H43705  12.046   5.263   4.987  0.2708  0.9406  0.9330
  317MOL0     H43706  11.948   5.290   5.129 -0.0585  1.3409 -0.2264
  317MOL0     H43707  11.869   5.272   4.973 -0.0471 -1.0172 -0.3442
  317MOL0     H43708  12.419   5.114   5.269  3.5216 -0.1700  0.2014
  317MOL0     H43709  12.617   5.101   5.386  0.6098 -2.7984 -0.4378
  317MOL0     H43710  12.791   4.972   5.529  2.0502 -0.7867  0.7498
  317MOL0     H43711  12.774   5.143   5.544 -0.9120 -0.9212 -2.5920
  317MOL0     H43712  12.820   5.130   5.792  0.3593  0.6769 -0.4770
  317MOL0     H43713  12.860   4.961   5.778  0.2033  0.3626  0.1857
  317MOL0     H43714  13.028   5.026   5.591 -1.8479 -3.2958  0.3666
  317MOL0     H43715  13.075   5.062   5.755 -0.6464  1.0504  0.2010
  317MOL0     H43716  12.975   5.296   5.734  1.8404  3.3477 -0.6542
  317MOL0     H43717  12.955   5.258   5.565  1.8673  0.1330 -1.6459
  317MOL0     H43718  13.213   5.213   5.560  0.2399 -1.6599  2.5786
  317MOL0     H43719  13.168   5.384   5.586  2.4055  0.7711  1.8529
  317MOL0     H43720  13.355   5.294   5.722 -1.3903  1.1453 -2.5776
  317MOL0     H43721  13.243   5.171   5.800  0.1097 -0.2282  0.2643
  317MOL0     H43722  13.124   5.384   5.906  0.9100 -2.1516  0.3061
  317MOL0     H43723  13.251   5.471   5.832 -0.3136  0.0131 -1.3965
  317MOL0     H43724  13.421   5.343   5.968  0.1112  0.6059 -1.1955
  317MOL0     H43725  13.290   5.260   6.050  0.4899  0.4122  0.3001
  317MOL0     H43726  12.407   4.935   5.734  2.1376  1.0705  0.7101
  317MOL0     H43727  12.213   4.941   5.601 -0.0134 -0.3695 -0.3234
  317MOL0     H43728  12.090   4.836   5.220  0.6498  0.8776  0.8625
  317MOL0     H43729  11.927   4.694   5.064  0.8703  0.3754 -2.4454
  317MOL0     H43730  10.008   4.665   4.988  0.2563 -0.4860 -0.0151
  317MOL0     H43731   9.763   4.738   5.037  2.3179 -0.6127  0.9008
  317MOL0     H43732   9.332   4.625   4.797 -0.0834 -1.1218  2.2749
  317MOL0     H43733   9.086   4.632   4.748  0.5950 -0.5598 -1.3457
  317MOL0     H43734   8.869   4.624   4.802  0.5207 -0.0011  1.0430
  317MOL0     H43735   8.734   4.736   4.832  0.1989  1.2481 -1.2160
  317MOL0     H43736   8.951   4.782   4.614 -0.3740  1.0000 -0.1390
  317MOL0     H43737   8.780   4.847   4.632  2.3602  2.6407  1.1258
  317MOL0     H43738   8.846   4.544   4.597  0.4849  0.9600  2.5061
  317MOL0     H43739   8.694   4.632   4.581  0.4941  3.3776  2.0115
  317MOL0     H43740   8.815   4.755   4.383 -0.8895 -1.0531 -0.8964
  317MOL0     H43741   8.770   4.588   4.357 -0.3147  0.8118 -0.1048
  317MOL0     H43742   9.204   4.583   4.401  0.2852  2.4225 -2.1965
  317MOL0     H43743   9.046   4.925   5.055 -0.8938 -3.8474  1.4276
  317MOL0     H43744   9.356   4.913   5.207 -1.0562 -0.4644  0.0056
  317MOL0     H43745   9.371   5.033   5.080  0.0753  0.0548 -0.7089
  317MOL0     H43746   9.211   4.998   5.172  0.8203 -2.6481  3.1048
  318MOL0     O43747  10.399   5.692   4.645  0.6644  0.1093  0.4487
  318MOL0     C43748  10.409   5.812   4.665  0.2392 -0.4029 -0.6142
  318MOL0     O43749  10.313   5.895   4.704 -0.1852 -0.2175 -0.8069
  318MOL0     C43750  10.193   5.845   4.746  0.2122 -0.0655 -0.0097
  318MOL0     C43751  10.172   5.816   4.883 -0.1993  0.5057 -0.8639
  318MOL0     C43752  10.061   5.738   4.931 -0.2673  0.3285  0.3687
  318MOL0     C43753   9.967   5.692   4.839  0.2186  0.1131 -0.6560
  318MOL0     O43754   9.857   5.635   4.888  0.2482 -0.4082 -0.3922
  318MOL0     C43755   9.755   5.586   4.802 -0.1612 -0.3259  0.3210
  318MOL0     C43756   9.657   5.503   4.894 -0.5878 -0.6167  0.8013
  318MOL0     C43757   9.554   5.446   4.815  1.0451  0.9979  0.4922
  318MOL0     C43758   9.445   5.366   4.894 -0.8003  0.5907 -0.9037
  318MOL0     C43759   9.334   5.330   4.800 -0.0763  0.7512  0.2574
  318MOL0     C43760   9.241   5.234   4.872  0.3324  0.5197 -0.5290
  318MOL0     C43761   9.118   5.215   4.789  0.5599 -0.4290  0.0521
  318MOL0     C43762   8.999   5.317   4.808  0.3413 -0.1786 -0.4656
  318MOL0     N43763   9.006   5.385   4.938  0.0597 -0.1660  0.1702
  318MOL0     C43764   8.951   5.337   5.058 -0.3961 -0.6728 -0.2850
  318MOL0     C43765   8.979   5.429   5.147 -0.7813 -0.4719  0.4479
  318MOL0     C43766   8.946   5.436   5.290 -0.0067  0.2271 -0.1757
  318MOL0     C43767   9.054   5.477   5.382  0.0180  0.0658  0.1365
  318MOL0     C43768   9.149   5.371   5.417 -0.1661  0.2857  0.4125
  318MOL0     C43769   9.253   5.331   5.313 -0.5717 -0.5372 -0.2511
  318MOL0     O43770   9.327   5.234   5.373 -0.4745  0.4765  0.0842
  318MOL0     C43771   9.449   5.207   5.323 -0.7486  0.0295 -0.6651
  318MOL0     C43772   9.510   5.084   5.358 -0.6922  0.4956  0.3067
  318MOL0     C43773   9.636   5.043   5.326  0.1128 -0.1469  0.0907
  318MOL0     C43774   9.669   4.899   5.370 -0.1152 -1.6713 -0.3760
  318MOL0     C43775   9.725   5.131   5.255  0.5376 -0.0242  0.4315
  318MOL0     C43776   9.865   5.104   5.217  0.1403  0.3955  0.0335
  318MOL0     O43777   9.928   5.214   5.160  0.0543 -0.2969 -0.7048
  318MOL0     C43778  10.063   5.237   5.169 -0.1416  0.4426 -0.8698
  318MOL0     C43779  10.114   5.339   5.091  0.2890  0.2368 -0.1635
  318MOL0     C43780  10.244   5.372   5.087  0.4383  0.5308 -0.9537
  318MOL0     C43781  10.333   5.296   5.170  0.4648  0.7826 -0.3734
  318MOL0     O43782  10.470   5.313   5.178 -0.2264  0.5587  0.7157
  318MOL0     C43783  10.538   5.417   5.114  0.4499  0.0507 -0.3909
  318MOL0     C43784  10.520   5.545   5.201  0.4558  0.1503  0.8109
  318MOL0     C43785  10.624   5.646   5.158  0.6399  0.6902 -0.1415
  318MOL0     C43786  10.633   5.673   5.008  0.6585 -0.1314  0.2849
  318MOL0     C43787  10.730   5.794   4.977  0.5634  0.7007 -0.2203
  318MOL0     C43788  10.697   5.931   5.043  0.4919 -0.5116  0.9410
  318MOL0     C43789  10.789   6.047   4.986  0.6486  0.9846  0.5030
  318MOL0     C43790  10.940   6.032   5.024  0.2601 -0.1990 -0.0473
  318MOL0    Cl43791  11.026   6.168   4.941 -0.4081  0.0871 -0.3110
  318MOL0     C43792  10.278   5.194   5.257 -0.2042 -1.4532 -0.1637
  318MOL0     C43793  10.143   5.169   5.259 -0.4853  0.4442 -0.3161
  318MOL0     O43794   9.918   4.993   5.232  0.2516 -0.4638 -0.4182
  318MOL0     C43795   9.662   5.255   5.218  0.0803  0.7815 -0.2642
  318MOL0     C43796   9.527   5.296   5.253  0.0932 -0.3133  0.3896
  318MOL0     N43797   9.049   5.537   5.085  1.5063  0.1369 -0.4562
  318MOL0     N43798   9.061   5.508   4.962  0.3254 -0.1879  0.4413
  318MOL0     C43799   9.981   5.732   4.705  1.3916  0.2790  0.4829
  318MOL0     C43800  10.088   5.807   4.656  0.0862 -0.0435 -0.6091
  318MOL0     C43801  10.536   5.878   4.623  0.4385 -0.3150  0.0709
  318MOL0     C43802  10.538   6.019   4.632 -0.3452 -0.6490 -0.2264
  318MOL0     C43803  10.654   6.090   4.598 -0.0252 -0.1417  0.4136
  318MOL0     C43804  10.779   6.032   4.576  0.3538 -0.3163  0.6758
  318MOL0     O43805  10.894   6.097   4.542 -0.4379 -0.3740  0.5165
  318MOL0     C43806  10.915   6.237   4.560  0.7691  0.2158 -0.2200
  318MOL0     C43807  11.059   6.264   4.592 -0.3894  0.7784 -0.5665
  318MOL0     C43808  11.155   6.199   4.485 -0.0365 -0.4443  1.7335
  318MOL0     C43809  11.131   6.236   4.336 -0.2599  0.3219  0.2028
  318MOL0     C43810  11.114   6.381   4.314  0.5499  0.5748  0.4427
  318MOL0     C43811  11.107   6.499   4.310 -0.1962  0.5448  0.1821
  318MOL0     C43812  10.775   5.896   4.570 -0.5841  0.2110  0.1797
  318MOL0     C43813  10.660   5.817   4.577  0.2537  0.2485  0.3318
  318MOL0     C43814  10.676   5.669   4.539 -0.2238 -0.3056 -0.7957
  318MOL0     H43815  10.259   5.834   4.945  0.2383  2.9898 -2.0462
  318MOL0     H43816  10.041   5.718   5.036 -1.8967 -1.4916 -0.2039
  318MOL0     H43817   9.786   5.513   4.727 -2.1417  1.2841 -2.2553
  318MOL0     H43818   9.709   5.674   4.757  3.5054  1.7140  0.1902
  318MOL0     H43819   9.717   5.422   4.936 -0.1965 -0.3798  0.6973
  318MOL0     H43820   9.622   5.570   4.973  0.6109  0.8303  0.1541
  318MOL0     H43821   9.503   5.526   4.760  1.3745 -0.1084 -1.5553
  318MOL0     H43822   9.591   5.384   4.732 -2.8865  2.6787 -2.8743
  318MOL0     H43823   9.508   5.297   4.950 -1.2404  1.9558  1.4233
  318MOL0     H43824   9.400   5.422   4.977 -1.3233  0.4767 -1.1049
  318MOL0     H43825   9.384   5.276   4.719 -0.5433  1.8398 -0.7866
  318MOL0     H43826   9.272   5.413   4.767 -2.1158  0.2987  2.6603
  318MOL0     H43827   9.286   5.135   4.874 -0.0357  0.3574 -0.1143
  318MOL0     H43828   9.217   5.262   4.975 -2.0991 -1.4185 -0.4798
  318MOL0     H43829   9.077   5.115   4.806  2.0040 -1.7079 -3.1967
  318MOL0     H43830   9.148   5.215   4.684  0.4072 -0.8041  0.0043
  318MOL0     H43831   9.018   5.389   4.728  0.5506  1.2992  0.8480
  318MOL0     H43832   8.905   5.262   4.801  0.4763 -0.7987  1.7367
  318MOL0     H43833   8.895   5.248   5.085 -2.5784  1.0518  1.2184
  318MOL0     H43834   8.902   5.339   5.318 -0.6037 -0.1861 -2.3740
  318MOL0     H43835   8.866   5.508   5.313  0.0865 -0.0258  1.0137
  318MOL0     H43836   9.118   5.556   5.341  1.1455 -1.2814 -0.8081
  318MOL0     H43837   9.005   5.505   5.475 -1.7140 -4.6074  0.8895
  318MOL0     H43838   9.211   5.409   5.498  2.3604  0.4110 -1.4774
  318MOL0     H43839   9.084   5.288   5.447 -0.2981  0.2054 -0.0909
  318MOL0     H43840   9.203   5.287   5.226 -0.7961  2.4641 -1.7684
  318MOL0     H43841   9.302   5.423   5.279 -2.6707  0.4161 -0.8732
  318MOL0     H43842   9.451   5.015   5.418  1.1996  1.1198  3.0659
  318MOL0     H43843   9.680   4.823   5.293 -1.5973 -1.2167 -1.0820
  318MOL0     H43844   9.596   4.870   5.446 -0.7301  1.6984  0.5160
  318MOL0     H43845   9.762   4.898   5.428 -2.1366 -1.7827  3.1728
  318MOL0     H43846  10.048   5.389   5.021  1.8113  2.7739  0.0686
  318MOL0     H43847  10.283   5.448   5.019 -1.0978  0.3051 -2.1422
  318MOL0     H43848  10.645   5.394   5.113  0.5372  0.3274  0.9617
  318MOL0     H43849  10.518   5.425   5.006 -2.4308 -0.8644 -0.0104
  318MOL0     H43850  10.419   5.585   5.194  0.1912 -0.6584 -0.3818
  318MOL0     H43851  10.536   5.518   5.306 -3.5906  0.1936  1.5986
  318MOL0     H43852  10.723   5.625   5.197  2.0648  2.3232 -2.5702
  318MOL0     H43853  10.581   5.731   5.212  0.5581  0.2345  0.5211
  318MOL0     H43854  10.538   5.700   4.960  0.2694 -1.0454  0.5217
  318MOL0     H43855  10.668   5.590   4.946 -0.5283  2.3480 -4.2235
  318MOL0     H43856  10.828   5.763   5.012  1.4853 -0.2413 -3.3218
  318MOL0     H43857  10.740   5.804   4.868 -1.0024 -0.8037 -0.5653
  318MOL0     H43858  10.694   5.923   5.152 -1.7086 -0.7704  0.9014
  318MOL0     H43859  10.597   5.945   5.002  1.3727 -1.6908 -1.8317
  318MOL0     H43860  10.759   6.147   5.018  0.2312  0.8960  0.3952
  318MOL0     H43861  10.769   6.057   4.879 -5.1863  1.9960  1.3978
  318MOL0     H43862  10.962   5.930   4.992 -3.9287 -0.8989 -1.2073
  318MOL0     H43863  10.964   6.045   5.130 -0.5474 -0.4819  0.1709
  318MOL0     H43864  10.346   5.137   5.319  0.4267  1.3218  1.8535
  318MOL0     H43865  10.114   5.090   5.327 -0.4214  1.8790  1.4253
  318MOL0     H43866   9.724   5.327   5.167  0.6285  0.0203 -0.6865
  318MOL0     H43867   9.490   5.395   5.229 -1.0156 -1.1523 -1.5942
  318MOL0     H43868   9.903   5.716   4.632  1.7521 -1.0601  0.3768
  318MOL0     H43869  10.122   5.831   4.556 -0.4009  3.9742  0.0237
  318MOL0     H43870  10.448   6.078   4.644 -0.7265 -1.4088  0.7585
  318MOL0     H43871  10.637   6.197   4.607  2.3357  0.2772  0.4005
  318MOL0     H43872  10.875   6.288   4.472 -1.9852 -1.4741 -0.0515
  318MOL0     H43873  10.848   6.284   4.632  0.1323  0.8847 -1.2189
  318MOL0     H43874  11.073   6.227   4.694 -1.9610  1.1446 -0.1938
  318MOL0     H43875  11.064   6.373   4.593 -2.7758  0.9513 -0.9232
  318MOL0     H43876  11.256   6.229   4.515  0.7047 -0.2639 -0.6981
  318MOL0     H43877  11.149   6.090   4.493  0.2898 -0.7679 -1.2456
  318MOL0     H43878  11.038   6.197   4.293 -0.8040 -0.8215  2.2703
  318MOL0     H43879  11.216   6.206   4.275 -0.5159  1.8074 -0.9543
  318MOL0     H43880  11.093   6.605   4.299 -0.2607  0.6439  1.1240
  318MOL0     H43881  10.871   5.850   4.552 -1.2100 -1.9590  1.9862
  318MOL0     H43882  10.666   5.621   4.637 -2.6038  1.1482 -0.2289
  318MOL0     H43883  10.596   5.628   4.477 -2.5326 -2.1899  2.9978
  318MOL0     H43884  10.777   5.659   4.499 -0.3749 -0.5719 -1.1106
  319MOL0     O43885   0.518   9.275   9.837  0.8078 -0.1205  0.3955
  319MOL0     C43886   0.478   9.232   9.730 -0.4362  0.4691  0.0225
  319MOL0     O43887   0.561   9.204   9.622 -0.4886 -0.1838 -0.1238
  319MOL0     C43888   0.693   9.224   9.629 -0.1793 -0.8255  0.9715
  319MOL0     C43889   0.780   9.121   9.592 -0.2466 -0.0226 -0.2847
  319MOL0     C43890   0.921   9.152   9.594 -0.4046 -0.3420 -0.0888
  319MOL0     C43891   0.969   9.272   9.642 -0.2186  0.4986 -0.0162
  319MOL0     O43892   1.098   9.318   9.667  0.0112  0.2473  0.6463
  319MOL0     C43893   1.208   9.265   9.592 -0.0696  0.3601  0.1910
  319MOL0     C43894   1.329   9.300   9.667 -0.9875  0.8005  0.1338
  319MOL0     C43895   1.443   9.281   9.565  0.9907 -0.6253 -0.0452
  319MOL0     C43896   1.579   9.303   9.625  0.4133  0.0428 -0.4969
  319MOL0     C43897   1.686   9.266   9.526  0.2047  0.3876 -0.3079
  319MOL0     C43898   1.812   9.262   9.595  0.2307 -0.7579 -0.1690
  319MOL0     C43899   1.923   9.230   9.505 -0.3919  0.8955 -0.0361
  319MOL0     C43900   2.055   9.267   9.565 -0.9729 -0.7348 -0.6525
  319MOL0     N43901   2.170   9.221   9.488  0.2116 -0.4415 -0.3124
  319MOL0     C43902   2.290   9.192   9.541 -0.6698 -0.0705  0.1590
  319MOL0     C43903   2.360   9.137   9.438 -0.4605  0.5867  0.7106
  319MOL0     C43904   2.508   9.075   9.445  0.1541  0.2631  0.4839
  319MOL0     C43905   2.515   8.922   9.459 -0.7116 -0.8026  0.0847
  319MOL0     C43906   2.463   8.857   9.341 -0.9414  0.0499 -0.1662
  319MOL0     C43907   2.493   8.703   9.330 -0.6542 -0.8110 -0.5147
  319MOL0     O43908   2.635   8.673   9.316  0.3319  0.0817 -0.7047
  319MOL0     C43909   2.708   8.710   9.204 -0.5501 -0.3658  0.3121
  319MOL0     C43910   2.792   8.825   9.211  0.3245  0.5333  0.4764
  319MOL0     C43911   2.879   8.853   9.102  0.1113 -0.1718  0.9129
  319MOL0     C43912   2.967   8.965   9.125 -0.1166  0.8706  0.4024
  319MOL0     C43913   2.880   8.777   8.982  1.0647 -0.7929 -0.1096
  319MOL0     C43914   2.968   8.798   8.869  0.4396 -0.4324 -0.3031
  319MOL0     O43915   3.090   8.854   8.892  0.1639 -0.7972 -0.4635
  319MOL0     C43916   3.170   8.885   8.787  0.1909  0.2417 -1.0008
  319MOL0     C43917   3.276   8.801   8.763 -0.6888 -0.1179  0.3092
  319MOL0     C43918   3.361   8.830   8.653 -0.5030  0.4100  0.0681
  319MOL0     C43919   3.337   8.941   8.573 -0.6531  0.2651  0.3968
  319MOL0     O43920   3.424   8.970   8.468  0.5542 -0.3055 -0.8261
  319MOL0     C43921   3.357   9.041   8.360 -0.1351 -0.0339  0.0267
  319MOL0     C43922   3.421   8.999   8.234  0.0624  0.4254  0.8721
  319MOL0     C43923   3.350   9.041   8.109 -0.1867 -0.0909 -0.0521
  319MOL0     C43924   3.393   8.949   7.994  0.3813  0.4736  0.3306
  319MOL0     C43925   3.337   9.003   7.860  0.4919 -0.7250 -0.0584
  319MOL0     C43926   3.386   8.928   7.741  0.1151 -0.3591  1.0615
  319MOL0     C43927   3.312   8.958   7.611  0.2446  0.1738  0.3150
  319MOL0     C43928   3.330   9.105   7.557 -0.0350 -1.3581 -0.2458
  319MOL0    Cl43929   3.491   9.122   7.497  0.0326 -0.5255  0.4266
  319MOL0     C43930   3.241   9.034   8.622 -0.1345  0.1356  1.1407
  319MOL0     C43931   3.146   9.000   8.722 -0.7350 -0.6864  0.8799
  319MOL0     O43932   2.937   8.764   8.758 -0.3862 -0.1259  0.0326
  319MOL0     C43933   2.793   8.668   8.980  0.2983  0.2753  0.2816
  319MOL0     C43934   2.712   8.629   9.087  0.4305  0.0435 -0.0219
  319MOL0     N43935   2.277   9.138   9.328 -0.6059 -0.4582 -0.1603
  319MOL0     N43936   2.163   9.188   9.357  0.1145 -0.2602  0.6090
  319MOL0     C43937   0.874   9.369   9.679  0.0224 -0.5145  0.2210
  319MOL0     C43938   0.740   9.340   9.679  0.2748  0.3679 -0.2308
  319MOL0     C43939   0.339   9.195   9.717  0.1061 -0.4296 -0.2015
  319MOL0     C43940   0.249   9.284   9.785  0.1113  0.6817 -0.6165
  319MOL0     C43941   0.110   9.246   9.791 -0.0242 -0.5338 -0.5239
  319MOL0     C43942   0.062   9.125   9.732  0.5334  0.0734 -0.0522
  319MOL0     O43943  -0.072   9.103   9.741  0.5808 -0.0661 -0.0473
  319MOL0     C43944  -0.135   9.003   9.649 -0.4931 -0.2842  0.6568
  319MOL0     C43945  -0.282   9.007   9.674  0.6291 -0.5980 -0.3005
  319MOL0     C43946  -0.336   8.898   9.769  0.2945 -0.0335  0.4789
  319MOL0     C43947  -0.485   8.907   9.804 -0.3512 -0.4813 -0.4404
  319MOL0     C43948  -0.563   8.865   9.692 -0.4781 -0.4164  0.2638
  319MOL0     C43949  -0.629   8.839   9.589 -0.4991  0.3677  0.6862
  319MOL0     C43950   0.154   9.046   9.663  0.0220 -0.6675 -0.0506
  319MOL0     C43951   0.288   9.090   9.648  0.8531 -0.9053 -0.3882
  319MOL0     C43952   0.363   8.999   9.560  0.5190 -0.1227  0.7131
  319MOL0     H43953   0.749   9.028   9.547  0.8023 -0.8983  0.7587
  319MOL0     H43954   0.995   9.085   9.550 -1.3131 -0.7427 -1.0457
  319MOL0     H43955   1.213   9.308   9.492  3.1834  0.4440  0.2843
  319MOL0     H43956   1.196   9.157   9.576 -0.3678  0.4676 -0.3531
  319MOL0     H43957   1.317   9.398   9.714 -1.3584 -0.7824  3.6833
  319MOL0     H43958   1.339   9.233   9.753 -0.3402  1.3180  0.4695
  319MOL0     H43959   1.429   9.180   9.524 -0.3799 -1.3481  1.9749
  319MOL0     H43960   1.428   9.343   9.477  1.0297 -2.4610 -1.3983
  319MOL0     H43961   1.590   9.409   9.650 -0.4150  0.2723 -1.0626
  319MOL0     H43962   1.587   9.244   9.717 -1.8379 -0.4221 -0.5517
  319MOL0     H43963   1.698   9.331   9.438  2.3969  1.2171  0.5278
  319MOL0     H43964   1.666   9.166   9.486  0.3199 -0.0425  0.6954
  319MOL0     H43965   1.837   9.359   9.638  3.7112 -0.7864 -1.7340
  319MOL0     H43966   1.814   9.189   9.676 -0.1246 -0.3304  0.2268
  319MOL0     H43967   1.907   9.271   9.405  0.7432 -0.1019 -0.6579
  319MOL0     H43968   1.938   9.122   9.492 -0.1108  1.0448 -1.0715
  319MOL0     H43969   2.056   9.375   9.580 -0.0024 -0.5851 -1.6728
  319MOL0     H43970   2.062   9.217   9.662 -0.5070 -1.1459 -0.8948
  319MOL0     H43971   2.335   9.210   9.639 -0.4542 -0.9484  0.2285
  319MOL0     H43972   2.559   9.113   9.534  0.3918  0.9553  0.0608
  319MOL0     H43973   2.573   9.104   9.362 -0.1025 -1.9539 -0.5633
  319MOL0     H43974   2.609   8.882   9.496 -0.2156  0.0187 -0.2677
  319MOL0     H43975   2.439   8.897   9.533 -1.1343 -1.0653 -0.4255
  319MOL0     H43976   2.355   8.868   9.342 -1.0975 -0.9190 -1.7948
  319MOL0     H43977   2.512   8.910   9.259 -0.1739  2.4137  1.6914
  319MOL0     H43978   2.453   8.656   9.419 -1.4335  3.3522  1.6028
  319MOL0     H43979   2.442   8.658   9.245 -3.4873  0.3488  0.4786
  319MOL0     H43980   2.804   8.893   9.295  0.6827 -1.7876  2.3924
  319MOL0     H43981   3.062   8.918   9.154 -1.6342 -0.6069  3.3694
  319MOL0     H43982   2.930   9.041   9.195 -0.5212  1.4002 -0.3711
  319MOL0     H43983   2.969   9.028   9.035  0.2746  2.5387  1.5202
  319MOL0     H43984   3.290   8.725   8.839 -2.2324  0.1926  0.9383
  319MOL0     H43985   3.447   8.767   8.636 -0.4342  1.0790 -2.4800
  319MOL0     H43986   3.248   9.030   8.357 -0.1350  0.2246 -1.2164
  319MOL0     H43987   3.382   9.145   8.381 -1.3574  0.5344 -1.1927
  319MOL0     H43988   3.528   9.022   8.229  0.6864 -2.1679  0.7624
  319MOL0     H43989   3.428   8.890   8.244  2.5193  0.2360 -1.7243
  319MOL0     H43990   3.381   9.145   8.093  2.3372 -0.5825  1.1132
  319MOL0     H43991   3.242   9.035   8.121  0.0576  0.0399  3.0615
  319MOL0     H43992   3.358   8.847   8.013  1.8814 -0.4268 -1.4158
  319MOL0     H43993   3.502   8.952   7.992  0.4352 -0.0438  1.7129
  319MOL0     H43994   3.227   9.001   7.861  0.4895 -0.5741 -0.0671
  319MOL0     H43995   3.365   9.108   7.853 -3.4020  0.4369 -0.7639
  319MOL0     H43996   3.397   8.820   7.758  1.3492  0.0218  3.0175
  319MOL0     H43997   3.489   8.966   7.733 -0.7024  2.7779  3.4215
  319MOL0     H43998   3.206   8.929   7.616  0.0642  0.8750  0.6221
  319MOL0     H43999   3.346   8.886   7.536 -2.6929 -0.7947 -0.2160
  319MOL0     H44000   3.312   9.180   7.634  1.0688  0.0994 -1.3455
  319MOL0     H44001   3.248   9.130   7.488 -1.0890  1.9714  1.9720
  319MOL0     H44002   3.228   9.130   8.574 -1.1936  0.6105  2.3162
  319MOL0     H44003   3.069   9.073   8.741 -1.7054 -1.7631  1.2048
  319MOL0     H44004   2.807   8.596   8.900  0.3903  0.2608  0.3103
  319MOL0     H44005   2.651   8.540   9.078  1.0148 -0.2377 -1.6167
  319MOL0     H44006   0.900   9.465   9.721 -1.4440 -1.1065  2.6265
  319MOL0     H44007   0.667   9.413   9.713 -0.7496 -1.7955  2.6448
  319MOL0     H44008   0.281   9.368   9.846 -0.3203 -0.5225  1.3738
  319MOL0     H44009   0.036   9.311   9.838 -0.1819 -0.8992 -0.2599
  319MOL0     H44010  -0.119   9.029   9.544 -1.3981  1.0905  0.8207
  319MOL0     H44011  -0.102   8.899   9.658 -0.7208 -0.6901 -2.2183
  319MOL0     H44012  -0.338   8.994   9.581 -0.6511 -2.3984  0.6659
  319MOL0     H44013  -0.313   9.107   9.706 -1.8214 -1.2678 -0.4138
  319MOL0     H44014  -0.314   8.799   9.728  1.9409  0.2376  0.6307
  319MOL0     H44015  -0.285   8.897   9.866  0.0411 -0.9696  0.6151
  319MOL0     H44016  -0.523   9.003   9.840 -3.0055 -1.5691 -0.1134
  319MOL0     H44017  -0.500   8.843   9.892  2.0332 -0.8957 -0.2623
  319MOL0     H44018  -0.680   8.806   9.501 -2.0892  1.0539  1.3175
  319MOL0     H44019   0.127   8.945   9.634  1.1208 -1.2478  0.8961
  319MOL0     H44020   0.304   8.930   9.498 -0.9268  1.4482  0.2610
  319MOL0     H44021   0.421   9.059   9.489  0.0908  1.0645  1.3458
  319MOL0     H44022   0.429   8.940   9.624  0.7807 -1.9686 -1.1354
  320MOL0     O44023   8.682   0.482   3.708  0.0386  0.0721  0.1735
  320MOL0     C44024   8.604   0.526   3.620 -0.2876 -0.3398  0.6021
  320MOL0     O44025   8.636   0.584   3.502  0.0957 -0.0364  0.4871
  320MOL0     C44026   8.764   0.544   3.459  0.2915  0.7904  0.6871
  320MOL0     C44027   8.882   0.596   3.503 -0.0752  0.7785  0.2612
  320MOL0     C44028   9.008   0.553   3.452  0.4575  0.3064 -0.1413
  320MOL0     C44029   9.027   0.438   3.369 -0.1897  0.2942 -0.0530
  320MOL0     O44030   9.145   0.390   3.317  0.8851 -0.1302  0.0052
  320MOL0     C44031   9.264   0.420   3.391  0.1044 -0.2388 -0.5136
  320MOL0     C44032   9.374   0.313   3.385  1.1488  0.3424  0.3483
  320MOL0     C44033   9.499   0.345   3.452 -0.1173 -0.4096 -0.2338
  320MOL0     C44034   9.585   0.441   3.371 -0.7512  0.0224 -1.0933
  320MOL0     C44035   9.717   0.476   3.442  0.6865  0.0403 -0.0236
  320MOL0     C44036   9.792   0.579   3.352  0.6906  0.8351  0.3532
  320MOL0     C44037   9.911   0.646   3.425 -0.6927 -0.6077  0.5155
  320MOL0     C44038  10.001   0.712   3.333  0.4342 -0.3066  0.7832
  320MOL0     N44039  10.108   0.791   3.395  0.5070  0.0153  0.2943
  320MOL0     C44040  10.088   0.904   3.475  0.1349  0.1181 -0.2310
  320MOL0     C44041  10.213   0.925   3.528  0.0752  0.0453  0.3257
  320MOL0     C44042  10.274   1.047   3.605 -0.1051  0.2892 -0.2101
  320MOL0     C44043  10.342   1.140   3.509 -0.4881  1.2872 -0.3709
  320MOL0     C44044  10.432   1.243   3.569  0.1136 -0.2137 -0.3168
  320MOL0     C44045  10.506   1.214   3.697  0.0830  0.5727 -0.4144
  320MOL0     O44046  10.557   1.084   3.705 -0.2768  0.8960  0.6638
  320MOL0     C44047  10.666   1.059   3.628 -0.3727 -0.3608 -0.6012
  320MOL0     C44048  10.782   1.135   3.648 -0.6870  1.0115  0.9387
  320MOL0     C44049  10.905   1.119   3.579 -0.0366  0.2364  0.2347
  320MOL0     C44050  11.022   1.221   3.598 -0.9977  0.0798 -0.2880
  320MOL0     C44051  10.912   1.013   3.480  0.7374 -0.5436  0.5070
  320MOL0     C44052  11.031   0.968   3.413 -0.3746 -0.4158  0.0899
  320MOL0     O44053  11.024   0.849   3.351  1.0580 -0.2336  0.1179
  320MOL0     C44054  11.127   0.771   3.307 -0.5318 -1.2276  0.0051
  320MOL0     C44055  11.252   0.815   3.255 -0.1477 -0.5561 -1.2692
  320MOL0     C44056  11.350   0.726   3.215  0.3703  0.2964 -0.2485
  320MOL0     C44057  11.340   0.587   3.239  0.6410  1.3754 -0.5720
  320MOL0     O44058  11.437   0.495   3.185 -0.3172  0.0824  0.6482
  320MOL0     C44059  11.509   0.415   3.280  0.0850  1.1298  0.8425
  320MOL0     C44060  11.655   0.417   3.240 -0.8937  0.2390 -0.2146
  320MOL0     C44061  11.721   0.552   3.266  0.9367  0.5567 -0.0995
  320MOL0     C44062  11.732   0.577   3.418  0.0636  1.4310  0.9610
  320MOL0     C44063  11.765   0.718   3.444 -0.0743  0.4440 -0.1045
  320MOL0     C44064  11.885   0.758   3.355  0.9935 -0.4802  0.2130
  320MOL0     C44065  11.987   0.854   3.434 -0.0350 -0.4387 -0.5932
  320MOL0     C44066  12.128   0.858   3.369  0.1375 -0.0161  0.2521
  320MOL0    Cl44067  12.243   0.937   3.475  0.0209  0.3204  0.1181
  320MOL0     C44068  11.216   0.539   3.293 -0.3460  0.1161 -0.4379
  320MOL0     C44069  11.117   0.635   3.327  0.3341  0.6170 -0.2094
  320MOL0     O44070  11.137   1.038   3.413 -0.1148  0.9284 -0.4605
  320MOL0     C44071  10.800   0.940   3.467 -0.0309  0.4866  0.2193
  320MOL0     C44072  10.680   0.961   3.530  0.0723  0.4898  0.1336
  320MOL0     N44073  10.297   0.829   3.481  0.3661 -0.0325 -1.0358
  320MOL0     N44074  10.234   0.747   3.412  0.1512 -0.0246  0.5378
  320MOL0     C44075   8.905   0.384   3.328 -0.1765 -0.0362 -0.1305
  320MOL0     C44076   8.780   0.431   3.368  0.5383 -0.1409 -0.4291
  320MOL0     C44077   8.460   0.536   3.651  0.2136 -0.0345  0.1889
  320MOL0     C44078   8.374   0.525   3.541 -0.3483 -0.2081 -0.0090
  320MOL0     C44079   8.238   0.527   3.556  0.1697 -0.5953  0.4813
  320MOL0     C44080   8.181   0.535   3.681  0.1841  0.6345 -0.4191
  320MOL0     O44081   8.037   0.528   3.676 -0.3204  0.1141  0.0070
  320MOL0     C44082   7.971   0.523   3.802 -0.6485 -0.4556 -0.1265
  320MOL0     C44083   7.955   0.378   3.843  0.6610 -0.0278  0.1726
  320MOL0     C44084   7.858   0.379   3.962  0.1105 -0.2170 -0.6635
  320MOL0     C44085   7.823   0.233   4.010 -0.3620 -1.5636  0.3196
  320MOL0     C44086   7.946   0.165   4.056  0.1643 -0.5349 -0.8062
  320MOL0     C44087   8.024   0.116   4.128  0.0537  0.7003 -0.5569
  320MOL0     C44088   8.264   0.537   3.794 -0.0477  0.4902  0.6315
  320MOL0     C44089   8.400   0.541   3.778 -0.7530 -0.9399  0.0410
  320MOL0     C44090   8.483   0.563   3.906 -0.9576  0.0102 -0.3114
  320MOL0     H44091   8.874   0.676   3.576  2.7826  1.4168 -0.0268
  320MOL0     H44092   9.096   0.608   3.484  1.0054 -1.7046  2.1274
  320MOL0     H44093   9.243   0.430   3.498  1.2047 -1.9004 -0.1009
  320MOL0     H44094   9.303   0.512   3.347  1.2950 -1.1281 -1.3827
  320MOL0     H44095   9.330   0.220   3.423 -0.5628  0.5506 -0.9999
  320MOL0     H44096   9.390   0.291   3.279  0.9658  1.8611 -0.0093
  320MOL0     H44097   9.487   0.396   3.548 -1.5331 -0.5048 -0.3367
  320MOL0     H44098   9.539   0.244   3.464  0.5482 -0.5053 -2.8467
  320MOL0     H44099   9.609   0.383   3.282  2.0797 -0.4359 -0.1584
  320MOL0     H44100   9.537   0.535   3.343  1.7855  1.5791 -0.6321
  320MOL0     H44101   9.779   0.388   3.459  1.8883  1.1153  1.4263
  320MOL0     H44102   9.702   0.511   3.544 -0.5195 -0.1672 -0.1169
  320MOL0     H44103   9.826   0.525   3.264 -0.8957  1.3127 -0.5801
  320MOL0     H44104   9.714   0.649   3.320 -1.0048 -1.0169  0.2518
  320MOL0     H44105   9.972   0.564   3.464  1.3477  0.5651 -0.0574
  320MOL0     H44106   9.880   0.704   3.512 -0.5085 -0.8170  0.7257
  320MOL0     H44107  10.047   0.641   3.264 -0.9128 -1.7111  1.2607
  320MOL0     H44108   9.941   0.779   3.270 -1.2238 -1.6344  0.8894
  320MOL0     H44109   9.993   0.955   3.487 -0.2930 -1.0855  2.1202
  320MOL0     H44110  10.344   0.992   3.668 -2.9747 -3.8955 -0.2662
  320MOL0     H44111  10.200   1.095   3.671  1.9251 -0.7060  3.0356
  320MOL0     H44112  10.403   1.071   3.451 -2.4843  1.0566 -2.3384
  320MOL0     H44113  10.272   1.185   3.437 -1.2285 -0.3121 -0.6888
  320MOL0     H44114  10.508   1.266   3.494  0.0356  2.0961  0.2463
  320MOL0     H44115  10.374   1.334   3.586  1.8660  0.4473  2.8627
  320MOL0     H44116  10.585   1.290   3.701  0.6118 -0.0132  0.4214
  320MOL0     H44117  10.439   1.236   3.780  2.8288  0.2194  2.0445
  320MOL0     H44118  10.785   1.212   3.724  1.7266  2.7999 -0.8166
  320MOL0     H44119  11.116   1.166   3.612 -1.4209 -0.7058 -0.4641
  320MOL0     H44120  11.007   1.278   3.690  0.7548 -0.9686  0.6990
  320MOL0     H44121  11.018   1.299   3.521  0.0480  1.3940  0.9223
  320MOL0     H44122  11.262   0.921   3.233 -1.0276 -0.0784  0.4126
  320MOL0     H44123  11.446   0.755   3.173  0.0347  0.7949 -0.6850
  320MOL0     H44124  11.491   0.440   3.385  0.5576  0.0089  1.2080
  320MOL0     H44125  11.473   0.312   3.278 -1.9632  1.7134  2.7361
  320MOL0     H44126  11.709   0.340   3.296 -0.6531  0.0760 -0.6596
  320MOL0     H44127  11.661   0.383   3.136 -1.4839  1.4669 -0.6675
  320MOL0     H44128  11.662   0.631   3.217 -1.0797 -0.8913 -0.1149
  320MOL0     H44129  11.818   0.541   3.217  1.5858 -2.1012  1.6067
  320MOL0     H44130  11.807   0.503   3.449 -2.0500 -1.2216  0.1099
  320MOL0     H44131  11.637   0.559   3.469 -0.4091  2.7366  0.5587
  320MOL0     H44132  11.674   0.772   3.416 -1.6938 -0.9640  2.1113
  320MOL0     H44133  11.781   0.746   3.548  0.4048  3.0730 -0.8140
  320MOL0     H44134  11.855   0.817   3.268  2.1080 -0.7963 -0.4050
  320MOL0     H44135  11.944   0.672   3.323  1.5638  0.8116 -2.4441
  320MOL0     H44136  12.005   0.821   3.537  0.3517 -1.9901 -1.1252
  320MOL0     H44137  11.955   0.958   3.434 -0.1204 -0.3733  2.2537
  320MOL0     H44138  12.129   0.901   3.268 -0.9620  2.5258  1.2407
  320MOL0     H44139  12.160   0.753   3.368 -0.1723 -0.1091 -0.4573
  320MOL0     H44140  11.211   0.431   3.303  4.6135 -0.2469  1.2777
  320MOL0     H44141  11.034   0.599   3.386 -0.8250  3.1285 -0.1888
  320MOL0     H44142  10.798   0.852   3.404  1.2172  2.4787 -2.8267
  320MOL0     H44143  10.596   0.895   3.513  0.1047  0.1124  1.3461
  320MOL0     H44144   8.909   0.294   3.267 -0.5599  0.0252 -0.2499
  320MOL0     H44145   8.690   0.379   3.337  2.3857 -3.2533 -0.9910
  320MOL0     H44146   8.413   0.512   3.441 -0.3416  1.2513 -0.2053
  320MOL0     H44147   8.173   0.539   3.470 -0.4549  2.1670  1.2127
  320MOL0     H44148   8.023   0.575   3.883  0.7957  2.2138 -2.6155
  320MOL0     H44149   7.868   0.560   3.792 -0.6294  1.2460  3.9730
  320MOL0     H44150   8.054   0.343   3.872  1.3221 -1.7057 -3.5537
  320MOL0     H44151   7.920   0.307   3.768 -0.8947  0.2743  0.5701
  320MOL0     H44152   7.901   0.438   4.044 -0.8551 -1.0411  0.4770
  320MOL0     H44153   7.758   0.418   3.938  0.8332  1.3598 -1.2273
  320MOL0     H44154   7.766   0.182   3.932 -1.6655  1.2880 -0.7461
  320MOL0     H44155   7.757   0.240   4.097  1.1825 -0.8180  1.4757
  320MOL0     H44156   8.107   0.066   4.174 -0.0331  0.0533 -1.0816
  320MOL0     H44157   8.232   0.533   3.897  1.4146 -1.1040  1.0796
  320MOL0     H44158   8.564   0.631   3.878 -2.3719  0.3587 -4.2837
  320MOL0     H44159   8.431   0.624   3.981 -0.6054 -0.0748  0.0059
  320MOL0     H44160   8.518   0.473   3.957 -1.5148  0.5929  1.1588
  321MOL0     O44161  10.597   7.289   0.061 -0.9015  0.5665  0.3227
  321MOL0     C44162  10.712   7.294   0.008  0.1707 -0.3254 -0.6248
  321MOL0     O44163  10.756   7.208  -0.089  0.0383 -0.6239 -0.0969
  321MOL0     C44164  10.702   7.082  -0.094 -0.1312  0.9718  0.3186
  321MOL0     C44165  10.681   7.008   0.016 -0.2964  0.4944 -0.0734
  321MOL0     C44166  10.637   6.881   0.008  0.4148  0.3689  0.2249
  321MOL0     C44167  10.615   6.821  -0.112  0.7422 -0.1615  0.3126
  321MOL0     O44168  10.597   6.682  -0.120  0.1703  0.2568 -0.4720
  321MOL0     C44169  10.543   6.631  -0.245 -0.3618  0.6181 -0.8852
  321MOL0     C44170  10.513   6.486  -0.233 -0.9339  0.3127 -0.0192
  321MOL0     C44171  10.378   6.456  -0.170 -0.1038 -0.0642 -0.0090
  321MOL0     C44172  10.358   6.309  -0.174  0.0109  0.1681 -0.2481
  321MOL0     C44173  10.215   6.283  -0.127  0.1899 -0.1929 -0.1352
  321MOL0     C44174  10.107   6.345  -0.224  0.0503 -0.8356  0.1893
  321MOL0     C44175   9.992   6.252  -0.235  0.1137 -0.3420  0.8083
  321MOL0     C44176  10.007   6.136  -0.336 -0.8437  0.1347 -0.3635
  321MOL0     N44177   9.985   6.179  -0.475 -0.2736  0.8820  0.0021
  321MOL0     C44178   9.859   6.196  -0.519 -0.7219  0.3783 -0.2057
  321MOL0     C44179   9.883   6.266  -0.637 -0.5122  0.3859 -0.7098
  321MOL0     C44180   9.770   6.301  -0.730 -0.3748 -0.1967 -0.5459
  321MOL0     C44181   9.802   6.362  -0.867  0.2554 -0.6598 -0.3599
  321MOL0     C44182   9.692   6.439  -0.944  0.1844  0.3201 -1.0873
  321MOL0     C44183   9.744   6.516  -1.063  0.5054  0.3076  0.3515
  321MOL0     O44184   9.784   6.654  -1.034  0.6066  0.9561 -0.8586
  321MOL0     C44185   9.826   6.745  -1.128  0.3273  0.4606  0.5870
  321MOL0     C44186   9.816   6.878  -1.095  0.7813  0.7069 -0.2655
  321MOL0     C44187   9.847   6.981  -1.181 -0.5180 -0.3013  0.0479
  321MOL0     C44188   9.828   7.119  -1.119  0.1218  0.1763 -0.3680
  321MOL0     C44189   9.894   6.950  -1.309  0.0463 -0.1281  0.8560
  321MOL0     C44190   9.916   7.054  -1.416 -0.1899 -0.4497  0.5193
  321MOL0     O44191   9.921   7.188  -1.390  0.3662 -0.3741 -0.2709
  321MOL0     C44192   9.971   7.262  -1.493 -0.1760  1.1037 -0.4214
  321MOL0     C44193   9.889   7.353  -1.564 -0.8173  0.3877  0.0290
  321MOL0     C44194   9.946   7.418  -1.670 -0.5638  0.1944  0.4595
  321MOL0     C44195  10.082   7.402  -1.703  0.0067 -0.1969  0.1410
  321MOL0     O44196  10.114   7.473  -1.821 -0.6405  0.8552  0.1435
  321MOL0     C44197  10.228   7.435  -1.910 -0.5160 -0.2817  0.2475
  321MOL0     C44198  10.365   7.487  -1.860  0.1544  0.3505  0.3558
  321MOL0     C44199  10.480   7.424  -1.929 -0.9151  0.6479 -0.1914
  321MOL0     C44200  10.615   7.474  -1.877 -0.3943  0.9145 -0.0062
  321MOL0     C44201  10.739   7.399  -1.928 -0.6033  0.5432 -0.8441
  321MOL0     C44202  10.757   7.435  -2.080 -0.4244  0.2817  0.5363
  321MOL0     C44203  10.902   7.405  -2.137  0.0868 -0.2876 -0.4671
  321MOL0     C44204  10.942   7.263  -2.112 -0.9015  0.2963 -0.3114
  321MOL0    Cl44205  11.108   7.220  -2.184 -0.3428  0.1288 -0.0965
  321MOL0     C44206  10.156   7.306  -1.635 -0.1199  0.2374  0.2412
  321MOL0     C44207  10.105   7.242  -1.527 -0.3752  0.0526  0.0738
  321MOL0     O44208   9.940   7.006  -1.528 -0.3566 -0.3364  0.0837
  321MOL0     C44209   9.916   6.811  -1.340 -0.2483 -0.7340  0.7329
  321MOL0     C44210   9.881   6.711  -1.256  0.9199  1.3723 -0.8514
  321MOL0     N44211  10.012   6.298  -0.652 -0.7753  0.9290 -0.2866
  321MOL0     N44212  10.079   6.241  -0.553  0.4086 -0.7785 -0.2031
  321MOL0     C44213  10.639   6.898  -0.229  0.7900 -0.0387  0.0284
  321MOL0     C44214  10.689   7.031  -0.223  0.5433  0.3805  0.1883
  321MOL0     C44215  10.816   7.404   0.046 -0.1847 -0.2169  0.4452
  321MOL0     C44216  10.952   7.396   0.021 -0.0870  0.5874 -0.7256
  321MOL0     C44217  11.045   7.501   0.044  0.1599 -0.2434 -0.9731
  321MOL0     C44218  11.000   7.617   0.106  0.1111 -0.7808 -0.8401
  321MOL0     O44219  11.083   7.724   0.137 -0.2723 -0.0333  0.2417
  321MOL0     C44220  11.217   7.743   0.100  0.7903 -0.1401  0.3822
  321MOL0     C44221  11.242   7.893   0.072 -0.3346 -0.0040 -0.0242
  321MOL0     C44222  11.389   7.913   0.029  0.1864  0.0910  1.2768
  321MOL0     C44223  11.440   8.048  -0.024  0.6756  0.9194 -0.4376
  321MOL0     C44224  11.380   8.054  -0.158 -0.6031  0.5551  0.8337
  321MOL0     C44225  11.328   8.055  -0.271  0.2362 -0.3473  0.0088
  321MOL0     C44226  10.867   7.622   0.143  0.5276  0.9196  0.4263
  321MOL0     C44227  10.769   7.524   0.115 -0.0454 -0.4653 -0.6078
  321MOL0     C44228  10.626   7.547   0.155  0.6912  0.8981  0.1114
  321MOL0     H44229  10.721   7.054   0.105  2.2168  1.3285 -1.5373
  321MOL0     H44230  10.625   6.815   0.094 -0.5957  0.4233  0.1415
  321MOL0     H44231  10.622   6.646  -0.320  1.5202 -0.1535  0.8491
  321MOL0     H44232  10.460   6.695  -0.276  0.2276  0.8036 -2.1625
  321MOL0     H44233  10.508   6.444  -0.334 -0.1335 -0.8793  0.4002
  321MOL0     H44234  10.599   6.443  -0.179  0.5254  1.9280 -0.9777
  321MOL0     H44235  10.360   6.489  -0.068  2.0183  1.2984 -0.0148
  321MOL0     H44236  10.296   6.501  -0.228  1.0596 -0.4006 -2.0364
  321MOL0     H44237  10.364   6.269  -0.275  1.5095 -0.1537 -0.0530
  321MOL0     H44238  10.427   6.252  -0.111 -2.2968  0.1584  2.5276
  321MOL0     H44239  10.206   6.313  -0.022  0.5329 -1.0379  0.1460
  321MOL0     H44240  10.198   6.175  -0.122  0.0869 -0.3777 -3.0813
  321MOL0     H44241  10.073   6.444  -0.189  0.9443  1.0636 -3.7442
  321MOL0     H44242  10.145   6.378  -0.321  1.0154 -2.1560  0.0910
  321MOL0     H44243   9.912   6.315  -0.276  1.1323  0.9365  0.7242
  321MOL0     H44244   9.967   6.204  -0.140  1.3090 -2.2697  0.2210
  321MOL0     H44245  10.098   6.079  -0.315 -0.2619  1.1825  0.0061
  321MOL0     H44246   9.926   6.065  -0.314 -1.3903  0.4424 -1.3272
  321MOL0     H44247   9.763   6.161  -0.480  0.5493 -2.9225  0.3262
  321MOL0     H44248   9.702   6.362  -0.669  0.2180 -0.1346  0.0712
  321MOL0     H44249   9.709   6.212  -0.746 -0.7983 -0.7031  3.0533
  321MOL0     H44250   9.884   6.432  -0.849  1.5981 -2.4608  0.9195
  321MOL0     H44251   9.842   6.280  -0.928  0.4775  0.9505 -2.4900
  321MOL0     H44252   9.610   6.372  -0.972 -2.1498  2.4101  0.3800
  321MOL0     H44253   9.649   6.518  -0.883 -0.6643 -1.2665  0.4573
  321MOL0     H44254   9.833   6.460  -1.093 -0.3414 -0.7532 -0.2447
  321MOL0     H44255   9.669   6.516  -1.143  1.4141 -0.7255 -0.5349
  321MOL0     H44256   9.778   6.913  -0.999 -1.1955 -0.9382 -0.3762
  321MOL0     H44257   9.787   7.117  -1.017  0.8811  1.2415 -0.0160
  321MOL0     H44258   9.758   7.180  -1.176 -0.3898  0.6575  0.7346
  321MOL0     H44259   9.919   7.180  -1.123 -0.3735  0.8964 -4.1451
  321MOL0     H44260   9.784   7.371  -1.545 -1.2056  1.1523 -2.4824
  321MOL0     H44261   9.877   7.481  -1.726 -2.8312 -1.0488  1.7174
  321MOL0     H44262  10.241   7.326  -1.903  0.0712 -0.3841 -1.8514
  321MOL0     H44263  10.209   7.469  -2.012 -0.0840 -1.5933 -0.2983
  321MOL0     H44264  10.357   7.596  -1.863  2.2277  0.5109 -0.2164
  321MOL0     H44265  10.368   7.465  -1.753 -3.1325 -1.9473  0.1306
  321MOL0     H44266  10.477   7.442  -2.037  0.2171  0.9106 -0.1912
  321MOL0     H44267  10.475   7.315  -1.917 -0.5577  0.8027  1.6979
  321MOL0     H44268  10.616   7.454  -1.769  0.3333 -0.7161 -0.2902
  321MOL0     H44269  10.622   7.578  -1.911  1.2218  0.4315 -1.2598
  321MOL0     H44270  10.828   7.431  -1.874 -1.0112  1.3188 -0.6211
  321MOL0     H44271  10.729   7.291  -1.914  1.4056  0.6217  1.9983
  321MOL0     H44272  10.736   7.540  -2.100 -1.7785 -0.1390 -0.4346
  321MOL0     H44273  10.691   7.374  -2.143  1.7901 -1.3368 -0.3361
  321MOL0     H44274  10.983   7.460  -2.088  0.0994  0.6551 -1.5045
  321MOL0     H44275  10.905   7.438  -2.241  0.2533 -1.5595 -0.8739
  321MOL0     H44276  10.877   7.195  -2.167  0.3421  0.3283 -1.8789
  321MOL0     H44277  10.950   7.234  -2.007  0.3503 -2.1652 -1.0033
  321MOL0     H44278  10.255   7.277  -1.667 -0.3331  1.1082 -1.2902
  321MOL0     H44279  10.162   7.165  -1.476  0.9688  1.1541  0.3064
  321MOL0     H44280   9.966   6.787  -1.433 -2.9280  1.8649 -1.6155
  321MOL0     H44281   9.890   6.607  -1.287  0.0951  0.5026  1.5626
  321MOL0     H44282  10.637   6.854  -0.328 -0.5035 -2.0018  0.8803
  321MOL0     H44283  10.720   7.089  -0.309  2.6375 -1.0652 -0.1321
  321MOL0     H44284  10.980   7.301  -0.024 -2.7776  0.5827 -2.6077
  321MOL0     H44285  11.152   7.489   0.028  0.2503 -0.8440 -0.0041
  321MOL0     H44286  11.289   7.702   0.172 -2.4307  0.3382  4.2167
  321MOL0     H44287  11.238   7.701   0.001  0.8409  2.8409 -0.9871
  321MOL0     H44288  11.224   7.949   0.164 -1.2261 -0.4981  0.1188
  321MOL0     H44289  11.174   7.932  -0.004  0.1691 -1.6585 -1.4138
  321MOL0     H44290  11.450   7.876   0.112  0.0233 -4.5941 -0.4549
  321MOL0     H44291  11.416   7.847  -0.053  2.6807  3.8128 -1.2145
  321MOL0     H44292  11.548   8.053  -0.039  0.4972  2.5679 -1.4359
  321MOL0     H44293  11.404   8.132   0.037  2.1962  1.6671 -0.5398
  321MOL0     H44294  11.300   8.041  -0.374  4.7474 -2.2192 -1.2079
  321MOL0     H44295  10.827   7.709   0.195  0.8853  1.4745 -0.2023
  321MOL0     H44296  10.598   7.479   0.236  1.7395  0.7490  0.3635
  321MOL0     H44297  10.604   7.645   0.198 -0.8099 -0.0884  1.7470
  321MOL0     H44298  10.557   7.532   0.072  0.6293 -2.6341  0.6432
  322MOL0     O44299   4.098   4.580   0.352  0.0058  0.3689 -0.2295
  322MOL0     C44300   4.109   4.667   0.433  0.1349 -0.6518  0.5500
  322MOL0     O44301   4.166   4.648   0.551 -0.0876 -0.1376  0.4477
  322MOL0     C44302   4.200   4.521   0.588  0.3128  0.2014  0.6504
  322MOL0     C44303   4.333   4.482   0.547  0.3185 -0.1329 -0.2050
  322MOL0     C44304   4.380   4.358   0.586  0.1824  0.5140  0.9972
  322MOL0     C44305   4.302   4.281   0.674  0.0727  0.2355  0.0857
  322MOL0     O44306   4.360   4.166   0.711  0.3606  0.0066  0.0393
  322MOL0     C44307   4.320   4.103   0.831  0.4015 -0.0006 -0.3848
  322MOL0     C44308   4.432   3.996   0.851  0.7178 -0.1877  0.0921
  322MOL0     C44309   4.386   3.853   0.812  0.1166 -0.1495 -0.2237
  322MOL0     C44310   4.494   3.756   0.855 -1.0159  0.2615  0.4497
  322MOL0     C44311   4.584   3.740   0.728  0.4757  0.6948  0.2851
  322MOL0     C44312   4.730   3.687   0.750 -0.0072 -0.5730 -0.4103
  322MOL0     C44313   4.820   3.783   0.838 -0.2888  0.8124 -0.1233
  322MOL0     C44314   4.962   3.771   0.799  0.5382  0.7096 -0.7980
  322MOL0     N44315   5.015   3.641   0.843 -0.0367  0.1193  0.4425
  322MOL0     C44316   5.001   3.518   0.778  0.3021  0.7977  0.3466
  322MOL0     C44317   5.068   3.433   0.867  0.2650  0.3910 -0.2277
  322MOL0     C44318   5.077   3.281   0.841  0.0106  0.5583  0.1864
  322MOL0     C44319   5.201   3.242   0.757 -0.6956 -0.8857  0.2239
  322MOL0     C44320   5.189   3.254   0.603  0.2457  0.0477 -0.0908
  322MOL0     C44321   5.308   3.196   0.538  0.4659 -0.1853 -0.4011
  322MOL0     O44322   5.319   3.059   0.587  1.3218 -0.2792  0.8049
  322MOL0     C44323   5.422   2.984   0.544 -0.3908  0.0705  0.3903
  322MOL0     C44324   5.517   3.020   0.452  0.3291 -0.6462 -0.2037
  322MOL0     C44325   5.623   2.935   0.416 -0.5009 -0.1594 -0.2203
  322MOL0     C44326   5.711   2.985   0.303  0.3573 -0.2472  0.2119
  322MOL0     C44327   5.626   2.803   0.469  0.4531  0.7745 -0.0295
  322MOL0     C44328   5.731   2.701   0.436 -0.5238  0.7073 -1.6046
  322MOL0     O44329   5.813   2.713   0.329  1.0703  0.0187 -0.4672
  322MOL0     C44330   5.921   2.640   0.312 -0.4041 -0.2226  0.6284
  322MOL0     C44331   6.036   2.713   0.282 -0.2235  0.5960  0.4185
  322MOL0     C44332   6.153   2.641   0.248  0.5001 -1.6167 -0.4735
  322MOL0     C44333   6.147   2.496   0.245 -0.4715 -0.7363  0.0866
  322MOL0     O44334   6.262   2.429   0.216  0.2258  0.6767 -0.5164
  322MOL0     C44335   6.338   2.389   0.340  0.5917  0.4327 -1.2258
  322MOL0     C44336   6.481   2.340   0.313 -0.0729  0.2266  0.5220
  322MOL0     C44337   6.577   2.447   0.283 -0.9152 -0.5540 -0.1772
  322MOL0     C44338   6.727   2.400   0.294  0.9698 -0.6213  0.7142
  322MOL0     C44339   6.830   2.517   0.307  0.5762 -0.3055 -0.0996
  322MOL0     C44340   6.947   2.458   0.388  0.8081 -0.7036 -0.0562
  322MOL0     C44341   7.052   2.564   0.422 -0.0049  1.0017  0.1073
  322MOL0     C44342   7.130   2.521   0.551  0.9422 -0.9208  0.2402
  322MOL0    Cl44343   7.252   2.395   0.503  0.1930 -0.4765 -0.0824
  322MOL0     C44344   6.036   2.421   0.295 -0.2424 -0.7559 -0.3587
  322MOL0     C44345   5.924   2.496   0.319  0.0846  0.0781  0.5916
  322MOL0     O44346   5.720   2.594   0.506  0.3107  0.0500  0.4638
  322MOL0     C44347   5.533   2.766   0.572 -0.3302  0.0516 -0.0253
  322MOL0     C44348   5.431   2.856   0.605  0.2359 -0.4566  0.0772
  322MOL0     N44349   5.118   3.508   0.971  0.1153  0.4939  0.4519
  322MOL0     N44350   5.098   3.636   0.951  0.0798  0.2547 -0.3560
  322MOL0     C44351   4.175   4.320   0.713 -0.2825 -0.5150  0.6391
  322MOL0     C44352   4.126   4.441   0.669  0.0249  0.6725  0.0254
  322MOL0     C44353   4.054   4.805   0.411  0.7305 -0.9671  0.2414
  322MOL0     C44354   4.083   4.911   0.508  0.0693 -0.5206 -0.3629
  322MOL0     C44355   4.024   5.042   0.503  0.1884 -0.7594  0.2418
  322MOL0     C44356   3.931   5.070   0.396  0.1570 -0.5706 -0.4506
  322MOL0     O44357   3.883   5.196   0.402  0.6135  0.2028 -0.1768
  322MOL0     C44358   3.819   5.243   0.281 -0.3555  0.0905  0.5308
  322MOL0     C44359   3.798   5.396   0.283  0.1512  0.6667 -0.1770
  322MOL0     C44360   3.677   5.433   0.378  0.3418  0.0913 -0.8283
  322MOL0     C44361   3.530   5.403   0.332  0.4834 -0.0856 -0.6468
  322MOL0     C44362   3.477   5.288   0.400 -0.5759 -0.0890 -0.4190
  322MOL0     C44363   3.420   5.216   0.476 -0.3292  0.1256  0.4307
  322MOL0     C44364   3.900   4.968   0.302 -0.6690  0.3538 -0.1054
  322MOL0     C44365   3.966   4.846   0.305 -0.5777 -1.1830  0.7032
  322MOL0     C44366   3.931   4.765   0.187 -0.1069  1.0093 -0.2433
  322MOL0     H44367   4.390   4.551   0.486 -0.4317  0.7115  0.0224
  322MOL0     H44368   4.475   4.316   0.553 -1.7382 -1.9684 -1.9791
  322MOL0     H44369   4.220   4.061   0.824  0.2832 -0.4303  2.5424
  322MOL0     H44370   4.320   4.177   0.912  0.6579 -1.5394  1.0885
  322MOL0     H44371   4.515   4.033   0.791  2.1207 -1.3003  1.2944
  322MOL0     H44372   4.469   3.998   0.954  3.4919  0.8888 -0.8564
  322MOL0     H44373   4.296   3.819   0.863 -0.6236 -3.0733 -3.1204
  322MOL0     H44374   4.364   3.845   0.705  0.9378 -0.2741 -0.3902
  322MOL0     H44375   4.551   3.801   0.937 -0.1705 -1.2000  0.7023
  322MOL0     H44376   4.459   3.659   0.891  2.9130 -1.0746  1.1635
  322MOL0     H44377   4.589   3.834   0.673 -4.7953  1.1884  0.1526
  322MOL0     H44378   4.547   3.664   0.658 -0.3063 -0.0780  1.5034
  322MOL0     H44379   4.734   3.581   0.778  2.9425 -0.3143  0.4228
  322MOL0     H44380   4.775   3.692   0.651  2.4455  0.6995  0.6939
  322MOL0     H44381   4.814   3.766   0.946  1.3840  0.9471  0.0112
  322MOL0     H44382   4.786   3.884   0.814  1.3597  1.3312 -0.3505
  322MOL0     H44383   4.964   3.777   0.690 -0.9841 -1.0839 -0.9725
  322MOL0     H44384   5.011   3.857   0.844 -3.5309  2.0385  1.5780
  322MOL0     H44385   4.933   3.486   0.699 -0.6505 -1.8259  2.0972
  322MOL0     H44386   4.983   3.245   0.799  0.7186 -2.7835  1.1272
  322MOL0     H44387   5.077   3.242   0.944 -1.6128 -0.4959 -0.1672
  322MOL0     H44388   5.289   3.302   0.781 -3.4932  2.4383  3.3301
  322MOL0     H44389   5.225   3.139   0.785  1.5521 -0.6961 -0.7483
  322MOL0     H44390   5.104   3.186   0.589  2.6988 -3.3648  0.2104
  322MOL0     H44391   5.173   3.356   0.567 -0.6285 -0.5374 -1.4628
  322MOL0     H44392   5.309   3.206   0.429  0.6867 -2.0460 -0.5958
  322MOL0     H44393   5.394   3.248   0.580 -0.8820  3.0936 -1.3815
  322MOL0     H44394   5.511   3.124   0.421 -0.7652 -0.5759  0.1953
  322MOL0     H44395   5.690   3.090   0.283  0.2818  0.1550  2.2108
  322MOL0     H44396   5.681   2.943   0.206  0.8374  0.9493 -0.4701
  322MOL0     H44397   5.817   2.968   0.323  0.1631 -0.5258  1.0299
  322MOL0     H44398   6.026   2.819   0.266 -1.1094  0.9228  2.8822
  322MOL0     H44399   6.242   2.693   0.212  0.8307 -2.2338 -0.5677
  322MOL0     H44400   6.345   2.478   0.403  0.1935 -1.2025  1.2976
  322MOL0     H44401   6.282   2.311   0.392 -0.5643  0.3190 -2.5658
  322MOL0     H44402   6.505   2.286   0.404 -0.5140 -0.2086  0.3848
  322MOL0     H44403   6.475   2.272   0.228  2.1134  2.2154 -1.3872
  322MOL0     H44404   6.560   2.531   0.350 -0.4236 -0.1301 -0.5797
  322MOL0     H44405   6.551   2.490   0.186 -2.2374  0.5309  0.6299
  322MOL0     H44406   6.737   2.339   0.204  0.6235 -0.7246  0.7435
  322MOL0     H44407   6.724   2.332   0.379 -1.7895 -2.2637 -0.5799
  322MOL0     H44408   6.868   2.559   0.214 -1.9049 -0.5623 -1.2920
  322MOL0     H44409   6.781   2.602   0.355  0.5856 -0.3448 -0.0195
  322MOL0     H44410   6.998   2.381   0.330  2.1712 -0.9322  1.3987
  322MOL0     H44411   6.913   2.412   0.481  1.2935 -0.1013  0.4231
  322MOL0     H44412   7.008   2.660   0.449 -1.1124  0.3100  0.8938
  322MOL0     H44413   7.120   2.580   0.338  0.6739  0.0526  0.4541
  322MOL0     H44414   7.063   2.477   0.626 -0.4845 -0.8466 -0.9582
  322MOL0     H44415   7.172   2.610   0.598 -1.7334  1.6595 -1.8184
  322MOL0     H44416   6.049   2.315   0.312  0.6940 -0.4983  0.7002
  322MOL0     H44417   5.838   2.431   0.326 -0.6566  0.8826 -0.7579
  322MOL0     H44418   5.539   2.667   0.615  0.1175 -0.7006 -1.7226
  322MOL0     H44419   5.353   2.837   0.677  1.3050 -1.7487  0.9349
  322MOL0     H44420   4.110   4.275   0.787 -1.9537 -0.9721 -1.0272
  322MOL0     H44421   4.030   4.484   0.696  0.1314  1.2077 -0.4253
  322MOL0     H44422   4.139   4.891   0.599 -1.2618  0.9549  0.8484
  322MOL0     H44423   4.050   5.122   0.571  0.0213 -1.2527  0.8931
  322MOL0     H44424   3.872   5.219   0.189 -2.8172  3.4340 -1.9563
  322MOL0     H44425   3.723   5.190   0.282  0.3800 -1.2824  0.8619
  322MOL0     H44426   3.790   5.447   0.187  2.6087 -2.6173 -2.3548
  322MOL0     H44427   3.882   5.443   0.335  1.2147 -0.4383 -0.8491
  322MOL0     H44428   3.689   5.378   0.472 -1.9206 -0.6343 -0.9042
  322MOL0     H44429   3.679   5.541   0.391 -2.6859  0.2723 -1.1834
  322MOL0     H44430   3.526   5.397   0.223  0.4637 -0.0837 -0.6463
  322MOL0     H44431   3.463   5.485   0.361  0.9076 -0.3797  1.3360
  322MOL0     H44432   3.364   5.157   0.546  0.8466 -1.1353  0.3645
  322MOL0     H44433   3.826   4.994   0.226  0.5531  2.2977 -0.7227
  322MOL0     H44434   3.861   4.819   0.122 -0.1745  3.2468  1.5868
  322MOL0     H44435   4.009   4.729   0.120 -1.0098  0.4122 -1.0040
  322MOL0     H44436   3.890   4.672   0.227 -1.6742  1.9480  0.4257
  323MOL0     O44437   9.207  10.297   6.624 -0.2318 -0.8841 -0.2431
  323MOL0     C44438   9.163  10.413   6.650 -0.0786  0.7954  0.3288
  323MOL0     O44439   9.251  10.522   6.663  0.4737 -0.0452  0.0793
  323MOL0     C44440   9.382  10.493   6.698  0.2748  0.2988 -0.5761
  323MOL0     C44441   9.429  10.406   6.797  0.6426 -0.3909  0.0293
  323MOL0     C44442   9.563  10.395   6.827 -0.2324  0.0874  0.2848
  323MOL0     C44443   9.653  10.492   6.777 -0.1628  0.7912  0.2246
  323MOL0     O44444   9.786  10.488   6.797  0.2879 -0.7743 -0.6379
  323MOL0     C44445   9.839  10.363   6.838  0.4251  0.9269 -0.7426
  323MOL0     C44446   9.990  10.338   6.817 -0.6913  0.3682  0.5270
  323MOL0     C44447  10.064  10.456   6.886  0.3453  0.3909  0.7038
  323MOL0     C44448  10.219  10.441   6.872 -0.0775  0.2820  1.0517
  323MOL0     C44449  10.288  10.536   6.974  0.5642 -0.5511 -0.1343
  323MOL0     C44450  10.442  10.547   6.954 -0.3061 -0.2872  0.2252
  323MOL0     C44451  10.508  10.416   6.999  0.2678 -0.5423 -0.8432
  323MOL0     C44452  10.642  10.385   6.925 -0.5876  0.6091  0.3338
  323MOL0     N44453  10.744  10.493   6.928  0.1273 -0.6130 -0.2578
  323MOL0     C44454  10.798  10.557   7.039 -0.3566 -0.0050 -0.1353
  323MOL0     C44455  10.885  10.652   6.993  0.3072  1.2346 -0.3612
  323MOL0     C44456  10.967  10.743   7.070  0.1468 -0.1126  0.2613
  323MOL0     C44457  11.085  10.662   7.118 -0.2904  0.0452 -0.2877
  323MOL0     C44458  11.135  10.752   7.224  0.5338 -0.8646  0.5136
  323MOL0     C44459  11.268  10.696   7.276  0.4290 -0.3640  0.4841
  323MOL0     O44460  11.364  10.713   7.165 -0.5396  0.3981 -0.8863
  323MOL0     C44461  11.492  10.683   7.198  0.0319  0.0056  0.8671
  323MOL0     C44462  11.551  10.655   7.316 -0.5164  2.0333 -0.7408
  323MOL0     C44463  11.684  10.623   7.320  0.9549  0.7043 -0.0464
  323MOL0     C44464  11.744  10.578   7.454  0.7129 -0.1158 -0.3337
  323MOL0     C44465  11.771  10.646   7.214  0.0579  0.7425  0.0699
  323MOL0     C44466  11.923  10.620   7.213  0.4082  0.2803 -0.1297
  323MOL0     O44467  11.990  10.667   7.323 -0.4095 -0.1264 -0.2873
  323MOL0     C44468  12.125  10.641   7.336  0.5898 -0.1176  0.1644
  323MOL0     C44469  12.177  10.510   7.341  0.0429  0.1283  0.4947
  323MOL0     C44470  12.312  10.484   7.345  0.2095  0.1835  0.4470
  323MOL0     C44471  12.404  10.595   7.345  0.2421 -0.2736  0.0241
  323MOL0     O44472  12.537  10.562   7.345 -0.0865  0.0662  0.3683
  323MOL0     C44473  12.644  10.659   7.356  0.2165  0.3268 -0.1936
  323MOL0     C44474  12.781  10.603   7.308  0.1082 -0.6595  0.2855
  323MOL0     C44475  12.886  10.708   7.344  0.5437 -0.0447 -0.8159
  323MOL0     C44476  12.901  10.835   7.253  0.4855  0.6047 -0.1087
  323MOL0     C44477  12.913  10.968   7.325 -0.7881 -0.0295  0.4393
  323MOL0     C44478  12.976  11.073   7.236  0.0991 -0.3378 -0.9449
  323MOL0     C44479  12.872  11.114   7.135  0.3993 -0.1969 -0.5057
  323MOL0     C44480  12.941  11.222   7.061  0.7180 -0.5131 -0.3427
  323MOL0    Cl44481  13.055  11.166   6.935  0.4175  0.5735 -0.1593
  323MOL0     C44482  12.347  10.729   7.352 -0.0518  0.3139  0.4905
  323MOL0     C44483  12.209  10.745   7.341 -0.4532 -0.1828 -0.2736
  323MOL0     O44484  11.971  10.583   7.108  0.5521 -0.0591 -0.1274
  323MOL0     C44485  11.704  10.686   7.091 -0.4886 -0.0952 -0.1145
  323MOL0     C44486  11.570  10.705   7.086 -1.0422 -0.0622 -0.1222
  323MOL0     N44487  10.894  10.632   6.854 -0.2480 -0.2905  0.0684
  323MOL0     N44488  10.808  10.549   6.820  0.8223  0.0016  0.0269
  323MOL0     C44489   9.598  10.593   6.702 -0.1196 -0.0955  1.4614
  323MOL0     C44490   9.465  10.593   6.657  0.0625 -0.7960 -0.3913
  323MOL0     C44491   9.020  10.426   6.606 -1.3888  0.2775  0.3143
  323MOL0     C44492   8.945  10.306   6.600  0.9802  0.3799  0.0280
  323MOL0     C44493   8.802  10.308   6.571 -0.5159 -0.3899  0.0279
  323MOL0     C44494   8.756  10.429   6.521  0.3981 -0.1710 -0.1938
  323MOL0     O44495   8.637  10.443   6.461 -0.4293 -0.0287 -0.3697
  323MOL0     C44496   8.542  10.340   6.470 -0.7440 -0.2126  0.2392
  323MOL0     C44497   8.467  10.346   6.608 -0.1097 -0.2045  0.0141
  323MOL0     C44498   8.390  10.475   6.633  0.9905 -1.1960  0.1832
  323MOL0     C44499   8.330  10.479   6.774  0.1408  0.3752  0.2672
  323MOL0     C44500   8.224  10.381   6.793 -0.1285 -0.8742  0.4049
  323MOL0     C44501   8.137  10.302   6.814  0.6634 -1.0159 -0.0074
  323MOL0     C44502   8.829  10.547   6.531  0.4349  1.5121  0.3143
  323MOL0     C44503   8.954  10.550   6.582  0.8740  0.1305 -0.1347
  323MOL0     C44504   9.014  10.693   6.588 -0.5996  1.3168 -0.5125
  323MOL0     H44505   9.376  10.328   6.851  2.1887 -2.7530 -1.6602
  323MOL0     H44506   9.601  10.314   6.889 -3.1698 -0.8526  1.0311
  323MOL0     H44507   9.799  10.281   6.777 -1.2268  0.4891  0.8342
  323MOL0     H44508   9.807  10.344   6.942 -0.6076  0.0027 -1.1993
  323MOL0     H44509  10.020  10.242   6.861  2.8543 -0.6607 -3.4911
  323MOL0     H44510  10.013  10.337   6.710  0.3305  1.8751  0.6930
  323MOL0     H44511  10.042  10.553   6.840 -1.0346 -0.2248 -0.0008
  323MOL0     H44512  10.033  10.465   6.991  1.8033  0.5416  1.1336
  323MOL0     H44513  10.239  10.334   6.876  0.7878  0.2127 -2.2719
  323MOL0     H44514  10.242  10.481   6.773 -1.2759 -2.0872 -0.2726
  323MOL0     H44515  10.274  10.512   7.080 -1.7339  2.5134  0.4156
  323MOL0     H44516  10.239  10.633   6.965  0.8717 -0.4362 -0.6293
  323MOL0     H44517  10.476  10.557   6.850 -1.8778 -2.8326 -0.6162
  323MOL0     H44518  10.477  10.637   7.006  0.1336 -0.6479  0.5620
  323MOL0     H44519  10.441  10.330   6.989 -1.3966  0.8068 -2.0637
  323MOL0     H44520  10.533  10.431   7.105 -0.6063  1.8267 -0.9063
  323MOL0     H44521  10.680  10.288   6.959  1.1633  1.0954 -0.1516
  323MOL0     H44522  10.632  10.375   6.816  0.4781  1.4605  0.1424
  323MOL0     H44523  10.790  10.529   7.144 -1.0176 -1.7063 -0.5997
  323MOL0     H44524  10.909  10.789   7.150 -1.3078 -0.2774 -0.6593
  323MOL0     H44525  10.991  10.813   6.989 -0.7682 -1.3264 -1.1220
  323MOL0     H44526  11.058  10.564   7.159 -2.0470  0.8511  0.5962
  323MOL0     H44527  11.156  10.655   7.035 -2.8122 -0.7818 -2.5345
  323MOL0     H44528  11.158  10.850   7.183  0.1976 -1.6809 -1.7572
  323MOL0     H44529  11.070  10.762   7.311 -0.1271 -0.8771  0.0242
  323MOL0     H44530  11.298  10.749   7.367 -2.1489 -0.3912  1.4503
  323MOL0     H44531  11.256  10.588   7.286 -2.6058 -0.9302 -5.0491
  323MOL0     H44532  11.499  10.646   7.410  2.3520 -0.3141  0.8020
  323MOL0     H44533  11.669  10.578   7.533  1.0016  0.2568 -0.0538
  323MOL0     H44534  11.823  10.649   7.483  0.6597 -0.2173  0.0670
  323MOL0     H44535  11.788  10.477   7.457  2.9239  0.7862  2.2120
  323MOL0     H44536  12.107  10.428   7.327  1.1299 -0.4915 -1.9427
  323MOL0     H44537  12.344  10.381   7.354 -0.2765  0.0495  0.7290
  323MOL0     H44538  12.613  10.749   7.303  0.2998  0.5885  0.1992
  323MOL0     H44539  12.652  10.692   7.460  0.3348 -1.6708  0.4776
  323MOL0     H44540  12.805  10.508   7.359  0.3898 -1.6999 -1.6928
  323MOL0     H44541  12.781  10.571   7.204 -0.1082 -0.5480  0.2529
  323MOL0     H44542  12.984  10.658   7.350  1.4336  1.1709 -3.6935
  323MOL0     H44543  12.873  10.744   7.447 -0.5371  0.4957 -1.1282
  323MOL0     H44544  12.813  10.840   7.188  0.8023  1.0429 -0.5171
  323MOL0     H44545  12.992  10.812   7.197  1.9524  2.8686  1.1782
  323MOL0     H44546  12.816  10.997   7.366 -1.5390 -1.9624  0.0892
  323MOL0     H44547  12.969  10.954   7.419 -0.5944  0.2705  0.3712
  323MOL0     H44548  13.059  11.028   7.181 -0.4304 -0.6140 -1.5212
  323MOL0     H44549  13.000  11.165   7.290 -0.4283  0.6442 -2.3138
  323MOL0     H44550  12.778  11.146   7.180  0.9980 -0.9796  1.4095
  323MOL0     H44551  12.851  11.026   7.073 -1.2569  0.7802 -1.3923
  323MOL0     H44552  12.977  11.301   7.127  0.0354 -0.3538 -0.1516
  323MOL0     H44553  12.856  11.271   7.012  0.9284  0.7648  0.5368
  323MOL0     H44554  12.411  10.815   7.365  1.9108 -0.7332 -1.4233
  323MOL0     H44555  12.177  10.849   7.332  1.9093  0.4757 -1.8398
  323MOL0     H44556  11.760  10.701   6.999 -1.5780  0.3465 -0.7242
  323MOL0     H44557  11.532  10.732   6.987  2.0981  4.4887 -0.3799
  323MOL0     H44558   9.655  10.684   6.692  3.6872 -2.4298 -0.5706
  323MOL0     H44559   9.418  10.680   6.611 -2.1657 -0.0698  2.9217
  323MOL0     H44560   8.979  10.206   6.627 -1.5491 -0.3874  0.6663
  323MOL0     H44561   8.756  10.210   6.566 -2.0396  0.2866  0.2058
  323MOL0     H44562   8.476  10.366   6.386 -2.1088  1.9535  1.8612
  323MOL0     H44563   8.579  10.239   6.451 -2.8575 -0.8923 -0.6710
  323MOL0     H44564   8.545  10.334   6.683  1.5095 -1.9727 -1.8349
  323MOL0     H44565   8.401  10.258   6.602 -0.7140  0.2854 -0.6827
  323MOL0     H44566   8.468  10.552   6.623 -1.4879  1.4143 -0.3529
  323MOL0     H44567   8.311  10.497   6.560  0.2909 -1.9843  0.6915
  323MOL0     H44568   8.286  10.576   6.797 -0.5658 -0.4096  2.4101
  323MOL0     H44569   8.409  10.460   6.847  0.9888 -1.6294 -1.0548
  323MOL0     H44570   8.058  10.237   6.845  2.1902 -1.6419  2.9420
  323MOL0     H44571   8.782  10.640   6.502  0.4234  2.0972  2.1192
  323MOL0     H44572   8.998  10.743   6.492  3.9531  2.3070 -1.0005
  323MOL0     H44573   8.963  10.743   6.671 -0.7221 -1.2729  1.0841
  323MOL0     H44574   9.121  10.705   6.607 -0.4023 -2.2301  1.3697
  324MOL0     O44575  10.727   2.948   4.952 -0.3367  0.2031  0.1240
  324MOL0     C44576  10.672   2.896   5.055 -0.3096  0.0553  0.5881
  324MOL0     O44577  10.729   2.859   5.169  0.1306  1.1535 -0.0675
  324MOL0     C44578  10.872   2.870   5.182  0.1756 -0.3665 -0.4247
  324MOL0     C44579  10.937   2.994   5.170 -0.0980  0.3363 -0.6558
  324MOL0     C44580  11.079   2.997   5.170 -0.7775  0.1232 -0.1199
  324MOL0     C44581  11.155   2.878   5.193 -0.2250  0.1238  0.7002
  324MOL0     O44582  11.291   2.885   5.201  0.1239 -0.0878 -0.5336
  324MOL0     C44583  11.356   2.768   5.157 -0.1122 -1.0163 -0.0594
  324MOL0     C44584  11.501   2.798   5.143  0.4671  0.2189  0.1554
  324MOL0     C44585  11.563   2.867   5.264 -1.1827  1.0671  0.1099
  324MOL0     C44586  11.718   2.866   5.259 -0.2527  0.2723 -0.3090
  324MOL0     C44587  11.776   2.883   5.400 -0.5839 -0.5099  0.7614
  324MOL0     C44588  11.921   2.862   5.400  0.2026 -0.4769 -0.1798
  324MOL0     C44589  11.978   2.886   5.540  0.2920 -0.1813 -0.0317
  324MOL0     C44590  12.134   2.910   5.524  0.8295  0.3337  0.2377
  324MOL0     N44591  12.197   2.950   5.650 -0.3293 -0.3666  0.0384
  324MOL0     C44592  12.168   3.059   5.737 -1.1080 -0.5755  0.5257
  324MOL0     C44593  12.276   3.067   5.826 -0.2947 -0.0757 -0.3967
  324MOL0     C44594  12.277   3.156   5.941 -0.7040  0.7110  0.8436
  324MOL0     C44595  12.400   3.245   5.943 -0.3863 -0.4207 -0.1391
  324MOL0     C44596  12.533   3.167   5.948 -0.2629  0.2222 -0.1307
  324MOL0     C44597  12.646   3.249   6.011 -0.0004  0.9141  0.0744
  324MOL0     O44598  12.615   3.352   6.102  0.2629 -0.0612  0.3369
  324MOL0     C44599  12.706   3.374   6.206  1.1748  0.0792  0.1221
  324MOL0     C44600  12.756   3.502   6.226 -0.1324  1.0841 -0.4543
  324MOL0     C44601  12.847   3.524   6.335 -0.7940 -0.2933 -0.3947
  324MOL0     C44602  12.900   3.669   6.343  0.0630  0.9320  0.2220
  324MOL0     C44603  12.877   3.424   6.432 -0.0852 -0.2663 -0.6738
  324MOL0     C44604  12.969   3.427   6.552  0.2274  0.3716 -0.0846
  324MOL0     O44605  13.000   3.312   6.615  0.1342 -1.0126  0.6924
  324MOL0     C44606  13.068   3.320   6.735 -0.1119 -0.7831  0.4784
  324MOL0     C44607  12.995   3.315   6.860 -0.4278 -0.5578  0.4422
  324MOL0     C44608  13.066   3.325   6.982 -0.1191 -0.3826  0.2392
  324MOL0     C44609  13.209   3.350   6.985 -0.3216 -1.4486  0.0833
  324MOL0     O44610  13.272   3.379   7.101 -0.4609  0.9103 -0.5850
  324MOL0     C44611  13.206   3.351   7.227 -0.3115 -0.1514 -0.4460
  324MOL0     C44612  13.291   3.386   7.349 -0.5810 -0.8190 -1.4429
  324MOL0     C44613  13.198   3.366   7.468  1.1309 -0.2708 -0.0115
  324MOL0     C44614  13.261   3.375   7.593  0.0759  0.1463 -0.7422
  324MOL0     C44615  13.189   3.288   7.695  0.2426 -0.0149  0.1492
  324MOL0     C44616  13.251   3.305   7.833  0.8569  0.6856 -0.5896
  324MOL0     C44617  13.196   3.205   7.938 -0.5321 -0.3493  0.0498
  324MOL0     C44618  13.283   3.206   8.059 -0.3051 -0.0811  0.7910
  324MOL0    Cl44619  13.380   3.062   8.059  0.2196 -0.0460  0.2288
  324MOL0     C44620  13.281   3.352   6.866  0.6215  0.9764  0.0105
  324MOL0     C44621  13.211   3.329   6.742  0.3228  0.1418  0.5172
  324MOL0     O44622  13.016   3.540   6.580 -0.5628 -0.4766  0.2273
  324MOL0     C44623  12.814   3.298   6.403  0.0983  0.5530  0.1136
  324MOL0     C44624  12.733   3.272   6.301 -0.3072  0.5308  0.4362
  324MOL0     N44625  12.365   2.972   5.784 -0.4749 -0.1095 -0.9139
  324MOL0     N44626  12.325   2.914   5.681  0.1690 -0.4144  0.0706
  324MOL0     C44627  11.086   2.759   5.207 -0.2094  0.0991 -0.0745
  324MOL0     C44628  10.949   2.754   5.190 -0.6403  0.9812 -0.6296
  324MOL0     C44629  10.521   2.898   5.061 -0.4895  0.0013  0.5110
  324MOL0     C44630  10.448   3.008   5.017 -0.0901  0.0901 -0.5290
  324MOL0     C44631  10.312   3.024   5.028  0.7428  0.4257 -0.7138
  324MOL0     C44632  10.237   2.929   5.094 -0.0219  1.3292  0.8599
  324MOL0     O44633  10.101   2.945   5.128 -0.2841 -0.2820  0.4782
  324MOL0     C44634  10.031   3.075   5.122  0.1344 -0.5888 -0.4768
  324MOL0     C44635   9.890   3.072   5.144 -0.5723 -0.3613  0.0336
  324MOL0     C44636   9.815   3.012   5.031  0.5571 -0.0465  0.0780
  324MOL0     C44637   9.692   2.952   5.099 -0.1029  0.1978  0.3263
  324MOL0     C44638   9.580   2.908   5.010  0.5645 -0.4322  0.1279
  324MOL0     C44639   9.487   2.865   4.936 -0.6607  0.0750 -0.7641
  324MOL0     C44640  10.303   2.808   5.134  0.2381  0.0807  0.8516
  324MOL0     C44641  10.448   2.788   5.126  0.6283 -0.2961  1.2645
  324MOL0     C44642  10.510   2.663   5.185 -0.6144 -0.6403  0.5836
  324MOL0     H44643  10.887   3.090   5.174 -0.9245 -0.0760 -0.9559
  324MOL0     H44644  11.134   3.090   5.169  0.9030 -0.7911  1.5778
  324MOL0     H44645  11.338   2.726   5.058  0.4422  1.6543 -1.3611
  324MOL0     H44646  11.338   2.693   5.236 -4.1566 -0.6765 -0.4612
  324MOL0     H44647  11.559   2.708   5.126 -1.4045 -1.1508  0.6688
  324MOL0     H44648  11.520   2.858   5.054 -3.2047  1.3878 -0.0104
  324MOL0     H44649  11.532   2.972   5.269 -0.1436  1.3831  0.0366
  324MOL0     H44650  11.533   2.818   5.357  0.2830  0.1648  0.1425
  324MOL0     H44651  11.761   2.773   5.221 -0.9715 -1.1182  2.0199
  324MOL0     H44652  11.757   2.944   5.194 -0.6739 -0.0052 -0.9024
  324MOL0     H44653  11.727   2.804   5.458 -1.0506 -0.9450 -0.1790
  324MOL0     H44654  11.738   2.979   5.435 -1.2837 -0.7912  0.7866
  324MOL0     H44655  11.944   2.760   5.367  4.4305  0.3050 -0.1991
  324MOL0     H44656  11.957   2.946   5.339  1.5776 -0.6853  0.3070
  324MOL0     H44657  11.945   2.810   5.612  0.0107  0.0999  0.1392
  324MOL0     H44658  11.935   2.979   5.578  0.3942 -0.9050  1.9381
  324MOL0     H44659  12.173   2.813   5.492 -1.6643 -1.1074  1.2900
  324MOL0     H44660  12.147   2.983   5.443 -0.8806 -0.9580 -1.3144
  324MOL0     H44661  12.082   3.125   5.746 -0.3341  0.2215  2.5954
  324MOL0     H44662  12.282   3.093   6.030  1.1259 -0.9507 -0.3520
  324MOL0     H44663  12.189   3.220   5.931 -0.2849  1.2129  0.2201
  324MOL0     H44664  12.402   3.312   5.857  1.3379 -1.6534 -1.1190
  324MOL0     H44665  12.385   3.293   6.040 -3.8652 -3.9837  1.3512
  324MOL0     H44666  12.524   3.069   5.995 -1.8977 -0.1316 -1.0929
  324MOL0     H44667  12.563   3.145   5.845  2.1667 -0.5352  0.6712
  324MOL0     H44668  12.722   3.178   6.043 -0.4319  0.0785 -0.6852
  324MOL0     H44669  12.684   3.291   5.918 -1.4888 -1.2411 -1.6222
  324MOL0     H44670  12.731   3.580   6.154  0.5171 -1.8765 -4.2237
  324MOL0     H44671  13.009   3.658   6.340 -0.1394 -1.2853 -1.0658
  324MOL0     H44672  12.853   3.713   6.431 -0.6889  0.9690 -0.1917
  324MOL0     H44673  12.863   3.724   6.256 -1.1211 -0.8199 -0.4291
  324MOL0     H44674  12.890   3.305   6.837 -0.2423  1.2957 -1.5314
  324MOL0     H44675  13.006   3.306   7.071 -0.7297 -0.3465 -0.1573
  324MOL0     H44676  13.113   3.409   7.230  1.1212  2.3635 -1.2497
  324MOL0     H44677  13.184   3.244   7.235  1.0230 -0.3517  0.8838
  324MOL0     H44678  13.374   3.315   7.351 -0.5383 -0.8868 -3.6032
  324MOL0     H44679  13.318   3.491   7.343 -1.6894 -0.5103 -1.2911
  324MOL0     H44680  13.172   3.260   7.465  2.3049 -0.5995  0.8614
  324MOL0     H44681  13.107   3.428   7.468  1.2290  0.0021  2.9423
  324MOL0     H44682  13.264   3.482   7.612  1.4649  0.1018 -0.5693
  324MOL0     H44683  13.365   3.341   7.587  0.7839  1.6461  1.6072
  324MOL0     H44684  13.083   3.314   7.697  0.2711  0.1512 -0.4105
  324MOL0     H44685  13.189   3.182   7.666 -1.3252  0.5392 -2.2293
  324MOL0     H44686  13.232   3.409   7.862 -2.7751  0.3202 -1.1093
  324MOL0     H44687  13.358   3.284   7.826  0.6532 -1.5046  1.3981
  324MOL0     H44688  13.203   3.104   7.896  2.1108 -0.3058  0.2420
  324MOL0     H44689  13.091   3.225   7.961 -0.6390 -0.0029 -0.7225
  324MOL0     H44690  13.221   3.215   8.149 -1.9077  2.3908 -0.4606
  324MOL0     H44691  13.351   3.292   8.060 -1.6351  1.0109  0.3199
  324MOL0     H44692  13.389   3.369   6.868  0.8641 -0.4947  1.0483
  324MOL0     H44693  13.259   3.335   6.645 -1.2485 -1.4926 -0.4148
  324MOL0     H44694  12.836   3.226   6.481  0.1583 -1.5955 -1.7649
  324MOL0     H44695  12.688   3.174   6.291 -1.0576  0.7786  1.2401
  324MOL0     H44696  11.127   2.662   5.230 -1.2699 -0.1107  1.0017
  324MOL0     H44697  10.892   2.662   5.199  0.6148  0.3590  1.6819
  324MOL0     H44698  10.513   3.079   4.966  0.0863  0.6835  0.4890
  324MOL0     H44699  10.265   3.121   5.017 -1.3650 -0.5464 -0.7893
  324MOL0     H44700  10.080   3.144   5.191  1.3596  0.1627 -2.0353
  324MOL0     H44701  10.055   3.126   5.028 -0.7195 -4.0891 -2.8217
  324MOL0     H44702   9.856   3.174   5.163  1.3287  0.3209 -0.0766
  324MOL0     H44703   9.878   3.012   5.236 -1.3451  0.1672  0.2872
  324MOL0     H44704   9.788   3.089   4.959  0.3415  0.2179  0.4362
  324MOL0     H44705   9.886   2.943   4.984 -1.2769 -1.6289 -0.5101
  324MOL0     H44706   9.648   3.021   5.172  3.1929 -0.5128  3.2548
  324MOL0     H44707   9.732   2.868   5.157  0.3123 -0.3507 -0.7397
  324MOL0     H44708   9.404   2.833   4.877 -1.9172  1.8499 -0.0537
  324MOL0     H44709  10.246   2.742   5.198 -0.3269  1.1228  1.4700
  324MOL0     H44710  10.446   2.582   5.148 -1.6409  0.3720  0.0561
  324MOL0     H44711  10.610   2.631   5.156 -0.1911  0.3476  0.9073
  324MOL0     H44712  10.502   2.676   5.293 -0.9078 -2.3600  0.7951
  325MOL0     O44713   9.415   7.064   4.844 -0.7778  0.3351  0.2696
  325MOL0     C44714   9.402   6.940   4.873 -0.6123 -0.1267 -0.7545
  325MOL0     O44715   9.506   6.846   4.890  0.7210 -0.2548 -0.9291
  325MOL0     C44716   9.635   6.885   4.858  0.1169 -0.4132 -0.8897
  325MOL0     C44717   9.732   6.872   4.958 -0.4869 -0.3531  0.2724
  325MOL0     C44718   9.856   6.911   4.922  0.2701 -0.0802  0.2149
  325MOL0     C44719   9.896   6.944   4.789  0.5073  0.5073  0.2040
  325MOL0     O44720  10.024   6.967   4.746 -0.0265  0.0555  0.2351
  325MOL0     C44721  10.136   6.888   4.785 -0.5023 -1.2163 -0.2497
  325MOL0     C44722  10.259   6.978   4.806  0.4395  0.0577  0.2988
  325MOL0     C44723  10.392   6.899   4.767 -0.2151 -0.1923  0.1641
  325MOL0     C44724  10.518   6.993   4.776  1.4230 -1.3121 -0.5300
  325MOL0     C44725  10.645   6.924   4.754 -0.8014  0.3672  0.9387
  325MOL0     C44726  10.765   7.008   4.733  0.3540  0.3750  0.1464
  325MOL0     C44727  10.897   6.937   4.699  0.4699 -0.5416 -0.1951
  325MOL0     C44728  11.023   7.035   4.689  0.0250  0.7371 -0.5833
  325MOL0     N44729  11.146   6.950   4.678  0.4763  0.4757 -0.1608
  325MOL0     C44730  11.183   6.871   4.574  0.4996 -0.1917  0.0549
  325MOL0     C44731  11.308   6.833   4.592 -0.8312 -1.2020  0.3878
  325MOL0     C44732  11.387   6.749   4.493  0.2898  0.0378  0.1547
  325MOL0     C44733  11.532   6.781   4.510  0.2458  0.1381  0.3989
  325MOL0     C44734  11.619   6.712   4.408 -0.0898  0.1365  0.0778
  325MOL0     C44735  11.600   6.559   4.412  0.0353 -0.1303 -0.7422
  325MOL0     O44736  11.646   6.514   4.540 -0.2894 -0.4957 -0.3029
  325MOL0     C44737  11.758   6.435   4.532 -0.1813 -0.6856 -0.1469
  325MOL0     C44738  11.741   6.307   4.571 -0.1837  0.0422  0.6306
  325MOL0     C44739  11.843   6.217   4.552  0.5479  0.5992 -0.2064
  325MOL0     C44740  11.804   6.069   4.579 -0.4788 -0.5402  0.6408
  325MOL0     C44741  11.970   6.255   4.509 -0.3421 -0.3502 -0.2303
  325MOL0     C44742  12.091   6.163   4.509  0.0845 -0.0785 -0.2053
  325MOL0     O44743  12.072   6.035   4.519 -0.0315 -0.8059 -0.3417
  325MOL0     C44744  12.180   5.954   4.539  0.1685  0.2315  0.0232
  325MOL0     C44745  12.206   5.912   4.669 -0.3881 -0.3020  0.5753
  325MOL0     C44746  12.308   5.821   4.706  1.2692 -0.4116 -0.1884
  325MOL0     C44747  12.407   5.777   4.611 -0.3905 -1.3590 -0.4868
  325MOL0     O44748  12.522   5.703   4.636 -0.1654 -0.1911 -0.0850
  325MOL0     C44749  12.587   5.707   4.754  0.0432  0.1888 -0.0879
  325MOL0     C44750  12.660   5.847   4.761 -0.0997  0.6221 -0.0667
  325MOL0     C44751  12.734   5.877   4.887 -0.6391 -0.3449 -0.2914
  325MOL0     C44752  12.883   5.901   4.856  0.4848 -0.2111  0.2995
  325MOL0     C44753  12.957   5.932   4.987 -0.0764  1.3708  0.0467
  325MOL0     C44754  13.088   5.990   4.974  0.2740  0.8954 -0.4614
  325MOL0     C44755  13.143   6.027   5.113 -0.7473  0.7589  0.1667
  325MOL0     C44756  13.292   6.064   5.119 -0.2276 -0.8682  0.4173
  325MOL0    Cl44757  13.395   5.916   5.105 -0.1915 -0.1099  0.2988
  325MOL0     C44758  12.385   5.834   4.485 -0.5614 -0.6691 -1.1102
  325MOL0     C44759  12.273   5.916   4.446 -0.1920 -0.2314  0.5380
  325MOL0     O44760  12.200   6.212   4.473  0.1741  0.1461  0.2317
  325MOL0     C44761  11.982   6.391   4.474 -0.0296 -0.2862 -0.9086
  325MOL0     C44762  11.882   6.482   4.496 -0.0764 -0.7509  0.1867
  325MOL0     N44763  11.348   6.876   4.718  0.7133 -0.2802  0.3785
  325MOL0     N44764  11.246   6.950   4.768  0.9235  0.2676 -0.8855
  325MOL0     C44765   9.801   6.948   4.687 -0.0178  0.7404  0.3400
  325MOL0     C44766   9.668   6.919   4.722 -0.4034  0.7670 -0.1750
  325MOL0     C44767   9.267   6.886   4.870 -0.1434  0.1527 -0.2388
  325MOL0     C44768   9.258   6.757   4.817  0.3875 -0.1521 -0.2081
  325MOL0     C44769   9.139   6.703   4.791  0.2477  0.2027 -0.0789
  325MOL0     C44770   9.014   6.765   4.824 -0.2835  0.5059  0.0619
  325MOL0     O44771   8.901   6.701   4.785  0.5085 -0.0226  0.0378
  325MOL0     C44772   8.802   6.787   4.724  0.5562 -0.5089 -0.8862
  325MOL0     C44773   8.824   6.771   4.579 -0.0172  0.0581  0.1201
  325MOL0     C44774   8.817   6.623   4.529  0.1736  0.2647  0.1784
  325MOL0     C44775   8.753   6.590   4.390  0.2081 -0.2130 -1.0640
  325MOL0     C44776   8.862   6.641   4.305  0.2321 -0.0678  0.3513
  325MOL0     C44777   8.953   6.686   4.229  0.5992  0.9739  0.1576
  325MOL0     C44778   9.024   6.889   4.892 -0.4303  0.1177  0.0989
  325MOL0     C44779   9.149   6.953   4.905  0.2636  0.4178  1.0457
  325MOL0     C44780   9.138   7.099   4.953 -0.6778 -0.1119  0.4040
  325MOL0     H44781   9.706   6.857   5.062  2.0134  0.3925  1.0681
  325MOL0     H44782   9.945   6.913   4.984 -0.0753  0.3676  0.7074
  325MOL0     H44783  10.165   6.812   4.712 -0.0199 -0.0867 -1.2639
  325MOL0     H44784  10.108   6.847   4.882 -3.6915  1.7312  0.2781
  325MOL0     H44785  10.258   7.063   4.737 -1.6625 -1.0211 -1.1208
  325MOL0     H44786  10.269   7.013   4.909  2.7181  0.5926 -0.0419
  325MOL0     H44787  10.403   6.814   4.835  1.1502  0.6387  1.0308
  325MOL0     H44788  10.380   6.855   4.667 -1.3302 -1.2106  0.7172
  325MOL0     H44789  10.509   7.077   4.706 -0.3957 -0.6551  0.4061
  325MOL0     H44790  10.516   7.036   4.876 -2.1550 -0.0656 -0.9752
  325MOL0     H44791  10.631   6.852   4.673 -1.2225  0.0078  1.3249
  325MOL0     H44792  10.666   6.856   4.838  0.1411 -1.4929 -0.7192
  325MOL0     H44793  10.747   7.081   4.653 -1.0639  0.3723  0.4435
  325MOL0     H44794  10.777   7.066   4.825  0.6077 -1.5143  1.3652
  325MOL0     H44795  10.890   6.884   4.604 -1.6587  0.4448 -0.6562
  325MOL0     H44796  10.910   6.868   4.782 -0.8799 -0.9500 -0.3083
  325MOL0     H44797  11.014   7.095   4.598 -0.7933 -0.4659 -1.3308
  325MOL0     H44798  11.019   7.094   4.781  2.2757  0.0597  0.0326
  325MOL0     H44799  11.119   6.867   4.486 -1.0602 -0.2704  1.1606
  325MOL0     H44800  11.361   6.780   4.392  2.3789  1.9805  0.1083
  325MOL0     H44801  11.351   6.646   4.497 -1.2464  0.5859  1.7963
  325MOL0     H44802  11.543   6.887   4.486 -0.6402 -0.2018 -1.6885
  325MOL0     H44803  11.563   6.739   4.606 -0.2156  0.2775  0.6106
  325MOL0     H44804  11.579   6.736   4.309  1.6622  1.3484 -0.3799
  325MOL0     H44805  11.723   6.745   4.414 -0.2960  1.1538 -1.5032
  325MOL0     H44806  11.494   6.533   4.402  0.1530 -1.1945  0.5194
  325MOL0     H44807  11.662   6.514   4.333  0.4081 -0.5713 -0.2067
  325MOL0     H44808  11.645   6.267   4.602 -0.2307 -1.0122 -0.7935
  325MOL0     H44809  11.852   6.017   4.663  0.3502 -0.4526  0.2292
  325MOL0     H44810  11.827   6.021   4.483 -2.1062 -0.4596  0.1816
  325MOL0     H44811  11.697   6.052   4.593 -0.0521 -2.5544  1.9618
  325MOL0     H44812  12.134   5.928   4.748 -0.6745 -0.1737  0.2881
  325MOL0     H44813  12.301   5.779   4.806  0.8150 -1.3103 -0.5813
  325MOL0     H44814  12.521   5.705   4.841  1.0083  1.0335  0.6857
  325MOL0     H44815  12.659   5.625   4.764 -1.6582 -1.2235  1.1600
  325MOL0     H44816  12.724   5.858   4.673  2.2034 -0.6028  1.3614
  325MOL0     H44817  12.584   5.926   4.763 -1.8840 -1.0138  1.8165
  325MOL0     H44818  12.735   5.794   4.958  3.9984 -0.8786 -0.6660
  325MOL0     H44819  12.688   5.962   4.938  1.7727 -0.3998  2.2329
  325MOL0     H44820  12.875   5.992   4.795 -1.7938  0.7376  1.8829
  325MOL0     H44821  12.938   5.823   4.802  1.3933  1.2273 -0.9667
  325MOL0     H44822  12.887   6.003   5.032 -2.3411  0.2617 -1.5363
  325MOL0     H44823  12.966   5.839   5.044  1.3168 -0.3795 -2.8182
  325MOL0     H44824  13.086   6.074   4.904 -0.0033 -0.0950 -1.6752
  325MOL0     H44825  13.154   5.915   4.929  0.9755  0.0486  1.8082
  325MOL0     H44826  13.129   5.946   5.185 -1.3369  1.7861  1.2450
  325MOL0     H44827  13.080   6.108   5.151 -0.9557 -0.2077  1.9926
  325MOL0     H44828  13.308   6.114   5.215  0.6491 -0.0135 -0.1563
  325MOL0     H44829  13.327   6.134   5.044  2.4723  0.3679  2.6420
  325MOL0     H44830  12.456   5.802   4.409  1.4026 -2.6495  1.3864
  325MOL0     H44831  12.263   5.952   4.344 -3.6859  2.3815  1.5717
  325MOL0     H44832  12.074   6.429   4.430  0.0415  2.3819  1.3017
  325MOL0     H44833  11.895   6.588   4.473 -0.3994 -0.9227 -0.8338
  325MOL0     H44834   9.819   6.974   4.583  0.4470  0.5956  0.3803
  325MOL0     H44835   9.595   6.920   4.641  0.5737 -0.4421 -1.1118
  325MOL0     H44836   9.344   6.694   4.794 -0.6232 -1.0121 -1.8286
  325MOL0     H44837   9.132   6.604   4.747 -0.9184 -0.4909  1.5777
  325MOL0     H44838   8.708   6.745   4.761  1.3826 -0.7830  0.9962
  325MOL0     H44839   8.812   6.893   4.752 -0.6722 -0.9663  1.5796
  325MOL0     H44840   8.925   6.805   4.555  0.6831 -2.1420 -0.3244
  325MOL0     H44841   8.749   6.827   4.522 -0.8805 -2.4671 -1.3976
  325MOL0     H44842   8.915   6.574   4.531  1.1463  2.0099 -1.5813
  325MOL0     H44843   8.750   6.579   4.604 -2.7390  2.8336 -0.6912
  325MOL0     H44844   8.662   6.650   4.380  0.3965  0.8093  2.1213
  325MOL0     H44845   8.730   6.485   4.370  0.9556 -0.7506  0.6902
  325MOL0     H44846   9.002   6.717   4.139 -1.9434  0.6093 -1.4509
  325MOL0     H44847   8.937   6.939   4.932 -0.7921 -0.5142  0.1098
  325MOL0     H44848   9.213   7.113   5.032  0.1216 -0.3258 -0.3007
  325MOL0     H44849   9.138   7.173   4.872  1.7898 -0.8760 -0.3923
  325MOL0     H44850   9.043   7.103   5.006 -0.4485  1.4783  0.7611
  326MOL0     O44851   0.185   5.976   8.994 -0.0778 -0.3218  0.3573
  326MOL0     C44852   0.188   5.915   8.892 -0.0787  0.1832 -0.1112
  326MOL0     O44853   0.305   5.897   8.816  0.6922  0.8513 -0.4570
  326MOL0     C44854   0.418   5.954   8.869  0.7728 -0.0277  0.3474
  326MOL0     C44855   0.508   5.871   8.935  0.7853 -0.4085  0.7069
  326MOL0     C44856   0.632   5.920   8.976 -0.5285 -0.2440 -0.4390
  326MOL0     C44857   0.657   6.060   8.972  0.2569  0.4175  0.2959
  326MOL0     O44858   0.775   6.124   9.003  0.4397 -0.1217 -0.0187
  326MOL0     C44859   0.874   6.045   9.071  0.3436 -0.8409  0.3900
  326MOL0     C44860   0.997   6.126   9.087  0.5767 -0.0282 -0.3348
  326MOL0     C44861   1.058   6.172   8.956  0.0573  0.1565  0.3197
  326MOL0     C44862   1.194   6.250   8.980 -0.0765  0.3800 -0.1093
  326MOL0     C44863   1.284   6.296   8.870  0.7180  0.0492  0.9045
  326MOL0     C44864   1.208   6.372   8.760  0.3565 -0.0553 -0.1864
  326MOL0     C44865   1.313   6.394   8.648  1.0812 -0.9826  0.2758
  326MOL0     C44866   1.265   6.491   8.539  0.9740  0.2362  0.6698
  326MOL0     N44867   1.170   6.440   8.442 -0.7592  0.6989 -0.5013
  326MOL0     C44868   1.180   6.431   8.311 -0.1252 -0.4124  0.4861
  326MOL0     C44869   1.058   6.432   8.266  0.6372 -0.6309  1.0393
  326MOL0     C44870   1.006   6.420   8.123 -0.2591  0.9743  0.8916
  326MOL0     C44871   1.032   6.536   8.027 -0.1565 -0.7771 -0.2983
  326MOL0     C44872   0.897   6.626   8.008 -0.3035 -0.2749  0.7075
  326MOL0     C44873   0.922   6.722   7.904 -0.0953 -0.3768  0.0455
  326MOL0     O44874   1.015   6.809   7.959 -0.3606 -0.1426  0.3572
  326MOL0     C44875   1.094   6.880   7.870 -0.3651 -0.1967  0.3793
  326MOL0     C44876   1.044   6.922   7.744 -0.8733 -0.1358 -0.3974
  326MOL0     C44877   1.126   6.978   7.637  0.5857  0.1933 -1.2163
  326MOL0     C44878   1.065   7.013   7.511 -0.5023 -0.7517  0.7444
  326MOL0     C44879   1.261   6.982   7.670  0.1988 -0.9725 -0.0088
  326MOL0     C44880   1.360   7.032   7.565 -0.1927  0.2006 -0.3435
  326MOL0     O44881   1.337   7.014   7.430  0.4399  0.5340 -0.2792
  326MOL0     C44882   1.438   7.053   7.345 -1.2284 -1.1233 -0.4538
  326MOL0     C44883   1.553   6.979   7.328 -1.2966 -0.9341  0.0608
  326MOL0     C44884   1.635   7.004   7.216  0.0371  0.1382 -0.0756
  326MOL0     C44885   1.625   7.113   7.132  0.6162  0.8235  0.1440
  326MOL0     O44886   1.716   7.147   7.029  0.0513  0.3202  0.2947
  326MOL0     C44887   1.832   7.070   7.001 -0.2682  0.2916 -0.5815
  326MOL0     C44888   1.946   7.106   7.099 -0.3077 -0.3568  0.0636
  326MOL0     C44889   2.049   6.992   7.106  0.2470 -0.4426 -0.3424
  326MOL0     C44890   2.183   7.022   7.054  0.3989  0.3630  0.0026
  326MOL0     C44891   2.272   7.112   7.141 -0.1920  0.4216  0.1466
  326MOL0     C44892   2.422   7.112   7.105 -0.5967  0.8435 -0.3316
  326MOL0     C44893   2.510   7.220   7.165  0.1076 -0.4230 -0.5740
  326MOL0     C44894   2.637   7.235   7.086 -0.3726  0.5528 -0.0043
  326MOL0    Cl44895   2.746   7.371   7.120 -0.0125 -0.0206  0.1985
  326MOL0     C44896   1.511   7.190   7.152  0.2289 -0.8760 -0.5608
  326MOL0     C44897   1.413   7.162   7.257 -0.8726 -0.0860  0.3020
  326MOL0     O44898   1.467   7.080   7.610  0.2479 -0.0063 -0.8989
  326MOL0     C44899   1.307   6.952   7.796 -0.1347 -0.0340 -0.2975
  326MOL0     C44900   1.223   6.900   7.892 -0.9431 -0.9634 -0.0571
  326MOL0     N44901   0.967   6.447   8.370 -0.1960 -0.2175 -0.2259
  326MOL0     N44902   1.036   6.438   8.480 -0.6533 -0.2956 -0.0112
  326MOL0     C44903   0.565   6.139   8.911 -0.5970 -0.1270 -0.1288
  326MOL0     C44904   0.437   6.089   8.864 -0.3109  0.2448 -0.0531
  326MOL0     C44905   0.065   5.855   8.834 -0.3587 -0.4941  0.0468
  326MOL0     C44906   0.078   5.774   8.722 -0.0172  0.0388 -0.3686
  326MOL0     C44907  -0.040   5.702   8.678 -0.0649  0.7547 -0.0990
  326MOL0     C44908  -0.168   5.718   8.739 -0.4264  0.1298 -0.2302
  326MOL0     O44909  -0.283   5.658   8.704  0.4021 -0.6448  0.7404
  326MOL0     C44910  -0.306   5.633   8.563  0.2699  0.2412 -0.1101
  326MOL0     C44911  -0.443   5.570   8.542 -0.0324 -0.0534  0.1785
  326MOL0     C44912  -0.556   5.670   8.566  0.6276 -0.4748  0.5866
  326MOL0     C44913  -0.700   5.602   8.586 -0.4187 -0.0098 -1.1013
  326MOL0     C44914  -0.814   5.695   8.587  0.0826  1.0238  0.6195
  326MOL0     C44915  -0.909   5.767   8.593 -0.4489 -0.7942 -0.4252
  326MOL0     C44916  -0.175   5.808   8.844 -0.0636 -0.3724  0.6684
  326MOL0     C44917  -0.060   5.873   8.898  0.5721  0.4666  0.5342
  326MOL0     C44918  -0.088   5.951   9.020  0.1603 -0.3151  0.6072
  326MOL0     H44919   0.477   5.768   8.946 -2.6154  0.3479 -0.6204
  326MOL0     H44920   0.703   5.851   9.020 -1.2969 -0.7016  0.1136
  326MOL0     H44921   0.887   5.955   9.011 -0.2366 -1.3718  1.0398
  326MOL0     H44922   0.822   6.011   9.161 -2.0661  2.0826  0.2483
  326MOL0     H44923   0.975   6.216   9.146  2.1592 -0.1867  0.5496
  326MOL0     H44924   1.072   6.071   9.145 -0.6189 -0.6219  0.7048
  326MOL0     H44925   1.069   6.086   8.889  0.5658 -0.1597  0.7936
  326MOL0     H44926   0.994   6.237   8.897 -1.5348 -1.4985  0.1178
  326MOL0     H44927   1.173   6.331   9.051 -1.4466 -1.3604  1.5806
  326MOL0     H44928   1.256   6.180   9.037  0.0050 -0.2283 -0.9293
  326MOL0     H44929   1.331   6.208   8.825  0.9371 -0.5083  2.1746
  326MOL0     H44930   1.359   6.365   8.909 -0.5461  1.6052  0.6748
  326MOL0     H44931   1.122   6.317   8.721  0.3548 -0.0934 -0.1272
  326MOL0     H44932   1.179   6.465   8.810  1.7720  0.7563 -0.8050
  326MOL0     H44933   1.342   6.300   8.601  1.8823 -0.3238 -0.5862
  326MOL0     H44934   1.407   6.431   8.691  1.5222  0.0766 -1.4945
  326MOL0     H44935   1.225   6.578   8.590  0.5510 -0.9737  2.5061
  326MOL0     H44936   1.356   6.525   8.489 -0.0469  0.6660 -0.9567
  326MOL0     H44937   1.272   6.426   8.253  0.5627 -1.2783  1.6282
  326MOL0     H44938   0.905   6.381   8.134  0.4586 -1.6568 -0.9153
  326MOL0     H44939   1.057   6.332   8.083 -0.2889  0.8722  1.0763
  326MOL0     H44940   1.114   6.595   8.069 -1.5263  0.6809  0.4457
  326MOL0     H44941   1.071   6.498   7.932 -1.6187 -0.4615 -1.0539
  326MOL0     H44942   0.812   6.561   7.987 -2.4422  2.1176  1.4403
  326MOL0     H44943   0.865   6.669   8.103  1.8109 -0.2935  1.4752
  326MOL0     H44944   0.960   6.676   7.813 -0.4100 -1.6140  0.5227
  326MOL0     H44945   0.827   6.767   7.874  0.0252 -1.3475 -1.9513
  326MOL0     H44946   0.940   6.915   7.713 -1.2604  0.0004  0.7881
  326MOL0     H44947   0.968   7.054   7.541  1.3452  2.5277  2.8764
  326MOL0     H44948   1.043   6.924   7.451  0.5429 -1.6422  1.6255
  326MOL0     H44949   1.120   7.082   7.446 -0.6800 -2.4490 -1.3031
  326MOL0     H44950   1.576   6.890   7.386 -0.8206 -1.1305 -0.4211
  326MOL0     H44951   1.716   6.931   7.209 -0.4287 -0.5334  1.2092
  326MOL0     H44952   1.820   6.962   7.011  2.9847 -0.0982  0.0960
  326MOL0     H44953   1.867   7.087   6.899 -0.3441  0.2089 -0.6224
  326MOL0     H44954   1.986   7.205   7.077  0.6103 -0.8875 -0.6858
  326MOL0     H44955   1.903   7.123   7.198  1.2208  0.3354  0.6429
  326MOL0     H44956   2.023   6.896   7.061 -0.2720 -0.5684  0.2114
  326MOL0     H44957   2.066   6.964   7.210  0.6098  1.0616  0.0329
  326MOL0     H44958   2.171   7.066   6.955  0.3661  0.6280  0.1214
  326MOL0     H44959   2.219   6.921   7.035  0.0013  0.4831 -1.5107
  326MOL0     H44960   2.230   7.213   7.137 -1.7624 -0.2426 -2.0210
  326MOL0     H44961   2.267   7.080   7.245  2.7319 -1.1566 -0.0920
  326MOL0     H44962   2.425   7.122   6.996  1.1017  2.1443 -0.2169
  326MOL0     H44963   2.455   7.015   7.146 -1.4604  0.6006 -0.1953
  326MOL0     H44964   2.523   7.197   7.272 -1.6437 -0.7591 -0.4002
  326MOL0     H44965   2.450   7.311   7.159  4.2660  3.0155  2.9088
  326MOL0     H44966   2.617   7.227   6.979  1.4102 -0.8784 -0.2924
  326MOL0     H44967   2.693   7.146   7.116 -4.1369 -2.1645 -0.3147
  326MOL0     H44968   1.500   7.272   7.082  1.1041  0.2039  0.5392
  326MOL0     H44969   1.325   7.224   7.269 -1.7393 -0.6121 -2.5596
  326MOL0     H44970   1.412   6.949   7.823  0.2273  0.4583 -1.5652
  326MOL0     H44971   1.261   6.861   7.986 -0.2479  2.3537  1.1775
  326MOL0     H44972   0.588   6.245   8.922  1.5961 -0.7943  3.2691
  326MOL0     H44973   0.369   6.160   8.818 -2.6316 -1.0060  1.2832
  326MOL0     H44974   0.169   5.741   8.673 -0.9891 -3.2526 -0.1951
  326MOL0     H44975  -0.033   5.634   8.593 -1.6884 -1.0435  1.1366
  326MOL0     H44976  -0.295   5.732   8.517  2.7104  0.5517  1.0078
  326MOL0     H44977  -0.229   5.573   8.513  0.9838 -0.3009  1.5799
  326MOL0     H44978  -0.458   5.486   8.610  0.0261  0.5478  0.9433
  326MOL0     H44979  -0.463   5.529   8.443  0.3774 -1.7238  0.7489
  326MOL0     H44980  -0.538   5.746   8.643 -1.1227  2.2512 -1.4878
  326MOL0     H44981  -0.560   5.732   8.475  2.7598  0.6775  1.2167
  326MOL0     H44982  -0.696   5.557   8.685  2.7721  3.9534  0.8847
  326MOL0     H44983  -0.710   5.524   8.510  2.9539 -3.2730  1.4457
  326MOL0     H44984  -0.983   5.843   8.607  0.3892  0.0756 -0.5939
  326MOL0     H44985  -0.268   5.813   8.900 -0.0411  1.0332  0.6224
  326MOL0     H44986  -0.060   6.056   9.001 -0.7019 -0.1312  0.3242
  326MOL0     H44987  -0.197   5.958   9.025  0.0568  2.3364 -1.9640
  326MOL0     H44988  -0.054   5.910   9.115  2.1665 -3.0479 -1.1169
  327MOL0     O44989   4.344   0.340   6.579 -0.1442 -0.3400  0.3297
  327MOL0     C44990   4.264   0.268   6.518  0.1637 -0.5269 -1.3140
  327MOL0     O44991   4.280   0.138   6.488 -0.0010 -0.1583 -0.0202
  327MOL0     C44992   4.408   0.076   6.489 -0.8160  0.4039 -0.5145
  327MOL0     C44993   4.527   0.128   6.450 -0.0131 -0.1860  0.6006
  327MOL0     C44994   4.648   0.060   6.450 -0.6497 -0.5374  0.2256
  327MOL0     C44995   4.651  -0.067   6.490 -0.9713  0.5415  0.6387
  327MOL0     O44996   4.760  -0.144   6.467  0.3379 -0.2680 -0.1620
  327MOL0     C44997   4.875  -0.081   6.528  0.3082 -0.5472 -0.5395
  327MOL0     C44998   4.987  -0.184   6.503  0.4484  0.0341 -0.1433
  327MOL0     C44999   5.035  -0.157   6.357  0.5354  0.5368  0.3048
  327MOL0     C45000   5.153  -0.241   6.333 -1.5651 -0.3763  0.3986
  327MOL0     C45001   5.200  -0.254   6.179 -0.3934  0.0069  0.6620
  327MOL0     C45002   5.232  -0.104   6.133  0.0294  1.0717  0.2285
  327MOL0     C45003   5.288  -0.123   5.990 -1.3138 -1.0909 -0.0043
  327MOL0     C45004   5.327   0.008   5.913  0.3587  0.5237 -0.6017
  327MOL0     N45005   5.437   0.084   5.978 -0.7998 -0.9313 -0.1179
  327MOL0     C45006   5.560   0.032   6.018 -1.5201  0.3944 -0.4599
  327MOL0     C45007   5.625   0.130   6.084  1.0996  0.3479 -1.2838
  327MOL0     C45008   5.770   0.123   6.141  0.6386 -0.1821  0.3062
  327MOL0     C45009   5.865   0.169   6.021 -0.8772  0.6606  0.5530
  327MOL0     C45010   5.831   0.304   5.962  0.1906  0.3962  0.1454
  327MOL0     C45011   5.932   0.392   5.886  0.4385 -0.9351  0.5802
  327MOL0     O45012   6.053   0.418   5.961  0.0284 -0.4061 -0.6851
  327MOL0     C45013   6.157   0.480   5.896 -0.1799  0.4766 -0.4537
  327MOL0     C45014   6.151   0.539   5.768  0.8928  0.6857 -0.1054
  327MOL0     C45015   6.265   0.587   5.709  0.2630  0.2707  0.4144
  327MOL0     C45016   6.249   0.655   5.574  0.0477 -0.2067 -0.2925
  327MOL0     C45017   6.387   0.573   5.768 -0.1573 -0.6973  0.1601
  327MOL0     C45018   6.508   0.630   5.712 -0.5219 -0.1516 -0.3978
  327MOL0     O45019   6.512   0.767   5.683 -1.3726 -0.0842  0.6602
  327MOL0     C45020   6.621   0.813   5.616  0.0617  0.6988 -0.2440
  327MOL0     C45021   6.666   0.783   5.491  0.4124  0.7166  0.0199
  327MOL0     C45022   6.764   0.858   5.422 -0.4307  0.0577 -0.4479
  327MOL0     C45023   6.831   0.965   5.487 -0.0089  0.0180 -0.0231
  327MOL0     O45024   6.929   1.044   5.428  0.1322  0.5565 -0.1254
  327MOL0     C45025   6.878   1.119   5.318 -0.4342 -0.1079  0.7452
  327MOL0     C45026   6.984   1.197   5.241  0.4080 -0.1731 -0.4632
  327MOL0     C45027   7.096   1.113   5.200 -0.6375 -0.4813 -0.1824
  327MOL0     C45028   7.214   1.202   5.132  0.3547 -0.6909  0.4139
  327MOL0     C45029   7.344   1.125   5.122 -0.5697  0.3150 -0.4801
  327MOL0     C45030   7.447   1.210   5.052  0.4111 -0.0822 -0.4718
  327MOL0     C45031   7.485   1.330   5.128 -0.9709 -0.5281 -0.1638
  327MOL0     C45032   7.628   1.367   5.089 -0.0423 -0.9360 -0.6207
  327MOL0    Cl45033   7.652   1.366   4.913  0.1366 -0.2414  0.3618
  327MOL0     C45034   6.788   0.984   5.622  0.5112 -0.4144  0.4489
  327MOL0     C45035   6.685   0.912   5.685 -1.0852 -0.2467 -0.6515
  327MOL0     O45036   6.608   0.553   5.699  0.3196 -0.1473  0.1377
  327MOL0     C45037   6.392   0.506   5.896 -0.1551 -0.8103  0.0780
  327MOL0     C45038   6.277   0.464   5.964 -0.5611 -0.3181 -0.5654
  327MOL0     N45039   5.540   0.239   6.090  0.4391  0.4794 -0.0032
  327MOL0     N45040   5.432   0.215   6.021  0.3355  0.7481 -0.2042
  327MOL0     C45041   4.533  -0.129   6.537 -0.4476  0.2472  0.1686
  327MOL0     C45042   4.411  -0.062   6.539  0.4550  0.4593 -0.4312
  327MOL0     C45043   4.138   0.338   6.481  0.6559 -0.4440 -0.6420
  327MOL0     C45044   4.135   0.471   6.432 -0.6089 -0.1891  0.2147
  327MOL0     C45045   4.030   0.506   6.353 -0.8532  0.1393 -0.3946
  327MOL0     C45046   3.914   0.433   6.351  0.0642 -0.4589  0.6044
  327MOL0     O45047   3.812   0.478   6.270  0.8065  0.5539 -0.5659
  327MOL0     C45048   3.752   0.596   6.321  0.2700 -0.2039 -0.1295
  327MOL0     C45049   3.635   0.628   6.233  0.0280 -0.1699  0.6360
  327MOL0     C45050   3.564   0.761   6.282 -0.2750 -0.2985 -0.2579
  327MOL0     C45051   3.445   0.810   6.194  1.1410 -0.1226 -0.4731
  327MOL0     C45052   3.326   0.725   6.180  0.2509 -0.0590  0.6946
  327MOL0     C45053   3.224   0.656   6.178 -0.4479  0.9219 -0.9555
  327MOL0     C45054   3.897   0.320   6.429 -0.3577 -0.6197 -0.4459
  327MOL0     C45055   4.012   0.266   6.496  0.0916 -0.5500  0.0404
  327MOL0     C45056   4.002   0.133   6.568 -0.9398 -0.6879 -0.0721
  327MOL0     H45057   4.535   0.223   6.398  1.5220 -0.4698  0.2884
  327MOL0     H45058   4.736   0.116   6.420 -0.0148 -0.0883  2.6792
  327MOL0     H45059   4.860  -0.080   6.637  2.6271 -0.2205 -0.1763
  327MOL0     H45060   4.899   0.022   6.501 -0.9522 -0.6177 -2.0206
  327MOL0     H45061   5.071  -0.185   6.573 -0.0477 -1.2709  0.4682
  327MOL0     H45062   4.939  -0.282   6.507  0.5382  0.0192  2.4428
  327MOL0     H45063   4.948  -0.188   6.298  0.7561 -1.2817  0.8904
  327MOL0     H45064   5.059  -0.052   6.336  1.9285  0.8968  3.2036
  327MOL0     H45065   5.232  -0.205   6.400 -1.4847 -0.3571  0.2927
  327MOL0     H45066   5.130  -0.343   6.365 -1.4232 -1.1258 -1.7228
  327MOL0     H45067   5.125  -0.302   6.114  0.1540 -1.1658  0.8724
  327MOL0     H45068   5.285  -0.321   6.167 -2.4777 -2.6506 -0.4352
  327MOL0     H45069   5.145  -0.039   6.122 -0.1746  0.7302 -0.1688
  327MOL0     H45070   5.311  -0.058   6.194  1.5379 -2.0948  0.9149
  327MOL0     H45071   5.212  -0.178   5.934 -1.6274 -0.6744  0.0094
  327MOL0     H45072   5.379  -0.184   6.002 -2.1135 -1.8651  2.9025
  327MOL0     H45073   5.359  -0.020   5.812 -2.0860  0.2656 -1.3902
  327MOL0     H45074   5.251   0.086   5.896  0.6150  0.3844 -2.6635
  327MOL0     H45075   5.597  -0.069   6.006 -0.2681  0.7978 -0.0838
  327MOL0     H45076   5.789   0.025   6.185 -0.4843  0.5143  2.5438
  327MOL0     H45077   5.783   0.189   6.228 -0.9653  1.9817 -0.9959
  327MOL0     H45078   5.966   0.177   6.062 -0.1728  1.4712 -1.2140
  327MOL0     H45079   5.869   0.099   5.937  1.1927 -0.7739  1.7654
  327MOL0     H45080   5.744   0.296   5.895  1.8273 -2.8482 -1.8968
  327MOL0     H45081   5.799   0.363   6.048 -0.1777 -0.7695  0.8347
  327MOL0     H45082   5.952   0.333   5.796 -1.1409 -1.4710  0.5518
  327MOL0     H45083   5.889   0.489   5.862  0.4950 -1.1368 -0.3824
  327MOL0     H45084   6.063   0.531   5.705  0.5013  0.2710  0.4841
  327MOL0     H45085   6.182   0.741   5.581 -1.8227 -1.5348 -1.0621
  327MOL0     H45086   6.203   0.586   5.502  1.7329 -0.0983 -1.5512
  327MOL0     H45087   6.340   0.693   5.526 -0.9760 -0.4820 -2.6094
  327MOL0     H45088   6.629   0.697   5.436  2.0528 -0.6442  0.9274
  327MOL0     H45089   6.785   0.831   5.319 -0.6617  2.6790 -1.2696
  327MOL0     H45090   6.822   1.051   5.254  0.6900 -1.7605  1.4617
  327MOL0     H45091   6.805   1.187   5.363 -2.9901  0.1778 -3.3380
  327MOL0     H45092   6.928   1.238   5.156 -0.4469 -1.5820 -0.6178
  327MOL0     H45093   7.014   1.279   5.307 -2.6317  1.5172 -0.9646
  327MOL0     H45094   7.058   1.033   5.136 -1.8600 -1.4884  1.7135
  327MOL0     H45095   7.148   1.075   5.288 -0.7067  1.5511  0.7877
  327MOL0     H45096   7.230   1.296   5.185  1.4182 -1.7548  2.0764
  327MOL0     H45097   7.176   1.234   5.035 -1.1163  1.8516  1.7154
  327MOL0     H45098   7.377   1.080   5.216 -0.2579 -0.7636 -1.0945
  327MOL0     H45099   7.324   1.041   5.054  1.7044 -1.4581  0.9104
  327MOL0     H45100   7.398   1.241   4.959 -2.3091  2.5534  1.6262
  327MOL0     H45101   7.533   1.144   5.036 -0.3378 -0.7023 -2.1689
  327MOL0     H45102   7.473   1.322   5.237 -1.2822  1.0028 -0.0608
  327MOL0     H45103   7.420   1.416   5.108 -0.2211  0.4771  1.4274
  327MOL0     H45104   7.702   1.313   5.147  2.6830  0.2998 -2.7305
  327MOL0     H45105   7.635   1.468   5.133  2.2259 -1.5724  0.6495
  327MOL0     H45106   6.844   1.064   5.669 -0.6909  0.5718  0.2554
  327MOL0     H45107   6.654   0.943   5.784 -1.1004 -0.2504 -0.6554
  327MOL0     H45108   6.481   0.497   5.958 -0.5238 -0.3914  0.6826
  327MOL0     H45109   6.266   0.409   6.057 -2.0545  4.1568  2.2043
  327MOL0     H45110   4.549  -0.223   6.588  3.1285  1.0854  0.8468
  327MOL0     H45111   4.327  -0.108   6.590 -1.3702  1.4846 -2.3445
  327MOL0     H45112   4.220   0.537   6.444  0.1400 -1.3433  1.4027
  327MOL0     H45113   4.029   0.598   6.294  0.0944 -1.0686 -2.4064
  327MOL0     H45114   3.722   0.584   6.426  4.4204  0.8538  1.3804
  327MOL0     H45115   3.818   0.683   6.331 -0.4489  0.2372  1.0333
  327MOL0     H45116   3.568   0.542   6.226  2.6404 -2.3226  0.5487
  327MOL0     H45117   3.674   0.638   6.131 -2.5949  0.7618 -0.3743
  327MOL0     H45118   3.524   0.736   6.381  0.4416 -0.4095  0.0036
  327MOL0     H45119   3.640   0.839   6.283  1.7608 -2.1581  0.9360
  327MOL0     H45120   3.491   0.833   6.097  1.5807 -0.6644 -0.3996
  327MOL0     H45121   3.416   0.900   6.248 -1.1414 -1.8714  1.4275
  327MOL0     H45122   3.136   0.596   6.165  0.0259  0.0544 -0.2511
  327MOL0     H45123   3.804   0.265   6.433 -1.6292  1.4581  2.4868
  327MOL0     H45124   4.046   0.047   6.515  1.2017 -1.2093  2.3442
  327MOL0     H45125   4.045   0.147   6.667 -0.3885  3.0759 -0.7133
  327MOL0     H45126   3.895   0.122   6.586 -1.5595  4.1598  0.5765
  328MOL0     O45127   8.798   4.607   7.159  0.3972  0.2677  0.3241
  328MOL0     C45128   8.786   4.500   7.221  0.2180 -0.2354  0.6574
  328MOL0     O45129   8.871   4.387   7.200 -0.1761 -0.4088 -0.5722
  328MOL0     C45130   8.969   4.415   7.113  0.5671 -0.6141 -0.5188
  328MOL0     C45131   8.969   4.362   6.985 -0.1340  0.7909 -0.0140
  328MOL0     C45132   9.073   4.380   6.890  0.4262  0.1419  0.5520
  328MOL0     C45133   9.175   4.470   6.934  0.1449  0.3889 -0.0970
  328MOL0     O45134   9.284   4.500   6.861 -0.2720 -0.3467  0.4056
  328MOL0     C45135   9.305   4.453   6.726 -0.3125  0.6940  0.0820
  328MOL0     C45136   9.418   4.530   6.656  0.7019 -0.0575  0.3481
  328MOL0     C45137   9.555   4.485   6.722  0.4500  0.3856 -1.1293
  328MOL0     C45138   9.667   4.576   6.693 -0.2464 -0.6214 -0.1258
  328MOL0     C45139   9.785   4.540   6.777  0.6538 -0.5317 -0.2086
  328MOL0     C45140   9.869   4.432   6.705  0.0107  0.3101  0.2617
  328MOL0     C45141   9.936   4.493   6.592 -1.2037 -0.1444 -0.0100
  328MOL0     C45142  10.042   4.402   6.538  0.1557  0.5758 -0.0823
  328MOL0     N45143  10.101   4.465   6.419  0.2826  0.1237 -1.0233
  328MOL0     C45144  10.167   4.589   6.411 -0.4537  0.7131  0.0533
  328MOL0     C45145  10.217   4.594   6.290 -0.2487 -0.2923  0.3332
  328MOL0     C45146  10.302   4.696   6.238  0.0999  0.5250  0.3764
  328MOL0     C45147  10.337   4.671   6.092  0.1967  0.0961  0.2076
  328MOL0     C45148  10.380   4.798   6.029  0.1256 -0.3923  0.0212
  328MOL0     C45149  10.505   4.862   6.101 -0.1696  0.2481  0.3947
  328MOL0     O45150  10.626   4.791   6.061  0.1861 -0.4535 -0.0521
  328MOL0     C45151  10.734   4.880   6.063  0.8326  0.5544 -0.6581
  328MOL0     C45152  10.806   4.906   5.942  0.2933  0.6488 -0.1626
  328MOL0     C45153  10.910   5.007   5.939  0.0703 -0.2794  0.4011
  328MOL0     C45154  10.962   5.056   5.808  0.5765  0.0113  0.4604
  328MOL0     C45155  10.954   5.057   6.067 -0.4925 -0.1679  0.5489
  328MOL0     C45156  11.066   5.160   6.071 -0.2030 -0.0147 -0.7944
  328MOL0     O45157  11.057   5.269   5.981 -0.5434 -0.2566 -0.0083
  328MOL0     C45158  11.162   5.357   5.948 -0.2454 -0.5832 -0.0296
  328MOL0     C45159  11.132   5.460   5.863 -0.4745 -0.1608  0.1450
  328MOL0     C45160  11.239   5.537   5.820 -0.6207 -0.0618  0.4896
  328MOL0     C45161  11.368   5.520   5.865  0.0302 -1.0929  0.2936
  328MOL0     O45162  11.464   5.602   5.814 -0.7713  0.4812  0.8015
  328MOL0     C45163  11.580   5.529   5.774  0.1968  0.0000  0.2157
  328MOL0     C45164  11.584   5.537   5.622 -0.6665 -0.2527  0.3506
  328MOL0     C45165  11.710   5.468   5.554  0.7984  0.8005 -0.1053
  328MOL0     C45166  11.833   5.456   5.638  0.0941 -0.7908 -0.2107
  328MOL0     C45167  11.936   5.383   5.543 -0.2323 -0.4006  0.9227
  328MOL0     C45168  12.070   5.411   5.597  0.7347 -0.0335 -0.5553
  328MOL0     C45169  12.191   5.357   5.513 -0.2113 -0.5639 -0.4133
  328MOL0     C45170  12.328   5.385   5.584 -0.2348  0.2950 -0.0273
  328MOL0    Cl45171  12.357   5.560   5.568 -0.1740  0.6284  0.0832
  328MOL0     C45172  11.401   5.426   5.959  1.0393  0.7866 -0.1977
  328MOL0     C45173  11.299   5.335   5.992  0.1199 -0.6026  0.4083
  328MOL0     O45174  11.159   5.132   6.146 -0.8689 -0.3761  0.3218
  328MOL0     C45175  10.884   5.027   6.185 -0.1013 -0.5802  0.1043
  328MOL0     C45176  10.777   4.938   6.181 -0.1154  1.0001 -0.7400
  328MOL0     N45177  10.175   4.478   6.222  0.0178  0.5254  0.2365
  328MOL0     N45178  10.114   4.401   6.307  0.0165 -0.7230  0.2157
  328MOL0     C45179   9.175   4.519   7.068 -0.2539  0.1954 -0.2584
  328MOL0     C45180   9.073   4.497   7.151  0.5444  0.5349  0.4334
  328MOL0     C45181   8.690   4.506   7.334 -0.9216  0.5727 -1.1700
  328MOL0     C45182   8.561   4.552   7.310  0.1346 -0.7066 -0.6697
  328MOL0     C45183   8.466   4.554   7.415  0.5817 -0.4901 -0.5990
  328MOL0     C45184   8.499   4.491   7.535  0.5414  0.0336 -0.6013
  328MOL0     O45185   8.405   4.449   7.629 -0.2279 -0.4644  0.2514
  328MOL0     C45186   8.321   4.551   7.660  0.2628  0.1247  0.2195
  328MOL0     C45187   8.262   4.525   7.796  0.2004 -0.6483  0.0465
  328MOL0     C45188   8.144   4.428   7.795 -0.0126  0.3043 -0.7230
  328MOL0     C45189   8.197   4.283   7.776 -0.2074 -0.3445 -0.3407
  328MOL0     C45190   8.124   4.184   7.865 -0.1792  0.0240  0.4435
  328MOL0     C45191   8.086   4.094   7.938  0.0172 -0.7405 -0.3660
  328MOL0     C45192   8.629   4.451   7.558  0.4058 -0.0422 -0.1359
  328MOL0     C45193   8.726   4.453   7.462  0.4906 -0.0888 -0.5590
  328MOL0     C45194   8.869   4.418   7.503  0.8653  0.3865 -0.8488
  328MOL0     H45195   8.899   4.287   6.950 -0.1650  1.3017 -1.1003
  328MOL0     H45196   9.072   4.322   6.799  3.0825  1.4271 -0.4097
  328MOL0     H45197   9.213   4.466   6.669 -0.1937  0.6360 -0.1231
  328MOL0     H45198   9.346   4.352   6.729  0.1227  0.8537 -0.5184
  328MOL0     H45199   9.408   4.500   6.551  1.2385 -2.8013  0.9872
  328MOL0     H45200   9.383   4.633   6.662  0.0188 -0.2193 -0.6165
  328MOL0     H45201   9.551   4.462   6.829 -1.0506 -2.4891 -1.7169
  328MOL0     H45202   9.575   4.387   6.678  0.9998  0.5217 -1.1941
  328MOL0     H45203   9.676   4.569   6.584  0.0453  0.5769 -0.1981
  328MOL0     H45204   9.641   4.680   6.715  0.7341 -0.3478 -0.1958
  328MOL0     H45205   9.765   4.494   6.874  1.3347 -0.4541 -0.0234
  328MOL0     H45206   9.835   4.634   6.806 -1.5390  1.3646 -2.1752
  328MOL0     H45207   9.952   4.408   6.772 -0.8414  2.4560  2.2377
  328MOL0     H45208   9.804   4.355   6.662 -1.6828  0.8378  1.7472
  328MOL0     H45209   9.988   4.581   6.633  0.0114 -1.4956  1.4816
  328MOL0     H45210   9.881   4.525   6.503  2.1349 -0.5739 -2.4595
  328MOL0     H45211  10.118   4.392   6.615 -0.6650 -0.8394  0.5783
  328MOL0     H45212  10.003   4.306   6.505 -0.4697  0.5984  0.5625
  328MOL0     H45213  10.191   4.654   6.495  0.3008 -0.8576  1.0912
  328MOL0     H45214  10.393   4.710   6.297  1.2804 -0.5698 -1.0997
  328MOL0     H45215  10.242   4.787   6.246 -0.4973  0.3079 -1.3497
  328MOL0     H45216  10.416   4.595   6.088 -0.2428 -0.3617  0.2072
  328MOL0     H45217  10.253   4.626   6.039  0.8179  0.1314 -0.8265
  328MOL0     H45218  10.407   4.781   5.924 -0.0726  1.7622 -0.4085
  328MOL0     H45219  10.297   4.868   6.037 -0.6802 -1.5159  2.6969
  328MOL0     H45220  10.514   4.964   6.063 -0.7142 -0.1406 -0.8097
  328MOL0     H45221  10.480   4.865   6.208  1.1428 -2.1002  0.8432
  328MOL0     H45222  10.759   4.878   5.849  1.1483  1.9058 -1.0159
  328MOL0     H45223  10.959   5.166   5.801 -1.9277  0.0535  1.2117
  328MOL0     H45224  10.884   5.021   5.740 -0.3529 -1.2756  2.1457
  328MOL0     H45225  11.058   5.021   5.769  0.3184 -0.2609  0.0680
  328MOL0     H45226  11.034   5.494   5.831 -0.4723  3.7759  3.5868
  328MOL0     H45227  11.233   5.607   5.738 -1.7071 -0.1888  0.4480
  328MOL0     H45228  11.670   5.579   5.812  0.5440 -1.3800  1.2541
  328MOL0     H45229  11.575   5.423   5.801  0.2552  0.4605  2.2048
  328MOL0     H45230  11.495   5.488   5.581 -0.2836  0.7061 -1.7954
  328MOL0     H45231  11.582   5.638   5.578 -1.7793 -0.6792 -0.6419
  328MOL0     H45232  11.734   5.517   5.459  2.1231  2.1790  0.8989
  328MOL0     H45233  11.680   5.363   5.544  4.0782 -0.8861  4.2600
  328MOL0     H45234  11.822   5.401   5.733  1.2788 -0.4448  0.1385
  328MOL0     H45235  11.866   5.556   5.666 -1.1757 -0.5478  0.5262
  328MOL0     H45236  11.912   5.277   5.543 -0.2189 -0.4046  1.2228
  328MOL0     H45237  11.930   5.412   5.438  1.6719 -1.8143  0.3548
  328MOL0     H45238  12.077   5.379   5.702  1.4358  1.1401 -0.2198
  328MOL0     H45239  12.065   5.520   5.603 -0.8026 -0.0653 -0.8741
  328MOL0     H45240  12.190   5.413   5.419  0.0508 -1.0315 -0.6999
  328MOL0     H45241  12.177   5.250   5.496 -2.4098 -0.1473 -1.5308
  328MOL0     H45242  12.405   5.333   5.528 -0.1464  0.7776 -0.3615
  328MOL0     H45243  12.322   5.349   5.687  0.5629 -0.4015 -0.2184
  328MOL0     H45244  11.505   5.420   5.987  1.0470  0.6151 -0.2657
  328MOL0     H45245  11.325   5.258   6.063 -1.5940  1.0126  2.9469
  328MOL0     H45246  10.908   5.080   6.277 -0.7053  1.4803 -0.8610
  328MOL0     H45247  10.722   4.913   6.271  0.7767 -0.7937 -0.6364
  328MOL0     H45248   9.255   4.589   7.090  0.6744 -0.4870 -1.3521
  328MOL0     H45249   9.080   4.546   7.247  0.1134 -1.0393  1.3146
  328MOL0     H45250   8.520   4.587   7.215 -0.3578  1.0194  0.1398
  328MOL0     H45251   8.368   4.592   7.388  0.6769 -0.4051 -0.8261
  328MOL0     H45252   8.367   4.650   7.658  0.9790 -0.2130 -1.2869
  328MOL0     H45253   8.237   4.560   7.590  1.5476  3.0462 -1.1045
  328MOL0     H45254   8.207   4.618   7.817  0.7332  0.1944 -2.0804
  328MOL0     H45255   8.339   4.496   7.868 -0.2838 -2.0113  0.0472
  328MOL0     H45256   8.097   4.440   7.894  1.6070  3.4177 -0.1986
  328MOL0     H45257   8.062   4.457   7.729 -0.2868 -1.4283 -1.1917
  328MOL0     H45258   8.305   4.272   7.780 -0.2155 -0.9067 -1.3357
  328MOL0     H45259   8.165   4.256   7.675 -1.8873  3.2500 -0.9262
  328MOL0     H45260   8.032   4.023   7.998 -0.5901 -1.3877 -1.6408
  328MOL0     H45261   8.639   4.396   7.651 -1.5692  1.0969  0.8107
  328MOL0     H45262   8.911   4.335   7.446  0.0042 -0.4332 -0.3277
  328MOL0     H45263   8.933   4.505   7.491  1.9663 -0.3346 -0.3889
  328MOL0     H45264   8.879   4.369   7.600  1.6571  1.1343 -0.5412
  329MOL0     O45265  10.784   4.525   5.946  0.2043 -0.5186 -0.5142
  329MOL0     C45266  10.823   4.501   6.056  1.2397  0.5705 -0.3024
  329MOL0     O45267  10.938   4.546   6.113 -0.1025 -1.2106  0.3149
  329MOL0     C45268  11.036   4.612   6.050 -0.2310 -1.2461  0.4681
  329MOL0     C45269  11.111   4.713   6.108  0.1060 -0.9158 -0.1804
  329MOL0     C45270  11.211   4.790   6.046  0.3398  0.4275 -0.4956
  329MOL0     C45271  11.240   4.768   5.912 -0.1563 -0.3478  0.1369
  329MOL0     O45272  11.337   4.818   5.829  0.0393 -0.6357 -0.2184
  329MOL0     C45273  11.431   4.911   5.870  0.4507  0.1360 -0.1476
  329MOL0     C45274  11.527   4.956   5.752  0.1973  0.7623  0.4970
  329MOL0     C45275  11.646   5.037   5.797 -0.6273  0.2941 -0.2812
  329MOL0     C45276  11.730   5.082   5.675 -0.0116  0.2613  0.0255
  329MOL0     C45277  11.835   4.990   5.632  0.2268 -0.7439  0.0788
  329MOL0     C45278  11.944   4.959   5.732 -1.0414  0.3592  0.4883
  329MOL0     C45279  12.025   5.088   5.787  1.2349 -0.7843  0.7001
  329MOL0     C45280  12.104   5.047   5.908  0.7069 -0.0857 -0.2370
  329MOL0     N45281  12.186   5.163   5.951 -0.4995 -0.2584 -0.5810
  329MOL0     C45282  12.296   5.210   5.886  0.1461  0.9638 -0.0780
  329MOL0     C45283  12.356   5.297   5.968 -0.5700 -0.4270  0.9193
  329MOL0     C45284  12.475   5.387   5.938  0.4521 -0.3496 -0.3748
  329MOL0     C45285  12.597   5.309   5.887 -0.2618  0.6844  0.2974
  329MOL0     C45286  12.696   5.411   5.827 -0.1451 -0.2217  0.5622
  329MOL0     C45287  12.658   5.470   5.690  0.2175 -0.4882 -0.3483
  329MOL0     O45288  12.780   5.520   5.629 -0.3418 -0.2015 -0.1442
  329MOL0     C45289  12.813   5.648   5.668 -0.3079  0.6076 -0.5822
  329MOL0     C45290  12.711   5.749   5.649  0.4226 -0.4049 -0.3779
  329MOL0     C45291  12.729   5.872   5.713  0.7726  0.4105  0.7806
  329MOL0     C45292  12.616   5.974   5.691 -0.2780 -0.1837 -0.0235
  329MOL0     C45293  12.856   5.911   5.767 -0.6566 -0.0991 -0.3021
  329MOL0     C45294  12.881   6.046   5.823  0.2085 -0.3406 -0.1303
  329MOL0     O45295  13.016   6.054   5.861  0.2655 -0.2470  0.5077
  329MOL0     C45296  13.071   6.154   5.932 -0.1815 -0.1718 -0.5834
  329MOL0     C45297  13.207   6.128   5.962 -0.1961  0.5302 -0.2870
  329MOL0     C45298  13.272   6.214   6.051  0.2045  0.3029  0.3767
  329MOL0     C45299  13.208   6.313   6.119  0.7849  0.0905  0.7019
  329MOL0     O45300  13.267   6.397   6.209  0.2831  0.3907 -0.0840
  329MOL0     C45301  13.409   6.378   6.233 -0.0093 -0.0219 -0.2882
  329MOL0     C45302  13.467   6.471   6.335 -0.1719 -0.7847 -0.6275
  329MOL0     C45303  13.479   6.607   6.275 -0.4555 -0.4749 -0.8313
  329MOL0     C45304  13.540   6.711   6.363 -0.3441 -0.3114  1.1195
  329MOL0     C45305  13.693   6.696   6.386 -0.0417 -1.0993  0.1933
  329MOL0     C45306  13.740   6.803   6.491  0.2631 -0.1695  0.3037
  329MOL0     C45307  13.753   6.942   6.428 -0.2508  0.4205  0.1287
  329MOL0     C45308  13.835   7.035   6.515  0.2269  0.3411  0.0088
  329MOL0    Cl45309  13.784   7.020   6.688 -0.1364 -0.0983  0.2931
  329MOL0     C45310  13.073   6.337   6.088  0.0543 -0.0385 -0.9397
  329MOL0     C45311  13.003   6.253   5.998  0.1440 -0.4179 -0.2427
  329MOL0     O45312  12.789   6.112   5.865  0.1613 -0.9691  0.1091
  329MOL0     C45313  12.959   5.809   5.774  0.4629  0.2524 -0.1430
  329MOL0     C45314  12.939   5.682   5.723 -0.4799  0.1337 -0.0179
  329MOL0     N45315  12.284   5.292   6.086 -0.0509 -0.4871  0.3171
  329MOL0     N45316  12.181   5.212   6.078 -0.4699 -0.6867  0.9552
  329MOL0     C45317  11.159   4.676   5.840  0.5104  0.2919  0.8285
  329MOL0     C45318  11.056   4.601   5.903  0.4534  0.5463 -0.0416
  329MOL0     C45319  10.740   4.415   6.141 -0.2241  0.2025 -0.2161
  329MOL0     C45320  10.611   4.385   6.099  0.1589 -0.3474  0.1623
  329MOL0     C45321  10.525   4.303   6.176  0.2840  0.4991 -0.4140
  329MOL0     C45322  10.567   4.242   6.289  0.5600  0.5222  0.3517
  329MOL0     O45323  10.493   4.145   6.353  0.1481  0.5548 -0.7356
  329MOL0     C45324  10.360   4.181   6.392 -0.5982 -1.0902  0.3074
  329MOL0     C45325  10.303   4.088   6.498  0.2891  0.6242 -0.6247
  329MOL0     C45326  10.253   3.955   6.462  0.2171 -0.1392  0.1848
  329MOL0     C45327  10.371   3.857   6.421  1.2106  0.0748  0.1555
  329MOL0     C45328  10.329   3.749   6.341  0.7643  0.5341  0.4351
  329MOL0     C45329  10.299   3.647   6.287  0.5529 -0.3852  0.0901
  329MOL0     C45330  10.690   4.266   6.332 -1.0567  0.3828 -0.7519
  329MOL0     C45331  10.785   4.344   6.261 -0.0629 -1.1208 -0.0033
  329MOL0     C45332  10.919   4.363   6.334  0.1693  0.2131  0.1366
  329MOL0     H45333  11.106   4.739   6.214 -1.1603  2.6527 -0.9632
  329MOL0     H45334  11.265   4.866   6.102 -1.1275  0.7336  0.5782
  329MOL0     H45335  11.485   4.859   5.950 -0.2021  0.7897  0.7362
  329MOL0     H45336  11.390   5.000   5.918  0.2032 -1.3616  2.6300
  329MOL0     H45337  11.567   4.866   5.705  2.6819  1.4164  1.1726
  329MOL0     H45338  11.472   5.004   5.670  3.2969 -0.0501 -2.2776
  329MOL0     H45339  11.615   5.131   5.844  0.2959  0.4271  0.0838
  329MOL0     H45340  11.694   4.974   5.872 -2.6285 -0.1755  0.6635
  329MOL0     H45341  11.670   5.080   5.583  1.3192 -1.6223 -0.8679
  329MOL0     H45342  11.767   5.180   5.706  0.1588  0.3187 -0.3615
  329MOL0     H45343  11.886   5.040   5.548  1.1723 -0.7334  0.6433
  329MOL0     H45344  11.802   4.894   5.593 -0.1075 -0.6129  0.0350
  329MOL0     H45345  11.908   4.903   5.819 -1.2420  0.6970  0.6212
  329MOL0     H45346  12.014   4.890   5.684  1.8491  1.6667  2.5231
  329MOL0     H45347  11.948   5.160   5.817  0.2315 -1.9957  1.1195
  329MOL0     H45348  12.073   5.134   5.700 -1.4355  0.0672 -0.4275
  329MOL0     H45349  12.048   4.997   5.987  1.2019 -1.6426 -0.8268
  329MOL0     H45350  12.185   4.980   5.876  1.2626  0.5241 -0.1323
  329MOL0     H45351  12.319   5.189   5.782  0.1942  2.8346 -0.4891
  329MOL0     H45352  12.491   5.431   6.037  1.7731 -1.0618 -0.2558
  329MOL0     H45353  12.446   5.471   5.874 -1.1323  0.2800  1.0825
  329MOL0     H45354  12.648   5.261   5.971 -0.8623 -1.8600 -0.7035
  329MOL0     H45355  12.577   5.222   5.823  2.4376  0.3686 -0.2438
  329MOL0     H45356  12.723   5.490   5.898  1.1682  0.1742 -0.3390
  329MOL0     H45357  12.789   5.361   5.798 -1.7434 -1.4325 -3.1570
  329MOL0     H45358  12.628   5.390   5.622  0.3467 -0.5892 -0.2901
  329MOL0     H45359  12.578   5.542   5.709  2.7133  2.0157  1.5805
  329MOL0     H45360  12.616   5.719   5.606 -0.5767  1.6711  0.2774
  329MOL0     H45361  12.637   6.062   5.629 -0.8963 -0.6060 -0.8608
  329MOL0     H45362  12.580   6.006   5.789 -1.7384  0.7699 -0.8266
  329MOL0     H45363  12.533   5.920   5.643 -0.1693 -0.7972  0.4655
  329MOL0     H45364  13.247   6.037   5.919  0.3496  0.1709  0.9187
  329MOL0     H45365  13.377   6.189   6.067  0.7709 -0.0651 -3.1968
  329MOL0     H45366  13.408   6.275   6.268  0.1788  0.2719  0.5946
  329MOL0     H45367  13.461   6.377   6.136 -0.4958 -0.9612 -0.5485
  329MOL0     H45368  13.424   6.475   6.436 -0.4609  2.5536 -0.7896
  329MOL0     H45369  13.567   6.429   6.353 -0.8174 -2.0711  0.1466
  329MOL0     H45370  13.382   6.649   6.244  0.1518  1.8229  0.1941
  329MOL0     H45371  13.547   6.586   6.193  0.3343 -0.0508 -0.2942
  329MOL0     H45372  13.484   6.709   6.457 -1.9335  3.6101  0.4745
  329MOL0     H45373  13.516   6.810   6.322 -1.1145 -0.4297  1.2684
  329MOL0     H45374  13.718   6.597   6.425 -0.2568 -0.8748  0.9081
  329MOL0     H45375  13.746   6.696   6.291  3.8390 -2.6827  2.1542
  329MOL0     H45376  13.835   6.766   6.531 -1.0117 -1.1375  2.6528
  329MOL0     H45377  13.675   6.808   6.579 -2.3322 -0.3552 -1.4931
  329MOL0     H45378  13.651   6.981   6.424 -0.4672 -0.1294  0.1745
  329MOL0     H45379  13.798   6.936   6.328  1.3485 -0.5753  0.8688
  329MOL0     H45380  13.819   7.139   6.484 -1.1815 -0.5930 -2.6667
  329MOL0     H45381  13.941   7.008   6.509  0.7327  1.9395  0.9293
  329MOL0     H45382  13.011   6.409   6.140 -1.8635  1.0341 -4.3971
  329MOL0     H45383  12.897   6.272   5.994 -0.0550 -1.5424 -0.6522
  329MOL0     H45384  13.055   5.829   5.821  0.4262  0.0290  0.0303
  329MOL0     H45385  13.018   5.608   5.728 -0.6060  0.0697  1.2424
  329MOL0     H45386  11.172   4.658   5.733  0.0478 -2.1381  1.1247
  329MOL0     H45387  10.996   4.535   5.842 -0.4425  1.7605 -0.5088
  329MOL0     H45388  10.563   4.442   6.020 -0.6102  3.6792  3.1665
  329MOL0     H45389  10.420   4.288   6.152 -0.2883  1.4320  1.2887
  329MOL0     H45390  10.354   4.283   6.432 -2.6924 -1.2623  0.5458
  329MOL0     H45391  10.298   4.177   6.302  0.8941 -2.2188 -0.7154
  329MOL0     H45392  10.220   4.141   6.545 -0.1072 -0.6725  0.1745
  329MOL0     H45393  10.382   4.074   6.573  1.6216  0.5481 -1.9884
  329MOL0     H45394  10.197   3.908   6.543 -0.5485 -1.9576 -1.3264
  329MOL0     H45395  10.182   3.976   6.382  0.5793 -0.0547 -0.1196
  329MOL0     H45396  10.421   3.825   6.512  3.3210 -0.0984 -0.9950
  329MOL0     H45397  10.439   3.908   6.352 -1.1706 -1.1396 -3.4244
  329MOL0     H45398  10.281   3.549   6.246 -0.2089  1.2040 -3.7223
  329MOL0     H45399  10.717   4.203   6.417  2.7937  1.1295 -1.2564
  329MOL0     H45400  11.005   4.335   6.274  0.1497  0.4189  0.0107
  329MOL0     H45401  10.921   4.471   6.351 -1.8341  0.3318 -0.1064
  329MOL0     H45402  10.915   4.304   6.427 -3.0006 -0.8122 -0.5015
  330MOL0     O45403   8.660   7.568   2.265  0.0096  0.1313  0.4204
  330MOL0     C45404   8.611   7.457   2.290 -0.8027  1.2996 -0.6283
  330MOL0     O45405   8.645   7.374   2.398 -0.4044 -0.9220  0.8607
  330MOL0     C45406   8.733   7.422   2.488 -0.8244  0.2108 -0.4093
  330MOL0     C45407   8.867   7.399   2.467  0.1728 -0.2142 -0.4365
  330MOL0     C45408   8.962   7.416   2.571 -0.0860  0.2580  0.3905
  330MOL0     C45409   8.925   7.460   2.699  0.4345 -0.7167 -0.2086
  330MOL0     O45410   9.012   7.482   2.795 -0.3781 -0.6163  0.0381
  330MOL0     C45411   9.125   7.568   2.758 -1.2840 -0.1312  0.3412
  330MOL0     C45412   9.191   7.636   2.880  0.2853 -0.5790  0.2026
  330MOL0     C45413   9.087   7.731   2.941  0.1609 -0.6753  0.1523
  330MOL0     C45414   9.004   7.825   2.858 -0.4227 -0.0151  0.2351
  330MOL0     C45415   8.925   7.911   2.955  0.0052 -0.6298  0.1735
  330MOL0     C45416   8.820   8.006   2.911 -0.9859 -0.5363  0.2302
  330MOL0     C45417   8.779   8.114   3.014 -0.5969  0.2297 -0.1592
  330MOL0     C45418   8.659   8.194   2.991 -0.5743 -0.9141  0.1706
  330MOL0     N45419   8.665   8.285   2.872  0.7922  0.7224 -0.8481
  330MOL0     C45420   8.678   8.422   2.867  0.5129 -0.2821  0.9406
  330MOL0     C45421   8.656   8.450   2.736 -0.2978  0.9782 -0.0380
  330MOL0     C45422   8.641   8.587   2.670  0.0171 -0.1365  0.4227
  330MOL0     C45423   8.770   8.659   2.686  0.3873 -0.0549  0.0685
  330MOL0     C45424   8.766   8.799   2.615 -0.3654 -0.0857  0.2077
  330MOL0     C45425   8.903   8.862   2.613 -0.7688 -0.1989 -1.1304
  330MOL0     O45426   8.937   8.871   2.755 -0.5845  0.4465  1.0266
  330MOL0     C45427   9.044   8.940   2.786 -0.3724 -0.4167  0.2579
  330MOL0     C45428   9.033   9.042   2.880 -0.1537  0.1528 -0.4247
  330MOL0     C45429   9.146   9.112   2.933  0.7833  0.2782  0.0321
  330MOL0     C45430   9.132   9.228   3.034  0.0176  0.3416  0.2676
  330MOL0     C45431   9.275   9.075   2.885 -0.1378  0.8137 -0.4008
  330MOL0     C45432   9.405   9.129   2.937  0.3655 -0.5025  0.2295
  330MOL0     O45433   9.491   9.165   2.843  0.2142  0.2220 -0.5049
  330MOL0     C45434   9.613   9.220   2.873 -0.8169  0.5245 -0.5622
  330MOL0     C45435   9.728   9.148   2.843  0.1028  0.0908  0.2142
  330MOL0     C45436   9.852   9.219   2.854  0.2506  0.0449 -0.0257
  330MOL0     C45437   9.859   9.358   2.884 -0.9813  0.2066  0.2485
  330MOL0     O45438   9.987   9.420   2.881  0.5270 -0.3057  0.1937
  330MOL0     C45439   9.993   9.558   2.925 -0.3580  0.6823 -0.2828
  330MOL0     C45440  10.134   9.593   2.966 -0.5976 -0.6019 -0.0210
  330MOL0     C45441  10.244   9.547   2.864  0.4548 -0.2913  0.0369
  330MOL0     C45442  10.385   9.601   2.912 -0.0881 -0.1143 -0.4420
  330MOL0     C45443  10.493   9.576   2.798 -0.0281 -0.3190  0.6312
  330MOL0     C45444  10.626   9.623   2.854 -0.6273 -0.3105 -0.2100
  330MOL0     C45445  10.732   9.562   2.760  0.0630 -0.3108  0.1279
  330MOL0     C45446  10.874   9.572   2.821 -0.0467 -0.0544  0.1659
  330MOL0    Cl45447  11.002   9.513   2.708  0.5421  0.0902 -0.2434
  330MOL0     C45448   9.736   9.428   2.903 -1.6244 -0.7555 -0.6607
  330MOL0     C45449   9.615   9.358   2.907  0.6293  0.3476  0.9433
  330MOL0     O45450   9.431   9.112   3.058  0.1103 -0.5076  0.4677
  330MOL0     C45451   9.281   8.969   2.787  1.0295 -0.2453 -0.4756
  330MOL0     C45452   9.170   8.911   2.739  0.1090  0.4365  0.7536
  330MOL0     N45453   8.625   8.327   2.669  0.2804  0.3609  0.1696
  330MOL0     N45454   8.630   8.232   2.753  0.5520  0.0308  0.5974
  330MOL0     C45455   8.788   7.493   2.714  0.0439  0.9828 -0.0771
  330MOL0     C45456   8.693   7.481   2.608 -1.2292 -0.2765  0.7421
  330MOL0     C45457   8.508   7.407   2.212 -0.0054  0.2243  0.3472
  330MOL0     C45458   8.523   7.293   2.128 -0.2195 -0.0874  0.4131
  330MOL0     C45459   8.417   7.244   2.045  0.2961 -0.0990 -0.0938
  330MOL0     C45460   8.292   7.297   2.055 -0.9613 -0.9141  0.2139
  330MOL0     O45461   8.180   7.260   1.975  0.8653  0.8300  0.3602
  330MOL0     C45462   8.201   7.150   1.892  0.1201 -0.1732 -0.1054
  330MOL0     C45463   8.060   7.110   1.836 -0.1374 -0.5364 -0.3012
  330MOL0     C45464   8.068   7.011   1.710 -0.2403 -0.1039 -0.0398
  330MOL0     C45465   7.924   6.969   1.682 -0.4136 -0.3113  0.0440
  330MOL0     C45466   7.927   6.861   1.594  0.7497 -0.6040 -0.2241
  330MOL0     C45467   7.912   6.765   1.519 -0.5677  0.4050  0.1884
  330MOL0     C45468   8.278   7.412   2.139 -0.8195 -0.2852  0.4085
  330MOL0     C45469   8.387   7.471   2.211 -0.2825  0.4184 -0.3222
  330MOL0     C45470   8.349   7.593   2.286  0.1380  0.0436 -0.3477
  330MOL0     H45471   8.892   7.342   2.379  5.0952  1.0990 -0.1442
  330MOL0     H45472   9.067   7.389   2.563  0.2287  0.7516  2.2976
  330MOL0     H45473   9.100   7.648   2.688 -0.6591  0.3205  0.6289
  330MOL0     H45474   9.201   7.504   2.713 -2.4716 -1.2137 -0.1854
  330MOL0     H45475   9.219   7.559   2.953 -0.5466 -2.1689 -1.0725
  330MOL0     H45476   9.280   7.694   2.854  0.8174 -1.9207 -1.1768
  330MOL0     H45477   9.008   7.677   2.995 -3.1601  3.0468 -0.5509
  330MOL0     H45478   9.138   7.808   3.000  0.4008 -0.1476 -0.7225
  330MOL0     H45479   9.073   7.889   2.801  0.7399 -2.3652 -1.1753
  330MOL0     H45480   8.941   7.770   2.788 -0.2166 -0.3147  0.2797
  330MOL0     H45481   8.990   7.982   3.008 -0.4183 -0.2488  0.1844
  330MOL0     H45482   8.869   7.852   3.028 -0.0852 -1.1945 -0.3495
  330MOL0     H45483   8.844   8.056   2.817 -0.8748  2.3937  1.7292
  330MOL0     H45484   8.727   7.956   2.879 -3.0139  2.2605  1.3532
  330MOL0     H45485   8.856   8.190   3.027 -1.7610  1.6210 -1.0869
  330MOL0     H45486   8.755   8.070   3.111 -2.9849 -1.1611 -1.2808
  330MOL0     H45487   8.569   8.132   3.000 -0.6918 -1.0163 -1.4831
  330MOL0     H45488   8.641   8.263   3.074 -2.6488 -2.7695  1.3640
  330MOL0     H45489   8.686   8.493   2.948 -2.9794 -2.1860  3.1906
  330MOL0     H45490   8.561   8.652   2.707 -0.4229  0.5566 -1.5766
  330MOL0     H45491   8.622   8.573   2.563  5.2264 -1.7089 -0.5687
  330MOL0     H45492   8.778   8.674   2.794  1.8971 -0.6963  0.0650
  330MOL0     H45493   8.855   8.603   2.647  1.6543  3.3436 -2.4749
  330MOL0     H45494   8.743   8.779   2.510  0.2995 -1.7277  0.3506
  330MOL0     H45495   8.684   8.852   2.665 -3.1505 -0.3461 -3.6793
  330MOL0     H45496   8.982   8.805   2.564 -1.6878 -0.8419 -1.9021
  330MOL0     H45497   8.892   8.963   2.574  1.8861  1.1098  1.1209
  330MOL0     H45498   8.933   9.065   2.917  1.4243  0.8320  3.9780
  330MOL0     H45499   9.131   9.183   3.133  1.2130  0.2130  0.2252
  330MOL0     H45500   9.045   9.292   3.011  0.3037  1.1198  1.3028
  330MOL0     H45501   9.214   9.300   3.034  0.0490  0.3059  0.2564
  330MOL0     H45502   9.738   9.041   2.822 -1.0766 -0.3060  1.5761
  330MOL0     H45503   9.944   9.166   2.828  1.6968  0.9319  2.8578
  330MOL0     H45504   9.961   9.614   2.837 -1.2767 -0.3372 -0.6191
  330MOL0     H45505   9.932   9.576   3.014 -0.4416 -1.9009  0.2602
  330MOL0     H45506  10.142   9.701   2.981 -0.1177 -0.8305  1.5032
  330MOL0     H45507  10.164   9.542   3.058  1.0681 -0.3117 -0.3744
  330MOL0     H45508  10.223   9.586   2.764 -2.1511 -2.5474 -0.4088
  330MOL0     H45509  10.252   9.437   2.862  0.3585 -0.2925 -0.8934
  330MOL0     H45510  10.430   9.543   2.993  0.3534 -3.8197 -3.1046
  330MOL0     H45511  10.370   9.705   2.944 -2.7809 -0.8460  0.9842
  330MOL0     H45512  10.496   9.470   2.771  1.8375 -0.1457  0.0418
  330MOL0     H45513  10.462   9.636   2.712  0.1979 -1.1443 -0.0349
  330MOL0     H45514  10.644   9.585   2.956 -0.9780 -1.0157 -0.4026
  330MOL0     H45515  10.619   9.732   2.860  1.9029 -0.1454  2.2165
  330MOL0     H45516  10.736   9.609   2.661 -1.9297 -2.2211 -0.9342
  330MOL0     H45517  10.707   9.457   2.746 -1.6017  0.0290  0.4049
  330MOL0     H45518  10.885   9.520   2.917  0.8630  1.3680  0.8666
  330MOL0     H45519  10.901   9.677   2.833 -1.2930  0.1667  1.1999
  330MOL0     H45520   9.739   9.536   2.911  1.7159 -0.8091  0.6054
  330MOL0     H45521   9.527   9.416   2.931 -1.0788 -2.7076  2.7407
  330MOL0     H45522   9.375   8.923   2.757  0.4847 -0.5281 -1.8390
  330MOL0     H45523   9.185   8.824   2.676  4.2427  1.6800 -0.3036
  330MOL0     H45524   8.762   7.542   2.807  0.1542  0.8528  0.0233
  330MOL0     H45525   8.588   7.502   2.626 -1.9856 -2.2006 -0.9968
  330MOL0     H45526   8.618   7.241   2.130  0.0898  0.4411  2.5120
  330MOL0     H45527   8.440   7.154   1.990  1.5108  1.0823 -1.5713
  330MOL0     H45528   8.275   7.170   1.814  1.0024  0.7386  0.9471
  330MOL0     H45529   8.246   7.076   1.958 -2.0550 -3.3102 -1.8355
  330MOL0     H45530   8.016   7.201   1.793  2.0940  0.7726  0.0423
  330MOL0     H45531   8.000   7.067   1.917  0.9370 -1.1940  0.1632
  330MOL0     H45532   8.113   7.060   1.623 -1.2882 -2.0964 -1.8000
  330MOL0     H45533   8.125   6.921   1.736 -1.0762 -0.2896  1.2893
  330MOL0     H45534   7.869   7.053   1.638 -1.3002  0.2280  2.0736
  330MOL0     H45535   7.874   6.936   1.773 -0.0390  2.4168  1.3416
  330MOL0     H45536   7.891   6.692   1.443  0.6110  0.9176 -0.6536
  330MOL0     H45537   8.180   7.460   2.135  0.0170  1.6479  1.5101
  330MOL0     H45538   8.419   7.628   2.362 -0.4039  0.6609 -0.1175
  330MOL0     H45539   8.358   7.669   2.208  2.0755 -0.2391 -0.4447
  330MOL0     H45540   8.248   7.585   2.327 -0.1833 -0.0700 -1.1535
  331MOL0     O45541   6.835   3.327   2.396  0.0889  0.6263  0.2520
  331MOL0     C45542   6.717   3.362   2.417  0.1742 -0.4960 -0.0959
  331MOL0     O45543   6.679   3.496   2.406 -0.3468 -0.2677 -0.1531
  331MOL0     C45544   6.776   3.581   2.362 -0.3980 -1.3477  0.1364
  331MOL0     C45545   6.811   3.699   2.436 -0.3071  0.8515  0.2172
  331MOL0     C45546   6.901   3.789   2.373  0.8017  0.1749  0.0526
  331MOL0     C45547   6.962   3.761   2.246 -0.1737 -0.6391  0.1981
  331MOL0     O45548   7.016   3.856   2.167  0.0409 -0.5347 -0.0699
  331MOL0     C45549   7.120   3.926   2.230 -0.4090 -0.2391 -0.6063
  331MOL0     C45550   7.250   3.843   2.215 -0.5387  0.0270 -0.7502
  331MOL0     C45551   7.379   3.902   2.286 -0.4776  0.2888  0.1135
  331MOL0     C45552   7.369   3.870   2.438 -0.1595 -0.4727  0.1266
  331MOL0     C45553   7.500   3.869   2.519  0.3490 -0.9690 -0.4859
  331MOL0     C45554   7.598   3.986   2.493 -0.2149  0.0443 -0.2258
  331MOL0     C45555   7.697   4.006   2.611 -1.1932 -0.9593  0.2234
  331MOL0     C45556   7.824   3.921   2.604  1.2635  0.2160  0.1666
  331MOL0     N45557   7.910   3.958   2.491  0.0362 -0.0098  0.3303
  331MOL0     C45558   7.991   3.876   2.418  0.1964 -0.4439 -1.2022
  331MOL0     C45559   8.058   3.965   2.346 -0.5273 -0.1942  0.6088
  331MOL0     C45560   8.168   3.932   2.247  0.1746  0.8247 -0.7378
  331MOL0     C45561   8.298   3.918   2.323 -0.8967  0.2881 -0.5581
  331MOL0     C45562   8.301   3.778   2.394 -0.1772 -0.5619 -0.8335
  331MOL0     C45563   8.443   3.760   2.459  0.1268 -0.1129 -1.0663
  331MOL0     O45564   8.552   3.734   2.373  0.2874  0.3118  0.2538
  331MOL0     C45565   8.664   3.784   2.433  0.2881 -0.3909  0.2889
  331MOL0     C45566   8.725   3.711   2.534 -0.4857  0.1226 -0.3317
  331MOL0     C45567   8.845   3.752   2.585 -0.2324 -0.1961 -0.0809
  331MOL0     C45568   8.889   3.678   2.708  0.2479  0.1878  0.4584
  331MOL0     C45569   8.921   3.859   2.523 -0.7929 -0.3429 -0.3010
  331MOL0     C45570   9.062   3.892   2.553 -0.3686  0.1898  0.4712
  331MOL0     O45571   9.117   3.995   2.479  0.2691 -0.5877 -0.4527
  331MOL0     C45572   9.248   4.039   2.508 -0.4648  0.1436  0.0659
  331MOL0     C45573   9.349   4.037   2.411 -0.2814  0.3483 -0.6198
  331MOL0     C45574   9.479   4.100   2.436 -0.6797  0.3673  0.6886
  331MOL0     C45575   9.504   4.155   2.559 -0.5896 -0.5939  0.6092
  331MOL0     O45576   9.630   4.219   2.568  0.1443 -0.4557 -0.2370
  331MOL0     C45577   9.722   4.151   2.665  0.7917 -0.2296 -1.1405
  331MOL0     C45578   9.792   4.043   2.577  1.0183 -0.8516 -0.4576
  331MOL0     C45579   9.891   4.107   2.485  0.3105 -0.7286 -1.1682
  331MOL0     C45580  10.010   4.159   2.572  0.1364 -0.3002  0.6476
  331MOL0     C45581  10.111   4.207   2.465 -0.1901  0.1361 -0.1004
  331MOL0     C45582  10.222   4.293   2.527  0.0950  0.4998  0.4394
  331MOL0     C45583  10.174   4.440   2.540 -0.1301  0.3980  0.2282
  331MOL0     C45584  10.275   4.516   2.618  0.4621  0.7069  0.5857
  331MOL0    Cl45585  10.269   4.490   2.800  0.0146 -0.1805  0.0755
  331MOL0     C45586   9.402   4.153   2.659  0.0358  0.7296 -0.1137
  331MOL0     C45587   9.281   4.086   2.630 -0.3938 -0.4105 -0.0792
  331MOL0     O45588   9.117   3.838   2.648 -0.0386  0.0040 -0.4487
  331MOL0     C45589   8.849   3.929   2.418 -0.7180  0.0017 -0.6421
  331MOL0     C45590   8.720   3.894   2.377  0.8759 -0.7226 -0.5617
  331MOL0     N45591   8.012   4.088   2.358  0.4948 -0.0018 -0.5086
  331MOL0     N45592   7.921   4.082   2.445 -0.3784  0.2234 -0.2699
  331MOL0     C45593   6.931   3.641   2.184  0.0491 -0.4289  0.2131
  331MOL0     C45594   6.832   3.562   2.236  1.1061  0.0311  0.8135
  331MOL0     C45595   6.630   3.260   2.469 -0.0626  0.1092 -0.4082
  331MOL0     C45596   6.604   3.148   2.388  0.8310 -0.0217  0.2279
  331MOL0     C45597   6.533   3.043   2.435  0.4395 -0.2354 -0.1188
  331MOL0     C45598   6.466   3.046   2.559  0.5282 -0.6706  0.5186
  331MOL0     O45599   6.394   2.942   2.604 -0.1179  0.3753  0.2890
  331MOL0     C45600   6.282   2.966   2.689  0.6206 -0.4134 -0.5049
  331MOL0     C45601   6.312   2.904   2.831  0.1268  0.6257  0.3843
  331MOL0     C45602   6.192   2.918   2.917  0.1356 -0.0009 -0.9307
  331MOL0     C45603   6.214   2.843   3.055  0.5939  1.0780  0.1100
  331MOL0     C45604   6.324   2.892   3.142 -0.2234 -0.5538  0.4297
  331MOL0     C45605   6.415   2.929   3.208  0.8013 -0.1460 -0.7425
  331MOL0     C45606   6.490   3.161   2.642  0.4574  0.4834  0.2602
  331MOL0     C45607   6.566   3.267   2.599 -0.3110 -0.4586  0.1640
  331MOL0     C45608   6.599   3.377   2.696  0.1952 -0.2573  0.0374
  331MOL0     H45609   6.759   3.722   2.528  0.3023 -0.4697  0.9037
  331MOL0     H45610   6.916   3.883   2.423 -0.3546  0.1162  0.5279
  331MOL0     H45611   7.099   3.945   2.336  0.2560  0.4664 -0.5988
  331MOL0     H45612   7.130   4.028   2.193 -0.9129  0.9558  2.2991
  331MOL0     H45613   7.235   3.745   2.261 -2.6914 -0.3460 -2.1219
  331MOL0     H45614   7.264   3.834   2.107  1.2294  4.2933 -1.0803
  331MOL0     H45615   7.472   3.854   2.253 -1.5444 -0.3723 -2.1573
  331MOL0     H45616   7.386   4.010   2.273 -0.4909  0.4432  1.2724
  331MOL0     H45617   7.301   3.941   2.486 -2.6467 -1.8790 -1.0891
  331MOL0     H45618   7.322   3.771   2.432 -0.3758 -0.2769 -2.1049
  331MOL0     H45619   7.549   3.772   2.508  0.4119 -0.8670 -1.1527
  331MOL0     H45620   7.478   3.870   2.626  2.1246 -2.4673 -0.0497
  331MOL0     H45621   7.654   3.959   2.403 -0.0549 -0.7333  0.0999
  331MOL0     H45622   7.541   4.079   2.481  0.4626  0.8950  2.4674
  331MOL0     H45623   7.638   4.002   2.703 -0.7555  1.4184  0.7010
  331MOL0     H45624   7.739   4.108   2.613  0.9692 -1.7956  1.7307
  331MOL0     H45625   7.891   3.917   2.690  2.7304  0.7232 -0.9126
  331MOL0     H45626   7.789   3.820   2.580 -0.6431  0.8753  0.0425
  331MOL0     H45627   7.997   3.768   2.427 -2.5487 -0.8966 -3.4107
  331MOL0     H45628   8.173   4.016   2.177  0.5670  1.9453  0.5611
  331MOL0     H45629   8.149   3.838   2.195 -1.5291 -0.5150  2.0552
  331MOL0     H45630   8.380   3.925   2.252  0.5546 -1.6284  0.8013
  331MOL0     H45631   8.312   4.006   2.387 -2.0285  1.6888 -2.1752
  331MOL0     H45632   8.233   3.784   2.480 -0.1071 -5.1775 -0.2183
  331MOL0     H45633   8.290   3.683   2.342  0.8953 -1.6395  0.7983
  331MOL0     H45634   8.457   3.842   2.530 -1.8858 -2.5000  2.4097
  331MOL0     H45635   8.445   3.677   2.531  2.1772  1.0974  0.3792
  331MOL0     H45636   8.671   3.625   2.573 -0.6786 -1.3818 -3.5752
  331MOL0     H45637   8.832   3.585   2.725  1.1809 -0.7374 -1.2108
  331MOL0     H45638   8.870   3.732   2.801 -2.0111 -0.9403  0.7388
  331MOL0     H45639   8.991   3.642   2.693  0.1202  0.3366 -0.8954
  331MOL0     H45640   9.314   4.000   2.316 -1.6169 -1.6764  0.5893
  331MOL0     H45641   9.542   4.102   2.347 -1.5944  1.4495  0.0369
  331MOL0     H45642   9.785   4.223   2.719 -0.4536 -0.4535  0.7359
  331MOL0     H45643   9.674   4.097   2.747 -0.5233 -0.4095 -2.0011
  331MOL0     H45644   9.842   3.969   2.640 -0.5222 -2.5534 -1.1286
  331MOL0     H45645   9.717   3.988   2.519  1.6391  0.2005 -2.3514
  331MOL0     H45646   9.838   4.189   2.437 -1.0603 -0.0003  1.4301
  331MOL0     H45647   9.923   4.032   2.412  0.8223 -2.2321  0.5032
  331MOL0     H45648  10.058   4.074   2.620  2.0630 -0.3515 -1.1960
  331MOL0     H45649   9.977   4.241   2.636 -1.2677 -1.8351  1.9853
  331MOL0     H45650  10.156   4.125   2.407 -1.0488  0.9454 -1.9834
  331MOL0     H45651  10.063   4.257   2.381  1.6258 -0.6229 -1.6656
  331MOL0     H45652  10.309   4.281   2.462  0.4950 -0.5746  1.1367
  331MOL0     H45653  10.247   4.253   2.626 -0.4453 -0.9070  0.0408
  331MOL0     H45654  10.080   4.435   2.596  1.1567 -2.2303  2.4382
  331MOL0     H45655  10.163   4.486   2.442 -2.7783 -0.8529 -0.1332
  331MOL0     H45656  10.267   4.622   2.594 -1.3383  0.2270 -1.1934
  331MOL0     H45657  10.369   4.469   2.585  0.3208  1.6090 -1.2415
  331MOL0     H45658   9.430   4.209   2.748 -0.6951  1.1695 -0.1501
  331MOL0     H45659   9.204   4.085   2.706 -1.7418  0.4567 -1.3957
  331MOL0     H45660   8.909   4.000   2.362 -1.1624  0.1650 -0.9096
  331MOL0     H45661   8.675   3.944   2.292 -2.5428  0.0900  1.5388
  331MOL0     H45662   6.966   3.606   2.088 -2.7845  1.9321 -1.8550
  331MOL0     H45663   6.806   3.473   2.180  0.5057  1.5014 -1.3637
  331MOL0     H45664   6.650   3.128   2.292 -3.1836 -4.4338 -1.1690
  331MOL0     H45665   6.527   2.951   2.377 -1.4626 -0.5726  0.5589
  331MOL0     H45666   6.246   3.069   2.690 -1.6685 -1.1580  0.0107
  331MOL0     H45667   6.193   2.917   2.648  0.7610  0.4059 -1.8533
  331MOL0     H45668   6.389   2.971   2.868  0.6141  1.3118 -1.7174
  331MOL0     H45669   6.338   2.798   2.828 -0.4293  0.3437  3.3298
  331MOL0     H45670   6.193   3.025   2.942 -0.0033  0.1981 -1.7466
  331MOL0     H45671   6.098   2.879   2.876  0.2232 -0.2522 -0.8900
  331MOL0     H45672   6.235   2.736   3.042  3.8890  1.3355  2.1304
  331MOL0     H45673   6.119   2.840   3.110 -0.5117  1.4423 -1.7242
  331MOL0     H45674   6.485   2.970   3.277 -0.3755 -0.7922  0.9125
  331MOL0     H45675   6.451   3.158   2.744  0.2539  1.4895  0.2203
  331MOL0     H45676   6.519   3.449   2.676  0.0320 -0.5419 -0.3509
  331MOL0     H45677   6.587   3.354   2.802 -1.5278  2.5623  0.5712
  331MOL0     H45678   6.699   3.420   2.683 -0.6620  1.6033 -0.7004
  332MOL0     O45679   5.440   7.313   5.243 -0.3560  0.2769 -0.7831
  332MOL0     C45680   5.447   7.431   5.206  0.2498 -0.0964  0.3057
  332MOL0     O45681   5.540   7.525   5.244  0.4116 -0.3122  0.7475
  332MOL0     C45682   5.632   7.477   5.331 -0.3615 -0.5543 -0.6462
  332MOL0     C45683   5.759   7.452   5.286  0.5817 -0.9348 -0.1093
  332MOL0     C45684   5.868   7.430   5.371  0.8069  0.1872  0.7297
  332MOL0     C45685   5.859   7.430   5.511 -0.3691  0.3226 -0.6524
  332MOL0     O45686   5.970   7.397   5.588  0.0692 -0.1053 -0.3401
  332MOL0     C45687   5.945   7.317   5.707  0.8077  0.3001  0.9618
  332MOL0     C45688   6.076   7.277   5.769 -0.5479  0.2830  0.5493
  332MOL0     C45689   6.199   7.370   5.767 -0.6405  0.1743  0.4663
  332MOL0     C45690   6.168   7.505   5.825  0.5143  0.3424 -0.5554
  332MOL0     C45691   6.297   7.592   5.817 -0.0524 -0.5392 -0.2694
  332MOL0     C45692   6.260   7.744   5.824 -0.3581  0.6546 -0.0871
  332MOL0     C45693   6.375   7.835   5.805 -0.0711  0.2765 -0.0360
  332MOL0     C45694   6.352   7.978   5.845 -0.4417 -0.4173  0.0454
  332MOL0     N45695   6.478   8.063   5.847  0.4146 -0.0462  1.1390
  332MOL0     C45696   6.580   8.052   5.753  1.0472  0.0483  0.3312
  332MOL0     C45697   6.672   8.141   5.804  0.3071 -0.3972  0.9248
  332MOL0     C45698   6.813   8.174   5.748 -0.1915  0.5298  0.4819
  332MOL0     C45699   6.907   8.059   5.792 -1.1107  0.1291 -0.3904
  332MOL0     C45700   7.048   8.097   5.746 -0.2298 -0.0670 -0.3760
  332MOL0     C45701   7.143   8.008   5.827 -0.0865 -0.3404 -0.3240
  332MOL0     O45702   7.270   8.061   5.791  0.3352 -0.4479 -0.1969
  332MOL0     C45703   7.376   8.007   5.853 -0.2397 -0.1122  0.4941
  332MOL0     C45704   7.488   8.087   5.873  0.2431 -0.2831 -0.8309
  332MOL0     C45705   7.593   8.051   5.943 -1.3364 -0.4445  0.3392
  332MOL0     C45706   7.708   8.157   5.959 -0.1684 -0.4100 -0.1599
  332MOL0     C45707   7.598   7.919   5.997  0.7968 -0.3288 -0.3204
  332MOL0     C45708   7.707   7.865   6.082  0.2026 -0.2491  0.1262
  332MOL0     O45709   7.685   7.756   6.162  0.1113  0.8278 -0.6047
  332MOL0     C45710   7.787   7.703   6.231  0.2196  0.3708 -0.6535
  332MOL0     C45711   7.832   7.763   6.351 -0.1331  0.7397 -0.7355
  332MOL0     C45712   7.934   7.700   6.416  0.4376  0.2924  0.1057
  332MOL0     C45713   7.991   7.578   6.373 -1.3042 -0.1205  0.0408
  332MOL0     O45714   8.097   7.513   6.426  0.0906  0.1097 -0.9741
  332MOL0     C45715   8.182   7.585   6.518 -0.1604  0.2541 -0.4398
  332MOL0     C45716   8.292   7.488   6.557  0.1077  0.3438 -0.2526
  332MOL0     C45717   8.396   7.555   6.647  0.2543 -0.7338  0.5011
  332MOL0     C45718   8.498   7.451   6.705  0.3934 -0.5332  0.2839
  332MOL0     C45719   8.618   7.507   6.782  0.5805 -0.3874 -0.0011
  332MOL0     C45720   8.571   7.614   6.889 -0.0765 -0.0824 -0.2348
  332MOL0     C45721   8.690   7.656   6.970  0.2549  0.3388  0.0210
  332MOL0     C45722   8.640   7.769   7.066  0.0458 -0.6965  0.0442
  332MOL0    Cl45723   8.537   7.703   7.200  0.0533  0.0691 -0.3426
  332MOL0     C45724   7.950   7.518   6.254 -0.4598  0.7591 -0.1471
  332MOL0     C45725   7.838   7.573   6.194  0.1422 -0.4681 -0.2170
  332MOL0     O45726   7.818   7.918   6.063  0.0747  0.2376  0.3711
  332MOL0     C45727   7.492   7.832   5.975 -0.4938 -0.2848  0.4163
  332MOL0     C45728   7.382   7.870   5.902  0.3690 -1.0735 -0.7235
  332MOL0     N45729   6.616   8.212   5.914 -0.0434  0.2191  0.0966
  332MOL0     N45730   6.501   8.160   5.937  0.0523 -0.0929  0.2513
  332MOL0     C45731   5.726   7.443   5.557  0.7693 -0.4811 -0.2424
  332MOL0     C45732   5.614   7.475   5.474  0.9391  0.3738 -0.2981
  332MOL0     C45733   5.341   7.475   5.116 -0.3611 -1.1024 -1.3545
  332MOL0     C45734   5.324   7.618   5.115 -0.0976 -0.5305  0.0811
  332MOL0     C45735   5.219   7.665   5.047  0.1198 -0.0745  0.4431
  332MOL0     C45736   5.134   7.583   4.955  0.6496  0.0590 -0.4367
  332MOL0     O45737   5.029   7.650   4.883 -0.7931  0.4563  0.3607
  332MOL0     C45738   4.955   7.745   4.957  0.2664 -0.3999 -0.0763
  332MOL0     C45739   4.805   7.725   4.928  0.0036  0.2573  0.1955
  332MOL0     C45740   4.732   7.616   5.005  0.4004  0.6962 -0.5843
  332MOL0     C45741   4.593   7.592   4.956  0.1209 -0.0985  0.1132
  332MOL0     C45742   4.543   7.491   5.050 -0.2119  0.8615 -0.8203
  332MOL0     C45743   4.509   7.407   5.137 -0.4911 -0.4961 -0.8637
  332MOL0     C45744   5.170   7.452   4.942  0.3811  0.6346 -0.0437
  332MOL0     C45745   5.268   7.395   5.023  0.4685 -0.4593  0.3537
  332MOL0     C45746   5.300   7.252   5.006  0.1806 -0.2955 -0.3568
  332MOL0     H45747   5.770   7.438   5.179 -0.4817 -2.3629 -0.0711
  332MOL0     H45748   5.966   7.408   5.331  0.6995  0.2418  0.4315
  332MOL0     H45749   5.882   7.230   5.688  1.1799  0.4832 -1.4366
  332MOL0     H45750   5.894   7.376   5.784  1.1928  1.9912 -0.0143
  332MOL0     H45751   6.062   7.258   5.876  0.2576 -0.8815  0.4702
  332MOL0     H45752   6.098   7.185   5.715  2.2675 -0.4725  2.7601
  332MOL0     H45753   6.281   7.332   5.829  0.3186  0.5078 -0.5677
  332MOL0     H45754   6.239   7.368   5.665 -3.4080 -0.1723 -0.6994
  332MOL0     H45755   6.095   7.561   5.767 -1.7139  0.3819  2.1205
  332MOL0     H45756   6.131   7.500   5.927  2.3267  0.2371  0.1316
  332MOL0     H45757   6.350   7.562   5.727  0.7976 -3.3583  1.0532
  332MOL0     H45758   6.353   7.571   5.909 -0.0359  0.9205  0.0885
  332MOL0     H45759   6.181   7.766   5.751  0.5821 -2.1732 -2.1530
  332MOL0     H45760   6.227   7.765   5.926  1.7245  2.7791  0.2341
  332MOL0     H45761   6.405   7.837   5.700  3.0857  2.6532  0.7567
  332MOL0     H45762   6.458   7.799   5.866 -1.0239  0.4660  1.4251
  332MOL0     H45763   6.280   8.022   5.776 -0.2393 -2.7774 -1.7754
  332MOL0     H45764   6.320   7.986   5.950 -0.2571  1.7989 -0.0106
  332MOL0     H45765   6.592   7.983   5.670 -0.1339 -0.5797  0.6718
  332MOL0     H45766   6.839   8.272   5.789 -0.9341  0.3336  1.4845
  332MOL0     H45767   6.816   8.186   5.640  2.3238 -1.7494  0.1802
  332MOL0     H45768   6.898   8.036   5.899 -3.1989  0.9335 -0.3463
  332MOL0     H45769   6.879   7.969   5.736 -1.3890 -1.9288  2.7768
  332MOL0     H45770   7.061   8.091   5.638 -0.7218  0.4683 -0.4737
  332MOL0     H45771   7.054   8.195   5.793 -0.3166 -0.5276  0.6263
  332MOL0     H45772   7.131   8.019   5.935  0.8579 -0.8788 -0.1581
  332MOL0     H45773   7.133   7.902   5.802 -0.5467 -1.3000  3.3072
  332MOL0     H45774   7.472   8.183   5.827 -1.2220 -0.1525 -0.1246
  332MOL0     H45775   7.795   8.136   5.896 -0.1110 -2.8744  0.6251
  332MOL0     H45776   7.755   8.158   6.058  2.9928  1.0406 -1.5395
  332MOL0     H45777   7.672   8.259   5.944 -0.3736 -0.8514 -3.6884
  332MOL0     H45778   7.796   7.862   6.376  4.5561  3.1660 -2.3588
  332MOL0     H45779   7.975   7.737   6.510  0.2074 -3.8742  2.0559
  332MOL0     H45780   8.230   7.667   6.463  1.3899  1.2516  2.2208
  332MOL0     H45781   8.131   7.620   6.608  3.3935  0.1741  1.7971
  332MOL0     H45782   8.243   7.405   6.608  0.1725 -0.1866 -1.0282
  332MOL0     H45783   8.351   7.450   6.473  1.3867  2.0717 -0.1915
  332MOL0     H45784   8.343   7.609   6.726  0.4695  2.7017 -1.5402
  332MOL0     H45785   8.446   7.633   6.590 -1.0893 -1.8031 -2.3014
  332MOL0     H45786   8.533   7.391   6.620 -0.0827 -0.1168 -0.2154
  332MOL0     H45787   8.442   7.380   6.767  0.7357 -1.6300 -0.6252
  332MOL0     H45788   8.662   7.425   6.839 -0.8880 -1.2639 -0.0516
  332MOL0     H45789   8.697   7.555   6.724  0.1465 -2.0756 -2.1485
  332MOL0     H45790   8.491   7.580   6.957  0.3264 -0.8751 -0.1461
  332MOL0     H45791   8.535   7.703   6.838 -2.1231 -1.5094 -1.4385
  332MOL0     H45792   8.759   7.709   6.903 -1.9003  1.9117 -1.0660
  332MOL0     H45793   8.749   7.574   7.013 -1.6042 -1.0763 -0.0438
  332MOL0     H45794   8.589   7.846   7.007  0.8651 -1.4688 -1.7446
  332MOL0     H45795   8.726   7.819   7.111  1.2136 -0.7323 -2.0610
  332MOL0     H45796   7.974   7.414   6.236 -0.3282  0.6633  0.5478
  332MOL0     H45797   7.789   7.528   6.108 -1.7807  0.8356  0.1388
  332MOL0     H45798   7.499   7.730   6.012  0.5847  0.2783  1.8004
  332MOL0     H45799   7.310   7.790   5.891 -0.7259 -0.3728  0.9971
  332MOL0     H45800   5.690   7.435   5.659 -2.1835 -0.7599 -1.2022
  332MOL0     H45801   5.514   7.483   5.515  1.1337  1.9644 -0.0810
  332MOL0     H45802   5.387   7.689   5.169  0.4243 -0.6831 -0.3184
  332MOL0     H45803   5.202   7.771   5.030 -0.0775 -0.5510 -3.1616
  332MOL0     H45804   4.978   7.735   5.063  2.0476 -0.8695 -0.4771
  332MOL0     H45805   4.974   7.845   4.918 -3.1316  0.5723  0.4176
  332MOL0     H45806   4.800   7.693   4.823 -0.2044 -1.6967  0.7735
  332MOL0     H45807   4.751   7.820   4.935  0.9800  0.8297  0.1413
  332MOL0     H45808   4.798   7.530   4.989  0.4158  0.3130  1.2805
  332MOL0     H45809   4.725   7.640   5.111 -2.4501 -1.3796 -0.1926
  332MOL0     H45810   4.596   7.561   4.852 -2.2553  1.5371 -0.5306
  332MOL0     H45811   4.527   7.679   4.950 -2.8705 -2.1491  1.1687
  332MOL0     H45812   4.466   7.338   5.207 -4.5401  1.0139 -1.5993
  332MOL0     H45813   5.119   7.395   4.865 -0.9234  1.3286  0.2759
  332MOL0     H45814   5.263   7.193   5.090 -0.2611  1.2646  0.5854
  332MOL0     H45815   5.242   7.207   4.924  1.0147  0.0441 -1.1478
  332MOL0     H45816   5.403   7.224   4.984 -0.4826 -1.1784 -2.7057
  333MOL0     O45817   8.846  10.184   8.733 -0.1859 -0.5700 -0.0803
  333MOL0     C45818   8.900  10.079   8.764  0.3010  0.0953  0.5221
  333MOL0     O45819   9.032  10.042   8.730  0.3151 -0.1509  0.3057
  333MOL0     C45820   9.120  10.138   8.695 -0.5248 -0.1076  0.2703
  333MOL0     C45821   9.202  10.124   8.583 -0.4536  1.1419 -0.7442
  333MOL0     C45822   9.295  10.217   8.551 -0.8660  0.4078  0.5245
  333MOL0     C45823   9.304  10.337   8.620  0.7510 -0.4239  0.3122
  333MOL0     O45824   9.401  10.414   8.570 -0.4252 -0.8202  0.5003
  333MOL0     C45825   9.515  10.459   8.657  0.5387  0.1782  0.2650
  333MOL0     C45826   9.618  10.342   8.663  0.2744  0.3836 -0.2876
  333MOL0     C45827   9.715  10.342   8.782  0.7194 -0.1215  0.0698
  333MOL0     C45828   9.772  10.486   8.810  0.4586  0.5681  0.1026
  333MOL0     C45829   9.912  10.481   8.869  0.6330 -0.5358  0.0457
  333MOL0     C45830   9.954  10.627   8.894  0.8898 -0.1820 -0.0980
  333MOL0     C45831  10.084  10.657   8.959 -0.0601  0.6348 -0.2692
  333MOL0     C45832  10.190  10.580   8.891  0.8229 -0.0557  0.4896
  333MOL0     N45833  10.323  10.631   8.933  0.3770 -0.3391  0.4718
  333MOL0     C45834  10.366  10.654   9.066 -0.0790 -0.4231 -0.5174
  333MOL0     C45835  10.494  10.699   9.044  0.7025 -0.3153  0.4560
  333MOL0     C45836  10.583  10.752   9.154  0.2971  0.5557  0.2738
  333MOL0     C45837  10.664  10.636   9.209 -0.8067  0.3474  0.5559
  333MOL0     C45838  10.768  10.589   9.103 -0.2685 -0.3545 -0.5662
  333MOL0     C45839  10.895  10.533   9.169 -0.5868  0.0899 -0.8386
  333MOL0     O45840  10.975  10.650   9.185 -0.6411  0.0459  0.1793
  333MOL0     C45841  11.088  10.631   9.267 -0.6485  0.0539  0.1990
  333MOL0     C45842  11.125  10.737   9.354 -0.9190  0.5231  0.0492
  333MOL0     C45843  11.243  10.753   9.426  0.4107 -0.1462  0.1993
  333MOL0     C45844  11.256  10.884   9.502 -0.2164 -0.5944 -0.9479
  333MOL0     C45845  11.328  10.641   9.415  0.0460 -0.3018  0.8402
  333MOL0     C45846  11.456  10.636   9.486  0.1998 -0.5606  0.6008
  333MOL0     O45847  11.466  10.708   9.592 -0.2381 -0.2107  0.6164
  333MOL0     C45848  11.587  10.725   9.652  0.3948  0.3378  0.1731
  333MOL0     C45849  11.626  10.628   9.744  0.2563  0.4069  0.8043
  333MOL0     C45850  11.756  10.622   9.799 -0.4515  0.3694 -0.1421
  333MOL0     C45851  11.845  10.717   9.761 -1.2022 -0.1238 -0.4111
  333MOL0     O45852  11.970  10.732   9.812  0.3307 -0.2352 -0.0254
  333MOL0     C45853  12.062  10.623   9.780 -1.2517  0.2816  0.1780
  333MOL0     C45854  12.188  10.654   9.855 -0.9100  0.0677 -0.2888
  333MOL0     C45855  12.288  10.535   9.841  0.2194 -0.1267 -0.2735
  333MOL0     C45856  12.402  10.558   9.945  0.2520  0.3155 -0.0253
  333MOL0     C45857  12.525  10.471   9.920  0.8990  0.0079 -0.9521
  333MOL0     C45858  12.637  10.520  10.017  0.5129  0.1542  0.0808
  333MOL0     C45859  12.757  10.430  10.008 -0.5781  0.1949  0.2799
  333MOL0     C45860  12.806  10.357  10.134  1.1031  0.0509 -0.3895
  333MOL0    Cl45861  12.668  10.266  10.193 -0.4003 -0.0529 -0.2174
  333MOL0     C45862  11.813  10.819   9.672  0.4326  0.6978 -0.7680
  333MOL0     C45863  11.684  10.821   9.614 -0.2357 -0.1888 -0.0507
  333MOL0     O45864  11.547  10.578   9.430  0.0913 -0.3031 -0.1075
  333MOL0     C45865  11.303  10.534   9.330  0.2496  0.4903  0.1917
  333MOL0     C45866  11.177  10.524   9.258  0.0108 -0.1451  0.2156
  333MOL0     N45867  10.525  10.688   8.911  0.5651  0.1534 -0.1276
  333MOL0     N45868  10.420  10.648   8.840 -0.3743  0.1540  0.4026
  333MOL0     C45869   9.223  10.352   8.735  0.2570 -0.5197 -0.2037
  333MOL0     C45870   9.137  10.254   8.768  0.4942  0.5618  0.3743
  333MOL0     C45871   8.815   9.987   8.834 -0.0656 -0.7613 -0.0338
  333MOL0     C45872   8.678   9.989   8.806 -1.0603  0.2999  0.3354
  333MOL0     C45873   8.588   9.907   8.884 -0.0175 -1.3742  0.4550
  333MOL0     C45874   8.630   9.832   8.986 -0.2259  0.3449 -0.0572
  333MOL0     O45875   8.557   9.743   9.060  0.4834  0.2284  0.3394
  333MOL0     C45876   8.420   9.722   9.028 -0.4184 -0.0607 -0.2136
  333MOL0     C45877   8.401   9.629   8.914  0.4581  0.9156 -0.1898
  333MOL0     C45878   8.469   9.486   8.929 -0.2718 -0.0009 -0.6271
  333MOL0     C45879   8.401   9.382   8.842 -0.3522 -0.1652 -0.6596
  333MOL0     C45880   8.428   9.402   8.697  0.9607 -0.9451 -0.3295
  333MOL0     C45881   8.458   9.426   8.579 -0.2886  0.2982  0.7334
  333MOL0     C45882   8.768   9.834   9.015  0.7738  0.2632  0.3561
  333MOL0     C45883   8.860   9.912   8.947  0.2571  0.3883 -0.3592
  333MOL0     C45884   9.000   9.901   9.001  0.0875 -0.0856 -0.5492
  333MOL0     H45885   9.208  10.027   8.536 -0.8829  1.3056 -1.1345
  333MOL0     H45886   9.366  10.188   8.474 -0.9996 -1.1235  0.9321
  333MOL0     H45887   9.478  10.481   8.758  1.1251  1.3223  0.2472
  333MOL0     H45888   9.558  10.554   8.625  1.0537 -0.2417 -0.3033
  333MOL0     H45889   9.547  10.259   8.662 -2.4295  2.4997  1.6470
  333MOL0     H45890   9.684  10.342   8.575  3.7376 -0.6589  2.0859
  333MOL0     H45891   9.658  10.325   8.874  0.6260 -0.7681 -0.1071
  333MOL0     H45892   9.790  10.264   8.768 -0.6057 -1.1979 -1.4398
  333MOL0     H45893   9.779  10.541   8.716  1.9861  0.1273 -0.0823
  333MOL0     H45894   9.705  10.544   8.874  2.3650  0.8745  1.9433
  333MOL0     H45895   9.989  10.429   8.810  1.3698  0.0126  0.5022
  333MOL0     H45896   9.907  10.426   8.963 -1.4736 -3.2928 -1.5049
  333MOL0     H45897   9.947  10.680   8.798 -0.0597 -0.8426 -0.4061
  333MOL0     H45898   9.875  10.663   8.961 -0.7832 -3.5107 -0.1198
  333MOL0     H45899  10.092  10.627   9.064  2.7968  3.4746  0.4884
  333MOL0     H45900  10.109  10.762   8.945 -0.7548  0.6614 -1.4472
  333MOL0     H45901  10.178  10.473   8.912  1.9126  0.0476  1.7770
  333MOL0     H45902  10.186  10.594   8.783 -0.3845  1.7432  0.7210
  333MOL0     H45903  10.314  10.660   9.161  0.6539 -1.8130 -0.0013
  333MOL0     H45904  10.522  10.800   9.232  0.3857  0.5102  0.3710
  333MOL0     H45905  10.659  10.823   9.121  2.4108 -2.1290 -0.9681
  333MOL0     H45906  10.720  10.670   9.296 -1.2345  2.8696 -0.0644
  333MOL0     H45907  10.591  10.562   9.243 -1.9057  1.1226 -0.0522
  333MOL0     H45908  10.723  10.509   9.043  2.7834 -2.8228  0.1592
  333MOL0     H45909  10.805  10.671   9.041  1.4560  0.2300  1.1208
  333MOL0     H45910  10.854  10.492   9.262 -2.8663  2.2768 -0.7582
  333MOL0     H45911  10.944  10.449   9.118  1.0104  0.4191  0.1072
  333MOL0     H45912  11.054  10.820   9.352 -1.2922  0.2007 -1.4232
  333MOL0     H45913  11.185  10.959   9.464 -1.0288 -1.1271 -0.5180
  333MOL0     H45914  11.356  10.928   9.504 -0.9427  1.1249 -0.6056
  333MOL0     H45915  11.230  10.863   9.606 -2.5683 -2.6240 -1.8385
  333MOL0     H45916  11.539  10.564   9.758 -2.0073  2.8040 -1.2364
  333MOL0     H45917  11.783  10.547   9.872  0.0390  0.5510 -0.1279
  333MOL0     H45918  12.028  10.526   9.817  1.2597 -0.9345 -0.5209
  333MOL0     H45919  12.079  10.610   9.673  2.0100 -2.1629  0.8615
  333MOL0     H45920  12.231  10.748   9.819  0.7446 -1.2483 -2.0031
  333MOL0     H45921  12.158  10.676   9.958 -0.6913 -1.7816  0.2080
  333MOL0     H45922  12.325  10.521   9.739  2.3016 -0.5478  0.4766
  333MOL0     H45923  12.240  10.445   9.881  1.2440 -0.9762 -0.9173
  333MOL0     H45924  12.364  10.536  10.045 -1.8356  0.7262 -0.6790
  333MOL0     H45925  12.421  10.665   9.946 -2.8163  1.0971 -3.6099
  333MOL0     H45926  12.496  10.368   9.943 -0.4428  0.9417  1.8988
  333MOL0     H45927  12.549  10.474   9.813  0.2120  1.9173 -1.0934
  333MOL0     H45928  12.601  10.536  10.119 -2.7861 -1.2430 -0.7063
  333MOL0     H45929  12.657  10.617   9.970 -0.9701  0.5851  0.2793
  333MOL0     H45930  12.844  10.475   9.958 -2.5890  0.0494 -3.7368
  333MOL0     H45931  12.739  10.341   9.946  1.4553  1.2221 -1.9955
  333MOL0     H45932  12.824  10.435  10.208  0.7062  0.2422 -0.4929
  333MOL0     H45933  12.898  10.303  10.111 -0.5065 -3.6809  1.0328
  333MOL0     H45934  11.886  10.893   9.642  1.3374  0.8046  1.5307
  333MOL0     H45935  11.651  10.901   9.548 -1.1035 -0.4947  0.0021
  333MOL0     H45936  11.371  10.449   9.327 -2.8811 -2.2572  0.9999
  333MOL0     H45937  11.142  10.440   9.198 -2.1838  2.6100 -2.7041
  333MOL0     H45938   9.220  10.442   8.796 -1.8560 -0.3363 -0.4996
  333MOL0     H45939   9.075  10.270   8.856  0.0013 -0.1474  0.1656
  333MOL0     H45940   8.637  10.046   8.724 -0.6119  0.9719  0.5747
  333MOL0     H45941   8.485   9.911   8.848 -0.2286 -1.3184  1.0649
  333MOL0     H45942   8.382   9.673   9.118 -1.5153  0.1523 -0.5480
  333MOL0     H45943   8.352   9.807   9.019 -0.2524  0.3605  1.9705
  333MOL0     H45944   8.429   9.670   8.816  1.1415  0.8810 -0.0195
  333MOL0     H45945   8.292   9.621   8.909  0.3219  2.6216 -0.7370
  333MOL0     H45946   8.576   9.496   8.912  0.0897 -0.1122  1.3087
  333MOL0     H45947   8.446   9.442   9.026 -1.0788 -0.3197 -0.9547
  333MOL0     H45948   8.294   9.377   8.863 -0.0827 -1.1990  0.5632
  333MOL0     H45949   8.438   9.281   8.859  2.0922  0.1734 -3.1823
  333MOL0     H45950   8.480   9.453   8.477 -2.0130  0.3788  0.3377
  333MOL0     H45951   8.797   9.765   9.093 -1.6902 -0.2992  0.8515
  333MOL0     H45952   9.012   9.877   9.107  1.9870  0.7111 -0.5406
  333MOL0     H45953   9.045   9.827   8.934 -0.5121  0.5216 -1.6724
  333MOL0     H45954   9.049   9.998   8.985 -1.9249  1.0030 -0.4316
  334MOL0     O45955  11.352  10.493   9.938 -0.0869 -0.2986  0.3258
  334MOL0     C45956  11.303  10.563  10.024  0.4315 -0.2491 -0.5755
  334MOL0     O45957  11.361  10.592  10.149 -0.0669  0.2800  0.5393
  334MOL0     C45958  11.489  10.556  10.172 -0.4461 -1.0885 -0.3410
  334MOL0     C45959  11.594  10.631  10.122 -0.4294  0.6441  0.6267
  334MOL0     C45960  11.724  10.608  10.153 -0.4487 -0.4830 -0.3326
  334MOL0     C45961  11.764  10.506  10.242  0.9447 -0.3919 -0.0080
  334MOL0     O45962  11.896  10.497  10.277 -0.1403  0.1008  0.1136
  334MOL0     C45963  11.935  10.432  10.399 -0.5817 -0.4605  0.5989
  334MOL0     C45964  12.082  10.425  10.438 -0.7613  0.2024 -0.3745
  334MOL0     C45965  12.152  10.295  10.385  0.0478  0.2970 -0.0677
  334MOL0     C45966  12.097  10.157  10.429 -0.1504  0.3969 -0.0940
  334MOL0     C45967  12.148  10.127  10.575  0.5437 -0.6544  0.8570
  334MOL0     C45968  12.123   9.973  10.599 -0.0513  0.1124 -0.1632
  334MOL0     C45969  12.256   9.892  10.565 -0.2591 -0.7439  0.0335
  334MOL0     C45970  12.379   9.903  10.659  0.6788  0.2209 -0.3007
  334MOL0     N45971  12.464  10.016  10.623  0.5023  0.1461 -1.1215
  334MOL0     C45972  12.488  10.129  10.698 -0.3091  0.8361  0.3214
  334MOL0     C45973  12.550  10.214  10.609 -1.1902  0.5068 -0.3344
  334MOL0     C45974  12.618  10.345  10.648  0.4490  0.4961  0.9035
  334MOL0     C45975  12.564  10.479  10.578 -0.2729  1.2118 -0.2505
  334MOL0     C45976  12.672  10.578  10.558 -0.0414 -0.1024  0.0239
  334MOL0     C45977  12.730  10.647  10.691  0.5689  0.1683  0.5725
  334MOL0     O45978  12.832  10.557  10.749 -0.4064  0.4109  0.1067
  334MOL0     C45979  12.956  10.554  10.687  0.3153 -0.6157 -0.3113
  334MOL0     C45980  13.050  10.478  10.755 -0.1941 -0.5394  0.1525
  334MOL0     C45981  13.176  10.468  10.712 -0.7218  0.3169 -0.4173
  334MOL0     C45982  13.266  10.365  10.779 -0.5585  0.3055 -0.0605
  334MOL0     C45983  13.222  10.560  10.617 -0.0054 -1.1622  0.5055
  334MOL0     C45984  13.365  10.583  10.581  0.6035  0.2176 -0.2077
  334MOL0     O45985  13.461  10.496  10.635  0.5365  0.5525  0.5198
  334MOL0     C45986  13.587  10.514  10.592 -0.0255  0.4647  1.0151
  334MOL0     C45987  13.644  10.412  10.508  0.0756 -0.4401  0.3350
  334MOL0     C45988  13.774  10.429  10.466  0.0321  0.3405  0.5077
  334MOL0     C45989  13.845  10.546  10.496  0.0732  0.5306 -0.1944
  334MOL0     O45990  13.974  10.556  10.454 -0.6566 -0.2429 -0.2335
  334MOL0     C45991  14.028  10.690  10.454  0.0417  0.0240  0.0918
  334MOL0     C45992  14.160  10.705  10.378 -0.8622  0.2315  0.6138
  334MOL0     C45993  14.267  10.635  10.449 -1.1611 -0.7354  0.2143
  334MOL0     C45994  14.405  10.654  10.377 -0.0336  0.2494  0.2814
  334MOL0     C45995  14.501  10.568  10.456 -0.2543 -0.0952 -0.1043
  334MOL0     C45996  14.641  10.561  10.412 -0.7489  0.0588  1.3338
  334MOL0     C45997  14.659  10.519  10.264  0.1970  0.3473 -0.2540
  334MOL0     C45998  14.806  10.508  10.229 -0.1745 -0.4984 -0.5144
  334MOL0    Cl45999  14.833  10.521  10.047  0.0824  0.1618 -0.0511
  334MOL0     C46000  13.791  10.645  10.575 -0.4816  0.5071  0.3318
  334MOL0     C46001  13.673  10.623  10.625  0.3641 -0.9342 -0.1222
  334MOL0     O46002  13.384  10.676  10.503  0.6890  0.3258 -0.3050
  334MOL0     C46003  13.124  10.638  10.544 -0.2535 -0.1875 -0.1250
  334MOL0     C46004  12.993  10.636  10.580 -0.2186  0.1774  0.3165
  334MOL0     N46005  12.564  10.151  10.487 -0.5463 -0.5833 -0.2709
  334MOL0     N46006  12.517  10.031  10.499 -0.0884 -0.8034 -0.2026
  334MOL0     C46007  11.659  10.433  10.295 -0.2318  0.4345 -0.0171
  334MOL0     C46008  11.524  10.455  10.268 -0.0912 -0.3425 -0.0599
  334MOL0     C46009  11.195  10.657   9.988  0.7024  0.7549  0.1319
  334MOL0     C46010  11.151  10.756  10.072  0.5220  0.0341 -0.7877
  334MOL0     C46011  11.057  10.849  10.034  0.5204  0.0247  0.2825
  334MOL0     C46012  11.005  10.852   9.903 -0.2232 -0.0367 -0.4153
  334MOL0     O46013  10.908  10.937   9.859  0.2908 -0.2605  0.2042
  334MOL0     C46014  10.932  11.076   9.893  0.6966  0.4212  0.7193
  334MOL0     C46015  10.981  11.140   9.765 -0.2035 -0.2223  0.1995
  334MOL0     C46016  10.912  11.087   9.637 -0.7443 -0.4624 -0.3047
  334MOL0     C46017  10.948  11.173   9.521  0.2826 -0.0266  0.1288
  334MOL0     C46018  10.921  11.094   9.393  0.2838  0.1942 -0.6115
  334MOL0     C46019  10.889  11.030   9.293  0.0319 -0.0808  0.0688
  334MOL0     C46020  11.047  10.753   9.814  0.1033 -0.3487  0.2709
  334MOL0     C46021  11.138  10.654   9.857  0.6746  0.3382  0.7745
  334MOL0     C46022  11.171  10.561   9.745  0.5394  0.1464  0.5184
  334MOL0     H46023  11.574  10.697  10.038 -2.4107 -0.8728 -0.1904
  334MOL0     H46024  11.792  10.683  10.113 -1.6095  0.2094 -1.0798
  334MOL0     H46025  11.892  10.331  10.408 -1.7418  0.1688  2.7995
  334MOL0     H46026  11.894  10.493  10.480 -2.1524  0.8629 -1.0922
  334MOL0     H46027  12.138  10.514  10.406  1.3776 -0.7415  0.5647
  334MOL0     H46028  12.096  10.424  10.546  0.2107  0.2641 -0.4892
  334MOL0     H46029  12.161  10.294  10.276 -3.2156 -1.1452 -0.4194
  334MOL0     H46030  12.255  10.309  10.421 -0.1557  1.1458  0.2001
  334MOL0     H46031  11.991  10.133  10.423 -0.2108  1.0111 -1.9695
  334MOL0     H46032  12.154  10.081  10.374  1.7002  0.9893  0.8907
  334MOL0     H46033  12.109  10.199  10.647  2.4363  1.6714 -0.2886
  334MOL0     H46034  12.254  10.150  10.585 -0.0683  1.4073  6.7019
  334MOL0     H46035  12.092   9.947  10.701  0.7382 -2.4180 -0.5115
  334MOL0     H46036  12.036   9.940  10.541 -0.3442  0.4133  0.0992
  334MOL0     H46037  12.278   9.918  10.461 -1.2389  1.0244  0.2464
  334MOL0     H46038  12.230   9.786  10.573 -1.9337 -0.2523  1.7429
  334MOL0     H46039  12.356   9.915  10.765 -0.9464  5.1083 -0.9246
  334MOL0     H46040  12.436   9.810  10.652  0.5504  0.1322 -0.1632
  334MOL0     H46041  12.482  10.143  10.805  1.2748  0.1506  0.5417
  334MOL0     H46042  12.725  10.335  10.627 -0.1664 -1.6692 -1.6522
  334MOL0     H46043  12.602  10.365  10.755  0.0993  1.3100  0.7090
  334MOL0     H46044  12.531  10.459  10.476  2.8799 -1.4439 -0.9472
  334MOL0     H46045  12.486  10.523  10.641  1.1127  2.8911  0.3762
  334MOL0     H46046  12.754  10.527  10.506 -0.8044 -0.7973 -0.5224
  334MOL0     H46047  12.634  10.660  10.496 -4.2634 -0.9837  1.1303
  334MOL0     H46048  12.769  10.748  10.678  2.8450 -0.8938 -1.8752
  334MOL0     H46049  12.645  10.654  10.760 -0.2127 -1.6687 -0.1378
  334MOL0     H46050  13.031  10.414  10.840 -1.2889  1.4267  1.4666
  334MOL0     H46051  13.202  10.291  10.828 -1.0415  0.4852 -0.4049
  334MOL0     H46052  13.328  10.420  10.851  0.8104  0.1247 -1.0556
  334MOL0     H46053  13.327  10.308  10.709 -0.2107 -1.9823  1.9711
  334MOL0     H46054  13.585  10.325  10.480  1.4081 -0.8659 -1.3077
  334MOL0     H46055  13.815  10.356  10.397  0.9792  1.1086  0.2208
  334MOL0     H46056  13.960  10.762  10.407  1.9154  1.0106 -1.2700
  334MOL0     H46057  14.051  10.732  10.553  2.0496 -1.4592  0.3255
  334MOL0     H46058  14.168  10.676  10.273 -0.1673  1.1165  0.4130
  334MOL0     H46059  14.194  10.809  10.385 -0.8348  0.1223  3.0072
  334MOL0     H46060  14.245  10.528  10.438  1.7445 -1.4586  0.4979
  334MOL0     H46061  14.273  10.661  10.555  0.9793  2.0170 -0.4667
  334MOL0     H46062  14.443  10.756  10.376  4.2627 -1.1206 -2.0106
  334MOL0     H46063  14.407  10.619  10.273  0.0092 -1.4599  0.8222
  334MOL0     H46064  14.500  10.618  10.554  1.1632  0.4205 -0.3336
  334MOL0     H46065  14.459  10.468  10.468  1.4192 -0.6736  1.3892
  334MOL0     H46066  14.688  10.488  10.478 -0.4711  0.8322  2.0091
  334MOL0     H46067  14.696  10.653  10.432  3.7850 -1.9668 -0.3965
  334MOL0     H46068  14.610  10.594  10.202  0.2522  0.1896 -0.4906
  334MOL0     H46069  14.604  10.425  10.251 -1.6294  1.4582 -1.0639
  334MOL0     H46070  14.847  10.409  10.250  0.8519  0.0006 -0.0804
  334MOL0     H46071  14.863  10.590  10.274 -0.5109 -0.2559 -0.5252
  334MOL0     H46072  13.838  10.741  10.590  0.4565  0.0113  0.6121
  334MOL0     H46073  13.620  10.697  10.684 -2.0783 -2.3635 -0.3950
  334MOL0     H46074  13.153  10.698  10.458  1.2838 -2.8407 -1.6049
  334MOL0     H46075  12.921  10.689  10.520  0.3466 -0.2589 -0.7838
  334MOL0     H46076  11.688  10.356  10.366  0.8142 -0.3301 -1.2460
  334MOL0     H46077  11.455  10.388  10.318 -1.0753 -0.6534 -1.7608
  334MOL0     H46078  11.188  10.758  10.174 -0.0539 -2.1458 -0.4900
  334MOL0     H46079  11.025  10.921  10.108  1.2634  0.3545  0.2932
  334MOL0     H46080  10.832  11.109   9.925 -0.1983 -0.8875 -0.6068
  334MOL0     H46081  11.001  11.085   9.977  0.1290 -3.6666  1.8131
  334MOL0     H46082  11.087  11.134   9.742 -0.0552  0.4128  0.6859
  334MOL0     H46083  10.969  11.249   9.777 -3.0487 -0.5408  1.0940
  334MOL0     H46084  10.934  10.981   9.625 -2.4230 -0.9406  0.5503
  334MOL0     H46085  10.805  11.093   9.659 -0.6345  1.3731 -0.1130
  334MOL0     H46086  11.049  11.214   9.517  0.2844 -0.0347  0.0706
  334MOL0     H46087  10.881  11.259   9.518  1.4661  0.9387  0.6559
  334MOL0     H46088  10.859  10.965   9.213 -0.5353  0.8886 -0.5262
  334MOL0     H46089  11.002  10.759   9.715  0.1012  2.9904  0.3325
  334MOL0     H46090  11.123  10.584   9.650 -1.2224  1.5204  1.6761
  334MOL0     H46091  11.276  10.562   9.714  0.0701 -0.1268 -1.1696
  334MOL0     H46092  11.135  10.465   9.781  0.2894  1.2151  3.3858
  335MOL0     O46093   1.104   5.228  11.377 -0.3125 -0.4402  0.9955
  335MOL0     C46094   1.105   5.342  11.338 -0.2297  0.6531  0.6918
  335MOL0     O46095   1.009   5.409  11.264 -0.4995 -0.2461  1.1994
  335MOL0     C46096   0.898   5.327  11.232  0.4201  0.0346  0.3202
  335MOL0     C46097   0.836   5.358  11.107 -0.2457 -1.0943  0.2207
  335MOL0     C46098   0.713   5.301  11.065 -0.3139  0.2928  0.0949
  335MOL0     C46099   0.649   5.206  11.155 -0.0031 -0.7523  0.2378
  335MOL0     O46100   0.529   5.148  11.117  0.2194  0.4694 -0.4873
  335MOL0     C46101   0.408   5.202  11.162 -0.4583 -0.0438  0.5701
  335MOL0     C46102   0.292   5.174  11.072  1.1178 -0.0226 -0.8164
  335MOL0     C46103   0.152   5.207  11.129  0.3367 -0.3503 -0.0160
  335MOL0     C46104   0.117   5.355  11.103 -0.1607 -0.2262  0.6497
  335MOL0     C46105   0.089   5.389  10.953  0.6322  0.9694 -0.5342
  335MOL0     C46106  -0.050   5.342  10.919  0.1268 -0.5875  0.2151
  335MOL0     C46107  -0.082   5.374  10.766 -0.3786 -0.0719 -0.9313
  335MOL0     C46108  -0.231   5.384  10.737  0.7445  0.3354  1.1570
  335MOL0     N46109  -0.300   5.268  10.796 -0.0778 -0.8830 -0.5723
  335MOL0     C46110  -0.260   5.142  10.794  0.2233  0.2147 -0.7489
  335MOL0     C46111  -0.336   5.085  10.892 -0.1247  0.0627 -0.2601
  335MOL0     C46112  -0.347   4.929  10.910  0.0534 -0.3932  0.1783
  335MOL0     C46113  -0.235   4.873  10.991 -0.0951  0.4236 -0.0236
  335MOL0     C46114  -0.244   4.724  11.026 -0.4965 -0.3445  0.7578
  335MOL0     C46115  -0.198   4.641  10.909  0.1706  0.4404 -0.2864
  335MOL0     O46116  -0.203   4.493  10.942  0.0023 -0.0442  0.6399
  335MOL0     C46117  -0.078   4.454  10.976 -0.0004 -0.4841 -1.0367
  335MOL0     C46118  -0.047   4.445  11.109 -0.1112 -0.0677 -0.0388
  335MOL0     C46119   0.074   4.388  11.156 -0.2654  0.1831 -0.0235
  335MOL0     C46120   0.080   4.365  11.303 -0.4417  0.2136 -0.6204
  335MOL0     C46121   0.186   4.374  11.063 -0.2283  0.5374  0.7794
  335MOL0     C46122   0.330   4.338  11.093  0.1337 -0.0579  0.2754
  335MOL0     O46123   0.352   4.263  11.203  0.2701  0.1572 -0.2766
  335MOL0     C46124   0.473   4.206  11.219  0.4319  0.5814 -0.4381
  335MOL0     C46125   0.586   4.277  11.263 -0.6117 -0.4745 -0.6921
  335MOL0     C46126   0.705   4.216  11.305 -1.0861  0.2343 -0.4108
  335MOL0     C46127   0.711   4.072  11.303 -0.3032 -0.3588  0.0653
  335MOL0     O46128   0.826   4.002  11.342 -0.4814 -0.2303 -0.8347
  335MOL0     C46129   0.808   3.882  11.416  0.1921  0.0569 -0.6621
  335MOL0     C46130   0.937   3.858  11.500 -0.0878  1.3667  0.1640
  335MOL0     C46131   1.055   3.836  11.404 -0.0926 -0.2887  0.0880
  335MOL0     C46132   1.195   3.817  11.477 -0.1665 -0.0291  1.6122
  335MOL0     C46133   1.303   3.813  11.374 -1.0264 -0.0946  0.5163
  335MOL0     C46134   1.417   3.738  11.435 -0.6410  0.7956 -0.1724
  335MOL0     C46135   1.533   3.730  11.325  0.6878 -0.3457  0.0074
  335MOL0     C46136   1.612   3.858  11.310  0.0234 -0.4241  0.1256
  335MOL0    Cl46137   1.753   3.841  11.203  0.1771  0.2261 -0.5131
  335MOL0     C46138   0.598   4.007  11.251 -0.2904 -0.4472  0.5265
  335MOL0     C46139   0.481   4.070  11.215 -0.4854  0.3371 -0.2788
  335MOL0     O46140   0.421   4.377  11.014  0.7982  0.0288  0.2868
  335MOL0     C46141   0.158   4.399  10.921  0.5038  0.6205  0.5489
  335MOL0     C46142   0.025   4.429  10.887 -1.1131 -0.3001  0.2332
  335MOL0     N46143  -0.406   5.184  10.961  0.0822 -0.6123 -0.3345
  335MOL0     N46144  -0.386   5.290  10.907 -0.0033 -0.1710 -0.0579
  335MOL0     C46145   0.703   5.188  11.287  0.2931  0.1204  0.4529
  335MOL0     C46146   0.826   5.242  11.319 -0.2158  0.5383  0.3660
  335MOL0     C46147   1.233   5.417  11.360 -0.5880  1.3222  0.7188
  335MOL0     C46148   1.265   5.520  11.270  0.0234  0.3488  0.3275
  335MOL0     C46149   1.378   5.603  11.293  0.3263 -0.2068  0.6380
  335MOL0     C46150   1.460   5.583  11.401  0.2595 -0.4492 -0.4416
  335MOL0     O46151   1.555   5.670  11.444  0.3881 -0.1653 -0.8505
  335MOL0     C46152   1.660   5.698  11.345 -0.1050  0.1012 -0.0932
  335MOL0     C46153   1.785   5.755  11.408 -0.7509  0.1579 -0.8584
  335MOL0     C46154   1.867   5.668  11.506  0.4972 -0.0209  0.4512
  335MOL0     C46155   1.992   5.744  11.547  0.3411 -0.0700  0.7221
  335MOL0     C46156   2.076   5.689  11.653  0.7792  0.2911  0.2800
  335MOL0     C46157   2.152   5.657  11.743 -0.0067 -0.4223  0.4232
  335MOL0     C46158   1.423   5.477  11.485 -0.2248  0.4145 -1.1007
  335MOL0     C46159   1.320   5.390  11.466  0.0318  0.7320 -0.5637
  335MOL0     C46160   1.305   5.270  11.560 -0.2945  0.5322 -0.1117
  335MOL0     H46161   0.887   5.438  11.056  1.0941 -2.8637 -1.3454
  335MOL0     H46162   0.657   5.332  10.977  0.7743  2.8625  0.2221
  335MOL0     H46163   0.413   5.311  11.159  1.1297 -0.1171 -1.0761
  335MOL0     H46164   0.389   5.174  11.266  4.0407 -1.8430  1.1473
  335MOL0     H46165   0.302   5.230  10.979 -0.6234 -0.2447 -1.1837
  335MOL0     H46166   0.292   5.067  11.047  0.0742 -0.3201  0.3325
  335MOL0     H46167   0.081   5.143  11.077  1.8773  0.2523 -3.0316
  335MOL0     H46168   0.152   5.184  11.236  1.1836  4.6459  1.3442
  335MOL0     H46169   0.021   5.359  11.155 -1.2919 -2.6273 -1.0765
  335MOL0     H46170   0.201   5.413  11.143  1.6822 -1.9596 -0.5322
  335MOL0     H46171   0.152   5.347  10.874  1.9204  3.7391 -1.1001
  335MOL0     H46172   0.090   5.497  10.938 -1.7391  1.5330  2.3708
  335MOL0     H46173  -0.052   5.234  10.930 -1.4369 -0.2976  5.3475
  335MOL0     H46174  -0.115   5.390  10.993  1.0387  0.7349  0.2116
  335MOL0     H46175  -0.033   5.304  10.698 -0.2384 -1.7681  0.8514
  335MOL0     H46176  -0.045   5.474  10.741  1.4973 -1.1839 -2.9406
  335MOL0     H46177  -0.278   5.477  10.770  0.0852 -0.3690  2.2471
  335MOL0     H46178  -0.240   5.378  10.628 -0.6669 -0.5228  1.3007
  335MOL0     H46179  -0.205   5.081  10.724 -1.6049 -2.1415 -0.2602
  335MOL0     H46180  -0.347   4.868  10.819 -0.4642 -0.0907 -0.0289
  335MOL0     H46181  -0.439   4.923  10.969 -0.6849  1.8679 -0.6382
  335MOL0     H46182  -0.138   4.891  10.943  0.7958  0.1900  1.6204
  335MOL0     H46183  -0.223   4.918  11.090 -0.7740 -2.0122  1.2541
  335MOL0     H46184  -0.193   4.698  11.119  1.3089 -0.7280 -0.2951
  335MOL0     H46185  -0.350   4.700  11.034 -2.2547  5.9617  1.6848
  335MOL0     H46186  -0.263   4.676  10.828  0.5236 -1.1083 -1.2808
  335MOL0     H46187  -0.098   4.669  10.873  1.4949 -2.5398  0.7621
  335MOL0     H46188  -0.132   4.468  11.173 -0.0759  0.4274 -0.1649
  335MOL0     H46189   0.026   4.435  11.368 -1.0757  1.6798 -2.6476
  335MOL0     H46190   0.187   4.373  11.327 -0.7455  1.3459  0.5008
  335MOL0     H46191   0.044   4.266  11.333  1.1286 -0.2192 -0.0119
  335MOL0     H46192   0.568   4.385  11.263  0.0873 -0.3519 -0.9104
  335MOL0     H46193   0.777   4.284  11.349 -1.8078  1.0803 -0.5280
  335MOL0     H46194   0.721   3.880  11.482  0.1866 -0.4416 -0.6805
  335MOL0     H46195   0.807   3.795  11.349 -0.2084 -2.0778  1.9702
  335MOL0     H46196   0.941   3.940  11.573 -1.1912  0.0083  1.8147
  335MOL0     H46197   0.927   3.767  11.559 -0.1980 -0.7698 -2.9709
  335MOL0     H46198   1.058   3.921  11.334 -4.1263  1.1536  1.4179
  335MOL0     H46199   1.038   3.738  11.358 -2.6810  0.1006  0.0909
  335MOL0     H46200   1.207   3.723  11.531 -1.1382 -0.4873  1.0403
  335MOL0     H46201   1.216   3.899  11.547 -2.1524  2.1659 -0.2069
  335MOL0     H46202   1.266   3.762  11.285  1.1384 -3.9939  1.6315
  335MOL0     H46203   1.326   3.917  11.349 -2.2827 -0.1497 -1.0590
  335MOL0     H46204   1.393   3.637  11.469  2.7942 -0.2489 -0.4204
  335MOL0     H46205   1.459   3.791  11.520 -0.0801  1.3229 -0.7614
  335MOL0     H46206   1.484   3.687  11.237  0.5313 -1.4741  0.6314
  335MOL0     H46207   1.607   3.658  11.360  1.2750  1.3285  2.4730
  335MOL0     H46208   1.645   3.877  11.412 -0.5494  1.9810 -0.0773
  335MOL0     H46209   1.554   3.946  11.280  1.8170  1.9218  3.0422
  335MOL0     H46210   0.604   3.899  11.244  3.3329 -0.4179  1.0944
  335MOL0     H46211   0.396   4.006  11.191  1.0188 -2.6497  1.7511
  335MOL0     H46212   0.234   4.374  10.848  0.4713 -1.0263  1.0326
  335MOL0     H46213  -0.017   4.424  10.787 -0.0843  1.5247 -0.3568
  335MOL0     H46214   0.647   5.123  11.354 -0.7194 -0.0563 -0.5332
  335MOL0     H46215   0.871   5.234  11.417  2.3640 -1.5703 -0.8884
  335MOL0     H46216   1.210   5.539  11.179  3.3783  0.5468 -1.8251
  335MOL0     H46217   1.405   5.685  11.227  0.3133  0.3876  1.3541
  335MOL0     H46218   1.688   5.608  11.289  0.8028  1.1219 -1.3388
  335MOL0     H46219   1.623   5.780  11.282 -0.8133  0.2677  0.5296
  335MOL0     H46220   1.758   5.841  11.470 -1.3377 -0.8947  0.3885
  335MOL0     H46221   1.850   5.773  11.322 -4.0985 -1.9218 -4.0649
  335MOL0     H46222   1.798   5.655  11.589 -0.9984  2.0451 -0.3693
  335MOL0     H46223   1.881   5.572  11.455  0.2746  1.2144 -2.1172
  335MOL0     H46224   1.953   5.839  11.584 -1.1924 -0.4502  0.1740
  335MOL0     H46225   2.059   5.750  11.460 -0.5609 -1.4743 -0.1225
  335MOL0     H46226   2.221   5.631  11.820  1.1782 -2.7215 -1.2983
  335MOL0     H46227   1.472   5.480  11.582 -2.7403  5.0948  0.3565
  335MOL0     H46228   1.321   5.173  11.512 -0.5032 -0.2271  1.3054
  335MOL0     H46229   1.372   5.290  11.644 -1.4873 -0.6176  1.1688
  335MOL0     H46230   1.203   5.262  11.598 -0.4710 -1.1885 -0.8481
  336MOL0     O46231   6.401   1.991   7.381  0.2730 -0.3491 -0.2593
  336MOL0     C46232   6.375   1.874   7.382  0.6008 -0.1656  0.1714
  336MOL0     O46233   6.453   1.773   7.328 -0.6223  0.0560 -0.3882
  336MOL0     C46234   6.588   1.806   7.299 -0.0752  0.9691 -0.1357
  336MOL0     C46235   6.700   1.751   7.373 -0.3814  0.2169  0.0945
  336MOL0     C46236   6.830   1.777   7.336 -0.8153 -0.0795 -0.6834
  336MOL0     C46237   6.857   1.868   7.228 -0.9833 -0.9726 -0.9166
  336MOL0     O46238   6.977   1.920   7.195 -0.0649  0.4861  0.1570
  336MOL0     C46239   7.091   1.868   7.246  0.2200  1.0934 -0.5207
  336MOL0     C46240   7.208   1.948   7.183 -0.4051  0.1897 -0.3880
  336MOL0     C46241   7.335   1.862   7.216 -0.5979 -0.0477  1.0300
  336MOL0     C46242   7.454   1.934   7.155  0.2136  0.4008  0.3570
  336MOL0     C46243   7.589   1.863   7.199 -0.4933 -0.1803  0.8613
  336MOL0     C46244   7.709   1.922   7.132  0.0143 -0.2684 -0.5809
  336MOL0     C46245   7.838   1.830   7.168 -0.7891  0.4397  1.3630
  336MOL0     C46246   7.962   1.891   7.093 -0.0795 -0.4918 -0.0093
  336MOL0     N46247   8.076   1.789   7.083  0.4655  0.4143  0.0319
  336MOL0     C46248   8.092   1.665   7.011  0.2223  0.2774 -1.3272
  336MOL0     C46249   8.216   1.625   7.022 -0.3417 -0.7479  0.5430
  336MOL0     C46250   8.281   1.500   6.981 -0.4855 -0.0152  0.3493
  336MOL0     C46251   8.432   1.517   6.991  0.5304 -0.0729  0.2634
  336MOL0     C46252   8.498   1.376   6.966  0.0036  0.4800 -0.4873
  336MOL0     C46253   8.640   1.390   6.915  0.1003  0.7392  0.0630
  336MOL0     O46254   8.668   1.468   6.795  0.1775  0.0090 -0.0741
  336MOL0     C46255   8.796   1.483   6.755 -0.3704  0.4367  0.3308
  336MOL0     C46256   8.828   1.608   6.690 -0.4038 -1.0506  0.1238
  336MOL0     C46257   8.956   1.660   6.678 -0.6298  0.0229  0.0600
  336MOL0     C46258   8.960   1.794   6.609 -0.5105 -0.2677 -0.2021
  336MOL0     C46259   9.064   1.576   6.715 -1.1802  0.2143 -0.3812
  336MOL0     C46260   9.206   1.623   6.693  0.4046 -0.0399 -0.7274
  336MOL0     O46261   9.290   1.542   6.757  0.0530 -0.0006 -0.2610
  336MOL0     C46262   9.421   1.582   6.750 -0.8741  1.0634 -0.4245
  336MOL0     C46263   9.486   1.534   6.636  0.2849  0.3246  0.0877
  336MOL0     C46264   9.615   1.561   6.611 -0.8522  0.2997 -0.1544
  336MOL0     C46265   9.686   1.647   6.696  0.1707 -0.3184  0.2109
  336MOL0     O46266   9.814   1.681   6.675  0.2246 -0.0733 -0.6765
  336MOL0     C46267   9.907   1.566   6.666  0.2194  0.7115 -0.8130
  336MOL0     C46268  10.055   1.620   6.689 -0.2810  0.1429 -1.1249
  336MOL0     C46269  10.069   1.727   6.794  0.2213 -0.4290 -0.6863
  336MOL0     C46270  10.205   1.731   6.861 -0.1022 -0.8831 -0.1746
  336MOL0     C46271  10.208   1.836   6.977  0.1402  0.2903  0.2613
  336MOL0     C46272  10.332   1.837   7.062  0.4503  0.6034  0.3923
  336MOL0     C46273  10.345   1.956   7.154 -0.0778 -0.1815  0.8281
  336MOL0     C46274  10.335   2.096   7.092  0.0040  0.3339  0.3465
  336MOL0    Cl46275  10.447   2.123   6.951 -0.1273 -0.0622 -0.2099
  336MOL0     C46276   9.618   1.702   6.812 -0.1774  0.6191  0.3684
  336MOL0     C46277   9.490   1.665   6.843  0.2823  0.3479 -0.2353
  336MOL0     O46278   9.232   1.718   6.621 -0.0420  0.1008 -0.1455
  336MOL0     C46279   9.037   1.452   6.773  0.6181 -0.3379 -0.5478
  336MOL0     C46280   8.908   1.408   6.796  0.7949 -0.4389  0.2907
  336MOL0     N46281   8.281   1.716   7.104  0.7114 -0.5393 -0.2890
  336MOL0     N46282   8.195   1.807   7.142  0.7202  0.5744 -0.6420
  336MOL0     C46283   6.746   1.925   7.162  0.8950  0.4783  0.1364
  336MOL0     C46284   6.612   1.892   7.194  0.4793 -0.6531 -0.4771
  336MOL0     C46285   6.229   1.845   7.394  0.3735 -0.2048  1.4602
  336MOL0     C46286   6.172   1.762   7.294 -0.9687 -0.2633 -0.3621
  336MOL0     C46287   6.043   1.730   7.300 -0.4225  0.2822 -0.5664
  336MOL0     C46288   5.958   1.767   7.405 -0.4686 -0.4184 -0.1224
  336MOL0     O46289   5.819   1.748   7.426 -0.5197  0.4948 -0.1784
  336MOL0     C46290   5.760   1.648   7.329  0.5884  0.1677  0.0739
  336MOL0     C46291   5.615   1.608   7.355  0.0496 -0.6385 -0.1336
  336MOL0     C46292   5.600   1.515   7.479 -0.2982 -0.8073 -0.1820
  336MOL0     C46293   5.454   1.498   7.518 -0.6298 -0.0950 -0.1273
  336MOL0     C46294   5.383   1.419   7.420  0.6092 -0.5137 -0.0457
  336MOL0     C46295   5.312   1.354   7.342 -0.8557 -0.7489  0.0177
  336MOL0     C46296   6.022   1.845   7.500 -0.2166  0.0718  0.2373
  336MOL0     C46297   6.152   1.891   7.501 -0.0950 -0.3480  0.8854
  336MOL0     C46298   6.215   1.967   7.620 -0.1891 -1.1893  0.2101
  336MOL0     H46299   6.665   1.696   7.460 -0.4313  0.9090  0.5211
  336MOL0     H46300   6.905   1.732   7.399 -1.6617  1.0059  1.1825
  336MOL0     H46301   7.105   1.760   7.229  0.6614  1.0404  0.1253
  336MOL0     H46302   7.092   1.881   7.355  0.9329  1.5954 -0.5794
  336MOL0     H46303   7.189   1.958   7.076  0.3183  2.7830 -0.3394
  336MOL0     H46304   7.219   2.051   7.218  1.3068  1.1196 -3.3885
  336MOL0     H46305   7.354   1.847   7.323 -3.1358  1.1887  1.7203
  336MOL0     H46306   7.331   1.764   7.168 -1.3360  0.3028  0.3664
  336MOL0     H46307   7.440   1.943   7.047 -1.9388  1.2310  0.6618
  336MOL0     H46308   7.456   2.037   7.191  3.1272 -0.1327  2.1048
  336MOL0     H46309   7.587   1.755   7.182  1.2588 -0.1377  0.1442
  336MOL0     H46310   7.609   1.861   7.307 -2.5108 -1.7142  1.2747
  336MOL0     H46311   7.684   1.921   7.025 -2.3983 -1.8093 -0.0924
  336MOL0     H46312   7.734   2.023   7.163  3.0019 -0.7002 -1.2754
  336MOL0     H46313   7.836   1.727   7.132  1.4418  0.3878  1.2212
  336MOL0     H46314   7.858   1.837   7.275 -0.7208  1.6897  1.2849
  336MOL0     H46315   7.934   1.927   6.994  1.1958 -1.2068 -0.6527
  336MOL0     H46316   7.991   1.981   7.149 -1.1635 -0.0299 -0.1701
  336MOL0     H46317   8.015   1.613   6.955 -1.4624  0.8175  0.3736
  336MOL0     H46318   8.259   1.475   6.877 -0.6794  0.3333  0.3031
  336MOL0     H46319   8.254   1.420   7.051  3.8196 -2.4131 -0.3837
  336MOL0     H46320   8.461   1.583   6.909 -0.0376 -2.2482 -1.7958
  336MOL0     H46321   8.459   1.555   7.090 -0.4571 -0.0818  0.5436
  336MOL0     H46322   8.483   1.316   7.057  1.4420  2.5391  1.2048
  336MOL0     H46323   8.435   1.326   6.892  0.8534 -2.1127  0.4146
  336MOL0     H46324   8.693   1.441   6.996 -0.0974 -0.1365  0.7578
  336MOL0     H46325   8.682   1.289   6.909 -2.6537 -0.4395 -4.3859
  336MOL0     H46326   8.740   1.659   6.654  0.7539 -0.6375 -2.3176
  336MOL0     H46327   9.011   1.782   6.513 -1.3332 -0.5836 -0.6031
  336MOL0     H46328   9.022   1.859   6.672 -1.6878  1.0939 -0.3917
  336MOL0     H46329   8.860   1.830   6.587 -0.4345 -0.2791 -0.5607
  336MOL0     H46330   9.423   1.469   6.576 -0.8775  1.3962  0.1027
  336MOL0     H46331   9.670   1.517   6.529  0.6117  0.8660  0.4853
  336MOL0     H46332   9.888   1.488   6.740  2.0521 -0.4467 -1.4983
  336MOL0     H46333   9.914   1.515   6.569 -1.8369  0.8773 -1.0880
  336MOL0     H46334  10.122   1.542   6.725  0.4517  2.8760  4.4339
  336MOL0     H46335  10.087   1.646   6.587  0.5325 -2.2447 -1.5451
  336MOL0     H46336   9.986   1.719   6.865 -1.1170  1.8245 -1.8700
  336MOL0     H46337  10.043   1.825   6.753  1.4032  0.5932  0.8562
  336MOL0     H46338  10.285   1.749   6.789 -0.0781  2.4200  0.5259
  336MOL0     H46339  10.227   1.637   6.912 -1.0355 -0.3739  1.2249
  336MOL0     H46340  10.171   1.929   6.932  0.8405  0.1394 -0.6549
  336MOL0     H46341  10.126   1.813   7.045 -0.5874 -0.4513 -0.8301
  336MOL0     H46342  10.424   1.837   7.002 -0.0389 -1.7335 -0.4867
  336MOL0     H46343  10.327   1.745   7.120  3.1596  0.3756  0.3755
  336MOL0     H46344  10.444   1.947   7.200  0.7213 -2.9810 -1.1548
  336MOL0     H46345  10.267   1.939   7.228  0.0429 -1.6425  0.6434
  336MOL0     H46346  10.349   2.168   7.173 -0.2097 -0.0616  0.7395
  336MOL0     H46347  10.238   2.100   7.041 -1.3821 -4.9132  1.9606
  336MOL0     H46348   9.679   1.762   6.879  1.4995 -4.2613  3.7749
  336MOL0     H46349   9.441   1.691   6.936 -0.8963 -0.4617 -0.6071
  336MOL0     H46350   9.116   1.386   6.806  2.8599  3.9043  3.8492
  336MOL0     H46351   8.890   1.318   6.854  2.5793 -0.4088  0.9273
  336MOL0     H46352   6.760   1.986   7.074 -2.5919 -1.5417 -2.0470
  336MOL0     H46353   6.528   1.931   7.137 -0.1637 -1.9957 -0.4847
  336MOL0     H46354   6.245   1.731   7.221  1.4842  1.5045  1.1726
  336MOL0     H46355   5.997   1.668   7.224 -0.2809 -0.3162 -0.1719
  336MOL0     H46356   5.756   1.701   7.233  1.3419  0.9778  0.4733
  336MOL0     H46357   5.832   1.566   7.334 -0.2170 -0.4737  3.6562
  336MOL0     H46358   5.571   1.553   7.271  1.9235 -0.9300 -0.9722
  336MOL0     H46359   5.558   1.700   7.373 -1.1180 -1.4657  0.5374
  336MOL0     H46360   5.653   1.422   7.458  1.6425  0.4753 -1.3396
  336MOL0     H46361   5.649   1.561   7.565 -1.6367  2.5059 -1.0286
  336MOL0     H46362   5.407   1.595   7.540 -0.3411  0.2099 -0.7855
  336MOL0     H46363   5.451   1.440   7.610 -0.0870  1.5437  0.9663
  336MOL0     H46364   5.259   1.290   7.274  0.5854 -0.6905 -1.2168
  336MOL0     H46365   5.960   1.878   7.583 -0.2546  0.8362 -0.0884
  336MOL0     H46366   6.317   1.934   7.636  0.9582  0.9196 -1.9909
  336MOL0     H46367   6.220   2.073   7.592  0.0857 -0.7977  1.6942
  336MOL0     H46368   6.164   1.964   7.717  1.2444 -2.3306  0.9528
  337MOL0     O46369   5.655   6.578   2.950  0.0986 -0.0697  0.7828
  337MOL0     C46370   5.650   6.695   2.988  0.6766 -0.3038  0.2072
  337MOL0     O46371   5.755   6.768   3.020 -0.2086 -0.0864 -0.5304
  337MOL0     C46372   5.877   6.716   3.002  0.3696  0.0151 -0.0229
  337MOL0     C46373   5.959   6.719   3.119 -0.3780  0.0188  0.5934
  337MOL0     C46374   6.088   6.670   3.112  0.4424  0.3521  0.4391
  337MOL0     C46375   6.142   6.633   2.988 -0.1740 -0.2051 -0.5032
  337MOL0     O46376   6.270   6.587   2.984 -0.5055  0.1041 -0.6679
  337MOL0     C46377   6.372   6.672   3.047  0.0263 -1.1555 -0.3606
  337MOL0     C46378   6.506   6.616   3.009 -0.0468  0.0801  0.0140
  337MOL0     C46379   6.621   6.705   3.055  0.9482  0.4724 -0.0388
  337MOL0     C46380   6.759   6.650   3.014  0.2870 -0.0465  0.5038
  337MOL0     C46381   6.810   6.538   3.105 -0.1383 -0.7562  0.3457
  337MOL0     C46382   6.944   6.473   3.071 -0.6236 -0.2878 -0.3279
  337MOL0     C46383   7.062   6.565   3.120  0.5628  1.0216 -0.2444
  337MOL0     C46384   7.183   6.472   3.133 -0.5007  0.4761 -0.0605
  337MOL0     N46385   7.306   6.545   3.156  0.1752  0.0248  0.0759
  337MOL0     C46386   7.376   6.613   3.058 -0.2319  0.2398 -0.4763
  337MOL0     C46387   7.500   6.627   3.116 -0.5183  1.0265  0.0316
  337MOL0     C46388   7.613   6.688   3.036  0.2368 -0.0554  0.4208
  337MOL0     C46389   7.728   6.583   3.034 -0.9280  0.5116 -0.4691
  337MOL0     C46390   7.861   6.645   2.969  1.0605  0.3559 -0.6192
  337MOL0     C46391   7.996   6.607   3.018 -0.2456  0.0611  0.3213
  337MOL0     O46392   8.029   6.493   2.941 -0.3324  0.4207 -0.6172
  337MOL0     C46393   8.163   6.457   2.931  0.6121 -0.5814 -0.1102
  337MOL0     C46394   8.200   6.356   2.834 -0.1262  0.4996 -0.1835
  337MOL0     C46395   8.331   6.302   2.817  0.8775 -0.6645 -0.5632
  337MOL0     C46396   8.353   6.186   2.711  0.4481 -0.2362 -0.2593
  337MOL0     C46397   8.422   6.357   2.907 -0.4138  0.8018 -0.1866
  337MOL0     C46398   8.571   6.312   2.899 -0.5169 -0.9059 -0.3679
  337MOL0     O46399   8.597   6.218   2.814  0.1502 -0.1466 -0.1274
  337MOL0     C46400   8.722   6.161   2.789  0.3071  0.2215 -0.2233
  337MOL0     C46401   8.718   6.025   2.762  0.4144 -0.5453  0.2611
  337MOL0     C46402   8.827   5.964   2.707 -0.4400 -0.7041 -0.2236
  337MOL0     C46403   8.939   6.030   2.683 -0.1430 -0.0663  0.0981
  337MOL0     O46404   9.045   5.975   2.612  0.2293  0.0500 -0.3186
  337MOL0     C46405   9.095   5.851   2.670 -0.2711 -0.4165  0.9366
  337MOL0     C46406   9.243   5.871   2.706  0.6526 -0.5933  0.0795
  337MOL0     C46407   9.331   5.959   2.613  0.0822  0.0962  0.3337
  337MOL0     C46408   9.356   5.897   2.472 -0.6553 -0.0688 -0.0473
  337MOL0     C46409   9.449   5.980   2.392  0.0995 -1.2014 -0.1851
  337MOL0     C46410   9.373   6.093   2.324  0.3238  0.7376 -0.6200
  337MOL0     C46411   9.453   6.154   2.218 -0.1037 -0.2853  0.8609
  337MOL0     C46412   9.376   6.261   2.140  0.1335  0.2164 -0.4741
  337MOL0    Cl46413   9.487   6.331   2.022  0.6503 -0.3479  0.0214
  337MOL0     C46414   8.946   6.165   2.695 -0.8338  0.2997  0.3615
  337MOL0     C46415   8.836   6.231   2.755 -0.4019 -1.0290 -1.0587
  337MOL0     O46416   8.650   6.357   2.980 -0.2457 -0.0759 -0.1145
  337MOL0     C46417   8.384   6.444   3.019 -0.3636 -0.9343 -0.3436
  337MOL0     C46418   8.258   6.482   3.034  0.4614  0.3987 -0.1747
  337MOL0     N46419   7.498   6.582   3.251 -0.3090  0.4280  0.0358
  337MOL0     N46420   7.383   6.546   3.272  0.3628 -0.5442 -0.4767
  337MOL0     C46421   6.067   6.633   2.871 -0.9145  0.6928  0.5889
  337MOL0     C46422   5.927   6.672   2.874  1.2700  0.2259  0.4960
  337MOL0     C46423   5.514   6.755   3.003 -0.2728  0.1294  0.0206
  337MOL0     C46424   5.402   6.686   2.960  0.2164  0.0456 -0.3394
  337MOL0     C46425   5.278   6.748   2.957 -0.2086 -0.7789 -0.6587
  337MOL0     C46426   5.251   6.874   3.005  0.1603  0.9359 -0.0182
  337MOL0     O46427   5.125   6.912   3.001  0.1313  0.1392  0.6730
  337MOL0     C46428   5.098   7.053   3.017  0.4255 -0.3355  0.0387
  337MOL0     C46429   4.944   7.075   3.037 -0.1763  0.9962  0.4790
  337MOL0     C46430   4.857   7.027   2.920 -0.1459 -0.2859 -0.0865
  337MOL0     C46431   4.841   7.122   2.800  0.0837  0.2946 -0.2450
  337MOL0     C46432   4.834   7.051   2.673  0.2058 -0.5371 -0.2664
  337MOL0     C46433   4.810   7.022   2.556  0.7503  0.2028  0.0697
  337MOL0     C46434   5.361   6.947   3.049  0.3693  0.0182 -0.0623
  337MOL0     C46435   5.486   6.892   3.054 -0.4184  0.0987  0.5927
  337MOL0     C46436   5.600   6.970   3.127  0.3005  0.0732  0.4729
  337MOL0     H46437   5.910   6.756   3.208  0.0945  0.8600  0.5224
  337MOL0     H46438   6.144   6.680   3.205  1.4792 -1.3329  0.0311
  337MOL0     H46439   6.354   6.679   3.155  2.6519  1.3408  0.0283
  337MOL0     H46440   6.366   6.775   3.011  1.7532 -1.4109 -1.4707
  337MOL0     H46441   6.522   6.510   3.027  1.8133  0.0386 -1.5512
  337MOL0     H46442   6.514   6.628   2.900  0.5561 -1.5007 -0.1379
  337MOL0     H46443   6.615   6.807   3.017  0.9536  1.3433  2.1778
  337MOL0     H46444   6.614   6.713   3.164  1.1798  1.2749 -0.0762
  337MOL0     H46445   6.757   6.611   2.912  2.2471  2.1367 -0.4505
  337MOL0     H46446   6.831   6.732   3.012  0.5644  0.2937  6.3203
  337MOL0     H46447   6.731   6.462   3.102 -2.4129  1.4611  0.5120
  337MOL0     H46448   6.805   6.572   3.209 -1.9533  0.2444 -0.0196
  337MOL0     H46449   6.941   6.378   3.126 -1.5258 -0.9940 -1.5411
  337MOL0     H46450   6.954   6.449   2.965 -2.9879  3.4861 -1.5713
  337MOL0     H46451   7.041   6.609   3.218 -0.7820 -1.2337  0.5750
  337MOL0     H46452   7.074   6.651   3.054 -1.4693  1.5023 -0.0574
  337MOL0     H46453   7.163   6.411   3.222  0.7681  0.5991  0.3289
  337MOL0     H46454   7.186   6.414   3.040 -1.7332 -1.8959  1.2692
  337MOL0     H46455   7.332   6.649   2.965 -0.8342  0.4616 -0.1134
  337MOL0     H46456   7.640   6.779   3.089 -1.0357  1.4199 -1.3639
  337MOL0     H46457   7.585   6.720   2.936  1.8577  1.0889  0.3083
  337MOL0     H46458   7.747   6.544   3.135  0.1738  0.0946 -0.8222
  337MOL0     H46459   7.696   6.492   2.982 -1.4279 -0.5904  1.6517
  337MOL0     H46460   7.854   6.619   2.863  1.5016 -0.9315 -0.3531
  337MOL0     H46461   7.853   6.753   2.984  2.3684  0.3202  0.6149
  337MOL0     H46462   8.072   6.680   2.989  0.2635 -1.6300 -3.1779
  337MOL0     H46463   8.000   6.586   3.125  0.8232 -0.3070  0.2206
  337MOL0     H46464   8.124   6.328   2.762 -0.3939 -2.4295  1.0754
  337MOL0     H46465   8.259   6.140   2.678  0.7354 -0.0387 -1.3890
  337MOL0     H46466   8.414   6.102   2.747  1.8599  1.0028  0.3422
  337MOL0     H46467   8.390   6.241   2.625 -3.0329  1.4996 -0.8138
  337MOL0     H46468   8.636   5.957   2.782  0.5314 -0.8751 -0.3501
  337MOL0     H46469   8.817   5.860   2.679  1.2716 -0.4203 -2.0329
  337MOL0     H46470   9.029   5.822   2.753 -3.7787 -1.2439 -1.8850
  337MOL0     H46471   9.075   5.774   2.595 -2.8979  0.8454  0.2231
  337MOL0     H46472   9.240   5.933   2.797 -2.9277 -0.0499 -0.2644
  337MOL0     H46473   9.307   5.783   2.723 -0.7894 -2.3674 -2.9867
  337MOL0     H46474   9.426   5.972   2.666  2.0418  1.6558 -3.2041
  337MOL0     H46475   9.286   6.058   2.602 -0.7865 -0.2620  0.6134
  337MOL0     H46476   9.258   5.884   2.424 -0.8995 -1.2874  0.7341
  337MOL0     H46477   9.410   5.803   2.483  2.1701  1.5364  0.5911
  337MOL0     H46478   9.521   6.018   2.465  0.5143 -0.0997 -1.1324
  337MOL0     H46479   9.505   5.927   2.315  0.4777  0.2481 -0.9509
  337MOL0     H46480   9.338   6.170   2.392  1.6482  0.8381 -0.0078
  337MOL0     H46481   9.283   6.058   2.273 -0.2023  2.4228 -0.9052
  337MOL0     H46482   9.497   6.078   2.153  1.2417  1.3446 -0.2450
  337MOL0     H46483   9.533   6.214   2.263 -0.6444  0.3412  0.9952
  337MOL0     H46484   9.341   6.343   2.203 -1.0229  0.4648 -1.3967
  337MOL0     H46485   9.288   6.215   2.093  0.2421 -1.2617  0.7051
  337MOL0     H46486   9.037   6.211   2.657 -1.5951  0.6282 -1.1550
  337MOL0     H46487   8.832   6.339   2.757  2.9437 -0.8104 -0.6800
  337MOL0     H46488   8.461   6.477   3.088  0.3127 -0.2821 -1.3773
  337MOL0     H46489   8.237   6.551   3.115 -1.4088  0.3082 -0.5531
  337MOL0     H46490   6.115   6.592   2.782 -0.4952 -1.6459  1.8334
  337MOL0     H46491   5.866   6.684   2.786  1.2979  0.6471  0.5319
  337MOL0     H46492   5.411   6.580   2.940  2.4220 -0.3701  2.3246
  337MOL0     H46493   5.196   6.703   2.901 -0.7757  2.0240 -2.2836
  337MOL0     H46494   5.145   7.104   3.102 -1.7755  2.6197 -0.3339
  337MOL0     H46495   5.143   7.104   2.931  1.5610  1.0325  1.3528
  337MOL0     H46496   4.939   7.182   3.056  0.3519  0.9633  0.8111
  337MOL0     H46497   4.917   7.015   3.125 -0.8487 -0.0567 -0.4159
  337MOL0     H46498   4.902   6.933   2.885 -1.3793  0.5040 -4.3164
  337MOL0     H46499   4.761   6.991   2.959  1.6715 -3.7901  1.6050
  337MOL0     H46500   4.932   7.182   2.804 -0.5358  1.1878  1.5150
  337MOL0     H46501   4.757   7.190   2.817  1.2882  1.7797 -0.0332
  337MOL0     H46502   4.781   6.985   2.459  0.5418 -5.1393  1.8231
  337MOL0     H46503   5.343   7.043   3.097 -0.9119 -0.8823  1.3977
  337MOL0     H46504   5.679   6.989   3.054  0.2110 -2.5058 -0.3969
  337MOL0     H46505   5.561   7.065   3.164  1.5399  0.5332  0.6430
  337MOL0     H46506   5.638   6.915   3.213 -2.9140 -2.0649  0.7141
  338MOL0     O46507   7.062  10.243   4.450 -0.6811  0.2163 -0.1674
  338MOL0     C46508   6.961  10.183   4.400 -0.1772 -0.4248  0.6978
  338MOL0     O46509   6.971  10.122   4.281  0.1523  0.1580  0.0550
  338MOL0     C46510   7.092  10.121   4.216  0.3216  0.4530 -0.5744
  338MOL0     C46511   7.099  10.140   4.080  0.4765 -0.5115 -0.5445
  338MOL0     C46512   7.216  10.154   4.014 -0.2928  1.0176  0.2885
  338MOL0     C46513   7.335  10.129   4.082  0.2455  0.7212 -0.0774
  338MOL0     O46514   7.453  10.132   4.020 -0.0299  0.5188  0.0778
  338MOL0     C46515   7.512  10.255   3.972 -0.2755  0.2727 -0.6521
  338MOL0     C46516   7.651  10.244   3.904  0.2175 -0.4992 -0.3127
  338MOL0     C46517   7.760  10.161   3.979  0.5933  0.5965  0.3300
  338MOL0     C46518   7.910  10.191   3.931 -0.9671 -0.0696  0.3392
  338MOL0     C46519   8.018  10.086   3.973  0.3271  0.0468  0.0720
  338MOL0     C46520   8.001   9.960   3.889  0.2226 -0.1088  0.0805
  338MOL0     C46521   8.108   9.857   3.924  0.4002  0.8831  0.5729
  338MOL0     C46522   8.246   9.898   3.857  0.0663  0.8078  0.1352
  338MOL0     N46523   8.347   9.798   3.896 -0.7119 -0.2585  0.4491
  338MOL0     C46524   8.358   9.669   3.855 -0.0890  0.0858  1.1933
  338MOL0     C46525   8.458   9.625   3.930  0.3975 -0.0374 -0.0177
  338MOL0     C46526   8.493   9.480   3.939 -0.7385 -0.5483  0.1589
  338MOL0     C46527   8.642   9.434   3.924  0.0696  0.0463  0.1951
  338MOL0     C46528   8.694   9.499   3.790  0.0668  0.9049 -0.6593
  338MOL0     C46529   8.807   9.603   3.823  0.3224 -0.3746  0.8762
  338MOL0     O46530   8.841   9.665   3.697  0.0373 -0.3367  0.0689
  338MOL0     C46531   8.965   9.728   3.682 -0.2227 -0.2739  0.0002
  338MOL0     C46532   9.051   9.760   3.785 -0.4671  1.0505 -0.3078
  338MOL0     C46533   9.176   9.802   3.765  0.7098 -0.1957  0.3242
  338MOL0     C46534   9.271   9.817   3.876 -0.0301 -0.0874 -0.3814
  338MOL0     C46535   9.206   9.849   3.630  0.1545 -0.0708 -0.6689
  338MOL0     C46536   9.340   9.909   3.582 -0.0849  0.1152 -0.1627
  338MOL0     O46537   9.450   9.871   3.645  0.2926  0.6157 -0.8141
  338MOL0     C46538   9.560   9.941   3.621 -0.2239  0.3184 -0.1083
  338MOL0     C46539   9.677   9.859   3.593 -0.0181 -0.7621 -0.4807
  338MOL0     C46540   9.804   9.918   3.573 -0.3872 -0.7435 -0.5495
  338MOL0     C46541   9.812  10.059   3.569 -0.1789 -0.0199 -0.0439
  338MOL0     O46542   9.929  10.106   3.522  0.6941 -0.4314  0.4594
  338MOL0     C46543   9.917  10.207   3.418  0.4905 -0.0587 -0.3797
  338MOL0     C46544  10.046  10.219   3.335  0.1084 -1.2661  0.1837
  338MOL0     C46545  10.025  10.328   3.216  0.2229  0.2568 -0.5183
  338MOL0     C46546  10.039  10.474   3.260 -0.1995  0.4565 -0.1614
  338MOL0     C46547   9.995  10.563   3.154  0.0233  0.6803 -0.4660
  338MOL0     C46548  10.074  10.692   3.163 -0.1778  0.1579  0.1897
  338MOL0     C46549  10.022  10.791   3.056 -0.3297 -0.2733  1.1533
  338MOL0     C46550  10.103  10.915   3.045 -0.0215 -0.4575  0.0586
  338MOL0    Cl46551  10.279  10.877   3.035 -0.3411 -0.1765 -0.5044
  338MOL0     C46552   9.698  10.136   3.593  0.8118 -0.3898  0.5474
  338MOL0     C46553   9.574  10.080   3.618 -0.1014  0.4114  0.0198
  338MOL0     O46554   9.339   9.980   3.482  0.3919  0.3841 -0.3579
  338MOL0     C46555   9.108   9.842   3.530  0.5841 -0.7545  0.3536
  338MOL0     C46556   8.997   9.767   3.552  0.0392  0.5563 -0.4643
  338MOL0     N46557   8.508   9.729   4.004 -0.4971 -0.3230 -0.9544
  338MOL0     N46558   8.446   9.835   3.983  0.4482  0.3301  0.2893
  338MOL0     C46559   7.335  10.097   4.217 -0.7377 -0.3572 -0.6819
  338MOL0     C46560   7.215  10.092   4.283  0.5665  0.6837  0.0206
  338MOL0     C46561   6.832  10.184   4.477 -0.0679  0.8587  0.2289
  338MOL0     C46562   6.799  10.292   4.559 -0.4472 -0.0317  0.5418
  338MOL0     C46563   6.677  10.299   4.630 -0.2328  0.2017  0.1343
  338MOL0     C46564   6.585  10.192   4.624  0.7623 -0.7152 -0.2727
  338MOL0     O46565   6.465  10.184   4.698 -0.5278  0.3045  0.0230
  338MOL0     C46566   6.420  10.305   4.747  0.8517 -0.5618 -0.6296
  338MOL0     C46567   6.293  10.275   4.828  0.2266  0.2222 -0.0724
  338MOL0     C46568   6.222  10.404   4.882  0.1322  0.3472 -0.2179
  338MOL0     C46569   6.096  10.432   4.808  0.3944 -1.2191 -0.5493
  338MOL0     C46570   6.130  10.498   4.679 -0.3267 -0.4056  0.9874
  338MOL0     C46571   6.140  10.558   4.575 -1.1137  0.5490 -0.9112
  338MOL0     C46572   6.620  10.084   4.544  0.1038 -0.4935 -0.1651
  338MOL0     C46573   6.736  10.077   4.468  0.3081 -0.2695 -0.3236
  338MOL0     C46574   6.762   9.954   4.395 -0.3849  0.2279  0.3563
  338MOL0     H46575   7.006  10.136   4.025  0.1182 -2.0558  0.1246
  338MOL0     H46576   7.220  10.172   3.907  2.7040 -1.4541 -0.1551
  338MOL0     H46577   7.503  10.330   4.051 -2.7816 -0.5338 -0.0809
  338MOL0     H46578   7.442  10.284   3.893 -1.4544 -0.2464  0.1716
  338MOL0     H46579   7.640  10.202   3.804 -0.2387 -2.2001  0.4193
  338MOL0     H46580   7.699  10.340   3.882 -1.4172  0.0554 -1.6839
  338MOL0     H46581   7.747  10.191   4.083  0.8833 -0.1222  0.5768
  338MOL0     H46582   7.739  10.054   3.974 -1.3452  0.9522 -0.1440
  338MOL0     H46583   7.917  10.205   3.822  1.8020  2.1151  0.6909
  338MOL0     H46584   7.944  10.283   3.979  0.3477 -0.3779  0.0589
  338MOL0     H46585   8.001  10.068   4.080 -2.0804  1.5178  0.0197
  338MOL0     H46586   8.122  10.121   3.975  1.1831 -2.3143 -0.3037
  338MOL0     H46587   7.900   9.920   3.900 -0.8303  1.5857 -2.4313
  338MOL0     H46588   8.004   9.995   3.786 -1.2047 -0.0921  0.0276
  338MOL0     H46589   8.070   9.756   3.906  1.1163  0.1384  2.8325
  338MOL0     H46590   8.122   9.866   4.032 -0.5782 -1.8921  1.0076
  338MOL0     H46591   8.242   9.902   3.748  2.4325 -2.4179 -0.1996
  338MOL0     H46592   8.282   9.994   3.895  0.7846 -0.0966  1.8583
  338MOL0     H46593   8.288   9.612   3.794  0.0289 -1.0820  2.1113
  338MOL0     H46594   8.429   9.422   3.871 -0.9497 -1.8844  1.4398
  338MOL0     H46595   8.478   9.440   4.040 -2.8143 -1.7161 -0.5590
  338MOL0     H46596   8.693   9.468   4.015  0.8969 -1.1739  0.2115
  338MOL0     H46597   8.661   9.326   3.922  0.7192  0.1420  0.8133
  338MOL0     H46598   8.738   9.419   3.731  0.4727 -0.9312  1.9507
  338MOL0     H46599   8.613   9.548   3.735 -0.9554 -2.6196 -2.5952
  338MOL0     H46600   8.774   9.675   3.898 -0.8017 -0.5108  0.5350
  338MOL0     H46601   8.891   9.548   3.867 -0.5892 -1.6568  1.0875
  338MOL0     H46602   9.017   9.730   3.884  0.9597  0.9187  0.1566
  338MOL0     H46603   9.232   9.784   3.973  0.4686  3.5322  1.2067
  338MOL0     H46604   9.308   9.920   3.876  0.6007 -0.2921  0.9436
  338MOL0     H46605   9.353   9.746   3.859  0.4611 -0.1949  2.0911
  338MOL0     H46606   9.669   9.752   3.580 -1.1868 -0.8613  0.8010
  338MOL0     H46607   9.900   9.878   3.541 -0.3356  0.3304 -1.8332
  338MOL0     H46608   9.826  10.177   3.365 -1.9972 -1.8737  4.2560
  338MOL0     H46609   9.905  10.305   3.466 -0.5405 -0.4139  0.1379
  338MOL0     H46610  10.137  10.234   3.394  0.9668 -0.4806 -1.2621
  338MOL0     H46611  10.061  10.118   3.296  0.0996 -1.5442  0.8861
  338MOL0     H46612   9.923  10.325   3.177  0.0289  0.0232 -0.0005
  338MOL0     H46613  10.093  10.312   3.132  0.8121  1.7901 -0.3683
  338MOL0     H46614  10.144  10.488   3.288  0.3891 -0.8815 -1.5302
  338MOL0     H46615   9.990  10.501   3.353 -0.1024  0.8469 -0.2191
  338MOL0     H46616  10.004  10.521   3.053  0.9851  2.1808 -1.0381
  338MOL0     H46617   9.888  10.578   3.172 -0.0791 -1.5843  1.2752
  338MOL0     H46618  10.178  10.672   3.137 -0.5964  1.4123 -2.8387
  338MOL0     H46619  10.056  10.743   3.258 -1.0453 -1.5611  0.9988
  338MOL0     H46620   9.916  10.811   3.070 -1.5091 -3.5365 -1.5951
  338MOL0     H46621  10.039  10.741   2.960 -0.7391 -1.3439  1.6160
  338MOL0     H46622  10.079  10.977   3.132 -0.3105 -1.6758  0.8685
  338MOL0     H46623  10.065  10.967   2.957  2.2814  0.5705 -0.3887
  338MOL0     H46624   9.700  10.243   3.573  0.6371 -0.9575 -3.2475
  338MOL0     H46625   9.474  10.119   3.638 -0.4255 -1.0469  1.5365
  338MOL0     H46626   9.136   9.873   3.430 -1.4213 -1.0997 -0.3504
  338MOL0     H46627   8.927   9.738   3.475  1.7710 -1.5576 -1.3568
  338MOL0     H46628   7.424  10.064   4.269 -2.8854 -0.7944  3.1314
  338MOL0     H46629   7.208  10.065   4.388 -0.8836  0.8170 -0.0191
  338MOL0     H46630   6.854  10.385   4.566 -0.6299 -0.0165  2.5715
  338MOL0     H46631   6.658  10.374   4.706 -3.9726 -1.6053  1.2044
  338MOL0     H46632   6.486  10.353   4.820  1.0199 -0.9622 -0.5166
  338MOL0     H46633   6.401  10.381   4.671  0.0880  1.7510  1.7170
  338MOL0     H46634   6.312  10.206   4.910  0.0972  0.4252  0.1302
  338MOL0     H46635   6.234  10.214   4.759 -2.6011  1.0915  1.4192
  338MOL0     H46636   6.187  10.381   4.983 -1.7784  1.8103 -0.4960
  338MOL0     H46637   6.281  10.495   4.878  1.2278 -0.3417 -0.1261
  338MOL0     H46638   6.037  10.499   4.871  1.5265 -2.2165  1.6764
  338MOL0     H46639   6.047  10.336   4.792  2.2836 -2.1857 -0.8500
  338MOL0     H46640   6.155  10.612   4.484  2.6835  1.0562 -0.1446
  338MOL0     H46641   6.540  10.012   4.528 -2.1553  1.7016  0.5787
  338MOL0     H46642   6.699   9.878   4.441 -1.2392  0.2068 -0.7978
  338MOL0     H46643   6.750   9.968   4.287  0.5720 -0.4433  0.1572
  338MOL0     H46644   6.860   9.910   4.410 -0.5591 -0.4708 -0.4666
  339MOL0     O46645   7.280  11.370   9.427 -0.2882 -0.1525  0.0110
  339MOL0     C46646   7.242  11.471   9.365  0.3679  0.6291 -0.9262
  339MOL0     O46647   7.314  11.545   9.281 -0.5268  0.3765  0.1455
  339MOL0     C46648   7.451  11.550   9.307  0.1077  0.5061 -0.6816
  339MOL0     C46649   7.512  11.543   9.438  1.0184  0.7231  0.1197
  339MOL0     C46650   7.647  11.541   9.460 -0.5322 -0.2480  0.4194
  339MOL0     C46651   7.742  11.553   9.352 -0.3015  1.1676  0.6892
  339MOL0     O46652   7.877  11.554   9.371  0.1442 -0.3438 -0.8728
  339MOL0     C46653   7.939  11.447   9.433 -0.3450  1.0094 -1.0934
  339MOL0     C46654   8.074  11.474   9.477 -0.5033  0.7036 -0.0435
  339MOL0     C46655   8.174  11.528   9.374 -0.2043  0.6742 -0.6344
  339MOL0     C46656   8.204  11.414   9.270 -0.7570 -0.1274 -0.1750
  339MOL0     C46657   8.328  11.441   9.177 -0.5101 -0.5365  0.1844
  339MOL0     C46658   8.462  11.388   9.218  0.0302 -0.8788 -0.8255
  339MOL0     C46659   8.577  11.423   9.123  0.5852 -0.2845 -0.3489
  339MOL0     C46660   8.538  11.393   8.971  0.5231  0.2452 -0.5117
  339MOL0     N46661   8.652  11.397   8.880 -0.0744 -0.2953  0.3114
  339MOL0     C46662   8.704  11.515   8.843  0.6743 -0.3625  0.3346
  339MOL0     C46663   8.812  11.465   8.781 -0.5045 -0.4400  0.7989
  339MOL0     C46664   8.898  11.562   8.692  0.4951  0.9611 -0.4860
  339MOL0     C46665   8.833  11.597   8.557 -0.4492 -0.0437  0.1730
  339MOL0     C46666   8.818  11.473   8.468  0.3087  0.0641 -0.3332
  339MOL0     C46667   8.942  11.381   8.450  0.2752  0.9204 -0.4312
  339MOL0     O46668   9.026  11.403   8.333  0.1332  0.1217 -0.7409
  339MOL0     C46669   9.105  11.513   8.332  0.8549  0.2233  0.4001
  339MOL0     C46670   9.063  11.633   8.266 -0.7090 -0.6721  0.3525
  339MOL0     C46671   9.142  11.748   8.266 -0.0553  0.5840  0.3695
  339MOL0     C46672   9.082  11.871   8.194 -0.5996  0.6665  0.1585
  339MOL0     C46673   9.278  11.738   8.332  0.1908 -0.3722 -0.7936
  339MOL0     C46674   9.380  11.847   8.334 -0.4935  0.0657 -0.0037
  339MOL0     O46675   9.337  11.978   8.357  0.8844 -0.4031 -0.0686
  339MOL0     C46676   9.426  12.088   8.364  0.8194  0.2977 -0.0527
  339MOL0     C46677   9.394  12.204   8.291 -0.4436 -1.6340 -0.7396
  339MOL0     C46678   9.481  12.319   8.283  0.6540  0.8171 -0.1383
  339MOL0     C46679   9.597  12.328   8.354 -0.6331 -0.2999  0.5711
  339MOL0     O46680   9.681  12.436   8.349  0.1524  0.4011  0.4614
  339MOL0     C46681   9.702  12.496   8.218  0.9177  0.1414  0.3967
  339MOL0     C46682   9.846  12.534   8.205 -0.4462  0.4077  0.9153
  339MOL0     C46683   9.933  12.409   8.213  1.0408  0.7289  0.0459
  339MOL0     C46684  10.083  12.429   8.198  0.4082  0.1520  0.0193
  339MOL0     C46685  10.149  12.472   8.328 -0.5449  0.4983 -0.2236
  339MOL0     C46686  10.306  12.464   8.323  0.6683 -0.4625  0.8214
  339MOL0     C46687  10.357  12.512   8.455 -0.0955 -0.8368  0.0110
  339MOL0     C46688  10.515  12.522   8.446 -0.1610  0.3314 -0.2491
  339MOL0    Cl46689  10.562  12.663   8.339 -0.3238 -0.5128 -0.2803
  339MOL0     C46690   9.636  12.213   8.428  1.0534  0.7366  0.0373
  339MOL0     C46691   9.551  12.088   8.429 -0.0699  0.1721  0.3428
  339MOL0     O46692   9.496  11.812   8.303  0.1706  0.2193 -0.3374
  339MOL0     C46693   9.308  11.616   8.395 -0.1330  0.0450  0.1783
  339MOL0     C46694   9.220  11.508   8.400  0.0740 -0.3655  0.0482
  339MOL0     N46695   8.813  11.325   8.766 -0.7725  0.3805 -0.2236
  339MOL0     N46696   8.718  11.283   8.835 -0.1169  0.1127  0.2025
  339MOL0     C46697   7.689  11.557   9.224 -0.5712 -0.2607  0.5843
  339MOL0     C46698   7.546  11.555   9.200 -0.6152  0.0772 -0.2587
  339MOL0     C46699   7.098  11.495   9.378 -0.1843 -0.2470 -0.0172
  339MOL0     C46700   7.029  11.523   9.261  0.2103 -0.3659  0.1555
  339MOL0     C46701   6.887  11.538   9.257 -0.7340  1.1106 -0.5433
  339MOL0     C46702   6.812  11.543   9.374  0.0732  0.4691  0.0164
  339MOL0     O46703   6.677  11.572   9.380 -0.0116 -0.6529 -0.0965
  339MOL0     C46704   6.623  11.674   9.293  0.0682 -0.0107  0.7274
  339MOL0     C46705   6.511  11.742   9.365 -0.2688 -0.1078  0.5378
  339MOL0     C46706   6.546  11.822   9.490 -0.7915 -1.3499  0.5390
  339MOL0     C46707   6.424  11.881   9.560 -0.4579  0.1871 -0.7170
  339MOL0     C46708   6.357  11.771   9.633 -0.1607  0.7408  0.1628
  339MOL0     C46709   6.292  11.690   9.691 -0.6525 -0.0582 -0.0014
  339MOL0     C46710   6.879  11.512   9.494 -0.0113  0.3044  0.5941
  339MOL0     C46711   7.019  11.489   9.496  0.0324 -0.0960 -0.5449
  339MOL0     C46712   7.089  11.473   9.628  0.0170  0.0581  0.2670
  339MOL0     H46713   7.445  11.540   9.523 -0.9254  1.0061 -1.3239
  339MOL0     H46714   7.689  11.538   9.560  3.1032 -0.3587 -0.9700
  339MOL0     H46715   7.948  11.359   9.369 -0.8445 -0.8305  1.2322
  339MOL0     H46716   7.891  11.409   9.524  0.4295 -1.8347 -1.7713
  339MOL0     H46717   8.060  11.551   9.555  0.6694  1.5872 -0.6761
  339MOL0     H46718   8.126  11.389   9.521 -0.6516  0.1320 -0.9481
  339MOL0     H46719   8.134  11.617   9.325 -0.8654  2.4227  2.7594
  339MOL0     H46720   8.259  11.564   9.433  0.1775  0.8539 -1.2862
  339MOL0     H46721   8.226  11.326   9.331  3.4531  0.9364  0.1282
  339MOL0     H46722   8.114  11.400   9.210 -0.3613 -0.5107 -0.6898
  339MOL0     H46723   8.340  11.547   9.154  0.3351 -0.2969  1.5723
  339MOL0     H46724   8.304  11.395   9.081 -0.9979 -1.2759  0.6434
  339MOL0     H46725   8.492  11.432   9.314  0.0717 -3.5215  0.4526
  339MOL0     H46726   8.447  11.280   9.223 -1.3147 -0.9363 -3.9066
  339MOL0     H46727   8.665  11.362   9.145 -0.2359 -1.7626 -0.9700
  339MOL0     H46728   8.609  11.524   9.149 -0.9525 -0.4106  2.3684
  339MOL0     H46729   8.487  11.297   8.960  0.5308  0.3702 -1.6714
  339MOL0     H46730   8.471  11.474   8.943 -1.7320 -2.0530 -2.2798
  339MOL0     H46731   8.671  11.619   8.850 -0.8126 -0.8957  2.2162
  339MOL0     H46732   9.001  11.525   8.695 -0.4752 -2.0748 -1.1490
  339MOL0     H46733   8.908  11.662   8.734 -0.3665  1.8342 -2.2495
  339MOL0     H46734   8.739  11.649   8.577  0.3976  1.6423 -0.0966
  339MOL0     H46735   8.890  11.665   8.494  3.6649 -2.1696  1.2544
  339MOL0     H46736   8.731  11.418   8.505 -0.7135  1.6377 -0.2955
  339MOL0     H46737   8.782  11.506   8.370  0.4027  2.8816  0.4838
  339MOL0     H46738   9.003  11.388   8.540  0.7833  1.9019 -0.8346
  339MOL0     H46739   8.903  11.279   8.450  3.0512 -0.2518  1.3611
  339MOL0     H46740   8.964  11.639   8.223 -1.1426  3.0815  1.4718
  339MOL0     H46741   9.165  11.940   8.173  1.2903 -1.9022 -1.4031
  339MOL0     H46742   9.011  11.905   8.269  1.1200 -0.2083  2.2967
  339MOL0     H46743   9.032  11.842   8.101  0.8365 -2.6737  0.2968
  339MOL0     H46744   9.304  12.195   8.231  0.0595 -0.8518 -1.6282
  339MOL0     H46745   9.467  12.395   8.208  0.6664  1.1064  0.1505
  339MOL0     H46746   9.673  12.434   8.132 -1.5814 -0.4307  1.5453
  339MOL0     H46747   9.632  12.580   8.217 -0.3382 -0.8621  0.3828
  339MOL0     H46748   9.865  12.581   8.109  0.4358  0.5551  1.1535
  339MOL0     H46749   9.877  12.612   8.275  1.6671 -1.6193  2.3931
  339MOL0     H46750   9.896  12.337   8.139  0.4303 -0.1900  1.2021
  339MOL0     H46751   9.928  12.357   8.309  0.8984 -0.9395 -0.8288
  339MOL0     H46752  10.092  12.497   8.112 -0.3128 -0.2366 -0.3727
  339MOL0     H46753  10.129  12.337   8.159  1.1658  1.4715 -2.4444
  339MOL0     H46754  10.122  12.576   8.349 -0.6378  0.3767  0.2911
  339MOL0     H46755  10.110  12.412   8.411 -1.2895 -1.5931 -2.0015
  339MOL0     H46756  10.325  12.534   8.241  1.8965  0.1932  1.6318
  339MOL0     H46757  10.334  12.362   8.296 -1.4286 -1.5431  2.3868
  339MOL0     H46758  10.334  12.440   8.535 -2.1795  3.2912  3.5587
  339MOL0     H46759  10.309  12.605   8.486 -2.9930 -2.7468  1.7202
  339MOL0     H46760  10.565  12.430   8.412 -2.0835 -0.5480 -0.7967
  339MOL0     H46761  10.547  12.542   8.549  1.8802  0.1025 -0.7929
  339MOL0     H46762   9.736  12.204   8.469  0.7714 -1.9560  0.3137
  339MOL0     H46763   9.578  11.998   8.483 -2.2321 -1.3840 -1.0031
  339MOL0     H46764   9.407  11.597   8.436 -0.2941 -2.1279 -0.3182
  339MOL0     H46765   9.254  11.413   8.441 -3.4465 -0.9631  1.9333
  339MOL0     H46766   7.751  11.572   9.136  0.1876 -2.0579  0.7848
  339MOL0     H46767   7.510  11.569   9.099  4.6948 -1.1475 -2.6803
  339MOL0     H46768   7.072  11.545   9.164 -2.6886  4.0874 -0.4411
  339MOL0     H46769   6.838  11.566   9.164 -0.0425  3.9079 -0.1477
  339MOL0     H46770   6.701  11.748   9.270  1.5129 -1.6701  0.0554
  339MOL0     H46771   6.593  11.624   9.200  1.4884 -0.7453  0.6305
  339MOL0     H46772   6.441  11.666   9.399  1.6619 -2.1569  0.1990
  339MOL0     H46773   6.457  11.803   9.293  0.5089 -0.8840 -0.7362
  339MOL0     H46774   6.600  11.770   9.570 -1.3709  1.8181  3.2065
  339MOL0     H46775   6.612  11.902   9.457  1.4601 -3.0204  0.7809
  339MOL0     H46776   6.359  11.937   9.492 -0.1625  2.9900  1.1494
  339MOL0     H46777   6.472  11.951   9.629 -0.0070  0.1239 -0.9624
  339MOL0     H46778   6.225  11.618   9.734 -0.8373 -1.2657 -2.1589
  339MOL0     H46779   6.836  11.515   9.593 -1.3772 -2.4592  0.1893
  339MOL0     H46780   7.034  11.513   9.713  1.4573 -1.9089  2.2466
  339MOL0     H46781   7.116  11.368   9.647 -2.2155 -0.7387 -0.6438
  339MOL0     H46782   7.176  11.540   9.624 -0.6054  0.8432 -2.4931
  340MOL0     O46783   6.218   6.379   5.840 -0.2630 -0.0832 -0.0545
  340MOL0     C46784   6.336   6.412   5.828 -0.0358  0.3100  0.0387
  340MOL0     O46785   6.385   6.538   5.841  0.5042 -0.2538 -0.4815
  340MOL0     C46786   6.294   6.639   5.869  0.3717 -0.2958 -0.6482
  340MOL0     C46787   6.227   6.711   5.766  0.6662  0.3061 -0.8564
  340MOL0     C46788   6.126   6.802   5.809 -0.3010 -0.0574  0.1291
  340MOL0     C46789   6.099   6.833   5.945 -0.0731 -1.0166  0.0632
  340MOL0     O46790   6.005   6.918   5.997 -0.0920  0.1125  0.1980
  340MOL0     C46791   5.888   6.964   5.923 -0.7133 -0.0130  0.7378
  340MOL0     C46792   5.803   6.850   5.883  0.0208 -0.2885  0.5007
  340MOL0     C46793   5.760   6.769   6.005 -0.1844  0.5770 -0.0121
  340MOL0     C46794   5.680   6.650   5.962  0.1410 -0.6270  0.4994
  340MOL0     C46795   5.667   6.533   6.071 -0.6129 -1.1447 -0.4129
  340MOL0     C46796   5.794   6.476   6.125 -0.1703 -0.3441 -0.0265
  340MOL0     C46797   5.887   6.430   6.014  0.0151 -0.7779 -1.4206
  340MOL0     C46798   5.983   6.316   6.077 -0.0377  0.2749 -0.5953
  340MOL0     N46799   6.061   6.357   6.195 -0.9404 -0.4815 -0.3399
  340MOL0     C46800   6.093   6.487   6.227  0.6511  0.3519 -0.1271
  340MOL0     C46801   6.174   6.469   6.334 -0.0510  0.0750 -0.0157
  340MOL0     C46802   6.236   6.580   6.414 -0.6226 -0.1957  1.2654
  340MOL0     C46803   6.395   6.563   6.396 -0.2804 -0.6167 -0.0888
  340MOL0     C46804   6.443   6.475   6.517  0.3681 -0.9302  1.1452
  340MOL0     C46805   6.449   6.549   6.646  0.3548  0.8068  0.2437
  340MOL0     O46806   6.547   6.651   6.643  1.0259 -0.1699 -0.3969
  340MOL0     C46807   6.676   6.605   6.651 -0.2349 -0.3755 -0.1556
  340MOL0     C46808   6.756   6.675   6.566 -0.2717  0.1253  0.3127
  340MOL0     C46809   6.889   6.641   6.546 -0.5439  0.6457  0.3647
  340MOL0     C46810   6.965   6.729   6.450 -0.1510  0.0426  0.2144
  340MOL0     C46811   6.937   6.535   6.631  0.1264  0.4170 -0.0950
  340MOL0     C46812   7.075   6.489   6.620 -0.3691 -0.0328 -0.7697
  340MOL0     O46813   7.093   6.357   6.571  0.2948  0.0965  0.5333
  340MOL0     C46814   7.225   6.324   6.545  0.0408 -0.7085  0.3539
  340MOL0     C46815   7.314   6.302   6.649  0.0323  0.1566  0.2579
  340MOL0     C46816   7.445   6.269   6.620  0.3673  0.0460 -0.0450
  340MOL0     C46817   7.489   6.250   6.484 -0.6377 -0.2884 -0.8249
  340MOL0     O46818   7.621   6.215   6.457  0.2592 -0.0309  0.0310
  340MOL0     C46819   7.649   6.159   6.327  0.0928 -0.6524 -0.5865
  340MOL0     C46820   7.796   6.120   6.329 -0.8746 -0.1419  0.0073
  340MOL0     C46821   7.822   5.985   6.263 -0.0319 -0.7991 -0.2251
  340MOL0     C46822   7.961   5.923   6.272  0.4304  0.0974  0.7417
  340MOL0     C46823   7.951   5.787   6.221  0.1488  1.2291  0.2044
  340MOL0     C46824   8.089   5.736   6.198  1.3050  0.3313 -0.6617
  340MOL0     C46825   8.086   5.579   6.190 -0.0468  0.9721 -0.0496
  340MOL0     C46826   8.221   5.518   6.175 -0.0824 -0.1470  0.5910
  340MOL0    Cl46827   8.215   5.346   6.166 -0.1673 -0.2801 -0.4456
  340MOL0     C46828   7.404   6.283   6.389  0.3375 -0.4224  0.6183
  340MOL0     C46829   7.272   6.328   6.415  0.0026  0.9114 -0.0450
  340MOL0     O46830   7.164   6.570   6.641 -0.5472 -0.1071  0.0493
  340MOL0     C46831   6.860   6.465   6.721  0.8108 -0.1124 -0.8218
  340MOL0     C46832   6.723   6.503   6.735 -0.0245  0.7415  0.1703
  340MOL0     N46833   6.185   6.340   6.377  0.7241  0.5996  0.0430
  340MOL0     N46834   6.118   6.274   6.290 -0.4266  0.2376  0.7482
  340MOL0     C46835   6.170   6.754   6.034  0.4537 -0.5872  1.3699
  340MOL0     C46836   6.267   6.659   5.999  1.2183 -0.3783  0.3773
  340MOL0     C46837   6.442   6.313   5.787 -0.3186 -0.3783  0.4412
  340MOL0     C46838   6.526   6.344   5.675  0.0135 -0.4135 -0.0760
  340MOL0     C46839   6.623   6.262   5.624  0.2634 -0.4026  1.0095
  340MOL0     C46840   6.641   6.138   5.686 -0.3413 -0.2974 -0.8514
  340MOL0     O46841   6.726   6.043   5.630  0.0458  0.0208 -0.4039
  340MOL0     C46842   6.726   5.905   5.664  0.4121 -0.1020 -0.1007
  340MOL0     C46843   6.792   5.804   5.572  0.8745  0.1939 -0.6619
  340MOL0     C46844   6.752   5.824   5.430 -0.4970  0.5641  0.2736
  340MOL0     C46845   6.819   5.728   5.321  0.2471  0.2007 -0.5907
  340MOL0     C46846   6.968   5.753   5.317  0.1076 -0.0744  0.4420
  340MOL0     C46847   7.087   5.771   5.293  0.1244 -0.3629  0.7207
  340MOL0     C46848   6.566   6.106   5.803 -0.0186  0.3031  0.2675
  340MOL0     C46849   6.467   6.195   5.852  0.3507 -0.2800 -0.7491
  340MOL0     C46850   6.387   6.149   5.974  0.1795 -0.0019  0.5623
  340MOL0     H46851   6.252   6.682   5.665 -1.1856 -2.0921 -0.7288
  340MOL0     H46852   6.089   6.864   5.728  2.6789  1.7590 -0.0188
  340MOL0     H46853   5.922   7.017   5.834  1.8280 -1.2759  0.8610
  340MOL0     H46854   5.829   7.028   5.989 -2.2486 -0.4136 -0.2039
  340MOL0     H46855   5.710   6.890   5.843  0.5318 -0.2486 -0.6786
  340MOL0     H46856   5.856   6.791   5.808  1.8177  0.5382  1.0527
  340MOL0     H46857   5.849   6.735   6.058  1.3536  3.0377 -0.8653
  340MOL0     H46858   5.705   6.822   6.085 -0.0954 -2.3823  2.1733
  340MOL0     H46859   5.578   6.686   5.944  0.1448  1.2031  3.3988
  340MOL0     H46860   5.724   6.599   5.876  0.0515 -1.5485  0.9859
  340MOL0     H46861   5.601   6.452   6.038  0.6341 -2.4017  0.0912
  340MOL0     H46862   5.618   6.584   6.154 -0.0662  0.4181 -1.0061
  340MOL0     H46863   5.841   6.551   6.190  0.6578  1.2922 -2.3741
  340MOL0     H46864   5.765   6.393   6.190  0.4348  1.4831  2.7619
  340MOL0     H46865   5.945   6.509   5.966  0.3547  1.9986  3.0015
  340MOL0     H46866   5.830   6.389   5.930 -0.7244  1.3949 -2.0246
  340MOL0     H46867   5.920   6.234   6.110 -0.9861  1.3426  0.3606
  340MOL0     H46868   6.056   6.295   5.998  1.8905  0.0900  1.1268
  340MOL0     H46869   6.053   6.581   6.192  0.4315  0.0807 -0.6240
  340MOL0     H46870   6.205   6.573   6.519 -0.0578  0.8369  1.5149
  340MOL0     H46871   6.202   6.674   6.369 -1.5218 -0.7194  0.8271
  340MOL0     H46872   6.420   6.523   6.297  2.9081 -1.0074  0.7566
  340MOL0     H46873   6.437   6.664   6.404 -1.6554 -0.0238 -0.1400
  340MOL0     H46874   6.377   6.388   6.524  1.6826 -2.2068 -1.0921
  340MOL0     H46875   6.540   6.436   6.486  1.0427  0.5364  1.2996
  340MOL0     H46876   6.350   6.586   6.672 -0.8665 -1.1465 -1.3484
  340MOL0     H46877   6.469   6.468   6.718 -0.8322 -1.9074 -2.2858
  340MOL0     H46878   6.712   6.749   6.500  0.2126  1.9342  1.9204
  340MOL0     H46879   6.926   6.704   6.351  0.2967  0.3533 -0.0466
  340MOL0     H46880   7.074   6.717   6.451 -0.0054  1.2375  0.6296
  340MOL0     H46881   6.937   6.830   6.480  0.0247  0.3722 -0.6908
  340MOL0     H46882   7.285   6.310   6.754  1.2144 -0.0754  0.6186
  340MOL0     H46883   7.518   6.245   6.697  0.4088 -2.2781 -0.7383
  340MOL0     H46884   7.586   6.071   6.310 -1.3827  0.0835  0.8854
  340MOL0     H46885   7.633   6.235   6.250 -1.1293  0.5044  0.7534
  340MOL0     H46886   7.854   6.200   6.282 -1.7683  0.9438  0.6942
  340MOL0     H46887   7.835   6.107   6.431 -0.8895 -1.6328 -0.1539
  340MOL0     H46888   7.799   6.001   6.158  0.3596  0.5419 -0.1321
  340MOL0     H46889   7.743   5.919   6.300  0.2132  0.5463  3.0539
  340MOL0     H46890   8.013   5.919   6.368  2.5509  1.2632 -0.2748
  340MOL0     H46891   8.013   5.996   6.208 -1.1007  1.8746  1.4161
  340MOL0     H46892   7.894   5.719   6.285  0.5253  1.6199  0.9691
  340MOL0     H46893   7.907   5.797   6.121 -1.3494 -2.5845  0.3134
  340MOL0     H46894   8.162   5.761   6.276  3.7339  0.8564 -2.9578
  340MOL0     H46895   8.121   5.786   6.107  1.3031 -1.5379 -1.7324
  340MOL0     H46896   8.017   5.540   6.115 -0.6782 -0.0832  1.0384
  340MOL0     H46897   8.053   5.544   6.288  3.1895  1.2378  1.2550
  340MOL0     H46898   8.285   5.545   6.260  0.0969 -0.4351  0.5472
  340MOL0     H46899   8.271   5.560   6.087 -3.2223  0.3459 -1.1127
  340MOL0     H46900   7.450   6.293   6.291 -0.0122 -0.2211  0.4739
  340MOL0     H46901   7.213   6.363   6.331 -0.6078  1.0225  0.4235
  340MOL0     H46902   6.896   6.383   6.783 -1.1120 -0.1647  0.3332
  340MOL0     H46903   6.658   6.461   6.811  1.5670 -1.1494  0.5725
  340MOL0     H46904   6.148   6.764   6.139  0.4745 -0.7727  1.3921
  340MOL0     H46905   6.312   6.590   6.069 -0.9695  0.0766  2.3375
  340MOL0     H46906   6.501   6.434   5.620 -0.3315  0.4672  1.4724
  340MOL0     H46907   6.679   6.296   5.538  1.7259  3.4780  3.2315
  340MOL0     H46908   6.763   5.910   5.768  0.7835  5.0154 -0.1895
  340MOL0     H46909   6.625   5.864   5.670  0.1116 -0.0751 -3.3994
  340MOL0     H46910   6.770   5.701   5.602  0.1681 -0.5503 -3.4313
  340MOL0     H46911   6.901   5.806   5.578  1.0161 -2.4495 -0.9025
  340MOL0     H46912   6.645   5.805   5.423 -0.5167  0.4760  0.8316
  340MOL0     H46913   6.772   5.929   5.405 -3.7242  1.5916  1.5348
  340MOL0     H46914   6.774   5.745   5.223 -2.0496  2.9406  0.7829
  340MOL0     H46915   6.807   5.623   5.350 -0.7178  0.3426 -0.4193
  340MOL0     H46916   7.180   5.804   5.252 -0.9233  0.0743 -1.4859
  340MOL0     H46917   6.587   6.011   5.851 -3.5042 -0.1062  1.2542
  340MOL0     H46918   6.331   6.229   6.024 -2.0203  1.0795 -3.2131
  340MOL0     H46919   6.306   6.086   5.935 -2.1004  1.6324  2.3631
  340MOL0     H46920   6.445   6.109   6.057  0.2788 -0.1556  0.4191
  341MOL0     O46921   5.778   4.122   0.734 -0.1779 -0.3622 -0.3448
  341MOL0     C46922   5.799   4.003   0.723  0.3074  0.0472 -0.1119
  341MOL0     O46923   5.730   3.907   0.777 -0.7149 -0.7243  0.2365
  341MOL0     C46924   5.631   3.920   0.872  0.3907 -0.8072 -0.2238
  341MOL0     C46925   5.634   4.017   0.968 -0.0568  0.4755 -0.2888
  341MOL0     C46926   5.540   4.032   1.072  0.6369  0.5884 -0.2563
  341MOL0     C46927   5.433   3.939   1.071  0.3214  0.8856 -0.1636
  341MOL0     O46928   5.342   3.935   1.176 -0.6454 -0.1898 -0.0503
  341MOL0     C46929   5.201   3.936   1.141  0.3727 -1.2247 -0.1231
  341MOL0     C46930   5.108   3.917   1.268  0.0408  1.1231 -0.9083
  341MOL0     C46931   5.137   3.776   1.320 -0.0016 -0.4912 -0.2338
  341MOL0     C46932   5.035   3.736   1.428 -0.1290 -0.1380  1.0299
  341MOL0     C46933   5.043   3.594   1.474 -0.7855  0.5214 -0.4551
  341MOL0     C46934   4.933   3.568   1.572  0.1763 -0.4701 -0.0732
  341MOL0     C46935   4.935   3.420   1.608 -0.2993  0.2296 -0.3691
  341MOL0     C46936   4.799   3.408   1.690 -1.4840 -0.7465  0.1947
  341MOL0     N46937   4.779   3.272   1.737  0.2565 -0.3906 -0.1634
  341MOL0     C46938   4.750   3.233   1.869  0.5960  1.1903 -0.3573
  341MOL0     C46939   4.754   3.096   1.868  0.2840 -0.5271 -0.5581
  341MOL0     C46940   4.734   2.988   1.976 -0.0369 -0.5231  1.2101
  341MOL0     C46941   4.599   2.927   1.968 -0.6711  0.0309 -0.7435
  341MOL0     C46942   4.577   2.824   2.081  0.3871 -0.3585  0.4668
  341MOL0     C46943   4.420   2.802   2.103 -0.4474 -0.2966  0.5205
  341MOL0     O46944   4.409   2.718   2.217  0.8075 -0.5525  0.2902
  341MOL0     C46945   4.279   2.690   2.263  0.1802  0.5027 -0.4599
  341MOL0     C46946   4.162   2.705   2.190  0.0434 -0.7784 -1.3560
  341MOL0     C46947   4.037   2.666   2.240 -0.2826 -0.0449  0.1321
  341MOL0     C46948   3.933   2.659   2.142  0.0075  0.0728 -0.4388
  341MOL0     C46949   4.017   2.628   2.381 -0.6797 -0.8950  0.9213
  341MOL0     C46950   3.889   2.597   2.446  0.0563  0.0279  0.1777
  341MOL0     O46951   3.902   2.591   2.583 -0.3007  0.0463  1.0483
  341MOL0     C46952   3.799   2.600   2.671  0.8439 -0.4905 -0.0300
  341MOL0     C46953   3.822   2.549   2.798 -0.4095 -0.2376  0.2851
  341MOL0     C46954   3.723   2.564   2.906 -0.0396 -0.0950 -0.0167
  341MOL0     C46955   3.605   2.643   2.887 -0.0285  0.0775 -0.1107
  341MOL0     O46956   3.513   2.653   2.995  1.0839  0.0665 -0.4454
  341MOL0     C46957   3.392   2.713   2.973  0.6881  0.2258  0.0442
  341MOL0     C46958   3.313   2.731   3.112 -0.6153  0.4426  0.3128
  341MOL0     C46959   3.164   2.751   3.092  0.2647 -0.3770 -0.8204
  341MOL0     C46960   3.126   2.858   2.991 -0.8430 -1.1223  0.1243
  341MOL0     C46961   2.968   2.886   3.004  0.7494 -0.3826 -0.6280
  341MOL0     C46962   2.879   2.764   2.971 -1.0315  0.1197  0.6717
  341MOL0     C46963   2.790   2.732   3.090  0.3791  0.0007  0.5423
  341MOL0     C46964   2.708   2.602   3.095 -0.7730 -0.0881  0.1211
  341MOL0    Cl46965   2.590   2.598   2.962 -0.3869 -0.3472 -0.7964
  341MOL0     C46966   3.582   2.707   2.761  0.6500 -0.0877 -0.6161
  341MOL0     C46967   3.683   2.682   2.656  0.3226 -0.5171  0.0541
  341MOL0     O46968   3.784   2.600   2.383  0.5223 -0.1265 -0.1183
  341MOL0     C46969   4.141   2.624   2.446  1.1380 -1.1154 -0.9409
  341MOL0     C46970   4.264   2.659   2.397 -0.0660 -0.0070 -0.7047
  341MOL0     N46971   4.770   3.057   1.741 -0.1598  0.4646 -0.2187
  341MOL0     N46972   4.781   3.159   1.661 -0.2290 -0.0232 -0.3561
  341MOL0     C46973   5.447   3.828   0.986 -0.2226  0.7603 -0.4125
  341MOL0     C46974   5.539   3.823   0.881 -0.0782 -0.1367  0.0666
  341MOL0     C46975   5.907   3.966   0.632 -0.0684 -0.4550  0.4975
  341MOL0     C46976   6.022   4.050   0.629  0.9791 -0.1494  0.0525
  341MOL0     C46977   6.132   4.020   0.544 -0.3758  0.4936 -0.5045
  341MOL0     C46978   6.136   3.906   0.464  1.6537  0.3910 -0.0681
  341MOL0     O46979   6.247   3.883   0.391  1.1016  0.3624 -0.3833
  341MOL0     C46980   6.287   3.750   0.369 -0.3621  0.5966 -0.7912
  341MOL0     C46981   6.344   3.688   0.490  0.1180 -0.1653 -0.2876
  341MOL0     C46982   6.349   3.538   0.499  0.5838  0.5057  0.0487
  341MOL0     C46983   6.446   3.483   0.402  0.3732  0.9699 -0.9411
  341MOL0     C46984   6.410   3.491   0.262  0.4406  0.1924  0.3549
  341MOL0     C46985   6.378   3.476   0.143  0.1989 -0.2905  0.1896
  341MOL0     C46986   6.010   3.838   0.459  0.7433  0.4149 -0.6478
  341MOL0     C46987   5.901   3.858   0.537 -0.0246 -1.3917 -0.2119
  341MOL0     C46988   5.776   3.779   0.525  0.0029  0.2584  1.0053
  341MOL0     H46989   5.709   4.095   0.976 -0.2375  0.5346  1.0714
  341MOL0     H46990   5.554   4.115   1.141  0.6313  0.5290 -0.1830
  341MOL0     H46991   5.177   3.858   1.069 -1.0479 -1.4647  0.5655
  341MOL0     H46992   5.174   4.035   1.104  0.8041 -0.8306  0.6024
  341MOL0     H46993   5.119   3.997   1.342 -0.6603  2.3087 -2.0387
  341MOL0     H46994   5.003   3.918   1.238 -0.6074 -0.9094  1.0325
  341MOL0     H46995   5.143   3.696   1.245  3.6494 -2.6490  2.0406
  341MOL0     H46996   5.238   3.781   1.361 -0.3064  0.8514  0.3981
  341MOL0     H46997   5.060   3.800   1.514 -1.3375  2.1599 -0.2281
  341MOL0     H46998   4.932   3.758   1.400  0.1622 -1.2296 -1.0643
  341MOL0     H46999   5.141   3.573   1.518 -1.9194 -1.5885  1.2548
  341MOL0     H47000   5.028   3.530   1.387  0.9264 -0.0829 -0.3505
  341MOL0     H47001   4.941   3.631   1.661 -0.2201  0.5061 -0.7243
  341MOL0     H47002   4.833   3.587   1.532 -0.1511 -0.4024  0.7612
  341MOL0     H47003   5.019   3.379   1.664  0.3890  0.3941 -1.2681
  341MOL0     H47004   4.932   3.356   1.519 -1.4579  3.0782 -2.5481
  341MOL0     H47005   4.815   3.479   1.772 -4.5320  0.7484 -0.3750
  341MOL0     H47006   4.715   3.445   1.631 -0.8090  4.5000  1.9908
  341MOL0     H47007   4.722   3.297   1.953  1.5224  1.5386 -0.3055
  341MOL0     H47008   4.740   3.038   2.073  1.0575  1.9064 -0.0215
  341MOL0     H47009   4.805   2.906   1.964 -2.5534 -2.6358 -0.1231
  341MOL0     H47010   4.526   3.008   1.981  0.7966  1.5664 -1.7231
  341MOL0     H47011   4.575   2.886   1.869 -0.8562  2.4009 -1.7398
  341MOL0     H47012   4.616   2.732   2.036  0.6794 -0.0201  0.0163
  341MOL0     H47013   4.623   2.844   2.178  1.6278 -0.8028 -0.0167
  341MOL0     H47014   4.375   2.899   2.126 -1.4653  0.2129 -3.0038
  341MOL0     H47015   4.378   2.761   2.011  2.8221 -0.6243 -0.9872
  341MOL0     H47016   4.175   2.733   2.086  0.3546 -1.5825 -1.5405
  341MOL0     H47017   3.839   2.696   2.184 -0.0572 -2.4081  1.9033
  341MOL0     H47018   3.910   2.552   2.134  0.0517 -0.1115  1.4092
  341MOL0     H47019   3.964   2.707   2.049  1.6268  0.4255  0.2470
  341MOL0     H47020   3.910   2.490   2.822 -1.1981 -1.6478 -0.1776
  341MOL0     H47021   3.719   2.517   3.004  0.5517  1.0513  0.5831
  341MOL0     H47022   3.391   2.814   2.932 -3.6914  1.4788  2.5507
  341MOL0     H47023   3.342   2.635   2.915  0.8713 -1.3845  1.9311
  341MOL0     H47024   3.317   2.638   3.170 -2.7283  0.7261  1.0085
  341MOL0     H47025   3.361   2.809   3.171 -1.4368  0.2419  1.2809
  341MOL0     H47026   3.115   2.779   3.186  1.3893 -2.0782  0.3478
  341MOL0     H47027   3.125   2.652   3.068  1.5601 -0.9282 -0.7230
  341MOL0     H47028   3.153   2.827   2.889  1.5990  0.1725  0.3129
  341MOL0     H47029   3.179   2.953   3.008  0.9520 -1.9768 -0.4678
  341MOL0     H47030   2.957   2.922   3.106  0.8270 -0.4740 -0.5873
  341MOL0     H47031   2.947   2.970   2.937  2.1028 -0.7882 -1.6265
  341MOL0     H47032   2.947   2.683   2.941  0.1196  1.4667 -0.4864
  341MOL0     H47033   2.813   2.791   2.889  0.5235  1.6204 -0.1350
  341MOL0     H47034   2.731   2.820   3.115 -0.0324  0.0130 -0.4400
  341MOL0     H47035   2.865   2.721   3.169  2.7443  0.4645 -1.4778
  341MOL0     H47036   2.653   2.592   3.189 -2.2937 -1.8030 -0.8764
  341MOL0     H47037   2.778   2.519   3.082 -2.4258 -1.4055 -0.7841
  341MOL0     H47038   3.499   2.777   2.760  0.5786  0.0344  2.7301
  341MOL0     H47039   3.668   2.741   2.566 -0.7580  0.6876  0.9656
  341MOL0     H47040   4.136   2.602   2.552 -2.4127 -0.0333 -0.7616
  341MOL0     H47041   4.354   2.659   2.458 -1.2193  0.4207  1.1066
  341MOL0     H47042   5.373   3.749   1.000  0.6624 -0.3255 -1.6143
  341MOL0     H47043   5.533   3.747   0.804  2.5147 -0.9590  0.5498
  341MOL0     H47044   6.015   4.128   0.705  0.9095 -0.6041  0.5163
  341MOL0     H47045   6.214   4.092   0.545  1.3418 -1.3792  0.9894
  341MOL0     H47046   6.199   3.698   0.329 -0.3620  0.0662 -0.1160
  341MOL0     H47047   6.359   3.758   0.288 -0.8468 -2.9634 -1.7515
  341MOL0     H47048   6.288   3.727   0.576 -1.6705 -1.0444 -0.9988
  341MOL0     H47049   6.445   3.722   0.510 -0.2651 -0.2241  1.9537
  341MOL0     H47050   6.392   3.515   0.596 -0.6990  0.3941  0.6122
  341MOL0     H47051   6.252   3.487   0.499  0.9708 -0.3680 -2.1935
  341MOL0     H47052   6.453   3.375   0.415  1.6489  1.3177  1.8208
  341MOL0     H47053   6.541   3.529   0.431  1.5660 -3.5841  3.7538
  341MOL0     H47054   6.351   3.461   0.040  0.3826  0.1235  0.0778
  341MOL0     H47055   5.999   3.765   0.379  0.2743  0.8370 -0.9770
  341MOL0     H47056   5.737   3.728   0.613 -1.1513  0.2577  0.5084
  341MOL0     H47057   5.698   3.850   0.495  0.3405 -0.3298 -1.5448
  341MOL0     H47058   5.786   3.710   0.441  2.1199  2.1252 -0.3940
  342MOL0     O47059   6.819   8.384  10.479  0.6520  0.4448 -0.2754
  342MOL0     C47060   6.778   8.350  10.372 -0.0962 -0.1763  1.2371
  342MOL0     O47061   6.700   8.429  10.292 -0.1765  0.5523 -0.2645
  342MOL0     C47062   6.683   8.559  10.321 -0.5949  0.2412 -0.2053
  342MOL0     C47063   6.781   8.657  10.284 -0.1294 -0.0385 -0.0294
  342MOL0     C47064   6.766   8.792  10.302  0.4755 -0.0199  0.4155
  342MOL0     C47065   6.656   8.839  10.366  0.3655 -0.0954  0.0082
  342MOL0     O47066   6.643   8.971  10.391  0.7646 -0.5318  0.0334
  342MOL0     C47067   6.679   9.015  10.524 -1.6057  0.3318 -0.3909
  342MOL0     C47068   6.559   9.033  10.621  0.3147  0.1407  0.1526
  342MOL0     C47069   6.455   9.129  10.555 -0.0185 -0.0496 -0.3503
  342MOL0     C47070   6.325   9.134  10.639  0.6900  0.4576 -0.7803
  342MOL0     C47071   6.228   9.236  10.578 -0.0999  0.0802  0.0726
  342MOL0     C47072   6.122   9.271  10.681  0.7906  0.5702  0.0656
  342MOL0     C47073   6.160   9.373  10.788  0.3196  0.2513 -0.1109
  342MOL0     C47074   6.037   9.413  10.875 -0.4732 -0.2912 -0.3763
  342MOL0     N47075   5.956   9.519  10.813  0.5054 -0.8233  0.0064
  342MOL0     C47076   5.969   9.654  10.824  0.1420  0.4966  0.6740
  342MOL0     C47077   5.855   9.706  10.774  0.2032 -0.3381 -0.9230
  342MOL0     C47078   5.802   9.851  10.795  0.0405  0.1406  0.9637
  342MOL0     C47079   5.816   9.899  10.944 -0.0648 -0.0571 -0.1403
  342MOL0     C47080   5.693   9.854  11.038 -0.6396  0.2485 -0.1896
  342MOL0     C47081   5.708   9.712  11.087 -0.1984 -0.1708 -0.5034
  342MOL0     O47082   5.843   9.689  11.139  0.2412  0.3971  0.1819
  342MOL0     C47083   5.889   9.566  11.177 -0.6079  0.6890 -1.0234
  342MOL0     C47084   5.807   9.451  11.175  0.1074  0.8196  0.2889
  342MOL0     C47085   5.863   9.323  11.205  0.2142  0.4481 -0.0837
  342MOL0     C47086   5.771   9.202  11.191  0.4125 -0.0473  0.0031
  342MOL0     C47087   5.988   9.322  11.267  0.2158  0.0098  0.1353
  342MOL0     C47088   6.063   9.197  11.300  0.2310  0.0016 -0.6597
  342MOL0     O47089   6.163   9.208  11.391 -0.1439  0.4606  0.4591
  342MOL0     C47090   6.221   9.098  11.436 -0.2334 -0.3686  0.6189
  342MOL0     C47091   6.166   9.021  11.539  0.3322 -0.2239  0.1559
  342MOL0     C47092   6.245   8.915  11.593 -0.5095  0.4169 -0.8973
  342MOL0     C47093   6.376   8.884  11.544 -0.0133  0.1049 -0.0328
  342MOL0     O47094   6.449   8.783  11.606 -0.0276  0.2216  0.0014
  342MOL0     C47095   6.586   8.762  11.557  0.2356 -0.0087  0.3514
  342MOL0     C47096   6.673   8.681  11.657  0.0628  0.4626  0.4213
  342MOL0     C47097   6.810   8.642  11.606  0.5352 -0.0211  0.0912
  342MOL0     C47098   6.908   8.754  11.639  0.3370  0.8693  0.2728
  342MOL0     C47099   7.053   8.714  11.586  0.5349 -0.1313 -0.0248
  342MOL0     C47100   7.115   8.593  11.643  0.8690  0.3128 -0.0719
  342MOL0     C47101   7.264   8.578  11.600  0.2079 -0.5741  0.9654
  342MOL0     C47102   7.330   8.467  11.677 -0.4031  0.1609  0.4473
  342MOL0    Cl47103   7.396   8.339  11.572 -0.4820 -0.0306  0.2081
  342MOL0     C47104   6.422   8.972  11.451 -0.6306  0.8612  0.0874
  342MOL0     C47105   6.350   9.081  11.403 -0.8045  0.6403  0.6727
  342MOL0     O47106   6.020   9.092  11.258  0.4144  0.2330 -0.1310
  342MOL0     C47107   6.054   9.442  11.291 -0.5314  0.4097 -0.0045
  342MOL0     C47108   6.013   9.563  11.234 -0.1029  0.3826  0.1531
  342MOL0     N47109   5.771   9.603  10.731 -0.1811 -1.1665  0.2311
  342MOL0     N47110   5.831   9.499  10.754  0.4500 -0.3665  0.0022
  342MOL0     C47111   6.562   8.742  10.420  0.0506 -0.9215 -0.7606
  342MOL0     C47112   6.569   8.604  10.398  0.0356 -0.0560 -0.4382
  342MOL0     C47113   6.820   8.224  10.313 -0.8724 -0.4496 -0.2103
  342MOL0     C47114   6.956   8.191  10.325 -0.1800 -0.7626 -0.3526
  342MOL0     C47115   7.005   8.063  10.305  0.0659 -0.5287  1.0707
  342MOL0     C47116   6.919   7.974  10.240  0.4825 -0.8177 -0.6760
  342MOL0     O47117   6.977   7.854  10.224 -0.5300  0.7509  0.2674
  342MOL0     C47118   6.900   7.729  10.191 -0.0558  0.0917 -1.2711
  342MOL0     C47119   6.859   7.717  10.047 -0.2571 -0.3411 -0.7927
  342MOL0     C47120   6.813   7.572  10.017  0.3428  0.5830  0.1053
  342MOL0     C47121   6.741   7.570   9.876 -0.1321 -0.5876  0.4956
  342MOL0     C47122   6.710   7.441   9.827  0.1685  0.5119 -0.3796
  342MOL0     C47123   6.712   7.326   9.797 -0.4497  0.0805  0.3050
  342MOL0     C47124   6.781   7.999  10.218 -0.3022  0.5901 -0.5309
  342MOL0     C47125   6.733   8.127  10.255  0.2131  0.1411 -0.4224
  342MOL0     C47126   6.591   8.165  10.216 -0.0190 -0.3389  0.0821
  342MOL0     H47127   6.874   8.617  10.246  0.0440  0.3675 -0.0310
  342MOL0     H47128   6.852   8.855  10.281  0.0416  1.1298  1.8886
  342MOL0     H47129   6.726   9.113  10.508 -1.1032 -0.1639 -2.2358
  342MOL0     H47130   6.758   8.951  10.563 -1.6402  0.6160  0.1531
  342MOL0     H47131   6.503   8.943  10.649  0.1179  0.1280 -0.2671
  342MOL0     H47132   6.583   9.085  10.714 -1.3595 -0.6964  1.0872
  342MOL0     H47133   6.487   9.232  10.541 -1.5455  0.3100 -1.5074
  342MOL0     H47134   6.429   9.080  10.461 -2.4338 -3.4248  1.8154
  342MOL0     H47135   6.273   9.039  10.653 -0.3796  0.9991 -0.9097
  342MOL0     H47136   6.356   9.163  10.740  2.2154  0.4907 -1.2383
  342MOL0     H47137   6.189   9.205  10.480  1.7609 -1.0373 -0.3612
  342MOL0     H47138   6.287   9.327  10.560 -0.9636  0.5639 -0.3418
  342MOL0     H47139   6.047   9.312  10.612  0.9514 -0.0005 -0.4617
  342MOL0     H47140   6.066   9.188  10.726 -1.2592  1.6653 -0.3259
  342MOL0     H47141   6.199   9.464  10.741  0.0408  0.1459 -0.5476
  342MOL0     H47142   6.237   9.331  10.853 -0.7425 -0.5840  0.6288
  342MOL0     H47143   5.965   9.334  10.902 -4.0251  2.3317 -1.4375
  342MOL0     H47144   6.069   9.447  10.974 -0.0863  0.5037 -0.7723
  342MOL0     H47145   6.053   9.701  10.875  0.6101  0.8711 -0.4115
  342MOL0     H47146   5.700   9.860  10.755  0.8801  2.6777 -0.8115
  342MOL0     H47147   5.860   9.907  10.722 -1.4748 -3.3297 -3.3438
  342MOL0     H47148   5.914   9.873  10.984 -0.3594 -4.4245 -1.6752
  342MOL0     H47149   5.815  10.008  10.934  0.7139  0.0936  1.1672
  342MOL0     H47150   5.683   9.922  11.123 -1.1366 -1.5360  1.2456
  342MOL0     H47151   5.597   9.857  10.986  1.6428 -2.7316 -5.3936
  342MOL0     H47152   5.635   9.679  11.161  0.9116 -1.4613  0.0587
  342MOL0     H47153   5.692   9.642  11.005 -3.2165 -0.1838 -0.0273
  342MOL0     H47154   5.705   9.451  11.138  0.6040  0.2706 -1.1182
  342MOL0     H47155   5.666   9.228  11.175  0.3065 -0.3249  0.2313
  342MOL0     H47156   5.778   9.141  11.282  0.7028 -0.7442 -0.4716
  342MOL0     H47157   5.809   9.145  11.105  1.4694  1.9301 -0.8913
  342MOL0     H47158   6.064   9.038  11.571  0.1191  0.8351 -0.9785
  342MOL0     H47159   6.209   8.860  11.679  1.4480 -1.4664 -1.2026
  342MOL0     H47160   6.577   8.708  11.462  2.2984 -0.0235  0.1309
  342MOL0     H47161   6.635   8.858  11.537  1.1503 -0.5829 -0.2572
  342MOL0     H47162   6.683   8.725  11.757 -0.5906 -1.6026  1.4494
  342MOL0     H47163   6.626   8.583  11.666  0.8653  0.0284 -0.0526
  342MOL0     H47164   6.804   8.619  11.499  0.2826 -0.9277  0.2835
  342MOL0     H47165   6.832   8.548  11.658  2.2705  0.6273  0.5664
  342MOL0     H47166   6.908   8.766  11.748 -1.9095  0.3125  0.3926
  342MOL0     H47167   6.880   8.847  11.589 -4.0832 -0.0197  0.6897
  342MOL0     H47168   7.056   8.710  11.476  0.3037  3.0898 -0.2431
  342MOL0     H47169   7.120   8.799  11.604 -0.8659  1.1321 -0.4876
  342MOL0     H47170   7.065   8.500  11.614 -0.3998  1.0114 -0.2168
  342MOL0     H47171   7.113   8.614  11.751  2.4908  1.5750 -0.2482
  342MOL0     H47172   7.322   8.669  11.617  1.4210 -0.6722 -2.0314
  342MOL0     H47173   7.271   8.550  11.495  0.4555  1.4145  0.4155
  342MOL0     H47174   7.258   8.424  11.747 -2.5160  3.1103  0.2907
  342MOL0     H47175   7.416   8.509  11.730  0.8811 -0.5360 -1.0115
  342MOL0     H47176   6.520   8.964  11.405 -1.3168  0.0561 -1.2556
  342MOL0     H47177   6.379   9.153  11.328  0.8183  0.2764  0.9164
  342MOL0     H47178   6.143   9.445  11.352 -1.5329  0.2053  1.5147
  342MOL0     H47179   6.066   9.657  11.251  0.9845 -0.3215  0.7344
  342MOL0     H47180   6.473   8.784  10.466  0.7943  2.8495 -2.4041
  342MOL0     H47181   6.503   8.526  10.436  0.9650 -1.2201 -1.1507
  342MOL0     H47182   7.035   8.254  10.366  0.4507 -1.6630 -0.1570
  342MOL0     H47183   7.110   8.049  10.328  0.7938 -0.0300 -1.5939
  342MOL0     H47184   6.966   7.649  10.228 -2.3924 -1.1014  0.6057
  342MOL0     H47185   6.813   7.717  10.256 -0.3126  0.6296 -1.5092
  342MOL0     H47186   6.949   7.737   9.988  0.8903  2.4224  1.6272
  342MOL0     H47187   6.780   7.787  10.017 -1.2211  0.6985  3.5606
  342MOL0     H47188   6.895   7.500  10.021 -0.5485 -0.7067 -2.3168
  342MOL0     H47189   6.739   7.531  10.086  1.0833 -1.0269 -0.0025
  342MOL0     H47190   6.799   7.617   9.796 -0.5991  2.1915  1.6926
  342MOL0     H47191   6.652   7.633   9.886  3.3995  4.8327  1.4149
  342MOL0     H47192   6.715   7.221   9.780 -0.9144 -0.1689  1.6881
  342MOL0     H47193   6.716   7.930  10.166  2.9229 -2.5757 -0.6841
  342MOL0     H47194   6.528   8.136  10.301 -0.2295 -2.9922 -0.8772
  342MOL0     H47195   6.571   8.266  10.181 -0.5060  0.0886  1.5420
  342MOL0     H47196   6.554   8.102  10.134  0.1769 -0.8767  0.3996
  343MOL0     O47197   9.739   4.237   1.051  1.1847 -0.5294 -0.2508
  343MOL0     C47198   9.737   4.127   1.109  0.8580  0.5195 -0.2912
  343MOL0     O47199   9.848   4.059   1.154  0.3191 -0.3510  0.2813
  343MOL0     C47200   9.970   4.122   1.155  0.8236  0.1272  0.1937
  343MOL0     C47201  10.070   4.077   1.061 -0.3578  0.2362  0.6332
  343MOL0     C47202  10.190   4.147   1.050  1.2124  0.1123 -0.2497
  343MOL0     C47203  10.217   4.253   1.139 -0.6226  0.9165 -0.6328
  343MOL0     O47204  10.328   4.324   1.125 -0.0834 -0.2716  0.9158
  343MOL0     C47205  10.423   4.345   1.229  0.1475 -0.1136  0.1701
  343MOL0     C47206  10.533   4.243   1.194  0.8522  0.5297 -0.3681
  343MOL0     C47207  10.613   4.288   1.078 -0.1222  0.2506  0.1245
  343MOL0     C47208  10.732   4.192   1.069 -0.4767 -0.5626  0.9244
  343MOL0     C47209  10.847   4.236   0.983 -0.3108 -0.3399  0.9662
  343MOL0     C47210  10.951   4.313   1.063 -0.7923 -0.3657 -0.3563
  343MOL0     C47211  11.069   4.364   0.974 -0.1292  0.7770 -1.4776
  343MOL0     C47212  11.172   4.444   1.050 -0.1296  0.0012 -0.4627
  343MOL0     N47213  11.293   4.450   0.979  0.2796 -0.2952  0.9598
  343MOL0     C47214  11.415   4.446   1.032 -1.3972  0.1894  0.2986
  343MOL0     C47215  11.499   4.471   0.926  0.5092  0.7015 -0.4379
  343MOL0     C47216  11.654   4.470   0.938  0.1122 -0.6683  0.6594
  343MOL0     C47217  11.700   4.587   1.034  0.2950 -0.8660 -0.5156
  343MOL0     C47218  11.694   4.724   0.960  0.5390 -0.3797 -0.6181
  343MOL0     C47219  11.713   4.856   1.046 -0.8831 -0.1765  1.2305
  343MOL0     O47220  11.855   4.881   1.057 -0.2851 -0.2541 -0.2416
  343MOL0     C47221  11.903   5.008   1.089  0.3413  0.4666  0.4316
  343MOL0     C47222  11.839   5.122   1.135 -0.1858  0.5078 -0.9149
  343MOL0     C47223  11.916   5.225   1.185  0.6965 -0.2996  0.0779
  343MOL0     C47224  11.837   5.336   1.252  0.6807 -0.6999 -0.5737
  343MOL0     C47225  12.051   5.234   1.168  0.5081  0.4395  0.2329
  343MOL0     C47226  12.142   5.337   1.231  0.6398  0.4416 -0.1519
  343MOL0     O47227  12.270   5.333   1.202  0.5939  0.2381  1.0147
  343MOL0     C47228  12.362   5.418   1.262  0.2967 -0.3302 -0.0294
  343MOL0     C47229  12.371   5.446   1.394  0.3552  0.5476 -0.4477
  343MOL0     C47230  12.470   5.535   1.442  0.3495  0.2546 -0.0708
  343MOL0     C47231  12.563   5.599   1.358  0.4713 -0.1078 -0.3569
  343MOL0     O47232  12.660   5.693   1.394 -0.2055  0.7217  0.0735
  343MOL0     C47233  12.696   5.690   1.531  0.6722  0.2504  0.6466
  343MOL0     C47234  12.812   5.778   1.560 -0.3766 -0.0703 -0.5421
  343MOL0     C47235  12.949   5.724   1.507  0.4253  1.1034  0.2612
  343MOL0     C47236  13.056   5.840   1.525 -0.6689 -0.6333  0.4317
  343MOL0     C47237  13.180   5.806   1.438  0.1034  0.4235  0.7287
  343MOL0     C47238  13.298   5.901   1.472 -0.5646 -0.3359 -0.2001
  343MOL0     C47239  13.411   5.862   1.379 -0.2999 -0.9144 -0.4462
  343MOL0     C47240  13.524   5.962   1.379 -0.3127  0.3253  1.0943
  343MOL0    Cl47241  13.641   5.914   1.255  0.7054 -0.4956 -0.1586
  343MOL0     C47242  12.558   5.565   1.221 -0.4709  0.0354 -0.3937
  343MOL0     C47243  12.456   5.478   1.182 -0.3992 -0.0415  0.1817
  343MOL0     O47244  12.095   5.404   1.321  1.1972 -0.0698 -0.2933
  343MOL0     C47245  12.107   5.129   1.104  0.7859  0.3800  0.1692
  343MOL0     C47246  12.033   5.017   1.077  0.0305  0.6428 -0.3665
  343MOL0     N47247  11.424   4.495   0.819 -0.0622  0.1658  0.4432
  343MOL0     N47248  11.300   4.492   0.851 -0.2065 -0.0949 -0.5298
  343MOL0     C47249  10.124   4.286   1.249  0.4353 -0.4385  0.2499
  343MOL0     C47250   9.997   4.222   1.254 -0.3366 -0.0692 -0.0073
  343MOL0     C47251   9.604   4.046   1.125  0.2960 -0.5503  0.8630
  343MOL0     C47252   9.609   3.917   1.174 -0.1435 -0.5991  0.7695
  343MOL0     C47253   9.494   3.844   1.202 -0.8835 -0.9563 -0.0519
  343MOL0     C47254   9.368   3.891   1.175 -0.4473  0.1914 -0.1145
  343MOL0     O47255   9.255   3.811   1.195 -0.3640 -0.1957  0.4733
  343MOL0     C47256   9.137   3.856   1.123  0.5284 -0.5956 -0.8331
  343MOL0     C47257   9.032   3.745   1.125  0.3659  0.5706  0.2446
  343MOL0     C47258   8.977   3.713   1.265  0.7980 -0.4554  0.1722
  343MOL0     C47259   8.844   3.623   1.264 -0.2087  0.7257  0.1984
  343MOL0     C47260   8.725   3.702   1.236 -0.1372  0.7932 -0.1748
  343MOL0     C47261   8.618   3.749   1.223  1.0733 -0.3055 -0.1190
  343MOL0     C47262   9.360   4.027   1.121 -0.6989  0.0125  0.4725
  343MOL0     C47263   9.480   4.103   1.107  0.3904 -0.9411  0.0320
  343MOL0     C47264   9.462   4.249   1.060 -0.2552  0.6062 -0.3681
  343MOL0     H47265  10.041   4.000   0.990  1.7109  0.1705 -0.2116
  343MOL0     H47266  10.260   4.132   0.969 -1.9896  0.1693 -3.2585
  343MOL0     H47267  10.386   4.327   1.331 -1.0934 -1.0276 -0.4104
  343MOL0     H47268  10.473   4.442   1.226 -3.3335  1.8229  0.6284
  343MOL0     H47269  10.585   4.242   1.290  0.0640  0.6210  0.0660
  343MOL0     H47270  10.483   4.146   1.182 -0.8604  1.4082 -0.7544
  343MOL0     H47271  10.543   4.288   0.994 -1.4437  0.7058  1.1857
  343MOL0     H47272  10.650   4.391   1.085 -0.9662  0.6154 -0.6366
  343MOL0     H47273  10.767   4.176   1.171 -0.3542  0.8399  1.1153
  343MOL0     H47274  10.704   4.094   1.028 -0.9530  1.1857 -3.5024
  343MOL0     H47275  10.804   4.283   0.895  0.3232 -0.2724  0.6836
  343MOL0     H47276  10.903   4.150   0.943  0.6049  0.3746  0.6888
  343MOL0     H47277  10.892   4.394   1.106  0.4187  0.7337 -0.7036
  343MOL0     H47278  10.981   4.238   1.137 -2.9329 -3.4988 -2.4409
  343MOL0     H47279  11.030   4.438   0.903 -0.6493  2.0212  0.0545
  343MOL0     H47280  11.121   4.279   0.928  2.2675 -0.2627  2.6016
  343MOL0     H47281  11.118   4.537   1.074 -2.4560 -1.4519  0.3176
  343MOL0     H47282  11.208   4.397   1.142  1.5736 -0.2439 -1.2273
  343MOL0     H47283  11.443   4.413   1.131  0.2734  0.6445  0.0050
  343MOL0     H47284  11.693   4.472   0.835  0.0953 -1.5141  0.6322
  343MOL0     H47285  11.679   4.369   0.972 -1.6909 -1.0618  0.9616
  343MOL0     H47286  11.640   4.583   1.125  0.0422  0.6297 -0.5863
  343MOL0     H47287  11.805   4.572   1.063  0.1183  0.3621  0.8696
  343MOL0     H47288  11.771   4.732   0.883  1.4649  4.4903  0.4705
  343MOL0     H47289  11.596   4.730   0.910  0.1262  1.6088  0.3095
  343MOL0     H47290  11.671   4.940   0.990  0.6125 -0.1745  0.0497
  343MOL0     H47291  11.666   4.850   1.145  0.1898 -1.9167  1.6679
  343MOL0     H47292  11.731   5.119   1.146 -0.2450 -0.0072 -1.6490
  343MOL0     H47293  11.876   5.433   1.219  2.2473 -0.6521  1.2436
  343MOL0     H47294  11.841   5.329   1.361 -0.7471 -0.1872 -0.4777
  343MOL0     H47295  11.731   5.326   1.228  0.2308 -0.5641  1.2589
  343MOL0     H47296  12.291   5.417   1.461  0.6625  1.2275  0.2289
  343MOL0     H47297  12.467   5.552   1.549  0.7411 -0.6742  0.0994
  343MOL0     H47298  12.614   5.735   1.588 -0.8443 -2.6881  0.9812
  343MOL0     H47299  12.725   5.592   1.569  0.5954  0.2715  0.7594
  343MOL0     H47300  12.788   5.878   1.524 -1.6825 -0.1780 -0.0306
  343MOL0     H47301  12.808   5.789   1.669 -4.8370 -0.2848 -0.4894
  343MOL0     H47302  12.931   5.714   1.400  0.1189  1.3732  0.2859
  343MOL0     H47303  12.973   5.628   1.553 -1.6198  0.2566 -0.3103
  343MOL0     H47304  13.094   5.846   1.627  2.5254  0.3415 -0.6896
  343MOL0     H47305  13.030   5.941   1.492  4.4762  0.9839  0.3655
  343MOL0     H47306  13.208   5.702   1.459 -2.4971 -0.6114 -0.4296
  343MOL0     H47307  13.152   5.824   1.334 -0.2855  0.6282  0.8659
  343MOL0     H47308  13.333   5.904   1.575  1.9117 -1.4411 -0.9361
  343MOL0     H47309  13.271   6.003   1.446  3.0302  0.5194 -1.1668
  343MOL0     H47310  13.367   5.857   1.279 -0.2324  0.1105 -0.5456
  343MOL0     H47311  13.456   5.766   1.403  3.0743  0.4184 -0.8605
  343MOL0     H47312  13.570   5.960   1.478 -3.5952 -1.8077  2.7816
  343MOL0     H47313  13.480   6.060   1.362  1.6552  1.1620  0.5740
  343MOL0     H47314  12.629   5.606   1.151 -0.7809  0.4840 -0.4458
  343MOL0     H47315  12.449   5.464   1.074 -2.3549  1.7656  0.0055
  343MOL0     H47316  12.212   5.130   1.078  0.2057 -0.0256 -2.5780
  343MOL0     H47317  12.094   4.936   1.038 -0.6319  0.3612 -0.8327
  343MOL0     H47318  10.139   4.367   1.320  0.8481 -0.4232  0.1464
  343MOL0     H47319   9.931   4.254   1.334  0.7152 -1.1435  1.3501
  343MOL0     H47320   9.701   3.868   1.203  0.0047 -1.0540 -0.4268
  343MOL0     H47321   9.501   3.756   1.265  0.0738  0.0601  1.3048
  343MOL0     H47322   9.089   3.947   1.161  3.1578  0.6758 -0.3400
  343MOL0     H47323   9.167   3.879   1.021  1.1493  0.5746 -0.3996
  343MOL0     H47324   9.064   3.646   1.089  2.8704  2.0654 -2.0119
  343MOL0     H47325   8.953   3.764   1.051  0.8813 -0.5982 -0.6535
  343MOL0     H47326   9.052   3.666   1.328  0.5464 -0.2375  0.6404
  343MOL0     H47327   8.948   3.802   1.321 -2.2857 -1.6124  0.5964
  343MOL0     H47328   8.839   3.578   1.364 -1.6593  1.3218  0.4078
  343MOL0     H47329   8.855   3.537   1.197 -1.4905  0.5823  0.1498
  343MOL0     H47330   8.528   3.804   1.242  1.4414 -0.2815  1.7207
  343MOL0     H47331   9.261   4.067   1.100 -1.0170 -0.3356  1.2790
  343MOL0     H47332   9.520   4.263   0.968  0.3540  1.1906  0.0895
  343MOL0     H47333   9.361   4.288   1.043 -0.4121 -0.2373 -1.4935
  343MOL0     H47334   9.486   4.316   1.143 -3.0528 -1.5200  2.3914
  344MOL0     O47335   8.216   1.242   7.768 -0.3113  0.3236 -0.1609
  344MOL0     C47336   8.197   1.253   7.888 -0.5339  0.0112  0.4034
  344MOL0     O47337   8.256   1.177   7.985 -0.1163 -0.1052  0.5644
  344MOL0     C47338   8.373   1.107   7.947 -1.0028 -0.5223 -0.7186
  344MOL0     C47339   8.504   1.136   7.998  0.3343 -0.2755  0.1885
  344MOL0     C47340   8.611   1.039   7.990 -0.2510 -0.3563  0.1937
  344MOL0     C47341   8.590   0.910   7.946  0.1001  0.1752 -0.5131
  344MOL0     O47342   8.683   0.809   7.941 -0.2872  0.2342 -1.1197
  344MOL0     C47343   8.823   0.826   7.964 -0.1971 -0.1221 -0.7451
  344MOL0     C47344   8.882   0.767   8.094 -0.0373  0.2940 -0.4528
  344MOL0     C47345   8.831   0.871   8.212  0.2535  0.5530 -0.0820
  344MOL0     C47346   8.878   0.849   8.362  0.4473 -0.5595  0.7839
  344MOL0     C47347   8.768   0.913   8.456  0.1663  0.2621  0.2375
  344MOL0     C47348   8.748   1.068   8.462  0.1497 -1.0893 -0.0505
  344MOL0     C47349   8.866   1.159   8.503  0.2017 -0.2118 -1.0983
  344MOL0     C47350   8.839   1.302   8.529 -0.1694  0.3617  0.2978
  344MOL0     N47351   8.953   1.386   8.582 -0.0596  0.0509  1.0590
  344MOL0     C47352   8.984   1.418   8.709 -0.0496  0.5124  0.5757
  344MOL0     C47353   9.093   1.493   8.699 -0.3454  0.7116  0.5958
  344MOL0     C47354   9.157   1.562   8.813 -0.3095 -1.1010 -1.3768
  344MOL0     C47355   9.228   1.690   8.771 -0.8393 -0.8263 -0.4164
  344MOL0     C47356   9.144   1.816   8.722 -0.3960  0.1733 -0.7992
  344MOL0     C47357   9.226   1.934   8.693 -0.4937 -0.6148  1.0387
  344MOL0     O47358   9.303   1.972   8.811 -0.1104  0.2567 -0.2728
  344MOL0     C47359   9.433   1.986   8.773 -0.3227 -0.2104  0.0072
  344MOL0     C47360   9.532   1.894   8.813 -0.1353  0.7298  0.5157
  344MOL0     C47361   9.666   1.914   8.770 -0.7115 -0.0188  0.1465
  344MOL0     C47362   9.757   1.803   8.799 -0.9153  0.8776  0.3140
  344MOL0     C47363   9.694   2.033   8.689 -0.7730  0.4108  0.0796
  344MOL0     C47364   9.833   2.071   8.644  0.4459  0.2912  0.0259
  344MOL0     O47365   9.846   2.201   8.606 -0.3257 -0.2684 -0.3093
  344MOL0     C47366   9.966   2.230   8.547 -0.6694  0.5044  0.0941
  344MOL0     C47367   9.987   2.267   8.411 -0.3619 -0.1767 -0.4084
  344MOL0     C47368  10.120   2.297   8.360  0.4166 -0.5181  0.7081
  344MOL0     C47369  10.233   2.270   8.440 -0.2427  0.3951  0.6298
  344MOL0     O47370  10.354   2.280   8.375 -0.1959 -0.2415 -0.3792
  344MOL0     C47371  10.469   2.321   8.454 -0.0516  0.7153 -0.1360
  344MOL0     C47372  10.584   2.348   8.358 -0.4825 -0.1903  0.2069
  344MOL0     C47373  10.708   2.389   8.446  0.3327  0.8216  0.3951
  344MOL0     C47374  10.839   2.389   8.364 -0.7945 -0.4220  0.0745
  344MOL0     C47375  10.963   2.435   8.445 -0.5591 -0.4403  0.3109
  344MOL0     C47376  11.072   2.433   8.331  0.3181  0.1347  0.4494
  344MOL0     C47377  11.205   2.463   8.398  0.1015 -0.2077 -0.3347
  344MOL0     C47378  11.320   2.415   8.294  0.7196 -0.3002  0.1665
  344MOL0    Cl47379  11.299   2.497   8.134 -0.1503 -0.5245  0.4135
  344MOL0     C47380  10.212   2.225   8.566 -0.2312  0.6853  0.1454
  344MOL0     C47381  10.087   2.219   8.620 -0.0364 -0.0249  0.3220
  344MOL0     O47382   9.927   1.985   8.643  0.1079 -0.2108 -0.0747
  344MOL0     C47383   9.592   2.124   8.671  0.0959 -0.1857  0.9042
  344MOL0     C47384   9.464   2.107   8.709 -0.0046 -0.4334  0.4861
  344MOL0     N47385   9.121   1.499   8.559  0.2751  0.3854  0.6993
  344MOL0     N47386   9.034   1.437   8.491  0.9787 -0.2847  0.2568
  344MOL0     C47387   8.467   0.889   7.892  0.4030 -0.4404 -0.2608
  344MOL0     C47388   8.362   0.982   7.888 -0.0200 -0.4402  0.3949
  344MOL0     C47389   8.104   1.364   7.921  0.1998  0.7567 -0.5215
  344MOL0     C47390   8.066   1.455   7.815  0.1695  0.6681 -0.2502
  344MOL0     C47391   7.975   1.555   7.839  1.0051  0.4900  0.3483
  344MOL0     C47392   7.930   1.586   7.969  0.0106 -0.6370  0.4854
  344MOL0     O47393   7.851   1.692   8.000  0.0020 -0.4783 -0.3867
  344MOL0     C47394   7.762   1.740   7.900  0.2818 -0.1878  0.6950
  344MOL0     C47395   7.820   1.862   7.831 -0.2989  0.5609 -0.2088
  344MOL0     C47396   7.848   1.984   7.921 -0.3051 -0.2687  0.5577
  344MOL0     C47397   7.982   1.993   7.993 -0.0438  0.0827  0.0422
  344MOL0     C47398   7.982   2.122   8.071 -0.3761  0.6887  0.2866
  344MOL0     C47399   7.976   2.228   8.125 -0.3891  0.0876 -1.5501
  344MOL0     C47400   7.970   1.508   8.075 -0.1320  0.3059  0.6995
  344MOL0     C47401   8.057   1.401   8.052  0.1031  0.1299 -0.2897
  344MOL0     C47402   8.096   1.327   8.178 -0.4362  0.0561  0.5739
  344MOL0     H47403   8.527   1.229   8.051 -0.8871  1.6005 -2.3667
  344MOL0     H47404   8.705   1.070   8.034 -1.6884  1.7636  1.9957
  344MOL0     H47405   8.861   0.929   7.957  1.3111 -0.6997 -1.5998
  344MOL0     H47406   8.869   0.780   7.876 -0.9499 -1.8686 -0.2675
  344MOL0     H47407   8.857   0.663   8.117  0.7564  0.0383 -0.7230
  344MOL0     H47408   8.989   0.783   8.083 -0.1575  2.9344  1.2208
  344MOL0     H47409   8.876   0.963   8.174 -1.5348  1.2327 -0.6511
  344MOL0     H47410   8.722   0.866   8.204  0.4555 -2.4642 -4.3572
  344MOL0     H47411   8.896   0.742   8.374  0.3177 -0.8437 -1.1003
  344MOL0     H47412   8.976   0.897   8.370  0.4402  0.3431 -2.7812
  344MOL0     H47413   8.792   0.886   8.559  3.8245 -0.8938 -0.7426
  344MOL0     H47414   8.673   0.865   8.431  1.1559 -1.4983 -0.3480
  344MOL0     H47415   8.705   1.100   8.367 -1.5471 -0.2047  0.9560
  344MOL0     H47416   8.667   1.082   8.535 -0.3864  3.1961 -1.2152
  344MOL0     H47417   8.936   1.165   8.419  3.8193 -0.5392  1.6971
  344MOL0     H47418   8.912   1.114   8.591 -1.0538  0.2256 -0.1781
  344MOL0     H47419   8.807   1.343   8.433 -1.3381  0.7707  0.8437
  344MOL0     H47420   8.755   1.317   8.597  0.8806  0.0777  1.7053
  344MOL0     H47421   8.938   1.398   8.805 -1.6133 -0.2121 -0.2863
  344MOL0     H47422   9.225   1.487   8.854  2.6408  1.3382 -1.4700
  344MOL0     H47423   9.082   1.591   8.887 -1.0706 -1.2176 -2.0967
  344MOL0     H47424   9.298   1.712   8.852  0.4633 -0.4697 -1.6005
  344MOL0     H47425   9.291   1.667   8.684 -1.4729 -0.1682 -1.0633
  344MOL0     H47426   9.083   1.787   8.636 -1.1854  1.7226 -0.7999
  344MOL0     H47427   9.077   1.850   8.802  2.6360  1.7145  1.2647
  344MOL0     H47428   9.296   1.921   8.610 -1.7021  1.5958 -0.4298
  344MOL0     H47429   9.165   2.021   8.668 -1.3841 -1.6485 -0.4927
  344MOL0     H47430   9.503   1.800   8.858 -0.1916  0.6181  0.2510
  344MOL0     H47431   9.702   1.723   8.849  0.0362  0.6497  1.0352
  344MOL0     H47432   9.842   1.833   8.860  0.4918 -2.8214  0.4847
  344MOL0     H47433   9.808   1.771   8.707 -0.3214 -0.7819  1.1749
  344MOL0     H47434   9.902   2.295   8.350  0.0665  0.2093 -0.8368
  344MOL0     H47435  10.133   2.341   8.262  0.2257  3.7021  2.3508
  344MOL0     H47436  10.441   2.405   8.518  2.9370  2.0627 -0.4397
  344MOL0     H47437  10.506   2.244   8.522  0.8861  1.8910  0.7360
  344MOL0     H47438  10.611   2.259   8.301  1.5181  0.3242  0.2933
  344MOL0     H47439  10.561   2.422   8.280  0.6699 -1.7640 -1.7344
  344MOL0     H47440  10.721   2.321   8.530  2.5904 -0.1979 -0.6960
  344MOL0     H47441  10.696   2.485   8.498  0.6908 -0.8222  3.7659
  344MOL0     H47442  10.821   2.460   8.283 -1.9580  0.9187  1.4487
  344MOL0     H47443  10.863   2.292   8.319  1.0768  1.1615 -2.6169
  344MOL0     H47444  10.949   2.538   8.482 -0.1734  0.2972 -1.4818
  344MOL0     H47445  10.980   2.366   8.527  0.9118  0.3387  0.6894
  344MOL0     H47446  11.053   2.513   8.258 -1.0826  1.4019  2.0917
  344MOL0     H47447  11.069   2.337   8.278  1.2993  0.8054 -0.9034
  344MOL0     H47448  11.219   2.416   8.496 -0.5794  1.3037  0.5196
  344MOL0     H47449  11.217   2.571   8.409 -0.3220 -0.0080 -1.6692
  344MOL0     H47450  11.305   2.307   8.283  0.0506 -0.2825  0.7845
  344MOL0     H47451  11.423   2.424   8.332  2.0355 -0.8565 -2.9590
  344MOL0     H47452  10.296   2.221   8.634  0.4553 -2.4676 -0.7075
  344MOL0     H47453  10.084   2.177   8.720 -0.4362 -0.3281  0.1889
  344MOL0     H47454   9.614   2.211   8.610  1.2663 -1.6730 -0.9158
  344MOL0     H47455   9.389   2.183   8.689  1.5720  0.7913 -1.1144
  344MOL0     H47456   8.447   0.795   7.841 -2.2529 -0.5437  0.7746
  344MOL0     H47457   8.265   0.941   7.858  1.2253 -2.8484 -0.6093
  344MOL0     H47458   8.100   1.428   7.715  0.5166 -2.1639  0.5687
  344MOL0     H47459   7.945   1.608   7.749  0.6581 -0.0452  0.1415
  344MOL0     H47460   7.737   1.666   7.823  0.5449  1.8837 -1.4810
  344MOL0     H47461   7.668   1.778   7.941  1.3814  1.0503  2.1725
  344MOL0     H47462   7.740   1.886   7.761 -0.8305  1.5833  0.7244
  344MOL0     H47463   7.905   1.824   7.773  1.1497  1.0663  1.4724
  344MOL0     H47464   7.837   2.068   7.852  0.7997  0.3373  1.0896
  344MOL0     H47465   7.775   1.987   8.002 -1.4298 -0.0297 -0.4275
  344MOL0     H47466   8.069   1.997   7.927  0.4781  2.7202  0.7770
  344MOL0     H47467   7.997   1.905   8.057  1.1829  1.0258  1.1167
  344MOL0     H47468   7.965   2.310   8.194 -0.6789 -0.3696 -1.0397
  344MOL0     H47469   7.926   1.531   8.171  0.6331  0.3592  1.0478
  344MOL0     H47470   8.057   1.374   8.269 -2.7983 -0.3787 -0.1245
  344MOL0     H47471   8.055   1.227   8.164  0.4168 -0.0534 -1.4048
  344MOL0     H47472   8.205   1.325   8.177 -0.4437 -0.1190  0.1218
  345MOL0     O47473   1.850   7.933   6.887 -0.1008  0.1123 -0.5636
  345MOL0     C47474   1.827   7.973   6.775  0.4870  0.5305  0.1232
  345MOL0     O47475   1.924   8.007   6.680  0.8941  0.4439 -0.4319
  345MOL0     C47476   2.056   7.981   6.704  0.4849 -0.0502  0.0544
  345MOL0     C47477   2.105   7.851   6.732 -0.6100  0.4072 -0.5120
  345MOL0     C47478   2.244   7.828   6.733  0.3821  0.4614  0.4809
  345MOL0     C47479   2.338   7.933   6.732  0.0729 -0.2595 -0.0630
  345MOL0     O47480   2.478   7.907   6.746  0.2804  0.6951 -0.2703
  345MOL0     C47481   2.523   7.912   6.885 -0.0053  0.3421 -0.0793
  345MOL0     C47482   2.659   7.837   6.911  0.1327 -0.5769  0.4242
  345MOL0     C47483   2.777   7.898   6.836 -0.4966 -0.0951  0.2793
  345MOL0     C47484   2.921   7.855   6.874  0.2343  0.8953  0.5004
  345MOL0     C47485   3.025   7.958   6.831 -0.1317 -0.2161  0.8876
  345MOL0     C47486   3.040   7.950   6.680  0.5445  0.2513  0.1181
  345MOL0     C47487   3.154   8.044   6.636 -0.7676 -0.0641 -0.2741
  345MOL0     C47488   3.143   8.067   6.486  0.3638  0.4253  0.1090
  345MOL0     N47489   3.267   8.135   6.446 -0.0707 -0.6282 -0.6571
  345MOL0     C47490   3.386   8.082   6.426 -0.5355  0.5898 -0.5124
  345MOL0     C47491   3.475   8.186   6.408  0.0389 -0.7123  0.2387
  345MOL0     C47492   3.627   8.194   6.388  0.2503  0.5430  0.0917
  345MOL0     C47493   3.670   8.092   6.270  0.2544 -0.7712  0.2644
  345MOL0     C47494   3.807   8.136   6.218 -0.2772 -0.0988 -0.0425
  345MOL0     C47495   3.872   8.018   6.152 -0.6221  0.1902 -0.0236
  345MOL0     O47496   3.911   7.932   6.262 -0.4558 -0.8491 -0.4293
  345MOL0     C47497   4.040   7.880   6.255 -0.0912 -0.2025  0.0638
  345MOL0     C47498   4.129   7.921   6.354 -0.0687  0.8998  0.0506
  345MOL0     C47499   4.268   7.886   6.345  0.3104  0.4317 -0.5822
  345MOL0     C47500   4.351   7.923   6.465  0.0610 -0.2163  0.5063
  345MOL0     C47501   4.317   7.820   6.229 -0.4458 -0.4243 -0.2201
  345MOL0     C47502   4.464   7.795   6.190  0.3601  0.3978  0.0910
  345MOL0     O47503   4.486   7.746   6.065  0.1336  0.2518  0.2050
  345MOL0     C47504   4.612   7.755   6.018  0.3607  0.2740 -0.4866
  345MOL0     C47505   4.664   7.655   5.933 -0.1009  0.3785  1.1128
  345MOL0     C47506   4.784   7.663   5.873 -0.6812 -0.7120 -0.2714
  345MOL0     C47507   4.866   7.779   5.885  0.0880  0.4370 -0.0258
  345MOL0     O47508   4.981   7.783   5.806  0.0120 -0.2307 -0.6997
  345MOL0     C47509   5.059   7.905   5.800  0.0414  0.6868 -1.0168
  345MOL0     C47510   5.169   7.905   5.707 -0.1066 -0.0532 -0.2427
  345MOL0     C47511   5.289   7.824   5.759 -0.8187  0.4105 -0.0049
  345MOL0     C47512   5.417   7.846   5.674 -0.3078 -0.0741  1.1009
  345MOL0     C47513   5.537   7.749   5.711  0.6351  0.2472  0.4890
  345MOL0     C47514   5.603   7.778   5.845 -0.4536  0.2058 -1.0122
  345MOL0     C47515   5.712   7.681   5.885  0.1231  0.3720 -0.2034
  345MOL0     C47516   5.837   7.679   5.799  0.1926  0.0230 -0.2128
  345MOL0    Cl47517   5.907   7.847   5.799  0.2695  0.4482  0.1855
  345MOL0     C47518   4.817   7.879   5.973 -0.7021  0.7659  0.1701
  345MOL0     C47519   4.699   7.865   6.037 -0.3827 -0.1042  0.0141
  345MOL0     O47520   4.557   7.809   6.279  0.0575  0.1589 -0.1254
  345MOL0     C47521   4.223   7.775   6.129 -0.1021  0.1055 -0.1252
  345MOL0     C47522   4.085   7.809   6.143 -0.9686  0.2524  0.8691
  345MOL0     N47523   3.408   8.303   6.433  0.3038  1.1581  0.2957
  345MOL0     N47524   3.280   8.272   6.447  0.3621 -0.0253 -0.8037
  345MOL0     C47525   2.296   8.063   6.702 -0.6672 -0.2766 -0.5754
  345MOL0     C47526   2.158   8.084   6.693  0.5302 -0.1991  0.5123
  345MOL0     C47527   1.691   7.956   6.728  0.0776  0.6710  0.7870
  345MOL0     C47528   1.589   7.909   6.823 -0.9079 -0.0503 -0.7244
  345MOL0     C47529   1.460   7.892   6.786 -0.1688 -0.4581 -1.1773
  345MOL0     C47530   1.412   7.909   6.661 -0.0699 -1.0239 -1.0096
  345MOL0     O47531   1.287   7.879   6.626 -0.2736  0.6603  0.4236
  345MOL0     C47532   1.197   7.827   6.723 -0.1041 -0.0134  0.4536
  345MOL0     C47533   1.070   7.810   6.646 -0.3134  0.1941 -1.0835
  345MOL0     C47534   0.955   7.764   6.738  0.2618 -0.4691  0.1188
  345MOL0     C47535   0.828   7.767   6.652  0.0945 -0.0456  0.0726
  345MOL0     C47536   0.789   7.632   6.601  0.9595 -0.6689 -0.1732
  345MOL0     C47537   0.784   7.519   6.560  0.9525  0.8836  0.2230
  345MOL0     C47538   1.497   7.959   6.563 -0.1024  0.0098 -0.1418
  345MOL0     C47539   1.633   7.984   6.593 -0.2128 -0.8323  0.4701
  345MOL0     C47540   1.712   8.062   6.489  1.2752 -0.7419  0.4317
  345MOL0     H47541   2.038   7.766   6.738 -1.9315  1.5290  2.5734
  345MOL0     H47542   2.284   7.727   6.738 -0.1773  0.1952 -0.2868
  345MOL0     H47543   2.442   7.873   6.947 -0.4336  0.6439 -0.4373
  345MOL0     H47544   2.533   8.018   6.910 -4.2963  1.0365 -0.4778
  345MOL0     H47545   2.672   7.839   7.019 -1.6103 -3.3930  0.7745
  345MOL0     H47546   2.640   7.734   6.878 -2.2970 -0.2425  0.6139
  345MOL0     H47547   2.766   7.871   6.731  1.0741 -2.3342  0.6230
  345MOL0     H47548   2.773   8.005   6.861  1.3139  0.2919 -0.8825
  345MOL0     H47549   2.922   7.848   6.983  0.2349  0.2859  0.4618
  345MOL0     H47550   2.950   7.759   6.832  1.7729  1.7208 -0.4166
  345MOL0     H47551   3.116   7.954   6.892 -0.0572  1.4430  0.9307
  345MOL0     H47552   2.983   8.056   6.851  1.7505  1.2888 -1.8557
  345MOL0     H47553   3.054   7.847   6.648 -0.1801  1.3460 -4.3888
  345MOL0     H47554   2.939   7.966   6.639  1.3115  0.5810 -1.7455
  345MOL0     H47555   3.246   7.993   6.666 -2.2409 -2.1642  0.9807
  345MOL0     H47556   3.146   8.142   6.686  1.7378  1.2232 -2.1907
  345MOL0     H47557   3.142   7.963   6.451  4.0242 -0.7535  2.9340
  345MOL0     H47558   3.051   8.118   6.455 -0.2387 -0.5092  0.2986
  345MOL0     H47559   3.408   7.976   6.436  2.8248  1.3518  2.2788
  345MOL0     H47560   3.674   8.169   6.483 -0.1567 -3.2436 -0.5429
  345MOL0     H47561   3.643   8.298   6.361  1.3632  0.1554 -0.8771
  345MOL0     H47562   3.664   7.987   6.300 -0.2088 -0.7818  0.1539
  345MOL0     H47563   3.593   8.100   6.192  0.4796  1.9181  0.2519
  345MOL0     H47564   3.795   8.222   6.151  1.5529 -1.3955 -2.1913
  345MOL0     H47565   3.867   8.179   6.298 -0.5214 -0.5426  0.3796
  345MOL0     H47566   3.803   7.958   6.093 -0.1866 -3.9891  3.2422
  345MOL0     H47567   3.954   8.036   6.082  0.8353 -3.7110  0.4268
  345MOL0     H47568   4.083   7.961   6.444 -0.0406  0.2391  0.3644
  345MOL0     H47569   4.284   7.957   6.544 -0.2989 -1.4613  0.7618
  345MOL0     H47570   4.407   8.006   6.421 -0.4699 -0.7730 -1.3152
  345MOL0     H47571   4.422   7.845   6.494  2.5608  1.6634 -0.2475
  345MOL0     H47572   4.601   7.571   5.909 -1.6966  0.7191  3.7130
  345MOL0     H47573   4.829   7.583   5.815  3.4879  1.3409 -0.2485
  345MOL0     H47574   4.989   7.985   5.777  0.1293  1.4121  1.0042
  345MOL0     H47575   5.111   7.926   5.894  2.9785  1.0910 -2.6191
  345MOL0     H47576   5.137   7.880   5.605  0.0306 -0.2850 -0.2282
  345MOL0     H47577   5.192   8.012   5.699 -0.5102  0.0011 -0.7383
  345MOL0     H47578   5.270   7.716   5.769  1.6818 -0.0039  1.1377
  345MOL0     H47579   5.323   7.867   5.853  4.8029  0.3341 -1.6437
  345MOL0     H47580   5.440   7.952   5.689  1.8759 -0.1138 -1.2236
  345MOL0     H47581   5.398   7.831   5.567 -1.3199  0.3303  1.2175
  345MOL0     H47582   5.495   7.649   5.700 -1.5348  1.2482 -1.1651
  345MOL0     H47583   5.615   7.759   5.635 -1.1726  0.9307 -1.3860
  345MOL0     H47584   5.528   7.771   5.925 -0.3758  0.4427 -0.9169
  345MOL0     H47585   5.641   7.881   5.846  4.1733 -1.3055 -1.4284
  345MOL0     H47586   5.673   7.580   5.874 -0.6404  0.7740 -1.3186
  345MOL0     H47587   5.732   7.699   5.991 -3.1661 -0.4417  0.6565
  345MOL0     H47588   5.814   7.643   5.699 -1.2270 -0.7764  0.3673
  345MOL0     H47589   5.907   7.611   5.849 -1.7239 -2.1532 -0.3165
  345MOL0     H47590   4.878   7.967   5.992  0.4282  0.0852 -0.2088
  345MOL0     H47591   4.672   7.949   6.099  2.5877  0.7261  0.3637
  345MOL0     H47592   4.238   7.731   6.031 -1.2362  0.1823 -0.3492
  345MOL0     H47593   4.032   7.782   6.053  0.6455 -0.6761  0.1666
  345MOL0     H47594   2.371   8.141   6.705  1.4970 -2.2622  0.5726
  345MOL0     H47595   2.123   8.185   6.673  0.8506  0.5620  3.3530
  345MOL0     H47596   1.616   7.887   6.926 -1.2976 -2.0908 -1.0071
  345MOL0     H47597   1.397   7.840   6.857  3.1463 -0.9419  1.6774
  345MOL0     H47598   1.238   7.734   6.765 -0.4171  0.2981  1.4870
  345MOL0     H47599   1.169   7.884   6.812  0.9793 -2.1804  2.2864
  345MOL0     H47600   1.080   7.740   6.563  2.5753 -0.5736 -0.1995
  345MOL0     H47601   1.051   7.910   6.607  4.7797  1.8844  0.0070
  345MOL0     H47602   0.966   7.663   6.779 -2.3043 -0.9715 -0.2753
  345MOL0     H47603   0.949   7.833   6.822  1.6131  0.0190 -0.1641
  345MOL0     H47604   0.832   7.834   6.566  0.3046  0.3817  0.4076
  345MOL0     H47605   0.746   7.803   6.715 -0.3847 -0.8767 -0.0641
  345MOL0     H47606   0.803   7.420   6.524  1.4064  1.2892 -0.6867
  345MOL0     H47607   1.453   7.989   6.469  1.3139 -2.1692 -1.5783
  345MOL0     H47608   1.646   8.109   6.415  1.1853 -1.7695 -0.1619
  345MOL0     H47609   1.760   8.148   6.537 -1.5180  0.8749  0.5533
  345MOL0     H47610   1.773   7.996   6.427 -1.1399 -1.5259 -1.2699
  346MOL0     O47611   2.463   4.807  10.191  0.6318  0.2012  0.2972
  346MOL0     C47612   2.474   4.760  10.305 -0.6119  0.8302 -0.4336
  346MOL0     O47613   2.371   4.719  10.388  0.5463  0.0497 -0.0559
  346MOL0     C47614   2.255   4.718  10.321 -0.1701  0.0593 -0.3815
  346MOL0     C47615   2.233   4.603  10.245  0.4672 -0.0649 -0.2492
  346MOL0     C47616   2.112   4.594  10.175 -0.6530  0.6980 -0.2741
  346MOL0     C47617   2.020   4.694  10.178  0.2426  0.0834  0.9748
  346MOL0     O47618   1.887   4.685  10.128  0.0856  0.3487  0.1074
  346MOL0     C47619   1.801   4.795  10.120 -0.8566  0.6924 -0.5633
  346MOL0     C47620   1.826   4.866   9.989  0.5371 -0.2772 -0.2932
  346MOL0     C47621   1.724   4.987   9.987 -1.0468  0.3608  1.5246
  346MOL0     C47622   1.774   5.103  10.068 -0.1763 -0.0965  0.2457
  346MOL0     C47623   1.668   5.217  10.061  0.0615  0.0658  0.7474
  346MOL0     C47624   1.685   5.302  10.189  0.1803 -0.3773  0.8156
  346MOL0     C47625   1.821   5.367  10.236  1.0585  0.5268 -0.0496
  346MOL0     C47626   1.888   5.435  10.119 -1.0937  0.5056  0.0035
  346MOL0     N47627   1.969   5.550  10.173  0.0926 -0.7087  0.4359
  346MOL0     C47628   2.099   5.551  10.220  0.5328  0.1843  0.1180
  346MOL0     C47629   2.122   5.684  10.238  0.1137 -0.3397  0.0160
  346MOL0     C47630   2.249   5.750  10.289 -0.3380 -0.3094 -0.7891
  346MOL0     C47631   2.366   5.719  10.211  0.1089  0.4822 -0.6655
  346MOL0     C47632   2.364   5.802  10.081  0.1220  0.5694 -0.0034
  346MOL0     C47633   2.494   5.777   9.997 -0.8681  0.5609 -0.5417
  346MOL0     O47634   2.621   5.760  10.071  0.9273 -0.5859  0.3671
  346MOL0     C47635   2.724   5.723   9.990  0.1452 -0.0588  0.4162
  346MOL0     C47636   2.770   5.597  10.001 -0.2032 -0.6983  0.2202
  346MOL0     C47637   2.874   5.555   9.915 -0.4774  0.7690  0.5762
  346MOL0     C47638   2.925   5.409   9.922  0.7955  0.0916 -0.0261
  346MOL0     C47639   2.929   5.647   9.823 -0.1655  0.2130 -0.2796
  346MOL0     C47640   3.028   5.614   9.729 -0.1390 -0.0872 -0.4517
  346MOL0     O47641   2.999   5.535   9.627  0.4237 -0.1088 -0.4214
  346MOL0     C47642   3.065   5.544   9.512 -0.5264  0.1130  0.1356
  346MOL0     C47643   3.190   5.490   9.510 -0.2928  0.1808  0.6668
  346MOL0     C47644   3.275   5.497   9.395  0.5477  0.0567 -0.6821
  346MOL0     C47645   3.222   5.549   9.274  0.1799  0.2253  0.2744
  346MOL0     O47646   3.289   5.532   9.154  0.2231 -0.1403  0.4061
  346MOL0     C47647   3.243   5.601   9.039 -1.3569  0.1676 -0.5109
  346MOL0     C47648   3.324   5.582   8.910 -0.0677 -0.1380  0.6094
  346MOL0     C47649   3.474   5.609   8.916  0.2030  1.0051 -0.8930
  346MOL0     C47650   3.556   5.484   8.977  0.3315  0.4539 -0.2333
  346MOL0     C47651   3.703   5.497   8.967 -0.3753 -0.4774 -0.4911
  346MOL0     C47652   3.779   5.616   9.034  0.9079  0.1543 -0.0705
  346MOL0     C47653   3.913   5.598   8.995 -0.6026  0.3919 -0.0424
  346MOL0     C47654   4.010   5.706   9.036  0.1377  0.5608 -0.1940
  346MOL0    Cl47655   4.062   5.693   9.197 -0.3987 -0.0215  0.1269
  346MOL0     C47656   3.095   5.609   9.282 -0.3132 -0.3418 -0.7164
  346MOL0     C47657   3.018   5.607   9.397  0.4272 -0.2010  0.5216
  346MOL0     O47658   3.133   5.674   9.740  0.1742  0.4136  0.1336
  346MOL0     C47659   2.870   5.773   9.810 -0.0529  0.3803 -0.5505
  346MOL0     C47660   2.769   5.813   9.892  1.3185 -0.1835 -0.1762
  346MOL0     N47661   2.009   5.758  10.200  0.1079 -0.8177 -1.0900
  346MOL0     N47662   1.918   5.678  10.161  0.1543 -0.1477 -0.3232
  346MOL0     C47663   2.051   4.805  10.252  0.3871 -0.3171 -0.9610
  346MOL0     C47664   2.171   4.826  10.323 -0.0932 -0.5231  0.3514
  346MOL0     C47665   2.608   4.712  10.350  0.6667 -0.3635 -0.0349
  346MOL0     C47666   2.700   4.677  10.253 -0.7891  0.4072  0.4432
  346MOL0     C47667   2.829   4.648  10.282 -0.4925 -0.7689 -0.4149
  346MOL0     C47668   2.878   4.640  10.413  0.2186  0.1231  0.2053
  346MOL0     O47669   2.997   4.583  10.455 -0.4153 -0.2909  0.8003
  346MOL0     C47670   3.114   4.611  10.367 -0.0536 -0.0579 -0.3398
  346MOL0     C47671   3.152   4.486  10.285  0.0514  0.5253 -0.6400
  346MOL0     C47672   3.295   4.505  10.224  0.1391  0.2848  0.3813
  346MOL0     C47673   3.330   4.386  10.140  0.6882  0.6008 -0.4911
  346MOL0     C47674   3.474   4.395  10.121 -0.2409 -0.8043 -0.4480
  346MOL0     C47675   3.588   4.377  10.081  0.2068  0.2343 -0.1605
  346MOL0     C47676   2.789   4.665  10.517  0.6929 -0.7243  0.0238
  346MOL0     C47677   2.659   4.702  10.487 -0.4523 -0.1450  0.1520
  346MOL0     C47678   2.574   4.749  10.617  0.1891 -0.1557 -0.7873
  346MOL0     H47679   2.302   4.519  10.250 -1.5234 -1.8662 -1.2242
  346MOL0     H47680   2.096   4.506  10.113 -1.4325 -0.1424  1.0738
  346MOL0     H47681   1.801   4.856  10.210  2.6078 -1.2287  0.9183
  346MOL0     H47682   1.696   4.764  10.124 -1.1803  1.4416 -2.2273
  346MOL0     H47683   1.928   4.905   9.987  0.7095 -0.7412 -2.0510
  346MOL0     H47684   1.820   4.798   9.903  2.1026 -0.8285 -0.0061
  346MOL0     H47685   1.718   5.025   9.885  1.6124  0.3489  1.2916
  346MOL0     H47686   1.621   4.964  10.015 -2.3193 -2.0199 -3.7246
  346MOL0     H47687   1.789   5.076  10.173  0.9168  1.6694  0.5854
  346MOL0     H47688   1.866   5.142  10.025 -1.1289  1.9796 -0.0833
  346MOL0     H47689   1.568   5.173  10.063 -0.1932  0.6133  0.0882
  346MOL0     H47690   1.686   5.273   9.969 -0.2821  1.7341  1.6606
  346MOL0     H47691   1.618   5.388  10.182 -1.7500 -1.8462  0.3918
  346MOL0     H47692   1.644   5.252  10.277  0.8336 -2.2826  0.0931
  346MOL0     H47693   1.893   5.305  10.290  1.4433 -1.7558 -2.9222
  346MOL0     H47694   1.792   5.451  10.300 -0.7883 -0.9244  1.1520
  346MOL0     H47695   1.945   5.361  10.062  0.2995  1.5095  0.0566
  346MOL0     H47696   1.804   5.482  10.066 -0.1778 -0.1680 -2.1252
  346MOL0     H47697   2.166   5.466  10.226 -0.0511 -0.1777  1.9732
  346MOL0     H47698   2.251   5.707  10.390  0.4232 -0.1423 -0.7335
  346MOL0     H47699   2.231   5.858  10.293 -0.4502 -0.3231 -0.8906
  346MOL0     H47700   2.449   5.740  10.278  0.1440 -0.1781 -0.4914
  346MOL0     H47701   2.361   5.613  10.184 -1.2903  0.6787 -1.2944
  346MOL0     H47702   2.276   5.774  10.022  1.3808  1.8300 -2.6293
  346MOL0     H47703   2.364   5.906  10.115 -1.7280 -0.0601  2.2085
  346MOL0     H47704   2.478   5.686   9.940 -1.8092 -1.4206  2.6288
  346MOL0     H47705   2.497   5.866   9.933 -1.9261 -0.6418 -2.3381
  346MOL0     H47706   2.738   5.524  10.075 -0.1369  1.0224  2.0476
  346MOL0     H47707   3.034   5.408   9.914  0.8285  2.9812 -1.0535
  346MOL0     H47708   2.874   5.349   9.846 -1.0698 -1.5456  2.3556
  346MOL0     H47709   2.898   5.374  10.022  2.5829 -0.6426  0.2338
  346MOL0     H47710   3.224   5.427   9.592  1.1038 -1.4730 -1.0672
  346MOL0     H47711   3.366   5.440   9.410  0.1340  0.0558  2.4428
  346MOL0     H47712   3.141   5.571   9.012 -1.8126  2.5076 -1.7448
  346MOL0     H47713   3.250   5.708   9.062  0.2532  0.3398 -1.6687
  346MOL0     H47714   3.300   5.486   8.863 -0.1273 -0.0686  0.4970
  346MOL0     H47715   3.280   5.655   8.841  2.0615  0.5441 -0.0923
  346MOL0     H47716   3.505   5.693   8.979  1.6701 -0.0737 -0.1156
  346MOL0     H47717   3.500   5.625   8.811  1.1634  1.1549 -0.6384
  346MOL0     H47718   3.529   5.386   8.937  2.1122 -0.5166  0.8414
  346MOL0     H47719   3.533   5.491   9.084  1.0647  1.1212 -0.1089
  346MOL0     H47720   3.748   5.407   9.011  1.4149  1.4755  2.0067
  346MOL0     H47721   3.723   5.521   8.862  1.2480  2.5908  0.3884
  346MOL0     H47722   3.768   5.603   9.142  2.2697  1.5505  0.2666
  346MOL0     H47723   3.743   5.717   9.015  1.6435  0.3340 -0.5367
  346MOL0     H47724   3.915   5.590   8.886 -1.4078  3.1338 -0.3226
  346MOL0     H47725   3.948   5.510   9.050  3.2332  2.3452  0.9961
  346MOL0     H47726   3.951   5.797   9.025 -0.4130  0.3039  0.5459
  346MOL0     H47727   4.098   5.705   8.970 -1.5072 -1.4278 -2.5619
  346MOL0     H47728   3.052   5.670   9.203  0.8259 -0.6230 -1.5779
  346MOL0     H47729   2.921   5.655   9.404 -0.2244 -1.2496 -0.7160
  346MOL0     H47730   2.908   5.840   9.733 -0.3676  1.4898  0.2504
  346MOL0     H47731   2.724   5.912   9.886  0.2855 -0.5703  0.7175
  346MOL0     H47732   1.984   4.891  10.243  0.5348 -0.3552 -2.9804
  346MOL0     H47733   2.187   4.922  10.371 -0.3875  0.0828 -0.7345
  346MOL0     H47734   2.680   4.665  10.147 -0.3594 -0.1680  0.4210
  346MOL0     H47735   2.888   4.621  10.196 -3.6168 -2.2288 -2.2882
  346MOL0     H47736   3.092   4.701  10.309  0.2319  0.6652  0.6416
  346MOL0     H47737   3.204   4.638  10.423 -0.0006  3.0863 -1.7504
  346MOL0     H47738   3.075   4.471  10.209 -0.0681 -0.4249 -0.3498
  346MOL0     H47739   3.143   4.397  10.348 -1.7952 -0.2075 -1.8383
  346MOL0     H47740   3.296   4.583  10.148 -0.8499 -0.4411 -0.4066
  346MOL0     H47741   3.370   4.518  10.302 -0.7453  3.5372  0.8260
  346MOL0     H47742   3.278   4.381  10.044  1.6359  0.7310 -1.0274
  346MOL0     H47743   3.299   4.299  10.198 -0.1835  0.2240 -1.4922
  346MOL0     H47744   3.693   4.365  10.065  1.0295  2.6325  2.6023
  346MOL0     H47745   2.816   4.646  10.620  0.3860 -0.4205  0.1592
  346MOL0     H47746   2.488   4.813  10.596 -0.6153 -0.8755  0.2455
  346MOL0     H47747   2.532   4.661  10.666  1.8560  0.2571  1.5505
  346MOL0     H47748   2.630   4.787  10.703  1.2098 -2.8703 -0.1680
  347MOL0     O47749   6.118   3.294   0.650 -0.3125 -0.4658  0.1598
  347MOL0     C47750   6.008   3.242   0.628 -0.3981  0.2883  0.6264
  347MOL0     O47751   6.002   3.130   0.548  0.4337 -0.2423 -0.5524
  347MOL0     C47752   6.119   3.095   0.479  0.0497 -0.1085  0.1640
  347MOL0     C47753   6.160   2.961   0.494 -0.3505  0.4761  1.0138
  347MOL0     C47754   6.266   2.905   0.422 -0.4061 -0.4110 -0.3797
  347MOL0     C47755   6.327   2.994   0.334  0.3385 -0.5840  0.7794
  347MOL0     O47756   6.426   2.953   0.248  0.5554  0.0539 -0.4297
  347MOL0     C47757   6.558   2.992   0.269 -0.7526 -0.6188 -0.6804
  347MOL0     C47758   6.671   2.915   0.204  0.0210 -0.6436  0.4617
  347MOL0     C47759   6.806   2.982   0.249  0.4197 -0.3932 -0.2454
  347MOL0     C47760   6.931   2.922   0.189 -0.8514 -0.0133 -0.4943
  347MOL0     C47761   7.056   3.007   0.232 -0.2327  1.6051  0.0026
  347MOL0     C47762   7.182   2.946   0.168 -0.3078  0.0729  0.6995
  347MOL0     C47763   7.270   2.877   0.278  0.2169  0.7426 -0.5070
  347MOL0     C47764   7.394   2.804   0.212  0.4483 -0.1495 -0.0972
  347MOL0     N47765   7.357   2.666   0.169 -0.2352 -0.9993 -0.1160
  347MOL0     C47766   7.382   2.545   0.232  0.2559 -1.3808  0.0034
  347MOL0     C47767   7.347   2.453   0.138  0.1831 -0.1100 -1.0935
  347MOL0     C47768   7.346   2.314   0.161  0.5739  1.1553 -0.0374
  347MOL0     C47769   7.485   2.260   0.205  0.2690  0.2215 -0.6580
  347MOL0     C47770   7.596   2.276   0.093  0.9894 -0.4945 -0.1569
  347MOL0     C47771   7.728   2.254   0.171 -0.5159  0.8319  0.0906
  347MOL0     O47772   7.838   2.248   0.074  0.1049  0.0799 -0.2385
  347MOL0     C47773   7.955   2.277   0.139  0.2849 -1.0672  0.2517
  347MOL0     C47774   7.962   2.396   0.227 -0.7780  0.4381 -0.2146
  347MOL0     C47775   8.079   2.428   0.296  0.1952  0.5764  0.7558
  347MOL0     C47776   8.068   2.547   0.382 -0.1940  0.2365 -0.0480
  347MOL0     C47777   8.191   2.341   0.284 -0.1210  0.0730 -0.3738
  347MOL0     C47778   8.323   2.358   0.358  0.3971  0.1443  0.6680
  347MOL0     O47779   8.348   2.476   0.416  0.2493  1.1031 -0.2685
  347MOL0     C47780   8.447   2.482   0.508 -0.1488 -0.0745  1.0296
  347MOL0     C47781   8.568   2.537   0.470 -0.4630 -0.6953 -0.1820
  347MOL0     C47782   8.666   2.554   0.570  0.1765 -0.7027 -0.3149
  347MOL0     C47783   8.651   2.512   0.707 -1.1792 -0.5853 -0.3945
  347MOL0     O47784   8.755   2.507   0.799  0.5214 -0.0472 -0.5220
  347MOL0     C47785   8.856   2.612   0.790  0.3683  0.1318 -0.2456
  347MOL0     C47786   8.982   2.564   0.721  0.6243 -0.5469  0.5847
  347MOL0     C47787   9.083   2.681   0.702  0.7694 -0.0923 -0.0006
  347MOL0     C47788   9.153   2.712   0.824 -0.3698 -0.4364 -0.5518
  347MOL0     C47789   9.242   2.589   0.864 -0.2691 -0.0981  0.0154
  347MOL0     C47790   9.352   2.637   0.953 -0.0118 -0.4590 -0.3241
  347MOL0     C47791   9.459   2.530   0.974 -0.0015  0.1146 -0.5139
  347MOL0     C47792   9.545   2.567   1.088  0.2647 -0.1690 -1.0846
  347MOL0    Cl47793   9.652   2.697   1.048 -0.0053 -0.7531 -0.0181
  347MOL0     C47794   8.532   2.454   0.739 -0.3568  0.3561  0.3054
  347MOL0     C47795   8.433   2.444   0.644  0.1569 -0.5523  0.7685
  347MOL0     O47796   8.393   2.262   0.374  0.0239  0.0811  0.2832
  347MOL0     C47797   8.181   2.225   0.210  0.5926  0.6197 -1.1625
  347MOL0     C47798   8.063   2.190   0.139  0.5158  0.1158  0.2027
  347MOL0     N47799   7.299   2.513   0.027  0.4169 -0.5731  0.1409
  347MOL0     N47800   7.294   2.643   0.049  0.2008 -0.1399 -0.0470
  347MOL0     C47801   6.285   3.124   0.320  0.8777  0.3986 -0.2551
  347MOL0     C47802   6.184   3.180   0.393  0.4798 -0.2498 -0.0046
  347MOL0     C47803   5.887   3.285   0.706  0.5634  0.0305 -0.4144
  347MOL0     C47804   5.776   3.189   0.719 -0.3205  0.0419  0.7466
  347MOL0     C47805   5.660   3.224   0.786 -0.1066 -0.0274  0.0559
  347MOL0     C47806   5.652   3.346   0.839 -0.8371 -0.7823 -0.9738
  347MOL0     O47807   5.539   3.372   0.893  0.2736 -0.3492 -0.3034
  347MOL0     C47808   5.533   3.474   1.002 -0.2214 -0.2341  0.8298
  347MOL0     C47809   5.596   3.420   1.132  0.0184 -0.3325  0.6324
  347MOL0     C47810   5.525   3.487   1.251  0.6035  0.2014 -0.2260
  347MOL0     C47811   5.537   3.393   1.378 -0.3143 -0.6319 -0.0290
  347MOL0     C47812   5.476   3.451   1.496  0.6404  1.3550 -0.4132
  347MOL0     C47813   5.420   3.495   1.589 -0.1529  0.4060  0.1496
  347MOL0     C47814   5.757   3.439   0.830  0.3947 -0.1089  0.5345
  347MOL0     C47815   5.881   3.409   0.779  1.1792 -0.1229  0.3374
  347MOL0     C47816   5.978   3.523   0.777  0.6053 -0.0225 -0.9681
  347MOL0     H47817   6.097   2.905   0.563 -1.5487 -2.1188 -1.9519
  347MOL0     H47818   6.306   2.805   0.436  1.0473  0.5872  3.8792
  347MOL0     H47819   6.581   2.996   0.376 -2.6402  0.6907 -0.2647
  347MOL0     H47820   6.567   3.091   0.224 -2.2845 -1.4111 -2.8806
  347MOL0     H47821   6.682   2.812   0.241  0.4066 -0.6117  0.4325
  347MOL0     H47822   6.665   2.926   0.096  4.7139 -0.4295  0.0277
  347MOL0     H47823   6.795   3.090   0.239  0.0206 -0.5757 -2.1416
  347MOL0     H47824   6.818   2.952   0.354 -0.0443 -1.6193 -0.5176
  347MOL0     H47825   6.949   2.818   0.214 -0.1216  0.0827 -0.6053
  347MOL0     H47826   6.921   2.925   0.080 -0.2718  0.2057 -0.5457
  347MOL0     H47827   7.058   2.994   0.340 -0.6986 -0.3080 -0.1767
  347MOL0     H47828   7.045   3.114   0.213 -1.4682  1.4042 -0.5331
  347MOL0     H47829   7.156   2.881   0.084  0.1702  2.7524 -1.6827
  347MOL0     H47830   7.252   3.023   0.133 -0.2168  0.5461  1.8646
  347MOL0     H47831   7.217   2.815   0.351  2.6962 -1.8201 -0.6932
  347MOL0     H47832   7.304   2.962   0.337 -0.2319  0.3509  0.3437
  347MOL0     H47833   7.425   2.860   0.123 -0.3922  0.1450 -0.2159
  347MOL0     H47834   7.480   2.800   0.280  0.4082 -0.2987 -0.0557
  347MOL0     H47835   7.421   2.534   0.333 -1.4096  0.7087  0.9647
  347MOL0     H47836   7.313   2.276   0.064 -1.5248  1.6684  0.4352
  347MOL0     H47837   7.272   2.290   0.238  0.4845 -0.1771 -0.4999
  347MOL0     H47838   7.519   2.307   0.298  0.4843 -0.3285 -0.4592
  347MOL0     H47839   7.470   2.154   0.228 -1.8664  0.7601  0.7127
  347MOL0     H47840   7.594   2.205   0.010  2.1017  0.0671 -0.6918
  347MOL0     H47841   7.592   2.368   0.035  0.9452 -1.5175 -1.8620
  347MOL0     H47842   7.731   2.333   0.247  1.6888 -1.3357  2.4327
  347MOL0     H47843   7.715   2.161   0.227  0.7237  0.2100 -0.6239
  347MOL0     H47844   7.873   2.458   0.229 -0.9887  0.1360 -0.0326
  347MOL0     H47845   8.161   2.592   0.418 -0.0654 -0.7323  0.8626
  347MOL0     H47846   8.011   2.527   0.473  0.7233  1.9615  0.9583
  347MOL0     H47847   8.010   2.617   0.321 -0.5739  1.0324  1.1864
  347MOL0     H47848   8.596   2.572   0.371  2.8138 -1.1903  0.4499
  347MOL0     H47849   8.754   2.608   0.536 -0.7979  0.4306 -1.1153
  347MOL0     H47850   8.817   2.697   0.733 -0.2251  0.2618  0.3446
  347MOL0     H47851   8.886   2.640   0.891 -3.7452  3.2451  0.3690
  347MOL0     H47852   9.018   2.477   0.776 -0.9208 -1.2377  0.5238
  347MOL0     H47853   8.952   2.510   0.631  2.0801  0.8012 -0.7872
  347MOL0     H47854   9.019   2.767   0.682 -0.3026 -0.7748  0.4224
  347MOL0     H47855   9.150   2.658   0.618  0.8371  0.9380 -0.2433
  347MOL0     H47856   9.090   2.734   0.910  0.8044 -0.8248  0.4378
  347MOL0     H47857   9.214   2.802   0.814 -0.1275 -0.4853  0.4150
  347MOL0     H47858   9.186   2.510   0.914  1.4402 -1.7929 -0.6609
  347MOL0     H47859   9.291   2.549   0.775 -1.1416 -2.6022  0.5973
  347MOL0     H47860   9.312   2.665   1.051  0.1904  0.3811 -0.4734
  347MOL0     H47861   9.399   2.725   0.908 -0.0396  0.3284  1.1066
  347MOL0     H47862   9.524   2.520   0.887 -0.6538  1.4584 -1.1823
  347MOL0     H47863   9.411   2.433   0.991 -2.1170  0.4651 -3.6679
  347MOL0     H47864   9.608   2.486   1.125  0.5101 -0.2194 -1.6057
  347MOL0     H47865   9.479   2.601   1.169  0.9124 -1.4969  0.0410
  347MOL0     H47866   8.528   2.418   0.841  0.2970 -1.2503 -0.2093
  347MOL0     H47867   8.334   2.416   0.678 -0.0752 -1.0150 -0.2667
  347MOL0     H47868   8.266   2.156   0.204  0.4169  0.3957 -1.0853
  347MOL0     H47869   8.050   2.095   0.088 -0.4841  1.4207 -2.1244
  347MOL0     H47870   6.330   3.180   0.238  0.8746 -1.8454 -1.8779
  347MOL0     H47871   6.145   3.281   0.383 -0.3742 -0.0939  3.3968
  347MOL0     H47872   5.798   3.092   0.676 -2.7144 -0.6739  1.0264
  347MOL0     H47873   5.582   3.148   0.788  0.4033 -0.5769 -0.3890
  347MOL0     H47874   5.588   3.565   0.979  2.9114 -2.1526  0.2089
  347MOL0     H47875   5.429   3.506   1.018 -0.5298 -0.1116 -1.1071
  347MOL0     H47876   5.702   3.448   1.140  0.2511 -0.8055 -0.6293
  347MOL0     H47877   5.579   3.313   1.128 -0.9862 -0.1433 -1.6700
  347MOL0     H47878   5.558   3.588   1.278  0.0433 -0.0922  1.6998
  347MOL0     H47879   5.418   3.489   1.227  0.2275 -2.1177  1.0068
  347MOL0     H47880   5.641   3.385   1.408 -0.3022  0.5941  0.3156
  347MOL0     H47881   5.498   3.293   1.357  2.7562 -2.0558  0.6448
  347MOL0     H47882   5.364   3.528   1.674 -1.4220 -2.8319  0.7331
  347MOL0     H47883   5.740   3.534   0.881 -1.3278 -1.2375  2.1607
  347MOL0     H47884   6.082   3.493   0.797  0.1686 -1.6591 -0.9811
  347MOL0     H47885   5.972   3.577   0.682 -2.4617  3.7599  1.0808
  347MOL0     H47886   5.947   3.595   0.853 -1.8502 -2.3329  0.4123
  348MOL0     O47887   4.874   1.104   5.128  0.3923 -0.0205  0.0039
  348MOL0     C47888   4.752   1.075   5.110 -0.1799  0.6294  0.5702
  348MOL0     O47889   4.653   1.148   5.164 -0.0830 -0.2887  0.2512
  348MOL0     C47890   4.677   1.272   5.224 -0.7866  0.4489  0.0049
  348MOL0     C47891   4.776   1.374   5.195  0.0382  0.3453 -0.2808
  348MOL0     C47892   4.784   1.493   5.260 -1.1146  0.4930 -0.8351
  348MOL0     C47893   4.705   1.519   5.368 -0.4778 -0.8350  0.0830
  348MOL0     O47894   4.719   1.631   5.442  0.2339 -0.4487  0.0541
  348MOL0     C47895   4.779   1.743   5.376  0.2609 -0.1442 -0.1624
  348MOL0     C47896   4.755   1.880   5.454 -0.7007  0.3012  0.1157
  348MOL0     C47897   4.855   1.983   5.402 -0.1367  0.0423  0.4659
  348MOL0     C47898   4.847   2.102   5.504  0.2826 -0.8091  0.3085
  348MOL0     C47899   4.894   2.230   5.442 -0.3551  0.0945  0.2047
  348MOL0     C47900   4.949   2.327   5.550  0.0554  0.0527  0.1484
  348MOL0     C47901   4.983   2.462   5.490 -0.1668 -0.0522 -0.9576
  348MOL0     C47902   5.058   2.559   5.584  0.4964 -0.7292 -0.2076
  348MOL0     N47903   5.074   2.694   5.528  0.1406  0.2591  0.0327
  348MOL0     C47904   5.134   2.722   5.410 -0.1069  0.8030 -0.3435
  348MOL0     C47905   5.123   2.853   5.385 -0.1081 -0.0696  0.2775
  348MOL0     C47906   5.181   2.931   5.276 -0.0707 -0.5665 -1.0127
  348MOL0     C47907   5.077   3.005   5.196 -0.0369  0.1042 -0.7487
  348MOL0     C47908   4.968   2.924   5.122  0.7601  0.6185 -0.2072
  348MOL0     C47909   4.865   3.013   5.063 -0.3692  0.0667  1.4156
  348MOL0     O47910   4.918   3.082   4.940  0.0517  0.5988 -0.0023
  348MOL0     C47911   4.829   3.158   4.864  0.2040  0.2858 -0.3628
  348MOL0     C47912   4.883   3.259   4.789 -0.6364  0.8323  0.6195
  348MOL0     C47913   4.813   3.357   4.712 -1.0715  0.2647  0.3627
  348MOL0     C47914   4.886   3.453   4.614 -1.5421  0.2699 -0.5240
  348MOL0     C47915   4.674   3.340   4.722 -0.9843  0.1309  0.6090
  348MOL0     C47916   4.575   3.435   4.658 -0.1639  0.4467  0.8123
  348MOL0     O47917   4.450   3.389   4.636  0.0402 -0.4362 -0.2536
  348MOL0     C47918   4.347   3.477   4.606 -1.4441 -0.7548  0.4583
  348MOL0     C47919   4.310   3.490   4.475  0.1421  0.1565  0.5716
  348MOL0     C47920   4.210   3.583   4.447  0.5232  0.0160  0.0144
  348MOL0     C47921   4.148   3.655   4.547  0.0148 -0.4904  0.1703
  348MOL0     O47922   4.054   3.742   4.505 -0.6228 -0.0011 -0.1727
  348MOL0     C47923   3.997   3.832   4.598 -0.3446  0.7351 -0.2324
  348MOL0     C47924   3.899   3.924   4.533 -0.0140  0.5953  1.3562
  348MOL0     C47925   3.837   4.013   4.639  0.2488  0.2937 -0.3587
  348MOL0     C47926   3.749   4.111   4.558  0.7041  0.1469 -0.4523
  348MOL0     C47927   3.682   4.220   4.648  0.8405  0.3828  0.1124
  348MOL0     C47928   3.564   4.168   4.726  0.1500  0.1544 -0.5734
  348MOL0     C47929   3.476   4.278   4.793  0.0182 -0.3689  0.0756
  348MOL0     C47930   3.361   4.209   4.878 -0.6565 -0.6344  0.3741
  348MOL0    Cl47931   3.253   4.115   4.764  0.0543  0.0162  0.0801
  348MOL0     C47932   4.176   3.639   4.681 -0.0762 -0.1374  1.1498
  348MOL0     C47933   4.285   3.548   4.706 -0.2412  0.1350 -1.1915
  348MOL0     O47934   4.618   3.546   4.631  0.1902  0.3129 -0.0970
  348MOL0     C47935   4.606   3.243   4.800  0.2105 -0.0353  0.2430
  348MOL0     C47936   4.692   3.147   4.868  0.1180  0.9743 -0.2672
  348MOL0     N47937   5.046   2.904   5.487 -0.5570 -0.2658 -0.5794
  348MOL0     N47938   5.012   2.802   5.572 -0.3183 -0.8906 -0.0971
  348MOL0     C47939   4.608   1.428   5.404 -0.4060  0.2571  0.5745
  348MOL0     C47940   4.593   1.306   5.326 -0.2177  0.5955  0.4001
  348MOL0     C47941   4.702   0.951   5.031 -0.2029  0.4712 -1.1773
  348MOL0     C47942   4.568   0.920   5.042  0.2837  0.0672 -0.2765
  348MOL0     C47943   4.507   0.819   4.975  0.3280  0.1858 -0.5185
  348MOL0     C47944   4.583   0.737   4.889  0.4723  0.8025  0.6468
  348MOL0     O47945   4.525   0.642   4.812  0.0524 -0.3404  1.0450
  348MOL0     C47946   4.392   0.602   4.841  0.6142 -0.0156 -0.4208
  348MOL0     C47947   4.364   0.467   4.773  0.0194 -0.3561 -0.0174
  348MOL0     C47948   4.234   0.409   4.798  0.3316  1.1675  0.3511
  348MOL0     C47949   4.217   0.306   4.679 -0.0649 -0.2245 -0.6823
  348MOL0     C47950   4.081   0.267   4.684 -0.1258  0.0679  0.5044
  348MOL0     C47951   3.973   0.242   4.726 -0.1955  0.2811  0.6845
  348MOL0     C47952   4.715   0.776   4.873  0.3374 -0.3968  1.4271
  348MOL0     C47953   4.779   0.877   4.944 -0.3648 -0.1441  0.2224
  348MOL0     C47954   4.928   0.901   4.915 -0.4087  0.3077 -0.2191
  348MOL0     H47955   4.857   1.363   5.124  5.3387 -0.4653  5.0905
  348MOL0     H47956   4.872   1.555   5.247 -1.1678  0.4663 -1.3319
  348MOL0     H47957   4.757   1.762   5.271  3.3438  1.5059 -0.6283
  348MOL0     H47958   4.886   1.725   5.384  0.4888  0.7706 -0.9681
  348MOL0     H47959   4.657   1.921   5.430 -0.4588  0.9438  0.2286
  348MOL0     H47960   4.766   1.870   5.563  0.5889  2.4359  0.2368
  348MOL0     H47961   4.956   1.945   5.388 -0.8542 -3.1487  2.6246
  348MOL0     H47962   4.826   2.016   5.302  1.8255  2.9452  0.7523
  348MOL0     H47963   4.746   2.117   5.542 -0.0633 -2.0199 -0.0950
  348MOL0     H47964   4.915   2.072   5.585  1.2743 -0.0721 -0.2194
  348MOL0     H47965   4.805   2.277   5.399 -2.5059 -2.8254  1.1491
  348MOL0     H47966   4.975   2.215   5.370  1.3358 -2.6816  2.4641
  348MOL0     H47967   4.881   2.342   5.634  1.5763  2.0653  1.0879
  348MOL0     H47968   5.041   2.288   5.593  0.5166  0.4953 -0.4210
  348MOL0     H47969   4.892   2.513   5.456  0.3807  0.4113 -1.7565
  348MOL0     H47970   5.043   2.427   5.406 -1.4835 -1.4611 -1.3748
  348MOL0     H47971   5.000   2.570   5.676  0.5785  1.0782 -0.3295
  348MOL0     H47972   5.157   2.518   5.606  0.4149 -1.6339 -1.4599
  348MOL0     H47973   5.193   2.646   5.359  1.1500  0.9962  0.7620
  348MOL0     H47974   5.231   2.858   5.211  2.3083  0.0270  0.0498
  348MOL0     H47975   5.255   3.000   5.317  0.4717 -1.1599 -0.9719
  348MOL0     H47976   5.029   3.071   5.269  0.8699 -1.8219  1.7329
  348MOL0     H47977   5.123   3.065   5.117  1.6813 -2.3634 -1.7650
  348MOL0     H47978   5.020   2.864   5.046  0.7808 -2.6607  2.1498
  348MOL0     H47979   4.914   2.861   5.194  0.3151  1.1649 -0.0577
  348MOL0     H47980   4.790   2.949   5.015  2.6629 -0.7524 -2.7691
  348MOL0     H47981   4.816   3.078   5.136  0.7825 -0.1984  2.4566
  348MOL0     H47982   4.991   3.266   4.788 -0.0543 -3.2968 -3.5065
  348MOL0     H47983   4.868   3.558   4.637  3.9054  1.0120  1.9270
  348MOL0     H47984   4.859   3.428   4.511  3.5652 -2.9568 -1.4677
  348MOL0     H47985   4.995   3.445   4.606 -1.4633  1.1771 -0.4445
  348MOL0     H47986   4.360   3.439   4.393  0.2212 -1.6697  1.6993
  348MOL0     H47987   4.176   3.605   4.347  1.6917  0.3822 -0.3238
  348MOL0     H47988   3.939   3.773   4.669 -1.5392  1.0114 -0.9584
  348MOL0     H47989   4.058   3.899   4.660 -0.1882  0.1811  0.2135
  348MOL0     H47990   3.962   3.983   4.465  0.1017 -3.6236 -2.6431
  348MOL0     H47991   3.833   3.855   4.481  1.7821 -1.4582  1.6372
  348MOL0     H47992   3.912   4.069   4.695  0.4773  0.4380 -0.8027
  348MOL0     H47993   3.758   3.960   4.692  1.2252  1.2368  2.2025
  348MOL0     H47994   3.676   4.044   4.510  1.3729 -1.5110  0.7373
  348MOL0     H47995   3.814   4.164   4.487 -0.0577 -0.6832 -1.8161
  348MOL0     H47996   3.760   4.264   4.710  1.9241 -0.9046 -0.2865
  348MOL0     H47997   3.649   4.298   4.579  0.5534  0.1022 -0.0704
  348MOL0     H47998   3.593   4.100   4.807 -4.4449  1.4936  2.5724
  348MOL0     H47999   3.496   4.118   4.657 -0.8326  1.7541 -0.8025
  348MOL0     H48000   3.423   4.330   4.712 -1.7973 -1.4771  0.4941
  348MOL0     H48001   3.542   4.343   4.851 -0.5212 -0.7648  1.1417
  348MOL0     H48002   3.284   4.271   4.925 -1.9282  0.1845 -2.5412
  348MOL0     H48003   3.417   4.140   4.941  3.4264  1.6906 -0.3141
  348MOL0     H48004   4.122   3.684   4.764 -1.3644 -1.6790  1.1850
  348MOL0     H48005   4.325   3.523   4.804  0.7067  0.3686 -1.5047
  348MOL0     H48006   4.498   3.238   4.807  0.2420  0.5130  1.2101
  348MOL0     H48007   4.639   3.076   4.932  0.1562 -0.4654 -1.7714
  348MOL0     H48008   4.544   1.443   5.491 -1.7805 -0.2462 -0.3056
  348MOL0     H48009   4.521   1.233   5.362  1.0450 -1.3640 -0.8822
  348MOL0     H48010   4.509   0.965   5.121  0.3419  0.8967 -0.6963
  348MOL0     H48011   4.406   0.792   5.005  0.6600 -1.6664 -1.0029
  348MOL0     H48012   4.368   0.575   4.944  0.7630 -2.1153 -0.9017
  348MOL0     H48013   4.325   0.681   4.805  1.1644  0.8374  0.3854
  348MOL0     H48014   4.441   0.399   4.811  0.5318 -0.6679 -1.5714
  348MOL0     H48015   4.376   0.490   4.667 -1.6863  1.8143  0.1802
  348MOL0     H48016   4.231   0.349   4.889  1.2538  1.1236  0.3625
  348MOL0     H48017   4.154   0.484   4.795 -0.5483  0.2277 -1.7327
  348MOL0     H48018   4.255   0.206   4.703 -1.3572 -0.5702  0.0230
  348MOL0     H48019   4.243   0.344   4.580 -0.5130  0.2347 -0.6281
  348MOL0     H48020   3.869   0.222   4.743  0.3046 -3.1952  0.3767
  348MOL0     H48021   4.772   0.701   4.819 -1.1390 -1.8262  1.7778
  348MOL0     H48022   4.949   1.007   4.901  0.3192  0.0793 -0.8869
  348MOL0     H48023   4.976   0.869   5.008 -3.7525 -0.5624  1.3651
  348MOL0     H48024   4.970   0.854   4.826 -0.1918  1.4478 -0.7425
  349MOL0     O48025   5.325   4.080   9.522 -0.3241 -0.1192  0.8192
  349MOL0     C48026   5.282   4.046   9.630 -0.3224 -0.0467 -0.3406
  349MOL0     O48027   5.352   3.977   9.720  0.5765 -0.3415  0.2426
  349MOL0     C48028   5.465   3.910   9.685 -0.0156 -0.4771 -0.3482
  349MOL0     C48029   5.459   3.774   9.647 -0.3625 -0.3244  0.4126
  349MOL0     C48030   5.577   3.703   9.631 -0.4719 -0.2408 -0.3093
  349MOL0     C48031   5.698   3.761   9.644  0.0980  0.7439 -0.2651
  349MOL0     O48032   5.802   3.676   9.608  0.2801 -0.0790  0.1896
  349MOL0     C48033   5.942   3.720   9.622  0.7735 -0.3423  0.1274
  349MOL0     C48034   5.981   3.723   9.769 -0.6437  0.2250 -0.8758
  349MOL0     C48035   6.119   3.667   9.815 -0.6100 -0.0422 -0.0665
  349MOL0     C48036   6.235   3.758   9.805 -1.0697  0.0441  0.1965
  349MOL0     C48037   6.353   3.700   9.883 -0.8667 -0.7596 -0.0613
  349MOL0     C48038   6.428   3.595   9.816 -0.0491  0.4429 -0.0494
  349MOL0     C48039   6.564   3.551   9.878 -0.6569  0.5335 -0.7954
  349MOL0     C48040   6.645   3.473   9.775  0.6607  0.1267 -0.0897
  349MOL0     N48041   6.755   3.412   9.840  0.2077  0.7170  0.4770
  349MOL0     C48042   6.758   3.292   9.915 -0.8822 -0.2615  0.1297
  349MOL0     C48043   6.899   3.267   9.928  0.7999  0.0003 -0.6667
  349MOL0     C48044   6.962   3.144   9.989  0.6818  0.2242  0.0401
  349MOL0     C48045   7.102   3.124   9.931  0.2028 -0.2707  0.6188
  349MOL0     C48046   7.176   2.987   9.972 -0.0398  0.2797  0.3905
  349MOL0     C48047   7.302   2.970   9.885  0.6548 -0.7278 -0.3137
  349MOL0     O48048   7.385   3.093   9.896  0.0170  0.0381 -0.3805
  349MOL0     C48049   7.473   3.115   9.784 -0.1096  0.0651  0.2855
  349MOL0     C48050   7.519   3.022   9.682  0.3042  0.1234 -0.3484
  349MOL0     C48051   7.620   3.050   9.589  0.3523  1.1258  0.0458
  349MOL0     C48052   7.657   2.941   9.492  0.2256 -0.3147 -0.1928
  349MOL0     C48053   7.679   3.179   9.582  0.1790 -0.0624  0.2814
  349MOL0     C48054   7.789   3.222   9.486  0.1778  0.6913  0.5827
  349MOL0     O48055   7.844   3.341   9.501 -0.0967  0.2869  0.3822
  349MOL0     C48056   7.963   3.384   9.439  0.8585  0.3475 -0.5960
  349MOL0     C48057   8.038   3.470   9.506 -0.0205  0.5871 -0.0711
  349MOL0     C48058   8.150   3.531   9.455 -1.0230 -0.0701  0.0381
  349MOL0     C48059   8.196   3.492   9.330  0.1865 -0.5821 -0.1862
  349MOL0     O48060   8.312   3.550   9.284  0.3821  0.5096  0.4605
  349MOL0     C48061   8.370   3.509   9.161 -0.7669 -1.0723 -1.0120
  349MOL0     C48062   8.519   3.541   9.159  0.0203 -0.7186 -0.4698
  349MOL0     C48063   8.602   3.444   9.245 -0.3541  0.5530 -0.3232
  349MOL0     C48064   8.742   3.471   9.248 -0.5565 -0.6561  0.2715
  349MOL0     C48065   8.829   3.387   9.344 -0.0430 -0.3431  0.1002
  349MOL0     C48066   8.977   3.392   9.309 -0.5206 -0.7524 -0.8046
  349MOL0     C48067   9.070   3.297   9.386 -0.3268 -0.0957 -0.3313
  349MOL0     C48068   9.209   3.284   9.322  0.6188 -0.4331 -0.3105
  349MOL0    Cl48069   9.294   3.439   9.334 -0.1321 -0.2833 -0.4830
  349MOL0     C48070   8.118   3.396   9.259 -0.5488  0.4334 -0.0213
  349MOL0     C48071   7.998   3.352   9.310 -0.1461 -0.0601  0.6699
  349MOL0     O48072   7.825   3.138   9.395 -0.0118  0.3321  0.2016
  349MOL0     C48073   7.626   3.272   9.668 -0.1716  0.1805 -0.2193
  349MOL0     C48074   7.530   3.241   9.764 -0.4816  0.0578 -0.4304
  349MOL0     N48075   6.965   3.369   9.857 -0.2096 -0.0039  0.5376
  349MOL0     N48076   6.879   3.448   9.801 -0.1077 -0.1518  0.4636
  349MOL0     C48077   5.708   3.901   9.682  0.5414 -0.1581  0.2624
  349MOL0     C48078   5.590   3.978   9.698  0.3629 -0.1590  0.1337
  349MOL0     C48079   5.144   4.079   9.672  0.1376  0.0031  0.1484
  349MOL0     C48080   5.088   4.015   9.783 -0.5460  0.0339  0.7311
  349MOL0     C48081   4.977   4.048   9.849 -0.5212  0.5042 -0.0835
  349MOL0     C48082   4.908   4.152   9.796 -0.6687 -0.9402 -1.0547
  349MOL0     O48083   4.790   4.190   9.862  0.1943 -0.0352  0.3307
  349MOL0     C48084   4.685   4.107   9.819  0.8197 -0.6116 -0.9455
  349MOL0     C48085   4.630   4.162   9.696  1.2393  0.1422  0.7210
  349MOL0     C48086   4.487   4.109   9.687 -0.3432  0.4904  0.3087
  349MOL0     C48087   4.466   3.974   9.619 -0.0375 -0.4327  0.1701
  349MOL0     C48088   4.330   3.925   9.640  0.5433  0.3211 -0.1833
  349MOL0     C48089   4.216   3.887   9.658 -0.3480  0.3018 -0.5087
  349MOL0     C48090   4.952   4.232   9.692 -0.1670  0.4337  0.0714
  349MOL0     C48091   5.065   4.190   9.623  0.1835 -0.5413 -0.2415
  349MOL0     C48092   5.109   4.285   9.516  0.0644  0.6767 -0.0605
  349MOL0     H48093   5.367   3.716   9.641  0.7489 -2.3836  1.8912
  349MOL0     H48094   5.576   3.603   9.590  1.3846 -0.1064 -0.7620
  349MOL0     H48095   5.955   3.821   9.581  2.3787 -0.3482  0.5641
  349MOL0     H48096   6.003   3.652   9.562 -0.2595 -0.9335 -0.2660
  349MOL0     H48097   5.968   3.827   9.802 -1.3528 -0.0603 -0.2257
  349MOL0     H48098   5.903   3.668   9.821 -0.9274  1.0426 -0.4188
  349MOL0     H48099   6.102   3.652   9.922 -1.3154 -1.5778 -0.3699
  349MOL0     H48100   6.139   3.571   9.766 -3.0183 -0.7834  0.3015
  349MOL0     H48101   6.251   3.760   9.697 -0.2038 -1.5160  0.2623
  349MOL0     H48102   6.206   3.858   9.836 -1.5256  1.0125 -2.9846
  349MOL0     H48103   6.329   3.669   9.985  3.8428  1.5340  2.0871
  349MOL0     H48104   6.425   3.781   9.898  0.6664 -1.8520 -1.2108
  349MOL0     H48105   6.368   3.503   9.818 -0.1965  0.5269  1.5756
  349MOL0     H48106   6.445   3.635   9.716  1.7003 -2.2658 -0.9491
  349MOL0     H48107   6.546   3.473   9.953  0.3469 -0.6930 -1.7773
  349MOL0     H48108   6.618   3.625   9.937 -1.0539  0.5410 -0.4393
  349MOL0     H48109   6.585   3.399   9.722 -1.9586  0.5239  2.1310
  349MOL0     H48110   6.689   3.543   9.703 -0.4779  0.7370 -0.2045
  349MOL0     H48111   6.673   3.232   9.944 -0.3570 -0.5276  1.1497
  349MOL0     H48112   6.891   3.072   9.947  3.3882 -2.2665 -0.5603
  349MOL0     H48113   6.956   3.140  10.098  1.2575  0.8315  0.0978
  349MOL0     H48114   7.096   3.112   9.823  2.1673 -0.1233  0.4618
  349MOL0     H48115   7.169   3.207   9.956  0.9285  0.6938 -3.7770
  349MOL0     H48116   7.216   2.996  10.073  4.3801 -0.3149 -1.0963
  349MOL0     H48117   7.110   2.901   9.954 -2.0815  1.8032  0.2568
  349MOL0     H48118   7.354   2.880   9.920 -1.6441 -3.3760 -3.1652
  349MOL0     H48119   7.275   2.959   9.780  2.4538 -1.4114 -0.7469
  349MOL0     H48120   7.468   2.927   9.672 -0.8984  0.6796  0.2347
  349MOL0     H48121   7.591   2.855   9.507 -1.0653  0.8752  1.3044
  349MOL0     H48122   7.757   2.900   9.503  0.2418 -0.0409  0.7663
  349MOL0     H48123   7.650   2.975   9.388 -3.9665  0.0156  0.0330
  349MOL0     H48124   8.012   3.488   9.610  0.0805 -1.6806  0.4021
  349MOL0     H48125   8.209   3.604   9.510 -0.5827 -0.8125  0.5814
  349MOL0     H48126   8.363   3.400   9.155 -0.9993 -1.1421  0.2616
  349MOL0     H48127   8.317   3.561   9.080  1.6897  2.2823 -0.6863
  349MOL0     H48128   8.556   3.543   9.056  1.3054  3.0735 -0.0928
  349MOL0     H48129   8.530   3.644   9.193  0.2493 -0.7191 -0.5395
  349MOL0     H48130   8.591   3.342   9.208  1.0849  0.3901 -0.3333
  349MOL0     H48131   8.570   3.445   9.349  1.4885 -0.8185  0.2991
  349MOL0     H48132   8.766   3.576   9.266  0.4675 -1.1090  1.7236
  349MOL0     H48133   8.765   3.437   9.147 -2.3519  0.6693 -0.6251
  349MOL0     H48134   8.805   3.416   9.446 -3.6274  0.9184 -0.9527
  349MOL0     H48135   8.788   3.288   9.323  0.1669 -0.5253  0.5331
  349MOL0     H48136   9.022   3.489   9.332  1.5160 -1.9751  0.8025
  349MOL0     H48137   8.985   3.364   9.204 -1.4460 -0.4509 -0.9621
  349MOL0     H48138   9.043   3.192   9.390 -0.7944  0.0376  0.0625
  349MOL0     H48139   9.092   3.341   9.484  1.7736 -3.0300  0.6659
  349MOL0     H48140   9.193   3.259   9.217 -0.8658  1.8837 -0.7248
  349MOL0     H48141   9.257   3.202   9.375  0.8799 -3.0372 -4.2534
  349MOL0     H48142   8.147   3.374   9.157  1.3429  1.1177  0.3248
  349MOL0     H48143   7.934   3.284   9.254  0.8824  0.0926 -0.7149
  349MOL0     H48144   7.670   3.371   9.664 -1.8651  0.9655 -0.1677
  349MOL0     H48145   7.499   3.327   9.822 -4.1208 -1.6382  0.4443
  349MOL0     H48146   5.807   3.944   9.691  1.3107 -1.4463 -1.3657
  349MOL0     H48147   5.593   4.082   9.727 -0.9527 -0.3577  1.0187
  349MOL0     H48148   5.141   3.928   9.821  0.3474 -0.1411 -0.8331
  349MOL0     H48149   4.950   3.990   9.937  0.9349  0.5120  0.3933
  349MOL0     H48150   4.718   4.003   9.807 -0.0529 -1.2189  1.3810
  349MOL0     H48151   4.622   4.114   9.908  0.6131  0.6233 -1.1707
  349MOL0     H48152   4.696   4.124   9.618  1.1525  1.6825 -0.1257
  349MOL0     H48153   4.617   4.270   9.698 -2.1109  0.1774 -4.5080
  349MOL0     H48154   4.433   4.112   9.782  1.0415 -1.8139  1.2670
  349MOL0     H48155   4.435   4.185   9.628 -0.4445  0.5855  0.5218
  349MOL0     H48156   4.530   3.899   9.667  0.6173  0.1321  0.2008
  349MOL0     H48157   4.479   3.971   9.511 -1.4949 -2.6745 -0.0104
  349MOL0     H48158   4.113   3.866   9.679  0.1128  1.0207  3.0679
  349MOL0     H48159   4.906   4.321   9.649  2.2768  0.1540 -3.5937
  349MOL0     H48160   5.218   4.300   9.522  0.6470 -2.5868 -0.3849
  349MOL0     H48161   5.076   4.234   9.425  1.5945 -0.9206  0.2067
  349MOL0     H48162   5.061   4.383   9.517 -0.6298  0.3396 -0.0843
  350MOL0     O48163   1.538  11.331  11.163 -0.1216 -0.0373  0.3804
  350MOL0     C48164   1.598  11.306  11.056  0.1823  0.2145 -0.2225
  350MOL0     O48165   1.723  11.248  11.050 -0.1007  0.4149 -0.9383
  350MOL0     C48166   1.797  11.248  11.166  0.3926  0.5089 -0.3426
  350MOL0     C48167   1.929  11.304  11.163  0.6150 -0.2196  0.1506
  350MOL0     C48168   2.023  11.303  11.267 -0.1540 -0.3266 -0.6424
  350MOL0     C48169   1.977  11.257  11.391  0.2778  0.0079  0.0372
  350MOL0     O48170   2.050  11.250  11.506 -0.1894 -0.5289 -0.0257
  350MOL0     C48171   2.186  11.286  11.492 -0.5151  1.0398  0.1461
  350MOL0     C48172   2.255  11.257  11.625  0.1531  0.4238  0.0202
  350MOL0     C48173   2.398  11.321  11.633  0.5614  0.8470 -0.1407
  350MOL0     C48174   2.490  11.280  11.518 -0.7830  0.0436 -0.6828
  350MOL0     C48175   2.639  11.323  11.551  0.0952  0.6364  0.2978
  350MOL0     C48176   2.695  11.216  11.646  0.6216 -0.4883 -0.6461
  350MOL0     C48177   2.848  11.200  11.648 -0.4537  0.1363  0.4194
  350MOL0     C48178   2.915  11.319  11.711 -0.3679  0.1520  0.1501
  350MOL0     N48179   3.062  11.318  11.674 -0.6196 -0.6564 -0.4884
  350MOL0     C48180   3.145  11.210  11.687 -0.6939 -0.7094 -0.4240
  350MOL0     C48181   3.266  11.266  11.710  0.4272 -0.4166  0.4181
  350MOL0     C48182   3.385  11.194  11.760 -0.6197  0.0787  0.3657
  350MOL0     C48183   3.514  11.256  11.701  1.1320  0.1305  0.8604
  350MOL0     C48184   3.519  11.258  11.547 -0.6899  0.6978  0.3811
  350MOL0     C48185   3.666  11.257  11.503  0.0163  0.7222  0.0562
  350MOL0     O48186   3.722  11.130  11.529  0.5155 -0.5673 -0.2935
  350MOL0     C48187   3.852  11.137  11.497 -0.4419 -0.3617 -0.4035
  350MOL0     C48188   3.894  11.139  11.363  0.4483  0.9324  0.2767
  350MOL0     C48189   4.032  11.124  11.330  0.6217 -0.1309 -0.4631
  350MOL0     C48190   4.063  11.115  11.189 -0.4372 -0.4038  0.8296
  350MOL0     C48191   4.130  11.128  11.438 -0.0781 -0.1688  0.5621
  350MOL0     C48192   4.280  11.125  11.409  0.8766 -0.5571 -0.0692
  350MOL0     O48193   4.326  11.181  11.293  0.3574  0.9424 -0.3410
  350MOL0     C48194   4.447  11.145  11.239  0.5651  0.1719 -0.7460
  350MOL0     C48195   4.510  11.242  11.163  0.6826 -0.2557 -0.1470
  350MOL0     C48196   4.635  11.210  11.114  0.4088  0.6474 -0.5702
  350MOL0     C48197   4.678  11.078  11.119  0.2354 -0.5473  0.2917
  350MOL0     O48198   4.797  11.061  11.053 -0.0255  0.4227 -0.4248
  350MOL0     C48199   4.815  10.939  10.989  0.5305  0.5056 -1.1811
  350MOL0     C48200   4.937  10.963  10.906 -0.3510 -0.1870  0.0828
  350MOL0     C48201   5.051  11.023  10.984 -0.3305  0.3872 -0.5402
  350MOL0     C48202   5.172  11.048  10.890 -0.4938 -0.4247  0.5115
  350MOL0     C48203   5.288  11.104  10.961  0.0237 -0.1401  0.2937
  350MOL0     C48204   5.362  11.004  11.050 -0.3405  0.2542  0.6948
  350MOL0     C48205   5.481  11.066  11.122 -0.0621 -0.2192  0.4793
  350MOL0     C48206   5.558  10.958  11.194  0.5202 -0.7381  0.4328
  350MOL0    Cl48207   5.459  10.884  11.338  0.0179  0.3136 -0.1706
  350MOL0     C48208   4.617  10.980  11.202  0.2591 -0.0665  0.4129
  350MOL0     C48209   4.495  11.014  11.248  0.0134 -0.3252  0.1919
  350MOL0     O48210   4.348  11.049  11.479  0.8623  0.6113 -0.2651
  350MOL0     C48211   4.086  11.126  11.569 -0.0624 -0.2740 -0.4523
  350MOL0     C48212   3.947  11.127  11.599 -0.3593  0.0687 -0.4941
  350MOL0     N48213   3.259  11.404  11.683 -0.8845  0.9664  0.2935
  350MOL0     N48214   3.134  11.435  11.667  0.3183  0.4092 -0.1259
  350MOL0     C48215   1.843  11.205  11.399  0.5780  0.8908  0.4479
  350MOL0     C48216   1.758  11.195  11.290  0.3618 -0.2501 -0.0767
  350MOL0     C48217   1.527  11.340  10.930 -0.0621  1.0175  0.5042
  350MOL0     C48218   1.581  11.328  10.800  0.9017  0.4333  0.3317
  350MOL0     C48219   1.517  11.353  10.679  0.8794  0.4416  0.4883
  350MOL0     C48220   1.387  11.395  10.677  0.3994  0.0687 -0.3889
  350MOL0     O48221   1.311  11.438  10.571 -0.0752 -0.2754 -0.2990
  350MOL0     C48222   1.377  11.441  10.444 -0.2547 -0.0381  0.5004
  350MOL0     C48223   1.293  11.515  10.337 -0.2303  0.1280 -0.0528
  350MOL0     C48224   1.337  11.473  10.197 -0.9103 -0.4716 -0.4034
  350MOL0     C48225   1.306  11.320  10.187  0.3143 -0.0450  0.1614
  350MOL0     C48226   1.278  11.283  10.050 -0.4356  0.1537  0.4924
  350MOL0     C48227   1.270  11.246   9.935  0.4112 -0.1385 -0.0703
  350MOL0     C48228   1.329  11.400  10.804  0.4425 -0.5693 -0.3304
  350MOL0     C48229   1.388  11.378  10.926 -0.1959 -0.2127  0.0105
  350MOL0     C48230   1.296  11.395  11.044 -0.8906 -0.0209 -0.0412
  350MOL0     H48231   1.964  11.334  11.065 -2.1489  0.1219 -0.8388
  350MOL0     H48232   2.119  11.353  11.259  0.4489 -1.4950 -0.9074
  350MOL0     H48233   2.201  11.388  11.455 -3.1005  1.3453 -0.1930
  350MOL0     H48234   2.235  11.213  11.427  1.7244  3.2241 -0.7706
  350MOL0     H48235   2.199  11.300  11.708  0.4639  1.5622 -0.3461
  350MOL0     H48236   2.257  11.150  11.648 -0.9559  0.6838  1.5047
  350MOL0     H48237   2.391  11.430  11.641 -1.6294  0.7507 -0.1649
  350MOL0     H48238   2.434  11.275  11.726 -1.5035  0.2926  0.4306
  350MOL0     H48239   2.480  11.171  11.512  0.0166 -0.1180  0.5975
  350MOL0     H48240   2.452  11.331  11.429  1.1339  0.2731 -1.4217
  350MOL0     H48241   2.647  11.418  11.604 -1.0609  0.1757  1.3479
  350MOL0     H48242   2.701  11.325  11.461  1.2238 -2.2980  0.8897
  350MOL0     H48243   2.656  11.237  11.745  0.6074  2.0234 -1.1250
  350MOL0     H48244   2.658  11.119  11.609 -0.9122  0.4482 -1.6538
  350MOL0     H48245   2.883  11.188  11.545  0.9796  0.5229  0.8347
  350MOL0     H48246   2.889  11.115  11.702  0.7054 -0.3586 -1.1654
  350MOL0     H48247   2.864  11.415  11.698 -0.5279  0.0588  0.0959
  350MOL0     H48248   2.914  11.301  11.819 -0.0834  2.4652  0.5918
  350MOL0     H48249   3.119  11.105  11.696 -1.9557 -0.2429  2.5169
  350MOL0     H48250   3.375  11.087  11.741  3.3297 -0.4574  0.4276
  350MOL0     H48251   3.390  11.204  11.869  2.4138 -1.5483  0.5000
  350MOL0     H48252   3.526  11.355  11.745 -0.4939 -0.8597  3.8337
  350MOL0     H48253   3.599  11.205  11.747  3.2636  1.5068 -1.3673
  350MOL0     H48254   3.471  11.174  11.495  0.4121  0.6750 -0.6381
  350MOL0     H48255   3.476  11.350  11.505  0.5974  1.1170 -0.0526
  350MOL0     H48256   3.657  11.275  11.396 -1.3320 -0.0701  0.0090
  350MOL0     H48257   3.717  11.340  11.552 -0.6664  1.9052 -1.1766
  350MOL0     H48258   3.818  11.133  11.285  0.9226 -0.2958 -0.1115
  350MOL0     H48259   4.121  11.203  11.158 -3.1471  0.8013 -1.3055
  350MOL0     H48260   3.983  11.120  11.115 -0.9109 -1.1432  1.2825
  350MOL0     H48261   4.123  11.026  11.169 -1.8413 -1.6248  1.8892
  350MOL0     H48262   4.468  11.341  11.151  3.0152  1.9359  5.8047
  350MOL0     H48263   4.697  11.287  11.069  1.0145  0.2278 -0.4597
  350MOL0     H48264   4.834  10.856  11.058 -0.3308  0.9234 -0.4132
  350MOL0     H48265   4.730  10.921  10.924  0.1525 -0.0871 -0.5298
  350MOL0     H48266   4.970  10.867  10.864  2.2517  1.5988 -2.2728
  350MOL0     H48267   4.917  11.028  10.820  4.1376  0.5117 -0.6459
  350MOL0     H48268   5.076  10.959  11.069 -1.2977 -0.3056 -0.7594
  350MOL0     H48269   5.012  11.119  11.020 -3.3562 -0.9016 -0.0746
  350MOL0     H48270   5.137  11.115  10.810 -1.3223 -0.6191  0.7016
  350MOL0     H48271   5.197  10.956  10.836 -2.4810 -0.0621 -1.1461
  350MOL0     H48272   5.362  11.145  10.891 -2.3195 -0.5540 -2.6529
  350MOL0     H48273   5.253  11.182  11.030  4.7224  2.0245  0.6300
  350MOL0     H48274   5.392  10.916  10.991 -2.4679  0.1356 -0.3005
  350MOL0     H48275   5.300  10.969  11.133 -0.3055  0.3002  0.7402
  350MOL0     H48276   5.450  11.155  11.177  0.1444  0.7411 -0.8821
  350MOL0     H48277   5.552  11.100  11.045  0.1847 -3.0433 -0.6457
  350MOL0     H48278   5.650  11.002  11.232  1.0285 -0.8481 -0.6495
  350MOL0     H48279   5.591  10.883  11.122  1.7736  0.8367 -0.6832
  350MOL0     H48280   4.648  10.879  11.226 -2.0255 -0.9330 -0.0430
  350MOL0     H48281   4.435  10.938  11.297 -0.2531 -0.4144 -0.2665
  350MOL0     H48282   4.162  11.120  11.646 -0.7930  2.9401  0.6835
  350MOL0     H48283   3.910  11.129  11.700  0.2512 -0.6773 -0.2437
  350MOL0     H48284   1.804  11.169  11.494  0.8373  2.2331  1.0940
  350MOL0     H48285   1.657  11.162  11.310  0.6812 -0.8104  0.6290
  350MOL0     H48286   1.687  11.307  10.803  1.1798  1.8242  0.8687
  350MOL0     H48287   1.583  11.346  10.593  1.4805  3.0783  0.6719
  350MOL0     H48288   1.471  11.497  10.451  0.6939 -0.8434 -3.2780
  350MOL0     H48289   1.392  11.335  10.420  1.1678  0.1466  0.4686
  350MOL0     H48290   1.294  11.625  10.339 -0.7139  0.1255  0.2580
  350MOL0     H48291   1.189  11.485  10.345 -0.4969  0.5257 -1.6661
  350MOL0     H48292   1.273  11.527  10.126  1.5555 -0.6408 -2.9629
  350MOL0     H48293   1.437  11.497  10.161 -2.3059  2.3038 -2.8949
  350MOL0     H48294   1.225  11.297  10.257  0.9451 -1.0520  0.5906
  350MOL0     H48295   1.396  11.267  10.221 -0.6923 -1.5307  0.6105
  350MOL0     H48296   1.259  11.216   9.832 -0.1178  0.8244 -0.3146
  350MOL0     H48297   1.225  11.430  10.800  1.2042  2.2519 -1.7314
  350MOL0     H48298   1.312  11.317  11.120 -1.9803 -0.4306 -0.2146
  350MOL0     H48299   1.325  11.493  11.083  0.5558 -0.3984 -0.0908
  350MOL0     H48300   1.192  11.391  11.011 -0.0260 -0.4306 -2.9193
  351MOL0     O48301   8.996   1.236   3.130 -0.5736 -0.5172 -0.0375
  351MOL0     C48302   8.891   1.291   3.120 -0.2479  0.5532 -0.2852
  351MOL0     O48303   8.843   1.396   3.195  0.1406 -0.1498 -0.3990
  351MOL0     C48304   8.920   1.461   3.285 -0.2043 -0.1939 -0.1285
  351MOL0     C48305   8.892   1.445   3.420 -0.3648 -0.5817 -0.3026
  351MOL0     C48306   8.972   1.510   3.510 -0.2751 -0.4868 -0.2757
  351MOL0     C48307   9.086   1.587   3.475  1.0344  0.4301 -0.2780
  351MOL0     O48308   9.172   1.644   3.557  1.1509  0.1195 -0.6581
  351MOL0     C48309   9.153   1.622   3.699 -0.6465  0.2483  0.9106
  351MOL0     C48310   9.277   1.682   3.758 -0.3490 -0.8645 -0.1351
  351MOL0     C48311   9.405   1.618   3.723 -0.0013  0.5813  0.5035
  351MOL0     C48312   9.410   1.482   3.789  0.1427  0.9654  0.5639
  351MOL0     C48313   9.527   1.406   3.723 -0.0405  0.7475  0.5338
  351MOL0     C48314   9.571   1.283   3.806 -0.0692 -0.4751 -0.3498
  351MOL0     C48315   9.665   1.201   3.718 -0.0230 -0.1458 -0.2320
  351MOL0     C48316   9.585   1.109   3.618 -0.0395 -0.9830 -0.8424
  351MOL0     N48317   9.667   1.070   3.505  0.3712 -1.0338  0.2507
  351MOL0     C48318   9.719   1.170   3.427  0.3251 -1.0276 -0.1950
  351MOL0     C48319   9.779   1.114   3.321 -0.2719  0.0941 -0.4374
  351MOL0     C48320   9.840   1.189   3.209  0.1981 -0.0320 -0.1898
  351MOL0     C48321   9.998   1.186   3.228 -0.6682  0.3013  0.5087
  351MOL0     C48322  10.062   1.269   3.111  0.0565 -0.6585  0.1498
  351MOL0     C48323  10.208   1.296   3.138 -0.1612 -0.8276  0.2693
  351MOL0     O48324  10.228   1.418   3.215  0.3349 -0.2667 -0.0184
  351MOL0     C48325  10.361   1.444   3.259 -0.7396 -0.5413 -0.5413
  351MOL0     C48326  10.476   1.367   3.230 -0.2009  0.0038  0.4305
  351MOL0     C48327  10.602   1.395   3.290  0.6494  0.0652 -0.0139
  351MOL0     C48328  10.713   1.308   3.272  0.7528  1.2398  0.0133
  351MOL0     C48329  10.603   1.508   3.382 -0.4388 -0.8354  0.2186
  351MOL0     C48330  10.720   1.545   3.462  0.1693 -0.1644  0.2291
  351MOL0     O48331  10.686   1.574   3.594 -0.8682 -0.4573  0.3623
  351MOL0     C48332  10.793   1.623   3.670 -0.1724 -0.4043 -0.4502
  351MOL0     C48333  10.837   1.552   3.791  0.8998  0.1195  0.1986
  351MOL0     C48334  10.952   1.597   3.862 -0.1910 -0.2083  0.1706
  351MOL0     C48335  11.028   1.705   3.815 -0.2039 -0.4978  0.4596
  351MOL0     O48336  11.138   1.754   3.876 -0.4606 -0.4297  0.3067
  351MOL0     C48337  11.185   1.705   4.006  0.1913  0.5000 -0.1827
  351MOL0     C48338  11.262   1.573   4.018 -0.2371  0.4152  0.2579
  351MOL0     C48339  11.335   1.529   3.888  0.1673 -0.5249  0.2111
  351MOL0     C48340  11.259   1.441   3.787 -0.6786  0.0006 -0.4418
  351MOL0     C48341  11.348   1.340   3.707  0.6363 -0.1554  0.2539
  351MOL0     C48342  11.372   1.217   3.796  0.7123  0.1329 -0.2002
  351MOL0     C48343  11.426   1.111   3.694 -0.8452  0.6392  0.0980
  351MOL0     C48344  11.558   1.140   3.628  0.1198 -0.0321  0.1098
  351MOL0    Cl48345  11.629   0.992   3.556  0.1712  0.2868 -0.2540
  351MOL0     C48346  10.979   1.768   3.700  0.6620 -0.1914 -0.3194
  351MOL0     C48347  10.867   1.730   3.627 -0.3138  0.7438  0.6567
  351MOL0     O48348  10.826   1.561   3.408 -0.1614  1.1311 -0.6969
  351MOL0     C48349  10.485   1.591   3.397  0.7710 -0.0960  0.0274
  351MOL0     C48350  10.365   1.550   3.345  0.3964 -0.2490 -0.4350
  351MOL0     N48351   9.750   0.976   3.329  0.6751  0.3107 -0.6916
  351MOL0     N48352   9.681   0.954   3.435  0.3081  0.0020 -0.5682
  351MOL0     C48353   9.104   1.618   3.336 -0.5083 -0.2553 -0.5011
  351MOL0     C48354   9.019   1.550   3.245 -1.5052 -0.6723  0.9493
  351MOL0     C48355   8.801   1.221   3.020  1.1410  0.4718  0.0522
  351MOL0     C48356   8.674   1.273   3.003  0.7108  0.1215  0.5451
  351MOL0     C48357   8.573   1.200   2.945 -0.3208 -0.1226 -0.3593
  351MOL0     C48358   8.591   1.068   2.904 -0.5326 -0.0720 -0.7766
  351MOL0     O48359   8.480   0.995   2.874 -0.0859  0.0552 -0.4008
  351MOL0     C48360   8.476   0.862   2.925 -0.2091  0.0324  0.1984
  351MOL0     C48361   8.506   0.760   2.805  0.3528  0.3591  0.0989
  351MOL0     C48362   8.379   0.722   2.739 -0.1210 -0.6889  0.1004
  351MOL0     C48363   8.327   0.828   2.635  0.2671 -0.6994  0.0326
  351MOL0     C48364   8.205   0.785   2.578 -0.0609 -0.0786  0.4841
  351MOL0     C48365   8.108   0.744   2.508 -0.0514 -0.1761 -0.0806
  351MOL0     C48366   8.722   1.019   2.899  0.2836  0.0098 -0.6398
  351MOL0     C48367   8.827   1.093   2.963  0.2579 -0.5013 -0.3010
  351MOL0     C48368   8.953   1.025   2.948 -0.2131 -0.2232  0.1850
  351MOL0     H48369   8.806   1.382   3.445 -1.5024  0.5030 -1.3575
  351MOL0     H48370   8.958   1.491   3.616  0.3778 -3.9352 -0.7012
  351MOL0     H48371   9.142   1.517   3.726  1.4323  0.5936  3.4237
  351MOL0     H48372   9.062   1.669   3.738 -1.4277  0.6263 -1.2289
  351MOL0     H48373   9.282   1.786   3.724 -0.2063 -1.2087 -1.2082
  351MOL0     H48374   9.272   1.684   3.867  2.5277  2.3563  0.1268
  351MOL0     H48375   9.407   1.607   3.614 -0.3932  0.4586  0.5059
  351MOL0     H48376   9.495   1.675   3.745 -0.9058  2.9383 -1.4235
  351MOL0     H48377   9.441   1.490   3.894  2.4882  0.9032 -0.0697
  351MOL0     H48378   9.315   1.427   3.785  0.6556  0.1206 -2.8001
  351MOL0     H48379   9.605   1.481   3.710  0.6827  0.1943  1.5302
  351MOL0     H48380   9.500   1.374   3.622 -0.1140  2.6486 -0.0812
  351MOL0     H48381   9.621   1.313   3.898  0.8511 -2.0743 -0.2801
  351MOL0     H48382   9.485   1.228   3.844  0.3407 -0.6631  0.3146
  351MOL0     H48383   9.735   1.138   3.774  2.1072  3.2078  1.2251
  351MOL0     H48384   9.725   1.274   3.662 -0.7665  1.4524  0.9534
  351MOL0     H48385   9.559   1.017   3.673  0.2147 -0.1762  0.6889
  351MOL0     H48386   9.492   1.153   3.583  1.6858  2.1589 -1.7954
  351MOL0     H48387   9.712   1.275   3.454  1.5999 -0.8598 -0.4605
  351MOL0     H48388   9.812   1.295   3.214 -0.6837 -0.0569 -2.9442
  351MOL0     H48389   9.807   1.148   3.114 -2.1649  0.3547  0.4082
  351MOL0     H48390  10.028   1.237   3.321 -0.2463 -0.5722  0.8611
  351MOL0     H48391  10.042   1.086   3.229 -0.4233  0.3112 -2.3860
  351MOL0     H48392  10.053   1.203   3.024 -1.3562 -0.0292 -0.2065
  351MOL0     H48393  10.018   1.367   3.090  0.8586 -0.5509 -1.0755
  351MOL0     H48394  10.255   1.219   3.201  1.6232 -1.1017 -1.3199
  351MOL0     H48395  10.272   1.307   3.050 -0.1990  1.7457  0.4942
  351MOL0     H48396  10.468   1.277   3.169 -1.3720 -0.1380  0.7736
  351MOL0     H48397  10.730   1.232   3.349 -1.1689 -0.7921 -1.4501
  351MOL0     H48398  10.811   1.358   3.268  2.7061 -2.0903  1.6454
  351MOL0     H48399  10.705   1.258   3.175 -0.1042 -0.6155  0.9929
  351MOL0     H48400  10.767   1.480   3.832  0.9015  0.6850  1.2151
  351MOL0     H48401  10.984   1.562   3.960  0.1328 -0.3240  0.0252
  351MOL0     H48402  11.246   1.788   4.044  2.5233  0.0166 -2.5602
  351MOL0     H48403  11.099   1.704   4.073 -0.1110  2.1099 -0.5004
  351MOL0     H48404  11.332   1.575   4.101  1.0510 -0.3500 -0.7819
  351MOL0     H48405  11.194   1.493   4.049 -1.1897  0.8303 -0.6830
  351MOL0     H48406  11.429   1.476   3.909  0.2663 -0.4438 -0.0233
  351MOL0     H48407  11.369   1.624   3.845  0.0376 -0.8474 -0.6394
  351MOL0     H48408  11.206   1.511   3.721 -2.3118 -2.1486 -1.5367
  351MOL0     H48409  11.189   1.372   3.835 -1.3415  0.1231 -1.2122
  351MOL0     H48410  11.286   1.314   3.621  0.1185 -0.6127  0.7558
  351MOL0     H48411  11.438   1.389   3.670 -0.1604  2.2099  1.2276
  351MOL0     H48412  11.280   1.171   3.833 -0.1566  1.3101 -0.8183
  351MOL0     H48413  11.447   1.229   3.874 -0.8014 -0.0112  1.3313
  351MOL0     H48414  11.340   1.092   3.629  0.3824  1.3391 -1.8295
  351MOL0     H48415  11.449   1.028   3.761 -0.1673  1.9307  1.5186
  351MOL0     H48416  11.628   1.180   3.702  0.3376 -1.7895  0.9179
  351MOL0     H48417  11.548   1.211   3.545  2.2732 -0.0677 -0.2266
  351MOL0     H48418  11.043   1.849   3.667 -1.5053  2.5729  1.7177
  351MOL0     H48419  10.840   1.784   3.538  0.8069  0.8050  0.3323
  351MOL0     H48420  10.487   1.681   3.457 -1.6005 -1.4437  2.3133
  351MOL0     H48421  10.278   1.614   3.360  1.7263  1.9719 -1.5676
  351MOL0     H48422   9.191   1.677   3.308  0.7784 -1.3424  1.0639
  351MOL0     H48423   9.030   1.555   3.137  0.8302 -3.5382  0.9183
  351MOL0     H48424   8.641   1.368   3.043  0.7002  0.3158  0.0803
  351MOL0     H48425   8.471   1.238   2.945 -0.4939 -0.5760 -0.9639
  351MOL0     H48426   8.549   0.854   3.007 -0.2054 -1.2885  0.0957
  351MOL0     H48427   8.389   0.837   2.987 -0.6643  0.6173 -0.1966
  351MOL0     H48428   8.551   0.669   2.846 -0.2735 -0.6507 -1.3776
  351MOL0     H48429   8.580   0.792   2.730  0.3671 -1.8022 -0.8613
  351MOL0     H48430   8.399   0.633   2.679  0.3879 -0.5859  0.1154
  351MOL0     H48431   8.314   0.694   2.823  1.2361  0.5970  1.6279
  351MOL0     H48432   8.405   0.837   2.558  2.2090 -0.1045  1.9406
  351MOL0     H48433   8.312   0.924   2.686  0.9528 -1.3798  1.6034
  351MOL0     H48434   8.030   0.700   2.450  0.2662 -1.0745  0.1658
  351MOL0     H48435   8.730   0.918   2.859 -4.1729 -0.3462 -1.1132
  351MOL0     H48436   9.028   1.088   2.899  0.7910 -1.2171  0.4063
  351MOL0     H48437   8.994   0.993   3.044  1.2828 -0.0250 -0.3603
  351MOL0     H48438   8.950   0.937   2.883  1.6012  0.2793 -0.6420
  352MOL0     O48439   0.798   4.305   3.265 -0.3051  0.6562 -0.5590
  352MOL0     C48440   0.808   4.253   3.155  0.5202 -0.2037  0.5448
  352MOL0     O48441   0.913   4.262   3.072 -0.3506  0.4713  0.1940
  352MOL0     C48442   1.012   4.346   3.110 -0.2579  0.5905 -0.1650
  352MOL0     C48443   1.092   4.320   3.224  0.8083 -0.3783  0.0596
  352MOL0     C48444   1.210   4.394   3.247  0.7036 -0.0278  0.0857
  352MOL0     C48445   1.239   4.493   3.155 -0.3177  0.1549 -0.0862
  352MOL0     O48446   1.361   4.544   3.158 -0.3020 -0.0518  0.3643
  352MOL0     C48447   1.398   4.643   3.252  0.5483 -0.0486 -0.0679
  352MOL0     C48448   1.548   4.668   3.263 -0.7116  0.4108  0.7437
  352MOL0     C48449   1.630   4.696   3.133  0.1644  0.1803 -1.0129
  352MOL0     C48450   1.784   4.712   3.161 -0.4346 -0.3471 -0.2188
  352MOL0     C48451   1.859   4.747   3.031 -0.1377 -0.2050 -0.2230
  352MOL0     C48452   2.007   4.763   3.049 -0.1244 -0.2940  0.2145
  352MOL0     C48453   2.088   4.677   3.141 -0.8010 -0.5077 -0.5607
  352MOL0     C48454   2.106   4.530   3.088 -1.0363  0.0416  0.4963
  352MOL0     N48455   1.990   4.447   3.113  0.1142 -0.7671  0.2257
  352MOL0     C48456   1.992   4.346   3.210  0.3728 -0.1660  0.0359
  352MOL0     C48457   1.910   4.247   3.166 -0.6942  0.1056  0.4310
  352MOL0     C48458   1.886   4.125   3.236  0.2681  0.3114 -0.1094
  352MOL0     C48459   1.741   4.077   3.227 -0.3192  0.6409  0.2119
  352MOL0     C48460   1.642   4.173   3.300  0.7476  0.2341  0.1720
  352MOL0     C48461   1.525   4.106   3.377 -0.0384 -0.4128 -0.0657
  352MOL0     O48462   1.414   4.069   3.292  0.4826 -0.3568  0.3704
  352MOL0     C48463   1.308   3.997   3.349  0.1690  0.0793  0.1485
  352MOL0     C48464   1.212   3.948   3.258 -0.6703 -0.5151 -0.5163
  352MOL0     C48465   1.085   3.891   3.293 -1.4471 -0.5493  0.3853
  352MOL0     C48466   0.995   3.850   3.182  0.1338 -0.4337 -0.0947
  352MOL0     C48467   1.072   3.852   3.433 -0.1043 -0.5198  0.9482
  352MOL0     C48468   0.955   3.769   3.483  1.0019 -0.1956 -0.0517
  352MOL0     O48469   0.967   3.715   3.612  0.2086 -0.0106  0.0075
  352MOL0     C48470   0.874   3.625   3.649  0.6395  0.5339 -0.6616
  352MOL0     C48471   0.746   3.673   3.680  0.2461  0.6067 -0.1153
  352MOL0     C48472   0.648   3.585   3.729 -0.1781 -0.2140 -0.3441
  352MOL0     C48473   0.668   3.445   3.745  0.6083 -0.8789  0.1496
  352MOL0     O48474   0.573   3.356   3.779  0.5904  1.2039  0.0316
  352MOL0     C48475   0.441   3.396   3.823 -0.0970  0.2377 -0.0781
  352MOL0     C48476   0.394   3.269   3.887  0.2125  0.6282 -0.6887
  352MOL0     C48477   0.351   3.153   3.796  0.0907  0.8627  0.1764
  352MOL0     C48478   0.276   3.051   3.877  0.0338 -0.8107  0.0654
  352MOL0     C48479   0.242   2.915   3.814  0.2402  0.7560 -0.2106
  352MOL0     C48480   0.176   2.820   3.911 -0.2249  0.4079 -0.2082
  352MOL0     C48481   0.094   2.724   3.829 -0.4217 -0.2428  0.1232
  352MOL0     C48482  -0.003   2.637   3.913 -0.4479  0.4003 -0.2503
  352MOL0    Cl48483  -0.127   2.751   3.972  0.3225  0.5696 -0.3307
  352MOL0     C48484   0.796   3.394   3.716 -0.4803  0.1073 -0.4045
  352MOL0     C48485   0.902   3.483   3.668 -0.3642  0.1262  0.2087
  352MOL0     O48486   0.859   3.746   3.403 -0.3578 -0.1295  0.1022
  352MOL0     C48487   1.177   3.888   3.529  0.2302 -0.1069 -0.0366
  352MOL0     C48488   1.285   3.962   3.485 -0.1543 -0.6467  0.3610
  352MOL0     N48489   1.868   4.285   3.040  0.4921 -0.5257 -0.3032
  352MOL0     N48490   1.918   4.401   3.007 -0.4296  0.5691 -0.0763
  352MOL0     C48491   1.161   4.521   3.048  1.3571 -0.7289 -0.3219
  352MOL0     C48492   1.042   4.456   3.024 -0.2196  0.1473  0.5011
  352MOL0     C48493   0.687   4.164   3.122 -0.3920 -0.9260  0.3990
  352MOL0     C48494   0.720   4.055   3.039 -0.4626 -1.1334  0.1260
  352MOL0     C48495   0.624   3.960   3.002 -0.4444 -0.1015 -0.0633
  352MOL0     C48496   0.493   3.973   3.037 -0.9140  0.1782 -0.8668
  352MOL0     O48497   0.389   3.891   2.993  0.0305 -0.6500  0.2237
  352MOL0     C48498   0.432   3.786   2.901 -0.1362 -0.1546 -0.6247
  352MOL0     C48499   0.300   3.733   2.840 -1.0938  0.8222  0.4342
  352MOL0     C48500   0.208   3.651   2.927 -0.0824 -0.3308 -0.1868
  352MOL0     C48501   0.265   3.511   2.960  0.5497  0.3372  0.8687
  352MOL0     C48502   0.175   3.444   3.053  0.1413 -0.4596 -0.0543
  352MOL0     C48503   0.107   3.389   3.143 -0.0231 -0.2386 -0.1838
  352MOL0     C48504   0.465   4.080   3.123 -0.1408 -0.4006 -0.8709
  352MOL0     C48505   0.554   4.175   3.168  1.0445 -0.0680 -0.4026
  352MOL0     C48506   0.499   4.284   3.256  0.1508 -0.3481  1.2600
  352MOL0     H48507   1.067   4.246   3.299  0.4501  0.6686  0.9897
  352MOL0     H48508   1.269   4.381   3.337 -1.7001  1.6332  2.0721
  352MOL0     H48509   1.373   4.616   3.354 -0.9794  2.8426  0.4036
  352MOL0     H48510   1.358   4.738   3.215 -0.8704 -1.6121 -2.8849
  352MOL0     H48511   1.564   4.754   3.329  0.5803  1.4657 -0.8882
  352MOL0     H48512   1.598   4.577   3.298  1.3053 -0.1328 -3.0642
  352MOL0     H48513   1.618   4.611   3.065 -0.4766 -1.8868  1.4909
  352MOL0     H48514   1.596   4.785   3.080  1.3332 -0.9384 -3.8633
  352MOL0     H48515   1.797   4.792   3.234 -0.6598 -1.6865  1.3578
  352MOL0     H48516   1.821   4.621   3.211  2.8224 -0.4668 -2.4952
  352MOL0     H48517   1.819   4.841   2.992  1.9636  0.1687 -1.6957
  352MOL0     H48518   1.853   4.665   2.959  1.7122 -0.4586 -0.1481
  352MOL0     H48519   2.054   4.765   2.950 -1.5827  4.0469 -0.5845
  352MOL0     H48520   2.033   4.865   3.076  0.2451 -0.4589  0.4900
  352MOL0     H48521   2.063   4.693   3.246 -1.4393 -1.8212 -0.4971
  352MOL0     H48522   2.189   4.718   3.139  0.3927 -3.2062  0.1329
  352MOL0     H48523   2.123   4.533   2.980 -0.6800  1.6818  0.5820
  352MOL0     H48524   2.192   4.476   3.128  0.7601  2.5771  0.2908
  352MOL0     H48525   2.030   4.342   3.311 -1.3664 -0.4680  0.7191
  352MOL0     H48526   1.913   4.143   3.341  2.3848 -0.2357 -0.4978
  352MOL0     H48527   1.951   4.045   3.200  0.4185  0.9550 -1.3042
  352MOL0     H48528   1.708   4.075   3.123  1.5734  2.1880 -0.4897
  352MOL0     H48529   1.731   3.975   3.265 -3.2863 -0.0039 -1.9186
  352MOL0     H48530   1.696   4.244   3.363  0.6112  0.4792  0.0144
  352MOL0     H48531   1.591   4.234   3.225 -1.7769 -1.2875  0.5515
  352MOL0     H48532   1.553   4.021   3.441 -0.3002 -1.4253 -1.2504
  352MOL0     H48533   1.493   4.186   3.444 -1.0775 -0.2956 -0.6777
  352MOL0     H48534   1.238   3.977   3.156 -0.2177  1.6760  0.1618
  352MOL0     H48535   0.997   3.743   3.159 -1.5359 -0.0288 -2.6177
  352MOL0     H48536   1.017   3.901   3.087  1.5315 -0.0629  0.4103
  352MOL0     H48537   0.893   3.880   3.207 -0.1239 -1.9696  0.7829
  352MOL0     H48538   0.723   3.777   3.662  0.0092  0.6893  0.6119
  352MOL0     H48539   0.555   3.636   3.752 -1.4718 -2.6488  0.1388
  352MOL0     H48540   0.452   3.479   3.893 -1.6138  0.1065  0.3426
  352MOL0     H48541   0.373   3.427   3.743 -0.2065 -0.8206 -0.4166
  352MOL0     H48542   0.461   3.235   3.966 -1.4723  0.4364  0.7250
  352MOL0     H48543   0.302   3.302   3.936  0.0458  2.4406 -2.1331
  352MOL0     H48544   0.436   3.098   3.754 -1.2444 -0.5848 -0.7653
  352MOL0     H48545   0.292   3.192   3.712 -2.8358 -1.4974  0.9592
  352MOL0     H48546   0.183   3.083   3.924 -0.3290  1.3425 -1.9299
  352MOL0     H48547   0.339   3.033   3.965 -0.4164  1.6920  0.9565
  352MOL0     H48548   0.176   2.930   3.727 -0.0049  1.2052  0.0462
  352MOL0     H48549   0.334   2.869   3.778 -1.8365 -1.2168 -3.5015
  352MOL0     H48550   0.120   2.874   3.988 -2.3414 -0.8313 -0.8028
  352MOL0     H48551   0.256   2.767   3.964  0.1585  0.8599 -0.3317
  352MOL0     H48552   0.159   2.654   3.776 -0.9150 -0.3603 -0.3392
  352MOL0     H48553   0.030   2.777   3.758  1.2453  1.9818  0.1830
  352MOL0     H48554   0.052   2.584   3.992  1.5542  1.7510 -0.6673
  352MOL0     H48555  -0.050   2.573   3.838 -0.9328  1.4349 -0.8442
  352MOL0     H48556   0.828   3.293   3.741 -1.2988  0.2214  1.2234
  352MOL0     H48557   0.999   3.435   3.660 -0.3106 -0.1429  2.0119
  352MOL0     H48558   1.155   3.868   3.633 -0.8000 -1.2969 -0.4458
  352MOL0     H48559   1.361   3.978   3.560 -0.2637  0.0207  0.3383
  352MOL0     H48560   1.182   4.606   2.985 -0.1723  0.7307  1.0329
  352MOL0     H48561   0.972   4.457   2.942  0.7959 -4.7414 -0.7787
  352MOL0     H48562   0.818   4.043   2.994  0.2833 -1.4218  1.7510
  352MOL0     H48563   0.657   3.882   2.935 -0.3658  1.0457 -1.3951
  352MOL0     H48564   0.491   3.835   2.824  2.8502 -0.3716  1.3873
  352MOL0     H48565   0.483   3.709   2.959 -5.5896 -0.5859  4.7032
  352MOL0     H48566   0.326   3.683   2.746  3.7667  2.8008  0.4438
  352MOL0     H48567   0.249   3.825   2.812  0.3792  1.1205 -1.5029
  352MOL0     H48568   0.195   3.719   3.012  0.2317 -1.9185  1.1682
  352MOL0     H48569   0.116   3.645   2.868 -2.0717  2.0877  2.4043
  352MOL0     H48570   0.371   3.520   2.986  0.4569  0.3896  1.2334
  352MOL0     H48571   0.250   3.454   2.868 -0.1463  1.2522  0.4077
  352MOL0     H48572   0.043   3.346   3.218  2.1219 -3.6012 -0.0797
  352MOL0     H48573   0.361   4.084   3.154 -0.4687  0.7757 -2.0370
  352MOL0     H48574   0.394   4.262   3.280  0.7601 -2.3826  2.3056
  352MOL0     H48575   0.563   4.309   3.341  2.0609  4.2420 -1.1566
  352MOL0     H48576   0.497   4.376   3.197  0.5780 -0.9072  0.3515
  353MOL0     O48577   7.050   0.087   1.939 -0.6736  0.5657 -0.2982
  353MOL0     C48578   6.955   0.013   1.978 -0.3052  0.5366 -0.1621
  353MOL0     O48579   6.955  -0.059   2.094 -0.5966 -0.0230 -0.3343
  353MOL0     C48580   7.075  -0.067   2.158  0.0670 -0.2099  0.3668
  353MOL0     C48581   7.165  -0.168   2.134  0.1417  0.2377 -0.1063
  353MOL0     C48582   7.282  -0.171   2.213 -0.1160  0.7073  0.2289
  353MOL0     C48583   7.303  -0.088   2.323 -0.4190  0.0857 -0.6050
  353MOL0     O48584   7.424  -0.099   2.395 -0.1165  0.1943 -0.3742
  353MOL0     C48585   7.428  -0.218   2.471 -0.4856  0.6984  0.9280
  353MOL0     C48586   7.549  -0.224   2.562 -0.3090  0.6438 -0.0284
  353MOL0     C48587   7.661  -0.252   2.474 -1.5251  0.0716 -0.3147
  353MOL0     C48588   7.803  -0.265   2.541  0.2625  0.6422  0.1724
  353MOL0     C48589   7.899  -0.355   2.444  0.4285  0.2447  0.5308
  353MOL0     C48590   8.029  -0.389   2.522 -0.0231  0.3652  0.0931
  353MOL0     C48591   8.120  -0.495   2.454  0.1389 -0.4762  0.1723
  353MOL0     C48592   8.259  -0.498   2.506  0.1792 -0.6350 -0.1002
  353MOL0     N48593   8.253  -0.527   2.648  0.0160  0.8495  0.2526
  353MOL0     C48594   8.233  -0.646   2.707 -0.8304  0.9633  0.2375
  353MOL0     C48595   8.223  -0.625   2.844 -0.4749 -0.0433  0.4966
  353MOL0     C48596   8.210  -0.729   2.951  1.1039 -0.5396 -0.0857
  353MOL0     C48597   8.310  -0.709   3.073  0.1948 -0.7321  0.3127
  353MOL0     C48598   8.461  -0.704   3.026 -0.0472 -0.7716 -0.1672
  353MOL0     C48599   8.544  -0.627   3.124 -0.2449  0.5592  0.0360
  353MOL0     O48600   8.677  -0.680   3.166  0.3655 -0.6719  0.0007
  353MOL0     C48601   8.766  -0.606   3.231  0.2509  0.8088  0.7819
  353MOL0     C48602   8.748  -0.485   3.287 -0.2860  0.1935 -0.6885
  353MOL0     C48603   8.853  -0.410   3.344 -0.2414 -0.4151  0.8358
  353MOL0     C48604   8.826  -0.271   3.390  0.0193 -0.0941  0.2030
  353MOL0     C48605   8.988  -0.461   3.348 -0.5549  0.8818  0.4053
  353MOL0     C48606   9.106  -0.409   3.415 -0.3648 -0.2720 -1.1111
  353MOL0     O48607   9.230  -0.456   3.378 -0.2227 -0.1177  0.0402
  353MOL0     C48608   9.346  -0.434   3.449 -0.2132 -0.1945 -0.1693
  353MOL0     C48609   9.368  -0.452   3.586  0.2116  0.7376  0.2695
  353MOL0     C48610   9.502  -0.471   3.628 -0.0976 -0.5751  0.7260
  353MOL0     C48611   9.608  -0.442   3.552  0.2756 -0.6803  0.1337
  353MOL0     O48612   9.732  -0.470   3.607 -0.5289 -0.2855 -0.7548
  353MOL0     C48613   9.849  -0.444   3.533  0.3367 -0.3596  0.6479
  353MOL0     C48614   9.977  -0.452   3.597 -0.1291  0.0520 -0.3611
  353MOL0     C48615  10.084  -0.425   3.494  0.7739 -0.3926 -1.2204
  353MOL0     C48616  10.220  -0.428   3.565 -0.4398 -0.4822  0.3698
  353MOL0     C48617  10.333  -0.454   3.462  0.1080  0.7308  0.3304
  353MOL0     C48618  10.475  -0.489   3.521 -0.0544 -0.1102 -0.8044
  353MOL0     C48619  10.566  -0.374   3.576 -0.5735 -0.2873 -0.1237
  353MOL0     C48620  10.661  -0.415   3.676 -0.0973 -0.2374 -0.6228
  353MOL0    Cl48621  10.723  -0.250   3.745  0.1129  0.2279 -0.2530
  353MOL0     C48622   9.582  -0.407   3.424  0.3192 -0.4465  0.3236
  353MOL0     C48623   9.453  -0.415   3.366 -0.0681  0.1581 -0.3107
  353MOL0     O48624   9.089  -0.338   3.510  0.3056  0.1532 -0.0315
  353MOL0     C48625   8.999  -0.588   3.297 -0.1141  0.6207 -0.3140
  353MOL0     C48626   8.895  -0.659   3.241  0.2423  0.5922 -0.1551
  353MOL0     N48627   8.261  -0.487   2.863  0.8287 -0.0476  0.0373
  353MOL0     N48628   8.283  -0.433   2.745  0.5705  0.6223 -0.0329
  353MOL0     C48629   7.206   0.010   2.354  0.4991  0.1009  0.2554
  353MOL0     C48630   7.093   0.021   2.268  0.6101 -0.1806 -0.4093
  353MOL0     C48631   6.817   0.002   1.924 -0.8349 -0.3840 -0.9078
  353MOL0     C48632   6.710  -0.030   2.014  0.9673 -0.5952  0.2980
  353MOL0     C48633   6.579  -0.032   1.952 -0.1752 -0.2312 -0.1326
  353MOL0     C48634   6.557   0.000   1.811  0.4304 -0.8222  0.2899
  353MOL0     O48635   6.441  -0.012   1.742 -0.1000  0.0755 -0.1494
  353MOL0     C48636   6.325   0.038   1.806  1.0217 -0.1661  0.8858
  353MOL0     C48637   6.209   0.018   1.713  0.4538  0.5855 -0.3498
  353MOL0     C48638   6.082  -0.015   1.793  0.4183 -0.0063 -1.1062
  353MOL0     C48639   5.958   0.002   1.698 -0.2117  0.9602 -0.1127
  353MOL0     C48640   5.972  -0.086   1.578 -0.5221  0.2583 -0.0934
  353MOL0     C48641   5.970  -0.154   1.478 -0.4641 -0.3686 -0.6820
  353MOL0     C48642   6.672   0.033   1.740  0.3847  0.3298 -0.5488
  353MOL0     C48643   6.801   0.032   1.790 -0.6210  0.1325  0.6186
  353MOL0     C48644   6.911   0.065   1.702  0.0691  0.0432 -0.0829
  353MOL0     H48645   7.153  -0.238   2.052  1.7136  0.2589 -0.3908
  353MOL0     H48646   7.354  -0.250   2.193  1.2602  1.6448  1.3651
  353MOL0     H48647   7.426  -0.296   2.395  0.1205  1.9042 -0.3620
  353MOL0     H48648   7.335  -0.211   2.529 -0.9308  2.8370  0.0465
  353MOL0     H48649   7.567  -0.126   2.607  1.0107  0.0095  0.8963
  353MOL0     H48650   7.541  -0.293   2.646 -1.9149  0.2531 -0.4775
  353MOL0     H48651   7.638  -0.352   2.434 -1.1201  0.5403 -1.7963
  353MOL0     H48652   7.672  -0.183   2.390 -0.1002  3.9347  2.7851
  353MOL0     H48653   7.843  -0.164   2.554 -0.4459  1.1955 -1.5677
  353MOL0     H48654   7.804  -0.312   2.640  1.4479  0.0520 -0.0935
  353MOL0     H48655   7.913  -0.304   2.348 -2.4933 -2.0361 -1.3014
  353MOL0     H48656   7.849  -0.444   2.405 -0.2043 -0.0979  2.0317
  353MOL0     H48657   8.082  -0.294   2.536 -0.3522  0.5456  0.1302
  353MOL0     H48658   8.005  -0.413   2.626 -0.2726  3.3740  0.8314
  353MOL0     H48659   8.118  -0.480   2.346  2.1484  1.7256  0.3769
  353MOL0     H48660   8.078  -0.592   2.482  0.3010 -0.6332 -0.1314
  353MOL0     H48661   8.314  -0.573   2.450  0.5207 -0.0986 -0.4918
  353MOL0     H48662   8.309  -0.403   2.484 -0.4112 -0.4267 -0.5887
  353MOL0     H48663   8.214  -0.744   2.665 -0.4059 -0.3231  2.8527
  353MOL0     H48664   8.226  -0.830   2.911  0.2063 -0.5563 -0.4266
  353MOL0     H48665   8.106  -0.735   2.985  1.2032 -0.2272  0.2781
  353MOL0     H48666   8.281  -0.615   3.119 -0.7106 -0.9812  0.2787
  353MOL0     H48667   8.285  -0.784   3.149  3.0088 -1.6584  0.4597
  353MOL0     H48668   8.492  -0.808   3.026 -1.9519 -1.5979 -5.1085
  353MOL0     H48669   8.466  -0.662   2.925  1.4716  2.5104  1.1345
  353MOL0     H48670   8.550  -0.530   3.075  0.7192  0.6793  0.3691
  353MOL0     H48671   8.485  -0.621   3.216 -1.1721 -1.4262 -0.3479
  353MOL0     H48672   8.644  -0.452   3.284 -0.7863 -1.2130  0.0995
  353MOL0     H48673   8.898  -0.200   3.350 -0.5702  0.4541  0.1018
  353MOL0     H48674   8.839  -0.281   3.498 -0.5489 -3.6900  0.0775
  353MOL0     H48675   8.733  -0.226   3.354  0.6515  0.3159 -0.9445
  353MOL0     H48676   9.284  -0.476   3.649  1.1313  0.8849  1.5883
  353MOL0     H48677   9.521  -0.502   3.730  0.8473  2.4917  1.5897
  353MOL0     H48678   9.854  -0.513   3.449 -1.6139  2.0899 -1.6900
  353MOL0     H48679   9.826  -0.350   3.481 -0.2246 -1.6668 -1.5892
  353MOL0     H48680   9.989  -0.386   3.683  0.3394 -2.1102  1.3415
  353MOL0     H48681   9.997  -0.555   3.631  0.6815 -0.0518 -1.1100
  353MOL0     H48682  10.063  -0.329   3.446 -2.3242 -1.7951 -2.9697
  353MOL0     H48683  10.082  -0.496   3.410 -1.6565 -0.6947 -0.9714
  353MOL0     H48684  10.224  -0.513   3.633  3.2332  1.0026  2.3101
  353MOL0     H48685  10.237  -0.343   3.632  0.8939 -1.1920  0.9610
  353MOL0     H48686  10.299  -0.540   3.403 -3.0376  0.8726  1.7644
  353MOL0     H48687  10.336  -0.375   3.386 -0.5395  1.0728  0.6545
  353MOL0     H48688  10.533  -0.540   3.444 -0.3378 -2.7002  0.5593
  353MOL0     H48689  10.474  -0.568   3.597 -0.1349 -1.1385 -1.8522
  353MOL0     H48690  10.492  -0.303   3.614 -0.1504  0.7003 -1.0699
  353MOL0     H48691  10.609  -0.321   3.490 -0.4441  0.3905  0.3518
  353MOL0     H48692  10.750  -0.468   3.641  0.3187 -2.3925  3.1568
  353MOL0     H48693  10.618  -0.484   3.748 -1.0390  1.0652  0.1061
  353MOL0     H48694   9.665  -0.378   3.361 -1.1502 -3.3692 -3.3911
  353MOL0     H48695   9.447  -0.412   3.258  0.2021 -1.9447 -0.4334
  353MOL0     H48696   9.091  -0.644   3.307 -0.0676  0.8500  0.6626
  353MOL0     H48697   8.909  -0.763   3.213  2.1393  0.3272  1.5615
  353MOL0     H48698   7.225   0.087   2.428 -1.4772 -0.5768  1.5488
  353MOL0     H48699   7.009   0.090   2.280  1.4645  0.8994 -0.5419
  353MOL0     H48700   6.721  -0.053   2.120  2.2376 -0.7458  0.1567
  353MOL0     H48701   6.494  -0.064   2.011 -0.9089  2.2678  0.2947
  353MOL0     H48702   6.300  -0.010   1.901 -3.5381  0.6766  0.3574
  353MOL0     H48703   6.342   0.144   1.827  0.0377  0.6234 -1.8433
  353MOL0     H48704   6.230  -0.064   1.643 -0.7576  1.0079 -1.2480
  353MOL0     H48705   6.192   0.106   1.650  0.0971  1.3051  0.7246
  353MOL0     H48706   6.086  -0.117   1.833 -3.8416 -0.5600 -1.6640
  353MOL0     H48707   6.071   0.050   1.881  1.0763 -1.2846 -0.0353
  353MOL0     H48708   5.953   0.109   1.673  2.2416  1.0116 -0.6016
  353MOL0     H48709   5.866  -0.009   1.755 -0.8590  6.1411  0.3545
  353MOL0     H48710   5.969  -0.228   1.401  1.7976  1.8306 -3.0206
  353MOL0     H48711   6.652   0.063   1.638  0.1749  1.0688 -0.2986
  353MOL0     H48712   6.887   0.082   1.597 -3.4726 -2.1409  0.2112
  353MOL0     H48713   6.964   0.156   1.732  3.0800 -1.0978 -1.5992
  353MOL0     H48714   6.981  -0.019   1.699  0.5605  0.4543 -0.3977
  354MOL0     O48715   4.970   3.830   8.960  0.1373 -0.2416 -0.2551
  354MOL0     C48716   4.973   3.770   8.857  0.3751  0.3886  0.6446
  354MOL0     O48717   5.011   3.635   8.838  0.0369  0.1198  0.4852
  354MOL0     C48718   5.072   3.575   8.944  0.4146  0.2029 -1.4878
  354MOL0     C48719   5.205   3.538   8.926  0.0749 -0.2986 -0.7422
  354MOL0     C48720   5.285   3.500   9.033  0.1020  0.5245 -0.5049
  354MOL0     C48721   5.231   3.458   9.156  0.3718 -0.1312  1.0057
  354MOL0     O48722   5.312   3.391   9.248 -0.2590  0.1227 -0.4572
  354MOL0     C48723   5.255   3.358   9.379 -0.0172 -0.3007 -0.5265
  354MOL0     C48724   5.348   3.282   9.465  0.3408  0.9096 -0.1895
  354MOL0     C48725   5.495   3.325   9.475  0.1128 -0.6943  0.2743
  354MOL0     C48726   5.561   3.322   9.608  0.0748  0.8136 -0.4433
  354MOL0     C48727   5.714   3.344   9.608 -0.7748 -0.0687  0.0355
  354MOL0     C48728   5.780   3.325   9.742 -0.0451 -0.0194 -0.8723
  354MOL0     C48729   5.930   3.362   9.742 -0.0532 -0.5901  0.3842
  354MOL0     C48730   6.004   3.255   9.661 -0.7608 -0.3910 -0.9514
  354MOL0     N48731   6.143   3.235   9.699 -0.3894  0.5191  0.1081
  354MOL0     C48732   6.185   3.125   9.775  0.4463 -0.7746 -0.7063
  354MOL0     C48733   6.320   3.126   9.762 -0.4511 -0.3220  0.5639
  354MOL0     C48734   6.431   3.034   9.816  0.0695  0.5153 -0.2662
  354MOL0     C48735   6.406   2.893   9.747 -0.3741  0.4612 -0.1298
  354MOL0     C48736   6.528   2.804   9.777 -0.0404 -0.2392 -0.9947
  354MOL0     C48737   6.653   2.836   9.695 -2.0016  0.0504  0.7078
  354MOL0     O48738   6.764   2.745   9.716  0.0443 -0.3664  0.9950
  354MOL0     C48739   6.887   2.767   9.658  0.3061  0.3786 -0.5245
  354MOL0     C48740   6.997   2.706   9.721  0.2966  0.4166 -0.9939
  354MOL0     C48741   7.133   2.691   9.671  0.2204  0.1623  0.0095
  354MOL0     C48742   7.225   2.616   9.762  0.3901 -0.4615  0.2399
  354MOL0     C48743   7.149   2.745   9.538  0.0567  0.0934 -0.0094
  354MOL0     C48744   7.275   2.726   9.463  0.7179  0.6409 -0.1518
  354MOL0     O48745   7.271   2.741   9.329  0.0132 -0.1979  0.2199
  354MOL0     C48746   7.397   2.735   9.259  0.8465 -0.2825  0.3076
  354MOL0     C48747   7.479   2.623   9.254 -0.8353  0.0398  0.2366
  354MOL0     C48748   7.600   2.625   9.189 -0.3267  0.9723 -0.4658
  354MOL0     C48749   7.651   2.744   9.132 -0.1483  0.6717  0.3824
  354MOL0     O48750   7.778   2.757   9.068  0.4973 -0.1548 -0.2688
  354MOL0     C48751   7.873   2.660   9.076  0.1967  0.4827  0.7375
  354MOL0     C48752   7.928   2.663   9.217  0.2420 -0.7607  0.4622
  354MOL0     C48753   7.961   2.800   9.268 -0.5829  0.5231 -0.7327
  354MOL0     C48754   8.032   2.783   9.409 -0.1971  0.4615  0.4219
  354MOL0     C48755   8.076   2.921   9.451 -0.3289 -0.4269 -0.0481
  354MOL0     C48756   8.186   2.984   9.365 -0.9462 -0.1899  0.1343
  354MOL0     C48757   8.250   3.105   9.433 -0.9296  0.1320  0.0733
  354MOL0     C48758   8.373   3.149   9.352  0.0103 -0.5617  0.2836
  354MOL0    Cl48759   8.498   3.028   9.365 -0.2152  0.1870 -0.4904
  354MOL0     C48760   7.570   2.858   9.136 -0.2533  0.6586 -1.0385
  354MOL0     C48761   7.442   2.851   9.192  0.4276  0.2681  0.1178
  354MOL0     O48762   7.377   2.717   9.527 -0.4076  0.4853  0.2439
  354MOL0     C48763   7.038   2.800   9.471 -0.6211  0.6070 -0.0038
  354MOL0     C48764   6.914   2.817   9.531 -0.7154  0.1117 -0.1840
  354MOL0     N48765   6.353   3.227   9.670 -0.1129 -0.4159  0.2149
  354MOL0     N48766   6.249   3.300   9.644  0.4589  0.0939  0.9244
  354MOL0     C48767   5.095   3.506   9.176 -0.2834  0.7463  0.0106
  354MOL0     C48768   5.029   3.564   9.077  1.4334 -0.7057 -0.4166
  354MOL0     C48769   4.939   3.842   8.732  0.6609 -0.4383  0.3731
  354MOL0     C48770   4.839   3.783   8.648 -0.7443  0.5344 -0.4514
  354MOL0     C48771   4.784   3.854   8.540 -0.9780 -0.6440 -0.3696
  354MOL0     C48772   4.822   3.982   8.521 -0.0421  0.3889 -0.8032
  354MOL0     O48773   4.760   4.039   8.414  0.6504  0.5971 -0.2597
  354MOL0     C48774   4.774   4.170   8.374 -0.0304 -0.0992  0.5954
  354MOL0     C48775   4.722   4.181   8.232 -0.8921 -0.4398 -0.1543
  354MOL0     C48776   4.565   4.178   8.215 -0.2752 -0.5033  0.0391
  354MOL0     C48777   4.519   4.198   8.068  0.2169 -0.3130  0.4086
  354MOL0     C48778   4.433   4.095   8.017 -0.0744 -0.1389 -0.5508
  354MOL0     C48779   4.335   4.031   7.978  0.7205  0.0631 -0.6257
  354MOL0     C48780   4.910   4.042   8.605 -0.3621 -0.0707 -0.8728
  354MOL0     C48781   4.972   3.974   8.713  0.2597 -0.7265 -0.3400
  354MOL0     C48782   5.088   4.053   8.782  0.3011  0.4315  0.0603
  354MOL0     H48783   5.244   3.552   8.826  0.3880  0.3060 -0.5426
  354MOL0     H48784   5.390   3.475   9.020 -0.0184  0.2360 -0.9353
  354MOL0     H48785   5.163   3.300   9.372  1.3530 -2.5859 -0.4814
  354MOL0     H48786   5.233   3.450   9.435 -2.3960 -0.7604 -0.6165
  354MOL0     H48787   5.298   3.277   9.563  0.8577  0.6338  0.0643
  354MOL0     H48788   5.347   3.178   9.429 -2.1534 -0.1550  2.4928
  354MOL0     H48789   5.550   3.274   9.396  0.1356 -1.1006  0.5514
  354MOL0     H48790   5.492   3.430   9.443  0.2587 -0.2757  1.5824
  354MOL0     H48791   5.517   3.390   9.682 -1.6606 -0.3887 -0.3006
  354MOL0     H48792   5.539   3.221   9.644 -3.5189  0.9640 -1.7719
  354MOL0     H48793   5.742   3.441   9.567  4.4484 -1.0524  0.6152
  354MOL0     H48794   5.750   3.262   9.545 -1.1593  0.7854 -1.3310
  354MOL0     H48795   5.737   3.402   9.807 -0.6487  1.7034 -3.2073
  354MOL0     H48796   5.760   3.225   9.782  3.8457 -0.9704 -0.8793
  354MOL0     H48797   5.957   3.370   9.847 -3.4981  0.5843  1.3376
  354MOL0     H48798   5.933   3.462   9.698 -1.1353  0.4151  2.4492
  354MOL0     H48799   5.955   3.160   9.682 -1.4310  0.3239  0.9043
  354MOL0     H48800   5.992   3.287   9.557 -1.9736 -0.7379 -0.9348
  354MOL0     H48801   6.116   3.069   9.837  0.1589 -0.7816 -1.0290
  354MOL0     H48802   6.418   3.023   9.924 -2.5607  0.4209 -0.5265
  354MOL0     H48803   6.530   3.071   9.787  0.6397 -0.4912  0.3689
  354MOL0     H48804   6.313   2.847   9.784 -0.6138  0.2103 -1.0085
  354MOL0     H48805   6.399   2.894   9.637 -1.6502 -2.4947 -0.1924
  354MOL0     H48806   6.539   2.824   9.884 -3.2410  0.5161 -0.7330
  354MOL0     H48807   6.509   2.697   9.764 -1.4436 -0.2436  0.7300
  354MOL0     H48808   6.636   2.839   9.587 -0.0574 -1.8011  0.2842
  354MOL0     H48809   6.682   2.940   9.711  3.5070 -0.8697 -1.1052
  354MOL0     H48810   6.973   2.666   9.819 -0.2791  0.7889 -0.9782
  354MOL0     H48811   7.204   2.633   9.869  0.3400 -1.2175  0.3532
  354MOL0     H48812   7.328   2.652   9.754 -0.9311  4.2049  1.0273
  354MOL0     H48813   7.221   2.508   9.748 -1.1983 -0.5093  0.8433
  354MOL0     H48814   7.451   2.528   9.299 -1.0520  0.1056  0.2411
  354MOL0     H48815   7.639   2.525   9.175 -0.9819  0.1729  2.5959
  354MOL0     H48816   7.827   2.565   9.049  0.3300  1.4327 -3.4526
  354MOL0     H48817   7.959   2.674   9.011  0.5620 -2.1504  0.5526
  354MOL0     H48818   7.864   2.614   9.291 -0.3450  0.3738  0.7149
  354MOL0     H48819   8.015   2.598   9.228  1.0527  0.3983  1.1163
  354MOL0     H48820   7.871   2.863   9.274 -1.0569 -0.0039 -2.0893
  354MOL0     H48821   8.029   2.848   9.198  0.0360  0.7365 -0.0077
  354MOL0     H48822   8.120   2.719   9.401 -0.8853 -0.3113 -1.5087
  354MOL0     H48823   7.971   2.739   9.488  0.4563 -2.1636 -0.4182
  354MOL0     H48824   7.983   2.980   9.450 -1.2409 -1.8236 -0.7332
  354MOL0     H48825   8.115   2.910   9.553  0.2198 -0.9528 -0.3164
  354MOL0     H48826   8.152   3.013   9.265 -0.1317 -1.8513 -0.6526
  354MOL0     H48827   8.266   2.913   9.343 -2.1083 -0.7449 -2.7254
  354MOL0     H48828   8.276   3.081   9.537 -4.5730  1.0547  1.3569
  354MOL0     H48829   8.179   3.188   9.434 -0.7064  0.3350 -0.5003
  354MOL0     H48830   8.414   3.243   9.390  0.6134 -0.4101 -0.6894
  354MOL0     H48831   8.348   3.164   9.246  0.2362 -1.0524  0.1602
  354MOL0     H48832   7.604   2.954   9.098 -0.9813  2.1749  1.8469
  354MOL0     H48833   7.380   2.940   9.190  1.3256  0.8970 -0.2576
  354MOL0     H48834   7.045   2.825   9.366 -1.9691 -3.3950 -1.1996
  354MOL0     H48835   6.827   2.850   9.476 -0.3384 -0.1442 -0.9441
  354MOL0     H48836   5.057   3.490   9.277  2.1713 -0.2519  0.8576
  354MOL0     H48837   4.928   3.597   9.101  1.6520  0.3853 -0.9242
  354MOL0     H48838   4.815   3.680   8.670  1.9281  0.1159  0.9803
  354MOL0     H48839   4.722   3.799   8.471  0.0383 -1.2953 -0.7988
  354MOL0     H48840   4.717   4.238   8.437 -0.3058  1.3106 -1.0930
  354MOL0     H48841   4.880   4.198   8.370  0.1082 -0.5917  0.7668
  354MOL0     H48842   4.763   4.091   8.187  1.7356 -0.1002  1.3569
  354MOL0     H48843   4.766   4.271   8.187  3.4334 -1.0548  2.2860
  354MOL0     H48844   4.527   4.084   8.254 -2.6909  0.6639  0.6582
  354MOL0     H48845   4.525   4.255   8.281 -1.4760  0.2415 -1.4945
  354MOL0     H48846   4.609   4.209   8.007 -0.4798  0.4076 -0.5252
  354MOL0     H48847   4.471   4.295   8.052  0.9453 -0.3935 -3.0535
  354MOL0     H48848   4.250   3.982   7.935  0.7328 -1.1070  0.6414
  354MOL0     H48849   4.949   4.143   8.596  3.4240 -1.1654  1.1535
  354MOL0     H48850   5.063   4.159   8.777 -1.2761  0.0685 -0.4947
  354MOL0     H48851   5.103   4.009   8.881  1.1982 -0.2917 -0.3771
  354MOL0     H48852   5.179   4.032   8.725 -0.6291 -0.8207 -1.0420
  355MOL0     O48853   7.764   7.819   0.125  0.4485  0.2747 -0.2510
  355MOL0     C48854   7.692   7.915   0.164  0.1088 -0.2269  0.9079
  355MOL0     O48855   7.745   8.030   0.212  0.1771  0.1793 -0.0972
  355MOL0     C48856   7.870   8.056   0.260  0.3410 -0.4605 -0.1880
  355MOL0     C48857   7.901   8.193   0.273 -0.3827  0.7425 -0.0550
  355MOL0     C48858   8.034   8.233   0.316  1.0993 -0.0682 -0.5596
  355MOL0     C48859   8.120   8.128   0.356  0.2233  0.3305  0.3529
  355MOL0     O48860   8.242   8.171   0.396 -0.0763  0.8485 -1.0904
  355MOL0     C48861   8.362   8.122   0.337  0.0275  0.2778  1.1007
  355MOL0     C48862   8.472   8.208   0.382 -0.4053 -0.2592  0.4280
  355MOL0     C48863   8.458   8.354   0.334  0.2810  0.3348  0.0105
  355MOL0     C48864   8.571   8.439   0.396 -0.9544  0.4351 -0.1085
  355MOL0     C48865   8.540   8.584   0.359  0.5455  0.0311 -0.2204
  355MOL0     C48866   8.644   8.677   0.424 -0.3091 -0.5576  0.0362
  355MOL0     C48867   8.649   8.817   0.366 -0.1470  0.2394  0.4224
  355MOL0     C48868   8.529   8.904   0.400 -0.4216  0.0206  0.3848
  355MOL0     N48869   8.573   9.036   0.351  0.9065  0.0264 -0.1304
  355MOL0     C48870   8.599   9.067   0.217 -0.3533  0.2240  0.4229
  355MOL0     C48871   8.674   9.182   0.221  0.3015 -0.5205  0.6546
  355MOL0     C48872   8.746   9.253   0.101  0.3969  0.6540 -0.0655
  355MOL0     C48873   8.883   9.199   0.077 -0.3242  0.2936  0.6503
  355MOL0     C48874   8.949   9.303  -0.027  0.8774 -0.4726 -0.8359
  355MOL0     C48875   9.096   9.287  -0.015  0.3401 -0.8552 -0.3620
  355MOL0     O48876   9.133   9.158  -0.079 -0.2832 -0.3983 -0.0999
  355MOL0     C48877   9.264   9.119  -0.074 -0.2980 -0.6548 -0.1636
  355MOL0     C48878   9.291   8.994  -0.124 -0.0182 -0.3646 -0.2965
  355MOL0     C48879   9.410   8.932  -0.124 -0.2898 -0.0557  0.4408
  355MOL0     C48880   9.437   8.805  -0.204  0.7984 -0.1005 -0.0205
  355MOL0     C48881   9.513   8.999  -0.065  1.4737 -0.3980  0.3449
  355MOL0     C48882   9.657   8.964  -0.063  0.0941  0.1453  0.7929
  355MOL0     O48883   9.742   9.038   0.020  0.2541 -0.1491 -0.0690
  355MOL0     C48884   9.876   9.049  -0.009 -0.1500 -0.4129 -0.3343
  355MOL0     C48885   9.923   9.062  -0.140 -0.2692  0.4835  0.5825
  355MOL0     C48886  10.063   9.087  -0.155  0.0456 -0.4714 -0.3153
  355MOL0     C48887  10.163   9.095  -0.047  0.7665 -0.1742  0.2211
  355MOL0     O48888  10.298   9.103  -0.068 -0.1554 -0.0040  0.1345
  355MOL0     C48889  10.395   9.068   0.036 -0.5375 -0.3154  1.3274
  355MOL0     C48890  10.406   8.923   0.044  0.2596 -0.1500 -1.0047
  355MOL0     C48891  10.527   8.878   0.136 -0.9123  0.7478  0.1121
  355MOL0     C48892  10.520   8.734   0.172  0.1035  1.0738  0.0535
  355MOL0     C48893  10.623   8.684   0.277 -0.0009 -0.0409 -0.3827
  355MOL0     C48894  10.626   8.529   0.305 -0.1296  0.5461 -0.3627
  355MOL0     C48895  10.731   8.495   0.418 -0.2544  0.2376 -0.2739
  355MOL0     C48896  10.690   8.546   0.560  0.5485 -0.0298 -0.1786
  355MOL0    Cl48897  10.547   8.458   0.613 -0.1176 -0.2296 -0.6207
  355MOL0     C48898  10.104   9.079   0.083  0.1014  0.2427  0.3916
  355MOL0     C48899   9.965   9.060   0.102  0.5077 -0.0562  0.8007
  355MOL0     O48900   9.696   8.884  -0.149  0.5099 -0.2179  0.3148
  355MOL0     C48901   9.488   9.126  -0.003 -0.0333  0.7029 -0.1262
  355MOL0     C48902   9.360   9.185  -0.006 -0.0151  0.9459 -0.2102
  355MOL0     N48903   8.686   9.228   0.350  0.8025  0.1246 -0.2519
  355MOL0     N48904   8.623   9.141   0.426  0.0055 -0.7488  0.3192
  355MOL0     C48905   8.075   7.995   0.361 -0.1856  0.4979  0.1035
  355MOL0     C48906   7.952   7.958   0.316 -0.4080  0.1455  0.7157
  355MOL0     C48907   7.548   7.909   0.112 -0.1447 -0.5929  0.9933
  355MOL0     C48908   7.480   8.039   0.102  0.0833 -0.3943 -0.5829
  355MOL0     C48909   7.348   8.037   0.055 -0.4908  0.8129 -0.1264
  355MOL0     C48910   7.281   7.909   0.031 -0.4604 -1.1653  0.1759
  355MOL0     O48911   7.149   7.916  -0.008 -0.0121  0.0712 -0.2538
  355MOL0     C48912   7.094   7.793  -0.047  0.2510 -0.0616  0.6640
  355MOL0     C48913   6.943   7.802  -0.084  0.9374  0.2609 -0.6900
  355MOL0     C48914   6.858   7.892   0.003  0.2141 -0.4018 -0.3982
  355MOL0     C48915   6.718   7.909  -0.054  0.1439  0.3968 -0.3657
  355MOL0     C48916   6.632   7.798  -0.068  0.0653 -0.6347  0.4307
  355MOL0     C48917   6.570   7.696  -0.080  1.0812  0.1350 -0.3528
  355MOL0     C48918   7.346   7.786   0.054  1.0066 -0.3763 -0.6157
  355MOL0     C48919   7.477   7.785   0.089  0.8038 -0.0226 -0.4244
  355MOL0     C48920   7.536   7.650   0.135 -0.8131 -0.6196  0.2098
  355MOL0     H48921   7.835   8.271   0.237 -2.7748 -0.7378  0.9165
  355MOL0     H48922   8.052   8.340   0.316  2.5654 -0.2841 -0.4424
  355MOL0     H48923   8.356   8.122   0.227 -0.1491 -0.1587  1.1064
  355MOL0     H48924   8.386   8.023   0.376  0.8786  0.4871  1.1325
  355MOL0     H48925   8.475   8.201   0.491  0.0968 -1.6050  0.3408
  355MOL0     H48926   8.570   8.175   0.346 -0.6285 -0.4445 -0.0150
  355MOL0     H48927   8.466   8.359   0.225  0.1524  1.2819  0.0379
  355MOL0     H48928   8.357   8.390   0.356 -1.8466 -4.2875 -1.0086
  355MOL0     H48929   8.575   8.422   0.504  2.6808  1.2697  0.0017
  355MOL0     H48930   8.672   8.413   0.365  0.1934  3.5008  0.7244
  355MOL0     H48931   8.443   8.604   0.405  1.6824 -3.4104  4.3362
  355MOL0     H48932   8.541   8.598   0.250 -1.0880  0.0503 -0.2606
  355MOL0     H48933   8.626   8.687   0.531  1.8664  1.0683  0.3217
  355MOL0     H48934   8.743   8.634   0.407  1.3547  1.6983  3.0702
  355MOL0     H48935   8.650   8.812   0.257 -1.3062 -3.8221  0.4371
  355MOL0     H48936   8.742   8.867   0.394  2.0885 -3.3164  0.0481
  355MOL0     H48937   8.443   8.857   0.352  0.8921  0.3525 -2.5339
  355MOL0     H48938   8.518   8.913   0.509 -0.3475  0.2224  0.3763
  355MOL0     H48939   8.571   9.010   0.130  0.0427 -2.8400  2.1561
  355MOL0     H48940   8.749   9.360   0.122  0.4414  0.5677  0.3660
  355MOL0     H48941   8.685   9.236   0.012 -1.0054 -2.8681  1.3727
  355MOL0     H48942   8.939   9.200   0.171  0.1759 -0.1362  0.3678
  355MOL0     H48943   8.889   9.098   0.036 -0.9382  1.6393 -3.1635
  355MOL0     H48944   8.930   9.273  -0.131  2.3960 -0.4778 -1.1326
  355MOL0     H48945   8.906   9.402  -0.013 -1.1433 -1.4256  0.1867
  355MOL0     H48946   9.158   9.361  -0.066  0.3822 -1.1869 -0.7964
  355MOL0     H48947   9.129   9.292   0.089  0.4260  0.6323 -0.4342
  355MOL0     H48948   9.205   8.942  -0.164 -0.8462 -0.5210  1.5694
  355MOL0     H48949   9.343   8.758  -0.237 -0.0125 -0.9873  3.1596
  355MOL0     H48950   9.474   8.728  -0.135  1.1929  0.4682  0.4138
  355MOL0     H48951   9.513   8.824  -0.279 -1.4539  0.5576 -2.2905
  355MOL0     H48952   9.861   9.056  -0.228  1.2639 -1.3189 -0.4454
  355MOL0     H48953  10.100   9.093  -0.257  2.4652 -1.1148  0.4416
  355MOL0     H48954  10.494   9.102   0.002 -0.6348 -0.6242  0.7261
  355MOL0     H48955  10.362   9.100   0.135  0.6638 -3.6618  2.9664
  355MOL0     H48956  10.312   8.875   0.072  2.5053 -3.0187  2.5397
  355MOL0     H48957  10.423   8.884  -0.057 -1.8999  1.2863 -2.0003
  355MOL0     H48958  10.512   8.922   0.235 -0.6591 -1.5430  1.2302
  355MOL0     H48959  10.632   8.904   0.116 -1.0044 -0.2062 -1.8971
  355MOL0     H48960  10.553   8.674   0.087  2.4524  0.1768  1.4902
  355MOL0     H48961  10.426   8.701   0.217  0.2831  2.2997  1.4164
  355MOL0     H48962  10.721   8.701   0.232 -0.3371 -2.1200 -2.0550
  355MOL0     H48963  10.609   8.741   0.369 -0.6066  0.2820 -0.6730
  355MOL0     H48964  10.661   8.470   0.219 -2.7001 -0.8455 -0.5387
  355MOL0     H48965  10.529   8.493   0.340  1.2887  0.3843  4.0332
  355MOL0     H48966  10.826   8.546   0.401 -1.5017  2.8606  0.0674
  355MOL0     H48967  10.739   8.387   0.428  0.2501  0.3419  0.5459
  355MOL0     H48968  10.661   8.651   0.562  0.6102 -0.0130  0.9178
  355MOL0     H48969  10.775   8.544   0.630  0.0688  3.5099  0.6967
  355MOL0     H48970  10.164   9.080   0.173  1.2508  2.9341 -0.2913
  355MOL0     H48971   9.925   9.044   0.201  0.1431 -0.8830  0.5314
  355MOL0     H48972   9.566   9.173   0.056 -0.1799  0.7861  0.0008
  355MOL0     H48973   9.351   9.279   0.048  0.1154  1.6393 -1.3681
  355MOL0     H48974   8.147   7.925   0.400  0.0094  0.9478  0.5750
  355MOL0     H48975   7.929   7.852   0.330 -0.1116  0.0263  0.3328
  355MOL0     H48976   7.535   8.132   0.116  0.4214 -0.3864 -1.8075
  355MOL0     H48977   7.282   8.120   0.036  0.4090  1.3392 -1.0155
  355MOL0     H48978   7.142   7.754  -0.137  0.4024 -1.8571  1.4608
  355MOL0     H48979   7.103   7.719   0.033 -1.1607  0.9348  1.7983
  355MOL0     H48980   6.897   7.703  -0.082  0.8713  0.1814 -3.4233
  355MOL0     H48981   6.948   7.843  -0.185 -2.2067  1.4614 -0.4554
  355MOL0     H48982   6.854   7.844   0.101 -0.3316 -1.5478 -0.9669
  355MOL0     H48983   6.904   7.991   0.004  0.8313 -0.6913  0.5473
  355MOL0     H48984   6.733   7.955  -0.152  2.2324  1.4759  0.4123
  355MOL0     H48985   6.670   7.985   0.009  1.0633 -0.1430  1.0165
  355MOL0     H48986   6.501   7.614  -0.083  0.4785  0.6326 -0.5770
  355MOL0     H48987   7.297   7.689   0.053  0.1546  0.0357 -0.3840
  355MOL0     H48988   7.571   7.669   0.237  1.9949  1.4917 -1.0135
  355MOL0     H48989   7.472   7.562   0.125  1.3167 -2.2461  0.0631
  355MOL0     H48990   7.622   7.621   0.073 -0.3605  1.3259 -0.1421
  356MOL0     O48991   8.651   8.080   7.104  0.1335 -0.1754  0.3600
  356MOL0     C48992   8.652   8.201   7.078 -0.0123  0.0866  0.7684
  356MOL0     O48993   8.755   8.272   7.035 -0.1101 -0.3424 -0.5807
  356MOL0     C48994   8.882   8.211   7.017 -0.3817 -0.4162  0.0949
  356MOL0     C48995   8.990   8.283   7.063  0.7608 -0.3560 -0.9665
  356MOL0     C48996   9.117   8.241   7.049 -0.1948  0.4886 -0.1007
  356MOL0     C48997   9.136   8.119   6.979 -0.5809  0.3970  0.1321
  356MOL0     O48998   9.261   8.073   6.949  0.3320  0.6796  0.7976
  356MOL0     C48999   9.385   8.137   6.987 -0.1927 -0.1610  0.0834
  356MOL0     C49000   9.505   8.045   6.982  0.4375  0.5943 -0.3531
  356MOL0     C49001   9.585   8.025   6.843  0.0253 -1.0285  0.0573
  356MOL0     C49002   9.703   7.946   6.869  0.0428 -0.2610 -0.3697
  356MOL0     C49003   9.776   7.922   6.736 -0.8969  0.2137  0.2139
  356MOL0     C49004   9.891   7.817   6.750  1.0005 -0.5834  0.7074
  356MOL0     C49005   9.974   7.817   6.620  0.1774  0.2399  0.3331
  356MOL0     C49006  10.111   7.750   6.633  0.0480  0.4714  0.9291
  356MOL0     N49007  10.173   7.753   6.507 -0.3620 -0.4670  0.6037
  356MOL0     C49008  10.289   7.814   6.494 -0.2314 -0.4216 -0.4311
  356MOL0     C49009  10.350   7.778   6.383 -0.0014 -0.0337  0.2529
  356MOL0     C49010  10.482   7.838   6.337 -0.3005 -0.0528 -0.5980
  356MOL0     C49011  10.470   7.989   6.309 -0.3834  1.1734 -0.6692
  356MOL0     C49012  10.520   8.081   6.430  0.8735 -0.4077 -0.0486
  356MOL0     C49013  10.455   8.218   6.417  0.1074 -0.6534  0.6267
  356MOL0     O49014  10.500   8.311   6.518  0.5178 -0.4227  0.4639
  356MOL0     C49015  10.626   8.372   6.504  0.1010  0.2970  0.0441
  356MOL0     C49016  10.653   8.468   6.604 -0.6729 -0.0463 -0.4367
  356MOL0     C49017  10.772   8.531   6.612  0.1956 -0.2690  0.4678
  356MOL0     C49018  10.780   8.629   6.722 -0.3486  0.5089 -0.0445
  356MOL0     C49019  10.873   8.504   6.515  0.8985 -0.4595  0.3408
  356MOL0     C49020  10.996   8.590   6.500  0.1742  0.3369 -0.3267
  356MOL0     O49021  11.056   8.656   6.606 -0.3920  0.1534  0.0200
  356MOL0     C49022  11.160   8.743   6.595  0.5960 -0.2464 -0.1062
  356MOL0     C49023  11.154   8.866   6.664 -0.0320  0.4786 -0.5152
  356MOL0     C49024  11.262   8.951   6.670 -0.9485 -0.0510 -0.4304
  356MOL0     C49025  11.381   8.916   6.606 -0.1270  0.3406  0.5711
  356MOL0     O49026  11.495   8.988   6.618 -0.1032 -0.9220  0.3966
  356MOL0     C49027  11.484   9.130   6.608 -0.1604 -0.4735  0.5997
  356MOL0     C49028  11.484   9.186   6.471  0.1635 -0.1801  0.0404
  356MOL0     C49029  11.521   9.100   6.354 -1.2371 -0.2219  0.5208
  356MOL0     C49030  11.669   9.051   6.366 -0.0437  0.0063 -0.1955
  356MOL0     C49031  11.689   8.933   6.282 -1.1287  0.7921  0.4834
  356MOL0     C49032  11.837   8.903   6.263 -0.4033  0.0588  0.0462
  356MOL0     C49033  11.852   8.792   6.156  0.3386 -0.3750  0.0385
  356MOL0     C49034  11.992   8.788   6.106 -0.5513 -0.6220  0.1233
  356MOL0    Cl49035  12.034   8.917   6.000 -0.2079  0.4057  0.3126
  356MOL0     C49036  11.391   8.792   6.543 -0.6474 -0.3040  0.3047
  356MOL0     C49037  11.283   8.716   6.535 -0.0887  1.4556  0.9448
  356MOL0     O49038  11.038   8.595   6.383  0.5658  0.4540 -0.5628
  356MOL0     C49039  10.847   8.405   6.418 -0.2050  0.1536 -0.9311
  356MOL0     C49040  10.725   8.346   6.412  0.4577  0.1195  0.6881
  356MOL0     N49041  10.261   7.698   6.311 -0.6507  0.1013 -0.2158
  356MOL0     N49042  10.165   7.680   6.394 -0.0673 -0.1132  0.1038
  356MOL0     C49043   9.027   8.043   6.926  0.1059 -0.4541 -0.3900
  356MOL0     C49044   8.905   8.093   6.952  0.5625 -0.4809  0.5058
  356MOL0     C49045   8.518   8.260   7.102  0.2146 -0.2342  0.1710
  356MOL0     C49046   8.445   8.224   7.218 -0.3134  0.8133  0.1694
  356MOL0     C49047   8.322   8.280   7.250  0.6188 -0.3748  0.8452
  356MOL0     C49048   8.268   8.376   7.168 -0.6331  0.2755 -0.0909
  356MOL0     O49049   8.159   8.451   7.197  0.8009  0.0989  0.2442
  356MOL0     C49050   8.087   8.425   7.318 -0.5436  0.0196 -0.1414
  356MOL0     C49051   7.979   8.529   7.345 -0.3772 -0.1229 -0.3037
  356MOL0     C49052   7.854   8.544   7.252  0.0173  0.7586  0.0142
  356MOL0     C49053   7.732   8.650   7.291  0.3371  0.3349  0.3139
  356MOL0     C49054   7.647   8.593   7.396 -0.1120  0.1888 -0.0922
  356MOL0     C49055   7.584   8.544   7.490 -0.8186 -0.0021 -0.0545
  356MOL0     C49056   8.332   8.407   7.044  0.1518 -0.2318 -0.0305
  356MOL0     C49057   8.461   8.353   7.012  0.1642  0.4888 -0.0148
  356MOL0     C49058   8.521   8.407   6.880 -0.0365 -0.2949 -1.3688
  356MOL0     H49059   8.965   8.380   7.104 -5.3297 -1.4614 -1.0412
  356MOL0     H49060   9.212   8.289   7.073 -0.0450 -0.9532  2.5826
  356MOL0     H49061   9.363   8.174   7.088 -1.2176  2.3758 -0.9749
  356MOL0     H49062   9.407   8.229   6.932 -0.6014  2.4045  3.7716
  356MOL0     H49063   9.573   8.080   7.060  1.9249 -3.2853  0.3061
  356MOL0     H49064   9.475   7.946   7.018 -4.4492  2.3306  1.1693
  356MOL0     H49065   9.519   7.983   6.767 -0.8902  2.9149 -1.5698
  356MOL0     H49066   9.614   8.128   6.820 -1.2245 -0.3367  1.3396
  356MOL0     H49067   9.765   7.992   6.946  2.3652 -1.2460 -1.5777
  356MOL0     H49068   9.667   7.850   6.909 -1.2423  0.3322 -0.0370
  356MOL0     H49069   9.813   8.017   6.696  1.2392 -0.9289 -0.7040
  356MOL0     H49070   9.712   7.873   6.661 -0.5011  0.1222 -0.0680
  356MOL0     H49071   9.951   7.855   6.833  0.3567  3.3286 -0.4564
  356MOL0     H49072   9.848   7.719   6.771  1.4245 -0.7224  0.9466
  356MOL0     H49073   9.980   7.915   6.571 -1.4731 -0.4740 -1.4284
  356MOL0     H49074   9.914   7.754   6.553  3.5537 -1.4342 -1.3938
  356MOL0     H49075  10.179   7.792   6.708 -0.1802  0.6294  1.0529
  356MOL0     H49076  10.095   7.644   6.652 -3.4401  0.5040 -1.0352
  356MOL0     H49077  10.339   7.880   6.564 -2.9441 -1.7405  3.0519
  356MOL0     H49078  10.518   7.778   6.253  0.7062 -1.0451  0.4803
  356MOL0     H49079  10.557   7.836   6.417 -2.0633  3.7755  1.3860
  356MOL0     H49080  10.528   8.012   6.219  1.4206 -0.8217 -0.1179
  356MOL0     H49081  10.364   8.008   6.288 -0.4132  1.8277  0.0257
  356MOL0     H49082  10.499   8.025   6.522 -0.4521 -0.4509 -0.3560
  356MOL0     H49083  10.628   8.099   6.431  0.3213  4.3158 -2.2929
  356MOL0     H49084  10.457   8.256   6.315 -0.1736 -1.8816  0.1435
  356MOL0     H49085  10.348   8.200   6.435 -0.0535  0.2883  0.6661
  356MOL0     H49086  10.572   8.497   6.670  0.9794  0.7863  1.3495
  356MOL0     H49087  10.876   8.620   6.773 -0.7532 -2.4671  0.3679
  356MOL0     H49088  10.705   8.620   6.801  0.4615 -0.3879  0.6389
  356MOL0     H49089  10.772   8.728   6.675 -0.0390  0.2926 -0.5588
  356MOL0     H49090  11.060   8.881   6.715 -0.0577 -0.3485 -0.2959
  356MOL0     H49091  11.265   9.050   6.716 -0.8430 -0.4261  0.3968
  356MOL0     H49092  11.400   9.178   6.658 -0.9729 -0.6951 -0.5169
  356MOL0     H49093  11.575   9.160   6.661 -0.5895  2.6376 -0.2660
  356MOL0     H49094  11.390   9.240   6.460  0.3514  0.4110  1.1371
  356MOL0     H49095  11.555   9.269   6.476 -0.2860  0.3022 -1.2480
  356MOL0     H49096  11.516   9.158   6.261 -1.2453 -0.1650  0.5569
  356MOL0     H49097  11.454   9.014   6.354 -0.9209 -0.4843  1.3858
  356MOL0     H49098  11.701   9.031   6.469  0.5571  1.9184  0.0258
  356MOL0     H49099  11.739   9.126   6.327  2.6797 -4.3151 -4.8049
  356MOL0     H49100  11.641   8.842   6.319  1.5258 -1.2334 -0.6948
  356MOL0     H49101  11.657   8.946   6.178  0.8809 -0.6412 -0.3597
  356MOL0     H49102  11.881   8.866   6.357  0.6501  1.1669  0.0025
  356MOL0     H49103  11.883   8.993   6.222 -1.0836 -0.3529 -1.7043
  356MOL0     H49104  11.791   8.823   6.071 -1.6088  1.1214  1.8797
  356MOL0     H49105  11.819   8.693   6.186 -0.4552 -0.2869 -0.5213
  356MOL0     H49106  12.009   8.692   6.058  1.7553 -0.6120  0.8029
  356MOL0     H49107  12.068   8.794   6.184 -0.6164 -0.0221  0.1466
  356MOL0     H49108  11.488   8.762   6.504 -0.5528 -1.0714  1.1172
  356MOL0     H49109  11.303   8.623   6.483  1.4473  1.9889  0.5450
  356MOL0     H49110  10.933   8.375   6.359 -1.0791 -0.8278 -1.7540
  356MOL0     H49111  10.706   8.267   6.341  0.7806  0.0681  0.6576
  356MOL0     H49112   9.037   7.952   6.867 -0.8577 -3.0469  3.0711
  356MOL0     H49113   8.821   8.035   6.916  1.3878 -1.8514  0.7164
  356MOL0     H49114   8.482   8.150   7.288  1.5061  1.6572  0.1559
  356MOL0     H49115   8.268   8.247   7.339 -1.1034 -0.2257 -0.1038
  356MOL0     H49116   8.039   8.327   7.324 -2.1888  0.8355  0.7536
  356MOL0     H49117   8.155   8.422   7.404 -0.2928  1.6144 -0.2523
  356MOL0     H49118   8.031   8.625   7.354 -3.0713  1.4269 -0.4029
  356MOL0     H49119   7.937   8.491   7.438  0.4829 -1.1757 -0.3207
  356MOL0     H49120   7.891   8.559   7.150 -1.6439  1.6482 -0.5071
  356MOL0     H49121   7.808   8.445   7.255  0.8751  0.3402 -0.3408
  356MOL0     H49122   7.665   8.665   7.206 -0.0722 -1.6271  0.2370
  356MOL0     H49123   7.766   8.747   7.329  1.2332  0.1150  0.0960
  356MOL0     H49124   7.523   8.501   7.567 -1.6226 -2.8715 -2.1216
  356MOL0     H49125   8.284   8.481   6.981 -1.3617 -0.5394  0.7091
  356MOL0     H49126   8.600   8.478   6.903 -2.3767  2.0928 -0.1450
  356MOL0     H49127   8.570   8.324   6.828  2.3918 -0.0619  0.3945
  356MOL0     H49128   8.462   8.462   6.807 -0.8075 -0.5683 -0.9687
  357MOL0     O49129   5.790   4.376   3.051 -0.2441  0.4533 -0.7545
  357MOL0     C49130   5.731   4.478   3.092  0.0820  0.2422  0.8309
  357MOL0     O49131   5.743   4.604   3.034  0.2664 -0.2849  0.7081
  357MOL0     C49132   5.833   4.620   2.929  0.0014  0.0802  0.2277
  357MOL0     C49133   5.818   4.560   2.804 -0.2842 -0.0462 -0.1146
  357MOL0     C49134   5.911   4.577   2.705 -0.4764 -0.5070  0.8716
  357MOL0     C49135   6.029   4.645   2.742  0.0110 -0.4634  0.1467
  357MOL0     O49136   6.132   4.654   2.650 -0.0359  0.0639  0.3349
  357MOL0     C49137   6.219   4.545   2.649  0.3714 -0.0856 -0.3925
  357MOL0     C49138   6.358   4.607   2.649 -0.9761  0.1421  0.3485
  357MOL0     C49139   6.462   4.482   2.629  0.7346 -0.5829  0.1543
  357MOL0     C49140   6.599   4.551   2.612  0.7898 -0.0934 -0.1369
  357MOL0     C49141   6.706   4.447   2.604 -0.2434 -0.3349 -0.4331
  357MOL0     C49142   6.812   4.493   2.501  0.3959  1.3551 -0.0613
  357MOL0     C49143   6.946   4.411   2.518 -0.0455 -0.1692  0.1664
  357MOL0     C49144   7.042   4.446   2.406  0.2532  0.8401  0.3908
  357MOL0     N49145   7.178   4.405   2.431  0.0513 -0.1126  0.3984
  357MOL0     C49146   7.274   4.490   2.480 -0.0699 -0.3303 -0.0997
  357MOL0     C49147   7.385   4.410   2.495  0.5347  0.3208 -0.9540
  357MOL0     C49148   7.522   4.481   2.501 -0.5688  0.5566  0.1659
  357MOL0     C49149   7.619   4.428   2.399 -0.5763  0.0406 -0.5449
  357MOL0     C49150   7.565   4.432   2.249  0.2625  0.1024 -1.2267
  357MOL0     C49151   7.674   4.402   2.141  0.4425 -0.0240 -0.1338
  357MOL0     O49152   7.767   4.513   2.127 -0.0941 -0.5940 -0.3541
  357MOL0     C49153   7.900   4.499   2.168 -0.4230 -0.5764  0.6204
  357MOL0     C49154   7.970   4.618   2.198 -0.2174  0.1804  0.5159
  357MOL0     C49155   8.111   4.626   2.201  0.2200  0.3296 -0.2663
  357MOL0     C49156   8.171   4.759   2.250  0.4334  0.1349 -0.0375
  357MOL0     C49157   8.185   4.515   2.172 -0.4638  0.5753 -0.1447
  357MOL0     C49158   8.341   4.504   2.173  0.0970  0.9441  0.0720
  357MOL0     O49159   8.392   4.381   2.136 -0.2215  0.4120  0.0047
  357MOL0     C49160   8.523   4.377   2.150 -0.0638 -0.1043 -0.4016
  357MOL0     C49161   8.565   4.277   2.242 -0.1165 -0.1763 -0.6043
  357MOL0     C49162   8.698   4.271   2.283 -0.0305 -0.2324  0.2093
  357MOL0     C49163   8.793   4.356   2.220 -0.1418 -0.0627 -0.6211
  357MOL0     O49164   8.915   4.358   2.289 -0.1971  0.3004  0.1727
  357MOL0     C49165   9.001   4.467   2.266 -0.5577  0.3744  0.9632
  357MOL0     C49166   9.117   4.438   2.371 -0.4722 -0.0948  0.2101
  357MOL0     C49167   9.242   4.538   2.355  0.5052  0.0930  0.0325
  357MOL0     C49168   9.345   4.499   2.465  0.2124 -0.2860 -0.1937
  357MOL0     C49169   9.481   4.546   2.414  0.4500 -0.5039 -0.0260
  357MOL0     C49170   9.533   4.456   2.296  0.8921  0.4974 -0.1079
  357MOL0     C49171   9.684   4.473   2.290 -0.3667  0.1544  0.4335
  357MOL0     C49172   9.745   4.381   2.185 -0.4693  0.6953 -0.5661
  357MOL0    Cl49173   9.707   4.406   2.013  0.0510 -0.6511  0.0965
  357MOL0     C49174   8.755   4.444   2.112 -0.0168  0.8186  0.9641
  357MOL0     C49175   8.620   4.453   2.073  0.0449  0.6131 -0.7854
  357MOL0     O49176   8.409   4.604   2.197  0.8062 -0.4112  0.6862
  357MOL0     C49177   8.109   4.401   2.132  0.0256 -0.2818  0.5354
  357MOL0     C49178   7.973   4.395   2.139 -0.9560 -0.2165  0.1695
  357MOL0     N49179   7.341   4.282   2.461  0.4184  0.7415 -0.1028
  357MOL0     N49180   7.223   4.279   2.425  0.2304 -0.1771  0.4303
  357MOL0     C49181   6.048   4.697   2.871  0.0582 -0.3046  0.3967
  357MOL0     C49182   5.952   4.687   2.967 -0.7787 -0.3982 -0.1711
  357MOL0     C49183   5.641   4.471   3.211  0.1568  0.5118  0.3916
  357MOL0     C49184   5.583   4.346   3.242 -0.3049 -1.0697 -1.1556
  357MOL0     C49185   5.510   4.340   3.359 -0.4931 -0.0516 -0.8543
  357MOL0     C49186   5.505   4.447   3.455 -0.4586  0.8432  0.2588
  357MOL0     O49187   5.454   4.434   3.578 -0.0517 -0.3267 -0.4878
  357MOL0     C49188   5.374   4.322   3.615 -0.3863 -0.2311  0.0107
  357MOL0     C49189   5.310   4.342   3.752 -0.7728 -0.9546 -0.4324
  357MOL0     C49190   5.202   4.456   3.758 -0.3618  0.8082  0.2998
  357MOL0     C49191   5.071   4.413   3.690 -0.8898 -0.1155 -0.1042
  357MOL0     C49192   4.986   4.527   3.651  0.0363 -0.2730  0.2273
  357MOL0     C49193   4.909   4.612   3.608  0.2475  0.3888 -0.3045
  357MOL0     C49194   5.565   4.564   3.423  0.0741  0.3729 -0.3681
  357MOL0     C49195   5.629   4.583   3.297  0.2417  0.1151  0.2113
  357MOL0     C49196   5.706   4.712   3.281  0.6280 -0.4501  0.5294
  357MOL0     H49197   5.726   4.508   2.780 -0.1020  0.0179 -1.0145
  357MOL0     H49198   5.884   4.544   2.605  0.1683 -1.3183  0.9566
  357MOL0     H49199   6.198   4.479   2.564 -1.9036  0.8589 -0.6264
  357MOL0     H49200   6.206   4.488   2.742  1.8194 -2.2620 -1.4206
  357MOL0     H49201   6.373   4.677   2.565  0.1563 -1.1021 -0.5343
  357MOL0     H49202   6.379   4.657   2.744  1.1148 -2.2249  1.2498
  357MOL0     H49203   6.466   4.409   2.711  1.6828 -1.5016 -0.6796
  357MOL0     H49204   6.428   4.419   2.547 -3.8106  0.0582  1.2624
  357MOL0     H49205   6.580   4.617   2.526  0.9899  0.3614  0.1624
  357MOL0     H49206   6.629   4.609   2.700 -0.5735 -0.2643  0.4750
  357MOL0     H49207   6.669   4.347   2.579  2.7026 -1.3687 -1.0825
  357MOL0     H49208   6.762   4.435   2.697 -0.5308  1.0203 -0.0647
  357MOL0     H49209   6.777   4.489   2.398 -0.6601  3.7749  0.1334
  357MOL0     H49210   6.843   4.596   2.524  2.7881  1.4454 -3.0764
  357MOL0     H49211   6.936   4.302   2.511  3.0371 -0.5120 -0.2818
  357MOL0     H49212   6.984   4.442   2.616 -0.1603  2.9583 -0.7007
  357MOL0     H49213   7.017   4.396   2.312  3.5067  1.2398 -0.8023
  357MOL0     H49214   7.044   4.553   2.384  1.0304  1.5682  3.5207
  357MOL0     H49215   7.270   4.598   2.487  1.2655 -0.2131 -0.8280
  357MOL0     H49216   7.554   4.447   2.600 -0.5372  1.5127  0.4983
  357MOL0     H49217   7.514   4.590   2.502 -2.5825  0.4575  0.3362
  357MOL0     H49218   7.706   4.490   2.425 -0.7473  0.1866 -0.3193
  357MOL0     H49219   7.647   4.327   2.430 -1.4784 -0.0809 -0.0915
  357MOL0     H49220   7.482   4.361   2.248  0.7383 -0.5169  0.3840
  357MOL0     H49221   7.523   4.529   2.221  0.2652  1.0405  1.6971
  357MOL0     H49222   7.725   4.307   2.161 -2.3702 -1.2383  1.9627
  357MOL0     H49223   7.619   4.398   2.047  2.5467  1.2491 -1.4657
  357MOL0     H49224   7.911   4.707   2.219 -2.0930 -1.0390  0.6619
  357MOL0     H49225   8.091   4.820   2.294 -2.5013 -1.6689 -2.4631
  357MOL0     H49226   8.212   4.812   2.164  0.8632 -0.3355 -0.1295
  357MOL0     H49227   8.248   4.742   2.326 -1.3709 -1.7324  1.5261
  357MOL0     H49228   8.491   4.221   2.298  0.5063 -1.0087 -0.5975
  357MOL0     H49229   8.727   4.207   2.366  1.3583  0.4892  0.3067
  357MOL0     H49230   9.031   4.459   2.161  1.4798 -0.4493  1.5414
  357MOL0     H49231   8.961   4.568   2.269 -1.8375 -0.0873  0.1155
  357MOL0     H49232   9.077   4.455   2.471 -2.0168 -1.6685 -0.1009
  357MOL0     H49233   9.145   4.334   2.354  1.6091  0.0393  2.3111
  357MOL0     H49234   9.200   4.639   2.362 -0.8972 -0.5194  0.8495
  357MOL0     H49235   9.287   4.530   2.256 -0.1493 -1.2468 -0.1718
  357MOL0     H49236   9.339   4.391   2.480 -0.3119 -0.2631 -0.2149
  357MOL0     H49237   9.327   4.550   2.560 -0.6835 -2.1018  0.6676
  357MOL0     H49238   9.476   4.649   2.377  1.8760  0.1860  1.5716
  357MOL0     H49239   9.554   4.546   2.496  0.3040 -0.3957  0.1036
  357MOL0     H49240   9.481   4.474   2.202 -2.6766 -0.3578  1.5287
  357MOL0     H49241   9.508   4.351   2.317 -2.4909  1.2408  0.1229
  357MOL0     H49242   9.736   4.457   2.385  1.9390 -0.7798 -0.8998
  357MOL0     H49243   9.712   4.574   2.257  3.6117 -0.1895  2.1715
  357MOL0     H49244   9.716   4.279   2.211  0.6635  0.6919  0.8152
  357MOL0     H49245   9.854   4.382   2.196 -0.5376 -0.6290  0.3853
  357MOL0     H49246   8.835   4.503   2.069  1.2153 -0.5034  1.3435
  357MOL0     H49247   8.573   4.504   1.990  0.1385  0.6989 -0.7854
  357MOL0     H49248   8.159   4.306   2.113  1.4699  0.5054  0.2617
  357MOL0     H49249   7.919   4.303   2.117 -0.0528 -1.1913  1.8218
  357MOL0     H49250   6.138   4.751   2.896  0.3245 -0.8294  0.5834
  357MOL0     H49251   5.954   4.739   3.062 -1.7917  1.5014 -1.1127
  357MOL0     H49252   5.593   4.267   3.169 -1.2138 -0.3176 -2.1401
  357MOL0     H49253   5.470   4.240   3.375 -0.6573 -0.2302 -2.2993
  357MOL0     H49254   5.305   4.293   3.536 -0.9489 -3.0052  1.4013
  357MOL0     H49255   5.450   4.244   3.615  0.9387  0.9867 -1.2745
  357MOL0     H49256   5.393   4.370   3.818 -0.9639  1.0083 -0.9642
  357MOL0     H49257   5.263   4.252   3.792  0.1464 -0.8431  0.9813
  357MOL0     H49258   5.190   4.481   3.863  1.3828  0.4871  0.6112
  357MOL0     H49259   5.254   4.539   3.710 -1.0265  0.3119 -1.3471
  357MOL0     H49260   5.015   4.354   3.763  2.0581 -0.8640  1.7373
  357MOL0     H49261   5.088   4.342   3.609 -0.7031 -3.2615  2.4717
  357MOL0     H49262   4.840   4.680   3.563 -0.9351 -1.4203 -1.3584
  357MOL0     H49263   5.562   4.647   3.492 -0.0631  0.9643 -1.0719
  357MOL0     H49264   5.812   4.686   3.278  0.4826 -0.9995 -0.1739
  357MOL0     H49265   5.675   4.759   3.187 -2.6529  0.1399  1.7534
  357MOL0     H49266   5.678   4.778   3.364 -0.3433 -1.5042  1.0732
  358MOL0     O49267   5.632   5.783   7.848  0.0958  0.7144  0.1181
  358MOL0     C49268   5.694   5.680   7.819 -0.1157  0.9672  0.0597
  358MOL0     O49269   5.656   5.551   7.853 -0.0744  0.0846  0.4652
  358MOL0     C49270   5.560   5.523   7.952 -0.2392 -0.6827 -0.3146
  358MOL0     C49271   5.481   5.410   7.940  0.7806 -0.5843  0.0537
  358MOL0     C49272   5.388   5.378   8.040 -1.4981  0.4709  0.2581
  358MOL0     C49273   5.367   5.467   8.152  0.3799  0.3798 -0.3198
  358MOL0     O49274   5.277   5.458   8.256  0.6615 -0.0777  0.5675
  358MOL0     C49275   5.190   5.349   8.257 -0.7154 -0.3820 -0.1416
  358MOL0     C49276   5.111   5.355   8.390 -0.7750  0.4717 -0.1292
  358MOL0     C49277   5.000   5.256   8.410  0.0206  0.1903  0.3324
  358MOL0     C49278   4.930   5.305   8.541  0.2122 -0.2679  0.1343
  358MOL0     C49279   4.829   5.200   8.575 -0.7186  0.1247  0.5554
  358MOL0     C49280   4.778   5.210   8.726 -0.2204 -0.6337  0.1161
  358MOL0     C49281   4.678   5.094   8.753  0.3459  0.5704 -0.3017
  358MOL0     C49282   4.736   4.947   8.774  0.0413 -0.6198 -0.9924
  358MOL0     N49283   4.794   4.930   8.908 -0.5814  0.1334  0.0717
  358MOL0     C49284   4.911   4.993   8.955 -0.1781  0.1702 -0.7287
  358MOL0     C49285   4.914   4.956   9.088  0.1076  0.6721  0.2926
  358MOL0     C49286   5.026   4.971   9.183 -0.2700 -0.4902 -0.4252
  358MOL0     C49287   5.122   4.856   9.186  0.2481 -1.2967  0.2308
  358MOL0     C49288   5.064   4.717   9.190 -0.0212 -0.1262 -0.2548
  358MOL0     C49289   5.181   4.614   9.191  0.8758  0.5071  1.6861
  358MOL0     O49290   5.286   4.662   9.281 -0.2245 -0.0172  0.1423
  358MOL0     C49291   5.377   4.579   9.337 -1.0418  0.5289 -0.0692
  358MOL0     C49292   5.496   4.631   9.393  0.0396 -0.1167  0.7513
  358MOL0     C49293   5.612   4.557   9.433 -0.3520 -0.0768  0.4347
  358MOL0     C49294   5.735   4.637   9.476  0.0027  0.5428 -0.6089
  358MOL0     C49295   5.611   4.413   9.428  0.6491 -0.1919 -0.0003
  358MOL0     C49296   5.731   4.325   9.459 -0.2975  0.3165  0.3929
  358MOL0     O49297   5.818   4.367   9.548 -1.1403 -0.3076 -1.3199
  358MOL0     C49298   5.947   4.307   9.559 -0.2078 -0.8203 -0.2013
  358MOL0     C49299   6.046   4.403   9.589  0.2197 -0.1475  1.1799
  358MOL0     C49300   6.179   4.362   9.601 -0.2881 -0.6729 -0.1986
  358MOL0     C49301   6.226   4.230   9.586 -0.0389  0.4265  0.3609
  358MOL0     O49302   6.355   4.196   9.616  0.3467  0.2676 -0.7727
  358MOL0     C49303   6.408   4.075   9.558  0.2524  0.3008  0.4623
  358MOL0     C49304   6.565   4.071   9.574  0.0837 -0.5988 -0.0382
  358MOL0     C49305   6.609   3.929   9.548 -0.8331  0.5166  0.9829
  358MOL0     C49306   6.756   3.924   9.571 -0.0773  0.8738 -1.0035
  358MOL0     C49307   6.807   3.791   9.534 -0.6239 -0.1084 -0.4989
  358MOL0     C49308   6.957   3.778   9.581  0.8330 -0.6926 -1.3925
  358MOL0     C49309   7.022   3.652   9.546 -0.4316  0.9901 -0.0826
  358MOL0     C49310   7.177   3.658   9.567 -0.5220 -0.1459  0.0725
  358MOL0    Cl49311   7.258   3.515   9.515  0.6541 -0.1970  0.1983
  358MOL0     C49312   6.125   4.138   9.559  0.1968  0.4517 -0.5235
  358MOL0     C49313   5.988   4.174   9.542  0.5607  0.8670 -0.0358
  358MOL0     O49314   5.745   4.226   9.396  0.6107  0.4640 -0.5376
  358MOL0     C49315   5.487   4.357   9.376 -0.5073  0.3604 -0.1593
  358MOL0     C49316   5.374   4.434   9.335  0.4823 -0.3794  0.0762
  358MOL0     N49317   4.807   4.880   9.123 -0.5817  0.0809 -0.2974
  358MOL0     N49318   4.741   4.857   9.007 -0.3668 -0.1585 -0.2472
  358MOL0     C49319   5.461   5.561   8.174 -0.3647 -0.8306 -1.8705
  358MOL0     C49320   5.553   5.591   8.074 -0.4623 -0.9779 -0.3873
  358MOL0     C49321   5.818   5.679   7.745  0.2054  0.5949 -0.5099
  358MOL0     C49322   5.914   5.773   7.768 -0.2198 -0.3542 -1.5643
  358MOL0     C49323   6.045   5.756   7.726  1.0793  0.5038  0.1678
  358MOL0     C49324   6.087   5.638   7.660  0.1358  0.4145  0.0577
  358MOL0     O49325   6.224   5.631   7.627 -0.1481  0.1630  0.0544
  358MOL0     C49326   6.277   5.515   7.572  0.1535 -0.5839 -0.0989
  358MOL0     C49327   6.427   5.543   7.546 -0.1881 -0.4137 -0.3054
  358MOL0     C49328   6.494   5.546   7.681  0.2888 -0.6237  0.7346
  358MOL0     C49329   6.648   5.564   7.666 -0.5778  0.1733  0.0204
  358MOL0     C49330   6.679   5.694   7.601  0.7922  0.6628 -0.3563
  358MOL0     C49331   6.702   5.798   7.543  0.2210 -0.1435 -0.1389
  358MOL0     C49332   5.992   5.543   7.620  0.9880 -0.7551  0.8406
  358MOL0     C49333   5.861   5.558   7.667  0.4719 -0.4378  0.0691
  358MOL0     C49334   5.764   5.453   7.622 -0.6660 -0.1342 -0.1290
  358MOL0     H49335   5.491   5.345   7.853 -1.9493 -0.1674 -0.6772
  358MOL0     H49336   5.337   5.284   8.018  2.0077 -1.8846  1.3611
  358MOL0     H49337   5.252   5.259   8.261  0.1203  0.1632 -0.6537
  358MOL0     H49338   5.133   5.335   8.165  1.2710 -2.3599 -1.1468
  358MOL0     H49339   5.180   5.354   8.475 -0.7345 -1.5622 -0.1475
  358MOL0     H49340   5.065   5.453   8.404 -0.9537  0.4183 -0.3337
  358MOL0     H49341   4.920   5.259   8.335  0.1322  0.8951  0.2351
  358MOL0     H49342   5.043   5.155   8.410  0.0442  0.1373 -1.8958
  358MOL0     H49343   5.004   5.315   8.621 -1.6955  2.6109  1.7178
  358MOL0     H49344   4.890   5.404   8.517  2.3677  0.5481 -0.3256
  358MOL0     H49345   4.876   5.102   8.566 -0.6230  0.2467 -0.3515
  358MOL0     H49346   4.740   5.193   8.511  0.5309  1.9021 -1.5445
  358MOL0     H49347   4.860   5.229   8.796  0.7519  0.3047 -1.2391
  358MOL0     H49348   4.714   5.299   8.725  0.5352 -0.0508  1.1232
  358MOL0     H49349   4.599   5.097   8.678  0.0691 -1.1239 -0.1150
  358MOL0     H49350   4.627   5.120   8.846 -1.2980  1.0600 -1.3075
  358MOL0     H49351   4.655   4.874   8.766  1.0261 -1.6797 -1.7681
  358MOL0     H49352   4.821   4.923   8.709  1.9175  0.7296  0.8345
  358MOL0     H49353   5.003   5.038   8.921  1.2537  1.6193  4.1805
  358MOL0     H49354   4.983   4.971   9.283 -0.0444 -0.1790 -0.3284
  358MOL0     H49355   5.077   5.067   9.169 -0.7788 -0.2772 -0.8342
  358MOL0     H49356   5.189   4.873   9.101 -1.9918  2.6354 -1.0042
  358MOL0     H49357   5.173   4.868   9.282 -2.4007  0.6091  1.5254
  358MOL0     H49358   5.003   4.709   9.280  0.2881  4.1661  0.5388
  358MOL0     H49359   4.996   4.689   9.109 -0.1332  0.1905 -0.2716
  358MOL0     H49360   5.137   4.516   9.212  0.4195  0.2266 -0.4053
  358MOL0     H49361   5.222   4.621   9.090  0.5823  0.1583  1.5381
  358MOL0     H49362   5.500   4.740   9.386  4.0031 -0.1553 -0.0720
  358MOL0     H49363   5.742   4.634   9.585  1.4133 -1.7235 -0.7076
  358MOL0     H49364   5.730   4.743   9.449 -1.7821  1.2002  1.9009
  358MOL0     H49365   5.825   4.605   9.423 -0.2979  3.0058 -2.8460
  358MOL0     H49366   6.021   4.509   9.594  1.2843  0.2786 -1.3456
  358MOL0     H49367   6.263   4.427   9.622  0.2746 -1.0194 -1.2952
  358MOL0     H49368   6.377   3.995   9.625  0.3297 -0.3922 -0.3029
  358MOL0     H49369   6.384   4.068   9.451  2.8455  1.6575 -0.3041
  358MOL0     H49370   6.617   4.133   9.501 -0.6577 -1.4671 -1.3504
  358MOL0     H49371   6.593   4.093   9.678  1.6233  3.2699 -1.1056
  358MOL0     H49372   6.602   3.903   9.442  1.4040 -0.4703  1.0209
  358MOL0     H49373   6.554   3.854   9.605 -2.6385  1.1466  0.1668
  358MOL0     H49374   6.775   3.937   9.678 -0.8381 -0.7022 -0.6570
  358MOL0     H49375   6.810   3.997   9.510  1.4569  0.0848 -0.6554
  358MOL0     H49376   6.756   3.709   9.587  0.3024 -0.8076 -0.6646
  358MOL0     H49377   6.806   3.774   9.426  0.6347 -0.0329 -0.5290
  358MOL0     H49378   6.962   3.798   9.688  5.3548  0.1196 -1.5612
  358MOL0     H49379   7.010   3.864   9.539 -0.6079  2.1079  2.0487
  358MOL0     H49380   7.001   3.625   9.442 -2.6011  5.1137 -0.9346
  358MOL0     H49381   6.982   3.569   9.606  0.1019  0.5078 -0.3838
  358MOL0     H49382   7.184   3.672   9.675 -0.9957 -1.5478  0.3046
  358MOL0     H49383   7.206   3.740   9.502  0.6642 -1.9682 -1.8084
  358MOL0     H49384   6.140   4.031   9.547  1.2715  0.6314 -0.9359
  358MOL0     H49385   5.905   4.106   9.528 -1.5070  3.5748 -2.2445
  358MOL0     H49386   5.477   4.249   9.366 -1.6493  0.5331 -1.0438
  358MOL0     H49387   5.295   4.365   9.309  1.6463 -1.3749 -0.9185
  358MOL0     H49388   5.467   5.619   8.266 -1.4602 -0.3972 -2.0537
  358MOL0     H49389   5.637   5.653   8.103 -0.7382 -1.9888  2.9937
  358MOL0     H49390   5.883   5.863   7.820 -2.3112 -1.0875 -1.4459
  358MOL0     H49391   6.113   5.838   7.746 -0.7480  1.6104  2.2698
  358MOL0     H49392   6.270   5.435   7.647  0.4783  0.5551  1.2023
  358MOL0     H49393   6.240   5.500   7.471  0.1215 -2.1757  0.1234
  358MOL0     H49394   6.435   5.634   7.487  0.3795 -0.9502 -1.0640
  358MOL0     H49395   6.467   5.462   7.486  2.0619  1.4103 -1.4289
  358MOL0     H49396   6.451   5.626   7.742 -0.4151  0.9608 -1.6831
  358MOL0     H49397   6.483   5.454   7.738  0.5544 -0.5653  0.8858
  358MOL0     H49398   6.680   5.472   7.617 -3.6600  0.1731 -2.2968
  358MOL0     H49399   6.691   5.560   7.766 -0.4572 -1.9623 -0.0782
  358MOL0     H49400   6.708   5.892   7.492 -0.3163 -0.5561 -0.9797
  358MOL0     H49401   6.018   5.456   7.561 -2.3526 -1.5071  0.3081
  358MOL0     H49402   5.668   5.500   7.603 -0.2593 -0.3038 -2.9803
  358MOL0     H49403   5.791   5.413   7.524  1.0054 -0.2727  0.3419
  358MOL0     H49404   5.763   5.362   7.682 -0.1901 -0.3931 -0.5050
  359MOL0     O49405   8.533   4.924   8.777  0.5517  0.2798 -0.0198
  359MOL0     C49406   8.543   4.805   8.766 -0.5402  0.0548  0.2203
  359MOL0     O49407   8.663   4.746   8.780 -0.0813  0.4038 -0.4371
  359MOL0     C49408   8.778   4.818   8.767 -0.0471  0.2298  0.0599
  359MOL0     C49409   8.824   4.894   8.871 -0.2220 -1.1844  0.1536
  359MOL0     C49410   8.940   4.970   8.859  0.4537  0.6409 -0.7447
  359MOL0     C49411   9.020   4.960   8.740  0.1956  1.1491  1.1432
  359MOL0     O49412   9.139   5.023   8.738 -0.4535 -0.6376 -0.5316
  359MOL0     C49413   9.247   4.951   8.676  0.0597  0.9431  0.3366
  359MOL0     C49414   9.315   5.034   8.567 -0.3960  0.0644 -0.1942
  359MOL0     C49415   9.421   5.134   8.625  0.5672  0.4599 -0.0401
  359MOL0     C49416   9.563   5.076   8.623 -0.7946  0.3079  0.0928
  359MOL0     C49417   9.634   5.080   8.487 -1.0599 -0.1034  0.8876
  359MOL0     C49418   9.780   5.046   8.500 -0.2039 -0.4224  0.8230
  359MOL0     C49419   9.851   5.025   8.377 -0.0171 -0.3022 -0.0084
  359MOL0     C49420   9.816   4.884   8.312  0.5625 -0.1320 -0.1034
  359MOL0     N49421   9.841   4.774   8.401  0.0557  0.0264  0.6280
  359MOL0     C49422   9.955   4.701   8.424  0.6413 -0.0894  0.7528
  359MOL0     C49423   9.927   4.602   8.510 -1.1449 -0.1985  0.1934
  359MOL0     C49424  10.027   4.503   8.566  0.4069 -0.0711  0.3805
  359MOL0     C49425  10.005   4.361   8.500  0.9134  0.1000 -0.1345
  359MOL0     C49426  10.090   4.246   8.544  0.1735  0.4635  0.7554
  359MOL0     C49427  10.245   4.280   8.537  0.7334 -0.4630  0.1236
  359MOL0     O49428  10.286   4.349   8.419 -0.1593 -0.1308 -0.3167
  359MOL0     C49429  10.422   4.367   8.398  0.3037  0.3764  0.0505
  359MOL0     C49430  10.525   4.273   8.412  1.0903 -0.0162 -0.2140
  359MOL0     C49431  10.658   4.300   8.368 -0.0350  0.2309  0.4049
  359MOL0     C49432  10.767   4.194   8.403  0.4393 -0.1766 -0.0299
  359MOL0     C49433  10.683   4.414   8.290 -0.3019  0.5355  0.3203
  359MOL0     C49434  10.828   4.444   8.244  0.5305 -0.6552 -0.0161
  359MOL0     O49435  10.838   4.560   8.179  0.3760  0.4221 -0.0967
  359MOL0     C49436  10.960   4.605   8.132  0.8844 -0.3119 -0.0941
  359MOL0     C49437  11.023   4.697   8.217 -0.3274 -0.4576  0.0393
  359MOL0     C49438  11.157   4.732   8.194  0.2499  0.0867  0.4133
  359MOL0     C49439  11.234   4.678   8.082  1.6294 -0.1724 -0.5263
  359MOL0     O49440  11.364   4.709   8.068  0.7245 -0.8996  0.0327
  359MOL0     C49441  11.429   4.793   8.168 -0.1532  0.2302 -0.2084
  359MOL0     C49442  11.569   4.806   8.128  0.5715 -0.2289 -0.2643
  359MOL0     C49443  11.648   4.909   8.210  0.4304  0.1365  0.1836
  359MOL0     C49444  11.774   4.965   8.129  0.0585  0.1873  0.1691
  359MOL0     C49445  11.855   5.059   8.227 -0.0980  0.4787 -0.2211
  359MOL0     C49446  11.807   5.197   8.202  0.6258 -0.2642  0.8959
  359MOL0     C49447  11.891   5.307   8.266 -0.9150  0.0202 -0.0806
  359MOL0     C49448  11.825   5.435   8.234  0.5894 -0.5489  0.1943
  359MOL0    Cl49449  11.896   5.501   8.084  0.6761  0.4296  0.1150
  359MOL0     C49450  11.174   4.574   8.012 -1.0573 -0.0433  0.1474
  359MOL0     C49451  11.032   4.544   8.025 -0.5017  0.2422 -0.4491
  359MOL0     O49452  10.924   4.366   8.253 -0.2745  0.8357  0.0197
  359MOL0     C49453  10.582   4.497   8.262  0.8685 -0.2225 -0.2737
  359MOL0     C49454  10.456   4.482   8.327 -0.8312 -0.1179 -0.2293
  359MOL0     N49455   9.793   4.622   8.539  0.9122 -0.4404 -0.5659
  359MOL0     N49456   9.743   4.712   8.473 -0.1370 -0.0744 -0.1491
  359MOL0     C49457   8.972   4.893   8.628  0.0624  0.0129  0.3981
  359MOL0     C49458   8.841   4.828   8.644 -0.3702 -0.7835 -0.1625
  359MOL0     C49459   8.422   4.727   8.733 -0.6281  0.1882 -0.2236
  359MOL0     C49460   8.311   4.802   8.709  0.3688 -0.3582 -0.5961
  359MOL0     C49461   8.184   4.757   8.669 -0.9772  0.6829  0.1741
  359MOL0     C49462   8.170   4.626   8.657 -0.0601  0.1038  0.3801
  359MOL0     O49463   8.050   4.566   8.617  0.3824 -0.0213  0.3118
  359MOL0     C49464   7.984   4.630   8.505 -0.1031 -0.0048  1.0143
  359MOL0     C49465   7.877   4.543   8.440 -0.2965  0.1543 -0.8919
  359MOL0     C49466   7.785   4.462   8.538  0.1533 -0.4008  0.1305
  359MOL0     C49467   7.674   4.389   8.454  0.0403 -0.4781 -0.4478
  359MOL0     C49468   7.585   4.488   8.391  0.3406 -0.0237 -0.6231
  359MOL0     C49469   7.498   4.556   8.349  0.5168  0.4385  0.5482
  359MOL0     C49470   8.279   4.533   8.684  0.5114  0.0657  0.0799
  359MOL0     C49471   8.405   4.589   8.722 -0.1874  0.2347 -0.0317
  359MOL0     C49472   8.518   4.491   8.762 -0.1059  0.3222 -0.0123
  359MOL0     H49473   8.762   4.885   8.959 -1.8542 -2.1800 -1.0404
  359MOL0     H49474   8.972   5.019   8.950  1.4442  1.3137 -1.4256
  359MOL0     H49475   9.213   4.858   8.631  0.0644  0.1319  1.9373
  359MOL0     H49476   9.319   4.919   8.752 -0.0212 -1.5808 -0.5557
  359MOL0     H49477   9.359   4.959   8.500 -0.0574  0.5233 -0.4932
  359MOL0     H49478   9.241   5.092   8.511 -1.9404 -1.4961  0.1624
  359MOL0     H49479   9.430   5.228   8.569  1.1745  1.0816  1.0510
  359MOL0     H49480   9.386   5.155   8.727 -0.6090 -1.6526  0.0359
  359MOL0     H49481   9.619   5.142   8.689  0.3244  1.8611 -2.2845
  359MOL0     H49482   9.560   4.976   8.667  0.0391 -0.4326 -1.4472
  359MOL0     H49483   9.622   5.181   8.447 -1.3112 -1.0981 -1.6963
  359MOL0     H49484   9.584   5.016   8.415 -1.7932  1.9530 -0.5255
  359MOL0     H49485   9.820   5.127   8.562 -2.4781  1.6018 -0.1971
  359MOL0     H49486   9.799   4.961   8.565 -2.4145 -2.1408 -0.6577
  359MOL0     H49487   9.958   5.024   8.400 -0.7246 -2.3296  4.0491
  359MOL0     H49488   9.832   5.109   8.309 -1.1278  2.2835  3.2460
  359MOL0     H49489   9.709   4.887   8.292  0.3416 -2.0674  0.5287
  359MOL0     H49490   9.875   4.867   8.221  3.4086  1.1082  1.3903
  359MOL0     H49491  10.051   4.716   8.375  0.7031 -1.2163  0.5117
  359MOL0     H49492  10.014   4.510   8.674 -1.4206  1.3748  0.1163
  359MOL0     H49493  10.130   4.535   8.546 -0.6580  3.0107 -0.7353
  359MOL0     H49494   9.902   4.323   8.502  0.5080  0.8931 -2.2525
  359MOL0     H49495  10.016   4.378   8.392 -0.7735 -0.0004 -0.3631
  359MOL0     H49496  10.063   4.204   8.641 -0.0512  2.1803  1.4558
  359MOL0     H49497  10.069   4.164   8.474 -0.0401  2.0145 -1.0921
  359MOL0     H49498  10.254   4.348   8.622 -0.8800 -0.3435  0.2265
  359MOL0     H49499  10.303   4.192   8.564  2.1634  0.4677  0.2221
  359MOL0     H49500  10.503   4.180   8.463  0.3981  1.5840  2.6188
  359MOL0     H49501  10.739   4.120   8.478  0.0053 -0.3112 -0.3248
  359MOL0     H49502  10.846   4.249   8.456  0.3415 -1.1850  1.2210
  359MOL0     H49503  10.803   4.145   8.312 -1.7078  0.0107 -1.0283
  359MOL0     H49504  10.966   4.733   8.302 -0.3673 -1.7220  0.5779
  359MOL0     H49505  11.200   4.812   8.254 -1.6506  2.7322 -1.5249
  359MOL0     H49506  11.386   4.893   8.181  0.0033  0.2924 -0.1643
  359MOL0     H49507  11.413   4.740   8.262  0.0062 -1.1846 -0.9485
  359MOL0     H49508  11.618   4.708   8.136 -2.2166 -1.7034  0.0846
  359MOL0     H49509  11.577   4.840   8.025 -1.6139  1.9341  0.1804
  359MOL0     H49510  11.662   4.865   8.309 -2.1325  1.2613  1.1423
  359MOL0     H49511  11.590   5.000   8.227  3.8096  2.2265  1.6453
  359MOL0     H49512  11.759   5.019   8.035  1.8822  0.5678  0.0491
  359MOL0     H49513  11.831   4.879   8.091  0.1085  1.1066 -1.9596
  359MOL0     H49514  11.838   5.013   8.324  1.3546 -0.0494 -0.1936
  359MOL0     H49515  11.960   5.052   8.195 -0.0819  0.6997 -0.2180
  359MOL0     H49516  11.700   5.204   8.225  0.6020 -0.3329  0.8057
  359MOL0     H49517  11.809   5.219   8.095 -1.4357  1.6004  1.1844
  359MOL0     H49518  11.990   5.304   8.221 -0.2835  1.7554  1.0608
  359MOL0     H49519  11.889   5.289   8.374 -0.8603  2.4111  0.3736
  359MOL0     H49520  11.844   5.493   8.325  0.7946 -0.2515 -0.0396
  359MOL0     H49521  11.716   5.435   8.226  0.4079  1.2024  1.9325
  359MOL0     H49522  11.222   4.516   7.933 -1.2180 -0.7293  0.5391
  359MOL0     H49523  10.985   4.461   7.974  0.0318 -2.4754  3.0901
  359MOL0     H49524  10.588   4.589   8.204 -1.4685 -0.6368 -1.2880
  359MOL0     H49525  10.388   4.566   8.319 -0.2875  0.3490  0.0196
  359MOL0     H49526   9.016   4.904   8.530  0.6802 -0.0591  0.6581
  359MOL0     H49527   8.806   4.774   8.557  0.0905 -1.6434  0.1686
  359MOL0     H49528   8.314   4.911   8.714 -1.6281 -0.2750 -0.2704
  359MOL0     H49529   8.098   4.820   8.648 -0.4823  0.5582 -2.5751
  359MOL0     H49530   7.924   4.712   8.545 -1.5967 -0.9422  0.7966
  359MOL0     H49531   8.054   4.672   8.432 -0.2264  0.7466  1.3219
  359MOL0     H49532   7.942   4.475   8.384  0.0739 -0.9767  0.8422
  359MOL0     H49533   7.814   4.598   8.369  0.2547  2.0820  0.0486
  359MOL0     H49534   7.849   4.390   8.590  0.5007 -0.1603  0.0412
  359MOL0     H49535   7.734   4.529   8.608 -1.6669 -1.4162 -0.1626
  359MOL0     H49536   7.607   4.318   8.503  0.4476 -2.3299 -2.4342
  359MOL0     H49537   7.732   4.333   8.380  0.4107  1.8159 -1.9940
  359MOL0     H49538   7.431   4.624   8.302 -0.2340  0.4330  1.5611
  359MOL0     H49539   8.257   4.428   8.668 -2.5697  0.9076 -2.4296
  359MOL0     H49540   8.474   4.392   8.747  0.9816  0.1322 -2.3409
  359MOL0     H49541   8.614   4.495   8.709 -0.0456  1.0402  0.1457
  359MOL0     H49542   8.544   4.509   8.867  2.2246 -0.9673 -0.2880
  360MOL0     O49543  11.037  10.095  11.260 -0.4038 -0.4984  0.5082
  360MOL0     C49544  11.053  10.183  11.180 -0.1013  0.3655  0.3126
  360MOL0     O49545  11.177  10.237  11.139  0.4321 -0.3149 -0.3959
  360MOL0     C49546  11.283  10.199  11.218 -0.1611  0.3238  0.6822
  360MOL0     C49547  11.313  10.244  11.343 -0.0940  0.1350  0.3303
  360MOL0     C49548  11.429  10.191  11.408  0.0429 -0.8109 -0.3457
  360MOL0     C49549  11.514  10.097  11.358  0.9660 -0.3377  0.5179
  360MOL0     O49550  11.610  10.033  11.430  0.1417  0.9195  0.0723
  360MOL0     C49551  11.714   9.971  11.360  0.1042  0.3657  0.4627
  360MOL0     C49552  11.810   9.906  11.453 -0.7550  0.1909 -0.5797
  360MOL0     C49553  11.869   9.992  11.565  0.5043 -1.5149 -0.5569
  360MOL0     C49554  11.998  10.073  11.515 -1.3458 -0.6762  0.0770
  360MOL0     C49555  12.061  10.161  11.628  0.1855  0.5198 -0.2765
  360MOL0     C49556  12.178  10.254  11.575  0.4841  1.7344  0.1292
  360MOL0     C49557  12.246  10.326  11.702 -0.2718  0.0339 -0.0694
  360MOL0     C49558  12.372  10.417  11.668 -0.1688  0.0341 -0.7771
  360MOL0     N49559  12.416  10.474  11.798  0.3532 -0.7429  0.0280
  360MOL0     C49560  12.524  10.427  11.868  1.7582  0.4634  0.5578
  360MOL0     C49561  12.488  10.489  11.992  0.2709 -0.5821 -0.3589
  360MOL0     C49562  12.566  10.471  12.121 -0.2338 -0.3939  0.8013
  360MOL0     C49563  12.672  10.592  12.116  1.0842  0.1457  0.1314
  360MOL0     C49564  12.768  10.603  11.996  0.4393  0.6812  0.4728
  360MOL0     C49565  12.873  10.487  11.994 -0.0031  0.2601 -0.5660
  360MOL0     O49566  12.941  10.471  12.120  0.8157 -0.2654 -0.5953
  360MOL0     C49567  13.068  10.413  12.122 -0.7588 -0.2711 -0.4035
  360MOL0     C49568  13.152  10.447  12.224 -0.2829 -0.4576 -0.8515
  360MOL0     C49569  13.274  10.380  12.256  0.3078 -0.1077 -0.0675
  360MOL0     C49570  13.367  10.434  12.363  0.6098 -0.6033  0.1097
  360MOL0     C49571  13.315  10.276  12.173 -0.4218  0.0520  0.4467
  360MOL0     C49572  13.431  10.186  12.192 -0.7055 -0.2298 -0.0190
  360MOL0     O49573  13.458  10.100  12.090  0.4800 -0.6656 -0.5522
  360MOL0     C49574  13.568  10.022  12.106  0.2169 -0.4271 -0.8457
  360MOL0     C49575  13.670  10.037  12.012 -0.0034 -0.0666  0.2583
  360MOL0     C49576  13.789   9.949  12.007  0.6560  0.0706 -0.0604
  360MOL0     C49577  13.793   9.841  12.099 -0.7339 -0.3689  0.5007
  360MOL0     O49578  13.899   9.759  12.084 -0.3950  0.7376 -0.4950
  360MOL0     C49579  14.042   9.794  12.095  0.1036 -0.1509  0.5597
  360MOL0     C49580  14.051   9.893  12.212  0.4022 -0.2927 -0.9755
  360MOL0     C49581  14.186   9.961  12.214 -0.8685 -0.6644  0.0032
  360MOL0     C49582  14.182  10.095  12.147  0.7954 -0.6425  0.3712
  360MOL0     C49583  14.320  10.145  12.116  0.0795  0.2287 -0.1399
  360MOL0     C49584  14.376  10.201  12.238  0.4739 -0.4869 -0.4263
  360MOL0     C49585  14.526  10.258  12.234 -0.4350 -0.7035 -0.5592
  360MOL0     C49586  14.621  10.145  12.204  0.7186 -0.5490 -0.3049
  360MOL0    Cl49587  14.782  10.221  12.134  0.1154  0.3982 -0.5955
  360MOL0     C49588  13.694   9.831  12.199  0.2058  0.1455 -0.6464
  360MOL0     C49589  13.582   9.922  12.199 -0.2014 -0.4434 -0.5960
  360MOL0     O49590  13.492  10.193  12.295 -0.1516 -0.2094 -0.6891
  360MOL0     C49591  13.236  10.260  12.050  0.0803  0.2686 -0.1798
  360MOL0     C49592  13.117  10.324  12.026 -0.6533  0.6583 -0.3903
  360MOL0     N49593  12.400  10.596  11.976  0.5864  0.7506 -0.1700
  360MOL0     N49594  12.361  10.585  11.851 -0.4576 -0.1430 -0.6908
  360MOL0     C49595  11.485  10.059  11.223 -0.2635 -0.3131  0.0066
  360MOL0     C49596  11.376  10.114  11.155  0.3578  0.2745  0.0999
  360MOL0     C49597  10.936  10.202  11.090 -0.2425  0.2503  0.2109
  360MOL0     C49598  10.958  10.200  10.953 -0.2122 -0.0416  0.2348
  360MOL0     C49599  10.849  10.216  10.862  0.3480 -0.1525  0.0534
  360MOL0     C49600  10.721  10.239  10.907  0.8138  0.3094  0.0751
  360MOL0     O49601  10.631  10.261  10.807  0.2898 -0.5099  0.2558
  360MOL0     C49602  10.487  10.285  10.821 -0.3132 -0.5011 -0.3335
  360MOL0     C49603  10.484  10.422  10.888  0.4372 -0.4490  0.6718
  360MOL0     C49604  10.347  10.493  10.878  0.7733  0.7692  0.1689
  360MOL0     C49605  10.345  10.651  10.913  0.9920  0.2371 -0.6811
  360MOL0     C49606  10.455  10.712  10.853  0.2182  0.1673  0.8061
  360MOL0     C49607  10.558  10.754  10.801 -0.2523  0.5982  0.5821
  360MOL0     C49608  10.695  10.242  11.042 -0.4700 -0.8037 -0.3019
  360MOL0     C49609  10.803  10.228  11.138 -0.3214  0.7517  0.6683
  360MOL0     C49610  10.776  10.227  11.282  0.2469 -0.4176 -0.5091
  360MOL0     H49611  11.244  10.304  11.400  1.2692  0.6211  1.5454
  360MOL0     H49612  11.429  10.214  11.514  2.4202 -2.0017 -0.0335
  360MOL0     H49613  11.777  10.035  11.298  1.0822 -1.0803 -0.0841
  360MOL0     H49614  11.676   9.892  11.295 -0.3505  1.4196 -0.5845
  360MOL0     H49615  11.749   9.831  11.506 -1.3087  1.2548  0.3311
  360MOL0     H49616  11.880   9.843  11.397 -1.7308 -2.2552  0.7798
  360MOL0     H49617  11.796  10.062  11.607  3.2995  0.2865  1.6518
  360MOL0     H49618  11.892   9.921  11.644 -1.7454 -2.2011 -0.4559
  360MOL0     H49619  12.071   9.995  11.493 -1.6028 -1.1849  0.9806
  360MOL0     H49620  11.983  10.137  11.428  1.3240  1.2997  0.9497
  360MOL0     H49621  12.095  10.104  11.715 -0.6739  0.2336 -0.1184
  360MOL0     H49622  11.982  10.223  11.672 -2.7780 -1.3412 -2.5452
  360MOL0     H49623  12.253  10.196  11.519  0.7923 -0.7259  2.8427
  360MOL0     H49624  12.128  10.331  11.515 -2.1293  0.3856  0.4375
  360MOL0     H49625  12.277  10.260  11.783  1.2181  1.3686  0.5134
  360MOL0     H49626  12.166  10.388  11.743 -0.9195  0.7663 -2.2961
  360MOL0     H49627  12.455  10.358  11.628  0.6227  1.0372 -0.6502
  360MOL0     H49628  12.349  10.498  11.598 -1.2431  0.7697  0.3845
  360MOL0     H49629  12.605  10.356  11.856  0.7216 -0.8940  1.4419
  360MOL0     H49630  12.609  10.371  12.118  0.3146 -0.2237  2.3180
  360MOL0     H49631  12.492  10.488  12.200  0.0150  3.6468  0.4075
  360MOL0     H49632  12.604  10.677  12.111 -1.0313 -1.5106 -0.9097
  360MOL0     H49633  12.726  10.591  12.211  2.0795 -1.9678 -0.3979
  360MOL0     H49634  12.727  10.606  11.895  0.6480  0.9849  0.3944
  360MOL0     H49635  12.817  10.701  11.998  2.4092 -0.1553 -1.8092
  360MOL0     H49636  12.818  10.396  11.969  0.6060 -1.1508  2.7722
  360MOL0     H49637  12.943  10.500  11.911  0.2045 -1.8291 -0.7860
  360MOL0     H49638  13.133  10.528  12.293  2.2705 -0.4092 -0.1007
  360MOL0     H49639  13.467  10.466  12.332  0.6786 -0.5238  0.4069
  360MOL0     H49640  13.366  10.361  12.445 -1.4126 -0.1025  0.5822
  360MOL0     H49641  13.316  10.522  12.404  1.8776 -0.8093  2.2841
  360MOL0     H49642  13.650  10.109  11.933 -2.1303 -1.0033 -0.1056
  360MOL0     H49643  13.858   9.974  11.927  0.2623  0.7150 -0.2036
  360MOL0     H49644  14.106   9.706  12.112  1.9420  0.4514 -2.4967
  360MOL0     H49645  14.085   9.832  12.002  1.8521  0.1633  1.4449
  360MOL0     H49646  13.978   9.973  12.199 -0.9348 -1.6175 -1.9814
  360MOL0     H49647  14.031   9.841  12.306  1.4265  0.3030 -0.4023
  360MOL0     H49648  14.267   9.900  12.173  1.8102  1.0132  2.4198
  360MOL0     H49649  14.208   9.969  12.321 -2.3367 -2.2971  0.4630
  360MOL0     H49650  14.126  10.166  12.209  1.8491 -1.2602  2.0794
  360MOL0     H49651  14.139  10.085  12.047  2.6709  1.8600 -0.7930
  360MOL0     H49652  14.383  10.060  12.088 -0.4012 -1.3284  3.0362
  360MOL0     H49653  14.326  10.222  12.038 -2.2870  0.6769  0.0429
  360MOL0     H49654  14.355  10.131  12.319  0.5693 -0.7275 -0.6086
  360MOL0     H49655  14.309  10.285  12.257  0.8872 -0.2289 -0.0696
  360MOL0     H49656  14.553  10.297  12.333 -0.0837 -2.2553 -0.0129
  360MOL0     H49657  14.528  10.338  12.160  0.0178  2.3306  2.5074
  360MOL0     H49658  14.578  10.063  12.147 -1.3491  1.0211 -1.1257
  360MOL0     H49659  14.628  10.103  12.305 -2.1426  0.6673  0.4975
  360MOL0     H49660  13.704   9.747  12.267 -0.4793 -0.5838 -1.4220
  360MOL0     H49661  13.503   9.904  12.271 -1.6042 -1.7319 -2.3555
  360MOL0     H49662  13.265  10.191  11.972 -0.1205 -2.0472  1.6676
  360MOL0     H49663  13.050  10.299  11.944 -0.3804  0.0645 -0.4349
  360MOL0     H49664  11.529   9.981  11.161  0.3699  1.2599 -1.6147
  360MOL0     H49665  11.360  10.087  11.051 -1.6312 -0.5727  0.5665
  360MOL0     H49666  11.058  10.178  10.917 -0.6925 -1.3928 -0.3321
  360MOL0     H49667  10.852  10.222  10.754 -3.2589  1.1873 -0.1071
  360MOL0     H49668  10.438  10.298  10.724  2.1772 -1.5437 -1.8424
  360MOL0     H49669  10.446  10.202  10.878 -0.9000  1.2754  1.9720
  360MOL0     H49670  10.555  10.482  10.831 -2.1185  1.3757 -0.7918
  360MOL0     H49671  10.515  10.423  10.993  0.1515 -0.7200  0.7600
  360MOL0     H49672  10.303  10.483  10.778  0.2703  1.1285  0.3482
  360MOL0     H49673  10.279  10.449  10.951  0.7697 -1.6165 -1.1798
  360MOL0     H49674  10.344  10.660  11.022 -1.2785  1.5939 -0.7487
  360MOL0     H49675  10.251  10.696  10.879 -0.2808 -2.4459 -0.9747
  360MOL0     H49676  10.629  10.805  10.739 -1.2285  1.0352 -0.2086
  360MOL0     H49677  10.596  10.253  11.083 -0.4110  1.9379 -0.7465
  360MOL0     H49678  10.784  10.138  11.345 -1.9944  0.2655  0.8995
  360MOL0     H49679  10.848  10.300  11.320  0.4162  0.3948 -2.3025
  360MOL0     H49680  10.671  10.257  11.298  0.2159 -1.8533  2.6833
  361MOL0     O49681   3.592   2.905   9.436  0.3240  0.4595 -0.4498
  361MOL0     C49682   3.576   3.023   9.466 -0.9397  0.2536 -1.0843
  361MOL0     O49683   3.682   3.111   9.498  0.3880  0.2158  0.2204
  361MOL0     C49684   3.807   3.060   9.486 -0.6903 -0.6742 -0.0240
  361MOL0     C49685   3.868   3.058   9.354 -0.8881 -1.2382 -0.6586
  361MOL0     C49686   4.004   3.037   9.341  0.8343 -0.2618  0.4452
  361MOL0     C49687   4.075   2.999   9.457 -0.2603  0.7445  1.0390
  361MOL0     O49688   4.206   2.964   9.445 -0.2636  0.3735  1.0265
  361MOL0     C49689   4.280   2.971   9.315  0.0811 -0.2927 -0.9591
  361MOL0     C49690   4.428   2.929   9.332 -0.0012 -1.0257 -0.6965
  361MOL0     C49691   4.501   2.942   9.200  0.6735 -0.3188  0.4265
  361MOL0     C49692   4.609   2.832   9.182 -0.3686 -0.7207  0.4707
  361MOL0     C49693   4.710   2.822   9.295 -0.3049 -0.4675 -0.7744
  361MOL0     C49694   4.845   2.750   9.259 -0.4670 -0.6105  0.1307
  361MOL0     C49695   4.958   2.787   9.364  0.1270 -0.1800  0.8275
  361MOL0     C49696   5.033   2.922   9.347 -0.9623 -0.8234 -0.5236
  361MOL0     N49697   5.098   2.959   9.473 -0.5276 -0.3453 -0.5178
  361MOL0     C49698   5.232   2.942   9.499 -0.0726  1.1605 -0.0288
  361MOL0     C49699   5.238   2.958   9.633  1.0162  0.2870  0.8483
  361MOL0     C49700   5.363   2.970   9.719 -1.1229 -0.4580 -0.2916
  361MOL0     C49701   5.490   2.899   9.669 -0.8051 -0.2388 -0.7519
  361MOL0     C49702   5.621   2.921   9.744 -1.1590  0.5594  0.2525
  361MOL0     C49703   5.748   2.863   9.691 -0.3187  0.1923  0.4730
  361MOL0     O49704   5.843   2.897   9.795  0.4541 -0.5882  0.6543
  361MOL0     C49705   5.942   2.811   9.838  0.2376  0.1151 -0.3741
  361MOL0     C49706   6.012   2.849   9.953 -0.6615  0.2692 -0.2943
  361MOL0     C49707   6.126   2.776   9.998 -0.2275 -0.2705  0.1526
  361MOL0     C49708   6.210   2.835  10.110  0.0625 -0.4096  0.3012
  361MOL0     C49709   6.159   2.655   9.933 -0.0733 -0.3154  0.2042
  361MOL0     C49710   6.278   2.563   9.965  0.1082 -0.0240 -0.2712
  361MOL0     O49711   6.286   2.441   9.903 -0.0143 -0.5701  0.0836
  361MOL0     C49712   6.379   2.356   9.943 -0.2720  0.7405 -0.2277
  361MOL0     C49713   6.353   2.257  10.044  0.1299 -0.4896  0.3434
  361MOL0     C49714   6.451   2.177  10.085 -0.1777 -0.2388 -0.8969
  361MOL0     C49715   6.588   2.200  10.036  0.8165  0.2142 -0.0880
  361MOL0     O49716   6.684   2.114  10.082  0.3093  0.1079  0.3874
  361MOL0     C49717   6.766   2.055   9.975  0.0507 -0.4729 -0.9366
  361MOL0     C49718   6.909   2.039  10.002 -1.1086  0.2689 -0.6220
  361MOL0     C49719   6.992   2.163  10.006  0.1249 -0.0478 -0.0805
  361MOL0     C49720   7.142   2.140  10.048  0.1444  0.0884 -0.4378
  361MOL0     C49721   7.221   2.273  10.041 -0.6072 -0.1956  0.4698
  361MOL0     C49722   7.375   2.252  10.065 -0.1345 -0.2982 -0.0484
  361MOL0     C49723   7.459   2.379  10.056 -0.0972 -0.0864 -0.2899
  361MOL0     C49724   7.599   2.370  10.122 -0.7644  0.4116 -0.0378
  361MOL0    Cl49725   7.677   2.523  10.101 -0.1678  0.4734 -0.0232
  361MOL0     C49726   6.622   2.304   9.940 -0.7334  0.0215 -0.9040
  361MOL0     C49727   6.514   2.383   9.895 -0.1753 -0.0179 -0.4992
  361MOL0     O49728   6.365   2.611  10.033 -0.0370  0.5289 -0.2724
  361MOL0     C49729   6.070   2.607   9.825 -0.0646 -0.2609 -0.2969
  361MOL0     C49730   5.972   2.688   9.769  0.3395 -0.0369  0.0311
  361MOL0     N49731   5.114   2.971   9.689 -0.1876  0.2305  0.1958
  361MOL0     N49732   5.029   2.982   9.587 -0.2326  0.5788  0.2388
  361MOL0     C49733   4.014   2.982   9.574  0.1577  0.2146 -0.5580
  361MOL0     C49734   3.883   3.015   9.598  0.5490  0.7034  0.3220
  361MOL0     C49735   3.444   3.085   9.500  0.4786 -0.0318 -0.5528
  361MOL0     C49736   3.431   3.216   9.544 -0.6185 -0.5164 -0.2594
  361MOL0     C49737   3.307   3.284   9.552  0.1300  0.1667  0.0905
  361MOL0     C49738   3.190   3.225   9.520  0.6574 -0.3638 -0.0187
  361MOL0     O49739   3.076   3.310   9.527  0.7553  0.0709 -0.0297
  361MOL0     C49740   2.950   3.257   9.486  0.3379 -0.0172 -0.1018
  361MOL0     C49741   2.842   3.355   9.509 -0.2778  0.0931 -0.0475
  361MOL0     C49742   2.694   3.297   9.482 -0.0946  0.0053  0.5715
  361MOL0     C49743   2.589   3.370   9.568 -0.0741  0.3457  1.5164
  361MOL0     C49744   2.605   3.518   9.551 -0.0504  0.3786 -0.2668
  361MOL0     C49745   2.615   3.634   9.542 -0.8161 -0.2842  0.1707
  361MOL0     C49746   3.195   3.088   9.483  0.0358  0.2716  0.7085
  361MOL0     C49747   3.319   3.019   9.471  0.0520  0.1598  0.1240
  361MOL0     C49748   3.300   2.872   9.405  0.2199  0.1649  0.8732
  361MOL0     H49749   3.804   3.078   9.269 -0.5706  2.8018 -0.1260
  361MOL0     H49750   4.060   3.042   9.249 -1.1780 -1.6286 -0.9534
  361MOL0     H49751   4.273   3.078   9.293  0.4568  0.8533  3.5585
  361MOL0     H49752   4.225   2.919   9.236 -1.9962 -1.2414  1.0038
  361MOL0     H49753   4.475   2.987   9.412 -1.5606  2.0029 -1.8283
  361MOL0     H49754   4.430   2.823   9.360  1.6837 -0.7243  0.4543
  361MOL0     H49755   4.439   2.934   9.110  2.6845 -1.6067 -0.9194
  361MOL0     H49756   4.555   3.037   9.198 -1.3015  0.8693 -1.7538
  361MOL0     H49757   4.566   2.733   9.166 -0.2930 -1.4227  3.7447
  361MOL0     H49758   4.656   2.864   9.089 -2.7135  0.4340 -0.4019
  361MOL0     H49759   4.669   2.773   9.384  3.2318  0.8414  1.7961
  361MOL0     H49760   4.741   2.925   9.316  0.7694 -0.9220 -0.0487
  361MOL0     H49761   4.833   2.641   9.253  3.1653 -1.0502 -1.8904
  361MOL0     H49762   4.881   2.785   9.162  0.1966  0.0927  0.6238
  361MOL0     H49763   5.028   2.707   9.339 -1.5639 -0.6403 -3.2059
  361MOL0     H49764   4.916   2.771   9.463  1.4994 -1.9536  1.1781
  361MOL0     H49765   5.105   2.898   9.267 -2.2978 -2.7837 -1.2289
  361MOL0     H49766   4.959   2.994   9.312 -0.1496 -0.4614 -1.5764
  361MOL0     H49767   5.303   2.904   9.426 -0.3434 -0.6929  0.5979
  361MOL0     H49768   5.328   2.949   9.820  0.3322  0.0948  0.3649
  361MOL0     H49769   5.381   3.077   9.726 -1.7400 -0.4238  1.1403
  361MOL0     H49770   5.465   2.794   9.655 -0.8426 -0.0071 -2.5782
  361MOL0     H49771   5.503   2.941   9.569 -1.0473 -0.5587 -0.9176
  361MOL0     H49772   5.638   3.029   9.751 -2.2036  0.8688 -1.4036
  361MOL0     H49773   5.604   2.874   9.841  2.2095 -0.1759  0.5814
  361MOL0     H49774   5.729   2.757   9.675 -0.7842  0.7290 -3.7530
  361MOL0     H49775   5.783   2.900   9.594 -0.1888 -0.6476  0.1988
  361MOL0     H49776   5.982   2.939  10.006  0.8499  2.4777 -2.9005
  361MOL0     H49777   6.318   2.828  10.091 -0.0474 -0.7361 -0.2174
  361MOL0     H49778   6.188   2.783  10.204  0.6341  0.2440  0.8067
  361MOL0     H49779   6.195   2.942  10.121  1.8986 -0.1658  0.8853
  361MOL0     H49780   6.251   2.242  10.076 -0.2106 -2.5786 -1.4359
  361MOL0     H49781   6.445   2.114  10.174  1.8738 -0.1853 -0.6753
  361MOL0     H49782   6.736   1.952   9.956 -0.5728 -0.9619  2.2188
  361MOL0     H49783   6.743   2.110   9.883  0.7940  0.7417 -0.4230
  361MOL0     H49784   6.926   1.984  10.095 -0.1339 -1.4728 -1.7600
  361MOL0     H49785   6.959   1.973   9.930  2.2896  1.1314  0.7271
  361MOL0     H49786   6.955   2.237  10.078 -0.2053  1.3887 -1.6622
  361MOL0     H49787   6.989   2.205   9.905  0.6447 -1.7997 -0.8593
  361MOL0     H49788   7.188   2.065   9.983 -0.0019  0.5590 -1.1021
  361MOL0     H49789   7.162   2.100  10.147  0.4625  0.7457 -0.2270
  361MOL0     H49790   7.211   2.307   9.937  1.1882 -1.3196 -0.1057
  361MOL0     H49791   7.195   2.351  10.113  0.6553 -0.8724  1.7030
  361MOL0     H49792   7.414   2.179   9.994  0.6453  0.3986 -0.3536
  361MOL0     H49793   7.381   2.216  10.168  1.9489 -2.4238 -0.8287
  361MOL0     H49794   7.417   2.457  10.120  0.9519  2.3223 -2.3435
  361MOL0     H49795   7.461   2.424   9.956  1.7329 -0.7732 -0.6168
  361MOL0     H49796   7.662   2.295  10.074 -0.1167 -0.0349  1.4606
  361MOL0     H49797   7.594   2.354  10.230  2.1017  2.8717  0.6074
  361MOL0     H49798   6.726   2.321   9.914 -0.5867 -0.1580 -0.4463
  361MOL0     H49799   6.531   2.464   9.825 -0.9886 -0.7429 -1.5749
  361MOL0     H49800   6.094   2.515   9.773 -1.6991 -0.2228 -1.1644
  361MOL0     H49801   5.922   2.658   9.678  1.3927  0.9263 -0.8854
  361MOL0     H49802   4.072   2.950   9.660 -0.4675  0.3213 -0.0865
  361MOL0     H49803   3.836   2.995   9.695  0.9706 -0.9293  0.2160
  361MOL0     H49804   3.524   3.269   9.563 -0.4960 -0.8838  0.1916
  361MOL0     H49805   3.301   3.391   9.563  1.4810  0.1808  0.8705
  361MOL0     H49806   2.950   3.237   9.378 -2.2524 -0.8081 -0.0300
  361MOL0     H49807   2.921   3.161   9.530 -0.4696 -0.5275 -1.6442
  361MOL0     H49808   2.859   3.440   9.443 -3.2499  0.4421 -0.5211
  361MOL0     H49809   2.852   3.389   9.613  0.5248 -0.9988  0.2524
  361MOL0     H49810   2.658   3.311   9.380 -3.1209 -1.4802  1.3407
  361MOL0     H49811   2.694   3.192   9.514 -0.4823 -0.5373 -1.1095
  361MOL0     H49812   2.598   3.344   9.673  3.4229  0.6266  1.4040
  361MOL0     H49813   2.492   3.335   9.531  0.3785  0.7588 -0.1877
  361MOL0     H49814   2.618   3.741   9.535  2.4743 -0.4059 -2.8601
  361MOL0     H49815   3.109   3.030   9.450  2.0529 -1.1235 -2.6102
  361MOL0     H49816   3.211   2.865   9.342  2.2950  0.3361 -2.2463
  361MOL0     H49817   3.387   2.846   9.345  0.9218  3.4317  0.2979
  361MOL0     H49818   3.298   2.799   9.487  1.8169 -2.6532 -1.4334
  362MOL0     O49819   0.770   4.187   0.761  0.3323  0.3623  0.5201
  362MOL0     C49820   0.750   4.297   0.813  0.0428 -0.4871 -0.1652
  362MOL0     O49821   0.834   4.340   0.922  0.2610 -0.3116 -0.6465
  362MOL0     C49822   0.943   4.259   0.948 -0.4773 -0.3492 -0.7638
  362MOL0     C49823   1.070   4.264   0.883  0.2880  0.2304 -0.3208
  362MOL0     C49824   1.175   4.179   0.915 -0.8133 -0.2327  0.6316
  362MOL0     C49825   1.157   4.094   1.021  0.4812 -0.4166 -0.6894
  362MOL0     O49826   1.250   4.004   1.062 -0.1469  0.5124  0.1326
  362MOL0     C49827   1.336   3.948   0.962  0.1888  0.1979  0.1676
  362MOL0     C49828   1.390   3.823   1.023  0.3417  0.2098  0.3500
  362MOL0     C49829   1.523   3.773   0.961  0.1344  0.7071  0.5948
  362MOL0     C49830   1.588   3.654   1.030 -0.3449  0.1481 -0.5409
  362MOL0     C49831   1.727   3.628   0.979 -0.3228  0.2451  0.1003
  362MOL0     C49832   1.835   3.708   1.050 -0.4389  0.1474 -0.1913
  362MOL0     C49833   1.977   3.646   1.021 -0.1536  0.0963 -0.8410
  362MOL0     C49834   1.990   3.495   1.060  0.0081 -0.3285  0.2271
  362MOL0     N49835   2.137   3.447   1.064  0.1725  0.1101  0.0358
  362MOL0     C49836   2.244   3.526   1.037 -0.2916  0.1617 -0.3563
  362MOL0     C49837   2.349   3.443   1.036 -0.5523 -0.2037 -0.2361
  362MOL0     C49838   2.491   3.492   1.023 -1.3532 -0.1969  0.4744
  362MOL0     C49839   2.580   3.382   0.965 -0.5966  1.1309 -0.0449
  362MOL0     C49840   2.727   3.419   0.971  0.3837 -0.1990 -0.5784
  362MOL0     C49841   2.754   3.529   0.865  0.0057  0.7339  0.9549
  362MOL0     O49842   2.897   3.533   0.837  0.1860  0.2188 -0.2360
  362MOL0     C49843   2.942   3.667   0.822  0.4175 -0.1134  0.3488
  362MOL0     C49844   2.916   3.736   0.707  0.5085 -0.2848 -0.6317
  362MOL0     C49845   2.972   3.866   0.685 -0.4620 -0.1579 -0.4939
  362MOL0     C49846   2.973   3.925   0.547 -0.8881  0.0514  0.0251
  362MOL0     C49847   3.038   3.934   0.792 -0.2231 -0.5724  0.4064
  362MOL0     C49848   3.087   4.075   0.800  0.3931 -1.0103 -0.5539
  362MOL0     O49849   3.119   4.123   0.928 -0.0067  0.3086 -0.4123
  362MOL0     C49850   3.123   4.257   0.939 -0.6384  0.0660  0.9900
  362MOL0     C49851   3.016   4.353   0.905  0.6363 -0.4051  0.6043
  362MOL0     C49852   3.040   4.488   0.931 -0.5873  0.3738 -0.3161
  362MOL0     C49853   3.165   4.529   0.987  0.4148 -0.0011 -1.6452
  362MOL0     O49854   3.210   4.657   1.010 -0.5644  0.4387 -0.2372
  362MOL0     C49855   3.148   4.758   0.941  0.3434  0.0282 -0.6876
  362MOL0     C49856   3.228   4.890   0.965 -0.4804  0.2819  0.2826
  362MOL0     C49857   3.374   4.877   0.912 -0.4204 -0.0444  0.1937
  362MOL0     C49858   3.390   4.898   0.762 -0.4693  0.1457  0.0969
  362MOL0     C49859   3.539   4.930   0.720  0.1951 -0.1381 -0.6785
  362MOL0     C49860   3.622   4.807   0.736 -0.3795 -0.6966  0.1160
  362MOL0     C49861   3.746   4.795   0.646  0.1456  0.0215  0.1632
  362MOL0     C49862   3.829   4.675   0.688 -0.6344  0.7872 -0.5643
  362MOL0    Cl49863   3.874   4.686   0.867 -0.3737 -0.4351  0.1459
  362MOL0     C49864   3.262   4.442   1.020  0.3872 -0.5521 -0.1660
  362MOL0     C49865   3.241   4.305   0.986  0.4429 -0.4813 -0.0080
  362MOL0     O49866   3.107   4.149   0.699  0.3877  0.0150  0.0433
  362MOL0     C49867   3.061   3.850   0.908  0.1217 -0.5186  0.3951
  362MOL0     C49868   3.020   3.725   0.923  0.4417  1.1748 -0.5929
  362MOL0     N49869   2.302   3.316   1.054 -0.7874 -0.7080  0.2813
  362MOL0     N49870   2.183   3.316   1.085  0.0466 -0.9256 -0.2364
  362MOL0     C49871   1.034   4.090   1.091 -0.1365  0.1611  0.6823
  362MOL0     C49872   0.927   4.171   1.055  0.7634  0.2219  0.5178
  362MOL0     C49873   0.647   4.386   0.756  0.3873 -0.0576 -0.0978
  362MOL0     C49874   0.541   4.322   0.687 -0.2030  0.0075 -0.1008
  362MOL0     C49875   0.437   4.393   0.644  0.2274 -1.2401 -0.0723
  362MOL0     C49876   0.438   4.537   0.642  0.4333 -0.6921 -0.5617
  362MOL0     O49877   0.337   4.625   0.610  0.2259 -0.0958 -0.4432
  362MOL0     C49878   0.216   4.578   0.557  0.1364 -0.7310  0.1393
  362MOL0     C49879   0.125   4.694   0.546  0.3763 -0.1902  0.3835
  362MOL0     C49880  -0.017   4.650   0.492  0.5045  0.2477 -1.1486
  362MOL0     C49881  -0.105   4.773   0.517  0.8282  0.0311 -0.2448
  362MOL0     C49882  -0.076   4.889   0.430 -0.3756  1.3641 -0.3534
  362MOL0     C49883  -0.057   4.979   0.355 -0.1381  0.0916 -0.2731
  362MOL0     C49884   0.546   4.603   0.709  1.5987  0.5314  0.4572
  362MOL0     C49885   0.652   4.525   0.767  0.3808 -0.4892  0.3022
  362MOL0     C49886   0.750   4.611   0.851 -0.5920 -0.2285 -0.6957
  362MOL0     H49887   1.090   4.335   0.804  2.7728 -1.2215 -1.0851
  362MOL0     H49888   1.268   4.180   0.858 -0.9174  0.6281  0.4569
  362MOL0     H49889   1.426   4.010   0.965 -0.1482  0.6718  0.7145
  362MOL0     H49890   1.295   3.933   0.862 -2.4315  2.0720  0.8538
  362MOL0     H49891   1.407   3.842   1.129 -2.3227  3.3216  0.4115
  362MOL0     H49892   1.314   3.745   1.012  1.1102 -0.2529 -2.6475
  362MOL0     H49893   1.495   3.744   0.859  0.0819  0.1163  0.7777
  362MOL0     H49894   1.594   3.856   0.957  2.0855 -0.8809 -3.1946
  362MOL0     H49895   1.600   3.671   1.137 -0.4621 -2.4728 -0.0302
  362MOL0     H49896   1.526   3.563   1.028 -0.1651 -0.0768 -4.5111
  362MOL0     H49897   1.719   3.653   0.873  1.0450 -1.3614 -0.4268
  362MOL0     H49898   1.747   3.521   0.991  1.6620  0.4628 -0.9208
  362MOL0     H49899   1.819   3.811   1.016  0.3893  0.2390 -0.3477
  362MOL0     H49900   1.820   3.714   1.158 -2.9281 -1.7099 -0.3455
  362MOL0     H49901   2.047   3.703   1.083  0.0691 -0.9091 -0.1518
  362MOL0     H49902   1.995   3.666   0.915 -0.5368  2.7211 -0.4850
  362MOL0     H49903   1.947   3.467   1.156  0.9690 -2.4075  0.1011
  362MOL0     H49904   1.944   3.428   0.987  1.7170 -0.1465 -1.0911
  362MOL0     H49905   2.242   3.634   1.024  0.4165  0.0636 -1.4048
  362MOL0     H49906   2.548   3.528   1.109  0.7669  1.9511 -1.6796
  362MOL0     H49907   2.490   3.571   0.947  0.7804 -1.0265 -0.5058
  362MOL0     H49908   2.570   3.291   1.024 -0.8154 -0.3025 -2.1732
  362MOL0     H49909   2.548   3.361   0.862 -3.8729 -1.6958  1.3356
  362MOL0     H49910   2.751   3.445   1.074  3.2660 -2.1135 -0.6459
  362MOL0     H49911   2.797   3.340   0.942 -0.5764 -0.5443 -2.0974
  362MOL0     H49912   2.705   3.506   0.770 -0.7233  1.4637  1.1465
  362MOL0     H49913   2.713   3.628   0.884  1.1347  2.0418 -2.6049
  362MOL0     H49914   2.868   3.676   0.630 -0.0812  0.1832 -0.6340
  362MOL0     H49915   3.075   3.956   0.523 -0.2310 -1.6282  0.4810
  362MOL0     H49916   2.907   4.012   0.545 -1.8483 -0.6051 -3.1731
  362MOL0     H49917   2.951   3.850   0.471 -2.2938  2.1259 -1.7234
  362MOL0     H49918   2.926   4.315   0.860  0.9027 -1.5322  0.9898
  362MOL0     H49919   2.961   4.562   0.921 -0.4299  0.7276  0.9678
  362MOL0     H49920   3.143   4.731   0.835  0.0297 -0.0544 -0.6509
  362MOL0     H49921   3.047   4.763   0.981  0.8220  2.7207  0.4068
  362MOL0     H49922   3.175   4.970   0.912 -1.8901 -0.0722  1.0964
  362MOL0     H49923   3.232   4.919   1.071  1.0257  0.1372  0.2758
  362MOL0     H49924   3.431   4.792   0.951 -0.4966 -0.0715  0.2455
  362MOL0     H49925   3.428   4.960   0.959  2.7765 -1.0468 -1.4036
  362MOL0     H49926   3.314   4.970   0.730 -1.1540 -1.8287 -3.1689
  362MOL0     H49927   3.353   4.809   0.709 -0.0428 -0.6335  1.0692
  362MOL0     H49928   3.550   4.974   0.621  1.8311  1.1760  0.0305
  362MOL0     H49929   3.573   4.999   0.798  1.9956  0.0678 -1.5830
  362MOL0     H49930   3.557   4.724   0.705 -0.2716 -0.6059 -0.3650
  362MOL0     H49931   3.645   4.815   0.843  1.4995  0.0393 -0.3126
  362MOL0     H49932   3.804   4.885   0.669 -0.3182  0.0173  1.4487
  362MOL0     H49933   3.716   4.795   0.541  0.9562  1.2462 -0.0901
  362MOL0     H49934   3.921   4.673   0.630 -0.2368 -0.8543  0.0637
  362MOL0     H49935   3.768   4.584   0.678  0.7743 -0.2041 -0.4001
  362MOL0     H49936   3.361   4.476   1.049 -0.5007  2.0841  0.0925
  362MOL0     H49937   3.316   4.227   0.993 -0.7617 -1.6041  0.8145
  362MOL0     H49938   3.108   3.899   0.993  2.0123 -1.3686 -0.1088
  362MOL0     H49939   3.039   3.664   1.010 -1.2772  1.8819  0.3224
  362MOL0     H49940   1.026   4.028   1.180  0.4757 -0.5269  0.2581
  362MOL0     H49941   0.836   4.172   1.114 -1.7643 -2.8327 -2.8709
  362MOL0     H49942   0.539   4.213   0.685 -2.4979 -0.0249  0.5138
  362MOL0     H49943   0.353   4.340   0.602  1.9194 -1.8144 -3.0202
  362MOL0     H49944   0.216   4.529   0.460  0.3780 -2.2092  0.8536
  362MOL0     H49945   0.183   4.493   0.618 -1.6945  0.2384  0.5877
  362MOL0     H49946   0.171   4.771   0.484 -2.9117 -1.1833 -3.8140
  362MOL0     H49947   0.112   4.727   0.649  1.8671 -0.6378  0.7323
  362MOL0     H49948  -0.020   4.631   0.384 -0.2145 -0.4011 -1.0239
  362MOL0     H49949  -0.056   4.564   0.548 -1.1696  1.3091 -0.6098
  362MOL0     H49950  -0.127   4.806   0.619 -3.6584  0.7728 -1.2195
  362MOL0     H49951  -0.195   4.734   0.467  2.4062  0.1592 -3.4787
  362MOL0     H49952  -0.037   5.052   0.280  0.6294  2.4721  2.1141
  362MOL0     H49953   0.543   4.711   0.718 -0.4287  0.7577 -1.9491
  362MOL0     H49954   0.766   4.566   0.949  2.0726 -0.4879 -1.1983
  362MOL0     H49955   0.851   4.612   0.809  0.1280  0.3524  0.9514
  362MOL0     H49956   0.711   4.714   0.855  1.1455  0.5476 -2.3493
  363MOL0     O49957   0.098   0.070   5.885  0.5912  0.1497 -0.0365
  363MOL0     C49958   0.040  -0.006   5.964  0.0810  0.0255 -0.3485
  363MOL0     O49959   0.052  -0.005   6.102  0.0684  0.1238 -0.3071
  363MOL0     C49960   0.152   0.069   6.167 -0.2133 -0.5140  0.1523
  363MOL0     C49961   0.127   0.198   6.225  0.1696  0.1673  0.1720
  363MOL0     C49962   0.241   0.263   6.285  0.3472 -0.2395  0.1393
  363MOL0     C49963   0.365   0.194   6.307  0.8992  0.0902  0.0605
  363MOL0     O49964   0.469   0.239   6.375  0.5052 -0.1153 -0.2046
  363MOL0     C49965   0.455   0.372   6.439 -0.4076  1.2172 -0.0302
  363MOL0     C49966   0.563   0.400   6.546 -1.1124 -0.5310  0.4971
  363MOL0     C49967   0.690   0.410   6.457  0.6903  1.1147  0.6704
  363MOL0     C49968   0.791   0.497   6.515 -0.9209 -0.0853  0.2520
  363MOL0     C49969   0.853   0.442   6.653  0.7724 -0.2142 -0.4971
  363MOL0     C49970   0.959   0.523   6.738  0.2219  0.7416  0.7161
  363MOL0     C49971   1.084   0.572   6.653  0.4576  0.2525 -0.6346
  363MOL0     C49972   1.162   0.460   6.582  0.2525  0.7492  0.3085
  363MOL0     N49973   1.235   0.372   6.670  0.5166 -1.0479  0.3738
  363MOL0     C49974   1.325   0.424   6.756 -0.1462  0.0162 -0.3373
  363MOL0     C49975   1.369   0.326   6.833  0.5962  0.3762  0.3750
  363MOL0     C49976   1.472   0.334   6.944 -0.0509 -0.1202 -0.3178
  363MOL0     C49977   1.544   0.196   6.976  1.0849 -0.4922  0.0872
  363MOL0     C49978   1.668   0.237   7.055 -0.6406  0.1678 -0.4062
  363MOL0     C49979   1.638   0.261   7.196 -1.3866  0.2683 -0.0714
  363MOL0     O49980   1.761   0.261   7.273  0.3094 -0.6293 -0.4714
  363MOL0     C49981   1.837   0.375   7.258  1.1809 -0.3520 -0.4897
  363MOL0     C49982   1.821   0.482   7.342  0.0707  0.1319  0.6365
  363MOL0     C49983   1.891   0.599   7.323  0.1455 -0.3572 -0.0971
  363MOL0     C49984   1.883   0.713   7.426 -0.1741 -0.1729 -0.6134
  363MOL0     C49985   1.985   0.605   7.217 -0.7382 -0.1503 -0.5951
  363MOL0     C49986   2.077   0.726   7.194 -0.4799 -0.4956 -0.5266
  363MOL0     O49987   2.197   0.698   7.128  0.1038 -0.1721 -0.4307
  363MOL0     C49988   2.262   0.801   7.063 -0.9633  0.0152  0.4341
  363MOL0     C49989   2.197   0.868   6.958 -0.7004 -0.0038 -0.6154
  363MOL0     C49990   2.243   0.982   6.898  1.0185 -0.3929  0.8443
  363MOL0     C49991   2.373   1.025   6.924 -0.4831  0.6327  0.7464
  363MOL0     O49992   2.429   1.141   6.868  0.1173 -0.2091  0.3157
  363MOL0     C49993   2.353   1.259   6.891  0.7469  0.2010  0.0275
  363MOL0     C49994   2.436   1.382   6.868  0.5060 -0.0696 -0.7779
  363MOL0     C49995   2.352   1.519   6.859 -0.5357  0.5037 -0.3912
  363MOL0     C49996   2.263   1.531   6.979 -0.0512  0.3278  0.5732
  363MOL0     C49997   2.245   1.685   7.011 -0.0466 -0.3206  0.2189
  363MOL0     C49998   2.178   1.749   6.885 -0.0730 -0.2157  0.5638
  363MOL0     C49999   2.104   1.873   6.922  0.7620  0.7634  0.4575
  363MOL0     C50000   2.049   1.942   6.803 -0.5994 -0.0224  0.6709
  363MOL0    Cl50001   2.175   1.999   6.687  0.1865 -0.2458 -0.0500
  363MOL0     C50002   2.452   0.954   7.020 -0.5188  0.9213 -0.6317
  363MOL0     C50003   2.390   0.843   7.093 -0.3258 -0.8364  0.8550
  363MOL0     O50004   2.038   0.845   7.209 -0.7097  0.1892 -0.3752
  363MOL0     C50005   2.013   0.490   7.149 -0.1976 -0.4586  0.0493
  363MOL0     C50006   1.937   0.375   7.163  0.1323  0.0997  0.0279
  363MOL0     N50007   1.297   0.215   6.791  0.4750 -0.4133 -0.1818
  363MOL0     N50008   1.207   0.243   6.701  0.2010  0.3254  0.1664
  363MOL0     C50009   0.382   0.064   6.254 -0.7069  0.0216  0.8164
  363MOL0     C50010   0.274   0.007   6.177  0.3214 -0.2904 -0.0629
  363MOL0     C50011  -0.033  -0.120   5.904  0.3717  0.3980  0.0447
  363MOL0     C50012  -0.127  -0.193   5.988 -0.6553 -0.2478 -0.1334
  363MOL0     C50013  -0.184  -0.313   5.960 -0.0362 -0.1408  0.1242
  363MOL0     C50014  -0.184  -0.361   5.825 -0.2141 -0.4057  0.5783
  363MOL0     O50015  -0.255  -0.462   5.778  0.5419  0.8991  0.6194
  363MOL0     C50016  -0.304  -0.554   5.878  1.0891 -0.2147  0.3815
  363MOL0     C50017  -0.371  -0.680   5.811  0.3653 -0.8881  0.1471
  363MOL0     C50018  -0.272  -0.790   5.764 -0.0610 -0.2408  0.0311
  363MOL0     C50019  -0.174  -0.740   5.653 -0.2341 -0.8768  0.2223
  363MOL0     C50020  -0.078  -0.843   5.603  0.1099 -0.1905  0.1941
  363MOL0     C50021  -0.005  -0.931   5.565 -0.1282  0.5777  0.9660
  363MOL0     C50022  -0.097  -0.288   5.741 -0.3908  0.2790  0.6569
  363MOL0     C50023  -0.025  -0.170   5.779 -0.0281 -0.5832 -0.1523
  363MOL0     C50024   0.058  -0.106   5.676  0.5550 -0.1976 -0.3648
  363MOL0     H50025   0.035   0.253   6.206  0.4371 -0.3473 -3.2784
  363MOL0     H50026   0.221   0.366   6.313  3.2975 -0.0022  1.7684
  363MOL0     H50027   0.361   0.363   6.494  0.1003  0.7853  0.7924
  363MOL0     H50028   0.454   0.449   6.361  3.2225 -3.3171 -5.2986
  363MOL0     H50029   0.543   0.498   6.591 -2.2979 -0.6586  0.2822
  363MOL0     H50030   0.562   0.317   6.617 -3.7452 -0.4359  0.6770
  363MOL0     H50031   0.726   0.308   6.439  1.1485  1.1599  1.2995
  363MOL0     H50032   0.673   0.459   6.361  4.0589  0.3267 -0.4552
  363MOL0     H50033   0.879   0.512   6.451  1.3078 -2.5464  2.4655
  363MOL0     H50034   0.735   0.590   6.522 -0.9980 -0.0449 -0.8280
  363MOL0     H50035   0.890   0.340   6.638  1.8259 -0.3387  2.2816
  363MOL0     H50036   0.766   0.433   6.719 -0.7512  0.8393 -2.2992
  363MOL0     H50037   0.900   0.604   6.781 -3.1584 -1.0381 -0.2162
  363MOL0     H50038   0.993   0.463   6.822 -1.8979 -0.5165  0.7427
  363MOL0     H50039   1.151   0.639   6.708  0.6757  1.1535 -1.9418
  363MOL0     H50040   1.038   0.636   6.577  0.1351  2.0673  1.0129
  363MOL0     H50041   1.104   0.392   6.520  2.1440 -1.5231  0.8899
  363MOL0     H50042   1.240   0.503   6.518  1.4477 -2.6619 -0.7336
  363MOL0     H50043   1.370   0.522   6.759 -0.5815  0.2391 -0.9485
  363MOL0     H50044   1.420   0.371   7.033 -1.7054  1.9370 -2.0296
  363MOL0     H50045   1.548   0.400   6.902 -0.6301  0.7069 -0.0907
  363MOL0     H50046   1.484   0.120   7.028  0.5839 -1.5485 -1.9383
  363MOL0     H50047   1.570   0.155   6.878  0.4037 -0.6298 -0.0438
  363MOL0     H50048   1.743   0.160   7.034  0.8817  1.5064 -0.1680
  363MOL0     H50049   1.717   0.325   7.011  0.0512  0.5955  1.1314
  363MOL0     H50050   1.591   0.360   7.204 -1.8835 -0.1308  3.5771
  363MOL0     H50051   1.569   0.184   7.230 -1.7642  1.1390  1.2255
  363MOL0     H50052   1.758   0.468   7.429 -1.0019 -0.2569 -0.1823
  363MOL0     H50053   1.833   0.693   7.521 -0.3764  0.9471 -0.4663
  363MOL0     H50054   1.824   0.794   7.381  0.2611 -1.4594 -3.7400
  363MOL0     H50055   1.982   0.754   7.447 -0.6245  1.0256 -0.7179
  363MOL0     H50056   2.099   0.831   6.929  0.0207 -1.3570 -1.3788
  363MOL0     H50057   2.192   1.040   6.823 -1.6898 -0.5948  2.3830
  363MOL0     H50058   2.262   1.268   6.831 -0.1763 -0.2554  1.3327
  363MOL0     H50059   2.309   1.270   6.990  1.5769 -1.3470  0.5975
  363MOL0     H50060   2.519   1.386   6.939  0.9173 -0.9417 -1.1870
  363MOL0     H50061   2.478   1.379   6.767  1.3114 -3.1125 -0.4478
  363MOL0     H50062   2.285   1.518   6.772  1.2851  1.0149 -1.8792
  363MOL0     H50063   2.428   1.597   6.865 -0.4294  0.3543  0.3282
  363MOL0     H50064   2.296   1.488   7.074  0.2519  1.8342  1.1787
  363MOL0     H50065   2.167   1.484   6.958 -0.7220  2.1568 -0.6960
  363MOL0     H50066   2.189   1.698   7.104  2.5521  3.1887  1.5248
  363MOL0     H50067   2.335   1.739   7.042 -0.3171 -1.1448  2.6781
  363MOL0     H50068   2.112   1.670   6.848  0.6730 -1.8218  2.4619
  363MOL0     H50069   2.261   1.774   6.819 -1.0677 -0.2969 -0.7502
  363MOL0     H50070   2.177   1.937   6.972  0.7507 -1.1593  3.1610
  363MOL0     H50071   2.018   1.851   6.985  0.5379 -1.5214 -0.5202
  363MOL0     H50072   1.986   2.023   6.841  0.3599  1.9213 -1.5910
  363MOL0     H50073   1.978   1.870   6.760 -0.7070  0.0842  0.6691
  363MOL0     H50074   2.544   0.985   7.067 -0.4300 -0.4708  0.1685
  363MOL0     H50075   2.440   0.797   7.178  0.3405  0.2948  1.0980
  363MOL0     H50076   2.095   0.487   7.078  0.0895  0.2361  0.3513
  363MOL0     H50077   1.955   0.285   7.105  1.3870  0.1664  0.2836
  363MOL0     H50078   0.482   0.023   6.264 -0.2518  1.0847  0.8133
  363MOL0     H50079   0.276  -0.092   6.132  0.0628 -0.2836 -0.0926
  363MOL0     H50080  -0.143  -0.171   6.093  1.3261 -3.6793  1.0767
  363MOL0     H50081  -0.234  -0.363   6.043  3.3210 -0.8922  1.8620
  363MOL0     H50082  -0.231  -0.591   5.950 -0.4245 -2.0434  1.0576
  363MOL0     H50083  -0.382  -0.507   5.939 -0.6984 -0.5389 -1.5382
  363MOL0     H50084  -0.430  -0.631   5.733  5.9904  1.5162 -3.1935
  363MOL0     H50085  -0.448  -0.723   5.875 -0.9917  0.1479 -0.7080
  363MOL0     H50086  -0.207  -0.829   5.843  4.0969  1.9381 -1.9646
  363MOL0     H50087  -0.324  -0.880   5.729  3.1494 -3.0148  1.7313
  363MOL0     H50088  -0.122  -0.656   5.700  0.2775 -0.0810 -1.6837
  363MOL0     H50089  -0.228  -0.701   5.566  4.1982  2.1820 -1.5315
  363MOL0     H50090   0.066  -1.011   5.552  0.5504  0.8703  2.6236
  363MOL0     H50091  -0.107  -0.320   5.638 -3.4091  0.7997  0.7126
  363MOL0     H50092   0.019  -0.009   5.644  1.2342  0.4247  0.6110
  363MOL0     H50093   0.158  -0.102   5.720  0.1241 -0.3438  0.6524
  363MOL0     H50094   0.065  -0.158   5.580 -0.6687  0.6751 -0.9572
  364MOL0     O50095  10.083   4.570   6.990  0.3879  0.8411 -0.2143
  364MOL0     C50096  10.147   4.633   7.069 -0.4851 -0.5593 -0.6291
  364MOL0     O50097  10.210   4.757   7.043 -1.0605  0.3252 -0.5807
  364MOL0     C50098  10.237   4.783   6.916  0.6974  0.3253  0.4790
  364MOL0     C50099  10.136   4.811   6.815 -0.0814  0.1230  0.5845
  364MOL0     C50100  10.180   4.869   6.693 -0.2770  0.0162  0.7886
  364MOL0     C50101  10.318   4.892   6.667  0.2352 -0.2606 -0.7144
  364MOL0     O50102  10.350   4.944   6.550  0.0096  0.2576  0.4892
  364MOL0     C50103  10.295   5.081   6.525 -0.0341  0.3226 -0.3205
  364MOL0     C50104  10.379   5.157   6.415 -0.5076 -0.4797 -0.7727
  364MOL0     C50105  10.520   5.185   6.464  0.7106 -0.0801 -0.2625
  364MOL0     C50106  10.601   5.261   6.354 -0.3838 -0.5386  0.2416
  364MOL0     C50107  10.744   5.279   6.426 -0.3156  0.0487 -0.8853
  364MOL0     C50108  10.826   5.373   6.334 -0.3720 -0.2641 -1.0553
  364MOL0     C50109  10.951   5.415   6.412  0.1059 -0.4353  0.1173
  364MOL0     C50110  11.035   5.528   6.344  0.0334 -0.2780  0.8497
  364MOL0     N50111  11.159   5.542   6.424 -0.2991  0.3954  0.3039
  364MOL0     C50112  11.265   5.459   6.397 -0.2737  0.4007 -0.5900
  364MOL0     C50113  11.360   5.492   6.493 -0.0729  0.2378 -0.6606
  364MOL0     C50114  11.484   5.410   6.520  0.6715  0.2199  0.4164
  364MOL0     C50115  11.610   5.489   6.558 -0.0226 -0.9938  0.2127
  364MOL0     C50116  11.663   5.563   6.433 -1.3593 -0.2420 -0.4048
  364MOL0     C50117  11.803   5.616   6.459 -0.0800 -0.3167  0.0589
  364MOL0     O50118  11.912   5.523   6.424  0.1690  0.1920  0.3890
  364MOL0     C50119  12.046   5.565   6.415  0.2884 -0.4302 -0.8109
  364MOL0     C50120  12.094   5.701   6.438  0.5038  0.3355 -0.2528
  364MOL0     C50121  12.236   5.734   6.434  0.5181 -0.2665 -0.6449
  364MOL0     C50122  12.277   5.880   6.472 -0.2477  0.0299  0.5651
  364MOL0     C50123  12.331   5.632   6.402  0.4943  0.9025  0.7565
  364MOL0     C50124  12.472   5.658   6.375  0.7801 -0.4894 -0.7626
  364MOL0     O50125  12.540   5.569   6.298 -0.4940  0.0304 -0.2575
  364MOL0     C50126  12.664   5.598   6.243  0.3099  1.0850 -0.1397
  364MOL0     C50127  12.761   5.500   6.211 -0.8319  0.0963 -0.1580
  364MOL0     C50128  12.889   5.532   6.142  0.2378  0.3553  0.0672
  364MOL0     C50129  12.922   5.663   6.124  0.0603  0.6345 -0.1042
  364MOL0     O50130  13.042   5.698   6.069  0.3802  1.1028 -0.7051
  364MOL0     C50131  13.117   5.812   6.114  0.0359 -0.4764 -0.3440
  364MOL0     C50132  13.141   5.827   6.273 -0.0908 -0.2618 -0.0372
  364MOL0     C50133  13.227   5.945   6.299 -1.3726 -0.7031  0.3848
  364MOL0     C50134  13.235   5.980   6.450 -0.8763  0.0033 -0.7183
  364MOL0     C50135  13.346   6.087   6.468  0.1421  0.8490 -0.9194
  364MOL0     C50136  13.369   6.118   6.612 -0.3144 -0.7904 -0.0885
  364MOL0     C50137  13.483   6.233   6.627  0.3787  0.0916  0.1209
  364MOL0     C50138  13.488   6.288   6.772  0.4358  0.2875  0.3224
  364MOL0    Cl50139  13.564   6.149   6.874  0.2298 -0.0862  0.1467
  364MOL0     C50140  12.824   5.759   6.153 -0.4472  0.1801 -0.1224
  364MOL0     C50141  12.697   5.728   6.216 -0.4985  1.0921  0.6878
  364MOL0     O50142  12.532   5.746   6.439  0.2412 -0.2077 -0.1161
  364MOL0     C50143  12.278   5.507   6.364  0.0119  0.4168 -0.0904
  364MOL0     C50144  12.141   5.480   6.367  0.4825 -1.1918  0.2760
  364MOL0     N50145  11.300   5.592   6.577  0.1677 -0.6106  0.0865
  364MOL0     N50146  11.187   5.623   6.529  0.4113  0.1380 -0.2213
  364MOL0     C50147  10.414   4.853   6.763 -0.6248 -0.4555  0.0745
  364MOL0     C50148  10.369   4.801   6.884  0.0108  0.3302  0.0264
  364MOL0     C50149  10.167   4.578   7.215  0.1217  0.4310  0.1284
  364MOL0     C50150  10.220   4.670   7.313 -0.8194  0.4717 -0.2042
  364MOL0     C50151  10.217   4.640   7.448  0.4295 -0.7983  0.3351
  364MOL0     C50152  10.154   4.525   7.488 -0.4142  0.4402 -1.1861
  364MOL0     O50153  10.157   4.491   7.622 -0.4530  0.0198  0.4509
  364MOL0     C50154  10.036   4.436   7.679  0.1418  0.4024  0.8293
  364MOL0     C50155  10.030   4.471   7.821  0.2114  0.1200 -0.1135
  364MOL0     C50156   9.989   4.621   7.854  0.3882 -0.0503  0.4088
  364MOL0     C50157   9.953   4.654   8.000  0.2613 -0.8410 -0.2248
  364MOL0     C50158  10.039   4.596   8.105 -0.6738 -0.0270 -0.8556
  364MOL0     C50159  10.117   4.526   8.173 -0.3868  0.0350 -0.6874
  364MOL0     C50160  10.100   4.442   7.399  0.3951 -0.3446  1.2905
  364MOL0     C50161  10.103   4.460   7.263 -0.4645 -0.4339  1.3480
  364MOL0     C50162  10.041   4.350   7.176 -0.0122 -0.4325  0.3459
  364MOL0     H50163  10.031   4.794   6.838  0.6093 -4.0463  1.4609
  364MOL0     H50164  10.101   4.904   6.627  0.9414  1.6607  0.1317
  364MOL0     H50165  10.310   5.139   6.616 -0.7273  1.3842 -0.8638
  364MOL0     H50166  10.192   5.077   6.488 -1.2254 -0.3513  2.7562
  364MOL0     H50167  10.379   5.111   6.315  1.0325 -1.0551 -0.5351
  364MOL0     H50168  10.325   5.253   6.413  1.2039  0.5250 -1.4968
  364MOL0     H50169  10.517   5.244   6.557 -0.3069 -0.2721 -0.1609
  364MOL0     H50170  10.557   5.086   6.489 -0.6031 -0.3184  0.8910
  364MOL0     H50171  10.607   5.202   6.261  0.6177 -0.4994  0.2751
  364MOL0     H50172  10.565   5.362   6.333 -2.1441 -1.8013 -3.9856
  364MOL0     H50173  10.803   5.186   6.431  1.3801  1.1365  1.0970
  364MOL0     H50174  10.746   5.313   6.530  1.0599  0.6849 -1.0955
  364MOL0     H50175  10.845   5.328   6.236 -5.1860 -3.1618 -0.9703
  364MOL0     H50176  10.764   5.462   6.322  1.3845  0.9724 -1.2977
  364MOL0     H50177  11.013   5.325   6.410  0.5045 -0.1966 -2.3753
  364MOL0     H50178  10.932   5.439   6.517  2.5655 -1.0666  0.7667
  364MOL0     H50179  11.066   5.509   6.241 -0.3947 -0.4214  0.7487
  364MOL0     H50180  10.978   5.620   6.359  0.0108 -0.5752  2.8062
  364MOL0     H50181  11.269   5.385   6.317 -1.1895 -1.0391  0.6455
  364MOL0     H50182  11.510   5.353   6.431  0.1937  2.4078 -1.2061
  364MOL0     H50183  11.451   5.346   6.602 -1.4935  2.9706  1.8792
  364MOL0     H50184  11.596   5.562   6.638 -0.2523  0.5110 -1.1428
  364MOL0     H50185  11.685   5.414   6.585  2.6573  0.7894 -1.8541
  364MOL0     H50186  11.658   5.505   6.341  0.1443  0.8746 -1.2262
  364MOL0     H50187  11.601   5.649   6.406 -0.6209 -0.1561 -1.9088
  364MOL0     H50188  11.821   5.708   6.402  1.1114 -0.0059  0.9002
  364MOL0     H50189  11.807   5.633   6.567 -0.5140  2.2943 -0.2824
  364MOL0     H50190  12.023   5.778   6.467  3.3369  3.8494 -1.7644
  364MOL0     H50191  12.347   5.872   6.555 -0.8739 -2.7977  0.9194
  364MOL0     H50192  12.194   5.946   6.499  0.2935  0.9469  0.0643
  364MOL0     H50193  12.322   5.935   6.389  1.1519 -3.3531 -1.1004
  364MOL0     H50194  12.742   5.395   6.233  0.1641 -0.6298 -2.4536
  364MOL0     H50195  12.965   5.459   6.115  0.0738  0.5618 -0.9980
  364MOL0     H50196  13.211   5.814   6.058 -0.5366  0.7932 -1.3274
  364MOL0     H50197  13.071   5.902   6.072 -1.2074 -1.2390 -0.6779
  364MOL0     H50198  13.057   5.837   6.343  1.7091  0.2632  2.1681
  364MOL0     H50199  13.199   5.744   6.313  3.2455  2.2526  0.7111
  364MOL0     H50200  13.176   6.029   6.251 -1.8645 -1.8223 -1.1168
  364MOL0     H50201  13.324   5.928   6.252 -2.1330 -0.6363 -1.2876
  364MOL0     H50202  13.268   5.892   6.505 -1.4223 -0.9397 -1.8665
  364MOL0     H50203  13.147   6.018   6.504  1.0942  3.0304  0.6371
  364MOL0     H50204  13.431   6.058   6.407  0.3471 -0.8590  0.1031
  364MOL0     H50205  13.305   6.178   6.424  1.1025  0.4838 -2.6208
  364MOL0     H50206  13.403   6.032   6.671 -0.7947  0.2070  1.7134
  364MOL0     H50207  13.273   6.151   6.652  0.7889  0.4608  1.6657
  364MOL0     H50208  13.455   6.310   6.555 -1.8743 -0.1240  0.6979
  364MOL0     H50209  13.583   6.189   6.615 -0.2390 -1.8154  1.5495
  364MOL0     H50210  13.390   6.315   6.812  1.5187  1.1525  2.5170
  364MOL0     H50211  13.556   6.373   6.772  0.0225  0.6704 -1.5651
  364MOL0     H50212  12.840   5.865   6.145  0.3488 -0.0842 -3.3056
  364MOL0     H50213  12.629   5.811   6.231  0.4391  1.6815  1.8110
  364MOL0     H50214  12.346   5.432   6.324  0.5169  1.9304 -2.2625
  364MOL0     H50215  12.111   5.379   6.340 -1.2725 -0.8321  0.7689
  364MOL0     H50216  10.521   4.848   6.749  0.1877  2.7517  3.5540
  364MOL0     H50217  10.438   4.777   6.963 -0.7093 -0.6159  0.3989
  364MOL0     H50218  10.271   4.759   7.277 -0.1385 -0.0096 -0.4497
  364MOL0     H50219  10.269   4.702   7.521  1.4715  0.5925 -1.5007
  364MOL0     H50220   9.949   4.476   7.625 -0.4740 -2.7000 -0.7355
  364MOL0     H50221  10.040   4.327   7.675 -0.3416  0.3861  0.7449
  364MOL0     H50222  10.118   4.444   7.881  1.5706  0.3232 -1.9321
  364MOL0     H50223   9.949   4.409   7.861  0.9823  0.2388  1.7556
  364MOL0     H50224  10.063   4.686   7.807  0.1872  1.0434  1.5561
  364MOL0     H50225   9.893   4.630   7.802  0.8921 -3.7942 -1.5185
  364MOL0     H50226   9.854   4.609   8.016 -0.0742  0.6010  2.2322
  364MOL0     H50227   9.946   4.762   8.016  0.8117 -0.4271 -2.4470
  364MOL0     H50228  10.182   4.461   8.227  0.8239  0.3581 -1.6921
  364MOL0     H50229  10.048   4.350   7.426  0.4561 -0.3603  1.3528
  364MOL0     H50230  10.103   4.339   7.086  0.8627 -0.1320  0.9045
  364MOL0     H50231  10.026   4.248   7.214  1.1881 -2.3340 -3.7329
  364MOL0     H50232   9.946   4.382   7.133 -0.2633 -0.1089  1.1366
  365MOL0     O50233   0.202  10.027  10.325 -0.8443 -0.3548 -0.4840
  365MOL0     C50234   0.151  10.047  10.220  0.4790  0.0410  0.4019
  365MOL0     O50235   0.221  10.072  10.108 -0.5188 -0.1896 -0.5145
  365MOL0     C50236   0.359  10.061  10.111  0.2133 -0.0795 -0.6075
  365MOL0     C50237   0.435  10.153  10.031 -0.7111  0.0613  1.3336
  365MOL0     C50238   0.576  10.129  10.020  0.4887  0.1226  0.0265
  365MOL0     C50239   0.643  10.009  10.073  0.2964 -0.3326 -0.0163
  365MOL0     O50240   0.777   9.991  10.069  0.6590 -0.2525  0.3360
  365MOL0     C50241   0.860  10.104  10.090 -0.1738 -0.2042 -0.1775
  365MOL0     C50242   0.996  10.060  10.034 -0.0605  0.2207 -0.2924
  365MOL0     C50243   0.991  10.069   9.882  0.3719  0.2962 -0.4490
  365MOL0     C50244   1.140  10.040   9.833  0.5763  0.5598 -0.1578
  365MOL0     C50245   1.160  10.073   9.683  0.6541  0.2375 -0.0924
  365MOL0     C50246   1.186  10.222   9.674 -0.1453  0.5540 -1.0085
  365MOL0     C50247   1.189  10.262   9.520 -0.4435  0.0049 -1.1445
  365MOL0     C50248   1.336  10.250   9.467 -0.1274 -0.4041 -0.6735
  365MOL0     N50249   1.329  10.241   9.325 -0.3338  0.4917 -0.3949
  365MOL0     C50250   1.332  10.128   9.242  0.2485 -0.2028  0.1791
  365MOL0     C50251   1.324  10.177   9.114 -0.9606  0.6332 -0.4398
  365MOL0     C50252   1.355  10.081   8.998 -0.2030  0.5580 -0.1250
  365MOL0     C50253   1.241   9.985   8.986  0.3769 -0.3602 -0.0459
  365MOL0     C50254   1.245   9.909   8.850  0.5754  0.5016  0.2079
  365MOL0     C50255   1.147   9.793   8.852  0.9041  0.4219  0.3561
  365MOL0     O50256   1.022   9.849   8.842  0.0504 -0.0604 -0.2749
  365MOL0     C50257   0.914   9.769   8.847  0.0916 -0.0754  0.6009
  365MOL0     C50258   0.917   9.630   8.870  0.2214  0.3653 -0.1693
  365MOL0     C50259   0.798   9.554   8.903  0.3103  0.1171  0.1474
  365MOL0     C50260   0.830   9.409   8.924  0.1757  0.6153 -0.9568
  365MOL0     C50261   0.668   9.620   8.911  0.4421  0.2738  0.0147
  365MOL0     C50262   0.534   9.567   8.954  0.2672  0.5131  0.3255
  365MOL0     O50263   0.525   9.441   8.996 -0.0552  0.4205  0.6235
  365MOL0     C50264   0.408   9.375   8.964 -0.1059 -0.8438 -0.2400
  365MOL0     C50265   0.289   9.410   9.033  0.0542  0.0999 -1.0543
  365MOL0     C50266   0.165   9.340   9.004  0.0227 -1.1845 -0.1042
  365MOL0     C50267   0.160   9.251   8.894 -0.1525 -0.2065 -0.1551
  365MOL0     O50268   0.041   9.191   8.867 -0.8129  0.6424 -0.2254
  365MOL0     C50269   0.031   9.097   8.757  0.0743 -0.5941  0.3059
  365MOL0     C50270  -0.108   9.042   8.742  0.4160 -0.7265 -0.4345
  365MOL0     C50271  -0.123   8.924   8.651 -0.1352  0.1198  0.0070
  365MOL0     C50272  -0.173   8.972   8.515  0.0755 -0.2096 -0.2254
  365MOL0     C50273  -0.226   8.856   8.423  0.4386 -0.1833 -0.2385
  365MOL0     C50274  -0.137   8.732   8.417 -0.6180 -0.1756 -0.1207
  365MOL0     C50275   0.000   8.766   8.358  0.2303  1.3310  0.2623
  365MOL0     C50276   0.097   8.648   8.354  0.1553  0.1161 -0.5077
  365MOL0    Cl50277   0.160   8.606   8.513 -0.0733  0.0907 -0.0393
  365MOL0     C50278   0.284   9.219   8.835 -0.4511 -0.0798  0.3519
  365MOL0     C50279   0.405   9.283   8.862  0.3889 -0.3900 -0.3047
  365MOL0     O50280   0.441   9.647   8.969  0.5637 -0.1355 -0.8206
  365MOL0     C50281   0.675   9.753   8.873  0.0264  0.0884  0.4019
  365MOL0     C50282   0.789   9.821   8.830  1.2247 -1.4149 -0.1781
  365MOL0     N50283   1.312  10.313   9.121 -0.2943 -0.0173  0.2061
  365MOL0     N50284   1.316  10.350   9.249  0.0860  0.1905  0.3076
  365MOL0     C50285   0.562   9.924  10.149 -0.1744  0.8405  0.0368
  365MOL0     C50286   0.425   9.951  10.160 -0.0714  1.1065  0.0746
  365MOL0     C50287   0.004  10.061  10.221 -0.0795 -0.2227  0.5851
  365MOL0     C50288  -0.061  10.134  10.119 -0.0448  0.9421  0.7741
  365MOL0     C50289  -0.202  10.153  10.123 -0.8047 -0.2387  0.6277
  365MOL0     C50290  -0.287  10.079  10.209  0.2209 -1.6175  0.0397
  365MOL0     O50291  -0.423  10.111  10.213  0.2350 -0.2102  0.4250
  365MOL0     C50292  -0.499  10.067  10.326  0.2096  0.2112  0.0123
  365MOL0     C50293  -0.645  10.115  10.323  0.1986  0.0517  0.0213
  365MOL0     C50294  -0.729  10.082  10.453 -0.3554  0.5100  1.4763
  365MOL0     C50295  -0.860  10.165  10.469 -0.6171  0.4903 -0.3036
  365MOL0     C50296  -0.962  10.137  10.361  0.2590  0.2935 -1.1887
  365MOL0     C50297  -1.039  10.119  10.270 -0.4513 -0.2220 -0.2131
  365MOL0     C50298  -0.222   9.992  10.295 -0.0733  0.0117  0.0651
  365MOL0     C50299  -0.078   9.976  10.302  0.2988  0.2218 -0.0011
  365MOL0     C50300  -0.032   9.860  10.394 -0.0755  0.4809  0.5300
  365MOL0     H50301   0.384  10.241   9.995  2.6793  2.3929  1.7520
  365MOL0     H50302   0.634  10.201   9.962  2.2493 -1.4306 -0.2222
  365MOL0     H50303   0.864  10.110  10.199  0.9225 -1.5534 -0.1089
  365MOL0     H50304   0.821  10.198  10.052 -3.3878 -0.0478  2.9739
  365MOL0     H50305   1.069  10.125  10.083 -2.1566  0.7436  2.4548
  365MOL0     H50306   1.006   9.952  10.052  0.7665  0.2221 -0.7220
  365MOL0     H50307   0.923   9.988   9.855  1.3016 -0.6967  0.0810
  365MOL0     H50308   0.953  10.165   9.848 -1.6990 -0.2097  0.2866
  365MOL0     H50309   1.225  10.064   9.897  1.9030 -1.6111 -0.9838
  365MOL0     H50310   1.146   9.931   9.829 -0.2462  0.5450 -2.5751
  365MOL0     H50311   1.062  10.050   9.640  1.1954 -1.6459 -0.3974
  365MOL0     H50312   1.249  10.023   9.643  2.4408  2.8532  0.3999
  365MOL0     H50313   1.109  10.278   9.727  1.7142  1.1169  1.2365
  365MOL0     H50314   1.282  10.244   9.723  0.3195 -0.2817 -1.5222
  365MOL0     H50315   1.168  10.369   9.512  4.0835  1.2425  0.4096
  365MOL0     H50316   1.118  10.195   9.471  0.1947 -1.6045  0.0425
  365MOL0     H50317   1.375  10.346   9.503 -4.4520  1.2419  0.1685
  365MOL0     H50318   1.392  10.163   9.502  1.4539  0.2220 -1.5573
  365MOL0     H50319   1.342  10.022   9.261 -1.4091 -0.6888 -1.3939
  365MOL0     H50320   1.445  10.024   9.024 -0.4724  0.4016  0.4933
  365MOL0     H50321   1.383  10.128   8.903 -1.1573 -4.2412 -3.1376
  365MOL0     H50322   1.242   9.917   9.071 -2.1914 -1.2422 -0.6285
  365MOL0     H50323   1.152  10.048   8.992 -2.1684 -3.4641 -1.9602
  365MOL0     H50324   1.224   9.968   8.760 -1.3662 -3.4166 -2.1840
  365MOL0     H50325   1.335   9.848   8.836  0.4832  0.7007 -1.4955
  365MOL0     H50326   1.166   9.718   8.776 -3.0625 -0.7798  0.2979
  365MOL0     H50327   1.153   9.731   8.942  0.3680 -1.9377 -1.1533
  365MOL0     H50328   1.013   9.579   8.882 -0.3793 -0.3062  2.2394
  365MOL0     H50329   0.760   9.360   8.992 -0.3655  2.7095  0.0859
  365MOL0     H50330   0.933   9.398   8.959  0.2899 -0.4847 -1.5978
  365MOL0     H50331   0.820   9.362   8.825 -1.7255  1.8262 -1.4006
  365MOL0     H50332   0.297   9.485   9.111 -0.3305  0.6127 -1.4923
  365MOL0     H50333   0.080   9.375   9.062  0.1664  2.9456 -2.0361
  365MOL0     H50334   0.070   9.145   8.667  2.5501 -0.0825  1.5520
  365MOL0     H50335   0.096   9.010   8.768  0.6867 -0.9627 -4.3108
  365MOL0     H50336  -0.140   9.018   8.844  0.9336  1.0619  0.1845
  365MOL0     H50337  -0.176   9.119   8.704  0.6605 -0.3314 -0.0826
  365MOL0     H50338  -0.193   8.857   8.701  0.3350 -0.5151 -0.1782
  365MOL0     H50339  -0.037   8.857   8.640 -0.4002 -0.3953  0.9512
  365MOL0     H50340  -0.095   9.031   8.466  0.3367  0.2642  0.7387
  365MOL0     H50341  -0.260   9.036   8.535 -0.5919 -1.6195  1.6247
  365MOL0     H50342  -0.329   8.824   8.435  1.0035 -2.2004 -0.3830
  365MOL0     H50343  -0.228   8.893   8.320  2.8960  2.0895  0.3992
  365MOL0     H50344  -0.189   8.655   8.360  0.9902 -0.5684 -1.1437
  365MOL0     H50345  -0.118   8.689   8.516  1.8397  0.5293 -0.2056
  365MOL0     H50346   0.044   8.855   8.404  0.1844  1.1481  0.6658
  365MOL0     H50347  -0.026   8.796   8.256 -1.2720 -0.8731 -0.0639
  365MOL0     H50348   0.175   8.664   8.279 -2.0795  0.0401 -2.9711
  365MOL0     H50349   0.043   8.564   8.310  1.3759 -0.5563 -0.7659
  365MOL0     H50350   0.298   9.142   8.760  0.5120  0.9910 -0.6280
  365MOL0     H50351   0.500   9.264   8.811 -0.0706 -0.7062 -1.0655
  365MOL0     H50352   0.586   9.813   8.886 -0.8929 -0.9626 -0.8481
  365MOL0     H50353   0.775   9.926   8.809 -2.5235 -1.6290  0.5356
  365MOL0     H50354   0.605   9.831  10.185 -1.5711 -0.0966 -0.6227
  365MOL0     H50355   0.364   9.876  10.210  0.2288 -0.4467 -1.7782
  365MOL0     H50356  -0.004  10.191  10.046  2.0754 -1.7070  0.2147
  365MOL0     H50357  -0.261  10.215  10.056 -0.7560  1.7364  2.3113
  365MOL0     H50358  -0.487   9.958  10.327  1.4657  0.3059  2.3608
  365MOL0     H50359  -0.459  10.099  10.423  0.9760 -0.7763  0.0444
  365MOL0     H50360  -0.695  10.077  10.234  2.2666  1.0722 -1.6460
  365MOL0     H50361  -0.653  10.224  10.317 -3.0074  0.0069  1.0700
  365MOL0     H50362  -0.752   9.976  10.452  0.3735  0.3392 -0.0224
  365MOL0     H50363  -0.671  10.106  10.543  0.1089  0.6610  1.1437
  365MOL0     H50364  -0.833  10.271  10.466  1.3202  0.1468  2.0187
  365MOL0     H50365  -0.921  10.149  10.558 -0.5832  1.7227 -0.0408
  365MOL0     H50366  -1.112  10.103  10.193  0.7039 -0.6631 -1.2549
  365MOL0     H50367  -0.283   9.927  10.356 -3.3279  2.5690 -0.1661
  365MOL0     H50368  -0.116   9.810  10.443  2.3283 -1.1325  3.3193
  365MOL0     H50369   0.026   9.791  10.331  1.7993  2.7370 -0.3782
  365MOL0     H50370   0.025   9.914  10.470  1.3801  2.5278 -1.8338
  366MOL0     O50371   5.545   9.784   9.309 -0.2460 -0.0330 -0.0637
  366MOL0     C50372   5.575   9.672   9.330 -0.4371 -0.1916 -0.3025
  366MOL0     O50373   5.686   9.626   9.402  0.2678 -0.0534  0.4485
  366MOL0     C50374   5.771   9.720   9.465 -0.3278  0.2577 -0.1919
  366MOL0     C50375   5.882   9.772   9.394 -0.4405  0.4227 -0.0986
  366MOL0     C50376   5.977   9.854   9.447  0.0333  0.0898 -0.6230
  366MOL0     C50377   5.959   9.893   9.582 -0.0377  0.1658  0.2581
  366MOL0     O50378   6.054   9.987   9.629  0.8755  0.5608  0.2862
  366MOL0     C50379   6.015  10.068   9.742 -0.1983  0.1806  0.3164
  366MOL0     C50380   6.116  10.181   9.771 -0.6410 -0.3297  0.5993
  366MOL0     C50381   6.142  10.283   9.648  0.6406 -0.2415 -0.4578
  366MOL0     C50382   6.247  10.234   9.551 -0.2787  0.2321 -0.2439
  366MOL0     C50383   6.303  10.348   9.459 -0.6653 -0.3944  0.6569
  366MOL0     C50384   6.405  10.287   9.353  0.2113  0.4284 -0.5006
  366MOL0     C50385   6.517  10.200   9.415 -0.8034  0.7121  0.4901
  366MOL0     C50386   6.617  10.150   9.311  0.2304  0.8843  0.3897
  366MOL0     N50387   6.699  10.044   9.359  0.1674  0.3695 -0.4987
  366MOL0     C50388   6.830  10.047   9.403 -0.7051 -1.3493  0.0568
  366MOL0     C50389   6.860   9.917   9.438  0.1981  0.0555  0.1994
  366MOL0     C50390   6.995   9.877   9.484  0.2014 -1.1423 -0.4203
  366MOL0     C50391   7.085   9.802   9.376  0.6205 -0.0612  0.2241
  366MOL0     C50392   7.217   9.751   9.445 -0.2555 -0.1964 -0.8366
  366MOL0     C50393   7.288   9.651   9.364  0.0390 -0.5694 -0.0043
  366MOL0     O50394   7.411   9.631   9.431  0.3445 -0.0736  0.8346
  366MOL0     C50395   7.478   9.524   9.387 -1.0700  1.5000  0.6399
  366MOL0     C50396   7.559   9.522   9.274 -0.0070 -0.6052  0.3555
  366MOL0     C50397   7.627   9.410   9.231 -0.3469  0.1926 -0.1732
  366MOL0     C50398   7.725   9.438   9.120  0.3096  1.0192  0.7353
  366MOL0     C50399   7.627   9.294   9.321 -0.9958  0.6544  0.2001
  366MOL0     C50400   7.707   9.172   9.301  0.5145  0.9294  0.7908
  366MOL0     O50401   7.741   9.093   9.410  0.0574  0.0770  0.0588
  366MOL0     C50402   7.846   8.997   9.400 -0.5986  0.3841 -0.0081
  366MOL0     C50403   7.958   9.007   9.319  0.0851 -0.7835  1.1215
  366MOL0     C50404   8.056   8.907   9.323  0.2046  0.1415  0.1233
  366MOL0     C50405   8.055   8.801   9.413  1.2927  0.0366  0.0401
  366MOL0     O50406   8.151   8.701   9.408  0.2282 -0.1519 -0.3277
  366MOL0     C50407   8.297   8.741   9.402  0.3279  0.8099 -0.1617
  366MOL0     C50408   8.359   8.694   9.272 -0.3116  0.2108  0.3996
  366MOL0     C50409   8.331   8.547   9.242  0.5724  0.6414 -0.4212
  366MOL0     C50410   8.400   8.495   9.110 -0.5557 -0.6317 -0.4204
  366MOL0     C50411   8.460   8.357   9.121 -0.9765 -0.2400  0.7778
  366MOL0     C50412   8.531   8.330   8.983  0.2738 -0.7409  0.1411
  366MOL0     C50413   8.598   8.194   8.982 -0.6315  0.1791 -0.4474
  366MOL0     C50414   8.683   8.172   8.857 -1.0425  0.3173 -0.0525
  366MOL0    Cl50415   8.578   8.121   8.726 -0.1178  0.1061 -0.0223
  366MOL0     C50416   7.956   8.792   9.510  0.7312  0.5007  0.0379
  366MOL0     C50417   7.845   8.885   9.488 -0.5031 -0.0481 -0.8850
  366MOL0     O50418   7.732   9.143   9.182 -0.1121  0.6375 -0.0533
  366MOL0     C50419   7.550   9.298   9.440 -0.1326  1.0961  0.5580
  366MOL0     C50420   7.471   9.410   9.466 -0.1489 -0.4439 -0.6726
  366MOL0     N50421   6.746   9.840   9.400  0.1512  0.0311 -0.4808
  366MOL0     N50422   6.661   9.918   9.344  0.2199  0.9586 -0.4072
  366MOL0     C50423   5.847   9.844   9.661 -0.4864 -0.2699 -0.4983
  366MOL0     C50424   5.762   9.760   9.598  0.0057  0.4505  0.3396
  366MOL0     C50425   5.484   9.563   9.273 -0.0977  0.3097 -0.0907
  366MOL0     C50426   5.350   9.601   9.259  0.0512  0.1528 -1.1749
  366MOL0     C50427   5.253   9.518   9.216 -0.6774 -0.1028 -0.1504
  366MOL0     C50428   5.286   9.383   9.192 -0.1418  0.0173  0.5139
  366MOL0     O50429   5.184   9.298   9.173 -0.0483  0.6083 -0.5758
  366MOL0     C50430   5.199   9.208   9.060 -0.3493 -0.3355 -0.3900
  366MOL0     C50431   5.161   9.271   8.918 -0.2619  1.1536  0.5244
  366MOL0     C50432   5.023   9.327   8.908 -0.3939 -0.4279 -0.4403
  366MOL0     C50433   5.005   9.383   8.763 -0.3412 -0.7646  0.0419
  366MOL0     C50434   4.860   9.409   8.757 -0.6031 -0.6159 -0.2912
  366MOL0     C50435   4.753   9.466   8.751  0.0541 -0.2501  0.4245
  366MOL0     C50436   5.420   9.351   9.190 -0.4473  0.3753 -0.2778
  366MOL0     C50437   5.520   9.439   9.233  0.6304  0.2410 -0.7276
  366MOL0     C50438   5.667   9.397   9.230 -1.0080 -0.0963 -0.2546
  366MOL0     H50439   5.891   9.752   9.287  1.0637  1.7804 -0.2480
  366MOL0     H50440   6.060   9.895   9.392 -1.8347  2.7741 -1.6359
  366MOL0     H50441   6.026  10.016   9.837  0.2362  0.7934  0.6054
  366MOL0     H50442   5.913  10.105   9.725 -1.0678 -0.8693  2.7561
  366MOL0     H50443   6.073  10.235   9.856 -1.8605 -1.1882  0.5503
  366MOL0     H50444   6.213  10.135   9.794  0.6578  0.2290 -3.0795
  366MOL0     H50445   6.043  10.308   9.608 -0.4802  2.4649  3.4005
  366MOL0     H50446   6.180  10.379   9.684  0.5586 -1.0137  1.8664
  366MOL0     H50447   6.327  10.190   9.610  0.1168  0.5194 -0.5605
  366MOL0     H50448   6.214  10.148   9.491  0.3415 -0.2590  0.1095
  366MOL0     H50449   6.352  10.420   9.525 -0.3273 -0.1946  0.2007
  366MOL0     H50450   6.231  10.410   9.406  0.9769  1.2662  0.2544
  366MOL0     H50451   6.352  10.237   9.272  2.1674 -1.2762 -0.8149
  366MOL0     H50452   6.458  10.371   9.308  1.8631  1.2464  2.6252
  366MOL0     H50453   6.470  10.111   9.458 -1.8572  1.7358  1.5476
  366MOL0     H50454   6.571  10.258   9.490  3.9940 -2.6032  0.0712
  366MOL0     H50455   6.558  10.108   9.229 -1.1601 -0.6937  2.1097
  366MOL0     H50456   6.689  10.224   9.275 -0.7632  2.4339  1.4655
  366MOL0     H50457   6.886  10.137   9.377 -1.7426 -0.7986 -0.3507
  366MOL0     H50458   6.984   9.810   9.569  0.9205  0.2131  0.7786
  366MOL0     H50459   7.041   9.974   9.505  0.2069 -0.2389 -3.8852
  366MOL0     H50460   7.030   9.713   9.345  0.8343 -1.1942  2.8245
  366MOL0     H50461   7.105   9.869   9.292 -2.7264 -0.4995 -1.0476
  366MOL0     H50462   7.288   9.834   9.453 -0.6500 -0.0459  1.5990
  366MOL0     H50463   7.194   9.721   9.547 -3.2143  1.8190 -0.8094
  366MOL0     H50464   7.218   9.568   9.348 -2.7420  2.0456 -2.7401
  366MOL0     H50465   7.316   9.697   9.269  0.1924  4.2948  2.1088
  366MOL0     H50466   7.559   9.613   9.215  1.1163  0.6613  2.2354
  366MOL0     H50467   7.694   9.388   9.028  0.1579 -1.1064  1.8744
  366MOL0     H50468   7.820   9.391   9.148 -0.2584 -0.2806  0.5409
  366MOL0     H50469   7.734   9.546   9.102 -2.0163  1.9669  4.2112
  366MOL0     H50470   7.974   9.082   9.242 -4.3657  0.6692  1.3014
  366MOL0     H50471   8.148   8.913   9.265  2.1447 -1.3377  2.8179
  366MOL0     H50472   8.310   8.849   9.414  0.5588  0.8492 -0.7361
  366MOL0     H50473   8.355   8.694   9.482 -0.4102  3.5059  2.0993
  366MOL0     H50474   8.312   8.746   9.188 -1.3692  1.1689  1.5386
  366MOL0     H50475   8.467   8.708   9.275 -0.1626 -0.9572  1.0802
  366MOL0     H50476   8.222   8.534   9.236  0.2073  2.9788  0.2335
  366MOL0     H50477   8.366   8.500   9.334 -0.0486  1.7006  0.3748
  366MOL0     H50478   8.477   8.570   9.087 -1.1412  0.8752  2.1930
  366MOL0     H50479   8.321   8.497   9.034 -0.7300 -0.0108 -0.2274
  366MOL0     H50480   8.537   8.349   9.199 -0.1504 -2.8808 -0.2060
  366MOL0     H50481   8.390   8.277   9.147  0.5970 -2.3782 -1.1495
  366MOL0     H50482   8.602   8.408   8.953 -0.2495 -0.5318 -0.5732
  366MOL0     H50483   8.450   8.324   8.910 -0.5866 -2.7940  1.1764
  366MOL0     H50484   8.526   8.114   8.999  2.3624 -2.8292 -0.9876
  366MOL0     H50485   8.664   8.197   9.069  0.0041  1.2353 -0.9398
  366MOL0     H50486   8.766   8.104   8.877  1.3091  3.0936  0.3079
  366MOL0     H50487   8.722   8.270   8.827 -1.2910  1.2275  2.3331
  366MOL0     H50488   7.950   8.704   9.573 -2.6245  1.1592  0.8334
  366MOL0     H50489   7.757   8.868   9.550  0.7342 -0.2237  0.8836
  366MOL0     H50490   7.558   9.216   9.511  0.7081  2.0336  1.5852
  366MOL0     H50491   7.416   9.409   9.559  1.8708 -1.6806  0.5702
  366MOL0     H50492   5.826   9.880   9.762 -0.9952  1.8207 -1.3005
  366MOL0     H50493   5.675   9.713   9.642 -2.4829  1.6858 -2.8520
  366MOL0     H50494   5.322   9.703   9.283  0.7467 -0.2778  1.9259
  366MOL0     H50495   5.146   9.537   9.211 -0.6792  0.4576  1.3118
  366MOL0     H50496   5.299   9.165   9.057 -0.0994  0.2875 -1.3247
  366MOL0     H50497   5.133   9.122   9.079  0.6094 -0.8811  0.5584
  366MOL0     H50498   5.169   9.200   8.835 -0.3410  2.5307 -0.7041
  366MOL0     H50499   5.230   9.351   8.892  0.0161  2.1381  3.8251
  366MOL0     H50500   4.942   9.256   8.925 -1.0297  0.2174 -0.7248
  366MOL0     H50501   5.019   9.398   8.991  0.4904 -4.3628  3.2591
  366MOL0     H50502   5.015   9.316   8.678  0.0446  0.2399 -0.7327
  366MOL0     H50503   5.066   9.473   8.748 -0.2578 -0.8252  0.0150
  366MOL0     H50504   4.669   9.532   8.746 -0.9004 -1.2268  2.2841
  366MOL0     H50505   5.450   9.251   9.161 -0.5409  0.1805  0.2971
  366MOL0     H50506   5.711   9.379   9.329 -0.7999 -1.9610 -0.6537
  366MOL0     H50507   5.675   9.304   9.175  2.8331  0.7581 -1.4703
  366MOL0     H50508   5.727   9.477   9.185 -1.2716  1.1589  1.4843
  367MOL0     O50509   5.960   3.211  10.136  0.2322 -0.7345  0.1831
  367MOL0     C50510   5.956   3.333  10.136  0.2498  0.3886 -0.0235
  367MOL0     O50511   6.063   3.417  10.141 -0.7357 -0.4382 -0.1574
  367MOL0     C50512   6.184   3.350  10.167  0.8592 -0.4287  0.4743
  367MOL0     C50513   6.271   3.351  10.057  0.1720  0.2198  0.0660
  367MOL0     C50514   6.394   3.300  10.077  0.2912 -0.2147  0.1264
  367MOL0     C50515   6.429   3.243  10.199 -0.5558  0.3690 -0.5284
  367MOL0     O50516   6.553   3.180  10.205  0.8139  1.1159 -0.1190
  367MOL0     C50517   6.599   3.110  10.326  0.0343 -0.3319  0.9433
  367MOL0     C50518   6.730   3.039  10.308  0.3918 -0.3690  0.1153
  367MOL0     C50519   6.723   2.934  10.198 -0.4968  0.3937  0.1476
  367MOL0     C50520   6.860   2.865  10.188  0.3634  0.3242  0.5201
  367MOL0     C50521   6.876   2.778  10.054  1.0433  0.1324 -1.1577
  367MOL0     C50522   6.787   2.647  10.058 -0.1839 -0.4168  0.3396
  367MOL0     C50523   6.835   2.535  10.160 -0.6382 -0.9290  0.2837
  367MOL0     C50524   6.985   2.494  10.153  0.4681  1.1434  0.4770
  367MOL0     N50525   7.084   2.586  10.218  0.6497 -0.4942 -0.0898
  367MOL0     C50526   7.066   2.660  10.338 -0.6701  0.6001 -0.3561
  367MOL0     C50527   7.172   2.747  10.341 -0.6824  0.6539 -0.2140
  367MOL0     C50528   7.202   2.834  10.464 -0.0075  0.1318 -0.5317
  367MOL0     C50529   7.105   2.955  10.478  1.0036  0.5678  0.1649
  367MOL0     C50530   7.147   3.040  10.603 -0.7543 -0.4443 -0.1949
  367MOL0     C50531   7.042   3.140  10.632 -0.3106 -0.0113  0.0948
  367MOL0     O50532   6.944   3.085  10.725  0.1980  0.3578  0.1718
  367MOL0     C50533   6.817   3.133  10.733 -0.3058  0.1892 -0.5659
  367MOL0     C50534   6.721   3.080  10.820 -0.0137  0.8241 -0.0122
  367MOL0     C50535   6.591   3.143  10.840 -0.2008  0.3574 -0.2849
  367MOL0     C50536   6.492   3.094  10.943 -0.0514  0.1934  0.3339
  367MOL0     C50537   6.558   3.253  10.756 -0.5889  0.6254 -0.6469
  367MOL0     C50538   6.437   3.334  10.766  0.8520  0.3683  0.2160
  367MOL0     O50539   6.384   3.378  10.646 -0.4233 -0.2054 -0.9049
  367MOL0     C50540   6.255   3.427  10.659 -0.2421  0.4804 -0.0175
  367MOL0     C50541   6.227   3.566  10.656  0.5583  1.0604 -0.2087
  367MOL0     C50542   6.092   3.604  10.653  0.0746  0.5328  0.4620
  367MOL0     C50543   5.988   3.510  10.649 -0.4832 -0.4014 -0.3337
  367MOL0     O50544   5.858   3.551  10.635 -0.3387 -0.5280 -0.4006
  367MOL0     C50545   5.806   3.514  10.502  0.3653 -0.3133 -0.4395
  367MOL0     C50546   5.656   3.500  10.524 -0.2470  0.5800  1.0181
  367MOL0     C50547   5.595   3.462  10.388 -0.4267  0.6424  0.0554
  367MOL0     C50548   5.446   3.501  10.376  0.1569 -0.1170  0.3562
  367MOL0     C50549   5.370   3.412  10.476  0.5297  0.5612  0.0628
  367MOL0     C50550   5.226   3.456  10.507 -1.0973  0.7694 -0.3298
  367MOL0     C50551   5.164   3.376  10.623 -1.0964 -0.4263 -0.4450
  367MOL0     C50552   5.070   3.448  10.720  0.0355 -0.6700  0.1844
  367MOL0    Cl50553   5.157   3.578  10.825  0.2118  0.1511  0.4535
  367MOL0     C50554   6.020   3.376  10.654  0.1791 -0.5727 -0.2004
  367MOL0     C50555   6.153   3.334  10.656 -0.8605  0.0803 -0.2160
  367MOL0     O50556   6.384   3.353  10.883 -0.6376  0.8359 -0.2524
  367MOL0     C50557   6.651   3.298  10.665  0.0150 -0.2540  0.4841
  367MOL0     C50558   6.781   3.243  10.653  0.3649 -0.2692  0.4790
  367MOL0     N50559   7.258   2.705  10.232  0.1256 -0.2610 -0.6797
  367MOL0     N50560   7.208   2.612  10.175 -0.0348 -0.0094 -0.6672
  367MOL0     C50561   6.336   3.238  10.306  0.4649  1.2416 -0.0054
  367MOL0     C50562   6.209   3.293  10.298  0.5849 -0.0299  0.2053
  367MOL0     C50563   5.824   3.394  10.108 -0.4184 -1.2324  1.1905
  367MOL0     C50564   5.820   3.535  10.085 -0.4033 -0.5894 -1.0083
  367MOL0     C50565   5.703   3.603  10.045 -0.2003  0.0278  0.0043
  367MOL0     C50566   5.589   3.537  10.023 -0.0925 -0.5246 -0.1458
  367MOL0     O50567   5.476   3.597   9.976 -0.4406 -0.0827 -0.9298
  367MOL0     C50568   5.445   3.726  10.029 -0.8683 -0.2983 -0.4963
  367MOL0     C50569   5.302   3.766  10.021  0.1306  0.4420  0.1566
  367MOL0     C50570   5.206   3.695  10.123  0.1849 -0.3586  0.3330
  367MOL0     C50571   5.193   3.549  10.093 -0.1211 -0.3261 -0.4769
  367MOL0     C50572   5.073   3.495  10.169 -1.0392 -0.4247 -0.3091
  367MOL0     C50573   4.973   3.445  10.222 -0.1333 -0.1125  0.0658
  367MOL0     C50574   5.587   3.395  10.047  0.1740 -0.6413 -0.2861
  367MOL0     C50575   5.700   3.324  10.091 -0.2900 -0.0434 -1.2805
  367MOL0     C50576   5.681   3.172  10.097  0.2449  0.0372  0.1990
  367MOL0     H50577   6.225   3.380   9.963 -1.5243 -0.4441  0.6596
  367MOL0     H50578   6.470   3.293  10.000  1.9626 -0.4319  1.7342
  367MOL0     H50579   6.520   3.038  10.348 -0.6752 -0.6254 -2.0556
  367MOL0     H50580   6.611   3.177  10.412 -1.4483 -0.5823  1.3722
  367MOL0     H50581   6.810   3.112  10.297  1.7683 -1.8372  0.0748
  367MOL0     H50582   6.741   2.982  10.401 -0.5675 -1.1975 -0.2555
  367MOL0     H50583   6.653   2.855  10.225  1.5291 -1.4586  0.2446
  367MOL0     H50584   6.695   2.990  10.108 -1.9764  2.7020  1.9087
  367MOL0     H50585   6.938   2.941  10.197 -0.8233  1.8096 -1.1785
  367MOL0     H50586   6.858   2.793  10.270  0.3541  0.5969  0.7579
  367MOL0     H50587   6.982   2.759  10.037  2.0269  3.5466  0.3275
  367MOL0     H50588   6.833   2.836   9.972 -1.5775 -2.5871 -1.9071
  367MOL0     H50589   6.683   2.674  10.077 -0.2755 -0.0093 -0.6732
  367MOL0     H50590   6.793   2.600   9.960  2.4253 -1.4340  0.8983
  367MOL0     H50591   6.781   2.442  10.139  2.7755 -2.8033 -1.0257
  367MOL0     H50592   6.806   2.571  10.259 -1.7656  0.1092 -0.3933
  367MOL0     H50593   6.997   2.395  10.198  1.1235 -0.7521 -3.4258
  367MOL0     H50594   7.017   2.476  10.050  3.0207  0.1319  1.3533
  367MOL0     H50595   6.984   2.659  10.409 -1.8681 -0.8057 -1.6878
  367MOL0     H50596   7.307   2.864  10.455  0.1379  0.8376  2.3665
  367MOL0     H50597   7.197   2.770  10.553 -1.4255 -1.1645 -1.5011
  367MOL0     H50598   7.102   3.011  10.384  1.5720 -0.6392 -0.6009
  367MOL0     H50599   7.005   2.909  10.485  1.4397 -0.4579 -0.1179
  367MOL0     H50600   7.155   2.982  10.695 -1.4164 -0.0843  0.1033
  367MOL0     H50601   7.244   3.087  10.584 -0.1130 -0.5700  2.4519
  367MOL0     H50602   7.081   3.238  10.662  1.7459  0.3099 -3.1636
  367MOL0     H50603   6.996   3.152  10.534 -1.3009  1.0559  0.6557
  367MOL0     H50604   6.753   2.992  10.875  0.6958  1.7529  1.1137
  367MOL0     H50605   6.401   3.071  10.887  0.6131 -0.7325 -0.3920
  367MOL0     H50606   6.469   3.158  11.029 -0.9197  0.8149 -0.3433
  367MOL0     H50607   6.532   3.000  10.981 -1.5037 -0.2970  0.7254
  367MOL0     H50608   6.299   3.643  10.683  0.8917  0.2250  1.3727
  367MOL0     H50609   6.063   3.708  10.657  1.0618  0.8199  3.7513
  367MOL0     H50610   5.817   3.602  10.438 -0.8081 -0.7535 -1.2599
  367MOL0     H50611   5.862   3.435  10.451  1.8440  0.1895  0.3389
  367MOL0     H50612   5.630   3.426  10.600  0.3298  2.1275  2.7980
  367MOL0     H50613   5.623   3.598  10.557  2.2028  1.6893  0.4303
  367MOL0     H50614   5.619   3.356  10.376 -3.9584 -0.9024  3.9937
  367MOL0     H50615   5.641   3.515  10.304  2.1154 -1.5385 -0.0499
  367MOL0     H50616   5.418   3.490  10.271 -1.4028  1.6006  0.5334
  367MOL0     H50617   5.420   3.603  10.404 -1.3260 -0.6902  1.1870
  367MOL0     H50618   5.364   3.304  10.460  0.8170  0.3186  1.4734
  367MOL0     H50619   5.423   3.414  10.572 -2.1644 -2.1219  1.8308
  367MOL0     H50620   5.165   3.452  10.416 -0.5867  1.0387 -0.6864
  367MOL0     H50621   5.232   3.559  10.541 -1.4824  0.7585 -0.2196
  367MOL0     H50622   5.244   3.340  10.689 -2.6225  0.1090  1.8325
  367MOL0     H50623   5.112   3.292  10.576  0.4603 -1.2644 -0.7495
  367MOL0     H50624   5.028   3.368  10.783  0.6861 -0.2840  1.1399
  367MOL0     H50625   4.984   3.499  10.676 -1.4953 -4.7989 -2.1779
  367MOL0     H50626   5.943   3.300  10.647  0.6937 -1.0294 -0.9660
  367MOL0     H50627   6.176   3.228  10.649 -2.1988 -0.2214 -0.3048
  367MOL0     H50628   6.635   3.386  10.604  2.8103  1.2685  1.7483
  367MOL0     H50629   6.847   3.283  10.577 -0.8247  0.4683 -0.2068
  367MOL0     H50630   6.366   3.192  10.399  0.5305  1.8311  0.2684
  367MOL0     H50631   6.139   3.286  10.381  0.1875 -3.3543 -0.2836
  367MOL0     H50632   5.907   3.599  10.100 -0.5898 -0.4771 -0.3622
  367MOL0     H50633   5.714   3.708  10.024  1.4995 -0.2014 -0.4096
  367MOL0     H50634   5.482   3.733  10.132 -1.1219 -0.0852 -0.4190
  367MOL0     H50635   5.492   3.793   9.956 -0.8418 -1.2452 -1.3723
  367MOL0     H50636   5.260   3.752   9.921 -0.9495  1.6755  0.4170
  367MOL0     H50637   5.299   3.872  10.045  3.1677  0.2548  1.8187
  367MOL0     H50638   5.228   3.721  10.227  0.5866  1.8161 -0.2418
  367MOL0     H50639   5.114   3.745  10.092  0.4515 -0.8192 -1.3276
  367MOL0     H50640   5.288   3.495  10.099  0.5649  0.9326  0.1943
  367MOL0     H50641   5.171   3.538   9.986  1.0545  1.6860 -0.9791
  367MOL0     H50642   4.883   3.390  10.241  1.6631 -2.8769  1.1771
  367MOL0     H50643   5.493   3.352  10.013  1.2549 -2.7625 -0.7480
  367MOL0     H50644   5.575   3.146  10.087 -0.2005  0.3968  3.0978
  367MOL0     H50645   5.739   3.113  10.025 -3.0662 -3.8807  0.4016
  367MOL0     H50646   5.710   3.134  10.195  0.4767 -2.2785 -0.7060
  368MOL0     O50647   1.001   3.738   1.095 -0.0767  0.3122 -0.3534
  368MOL0     C50648   0.901   3.759   1.028 -0.2750 -0.1597  0.2409
  368MOL0     O50649   0.886   3.708   0.899 -0.7936 -0.7030  0.2640
  368MOL0     C50650   0.991   3.657   0.835 -0.1160  0.5089  0.3056
  368MOL0     C50651   1.102   3.741   0.811  0.1715  0.2688 -0.6212
  368MOL0     C50652   1.209   3.678   0.754 -0.4196  0.5602  0.1617
  368MOL0     C50653   1.205   3.543   0.709  0.2478  0.3172  0.1865
  368MOL0     O50654   1.312   3.475   0.655  0.1189 -0.2098 -0.4085
  368MOL0     C50655   1.424   3.556   0.615 -0.0521  0.7081 -0.9089
  368MOL0     C50656   1.522   3.469   0.529  0.0866 -0.0406  0.4102
  368MOL0     C50657   1.647   3.557   0.497 -0.4617 -0.0753 -0.3009
  368MOL0     C50658   1.737   3.459   0.417 -0.2400 -0.2271 -0.4453
  368MOL0     C50659   1.877   3.517   0.407 -0.7230 -0.1816 -0.5284
  368MOL0     C50660   1.953   3.503   0.542 -0.3109  0.5929  0.2611
  368MOL0     C50661   2.095   3.556   0.538  0.5046 -0.3338 -0.2162
  368MOL0     C50662   2.181   3.521   0.659  0.7816 -0.6718  0.1522
  368MOL0     N50663   2.301   3.601   0.677 -0.2891 -0.5129 -0.1551
  368MOL0     C50664   2.312   3.737   0.650 -0.2791 -0.3425 -0.5364
  368MOL0     C50665   2.443   3.770   0.662 -0.0247  0.4227  0.0841
  368MOL0     C50666   2.519   3.902   0.640  0.0403 -0.7880  0.8520
  368MOL0     C50667   2.620   3.888   0.530 -0.5725  0.3767 -0.1600
  368MOL0     C50668   2.552   3.889   0.394 -0.0433  0.7804 -0.5333
  368MOL0     C50669   2.649   3.853   0.277  0.2830  0.0922  0.5091
  368MOL0     O50670   2.773   3.915   0.281  0.2290  0.8857 -0.4797
  368MOL0     C50671   2.792   4.031   0.213 -0.8042 -0.1934  0.6995
  368MOL0     C50672   2.707   4.082   0.106  0.3525 -1.0482 -1.0066
  368MOL0     C50673   2.751   4.194   0.031 -0.2507 -0.1473  0.0296
  368MOL0     C50674   2.654   4.242  -0.078  0.6685 -0.4749 -0.1499
  368MOL0     C50675   2.871   4.265   0.064  1.1576 -0.5610  0.6399
  368MOL0     C50676   2.923   4.389  -0.013  0.6089  0.2314  0.6623
  368MOL0     O50677   3.026   4.458   0.048  0.6412  0.0151 -0.3556
  368MOL0     C50678   3.064   4.582   0.005 -1.1521  0.7770 -0.2000
  368MOL0     C50679   3.187   4.590  -0.060 -0.4417  0.4230 -0.0307
  368MOL0     C50680   3.237   4.707  -0.123 -0.0490 -0.3601  1.0489
  368MOL0     C50681   3.160   4.828  -0.118  0.3470  0.0381  0.3377
  368MOL0     O50682   3.191   4.949  -0.176  0.2909 -0.2787 -0.2987
  368MOL0     C50683   3.308   4.953  -0.260 -0.2052  0.8615 -0.2057
  368MOL0     C50684   3.289   5.069  -0.349  0.4853 -0.1536  0.2820
  368MOL0     C50685   3.403   5.086  -0.446  0.0489 -0.7625 -0.1100
  368MOL0     C50686   3.383   5.194  -0.550  0.8396 -0.5488 -0.4772
  368MOL0     C50687   3.477   5.173  -0.670  0.1476 -0.3501  0.1269
  368MOL0     C50688   3.439   5.253  -0.799 -0.4544 -0.1112  0.1850
  368MOL0     C50689   3.564   5.293  -0.873 -1.1601  0.6460  0.2074
  368MOL0     C50690   3.539   5.411  -0.968 -0.6958 -0.5590  1.3389
  368MOL0    Cl50691   3.694   5.485  -1.006 -0.0924 -0.0902  0.0089
  368MOL0     C50692   3.039   4.816  -0.052  0.1557  0.4312 -0.1311
  368MOL0     C50693   2.989   4.697   0.014  0.5170  0.3849 -0.1190
  368MOL0     O50694   2.882   4.414  -0.122 -0.5325 -0.9544 -0.1216
  368MOL0     C50695   2.954   4.198   0.162  0.8705 -1.0927  0.6653
  368MOL0     C50696   2.915   4.091   0.237  0.8200 -0.0477  0.8611
  368MOL0     N50697   2.512   3.651   0.691  0.3645 -1.0090  0.1045
  368MOL0     N50698   2.424   3.552   0.699 -0.4882 -0.0020 -0.8234
  368MOL0     C50699   1.089   3.473   0.714 -0.4626 -0.3011  0.1191
  368MOL0     C50700   0.977   3.528   0.778  0.6193  0.1503  0.4717
  368MOL0     C50701   0.807   3.852   1.077 -0.2646 -0.0319  0.0027
  368MOL0     C50702   0.728   3.918   0.979 -0.2711 -0.1488  0.4503
  368MOL0     C50703   0.614   3.991   1.013  0.0157 -0.9331 -0.3232
  368MOL0     C50704   0.584   4.021   1.145  0.2924  0.7530 -0.3153
  368MOL0     O50705   0.473   4.090   1.185 -0.1002  0.5531  0.5616
  368MOL0     C50706   0.445   4.218   1.122 -1.1126 -0.0054 -0.1628
  368MOL0     C50707   0.558   4.313   1.154  0.1144 -0.4390  0.0532
  368MOL0     C50708   0.576   4.320   1.309  0.7308  0.6224 -0.1764
  368MOL0     C50709   0.709   4.398   1.341  0.1307  0.1025 -0.6051
  368MOL0     C50710   0.698   4.537   1.306  0.5239 -0.3377  0.4251
  368MOL0     C50711   0.728   4.651   1.261  0.2800  0.2875 -0.4128
  368MOL0     C50712   0.667   3.961   1.244 -0.0249  0.6810 -0.5798
  368MOL0     C50713   0.777   3.875   1.212 -0.5292 -0.1992  0.7380
  368MOL0     C50714   0.842   3.794   1.323  0.4211  1.0783  0.1582
  368MOL0     H50715   1.112   3.836   0.864 -3.1160  1.2123 -1.4168
  368MOL0     H50716   1.302   3.733   0.747  1.1237 -1.7951  1.0847
  368MOL0     H50717   1.480   3.596   0.699 -0.1933  1.9774 -1.3927
  368MOL0     H50718   1.400   3.643   0.553  1.9933  0.9662 -1.4120
  368MOL0     H50719   1.549   3.375   0.577 -0.3885  0.7162  2.2479
  368MOL0     H50720   1.483   3.445   0.429 -1.5571 -3.0420  1.6462
  368MOL0     H50721   1.630   3.639   0.427  1.1419 -1.4327 -2.3856
  368MOL0     H50722   1.678   3.580   0.600 -0.7283 -1.6191  0.1425
  368MOL0     H50723   1.744   3.357   0.457  0.8899  0.4530  1.2339
  368MOL0     H50724   1.707   3.445   0.313 -1.1299  3.6385 -0.8760
  368MOL0     H50725   1.874   3.623   0.383  2.0303 -0.6750 -3.8366
  368MOL0     H50726   1.933   3.472   0.324  0.6041  0.5114 -0.0424
  368MOL0     H50727   1.897   3.550   0.623 -1.8256 -0.6387 -0.0205
  368MOL0     H50728   1.961   3.397   0.569  0.1007  0.5228 -0.1253
  368MOL0     H50729   2.084   3.665   0.536  0.9374 -0.2353  1.3903
  368MOL0     H50730   2.135   3.527   0.440 -2.2988 -1.1011 -1.2411
  368MOL0     H50731   2.121   3.539   0.749  3.4030 -0.5956  1.9844
  368MOL0     H50732   2.194   3.412   0.656 -2.0667 -1.0867 -2.1795
  368MOL0     H50733   2.233   3.806   0.622 -0.3946  0.5491  1.7623
  368MOL0     H50734   2.567   3.933   0.733 -0.8517 -1.8797  1.7092
  368MOL0     H50735   2.441   3.974   0.614  0.5660 -0.5311 -0.0442
  368MOL0     H50736   2.680   3.979   0.538  1.2236 -0.8643  1.6545
  368MOL0     H50737   2.678   3.795   0.538 -0.1919  0.7530  2.2954
  368MOL0     H50738   2.466   3.821   0.397  0.6574 -0.1140  1.1926
  368MOL0     H50739   2.529   3.994   0.376  1.5762  1.3290  0.3768
  368MOL0     H50740   2.665   3.746   0.294  2.0102  0.5242  1.9539
  368MOL0     H50741   2.592   3.861   0.184  0.9957  1.3959  0.1603
  368MOL0     H50742   2.616   4.031   0.075 -0.6978 -1.5390  2.5267
  368MOL0     H50743   2.628   4.346  -0.056  0.7285 -0.5114  0.0918
  368MOL0     H50744   2.554   4.198  -0.084 -0.2862  1.1421  2.4173
  368MOL0     H50745   2.712   4.245  -0.171  2.2113  0.2339  0.8033
  368MOL0     H50746   3.239   4.496  -0.073 -2.1455 -0.7998  1.6153
  368MOL0     H50747   3.340   4.699  -0.158 -0.7456 -0.8327 -1.0371
  368MOL0     H50748   3.390   4.974  -0.192  0.0463  1.9665 -0.8283
  368MOL0     H50749   3.324   4.853  -0.302  0.0522 -0.5229  2.9532
  368MOL0     H50750   3.194   5.049  -0.400  0.7909 -2.5498  0.5305
  368MOL0     H50751   3.284   5.162  -0.292  1.8164  0.5990 -0.7420
  368MOL0     H50752   3.418   4.990  -0.496  0.9423 -1.8391  2.0930
  368MOL0     H50753   3.493   5.114  -0.391 -0.9298 -0.4748  1.4081
  368MOL0     H50754   3.399   5.296  -0.514 -1.8515 -0.5630  1.0274
  368MOL0     H50755   3.279   5.202  -0.583  0.8422  3.2087 -0.0132
  368MOL0     H50756   3.582   5.188  -0.641  0.3090  0.7291 -0.8948
  368MOL0     H50757   3.477   5.068  -0.701  0.6861 -0.9204  1.9479
  368MOL0     H50758   3.390   5.348  -0.774  0.9746  1.3565 -2.1719
  368MOL0     H50759   3.372   5.183  -0.851  0.8967 -1.7144  0.5413
  368MOL0     H50760   3.604   5.205  -0.925  0.0447  0.9551  0.5797
  368MOL0     H50761   3.629   5.329  -0.792 -1.6741  0.6712  0.6177
  368MOL0     H50762   3.476   5.485  -0.919  1.3936  0.4246  2.6751
  368MOL0     H50763   3.492   5.372  -1.058 -0.0257 -0.5304  0.9706
  368MOL0     H50764   2.989   4.911  -0.033  0.6377  1.4022 -3.1226
  368MOL0     H50765   2.892   4.691   0.063  0.8677 -3.4251  0.4083
  368MOL0     H50766   3.053   4.237   0.185  1.1398 -0.7338 -0.9650
  368MOL0     H50767   2.980   4.041   0.308  1.8872 -2.5802 -1.7225
  368MOL0     H50768   1.077   3.374   0.671 -1.2522 -1.1575  2.1851
  368MOL0     H50769   0.886   3.470   0.787  1.6528 -2.3598 -3.0579
  368MOL0     H50770   0.728   3.899   0.872 -2.3028 -2.8424  0.8147
  368MOL0     H50771   0.558   4.032   0.930 -0.6604 -0.3796  0.3913
  368MOL0     H50772   0.439   4.198   1.015  1.1229 -0.6856 -0.2243
  368MOL0     H50773   0.353   4.265   1.158 -0.0036  1.5646  0.7359
  368MOL0     H50774   0.524   4.408   1.111 -1.6440 -0.6087  0.9503
  368MOL0     H50775   0.650   4.281   1.105  0.7366  0.8253  0.3582
  368MOL0     H50776   0.490   4.372   1.352  1.3383  1.9332 -0.5023
  368MOL0     H50777   0.579   4.220   1.353 -6.3346 -0.8614 -1.7926
  368MOL0     H50778   0.791   4.354   1.284  1.2111  0.7740  0.3780
  368MOL0     H50779   0.733   4.396   1.448  0.8027  1.0385 -0.7237
  368MOL0     H50780   0.752   4.738   1.203 -0.3736  1.3822  0.8782
  368MOL0     H50781   0.644   3.981   1.348  0.6981 -0.5151 -0.1665
  368MOL0     H50782   0.934   3.841   1.358  1.2516  0.9546 -1.7173
  368MOL0     H50783   0.776   3.786   1.410  0.8911 -1.6138  0.3497
  368MOL0     H50784   0.865   3.693   1.289 -0.6470  1.0369 -0.5019
  369MOL0     O50785   4.477   7.846   8.546  0.0789 -0.2097 -0.1689
  369MOL0     C50786   4.433   7.733   8.544 -0.0782 -0.1873  0.1139
  369MOL0     O50787   4.306   7.700   8.513 -0.1132  0.0942 -0.2743
  369MOL0     C50788   4.237   7.789   8.435  0.4826 -0.0771  0.0446
  369MOL0     C50789   4.101   7.800   8.460 -0.3361  0.8590  0.0861
  369MOL0     C50790   4.022   7.890   8.385  0.2854 -0.4768 -0.4152
  369MOL0     C50791   4.072   7.960   8.276 -0.0752  0.3807  0.3944
  369MOL0     O50792   3.990   8.039   8.201 -0.4044  0.2627 -0.7553
  369MOL0     C50793   3.880   8.104   8.272  0.3658 -0.0108 -0.5085
  369MOL0     C50794   3.835   8.216   8.183  1.4356  0.8501 -0.5609
  369MOL0     C50795   3.942   8.317   8.153 -0.2400 -0.3191  0.2637
  369MOL0     C50796   3.976   8.397   8.279  0.2245 -0.2341  0.2722
  369MOL0     C50797   4.060   8.527   8.246  0.3505 -0.0510  0.7444
  369MOL0     C50798   4.182   8.507   8.156  0.3818  0.8507  1.2927
  369MOL0     C50799   4.255   8.641   8.136  0.2646  0.5123  0.1241
  369MOL0     C50800   4.356   8.641   8.014 -0.1805  0.5465  0.4437
  369MOL0     N50801   4.468   8.548   8.027  0.3302  0.1127 -0.2484
  369MOL0     C50802   4.495   8.435   7.959 -0.4233  0.1562  0.0731
  369MOL0     C50803   4.580   8.369   8.051  0.0332  0.3900  0.2402
  369MOL0     C50804   4.654   8.239   8.036  0.1402  0.3052 -0.1459
  369MOL0     C50805   4.563   8.125   8.072  0.5098  0.3709 -0.3234
  369MOL0     C50806   4.637   7.992   8.085 -1.0167  0.9240  0.7783
  369MOL0     C50807   4.654   7.916   7.951  0.0989 -0.3627 -0.1746
  369MOL0     O50808   4.779   7.944   7.890 -0.5131  0.0089  0.8203
  369MOL0     C50809   4.889   7.868   7.911  0.1812 -0.1380  0.1732
  369MOL0     C50810   4.996   7.910   7.827  0.1355  0.9322 -0.5675
  369MOL0     C50811   5.124   7.846   7.836  0.2649  0.3773 -0.2794
  369MOL0     C50812   5.233   7.892   7.739 -0.2219  0.3195  0.0403
  369MOL0     C50813   5.145   7.740   7.931  0.2550  0.2948  0.1214
  369MOL0     C50814   5.275   7.670   7.942 -0.6493  0.5131  1.1600
  369MOL0     O50815   5.388   7.739   7.941 -0.4580 -0.0284 -0.1519
  369MOL0     C50816   5.507   7.684   7.974  0.0311  0.2477 -0.7293
  369MOL0     C50817   5.578   7.595   7.892  0.0667  0.0634  1.1858
  369MOL0     C50818   5.697   7.529   7.925  0.2720 -0.4275  0.5210
  369MOL0     C50819   5.755   7.551   8.049 -0.9779  0.7255  1.2140
  369MOL0     O50820   5.882   7.504   8.071  0.1321 -0.3135  0.2655
  369MOL0     C50821   5.920   7.370   8.028  0.3900 -0.3926  0.0473
  369MOL0     C50822   6.064   7.330   8.071 -0.5164 -0.2733 -0.1920
  369MOL0     C50823   6.111   7.196   8.023  0.1639 -0.8772 -0.1563
  369MOL0     C50824   6.081   7.080   8.115  0.2605 -0.3896 -0.0258
  369MOL0     C50825   6.109   6.945   8.054  0.7439  0.8371  0.1140
  369MOL0     C50826   6.106   6.832   8.157  1.2488  0.1341 -0.0631
  369MOL0     C50827   6.141   6.706   8.080 -0.1797  0.1795  0.4348
  369MOL0     C50828   6.269   6.701   7.993 -0.4217  0.5430  0.3531
  369MOL0    Cl50829   6.420   6.701   8.088  0.1497 -0.1022 -0.0360
  369MOL0     C50830   5.688   7.639   8.135  0.3325 -0.9375  0.9432
  369MOL0     C50831   5.564   7.700   8.106 -0.3130  0.1212 -0.4339
  369MOL0     O50832   5.271   7.547   7.949 -0.3269 -0.4400 -0.6235
  369MOL0     C50833   5.032   7.707   8.021  0.1874 -0.6570  0.0409
  369MOL0     C50834   4.910   7.776   8.014 -0.0627  1.1158  0.0864
  369MOL0     N50835   4.606   8.442   8.164  0.3453  0.2102 -0.1020
  369MOL0     N50836   4.532   8.552   8.150  0.2337 -0.4944 -0.1374
  369MOL0     C50837   4.209   7.944   8.253  0.0658 -0.6359  0.3861
  369MOL0     C50838   4.288   7.849   8.318  0.4211  0.4833 -0.9406
  369MOL0     C50839   4.523   7.627   8.594  0.1073 -0.0441  0.5154
  369MOL0     C50840   4.470   7.522   8.670  0.2005  0.1443 -0.6219
  369MOL0     C50841   4.552   7.430   8.736  0.3638 -0.8953 -0.5221
  369MOL0     C50842   4.689   7.442   8.724 -0.9625  0.5567  0.7852
  369MOL0     O50843   4.764   7.348   8.794  0.1623  0.2176 -0.0723
  369MOL0     C50844   4.900   7.324   8.776 -0.6016 -0.5197 -0.4506
  369MOL0     C50845   4.958   7.263   8.908  1.0538  0.1640  0.3562
  369MOL0     C50846   5.109   7.266   8.918  0.2547  0.8808  0.2074
  369MOL0     C50847   5.164   7.192   9.032  0.6887  0.6287  0.3561
  369MOL0     C50848   5.143   7.256   9.164  0.3159 -0.2263  0.5960
  369MOL0     C50849   5.133   7.321   9.268  0.4378  0.2598  0.3312
  369MOL0     C50850   4.745   7.528   8.630  0.4942 -0.2021 -0.7146
  369MOL0     C50851   4.667   7.625   8.569  2.0595  0.3456 -0.1430
  369MOL0     C50852   4.730   7.736   8.483  0.2598  0.0135  0.0788
  369MOL0     H50853   4.060   7.747   8.545 -0.0337 -1.3599 -1.0847
  369MOL0     H50854   3.921   7.895   8.425 -0.0271 -3.1049 -0.7088
  369MOL0     H50855   3.906   8.141   8.371  0.1770 -2.3638  0.4970
  369MOL0     H50856   3.796   8.034   8.275  1.0718 -1.2371 -4.3047
  369MOL0     H50857   3.794   8.165   8.096  0.4199  0.0404  0.3547
  369MOL0     H50858   3.742   8.257   8.225  2.8196  1.9221  1.6444
  369MOL0     H50859   4.029   8.274   8.102 -1.3204 -1.1559 -0.9345
  369MOL0     H50860   3.890   8.384   8.085 -0.5451  1.7113  2.3889
  369MOL0     H50861   3.889   8.422   8.341  0.6556 -0.6819  1.0835
  369MOL0     H50862   4.038   8.333   8.343 -0.4534 -1.7675 -0.5475
  369MOL0     H50863   4.091   8.559   8.346 -0.5079 -1.6030  1.5549
  369MOL0     H50864   3.989   8.597   8.200 -2.6898 -3.6848 -0.6370
  369MOL0     H50865   4.246   8.426   8.192 -1.2468 -1.0104  0.2015
  369MOL0     H50866   4.153   8.476   8.055  0.1458  2.5137  0.8240
  369MOL0     H50867   4.302   8.677   8.228 -1.9720  2.5037  0.5938
  369MOL0     H50868   4.175   8.709   8.106 -1.9301 -3.0041 -2.9533
  369MOL0     H50869   4.307   8.619   7.919  1.6022  1.4202 -0.7370
  369MOL0     H50870   4.396   8.743   8.015  1.3580  0.0213 -1.4136
  369MOL0     H50871   4.444   8.406   7.868 -1.8229  1.2176  0.4906
  369MOL0     H50872   4.741   8.245   8.102 -1.0329 -0.3548  1.5201
  369MOL0     H50873   4.679   8.224   7.930  0.5280  3.3399 -0.5808
  369MOL0     H50874   4.511   8.146   8.166 -1.8406 -1.5530 -1.0878
  369MOL0     H50875   4.479   8.121   8.002 -0.8368  1.7049  1.1291
  369MOL0     H50876   4.730   8.011   8.140 -1.9381  3.2655  1.6494
  369MOL0     H50877   4.581   7.921   8.146 -1.0930  0.6959  0.4453
  369MOL0     H50878   4.650   7.809   7.976 -0.2984  0.2089  2.6289
  369MOL0     H50879   4.569   7.944   7.889  1.4097  0.7500 -1.5308
  369MOL0     H50880   4.984   7.993   7.759 -0.6285  1.5997  0.3537
  369MOL0     H50881   5.303   7.955   7.794  0.6177  0.5797 -1.2881
  369MOL0     H50882   5.187   7.948   7.656  2.5997  0.1623 -1.7508
  369MOL0     H50883   5.286   7.809   7.691  0.0491  1.9090 -2.6097
  369MOL0     H50884   5.531   7.567   7.798 -2.8445 -0.1767  2.6033
  369MOL0     H50885   5.746   7.467   7.851 -0.6660  2.4749 -2.8089
  369MOL0     H50886   5.851   7.299   8.074 -0.5032  2.3609  3.4108
  369MOL0     H50887   5.913   7.367   7.919  0.3828 -2.3449  0.0610
  369MOL0     H50888   6.124   7.407   8.023 -0.8909  1.5251  2.0623
  369MOL0     H50889   6.073   7.334   8.180  2.3168 -0.0056 -0.3651
  369MOL0     H50890   6.219   7.202   8.011  0.3884  0.9984  2.1047
  369MOL0     H50891   6.066   7.169   7.927 -2.8779  1.3805  0.4612
  369MOL0     H50892   5.978   7.088   8.151  1.0428 -0.8367  2.5652
  369MOL0     H50893   6.141   7.093   8.206 -1.4304  1.4914  0.9113
  369MOL0     H50894   6.021   6.924   7.992 -0.9745  1.5858  2.1777
  369MOL0     H50895   6.203   6.950   7.998  3.0691 -2.8919  3.1432
  369MOL0     H50896   6.006   6.818   8.199  0.8569 -0.9806 -1.2793
  369MOL0     H50897   6.180   6.862   8.232  3.4803 -0.4567 -1.9050
  369MOL0     H50898   6.059   6.688   8.010 -0.5897  1.4171  0.5754
  369MOL0     H50899   6.147   6.614   8.140 -0.5565 -1.2885 -1.6899
  369MOL0     H50900   6.275   6.783   7.922 -1.5679  1.3165  1.1264
  369MOL0     H50901   6.263   6.604   7.941  4.5690 -0.9299  1.9947
  369MOL0     H50902   5.750   7.648   8.223  1.7715 -3.3288  0.2767
  369MOL0     H50903   5.518   7.757   8.186 -2.4203 -3.8758  1.4873
  369MOL0     H50904   5.045   7.635   8.101 -2.1231 -1.0122  0.1595
  369MOL0     H50905   4.830   7.749   8.082  1.0020  0.6536  1.1936
  369MOL0     H50906   4.256   8.002   8.174 -1.6903 -0.3623 -0.5176
  369MOL0     H50907   4.393   7.826   8.300  0.9019  0.3199  1.6284
  369MOL0     H50908   4.362   7.524   8.681 -0.2145  3.1347 -3.6867
  369MOL0     H50909   4.520   7.360   8.813  0.4191  1.2234  1.5367
  369MOL0     H50910   4.916   7.257   8.691  0.9617 -1.0262  0.2035
  369MOL0     H50911   4.949   7.418   8.748  1.7404 -1.9036 -1.2629
  369MOL0     H50912   4.910   7.165   8.916 -1.9835  1.3070 -1.8849
  369MOL0     H50913   4.916   7.326   8.987 -3.5664  0.0043 -1.6297
  369MOL0     H50914   5.154   7.236   8.823 -0.2711  1.0901 -0.1069
  369MOL0     H50915   5.141   7.369   8.932  0.4111  0.9890 -0.8664
  369MOL0     H50916   5.271   7.176   9.018  1.7341  2.5174  4.4197
  369MOL0     H50917   5.121   7.092   9.045 -1.0207  1.0657 -1.4029
  369MOL0     H50918   5.126   7.371   9.362 -1.0874 -3.3240  2.3244
  369MOL0     H50919   4.847   7.531   8.592 -0.1246  1.7272 -2.3779
  369MOL0     H50920   4.678   7.738   8.386  2.4435 -0.9751 -1.1789
  369MOL0     H50921   4.727   7.839   8.521  1.0873 -0.4787  1.5381
  369MOL0     H50922   4.830   7.700   8.459  0.0745 -1.5573  1.4937
  370MOL0     O50923   1.623   7.636   0.351 -0.0956 -0.3855  0.8016
  370MOL0     C50924   1.638   7.525   0.402  0.1270  0.1564  0.2379
  370MOL0     O50925   1.754   7.471   0.442  0.7609  0.0824  0.0095
  370MOL0     C50926   1.864   7.550   0.444  0.1569 -0.4416  0.3541
  370MOL0     C50927   1.978   7.515   0.374 -0.2576  0.2531  0.6784
  370MOL0     C50928   2.096   7.590   0.376  0.0178 -0.0470  0.7634
  370MOL0     C50929   2.107   7.702   0.455 -0.2030  0.5978 -0.4660
  370MOL0     O50930   2.222   7.774   0.473 -0.2670 -0.7159  0.0729
  370MOL0     C50931   2.351   7.711   0.450 -1.0173  1.1207  1.3406
  370MOL0     C50932   2.402   7.733   0.308  0.2804  0.4803 -0.1523
  370MOL0     C50933   2.440   7.868   0.280 -1.1228 -0.3902  0.7184
  370MOL0     C50934   2.422   7.910   0.129 -0.2922  0.7132 -0.0144
  370MOL0     C50935   2.484   8.050   0.109  0.2886  0.5776  0.6292
  370MOL0     C50936   2.467   8.086  -0.037  0.4701 -0.3618 -0.0142
  370MOL0     C50937   2.505   8.236  -0.063  0.1590 -0.0987  0.2585
  370MOL0     C50938   2.404   8.316  -0.148  0.6337 -0.2350 -0.6450
  370MOL0     N50939   2.451   8.451  -0.169 -1.2881 -0.2758  0.7746
  370MOL0     C50940   2.500   8.542  -0.075  0.6229  0.0086 -0.5447
  370MOL0     C50941   2.521   8.654  -0.147  0.3068  0.7834  0.0931
  370MOL0     C50942   2.593   8.777  -0.114 -0.0537 -0.1226 -0.3896
  370MOL0     C50943   2.736   8.741  -0.063  0.4470  0.6040  0.1118
  370MOL0     C50944   2.815   8.871  -0.059 -0.1355 -0.3198  0.5102
  370MOL0     C50945   2.960   8.830  -0.050  0.0564  0.0951 -0.2669
  370MOL0     O50946   2.999   8.767  -0.165 -0.9008  0.2481 -0.0166
  370MOL0     C50947   3.132   8.742  -0.189 -0.0280 -0.3081 -0.7376
  370MOL0     C50948   3.226   8.734  -0.088  0.4734 -1.2282 -0.7875
  370MOL0     C50949   3.351   8.692  -0.129 -0.3480 -0.1701  0.2094
  370MOL0     C50950   3.460   8.689  -0.014 -0.4976  0.0433 -0.2999
  370MOL0     C50951   3.392   8.651  -0.260  0.2562  0.3799 -0.0775
  370MOL0     C50952   3.512   8.580  -0.305 -0.3982  0.4625 -0.6199
  370MOL0     O50953   3.541   8.568  -0.430 -0.0935 -0.4837 -0.3795
  370MOL0     C50954   3.657   8.511  -0.470 -0.3842  0.2037  0.1789
  370MOL0     C50955   3.691   8.375  -0.457 -0.3422 -0.3696 -0.3470
  370MOL0     C50956   3.813   8.329  -0.502 -0.2943 -0.3807 -0.0845
  370MOL0     C50957   3.915   8.420  -0.533  0.2302  0.1643 -0.9394
  370MOL0     O50958   4.035   8.365  -0.557  0.4155  0.2887  0.0343
  370MOL0     C50959   4.151   8.443  -0.580  0.2843 -0.0738  0.2079
  370MOL0     C50960   4.188   8.498  -0.444 -0.0632  0.7809 -0.7595
  370MOL0     C50961   4.331   8.557  -0.452  0.1395 -0.4004 -0.7948
  370MOL0     C50962   4.320   8.707  -0.445 -0.1984 -0.4512  0.3588
  370MOL0     C50963   4.454   8.789  -0.462  0.9248  0.4248  0.5299
  370MOL0     C50964   4.438   8.932  -0.415  0.1432  0.0594 -0.8638
  370MOL0     C50965   4.568   9.009  -0.448  0.2178 -0.3526 -0.1328
  370MOL0     C50966   4.568   9.071  -0.584 -0.1237  0.1126 -0.4184
  370MOL0    Cl50967   4.451   9.192  -0.610 -0.3994  0.7212 -0.1846
  370MOL0     C50968   3.881   8.556  -0.562  0.1447  0.2998  0.3550
  370MOL0     C50969   3.752   8.605  -0.527 -0.0811 -0.1410  0.0191
  370MOL0     O50970   3.597   8.551  -0.216 -0.0103 -0.7595  0.1638
  370MOL0     C50971   3.290   8.667  -0.357  0.1808 -0.6730 -0.4245
  370MOL0     C50972   3.164   8.708  -0.322  0.5193 -0.5934 -0.2016
  370MOL0     N50973   2.467   8.644  -0.280  0.4191 -0.0958 -1.0513
  370MOL0     N50974   2.425   8.519  -0.282 -1.1668 -0.1159 -0.5874
  370MOL0     C50975   1.996   7.730   0.538 -0.9955  0.0641  0.3311
  370MOL0     C50976   1.872   7.663   0.530 -1.0334 -0.5930 -0.4152
  370MOL0     C50977   1.522   7.430   0.411 -0.3666 -0.6008  0.1516
  370MOL0     C50978   1.516   7.345   0.519  0.0022  0.0833 -0.3258
  370MOL0     C50979   1.404   7.261   0.532 -0.1346  1.2815  0.2089
  370MOL0     C50980   1.302   7.256   0.441 -0.7349 -0.1606 -0.2256
  370MOL0     O50981   1.207   7.159   0.468  0.1959  0.6709  0.4742
  370MOL0     C50982   1.189   7.060   0.368  0.1953 -0.0109  0.7330
  370MOL0     C50983   1.298   6.955   0.363 -0.3377  0.5009  1.1054
  370MOL0     C50984   1.330   6.896   0.500 -0.3155 -0.0591  0.1316
  370MOL0     C50985   1.442   6.800   0.510 -0.5319 -0.2101  0.4373
  370MOL0     C50986   1.458   6.753   0.647 -0.8839  0.6520 -0.0140
  370MOL0     C50987   1.460   6.695   0.753  0.1274  0.5909 -0.3101
  370MOL0     C50988   1.304   7.347   0.335 -0.1461  0.2214 -0.2136
  370MOL0     C50989   1.415   7.431   0.321  0.8209 -0.4684  0.7449
  370MOL0     C50990   1.424   7.506   0.190  1.4286  0.6725 -0.0552
  370MOL0     H50991   1.975   7.432   0.305 -1.1597  0.3417  0.5957
  370MOL0     H50992   2.173   7.554   0.308  1.3939  2.6134  0.7580
  370MOL0     H50993   2.349   7.603   0.467 -1.8806  1.3286  2.7275
  370MOL0     H50994   2.427   7.759   0.512  0.3159 -0.1278  0.7364
  370MOL0     H50995   2.492   7.672   0.301 -1.4822 -2.2317 -0.3784
  370MOL0     H50996   2.332   7.692   0.235  1.6696 -0.5883 -0.9234
  370MOL0     H50997   2.374   7.938   0.330 -1.7765 -0.4078 -0.0909
  370MOL0     H50998   2.544   7.886   0.309  0.2441 -1.4345 -2.9193
  370MOL0     H50999   2.474   7.842   0.062 -1.2323  0.1256 -0.1731
  370MOL0     H51000   2.314   7.896   0.113 -0.0858  0.1379 -0.9680
  370MOL0     H51001   2.587   8.058   0.146  0.1525  1.8474  0.7589
  370MOL0     H51002   2.427   8.126   0.163 -0.6000 -0.8732  1.8267
  370MOL0     H51003   2.537   8.026  -0.096  0.7390 -0.8787  0.8093
  370MOL0     H51004   2.364   8.063  -0.066  1.0998 -2.4639 -0.7538
  370MOL0     H51005   2.599   8.232  -0.120 -0.6373 -0.3149 -1.0870
  370MOL0     H51006   2.508   8.290   0.032 -0.7763 -1.2766  0.9970
  370MOL0     H51007   2.383   8.261  -0.240 -1.3253 -2.6862  1.1388
  370MOL0     H51008   2.309   8.331  -0.096  1.7022  2.9162  0.6429
  370MOL0     H51009   2.526   8.519   0.028 -2.3383 -3.2562 -0.3498
  370MOL0     H51010   2.535   8.833  -0.041  2.1645  1.8015  0.0253
  370MOL0     H51011   2.611   8.837  -0.204  0.9746 -2.5111 -1.8838
  370MOL0     H51012   2.727   8.701   0.038  4.2111  3.4738  1.8289
  370MOL0     H51013   2.780   8.668  -0.131  2.1279  0.5737  1.1790
  370MOL0     H51014   2.807   8.926  -0.153  0.1825  2.0761  1.8110
  370MOL0     H51015   2.786   8.941   0.020  1.0886  0.6088  0.1690
  370MOL0     H51016   3.017   8.922  -0.038  0.5026 -0.2716  0.5192
  370MOL0     H51017   2.980   8.757   0.030  1.1435 -0.7785 -1.2854
  370MOL0     H51018   3.222   8.745   0.020  2.9806 -3.7019 -0.3107
  370MOL0     H51019   3.546   8.744  -0.051  1.8278 -1.8631  1.8930
  370MOL0     H51020   3.493   8.594   0.029  1.1681  1.5677  2.0295
  370MOL0     H51021   3.439   8.746   0.077  1.7840 -0.0864  0.3702
  370MOL0     H51022   3.620   8.298  -0.429 -0.7598  0.8977  2.3318
  370MOL0     H51023   3.831   8.222  -0.492  1.7750  0.0294  1.1821
  370MOL0     H51024   4.224   8.372  -0.621 -1.9327 -2.8200  0.7326
  370MOL0     H51025   4.144   8.522  -0.655 -1.1218  1.2266  1.6545
  370MOL0     H51026   4.115   8.572  -0.412  0.7775  1.2196  0.2206
  370MOL0     H51027   4.200   8.407  -0.383  2.8275  0.6144 -1.4261
  370MOL0     H51028   4.373   8.542  -0.552 -2.0740 -1.8998 -1.6034
  370MOL0     H51029   4.399   8.517  -0.377 -0.0009 -1.0694 -1.0183
  370MOL0     H51030   4.272   8.724  -0.348 -0.8868 -1.9293  0.3135
  370MOL0     H51031   4.241   8.741  -0.513  1.6022 -0.5482 -1.8877
  370MOL0     H51032   4.532   8.730  -0.412  0.1381 -0.6471  0.5235
  370MOL0     H51033   4.476   8.788  -0.569 -0.2204  2.3260  0.2334
  370MOL0     H51034   4.412   8.921  -0.309 -4.0797 -0.8924 -1.8001
  370MOL0     H51035   4.350   8.982  -0.456  0.4122  0.6031 -0.7916
  370MOL0     H51036   4.651   8.938  -0.445  2.0520  1.5820 -1.8848
  370MOL0     H51037   4.587   9.079  -0.366  0.1739 -1.2098  0.6311
  370MOL0     H51038   4.564   9.004  -0.670  0.8915  1.1011 -1.2711
  370MOL0     H51039   4.666   9.121  -0.591 -1.0410  1.9130 -0.9852
  370MOL0     H51040   3.947   8.623  -0.616 -0.9682  0.7702 -0.4649
  370MOL0     H51041   3.728   8.711  -0.536 -2.1260 -0.4040  1.5586
  370MOL0     H51042   3.301   8.644  -0.462  0.8523 -3.4765  0.1815
  370MOL0     H51043   3.081   8.719  -0.392 -0.8066 -0.6633  1.2988
  370MOL0     H51044   2.012   7.813   0.606  2.3128 -0.2739  0.0897
  370MOL0     H51045   1.785   7.695   0.586  1.0503  3.5300  0.8292
  370MOL0     H51046   1.593   7.364   0.593  1.9464  1.0972 -2.4440
  370MOL0     H51047   1.408   7.197   0.619  2.1958  1.4066  0.2510
  370MOL0     H51048   1.092   7.011   0.358 -0.5043  1.2291  1.2759
  370MOL0     H51049   1.192   7.119   0.276  2.7241 -2.6892 -1.0790
  370MOL0     H51050   1.397   6.986   0.329 -0.0203 -2.6372 -1.3432
  370MOL0     H51051   1.260   6.879   0.293 -1.4420  0.5452  1.6284
  370MOL0     H51052   1.367   6.975   0.566  0.9922 -0.5869  0.0780
  370MOL0     H51053   1.244   6.845   0.543 -0.8981  0.6195 -0.2195
  370MOL0     H51054   1.538   6.839   0.474 -0.6305 -1.3847 -1.2139
  370MOL0     H51055   1.424   6.716   0.443 -1.6205  1.6018 -1.6426
  370MOL0     H51056   1.456   6.650   0.850 -1.1367 -1.5216 -1.2607
  370MOL0     H51057   1.230   7.330   0.258 -1.8215  0.5661  1.2750
  370MOL0     H51058   1.384   7.607   0.192 -1.3985 -0.2573 -2.4365
  370MOL0     H51059   1.528   7.502   0.157  1.4871  0.9831  0.0932
  370MOL0     H51060   1.350   7.459   0.125 -0.8119  1.8132  1.5387
  371MOL0     O51061   7.937   2.496   3.412 -0.8467  0.9582 -0.2539
  371MOL0     C51062   7.966   2.426   3.309  1.6288  0.3030 -0.0513
  371MOL0     O51063   8.074   2.450   3.225 -0.3291 -0.3955 -0.4547
  371MOL0     C51064   8.152   2.565   3.250 -0.0050 -0.4970  1.1735
  371MOL0     C51065   8.220   2.598   3.370  0.5528  0.1450 -0.6149
  371MOL0     C51066   8.277   2.713   3.388  0.1991 -0.8563  0.2781
  371MOL0     C51067   8.262   2.822   3.295  0.2566  0.7486 -0.3779
  371MOL0     O51068   8.304   2.951   3.305 -0.1251 -0.4570  0.1289
  371MOL0     C51069   8.406   2.979   3.399 -0.8496 -0.0017  0.9977
  371MOL0     C51070   8.436   3.128   3.398  0.4927 -0.2548  0.6438
  371MOL0     C51071   8.314   3.214   3.410 -0.0864  0.4331  0.0079
  371MOL0     C51072   8.348   3.360   3.420  0.3568  0.2014  0.5596
  371MOL0     C51073   8.218   3.432   3.466  0.2316  0.3047 -0.1691
  371MOL0     C51074   8.230   3.582   3.449 -0.1747 -0.0181  0.2222
  371MOL0     C51075   8.120   3.664   3.512  0.4633  0.4876 -0.0338
  371MOL0     C51076   7.973   3.640   3.471  0.0554  0.2409  0.1781
  371MOL0     N51077   7.883   3.743   3.514  0.8103 -0.1631  1.5547
  371MOL0     C51078   7.746   3.735   3.507 -0.2376  0.6879 -0.0772
  371MOL0     C51079   7.705   3.855   3.559 -0.2303  0.4771  0.7270
  371MOL0     C51080   7.556   3.898   3.577  0.0154 -0.0932  0.0579
  371MOL0     C51081   7.491   3.907   3.440 -0.2710  0.3923  0.4540
  371MOL0     C51082   7.543   4.021   3.345  0.1818  1.2202 -0.7331
  371MOL0     C51083   7.471   4.041   3.216  0.2353 -0.6139  0.0364
  371MOL0     O51084   7.332   4.018   3.220  0.1022  0.9465  0.4371
  371MOL0     C51085   7.255   4.115   3.279  0.2095  0.3386 -0.0391
  371MOL0     C51086   7.272   4.254   3.280  0.6857  0.1678  0.1988
  371MOL0     C51087   7.170   4.339   3.336 -0.5914  0.2090 -0.3636
  371MOL0     C51088   7.194   4.483   3.300 -0.0781 -0.1089 -0.5378
  371MOL0     C51089   7.062   4.284   3.394  0.2390 -0.5816 -0.7100
  371MOL0     C51090   6.948   4.362   3.462 -0.1429 -0.4041 -0.2708
  371MOL0     O51091   6.850   4.289   3.526  0.8690 -0.3693  0.3696
  371MOL0     C51092   6.757   4.340   3.620  0.5077  0.0321 -1.6586
  371MOL0     C51093   6.726   4.475   3.651  0.1358  0.1358  0.4316
  371MOL0     C51094   6.649   4.499   3.762  1.2147 -0.8289  0.0030
  371MOL0     C51095   6.602   4.408   3.849  1.1897 -0.5180 -0.3584
  371MOL0     O51096   6.536   4.435   3.958  0.6741 -0.2998 -0.3436
  371MOL0     C51097   6.490   4.571   3.993 -0.7262  0.0740  0.3304
  371MOL0     C51098   6.586   4.624   4.088  0.3828  0.1485 -0.4941
  371MOL0     C51099   6.575   4.764   4.132 -0.1177 -0.2613 -0.6005
  371MOL0     C51100   6.496   4.775   4.266  1.1163  0.1756 -0.0162
  371MOL0     C51101   6.484   4.927   4.315 -0.0556 -0.0151  0.4117
  371MOL0     C51102   6.335   4.975   4.327 -0.5078  0.0751  0.3488
  371MOL0     C51103   6.325   5.127   4.350  0.0597  0.2970  0.0393
  371MOL0     C51104   6.370   5.202   4.223  0.1754 -0.0448  0.0240
  371MOL0    Cl51105   6.285   5.164   4.073  0.2107  0.0248  0.5752
  371MOL0     C51106   6.624   4.277   3.812 -0.0136  0.4112 -0.4249
  371MOL0     C51107   6.705   4.243   3.708  0.1758  0.3213 -0.3490
  371MOL0     O51108   6.956   4.484   3.455  0.3071 -0.3307 -0.4542
  371MOL0     C51109   7.048   4.151   3.396 -0.1175 -0.1444 -0.1971
  371MOL0     C51110   7.146   4.068   3.342 -0.1820  0.0917 -1.1927
  371MOL0     N51111   7.811   3.937   3.581 -0.6753 -0.8062  0.0523
  371MOL0     N51112   7.911   3.866   3.558 -0.0093  0.3545 -0.5203
  371MOL0     C51113   8.178   2.799   3.186 -0.2441  0.2103  0.1616
  371MOL0     C51114   8.129   2.670   3.162  0.2843  0.1228 -0.0097
  371MOL0     C51115   7.873   2.312   3.273  0.1068 -0.5983 -0.6486
  371MOL0     C51116   7.908   2.232   3.164 -0.4441 -0.8272  0.4744
  371MOL0     C51117   7.847   2.111   3.131  0.0966 -0.0455 -0.1562
  371MOL0     C51118   7.743   2.072   3.205  0.3423 -0.0359 -0.7520
  371MOL0     O51119   7.698   1.948   3.176  0.3704  0.0279  0.5506
  371MOL0     C51120   7.603   1.884   3.262 -0.5571  0.3940 -0.5466
  371MOL0     C51121   7.549   1.755   3.194 -0.7547  0.1609  0.1029
  371MOL0     C51122   7.401   1.728   3.224  0.6751  0.2658 -0.5201
  371MOL0     C51123   7.352   1.613   3.132  0.0946  0.7645 -0.1195
  371MOL0     C51124   7.220   1.573   3.167 -0.8313 -0.3151 -0.1956
  371MOL0     C51125   7.106   1.531   3.193 -0.7864 -0.1193 -0.9488
  371MOL0     C51126   7.710   2.133   3.319  0.5677 -0.1303 -0.1948
  371MOL0     C51127   7.765   2.259   3.350  0.2660 -0.3426  0.6640
  371MOL0     C51128   7.718   2.318   3.483  0.5219 -0.3525 -0.9150
  371MOL0     H51129   8.234   2.524   3.449  1.8078  1.8592  0.8709
  371MOL0     H51130   8.328   2.725   3.483 -1.0726  1.1062  0.7821
  371MOL0     H51131   8.501   2.938   3.363 -1.2645 -1.3063  1.3440
  371MOL0     H51132   8.381   2.946   3.501 -2.2591 -0.1822  0.6150
  371MOL0     H51133   8.519   3.154   3.464 -0.1777 -0.9630  1.7926
  371MOL0     H51134   8.483   3.152   3.302  0.2006  1.6464  0.9525
  371MOL0     H51135   8.251   3.199   3.321 -1.2474  0.0495  0.8689
  371MOL0     H51136   8.262   3.178   3.499  2.8769 -1.1525  1.2521
  371MOL0     H51137   8.436   3.382   3.481  1.5020  0.9758 -1.2957
  371MOL0     H51138   8.385   3.392   3.323  0.6982  1.2424  1.0192
  371MOL0     H51139   8.212   3.400   3.571  3.8516 -0.1517  0.0179
  371MOL0     H51140   8.124   3.409   3.415 -0.0178  1.3404 -0.1929
  371MOL0     H51141   8.327   3.611   3.491 -0.2449 -0.9812  1.0778
  371MOL0     H51142   8.223   3.596   3.341  1.1602  0.3364  0.1643
  371MOL0     H51143   8.136   3.769   3.488 -1.6107  1.1028  0.9706
  371MOL0     H51144   8.127   3.645   3.620 -1.1197 -0.9828 -0.1442
  371MOL0     H51145   7.961   3.627   3.363  0.3933 -2.0158  0.3581
  371MOL0     H51146   7.948   3.543   3.516 -0.9330  0.5181  0.2640
  371MOL0     H51147   7.692   3.648   3.471 -3.0213  1.0181  2.7672
  371MOL0     H51148   7.547   3.994   3.630  2.1142 -1.6818  3.5984
  371MOL0     H51149   7.495   3.819   3.621 -1.0097 -1.8003 -3.9590
  371MOL0     H51150   7.509   3.813   3.387 -2.0524  0.3405 -0.1511
  371MOL0     H51151   7.385   3.927   3.458 -0.4387  1.5477 -1.5406
  371MOL0     H51152   7.523   4.099   3.418 -0.9426 -0.1291  0.4551
  371MOL0     H51153   7.650   4.008   3.328 -0.0807 -3.4273 -0.0900
  371MOL0     H51154   7.494   4.143   3.183 -0.8087 -0.4689 -0.2827
  371MOL0     H51155   7.521   3.981   3.139  2.0452  2.5562 -1.4882
  371MOL0     H51156   7.358   4.293   3.227  0.5784  1.6950  1.0970
  371MOL0     H51157   7.126   4.519   3.223  0.2218  2.2742  0.2275
  371MOL0     H51158   7.296   4.499   3.266 -0.1620 -1.6810 -1.6499
  371MOL0     H51159   7.189   4.557   3.380  2.5140  0.2652 -0.6349
  371MOL0     H51160   6.769   4.553   3.588 -1.0008 -0.0198 -0.5600
  371MOL0     H51161   6.640   4.605   3.783 -0.0798 -0.2723 -2.8253
  371MOL0     H51162   6.468   4.639   3.911 -3.5838  0.7158  1.4995
  371MOL0     H51163   6.392   4.558   4.041 -0.9182  3.3612  1.0698
  371MOL0     H51164   6.571   4.560   4.175 -1.3606  1.0642 -0.0603
  371MOL0     H51165   6.684   4.611   4.042  0.0772  0.4424 -1.2525
  371MOL0     H51166   6.523   4.818   4.052  0.0597  1.4589  0.3912
  371MOL0     H51167   6.679   4.792   4.150  0.1344 -2.0010  0.9146
  371MOL0     H51168   6.548   4.722   4.346  1.5891 -0.6319 -0.8290
  371MOL0     H51169   6.405   4.719   4.242  2.3960 -0.5978 -3.7848
  371MOL0     H51170   6.544   4.936   4.406  2.4918  3.3147 -1.3660
  371MOL0     H51171   6.541   4.988   4.244 -1.7714  0.6605 -0.4462
  371MOL0     H51172   6.279   4.932   4.411 -0.5656  0.6738  0.6210
  371MOL0     H51173   6.275   4.942   4.242 -1.9345 -0.5522  1.5526
  371MOL0     H51174   6.391   5.163   4.430 -1.1817 -0.8997  1.6748
  371MOL0     H51175   6.223   5.146   4.382 -0.4371  0.4436 -1.5444
  371MOL0     H51176   6.477   5.184   4.208 -0.1253 -0.5711 -1.7407
  371MOL0     H51177   6.354   5.309   4.235 -2.0313 -0.1337 -1.4974
  371MOL0     H51178   6.588   4.193   3.870  0.5970  0.0869 -0.5136
  371MOL0     H51179   6.715   4.135   3.697  0.2970 -0.1469  3.2057
  371MOL0     H51180   6.958   4.098   3.428  1.2967 -0.4941  3.7461
  371MOL0     H51181   7.129   3.961   3.347  0.7770 -0.0292 -0.0006
  371MOL0     H51182   8.169   2.881   3.115 -2.1171 -1.8241 -2.1619
  371MOL0     H51183   8.078   2.641   3.070  1.3445 -2.4066  0.1218
  371MOL0     H51184   7.984   2.264   3.094 -0.6317  1.2833  1.1518
  371MOL0     H51185   7.874   2.041   3.053 -0.9569 -0.5132 -0.1150
  371MOL0     H51186   7.645   1.860   3.360 -3.2502 -1.8352  0.2160
  371MOL0     H51187   7.521   1.954   3.284  0.8545  1.6965  0.7950
  371MOL0     H51188   7.610   1.667   3.218 -2.1297 -1.0432 -0.6328
  371MOL0     H51189   7.555   1.774   3.086  0.5299  1.3712  0.3584
  371MOL0     H51190   7.389   1.703   3.329 -1.5483  1.4506 -0.4236
  371MOL0     H51191   7.341   1.817   3.202 -1.6863 -0.9092  0.7675
  371MOL0     H51192   7.417   1.525   3.141 -2.1544 -1.1691 -1.6922
  371MOL0     H51193   7.358   1.650   3.029  0.7377  0.0557 -0.3454
  371MOL0     H51194   7.019   1.480   3.231 -0.5001  1.3807  1.9291
  371MOL0     H51195   7.626   2.092   3.374 -1.7301 -0.5218 -3.6965
  371MOL0     H51196   7.700   2.424   3.460  0.6063  0.5471  2.6078
  371MOL0     H51197   7.625   2.270   3.516  0.0364  0.7841 -0.5679
  371MOL0     H51198   7.785   2.317   3.570 -0.9918  0.1471  0.3151
  372MOL0     O51199   8.074   0.213   1.773  0.4692  0.6118 -0.1092
  372MOL0     C51200   8.009   0.316   1.775  0.2983  0.4943 -0.1380
  372MOL0     O51201   8.065   0.444   1.785  0.2784  0.0954  0.2378
  372MOL0     C51202   8.203   0.438   1.788 -0.1812 -0.5625  0.2602
  372MOL0     C51203   8.266   0.479   1.671 -0.3856 -0.6235 -0.0001
  372MOL0     C51204   8.405   0.507   1.674 -0.8285 -0.1998 -0.6196
  372MOL0     C51205   8.482   0.480   1.794 -0.1355 -0.0813  0.1821
  372MOL0     O51206   8.622   0.484   1.793  0.0400  1.0619 -0.0642
  372MOL0     C51207   8.676   0.394   1.695  0.2097 -0.5590 -0.3746
  372MOL0     C51208   8.829   0.421   1.689 -0.0159  0.7598 -0.2337
  372MOL0     C51209   8.900   0.377   1.814  0.8001  0.8500 -0.2504
  372MOL0     C51210   9.048   0.416   1.819 -0.2957  0.8096 -0.0467
  372MOL0     C51211   9.082   0.565   1.807 -0.6854 -0.1031 -0.6714
  372MOL0     C51212   9.228   0.604   1.839  0.0928  0.2311  0.8946
  372MOL0     C51213   9.264   0.735   1.767 -0.5233  0.3263  0.1246
  372MOL0     C51214   9.406   0.782   1.793  0.6207 -0.2836 -0.8574
  372MOL0     N51215   9.441   0.920   1.750  0.4468 -0.4358 -0.3249
  372MOL0     C51216   9.503   1.016   1.818  0.3205  0.4415  0.3467
  372MOL0     C51217   9.529   1.112   1.732  0.3469 -0.2167  1.0552
  372MOL0     C51218   9.589   1.240   1.758 -0.0639 -1.3170 -0.2013
  372MOL0     C51219   9.743   1.234   1.767  0.0277  0.5439  0.0099
  372MOL0     C51220   9.791   1.195   1.626 -0.2662 -0.2821 -0.2177
  372MOL0     C51221   9.950   1.190   1.611  1.1062 -0.1435  0.1219
  372MOL0     O51222   9.988   1.323   1.609 -0.0731  0.0322 -0.4577
  372MOL0     C51223  10.116   1.357   1.583  0.4888  0.2977 -0.6388
  372MOL0     C51224  10.134   1.493   1.606  0.4854 -0.1967  0.7056
  372MOL0     C51225  10.258   1.552   1.589 -0.2828  0.1007 -0.2999
  372MOL0     C51226  10.288   1.699   1.599  0.2548  0.3854 -0.3133
  372MOL0     C51227  10.371   1.462   1.546 -0.0007  0.3917  0.4531
  372MOL0     C51228  10.518   1.503   1.537 -0.1658  0.4870  0.4708
  372MOL0     O51229  10.607   1.399   1.534  0.5555 -0.1938  0.3793
  372MOL0     C51230  10.738   1.412   1.505 -0.2971 -0.2178 -0.2473
  372MOL0     C51231  10.787   1.307   1.428  0.2265 -0.9291  0.2146
  372MOL0     C51232  10.929   1.294   1.418 -0.1281  0.4518  0.3899
  372MOL0     C51233  11.017   1.391   1.465  0.7897 -0.5044  0.2630
  372MOL0     O51234  11.151   1.371   1.450  0.7859  0.0411  0.3758
  372MOL0     C51235  11.246   1.472   1.497  0.6789  0.1397 -0.1392
  372MOL0     C51236  11.381   1.424   1.430 -0.5750  0.2683 -0.3918
  372MOL0     C51237  11.494   1.500   1.496  0.3812 -0.4897  0.1768
  372MOL0     C51238  11.473   1.653   1.487  0.4720  0.4321 -0.6037
  372MOL0     C51239  11.576   1.737   1.560 -0.6358 -0.1051 -0.0236
  372MOL0     C51240  11.727   1.680   1.547  0.0488 -0.5082 -0.0799
  372MOL0     C51241  11.814   1.741   1.661  1.0447 -0.2401 -0.4581
  372MOL0     C51242  11.944   1.662   1.703  0.7611  0.4021  0.2563
  372MOL0    Cl51243  12.045   1.620   1.570 -0.0734 -0.1165 -0.1250
  372MOL0     C51244  10.957   1.502   1.531  0.1319  0.2511 -0.1756
  372MOL0     C51245  10.819   1.515   1.547  0.7863 -0.0842  0.1914
  372MOL0     O51246  10.552   1.627   1.534  0.6990 -0.1290 -0.0017
  372MOL0     C51247  10.337   1.326   1.528 -0.9031 -0.3682  0.0086
  372MOL0     C51248  10.218   1.271   1.548 -0.1277 -0.3242  0.2010
  372MOL0     N51249   9.473   1.076   1.616  0.6948 -0.5146  0.0502
  372MOL0     N51250   9.422   0.958   1.625 -0.6074 -0.1368  0.0629
  372MOL0     C51251   8.415   0.434   1.909  0.1939  0.0680  0.4114
  372MOL0     C51252   8.279   0.404   1.897 -0.0335  0.3399 -0.1751
  372MOL0     C51253   7.864   0.311   1.735 -0.2807 -0.2464  0.4080
  372MOL0     C51254   7.800   0.441   1.729 -0.3057 -0.4113  0.2901
  372MOL0     C51255   7.664   0.445   1.696 -0.7760 -0.8166 -0.5526
  372MOL0     C51256   7.592   0.333   1.662  0.1346  0.2936  1.3121
  372MOL0     O51257   7.463   0.325   1.633  0.3632  0.1574 -0.1426
  372MOL0     C51258   7.382   0.409   1.716  0.4872  0.0982 -0.2339
  372MOL0     C51259   7.239   0.378   1.665  0.2728  0.0033 -0.6104
  372MOL0     C51260   7.210   0.439   1.523  0.1615  0.2422 -0.0870
  372MOL0     C51261   7.074   0.387   1.479 -0.2859 -0.2308 -0.1461
  372MOL0     C51262   7.079   0.239   1.459 -0.5355  0.4269 -0.0670
  372MOL0     C51263   7.094   0.119   1.421 -0.3273 -0.3566 -0.4479
  372MOL0     C51264   7.659   0.204   1.675  0.1494 -0.2351 -0.5419
  372MOL0     C51265   7.798   0.193   1.708  0.0081 -0.1668 -0.4934
  372MOL0     C51266   7.865   0.060   1.715 -0.1725 -0.5061  0.0001
  372MOL0     H51267   8.209   0.501   1.581  0.8975 -0.0321 -0.7054
  372MOL0     H51268   8.458   0.555   1.593 -0.1293  0.9241  0.4819
  372MOL0     H51269   8.636   0.412   1.595  3.4054  0.9835 -1.4899
  372MOL0     H51270   8.655   0.294   1.735  3.0665 -1.8079 -1.7469
  372MOL0     H51271   8.879   0.374   1.604 -0.5846  1.2704 -0.8658
  372MOL0     H51272   8.842   0.529   1.690 -0.3769  0.8210 -1.1233
  372MOL0     H51273   8.855   0.417   1.905  1.3096  2.9919 -0.8850
  372MOL0     H51274   8.895   0.268   1.818 -0.8772  0.9384  2.1055
  372MOL0     H51275   9.091   0.381   1.913 -1.8758  3.7717  1.9545
  372MOL0     H51276   9.098   0.361   1.739 -1.4120 -2.3481  1.2800
  372MOL0     H51277   9.017   0.624   1.872 -0.9082 -1.8800  0.7793
  372MOL0     H51278   9.060   0.592   1.703  0.2792  2.5183 -0.2743
  372MOL0     H51279   9.239   0.615   1.947 -0.1466 -2.2878  1.2432
  372MOL0     H51280   9.297   0.524   1.810  1.6412  2.0656 -0.7974
  372MOL0     H51281   9.197   0.821   1.774 -1.4737 -0.4040  0.3720
  372MOL0     H51282   9.248   0.708   1.662  1.4231 -0.7745  0.0752
  372MOL0     H51283   9.415   0.777   1.902 -1.6666 -2.0788 -0.6762
  372MOL0     H51284   9.475   0.713   1.742  0.3202 -0.4498 -1.0392
  372MOL0     H51285   9.547   1.016   1.917 -1.2859 -0.6959  1.1214
  372MOL0     H51286   9.543   1.277   1.849 -1.3495 -0.2469 -1.2376
  372MOL0     H51287   9.573   1.320   1.685 -0.6814  2.1283  3.4144
  372MOL0     H51288   9.770   1.336   1.795 -3.1011  1.5801 -0.3261
  372MOL0     H51289   9.763   1.157   1.841 -2.1022  0.9400  1.0826
  372MOL0     H51290   9.760   1.094   1.600 -2.7369  0.9220 -2.4464
  372MOL0     H51291   9.751   1.263   1.550 -1.1296 -0.7596 -0.1954
  372MOL0     H51292   9.991   1.144   1.701  2.0903  0.5385  0.0358
  372MOL0     H51293   9.967   1.145   1.513  0.2183  0.2216 -0.2110
  372MOL0     H51294  10.060   1.566   1.637 -0.8625 -0.8631 -0.8482
  372MOL0     H51295  10.368   1.719   1.671 -0.9743 -0.9445  1.5445
  372MOL0     H51296  10.202   1.755   1.638 -0.4966  0.0419 -1.4233
  372MOL0     H51297  10.318   1.736   1.501 -0.0695 -0.8230 -0.8904
  372MOL0     H51298  10.718   1.235   1.384  2.2763 -0.3593 -4.5512
  372MOL0     H51299  10.957   1.206   1.361 -1.1479  0.2874  0.1267
  372MOL0     H51300  11.211   1.569   1.460 -1.3807 -0.2524  0.6783
  372MOL0     H51301  11.247   1.466   1.606  0.0146  6.0751  0.5448
  372MOL0     H51302  11.382   1.318   1.459 -1.3803  1.0963  3.1999
  372MOL0     H51303  11.371   1.455   1.326 -0.1430  1.0274 -0.2176
  372MOL0     H51304  11.584   1.470   1.443  0.2010  1.9930 -1.7075
  372MOL0     H51305  11.498   1.490   1.605 -1.8074 -0.1952  0.3486
  372MOL0     H51306  11.374   1.693   1.511  0.9585  0.4462  1.5282
  372MOL0     H51307  11.478   1.683   1.382 -0.7895  0.0478 -0.7840
  372MOL0     H51308  11.576   1.843   1.534 -0.7257 -0.3231 -0.9878
  372MOL0     H51309  11.541   1.730   1.663 -1.6755 -2.2011 -0.4653
  372MOL0     H51310  11.768   1.715   1.452  1.2782 -1.7100 -0.0123
  372MOL0     H51311  11.744   1.572   1.552  2.6902 -0.2525 -1.5278
  372MOL0     H51312  11.743   1.751   1.744  0.2706 -1.2145 -0.9774
  372MOL0     H51313  11.848   1.842   1.637  2.0328  0.4398  3.1011
  372MOL0     H51314  11.925   1.571   1.760  0.8604  0.8449  1.0044
  372MOL0     H51315  11.992   1.726   1.777 -0.3160  0.3728  1.0009
  372MOL0     H51316  11.020   1.576   1.579  0.7020  0.6453 -1.4825
  372MOL0     H51317  10.785   1.600   1.607  2.0745  0.4051  0.2590
  372MOL0     H51318  10.420   1.263   1.498 -0.7654 -0.5434  0.7399
  372MOL0     H51319  10.194   1.166   1.536 -2.0997  0.1021 -0.0970
  372MOL0     H51320   8.473   0.418   2.000  0.3418  2.1109  0.7219
  372MOL0     H51321   8.216   0.373   1.980 -1.4738  3.6167  0.1196
  372MOL0     H51322   7.847   0.534   1.757 -0.6808 -0.4251  0.9831
  372MOL0     H51323   7.617   0.540   1.676 -0.9324 -0.8724 -0.4520
  372MOL0     H51324   7.384   0.374   1.820 -2.1502  0.3193 -0.0221
  372MOL0     H51325   7.414   0.513   1.713 -0.3225  0.3421 -1.4080
  372MOL0     H51326   7.168   0.422   1.736 -1.2395 -0.6846 -1.6347
  372MOL0     H51327   7.219   0.271   1.664  0.6413 -0.1369  1.8071
  372MOL0     H51328   7.219   0.548   1.522  2.3235  0.1122  0.2841
  372MOL0     H51329   7.290   0.404   1.457 -1.4278  0.1519 -2.0687
  372MOL0     H51330   7.035   0.440   1.392 -0.7724  0.4225  0.4582
  372MOL0     H51331   6.987   0.406   1.543 -2.0756 -1.3152 -2.1163
  372MOL0     H51332   7.087   0.018   1.385 -2.6319 -0.5044  0.2659
  372MOL0     H51333   7.599   0.114   1.669 -0.9587  0.5432 -1.5127
  372MOL0     H51334   7.910   0.034   1.812 -3.0468 -1.9286  1.0477
  372MOL0     H51335   7.789  -0.017   1.702 -1.4607  0.5215  1.1223
  372MOL0     H51336   7.937   0.066   1.633 -0.6973  2.0327 -0.3557
  373MOL0     O51337  11.331   1.135   1.641 -0.3874 -0.4352  0.3651
  373MOL0     C51338  11.216   1.086   1.650  0.3679 -0.3492 -0.2860
  373MOL0     O51339  11.169   0.978   1.579 -0.4841 -0.1595  0.4035
  373MOL0     C51340  11.272   0.905   1.528 -0.2059  0.6635  0.2562
  373MOL0     C51341  11.306   0.908   1.395 -0.2612 -0.1582 -0.7175
  373MOL0     C51342  11.397   0.823   1.337  0.7413  0.1688 -0.1733
  373MOL0     C51343  11.466   0.729   1.414  0.0751 -0.7883 -0.2268
  373MOL0     O51344  11.568   0.655   1.343 -0.0129 -0.6605  0.5128
  373MOL0     C51345  11.656   0.580   1.431 -0.0062  0.4946 -0.1641
  373MOL0     C51346  11.748   0.490   1.344 -0.1654  0.2981  0.0152
  373MOL0     C51347  11.865   0.583   1.307 -0.5422  0.4418 -0.6650
  373MOL0     C51348  11.958   0.521   1.205  0.0789 -0.3837  1.3683
  373MOL0     C51349  12.094   0.586   1.190 -0.5811 -0.5826  0.1861
  373MOL0     C51350  12.080   0.724   1.123  0.7132  0.2564 -0.4107
  373MOL0     C51351  12.217   0.785   1.090 -0.0392 -0.4680  0.0967
  373MOL0     C51352  12.206   0.937   1.059  0.1061 -0.2480  0.1132
  373MOL0     N51353  12.338   0.987   1.035  0.5117  0.0285  0.3900
  373MOL0     C51354  12.402   1.066   1.123 -0.5300  0.0628  0.9931
  373MOL0     C51355  12.503   1.133   1.052  0.9886 -0.4675 -0.1840
  373MOL0     C51356  12.603   1.228   1.119  0.2387 -0.4862 -0.2501
  373MOL0     C51357  12.724   1.256   1.036  0.2997 -0.0897  0.8299
  373MOL0     C51358  12.672   1.340   0.917 -0.3997 -0.3960 -0.1555
  373MOL0     C51359  12.791   1.391   0.830 -0.5724  0.6307 -1.3213
  373MOL0     O51360  12.833   1.522   0.881 -0.5989 -0.0984 -0.4009
  373MOL0     C51361  12.963   1.565   0.852  0.0624 -0.2181  0.4067
  373MOL0     C51362  13.050   1.498   0.754 -1.1508  0.3616 -0.1506
  373MOL0     C51363  13.181   1.551   0.732 -1.1938  0.4051  0.1928
  373MOL0     C51364  13.275   1.477   0.641  0.7986 -0.5383 -0.1824
  373MOL0     C51365  13.223   1.670   0.794  0.8475 -0.2510 -0.3880
  373MOL0     C51366  13.356   1.733   0.778  0.0166 -0.1027 -0.8136
  373MOL0     O51367  13.404   1.808   0.883  0.1288  0.4417  0.1911
  373MOL0     C51368  13.524   1.875   0.868 -1.0376 -0.1674  0.6810
  373MOL0     C51369  13.518   2.012   0.848  0.1320  0.3112 -0.1224
  373MOL0     C51370  13.645   2.087   0.838 -0.4723  0.3003  0.5556
  373MOL0     C51371  13.765   2.019   0.842 -0.4580 -0.6424  0.0154
  373MOL0     O51372  13.874   2.097   0.815 -0.9048 -0.1765 -0.4445
  373MOL0     C51373  13.992   2.041   0.753  0.2068  0.3197 -0.3789
  373MOL0     C51374  14.106   2.136   0.749 -0.5542 -0.8456 -0.2815
  373MOL0     C51375  14.087   2.248   0.643  0.2009  0.1341  0.0545
  373MOL0     C51376  14.220   2.315   0.622 -0.1110 -0.4295 -0.8763
  373MOL0     C51377  14.231   2.405   0.499  0.5667  0.5948  0.0029
  373MOL0     C51378  14.371   2.453   0.451 -0.4455  0.8481  0.1293
  373MOL0     C51379  14.364   2.545   0.333  0.3336  0.1495  0.0466
  373MOL0     C51380  14.505   2.602   0.293  0.6015 -0.5908 -0.7352
  373MOL0    Cl51381  14.494   2.639   0.123 -0.3038  0.7620 -0.3481
  373MOL0     C51382  13.764   1.879   0.859  0.8988 -0.0376  0.4630
  373MOL0     C51383  13.647   1.805   0.856 -0.5773 -0.0414 -0.0507
  373MOL0     O51384  13.427   1.704   0.687  0.0344  0.4525 -0.1252
  373MOL0     C51385  13.142   1.717   0.899  1.2524  1.0554 -0.2165
  373MOL0     C51386  13.010   1.668   0.918 -1.3843 -0.8039 -0.3464
  373MOL0     N51387  12.491   1.092   0.922  0.6006  0.3601 -0.4074
  373MOL0     N51388  12.399   1.011   0.910  0.3960  1.2018 -0.5303
  373MOL0     C51389  11.437   0.713   1.547 -0.3926 -0.4445  0.6066
  373MOL0     C51390  11.338   0.799   1.598 -0.4773 -0.8096  0.0538
  373MOL0     C51391  11.121   1.153   1.734 -0.6044  0.2361 -0.4016
  373MOL0     C51392  10.987   1.146   1.690 -0.0631  0.2408 -0.2109
  373MOL0     C51393  10.898   1.223   1.763  0.4501 -0.4014  0.5843
  373MOL0     C51394  10.930   1.299   1.871 -0.0978 -0.0337  0.0572
  373MOL0     O51395  10.845   1.382   1.947  0.1583  0.4048 -0.1155
  373MOL0     C51396  10.706   1.394   1.902  0.1452  0.5897  0.7643
  373MOL0     C51397  10.639   1.517   1.961  0.0345  0.6766  0.7435
  373MOL0     C51398  10.492   1.502   1.931  0.4383  0.0202 -1.0616
  373MOL0     C51399  10.424   1.633   1.967 -1.1936  0.9885 -0.4928
  373MOL0     C51400  10.284   1.636   1.940 -0.1102 -0.0757 -1.0526
  373MOL0     C51401  10.162   1.649   1.927  0.4947  0.5825  1.0183
  373MOL0     C51402  11.065   1.311   1.912  0.4850  0.0926  0.6095
  373MOL0     C51403  11.161   1.240   1.844 -0.0745  0.1317 -0.3400
  373MOL0     C51404  11.306   1.261   1.883 -0.4545 -0.1457 -0.5307
  373MOL0     H51405  11.252   0.988   1.344 -2.3933  0.7134  2.6011
  373MOL0     H51406  11.413   0.839   1.231 -0.4312 -1.1128 -0.5658
  373MOL0     H51407  11.595   0.511   1.490 -2.2683  3.1350  0.8551
  373MOL0     H51408  11.711   0.641   1.504  1.8959 -1.3353  0.0111
  373MOL0     H51409  11.782   0.405   1.404 -1.7835  0.3208  1.0169
  373MOL0     H51410  11.690   0.443   1.263 -1.2866  2.0730 -0.2585
  373MOL0     H51411  11.828   0.679   1.271  0.6726  0.6442 -1.4513
  373MOL0     H51412  11.916   0.604   1.402 -0.4813 -3.2837  0.2896
  373MOL0     H51413  11.973   0.418   1.236 -0.7820 -0.8079  0.4468
  373MOL0     H51414  11.903   0.522   1.110 -0.1904  1.6683  1.4914
  373MOL0     H51415  12.159   0.526   1.124 -0.2071 -0.7284  0.6822
  373MOL0     H51416  12.143   0.588   1.288  0.0504  1.7774 -0.1311
  373MOL0     H51417  12.020   0.705   1.033  0.7478 -2.6646  0.0655
  373MOL0     H51418  12.029   0.795   1.188  2.8956  1.6589 -0.1409
  373MOL0     H51419  12.248   0.721   1.007 -4.0284 -1.6217 -0.7184
  373MOL0     H51420  12.285   0.764   1.173  0.2820 -0.8270 -0.2515
  373MOL0     H51421  12.143   0.947   0.971 -1.6174 -2.5535  0.9590
  373MOL0     H51422  12.147   0.992   1.133 -0.2866 -1.0984  0.4525
  373MOL0     H51423  12.395   1.088   1.229  0.7012  1.6753  0.7882
  373MOL0     H51424  12.623   1.182   1.216 -3.6593  1.7915  1.8783
  373MOL0     H51425  12.557   1.325   1.140 -0.6607 -0.7517 -0.9617
  373MOL0     H51426  12.789   1.317   1.100  0.5935  0.9030 -0.3892
  373MOL0     H51427  12.790   1.175   1.003  4.8688  2.6290  2.3898
  373MOL0     H51428  12.620   1.277   0.844 -4.2276  0.5922  1.4874
  373MOL0     H51429  12.596   1.416   0.938 -0.4231  0.0920 -1.8621
  373MOL0     H51430  12.864   1.310   0.840 -0.9005  0.1800 -2.4276
  373MOL0     H51431  12.768   1.393   0.723 -3.5128  0.6869 -0.7815
  373MOL0     H51432  13.021   1.408   0.700  3.2774 -1.6030  0.3233
  373MOL0     H51433  13.373   1.460   0.686  1.7383  1.6212 -1.2379
  373MOL0     H51434  13.301   1.549   0.563 -0.5631  1.4179  1.0816
  373MOL0     H51435  13.234   1.386   0.596 -0.8012  0.6402 -1.2267
  373MOL0     H51436  13.424   2.067   0.844 -1.3840 -2.1869 -0.7301
  373MOL0     H51437  13.640   2.196   0.841 -1.4294  0.3001 -0.1983
  373MOL0     H51438  14.019   1.950   0.808 -1.4291  1.5477  2.6522
  373MOL0     H51439  13.962   2.016   0.650  0.6267  1.8926 -0.9134
  373MOL0     H51440  14.109   2.183   0.847  1.1260  1.2022 -1.2386
  373MOL0     H51441  14.201   2.087   0.729  0.3283  0.0013  1.5969
  373MOL0     H51442  14.004   2.314   0.671  0.7766  2.1342 -2.6105
  373MOL0     H51443  14.066   2.191   0.552  1.0949 -4.0333  2.2196
  373MOL0     H51444  14.292   2.233   0.612  0.0328 -0.1418 -2.5355
  373MOL0     H51445  14.243   2.377   0.709 -0.9991 -0.8182 -0.3596
  373MOL0     H51446  14.181   2.348   0.421 -0.3484 -0.0367  1.0236
  373MOL0     H51447  14.172   2.497   0.505 -1.4921 -0.3813 -3.0643
  373MOL0     H51448  14.434   2.366   0.431  1.2848  1.6641  1.7827
  373MOL0     H51449  14.422   2.494   0.538  1.1904 -2.6454  0.9951
  373MOL0     H51450  14.289   2.622   0.355  1.5078  1.0231  1.1096
  373MOL0     H51451  14.336   2.493   0.241 -2.0253 -0.3305  0.9389
  373MOL0     H51452  14.582   2.525   0.301  1.4511  0.2313 -0.9070
  373MOL0     H51453  14.527   2.689   0.355  0.0571  0.4806 -1.9888
  373MOL0     H51454  13.849   1.812   0.873  0.9717  0.3466  2.0546
  373MOL0     H51455  13.637   1.698   0.850 -0.0934 -0.0379 -1.2091
  373MOL0     H51456  13.174   1.803   0.958 -0.6592  1.2753  0.5568
  373MOL0     H51457  12.940   1.723   0.980 -0.0514  1.8870 -1.0742
  373MOL0     H51458  11.482   0.649   1.622  0.8327 -0.0928  0.1972
  373MOL0     H51459  11.318   0.790   1.705 -2.1209 -0.4275 -0.1996
  373MOL0     H51460  10.951   1.086   1.607  0.9706 -1.1762  0.3118
  373MOL0     H51461  10.801   1.228   1.714  0.7052 -1.7424 -0.1366
  373MOL0     H51462  10.699   1.410   1.794  1.3514  0.7606  0.6989
  373MOL0     H51463  10.644   1.306   1.921 -0.3188  0.6855 -0.2335
  373MOL0     H51464  10.679   1.604   1.907 -2.4721  1.8474  0.6057
  373MOL0     H51465  10.657   1.535   2.068 -0.1478  0.6247  0.7829
  373MOL0     H51466  10.476   1.494   1.823 -0.6542 -1.2056 -0.8409
  373MOL0     H51467  10.449   1.410   1.972 -2.8405  1.0166 -1.9020
  373MOL0     H51468  10.467   1.716   1.911 -2.3776  2.2446  0.3672
  373MOL0     H51469  10.444   1.656   2.072  1.7947  1.2219 -1.0379
  373MOL0     H51470  10.060   1.673   1.904  0.5722 -0.6632 -0.7733
  373MOL0     H51471  11.088   1.378   1.994  0.2331 -0.9301  1.5255
  373MOL0     H51472  11.319   1.294   1.986 -1.9743 -0.2087 -0.2974
  373MOL0     H51473  11.363   1.168   1.877  0.3265  0.2446  0.5943
  373MOL0     H51474  11.350   1.339   1.819 -0.0199  1.1228  1.2552
  374MOL0     O51475   5.606   3.001   3.591 -0.6328 -0.0189 -0.2981
  374MOL0     C51476   5.515   3.020   3.505 -0.1029  1.3455 -0.5223
  374MOL0     O51477   5.530   3.050   3.382  0.1336  0.0718 -0.2189
  374MOL0     C51478   5.646   3.070   3.311  0.5887  1.0966  0.1404
  374MOL0     C51479   5.618   3.109   3.178  0.5311 -0.2874  0.0888
  374MOL0     C51480   5.723   3.133   3.098 -0.1216  0.1526 -0.2181
  374MOL0     C51481   5.858   3.137   3.145 -0.0823 -0.1703  0.7900
  374MOL0     O51482   5.954   3.192   3.063  0.2178  0.6491 -0.5581
  374MOL0     C51483   6.092   3.198   3.116  0.3495 -0.0532  0.2554
  374MOL0     C51484   6.189   3.282   3.027  0.5140  1.0984  0.2434
  374MOL0     C51485   6.316   3.308   3.094  0.2213  1.3780 -0.7105
  374MOL0     C51486   6.414   3.392   3.023  0.5854 -0.7589  0.3193
  374MOL0     C51487   6.560   3.389   3.075  0.1817  0.4586 -0.4963
  374MOL0     C51488   6.610   3.250   3.081  0.0343  0.5808  0.4378
  374MOL0     C51489   6.753   3.259   3.127  0.6214  0.4168  0.8198
  374MOL0     C51490   6.825   3.123   3.143  0.1754  0.9203  0.2907
  374MOL0     N51491   6.830   3.053   3.012 -0.0453  0.9917  0.0754
  374MOL0     C51492   6.890   3.099   2.899 -0.3085 -0.7638 -0.5410
  374MOL0     C51493   6.835   3.031   2.798  0.4654 -0.6437  0.4478
  374MOL0     C51494   6.859   3.045   2.651 -0.7290 -0.0533 -0.5094
  374MOL0     C51495   7.002   3.012   2.609  0.6068  0.4853  0.0317
  374MOL0     C51496   7.025   3.036   2.467 -0.1456 -0.1285  0.0594
  374MOL0     C51497   7.147   2.967   2.426 -0.6156  0.7327 -0.1810
  374MOL0     O51498   7.265   3.026   2.483  0.6920 -0.6783  0.3435
  374MOL0     C51499   7.387   2.980   2.438 -0.4655  0.2839  0.0823
  374MOL0     C51500   7.503   3.055   2.462 -0.2299 -0.2907 -0.1749
  374MOL0     C51501   7.638   3.013   2.425  1.0601  0.9564 -0.7563
  374MOL0     C51502   7.750   3.099   2.479 -0.0146  0.1180  0.2724
  374MOL0     C51503   7.655   2.893   2.364 -0.3827  0.5511 -0.3355
  374MOL0     C51504   7.790   2.837   2.322  0.5333 -0.3239 -0.4742
  374MOL0     O51505   7.802   2.706   2.307 -0.1083  0.0035 -0.3606
  374MOL0     C51506   7.912   2.656   2.256 -0.2535 -0.3862  0.5054
  374MOL0     C51507   7.957   2.685   2.119  0.2978  0.3207  0.1109
  374MOL0     C51508   8.072   2.620   2.068  0.1794  0.5596 -0.0346
  374MOL0     C51509   8.152   2.539   2.153  0.6012 -0.0280 -0.2800
  374MOL0     O51510   8.258   2.486   2.105 -0.1555  0.5009  0.3100
  374MOL0     C51511   8.323   2.384   2.182 -0.2914 -0.5238  0.2342
  374MOL0     C51512   8.452   2.334   2.107 -0.2758 -0.1826 -1.5465
  374MOL0     C51513   8.533   2.230   2.179  0.0074 -0.1668  0.5965
  374MOL0     C51514   8.658   2.187   2.097  0.4459  0.1475 -0.2162
  374MOL0     C51515   8.728   2.077   2.183 -0.2199  0.0664  0.4421
  374MOL0     C51516   8.798   2.136   2.315 -0.1692  0.2817 -0.4466
  374MOL0     C51517   8.918   2.052   2.356 -0.2062  0.6981  0.6023
  374MOL0     C51518   8.889   1.897   2.365 -0.3433  0.1685 -0.0839
  374MOL0    Cl51519   8.760   1.851   2.473  0.2506  0.1753 -0.0892
  374MOL0     C51520   8.109   2.528   2.284 -0.6678 -0.4428 -0.4336
  374MOL0     C51521   7.999   2.584   2.341  0.0905 -0.1217 -0.3701
  374MOL0     O51522   7.877   2.919   2.271  0.3665 -0.6210 -0.8813
  374MOL0     C51523   7.539   2.813   2.342 -0.4651  0.0773 -0.2195
  374MOL0     C51524   7.408   2.858   2.374 -0.8600  0.2744  0.3540
  374MOL0     N51525   6.741   2.942   2.854 -0.0686 -0.3073  0.4388
  374MOL0     N51526   6.748   2.952   2.982  0.6853 -0.3125 -0.7490
  374MOL0     C51527   5.882   3.092   3.276  0.2570 -0.1950  0.1531
  374MOL0     C51528   5.781   3.060   3.354  0.6832 -0.1178 -0.3227
  374MOL0     C51529   5.378   2.993   3.557 -0.3849 -0.2938  0.0074
  374MOL0     C51530   5.281   3.084   3.518  0.2294  0.2437  0.3279
  374MOL0     C51531   5.153   3.089   3.575  0.2706  0.3089 -0.6987
  374MOL0     C51532   5.119   2.991   3.672 -0.3610  0.6624 -0.0621
  374MOL0     O51533   4.986   2.979   3.710  0.6331 -0.0691  0.0535
  374MOL0     C51534   4.946   2.865   3.791 -0.9863  0.1746  0.1883
  374MOL0     C51535   4.808   2.894   3.851 -0.9084 -0.4271  0.3364
  374MOL0     C51536   4.762   2.790   3.950 -0.4796  0.0565  0.0707
  374MOL0     C51537   4.657   2.836   4.039  0.9173 -0.8659 -0.6760
  374MOL0     C51538   4.586   2.731   4.117 -0.5435  0.2352  0.4019
  374MOL0     C51539   4.524   2.663   4.203  0.1886 -0.6033 -0.4547
  374MOL0     C51540   5.216   2.884   3.691  0.1358  0.0668  0.5520
  374MOL0     C51541   5.342   2.888   3.637 -1.0244  0.3773  0.9963
  374MOL0     C51542   5.441   2.779   3.680 -0.5594 -0.8623 -0.8050
  374MOL0     H51543   5.517   3.112   3.139  0.6838  2.1370 -0.2650
  374MOL0     H51544   5.704   3.160   2.994 -2.2173  0.1869  0.1350
  374MOL0     H51545   6.132   3.100   3.145 -0.4398 -0.1701  0.9537
  374MOL0     H51546   6.092   3.241   3.217 -1.5583  0.6532 -0.0110
  374MOL0     H51547   6.202   3.242   2.926 -0.9677  1.1511  0.0086
  374MOL0     H51548   6.134   3.376   3.023 -2.0274 -0.2925  0.0844
  374MOL0     H51549   6.297   3.340   3.197  3.7370  2.0245 -0.1065
  374MOL0     H51550   6.358   3.207   3.101 -2.9426 -0.0132  0.0644
  374MOL0     H51551   6.415   3.372   2.915  4.2734 -0.5660  0.1946
  374MOL0     H51552   6.384   3.495   3.043 -0.0407 -0.6019 -1.2638
  374MOL0     H51553   6.560   3.427   3.178 -1.1632 -2.9062  0.9027
  374MOL0     H51554   6.628   3.446   3.012 -0.6209 -1.5076 -3.3335
  374MOL0     H51555   6.559   3.193   3.159  0.1210  0.8840  0.7200
  374MOL0     H51556   6.602   3.203   2.983 -1.1946  2.8818 -0.6319
  374MOL0     H51557   6.751   3.288   3.233 -1.2610  1.0045  0.6546
  374MOL0     H51558   6.810   3.328   3.064  2.3751 -0.8698  0.9259
  374MOL0     H51559   6.925   3.130   3.185  1.0371  3.5703 -1.8607
  374MOL0     H51560   6.770   3.064   3.217 -1.6124 -0.9515 -2.3415
  374MOL0     H51561   6.959   3.181   2.884 -1.0972  0.1969  0.8732
  374MOL0     H51562   6.839   3.152   2.641 -0.7614  0.1696  1.5611
  374MOL0     H51563   6.794   2.979   2.593  1.0174 -2.5925  0.2864
  374MOL0     H51564   7.076   3.071   2.663  1.1524 -0.4579  0.3394
  374MOL0     H51565   7.019   2.905   2.629  0.1968  0.3247 -0.4590
  374MOL0     H51566   6.936   3.022   2.405 -1.1177  1.9807  0.8585
  374MOL0     H51567   7.052   3.142   2.464  0.9474 -0.2977  2.1820
  374MOL0     H51568   7.144   2.865   2.465 -0.8339 -0.3354 -2.7890
  374MOL0     H51569   7.153   2.968   2.317  1.7123 -0.7961 -0.1404
  374MOL0     H51570   7.485   3.150   2.510  0.3259 -0.8388  1.1721
  374MOL0     H51571   7.854   3.067   2.468 -0.3918 -0.8865 -0.5002
  374MOL0     H51572   7.736   3.129   2.583  0.5787  2.8458 -0.3665
  374MOL0     H51573   7.734   3.193   2.425 -1.7454  0.1464  0.7805
  374MOL0     H51574   7.900   2.751   2.053  0.6155 -0.3930 -0.8971
  374MOL0     H51575   8.112   2.611   1.967 -0.1152 -1.2895 -0.0292
  374MOL0     H51576   8.358   2.437   2.271  0.3395  0.0992 -0.3768
  374MOL0     H51577   8.256   2.299   2.198 -1.5847  0.2696 -0.7224
  374MOL0     H51578   8.419   2.284   2.016 -0.1619 -2.4015 -0.4327
  374MOL0     H51579   8.513   2.422   2.085 -0.3236  0.2112 -0.2088
  374MOL0     H51580   8.462   2.154   2.213 -1.2389  0.4070 -0.6200
  374MOL0     H51581   8.567   2.278   2.271  1.7966 -0.6058  0.2059
  374MOL0     H51582   8.724   2.272   2.078 -0.1875  0.0095 -3.5386
  374MOL0     H51583   8.638   2.162   1.993 -1.1449 -0.1320  0.1283
  374MOL0     H51584   8.660   1.996   2.210 -0.3332  0.5917  1.7837
  374MOL0     H51585   8.807   2.043   2.115  0.1139  2.6368 -0.5849
  374MOL0     H51586   8.738   2.150   2.405 -0.1662 -1.1174 -0.2049
  374MOL0     H51587   8.833   2.236   2.286  0.1959 -0.0057 -1.0153
  374MOL0     H51588   8.937   2.077   2.461 -2.6654 -1.4307  1.6633
  374MOL0     H51589   8.995   2.058   2.278 -3.5278 -0.8411 -3.0950
  374MOL0     H51590   8.977   1.842   2.401 -0.2345 -0.0922 -0.7394
  374MOL0     H51591   8.861   1.867   2.264 -1.7936 -1.7342  0.8163
  374MOL0     H51592   8.161   2.458   2.350 -1.7112 -2.4940 -1.6913
  374MOL0     H51593   7.975   2.555   2.443  0.9914 -1.2515 -0.4611
  374MOL0     H51594   7.550   2.729   2.275 -2.1411  1.1879 -1.9879
  374MOL0     H51595   7.319   2.799   2.359  1.0005 -2.6847  0.0578
  374MOL0     H51596   5.980   3.073   3.318  0.0935 -2.0663 -0.2334
  374MOL0     H51597   5.799   3.033   3.458  0.2006 -1.7868 -0.6397
  374MOL0     H51598   5.299   3.148   3.433 -2.8670  0.3566 -0.3554
  374MOL0     H51599   5.076   3.161   3.550  0.7339  1.2724  0.5427
  374MOL0     H51600   4.949   2.775   3.729  1.5638 -1.3324  2.2514
  374MOL0     H51601   5.018   2.847   3.871 -2.2374  1.4501  1.6764
  374MOL0     H51602   4.734   2.899   3.770 -0.6120  1.2659  0.1385
  374MOL0     H51603   4.819   2.993   3.896 -0.5583 -0.4119  0.2139
  374MOL0     H51604   4.728   2.706   3.889 -0.6245  0.0039  0.2236
  374MOL0     H51605   4.853   2.749   3.995 -0.3133 -3.3836 -2.9068
  374MOL0     H51606   4.577   2.888   3.986 -0.0575 -1.5818  0.0480
  374MOL0     H51607   4.704   2.898   4.117 -2.0578  1.9213 -0.8936
  374MOL0     H51608   4.459   2.619   4.276 -1.8611  2.0846 -0.4911
  374MOL0     H51609   5.200   2.801   3.760 -3.1948 -1.2044 -1.5450
  374MOL0     H51610   5.488   2.816   3.772  0.5415 -2.1137 -0.8302
  374MOL0     H51611   5.393   2.681   3.689 -1.2788 -0.3978  0.8963
  374MOL0     H51612   5.524   2.764   3.611  0.4660  2.0228 -0.3238
  375MOL0     O51613   5.463   9.059  10.418 -0.8698  0.5325  0.2638
  375MOL0     C51614   5.519   9.163  10.445  1.1228 -0.4630  0.7185
  375MOL0     O51615   5.660   9.189  10.431  0.2895  0.4858  0.3200
  375MOL0     C51616   5.743   9.079  10.405  0.3398  0.2861 -0.2385
  375MOL0     C51617   5.722   8.982  10.307 -0.4474  0.5609  0.3916
  375MOL0     C51618   5.812   8.873  10.294 -0.3656 -0.2179 -0.3138
  375MOL0     C51619   5.922   8.862  10.378 -0.4499  0.5137  0.0744
  375MOL0     O51620   5.999   8.753  10.368 -0.2787 -0.1902 -0.1315
  375MOL0     C51621   6.134   8.740  10.393  0.0156  0.1867 -0.0060
  375MOL0     C51622   6.161   8.583  10.413  0.2199  0.3575 -0.5646
  375MOL0     C51623   6.147   8.517  10.277  0.2087  0.5721 -0.1147
  375MOL0     C51624   6.189   8.371  10.291 -0.5122 -0.1851 -0.8438
  375MOL0     C51625   6.146   8.300  10.168  0.8848 -1.0279 -0.3424
  375MOL0     C51626   6.219   8.167  10.143 -0.2759 -0.4717  0.0337
  375MOL0     C51627   6.200   8.062  10.251  0.1911 -0.2942  0.0484
  375MOL0     C51628   6.054   8.049  10.299  0.8394 -0.3244  0.1173
  375MOL0     N51629   6.031   7.911  10.342 -0.3880 -0.3199  0.0242
  375MOL0     C51630   5.993   7.803  10.267 -0.1716 -0.2470 -0.0998
  375MOL0     C51631   5.946   7.713  10.360  0.0425 -0.1422  0.6121
  375MOL0     C51632   5.887   7.574  10.328  0.2982 -0.2029  0.4420
  375MOL0     C51633   5.982   7.477  10.386 -0.0317 -0.3462  0.8390
  375MOL0     C51634   5.993   7.342  10.306 -0.4811 -0.2726  0.1282
  375MOL0     C51635   6.135   7.324  10.244  0.7361  0.4865 -0.0743
  375MOL0     O51636   6.215   7.304  10.361 -0.7588 -0.2306  0.2864
  375MOL0     C51637   6.352   7.299  10.345  0.3300  0.2959  0.5899
  375MOL0     C51638   6.429   7.264  10.454 -0.4877 -0.4082  0.2150
  375MOL0     C51639   6.564   7.233  10.442 -0.8330 -0.1522 -0.2327
  375MOL0     C51640   6.643   7.193  10.566 -0.3124 -0.1714  0.4002
  375MOL0     C51641   6.632   7.231  10.313 -0.0688 -0.2791 -0.1078
  375MOL0     C51642   6.774   7.191  10.287  0.6208 -0.2751  0.1569
  375MOL0     O51643   6.826   7.224  10.160  0.1789  0.1949 -0.1764
  375MOL0     C51644   6.956   7.180  10.133  0.1599 -0.4004 -0.2073
  375MOL0     C51645   7.064   7.244  10.199 -0.0454  0.4362 -0.7924
  375MOL0     C51646   7.189   7.209  10.167  0.2177  0.1158 -0.7335
  375MOL0     C51647   7.222   7.108  10.079  0.2236 -0.0752  0.5450
  375MOL0     O51648   7.349   7.092  10.038 -0.7684  0.6549  0.5234
  375MOL0     C51649   7.439   7.040  10.139 -0.5352  0.4401 -0.0293
  375MOL0     C51650   7.558   6.961  10.081 -0.0687  0.2788 -0.8584
  375MOL0     C51651   7.664   6.905  10.180  0.0665 -0.3203 -0.3532
  375MOL0     C51652   7.778   6.844  10.095 -0.7640 -0.5799  0.0248
  375MOL0     C51653   7.884   6.780  10.183 -0.2504  0.7207  0.1339
  375MOL0     C51654   7.993   6.706  10.112 -0.6118 -0.0716  0.0264
  375MOL0     C51655   8.070   6.799  10.012 -0.6946  1.1105  0.4523
  375MOL0     C51656   8.181   6.722   9.941  0.0678 -0.3410 -0.1590
  375MOL0    Cl51657   8.135   6.560   9.893 -0.4301  0.4046  0.3567
  375MOL0     C51658   7.116   7.045  10.003  0.9811  0.2164 -0.3119
  375MOL0     C51659   6.982   7.079  10.044 -0.2671  0.0206  1.0256
  375MOL0     O51660   6.828   7.120  10.370  0.4917  0.3246  0.2579
  375MOL0     C51661   6.554   7.264  10.202 -0.1500 -1.1098 -0.2731
  375MOL0     C51662   6.416   7.296  10.213 -0.1973 -0.2304  1.0754
  375MOL0     N51663   5.951   7.770  10.483 -0.0011 -0.3115 -0.0264
  375MOL0     N51664   6.007   7.885  10.473 -0.7021 -0.0047 -0.0501
  375MOL0     C51665   5.937   8.962  10.477  0.5080  0.4441 -0.2379
  375MOL0     C51666   5.853   9.068  10.490  0.2587 -0.1538  0.5034
  375MOL0     C51667   5.440   9.284  10.479 -0.2938 -0.3589 -0.2260
  375MOL0     C51668   5.513   9.386  10.543 -0.2178 -0.4968  0.0646
  375MOL0     C51669   5.449   9.499  10.593 -0.0609  0.5645 -0.8087
  375MOL0     C51670   5.321   9.530  10.553 -0.1462  0.9808  0.8843
  375MOL0     O51671   5.259   9.641  10.591 -0.4631 -0.0380  0.2262
  375MOL0     C51672   5.204   9.632  10.721  0.0282  0.2704  0.3278
  375MOL0     C51673   5.119   9.757  10.759 -0.2332 -0.7508  0.3243
  375MOL0     C51674   4.995   9.781  10.681  0.2668  0.5796  0.4572
  375MOL0     C51675   5.011   9.816  10.531  0.5250  0.3906  0.1690
  375MOL0     C51676   4.878   9.843  10.470  0.0796 -0.1554 -1.0211
  375MOL0     C51677   4.767   9.880  10.416  0.7361  0.6707  0.7144
  375MOL0     C51678   5.252   9.430  10.483 -0.4409  0.2027  0.7538
  375MOL0     C51679   5.312   9.311  10.439  0.6072 -0.0250 -0.2882
  375MOL0     C51680   5.238   9.234  10.343  0.2795 -0.2491  0.5521
  375MOL0     H51681   5.631   8.980  10.248 -0.6385  0.2187  0.6963
  375MOL0     H51682   5.808   8.796  10.217  1.0631 -0.9921  0.3427
  375MOL0     H51683   6.156   8.779  10.493  3.1411 -2.6835  0.6403
  375MOL0     H51684   6.207   8.784  10.324 -1.3257  1.0489 -0.9116
  375MOL0     H51685   6.262   8.562  10.451  0.7943  2.7577 -0.6364
  375MOL0     H51686   6.087   8.544  10.483  1.2120 -1.4449 -0.4419
  375MOL0     H51687   6.048   8.516  10.231  0.3553 -4.0535 -0.8017
  375MOL0     H51688   6.214   8.571  10.210  1.1791 -0.9370 -0.4174
  375MOL0     H51689   6.298   8.376  10.300 -0.6099 -0.4832  0.7016
  375MOL0     H51690   6.156   8.330  10.386  0.4574  3.2381  1.1379
  375MOL0     H51691   6.167   8.360  10.078 -2.3524  1.1627  0.2088
  375MOL0     H51692   6.040   8.277  10.158  0.7676 -0.2019 -1.2394
  375MOL0     H51693   6.195   8.123  10.046  0.5048 -0.2250 -0.2780
  375MOL0     H51694   6.326   8.188  10.141  0.1322 -2.1856  1.6657
  375MOL0     H51695   6.266   8.085  10.335 -0.5645  0.9943  0.3027
  375MOL0     H51696   6.226   7.963  10.211 -0.7100 -0.6529  0.3244
  375MOL0     H51697   6.046   8.115  10.386  2.1934  2.9738 -2.0325
  375MOL0     H51698   5.979   8.070  10.222  0.3774 -0.9841  0.3885
  375MOL0     H51699   5.994   7.787  10.159 -1.1889  1.1728 -0.3478
  375MOL0     H51700   5.879   7.565  10.219 -2.8197  0.6792  0.4992
  375MOL0     H51701   5.782   7.566  10.358  0.3793  0.7428  1.0134
  375MOL0     H51702   6.079   7.520  10.413 -0.0707  0.6292 -0.4955
  375MOL0     H51703   5.939   7.460  10.486 -2.1758  0.5033  0.1161
  375MOL0     H51704   5.984   7.260  10.377 -1.3668 -1.9869 -1.8889
  375MOL0     H51705   5.914   7.333  10.232 -2.4935 -2.4416  2.3577
  375MOL0     H51706   6.129   7.231  10.186  1.2970  0.4722 -0.1154
  375MOL0     H51707   6.172   7.401  10.175 -1.0713  0.6071 -0.9522
  375MOL0     H51708   6.377   7.254  10.548 -2.8374  0.6851 -0.8809
  375MOL0     H51709   6.592   7.212  10.660 -0.2858 -0.0928  0.3997
  375MOL0     H51710   6.745   7.231  10.569 -0.8576  1.4443 -0.4141
  375MOL0     H51711   6.669   7.087  10.559  1.5728  0.3271 -0.9714
  375MOL0     H51712   7.046   7.313  10.281 -2.1876  2.3963 -2.7720
  375MOL0     H51713   7.270   7.255  10.222 -0.1781 -0.8754  0.7279
  375MOL0     H51714   7.483   7.125  10.193 -5.2855  2.2399  1.5091
  375MOL0     H51715   7.376   6.988  10.212 -1.2804 -0.0414 -0.9876
  375MOL0     H51716   7.506   6.877  10.034  0.8805 -1.2622  0.6972
  375MOL0     H51717   7.618   7.012  10.005 -0.5898  0.4683 -1.1428
  375MOL0     H51718   7.626   6.826  10.245  2.2558 -1.4427 -0.3422
  375MOL0     H51719   7.703   6.991  10.235 -0.2100 -0.2317 -0.2902
  375MOL0     H51720   7.814   6.938  10.054  1.0799  1.1452  4.8253
  375MOL0     H51721   7.733   6.770  10.028 -0.0625 -1.4741  0.5179
  375MOL0     H51722   7.927   6.850  10.254  0.8651  0.0557  0.1520
  375MOL0     H51723   7.837   6.711  10.253  3.6609 -0.5747  1.7600
  375MOL0     H51724   7.951   6.620  10.060 -0.7985  1.0551 -1.7628
  375MOL0     H51725   8.057   6.674  10.195 -2.3643  0.9510  1.8673
  375MOL0     H51726   8.118   6.884  10.061  4.0136 -1.6620  1.1894
  375MOL0     H51727   7.994   6.838   9.944 -1.6879  1.4853  1.7167
  375MOL0     H51728   8.261   6.711  10.015 -2.0852  0.0353  2.3586
  375MOL0     H51729   8.230   6.764   9.853  1.7234 -2.5081 -0.3593
  375MOL0     H51730   7.143   6.974   9.924  1.0140 -1.9967  1.5913
  375MOL0     H51731   6.900   7.026   9.996  0.4635 -0.4081  0.2358
  375MOL0     H51732   6.596   7.274  10.103  0.4559 -0.0370  0.0707
  375MOL0     H51733   6.352   7.313  10.127 -1.7933 -1.3605  1.9824
  375MOL0     H51734   6.023   8.949  10.542 -0.2256 -1.4962  0.4297
  375MOL0     H51735   5.862   9.149  10.562 -2.1825  1.2594 -0.6425
  375MOL0     H51736   5.620   9.382  10.562 -0.5654 -0.0778  2.5467
  375MOL0     H51737   5.507   9.564  10.658 -0.8799 -0.1984  0.7517
  375MOL0     H51738   5.138   9.546  10.734  3.7348 -2.6709  1.4026
  375MOL0     H51739   5.288   9.608  10.787  0.5307 -0.5473 -0.5957
  375MOL0     H51740   5.196   9.835  10.749  2.3490 -3.2424 -0.4922
  375MOL0     H51741   5.101   9.744  10.866  2.4350 -1.0525  0.8280
  375MOL0     H51742   4.926   9.700  10.707  0.2315  1.2087  2.5523
  375MOL0     H51743   4.936   9.863  10.724  0.2041  1.6237 -1.5033
  375MOL0     H51744   5.050   9.727  10.481 -0.1388 -0.4027  1.0371
  375MOL0     H51745   5.075   9.903  10.513 -2.7818  2.9815 -0.0964
  375MOL0     H51746   4.675   9.912  10.371  0.1925 -1.4018  0.2327
  375MOL0     H51747   5.152   9.455  10.448  0.5442  2.2075 -0.9111
  375MOL0     H51748   5.151   9.283  10.299  1.7556  1.1270 -0.9685
  375MOL0     H51749   5.307   9.202  10.264 -0.4824 -2.4820  0.7203
  375MOL0     H51750   5.195   9.143  10.385  1.0202 -2.6309 -3.3077
  376MOL0     O51751   0.088   0.749  11.114  0.1864 -0.8914  0.5247
  376MOL0     C51752   0.065   0.671  11.200 -0.1243  0.1425 -0.6658
  376MOL0     O51753   0.139   0.562  11.230 -0.5216  0.4207 -0.2864
  376MOL0     C51754   0.249   0.513  11.168  0.6926  0.0479 -0.0447
  376MOL0     C51755   0.241   0.413  11.072 -0.2326 -0.4320 -0.3105
  376MOL0     C51756   0.356   0.357  11.018  0.1495  0.3001  0.6049
  376MOL0     C51757   0.485   0.398  11.060 -0.5358 -0.2345  0.5144
  376MOL0     O51758   0.611   0.359  11.015 -0.3769  0.1985  0.2392
  376MOL0     C51759   0.604   0.272  10.904  0.6220  0.4114  0.2187
  376MOL0     C51760   0.749   0.221  10.887 -0.7170  0.2033 -0.4885
  376MOL0     C51761   0.768   0.137  10.756 -0.1623 -0.7506 -0.5438
  376MOL0     C51762   0.894   0.070  10.750  0.1665  0.6279  0.1174
  376MOL0     C51763   0.930   0.020  10.613 -0.0813  0.3633 -0.9300
  376MOL0     C51764   0.839  -0.082  10.547  0.4352 -0.2726  0.2264
  376MOL0     C51765   0.857  -0.089  10.393  0.0843  0.5219  1.2339
  376MOL0     C51766   0.822   0.036  10.310 -0.4885 -0.2186  0.6843
  376MOL0     N51767   0.696   0.099  10.358 -0.5954  0.4907 -0.4739
  376MOL0     C51768   0.577   0.031  10.346  0.7476  0.2361  0.5879
  376MOL0     C51769   0.489   0.118  10.401  0.4267  0.3005 -0.2339
  376MOL0     C51770   0.341   0.099  10.415 -0.6116  0.5195 -0.9357
  376MOL0     C51771   0.312   0.041  10.559  0.2351 -0.4964 -0.0505
  376MOL0     C51772   0.366  -0.100  10.584  0.0509 -0.6553  0.7225
  376MOL0     C51773   0.336  -0.136  10.730 -0.1127 -1.6486 -0.1216
  376MOL0     O51774   0.361  -0.277  10.775  0.2147 -0.3215 -0.1166
  376MOL0     C51775   0.490  -0.314  10.771  0.2084 -0.2229 -0.5670
  376MOL0     C51776   0.518  -0.438  10.703  0.4381 -0.0999  0.1231
  376MOL0     C51777   0.654  -0.489  10.678 -1.1610  0.4682  0.3096
  376MOL0     C51778   0.674  -0.612  10.591 -0.2580  0.0492  0.8245
  376MOL0     C51779   0.760  -0.413  10.738 -0.5102  0.6782  0.0906
  376MOL0     C51780   0.907  -0.453  10.728  0.1985 -0.2665  1.1737
  376MOL0     O51781   0.986  -0.350  10.774  0.2020  0.4356  0.3216
  376MOL0     C51782   1.121  -0.366  10.775  0.1219  0.3948  0.4514
  376MOL0     C51783   1.213  -0.326  10.673  0.6470  0.3304 -0.5540
  376MOL0     C51784   1.343  -0.363  10.683 -0.2001 -0.9562 -0.4145
  376MOL0     C51785   1.395  -0.430  10.796  0.9224 -0.1774 -0.3436
  376MOL0     O51786   1.522  -0.467  10.784 -0.1112  0.3430 -0.3773
  376MOL0     C51787   1.567  -0.550  10.893 -0.1338  0.6488  0.3627
  376MOL0     C51788   1.713  -0.571  10.877 -0.8322 -0.5815  0.3360
  376MOL0     C51789   1.788  -0.639  10.980  0.8184  0.7513 -0.1710
  376MOL0     C51790   1.941  -0.647  10.950 -0.1808  0.3563 -0.5592
  376MOL0     C51791   2.014  -0.536  11.017  0.1095 -0.4173 -0.7613
  376MOL0     C51792   2.101  -0.591  11.125  0.7913  0.4009  0.2216
  376MOL0     C51793   2.169  -0.496  11.222  1.0621  0.1017 -0.0829
  376MOL0     C51794   2.266  -0.573  11.296 -0.1728  1.3995 -0.3319
  376MOL0    Cl51795   2.367  -0.461  11.390  0.3046  0.0413  0.2729
  376MOL0     C51796   1.312  -0.446  10.909  0.0936 -0.8369 -0.1105
  376MOL0     C51797   1.176  -0.423  10.888  0.4380 -0.6221  0.0777
  376MOL0     O51798   0.946  -0.565  10.696 -0.6593  0.9243  0.0625
  376MOL0     C51799   0.731  -0.290  10.801 -0.1835 -0.4984 -0.4358
  376MOL0     C51800   0.597  -0.238  10.820  0.1271  0.1193  0.4209
  376MOL0     N51801   0.557   0.231  10.440  1.1204 -0.4637  0.5592
  376MOL0     N51802   0.678   0.218  10.412  0.6611  0.0382  0.5013
  376MOL0     C51803   0.489   0.506  11.153  0.0644 -0.2564  0.0093
  376MOL0     C51804   0.372   0.565  11.198  0.3352  0.3115 -0.3991
  376MOL0     C51805  -0.073   0.689  11.267  0.6166 -0.8638 -0.4221
  376MOL0     C51806  -0.102   0.606  11.368 -0.6334  0.1627  0.2647
  376MOL0     C51807  -0.218   0.616  11.436  0.1022 -0.4612 -0.3107
  376MOL0     C51808  -0.316   0.708  11.390 -0.1817 -0.1706 -1.2949
  376MOL0     O51809  -0.433   0.701  11.463 -0.2413  0.4791  0.5285
  376MOL0     C51810  -0.551   0.742  11.398  0.6891  0.2291 -0.6929
  376MOL0     C51811  -0.663   0.669  11.459 -0.3805 -0.1290  0.8139
  376MOL0     C51812  -0.785   0.757  11.426 -0.5012  1.0649 -0.1982
  376MOL0     C51813  -0.907   0.673  11.440  0.0650  0.7364  0.0629
  376MOL0     C51814  -0.922   0.630  11.585  0.4984  0.4466  0.6510
  376MOL0     C51815  -0.932   0.603  11.704  0.3928 -0.2840 -0.1266
  376MOL0     C51816  -0.287   0.798  11.291 -0.2228 -0.5048  0.0282
  376MOL0     C51817  -0.162   0.794  11.232 -0.4936 -0.6032  0.0858
  376MOL0     C51818  -0.127   0.907  11.135  0.8898  0.4206 -0.0594
  376MOL0     H51819   0.144   0.377  11.038 -0.1130 -0.2390 -0.8624
  376MOL0     H51820   0.338   0.284  10.941  2.2136 -0.2410  0.5679
  376MOL0     H51821   0.574   0.326  10.813 -0.7138  1.0874  1.0270
  376MOL0     H51822   0.547   0.181  10.921 -1.9270  1.2519 -2.8916
  376MOL0     H51823   0.812   0.310  10.890  0.8351 -0.8169 -1.5165
  376MOL0     H51824   0.777   0.169  10.979  2.6828  1.3270 -0.7508
  376MOL0     H51825   0.691   0.059  10.756 -0.5509 -0.4194 -2.5141
  376MOL0     H51826   0.749   0.197  10.666  3.7634  3.0121  0.7917
  376MOL0     H51827   0.972   0.142  10.777 -1.8892  2.4576  1.6371
  376MOL0     H51828   0.909  -0.016  10.816  1.1462  0.0644 -0.8125
  376MOL0     H51829   1.033  -0.018  10.616 -0.4317 -0.7134 -1.7021
  376MOL0     H51830   0.933   0.102  10.541  0.3971 -0.3480 -1.7384
  376MOL0     H51831   0.861  -0.179  10.592 -0.4637  0.1047  1.5196
  376MOL0     H51832   0.736  -0.060  10.577  1.1656  4.2352  0.1618
  376MOL0     H51833   0.785  -0.160  10.353  1.7071  0.6337 -2.2551
  376MOL0     H51834   0.959  -0.116  10.362  0.4467  2.3026  0.7584
  376MOL0     H51835   0.896   0.116  10.301 -1.5428  0.6373 -0.9584
  376MOL0     H51836   0.806   0.024  10.202  0.5397 -0.2650  0.5252
  376MOL0     H51837   0.551  -0.065  10.303 -0.7700 -0.2195  2.3938
  376MOL0     H51838   0.304   0.021  10.349  0.4988 -0.1550 -0.7820
  376MOL0     H51839   0.291   0.195  10.396 -0.2492  1.1343  0.9421
  376MOL0     H51840   0.362   0.105  10.632  0.2216  1.1635 -1.4296
  376MOL0     H51841   0.204   0.052  10.575  0.3006  0.7260 -0.3629
  376MOL0     H51842   0.300  -0.162  10.522 -1.5858  1.6629  0.0140
  376MOL0     H51843   0.469  -0.099  10.547 -1.0046  0.9258 -2.6277
  376MOL0     H51844   0.381  -0.055  10.789 -1.2595 -1.1424  0.0703
  376MOL0     H51845   0.229  -0.117  10.735  0.0226 -0.5377 -1.0450
  376MOL0     H51846   0.433  -0.493  10.663  0.6039 -0.7924  0.6944
  376MOL0     H51847   0.684  -0.700  10.655  0.5043 -0.7772 -0.4103
  376MOL0     H51848   0.758  -0.613  10.521 -0.0875 -0.1000  1.0295
  376MOL0     H51849   0.588  -0.631  10.526 -1.4281 -1.2315  2.6492
  376MOL0     H51850   1.180  -0.279  10.581  0.8094  1.0049 -0.2760
  376MOL0     H51851   1.422  -0.339  10.612  0.1249 -2.5943 -0.6515
  376MOL0     H51852   1.549  -0.507  10.992 -0.1699  1.1220  0.1538
  376MOL0     H51853   1.522  -0.649  10.881  2.2299 -0.8413  2.5827
  376MOL0     H51854   1.741  -0.616  10.781 -0.4039 -0.2818  0.3197
  376MOL0     H51855   1.756  -0.471  10.875 -0.2007 -0.8017  1.8662
  376MOL0     H51856   1.744  -0.739  10.991 -0.8173  1.3226 -1.2270
  376MOL0     H51857   1.774  -0.590  11.076 -1.9630 -0.3986  0.1034
  376MOL0     H51858   1.977  -0.651  10.846  4.1672 -0.9040  0.7710
  376MOL0     H51859   1.969  -0.746  10.986 -0.3300 -0.4121 -2.4269
  376MOL0     H51860   2.088  -0.497  10.947  0.1301  0.0014 -0.5066
  376MOL0     H51861   1.949  -0.458  11.056 -1.2688 -3.5817  4.0540
  376MOL0     H51862   2.172  -0.653  11.069  1.1250  0.0115  1.0545
  376MOL0     H51863   2.041  -0.658  11.188  2.2126  0.3196  1.5472
  376MOL0     H51864   2.099  -0.440  11.285  2.7223  1.4438  0.6611
  376MOL0     H51865   2.207  -0.421  11.151  1.4713 -1.1244 -1.2029
  376MOL0     H51866   2.336  -0.630  11.234  0.6871 -0.3939  2.1537
  376MOL0     H51867   2.216  -0.645  11.361 -2.1907  3.2067  0.2149
  376MOL0     H51868   1.340  -0.487  11.006 -1.2865 -1.3456  0.1074
  376MOL0     H51869   1.105  -0.459  10.962 -1.3147 -1.9266 -2.1188
  376MOL0     H51870   0.803  -0.232  10.858 -0.7177  0.0668 -0.3224
  376MOL0     H51871   0.570  -0.142  10.864  0.4359  0.6832 -0.5874
  376MOL0     H51872   0.575   0.560  11.190 -1.6131  2.6830 -0.1036
  376MOL0     H51873   0.380   0.635  11.280  0.1789 -0.0503 -0.0709
  376MOL0     H51874  -0.038   0.524  11.401 -0.5077 -0.2925 -1.0239
  376MOL0     H51875  -0.246   0.550  11.518  1.9969  2.3798  2.9478
  376MOL0     H51876  -0.549   0.851  11.402 -0.6708  0.3107 -1.6004
  376MOL0     H51877  -0.540   0.714  11.293 -2.7514 -0.1134 -1.0869
  376MOL0     H51878  -0.641   0.673  11.566 -0.4319  4.3826  0.8520
  376MOL0     H51879  -0.669   0.566  11.424  0.4574  0.3774 -0.9614
  376MOL0     H51880  -0.789   0.847  11.488 -0.7676  1.1480 -0.3343
  376MOL0     H51881  -0.771   0.794  11.324  0.1612  0.8562 -0.1883
  376MOL0     H51882  -0.916   0.604  11.355 -0.2862  2.2026 -1.1477
  376MOL0     H51883  -0.987   0.741  11.407  0.0431  1.1428  0.9285
  376MOL0     H51884  -0.928   0.569  11.805  0.1133  1.1478  0.3914
  376MOL0     H51885  -0.359   0.876  11.266 -3.7770 -1.9865  4.3041
  376MOL0     H51886  -0.115   0.868  11.034 -0.6563  1.1434 -0.5422
  376MOL0     H51887  -0.210   0.977  11.128  0.4222  0.6127  4.4383
  376MOL0     H51888  -0.037   0.968  11.151 -0.8265  3.1105 -0.0257
  377MOL0     O51889   9.996   6.042   8.330 -0.2877  0.1217 -0.0281
  377MOL0     C51890   9.937   6.010   8.435  0.7080  0.5527  0.6517
  377MOL0     O51891   9.989   5.988   8.562  0.1275  0.3841  0.1055
  377MOL0     C51892  10.111   6.032   8.604  0.3780 -0.6375 -0.1144
  377MOL0     C51893  10.214   6.072   8.524 -0.4396  0.5331  0.0505
  377MOL0     C51894  10.334   6.103   8.584  0.2254 -0.5255  0.6643
  377MOL0     C51895  10.355   6.101   8.719 -0.7899  0.7344 -0.6847
  377MOL0     O51896  10.487   6.129   8.756  0.7805 -0.1924  0.2105
  377MOL0     C51897  10.512   6.108   8.891  0.0636  0.6626 -0.0351
  377MOL0     C51898  10.657   6.069   8.907 -0.5313 -0.7324  0.3331
  377MOL0     C51899  10.702   5.922   8.868  0.0357 -0.3014  0.9595
  377MOL0     C51900  10.834   5.886   8.939  0.4178  0.8873  0.4353
  377MOL0     C51901  10.808   5.826   9.077 -0.0791 -0.5042  0.6652
  377MOL0     C51902  10.942   5.809   9.153  0.0024  0.4472 -0.0128
  377MOL0     C51903  10.910   5.760   9.300 -0.1763  0.4052  0.4725
  377MOL0     C51904  11.045   5.749   9.372 -0.6002  0.8193  0.0255
  377MOL0     N51905  11.033   5.720   9.518  0.1381 -0.4981 -0.2889
  377MOL0     C51906  11.058   5.812   9.615  0.4215 -0.7625  0.1851
  377MOL0     C51907  11.045   5.746   9.732 -0.6101 -0.6322 -0.2680
  377MOL0     C51908  11.067   5.809   9.864  0.5716 -0.3354 -0.1297
  377MOL0     C51909  10.935   5.877   9.898  0.1085 -0.6315  0.3659
  377MOL0     C51910  10.965   5.960  10.021  0.2675 -0.5653 -0.4680
  377MOL0     C51911  10.839   6.024  10.067  0.3006 -1.1744  0.4373
  377MOL0     O51912  10.747   5.924  10.112 -0.6404 -0.0379 -0.4251
  377MOL0     C51913  10.757   5.879  10.241  0.1974 -0.4191 -0.5317
  377MOL0     C51914  10.650   5.793  10.280  0.2634 -0.3023 -0.5516
  377MOL0     C51915  10.648   5.706  10.388 -0.3848  0.2572  0.0574
  377MOL0     C51916  10.528   5.619  10.413  0.0367 -0.2362  0.4126
  377MOL0     C51917  10.751   5.728  10.485 -0.0393  0.3124 -0.3451
  377MOL0     C51918  10.761   5.651  10.620 -0.0740  0.2746  0.5154
  377MOL0     O51919  10.641   5.604  10.667 -0.7599 -0.0680 -0.5363
  377MOL0     C51920  10.645   5.558  10.795  0.9988  0.0861  0.8643
  377MOL0     C51921  10.555   5.620  10.881  0.2262  0.9033  0.2002
  377MOL0     C51922  10.543   5.591  11.021 -0.1012  0.1231  0.0639
  377MOL0     C51923  10.634   5.491  11.069  0.1889 -0.4184 -0.0711
  377MOL0     O51924  10.659   5.460  11.205  0.3541  0.4775 -0.2261
  377MOL0     C51925  10.583   5.519  11.309 -0.3597  0.4041 -0.0193
  377MOL0     C51926  10.508   5.409  11.379  0.0088  0.0742  0.9365
  377MOL0     C51927  10.375   5.365  11.318  0.4712 -0.2848 -1.2422
  377MOL0     C51928  10.292   5.265  11.409  0.2848  0.2819  0.0059
  377MOL0     C51929  10.158   5.237  11.327  0.2211  0.3442 -0.0280
  377MOL0     C51930  10.083   5.129  11.408 -0.4004 -0.8116 -0.7374
  377MOL0     C51931   9.990   5.053  11.324 -0.1445 -0.1417 -0.1064
  377MOL0     C51932   9.886   5.127  11.248 -0.2901  1.1788 -0.2800
  377MOL0    Cl51933   9.767   5.186  11.357 -0.0062  0.2484  0.0083
  377MOL0     C51934  10.723   5.424  10.987 -0.5375 -0.3466 -0.5010
  377MOL0     C51935  10.727   5.457  10.848 -0.0827 -0.0341 -0.1798
  377MOL0     O51936  10.875   5.629  10.664 -0.1266  0.5223 -0.6181
  377MOL0     C51937  10.856   5.821  10.455 -0.8142  0.0005  0.0309
  377MOL0     C51938  10.864   5.891  10.333 -0.5024 -0.0354 -0.1061
  377MOL0     N51939  10.985   5.626   9.709 -0.3660 -0.3015 -0.9888
  377MOL0     N51940  10.987   5.613   9.582 -0.7529  0.0232  0.7238
  377MOL0     C51941  10.249   6.066   8.800 -0.5238 -0.1176  0.3661
  377MOL0     C51942  10.130   6.029   8.743  0.2986  0.3875  0.3985
  377MOL0     C51943   9.790   6.005   8.419  0.2759 -0.4488  0.2848
  377MOL0     C51944   9.728   5.933   8.520 -0.6614  0.2493 -0.8481
  377MOL0     C51945   9.588   5.922   8.535  0.2737  0.7991  0.5293
  377MOL0     C51946   9.516   5.979   8.429  0.4753  0.2939 -0.1879
  377MOL0     O51947   9.377   5.961   8.419 -0.1478  0.0791  0.1331
  377MOL0     C51948   9.294   6.056   8.491 -0.2285 -0.0691 -0.5266
  377MOL0     C51949   9.185   5.986   8.570 -0.1322 -0.2152 -0.5576
  377MOL0     C51950   9.221   5.941   8.713  0.2608  0.1718 -0.6835
  377MOL0     C51951   9.111   5.855   8.774  0.2936 -0.5794  0.0869
  377MOL0     C51952   9.001   5.932   8.837 -0.0357  0.9725 -0.4767
  377MOL0     C51953   8.916   6.004   8.863  0.3705  0.3739 -1.2541
  377MOL0     C51954   9.574   6.047   8.321 -0.4746 -0.1962 -0.7907
  377MOL0     C51955   9.711   6.059   8.313 -0.3034 -0.3342  0.1601
  377MOL0     C51956   9.763   6.123   8.189  0.7191  0.1923 -0.6778
  377MOL0     H51957  10.212   6.087   8.416  0.7634 -0.4101 -0.1177
  377MOL0     H51958  10.412   6.145   8.521  0.2040 -0.7477  0.4894
  377MOL0     H51959  10.458   6.024   8.935  1.2365  0.0173  0.2149
  377MOL0     H51960  10.496   6.202   8.944 -0.9278 -0.1197  1.1082
  377MOL0     H51961  10.725   6.146   8.869  1.7615 -2.5501  0.4729
  377MOL0     H51962  10.672   6.075   9.015 -0.1692 -2.1797  0.3876
  377MOL0     H51963  10.618   5.855   8.891 -1.2243 -0.1609 -2.6801
  377MOL0     H51964  10.717   5.928   8.760 -0.0340  0.9166  0.9976
  377MOL0     H51965  10.897   5.820   8.880 -1.0774  1.9447 -2.5383
  377MOL0     H51966  10.900   5.972   8.955  2.8597 -0.5074 -1.4391
  377MOL0     H51967  10.771   5.723   9.065  1.4241 -1.4075  3.0997
  377MOL0     H51968  10.737   5.889   9.132  0.0628 -2.1562  2.9008
  377MOL0     H51969  10.996   5.735   9.093  0.4797 -1.5439  2.7090
  377MOL0     H51970  11.009   5.896   9.157  1.0695 -0.4046  1.5374
  377MOL0     H51971  10.847   5.671   9.313 -1.1274  0.9739 -0.1548
  377MOL0     H51972  10.850   5.837   9.349 -0.0081  1.4040 -0.8418
  377MOL0     H51973  11.111   5.670   9.333 -1.0239 -0.3003  1.4992
  377MOL0     H51974  11.093   5.847   9.365  0.1653  0.6151  1.9375
  377MOL0     H51975  11.101   5.911   9.599 -1.0051  0.4961  3.2439
  377MOL0     H51976  11.153   5.877   9.857  0.2355  0.8256  4.3386
  377MOL0     H51977  11.095   5.736   9.940  0.2841  0.4378  0.7452
  377MOL0     H51978  10.905   5.943   9.816 -1.4789  0.0038  1.3996
  377MOL0     H51979  10.866   5.795   9.923 -1.4003  0.3993 -0.2408
  377MOL0     H51980  11.022   5.909  10.099 -0.6765 -1.4443 -0.3369
  377MOL0     H51981  11.031   6.044  10.001 -0.1355 -0.2138 -0.3305
  377MOL0     H51982  10.859   6.096  10.147  1.9060 -0.8353 -0.2158
  377MOL0     H51983  10.797   6.079   9.983 -0.3310  0.6776  1.9195
  377MOL0     H51984  10.574   5.792  10.202 -0.1893  1.1836 -0.1637
  377MOL0     H51985  10.469   5.664  10.493  1.1636 -0.8451  1.6260
  377MOL0     H51986  10.563   5.524  10.454  3.5061  0.3771 -0.7666
  377MOL0     H51987  10.465   5.608  10.325 -0.0103 -1.4442  0.5842
  377MOL0     H51988  10.493   5.705  10.854 -0.5455  0.7465  1.3715
  377MOL0     H51989  10.480   5.649  11.088  0.3080 -0.8389  1.3240
  377MOL0     H51990  10.645   5.559  11.390  0.2824 -1.8521  0.6573
  377MOL0     H51991  10.516   5.605  11.296  0.9061  1.4704  0.2391
  377MOL0     H51992  10.572   5.322  11.397  1.0555  0.4428 -0.8303
  377MOL0     H51993  10.486   5.452  11.477  3.9399  0.3763  1.8147
  377MOL0     H51994  10.390   5.313  11.223  0.2386 -2.4797 -0.1362
  377MOL0     H51995  10.330   5.462  11.295  0.5994 -0.1961 -1.1203
  377MOL0     H51996  10.278   5.305  11.510 -1.4557 -1.0959  0.3672
  377MOL0     H51997  10.353   5.176  11.425  1.0548  0.8479  0.2900
  377MOL0     H51998  10.097   5.326  11.309 -1.2112 -0.5580  0.2447
  377MOL0     H51999  10.181   5.189  11.231  3.7435  2.3114 -0.3604
  377MOL0     H52000  10.038   5.170  11.499  1.2551  1.0539 -0.6771
  377MOL0     H52001  10.154   5.056  11.447 -0.1668  0.9243  2.4359
  377MOL0     H52002   9.946   4.977  11.390  0.9223  0.0689  0.8876
  377MOL0     H52003  10.051   4.994  11.254  1.4383 -0.5462  1.5228
  377MOL0     H52004   9.828   5.068  11.177 -0.4607  2.5365 -1.3129
  377MOL0     H52005   9.931   5.209  11.192 -1.9693  2.1570 -0.2629
  377MOL0     H52006  10.798   5.363  11.037 -0.9505 -0.1595  0.3613
  377MOL0     H52007  10.792   5.396  10.785 -1.7402 -2.5011  0.3583
  377MOL0     H52008  10.942   5.840  10.519 -0.4556 -0.2930 -0.3533
  377MOL0     H52009  10.941   5.965  10.314  0.7347 -1.4076 -0.6771
  377MOL0     H52010  10.259   6.057   8.907 -0.4711  2.1980  0.5970
  377MOL0     H52011  10.044   5.996   8.800 -0.6107 -0.1794 -1.2413
  377MOL0     H52012   9.773   5.875   8.601 -0.7955  2.1217  0.6268
  377MOL0     H52013   9.547   5.872   8.623  0.1233  1.5326  0.8782
  377MOL0     H52014   9.353   6.125   8.553 -0.2111 -0.8356  0.3228
  377MOL0     H52015   9.248   6.118   8.413  0.2290  0.6818 -0.2110
  377MOL0     H52016   9.155   5.895   8.517  1.2688 -2.0418  1.5937
  377MOL0     H52017   9.101   6.055   8.579 -0.6304 -1.0710  5.0825
  377MOL0     H52018   9.316   5.890   8.730  1.7060  3.1089  0.8947
  377MOL0     H52019   9.232   6.037   8.766  4.0463 -0.5731  0.1420
  377MOL0     H52020   9.165   5.798   8.849 -1.5337  0.2771  2.1583
  377MOL0     H52021   9.082   5.785   8.695  2.6784  0.5430 -1.9107
  377MOL0     H52022   8.841   6.078   8.881  0.7830  0.0587  2.5657
  377MOL0     H52023   9.501   6.079   8.246 -2.2008 -0.2239  0.8053
  377MOL0     H52024   9.681   6.163   8.129 -0.8471 -2.1585 -0.2511
  377MOL0     H52025   9.835   6.201   8.213  0.7143  0.5946 -1.8960
  377MOL0     H52026   9.812   6.037   8.142 -2.5908 -1.4478 -1.4268
  378MOL0     O52027   7.546   6.215   4.133 -0.5189  0.4755  0.2437
  378MOL0     C52028   7.492   6.329   4.134 -0.7525  0.7205 -0.3592
  378MOL0     O52029   7.562   6.451   4.151 -0.0389 -0.1845 -0.2056
  378MOL0     C52030   7.685   6.452   4.095  0.3136 -0.6048 -0.1925
  378MOL0     C52031   7.698   6.457   3.961 -1.0198  0.2228  0.8764
  378MOL0     C52032   7.831   6.461   3.902 -0.0178 -1.3236 -0.9455
  378MOL0     C52033   7.943   6.459   3.985 -0.4016  0.1313  0.9977
  378MOL0     O52034   8.073   6.466   3.928 -0.5436 -0.9952 -0.0178
  378MOL0     C52035   8.104   6.484   3.794 -0.0285 -0.0611 -0.4168
  378MOL0     C52036   8.260   6.500   3.779  0.0111  0.5599 -0.1601
  378MOL0     C52037   8.311   6.467   3.641 -0.8557  0.2265 -0.6830
  378MOL0     C52038   8.463   6.482   3.632 -0.1496  0.3186 -0.7468
  378MOL0     C52039   8.529   6.443   3.492  0.0751 -0.5409  0.6420
  378MOL0     C52040   8.678   6.433   3.511 -0.5952  0.4351  0.5096
  378MOL0     C52041   8.746   6.381   3.375  0.2641  0.1275  0.5434
  378MOL0     C52042   8.903   6.405   3.393  0.7940  0.2835 -0.0192
  378MOL0     N52043   8.975   6.334   3.294  0.7299 -0.9673 -0.5411
  378MOL0     C52044   8.986   6.345   3.153  0.5364 -0.3265 -0.3106
  378MOL0     C52045   9.112   6.313   3.119  0.0729 -0.5486 -0.4109
  378MOL0     C52046   9.168   6.320   2.973 -0.4569  0.8128 -0.7705
  378MOL0     C52047   9.215   6.188   2.911  0.0155  0.3750 -0.2695
  378MOL0     C52048   9.340   6.145   2.988 -1.4574  0.4496 -0.5202
  378MOL0     C52049   9.449   6.240   3.007 -0.2491 -1.0872  0.4378
  378MOL0     O52050   9.489   6.312   2.885 -0.3456 -0.2199 -1.0529
  378MOL0     C52051   9.562   6.243   2.792 -0.0842 -0.0417  0.0810
  378MOL0     C52052   9.644   6.131   2.799  0.5501  0.6941  0.4061
  378MOL0     C52053   9.725   6.096   2.691 -0.4069  0.8455 -0.8053
  378MOL0     C52054   9.829   5.986   2.715 -0.5887  0.1723  0.2882
  378MOL0     C52055   9.719   6.157   2.564  0.1879 -0.1857  0.1861
  378MOL0     C52056   9.773   6.112   2.432 -0.4291  0.1108  0.6117
  378MOL0     O52057   9.817   6.208   2.347 -0.2250 -0.3629  0.0759
  378MOL0     C52058   9.893   6.175   2.230 -0.5457 -0.5087 -0.1465
  378MOL0     C52059   9.834   6.189   2.103  0.7386 -0.1839  0.4403
  378MOL0     C52060   9.905   6.184   1.988 -0.4008  0.0264 -0.2815
  378MOL0     C52061  10.040   6.148   1.990 -0.6201 -0.8196 -0.5880
  378MOL0     O52062  10.111   6.134   1.872  0.5120 -0.5146 -0.6142
  378MOL0     C52063  10.099   6.231   1.762  0.2713  0.2947  0.1364
  378MOL0     C52064  10.035   6.141   1.644 -0.1547 -0.7049  0.6705
  378MOL0     C52065  10.029   6.212   1.508  0.7986 -0.7451  0.4481
  378MOL0     C52066  10.174   6.241   1.447  0.5810  0.4253  0.1813
  378MOL0     C52067  10.217   6.381   1.462  0.1701 -0.7784  0.5672
  378MOL0     C52068  10.357   6.407   1.399  0.9853  0.4766  0.0237
  378MOL0     C52069  10.398   6.543   1.408  0.6108 -0.5709  0.0686
  378MOL0     C52070  10.516   6.576   1.322 -0.1425 -0.8771  0.1537
  378MOL0    Cl52071  10.651   6.523   1.411 -0.5848 -0.2943  0.2114
  378MOL0     C52072  10.096   6.119   2.116 -0.4884  0.5012 -0.5129
  378MOL0     C52073  10.027   6.139   2.233  0.3422 -0.2374 -0.1678
  378MOL0     O52074   9.784   5.993   2.413 -0.4884 -0.5285  0.1960
  378MOL0     C52075   9.630   6.265   2.563  0.8072  1.2367 -0.1745
  378MOL0     C52076   9.561   6.304   2.665  0.0106  0.6357 -0.8541
  378MOL0     N52077   9.177   6.272   3.232 -0.4092 -0.0007 -0.9515
  378MOL0     N52078   9.096   6.284   3.331 -0.5521  0.3072 -0.5659
  378MOL0     C52079   7.927   6.455   4.123  1.0030  0.7847 -0.3498
  378MOL0     C52080   7.797   6.454   4.174 -0.3391  0.5307  0.4293
  378MOL0     C52081   7.351   6.336   4.094  0.4929  0.5725  0.1591
  378MOL0     C52082   7.308   6.468   4.066  0.0683  0.3757 -0.7383
  378MOL0     C52083   7.176   6.494   4.031 -0.2535  0.5676  0.4373
  378MOL0     C52084   7.081   6.397   4.016  0.1693  0.4362 -0.3311
  378MOL0     O52085   6.953   6.423   3.977 -1.0391 -0.4648  0.9033
  378MOL0     C52086   6.925   6.359   3.853 -0.5483 -0.2541  1.4044
  378MOL0     C52087   6.789   6.294   3.841 -0.3733  0.7132  0.3247
  378MOL0     C52088   6.741   6.230   3.964  0.2698 -0.2425 -0.2824
  378MOL0     C52089   6.653   6.110   3.948  0.6834 -0.0659  0.7153
  378MOL0     C52090   6.576   6.085   4.066 -0.7737 -0.2139  0.0374
  378MOL0     C52091   6.514   6.060   4.167  0.9532  0.3777 -0.3917
  378MOL0     C52092   7.117   6.266   4.052  0.5728 -0.7023 -0.1620
  378MOL0     C52093   7.244   6.237   4.097 -0.4309  0.8101  0.5299
  378MOL0     C52094   7.270   6.100   4.151 -1.0746  0.0571 -0.6831
  378MOL0     H52095   7.610   6.462   3.897 -0.7852 -0.3685  0.5032
  378MOL0     H52096   7.830   6.461   3.794 -3.2291 -0.5743 -1.0127
  378MOL0     H52097   8.055   6.573   3.753  0.0553 -0.4176 -1.3189
  378MOL0     H52098   8.080   6.393   3.738 -0.3709  0.4581 -1.1141
  378MOL0     H52099   8.295   6.599   3.809  2.1967  0.0542 -0.8430
  378MOL0     H52100   8.305   6.425   3.845  2.3759  2.0443  0.0266
  378MOL0     H52101   8.269   6.373   3.602 -1.2182  0.2458 -0.3421
  378MOL0     H52102   8.269   6.537   3.568 -1.9237  1.8000  1.3386
  378MOL0     H52103   8.507   6.578   3.659 -0.0802 -0.1885  1.1221
  378MOL0     H52104   8.503   6.412   3.706 -0.5369  2.8577  2.0741
  378MOL0     H52105   8.519   6.531   3.427  1.8079 -1.3406 -0.8153
  378MOL0     H52106   8.478   6.362   3.439 -1.0974 -0.7826  2.0958
  378MOL0     H52107   8.716   6.534   3.528  1.7192 -0.2563 -0.2081
  378MOL0     H52108   8.701   6.376   3.601  1.1980  1.3015  0.6460
  378MOL0     H52109   8.708   6.420   3.280  1.3572 -1.1719 -0.4688
  378MOL0     H52110   8.727   6.274   3.369  1.2265 -0.0042 -0.4579
  378MOL0     H52111   8.924   6.513   3.394 -1.8725  0.8776  1.1230
  378MOL0     H52112   8.928   6.358   3.488  3.3053  0.0739 -0.7226
  378MOL0     H52113   8.912   6.394   3.090 -2.2242  0.8774  3.4881
  378MOL0     H52114   9.244   6.397   2.953  0.7740  0.0086  0.5857
  378MOL0     H52115   9.091   6.359   2.906  1.5231  1.8268 -2.5614
  378MOL0     H52116   9.127   6.124   2.921 -0.9058  1.6880  0.2921
  378MOL0     H52117   9.239   6.202   2.805  0.9669 -0.6240 -0.1961
  378MOL0     H52118   9.313   6.115   3.089 -0.6821  1.5007  0.0249
  378MOL0     H52119   9.389   6.059   2.942 -0.8118 -0.0696  1.0671
  378MOL0     H52120   9.421   6.315   3.082  2.8401  0.5826  0.0685
  378MOL0     H52121   9.533   6.180   3.042  1.0442  0.9578  1.0156
  378MOL0     H52122   9.645   6.088   2.899 -0.0874 -0.1909  0.0354
  378MOL0     H52123   9.786   5.887   2.697 -1.5414 -0.1722  3.6913
  378MOL0     H52124   9.854   5.969   2.820  1.2552 -3.1437 -0.5333
  378MOL0     H52125   9.925   6.001   2.664 -0.5199  1.5741  0.7874
  378MOL0     H52126   9.730   6.216   2.096  1.1938  1.2330 -2.5171
  378MOL0     H52127   9.836   6.194   1.905 -2.7767 -2.6682  1.1623
  378MOL0     H52128  10.034   6.315   1.788  1.6309  1.4323 -0.0304
  378MOL0     H52129  10.197   6.275   1.740 -0.5856  2.4841  0.5225
  378MOL0     H52130  10.086   6.048   1.617  2.6588  1.5470 -2.6333
  378MOL0     H52131   9.931   6.120   1.670 -0.5144 -3.4695 -2.4302
  378MOL0     H52132   9.964   6.299   1.521  1.7186 -0.3282  2.8637
  378MOL0     H52133   9.980   6.148   1.435  0.3402  1.2077 -1.0446
  378MOL0     H52134  10.167   6.220   1.340 -1.8124 -0.3923  0.4410
  378MOL0     H52135  10.246   6.173   1.494  0.3593 -0.1122 -0.2534
  378MOL0     H52136  10.133   6.442   1.427  0.3975 -0.0666  1.2103
  378MOL0     H52137  10.222   6.404   1.569  2.6025 -2.4219  0.8928
  378MOL0     H52138  10.326   6.382   1.297 -2.9714  0.4364  1.0570
  378MOL0     H52139  10.424   6.335   1.446  0.6292  0.1868  0.0911
  378MOL0     H52140  10.432   6.561   1.511  2.0512  0.6776 -0.5958
  378MOL0     H52141  10.317   6.614   1.388  0.1503 -1.5638 -1.7965
  378MOL0     H52142  10.519   6.685   1.320 -1.8527 -0.8121  0.0988
  378MOL0     H52143  10.503   6.541   1.219 -2.8822  2.2058 -0.7179
  378MOL0     H52144  10.198   6.087   2.130 -0.0412  2.2898  0.7266
  378MOL0     H52145  10.078   6.112   2.325  1.1493 -1.2506 -0.8912
  378MOL0     H52146   9.612   6.320   2.472 -1.1486  1.0847  0.0708
  378MOL0     H52147   9.483   6.377   2.644 -1.0527 -0.3838 -0.5352
  378MOL0     H52148   8.019   6.456   4.181  1.7459  0.6692 -1.4894
  378MOL0     H52149   7.779   6.463   4.281 -0.7053  5.3610  0.1667
  378MOL0     H52150   7.368   6.558   4.070 -0.6033  0.8095  2.5536
  378MOL0     H52151   7.146   6.596   4.011  3.1550  1.8480  1.1267
  378MOL0     H52152   6.921   6.437   3.777 -1.7851 -0.6907  1.0005
  378MOL0     H52153   6.999   6.290   3.809  0.4682  3.5175 -3.7639
  378MOL0     H52154   6.784   6.216   3.765 -0.0661  0.6080  0.4142
  378MOL0     H52155   6.715   6.363   3.799 -0.7662  0.1147  0.0320
  378MOL0     H52156   6.821   6.195   4.029 -0.1500  1.9669  1.5441
  378MOL0     H52157   6.680   6.301   4.020 -3.6500 -0.1411 -4.1313
  378MOL0     H52158   6.718   6.026   3.919  1.3180  1.1605 -1.6618
  378MOL0     H52159   6.582   6.122   3.866 -0.0704  0.4519  1.4357
  378MOL0     H52160   6.478   6.030   4.263  1.8380 -0.0694 -0.1858
  378MOL0     H52161   7.041   6.189   4.053 -0.5120  0.3359 -0.3184
  378MOL0     H52162   7.320   6.106   4.247 -1.4453 -3.5179 -0.1231
  378MOL0     H52163   7.175   6.048   4.168 -0.5292 -0.2351  1.8103
  378MOL0     H52164   7.338   6.043   4.087  0.4975 -1.2385  1.9678
  379MOL0     O52165   8.479   8.018   1.575  0.6540  0.0828 -0.5255
  379MOL0     C52166   8.482   7.925   1.495  0.1381 -0.5450 -0.0837
  379MOL0     O52167   8.580   7.829   1.489 -0.2200  0.2521  0.3698
  379MOL0     C52168   8.714   7.849   1.537 -0.2882  0.0425  0.0490
  379MOL0     C52169   8.768   7.980   1.581  0.0878  0.7349  0.0124
  379MOL0     C52170   8.904   7.999   1.613  0.1078  0.6093  0.4991
  379MOL0     C52171   8.987   7.884   1.615  0.5529  0.4842  0.0491
  379MOL0     O52172   9.115   7.883   1.657 -0.4828  0.0926  1.0146
  379MOL0     C52173   9.173   8.013   1.674  0.1499 -0.6063  0.2261
  379MOL0     C52174   9.308   7.996   1.758 -0.5115 -0.6435  0.5775
  379MOL0     C52175   9.431   7.981   1.668  0.3138  0.2328  0.7138
  379MOL0     C52176   9.484   8.116   1.619 -0.3360 -0.2192 -0.1437
  379MOL0     C52177   9.593   8.100   1.509 -0.7720 -0.1354  0.0390
  379MOL0     C52178   9.708   8.019   1.556  0.1142 -0.9902  0.1239
  379MOL0     C52179   9.822   8.036   1.460 -0.2319 -0.4049  0.4934
  379MOL0     C52180   9.920   7.932   1.499 -0.0219  0.3420 -0.6771
  379MOL0     N52181  10.047   7.951   1.419  0.4390 -0.1227  0.1202
  379MOL0     C52182  10.058   7.885   1.301 -0.2225 -0.0299  0.2968
  379MOL0     C52183  10.175   7.924   1.258 -0.0230 -0.8656 -0.9096
  379MOL0     C52184  10.247   7.870   1.140  0.1630 -0.0961  0.4043
  379MOL0     C52185  10.195   7.947   1.012  0.1295 -0.1942 -0.7694
  379MOL0     C52186  10.221   8.095   1.007 -0.3454 -0.6383 -0.0357
  379MOL0     C52187  10.362   8.146   1.074 -0.0499  0.0907 -0.4980
  379MOL0     O52188  10.467   8.099   0.984 -0.2940 -0.6775 -0.9181
  379MOL0     C52189  10.573   8.189   0.966 -0.2594  0.2434 -0.6627
  379MOL0     C52190  10.613   8.283   1.058 -0.0592  0.1363 -0.4695
  379MOL0     C52191  10.717   8.376   1.034  0.6132 -0.2457  0.0194
  379MOL0     C52192  10.731   8.482   1.141 -0.1728  0.1928 -0.8405
  379MOL0     C52193  10.796   8.361   0.918  0.5092 -0.0052  0.2853
  379MOL0     C52194  10.925   8.440   0.897  0.9942 -1.2996  0.4397
  379MOL0     O52195  10.973   8.433   0.779  0.5624  0.6979 -0.3303
  379MOL0     C52196  11.100   8.478   0.754  0.1822  0.1831 -0.2554
  379MOL0     C52197  11.170   8.585   0.805  0.1644 -0.2959  0.8436
  379MOL0     C52198  11.299   8.622   0.754 -0.2852  0.3130 -0.2414
  379MOL0     C52199  11.367   8.547   0.660  0.3016 -0.0374  0.9682
  379MOL0     O52200  11.486   8.598   0.605  0.5902 -0.5029  0.2004
  379MOL0     C52201  11.581   8.500   0.563  0.4865 -0.3605 -0.5581
  379MOL0     C52202  11.715   8.556   0.614  0.0953  0.4185  0.3903
  379MOL0     C52203  11.831   8.461   0.589 -0.2831 -0.2609  0.2065
  379MOL0     C52204  11.950   8.516   0.517 -0.4379 -0.7204 -0.4227
  379MOL0     C52205  12.066   8.565   0.603 -0.2505  0.2569 -0.3302
  379MOL0     C52206  12.040   8.691   0.682 -1.1562 -0.2696 -0.9794
  379MOL0     C52207  12.182   8.754   0.718  0.3304 -0.0066  0.5855
  379MOL0     C52208  12.155   8.903   0.734 -0.0395  0.6337  0.8305
  379MOL0    Cl52209  12.318   8.992   0.747  0.1908 -0.1472  0.6395
  379MOL0     C52210  11.305   8.424   0.624  0.7899  0.4743  0.2896
  379MOL0     C52211  11.166   8.396   0.654 -0.5899 -0.2860 -0.4607
  379MOL0     O52212  10.979   8.495   0.990  0.0927 -0.1323 -0.7286
  379MOL0     C52213  10.757   8.268   0.820  0.4397 -0.7397 -1.1191
  379MOL0     C52214  10.655   8.178   0.850  0.7102 -0.9428  0.3897
  379MOL0     N52215  10.226   8.026   1.347 -0.4125  0.0801  0.2844
  379MOL0     N52216  10.147   8.045   1.442  0.7700 -0.5898  0.2382
  379MOL0     C52217   8.944   7.757   1.564 -0.0393 -0.3900  0.0504
  379MOL0     C52218   8.809   7.748   1.524 -0.2697  0.3796 -0.0590
  379MOL0     C52219   8.380   7.927   1.391  0.3297 -0.9229  0.3254
  379MOL0     C52220   8.422   7.888   1.258 -0.4101 -0.6886  0.7969
  379MOL0     C52221   8.328   7.867   1.152 -0.4983  0.0968 -1.7875
  379MOL0     C52222   8.193   7.895   1.178 -0.5339 -0.2934 -0.2512
  379MOL0     O52223   8.089   7.889   1.085 -0.1205  0.0633  0.2627
  379MOL0     C52224   8.109   7.805   0.968 -0.0800 -0.0840  0.0423
  379MOL0     C52225   8.088   7.660   0.997  0.8909  0.8621 -0.3730
  379MOL0     C52226   7.947   7.634   1.050 -0.2903 -0.0903  0.8267
  379MOL0     C52227   7.941   7.503   1.106  1.5504 -0.0737  0.5454
  379MOL0     C52228   7.956   7.390   1.009  0.4744  0.1466 -0.0972
  379MOL0     C52229   7.991   7.300   0.930  0.2934 -0.9089  0.1151
  379MOL0     C52230   8.159   7.945   1.305  0.0745  0.3607 -0.2807
  379MOL0     C52231   8.244   7.949   1.412  1.2981  0.4966 -0.4243
  379MOL0     C52232   8.189   7.991   1.545  0.7147 -0.1063 -1.2334
  379MOL0     H52233   8.707   8.069   1.589 -0.9324 -0.0812  1.9343
  379MOL0     H52234   8.939   8.101   1.625  1.0816  0.2282  1.1106
  379MOL0     H52235   9.108   8.078   1.733 -0.7192 -1.6948  0.5283
  379MOL0     H52236   9.201   8.051   1.576 -0.0608  1.9067  1.0805
  379MOL0     H52237   9.324   8.085   1.820 -0.9982 -1.9402  2.6640
  379MOL0     H52238   9.300   7.908   1.822 -0.4473 -0.9886  0.1132
  379MOL0     H52239   9.508   7.927   1.725 -0.6674 -2.3411 -0.2650
  379MOL0     H52240   9.406   7.921   1.580  3.1141  1.6772 -1.2424
  379MOL0     H52241   9.399   8.168   1.574 -0.8499  0.7186  1.7786
  379MOL0     H52242   9.517   8.182   1.700 -0.2707 -1.2391  0.6821
  379MOL0     H52243   9.631   8.198   1.478  0.3872 -1.0635 -1.6234
  379MOL0     H52244   9.549   8.054   1.420 -0.6745  1.5172 -0.9091
  379MOL0     H52245   9.748   8.049   1.653 -1.3592  0.0436  0.4475
  379MOL0     H52246   9.673   7.917   1.577 -1.9333 -0.1611  1.0082
  379MOL0     H52247   9.877   8.130   1.466 -1.3407  0.3905 -0.9264
  379MOL0     H52248   9.786   8.026   1.357 -1.1045 -1.4526  0.8819
  379MOL0     H52249   9.947   7.938   1.605  2.5482  0.4251 -1.2662
  379MOL0     H52250   9.877   7.833   1.484  0.0231  0.3101 -0.6008
  379MOL0     H52251   9.975   7.825   1.265  0.3972 -1.9373  1.8085
  379MOL0     H52252  10.232   7.763   1.119 -2.4302  0.5118 -1.2925
  379MOL0     H52253  10.354   7.875   1.164 -0.4679 -2.5174  4.7992
  379MOL0     H52254  10.250   7.906   0.927  2.2758  0.9486  0.0156
  379MOL0     H52255  10.086   7.934   1.005  0.2014 -0.8253 -0.7580
  379MOL0     H52256  10.199   8.133   0.907  1.3804 -0.0235 -0.2176
  379MOL0     H52257  10.146   8.144   1.069 -1.3080  0.3314 -1.8801
  379MOL0     H52258  10.346   8.254   1.084  0.0601  0.2345 -1.7643
  379MOL0     H52259  10.371   8.109   1.177 -1.2682  0.2908 -0.3079
  379MOL0     H52260  10.568   8.284   1.156  0.6407  0.0209 -0.1406
  379MOL0     H52261  10.790   8.442   1.224 -1.1663  1.0653  0.3157
  379MOL0     H52262  10.629   8.503   1.174 -0.6175 -1.0126 -1.3753
  379MOL0     H52263  10.772   8.580   1.114 -1.0806  0.7833 -0.1233
  379MOL0     H52264  11.134   8.657   0.878 -2.6061  0.2071 -0.8912
  379MOL0     H52265  11.362   8.703   0.791 -0.4028  0.8233 -1.1348
  379MOL0     H52266  11.557   8.400   0.601  0.3900 -0.5000 -0.9811
  379MOL0     H52267  11.575   8.504   0.454 -0.6981  2.3905 -0.4644
  379MOL0     H52268  11.750   8.648   0.567 -0.4489 -0.8956 -2.8279
  379MOL0     H52269  11.702   8.582   0.720 -0.7407 -0.0658  0.4130
  379MOL0     H52270  11.793   8.392   0.512  2.8897 -0.0673 -1.7404
  379MOL0     H52271  11.856   8.410   0.682  0.6275  3.7694  2.3837
  379MOL0     H52272  11.923   8.591   0.443  0.3448  1.1989  1.1588
  379MOL0     H52273  11.992   8.432   0.459  2.7090  0.2003  0.3090
  379MOL0     H52274  12.105   8.487   0.669 -0.9143  0.5092  0.3832
  379MOL0     H52275  12.146   8.589   0.533  3.2789  1.0713  3.5798
  379MOL0     H52276  11.991   8.672   0.778  0.1376 -1.7170 -0.5629
  379MOL0     H52277  11.971   8.746   0.617 -0.9146 -2.6364 -3.4187
  379MOL0     H52278  12.266   8.741   0.650  1.4599  0.4228  1.8590
  379MOL0     H52279  12.215   8.706   0.811  1.5680 -0.1135  0.1056
  379MOL0     H52280  12.084   8.916   0.815 -0.1364 -1.5938  1.1663
  379MOL0     H52281  12.106   8.942   0.645  0.8810  1.1225  0.5214
  379MOL0     H52282  11.354   8.347   0.565 -0.5499 -2.5427  2.7731
  379MOL0     H52283  11.122   8.315   0.598  1.6721 -1.4397 -0.6660
  379MOL0     H52284  10.819   8.254   0.732  0.5457 -1.2655 -0.9667
  379MOL0     H52285  10.621   8.099   0.784  1.0613 -2.7620  2.2859
  379MOL0     H52286   9.011   7.672   1.561  1.3179  0.6748 -1.9623
  379MOL0     H52287   8.770   7.651   1.494 -2.0978  0.2842  2.3242
  379MOL0     H52288   8.524   7.865   1.229 -0.1539  1.0835  0.1657
  379MOL0     H52289   8.373   7.828   1.061 -1.0991 -0.5023 -1.8366
  379MOL0     H52290   8.050   7.833   0.880 -0.2702  1.4124  0.6179
  379MOL0     H52291   8.208   7.824   0.927 -0.7852  1.9779 -0.8274
  379MOL0     H52292   8.163   7.630   1.071 -0.6010 -3.5703 -0.3407
  379MOL0     H52293   8.114   7.605   0.906  0.8045  2.4527 -1.4025
  379MOL0     H52294   7.913   7.711   1.120  2.3360  1.2264  0.7986
  379MOL0     H52295   7.878   7.636   0.965 -0.0447 -0.1652  0.6247
  379MOL0     H52296   7.849   7.486   1.163  0.7819  0.1755 -0.5759
  379MOL0     H52297   8.017   7.481   1.182  1.7768 -4.9437 -0.7458
  379MOL0     H52298   8.011   7.224   0.857  1.4147 -0.6549  0.1419
  379MOL0     H52299   8.055   7.954   1.336  0.2054 -0.2831  0.3980
  379MOL0     H52300   8.205   8.099   1.557 -1.5704  0.3589 -1.8531
  379MOL0     H52301   8.080   7.980   1.543 -0.2674  5.7474 -0.0923
  379MOL0     H52302   8.238   7.938   1.626 -0.1937  0.3474 -0.3585
  380MOL0     O52303   2.947   5.597   5.185  0.0922 -0.3565  0.2143
  380MOL0     C52304   2.928   5.636   5.303  0.2908  0.6032 -0.1745
  380MOL0     O52305   3.031   5.692   5.376  0.1177 -0.2566 -0.5393
  380MOL0     C52306   3.154   5.634   5.370  0.0835 -0.1770  0.4371
  380MOL0     C52307   3.268   5.719   5.375 -0.6337 -0.1248 -0.0301
  380MOL0     C52308   3.397   5.662   5.390 -0.5452  0.8846 -0.2455
  380MOL0     C52309   3.413   5.520   5.377  0.0596 -0.2188  0.1948
  380MOL0     O52310   3.531   5.454   5.385 -0.4184  0.7761  0.7219
  380MOL0     C52311   3.641   5.534   5.434 -0.2473  0.3824 -0.2365
  380MOL0     C52312   3.757   5.437   5.435  1.0186 -0.4817 -0.2008
  380MOL0     C52313   3.883   5.513   5.492 -0.5722 -0.0283  0.8624
  380MOL0     C52314   3.906   5.653   5.426  0.1140  0.6703  0.3960
  380MOL0     C52315   4.054   5.688   5.412 -0.2330  0.0801  0.1704
  380MOL0     C52316   4.066   5.832   5.369 -0.5321 -0.2812 -0.6791
  380MOL0     C52317   4.212   5.874   5.349  0.5998  0.3816  0.4549
  380MOL0     C52318   4.225   6.023   5.344 -0.2448  0.2039  0.3597
  380MOL0     N52319   4.356   6.073   5.306 -0.4183 -0.4077 -0.2701
  380MOL0     C52320   4.463   6.085   5.396  0.1728  0.4585 -0.2107
  380MOL0     C52321   4.558   6.144   5.323  0.3451  1.1300  0.1587
  380MOL0     C52322   4.699   6.191   5.368  0.4990  0.3956  0.3181
  380MOL0     C52323   4.679   6.336   5.404 -0.1488 -0.4186 -0.4712
  380MOL0     C52324   4.815   6.407   5.442 -0.3764 -0.6873  0.0141
  380MOL0     C52325   4.805   6.557   5.487  0.7886  0.4548  0.1784
  380MOL0     O52326   4.748   6.563   5.624 -0.1645 -0.2799  0.0339
  380MOL0     C52327   4.754   6.685   5.692 -0.8028 -0.0455 -0.8417
  380MOL0     C52328   4.775   6.811   5.636 -0.6029 -0.1855  0.2318
  380MOL0     C52329   4.782   6.934   5.715 -0.0840  0.0908  0.7252
  380MOL0     C52330   4.820   7.065   5.652 -0.4829 -0.0358 -0.1609
  380MOL0     C52331   4.754   6.926   5.856 -0.3343  0.2268  0.4741
  380MOL0     C52332   4.734   7.045   5.946  0.6494 -1.3125  0.2989
  380MOL0     O52333   4.662   7.024   6.066 -0.0275 -0.1653 -0.0442
  380MOL0     C52334   4.675   7.130   6.159  0.1092  0.0830  1.0209
  380MOL0     C52335   4.627   7.262   6.128  0.2001 -0.9022 -1.1402
  380MOL0     C52336   4.637   7.364   6.233 -0.4217  0.3147  0.0756
  380MOL0     C52337   4.701   7.330   6.358 -0.2398 -0.0043 -0.6256
  380MOL0     O52338   4.725   7.417   6.462  0.3026  0.1737 -0.5520
  380MOL0     C52339   4.698   7.550   6.431  0.6000  0.2198 -0.0884
  380MOL0     C52340   4.765   7.630   6.539 -0.0410  0.6519  0.3324
  380MOL0     C52341   4.712   7.612   6.680  0.8577  0.3316  0.0967
  380MOL0     C52342   4.747   7.724   6.776 -1.4728  0.4386  0.3325
  380MOL0     C52343   4.722   7.676   6.918  0.0436  0.3141 -0.0535
  380MOL0     C52344   4.756   7.782   7.020  0.1066  0.1029 -0.3597
  380MOL0     C52345   4.707   7.744   7.161 -0.3494  0.5470  0.2559
  380MOL0     C52346   4.676   7.866   7.248  0.6726 -0.4912 -0.3801
  380MOL0    Cl52347   4.530   7.962   7.187 -0.3217 -0.0206 -0.1677
  380MOL0     C52348   4.741   7.199   6.379  0.2672  0.2302  0.1004
  380MOL0     C52349   4.730   7.104   6.284 -1.1170  0.9226  0.2110
  380MOL0     O52350   4.779   7.161   5.917  0.2114  0.7990  0.7940
  380MOL0     C52351   4.717   6.799   5.906  0.6194 -0.0099  0.5923
  380MOL0     C52352   4.721   6.682   5.828 -1.2249  0.1588  0.0854
  380MOL0     N52353   4.509   6.161   5.197  0.2547 -0.0849 -0.2553
  380MOL0     N52354   4.391   6.126   5.185  0.6054  0.8747 -0.2765
  380MOL0     C52355   3.300   5.438   5.364 -0.5195 -0.1840  0.2971
  380MOL0     C52356   3.172   5.491   5.355 -0.1282  0.3407  0.5766
  380MOL0     C52357   2.795   5.639   5.363  0.1500 -0.6330  0.5841
  380MOL0     C52358   2.775   5.718   5.472 -0.0629  0.2607 -0.5147
  380MOL0     C52359   2.655   5.723   5.534  0.5214 -0.2226  0.0453
  380MOL0     C52360   2.543   5.659   5.480 -0.2287 -0.4333  0.1277
  380MOL0     O52361   2.424   5.681   5.545  0.1215  0.4502 -0.0636
  380MOL0     C52362   2.323   5.750   5.475 -0.2576 -0.8967 -0.7071
  380MOL0     C52363   2.368   5.903   5.456 -0.3093  0.0667 -0.6872
  380MOL0     C52364   2.266   5.990   5.377 -0.3884 -0.0495  1.0230
  380MOL0     C52365   2.321   6.130   5.346 -0.0840 -0.2259  0.3130
  380MOL0     C52366   2.236   6.205   5.242 -0.1636 -0.1149 -0.4230
  380MOL0     C52367   2.154   6.263   5.167 -0.0753  0.0021 -0.7914
  380MOL0     C52368   2.568   5.567   5.377  0.4823 -0.5385  0.5251
  380MOL0     C52369   2.688   5.555   5.317 -0.7649  0.4985 -0.3884
  380MOL0     C52370   2.696   5.447   5.204  0.4244 -0.3461  0.5477
  380MOL0     H52371   3.249   5.822   5.403 -1.3434 -0.7878  2.2048
  380MOL0     H52372   3.484   5.725   5.408  0.8055 -0.3669 -2.1036
  380MOL0     H52373   3.613   5.560   5.536  2.2911  0.2994  0.5499
  380MOL0     H52374   3.663   5.621   5.372  1.0129 -0.4027 -0.9238
  380MOL0     H52375   3.728   5.359   5.505 -0.6442 -1.9284 -2.3502
  380MOL0     H52376   3.778   5.397   5.335  1.8259  0.6122 -0.4886
  380MOL0     H52377   3.869   5.524   5.600 -2.2438 -3.1799  1.0937
  380MOL0     H52378   3.965   5.445   5.466 -2.4828 -1.9126 -0.5442
  380MOL0     H52379   3.856   5.648   5.329 -2.2550 -0.1471  1.5545
  380MOL0     H52380   3.847   5.728   5.481  0.3738 -0.2159  1.9349
  380MOL0     H52381   4.118   5.624   5.350  0.9668 -0.1912  1.6398
  380MOL0     H52382   4.099   5.684   5.511  0.7793 -0.7246 -0.2923
  380MOL0     H52383   4.002   5.851   5.282  0.7293 -1.5993 -1.9537
  380MOL0     H52384   4.016   5.891   5.446 -1.0918 -2.8109  1.0263
  380MOL0     H52385   4.245   5.828   5.255 -1.3671  1.9518 -1.1351
  380MOL0     H52386   4.271   5.843   5.435  0.5556 -1.2491 -0.0804
  380MOL0     H52387   4.155   6.054   5.266 -0.3477 -1.0452 -0.0672
  380MOL0     H52388   4.189   6.061   5.440 -1.9343  2.7951 -1.1808
  380MOL0     H52389   4.447   6.065   5.502 -3.3420  2.6338 -0.1527
  380MOL0     H52390   4.777   6.183   5.291  0.4426  1.2245  0.1734
  380MOL0     H52391   4.737   6.147   5.461  0.7355  1.9893  0.9910
  380MOL0     H52392   4.628   6.397   5.328  0.3077  0.2040 -0.2897
  380MOL0     H52393   4.626   6.333   5.500 -0.2072 -0.2261 -0.4962
  380MOL0     H52394   4.867   6.365   5.529  2.8473 -0.2948 -1.5861
  380MOL0     H52395   4.890   6.375   5.369 -0.5034 -0.0952 -0.3765
  380MOL0     H52396   4.906   6.600   5.484  1.8643 -1.9637 -0.6399
  380MOL0     H52397   4.740   6.617   5.422 -0.2241 -0.4450  0.3448
  380MOL0     H52398   4.789   6.836   5.531  1.3451  0.1032  0.5333
  380MOL0     H52399   4.902   7.115   5.703 -1.1044  1.2416 -0.3797
  380MOL0     H52400   4.738   7.138   5.647  0.2653  0.9276  1.1886
  380MOL0     H52401   4.849   7.037   5.550 -2.5417 -3.3254 -0.0047
  380MOL0     H52402   4.586   7.295   6.033 -0.5014  1.3128 -0.1469
  380MOL0     H52403   4.597   7.459   6.200 -1.6040 -0.0858  0.3269
  380MOL0     H52404   4.757   7.568   6.341  0.4456 -1.4943 -0.5733
  380MOL0     H52405   4.593   7.580   6.429  0.0517 -1.5842  0.2521
  380MOL0     H52406   4.869   7.596   6.538  0.3115  1.3860  2.9888
  380MOL0     H52407   4.762   7.732   6.502  1.3992  0.3584 -0.6843
  380MOL0     H52408   4.748   7.520   6.726 -2.0759 -0.6783  0.6460
  380MOL0     H52409   4.604   7.591   6.672  0.8093  0.5379  0.1886
  380MOL0     H52410   4.679   7.808   6.757 -0.8031  0.3277 -3.1492
  380MOL0     H52411   4.852   7.748   6.757 -1.2532 -0.9534 -0.2740
  380MOL0     H52412   4.614   7.656   6.918  0.1762 -0.4354 -0.5831
  380MOL0     H52413   4.775   7.583   6.936  0.7281  0.5182 -0.9621
  380MOL0     H52414   4.703   7.868   6.979 -1.6669 -0.7526  0.0256
  380MOL0     H52415   4.865   7.788   7.021  0.0779  0.9585 -1.2044
  380MOL0     H52416   4.782   7.680   7.209 -1.6682 -1.5100 -0.2783
  380MOL0     H52417   4.621   7.678   7.148  1.6348 -1.6165 -3.6954
  380MOL0     H52418   4.755   7.942   7.237 -0.8279  1.2113  0.1520
  380MOL0     H52419   4.669   7.854   7.356  0.1103 -2.0889 -0.5666
  380MOL0     H52420   4.784   7.185   6.478  1.1853  0.7774 -0.2156
  380MOL0     H52421   4.769   7.006   6.309  2.7544  1.3919 -2.9354
  380MOL0     H52422   4.674   6.785   6.005 -0.3122  0.2303  0.2377
  380MOL0     H52423   4.697   6.592   5.884  2.3596  0.2596  2.1403
  380MOL0     H52424   3.313   5.330   5.364 -0.5301 -0.3722  4.7295
  380MOL0     H52425   3.082   5.431   5.341  0.9792 -1.5660  1.3418
  380MOL0     H52426   2.857   5.775   5.516  0.3381 -0.7751  0.1118
  380MOL0     H52427   2.631   5.799   5.608  0.0473  1.6990 -1.9844
  380MOL0     H52428   2.277   5.706   5.386 -3.1521 -1.6935  1.0602
  380MOL0     H52429   2.237   5.755   5.543  1.3555 -1.1684  1.4533
  380MOL0     H52430   2.458   5.899   5.395 -1.8265  0.0012 -3.0559
  380MOL0     H52431   2.397   5.961   5.544  1.4705 -0.0999 -1.1425
  380MOL0     H52432   2.258   5.933   5.284 -2.5502 -0.8212  1.6133
  380MOL0     H52433   2.169   5.992   5.428 -0.5280 -0.9166  0.8116
  380MOL0     H52434   2.426   6.127   5.316 -0.3498 -1.8264 -0.6178
  380MOL0     H52435   2.332   6.185   5.439 -2.3821  1.2498 -0.2025
  380MOL0     H52436   2.087   6.326   5.113 -0.6615  1.5845  1.5963
  380MOL0     H52437   2.492   5.505   5.330 -0.3347  1.8834 -1.6071
  380MOL0     H52438   2.783   5.393   5.241 -1.1976 -0.4649  4.7370
  380MOL0     H52439   2.606   5.386   5.197  0.4768 -0.2105 -2.0601
  380MOL0     H52440   2.708   5.493   5.106 -1.2661  1.4310  1.1058
  381MOL0     O52441   5.631   0.619   4.006 -0.2810  0.3853  0.0277
  381MOL0     C52442   5.653   0.569   4.120 -0.7563 -0.9676  0.0781
  381MOL0     O52443   5.574   0.479   4.191  0.3952  0.0439 -0.4322
  381MOL0     C52444   5.462   0.436   4.136  0.8679  0.4873 -0.5746
  381MOL0     C52445   5.350   0.454   4.215  0.2276  0.2820  0.0837
  381MOL0     C52446   5.219   0.427   4.175  0.7395 -0.2066  0.6325
  381MOL0     C52447   5.202   0.384   4.042 -0.3372  0.5122  0.1284
  381MOL0     O52448   5.081   0.368   4.005  0.3300 -0.2555 -0.3511
  381MOL0     C52449   5.049   0.282   3.894  0.4905  0.5997  0.6719
  381MOL0     C52450   4.920   0.196   3.924  0.2459 -0.2871  0.0749
  381MOL0     C52451   4.781   0.255   3.908  0.3702 -0.1344 -0.2694
  381MOL0     C52452   4.673   0.149   3.940  0.3290 -0.3463  0.3559
  381MOL0     C52453   4.536   0.206   3.945  0.0219  0.8333  0.0412
  381MOL0     C52454   4.426   0.111   3.992  0.5480 -0.0215 -0.3216
  381MOL0     C52455   4.307   0.199   4.048  0.1879  0.2639  0.2029
  381MOL0     C52456   4.217   0.117   4.123  0.6875  0.2057  0.1655
  381MOL0     N52457   4.098   0.187   4.174 -0.8598 -0.0571  0.1231
  381MOL0     C52458   3.970   0.154   4.142 -0.1864 -0.3184 -0.6594
  381MOL0     C52459   3.897   0.231   4.225  0.2706  0.0166 -0.3892
  381MOL0     C52460   3.756   0.206   4.235 -0.7033 -0.2379 -0.4980
  381MOL0     C52461   3.655   0.315   4.214 -0.3042 -0.8533 -0.4722
  381MOL0     C52462   3.671   0.450   4.288 -0.1705 -0.1849 -0.2581
  381MOL0     C52463   3.623   0.441   4.435  0.4109  0.6713 -0.5495
  381MOL0     O52464   3.631   0.566   4.499  0.8263 -0.2565  0.0274
  381MOL0     C52465   3.752   0.630   4.542 -0.6836  0.1219 -0.6782
  381MOL0     C52466   3.757   0.756   4.598 -0.6550  1.1300 -0.4876
  381MOL0     C52467   3.874   0.817   4.646  0.0365 -0.6333  0.1100
  381MOL0     C52468   3.857   0.956   4.693 -1.3528  0.1542 -0.0899
  381MOL0     C52469   3.996   0.750   4.612 -0.1081 -0.4575 -0.6894
  381MOL0     C52470   4.116   0.835   4.610  0.0447 -0.4573  1.0672
  381MOL0     O52471   4.194   0.836   4.493 -0.2350 -0.2515 -0.4091
  381MOL0     C52472   4.300   0.924   4.505 -0.5473  0.2342  0.0415
  381MOL0     C52473   4.295   1.059   4.485  0.1718 -0.1016 -0.3785
  381MOL0     C52474   4.405   1.138   4.498 -0.4827  0.5801 -0.9252
  381MOL0     C52475   4.525   1.083   4.544 -1.0609 -0.6629 -0.6224
  381MOL0     O52476   4.637   1.160   4.568 -0.0852  0.2099  0.6195
  381MOL0     C52477   4.646   1.168   4.710  0.9389 -0.1918  1.3293
  381MOL0     C52478   4.786   1.208   4.753  0.0027  0.4636  1.0610
  381MOL0     C52479   4.821   1.357   4.735  0.8869 -1.3205  0.7141
  381MOL0     C52480   4.952   1.376   4.792  0.5097 -0.3062 -0.3240
  381MOL0     C52481   5.001   1.525   4.779 -1.1950 -0.0595  0.1358
  381MOL0     C52482   4.943   1.627   4.880 -0.5361  0.4206 -0.5483
  381MOL0     C52483   5.008   1.762   4.872 -0.4145 -1.4387  0.4401
  381MOL0     C52484   4.956   1.857   4.976  0.4130 -0.4321  0.0040
  381MOL0    Cl52485   5.024   1.791   5.133 -0.0291  0.4267 -0.0160
  381MOL0     C52486   4.543   0.940   4.548  0.7452  0.7759 -0.4698
  381MOL0     C52487   4.426   0.866   4.531 -0.5788  0.8828  0.0502
  381MOL0     O52488   4.144   0.881   4.720 -0.5219 -1.2489  0.2599
  381MOL0     C52489   3.993   0.625   4.561 -0.9794 -0.2282 -0.1158
  381MOL0     C52490   3.871   0.559   4.535 -0.5833 -0.1424 -0.2506
  381MOL0     N52491   3.981   0.317   4.288 -0.2130  0.2556 -1.0316
  381MOL0     N52492   4.101   0.292   4.252  0.7621 -0.8977  0.2584
  381MOL0     C52493   5.316   0.362   3.959  0.4303  0.3879 -0.4243
  381MOL0     C52494   5.444   0.379   4.012 -0.5845  0.3703  0.8164
  381MOL0     C52495   5.773   0.607   4.197 -0.5104  0.0861  0.7420
  381MOL0     C52496   5.801   0.746   4.217 -0.0707  0.0132 -1.0568
  381MOL0     C52497   5.913   0.787   4.294 -0.2046  0.2444 -0.7895
  381MOL0     C52498   6.000   0.694   4.352 -0.3640  0.2883  0.0051
  381MOL0     O52499   6.099   0.718   4.441 -1.0491 -0.3673  0.6408
  381MOL0     C52500   6.134   0.851   4.468 -0.0649 -0.2007  0.1694
  381MOL0     C52501   6.258   0.878   4.553  0.7555 -0.2761 -0.1296
  381MOL0     C52502   6.311   1.026   4.550  0.5174 -0.4727  0.1723
  381MOL0     C52503   6.410   1.032   4.661 -1.1663  0.7970 -0.2667
  381MOL0     C52504   6.452   1.170   4.678 -0.9487 -0.8865  0.3693
  381MOL0     C52505   6.502   1.279   4.683 -1.0005  0.5694 -0.5764
  381MOL0     C52506   5.984   0.565   4.312  0.4697  0.8796  1.1478
  381MOL0     C52507   5.871   0.513   4.235  0.3869 -0.0245 -0.2058
  381MOL0     C52508   5.868   0.368   4.188 -0.0697  0.4400 -0.4185
  381MOL0     H52509   5.365   0.500   4.313 -0.1766 -0.8019  0.6709
  381MOL0     H52510   5.122   0.439   4.222 -1.2948  1.3708 -3.5486
  381MOL0     H52511   5.124   0.203   3.885 -2.3853 -2.5477  1.9065
  381MOL0     H52512   5.030   0.342   3.804 -2.0656 -3.4942 -1.8531
  381MOL0     H52513   4.917   0.102   3.868 -2.5809  0.7417 -1.7483
  381MOL0     H52514   4.922   0.163   4.028 -2.8149  0.2386  0.3688
  381MOL0     H52515   4.771   0.340   3.976 -0.1527 -1.8551  1.9373
  381MOL0     H52516   4.763   0.293   3.808 -2.5399  0.5231  0.4277
  381MOL0     H52517   4.676   0.067   3.868 -1.0746 -1.2243  1.2474
  381MOL0     H52518   4.705   0.111   4.038 -0.3353  0.0210  0.7235
  381MOL0     H52519   4.522   0.247   3.844  0.0057  0.5803 -0.0588
  381MOL0     H52520   4.542   0.291   4.013 -0.6744 -0.1003  1.2954
  381MOL0     H52521   4.395   0.055   3.904  0.1103 -0.9443  0.4020
  381MOL0     H52522   4.461   0.044   4.071 -0.4611 -0.0561  0.1204
  381MOL0     H52523   4.255   0.247   3.964  1.6328 -0.6771 -1.3077
  381MOL0     H52524   4.342   0.272   4.120 -0.3166  0.0544  0.6668
  381MOL0     H52525   4.196   0.029   4.062  0.1850 -1.9224  3.1669
  381MOL0     H52526   4.261   0.073   4.213 -1.0597 -0.7310  0.6108
  381MOL0     H52527   3.931   0.083   4.071 -4.1540  0.3863  0.5977
  381MOL0     H52528   3.751   0.181   4.341 -0.0571  0.7986 -0.2131
  381MOL0     H52529   3.731   0.117   4.176  1.7436 -0.6983 -0.9512
  381MOL0     H52530   3.663   0.338   4.107 -2.7830  3.1425 -0.0094
  381MOL0     H52531   3.554   0.281   4.238  0.8449 -4.2386  0.0084
  381MOL0     H52532   3.774   0.486   4.290 -0.6276  1.2239 -0.8684
  381MOL0     H52533   3.623   0.523   4.223  4.1521  0.9883 -2.4882
  381MOL0     H52534   3.526   0.391   4.439  1.1845 -0.8187  0.7327
  381MOL0     H52535   3.681   0.375   4.501  1.6518  2.8965  0.7186
  381MOL0     H52536   3.664   0.811   4.606 -0.9577  0.6106 -0.3278
  381MOL0     H52537   3.899   0.956   4.794 -0.0824  0.0014 -0.5948
  381MOL0     H52538   3.753   0.989   4.688 -1.7216 -0.2191  3.2290
  381MOL0     H52539   3.929   1.017   4.637  1.1628 -0.8678  1.8139
  381MOL0     H52540   4.207   1.115   4.456  0.9679  0.1908 -2.4849
  381MOL0     H52541   4.406   1.247   4.499 -0.9959  0.6353  1.5971
  381MOL0     H52542   4.571   1.243   4.738 -0.3809 -1.4336  1.2368
  381MOL0     H52543   4.612   1.078   4.762 -0.2334 -1.2038 -1.0803
  381MOL0     H52544   4.797   1.188   4.860  0.7121 -1.8971  0.6005
  381MOL0     H52545   4.860   1.151   4.698  0.8345  0.2553  2.3539
  381MOL0     H52546   4.741   1.424   4.770  2.9822  1.2907  0.7296
  381MOL0     H52547   4.832   1.380   4.629  2.2056  2.1348  1.4792
  381MOL0     H52548   5.017   1.313   4.732 -0.5310  0.2914 -2.1740
  381MOL0     H52549   4.962   1.353   4.899  0.2179  1.3631  0.1046
  381MOL0     H52550   5.110   1.525   4.793 -1.0686 -1.5762 -0.6371
  381MOL0     H52551   4.976   1.566   4.681  1.6861  0.8518 -0.3159
  381MOL0     H52552   4.964   1.592   4.981  1.2678  4.1004  0.5438
  381MOL0     H52553   4.835   1.642   4.868 -1.0024 -2.7153 -1.1067
  381MOL0     H52554   4.980   1.802   4.774 -1.5874  0.1049  1.3580
  381MOL0     H52555   5.116   1.760   4.892 -0.5458 -0.6287  1.2412
  381MOL0     H52556   4.847   1.858   4.985  0.3204 -3.0093 -0.1947
  381MOL0     H52557   4.981   1.962   4.956 -0.6596  0.1036  1.2520
  381MOL0     H52558   4.638   0.892   4.571  0.9515  0.4936 -1.8375
  381MOL0     H52559   4.438   0.760   4.550  4.3682  0.8269 -1.8181
  381MOL0     H52560   4.086   0.571   4.551  0.5395  1.8906  1.7325
  381MOL0     H52561   3.878   0.459   4.494  1.4148 -0.2432  0.2176
  381MOL0     H52562   5.309   0.312   3.863 -0.6049 -2.1860  0.8775
  381MOL0     H52563   5.522   0.358   3.940  0.1586  0.6661  1.5198
  381MOL0     H52564   5.740   0.822   4.169  0.8166  1.1896 -0.3880
  381MOL0     H52565   5.926   0.889   4.329  2.4214 -0.2339 -0.1623
  381MOL0     H52566   6.152   0.898   4.371  1.0648  1.9826  1.3510
  381MOL0     H52567   6.040   0.896   4.503 -0.6151  0.8438 -2.4452
  381MOL0     H52568   6.332   0.815   4.504  0.5396 -0.7516  0.1548
  381MOL0     H52569   6.234   0.839   4.652 -1.1950  1.5643  0.1945
  381MOL0     H52570   6.362   1.057   4.457  1.0976  2.1225  1.2743
  381MOL0     H52571   6.220   1.085   4.562  0.4104  0.1749 -2.8050
  381MOL0     H52572   6.492   0.961   4.644 -1.8466  0.5179 -2.9027
  381MOL0     H52573   6.357   1.009   4.754 -1.2263  0.8431 -0.2891
  381MOL0     H52574   6.555   1.371   4.670 -0.8478  0.6830  0.7284
  381MOL0     H52575   6.058   0.493   4.345 -0.5390  0.1066  1.7753
  381MOL0     H52576   5.847   0.359   4.081  2.0508  2.2539 -1.0629
  381MOL0     H52577   5.965   0.321   4.208 -1.4551 -1.1463  3.7330
  381MOL0     H52578   5.791   0.313   4.243  0.3933 -0.8993 -1.0567
  382MOL0     O52579   3.230   5.619   0.398 -0.6003 -0.2742  0.0615
  382MOL0     C52580   3.202   5.573   0.283 -0.4251 -0.2898 -0.5022
  382MOL0     O52581   3.251   5.611   0.170  1.1658  0.3165  0.1490
  382MOL0     C52582   3.314   5.732   0.154 -0.9757  0.6049 -0.1499
  382MOL0     C52583   3.254   5.827   0.076 -0.4725 -0.1756  0.4836
  382MOL0     C52584   3.316   5.951   0.040 -0.0397 -0.3621 -0.5170
  382MOL0     C52585   3.433   5.982   0.117  0.1938  0.3946  0.5868
  382MOL0     O52586   3.507   6.099   0.102  0.5238 -0.2879 -0.7081
  382MOL0     C52587   3.438   6.215   0.137 -0.3077 -0.3853 -0.4916
  382MOL0     C52588   3.522   6.343   0.105  0.2343  0.8116 -0.0179
  382MOL0     C52589   3.665   6.313   0.155  0.0320  0.4134 -0.2529
  382MOL0     C52590   3.739   6.436   0.172 -0.4530  0.0914 -0.4337
  382MOL0     C52591   3.885   6.402   0.205 -0.8521 -0.8021  0.5022
  382MOL0     C52592   3.969   6.530   0.222  0.3604  0.0349  0.9562
  382MOL0     C52593   4.097   6.498   0.303  0.1671  0.0398  0.5680
  382MOL0     C52594   4.217   6.462   0.211 -0.4761  0.7852 -0.1780
  382MOL0     N52595   4.210   6.330   0.149  0.1518 -0.9055 -0.7263
  382MOL0     C52596   4.173   6.211   0.207  0.1039  0.3187  0.0318
  382MOL0     C52597   4.175   6.124   0.101  0.9968  0.0040 -0.2141
  382MOL0     C52598   4.119   5.985   0.099 -0.0197 -0.2630 -0.0107
  382MOL0     C52599   4.215   5.871   0.077  0.6395  0.2920 -0.0884
  382MOL0     C52600   4.304   5.854   0.199  0.2261 -1.1643  0.8784
  382MOL0     C52601   4.310   5.707   0.260  0.1550 -0.1768  0.1546
  382MOL0     O52602   4.388   5.618   0.175 -0.5667  0.6759  0.1811
  382MOL0     C52603   4.489   5.544   0.231  0.1747  0.6862 -0.4740
  382MOL0     C52604   4.558   5.580   0.344  0.7408  0.8474 -0.0141
  382MOL0     C52605   4.665   5.510   0.402 -0.3425 -0.1276  0.2699
  382MOL0     C52606   4.718   5.559   0.533 -0.4922 -0.1450  0.5111
  382MOL0     C52607   4.713   5.405   0.324 -0.7709 -0.6617  0.2623
  382MOL0     C52608   4.833   5.333   0.369 -0.1636 -0.3228 -0.4220
  382MOL0     O52609   4.849   5.313   0.505  1.3066 -0.0821 -0.4805
  382MOL0     C52610   4.940   5.216   0.542 -0.3570  0.8842 -0.4061
  382MOL0     C52611   4.908   5.085   0.558  0.1063 -0.2061 -0.3262
  382MOL0     C52612   4.999   4.988   0.603  0.4604 -0.3711  1.0520
  382MOL0     C52613   5.130   5.024   0.628 -0.3908  0.0297  0.0750
  382MOL0     O52614   5.212   4.914   0.650 -0.2586 -0.1017  0.2812
  382MOL0     C52615   5.356   4.921   0.635  0.4878  0.0044 -0.5635
  382MOL0     C52616   5.421   4.783   0.605  0.3743 -0.1322  0.2097
  382MOL0     C52617   5.540   4.782   0.520 -0.1979 -0.5043 -0.0760
  382MOL0     C52618   5.602   4.642   0.503  1.2619  0.9210 -0.1851
  382MOL0     C52619   5.752   4.642   0.463  0.5394 -0.1097 -0.2584
  382MOL0     C52620   5.787   4.501   0.425  0.0821  0.4216  0.0990
  382MOL0     C52621   5.943   4.478   0.408 -0.6729 -0.1206  0.1628
  382MOL0     C52622   5.984   4.339   0.462  0.0362  0.0219 -0.1821
  382MOL0    Cl52623   5.921   4.209   0.364  0.5335 -0.0087 -0.7251
  382MOL0     C52624   5.169   5.153   0.618  0.5401 -0.3462 -0.6941
  382MOL0     C52625   5.072   5.249   0.589 -0.3653  0.3034  0.3186
  382MOL0     O52626   4.916   5.291   0.285 -0.2031 -0.3327  0.5326
  382MOL0     C52627   4.658   5.369   0.199  0.3264  0.2385  0.0188
  382MOL0     C52628   4.543   5.438   0.161 -0.4310 -0.0006 -0.3668
  382MOL0     N52629   4.227   6.192  -0.011 -0.5511 -0.3757 -0.0669
  382MOL0     N52630   4.249   6.311   0.021  0.1505 -0.1501 -0.2918
  382MOL0     C52631   3.496   5.882   0.199 -0.2523  0.2796 -0.0016
  382MOL0     C52632   3.429   5.758   0.221 -0.2774 -0.0737  0.6621
  382MOL0     C52633   3.138   5.444   0.283 -0.0839  0.1068 -0.3550
  382MOL0     C52634   3.196   5.344   0.204 -0.4258 -0.2174 -0.5983
  382MOL0     C52635   3.157   5.217   0.211 -0.1656 -0.0300 -0.2610
  382MOL0     C52636   3.047   5.178   0.284 -0.2051  0.9343  0.6277
  382MOL0     O52637   3.020   5.041   0.277  0.7821  0.5580 -0.1997
  382MOL0     C52638   2.962   4.980   0.394  0.1203  0.6756 -0.5508
  382MOL0     C52639   2.808   4.966   0.404 -0.3176 -0.0047 -0.3318
  382MOL0     C52640   2.756   4.850   0.317  0.3720  0.3237 -0.1955
  382MOL0     C52641   2.625   4.791   0.366  0.0248 -0.2571 -0.2689
  382MOL0     C52642   2.557   4.710   0.264 -0.4475 -0.1461  0.0937
  382MOL0     C52643   2.494   4.647   0.180 -0.0230 -0.6858  0.4258
  382MOL0     C52644   2.995   5.283   0.365  0.3938 -0.0619  0.2233
  382MOL0     C52645   3.031   5.411   0.360  0.3492  0.7078  0.4456
  382MOL0     C52646   2.960   5.509   0.445 -0.6995  0.2008  0.5848
  382MOL0     H52647   3.154   5.804   0.042 -0.6539 -1.0544  1.5571
  382MOL0     H52648   3.267   6.019  -0.029 -1.1794 -1.9781 -1.3432
  382MOL0     H52649   3.432   6.221   0.246 -0.0174 -0.3840 -0.4744
  382MOL0     H52650   3.337   6.213   0.094 -0.6025  0.3562  0.1458
  382MOL0     H52651   3.529   6.363  -0.003  2.2467  1.1996  0.1551
  382MOL0     H52652   3.477   6.438   0.135  0.6855  1.1478 -0.3945
  382MOL0     H52653   3.676   6.243   0.238 -0.4848 -1.1305 -1.4306
  382MOL0     H52654   3.701   6.245   0.077 -0.0391 -1.6539  1.4228
  382MOL0     H52655   3.737   6.506   0.088 -0.6167  1.8189  0.9718
  382MOL0     H52656   3.689   6.471   0.262  0.6186  1.7579 -0.4371
  382MOL0     H52657   3.934   6.334   0.135 -2.9768 -0.5415 -1.3144
  382MOL0     H52658   3.883   6.345   0.299 -2.1137  0.6002  1.3593
  382MOL0     H52659   3.995   6.577   0.126  2.3484  0.9801  1.9070
  382MOL0     H52660   3.902   6.600   0.272 -3.3669 -3.4977  1.3712
  382MOL0     H52661   4.076   6.417   0.373 -1.2172  0.3181  0.5011
  382MOL0     H52662   4.132   6.586   0.358  0.3181 -0.5638  1.4486
  382MOL0     H52663   4.231   6.541   0.137  3.6196  0.0962 -0.3805
  382MOL0     H52664   4.298   6.459   0.284  0.8314  1.5880 -1.5265
  382MOL0     H52665   4.138   6.192   0.308 -2.4921  0.6443 -0.7389
  382MOL0     H52666   4.034   5.989   0.030 -2.5000 -0.1509  2.8155
  382MOL0     H52667   4.071   5.962   0.195  1.2361  2.5597  1.4030
  382MOL0     H52668   4.155   5.782   0.057 -0.1877  0.9818 -0.8108
  382MOL0     H52669   4.271   5.893  -0.014 -0.9718  1.2618 -0.8951
  382MOL0     H52670   4.409   5.878   0.180  0.3770 -0.4885  2.4207
  382MOL0     H52671   4.280   5.927   0.277 -0.9431 -2.1713  1.5032
  382MOL0     H52672   4.344   5.699   0.364  1.6371  2.0132 -0.0747
  382MOL0     H52673   4.211   5.662   0.255  1.2846 -2.7997 -0.3548
  382MOL0     H52674   4.534   5.673   0.395 -0.2705 -0.5177  2.1019
  382MOL0     H52675   4.827   5.569   0.535 -0.5839  0.8668  1.0324
  382MOL0     H52676   4.688   5.487   0.610  0.8027 -0.4023  0.7877
  382MOL0     H52677   4.678   5.656   0.563 -1.1596 -0.2843  0.1150
  382MOL0     H52678   4.809   5.048   0.534  0.4086 -0.6270 -0.9329
  382MOL0     H52679   4.970   4.883   0.609  0.6679 -0.4753  0.3281
  382MOL0     H52680   5.377   4.979   0.545 -3.4042  0.3444 -1.4311
  382MOL0     H52681   5.409   4.974   0.715 -1.3263  1.2699 -0.1492
  382MOL0     H52682   5.434   4.731   0.700 -1.3631 -2.7233 -0.8836
  382MOL0     H52683   5.350   4.726   0.545  0.4944 -1.5662  1.3660
  382MOL0     H52684   5.611   4.847   0.572  0.0800  0.8470 -2.0363
  382MOL0     H52685   5.523   4.826   0.422  0.6266 -0.5373 -0.2434
  382MOL0     H52686   5.546   4.605   0.417  1.7830 -1.1174  0.2925
  382MOL0     H52687   5.594   4.584   0.596 -1.0771  0.2458 -0.7333
  382MOL0     H52688   5.774   4.691   0.368  2.2108  0.8569  0.5845
  382MOL0     H52689   5.812   4.683   0.545  0.5494 -0.1735 -0.2339
  382MOL0     H52690   5.727   4.465   0.341 -2.6255  0.2464  1.9632
  382MOL0     H52691   5.759   4.447   0.516  0.0056 -3.2717 -1.9209
  382MOL0     H52692   6.001   4.547   0.470  0.7438 -0.6604 -0.5449
  382MOL0     H52693   5.975   4.484   0.304 -1.9463 -0.7336 -0.2899
  382MOL0     H52694   5.957   4.324   0.567  0.7576 -0.5763 -0.0777
  382MOL0     H52695   6.093   4.332   0.461  0.0963  0.1492 -2.9683
  382MOL0     H52696   5.268   5.194   0.637 -0.8295  3.3424 -0.6909
  382MOL0     H52697   5.090   5.356   0.595  0.2515  0.1291  2.6547
  382MOL0     H52698   4.696   5.281   0.148  1.6815 -0.1624  1.6515
  382MOL0     H52699   4.498   5.408   0.067 -0.3799  0.0177 -0.3972
  382MOL0     H52700   3.597   5.889   0.238 -1.2224 -0.8783  2.9868
  382MOL0     H52701   3.471   5.682   0.285 -0.7421  0.4232  1.5792
  382MOL0     H52702   3.286   5.369   0.149  0.0242  3.6008  1.4997
  382MOL0     H52703   3.212   5.145   0.152  0.5732  0.9892 -0.8637
  382MOL0     H52704   2.997   4.876   0.393  1.2664  1.0239  0.3687
  382MOL0     H52705   3.007   5.021   0.485 -0.0802  2.1018 -1.0622
  382MOL0     H52706   2.766   5.061   0.368 -0.0376  0.5292  0.7015
  382MOL0     H52707   2.776   4.950   0.507 -0.0110 -2.4755 -0.5543
  382MOL0     H52708   2.740   4.889   0.216 -1.6740  1.8701  0.6474
  382MOL0     H52709   2.822   4.763   0.320 -1.4023 -1.0523  1.1357
  382MOL0     H52710   2.559   4.873   0.395 -0.2151 -1.0769  1.6838
  382MOL0     H52711   2.647   4.741   0.461 -0.4044 -2.1366 -1.1135
  382MOL0     H52712   2.433   4.601   0.104  2.5285 -0.1300 -2.1124
  382MOL0     H52713   2.905   5.257   0.420 -1.4604  0.1954 -2.4767
  382MOL0     H52714   3.007   5.518   0.543  0.0848  0.3398  0.1997
  382MOL0     H52715   2.970   5.605   0.394  4.5703 -0.0060  0.7699
  382MOL0     H52716   2.852   5.491   0.441 -0.7531  0.6327 -2.2687
  383MOL0     O52717   2.887   6.127   7.087  1.0442  0.7518  0.4244
  383MOL0     C52718   2.827   6.047   7.163 -0.6133 -0.5482  0.2666
  383MOL0     O52719   2.888   5.992   7.270  0.1844 -0.0874  0.0308
  383MOL0     C52720   3.020   6.013   7.291 -0.0190 -0.5556 -0.6727
  383MOL0     C52721   3.092   5.896   7.313  0.1191 -0.1427  0.1503
  383MOL0     C52722   3.233   5.919   7.341 -1.3099 -0.0800  0.4245
  383MOL0     C52723   3.293   6.040   7.354  0.1931 -0.0738  0.8125
  383MOL0     O52724   3.428   6.032   7.383  0.3187 -0.4507  0.4171
  383MOL0     C52725   3.469   6.091   7.504 -0.6242  0.5837  0.7469
  383MOL0     C52726   3.619   6.059   7.529  0.1091 -0.0004 -0.0491
  383MOL0     C52727   3.646   5.915   7.585  0.3465  0.5512 -0.2379
  383MOL0     C52728   3.651   5.811   7.468 -0.1014  0.6483 -0.8828
  383MOL0     C52729   3.780   5.796   7.390  0.2715  0.0013 -0.0982
  383MOL0     C52730   3.904   5.878   7.438  0.8443 -0.7494 -0.7725
  383MOL0     C52731   4.034   5.822   7.357 -0.1140  0.3758 -0.7953
  383MOL0     C52732   4.077   5.677   7.379 -0.4189 -0.1075  0.2716
  383MOL0     N52733   4.214   5.637   7.344  0.0723  0.8415 -0.7534
  383MOL0     C52734   4.321   5.667   7.418  0.4670 -0.4014  0.1416
  383MOL0     C52735   4.426   5.608   7.359  0.5805  0.1139  0.4506
  383MOL0     C52736   4.579   5.610   7.391 -0.6990 -0.9435 -0.5174
  383MOL0     C52737   4.684   5.675   7.296  0.3062 -0.4379 -0.0675
  383MOL0     C52738   4.677   5.823   7.314 -0.1998 -1.0164 -0.3509
  383MOL0     C52739   4.738   5.883   7.192 -0.3164 -0.3957  0.0070
  383MOL0     O52740   4.879   5.840   7.182 -0.6695 -0.3238 -0.0119
  383MOL0     C52741   4.947   5.839   7.063  0.4697 -0.1390  0.2554
  383MOL0     C52742   4.890   5.875   6.938  0.1157 -0.1986  0.5131
  383MOL0     C52743   4.969   5.867   6.811 -0.0527  0.0346 -0.2815
  383MOL0     C52744   4.895   5.911   6.689  0.0892 -0.7315 -0.4226
  383MOL0     C52745   5.101   5.818   6.815  1.1546  0.1290  0.6668
  383MOL0     C52746   5.183   5.806   6.700  0.8308  0.2700 -0.0730
  383MOL0     O52747   5.304   5.741   6.720 -0.5743 -0.5182 -0.1646
  383MOL0     C52748   5.404   5.719   6.624  0.5345 -0.9166 -0.3629
  383MOL0     C52749   5.399   5.639   6.510 -0.1695 -0.3512 -0.3715
  383MOL0     C52750   5.511   5.613   6.436 -0.4796 -0.2259 -0.8786
  383MOL0     C52751   5.636   5.673   6.469 -0.0764  0.1493 -0.8482
  383MOL0     O52752   5.739   5.638   6.384 -0.1986 -0.4611 -0.2226
  383MOL0     C52753   5.869   5.696   6.413  0.0219  0.5115  0.3986
  383MOL0     C52754   5.967   5.645   6.309  0.9399  0.7559 -0.2116
  383MOL0     C52755   6.114   5.693   6.343  0.3630  0.0637 -0.7232
  383MOL0     C52756   6.219   5.655   6.229 -0.6417  0.2675 -0.8551
  383MOL0     C52757   6.361   5.688   6.278 -0.2276 -0.3361 -0.3040
  383MOL0     C52758   6.466   5.679   6.171 -0.1570  0.3816  0.1721
  383MOL0     C52759   6.475   5.538   6.108 -0.8058  0.1558  0.4137
  383MOL0     C52760   6.624   5.518   6.049 -0.0972  0.0623  0.5798
  383MOL0    Cl52761   6.648   5.587   5.882  0.0734 -0.2489  0.2069
  383MOL0     C52762   5.638   5.760   6.580 -0.6828  0.0156  0.6486
  383MOL0     C52763   5.526   5.776   6.662 -0.9922 -0.1825 -0.4921
  383MOL0     O52764   5.151   5.854   6.594  0.0776  0.4185 -0.1999
  383MOL0     C52765   5.150   5.783   6.945  0.3035 -0.1076  0.1494
  383MOL0     C52766   5.078   5.806   7.064  0.2149  0.6251 -0.1142
  383MOL0     N52767   4.387   5.543   7.240 -0.3209 -0.2892  0.2832
  383MOL0     N52768   4.258   5.559   7.235 -0.0213 -0.2988 -0.1926
  383MOL0     C52769   3.214   6.152   7.352 -0.3145 -0.7792  0.3391
  383MOL0     C52770   3.071   6.139   7.324 -0.0155 -0.5894 -0.0125
  383MOL0     C52771   2.693   6.011   7.133  0.5551 -0.2462  0.0968
  383MOL0     C52772   2.638   5.901   7.202  0.4402 -0.5092  0.1517
  383MOL0     C52773   2.505   5.853   7.176 -0.5087 -0.6218 -0.2263
  383MOL0     C52774   2.430   5.915   7.079  0.1240 -0.0455  0.6101
  383MOL0     O52775   2.305   5.882   7.046  0.1208  0.3991 -0.2078
  383MOL0     C52776   2.225   5.803   7.130  0.3123  0.0647 -0.1350
  383MOL0     C52777   2.096   5.797   7.052 -0.0079  0.0903 -0.0888
  383MOL0     C52778   2.099   5.677   6.949 -0.3121 -0.2519  0.3467
  383MOL0     C52779   1.960   5.629   6.922  0.1367  0.1903 -0.1098
  383MOL0     C52780   1.895   5.587   7.051  0.3086  0.3051 -0.3852
  383MOL0     C52781   1.835   5.566   7.162  0.3128  0.1772 -0.2138
  383MOL0     C52782   2.481   6.025   7.012  0.3565  0.9899  1.2320
  383MOL0     C52783   2.607   6.072   7.032 -1.3944  0.0130  0.3821
  383MOL0     C52784   2.648   6.191   6.942 -1.1537 -0.2354  0.0135
  383MOL0     H52785   3.049   5.798   7.299 -1.3121  0.8983 -4.3305
  383MOL0     H52786   3.289   5.826   7.337 -1.3911 -0.0997 -0.8277
  383MOL0     H52787   3.420   6.051   7.594 -0.1489  1.3848  1.3767
  383MOL0     H52788   3.463   6.199   7.486  0.4806  0.0886 -3.8091
  383MOL0     H52789   3.678   6.075   7.438  2.4843 -0.2928  1.3522
  383MOL0     H52790   3.666   6.117   7.609  2.9207  1.2659 -2.4010
  383MOL0     H52791   3.732   5.917   7.652 -1.1451  1.7952  1.7354
  383MOL0     H52792   3.556   5.891   7.642  1.1223 -0.1168  0.7334
  383MOL0     H52793   3.620   5.717   7.513 -0.2586  0.9811 -0.2929
  383MOL0     H52794   3.575   5.836   7.393 -2.0112 -0.7720  0.4993
  383MOL0     H52795   3.757   5.822   7.286 -0.1581 -2.5860 -0.7216
  383MOL0     H52796   3.797   5.689   7.401  1.1714  0.1565  0.0334
  383MOL0     H52797   3.885   5.981   7.405  1.6417 -0.6641 -1.0003
  383MOL0     H52798   3.917   5.881   7.547 -0.4987 -0.7352 -0.5936
  383MOL0     H52799   4.115   5.882   7.400  0.0065  0.8923 -1.7245
  383MOL0     H52800   4.031   5.853   7.252 -0.3893  1.2121 -0.5482
  383MOL0     H52801   4.058   5.680   7.486  0.1622  1.2409  0.3500
  383MOL0     H52802   4.004   5.611   7.331 -1.2648  1.1663 -0.2252
  383MOL0     H52803   4.320   5.717   7.515  0.1023  1.2429 -0.6730
  383MOL0     H52804   4.601   5.502   7.392  0.7384 -0.6904  1.5607
  383MOL0     H52805   4.600   5.648   7.491 -1.5784 -1.7676  0.0009
  383MOL0     H52806   4.782   5.643   7.332 -0.0075  0.2746  1.5406
  383MOL0     H52807   4.667   5.642   7.193  2.9115 -0.5712 -0.5269
  383MOL0     H52808   4.576   5.865   7.319 -0.3311 -1.0857 -1.9436
  383MOL0     H52809   4.723   5.859   7.406 -1.1567  0.9762 -0.6093
  383MOL0     H52810   4.673   5.844   7.114 -0.8926  2.6470 -1.1520
  383MOL0     H52811   4.735   5.992   7.185  4.5941 -0.0477 -0.7447
  383MOL0     H52812   4.789   5.916   6.935 -0.0378 -0.5314 -2.4674
  383MOL0     H52813   4.889   5.828   6.619 -2.0827 -1.1626  0.1908
  383MOL0     H52814   4.948   5.999   6.650  0.4272 -0.5912  0.3160
  383MOL0     H52815   4.798   5.948   6.723  1.7184  1.8410  1.9722
  383MOL0     H52816   5.303   5.596   6.484 -0.0980 -0.7907  0.0547
  383MOL0     H52817   5.514   5.541   6.355  1.3270 -0.8605 -0.2900
  383MOL0     H52818   5.858   5.803   6.396  2.2792  0.5713 -1.1769
  383MOL0     H52819   5.907   5.669   6.512  2.7042 -1.8932 -1.1148
  383MOL0     H52820   5.969   5.536   6.318  1.3330  0.4577 -3.1180
  383MOL0     H52821   5.938   5.681   6.210  1.1414 -0.2916 -0.6605
  383MOL0     H52822   6.141   5.636   6.432 -1.4339 -0.1043 -0.2447
  383MOL0     H52823   6.108   5.795   6.381  0.3460  0.3066 -1.3731
  383MOL0     H52824   6.200   5.730   6.152 -1.2498  1.1358  0.1186
  383MOL0     H52825   6.201   5.550   6.203 -1.8343  0.5058 -1.0547
  383MOL0     H52826   6.356   5.783   6.333  0.1909 -2.3171  3.4650
  383MOL0     H52827   6.394   5.618   6.355  1.5876 -0.3528 -1.0612
  383MOL0     H52828   6.564   5.700   6.216  0.5068 -1.4219 -0.3713
  383MOL0     H52829   6.446   5.751   6.091  1.6557 -0.2583 -0.9101
  383MOL0     H52830   6.396   5.531   6.034 -1.2006 -1.5642  0.9460
  383MOL0     H52831   6.447   5.460   6.179  0.3958 -1.4201 -0.7673
  383MOL0     H52832   6.644   5.413   6.026 -0.0367  0.3640 -0.8858
  383MOL0     H52833   6.700   5.549   6.120 -2.9129 -0.1293  3.9587
  383MOL0     H52834   5.735   5.805   6.600  0.1686 -1.1249 -0.7349
  383MOL0     H52835   5.527   5.829   6.756  0.6591 -2.2910  0.7688
  383MOL0     H52836   5.249   5.745   6.966 -0.6824 -1.5479  2.5324
  383MOL0     H52837   5.125   5.774   7.157 -1.8220  1.2139  1.1853
  383MOL0     H52838   3.256   6.248   7.379 -0.9260 -0.4934  0.2840
  383MOL0     H52839   3.003   6.224   7.335  3.5073  2.1554  3.3929
  383MOL0     H52840   2.690   5.838   7.274  0.6787  0.1302  0.5530
  383MOL0     H52841   2.466   5.776   7.241 -1.2268  0.8033  1.1017
  383MOL0     H52842   2.271   5.705   7.147  2.1337  0.7683 -0.7237
  383MOL0     H52843   2.212   5.848   7.229 -1.5047 -2.2735  0.8012
  383MOL0     H52844   2.063   5.891   7.008 -0.1583  1.2433  2.2964
  383MOL0     H52845   2.010   5.788   7.119 -1.0583  4.5906 -0.4909
  383MOL0     H52846   2.146   5.713   6.857 -0.9848  0.9011  0.4447
  383MOL0     H52847   2.166   5.600   6.990  2.3814  0.5980 -2.1497
  383MOL0     H52848   1.967   5.546   6.850 -0.2382 -1.3861  1.5947
  383MOL0     H52849   1.901   5.711   6.880  1.0641  1.0689  0.2710
  383MOL0     H52850   1.779   5.554   7.253 -1.1232  0.1835 -1.0740
  383MOL0     H52851   2.416   6.080   6.946  0.5962 -0.9636 -0.7356
  383MOL0     H52852   2.646   6.283   7.000 -0.1252 -0.6101  0.6680
  383MOL0     H52853   2.744   6.182   6.891 -0.0316  1.1885  1.7647
  383MOL0     H52854   2.569   6.200   6.867 -0.8792 -1.1212 -0.3937
  384MOL0     O52855   3.163  11.066   2.640 -0.9975  1.0806 -0.2710
  384MOL0     C52856   3.060  11.119   2.644  0.3298 -0.4864  0.2027
  384MOL0     O52857   3.047  11.252   2.650  0.1216  0.3905 -0.3651
  384MOL0     C52858   3.154  11.343   2.646  0.0804  0.6356  0.3078
  384MOL0     C52859   3.270  11.309   2.712  0.1645 -0.3460  0.7596
  384MOL0     C52860   3.382  11.400   2.706  0.2152 -0.2610 -0.4228
  384MOL0     C52861   3.368  11.533   2.651 -0.0348 -0.2576  0.4709
  384MOL0     O52862   3.465  11.633   2.647  0.8379  0.0811 -0.5910
  384MOL0     C52863   3.594  11.573   2.628  0.5612 -0.6685  0.3507
  384MOL0     C52864   3.623  11.493   2.493 -0.5445  0.4357 -0.7988
  384MOL0     C52865   3.641  11.584   2.373  0.5192  0.0143 -0.0329
  384MOL0     C52866   3.786  11.624   2.353  0.1671 -0.8580  0.7415
  384MOL0     C52867   3.836  11.633   2.212 -0.1288  0.7470  0.1066
  384MOL0     C52868   3.980  11.684   2.203  0.1728  0.3857  0.5376
  384MOL0     C52869   4.031  11.653   2.060  0.2383  0.3880  0.2706
  384MOL0     C52870   4.177  11.671   2.043 -0.5691 -0.0208  0.1526
  384MOL0     N52871   4.255  11.584   2.130 -0.0919 -0.7685 -0.6003
  384MOL0     C52872   4.316  11.460   2.103 -0.6466  0.3142  1.0093
  384MOL0     C52873   4.378  11.416   2.218  0.4824 -0.2851 -0.1637
  384MOL0     C52874   4.449  11.291   2.242 -0.7227 -0.6076 -0.2259
  384MOL0     C52875   4.597  11.307   2.250 -0.6986 -0.2855  0.3407
  384MOL0     C52876   4.659  11.164   2.241 -0.5587  0.1221 -0.5405
  384MOL0     C52877   4.805  11.184   2.237 -0.2178 -0.2995  0.3038
  384MOL0     O52878   4.865  11.058   2.212 -0.2821 -0.3603  0.6494
  384MOL0     C52879   5.008  11.063   2.197  0.5563 -0.1677 -0.5257
  384MOL0     C52880   5.079  10.952   2.159 -0.7651 -0.2750  0.2135
  384MOL0     C52881   5.222  10.945   2.149 -0.1666  0.0043 -0.8384
  384MOL0     C52882   5.274  10.805   2.109  0.6762  0.3450 -0.1358
  384MOL0     C52883   5.291  11.066   2.155 -0.0757 -0.3542 -0.3997
  384MOL0     C52884   5.437  11.086   2.132 -0.2430 -0.1379  0.8032
  384MOL0     O52885   5.495  11.200   2.170 -0.8463  0.0244  0.2118
  384MOL0     C52886   5.631  11.212   2.179  0.6493  0.2972 -0.4473
  384MOL0     C52887   5.694  11.190   2.305 -1.1199 -0.6137 -0.0924
  384MOL0     C52888   5.840  11.178   2.308 -0.5980  0.3962 -0.2859
  384MOL0     C52889   5.915  11.208   2.185  0.4392 -1.0524 -0.8352
  384MOL0     O52890   6.054  11.213   2.174 -1.0461 -0.1106 -0.5720
  384MOL0     C52891   6.150  11.145   2.270  0.5518  0.4063 -0.2345
  384MOL0     C52892   6.282  11.206   2.264  1.1554 -0.7715 -0.4545
  384MOL0     C52893   6.390  11.125   2.334 -0.6040 -0.5020 -0.4708
  384MOL0     C52894   6.525  11.182   2.295  0.4045  0.3476  0.0009
  384MOL0     C52895   6.622  11.092   2.361 -0.0063  0.4447  0.1134
  384MOL0     C52896   6.766  11.142   2.342  0.2779 -0.7017 -0.1404
  384MOL0     C52897   6.854  11.089   2.453 -0.2355 -0.3917 -0.4725
  384MOL0     C52898   6.997  11.125   2.430  0.0660 -0.6946 -0.3995
  384MOL0    Cl52899   7.099  11.069   2.566 -0.1814 -0.1401 -0.2555
  384MOL0     C52900   5.850  11.242   2.076  0.8929 -0.1845 -0.3311
  384MOL0     C52901   5.708  11.247   2.072  0.2704 -0.5505 -0.4752
  384MOL0     O52902   5.500  10.983   2.096  0.1600  0.4051  0.1119
  384MOL0     C52903   5.222  11.183   2.206 -0.2133 -0.0091 -0.6949
  384MOL0     C52904   5.087  11.173   2.233  0.2533  0.0370 -0.1141
  384MOL0     N52905   4.354  11.517   2.314  0.2670  0.0317  0.6638
  384MOL0     N52906   4.294  11.619   2.252  0.1622  0.0871  0.5755
  384MOL0     C52907   3.235  11.570   2.612  0.3515 -0.4469 -0.1384
  384MOL0     C52908   3.130  11.476   2.613 -0.1335  0.4291  0.3783
  384MOL0     C52909   2.940  11.046   2.650 -0.4462 -0.1825  0.0718
  384MOL0     C52910   2.937  10.928   2.572 -0.9997 -0.1824  0.2001
  384MOL0     C52911   2.820  10.840   2.567  0.4495 -0.5081  1.7717
  384MOL0     C52912   2.700  10.882   2.612 -0.9453  0.2315  0.4377
  384MOL0     O52913   2.597  10.785   2.597 -0.7921  0.4010 -0.9293
  384MOL0     C52914   2.476  10.812   2.666 -0.2665 -0.0271 -0.3252
  384MOL0     C52915   2.379  10.892   2.577 -0.2361  0.0442 -0.1362
  384MOL0     C52916   2.352  10.817   2.447  0.4991  0.4469  0.4480
  384MOL0     C52917   2.246  10.873   2.355 -0.5894 -0.6430 -0.6757
  384MOL0     C52918   2.117  10.879   2.420  0.0152  0.0747 -0.3452
  384MOL0     C52919   2.015  10.886   2.482  0.9564 -0.1703  0.7819
  384MOL0     C52920   2.700  11.007   2.676  0.3270  0.9579  0.4668
  384MOL0     C52921   2.815  11.094   2.697  0.0956  0.8096  0.1087
  384MOL0     C52922   2.796  11.227   2.770 -0.5599  0.5016 -0.4488
  384MOL0     H52923   3.289  11.221   2.773 -0.2546 -0.6188  0.4949
  384MOL0     H52924   3.481  11.365   2.735  0.2169  0.5148  0.5649
  384MOL0     H52925   3.613  11.513   2.718 -3.4569 -2.4122  0.2456
  384MOL0     H52926   3.667  11.654   2.621  0.1649 -0.1745  1.7045
  384MOL0     H52927   3.718  11.440   2.501  0.4822  1.9888 -2.0530
  384MOL0     H52928   3.543  11.418   2.491 -1.9691  1.8797 -0.8337
  384MOL0     H52929   3.597  11.537   2.284 -0.5043 -0.1226  0.5285
  384MOL0     H52930   3.580  11.674   2.389 -0.3385 -0.4501 -0.5808
  384MOL0     H52931   3.804  11.712   2.416 -0.7053 -0.2294  0.1578
  384MOL0     H52932   3.849  11.546   2.395  3.9087  1.0241 -0.8495
  384MOL0     H52933   3.776  11.708   2.160 -1.3938 -0.2678  0.0579
  384MOL0     H52934   3.821  11.536   2.165  0.9515  0.8248 -0.4166
  384MOL0     H52935   3.980  11.789   2.234 -2.4123  0.2886  1.0707
  384MOL0     H52936   4.037  11.628   2.278 -1.5709 -0.7308  1.0888
  384MOL0     H52937   3.986  11.722   1.988  2.3187  1.0485 -0.4425
  384MOL0     H52938   4.014  11.549   2.030  2.5709  0.6114 -2.1986
  384MOL0     H52939   4.205  11.656   1.938  3.7255  3.1221  0.6156
  384MOL0     H52940   4.205  11.775   2.060 -1.5977 -0.0129  2.0093
  384MOL0     H52941   4.319  11.429   1.999 -2.7112  1.6023  0.5057
  384MOL0     H52942   4.429  11.223   2.158 -1.5062  0.9330 -1.3516
  384MOL0     H52943   4.421  11.248   2.338  3.4552  0.1992  1.5551
  384MOL0     H52944   4.625  11.372   2.167 -2.9223  0.3402  0.0144
  384MOL0     H52945   4.629  11.358   2.342  0.4286 -0.2625 -0.0606
  384MOL0     H52946   4.624  11.100   2.323  0.2239  1.2683  0.7144
  384MOL0     H52947   4.646  11.122   2.140  3.9278  2.0293 -2.1649
  384MOL0     H52948   4.835  11.243   2.149  0.8414 -1.5752 -0.2232
  384MOL0     H52949   4.840  11.224   2.332  3.1739  1.1893 -1.3933
  384MOL0     H52950   5.025  10.860   2.139  1.4629 -1.0919 -2.7733
  384MOL0     H52951   5.209  10.726   2.147  1.0733 -1.1551 -2.4082
  384MOL0     H52952   5.373  10.790   2.152  0.2310  0.6117  1.0196
  384MOL0     H52953   5.274  10.793   2.000  0.3133 -0.6063 -0.0332
  384MOL0     H52954   5.620  11.170   2.382 -2.3942 -0.6290 -1.2793
  384MOL0     H52955   5.886  11.137   2.397  1.7203  1.7015 -0.7970
  384MOL0     H52956   6.116  11.156   2.373  0.2740 -2.1072 -0.0064
  384MOL0     H52957   6.155  11.041   2.239 -1.1441  0.7885 -2.0881
  384MOL0     H52958   6.306  11.206   2.157  0.2021 -0.9451 -0.6756
  384MOL0     H52959   6.292  11.310   2.294  3.5926 -1.5987  2.0707
  384MOL0     H52960   6.381  11.026   2.288 -0.2027 -1.5813  1.6534
  384MOL0     H52961   6.383  11.118   2.443  0.2169 -0.3852 -0.4038
  384MOL0     H52962   6.537  11.283   2.336 -0.4083  0.1086  0.8696
  384MOL0     H52963   6.539  11.177   2.187 -1.6595  2.7112 -0.4840
  384MOL0     H52964   6.594  11.076   2.466  0.4177 -2.2085 -0.0932
  384MOL0     H52965   6.611  10.991   2.319 -0.8367  1.5140 -2.4410
  384MOL0     H52966   6.754  11.250   2.346 -1.9523 -0.9318  1.7202
  384MOL0     H52967   6.798  11.114   2.242 -1.3972 -0.4655 -0.7737
  384MOL0     H52968   6.833  10.983   2.464  1.5674 -0.7614 -0.3413
  384MOL0     H52969   6.823  11.129   2.550  1.6670  0.0300  0.0099
  384MOL0     H52970   7.011  11.233   2.431  2.5542 -0.8709 -2.6322
  384MOL0     H52971   7.037  11.088   2.335 -1.5993 -1.5306 -0.8154
  384MOL0     H52972   5.915  11.259   1.991  1.7425 -2.6782 -0.2524
  384MOL0     H52973   5.677  11.290   1.978 -0.8068 -0.2133  0.0202
  384MOL0     H52974   5.276  11.274   2.231 -1.4230 -0.0630  2.5986
  384MOL0     H52975   5.040  11.255   2.286 -0.2507 -0.1111 -0.3262
  384MOL0     H52976   3.218  11.672   2.578 -4.1956 -1.3311 -1.1699
  384MOL0     H52977   3.029  11.505   2.587 -0.5461 -1.8969 -0.9451
  384MOL0     H52978   3.027  10.902   2.518 -1.2104  1.5234 -1.0481
  384MOL0     H52979   2.830  10.743   2.520 -1.0504  0.2687 -0.3175
  384MOL0     H52980   2.438  10.711   2.683  2.2617 -0.7628  1.5299
  384MOL0     H52981   2.496  10.856   2.764  0.4970 -1.7768  0.3567
  384MOL0     H52982   2.409  10.994   2.553 -0.8622 -0.2848 -2.6839
  384MOL0     H52983   2.289  10.891   2.638  1.1873  1.8917  2.1479
  384MOL0     H52984   2.450  10.819   2.397  0.3457  1.4253  0.1661
  384MOL0     H52985   2.312  10.721   2.478 -0.8487  0.4233 -1.2043
  384MOL0     H52986   2.242  10.817   2.262  1.9294  2.3574 -2.7787
  384MOL0     H52987   2.277  10.974   2.327  0.3855 -1.1753 -1.5609
  384MOL0     H52988   1.915  10.876   2.520  0.5361 -0.2177 -0.2941
  384MOL0     H52989   2.610  11.051   2.718 -0.0646  1.3526 -0.7423
  384MOL0     H52990   2.693  11.233   2.805  0.1708 -0.3861  2.1293
  384MOL0     H52991   2.861  11.230   2.858  1.0115  1.6996 -1.5893
  384MOL0     H52992   2.818  11.318   2.714 -3.0796  0.2047 -2.0485
  385MOL0     O52993   2.169   1.603   9.549 -0.0061 -0.1450  0.2734
  385MOL0     C52994   2.172   1.504   9.623 -0.1946 -1.5143  0.1177
  385MOL0     O52995   2.265   1.414   9.643  0.1772  0.8531 -0.0200
  385MOL0     C52996   2.397   1.451   9.619 -0.3445 -0.0619 -0.2484
  385MOL0     C52997   2.487   1.353   9.579 -0.2288  0.2095 -0.3107
  385MOL0     C52998   2.618   1.385   9.545 -0.5533  0.6216 -0.3993
  385MOL0     C52999   2.665   1.516   9.567  0.1292  0.0734 -0.0959
  385MOL0     O53000   2.795   1.565   9.548  0.5201 -0.6908 -0.3789
  385MOL0     C53001   2.900   1.471   9.512 -0.2265 -0.0935 -0.2648
  385MOL0     C53002   3.028   1.538   9.463 -0.1809  0.0383 -0.2555
  385MOL0     C53003   3.106   1.588   9.590  0.2080  0.0243  0.2692
  385MOL0     C53004   3.177   1.722   9.581  0.6791  0.0586 -0.1308
  385MOL0     C53005   3.252   1.744   9.714  0.5175 -0.6659 -0.0672
  385MOL0     C53006   3.158   1.790   9.831  0.0873  0.4365  0.1246
  385MOL0     C53007   3.244   1.842   9.944  0.4176 -1.0432 -0.3681
  385MOL0     C53008   3.181   1.846  10.084 -1.3184 -0.7504 -0.8610
  385MOL0     N53009   3.154   1.712  10.139 -0.3296  0.0339  0.6411
  385MOL0     C53010   3.238   1.600  10.121  0.2542 -0.4317  0.3602
  385MOL0     C53011   3.150   1.498  10.141 -0.5842 -0.1533 -0.6282
  385MOL0     C53012   3.177   1.348  10.137 -0.3686  0.1437 -0.7131
  385MOL0     C53013   3.129   1.266  10.262 -0.6940  1.1423 -0.6754
  385MOL0     C53014   3.170   1.315  10.403  0.0903 -0.0614 -0.2569
  385MOL0     C53015   3.315   1.297  10.441 -1.5107 -0.7133  0.8790
  385MOL0     O53016   3.404   1.390  10.373  0.4196  1.4036 -0.0356
  385MOL0     C53017   3.538   1.364  10.375 -0.7398 -0.5824  0.4695
  385MOL0     C53018   3.594   1.258  10.455  0.3592 -0.1996 -0.3824
  385MOL0     C53019   3.739   1.240  10.464 -0.3557 -0.0271  0.1920
  385MOL0     C53020   3.792   1.134  10.554 -0.9511  0.4336  0.2992
  385MOL0     C53021   3.822   1.324  10.381  0.5361  0.8450 -0.3911
  385MOL0     C53022   3.971   1.304  10.380  0.1045 -0.6557  0.5313
  385MOL0     O53023   4.032   1.327  10.253 -0.4280 -0.3449 -0.1155
  385MOL0     C53024   4.163   1.301  10.243  0.2002 -0.6491 -0.0495
  385MOL0     C53025   4.223   1.381  10.148  0.7016  0.4385  0.0492
  385MOL0     C53026   4.363   1.367  10.123  0.7126 -0.1115  0.6928
  385MOL0     C53027   4.439   1.274  10.196 -0.5097 -0.3478  1.0483
  385MOL0     O53028   4.571   1.256  10.186 -0.3751 -0.3538 -0.3962
  385MOL0     C53029   4.652   1.356  10.122 -0.4462  0.4911 -0.1405
  385MOL0     C53030   4.795   1.311  10.143  0.2890 -0.0531 -1.0776
  385MOL0     C53031   4.824   1.173  10.094  0.8983 -0.3855 -0.1873
  385MOL0     C53032   4.760   1.131   9.963 -0.0250  0.3021  0.0826
  385MOL0     C53033   4.820   0.993   9.914 -0.0784 -0.0159 -0.0324
  385MOL0     C53034   4.969   0.995   9.891 -0.4539 -0.1630  0.5812
  385MOL0     C53035   5.017   1.085   9.768 -0.0644 -0.6539  0.0922
  385MOL0     C53036   5.162   1.110   9.772  0.0449  0.0427  1.1447
  385MOL0    Cl53037   5.235   0.955   9.741 -0.1131  0.2671 -0.3239
  385MOL0     C53038   4.380   1.187  10.270  0.4624 -0.2995 -0.0357
  385MOL0     C53039   4.239   1.195  10.299 -0.4275  0.5474 -1.2493
  385MOL0     O53040   4.035   1.286  10.482 -0.2354  0.4223  0.1691
  385MOL0     C53041   3.761   1.408  10.288  0.0381 -0.7299 -0.5597
  385MOL0     C53042   3.622   1.433  10.291 -0.3615  0.0004  0.5446
  385MOL0     N53043   3.023   1.540  10.147  0.4610 -0.1377  0.0738
  385MOL0     N53044   3.027   1.671  10.162  0.0374 -0.3510  0.0294
  385MOL0     C53045   2.579   1.611   9.622  0.1969  0.5037  0.6788
  385MOL0     C53046   2.445   1.581   9.653 -0.2240 -0.0063  0.5672
  385MOL0     C53047   2.055   1.495   9.716  0.3825  0.2133 -1.0286
  385MOL0     C53048   2.080   1.417   9.834  0.0145  0.4778 -0.3452
  385MOL0     C53049   1.976   1.386   9.925  0.0815  0.3079  0.2973
  385MOL0     C53050   1.845   1.438   9.907 -0.2007  0.0703  0.7171
  385MOL0     O53051   1.757   1.407  10.010 -0.2736  0.7712  0.0643
  385MOL0     C53052   1.639   1.487  10.021 -0.2839  0.7853  0.5094
  385MOL0     C53053   1.576   1.488  10.160 -0.3991  0.5265 -0.2111
  385MOL0     C53054   1.427   1.535  10.155  0.6482  0.1142  0.0260
  385MOL0     C53055   1.353   1.503  10.290 -0.1449 -0.1227 -0.4158
  385MOL0     C53056   1.209   1.527  10.254  0.2200  0.3436 -0.5898
  385MOL0     C53057   1.097   1.546  10.213  0.4089 -0.0544  0.0053
  385MOL0     C53058   1.821   1.525   9.793 -0.8784  0.9585 -0.6614
  385MOL0     C53059   1.920   1.545   9.697 -0.6355  0.0705  0.1107
  385MOL0     C53060   1.891   1.631   9.575  0.2971 -0.1910  0.0800
  385MOL0     H53061   2.441   1.258   9.556  1.2524 -0.4934 -0.4477
  385MOL0     H53062   2.676   1.311   9.489  1.1444  0.5869  1.3157
  385MOL0     H53063   2.861   1.413   9.427 -2.7966  2.5824 -1.0635
  385MOL0     H53064   2.924   1.396   9.589  0.1921 -0.6904 -0.9596
  385MOL0     H53065   3.091   1.476   9.399  0.7112 -0.0410  0.6810
  385MOL0     H53066   2.990   1.617   9.397 -0.0577  1.9716  1.8657
  385MOL0     H53067   3.032   1.592   9.670 -1.7154  1.5082 -1.4620
  385MOL0     H53068   3.178   1.512   9.620 -0.1132 -0.1359  0.6451
  385MOL0     H53069   3.254   1.713   9.504  0.4510  1.1436 -0.5031
  385MOL0     H53070   3.108   1.802   9.555 -0.5126 -0.4036  1.4440
  385MOL0     H53071   3.329   1.821   9.709 -1.2761  1.2540  0.3467
  385MOL0     H53072   3.312   1.658   9.744  0.9401 -0.3350  0.0540
  385MOL0     H53073   3.094   1.868   9.789 -0.2913 -1.7391 -3.8573
  385MOL0     H53074   3.091   1.712   9.869 -1.0582  0.2856 -2.0468
  385MOL0     H53075   3.275   1.940   9.910  0.3155 -0.2417  1.7065
  385MOL0     H53076   3.329   1.777   9.969 -0.3601 -1.8296  0.3350
  385MOL0     H53077   3.249   1.892  10.157 -1.0981 -0.8799 -0.9835
  385MOL0     H53078   3.091   1.908  10.082 -2.7170 -2.2344  3.5067
  385MOL0     H53079   3.345   1.597  10.101  0.0791  1.7055 -1.1858
  385MOL0     H53080   3.287   1.342  10.132 -0.1611  0.9532  1.6954
  385MOL0     H53081   3.129   1.306  10.048 -0.3966 -0.6501 -0.3299
  385MOL0     H53082   3.020   1.277  10.266 -0.7100  0.8588 -0.1355
  385MOL0     H53083   3.155   1.161  10.247 -3.4067  0.5069 -1.5447
  385MOL0     H53084   3.137   1.420  10.400  0.8800  0.1862 -0.6305
  385MOL0     H53085   3.102   1.262  10.470  0.8758 -1.2027 -0.3375
  385MOL0     H53086   3.331   1.298  10.549  1.8001 -1.8070  0.5146
  385MOL0     H53087   3.332   1.194  10.408 -0.5843  0.4395 -2.6698
  385MOL0     H53088   3.543   1.203  10.534  0.7864 -0.0621 -0.0027
  385MOL0     H53089   3.729   1.046  10.566  2.9526 -2.7016  0.1971
  385MOL0     H53090   3.827   1.180  10.647 -2.0811  1.7073  0.1159
  385MOL0     H53091   3.881   1.091  10.507 -2.2861 -1.3066 -0.7376
  385MOL0     H53092   4.169   1.459  10.094  0.3962  0.4244  0.3315
  385MOL0     H53093   4.408   1.429  10.046 -4.6320  0.4847 -2.4987
  385MOL0     H53094   4.616   1.351  10.019  0.6787 -2.0663 -0.4895
  385MOL0     H53095   4.635   1.452  10.173  1.9532  2.3421 -2.4985
  385MOL0     H53096   4.861   1.386  10.099  3.0497 -1.4641  0.4222
  385MOL0     H53097   4.815   1.331  10.249 -1.0462 -3.1329 -0.1216
  385MOL0     H53098   4.779   1.116  10.176 -0.7814 -3.3706 -2.9526
  385MOL0     H53099   4.932   1.157  10.099  0.7669 -0.9971  2.3480
  385MOL0     H53100   4.769   1.204   9.881 -0.3806 -0.0574 -0.2809
  385MOL0     H53101   4.652   1.114   9.974 -0.1513  0.4041 -0.9112
  385MOL0     H53102   4.804   0.913   9.987  0.1726 -1.1612 -1.1971
  385MOL0     H53103   4.766   0.963   9.823 -1.8296 -0.0182  0.9590
  385MOL0     H53104   4.994   0.889   9.878 -0.2071 -0.2756  1.8405
  385MOL0     H53105   5.026   1.019   9.981  2.5454 -0.3640 -1.1236
  385MOL0     H53106   4.975   1.185   9.782  0.1881 -0.5454  0.0858
  385MOL0     H53107   4.978   1.042   9.676 -3.4163 -1.4016  1.7054
  385MOL0     H53108   5.194   1.153   9.868  0.5334  0.0761  0.9682
  385MOL0     H53109   5.190   1.173   9.687 -2.0480  0.0357  0.4025
  385MOL0     H53110   4.440   1.109  10.315  0.2928  0.2928  1.2503
  385MOL0     H53111   4.185   1.130  10.367 -0.8155 -0.3482 -2.3821
  385MOL0     H53112   3.821   1.468  10.220 -0.7607 -0.5876 -1.1520
  385MOL0     H53113   3.581   1.501  10.218 -0.1338 -3.3055 -2.9405
  385MOL0     H53114   2.616   1.712   9.640 -3.0935  1.8285  0.6168
  385MOL0     H53115   2.384   1.658   9.699  2.3088  0.7584  2.9578
  385MOL0     H53116   2.174   1.385   9.876 -0.8239  0.0122  1.2994
  385MOL0     H53117   1.994   1.326  10.014  0.2467  1.9097  1.3774
  385MOL0     H53118   1.650   1.591   9.990  2.1335  0.5414  0.3948
  385MOL0     H53119   1.577   1.439   9.944  1.7408 -1.7152  0.3074
  385MOL0     H53120   1.636   1.556  10.221 -2.6593  1.5572  0.9711
  385MOL0     H53121   1.575   1.387  10.202  0.1438 -0.0488 -1.5283
  385MOL0     H53122   1.426   1.643  10.138  0.8902  0.2560  0.8520
  385MOL0     H53123   1.384   1.480  10.071  1.7692 -0.1155 -0.4069
  385MOL0     H53124   1.377   1.556  10.382  1.0090 -0.9203 -0.2258
  385MOL0     H53125   1.376   1.398  10.312  2.3226  0.6588  1.1585
  385MOL0     H53126   0.996   1.570  10.184  0.6096  0.6564 -0.1343
  385MOL0     H53127   1.723   1.572   9.785 -2.1725 -1.2723  0.9002
  385MOL0     H53128   1.958   1.717   9.579  3.3872 -2.4086 -0.5769
  385MOL0     H53129   1.921   1.582   9.482  1.6804 -0.0895  0.4598
  385MOL0     H53130   1.787   1.666   9.573  0.5343  0.4887 -0.9659
  386MOL0     O53131   8.646   5.659   7.693 -0.9028  0.4156 -0.6275
  386MOL0     C53132   8.618   5.765   7.745  1.0998  0.8647 -0.5536
  386MOL0     O53133   8.692   5.868   7.738 -0.1595  0.0005  0.3511
  386MOL0     C53134   8.809   5.864   7.660  0.3093  0.0712  0.0662
  386MOL0     C53135   8.793   5.836   7.519  0.1884  0.1314  0.2468
  386MOL0     C53136   8.898   5.845   7.436 -0.4398 -0.0593  0.5954
  386MOL0     C53137   9.028   5.869   7.482  0.3680 -0.0576  0.3583
  386MOL0     O53138   9.140   5.887   7.408 -0.9833  0.2175 -0.3993
  386MOL0     C53139   9.135   5.860   7.261 -0.1378  0.4868 -0.7304
  386MOL0     C53140   9.281   5.876   7.199 -0.1728  0.0103 -0.0611
  386MOL0     C53141   9.281   6.004   7.116 -0.0982  1.0112  0.6649
  386MOL0     C53142   9.403   6.021   7.018  0.6991  0.1015 -0.6380
  386MOL0     C53143   9.530   6.075   7.082  0.1526  0.2124 -1.2534
  386MOL0     C53144   9.545   6.225   7.055 -0.2482  1.3897 -0.2433
  386MOL0     C53145   9.666   6.282   7.134 -0.5301 -0.3342  0.9457
  386MOL0     C53146   9.797   6.222   7.075 -0.9250 -0.2259 -1.1377
  386MOL0     N53147   9.914   6.294   7.122  0.2233  0.5063  0.6510
  386MOL0     C53148   9.971   6.398   7.054  0.0867  0.3046  0.0383
  386MOL0     C53149  10.087   6.432   7.115 -0.3829  0.5568 -0.4224
  386MOL0     C53150  10.167   6.560   7.067  0.2213 -0.3000 -0.5478
  386MOL0     C53151  10.187   6.643   7.195  0.1741  0.8314 -0.5979
  386MOL0     C53152  10.050   6.689   7.250  0.0313  0.8248  0.9044
  386MOL0     C53153  10.045   6.813   7.334  0.2123  0.0068 -0.3370
  386MOL0     O53154  10.077   6.922   7.249  0.3192 -0.6045  0.2524
  386MOL0     C53155   9.979   6.983   7.168 -1.7986  0.4886  0.3910
  386MOL0     C53156   9.847   6.936   7.151  0.1442  0.2112  0.4365
  386MOL0     C53157   9.766   6.964   7.042 -0.2701  0.1830 -0.7768
  386MOL0     C53158   9.636   6.889   7.022  0.2456 -0.0169  0.0171
  386MOL0     C53159   9.811   7.066   6.950  1.2109  0.3942 -0.3872
  386MOL0     C53160   9.736   7.123   6.827  0.0407 -0.2999 -0.0022
  386MOL0     O53161   9.759   7.263   6.798  0.0947 -0.9732  0.3396
  386MOL0     C53162   9.705   7.328   6.684  0.2265 -1.1254  0.1342
  386MOL0     C53163   9.760   7.451   6.669  0.2786 -0.3784 -0.3314
  386MOL0     C53164   9.709   7.540   6.569 -0.2138 -0.2821  0.8817
  386MOL0     C53165   9.616   7.496   6.465 -0.3042 -1.0408 -0.6243
  386MOL0     O53166   9.583   7.576   6.358  0.1160  0.0824  0.2049
  386MOL0     C53167   9.482   7.540   6.263  0.3265 -0.3027  0.2711
  386MOL0     C53168   9.525   7.455   6.142  0.2528  0.2989  1.1264
  386MOL0     C53169   9.422   7.474   6.021 -0.0571 -0.2216 -0.0871
  386MOL0     C53170   9.492   7.515   5.891  0.2983 -0.7362 -0.1932
  386MOL0     C53171   9.395   7.549   5.782  0.4031 -0.0948 -0.5827
  386MOL0     C53172   9.348   7.422   5.722  0.7798 -0.5775  0.2122
  386MOL0     C53173   9.237   7.452   5.616 -0.4791  0.2270 -0.3735
  386MOL0     C53174   9.187   7.322   5.552  0.0080  0.0303 -0.0306
  386MOL0    Cl53175   9.312   7.233   5.471  0.1475  0.4278  0.3130
  386MOL0     C53176   9.562   7.375   6.483 -0.3614  0.0273  1.1733
  386MOL0     C53177   9.610   7.292   6.587  0.5360 -0.0073  0.4328
  386MOL0     O53178   9.656   7.047   6.767  0.5955 -0.3952  0.0563
  386MOL0     C53179   9.940   7.125   6.977 -0.4822  0.3577 -0.0356
  386MOL0     C53180  10.019   7.082   7.082 -0.1393 -0.8937  0.9120
  386MOL0     N53181  10.103   6.343   7.223  0.6108 -0.0203  0.1809
  386MOL0     N53182  10.001   6.263   7.227 -0.3621  0.2968  0.1804
  386MOL0     C53183   9.046   5.876   7.619 -0.8745  0.5970  0.5231
  386MOL0     C53184   8.940   5.880   7.712  0.5095 -0.4451 -0.0831
  386MOL0     C53185   8.477   5.784   7.796 -0.8437  0.4550  0.8839
  386MOL0     C53186   8.430   5.911   7.809 -1.0087 -0.0500  0.4777
  386MOL0     C53187   8.303   5.945   7.860  0.5375 -0.5882 -0.2570
  386MOL0     C53188   8.217   5.852   7.913  0.3627 -0.8560  1.2822
  386MOL0     O53189   8.095   5.898   7.971 -0.4797  0.5788 -0.0286
  386MOL0     C53190   8.011   5.809   8.040  0.1504 -0.1951  0.7779
  386MOL0     C53191   7.882   5.796   7.972  0.3756 -0.4342 -0.2519
  386MOL0     C53192   7.892   5.695   7.856  0.0040 -0.1484 -0.0225
  386MOL0     C53193   7.758   5.693   7.779 -0.2485  0.0080 -0.9225
  386MOL0     C53194   7.643   5.653   7.866 -0.4241  0.5387 -0.0477
  386MOL0     C53195   7.549   5.612   7.932 -0.0583  0.5468 -0.6964
  386MOL0     C53196   8.263   5.721   7.894 -0.4035  0.4813  0.0580
  386MOL0     C53197   8.388   5.680   7.843  0.0412 -0.3088 -0.2338
  386MOL0     C53198   8.427   5.533   7.840  0.0058 -0.3774  0.5104
  386MOL0     H53199   8.695   5.819   7.475  1.8420  0.5850 -4.0810
  386MOL0     H53200   8.872   5.835   7.331 -1.4663  0.7328  0.7667
  386MOL0     H53201   9.058   5.919   7.210 -0.4529 -0.1283 -0.9770
  386MOL0     H53202   9.106   5.755   7.246 -1.0164  0.7209 -0.7667
  386MOL0     H53203   9.349   5.879   7.284 -1.4843  1.0840  0.9868
  386MOL0     H53204   9.299   5.798   7.124  2.2190  0.4511 -0.0321
  386MOL0     H53205   9.199   5.997   7.043 -0.6396  0.5337  1.3127
  386MOL0     H53206   9.278   6.089   7.185 -1.0674  0.5628  1.1893
  386MOL0     H53207   9.425   5.926   6.968  0.4492 -1.2640  1.7069
  386MOL0     H53208   9.368   6.093   6.943  0.7400  1.0012  0.1769
  386MOL0     H53209   9.617   6.012   7.062  0.7884  0.6220  0.1046
  386MOL0     H53210   9.506   6.073   7.189  3.7579 -1.8270 -0.3064
  386MOL0     H53211   9.564   6.253   6.950 -1.5846  1.6316 -0.4370
  386MOL0     H53212   9.453   6.279   7.080 -0.4043  1.3669 -0.7373
  386MOL0     H53213   9.664   6.274   7.243  0.5390  2.6466  1.2825
  386MOL0     H53214   9.656   6.388   7.107 -0.9008 -0.8349 -1.0884
  386MOL0     H53215   9.804   6.121   7.116 -3.3677  0.9069  2.5699
  386MOL0     H53216   9.796   6.212   6.966  0.7564 -2.3297 -1.0342
  386MOL0     H53217   9.933   6.470   6.982  1.6112  0.9125 -0.2078
  386MOL0     H53218  10.119   6.610   6.983 -0.0307 -1.5543 -1.1662
  386MOL0     H53219  10.264   6.526   7.029  0.3732  0.9285 -1.3268
  386MOL0     H53220  10.239   6.582   7.269 -0.1742 -0.3387 -1.2854
  386MOL0     H53221  10.252   6.725   7.164  3.6662 -1.1020  0.9865
  386MOL0     H53222  10.002   6.709   7.154  2.2273 -1.2018 -0.7346
  386MOL0     H53223  10.011   6.600   7.300  0.1921  0.1019 -0.2257
  386MOL0     H53224   9.944   6.826   7.375  0.6263  1.9309  0.1489
  386MOL0     H53225  10.114   6.804   7.418 -1.3351 -1.0081  0.8900
  386MOL0     H53226   9.812   6.859   7.220 -1.0969  1.7848  1.6276
  386MOL0     H53227   9.607   6.831   7.110 -0.9382  1.6281  0.7695
  386MOL0     H53228   9.644   6.822   6.936  0.2297  3.4877 -2.9504
  386MOL0     H53229   9.550   6.955   7.004 -1.5388 -1.9940  0.9076
  386MOL0     H53230   9.847   7.474   6.731  0.9236 -0.0624 -1.3306
  386MOL0     H53231   9.750   7.640   6.556  0.3278 -0.6953 -0.8049
  386MOL0     H53232   9.401   7.483   6.311 -1.0073 -0.4470 -1.9954
  386MOL0     H53233   9.448   7.638   6.229  1.9739  0.6037  1.1651
  386MOL0     H53234   9.622   7.476   6.095 -0.6787  1.3847 -0.4099
  386MOL0     H53235   9.527   7.351   6.177  0.5992  0.4382  1.5295
  386MOL0     H53236   9.336   7.537   6.045 -1.2329 -2.2829  1.4211
  386MOL0     H53237   9.373   7.378   6.007 -2.7055  0.8298  1.2664
  386MOL0     H53238   9.565   7.443   5.854 -0.4388 -1.3770 -0.4499
  386MOL0     H53239   9.547   7.609   5.900  1.5829 -1.3343 -1.4500
  386MOL0     H53240   9.311   7.611   5.814  2.1653  1.8813  0.5433
  386MOL0     H53241   9.448   7.609   5.708  0.3794  0.1559 -0.3994
  386MOL0     H53242   9.299   7.362   5.799 -2.4458  1.2337 -0.2641
  386MOL0     H53243   9.433   7.374   5.673  2.3034  2.5579 -0.4875
  386MOL0     H53244   9.270   7.517   5.534 -2.3586 -1.4285 -2.5848
  386MOL0     H53245   9.153   7.501   5.665 -0.4456  0.4625 -0.5495
  386MOL0     H53246   9.118   7.360   5.476 -0.1110  1.6756  0.8422
  386MOL0     H53247   9.139   7.268   5.634 -1.9491 -0.4098 -1.3982
  386MOL0     H53248   9.493   7.327   6.415  1.2778  0.3899 -0.8576
  386MOL0     H53249   9.570   7.191   6.581  0.9040 -0.1011 -0.6657
  386MOL0     H53250   9.968   7.211   6.917  0.0600 -1.1069 -1.9711
  386MOL0     H53251  10.119   7.123   7.090  0.0875 -1.4153  0.7921
  386MOL0     H53252   9.148   5.899   7.646 -0.9752  1.6421  0.0606
  386MOL0     H53253   8.969   5.897   7.816  0.7227 -3.3315  0.4268
  386MOL0     H53254   8.490   5.990   7.765 -2.1066  0.0608 -0.8989
  386MOL0     H53255   8.278   6.051   7.863  1.6692 -0.1688  5.0693
  386MOL0     H53256   8.069   5.719   8.063 -1.0500 -0.0624  5.2289
  386MOL0     H53257   7.994   5.858   8.136  0.9936  2.4991 -0.3516
  386MOL0     H53258   7.850   5.896   7.942  0.3160 -0.6858 -1.0494
  386MOL0     H53259   7.808   5.754   8.040  0.8598 -1.3646 -0.2847
  386MOL0     H53260   7.973   5.733   7.793 -1.3270  1.5791 -0.7551
  386MOL0     H53261   7.932   5.599   7.890 -0.9895 -0.5960 -0.0904
  386MOL0     H53262   7.774   5.615   7.704  1.3657 -2.1645  1.5113
  386MOL0     H53263   7.742   5.796   7.746  0.6953  0.8312  1.0303
  386MOL0     H53264   7.462   5.576   7.982 -0.7464 -1.0533 -2.8799
  386MOL0     H53265   8.197   5.637   7.916 -1.0934  0.9226 -0.2883
  386MOL0     H53266   8.341   5.470   7.865 -0.0501 -1.6521 -2.4729
  386MOL0     H53267   8.453   5.513   7.735 -3.3492  1.9490 -0.9622
  386MOL0     H53268   8.508   5.516   7.910 -1.3953  1.0106  2.5774
  387MOL0     O53269   2.809   8.814   4.752  0.6874  0.3658  0.2379
  387MOL0     C53270   2.725   8.732   4.801  0.4346 -0.2113  0.4752
  387MOL0     O53271   2.749   8.639   4.906  0.7270  0.0048 -0.0459
  387MOL0     C53272   2.876   8.625   4.954  0.1657 -0.1329  0.1144
  387MOL0     C53273   2.993   8.630   4.874 -0.0031  0.3227 -0.4503
  387MOL0     C53274   3.117   8.595   4.919 -0.8316 -0.4838 -0.1015
  387MOL0     C53275   3.130   8.558   5.050  0.0196  0.6195 -0.2646
  387MOL0     O53276   3.247   8.511   5.111  0.3022  0.5944 -0.5470
  387MOL0     C53277   3.352   8.451   5.035 -0.3158  0.0839 -0.1981
  387MOL0     C53278   3.422   8.338   5.112 -0.4734 -0.1090 -0.8965
  387MOL0     C53279   3.568   8.387   5.161 -0.5911  0.1844  0.5279
  387MOL0     C53280   3.559   8.446   5.299  0.1426  0.1764 -0.6091
  387MOL0     C53281   3.700   8.498   5.353  0.0786 -0.1935 -0.1113
  387MOL0     C53282   3.817   8.404   5.334 -0.2769 -0.7675  0.1628
  387MOL0     C53283   3.955   8.473   5.365 -0.6342 -0.5314 -0.4959
  387MOL0     C53284   3.981   8.603   5.279 -0.1729 -0.3052  0.1033
  387MOL0     N53285   4.129   8.622   5.260 -0.3330  0.2872 -0.0486
  387MOL0     C53286   4.212   8.679   5.354  0.3779  0.4977  0.2529
  387MOL0     C53287   4.334   8.638   5.312 -0.3953 -0.5819  0.9474
  387MOL0     C53288   4.465   8.650   5.389  0.1269 -1.0215 -0.8683
  387MOL0     C53289   4.482   8.800   5.435  0.9420  0.3009  0.7320
  387MOL0     C53290   4.622   8.837   5.473  0.1113 -0.1161  0.6180
  387MOL0     C53291   4.682   8.758   5.590  0.2855  0.1352  0.1339
  387MOL0     O53292   4.574   8.713   5.673  0.2001 -0.0790  0.7999
  387MOL0     C53293   4.602   8.718   5.804  0.2591  0.1485 -0.1690
  387MOL0     C53294   4.671   8.613   5.866 -0.8747  0.0183 -0.3896
  387MOL0     C53295   4.708   8.631   5.998 -0.2021  0.0970  0.7503
  387MOL0     C53296   4.785   8.511   6.050 -0.1542  0.2198 -0.3706
  387MOL0     C53297   4.651   8.732   6.081 -0.2288  0.0391 -0.8511
  387MOL0     C53298   4.674   8.738   6.231  0.4067  0.1273  0.3182
  387MOL0     O53299   4.563   8.734   6.314  0.4981 -0.2808  0.3149
  387MOL0     C53300   4.574   8.731   6.450  0.5176  0.2445  0.4442
  387MOL0     C53301   4.476   8.647   6.504  0.0739  0.4863  0.7933
  387MOL0     C53302   4.480   8.607   6.634 -0.4987  0.0555  0.3439
  387MOL0     C53303   4.589   8.634   6.708 -0.2999 -0.2925 -0.2047
  387MOL0     O53304   4.597   8.560   6.829 -0.3097 -0.0395  0.2046
  387MOL0     C53305   4.717   8.569   6.903 -0.5699 -0.4491 -0.0088
  387MOL0     C53306   4.709   8.457   7.011 -0.3243 -0.1869 -0.7254
  387MOL0     C53307   4.590   8.474   7.106 -0.2343 -0.3339 -0.5221
  387MOL0     C53308   4.586   8.347   7.197 -0.7174 -0.1966  0.6656
  387MOL0     C53309   4.447   8.340   7.256  1.5176  0.1749 -0.6150
  387MOL0     C53310   4.349   8.290   7.150 -0.0183  0.1631 -0.3321
  387MOL0     C53311   4.225   8.242   7.232 -0.0064 -0.5291  0.2915
  387MOL0     C53312   4.109   8.180   7.158 -0.4264 -1.1035  1.0990
  387MOL0    Cl53313   3.989   8.147   7.272 -0.0648 -0.1042 -0.1655
  387MOL0     C53314   4.687   8.724   6.667  0.3751 -0.1743 -0.2682
  387MOL0     C53315   4.682   8.765   6.528  0.7313 -0.7325  0.0864
  387MOL0     O53316   4.787   8.769   6.265  0.5677 -0.0085 -0.0210
  387MOL0     C53317   4.586   8.843   6.020  0.5294 -0.0092 -0.0205
  387MOL0     C53318   4.565   8.829   5.875  0.3627 -0.1045 -0.2185
  387MOL0     N53319   4.328   8.571   5.192 -0.4722 -0.5992 -0.5770
  387MOL0     N53320   4.204   8.563   5.163  0.3098 -0.4484  0.4830
  387MOL0     C53321   3.017   8.564   5.134 -0.0239  0.2512 -0.3875
  387MOL0     C53322   2.888   8.594   5.083 -0.4459  0.1561 -0.8791
  387MOL0     C53323   2.577   8.745   4.747  1.0931 -1.1945  0.3116
  387MOL0     C53324   2.479   8.717   4.840 -0.2857  0.2626 -0.0601
  387MOL0     C53325   2.343   8.749   4.817 -0.0378  0.3540  0.5499
  387MOL0     C53326   2.301   8.794   4.692  0.6186  0.0936 -0.4827
  387MOL0     O53327   2.170   8.808   4.667  0.1312  0.8127  0.2279
  387MOL0     C53328   2.120   8.814   4.532  0.0786  0.6002 -0.2199
  387MOL0     C53329   1.957   8.815   4.517 -0.6500 -0.2007 -0.3274
  387MOL0     C53330   1.903   8.701   4.591  0.1031  0.3243  0.7513
  387MOL0     C53331   1.747   8.704   4.590 -0.4580  0.1515 -0.3625
  387MOL0     C53332   1.695   8.576   4.641 -0.3371 -0.2069 -0.6247
  387MOL0     C53333   1.638   8.472   4.667  0.0167  0.4750  0.5057
  387MOL0     C53334   2.399   8.806   4.589  1.1278  0.3700  0.1639
  387MOL0     C53335   2.539   8.785   4.619  0.3534  0.6665 -0.2600
  387MOL0     C53336   2.641   8.826   4.516  0.0423 -0.3209  0.0495
  387MOL0     H53337   2.994   8.671   4.774  0.7114  0.7718 -0.2639
  387MOL0     H53338   3.211   8.604   4.866  1.1619  0.9520  3.2913
  387MOL0     H53339   3.423   8.517   4.985 -2.6147  2.1380 -0.9524
  387MOL0     H53340   3.296   8.403   4.953 -0.4146  0.0829 -0.1299
  387MOL0     H53341   3.363   8.293   5.192  2.0523  0.8604  1.7080
  387MOL0     H53342   3.441   8.253   5.046 -1.7694 -2.7950  1.9574
  387MOL0     H53343   3.649   8.314   5.154  2.2644  2.9774  2.2909
  387MOL0     H53344   3.617   8.463   5.099  2.7902 -1.2784  1.1851
  387MOL0     H53345   3.493   8.533   5.296 -0.4536 -0.1803  0.9115
  387MOL0     H53346   3.518   8.368   5.364  0.8763 -0.8972 -1.4071
  387MOL0     H53347   3.689   8.528   5.458 -1.0548  1.0950 -0.5583
  387MOL0     H53348   3.714   8.590   5.295 -1.4999  1.1609  1.5364
  387MOL0     H53349   3.810   8.318   5.401 -0.8197  0.1044  1.2617
  387MOL0     H53350   3.816   8.367   5.231  0.7442 -1.1572  0.2779
  387MOL0     H53351   4.032   8.396   5.352 -2.4796 -2.4292 -0.7152
  387MOL0     H53352   3.965   8.504   5.470  0.1189 -0.1076 -0.6819
  387MOL0     H53353   3.932   8.603   5.181  0.9646  0.4940 -0.4832
  387MOL0     H53354   3.937   8.686   5.335  0.7191 -0.7501  1.5286
  387MOL0     H53355   4.176   8.729   5.444 -0.9794 -3.0195  1.8394
  387MOL0     H53356   4.549   8.620   5.326  1.4314 -0.0401  0.3490
  387MOL0     H53357   4.471   8.582   5.474  0.0234 -2.1776 -1.7561
  387MOL0     H53358   4.471   8.853   5.340 -0.7413 -3.0053 -1.1090
  387MOL0     H53359   4.405   8.827   5.509  0.7165 -1.3902  1.1503
  387MOL0     H53360   4.686   8.835   5.385 -0.1272  0.4103  0.4242
  387MOL0     H53361   4.624   8.946   5.482  1.2412 -0.1012  0.3485
  387MOL0     H53362   4.743   8.676   5.549 -1.1659  0.5661 -3.2177
  387MOL0     H53363   4.748   8.829   5.642 -1.9014  0.9472  1.9685
  387MOL0     H53364   4.694   8.529   5.803  1.5844 -0.1202  0.5777
  387MOL0     H53365   4.809   8.438   5.971 -1.5410  0.7044 -1.2694
  387MOL0     H53366   4.731   8.460   6.131 -1.1695  1.9701  0.0917
  387MOL0     H53367   4.882   8.553   6.078  0.8895  0.9120 -4.3759
  387MOL0     H53368   4.396   8.616   6.437  0.6350  1.7280 -0.5027
  387MOL0     H53369   4.406   8.545   6.684 -0.8563 -1.0592 -1.4621
  387MOL0     H53370   4.812   8.564   6.849  0.0932 -1.3235  1.1873
  387MOL0     H53371   4.716   8.669   6.947  1.2976  0.8244 -2.5436
  387MOL0     H53372   4.693   8.361   6.962 -0.6922 -1.0862  1.0798
  387MOL0     H53373   4.806   8.453   7.061 -0.3544  0.1351 -0.6371
  387MOL0     H53374   4.499   8.485   7.046 -0.5557  0.2024  0.0500
  387MOL0     H53375   4.607   8.567   7.162  2.3973 -0.8328 -0.3902
  387MOL0     H53376   4.667   8.354   7.270 -0.0138 -3.9691  0.4005
  387MOL0     H53377   4.605   8.264   7.130  0.8522  0.4440  0.2751
  387MOL0     H53378   4.451   8.266   7.337 -1.3073 -0.1989 -0.7171
  387MOL0     H53379   4.407   8.438   7.287  0.9818 -0.3075  0.2683
  387MOL0     H53380   4.392   8.205   7.097 -0.8576 -1.5615  1.6180
  387MOL0     H53381   4.318   8.366   7.078 -1.0582 -0.3004 -0.3787
  387MOL0     H53382   4.181   8.333   7.272 -1.0289 -1.1983  0.7435
  387MOL0     H53383   4.247   8.170   7.312  0.5479 -1.0563 -0.3243
  387MOL0     H53384   4.154   8.094   7.107  3.9331  0.7188  1.4834
  387MOL0     H53385   4.074   8.248   7.080  0.5516  0.4320  1.9451
  387MOL0     H53386   4.769   8.766   6.724 -1.0525  2.7378 -0.1157
  387MOL0     H53387   4.755   8.839   6.496  0.2152 -0.2245  0.0667
  387MOL0     H53388   4.570   8.936   6.075 -2.6831  1.4532 -3.0092
  387MOL0     H53389   4.514   8.911   5.826  1.9925 -0.5115 -2.7715
  387MOL0     H53390   3.020   8.551   5.242 -3.7784  0.4741 -0.1111
  387MOL0     H53391   2.806   8.575   5.152  1.9257  2.2075  2.8532
  387MOL0     H53392   2.505   8.677   4.937 -0.7986  0.1078  0.0183
  387MOL0     H53393   2.271   8.730   4.896 -0.8316  2.0669  0.2764
  387MOL0     H53394   2.165   8.891   4.470  3.4295  0.5139  1.8262
  387MOL0     H53395   2.139   8.717   4.484 -1.2070  0.9489 -1.5023
  387MOL0     H53396   1.928   8.802   4.412 -0.1976 -0.3215 -0.4431
  387MOL0     H53397   1.919   8.911   4.553  1.3972  0.1366  1.1392
  387MOL0     H53398   1.932   8.620   4.523 -3.0930  0.6137 -1.1630
  387MOL0     H53399   1.945   8.686   4.691  0.4847 -0.7149  0.4513
  387MOL0     H53400   1.712   8.711   4.487  0.9621 -1.6189 -1.0252
  387MOL0     H53401   1.715   8.791   4.648  0.6720 -1.4903  2.9408
  387MOL0     H53402   1.589   8.379   4.687  0.7872  0.1670  1.0098
  387MOL0     H53403   2.375   8.837   4.488  1.8567 -0.6588 -0.3547
  387MOL0     H53404   2.596   8.848   4.418  1.6361  0.5306 -0.5366
  387MOL0     H53405   2.708   8.906   4.548  1.4607 -0.4409 -2.3449
  387MOL0     H53406   2.702   8.737   4.497  2.7168  1.6346 -1.2702
  388MOL0     O53407  10.580   7.297   2.488 -0.0162 -0.9840  0.1337
  388MOL0     C53408  10.540   7.384   2.416 -0.4168 -0.9031  0.3140
  388MOL0     O53409  10.602   7.437   2.303 -0.1728 -0.4450 -0.8656
  388MOL0     C53410  10.736   7.409   2.295 -0.1643  0.2320 -0.1442
  388MOL0     C53411  10.769   7.277   2.247 -0.0557  0.3074 -0.3224
  388MOL0     C53412  10.903   7.235   2.243 -0.0027  0.5740 -1.0694
  388MOL0     C53413  11.007   7.318   2.302  0.8978 -0.6621  0.1009
  388MOL0     O53414  11.129   7.265   2.281  1.1824  0.0687 -0.4153
  388MOL0     C53415  11.238   7.305   2.380 -0.0311  0.0863 -0.1042
  388MOL0     C53416  11.249   7.213   2.501 -0.3422  0.4187  0.5705
  388MOL0     C53417  11.298   7.271   2.635  0.2198 -0.3070  0.3260
  388MOL0     C53418  11.402   7.183   2.701  0.6620 -0.6241 -0.7639
  388MOL0     C53419  11.507   7.279   2.776  0.6919  0.6032 -0.5324
  388MOL0     C53420  11.606   7.177   2.839  0.0245  0.3044  0.7020
  388MOL0     C53421  11.702   7.241   2.938  0.2735  0.1167 -0.2149
  388MOL0     C53422  11.787   7.352   2.884 -0.6985  1.1010 -0.4919
  388MOL0     N53423  11.887   7.299   2.782  0.1697 -0.4908 -0.1036
  388MOL0     C53424  11.873   7.292   2.643 -0.1069  0.3014 -0.9360
  388MOL0     C53425  11.997   7.258   2.596  0.4296 -0.0030  0.6143
  388MOL0     C53426  12.027   7.215   2.454  0.3093  0.1575 -0.1173
  388MOL0     C53427  12.166   7.254   2.425 -0.1056  0.8411  0.4665
  388MOL0     C53428  12.211   7.203   2.288  0.4504  0.0567 -0.3545
  388MOL0     C53429  12.358   7.227   2.272 -0.2960  0.0935  0.6506
  388MOL0     O53430  12.435   7.171   2.384 -0.0204 -0.2748 -0.2457
  388MOL0     C53431  12.575   7.198   2.389  0.1077 -0.6404  1.3328
  388MOL0     C53432  12.639   7.289   2.298  0.1968  0.9996 -0.4341
  388MOL0     C53433  12.779   7.275   2.287 -0.0913 -1.0592 -0.8281
  388MOL0     C53434  12.842   7.363   2.182  0.3768 -0.1126 -0.2847
  388MOL0     C53435  12.862   7.194   2.367 -0.0643  0.0584 -0.5956
  388MOL0     C53436  13.001   7.186   2.377  0.4189 -0.2099  1.0842
  388MOL0     O53437  13.077   7.181   2.492 -0.6121 -0.4434 -0.0152
  388MOL0     C53438  13.210   7.165   2.489 -0.1048  0.2711 -0.2408
  388MOL0     C53439  13.306   7.260   2.491 -0.0815 -0.3440 -0.5671
  388MOL0     C53440  13.445   7.223   2.502  1.0422 -0.3088 -0.1043
  388MOL0     C53441  13.479   7.093   2.522 -0.4925  0.4154 -0.1251
  388MOL0     O53442  13.613   7.060   2.520 -0.2073 -0.0282  0.3901
  388MOL0     C53443  13.673   7.104   2.642  0.3643  0.5947  0.2823
  388MOL0     C53444  13.826   7.090   2.623  0.7753  0.1348  0.7508
  388MOL0     C53445  13.880   7.181   2.514  0.0342  0.1554  0.1266
  388MOL0     C53446  14.014   7.138   2.458  1.0469 -0.0850 -0.4774
  388MOL0     C53447  14.124   7.161   2.558  0.0856 -0.9583  0.2706
  388MOL0     C53448  14.256   7.134   2.480  0.5169  0.7134 -0.6827
  388MOL0     C53449  14.382   7.139   2.577  0.0182 -0.2923 -0.0195
  388MOL0     C53450  14.508   7.099   2.499 -0.0405  0.4724  0.7162
  388MOL0    Cl53451  14.618   7.231   2.468 -0.2004  0.2835  0.3250
  388MOL0     C53452  13.373   6.997   2.524 -1.1145  0.3900  0.0073
  388MOL0     C53453  13.242   7.029   2.506  0.2187 -0.0001  0.4969
  388MOL0     O53454  13.055   7.178   2.269 -0.5471  0.4189  0.2898
  388MOL0     C53455  12.794   7.110   2.460  0.6148 -0.1589 -0.3116
  388MOL0     C53456  12.654   7.115   2.472  0.2290  0.3057  0.5322
  388MOL0     N53457  12.083   7.241   2.711 -0.4210  0.1726 -0.6212
  388MOL0     N53458  12.012   7.270   2.812  0.1544 -0.5058  0.1669
  388MOL0     C53459  10.975   7.449   2.343  0.1991  0.5362 -0.0735
  388MOL0     C53460  10.838   7.489   2.348  0.2907 -1.0706  0.1512
  388MOL0     C53461  10.406   7.443   2.446 -0.2610  0.1666  0.0185
  388MOL0     C53462  10.314   7.452   2.337 -0.6884  0.0857 -0.3554
  388MOL0     C53463  10.196   7.521   2.358 -0.0091  0.6759 -0.3785
  388MOL0     C53464  10.160   7.607   2.460  0.5568  0.6298  0.1815
  388MOL0     O53465  10.034   7.660   2.487  0.3413 -0.1151  0.1841
  388MOL0     C53466   9.932   7.634   2.390  0.2626 -0.0187  0.1547
  388MOL0     C53467   9.815   7.721   2.444 -0.8248 -0.2069  0.3748
  388MOL0     C53468   9.703   7.705   2.340 -0.2943  0.4067  0.7230
  388MOL0     C53469   9.572   7.789   2.353 -0.3604 -0.5728  0.2057
  388MOL0     C53470   9.492   7.767   2.233 -0.9854  0.2269  0.0894
  388MOL0     C53471   9.427   7.753   2.132 -0.1059 -0.3112 -0.0675
  388MOL0     C53472  10.255   7.598   2.568 -0.0157 -0.6991  0.4213
  388MOL0     C53473  10.375   7.526   2.560  0.2074  0.5973  0.0107
  388MOL0     C53474  10.469   7.530   2.678  1.1418  0.2117 -0.0485
  388MOL0     H53475  10.691   7.209   2.216  0.4515 -0.9242  0.9686
  388MOL0     H53476  10.920   7.133   2.210  2.9361 -1.0865  4.3096
  388MOL0     H53477  11.221   7.407   2.414 -0.4076 -0.2065  0.6106
  388MOL0     H53478  11.336   7.314   2.333  0.6586  0.3374  1.3499
  388MOL0     H53479  11.150   7.172   2.522 -0.0562  0.8351  2.9912
  388MOL0     H53480  11.319   7.138   2.463 -1.6507 -0.4042 -0.3051
  388MOL0     H53481  11.336   7.372   2.622 -0.7604  0.1594  0.9362
  388MOL0     H53482  11.217   7.286   2.707  0.4938  1.7502  0.2751
  388MOL0     H53483  11.360   7.111   2.772  0.7389  0.1928  0.1206
  388MOL0     H53484  11.459   7.128   2.625  4.7419  2.2811 -0.1470
  388MOL0     H53485  11.457   7.345   2.848 -0.8587 -1.8583  0.7832
  388MOL0     H53486  11.561   7.348   2.711 -0.2303  0.5647 -1.3741
  388MOL0     H53487  11.550   7.107   2.901  0.5831 -0.1564  0.6964
  388MOL0     H53488  11.675   7.125   2.773  0.9081  0.4937  1.4501
  388MOL0     H53489  11.765   7.161   2.978 -0.2674 -0.2617 -0.1083
  388MOL0     H53490  11.639   7.282   3.018 -1.3967 -1.3010 -0.7401
  388MOL0     H53491  11.734   7.433   2.833 -1.8407  1.7270  1.5400
  388MOL0     H53492  11.840   7.400   2.967 -1.5164 -1.9194  1.9791
  388MOL0     H53493  11.786   7.312   2.581  0.3601  0.8336 -1.4188
  388MOL0     H53494  11.963   7.243   2.369  1.2631  1.0213 -0.5782
  388MOL0     H53495  12.026   7.106   2.466 -2.0395 -0.1114 -1.9212
  388MOL0     H53496  12.169   7.364   2.426  0.0273  0.8587  2.7645
  388MOL0     H53497  12.222   7.204   2.504 -3.1860 -3.1950  0.4183
  388MOL0     H53498  12.207   7.093   2.283 -0.6965  0.0960 -0.4492
  388MOL0     H53499  12.144   7.245   2.213 -1.4518 -1.5392  0.3576
  388MOL0     H53500  12.394   7.187   2.176 -1.6028  1.7323 -0.5919
  388MOL0     H53501  12.378   7.334   2.272  1.1874 -0.1618  1.6949
  388MOL0     H53502  12.592   7.357   2.228  2.5959  1.6104 -1.5844
  388MOL0     H53503  12.764   7.409   2.120 -2.1409 -2.4378  0.9708
  388MOL0     H53504  12.909   7.307   2.116 -0.7770 -0.7583 -0.9474
  388MOL0     H53505  12.897   7.440   2.237  0.9155 -0.2468 -0.6291
  388MOL0     H53506  13.268   7.361   2.488  0.5753 -0.0779 -0.3025
  388MOL0     H53507  13.521   7.300   2.506  2.4640 -1.6664 -0.0915
  388MOL0     H53508  13.654   7.210   2.658  0.4286  0.6251  0.1563
  388MOL0     H53509  13.634   7.055   2.732  1.7173  0.4637  0.8099
  388MOL0     H53510  13.866   7.124   2.719 -1.1071 -1.6171  2.2475
  388MOL0     H53511  13.857   6.986   2.609  0.1863 -0.0788  1.0163
  388MOL0     H53512  13.880   7.285   2.548 -2.3625  0.7176 -1.3830
  388MOL0     H53513  13.803   7.170   2.437 -1.0238  2.0577  0.8568
  388MOL0     H53514  14.022   7.205   2.372  0.7247  0.6315  0.0386
  388MOL0     H53515  14.009   7.036   2.421 -3.0985  0.3313 -1.5968
  388MOL0     H53516  14.114   7.262   2.600 -0.7205 -1.0248  0.2574
  388MOL0     H53517  14.109   7.093   2.643 -1.0432 -1.6204 -0.4387
  388MOL0     H53518  14.291   7.212   2.412 -2.8113  3.4718  0.4905
  388MOL0     H53519  14.245   7.033   2.438 -3.4451  0.5553  0.3480
  388MOL0     H53520  14.377   7.065   2.657  0.0652 -0.2660  0.0077
  388MOL0     H53521  14.392   7.245   2.604  1.3288 -0.1243 -1.0351
  388MOL0     H53522  14.482   7.053   2.404  0.0169  1.6418  0.1186
  388MOL0     H53523  14.562   7.019   2.550 -3.3387 -1.1301  1.9299
  388MOL0     H53524  13.403   6.895   2.549 -0.9137 -0.2524 -2.5120
  388MOL0     H53525  13.162   6.956   2.517 -0.0786  0.6015  2.9271
  388MOL0     H53526  12.849   7.046   2.529 -0.8278  0.9855  2.0202
  388MOL0     H53527  12.602   7.049   2.542  0.4076 -1.2268 -0.7243
  388MOL0     H53528  11.047   7.504   2.404  0.1579  0.4238  0.0771
  388MOL0     H53529  10.799   7.581   2.390 -2.2141 -1.3010 -1.4180
  388MOL0     H53530  10.321   7.406   2.239  0.2097  1.0162 -0.7407
  388MOL0     H53531  10.117   7.502   2.286  0.1725  1.6847 -0.8598
  388MOL0     H53532   9.956   7.669   2.289 -0.6823 -0.5594 -0.2770
  388MOL0     H53533   9.912   7.527   2.376  2.0932 -0.0165 -3.9104
  388MOL0     H53534   9.846   7.825   2.457  0.0277 -0.5610  1.3243
  388MOL0     H53535   9.791   7.699   2.548 -0.5301 -0.3827  0.4077
  388MOL0     H53536   9.746   7.728   2.242 -1.7484  3.4230  0.7080
  388MOL0     H53537   9.677   7.599   2.348  0.3801  0.1143 -0.6055
  388MOL0     H53538   9.596   7.895   2.355 -1.7540 -0.2473  1.7270
  388MOL0     H53539   9.509   7.768   2.440  0.6529  1.2548  1.4418
  388MOL0     H53540   9.363   7.745   2.047  1.8975  0.2639 -1.6943
  388MOL0     H53541  10.223   7.651   2.657  0.1521  2.8254 -1.4416
  388MOL0     H53542  10.565   7.488   2.647  0.3670 -0.5062 -1.6094
  388MOL0     H53543  10.494   7.630   2.716 -0.5060  1.3299 -1.7215
  388MOL0     H53544  10.427   7.467   2.757  0.9227 -2.9615 -2.4845
  389MOL0     O53545  10.366   1.615   2.413 -0.0330  0.2491 -0.1567
  389MOL0     C53546  10.331   1.713   2.485  1.3747 -0.1851 -0.5193
  389MOL0     O53547  10.406   1.794   2.566  0.2463  0.5683 -0.6113
  389MOL0     C53548  10.547   1.800   2.564  1.1848  0.3818 -0.3491
  389MOL0     C53549  10.607   1.844   2.690  0.3048 -0.2634  0.4849
  389MOL0     C53550  10.750   1.846   2.701  0.0993 -0.1021 -0.5017
  389MOL0     C53551  10.835   1.806   2.596 -0.3865  0.6573 -0.0682
  389MOL0     O53552  10.969   1.815   2.610 -0.6042 -0.3086  0.2746
  389MOL0     C53553  11.055   1.755   2.512  0.2547 -0.4460  0.3991
  389MOL0     C53554  11.205   1.757   2.565 -0.3115 -0.5879  1.5287
  389MOL0     C53555  11.219   1.778   2.715  0.0115 -0.0780 -0.0773
  389MOL0     C53556  11.365   1.800   2.747  0.2269 -0.3144 -0.4531
  389MOL0     C53557  11.396   1.826   2.903  0.2129  0.3586 -0.8046
  389MOL0     C53558  11.544   1.837   2.931  0.0905 -0.9280 -0.2748
  389MOL0     C53559  11.588   1.907   3.062  0.3861  0.1747  0.0168
  389MOL0     C53560  11.737   1.929   3.064  0.5504 -0.9754 -0.5312
  389MOL0     N53561  11.766   2.007   3.192 -0.0919 -0.2077  0.0146
  389MOL0     C53562  11.808   2.137   3.182 -0.4913 -0.8400 -0.2015
  389MOL0     C53563  11.862   2.161   3.305  1.1477  0.2375  0.0166
  389MOL0     C53564  11.925   2.291   3.348 -0.3675  0.9746 -0.3604
  389MOL0     C53565  12.072   2.273   3.364  0.3952 -0.4205 -0.4759
  389MOL0     C53566  12.129   2.414   3.409  0.6686  0.6546  0.0472
  389MOL0     C53567  12.275   2.422   3.408  0.5749 -0.0415  0.0777
  389MOL0     O53568  12.328   2.526   3.493  0.1865 -0.8997 -0.0300
  389MOL0     C53569  12.463   2.538   3.489 -0.1122  0.0141  0.0841
  389MOL0     C53570  12.528   2.519   3.611  0.2110 -0.5349  1.0131
  389MOL0     C53571  12.667   2.518   3.631 -0.6732  0.3958 -0.2183
  389MOL0     C53572  12.737   2.461   3.753  0.1577  0.6246 -0.1094
  389MOL0     C53573  12.750   2.555   3.514 -0.1666  0.2106  0.0803
  389MOL0     C53574  12.899   2.561   3.509 -0.8928  0.0103 -0.0433
  389MOL0     O53575  12.969   2.486   3.407  0.6873 -0.8428 -0.3671
  389MOL0     C53576  13.100   2.512   3.390 -0.4165 -0.6284 -0.5567
  389MOL0     C53577  13.198   2.422   3.444 -0.2915  0.3904  0.3909
  389MOL0     C53578  13.331   2.443   3.430 -0.5073  0.6486  0.0862
  389MOL0     C53579  13.387   2.558   3.378  0.2447 -1.0773  0.3344
  389MOL0     O53580  13.529   2.577   3.378 -0.3393 -0.3821  0.1199
  389MOL0     C53581  13.597   2.679   3.307  0.0927 -0.0066 -1.5364
  389MOL0     C53582  13.739   2.685   3.355 -0.0695  0.2557 -0.8654
  389MOL0     C53583  13.754   2.691   3.511  0.6232  0.5935 -0.1210
  389MOL0     C53584  13.884   2.636   3.566 -0.0848 -0.0850 -0.2743
  389MOL0     C53585  13.922   2.683   3.712 -0.6832  1.0081  0.3084
  389MOL0     C53586  13.957   2.833   3.721  0.1619  0.7619 -1.1811
  389MOL0     C53587  14.092   2.867   3.657  0.2935  0.2947  0.2865
  389MOL0     C53588  14.105   3.014   3.631  0.0049  0.4273  0.1702
  389MOL0    Cl53589  14.005   3.046   3.481 -0.2200  0.4765  0.2475
  389MOL0     C53590  13.297   2.650   3.332  0.1232 -0.4431  0.7923
  389MOL0     C53591  13.160   2.631   3.334 -0.2767  0.1709 -0.2550
  389MOL0     O53592  12.951   2.636   3.588  1.1839 -0.6757 -0.2618
  389MOL0     C53593  12.680   2.592   3.395  0.5228 -0.3850  0.1640
  389MOL0     C53594  12.542   2.573   3.378 -0.2230 -0.9748 -0.1763
  389MOL0     N53595  11.847   2.040   3.383 -0.5955  0.5561 -0.5771
  389MOL0     N53596  11.788   1.945   3.312 -0.5415  0.1157 -0.1407
  389MOL0     C53597  10.776   1.764   2.480  0.0947  0.1888  0.3939
  389MOL0     C53598  10.632   1.755   2.463 -0.4977  0.6497 -0.3546
  389MOL0     C53599  10.185   1.722   2.497  0.7078 -0.0264 -0.3669
  389MOL0     C53600  10.138   1.816   2.599 -0.6013  0.3094  0.8451
  389MOL0     C53601  10.006   1.843   2.619 -0.2500 -0.1863 -1.1289
  389MOL0     C53602   9.914   1.778   2.546  0.2702  0.5677  0.3784
  389MOL0     O53603   9.776   1.798   2.560 -0.2018  0.1953  0.8030
  389MOL0     C53604   9.737   1.934   2.606 -0.4398 -0.5440 -0.1447
  389MOL0     C53605   9.591   1.973   2.585  0.2093 -0.2057  0.5706
  389MOL0     C53606   9.538   1.959   2.441 -0.0236 -0.2328 -1.1357
  389MOL0     C53607   9.391   1.967   2.443  0.6339  0.7065  0.2253
  389MOL0     C53608   9.323   1.922   2.322 -0.8978 -0.3872  0.3662
  389MOL0     C53609   9.285   1.889   2.211 -0.1439 -0.9701 -0.2440
  389MOL0     C53610   9.956   1.684   2.452  0.9589  0.3181  0.6666
  389MOL0     C53611  10.087   1.657   2.416 -0.0833  0.7804 -0.2204
  389MOL0     C53612  10.104   1.548   2.317  0.4934 -0.2814  1.5706
  389MOL0     H53613  10.537   1.877   2.767  1.3044  1.4449  0.6929
  389MOL0     H53614  10.787   1.876   2.798 -0.4615  0.7492 -0.5411
  389MOL0     H53615  11.054   1.805   2.415 -4.4431 -1.2900 -0.2017
  389MOL0     H53616  11.026   1.653   2.486  1.7576 -1.1349  1.3124
  389MOL0     H53617  11.253   1.664   2.532 -0.4311 -0.9394  2.3470
  389MOL0     H53618  11.257   1.832   2.504 -1.7162 -0.6567  0.1793
  389MOL0     H53619  11.155   1.860   2.749 -0.8144  0.6949 -3.2090
  389MOL0     H53620  11.179   1.693   2.772  0.2242 -0.8383 -1.0344
  389MOL0     H53621  11.409   1.702   2.723 -0.5924 -1.1185  1.1061
  389MOL0     H53622  11.403   1.884   2.689 -0.1869  0.0032 -0.2673
  389MOL0     H53623  11.363   1.741   2.964 -1.3566  1.8246  0.4738
  389MOL0     H53624  11.353   1.918   2.942  3.4466  1.1167  1.3421
  389MOL0     H53625  11.594   1.740   2.928  1.6206 -0.2502  1.4601
  389MOL0     H53626  11.583   1.907   2.856 -0.4665  1.7927  1.7801
  389MOL0     H53627  11.554   1.841   3.143 -2.8153  1.2672 -0.3169
  389MOL0     H53628  11.538   2.004   3.069 -2.0535 -1.0296  0.4178
  389MOL0     H53629  11.780   1.829   3.070  0.9278 -0.8103 -0.4360
  389MOL0     H53630  11.777   1.985   2.978 -0.1151 -0.7675 -0.7055
  389MOL0     H53631  11.812   2.201   3.095  1.4291  1.3259  1.3568
  389MOL0     H53632  11.869   2.322   3.437 -0.5873  1.8056 -0.7727
  389MOL0     H53633  11.914   2.362   3.266 -2.0640 -0.3607 -1.3334
  389MOL0     H53634  12.090   2.201   3.443  0.0616  0.0150  0.0005
  389MOL0     H53635  12.120   2.244   3.270 -1.9307 -2.9372 -0.9781
  389MOL0     H53636  12.094   2.496   3.345 -0.4050 -0.4248 -0.7917
  389MOL0     H53637  12.083   2.430   3.506 -0.4782  0.2190 -0.4115
  389MOL0     H53638  12.320   2.333   3.452  1.5359  0.0595 -0.6700
  389MOL0     H53639  12.306   2.447   3.306  1.1785  1.7682  0.6596
  389MOL0     H53640  12.457   2.522   3.693  1.2841  3.5753  2.0021
  389MOL0     H53641  12.699   2.498   3.848  1.4385  1.7549  0.0016
  389MOL0     H53642  12.844   2.483   3.756 -0.0974  2.3436 -1.4954
  389MOL0     H53643  12.720   2.355   3.735  0.8832  0.2853  1.1227
  389MOL0     H53644  13.167   2.322   3.474 -0.6825 -0.7819 -3.3793
  389MOL0     H53645  13.394   2.375   3.485 -1.6052 -0.5450 -0.0927
  389MOL0     H53646  13.591   2.649   3.202 -1.6952  0.3115 -1.5628
  389MOL0     H53647  13.553   2.778   3.322  2.0018  0.7094 -0.4930
  389MOL0     H53648  13.788   2.600   3.308 -2.3945 -1.7293  0.0755
  389MOL0     H53649  13.783   2.774   3.310  0.6362 -0.2079 -1.1072
  389MOL0     H53650  13.680   2.636   3.571  0.9573  0.5347  0.2467
  389MOL0     H53651  13.751   2.797   3.539  2.0653  1.0048 -1.4182
  389MOL0     H53652  13.963   2.669   3.498  0.4947 -0.7573  0.0519
  389MOL0     H53653  13.897   2.528   3.565 -0.1285 -0.0959  0.0633
  389MOL0     H53654  13.842   2.656   3.783 -1.6598 -0.1775 -1.1731
  389MOL0     H53655  14.013   2.633   3.743 -0.8174 -0.9923 -2.2305
  389MOL0     H53656  13.967   2.864   3.826 -0.3590 -0.3380 -0.7901
  389MOL0     H53657  13.877   2.896   3.680  0.3066  1.1356 -0.8908
  389MOL0     H53658  14.107   2.821   3.558  0.7763 -0.6313  0.7761
  389MOL0     H53659  14.177   2.841   3.721  0.0535 -1.7361 -0.1331
  389MOL0     H53660  14.208   3.049   3.619  0.2880  0.5538  2.5471
  389MOL0     H53661  14.057   3.074   3.709 -3.4026 -1.9694  0.1699
  389MOL0     H53662  13.334   2.741   3.286 -2.2807  0.6054  0.7569
  389MOL0     H53663  13.092   2.701   3.287  0.0859  0.8640  0.2291
  389MOL0     H53664  12.740   2.618   3.309 -0.4720 -0.1238 -0.4657
  389MOL0     H53665  12.490   2.601   3.287 -1.5983  1.5571  1.2812
  389MOL0     H53666  10.834   1.731   2.394 -1.8572 -1.4277 -0.4133
  389MOL0     H53667  10.585   1.720   2.372 -1.1484  3.5128 -1.2291
  389MOL0     H53668  10.207   1.876   2.657 -0.9478 -1.9588  3.8388
  389MOL0     H53669   9.985   1.914   2.699  0.9885 -0.4736 -0.5104
  389MOL0     H53670   9.763   1.948   2.711  0.4519  1.3291 -0.5608
  389MOL0     H53671   9.798   2.002   2.545  1.5210 -0.9016  1.2977
  389MOL0     H53672   9.586   2.078   2.614 -1.1359  0.5943 -2.1980
  389MOL0     H53673   9.527   1.923   2.658  2.6642 -3.3577  0.7787
  389MOL0     H53674   9.585   2.031   2.373  0.0771  0.0721 -0.7480
  389MOL0     H53675   9.565   1.862   2.399  0.2897 -0.4776 -0.3996
  389MOL0     H53676   9.357   2.068   2.470 -0.5870  0.6463 -0.9774
  389MOL0     H53677   9.356   1.912   2.530 -2.6481  2.6077  0.2824
  389MOL0     H53678   9.244   1.853   2.119  0.2458  1.4353 -1.4589
  389MOL0     H53679   9.875   1.623   2.413  2.1630 -0.9235  0.0174
  389MOL0     H53680  10.087   1.455   2.372 -3.6458 -0.3628  0.4722
  389MOL0     H53681  10.017   1.554   2.250  1.9016 -1.0493 -0.4388
  389MOL0     H53682  10.190   1.544   2.250 -0.0951 -0.1865  0.7951
  390MOL0     O53683   7.863   6.720   9.149 -0.0365 -0.0605 -0.0705
  390MOL0     C53684   7.840   6.619   9.081  0.3528  0.3862 -0.3213
  390MOL0     O53685   7.923   6.556   9.002 -0.1702  0.1356 -0.0490
  390MOL0     C53686   8.054   6.590   9.022 -0.0332  0.2278  0.2366
  390MOL0     C53687   8.143   6.515   9.098 -0.3275  0.7242  0.0472
  390MOL0     C53688   8.280   6.536   9.116 -0.2009 -0.8129  0.7201
  390MOL0     C53689   8.332   6.645   9.046  0.0930 -0.3633  0.8007
  390MOL0     O53690   8.468   6.658   9.055  0.5754  0.2812  0.3078
  390MOL0     C53691   8.535   6.704   8.938 -0.1463  0.0039 -0.0528
  390MOL0     C53692   8.617   6.824   8.972 -0.2915 -0.0827  1.2807
  390MOL0     C53693   8.742   6.775   9.043  0.5970 -0.3361  0.2644
  390MOL0     C53694   8.831   6.898   9.082  0.0082  0.2335  0.1791
  390MOL0     C53695   8.766   6.966   9.194 -0.1159 -0.7934  0.4710
  390MOL0     C53696   8.856   7.017   9.306 -0.7171 -0.4186 -0.3137
  390MOL0     C53697   8.912   6.895   9.385 -1.3212 -0.3422 -1.7241
  390MOL0     C53698   9.042   6.922   9.462 -0.0064  0.6976 -0.4445
  390MOL0     N53699   9.170   6.870   9.386  0.4768 -0.1585 -0.5605
  390MOL0     C53700   9.228   6.930   9.275 -0.0401 -0.7221 -0.0511
  390MOL0     C53701   9.313   6.828   9.226 -0.0871  0.5920 -0.5399
  390MOL0     C53702   9.397   6.847   9.103 -0.0124 -0.1623  0.5335
  390MOL0     C53703   9.529   6.767   9.086  0.1308 -0.0691 -0.6475
  390MOL0     C53704   9.594   6.800   8.950 -0.1437 -0.2099 -0.0963
  390MOL0     C53705   9.728   6.728   8.939  0.0997  0.2839  0.2752
  390MOL0     O53706   9.818   6.782   9.034  0.0363 -0.1951  0.7606
  390MOL0     C53707   9.950   6.743   9.041 -0.3998 -0.4058  1.0347
  390MOL0     C53708  10.009   6.672   8.941 -0.9363 -0.3975  1.0678
  390MOL0     C53709  10.147   6.634   8.958  0.1420  0.2602  0.6960
  390MOL0     C53710  10.206   6.565   8.834  0.4477  0.2330 -0.6787
  390MOL0     C53711  10.217   6.672   9.079 -0.2207 -0.5090 -0.6614
  390MOL0     C53712  10.353   6.620   9.114 -1.2903 -0.2906 -0.2473
  390MOL0     O53713  10.421   6.541   9.013 -0.4491 -0.3664 -0.5512
  390MOL0     C53714  10.556   6.502   9.027 -0.0144  0.3910  0.8096
  390MOL0     C53715  10.605   6.462   8.899 -0.0687  0.3136  0.3773
  390MOL0     C53716  10.729   6.414   8.890 -0.7809  0.0863  0.2771
  390MOL0     C53717  10.811   6.400   9.002  0.0445  0.1241  0.2313
  390MOL0     O53718  10.940   6.348   8.999  0.5063 -0.2417  0.2530
  390MOL0     C53719  11.009   6.347   8.876  0.3475  0.2602  0.5743
  390MOL0     C53720  11.158   6.340   8.904 -0.2037 -0.3580  0.2795
  390MOL0     C53721  11.205   6.449   8.991 -0.2577  0.6508  0.1623
  390MOL0     C53722  11.355   6.467   8.996 -0.8798  0.1867  0.1047
  390MOL0     C53723  11.432   6.348   9.053  0.0999  0.3476  0.1872
  390MOL0     C53724  11.562   6.362   9.133 -0.5810 -0.0828 -0.4241
  390MOL0     C53725  11.537   6.425   9.267  0.0198  0.3716  0.2142
  390MOL0     C53726  11.647   6.395   9.371 -0.3194 -0.1720  0.1353
  390MOL0    Cl53727  11.783   6.501   9.348 -0.0752 -0.3584  0.1515
  390MOL0     C53728  10.773   6.450   9.127  0.0268  0.5422  0.5485
  390MOL0     C53729  10.637   6.485   9.149  0.0096 -0.1191  0.1182
  390MOL0     O53730  10.400   6.653   9.225  0.2404  0.4258 -0.2827
  390MOL0     C53731  10.146   6.746   9.175 -0.7201 -0.3044  0.0899
  390MOL0     C53732  10.014   6.786   9.151 -0.5285  0.2104 -0.2334
  390MOL0     N53733   9.316   6.722   9.313  0.1115 -0.6697 -1.2540
  390MOL0     N53734   9.225   6.741   9.402 -0.4870 -0.0846 -0.2507
  390MOL0     C53735   8.250   6.722   8.969  0.6703  0.5644 -1.1199
  390MOL0     C53736   8.112   6.702   8.967 -0.4879  0.3472 -0.8649
  390MOL0     C53737   7.699   6.561   9.087 -1.0349  0.1548  0.8530
  390MOL0     C53738   7.600   6.633   9.159  0.2113 -0.4021 -0.2049
  390MOL0     C53739   7.461   6.606   9.158 -0.0566  0.5338 -0.1362
  390MOL0     C53740   7.415   6.495   9.083  0.6491  0.6167  0.5644
  390MOL0     O53741   7.281   6.478   9.084  0.3727 -0.0166 -0.4128
  390MOL0     C53742   7.232   6.420   8.967 -0.0404  0.2651  0.0375
  390MOL0     C53743   7.078   6.421   8.986 -0.0120 -0.0507  0.2038
  390MOL0     C53744   7.002   6.357   8.870 -0.0314 -0.2192 -0.5201
  390MOL0     C53745   6.849   6.363   8.915 -0.1917 -0.4347  0.1275
  390MOL0     C53746   6.781   6.321   8.795  0.4823 -0.5043  0.4386
  390MOL0     C53747   6.711   6.289   8.697 -0.6026 -0.3221 -0.0989
  390MOL0     C53748   7.508   6.419   9.008 -0.0166 -0.2430 -0.2225
  390MOL0     C53749   7.650   6.451   9.007  0.6986  0.3855 -0.4637
  390MOL0     C53750   7.748   6.347   8.953  0.2038 -0.1495 -0.3151
  390MOL0     H53751   8.107   6.428   9.154  3.2517 -0.4948  0.7236
  390MOL0     H53752   8.355   6.477   9.168  2.5364  0.4632 -1.5321
  390MOL0     H53753   8.467   6.742   8.861 -0.0572  2.9403  1.1855
  390MOL0     H53754   8.602   6.627   8.898  2.0735  0.6422  2.2005
  390MOL0     H53755   8.626   6.876   8.876 -2.5182 -2.0611 -0.1195
  390MOL0     H53756   8.553   6.884   9.038 -0.2927  0.6252  0.6516
  390MOL0     H53757   8.721   6.724   9.137  0.9139  0.3925  0.7435
  390MOL0     H53758   8.798   6.704   8.981  0.3298  1.7591 -2.5672
  390MOL0     H53759   8.934   6.868   9.102  0.3101  2.4923  2.5856
  390MOL0     H53760   8.826   6.975   9.004 -4.1732 -0.3963 -0.4336
  390MOL0     H53761   8.686   6.907   9.239  0.5966 -0.4477  2.2764
  390MOL0     H53762   8.717   7.055   9.154  0.9478 -0.8580 -1.0513
  390MOL0     H53763   8.935   7.088   9.279 -1.2973 -0.0802 -1.1479
  390MOL0     H53764   8.800   7.078   9.377  4.6556  1.8857  2.5378
  390MOL0     H53765   8.945   6.810   9.324 -1.0287 -1.3112 -0.2554
  390MOL0     H53766   8.839   6.859   9.458 -2.8149 -0.2984 -3.1505
  390MOL0     H53767   9.044   7.031   9.469 -0.4895  0.6686  0.2906
  390MOL0     H53768   9.028   6.866   9.555 -3.5262  2.8299  0.5139
  390MOL0     H53769   9.220   7.035   9.247  1.1934 -0.0481  1.9071
  390MOL0     H53770   9.432   6.949   9.086  0.1843 -0.1758  0.8376
  390MOL0     H53771   9.336   6.833   9.014  3.5393  1.5164 -2.4341
  390MOL0     H53772   9.600   6.814   9.155 -2.2114  0.9862  1.1798
  390MOL0     H53773   9.504   6.661   9.093  1.5385 -0.5257 -1.9014
  390MOL0     H53774   9.539   6.760   8.864 -0.5458  1.8382 -0.8368
  390MOL0     H53775   9.614   6.906   8.932 -0.3722 -0.3940 -1.6029
  390MOL0     H53776   9.721   6.622   8.963 -1.1431  0.2412 -0.2012
  390MOL0     H53777   9.770   6.748   8.840  1.6799  1.3789  1.1225
  390MOL0     H53778   9.967   6.646   8.845  1.3234  1.7749 -0.6277
  390MOL0     H53779  10.221   6.459   8.852  3.8166  0.2451 -2.6146
  390MOL0     H53780  10.300   6.611   8.801  1.0774 -1.0091 -0.6787
  390MOL0     H53781  10.137   6.576   8.749 -2.0721  3.1839  1.5045
  390MOL0     H53782  10.541   6.483   8.814  2.4808 -1.6757 -2.2708
  390MOL0     H53783  10.765   6.386   8.791 -0.2878 -0.0102  0.4807
  390MOL0     H53784  10.977   6.270   8.806 -1.3721  2.3562 -1.0954
  390MOL0     H53785  11.001   6.444   8.826 -2.9835  0.4157  1.1791
  390MOL0     H53786  11.184   6.244   8.950 -1.5969 -1.8864 -1.9105
  390MOL0     H53787  11.210   6.347   8.808 -0.7998  0.0460 -0.0156
  390MOL0     H53788  11.160   6.422   9.087 -4.1029  1.0949 -1.3354
  390MOL0     H53789  11.158   6.547   8.977 -0.9709  0.1628 -0.9343
  390MOL0     H53790  11.376   6.558   9.053 -0.3225  0.2516 -0.1916
  390MOL0     H53791  11.392   6.487   8.895 -1.3477 -0.5415 -0.2237
  390MOL0     H53792  11.362   6.279   9.102 -0.7801  0.8067 -0.3841
  390MOL0     H53793  11.462   6.280   8.973  0.4030 -0.3721  0.9018
  390MOL0     H53794  11.636   6.413   9.071  1.3666  0.4454  2.1519
  390MOL0     H53795  11.597   6.259   9.141 -1.4992 -0.5000 -1.6233
  390MOL0     H53796  11.446   6.379   9.307  1.3022 -2.4367  0.1109
  390MOL0     H53797  11.521   6.533   9.262  3.0316  0.8776 -0.3160
  390MOL0     H53798  11.680   6.291   9.363 -1.1164 -0.5144  1.0818
  390MOL0     H53799  11.621   6.416   9.475 -1.1489 -2.4961  0.4498
  390MOL0     H53800  10.850   6.456   9.203 -0.5216  0.9090  1.0812
  390MOL0     H53801  10.602   6.526   9.243 -1.1486  1.4994 -0.9554
  390MOL0     H53802  10.179   6.783   9.272 -2.0076  2.8680 -0.5313
  390MOL0     H53803   9.962   6.822   9.239 -1.4151 -0.5599 -0.4212
  390MOL0     H53804   8.284   6.805   8.909 -0.7838  0.6175 -1.9162
  390MOL0     H53805   8.055   6.768   8.901  0.3041 -0.7093 -2.6996
  390MOL0     H53806   7.632   6.711   9.228  0.6397  0.9235 -1.8504
  390MOL0     H53807   7.384   6.660   9.213 -1.8212 -2.0728  0.1914
  390MOL0     H53808   7.257   6.489   8.886 -0.1729  1.1991  0.7672
  390MOL0     H53809   7.272   6.322   8.938  3.4976  1.2118  1.2115
  390MOL0     H53810   7.046   6.526   8.990  1.0175  0.3136 -0.6287
  390MOL0     H53811   7.048   6.379   9.082 -0.3400  2.1776  1.1304
  390MOL0     H53812   7.016   6.411   8.776 -0.9809 -1.3339 -1.3236
  390MOL0     H53813   7.021   6.252   8.848 -2.2487 -1.1665  1.5752
  390MOL0     H53814   6.829   6.468   8.939  1.6403  0.4186 -1.8065
  390MOL0     H53815   6.837   6.295   9.000  0.3646 -0.3069  0.3116
  390MOL0     H53816   6.658   6.259   8.609  0.2896 -0.7174 -0.5074
  390MOL0     H53817   7.472   6.329   8.960  0.7470  0.7226 -2.7834
  390MOL0     H53818   7.698   6.265   8.901  0.3488 -0.1305 -0.4888
  390MOL0     H53819   7.818   6.382   8.876  0.8148 -3.2156 -1.2792
  390MOL0     H53820   7.811   6.306   9.032 -0.4685 -0.3925  0.0966
  391MOL0     O53821   9.000   3.351   1.805  0.3989 -0.0088  0.3670
  391MOL0     C53822   8.920   3.413   1.733 -0.0876  0.3073 -0.3472
  391MOL0     O53823   8.799   3.374   1.689  0.4851  0.1654 -0.1564
  391MOL0     C53824   8.747   3.252   1.748 -0.8314 -0.0484 -0.2733
  391MOL0     C53825   8.805   3.129   1.715 -0.3548 -0.7389 -0.4465
  391MOL0     C53826   8.734   3.020   1.755 -0.4463 -0.4146  0.0284
  391MOL0     C53827   8.629   3.026   1.841  0.7789  0.2542  0.0962
  391MOL0     O53828   8.574   2.913   1.903  0.5259  0.0085  0.6701
  391MOL0     C53829   8.501   2.828   1.813 -0.7307 -0.0798  0.2086
  391MOL0     C53830   8.374   2.896   1.753  0.0240 -0.6296  0.4584
  391MOL0     C53831   8.272   2.945   1.857  0.4844 -0.2910  0.0987
  391MOL0     C53832   8.135   2.952   1.792 -0.8050 -0.1039  0.2514
  391MOL0     C53833   8.018   2.983   1.883  0.1655  0.3146  0.2947
  391MOL0     C53834   7.873   2.966   1.821  0.1981  0.0964 -0.6291
  391MOL0     C53835   7.759   3.035   1.907 -0.3693 -0.7540 -0.0156
  391MOL0     C53836   7.626   3.000   1.833 -0.1823  0.1208 -1.0503
  391MOL0     N53837   7.507   3.031   1.916  0.6959 -0.5106  0.8680
  391MOL0     C53838   7.410   3.120   1.880  0.0645 -0.5028 -0.8478
  391MOL0     C53839   7.297   3.095   1.949 -0.0243  0.2787 -0.5124
  391MOL0     C53840   7.163   3.162   1.923 -0.1434 -0.9820 -0.1890
  391MOL0     C53841   7.134   3.267   2.030 -0.5840 -0.0059 -0.5064
  391MOL0     C53842   7.173   3.252   2.178 -0.1487 -1.1774 -0.1243
  391MOL0     C53843   7.318   3.272   2.209  0.0052  0.0291 -0.1887
  391MOL0     O53844   7.369   3.386   2.139 -0.1161  0.1497  0.0069
  391MOL0     C53845   7.506   3.412   2.159 -0.0142 -0.1919  0.6015
  391MOL0     C53846   7.549   3.550   2.160  0.3367  0.4678  0.3052
  391MOL0     C53847   7.688   3.580   2.175 -0.1205 -0.6475  0.5869
  391MOL0     C53848   7.735   3.727   2.161  0.0823  0.3158  0.2842
  391MOL0     C53849   7.780   3.474   2.188 -0.6988  0.4855  0.1796
  391MOL0     C53850   7.928   3.498   2.209 -0.6666  0.0082  0.4685
  391MOL0     O53851   8.016   3.396   2.165  0.8340 -0.1280 -0.0949
  391MOL0     C53852   8.150   3.416   2.151  0.7238  0.2959  0.1567
  391MOL0     C53853   8.196   3.519   2.077  0.2392  0.0622  0.6161
  391MOL0     C53854   8.330   3.547   2.064 -0.6459 -0.4048  0.1208
  391MOL0     C53855   8.419   3.454   2.105 -0.0099  0.1556 -0.4519
  391MOL0     O53856   8.553   3.465   2.082  0.2528 -0.5154 -0.6181
  391MOL0     C53857   8.618   3.589   2.028 -0.3309 -0.6468 -0.3866
  391MOL0     C53858   8.765   3.567   2.014 -0.1068  0.4117  0.5210
  391MOL0     C53859   8.846   3.630   2.128 -0.1832  0.1527 -0.6396
  391MOL0     C53860   8.982   3.551   2.127  0.2002 -0.2195  0.5242
  391MOL0     C53861   9.089   3.635   2.198  0.0068 -0.4372  0.5131
  391MOL0     C53862   9.229   3.568   2.192  0.1548 -0.7883  0.3167
  391MOL0     C53863   9.309   3.608   2.068  1.0229  0.0100  0.0883
  391MOL0     C53864   9.449   3.553   2.052  0.1222 -0.3918 -0.3178
  391MOL0    Cl53865   9.526   3.544   2.209 -0.2557  0.2376  0.2561
  391MOL0     C53866   8.368   3.341   2.182  0.5507 -0.1754 -0.2981
  391MOL0     C53867   8.235   3.314   2.194  0.2856  0.2137 -0.5211
  391MOL0     O53868   7.964   3.603   2.263 -1.2567  0.0717  0.1528
  391MOL0     C53869   7.736   3.346   2.188  0.1628  0.8085  0.1836
  391MOL0     C53870   7.601   3.312   2.168 -0.4229  0.5863  0.2587
  391MOL0     N53871   7.338   2.998   2.040  0.2903 -0.0366  0.3895
  391MOL0     N53872   7.459   2.958   2.019 -0.4041  0.8787  0.2741
  391MOL0     C53873   8.584   3.147   1.888  0.9829 -0.4856 -0.3033
  391MOL0     C53874   8.638   3.264   1.833  0.3168  0.4501  0.2627
  391MOL0     C53875   8.971   3.543   1.690  0.2564 -0.2897 -0.3531
  391MOL0     C53876   9.107   3.569   1.700  0.3077  0.0031 -0.4118
  391MOL0     C53877   9.160   3.691   1.661  0.1409 -0.3588  0.2607
  391MOL0     C53878   9.081   3.792   1.606  0.3023 -0.0075  0.1438
  391MOL0     O53879   9.124   3.900   1.546 -0.9461  0.5681 -0.4654
  391MOL0     C53880   9.268   3.937   1.545 -0.4847  0.6107 -0.3589
  391MOL0     C53881   9.296   4.062   1.458 -0.7957  0.6125 -0.1616
  391MOL0     C53882   9.279   4.189   1.533  0.8078  0.0244  0.8703
  391MOL0     C53883   9.341   4.315   1.450  0.2454  1.1162  0.8455
  391MOL0     C53884   9.485   4.303   1.446 -0.6127  0.7892 -0.8915
  391MOL0     C53885   9.606   4.311   1.438  0.0455 -0.2770  0.0379
  391MOL0     C53886   8.946   3.762   1.609 -0.2713 -0.6400 -0.3852
  391MOL0     C53887   8.882   3.651   1.654 -0.0714  0.4208 -0.0871
  391MOL0     C53888   8.725   3.655   1.643  0.5894  0.2415  0.3495
  391MOL0     H53889   8.894   3.117   1.655  1.2970 -0.1769  1.7720
  391MOL0     H53890   8.766   2.920   1.728 -1.7983 -1.5723  2.4324
  391MOL0     H53891   8.479   2.732   1.859  1.6913 -2.0736 -2.4286
  391MOL0     H53892   8.564   2.812   1.725 -0.8970  0.7375 -0.0671
  391MOL0     H53893   8.392   2.987   1.695  0.2655  0.5885  2.3614
  391MOL0     H53894   8.328   2.817   1.691  2.7964 -1.8056 -0.2570
  391MOL0     H53895   8.265   2.881   1.946 -0.2801  1.9946  1.7792
  391MOL0     H53896   8.304   3.039   1.902  1.2866 -1.7633  2.8984
  391MOL0     H53897   8.140   3.023   1.709  3.2494 -1.0554 -0.5691
  391MOL0     H53898   8.112   2.856   1.746  1.0285 -0.9104  0.9049
  391MOL0     H53899   8.027   3.089   1.910  0.4986 -0.2560  2.6467
  391MOL0     H53900   8.021   2.927   1.977  2.4381 -0.2986 -0.0796
  391MOL0     H53901   7.872   3.024   1.728 -1.2971  1.8465  0.4067
  391MOL0     H53902   7.857   2.863   1.790  1.4447 -0.2955 -0.0308
  391MOL0     H53903   7.774   3.143   1.906  2.7071 -1.0620  1.0553
  391MOL0     H53904   7.758   3.005   2.012 -0.5654  2.2846  0.9473
  391MOL0     H53905   7.611   3.048   1.736 -2.7505  0.0760 -0.7559
  391MOL0     H53906   7.628   2.891   1.824  2.7545 -0.0685  0.5339
  391MOL0     H53907   7.418   3.185   1.794 -2.3363  2.4776  0.9950
  391MOL0     H53908   7.086   3.085   1.934 -0.3420 -0.5505  2.1725
  391MOL0     H53909   7.158   3.203   1.822 -0.7753 -2.0864 -0.6220
  391MOL0     H53910   7.173   3.366   2.004 -2.7861  0.7457 -1.2304
  391MOL0     H53911   7.025   3.270   2.020 -0.7989 -4.1360 -1.1627
  391MOL0     H53912   7.121   3.339   2.218  2.2080  2.4442 -4.0708
  391MOL0     H53913   7.132   3.161   2.222 -1.5266 -0.2292  0.6307
  391MOL0     H53914   7.331   3.269   2.318  1.0812 -0.9223 -0.3209
  391MOL0     H53915   7.382   3.190   2.173  0.5764 -0.1404  1.1223
  391MOL0     H53916   7.481   3.632   2.140  1.5709  1.2840 -0.7407
  391MOL0     H53917   7.751   3.771   2.260  6.6094 -0.0693 -0.1282
  391MOL0     H53918   7.660   3.788   2.110  0.1875 -0.1618 -0.4555
  391MOL0     H53919   7.831   3.745   2.111 -0.0733 -1.1603 -0.6199
  391MOL0     H53920   8.125   3.587   2.031  1.9587  1.7085  0.2397
  391MOL0     H53921   8.352   3.629   1.996 -3.7262  0.8325  0.4274
  391MOL0     H53922   8.581   3.622   1.931 -1.7080  2.0474  0.9220
  391MOL0     H53923   8.594   3.672   2.096  1.0741 -0.4707 -0.0829
  391MOL0     H53924   8.787   3.460   2.013  0.9945  0.6219  0.7606
  391MOL0     H53925   8.807   3.592   1.916  0.1027 -4.5499 -0.9509
  391MOL0     H53926   8.787   3.634   2.220 -1.7023  2.3892 -1.6089
  391MOL0     H53927   8.863   3.736   2.108 -0.1554 -0.1671 -2.4767
  391MOL0     H53928   9.025   3.539   2.027 -2.3164  2.1426 -0.9837
  391MOL0     H53929   8.968   3.446   2.154  1.0265 -1.3935 -3.0359
  391MOL0     H53930   9.095   3.736   2.156  3.8150 -1.6179 -2.3848
  391MOL0     H53931   9.063   3.641   2.304 -0.4920  2.8732  0.3091
  391MOL0     H53932   9.221   3.459   2.195  0.7626 -0.8413  2.8498
  391MOL0     H53933   9.281   3.595   2.285  0.9415  0.0877 -0.3482
  391MOL0     H53934   9.316   3.717   2.074 -1.9351  0.2331  1.3446
  391MOL0     H53935   9.258   3.577   1.976  0.0532  0.9660  0.2880
  391MOL0     H53936   9.499   3.617   1.979  0.3004  2.1949  1.9106
  391MOL0     H53937   9.445   3.452   2.009  0.6951 -1.2383  1.5228
  391MOL0     H53938   8.435   3.262   2.213  2.1481  1.3716  0.4111
  391MOL0     H53939   8.197   3.220   2.233 -0.8654  1.2909  1.0567
  391MOL0     H53940   7.805   3.264   2.209 -0.5349  0.4386  1.1012
  391MOL0     H53941   7.581   3.207   2.187  3.9525 -0.0289  2.8668
  391MOL0     H53942   8.502   3.156   1.959  2.3531  0.7656  1.1719
  391MOL0     H53943   8.604   3.363   1.863  1.0354  0.6161  0.5494
  391MOL0     H53944   9.177   3.494   1.736 -0.5137 -0.2725  0.6714
  391MOL0     H53945   9.268   3.695   1.674  0.5716 -1.9232 -2.0838
  391MOL0     H53946   9.309   3.941   1.647 -0.2003 -2.7410 -0.2169
  391MOL0     H53947   9.316   3.851   1.498 -0.1405 -0.5701  2.0022
  391MOL0     H53948   9.230   4.059   1.371 -2.1098  1.3778  0.7819
  391MOL0     H53949   9.403   4.057   1.433 -0.3211  1.2359  1.6326
  391MOL0     H53950   9.171   4.204   1.542  0.8041 -0.4290  1.7319
  391MOL0     H53951   9.312   4.185   1.638 -0.5959  2.1558  1.4739
  391MOL0     H53952   9.307   4.412   1.487  2.4087  2.5305 -0.6864
  391MOL0     H53953   9.313   4.305   1.345  0.7101  0.0309  0.8059
  391MOL0     H53954   9.713   4.297   1.437 -0.2033 -2.6888  0.3039
  391MOL0     H53955   8.878   3.840   1.577 -0.4471 -0.6442 -0.0261
  391MOL0     H53956   8.693   3.586   1.565 -0.8165  0.7681  0.4340
  391MOL0     H53957   8.687   3.622   1.740  0.8556  2.5860  1.3288
  391MOL0     H53958   8.692   3.756   1.616  0.4260  0.1123  0.0594
  392MOL0     O53959   4.348   1.388   6.961  0.3281  0.3770  0.1740
  392MOL0     C53960   4.307   1.271   6.966 -0.0511 -0.1602 -0.3618
  392MOL0     O53961   4.391   1.163   6.957 -1.0032  0.4637  0.9420
  392MOL0     C53962   4.527   1.186   6.963 -0.5462 -0.1488 -0.3914
  392MOL0     C53963   4.610   1.131   6.864 -0.3008 -0.0127  0.1559
  392MOL0     C53964   4.755   1.144   6.875  0.6186  0.2907  0.0587
  392MOL0     C53965   4.814   1.209   6.978 -0.5204  0.1363  0.4363
  392MOL0     O53966   4.946   1.221   6.985 -0.7223 -0.5345  1.2308
  392MOL0     C53967   4.992   1.352   7.033 -0.2537  0.2601 -0.4880
  392MOL0     C53968   5.127   1.396   6.957 -0.0911  0.1955  0.2435
  392MOL0     C53969   5.251   1.301   6.954  1.0678  0.1707 -0.0924
  392MOL0     C53970   5.365   1.368   6.894  0.2315 -0.1077  0.6208
  392MOL0     C53971   5.490   1.272   6.899  0.3086 -0.4307 -0.4536
  392MOL0     C53972   5.539   1.228   7.040  0.5607  0.0159 -0.2319
  392MOL0     C53973   5.684   1.191   7.039  0.3012 -0.0920 -0.6976
  392MOL0     C53974   5.711   1.058   6.969 -0.4987  0.2009 -0.4792
  392MOL0     N53975   5.844   1.006   6.998 -0.1572 -0.3618 -0.1265
  392MOL0     C53976   5.918   0.948   6.899 -0.1534  0.1616 -0.2352
  392MOL0     C53977   6.047   0.949   6.947  0.5300 -0.4249 -0.2769
  392MOL0     C53978   6.175   0.907   6.880  0.5199  0.0082  0.3153
  392MOL0     C53979   6.255   1.032   6.822  0.6096  0.3908 -0.2935
  392MOL0     C53980   6.334   1.092   6.938  0.0076 -0.2632 -0.2164
  392MOL0     C53981   6.397   1.229   6.889 -0.2387 -0.4043 -1.0946
  392MOL0     O53982   6.424   1.228   6.748  1.1339 -0.8979  0.1291
  392MOL0     C53983   6.552   1.184   6.711  0.5439 -0.2882  0.2932
  392MOL0     C53984   6.644   1.128   6.794 -0.1627 -0.3596 -0.2578
  392MOL0     C53985   6.767   1.076   6.745 -0.3790  0.2728  0.0046
  392MOL0     C53986   6.858   1.000   6.843 -0.2982 -0.8208 -0.0061
  392MOL0     C53987   6.807   1.105   6.612  0.1049 -0.8898  0.6035
  392MOL0     C53988   6.936   1.070   6.544 -0.2545  0.0375 -0.0361
  392MOL0     O53989   6.948   1.087   6.408 -0.0695  0.4924 -0.2616
  392MOL0     C53990   7.073   1.070   6.352 -0.7709 -0.1995  0.1394
  392MOL0     C53991   7.185   1.149   6.375 -0.0706  1.0130  0.3220
  392MOL0     C53992   7.304   1.129   6.300 -0.2829 -0.0629  0.0637
  392MOL0     C53993   7.328   1.018   6.214 -1.1925 -0.3502  1.2756
  392MOL0     O53994   7.452   0.996   6.150  0.1716  0.1017  0.1822
  392MOL0     C53995   7.425   0.979   6.009  0.0873  1.0260 -0.4713
  392MOL0     C53996   7.459   1.095   5.916 -0.0925 -0.7219 -0.1551
  392MOL0     C53997   7.603   1.133   5.911 -0.2270 -0.4385  0.5474
  392MOL0     C53998   7.707   1.021   5.899  0.0678 -0.0368 -1.1463
  392MOL0     C53999   7.850   1.058   5.859  0.0697  0.1829 -0.3193
  392MOL0     C54000   7.945   0.937   5.894 -0.4174  0.0484 -0.1033
  392MOL0     C54001   8.070   0.960   5.803 -0.7002 -0.4519  0.4537
  392MOL0     C54002   8.186   0.873   5.836 -0.6874  0.3340  0.4165
  392MOL0    Cl54003   8.130   0.704   5.831  0.3367 -0.0073 -0.4636
  392MOL0     C54004   7.216   0.928   6.204 -1.1273  0.2900 -0.2807
  392MOL0     C54005   7.093   0.955   6.268 -0.4192 -0.0776  0.5124
  392MOL0     O54006   7.030   1.043   6.615 -0.2006 -0.8246  0.1676
  392MOL0     C54007   6.708   1.159   6.529 -0.2357 -0.1831 -0.2263
  392MOL0     C54008   6.585   1.200   6.577  0.5281 -0.7538  0.0676
  392MOL0     N54009   6.044   1.016   7.061  0.0670  0.9850  0.1831
  392MOL0     N54010   5.926   1.043   7.103 -0.5023  0.5046  0.4899
  392MOL0     C54011   4.726   1.251   7.087  0.4892 -0.3801  1.0675
  392MOL0     C54012   4.585   1.244   7.082  0.2397 -0.3788  0.1519
  392MOL0     C54013   4.169   1.244   6.975  1.0692 -0.0720  0.3227
  392MOL0     C54014   4.085   1.323   7.052  0.5347 -0.2217 -0.1494
  392MOL0     C54015   3.951   1.294   7.072 -0.0810 -0.3482 -0.3967
  392MOL0     C54016   3.888   1.189   7.007 -0.3539  0.4687  0.5112
  392MOL0     O54017   3.753   1.153   6.996 -0.0139  0.5308  0.0112
  392MOL0     C54018   3.663   1.268   7.010 -0.2774 -0.1548  0.0245
  392MOL0     C54019   3.520   1.220   6.991 -0.0705  0.3524  0.7240
  392MOL0     C54020   3.486   1.203   6.847 -0.1738  0.3184 -0.4103
  392MOL0     C54021   3.555   1.089   6.784  0.1785  0.4203  0.6052
  392MOL0     C54022   3.501   1.067   6.652 -0.3756 -0.2978  0.2349
  392MOL0     C54023   3.469   1.033   6.541  0.3332 -0.4498  0.4680
  392MOL0     C54024   3.966   1.103   6.931  0.1159 -0.2518  0.9024
  392MOL0     C54025   4.106   1.128   6.918 -0.0841 -0.4529  0.6787
  392MOL0     C54026   4.182   1.036   6.823 -0.1923  0.2591  0.3433
  392MOL0     H54027   4.561   1.088   6.777 -1.9970  1.7575  0.1823
  392MOL0     H54028   4.808   1.090   6.798 -0.4091 -2.8804  1.3976
  392MOL0     H54029   5.003   1.352   7.142  0.7524  3.0475 -0.5137
  392MOL0     H54030   4.913   1.420   7.000 -0.0438  0.1752 -1.1911
  392MOL0     H54031   5.102   1.404   6.851  0.7349  0.2533  0.0436
  392MOL0     H54032   5.156   1.496   6.990 -1.5820  1.1311 -1.1504
  392MOL0     H54033   5.285   1.278   7.055  1.9409  0.8423 -0.2318
  392MOL0     H54034   5.226   1.210   6.897 -0.1222  1.1189 -1.1477
  392MOL0     H54035   5.336   1.398   6.793  0.1296 -0.6729  0.4805
  392MOL0     H54036   5.382   1.460   6.951 -0.7649  0.5521 -0.1208
  392MOL0     H54037   5.571   1.331   6.855  0.0927 -0.0841 -0.3904
  392MOL0     H54038   5.481   1.187   6.831  2.0801 -0.0041 -1.2701
  392MOL0     H54039   5.521   1.316   7.103  0.8140 -0.8101  1.0242
  392MOL0     H54040   5.481   1.144   7.077  1.5863 -0.6963 -0.2055
  392MOL0     H54041   5.711   1.185   7.145  1.5086  3.2968 -0.6831
  392MOL0     H54042   5.746   1.271   6.996  1.6029 -1.4368 -1.4186
  392MOL0     H54043   5.642   0.980   7.002 -0.9797  1.0288  0.5232
  392MOL0     H54044   5.709   1.073   6.861  3.1084  2.2171 -0.4243
  392MOL0     H54045   5.890   0.899   6.807  2.0856 -1.1810 -0.2746
  392MOL0     H54046   6.147   0.837   6.800 -0.2158  0.3017  0.3024
  392MOL0     H54047   6.236   0.835   6.935 -1.5221 -2.2570 -0.1778
  392MOL0     H54048   6.318   0.997   6.740 -0.8577  1.1731 -1.8353
  392MOL0     H54049   6.190   1.112   6.784 -1.6537 -0.6478  1.1362
  392MOL0     H54050   6.270   1.120   7.022  1.0902  0.1835  0.4826
  392MOL0     H54051   6.410   1.021   6.972  1.2381  0.0605 -2.1266
  392MOL0     H54052   6.327   1.310   6.913  0.0426 -0.5499  0.3263
  392MOL0     H54053   6.482   1.251   6.955 -2.4525 -0.2707  1.9319
  392MOL0     H54054   6.633   1.116   6.901 -0.0884  4.2571  0.4697
  392MOL0     H54055   6.820   0.986   6.945  3.4400  0.4832  1.7421
  392MOL0     H54056   6.953   1.053   6.861 -1.3009  1.1168 -0.1717
  392MOL0     H54057   6.876   0.899   6.805  3.7045 -0.3410  0.1905
  392MOL0     H54058   7.177   1.234   6.443  1.0933 -2.0328  4.7518
  392MOL0     H54059   7.389   1.197   6.304  0.1592 -0.5662 -0.5258
  392MOL0     H54060   7.486   0.898   5.969  0.1247  1.3788 -1.1553
  392MOL0     H54061   7.324   0.946   5.984  1.3503 -2.0520 -2.0530
  392MOL0     H54062   7.444   1.056   5.815 -1.6280 -0.2814 -0.1301
  392MOL0     H54063   7.396   1.182   5.938  0.8833  0.1833 -0.8240
  392MOL0     H54064   7.623   1.191   6.001 -0.1537  2.1836 -1.0522
  392MOL0     H54065   7.625   1.198   5.825  0.7294  0.8477  1.7198
  392MOL0     H54066   7.673   0.945   5.828  0.3480  0.0355 -1.3582
  392MOL0     H54067   7.700   0.962   5.991  1.3764 -1.4284 -1.8815
  392MOL0     H54068   7.850   1.086   5.753 -1.4777  0.2958 -0.3120
  392MOL0     H54069   7.880   1.140   5.926  1.0499 -2.0582  2.1599
  392MOL0     H54070   7.902   0.839   5.871 -0.4176  0.1544 -0.5469
  392MOL0     H54071   7.977   0.942   5.999  1.0954 -2.4332 -0.3585
  392MOL0     H54072   8.109   1.060   5.823 -0.3707 -0.7940  1.6076
  392MOL0     H54073   8.044   0.950   5.697 -0.5922 -5.1453  0.6614
  392MOL0     H54074   8.224   0.900   5.935  1.8532  0.4600 -0.5115
  392MOL0     H54075   8.268   0.879   5.763 -0.6710 -1.3776  0.2590
  392MOL0     H54076   7.246   0.843   6.144  2.5635  1.5854 -0.5735
  392MOL0     H54077   7.013   0.881   6.263 -0.2574 -0.2587  0.5990
  392MOL0     H54078   6.729   1.166   6.422 -1.1264 -3.7338 -0.7351
  392MOL0     H54079   6.502   1.234   6.516 -0.5193 -1.6896  0.9321
  392MOL0     H54080   4.766   1.293   7.178 -1.9483 -0.7746  2.4045
  392MOL0     H54081   4.523   1.284   7.162 -2.2968  1.3977 -2.4815
  392MOL0     H54082   4.122   1.416   7.094  0.8094 -0.8572  1.0664
  392MOL0     H54083   3.890   1.366   7.124  1.0105  0.6351 -0.4547
  392MOL0     H54084   3.678   1.320   7.105  1.9578  1.7429 -1.2511
  392MOL0     H54085   3.689   1.339   6.931 -0.0058  0.2504  0.4665
  392MOL0     H54086   3.455   1.298   7.031 -0.3525 -1.4609  4.1844
  392MOL0     H54087   3.506   1.125   7.044  1.0493 -0.0575  0.3307
  392MOL0     H54088   3.379   1.185   6.836 -0.2029 -0.5555  1.0721
  392MOL0     H54089   3.497   1.303   6.804 -1.5575  2.1054  2.9801
  392MOL0     H54090   3.547   0.995   6.839 -0.5520 -0.2204 -0.5446
  392MOL0     H54091   3.661   1.115   6.771  0.5674 -2.0409 -2.1374
  392MOL0     H54092   3.436   1.015   6.441 -0.2320 -0.2506  0.6127
  392MOL0     H54093   3.925   1.010   6.893  0.1166 -0.3299  1.0915
  392MOL0     H54094   4.246   1.097   6.757 -1.2534  1.6936  0.5952
  392MOL0     H54095   4.245   0.963   6.873  0.9098 -0.1842 -1.5621
  392MOL0     H54096   4.111   0.976   6.766  0.0047  0.4801 -0.1527
  393MOL0     O54097   8.070   4.930   3.500 -0.9880  0.5238 -0.0186
  393MOL0     C54098   8.064   5.044   3.465  0.1651 -0.5127  0.8720
  393MOL0     O54099   8.169   5.119   3.415  0.1375 -0.1904 -0.0838
  393MOL0     C54100   8.280   5.052   3.373  0.0154  0.1675  0.5662
  393MOL0     C54101   8.393   5.135   3.352 -0.3002  0.1197  1.0440
  393MOL0     C54102   8.519   5.084   3.314 -0.3666 -0.3019 -0.5220
  393MOL0     C54103   8.534   4.946   3.282  0.9320 -0.3385 -0.0342
  393MOL0     O54104   8.649   4.889   3.242  0.6667 -0.0796  0.1077
  393MOL0     C54105   8.768   4.972   3.224 -0.0369  0.2233 -0.4610
  393MOL0     C54106   8.871   4.880   3.147  0.2928  0.1636 -0.3046
  393MOL0     C54107   9.016   4.919   3.173 -0.6821 -0.8001  0.5651
  393MOL0     C54108   9.067   5.051   3.107 -0.5380  0.3718  0.9009
  393MOL0     C54109   9.211   5.067   3.138 -0.4652 -0.3521 -0.4268
  393MOL0     C54110   9.267   5.149   3.029  0.3843 -0.3573  0.2953
  393MOL0     C54111   9.414   5.187   3.049  0.0758 -0.0270 -0.5508
  393MOL0     C54112   9.446   5.329   3.005  0.0357  0.2729 -0.1112
  393MOL0     N54113   9.595   5.333   2.987  0.2136  0.0326 -0.0276
  393MOL0     C54114   9.661   5.354   2.868  0.2610  0.2497 -0.6060
  393MOL0     C54115   9.793   5.345   2.896 -0.1624  0.7574 -0.2331
  393MOL0     C54116   9.912   5.380   2.809  0.7156 -0.0700  0.3601
  393MOL0     C54117  10.053   5.340   2.869  0.3607 -0.1224 -0.3703
  393MOL0     C54118  10.162   5.336   2.758  0.0972  0.1132 -0.7425
  393MOL0     C54119  10.184   5.458   2.678 -0.2040  0.0705  0.2612
  393MOL0     O54120  10.311   5.445   2.607  0.0476  0.2249 -0.4478
  393MOL0     C54121  10.358   5.560   2.555 -0.4143  0.7944 -0.3008
  393MOL0     C54122  10.275   5.659   2.511  0.0625 -0.7468 -0.1179
  393MOL0     C54123  10.323   5.786   2.474 -0.0715  0.4690 -0.1341
  393MOL0     C54124  10.222   5.878   2.411  0.1008  0.5498  0.3995
  393MOL0     C54125  10.455   5.811   2.468  0.1459 -0.0972 -0.1456
  393MOL0     C54126  10.512   5.941   2.416  1.3253 -0.5283  0.3825
  393MOL0     O54127  10.637   5.932   2.371 -0.6674  0.3119  0.5705
  393MOL0     C54128  10.718   6.041   2.349 -0.3407 -0.0130  0.2290
  393MOL0     C54129  10.841   6.057   2.418  0.9774  0.6452  0.7538
  393MOL0     C54130  10.934   6.155   2.384  0.4407  0.7047 -0.6558
  393MOL0     C54131  10.905   6.242   2.288  0.4827 -0.2628 -0.2344
  393MOL0     O54132  10.975   6.352   2.258  0.0746  0.7777 -0.1579
  393MOL0     C54133  11.117   6.330   2.222 -0.5713 -1.3231 -0.3933
  393MOL0     C54134  11.200   6.382   2.333 -0.1751  0.2379  1.0715
  393MOL0     C54135  11.348   6.355   2.292  0.0689  0.5997  0.8046
  393MOL0     C54136  11.423   6.402   2.415 -0.2544 -0.0700 -0.0833
  393MOL0     C54137  11.571   6.359   2.403  1.0691  0.5037 -0.2442
  393MOL0     C54138  11.633   6.424   2.282  0.5000 -0.5792  0.3214
  393MOL0     C54139  11.785   6.401   2.275  0.2035  1.1707  0.1869
  393MOL0     C54140  11.847   6.465   2.154 -0.2955  0.8038  0.5225
  393MOL0    Cl54141  12.022   6.434   2.168  0.3904 -0.6535 -0.5301
  393MOL0     C54142  10.776   6.243   2.230 -0.4120  0.1986  0.1601
  393MOL0     C54143  10.687   6.141   2.261 -0.5185  0.5550 -0.4109
  393MOL0     O54144  10.455   6.045   2.442  0.0195  0.3279 -0.1052
  393MOL0     C54145  10.543   5.704   2.507  0.1586  0.5621 -0.7219
  393MOL0     C54146  10.494   5.590   2.559 -0.1332  0.2267  0.0415
  393MOL0     N54147   9.808   5.327   3.038 -0.1540 -0.0807  0.6248
  393MOL0     N54148   9.691   5.324   3.088  0.2469 -0.3566  0.2508
  393MOL0     C54149   8.418   4.864   3.292  0.0776  0.2662  0.1020
  393MOL0     C54150   8.301   4.916   3.339  0.1724 -0.2838 -0.5648
  393MOL0     C54151   7.943   5.124   3.472  0.0126  0.2308 -0.0387
  393MOL0     C54152   7.931   5.232   3.382 -0.1521 -0.3836  0.5823
  393MOL0     C54153   7.829   5.330   3.395  0.7037 -0.0996 -0.5271
  393MOL0     C54154   7.716   5.299   3.480  0.0293 -0.3536  0.1421
  393MOL0     O54155   7.604   5.370   3.479  0.8452 -0.7457  0.5679
  393MOL0     C54156   7.481   5.333   3.546 -0.4454  0.4190 -0.2755
  393MOL0     C54157   7.363   5.431   3.516 -0.7390 -0.0682 -0.3475
  393MOL0     C54158   7.239   5.367   3.564  0.1036  0.5091 -0.3400
  393MOL0     C54159   7.121   5.459   3.531 -0.3607  0.2325 -0.3933
  393MOL0     C54160   6.990   5.385   3.541 -0.5037  0.5531  0.3166
  393MOL0     C54161   6.892   5.324   3.544 -0.7929 -0.2453  0.1653
  393MOL0     C54162   7.732   5.195   3.576 -0.0774 -0.3529  0.4949
  393MOL0     C54163   7.838   5.104   3.570  0.0036 -0.1800 -0.0381
  393MOL0     C54164   7.836   4.988   3.669  0.1646 -0.3834 -0.1366
  393MOL0     H54165   8.386   5.243   3.360 -1.5721  0.0358  1.3578
  393MOL0     H54166   8.600   5.156   3.307  1.2158 -1.8221  1.0290
  393MOL0     H54167   8.803   5.014   3.319 -0.0870  1.9188 -1.1677
  393MOL0     H54168   8.748   5.059   3.162 -0.5707 -0.6020 -1.4720
  393MOL0     H54169   8.854   4.779   3.186 -1.9725  1.8545  3.6014
  393MOL0     H54170   8.852   4.876   3.039  2.0109 -1.8934 -0.6129
  393MOL0     H54171   9.033   4.927   3.280  2.9484 -2.2899  0.2463
  393MOL0     H54172   9.070   4.835   3.128  1.7552  1.4373 -0.9382
  393MOL0     H54173   9.047   5.050   2.999 -2.3438  1.8309  1.1774
  393MOL0     H54174   9.004   5.136   3.134 -1.1135 -0.1238  1.1726
  393MOL0     H54175   9.263   4.971   3.134 -2.1563 -1.2360 -2.4819
  393MOL0     H54176   9.229   5.114   3.235 -0.1139 -0.1615 -0.5798
  393MOL0     H54177   9.255   5.100   2.932 -1.2535 -0.3222  0.4604
  393MOL0     H54178   9.206   5.240   3.031  0.1887 -0.4336  3.4392
  393MOL0     H54179   9.471   5.109   2.997 -1.9697 -0.1916 -2.7167
  393MOL0     H54180   9.436   5.176   3.155  0.7325 -1.9568 -0.8400
  393MOL0     H54181   9.392   5.339   2.910 -1.7501 -3.0022  0.4105
  393MOL0     H54182   9.406   5.405   3.074 -0.6464 -0.2214  0.0485
  393MOL0     H54183   9.625   5.391   2.773  1.9205  2.2641 -0.5234
  393MOL0     H54184   9.913   5.489   2.808 -1.7786  0.0110  1.3808
  393MOL0     H54185   9.902   5.353   2.704  1.5919  0.1213  0.2195
  393MOL0     H54186  10.083   5.410   2.947  2.8227 -0.7895 -0.6342
  393MOL0     H54187  10.048   5.236   2.902  0.1098 -0.3718 -1.1599
  393MOL0     H54188  10.258   5.308   2.803  1.0372  3.0783 -0.7251
  393MOL0     H54189  10.131   5.259   2.687 -3.1930  0.5897 -0.0059
  393MOL0     H54190  10.098   5.473   2.612 -0.2386  0.9234  0.4853
  393MOL0     H54191  10.193   5.548   2.740  0.5510  0.0025  0.2640
  393MOL0     H54192  10.170   5.638   2.495 -0.1615  0.2897 -0.0661
  393MOL0     H54193  10.212   5.973   2.465  0.2372  1.7116 -1.5366
  393MOL0     H54194  10.122   5.833   2.413  0.3262 -0.0780 -1.4496
  393MOL0     H54195  10.246   5.900   2.307 -0.9403 -4.0852 -1.0771
  393MOL0     H54196  10.870   5.983   2.492 -1.0579  2.7145  3.8606
  393MOL0     H54197  11.018   6.177   2.449 -0.8873 -0.0117  1.4269
  393MOL0     H54198  11.128   6.223   2.201 -2.6967 -2.5184  3.5814
  393MOL0     H54199  11.139   6.388   2.132 -1.0969 -1.1809 -0.4318
  393MOL0     H54200  11.172   6.488   2.335 -0.9861  0.0711 -0.2618
  393MOL0     H54201  11.168   6.335   2.426 -2.7599  0.4211  0.3592
  393MOL0     H54202  11.368   6.403   2.196 -0.5668 -0.5646  0.0613
  393MOL0     H54203  11.363   6.249   2.273 -1.5984  0.5042 -0.2130
  393MOL0     H54204  11.372   6.353   2.500 -0.4075 -0.4594 -0.3960
  393MOL0     H54205  11.408   6.508   2.437 -0.9715 -0.5298  1.9393
  393MOL0     H54206  11.642   6.389   2.481  0.8924  2.0333 -0.6421
  393MOL0     H54207  11.582   6.250   2.404  1.1685  0.5144  0.4194
  393MOL0     H54208  11.609   6.530   2.290 -1.4494 -0.9495 -0.2496
  393MOL0     H54209  11.591   6.382   2.190 -0.2095  1.7362 -0.4708
  393MOL0     H54210  11.810   6.295   2.277 -0.6329  0.9798  0.9794
  393MOL0     H54211  11.838   6.438   2.363 -1.1839 -1.3880  2.2443
  393MOL0     H54212  11.830   6.573   2.145  0.4463  0.8518 -0.5756
  393MOL0     H54213  11.807   6.420   2.062  0.6033 -1.3325  1.1487
  393MOL0     H54214  10.740   6.323   2.168 -0.1408 -0.3766 -0.7600
  393MOL0     H54215  10.590   6.145   2.213 -0.4380 -0.6855 -0.7083
  393MOL0     H54216  10.649   5.723   2.523 -0.3110  1.0919  2.6140
  393MOL0     H54217  10.562   5.518   2.604 -1.6887 -2.3781 -1.4946
  393MOL0     H54218   8.431   4.762   3.257 -1.3770  0.0667  0.0676
  393MOL0     H54219   8.225   4.839   3.347 -0.5246  0.1102 -2.8125
  393MOL0     H54220   8.008   5.232   3.305  0.6324  1.6713  1.2757
  393MOL0     H54221   7.827   5.411   3.323  0.5569  0.9078  0.5738
  393MOL0     H54222   7.459   5.226   3.532  0.2426  0.3607 -1.0320
  393MOL0     H54223   7.503   5.334   3.653  1.5595 -2.1655 -0.5469
  393MOL0     H54224   7.371   5.449   3.409  2.6550 -1.3547 -0.4162
  393MOL0     H54225   7.380   5.529   3.561  0.4330 -0.1282 -0.6429
  393MOL0     H54226   7.226   5.269   3.518  1.3910 -0.9983  2.2730
  393MOL0     H54227   7.244   5.352   3.672 -4.7284 -0.6971 -0.0495
  393MOL0     H54228   7.123   5.485   3.424  1.6294 -1.4317 -0.8205
  393MOL0     H54229   7.131   5.557   3.580  2.4263 -0.5202  0.7389
  393MOL0     H54230   6.801   5.267   3.543 -1.4419  0.7053 -1.8618
  393MOL0     H54231   7.663   5.167   3.654 -1.2119  1.3736  0.1699
  393MOL0     H54232   7.905   5.000   3.753 -1.3852 -1.0052  1.2984
  393MOL0     H54233   7.734   4.970   3.703  0.4182 -0.5518  0.5554
  393MOL0     H54234   7.851   4.894   3.614  1.6025  0.4830 -1.3167
  394MOL0     O54235  10.516  10.219   5.950  0.4459 -0.7786 -0.2443
  394MOL0     C54236  10.540  10.312   6.023  0.8115  0.1561 -0.0383
  394MOL0     O54237  10.648  10.329   6.099 -0.0806  0.2621 -0.8303
  394MOL0     C54238  10.763  10.264   6.069 -0.4327  0.0331 -0.9214
  394MOL0     C54239  10.889  10.330   6.070 -0.0483 -0.2363  0.7824
  394MOL0     C54240  11.011  10.264   6.060 -0.0369 -0.5061 -0.4773
  394MOL0     C54241  11.019  10.124   6.041 -0.0009  0.3165 -0.4826
  394MOL0     O54242  11.139  10.055   6.019 -0.4949 -0.3426 -0.7073
  394MOL0     C54243  11.177   9.967   6.130  0.5638  0.3977  0.2805
  394MOL0     C54244  11.318   9.917   6.104  0.0189 -0.0955  0.2757
  394MOL0     C54245  11.424  10.029   6.076  0.4616 -0.0595 -0.1393
  394MOL0     C54246  11.441  10.125   6.196  0.7600 -0.4540 -0.0360
  394MOL0     C54247  11.573  10.209   6.194  0.1813  0.2527 -0.2955
  394MOL0     C54248  11.558  10.330   6.279 -0.6169 -0.6561 -0.8218
  394MOL0     C54249  11.698  10.395   6.302 -0.4396  1.1797 -0.8240
  394MOL0     C54250  11.726  10.431   6.443 -0.1193  0.7844  0.5065
  394MOL0     N54251  11.874  10.442   6.473 -1.2319  0.6712  0.6141
  394MOL0     C54252  11.957  10.536   6.410  0.3064  0.0338  0.3595
  394MOL0     C54253  12.068  10.551   6.482  0.2138  0.2150 -0.6630
  394MOL0     C54254  12.173  10.661   6.454  0.4609 -0.0902 -0.0505
  394MOL0     C54255  12.315  10.611   6.501 -0.6795  0.0415 -0.6761
  394MOL0     C54256  12.435  10.696   6.458 -0.4248  0.3769 -0.8360
  394MOL0     C54257  12.584  10.645   6.491  0.0178  0.8549 -0.1287
  394MOL0     O54258  12.687  10.716   6.423 -0.1074 -0.1570  0.0394
  394MOL0     C54259  12.710  10.681   6.290 -0.8824 -0.3824  0.3922
  394MOL0     C54260  12.823  10.745   6.232 -0.6435 -0.7018 -0.0604
  394MOL0     C54261  12.865  10.718   6.105 -0.3099 -0.9068  0.4718
  394MOL0     C54262  12.985  10.802   6.061 -0.1376 -0.1718 -0.1356
  394MOL0     C54263  12.804  10.614   6.031 -0.1176  0.6964  0.0300
  394MOL0     C54264  12.868  10.573   5.905  0.8993  0.9902  0.4764
  394MOL0     O54265  13.001  10.564   5.906 -0.2465  0.0280 -0.2838
  394MOL0     C54266  13.087  10.549   5.804 -0.0108 -1.4638  0.2515
  394MOL0     C54267  13.067  10.598   5.674  1.0128 -0.7146 -0.4593
  394MOL0     C54268  13.168  10.602   5.577 -0.2088  0.7937  0.2760
  394MOL0     C54269  13.301  10.565   5.619  0.1248 -0.1484  0.1717
  394MOL0     O54270  13.405  10.568   5.536  0.4900 -0.0807 -0.4160
  394MOL0     C54271  13.407  10.666   5.436  0.2914 -1.0720 -0.4253
  394MOL0     C54272  13.552  10.714   5.421 -0.4894 -0.0609 -0.5479
  394MOL0     C54273  13.653  10.604   5.360  0.5171 -0.0483 -0.1452
  394MOL0     C54274  13.793  10.638   5.385  0.2809  0.0999  0.3468
  394MOL0     C54275  13.884  10.535   5.312 -0.8281 -0.7274 -0.7603
  394MOL0     C54276  14.026  10.563   5.343  0.2831 -0.4741  0.1919
  394MOL0     C54277  14.111  10.471   5.257 -0.1427  0.3041 -0.1484
  394MOL0     C54278  14.253  10.497   5.288 -0.3090  0.7929  0.5875
  394MOL0    Cl54279  14.351  10.434   5.152 -0.6058  0.1192  0.3529
  394MOL0     C54280  13.325  10.514   5.750  0.2455 -0.0144 -0.8087
  394MOL0     C54281  13.215  10.510   5.843  0.1461  1.3756 -0.5347
  394MOL0     O54282  12.805  10.531   5.809 -0.0983  0.3425  0.0933
  394MOL0     C54283  12.686  10.554   6.082 -0.8238 -0.3333  0.4100
  394MOL0     C54284  12.640  10.587   6.216  0.1316  0.6402  0.1330
  394MOL0     N54285  12.065  10.466   6.589 -0.1146 -0.2613 -0.0230
  394MOL0     N54286  11.943  10.406   6.579  0.3982  0.5154  0.2906
  394MOL0     C54287  10.898  10.059   6.038  0.4892  0.7629 -0.0572
  394MOL0     C54288  10.771  10.127   6.056 -0.1459 -0.5056  0.1050
  394MOL0     C54289  10.460  10.434   6.014  0.4573  0.3182  0.0087
  394MOL0     C54290  10.523  10.557   6.043 -0.4514  0.1011  0.9103
  394MOL0     C54291  10.439  10.669   6.048 -0.0926  0.1987 -0.3119
  394MOL0     C54292  10.305  10.667   6.022 -0.3210  0.6772  0.3862
  394MOL0     O54293  10.234  10.784   6.022 -0.1287 -0.1359 -0.4394
  394MOL0     C54294  10.160  10.806   6.144 -0.3757  0.5187 -0.2364
  394MOL0     C54295  10.020  10.745   6.134 -0.0295  0.4766  0.4406
  394MOL0     C54296   9.956  10.761   5.992  0.4818 -0.5538 -0.5066
  394MOL0     C54297   9.802  10.746   6.007  0.1091 -0.5799 -0.0365
  394MOL0     C54298   9.768  10.611   6.036 -0.2575 -0.1612 -1.0414
  394MOL0     C54299   9.733  10.502   6.073  0.5569 -0.1805  0.5060
  394MOL0     C54300  10.241  10.549   6.004  0.4776 -0.4289 -0.2951
  394MOL0     C54301  10.321  10.431   5.985  0.2508 -0.8977 -0.9844
  394MOL0     C54302  10.243  10.314   5.931 -0.6839 -0.0771 -0.5865
  394MOL0     H54303  10.886  10.437   6.087 -1.2835 -0.1590  0.1863
  394MOL0     H54304  11.107  10.315   6.056  0.7145 -1.9439 -1.9570
  394MOL0     H54305  11.102   9.889   6.146  2.1773 -1.6806 -1.5904
  394MOL0     H54306  11.180  10.034   6.216  1.8258  0.5946  0.1061
  394MOL0     H54307  11.356   9.866   6.193  1.2871 -0.9502 -0.7116
  394MOL0     H54308  11.320   9.848   6.019  0.0237 -0.4554  0.5696
  394MOL0     H54309  11.522   9.983   6.060  1.6695  1.1619  2.8560
  394MOL0     H54310  11.387  10.078   5.986 -2.2025 -1.5981  0.0074
  394MOL0     H54311  11.365  10.204   6.191  0.1340 -0.8890  1.7306
  394MOL0     H54312  11.424  10.066   6.287 -2.4423  1.4855  0.7960
  394MOL0     H54313  11.597  10.255   6.097  3.2731 -0.9827 -0.2469
  394MOL0     H54314  11.658  10.143   6.217 -0.4414 -1.2122 -1.9494
  394MOL0     H54315  11.482  10.402   6.249 -1.5539 -0.4077  1.8069
  394MOL0     H54316  11.518  10.305   6.378 -0.4254 -0.6510 -0.7437
  394MOL0     H54317  11.706  10.486   6.243 -0.8855  0.4637 -2.0295
  394MOL0     H54318  11.780  10.327   6.276 -0.6862  0.8288 -0.7031
  394MOL0     H54319  11.679  10.527   6.465  2.8102  2.5253 -0.3448
  394MOL0     H54320  11.689  10.360   6.518 -1.3825  0.2108 -0.6152
  394MOL0     H54321  11.930  10.590   6.319  0.4924 -0.5222 -0.0261
  394MOL0     H54322  12.153  10.743   6.524  1.1479 -2.4124  3.1478
  394MOL0     H54323  12.173  10.685   6.348 -0.1573 -0.6132 -0.1819
  394MOL0     H54324  12.308  10.598   6.609 -0.6810 -0.1351 -0.6962
  394MOL0     H54325  12.327  10.515   6.449 -2.3434  0.3895 -1.7721
  394MOL0     H54326  12.427  10.712   6.350  2.0601  3.0548 -0.7440
  394MOL0     H54327  12.424  10.793   6.508  0.2109  0.4453 -0.8232
  394MOL0     H54328  12.604  10.648   6.599 -1.8234 -0.0104  0.2741
  394MOL0     H54329  12.597  10.537   6.479 -0.1817  0.8442 -0.2463
  394MOL0     H54330  12.862  10.839   6.269 -0.5952 -0.8297  0.2148
  394MOL0     H54331  13.071  10.764   6.118 -2.3238 -3.3089  1.3694
  394MOL0     H54332  12.964  10.904   6.096  1.1621  0.0363  0.0932
  394MOL0     H54333  12.996  10.813   5.953 -0.6680  0.3860 -0.1429
  394MOL0     H54334  12.965  10.625   5.649  0.8658 -0.1010  0.7358
  394MOL0     H54335  13.157  10.631   5.473  0.9015 -0.0624 -0.1014
  394MOL0     H54336  13.371  10.632   5.339  2.3638  2.5340 -2.6555
  394MOL0     H54337  13.346  10.755   5.453  0.0721 -1.0756 -1.1887
  394MOL0     H54338  13.547  10.794   5.346 -3.0033 -0.0276 -0.4362
  394MOL0     H54339  13.592  10.754   5.514  2.0027  0.1921 -1.6292
  394MOL0     H54340  13.643  10.597   5.251  1.2501 -1.7811 -0.1414
  394MOL0     H54341  13.630  10.503   5.396 -1.1213  0.8334  1.4397
  394MOL0     H54342  13.818  10.645   5.491 -2.8334 -1.5456  1.3068
  394MOL0     H54343  13.802  10.741   5.351  1.9378 -0.4798 -1.1390
  394MOL0     H54344  13.861  10.435   5.348  0.0890 -1.2989 -1.7214
  394MOL0     H54345  13.870  10.533   5.203  2.5645  0.6225 -1.3497
  394MOL0     H54346  14.047  10.547   5.450  1.8741 -0.6450 -0.1267
  394MOL0     H54347  14.045  10.666   5.313 -1.2963 -0.6628 -1.6089
  394MOL0     H54348  14.095  10.498   5.152  0.0154 -0.2446 -0.3164
  394MOL0     H54349  14.101  10.362   5.266  2.5990 -0.3671 -3.1302
  394MOL0     H54350  14.264  10.425   5.370 -0.4010  0.2077  0.0873
  394MOL0     H54351  14.278  10.600   5.315  1.9590  0.5482 -0.3932
  394MOL0     H54352  13.427  10.480   5.763  0.0064 -1.3131 -2.1330
  394MOL0     H54353  13.236  10.464   5.939  0.9537 -0.5259 -1.5732
  394MOL0     H54354  12.626  10.486   6.023  0.4102  0.4089 -1.8176
  394MOL0     H54355  12.546  10.547   6.253  2.0834 -2.3835  2.3138
  394MOL0     H54356  10.912   9.954   6.014  2.8217  1.2700 -1.1606
  394MOL0     H54357  10.681  10.068   6.045 -1.5181  1.7662 -2.2777
  394MOL0     H54358  10.629  10.564   6.069 -0.1599 -3.2669  0.9962
  394MOL0     H54359  10.483  10.764   6.077  2.4072 -1.9870  4.0605
  394MOL0     H54360  10.205  10.760   6.233 -0.7938  1.4926  0.4958
  394MOL0     H54361  10.151  10.914   6.157 -0.1252  0.5899 -0.6449
  394MOL0     H54362   9.955  10.802   6.202 -0.2508 -0.7121  1.2595
  394MOL0     H54363  10.014  10.640   6.163 -0.1571  0.1347 -0.7687
  394MOL0     H54364   9.990  10.857   5.954  0.1262 -0.2097  0.0352
  394MOL0     H54365   9.990  10.693   5.913  2.6979  1.7329 -1.6608
  394MOL0     H54366   9.756  10.771   5.910  0.9973  0.2190 -0.2624
  394MOL0     H54367   9.764  10.817   6.080  0.8295 -1.2767  1.0468
  394MOL0     H54368   9.687  10.405   6.075  0.9416 -0.5936 -3.1872
  394MOL0     H54369  10.134  10.543   5.985  0.5219 -4.3024 -0.0765
  394MOL0     H54370  10.261  10.307   5.823  1.6596 -1.9620 -0.1413
  394MOL0     H54371  10.268  10.218   5.977  0.7848  0.2858 -0.5714
  394MOL0     H54372  10.137  10.339   5.942 -0.3031  3.2005 -2.7919
  395MOL0     O54373  11.101   4.117  11.240  0.2495  0.2083 -0.0190
  395MOL0     C54374  11.099   4.148  11.361  0.5508 -0.1639 -0.6838
  395MOL0     O54375  11.109   4.067  11.473  0.3421  0.3364  0.8804
  395MOL0     C54376  11.116   3.928  11.461  0.4087  0.9872  0.5395
  395MOL0     C54377  11.129   3.864  11.585 -0.4323 -0.2751 -0.0733
  395MOL0     C54378  11.155   3.721  11.610  0.1479  0.6673 -0.1030
  395MOL0     C54379  11.179   3.640  11.500  0.5998  0.2933 -0.5999
  395MOL0     O54380  11.187   3.503  11.514  0.1626 -0.0067 -0.4069
  395MOL0     C54381  11.229   3.423  11.407 -0.5437 -0.3475  0.0585
  395MOL0     C54382  11.097   3.367  11.330 -0.5521  1.0676 -0.5119
  395MOL0     C54383  11.021   3.279  11.428  0.4896 -0.1943 -0.2251
  395MOL0     C54384  11.079   3.142  11.462 -0.9093  1.0328 -0.1712
  395MOL0     C54385  11.083   3.052  11.335  0.0041 -0.4062 -0.1143
  395MOL0     C54386  11.106   2.907  11.369  0.8128 -0.0859  0.1290
  395MOL0     C54387  11.081   2.820  11.246  0.5897 -0.2238  0.0060
  395MOL0     C54388  11.116   2.672  11.256  0.6031 -0.0244 -0.4686
  395MOL0     N54389  11.111   2.614  11.128  0.7269  0.1954  0.3992
  395MOL0     C54390  11.214   2.634  11.036  0.0574 -0.2037 -1.0203
  395MOL0     C54391  11.183   2.571  10.921  0.3306 -0.5261  0.4058
  395MOL0     C54392  11.261   2.566  10.794  0.5051 -0.2174  0.0448
  395MOL0     C54393  11.401   2.523  10.815  0.2320 -0.1089  0.2319
  395MOL0     C54394  11.472   2.502  10.671 -0.2475  0.3252  1.1216
  395MOL0     C54395  11.616   2.524  10.675  0.1727  0.3301 -0.7608
  395MOL0     O54396  11.670   2.524  10.541  0.4851 -0.0009  0.3334
  395MOL0     C54397  11.807   2.520  10.524 -0.6359 -0.1707  0.9748
  395MOL0     C54398  11.896   2.471  10.619 -0.3297  0.3958 -0.1801
  395MOL0     C54399  12.035   2.471  10.589  0.6479  0.3057  0.3697
  395MOL0     C54400  12.120   2.394  10.690  0.2414  0.6069  0.1901
  395MOL0     C54401  12.084   2.526  10.470  0.8206 -0.6752  0.9759
  395MOL0     C54402  12.227   2.530  10.437  0.9679 -0.6131 -0.1521
  395MOL0     O54403  12.256   2.523  10.300  0.1935  0.0803  0.3986
  395MOL0     C54404  12.365   2.594  10.251 -0.7036  0.1894 -0.4019
  395MOL0     C54405  12.502   2.581  10.293  1.3307  0.0958 -0.2228
  395MOL0     C54406  12.601   2.665  10.242  0.4800 -0.4908  0.1674
  395MOL0     C54407  12.575   2.761  10.146 -0.2186 -0.2283 -0.0664
  395MOL0     O54408  12.668   2.854  10.097  0.2062 -0.2945 -0.0568
  395MOL0     C54409  12.706   2.955  10.183  0.1213  0.7155  0.0858
  395MOL0     C54410  12.800   3.055  10.130 -0.8066 -0.4455 -0.0031
  395MOL0     C54411  12.943   3.005  10.157 -0.0676 -0.3923 -0.0708
  395MOL0     C54412  13.043   3.099  10.091  0.1745  0.5253 -0.3365
  395MOL0     C54413  13.189   3.089  10.140  0.6135 -0.1315 -0.7684
  395MOL0     C54414  13.265   3.216  10.105 -0.5832 -0.3854 -0.8287
  395MOL0     C54415  13.420   3.210  10.135  1.1403  0.3041  0.6556
  395MOL0     C54416  13.502   3.327  10.078  0.0219 -0.3918  0.2416
  395MOL0    Cl54417  13.517   3.466  10.193 -0.1223  0.2134  0.0228
  395MOL0     C54418  12.441   2.775  10.103  0.1650  1.2943 -0.1306
  395MOL0     C54419  12.336   2.693  10.158 -0.2826  0.3357  1.5969
  395MOL0     O54420  12.308   2.533  10.531  0.4533 -0.4659  0.2068
  395MOL0     C54421  11.993   2.567  10.364  0.7362  0.5796  0.3501
  395MOL0     C54422  11.857   2.562  10.398  0.4648  0.1266 -1.0831
  395MOL0     N54423  11.046   2.550  10.932  0.2193  0.2228  0.2894
  395MOL0     N54424  11.007   2.567  11.050 -0.6663 -0.0451 -0.2731
  395MOL0     C54425  11.172   3.702  11.371 -0.0193  0.1951  0.0888
  395MOL0     C54426  11.139   3.838  11.351  0.4045  0.2495  0.6962
  395MOL0     C54427  11.071   4.287  11.404 -0.3355 -0.2377  0.7586
  395MOL0     C54428  11.020   4.369  11.301  0.3163  0.5593  0.1915
  395MOL0     C54429  11.017   4.504  11.319  0.4238 -0.3862  0.2085
  395MOL0     C54430  11.072   4.575  11.422 -0.0635  0.4500  0.2824
  395MOL0     O54431  11.059   4.709  11.427 -1.4143 -0.1631 -1.1515
  395MOL0     C54432  11.077   4.793  11.547 -0.9046  0.7634  0.6375
  395MOL0     C54433  10.953   4.795  11.622  1.5503  0.1811  0.1045
  395MOL0     C54434  10.848   4.866  11.532  0.6635  0.4087 -0.4599
  395MOL0     C54435  10.710   4.865  11.605 -0.3367  0.2807 -0.0264
  395MOL0     C54436  10.602   4.909  11.511  0.0606 -0.3103  0.6134
  395MOL0     C54437  10.523   4.954  11.435  0.4546  0.1558  0.2614
  395MOL0     C54438  11.127   4.493  11.526 -0.7940 -0.7722  0.2594
  395MOL0     C54439  11.129   4.354  11.518  0.0569  0.5283 -0.7442
  395MOL0     C54440  11.197   4.282  11.627 -0.8425 -0.5619  0.5995
  395MOL0     H54441  11.127   3.935  11.667  0.7012 -0.8698  0.4928
  395MOL0     H54442  11.146   3.667  11.703 -1.8742 -1.6846 -1.5225
  395MOL0     H54443  11.295   3.348  11.451 -3.1923 -1.5464  2.2179
  395MOL0     H54444  11.289   3.480  11.335 -0.3085 -1.3355 -0.5494
  395MOL0     H54445  11.041   3.457  11.304  0.8927  1.5108 -2.2483
  395MOL0     H54446  11.120   3.315  11.236  0.1926  0.5819 -0.0713
  395MOL0     H54447  11.011   3.325  11.527 -0.5096  0.8599 -0.7921
  395MOL0     H54448  10.920   3.264  11.389 -0.4068  4.5449 -0.2671
  395MOL0     H54449  11.179   3.159  11.504 -0.1614 -0.3048 -1.3168
  395MOL0     H54450  11.029   3.082  11.539 -0.8322  0.1992 -0.7603
  395MOL0     H54451  11.155   3.081  11.258 -0.4484 -0.4102 -0.5466
  395MOL0     H54452  10.988   3.055  11.281  0.0099 -1.5857 -0.2122
  395MOL0     H54453  11.209   2.906  11.407  0.4428 -0.3555  1.1480
  395MOL0     H54454  11.046   2.869  11.452  1.8638  0.7880  1.3250
  395MOL0     H54455  11.133   2.855  11.155 -2.3477 -1.4869 -2.3292
  395MOL0     H54456  10.975   2.824  11.221 -0.0009  2.6248  2.4333
  395MOL0     H54457  11.207   2.652  11.313  1.1351  3.9151  0.3334
  395MOL0     H54458  11.045   2.622  11.323  1.9859  0.8791  1.7633
  395MOL0     H54459  11.311   2.682  11.049  0.6888 -1.0920 -2.2902
  395MOL0     H54460  11.262   2.663  10.743  2.1419  0.5011  1.3484
  395MOL0     H54461  11.211   2.488  10.737 -4.0746  1.0513  1.8246
  395MOL0     H54462  11.468   2.585  10.875  0.9314 -0.0799 -0.5709
  395MOL0     H54463  11.384   2.428  10.867 -2.4719  0.1177 -0.0537
  395MOL0     H54464  11.461   2.398  10.639 -0.8502  0.5374  0.6145
  395MOL0     H54465  11.425   2.567  10.596  0.8983 -0.7686 -0.6130
  395MOL0     H54466  11.630   2.616  10.732 -0.2541 -0.7509  1.2109
  395MOL0     H54467  11.669   2.454  10.740  0.9898 -0.2971 -2.0583
  395MOL0     H54468  11.860   2.437  10.715 -0.1269 -1.8548 -0.8416
  395MOL0     H54469  12.057   2.335  10.757  2.3842 -2.0502  0.0467
  395MOL0     H54470  12.187   2.462  10.743  2.7104 -0.6244 -1.1581
  395MOL0     H54471  12.183   2.317  10.643 -0.8069 -0.7360  0.9120
  395MOL0     H54472  12.534   2.516  10.375  0.8594  0.4821  0.2768
  395MOL0     H54473  12.700   2.666  10.286  0.1440  0.6172  0.9224
  395MOL0     H54474  12.612   3.007  10.203  1.2336  2.7251  0.2674
  395MOL0     H54475  12.738   2.903  10.274  1.9997 -0.2867 -1.1012
  395MOL0     H54476  12.779   3.056  10.023  0.5746 -3.9034 -0.4553
  395MOL0     H54477  12.773   3.146  10.185 -0.7912 -1.5399  1.9010
  395MOL0     H54478  12.956   2.902  10.121 -2.4231 -0.8627  0.2722
  395MOL0     H54479  12.959   3.000  10.265 -2.0683 -0.9198  0.2428
  395MOL0     H54480  13.014   3.204  10.095  0.7108  0.7335 -1.4870
  395MOL0     H54481  13.033   3.067   9.987  0.6581 -4.3908  0.8847
  395MOL0     H54482  13.192   3.076  10.249  1.0359 -1.2369 -0.9018
  395MOL0     H54483  13.243   2.999  10.109  1.9334  0.3420  0.0696
  395MOL0     H54484  13.230   3.306  10.157 -0.3528  0.6381 -2.3954
  395MOL0     H54485  13.256   3.228   9.997  0.0776  1.5651 -0.7113
  395MOL0     H54486  13.457   3.111  10.107 -2.4787 -0.6516 -1.3678
  395MOL0     H54487  13.414   3.215  10.244 -0.0379 -3.0204  0.8653
  395MOL0     H54488  13.467   3.373   9.986  2.2216 -0.5324 -0.7331
  395MOL0     H54489  13.605   3.289  10.069  0.4182  0.3175  1.4640
  395MOL0     H54490  12.408   2.852  10.034  0.5139 -0.9544 -2.9951
  395MOL0     H54491  12.238   2.710  10.115  1.0919 -0.5727 -2.2302
  395MOL0     H54492  12.017   2.604  10.265 -2.4135  0.4333 -0.5798
  395MOL0     H54493  11.777   2.585  10.329 -0.2791 -0.4398 -0.4312
  395MOL0     H54494  11.177   3.639  11.282 -2.6845  1.5544 -1.1412
  395MOL0     H54495  11.123   3.868  11.248 -0.5264  1.3614  1.1433
  395MOL0     H54496  10.982   4.329  11.207  0.4343  2.2061 -0.5873
  395MOL0     H54497  10.961   4.572  11.255  2.6363  1.7769  0.3852
  395MOL0     H54498  11.146   4.756  11.623  0.0880 -0.5488 -0.8520
  395MOL0     H54499  11.120   4.891  11.529 -2.0340  1.5495  1.9688
  395MOL0     H54500  10.979   4.849  11.713  1.8303  1.3916 -0.6602
  395MOL0     H54501  10.907   4.697  11.638 -1.5268  1.0060 -2.7031
  395MOL0     H54502  10.866   4.970  11.502 -2.2441  1.6001  1.4582
  395MOL0     H54503  10.823   4.810  11.441 -1.2947 -1.7109  1.2700
  395MOL0     H54504  10.714   4.938  11.686 -1.4966  1.7836 -1.2514
  395MOL0     H54505  10.687   4.763  11.638 -0.8201  0.0135 -1.1415
  395MOL0     H54506  10.444   4.994  11.375  1.0731  2.4567  0.9008
  395MOL0     H54507  11.170   4.541  11.614 -1.5555 -0.4369  0.4523
  395MOL0     H54508  11.269   4.353  11.669 -2.1906  0.7817  0.7231
  395MOL0     H54509  11.128   4.248  11.705 -0.0424  0.0829  1.6205
  395MOL0     H54510  11.254   4.203  11.577 -1.5090  1.2008 -3.3224
  396MOL0     O54511  11.008   9.842   9.773  0.4660  0.1245  0.0534
  396MOL0     C54512  11.065   9.793   9.872 -0.6135 -0.7534  0.0668
  396MOL0     O54513  11.002   9.739   9.981  0.2509 -0.1844 -0.3182
  396MOL0     C54514  10.866   9.731   9.983 -0.8025 -0.0989  1.3612
  396MOL0     C54515  10.785   9.827  10.049 -0.5215  0.0960  0.3210
  396MOL0     C54516  10.643   9.811  10.047 -0.7861 -0.1068 -0.2403
  396MOL0     C54517  10.588   9.700   9.984  1.1341  0.8527 -0.0701
  396MOL0     O54518  10.451   9.672   9.984  0.3857 -0.0006 -0.3569
  396MOL0     C54519  10.379   9.693  10.104  0.1908 -0.0909 -0.7151
  396MOL0     C54520  10.248   9.626  10.090  0.4967  0.7022 -0.7526
  396MOL0     C54521  10.139   9.683  10.178  0.0295  0.0355 -0.8374
  396MOL0     C54522  10.098   9.828  10.130  0.0535  0.5365 -0.5170
  396MOL0     C54523  10.005   9.910  10.225  0.1759  0.1037 -0.2960
  396MOL0     C54524  10.011  10.055  10.188  0.6509  0.4770  0.1586
  396MOL0     C54525   9.877  10.127  10.236  0.6956  0.4099 -0.5333
  396MOL0     C54526   9.890  10.275  10.225  0.0862 -0.2956  0.4325
  396MOL0     N54527   9.757  10.338  10.244  0.1759  0.3035  0.1313
  396MOL0     C54528   9.695  10.328  10.366  0.0219 -0.0189  0.0336
  396MOL0     C54529   9.594  10.415  10.352  0.0609  0.2804  0.4030
  396MOL0     C54530   9.498  10.468  10.459 -0.4940  0.1250  0.4958
  396MOL0     C54531   9.537  10.607  10.494  0.2885 -0.2331  0.3203
  396MOL0     C54532   9.542  10.637  10.642  0.1091 -0.4601 -0.3886
  396MOL0     C54533   9.625  10.544  10.731  0.3797  0.2161  0.3469
  396MOL0     O54534   9.750  10.529  10.664 -0.3976  0.1176  0.2087
  396MOL0     C54535   9.845  10.449  10.714 -0.2583  0.2058 -0.6953
  396MOL0     C54536   9.934  10.386  10.625 -0.1345  0.5054  0.0974
  396MOL0     C54537  10.038  10.301  10.667 -1.0145  0.4488 -0.4521
  396MOL0     C54538  10.120  10.225  10.560  0.4067 -0.0322  0.4935
  396MOL0     C54539  10.071  10.289  10.806  0.4739 -0.2700 -0.6328
  396MOL0     C54540  10.174  10.202  10.871  0.6645 -0.5611 -0.1367
  396MOL0     O54541  10.207  10.233  10.995  0.4846 -0.2046  0.0461
  396MOL0     C54542  10.227  10.139  11.094 -0.0621  0.3600  0.7256
  396MOL0     C54543  10.332  10.172  11.185  0.0249  0.2496  0.4651
  396MOL0     C54544  10.364  10.082  11.284  0.6096 -0.4213 -0.7971
  396MOL0     C54545  10.283   9.971  11.316  0.1822 -0.1128 -0.2234
  396MOL0     O54546  10.296   9.884  11.422  0.5936 -0.7199 -0.5567
  396MOL0     C54547  10.356   9.929  11.545  0.5329 -0.7387 -0.0406
  396MOL0     C54548  10.496   9.883  11.544 -0.4783 -0.1981 -0.2133
  396MOL0     C54549  10.563   9.912  11.677 -0.0419 -0.5686  0.4418
  396MOL0     C54550  10.714   9.900  11.657  0.6183  0.6664  1.4756
  396MOL0     C54551  10.793   9.976  11.759 -0.2752  1.1611  0.6009
  396MOL0     C54552  10.945   9.989  11.721 -0.0779 -0.0922  0.6223
  396MOL0     C54553  11.025  10.059  11.831 -0.4632  0.0504 -0.6495
  396MOL0     C54554  11.166  10.077  11.764 -1.0697 -0.3780  0.6488
  396MOL0    Cl54555  11.265  10.177  11.867  0.0872  0.4275  0.4071
  396MOL0     C54556  10.175   9.945  11.229 -0.1469  0.0779 -0.3863
  396MOL0     C54557  10.152  10.023  11.113  0.3700  0.4503 -0.4420
  396MOL0     O54558  10.224  10.112  10.807 -0.1077 -0.7008  0.5222
  396MOL0     C54559   9.989  10.361  10.896  0.7280 -0.0187 -1.0478
  396MOL0     C54560   9.878  10.442  10.850  0.3043  0.8012  0.1056
  396MOL0     N54561   9.586  10.469  10.221  0.9136 -0.1228 -0.2320
  396MOL0     N54562   9.693  10.429  10.166 -0.8338  0.0270  0.0051
  396MOL0     C54563  10.672   9.615   9.907  0.4388 -0.0900 -0.1067
  396MOL0     C54564  10.805   9.622   9.913 -0.3213 -0.0050  0.2570
  396MOL0     C54565  11.210   9.769   9.870  0.1754  0.2226  0.5909
  396MOL0     C54566  11.275   9.747   9.989 -0.5876  0.2108  0.5660
  396MOL0     C54567  11.414   9.717   9.996  0.3713 -0.1119  0.7527
  396MOL0     C54568  11.494   9.716   9.882  0.1970  0.0996 -0.8392
  396MOL0     O54569  11.632   9.677   9.883  0.7877 -0.2693 -0.2231
  396MOL0     C54570  11.708   9.753   9.786 -0.0012 -0.2631  0.3190
  396MOL0     C54571  11.851   9.752   9.821  0.6490 -0.2150 -0.1027
  396MOL0     C54572  11.933   9.800   9.695  0.1506  0.0120 -0.0137
  396MOL0     C54573  12.087   9.790   9.730  0.3651 -0.4315  0.4406
  396MOL0     C54574  12.156   9.885   9.649  0.2061  0.2037 -0.1026
  396MOL0     C54575  12.206   9.971   9.580 -0.3330 -0.8642 -0.1197
  396MOL0     C54576  11.425   9.734   9.758 -0.8093 -0.5978 -0.4664
  396MOL0     C54577  11.289   9.752   9.743  0.3905  0.1541 -0.8235
  396MOL0     C54578  11.231   9.743   9.603  0.3645 -0.2447 -0.0860
  396MOL0     H54579  10.825   9.909  10.107 -2.5377  1.5653 -0.2510
  396MOL0     H54580  10.584   9.870  10.116  1.2643  1.4436  0.2744
  396MOL0     H54581  10.367   9.799  10.124 -0.1257 -0.4199  0.9807
  396MOL0     H54582  10.431   9.657  10.193 -1.8824  0.2035  0.6786
  396MOL0     H54583  10.210   9.645   9.989  0.0892 -1.6115 -1.0858
  396MOL0     H54584  10.252   9.518  10.107 -3.5878  0.8620  3.0512
  396MOL0     H54585  10.047   9.624  10.180 -0.1590  0.3564  0.4218
  396MOL0     H54586  10.181   9.691  10.278  0.4814  2.9412 -1.1730
  396MOL0     H54587  10.185   9.885  10.096 -0.7096  1.2244 -1.3472
  396MOL0     H54588  10.029   9.810  10.048 -2.7916  1.4850  1.5138
  396MOL0     H54589  10.043   9.897  10.326 -0.0100  0.5064 -0.1747
  396MOL0     H54590   9.904   9.868  10.214 -0.8042  2.2633  0.0885
  396MOL0     H54591  10.090  10.114  10.237  0.4897  0.6189  0.2497
  396MOL0     H54592  10.018  10.057  10.079 -2.7016  0.1785 -0.1578
  396MOL0     H54593   9.854  10.098  10.339 -0.3710  1.3032 -0.5011
  396MOL0     H54594   9.791  10.089  10.180 -0.9588  0.8698  1.5634
  396MOL0     H54595   9.968  10.307  10.295 -0.3814  0.2734  0.7009
  396MOL0     H54596   9.919  10.291  10.121  1.4206 -1.6137  0.5696
  396MOL0     H54597   9.731  10.283  10.459 -0.7692  0.9237  0.8143
  396MOL0     H54598   9.483  10.399  10.543 -0.9513  1.7765  1.8220
  396MOL0     H54599   9.406  10.479  10.400  0.3957  0.3764 -0.9155
  396MOL0     H54600   9.637  10.632  10.458  0.3102  2.1853  1.8215
  396MOL0     H54601   9.463  10.672  10.447  0.8190 -0.5288 -0.9624
  396MOL0     H54602   9.572  10.742  10.652 -3.1326  0.4514  1.1117
  396MOL0     H54603   9.440  10.647  10.680  0.0507  0.5541 -0.7872
  396MOL0     H54604   9.643  10.592  10.828 -0.9514 -2.0072  1.7687
  396MOL0     H54605   9.572  10.449  10.742 -0.3866  0.2613 -2.3661
  396MOL0     H54606   9.919  10.410  10.521 -1.2576 -2.2944 -0.4746
  396MOL0     H54607  10.228  10.226  10.582 -0.1727  1.2164  3.8022
  396MOL0     H54608  10.099  10.273  10.464 -0.8706 -0.3266  0.6119
  396MOL0     H54609  10.088  10.124  10.532 -0.0038 -0.5869  2.8049
  396MOL0     H54610  10.384  10.264  11.159 -1.1077  0.4429 -1.2774
  396MOL0     H54611  10.435  10.127  11.353 -0.2970  0.4495 -0.4225
  396MOL0     H54612  10.346  10.036  11.563 -3.0124 -0.2960 -3.3822
  396MOL0     H54613  10.306   9.877  11.627  0.4681  0.5806  0.7840
  396MOL0     H54614  10.510   9.777  11.522  0.2973 -0.1447 -0.0033
  396MOL0     H54615  10.538   9.949  11.468 -2.6186  0.3993 -0.9761
  396MOL0     H54616  10.523   9.845  11.754  1.3262 -0.4732  1.2776
  396MOL0     H54617  10.539  10.017  11.695  4.4261  0.7006  0.1502
  396MOL0     H54618  10.746   9.935  11.558  1.0201  1.2301  1.7968
  396MOL0     H54619  10.739   9.794  11.669 -1.1211 -0.0247 -0.5120
  396MOL0     H54620  10.746  10.070  11.788  2.5669  2.3470  1.7447
  396MOL0     H54621  10.799   9.921  11.853 -0.9253 -2.8515 -1.4810
  396MOL0     H54622  10.966  10.039  11.626  0.1939 -0.4742  0.4778
  396MOL0     H54623  10.985   9.887  11.714  0.1602 -0.1312  2.1626
  396MOL0     H54624  11.031  10.006  11.927 -1.3479  1.6159  0.3127
  396MOL0     H54625  10.983  10.155  11.862  0.9956  1.1037 -1.7799
  396MOL0     H54626  11.170  10.112  11.660 -3.0245  1.7862  1.1920
  396MOL0     H54627  11.219   9.982  11.766  1.1707  0.8046  3.1811
  396MOL0     H54628  10.116   9.855  11.243 -1.0191  0.4992 -1.2396
  396MOL0     H54629  10.069   9.999  11.047  1.7359  0.0748 -2.1019
  396MOL0     H54630  10.007  10.351  11.002  3.2712  1.0528 -1.3189
  396MOL0     H54631   9.836  10.512  10.921  1.0114  1.0721  0.2741
  396MOL0     H54632  10.628   9.537   9.847  0.9025 -2.9233  2.9585
  396MOL0     H54633  10.860   9.546   9.858 -2.4146  0.1257 -2.2278
  396MOL0     H54634  11.213   9.753  10.078 -0.3342 -1.5351  0.8879
  396MOL0     H54635  11.455   9.692  10.093  1.4371 -3.7500 -0.4875
  396MOL0     H54636  11.698   9.715   9.684  1.8884  2.2257 -0.9009
  396MOL0     H54637  11.685   9.860   9.790 -0.2126 -0.2991  0.0455
  396MOL0     H54638  11.877   9.648   9.840 -0.3800 -1.0835 -2.8978
  396MOL0     H54639  11.875   9.815   9.907 -0.6620  0.6876 -0.3726
  396MOL0     H54640  11.913   9.735   9.609 -0.4912  1.2785 -0.8524
  396MOL0     H54641  11.915   9.906   9.676  0.2621  0.0789  0.2503
  396MOL0     H54642  12.118   9.686   9.720  0.6027 -0.4285  1.0752
  396MOL0     H54643  12.099   9.819   9.835 -1.2689  3.2064 -0.2274
  396MOL0     H54644  12.270  10.026   9.514 -0.1495 -0.4504  0.3907
  396MOL0     H54645  11.477   9.722   9.663  3.6551  3.3346  1.1050
  396MOL0     H54646  11.164   9.658   9.589  0.2701 -0.1913  0.0376
  396MOL0     H54647  11.183   9.837   9.576 -1.8674 -1.7851 -1.8245
  396MOL0     H54648  11.310   9.729   9.528 -1.8193 -2.5188 -2.1568
  397MOL0     O54649   4.077   5.472   6.412  0.8344  0.1564  0.6701
  397MOL0     C54650   4.023   5.584   6.414 -0.0758 -0.0547  0.7221
  397MOL0     O54651   4.058   5.686   6.501  0.0186  0.5060 -0.2479
  397MOL0     C54652   4.169   5.661   6.578 -0.2135 -0.5800  0.3242
  397MOL0     C54653   4.163   5.668   6.715  0.4567  0.5175  0.2119
  397MOL0     C54654   4.264   5.622   6.795 -0.4181 -0.7811  0.6265
  397MOL0     C54655   4.381   5.573   6.740  0.2856 -0.7886 -0.8799
  397MOL0     O54656   4.483   5.517   6.818  0.1642 -0.1617  0.0431
  397MOL0     C54657   4.583   5.613   6.860  0.1956  0.1208  0.5847
  397MOL0     C54658   4.707   5.525   6.901 -0.0121 -0.1353 -0.4661
  397MOL0     C54659   4.766   5.441   6.788  0.8050  0.1909 -0.6402
  397MOL0     C54660   4.866   5.522   6.708 -0.3849 -1.1071  0.3577
  397MOL0     C54661   4.918   5.436   6.594 -0.1071 -0.0664  0.5139
  397MOL0     C54662   5.033   5.508   6.512 -0.0985  0.0652  0.0278
  397MOL0     C54663   5.104   5.415   6.412 -0.3386 -0.3023 -0.5700
  397MOL0     C54664   5.003   5.376   6.310 -0.1489 -0.8686  0.7322
  397MOL0     N54665   5.080   5.305   6.203  0.7300 -1.1763  0.5901
  397MOL0     C54666   5.166   5.361   6.112 -0.4496  0.9364  0.1123
  397MOL0     C54667   5.204   5.251   6.030  0.3169 -1.1117 -0.4563
  397MOL0     C54668   5.296   5.268   5.911 -0.6746 -0.3504  0.3595
  397MOL0     C54669   5.440   5.218   5.935 -0.3454  0.0824  0.6808
  397MOL0     C54670   5.532   5.228   5.808 -0.2108 -0.7201  1.0397
  397MOL0     C54671   5.674   5.190   5.836 -0.2478 -1.0469  1.4834
  397MOL0     O54672   5.731   5.273   5.932  0.3929 -0.7245 -0.2899
  397MOL0     C54673   5.856   5.234   5.992 -0.3363  1.0257 -1.0549
  397MOL0     C54674   5.871   5.202   6.129  0.4799  1.0295 -0.3774
  397MOL0     C54675   5.987   5.149   6.183 -0.5385 -0.1703  0.0717
  397MOL0     C54676   5.980   5.090   6.328 -0.0131 -0.3026 -0.1817
  397MOL0     C54677   6.102   5.134   6.103 -0.2416  0.4988  0.2158
  397MOL0     C54678   6.240   5.100   6.148  0.4265  0.3437  0.1728
  397MOL0     O54679   6.308   5.023   6.075 -0.6966  0.0746 -0.1346
  397MOL0     C54680   6.441   5.049   6.028  0.3337  0.1672  0.7752
  397MOL0     C54681   6.540   4.997   6.105  0.3697  0.5395 -0.2073
  397MOL0     C54682   6.669   5.021   6.075 -0.9608  0.3808  0.2327
  397MOL0     C54683   6.703   5.110   5.973 -0.4379  0.0311  0.3968
  397MOL0     O54684   6.827   5.128   5.926  0.1767 -0.3551  0.1106
  397MOL0     C54685   6.932   5.152   6.016 -0.1520  0.6885  0.1417
  397MOL0     C54686   7.069   5.150   5.942  0.3550  0.7591 -0.3006
  397MOL0     C54687   7.190   5.178   6.037 -0.6379 -0.3191  0.6147
  397MOL0     C54688   7.198   5.099   6.169  0.6929 -0.4911  0.0369
  397MOL0     C54689   7.329   5.142   6.249  0.0709 -0.3074 -0.4447
  397MOL0     C54690   7.325   5.120   6.401 -0.4094 -0.1799  0.1635
  397MOL0     C54691   7.404   5.001   6.417 -0.4033  0.2379  0.3366
  397MOL0     C54692   7.453   4.980   6.563  0.0782  0.1163  0.1634
  397MOL0    Cl54693   7.316   4.947   6.675 -0.6360 -0.7135  0.0252
  397MOL0     C54694   6.601   5.171   5.898  0.1775 -0.0198 -0.1577
  397MOL0     C54695   6.468   5.131   5.925 -0.4149  0.1883  0.1110
  397MOL0     O54696   6.273   5.167   6.251 -0.1160  0.5867 -0.1328
  397MOL0     C54697   6.085   5.161   5.965  0.8522  0.6418  0.1603
  397MOL0     C54698   5.968   5.208   5.909 -0.1580 -0.1513  0.7605
  397MOL0     N54699   5.136   5.140   6.081 -0.0713 -0.3833  0.3750
  397MOL0     N54700   5.059   5.175   6.177  0.1931 -0.1384 -0.5322
  397MOL0     C54701   4.401   5.581   6.602 -0.1504 -1.0774 -0.0001
  397MOL0     C54702   4.293   5.616   6.519  0.4973  0.0419  0.4370
  397MOL0     C54703   3.915   5.608   6.325  0.8045 -0.8444  0.0730
  397MOL0     C54704   3.935   5.709   6.240 -0.4817 -0.1876  0.4015
  397MOL0     C54705   3.845   5.739   6.136  0.3571  0.2716  0.2170
  397MOL0     C54706   3.736   5.654   6.109  0.5824  0.1176  0.1970
  397MOL0     O54707   3.648   5.687   6.008 -0.0904 -0.1453 -0.6207
  397MOL0     C54708   3.567   5.580   5.952  0.6912  1.0087  0.4664
  397MOL0     C54709   3.503   5.611   5.814  0.8599 -0.3983  0.0287
  397MOL0     C54710   3.389   5.710   5.833  0.0477  0.0360  0.9487
  397MOL0     C54711   3.313   5.772   5.716 -0.0841  0.2264  0.6751
  397MOL0     C54712   3.222   5.879   5.762  0.6515  0.0254 -0.2332
  397MOL0     C54713   3.161   5.970   5.802 -0.0598 -0.4470  1.1196
  397MOL0     C54714   3.722   5.544   6.192  0.4807 -0.3561  0.3040
  397MOL0     C54715   3.801   5.526   6.303 -0.3309  1.1250  0.3370
  397MOL0     C54716   3.771   5.414   6.406  0.5953  0.3514  0.6213
  397MOL0     H54717   4.072   5.713   6.754 -0.5825  0.6328 -2.1985
  397MOL0     H54718   4.260   5.622   6.904 -3.1843 -1.1088  0.5790
  397MOL0     H54719   4.553   5.674   6.946  0.2814 -0.6586  1.1825
  397MOL0     H54720   4.612   5.693   6.792 -0.1798  0.5593  0.9318
  397MOL0     H54721   4.784   5.583   6.952  1.4651  0.5128 -3.2280
  397MOL0     H54722   4.672   5.458   6.980 -0.4004  0.2671 -0.2979
  397MOL0     H54723   4.808   5.347   6.827  1.2526  1.1304  1.2791
  397MOL0     H54724   4.689   5.405   6.719  0.2162  0.3667 -0.0847
  397MOL0     H54725   4.817   5.611   6.666  0.7878 -1.3139 -1.5702
  397MOL0     H54726   4.951   5.554   6.769  0.6458 -3.5529  0.3150
  397MOL0     H54727   4.835   5.407   6.529 -0.0838 -2.9833  1.6013
  397MOL0     H54728   4.953   5.340   6.635 -0.8986 -0.0731  1.1945
  397MOL0     H54729   5.002   5.595   6.453  2.0655 -0.1826 -1.5830
  397MOL0     H54730   5.107   5.531   6.589  1.0911 -2.6389 -0.1846
  397MOL0     H54731   5.146   5.327   6.462  0.6672 -1.0903 -2.6424
  397MOL0     H54732   5.190   5.463   6.362 -0.9419  0.1042 -1.2385
  397MOL0     H54733   4.933   5.303   6.352 -0.5142 -1.7659 -1.3339
  397MOL0     H54734   4.951   5.460   6.263 -1.2143 -2.5253 -1.1958
  397MOL0     H54735   5.188   5.465   6.093  0.3243  0.5879 -0.9549
  397MOL0     H54736   5.298   5.374   5.885 -1.6750 -0.6346 -1.0556
  397MOL0     H54737   5.253   5.217   5.824 -0.5603 -1.5975  1.0145
  397MOL0     H54738   5.480   5.275   6.019 -2.0650  0.5613  1.2050
  397MOL0     H54739   5.418   5.112   5.954 -0.9095  0.2945  1.2427
  397MOL0     H54740   5.485   5.166   5.732 -0.6611 -0.2371  0.9208
  397MOL0     H54741   5.539   5.332   5.775  3.1120 -0.6903  1.4789
  397MOL0     H54742   5.669   5.083   5.861  0.6566 -1.4540  0.0562
  397MOL0     H54743   5.738   5.192   5.747  0.6288  0.5442  2.1220
  397MOL0     H54744   5.781   5.209   6.189 -0.3798  1.3524 -1.6635
  397MOL0     H54745   5.956   4.984   6.315 -1.2027 -0.1282  0.4575
  397MOL0     H54746   5.894   5.125   6.385 -0.2898 -2.5663  0.8806
  397MOL0     H54747   6.068   5.100   6.393 -0.4761 -0.5068  0.4862
  397MOL0     H54748   6.498   4.938   6.186 -1.2862  0.9202 -0.7446
  397MOL0     H54749   6.751   4.975   6.129 -2.4161 -3.8505 -0.7204
  397MOL0     H54750   6.914   5.250   6.062 -4.3333 -1.2754  3.4057
  397MOL0     H54751   6.930   5.075   6.094  4.3489  1.0630  0.8609
  397MOL0     H54752   7.075   5.056   5.886 -2.0081  0.2226  0.2429
  397MOL0     H54753   7.068   5.229   5.865 -2.2844  0.1471 -0.9779
  397MOL0     H54754   7.172   5.284   6.058 -1.3531 -0.1567 -0.7172
  397MOL0     H54755   7.283   5.161   5.981 -2.7314 -3.6209 -2.2601
  397MOL0     H54756   7.200   4.990   6.158  2.6698 -0.4657 -0.2340
  397MOL0     H54757   7.106   5.124   6.223  0.3121  4.2621 -2.3251
  397MOL0     H54758   7.410   5.089   6.198 -0.5494 -0.1666 -1.5948
  397MOL0     H54759   7.358   5.246   6.236 -1.6262  0.5875  2.1213
  397MOL0     H54760   7.232   5.090   6.451 -0.6301 -1.1684 -0.8125
  397MOL0     H54761   7.357   5.207   6.460 -0.6670 -1.7021  2.7212
  397MOL0     H54762   7.489   4.999   6.348  0.4206 -2.1962  1.3087
  397MOL0     H54763   7.340   4.913   6.404  0.7870 -1.0264  2.3648
  397MOL0     H54764   7.510   5.068   6.595 -1.0494  0.1341  2.3635
  397MOL0     H54765   7.519   4.896   6.585  0.5864 -0.2230 -2.3297
  397MOL0     H54766   6.622   5.253   5.831 -0.3722  0.6599  0.4909
  397MOL0     H54767   6.394   5.178   5.861  1.0088  1.1141 -0.9207
  397MOL0     H54768   6.164   5.144   5.894  1.0556  2.1279 -0.0008
  397MOL0     H54769   5.977   5.217   5.801 -3.0579 -1.5316  0.3164
  397MOL0     H54770   4.493   5.536   6.565  0.1423  0.1955 -0.8984
  397MOL0     H54771   4.288   5.624   6.411 -3.0410  2.1108  0.5897
  397MOL0     H54772   4.027   5.765   6.257  0.8420 -2.1600  0.1384
  397MOL0     H54773   3.857   5.832   6.082  1.0856  1.1024  1.7440
  397MOL0     H54774   3.632   5.495   5.929  2.5424  1.6912  2.7390
  397MOL0     H54775   3.487   5.544   6.017  0.4598  0.0170 -0.3421
  397MOL0     H54776   3.468   5.513   5.780  2.3196 -0.4252 -1.5332
  397MOL0     H54777   3.576   5.654   5.745 -1.7845  2.0457 -1.4673
  397MOL0     H54778   3.315   5.666   5.901 -0.5980  0.4118  0.5021
  397MOL0     H54779   3.444   5.783   5.892  1.3069 -1.3415  1.5487
  397MOL0     H54780   3.252   5.693   5.671 -0.6454  0.5984  0.7693
  397MOL0     H54781   3.382   5.823   5.648 -1.1044 -0.2867 -0.7916
  397MOL0     H54782   3.105   6.058   5.827 -1.6105 -0.7482 -1.0618
  397MOL0     H54783   3.648   5.471   6.159  0.1903  0.1294 -0.1402
  397MOL0     H54784   3.663   5.393   6.400  0.8176 -0.5263 -0.8760
  397MOL0     H54785   3.827   5.329   6.366 -0.8295  1.2990 -3.9422
  397MOL0     H54786   3.807   5.447   6.504 -1.7500  0.6014  1.4870
  398MOL0     O54787   2.034   1.882   1.577  0.3701 -0.1859 -0.3980
  398MOL0     C54788   1.965   1.950   1.499  0.2163 -1.3458 -0.0013
  398MOL0     O54789   2.012   2.027   1.400  0.3321 -0.4728  0.6105
  398MOL0     C54790   2.146   2.016   1.366 -0.3766 -0.8958 -0.6265
  398MOL0     C54791   2.178   1.955   1.246  0.0855  0.3365  0.2760
  398MOL0     C54792   2.308   1.934   1.203  0.5541 -0.1176  0.3732
  398MOL0     C54793   2.416   1.968   1.296  0.3588  0.2067 -0.9861
  398MOL0     O54794   2.550   1.932   1.279  0.1841  0.2966 -0.1471
  398MOL0     C54795   2.603   1.896   1.147  1.7789 -0.5632 -0.4893
  398MOL0     C54796   2.614   1.746   1.113  0.1283 -0.5645  0.1683
  398MOL0     C54797   2.688   1.669   1.222 -0.1669 -0.1317  0.3654
  398MOL0     C54798   2.693   1.521   1.182 -0.5281  0.9414 -0.0973
  398MOL0     C54799   2.716   1.419   1.301 -0.3233 -0.6997 -0.2790
  398MOL0     C54800   2.848   1.439   1.373 -0.0041  0.7163 -0.2153
  398MOL0     C54801   2.887   1.318   1.449  0.8101 -0.5398 -0.2079
  398MOL0     C54802   3.020   1.359   1.517  0.5155  1.0118 -0.8457
  398MOL0     N54803   3.149   1.305   1.468 -0.3192  0.2968 -0.8561
  398MOL0     C54804   3.219   1.349   1.360 -0.8779  0.3340  0.0570
  398MOL0     C54805   3.351   1.289   1.368  0.1555  1.1774 -0.1448
  398MOL0     C54806   3.451   1.285   1.258 -0.0384  0.0790  0.3243
  398MOL0     C54807   3.498   1.426   1.202  0.0820  0.6747 -0.3197
  398MOL0     C54808   3.570   1.499   1.318 -0.6713  0.4461 -0.5350
  398MOL0     C54809   3.709   1.548   1.266 -0.5269  0.3492 -0.1015
  398MOL0     O54810   3.717   1.607   1.134  0.4007  0.0981  0.4795
  398MOL0     C54811   3.691   1.742   1.106  0.3561 -0.2627 -0.4925
  398MOL0     C54812   3.709   1.785   0.975  0.8375 -0.0699  0.5429
  398MOL0     C54813   3.673   1.911   0.926  0.0869 -0.5238  0.1945
  398MOL0     C54814   3.711   1.945   0.779 -0.5773  0.0246 -0.2390
  398MOL0     C54815   3.622   2.002   1.024 -0.4236 -0.2403  1.2377
  398MOL0     C54816   3.583   2.137   0.977  0.6460 -0.1144  0.2178
  398MOL0     O54817   3.575   2.220   1.088 -0.7295 -0.4456 -0.4665
  398MOL0     C54818   3.515   2.335   1.058  0.6600  0.1586  0.3620
  398MOL0     C54819   3.388   2.359   1.095  0.0012 -0.2656 -0.1709
  398MOL0     C54820   3.319   2.475   1.052  0.7296 -0.7384  0.5413
  398MOL0     C54821   3.384   2.577   0.982 -0.9660 -0.5350 -0.5225
  398MOL0     O54822   3.327   2.693   0.944  0.2293  0.1856  0.1081
  398MOL0     C54823   3.183   2.718   0.984 -0.7162  0.5406  0.1461
  398MOL0     C54824   3.145   2.860   0.961 -0.6135 -0.5463 -0.1287
  398MOL0     C54825   2.997   2.874   0.914 -0.3111  0.5552  0.1745
  398MOL0     C54826   2.930   3.014   0.923 -0.4890 -0.3612 -0.3758
  398MOL0     C54827   2.784   3.017   0.880 -0.5743  0.4693 -0.1247
  398MOL0     C54828   2.762   3.003   0.728 -0.0324 -0.4724  0.6560
  398MOL0     C54829   2.611   2.994   0.705  0.3344 -0.2449 -0.3793
  398MOL0     C54830   2.567   2.983   0.558  0.5610 -0.3082 -0.1278
  398MOL0    Cl54831   2.624   2.833   0.485  0.5167  0.2065  0.4630
  398MOL0     C54832   3.517   2.556   0.953 -0.2392  0.5614  0.5724
  398MOL0     C54833   3.581   2.433   0.978  0.4711 -0.2405  0.2966
  398MOL0     O54834   3.558   2.171   0.860  0.7197  0.0771  0.0048
  398MOL0     C54835   3.601   1.960   1.155 -0.5056 -0.9250 -0.1459
  398MOL0     C54836   3.644   1.834   1.202 -0.3658 -0.8050  0.3869
  398MOL0     N54837   3.352   1.212   1.485  0.5067  0.0878  0.3905
  398MOL0     N54838   3.233   1.218   1.538 -0.2087 -0.0010  0.0145
  398MOL0     C54839   2.379   2.032   1.413  0.2873 -0.1929 -0.2902
  398MOL0     C54840   2.252   2.068   1.447 -0.1053  0.1011 -0.4489
  398MOL0     C54841   1.810   1.950   1.523  0.0969 -0.3834 -0.2425
  398MOL0     C54842   1.767   1.944   1.659 -0.0915 -0.0078  0.3735
  398MOL0     C54843   1.633   1.930   1.701 -0.5543 -0.4710 -0.6157
  398MOL0     C54844   1.541   1.915   1.595 -0.2743 -0.0946  0.8435
  398MOL0     O54845   1.416   1.915   1.639  0.4327 -0.7168  0.4286
  398MOL0     C54846   1.312   1.885   1.547  0.5158  0.0487  0.1791
  398MOL0     C54847   1.185   1.913   1.625 -0.4285 -0.0494 -0.6664
  398MOL0     C54848   1.072   1.838   1.556 -0.7986 -0.3198 -0.2569
  398MOL0     C54849   0.948   1.846   1.648  0.0606  0.6802 -0.5411
  398MOL0     C54850   0.889   1.979   1.654  0.5724  1.0799  0.6927
  398MOL0     C54851   0.856   2.089   1.672  0.8406 -0.0331  0.7750
  398MOL0     C54852   1.578   1.927   1.455  0.1077  0.7255 -0.3677
  398MOL0     C54853   1.715   1.943   1.417  0.4879 -0.0632 -0.4656
  398MOL0     C54854   1.758   1.924   1.276  0.0226 -0.1981  0.3742
  398MOL0     H54855   2.099   1.923   1.179  0.3795 -1.2242  0.6333
  398MOL0     H54856   2.330   1.881   1.111  1.0492  1.9531 -0.7727
  398MOL0     H54857   2.700   1.947   1.146  0.3028  2.6834  2.2617
  398MOL0     H54858   2.544   1.945   1.069 -0.0851 -0.3868  0.9586
  398MOL0     H54859   2.508   1.723   1.099  0.0980  0.4137 -1.5595
  398MOL0     H54860   2.658   1.735   1.013  0.7070  3.7088 -0.2094
  398MOL0     H54861   2.790   1.708   1.230 -0.1733 -0.1654  0.6205
  398MOL0     H54862   2.645   1.689   1.321  1.2603  1.1277  0.7744
  398MOL0     H54863   2.606   1.490   1.124  0.4997 -0.0350 -1.1709
  398MOL0     H54864   2.767   1.514   1.101  1.7234 -1.2124  1.9538
  398MOL0     H54865   2.711   1.325   1.245  1.7193 -0.3469 -1.1387
  398MOL0     H54866   2.642   1.436   1.380  0.3068 -1.9546  0.6112
  398MOL0     H54867   2.926   1.451   1.297 -0.2162 -1.4558 -0.8423
  398MOL0     H54868   2.843   1.530   1.433 -0.1878  0.7091 -0.2193
  398MOL0     H54869   2.892   1.231   1.383 -0.3770 -1.8848  1.3728
  398MOL0     H54870   2.808   1.302   1.524 -2.5568  1.3207 -3.0536
  398MOL0     H54871   3.028   1.468   1.523  3.0950  0.8137  1.2485
  398MOL0     H54872   3.008   1.321   1.619 -2.2405  1.8369 -0.7808
  398MOL0     H54873   3.177   1.394   1.271 -2.2426  1.1528  1.0828
  398MOL0     H54874   3.404   1.220   1.184 -0.5740  0.2677  0.4934
  398MOL0     H54875   3.534   1.226   1.298  1.3657  1.5259 -0.3362
  398MOL0     H54876   3.565   1.404   1.119 -0.1509 -1.6328  0.0593
  398MOL0     H54877   3.411   1.479   1.161  1.1156  2.0183 -0.8587
  398MOL0     H54878   3.511   1.575   1.370  0.7110  1.9682 -1.1341
  398MOL0     H54879   3.588   1.423   1.396 -0.4497  0.8035 -0.2354
  398MOL0     H54880   3.752   1.620   1.336  2.0436 -0.7436 -0.4749
  398MOL0     H54881   3.777   1.463   1.274  1.2976  1.8431  1.0468
  398MOL0     H54882   3.753   1.708   0.911 -1.2180 -1.4316  0.6821
  398MOL0     H54883   3.732   2.048   0.750  5.1249 -1.4711 -2.8481
  398MOL0     H54884   3.631   1.901   0.720 -1.0436 -0.4935  0.7653
  398MOL0     H54885   3.805   1.893   0.758 -1.8312 -1.8801 -1.3548
  398MOL0     H54886   3.336   2.279   1.146  0.5375  0.8340  2.2178
  398MOL0     H54887   3.218   2.477   1.091  0.2164 -3.0053 -0.5315
  398MOL0     H54888   3.119   2.648   0.928 -0.1300  0.6553 -0.6838
  398MOL0     H54889   3.162   2.701   1.090 -2.5830  1.6764  0.0028
  398MOL0     H54890   3.152   2.913   1.056 -1.6873 -1.7353  0.6462
  398MOL0     H54891   3.217   2.907   0.894 -0.5107  2.7336  2.0463
  398MOL0     H54892   2.949   2.804   0.983  0.9009 -1.6343 -1.1000
  398MOL0     H54893   2.991   2.831   0.814 -2.3274 -1.4758  1.0906
  398MOL0     H54894   2.978   3.078   0.848 -1.0003  0.9481  0.3745
  398MOL0     H54895   2.942   3.062   1.020 -2.6853 -1.1106  0.3163
  398MOL0     H54896   2.732   2.934   0.929  0.0644 -0.7275 -1.3949
  398MOL0     H54897   2.737   3.109   0.915 -3.8454 -1.4643  1.0201
  398MOL0     H54898   2.811   2.916   0.683  0.1700 -1.1228  2.0647
  398MOL0     H54899   2.792   3.095   0.676 -0.9771 -0.4588  0.1099
  398MOL0     H54900   2.572   3.092   0.733 -0.2253 -0.2506 -1.1231
  398MOL0     H54901   2.565   2.915   0.765 -0.3381 -0.0391 -0.6173
  398MOL0     H54902   2.611   3.065   0.501 -0.5841  1.8531  1.9148
  398MOL0     H54903   2.459   2.974   0.550  0.2316  1.9382  0.9452
  398MOL0     H54904   3.562   2.635   0.894 -0.3094  1.0117  1.1181
  398MOL0     H54905   3.681   2.402   0.947 -0.2009 -1.0357 -1.1878
  398MOL0     H54906   3.550   2.022   1.228 -1.8471  0.6027 -2.2667
  398MOL0     H54907   3.625   1.812   1.306 -0.6073 -0.7129  0.3627
  398MOL0     H54908   2.459   2.064   1.479  1.2192  1.2132 -2.0069
  398MOL0     H54909   2.247   2.120   1.542  3.0682 -0.7139  0.2760
  398MOL0     H54910   1.836   1.918   1.739  0.1689  0.9143  0.4590
  398MOL0     H54911   1.602   1.929   1.806  0.8148 -3.2745 -0.1605
  398MOL0     H54912   1.316   1.951   1.460  0.6645  1.6046  1.3326
  398MOL0     H54913   1.331   1.778   1.532  3.3028  0.2221  1.8210
  398MOL0     H54914   1.167   2.021   1.636  0.3172  0.1823 -1.5917
  398MOL0     H54915   1.190   1.878   1.728  0.8650 -0.7436 -0.9430
  398MOL0     H54916   1.052   1.891   1.463  0.9256  0.3990 -0.2438
  398MOL0     H54917   1.088   1.731   1.538 -1.7968 -0.5055 -0.1211
  398MOL0     H54918   0.959   1.803   1.748 -1.9973 -0.3503 -0.7064
  398MOL0     H54919   0.877   1.782   1.595  0.5247 -1.2777  1.0727
  398MOL0     H54920   0.822   2.190   1.681 -0.6070 -0.6135  2.1890
  398MOL0     H54921   1.504   1.914   1.377  0.1866 -0.1388 -0.3088
  398MOL0     H54922   1.847   1.860   1.270  1.5393  1.7374  0.8522
  398MOL0     H54923   1.677   1.884   1.215  0.0285  1.2892 -0.6831
  398MOL0     H54924   1.783   2.019   1.226 -1.9865 -0.0035 -0.3442
  399MOL0     O54925   0.627   5.318   8.902 -0.1999 -0.1794 -0.3306
  399MOL0     C54926   0.562   5.414   8.864 -0.1025 -0.6803 -0.3422
  399MOL0     O54927   0.615   5.545   8.843 -0.3144 -0.3985  0.0131
  399MOL0     C54928   0.733   5.584   8.904 -0.1363  0.1836 -0.9985
  399MOL0     C54929   0.759   5.566   9.039 -0.3730  0.8904  0.0538
  399MOL0     C54930   0.874   5.604   9.094 -0.9174 -0.5964  0.9485
  399MOL0     C54931   0.965   5.678   9.016 -0.0134  0.1407  0.7037
  399MOL0     O54932   1.080   5.744   9.063  1.1837 -0.4008  0.0971
  399MOL0     C54933   1.117   5.699   9.189 -0.6794  0.3410 -0.1793
  399MOL0     C54934   1.272   5.722   9.205  0.1712 -0.2458 -0.4597
  399MOL0     C54935   1.333   5.645   9.315  1.2042 -0.2936  0.2041
  399MOL0     C54936   1.267   5.665   9.448 -0.1216 -0.4247 -0.3954
  399MOL0     C54937   1.346   5.589   9.557  0.1148 -0.2214  0.0698
  399MOL0     C54938   1.291   5.615   9.698 -0.5404  0.1853 -0.3546
  399MOL0     C54939   1.367   5.517   9.795  0.1173 -0.8018  0.0384
  399MOL0     C54940   1.333   5.548   9.938  1.5683  0.3070 -0.2986
  399MOL0     N54941   1.391   5.676   9.993  0.1371 -0.5173  0.2012
  399MOL0     C54942   1.515   5.685  10.041  0.0151 -1.5248 -0.6606
  399MOL0     C54943   1.536   5.819  10.058 -0.4507  0.5375  0.0570
  399MOL0     C54944   1.673   5.883  10.080  0.2311 -0.2008 -0.2472
  399MOL0     C54945   1.766   5.869   9.956 -0.1285 -0.4744  0.7139
  399MOL0     C54946   1.731   5.958   9.837 -0.5466  0.0554 -0.7767
  399MOL0     C54947   1.844   5.966   9.735  0.0588 -0.1226  0.1639
  399MOL0     O54948   1.920   6.082   9.769  0.1943 -0.1938  0.0487
  399MOL0     C54949   2.011   6.132   9.678 -0.4929  0.9094 -0.1810
  399MOL0     C54950   2.103   6.042   9.610  0.9227 -0.2254 -0.0540
  399MOL0     C54951   2.193   6.093   9.516  0.3238 -0.3870 -0.5632
  399MOL0     C54952   2.278   5.985   9.456 -0.0147  0.7449 -0.8786
  399MOL0     C54953   2.196   6.230   9.482  0.1657 -0.6008 -0.3506
  399MOL0     C54954   2.289   6.289   9.371 -0.1669 -0.0336 -0.8169
  399MOL0     O54955   2.326   6.422   9.387  0.2388 -0.8427 -0.3641
  399MOL0     C54956   2.448   6.453   9.336 -0.5987 -0.3964 -0.9151
  399MOL0     C54957   2.573   6.427   9.396 -1.0079  0.5944 -0.3583
  399MOL0     C54958   2.698   6.459   9.344  0.4259 -0.1327  0.4158
  399MOL0     C54959   2.701   6.517   9.216  0.1416  0.2791  0.6756
  399MOL0     O54960   2.821   6.541   9.157 -0.7740 -0.2251  0.4204
  399MOL0     C54961   2.844   6.675   9.121 -0.5349 -0.1901  0.6736
  399MOL0     C54962   2.980   6.724   9.192 -0.1915 -0.2583  0.4062
  399MOL0     C54963   2.960   6.771   9.335 -0.1409 -0.4137  0.6636
  399MOL0     C54964   2.891   6.901   9.366  0.7278 -0.2211 -0.6136
  399MOL0     C54965   3.004   7.008   9.367  0.6119 -0.5660  0.7057
  399MOL0     C54966   2.941   7.154   9.380 -0.3853  0.3678 -0.9405
  399MOL0     C54967   2.840   7.171   9.497 -0.0845 -0.0568 -0.5137
  399MOL0     C54968   2.785   7.313   9.508  0.1272  0.4229 -0.7486
  399MOL0    Cl54969   2.703   7.370   9.365 -0.0422  0.2714 -0.2823
  399MOL0     C54970   2.579   6.547   9.153 -0.1517 -0.2356  0.4298
  399MOL0     C54971   2.453   6.514   9.206 -1.3794  0.5950  0.3605
  399MOL0     O54972   2.321   6.224   9.277 -0.3982  0.2782 -0.5247
  399MOL0     C54973   2.113   6.320   9.557 -0.1826  0.2866  0.3080
  399MOL0     C54974   2.026   6.267   9.654  1.0432  0.7415 -0.7852
  399MOL0     N54975   1.421   5.891  10.031  0.9734 -0.1169  0.0444
  399MOL0     N54976   1.334   5.803   9.986  0.2724 -0.1779 -0.4065
  399MOL0     C54977   0.937   5.715   8.881  0.5531  1.0887 -0.3053
  399MOL0     C54978   0.817   5.658   8.822 -0.1865  0.5891  0.2631
  399MOL0     C54979   0.431   5.385   8.805 -0.9519  0.8678  0.4580
  399MOL0     C54980   0.398   5.452   8.686 -0.0084  0.8678 -0.3580
  399MOL0     C54981   0.275   5.443   8.627  0.7058  0.3077 -0.5750
  399MOL0     C54982   0.172   5.360   8.685  0.7508  1.2662 -1.0367
  399MOL0     O54983   0.050   5.355   8.619 -0.0845 -0.0797 -0.4949
  399MOL0     C54984  -0.058   5.285   8.687  0.4272  1.0880  0.2713
  399MOL0     C54985  -0.177   5.267   8.602  0.3061 -0.2509 -0.2669
  399MOL0     C54986  -0.132   5.208   8.471  0.2508 -0.3215  0.5685
  399MOL0     C54987  -0.081   5.070   8.462 -1.2304  0.6286  0.3454
  399MOL0     C54988  -0.178   4.969   8.502  0.5802 -0.4761  0.1806
  399MOL0     C54989  -0.252   4.879   8.524 -0.1407 -0.2604  0.5061
  399MOL0     C54990   0.210   5.283   8.797  0.0778 -0.3486 -0.1378
  399MOL0     C54991   0.336   5.290   8.857  0.3457 -0.7548  0.9258
  399MOL0     C54992   0.360   5.206   8.973  0.5739 -1.1552 -0.0046
  399MOL0     H54993   0.685   5.516   9.101  0.3487 -0.2195  0.0521
  399MOL0     H54994   0.880   5.598   9.202  2.0043  0.6313  0.9411
  399MOL0     H54995   1.112   5.590   9.194  1.1075  0.2639  1.3542
  399MOL0     H54996   1.055   5.746   9.266 -0.4015 -0.1860  0.3722
  399MOL0     H54997   1.331   5.710   9.114  0.2272  1.8369 -0.7343
  399MOL0     H54998   1.281   5.829   9.224 -2.2273  0.1224 -1.1026
  399MOL0     H54999   1.330   5.537   9.299 -0.0908  0.0924 -2.8520
  399MOL0     H55000   1.436   5.682   9.309 -0.2839  4.3088 -1.9371
  399MOL0     H55001   1.266   5.774   9.455  0.3017 -0.2627 -2.4779
  399MOL0     H55002   1.167   5.620   9.450 -0.5714  0.4933 -1.1547
  399MOL0     H55003   1.452   5.615   9.547 -0.9075  3.8342 -2.5979
  399MOL0     H55004   1.325   5.485   9.531 -1.2246 -0.0184  0.3021
  399MOL0     H55005   1.323   5.716   9.724  1.6703 -0.1265 -1.6632
  399MOL0     H55006   1.184   5.593   9.706  0.2363 -3.7625  2.0476
  399MOL0     H55007   1.474   5.531   9.782 -0.1211  1.4640  0.2053
  399MOL0     H55008   1.337   5.413   9.774  0.8736 -1.0926  0.3905
  399MOL0     H55009   1.224   5.552   9.944  1.5415 -1.2036  0.6664
  399MOL0     H55010   1.362   5.463  10.001  1.6500  1.6031  1.4882
  399MOL0     H55011   1.584   5.602  10.028  1.0288 -0.5574 -1.8369
  399MOL0     H55012   1.720   5.832  10.164  0.2839 -0.2295 -0.2947
  399MOL0     H55013   1.662   5.989  10.105  3.0627 -0.0926  0.8400
  399MOL0     H55014   1.868   5.896   9.983  0.2662 -0.3099 -0.8559
  399MOL0     H55015   1.766   5.765   9.922  0.7583 -0.4191  0.5377
  399MOL0     H55016   1.639   5.917   9.794 -0.5239  1.3213 -2.0784
  399MOL0     H55017   1.701   6.056   9.874 -1.6812 -0.1582 -1.0898
  399MOL0     H55018   1.891   5.867   9.733 -0.2758 -0.2911 -2.4282
  399MOL0     H55019   1.806   5.971   9.633 -0.5820 -1.7003  0.2907
  399MOL0     H55020   2.105   5.935   9.627 -0.2051 -0.5095 -1.5674
  399MOL0     H55021   2.288   5.902   9.527 -2.2380  1.3273  0.1962
  399MOL0     H55022   2.379   6.023   9.441  0.0848  2.0892  2.5522
  399MOL0     H55023   2.224   5.943   9.370  0.3418  0.7763 -1.1224
  399MOL0     H55024   2.575   6.394   9.499  2.9479  1.8279  0.1321
  399MOL0     H55025   2.783   6.447   9.409 -1.4773  2.7732  3.7930
  399MOL0     H55026   2.849   6.676   9.012  3.1607 -4.4248  0.5415
  399MOL0     H55027   2.769   6.746   9.159  2.7793  2.4891  2.7362
  399MOL0     H55028   3.043   6.634   9.195 -0.9784 -1.1147 -3.4452
  399MOL0     H55029   3.030   6.800   9.132  2.1383 -0.8683  1.4303
  399MOL0     H55030   3.047   6.765   9.401 -1.0089  2.4495  2.2669
  399MOL0     H55031   2.889   6.694   9.368  1.0859 -1.6790  0.4202
  399MOL0     H55032   2.850   6.886   9.466  1.6588  1.3406  0.0433
  399MOL0     H55033   2.812   6.920   9.292  1.1831 -2.1681 -1.6586
  399MOL0     H55034   3.069   6.973   9.447 -1.7036 -2.5907  1.8211
  399MOL0     H55035   3.053   7.004   9.269 -0.1493  1.7236  0.1541
  399MOL0     H55036   2.878   7.170   9.292 -0.6621  0.5269 -0.7162
  399MOL0     H55037   3.028   7.220   9.375  0.7994 -1.1333 -0.7041
  399MOL0     H55038   2.883   7.134   9.591 -0.7767 -0.3808 -0.3169
  399MOL0     H55039   2.748   7.115   9.478 -1.2305  1.6341 -0.1422
  399MOL0     H55040   2.874   7.375   9.522  2.2026 -2.3291 -0.9426
  399MOL0     H55041   2.720   7.305   9.596  0.9745 -0.6224 -0.1949
  399MOL0     H55042   2.574   6.588   9.052  1.2935  2.7678  1.4465
  399MOL0     H55043   2.363   6.540   9.151 -1.8356  1.3550  1.4510
  399MOL0     H55044   2.113   6.427   9.537 -0.1436  0.5010  1.4332
  399MOL0     H55045   1.968   6.336   9.715  0.1398 -0.7842  0.1475
  399MOL0     H55046   1.005   5.780   8.827 -0.0094  1.0492 -1.0862
  399MOL0     H55047   0.795   5.681   8.719  0.4954  4.4435  0.8225
  399MOL0     H55048   0.483   5.504   8.643  2.6621  2.6887  5.9183
  399MOL0     H55049   0.256   5.490   8.530 -1.4079  0.5064 -0.1030
  399MOL0     H55050  -0.024   5.185   8.715  0.2204  0.8257 -0.3925
  399MOL0     H55051  -0.093   5.336   8.778 -1.8542 -0.4960  0.3623
  399MOL0     H55052  -0.212   5.368   8.580  2.5347  0.9470  1.2422
  399MOL0     H55053  -0.258   5.208   8.645 -0.2604  0.6057 -0.1549
  399MOL0     H55054  -0.215   5.216   8.401  1.7626 -0.7174 -1.3721
  399MOL0     H55055  -0.055   5.269   8.424  0.5574 -0.8082  0.4247
  399MOL0     H55056   0.007   5.066   8.527 -2.0829  1.9649  1.6432
  399MOL0     H55057  -0.051   5.052   8.359  2.2415  0.0084  1.3274
  399MOL0     H55058  -0.318   4.797   8.546 -1.1731  0.6559  0.9391
  399MOL0     H55059   0.141   5.218   8.849 -1.1152  2.0099  1.4352
  399MOL0     H55060   0.355   5.263   9.066 -0.8402 -1.1042 -0.0939
  399MOL0     H55061   0.275   5.140   8.995  0.2646 -2.1703 -3.6408
  399MOL0     H55062   0.452   5.151   8.954  1.9717  1.8939 -3.1013
  400MOL0     O55063   5.882   4.859   6.840 -0.2452  0.4851  0.5097
  400MOL0     C55064   5.816   4.770   6.896  0.2519 -0.1349 -0.4350
  400MOL0     O55065   5.854   4.642   6.912 -0.4571 -0.2454  0.0600
  400MOL0     C55066   5.983   4.609   6.885  1.0894  0.3056 -0.4928
  400MOL0     C55067   6.055   4.636   6.773 -0.4610  0.0478  0.3429
  400MOL0     C55068   6.192   4.593   6.767 -0.4867  0.0599  0.1666
  400MOL0     C55069   6.250   4.519   6.875  0.0508 -0.9565 -0.1355
  400MOL0     O55070   6.367   4.452   6.876  0.3168  0.0649  0.7830
  400MOL0     C55071   6.471   4.531   6.821  0.0121 -0.4548 -0.0199
  400MOL0     C55072   6.609   4.482   6.850 -0.0034 -0.8240 -0.2485
  400MOL0     C55073   6.714   4.585   6.802 -0.0959  0.1391  0.5457
  400MOL0     C55074   6.854   4.514   6.805 -0.5856 -0.5522 -0.3657
  400MOL0     C55075   6.955   4.574   6.700  0.3108  1.0640 -0.6633
  400MOL0     C55076   7.089   4.508   6.700 -0.3350  0.4006  0.7005
  400MOL0     C55077   7.172   4.563   6.588  0.0907  0.0135 -0.4644
  400MOL0     C55078   7.310   4.494   6.588  0.2166 -0.3185 -0.8088
  400MOL0     N55079   7.392   4.558   6.486 -0.0640  0.5054  0.4433
  400MOL0     C55080   7.363   4.549   6.353 -0.3042  0.0927  0.0433
  400MOL0     C55081   7.454   4.641   6.292  1.1529 -0.3690 -0.1168
  400MOL0     C55082   7.460   4.659   6.141  0.1704 -0.0445 -0.8897
  400MOL0     C55083   7.598   4.690   6.088  0.4431 -0.0423  0.1247
  400MOL0     C55084   7.650   4.829   6.139 -0.6517 -0.5439 -1.2447
  400MOL0     C55085   7.762   4.879   6.055 -0.5463 -0.1528  0.2513
  400MOL0     O55086   7.811   5.013   6.080  0.5227 -0.5315  0.5508
  400MOL0     C55087   7.719   5.118   6.059  0.6391 -0.1880  0.2707
  400MOL0     C55088   7.736   5.239   6.131  0.5628  0.0488  0.1365
  400MOL0     C55089   7.653   5.349   6.111  0.4750  0.2634 -0.0119
  400MOL0     C55090   7.667   5.466   6.211 -0.1448 -0.8196  0.1786
  400MOL0     C55091   7.558   5.348   6.013  0.1326  0.9998  0.6540
  400MOL0     C55092   7.463   5.457   5.993  0.7615 -0.7190 -0.1403
  400MOL0     O55093   7.408   5.461   5.873 -0.0964  0.0471 -0.3211
  400MOL0     C55094   7.323   5.563   5.839  0.4172  0.4735  0.6600
  400MOL0     C55095   7.213   5.584   5.929  1.0348 -0.4249  0.4143
  400MOL0     C55096   7.133   5.696   5.905 -0.3391  0.4357 -0.7018
  400MOL0     C55097   7.156   5.767   5.789  0.0530 -0.4885 -0.2980
  400MOL0     O55098   7.078   5.875   5.773 -0.4588 -0.7863  0.6558
  400MOL0     C55099   7.154   5.999   5.750  1.1955 -0.0292 -0.4933
  400MOL0     C55100   7.046   6.111   5.774 -0.7903  0.5711 -0.2230
  400MOL0     C55101   7.105   6.255   5.796  1.1687  0.6761  0.4017
  400MOL0     C55102   7.016   6.357   5.730 -0.0001 -0.3288  0.0195
  400MOL0     C55103   7.049   6.497   5.786 -0.6987 -0.1257  0.2548
  400MOL0     C55104   6.943   6.590   5.735 -0.0479 -0.0306  0.8010
  400MOL0     C55105   6.960   6.623   5.586  0.3885 -0.6450 -0.2137
  400MOL0     C55106   6.842   6.717   5.540 -0.9509  0.3903 -0.6387
  400MOL0    Cl55107   6.867   6.774   5.373  0.1651  0.2531  0.1803
  400MOL0     C55108   7.240   5.732   5.689 -0.1823 -0.2545 -0.7337
  400MOL0     C55109   7.332   5.633   5.715  0.0571  0.7734  0.5320
  400MOL0     O55110   7.447   5.551   6.071  0.0829  1.1015 -0.0613
  400MOL0     C55111   7.547   5.230   5.921 -0.3776 -0.4026  0.3231
  400MOL0     C55112   7.621   5.114   5.955  0.7752  0.3188  0.7758
  400MOL0     N55113   7.528   4.699   6.385 -0.0576 -0.9556 -0.2312
  400MOL0     N55114   7.489   4.657   6.501 -0.0008 -1.2071  0.1353
  400MOL0     C55115   6.166   4.484   6.982 -0.6987 -0.0824 -0.2453
  400MOL0     C55116   6.033   4.526   6.985 -0.4714  0.6444  0.1602
  400MOL0     C55117   5.673   4.806   6.942 -0.5499  0.0254  1.2657
  400MOL0     C55118   5.581   4.708   6.953 -0.1060  0.7570  0.0262
  400MOL0     C55119   5.445   4.736   6.967  0.7334 -0.3325  0.3221
  400MOL0     C55120   5.395   4.869   6.981 -1.0459 -0.2085  0.3699
  400MOL0     O55121   5.266   4.895   7.002 -0.3253  0.0975  0.6604
  400MOL0     C55122   5.184   4.790   7.061  0.7424  0.2739  0.1868
  400MOL0     C55123   5.060   4.855   7.141 -1.3715  0.5388 -0.4026
  400MOL0     C55124   4.986   4.957   7.054  0.5119  0.6273 -0.2426
  400MOL0     C55125   4.879   5.025   7.138 -0.9252  0.1814  0.0864
  400MOL0     C55126   4.775   4.936   7.194  0.1797  0.4876  0.7601
  400MOL0     C55127   4.694   4.855   7.225  0.8173  0.9744  0.6033
  400MOL0     C55128   5.489   4.968   6.963 -0.4792 -0.4377 -0.2722
  400MOL0     C55129   5.623   4.945   6.940 -0.2335 -0.2522  0.0171
  400MOL0     C55130   5.709   5.072   6.931  0.7432  0.2146 -0.2651
  400MOL0     H55131   5.998   4.691   6.699 -2.0170 -0.3252  1.2095
  400MOL0     H55132   6.248   4.615   6.677 -0.9180  0.2083 -0.0665
  400MOL0     H55133   6.465   4.634   6.857  2.4556 -1.0110  2.3245
  400MOL0     H55134   6.450   4.535   6.713 -1.0693 -0.4958  0.1765
  400MOL0     H55135   6.611   4.465   6.958 -0.4483 -0.2893 -0.1543
  400MOL0     H55136   6.616   4.386   6.798 -1.3426 -0.9715 -0.2039
  400MOL0     H55137   6.695   4.613   6.698  0.1750  0.5998  0.6158
  400MOL0     H55138   6.737   4.674   6.862 -0.0409 -0.1031  0.8890
  400MOL0     H55139   6.898   4.522   6.905  0.3699  2.6833 -0.9254
  400MOL0     H55140   6.840   4.407   6.788 -4.1812 -0.4268  0.8587
  400MOL0     H55141   6.975   4.680   6.717  2.5976  0.3923  1.4595
  400MOL0     H55142   6.906   4.567   6.603  1.0616  3.1758 -1.2429
  400MOL0     H55143   7.149   4.529   6.789  1.0700 -2.7808  0.6578
  400MOL0     H55144   7.081   4.400   6.688 -2.3058  0.7435 -2.0131
  400MOL0     H55145   7.170   4.671   6.603 -0.3482 -0.2036  1.1584
  400MOL0     H55146   7.137   4.557   6.484  1.4032  3.7675 -1.2811
  400MOL0     H55147   7.368   4.499   6.680  1.8072  2.0481 -1.8439
  400MOL0     H55148   7.303   4.385   6.581  0.2441 -0.8898  4.1853
  400MOL0     H55149   7.285   4.493   6.303 -1.7390  1.4111  0.7091
  400MOL0     H55150   7.388   4.728   6.097  0.7085  1.8972  1.1122
  400MOL0     H55151   7.432   4.562   6.098 -1.0702  0.6868 -1.7770
  400MOL0     H55152   7.672   4.613   6.111 -0.2143 -0.7921 -0.2481
  400MOL0     H55153   7.592   4.696   5.979 -3.8866  0.9780  0.2341
  400MOL0     H55154   7.571   4.905   6.134  0.3344  0.4820 -1.4998
  400MOL0     H55155   7.682   4.838   6.243 -0.2816  1.2005 -1.4770
  400MOL0     H55156   7.848   4.815   6.078 -0.7966 -0.1817  1.1483
  400MOL0     H55157   7.748   4.859   5.948  0.5459  0.1101  0.0512
  400MOL0     H55158   7.818   5.236   6.202  2.6877 -1.2243 -2.2381
  400MOL0     H55159   7.760   5.464   6.270  0.8243 -0.1361 -1.2727
  400MOL0     H55160   7.581   5.457   6.278  0.6898 -3.3210  1.0544
  400MOL0     H55161   7.675   5.567   6.171 -1.0672 -0.0437  1.8380
  400MOL0     H55162   7.190   5.527   6.019  2.1416  1.4677  1.9786
  400MOL0     H55163   7.051   5.719   5.973 -0.7195 -2.0963 -0.2002
  400MOL0     H55164   7.222   6.018   5.834 -2.2807 -0.9295  2.7729
  400MOL0     H55165   7.200   6.006   5.651  0.0611 -0.8389 -1.1020
  400MOL0     H55166   6.978   6.099   5.689  1.4134 -2.9017 -1.7373
  400MOL0     H55167   6.991   6.096   5.866 -2.4061 -2.0276 -1.5041
  400MOL0     H55168   7.202   6.266   5.746  0.7985  0.3789 -0.4123
  400MOL0     H55169   7.105   6.262   5.905  0.2541 -0.9991  0.5459
  400MOL0     H55170   6.909   6.335   5.738  0.0135 -0.6872 -0.7095
  400MOL0     H55171   7.048   6.344   5.626 -0.2701  0.7057 -0.2046
  400MOL0     H55172   7.046   6.497   5.896  0.0431 -1.2089  0.2895
  400MOL0     H55173   7.148   6.532   5.756 -0.3293 -0.1232  1.4077
  400MOL0     H55174   6.962   6.682   5.791  0.6769 -0.7489  1.7890
  400MOL0     H55175   6.839   6.568   5.761 -0.5280  1.2697  0.0862
  400MOL0     H55176   6.973   6.537   5.519 -1.4702 -0.8623 -0.3390
  400MOL0     H55177   7.050   6.686   5.584  0.7129 -0.7857  3.4128
  400MOL0     H55178   6.832   6.802   5.608 -1.5686 -1.9066  2.3585
  400MOL0     H55179   6.747   6.663   5.546 -0.8839  0.2141 -1.1336
  400MOL0     H55180   7.238   5.786   5.595 -0.6020 -1.3589 -1.3716
  400MOL0     H55181   7.398   5.594   5.637 -1.5474 -0.1532 -0.4193
  400MOL0     H55182   7.483   5.227   5.833  1.9993  0.0937 -1.5388
  400MOL0     H55183   7.612   5.026   5.892  2.9281 -2.4450  3.9199
  400MOL0     H55184   6.194   4.422   7.067 -0.2738 -0.1595 -0.4391
  400MOL0     H55185   5.966   4.502   7.067 -0.9618 -1.8237 -0.8617
  400MOL0     H55186   5.601   4.602   6.950 -0.3151  0.7437 -1.2989
  400MOL0     H55187   5.376   4.653   6.969 -2.2585  1.8881 -1.5054
  400MOL0     H55188   5.144   4.722   6.986  0.5641 -2.1749  2.3615
  400MOL0     H55189   5.234   4.717   7.127  1.7945  0.3755 -0.4690
  400MOL0     H55190   5.104   4.907   7.227 -4.2565  0.2047  1.4140
  400MOL0     H55191   4.984   4.783   7.173  0.8091 -1.8773 -0.2682
  400MOL0     H55192   5.055   5.023   7.000  1.3351  0.1546  0.2164
  400MOL0     H55193   4.927   4.898   6.983 -2.3853  0.9555  1.7038
  400MOL0     H55194   4.830   5.103   7.078 -0.4993  0.8422  0.5721
  400MOL0     H55195   4.943   5.071   7.214  1.2565  0.6471 -1.9001
  400MOL0     H55196   4.618   4.782   7.244  0.2263  1.6924  1.0657
  400MOL0     H55197   5.449   5.066   6.986  0.4398  0.4097 -2.0793
  400MOL0     H55198   5.642   5.158   6.943  0.6241  0.0238  0.4684
  400MOL0     H55199   5.774   5.089   7.017  1.0853 -0.7898 -0.3071
  400MOL0     H55200   5.751   5.082   6.831  0.5938  1.1883 -0.2380
  401MOL0     O55201   8.568  10.191   1.805 -1.0367  0.0917 -0.6776
  401MOL0     C55202   8.543  10.074   1.836 -0.7819  0.6769 -0.0123
  401MOL0     O55203   8.637   9.985   1.893  0.2976 -0.4202  0.6346
  401MOL0     C55204   8.765  10.030   1.907 -0.1326  0.3353 -0.3132
  401MOL0     C55205   8.845  10.085   1.808  0.0740  0.4944 -0.0688
  401MOL0     C55206   8.972  10.128   1.830 -1.2757  0.2124  0.5177
  401MOL0     C55207   9.026  10.107   1.955 -0.7978 -0.1421  0.1423
  401MOL0     O55208   9.160  10.140   1.967 -0.0394  0.1010  0.3103
  401MOL0     C55209   9.217  10.118   2.097 -0.4624  0.3104  0.3786
  401MOL0     C55210   9.360  10.170   2.119  0.9782 -0.2934 -0.0979
  401MOL0     C55211   9.421  10.133   2.252  0.2189 -0.5551 -0.2503
  401MOL0     C55212   9.514  10.250   2.299  1.0624 -0.2674 -0.5043
  401MOL0     C55213   9.616  10.209   2.410 -0.7428 -0.7008  0.0148
  401MOL0     C55214   9.748  10.286   2.429 -1.1426 -0.9764 -0.6222
  401MOL0     C55215   9.863  10.183   2.431 -0.0651  0.0995 -0.9690
  401MOL0     C55216  10.002  10.240   2.451  0.1001 -0.2603 -0.2963
  401MOL0     N55217  10.023  10.304   2.584  0.1346 -0.0731 -0.1538
  401MOL0     C55218  10.119  10.401   2.603 -0.1827 -0.0660 -0.6022
  401MOL0     C55219  10.118  10.421   2.732  0.2885 -1.2384 -0.8369
  401MOL0     C55220  10.198  10.521   2.804 -0.1492 -0.5570  0.5135
  401MOL0     C55221  10.331  10.477   2.863  0.0356  0.3505  0.2617
  401MOL0     C55222  10.453  10.476   2.771  0.3665 -0.4973  0.1688
  401MOL0     C55223  10.577  10.426   2.837 -0.1119  0.2753 -0.1027
  401MOL0     O55224  10.679  10.396   2.736 -0.7504  0.1618 -0.8433
  401MOL0     C55225  10.810  10.361   2.779  0.3990 -1.1727  0.4825
  401MOL0     C55226  10.911  10.366   2.681 -0.3316 -0.1753  0.5657
  401MOL0     C55227  11.049  10.344   2.704  0.2920  0.1764 -0.2507
  401MOL0     C55228  11.143  10.357   2.588  0.0765 -0.0271 -0.3217
  401MOL0     C55229  11.082  10.311   2.836 -1.1272  0.6686 -0.5981
  401MOL0     C55230  11.223  10.284   2.886 -0.5627  0.5966 -0.2687
  401MOL0     O55231  11.325  10.350   2.810  0.0972  0.4481  0.0156
  401MOL0     C55232  11.455  10.327   2.850 -0.3152 -0.0370  0.9626
  401MOL0     C55233  11.524  10.200   2.846  0.4229  0.5394 -0.3559
  401MOL0     C55234  11.666  10.200   2.881  0.5062  0.1697 -0.4871
  401MOL0     C55235  11.737  10.318   2.927 -0.0253 -0.2468 -0.2184
  401MOL0     O55236  11.870  10.318   2.969 -0.4428 -0.1802  0.4198
  401MOL0     C55237  11.912  10.439   3.048  0.3846 -0.1892 -0.9239
  401MOL0     C55238  12.045  10.409   3.127 -0.0955 -0.8166  1.0246
  401MOL0     C55239  12.157  10.382   3.023  0.6493 -0.2505 -0.3112
  401MOL0     C55240  12.299  10.426   3.073 -0.8632  0.1156  0.6684
  401MOL0     C55241  12.404  10.411   2.959 -0.1819 -0.4156  0.3240
  401MOL0     C55242  12.555  10.414   2.994  0.9119  0.1476  0.3914
  401MOL0     C55243  12.641  10.398   2.866 -0.2621 -0.3117  0.0961
  401MOL0     C55244  12.788  10.403   2.887  0.4312  0.4895 -0.5288
  401MOL0    Cl55245  12.825  10.575   2.932 -0.2497 -0.1813  0.6340
  401MOL0     C55246  11.666  10.440   2.912 -0.3890  0.5462  0.1335
  401MOL0     C55247  11.530  10.442   2.879  0.4363  0.8422 -0.1095
  401MOL0     O55248  11.244  10.226   2.992 -0.3441 -0.0815  0.2967
  401MOL0     C55249  10.983  10.314   2.930  0.1135  0.5878 -0.4981
  401MOL0     C55250  10.850  10.339   2.908 -0.1323  0.0228 -0.1655
  401MOL0     N55251  10.023  10.347   2.796 -0.2958 -0.1474 -0.0593
  401MOL0     N55252   9.967  10.269   2.704 -0.5054  0.3869 -0.0062
  401MOL0     C55253   8.963  10.024   2.044  1.4522 -0.1384 -0.0131
  401MOL0     C55254   8.827  10.000   2.027  0.2425  0.8505  0.1464
  401MOL0     C55255   8.394  10.029   1.819 -0.4848  0.6116 -0.4385
  401MOL0     C55256   8.359   9.907   1.885 -0.8134 -0.6203 -0.2854
  401MOL0     C55257   8.232   9.863   1.883  1.2650  0.3721  0.0815
  401MOL0     C55258   8.128   9.925   1.810 -1.1627 -0.3406  0.6692
  401MOL0     O55259   8.007   9.872   1.824  0.3680  0.0408  0.1248
  401MOL0     C55260   7.901   9.939   1.747  0.0069 -1.2053 -0.0004
  401MOL0     C55261   7.770   9.862   1.759  0.7314  0.5646 -0.0488
  401MOL0     C55262   7.740   9.816   1.902 -0.1214 -0.1660  1.3204
  401MOL0     C55263   7.599   9.750   1.923 -0.0327 -0.3680 -0.6583
  401MOL0     C55264   7.563   9.640   1.841 -0.5314  1.5865 -0.0858
  401MOL0     C55265   7.533   9.543   1.770  0.2777  0.6838  0.7233
  401MOL0     C55266   8.165  10.038   1.739 -0.2084  0.4578 -1.1059
  401MOL0     C55267   8.292  10.099   1.750 -0.2359 -0.7982  0.4388
  401MOL0     C55268   8.314  10.222   1.676  0.7852 -1.0450  0.4727
  401MOL0     H55269   8.806  10.110   1.710  0.3070  0.0519 -0.2747
  401MOL0     H55270   9.030  10.157   1.743  0.0732 -1.1940  0.8951
  401MOL0     H55271   9.224  10.009   2.107  2.7454  0.3783 -0.2671
  401MOL0     H55272   9.150  10.158   2.174 -0.4512 -2.0509  1.7174
  401MOL0     H55273   9.426  10.147   2.035  1.4926  1.2779 -0.1596
  401MOL0     H55274   9.351  10.279   2.122  0.8873 -0.2598 -1.3056
  401MOL0     H55275   9.346  10.124   2.331  0.5430  0.8116  0.2353
  401MOL0     H55276   9.471  10.037   2.235 -1.3637 -1.3688 -0.5805
  401MOL0     H55277   9.578  10.274   2.214  2.8224 -1.2232  0.4948
  401MOL0     H55278   9.455  10.335   2.336  0.0238 -0.7824 -0.9325
  401MOL0     H55279   9.648  10.107   2.385  1.4171 -0.1365  0.3113
  401MOL0     H55280   9.559  10.205   2.503  0.8589 -3.9574  1.0271
  401MOL0     H55281   9.769  10.367   2.359  0.4028  1.6960  2.6431
  401MOL0     H55282   9.757  10.337   2.525  1.1518 -0.4870 -1.0172
  401MOL0     H55283   9.871  10.131   2.335  0.7463 -0.2922 -0.7019
  401MOL0     H55284   9.842  10.104   2.504  2.2883 -0.1507 -0.4793
  401MOL0     H55285  10.088  10.177   2.426  1.6793  1.3756  0.7843
  401MOL0     H55286  10.011  10.321   2.378 -1.1747 -0.2987 -0.5311
  401MOL0     H55287  10.171  10.459   2.527  0.5822  1.5889  1.0992
  401MOL0     H55288  10.143  10.562   2.890 -0.7904  0.1758 -0.2297
  401MOL0     H55289  10.225  10.606   2.740 -0.3569 -2.0492 -1.6439
  401MOL0     H55290  10.357  10.547   2.943  1.5031  0.0897  0.0499
  401MOL0     H55291  10.317  10.379   2.909 -1.1564  0.7882  0.8781
  401MOL0     H55292  10.427  10.414   2.685 -1.7664  1.9064 -1.0625
  401MOL0     H55293  10.482  10.575   2.736  1.5738 -0.2812  1.6773
  401MOL0     H55294  10.614  10.507   2.901  0.5853  2.2976 -2.8552
  401MOL0     H55295  10.555  10.343   2.904  3.0753  2.0640  3.5913
  401MOL0     H55296  10.869  10.382   2.582 -3.5403 -1.1701  1.6181
  401MOL0     H55297  11.205  10.270   2.562 -0.6072 -1.0505  1.3507
  401MOL0     H55298  11.200  10.445   2.617 -0.5269 -0.0054  0.8292
  401MOL0     H55299  11.088  10.386   2.498 -2.8576  2.5976  2.0903
  401MOL0     H55300  11.480  10.105   2.819  0.2130 -0.1126  2.0549
  401MOL0     H55301  11.708  10.101   2.895  0.5888  0.1028 -1.1878
  401MOL0     H55302  11.920  10.526   2.981  2.3870  2.1041  2.0267
  401MOL0     H55303  11.839  10.457   3.127 -0.9983 -0.1912 -2.1421
  401MOL0     H55304  12.050  10.509   3.172 -1.5276  0.6456 -1.8182
  401MOL0     H55305  12.029  10.325   3.195  0.9286 -2.3590 -0.5836
  401MOL0     H55306  12.140  10.431   2.927 -1.3912  1.3117  0.7632
  401MOL0     H55307  12.133  10.279   2.996 -2.6437 -0.0328  1.2600
  401MOL0     H55308  12.338  10.371   3.159  1.1926  0.3971 -0.0318
  401MOL0     H55309  12.299  10.533   3.093 -0.0723  0.3687 -0.5441
  401MOL0     H55310  12.390  10.313   2.911 -1.2526 -0.0892 -0.0496
  401MOL0     H55311  12.395  10.494   2.889  0.9329 -0.1099  0.5257
  401MOL0     H55312  12.584  10.331   3.060  1.8443 -2.4491 -2.9878
  401MOL0     H55313  12.583  10.503   3.050  0.3669  1.9589 -2.0752
  401MOL0     H55314  12.612  10.460   2.781  3.9086  2.1094  0.1711
  401MOL0     H55315  12.625  10.300   2.819  2.7764 -0.9404  0.1790
  401MOL0     H55316  12.855  10.367   2.809 -1.1458 -2.2215 -0.7580
  401MOL0     H55317  12.811  10.348   2.978 -2.6155  0.1182  0.1479
  401MOL0     H55318  11.708  10.538   2.928 -0.0989  0.0000  3.5698
  401MOL0     H55319  11.485  10.540   2.862 -1.1317  0.0439 -0.6791
  401MOL0     H55320  11.008  10.304   3.035 -1.2804  0.4194 -0.1496
  401MOL0     H55321  10.785  10.347   2.995  1.5326  1.1415  1.0105
  401MOL0     H55322   9.004   9.989   2.138 -0.6433  2.1778  1.9087
  401MOL0     H55323   8.772   9.949   2.106  0.0961  0.7445 -0.0216
  401MOL0     H55324   8.430   9.843   1.936 -1.1992 -0.5669  0.3300
  401MOL0     H55325   8.202   9.777   1.942 -0.4214 -0.1094 -1.3641
  401MOL0     H55326   7.895  10.037   1.796  4.5214 -1.1409  0.7994
  401MOL0     H55327   7.935   9.949   1.644  0.6756 -1.0503  0.2276
  401MOL0     H55328   7.792   9.766   1.710  3.6021  0.2526  1.6345
  401MOL0     H55329   7.680   9.908   1.717 -0.0927  0.3003  1.3501
  401MOL0     H55330   7.809   9.737   1.934  0.3313 -0.8188 -1.0849
  401MOL0     H55331   7.753   9.898   1.973  1.8879 -0.4588  1.3245
  401MOL0     H55332   7.517   9.822   1.916  0.8149  0.5382 -1.6167
  401MOL0     H55333   7.591   9.723   2.029  1.4470  4.1658  0.8173
  401MOL0     H55334   7.507   9.457   1.710 -2.2876  0.9695  1.3170
  401MOL0     H55335   8.096  10.085   1.670 -0.3058 -0.9054 -1.9745
  401MOL0     H55336   8.402  10.224   1.611 -0.7201  0.9377 -1.6328
  401MOL0     H55337   8.228  10.249   1.615  1.3448 -1.0890 -0.3474
  401MOL0     H55338   8.336  10.305   1.744  2.2190 -1.1006  0.1147
  402MOL0     O55339   6.439   2.690   2.360 -0.3657 -0.0817  0.2163
  402MOL0     C55340   6.409   2.633   2.465  0.3491  0.2641 -0.4943
  402MOL0     O55341   6.502   2.568   2.546 -0.1616  0.0471 -0.1661
  402MOL0     C55342   6.631   2.559   2.502 -0.2383  0.0513  0.1897
  402MOL0     C55343   6.715   2.674   2.530 -0.4693  0.3488 -0.8036
  402MOL0     C55344   6.849   2.659   2.496  0.1185 -0.1885 -0.3165
  402MOL0     C55345   6.904   2.546   2.435  0.2754  0.2874  0.3363
  402MOL0     O55346   7.039   2.554   2.400  0.2667 -0.1630 -0.2175
  402MOL0     C55347   7.107   2.434   2.355 -0.3236  0.4019  0.1527
  402MOL0     C55348   7.258   2.474   2.330  0.2205 -0.9028  0.6518
  402MOL0     C55349   7.357   2.353   2.314 -0.0116  0.1370  0.1358
  402MOL0     C55350   7.507   2.389   2.317 -0.9867 -0.7931 -0.4719
  402MOL0     C55351   7.609   2.272   2.322 -0.0125  0.2919  1.2228
  402MOL0     C55352   7.751   2.325   2.347 -0.5287 -0.6029  0.4362
  402MOL0     C55353   7.847   2.206   2.379  0.1035 -0.7884 -0.6183
  402MOL0     C55354   7.863   2.108   2.255 -0.3016  0.2050 -0.6955
  402MOL0     N55355   7.970   2.003   2.280 -0.5147  0.5250 -0.1377
  402MOL0     C55356   7.967   1.914   2.378 -0.0821 -0.1201  0.3603
  402MOL0     C55357   8.088   1.855   2.381 -0.6794 -0.6955  0.2498
  402MOL0     C55358   8.141   1.751   2.480  0.2800  0.0639  0.5304
  402MOL0     C55359   8.254   1.804   2.557 -0.7194 -1.0277 -0.0961
  402MOL0     C55360   8.216   1.897   2.680  0.8069  0.1051  0.1424
  402MOL0     C55361   8.351   1.972   2.720 -0.1089  0.6093  0.1795
  402MOL0     O55362   8.343   2.096   2.648 -0.6215  0.7912  0.6721
  402MOL0     C55363   8.452   2.174   2.628  0.7258 -0.3645  0.9164
  402MOL0     C55364   8.570   2.149   2.686 -0.1689  0.1685 -0.1380
  402MOL0     C55365   8.684   2.230   2.658  0.1005  0.5927  0.8095
  402MOL0     C55366   8.818   2.184   2.724 -0.0224 -0.3033 -1.2634
  402MOL0     C55367   8.667   2.348   2.572 -0.4387  0.2675  0.0988
  402MOL0     C55368   8.775   2.451   2.563 -0.6488  0.6382  0.4735
  402MOL0     O55369   8.722   2.572   2.588 -0.7405 -0.1191 -0.1461
  402MOL0     C55370   8.795   2.689   2.593  0.0211 -0.1367 -0.1378
  402MOL0     C55371   8.722   2.797   2.651  0.0333 -0.2575  0.9996
  402MOL0     C55372   8.785   2.921   2.667 -0.6111  0.0694  0.0132
  402MOL0     C55373   8.910   2.943   2.622 -0.0427 -0.6875 -0.1000
  402MOL0     O55374   8.960   3.069   2.631  0.4919  0.8681 -0.2803
  402MOL0     C55375   9.095   3.104   2.616 -1.1878  0.1128  0.3003
  402MOL0     C55376   9.114   3.223   2.712 -0.8456  0.9868  0.4901
  402MOL0     C55377   9.240   3.303   2.656 -0.3240  0.5001 -0.4397
  402MOL0     C55378   9.271   3.430   2.739  0.1436 -0.8917  0.7000
  402MOL0     C55379   9.403   3.489   2.692  0.4953 -0.7257  0.2718
  402MOL0     C55380   9.475   3.583   2.804  0.2175  0.8581  0.4643
  402MOL0     C55381   9.586   3.662   2.739 -0.2495 -0.4456 -0.0520
  402MOL0     C55382   9.696   3.592   2.669  0.3925  0.1349  0.0762
  402MOL0    Cl55383   9.784   3.499   2.794  0.0430 -0.1064  0.0523
  402MOL0     C55384   8.986   2.838   2.563  0.1717  1.4657 -0.2932
  402MOL0     C55385   8.926   2.711   2.547  0.3388 -0.7705 -0.7988
  402MOL0     O55386   8.896   2.419   2.540  0.2029  0.2417  0.5889
  402MOL0     C55387   8.541   2.379   2.521  0.4162  0.3250  0.0320
  402MOL0     C55388   8.437   2.285   2.543  0.7984 -0.7986 -0.1437
  402MOL0     N55389   8.168   1.923   2.290 -0.1983  0.0989  0.1716
  402MOL0     N55390   8.100   2.009   2.225  1.0512 -0.7555 -0.0252
  402MOL0     C55391   6.823   2.434   2.405 -0.5858 -0.3653  0.0774
  402MOL0     C55392   6.687   2.445   2.441  0.3169 -0.1477 -0.3415
  402MOL0     C55393   6.275   2.634   2.526  1.2670 -0.5641  0.4774
  402MOL0     C55394   6.247   2.544   2.628 -0.2520  0.0207 -0.2018
  402MOL0     C55395   6.118   2.536   2.684  0.1468  0.1290  0.0659
  402MOL0     C55396   6.013   2.619   2.644  0.0872 -0.1524 -0.1149
  402MOL0     O55397   5.883   2.615   2.691 -0.0641 -0.8170  0.0873
  402MOL0     C55398   5.872   2.581   2.834 -0.2155  0.2271 -0.1124
  402MOL0     C55399   5.751   2.646   2.901 -0.4999 -1.2509 -0.7587
  402MOL0     C55400   5.626   2.611   2.822  0.0519  0.1290 -0.4090
  402MOL0     C55401   5.497   2.649   2.895 -0.0159 -0.3485 -0.2657
  402MOL0     C55402   5.483   2.797   2.894 -0.6529  0.9286  0.3713
  402MOL0     C55403   5.490   2.918   2.894  0.5670 -0.2923 -0.3713
  402MOL0     C55404   6.048   2.705   2.540 -0.2360 -0.2810 -0.5910
  402MOL0     C55405   6.174   2.721   2.476  1.0635  0.7550  0.0788
  402MOL0     C55406   6.184   2.819   2.365  0.0922 -1.1678  0.2644
  402MOL0     H55407   6.684   2.758   2.591  0.7515 -1.2813  2.3076
  402MOL0     H55408   6.920   2.739   2.511  0.8398 -0.6605 -1.0645
  402MOL0     H55409   7.067   2.410   2.255 -0.6460 -0.3641  0.4595
  402MOL0     H55410   7.096   2.348   2.421 -0.3397  0.1222 -0.2063
  402MOL0     H55411   7.258   2.541   2.243 -0.5508 -1.2223  0.3988
  402MOL0     H55412   7.290   2.538   2.413  1.8796  0.8952 -1.2782
  402MOL0     H55413   7.343   2.285   2.399  1.4021  0.9956  1.0929
  402MOL0     H55414   7.339   2.295   2.222  2.7677 -1.3648  0.4114
  402MOL0     H55415   7.540   2.460   2.240 -1.3455 -2.0657 -1.8602
  402MOL0     H55416   7.513   2.435   2.416  1.3488 -1.4813 -0.2263
  402MOL0     H55417   7.606   2.218   2.227  0.8263  0.3983  1.1344
  402MOL0     H55418   7.570   2.197   2.393 -1.0826 -0.9763 -0.6194
  402MOL0     H55419   7.797   2.377   2.262 -0.1056  1.2952  1.7641
  402MOL0     H55420   7.744   2.406   2.421  0.4559  1.8323 -1.9378
  402MOL0     H55421   7.815   2.148   2.467 -0.1400  1.1542  0.6463
  402MOL0     H55422   7.944   2.249   2.403 -0.3543 -0.9908  1.9271
  402MOL0     H55423   7.773   2.050   2.231 -1.7317  1.9121  0.3080
  402MOL0     H55424   7.888   2.163   2.164  0.5074  1.6287  0.3387
  402MOL0     H55425   7.896   1.892   2.456  1.8054  2.2700  2.9612
  402MOL0     H55426   8.176   1.663   2.427  0.2620  0.8778 -0.8846
  402MOL0     H55427   8.053   1.726   2.540 -0.9358  0.7419 -0.8865
  402MOL0     H55428   8.324   1.726   2.590 -1.6686 -1.9710 -0.2759
  402MOL0     H55429   8.326   1.849   2.488  0.7418 -0.9893  1.3817
  402MOL0     H55430   8.137   1.970   2.657  0.3835 -0.4875 -0.3116
  402MOL0     H55431   8.173   1.830   2.754 -1.3666  0.9588 -0.2799
  402MOL0     H55432   8.353   1.986   2.828  1.9847  2.3796 -0.0113
  402MOL0     H55433   8.442   1.915   2.699 -0.6452 -0.6847  1.2264
  402MOL0     H55434   8.578   2.065   2.755 -0.3924 -0.6678 -1.1131
  402MOL0     H55435   8.906   2.194   2.659  0.4685  1.5853 -0.3732
  402MOL0     H55436   8.814   2.080   2.759 -1.6464  0.6676  1.8140
  402MOL0     H55437   8.844   2.235   2.817  3.4475 -0.9021 -1.7350
  402MOL0     H55438   8.626   2.776   2.695 -0.2021  0.0960  0.6630
  402MOL0     H55439   8.727   2.999   2.717  1.1189  3.3280 -2.6633
  402MOL0     H55440   9.160   3.019   2.638 -1.7291 -1.1696 -2.6567
  402MOL0     H55441   9.107   3.127   2.510  0.4797 -0.7313  0.2713
  402MOL0     H55442   9.029   3.291   2.717 -0.5139  1.3269  2.0446
  402MOL0     H55443   9.128   3.189   2.815 -1.3419 -4.3177 -0.9236
  402MOL0     H55444   9.222   3.333   2.552  0.0589 -0.1315 -0.6958
  402MOL0     H55445   9.328   3.238   2.657 -0.2498  0.5902 -0.7405
  402MOL0     H55446   9.287   3.400   2.843  1.7466  0.3860  0.8574
  402MOL0     H55447   9.195   3.509   2.743  1.2918  0.2523  0.6097
  402MOL0     H55448   9.474   3.411   2.662 -0.2115 -1.2913  0.0325
  402MOL0     H55449   9.380   3.545   2.601 -1.1556 -1.6622  0.0674
  402MOL0     H55450   9.518   3.509   2.872 -0.6817  0.3421  0.4900
  402MOL0     H55451   9.409   3.641   2.869 -0.4445  0.9991 -0.3082
  402MOL0     H55452   9.637   3.714   2.821 -2.1593 -1.5593  1.9695
  402MOL0     H55453   9.528   3.732   2.678 -1.1939  1.3872  2.7214
  402MOL0     H55454   9.769   3.660   2.626  2.0337 -0.6348  1.5311
  402MOL0     H55455   9.660   3.521   2.595  1.4923 -1.6074  1.1304
  402MOL0     H55456   9.087   2.854   2.528 -0.6027  1.7923 -2.5575
  402MOL0     H55457   8.981   2.629   2.502  1.7004 -0.5200  0.3623
  402MOL0     H55458   8.515   2.462   2.456 -0.5983 -0.5154 -0.6751
  402MOL0     H55459   8.338   2.305   2.503 -0.6009 -2.3994  2.2265
  402MOL0     H55460   6.856   2.340   2.363 -4.1800 -1.8172  0.1662
  402MOL0     H55461   6.629   2.367   2.392  0.4815  1.6966 -3.7852
  402MOL0     H55462   6.321   2.472   2.661 -2.1463 -1.3590  1.3680
  402MOL0     H55463   6.107   2.465   2.765  0.8406  0.2234  0.2428
  402MOL0     H55464   5.862   2.475   2.855 -2.0992  0.0303 -1.7292
  402MOL0     H55465   5.956   2.621   2.892  1.7107 -2.9098 -0.5167
  402MOL0     H55466   5.780   2.751   2.912  2.1923 -1.8901 -1.1288
  402MOL0     H55467   5.741   2.600   3.000  0.3711 -3.1215 -1.4908
  402MOL0     H55468   5.631   2.664   2.726  2.9518  0.5639 -0.1233
  402MOL0     H55469   5.621   2.503   2.809  0.7451  0.1638 -1.0681
  402MOL0     H55470   5.487   2.607   2.996  0.8993 -0.7617 -0.3415
  402MOL0     H55471   5.416   2.609   2.834 -0.9832 -0.1832  0.8532
  402MOL0     H55472   5.509   3.024   2.897 -1.2873  0.0602  0.2636
  402MOL0     H55473   5.975   2.776   2.503  1.7562  1.2090 -1.8916
  402MOL0     H55474   6.086   2.845   2.325  0.2804 -1.5470 -0.4632
  402MOL0     H55475   6.240   2.910   2.391  1.2911 -1.2277 -1.9174
  402MOL0     H55476   6.221   2.771   2.274  0.6932  0.5545 -0.4447
  403MOL0     O55477   4.776   4.894  10.441 -0.1614  0.2873  0.1166
  403MOL0     C55478   4.705   4.912  10.540  0.5663 -0.2436 -0.2249
  403MOL0     O55479   4.747   4.923  10.673 -0.0404  0.1805  0.0269
  403MOL0     C55480   4.880   4.910  10.691 -0.5084  0.8105 -0.1683
  403MOL0     C55481   4.901   4.848  10.820 -0.3392  0.3572 -0.1098
  403MOL0     C55482   5.029   4.831  10.869 -0.0898  0.0111  0.4181
  403MOL0     C55483   5.140   4.876  10.792 -0.5017 -0.1612 -0.3744
  403MOL0     O55484   5.264   4.869  10.843 -0.5265 -0.1080 -0.5410
  403MOL0     C55485   5.380   4.857  10.751 -0.7554 -0.2272 -0.1687
  403MOL0     C55486   5.503   4.838  10.841 -0.3877  0.4564  0.4442
  403MOL0     C55487   5.629   4.807  10.750 -0.9026  0.2402  0.5460
  403MOL0     C55488   5.636   4.663  10.700 -0.6562  0.3482  0.6144
  403MOL0     C55489   5.737   4.639  10.580 -0.2646 -0.3242  0.3088
  403MOL0     C55490   5.766   4.493  10.567 -0.8151 -0.1251  0.1812
  403MOL0     C55491   5.772   4.448  10.418  0.3014  0.0889 -0.2533
  403MOL0     C55492   5.802   4.295  10.406 -0.0115 -0.8297 -0.1213
  403MOL0     N55493   5.932   4.254  10.451 -0.1412 -0.1464  0.0021
  403MOL0     C55494   6.031   4.228  10.360 -0.3727  0.2251  0.3801
  403MOL0     C55495   6.134   4.191  10.442  0.3088 -0.0221  0.4250
  403MOL0     C55496   6.273   4.183  10.391 -1.6486  0.5835  0.2245
  403MOL0     C55497   6.374   4.116  10.481 -0.2960 -0.1949 -0.0888
  403MOL0     C55498   6.516   4.132  10.432 -0.5507 -0.4251 -0.2040
  403MOL0     C55499   6.616   4.103  10.546 -0.0127  0.4580 -0.6104
  403MOL0     O55500   6.743   4.075  10.491  0.4412  0.3014 -0.1951
  403MOL0     C55501   6.834   4.011  10.571 -0.1204  0.5850 -0.1992
  403MOL0     C55502   6.955   3.981  10.517  0.0585 -0.2560  0.5321
  403MOL0     C55503   7.064   3.937  10.594 -1.1874 -0.3983  0.2299
  403MOL0     C55504   7.193   3.910  10.525 -0.4032 -0.5626 -0.0243
  403MOL0     C55505   7.055   3.925  10.730  0.3094  0.1370 -0.2666
  403MOL0     C55506   7.156   3.863  10.819 -0.2355 -0.2095 -0.1917
  403MOL0     O55507   7.233   3.758  10.782  0.4788 -0.6998  0.3616
  403MOL0     C55508   7.344   3.743  10.860 -0.0658  0.4955 -0.7835
  403MOL0     C55509   7.336   3.649  10.962 -0.6685 -0.5260 -0.3348
  403MOL0     C55510   7.455   3.601  11.021 -0.2082 -0.0584 -0.1434
  403MOL0     C55511   7.580   3.646  10.967 -0.8052 -0.7912  0.2823
  403MOL0     O55512   7.704   3.596  11.006  0.0799  0.0624  0.1113
  403MOL0     C55513   7.719   3.469  11.056  0.0000 -0.3365 -0.9554
  403MOL0     C55514   7.754   3.478  11.209  0.4912  0.3213  0.3304
  403MOL0     C55515   7.863   3.591  11.242 -0.0021  0.1398  0.0422
  403MOL0     C55516   8.002   3.544  11.206 -0.3322  0.5198  0.1683
  403MOL0     C55517   8.112   3.586  11.297 -0.5766 -0.2059  0.5009
  403MOL0     C55518   8.251   3.529  11.241 -0.2115 -0.5364  0.0889
  403MOL0     C55519   8.377   3.563  11.318  0.3740 -0.1501  0.1034
  403MOL0     C55520   8.500   3.490  11.258 -0.0804 -0.3167  0.0896
  403MOL0    Cl55521   8.656   3.527  11.337 -0.3455  0.1579 -0.1884
  403MOL0     C55522   7.586   3.744  10.869 -0.2928 -0.4342 -0.6721
  403MOL0     C55523   7.465   3.785  10.815  0.2887 -0.3591 -0.2033
  403MOL0     O55524   7.164   3.918  10.928 -0.2270  0.4199 -0.2634
  403MOL0     C55525   6.938   3.974  10.791  0.3445  0.5422 -0.3075
  403MOL0     C55526   6.828   4.006  10.708 -0.7295 -0.2759  0.6190
  403MOL0     N55527   6.090   4.180  10.570  0.2579 -0.0218 -1.2830
  403MOL0     N55528   5.969   4.222  10.580  0.3898  0.7120  0.3951
  403MOL0     C55529   5.120   4.931  10.664  1.1480 -0.0542  0.6517
  403MOL0     C55530   4.988   4.948  10.615 -0.3215 -0.7075  0.3520
  403MOL0     C55531   4.562   4.932  10.509 -0.7292 -0.5198  0.2712
  403MOL0     C55532   4.475   4.984  10.609 -0.7592  0.0309  0.5657
  403MOL0     C55533   4.340   5.001  10.587  0.0468  0.6343 -0.7054
  403MOL0     C55534   4.284   4.976  10.465 -0.2614 -0.6907  0.7199
  403MOL0     O55535   4.148   4.989  10.440  0.0308  0.2856  0.5087
  403MOL0     C55536   4.096   5.121  10.461 -0.3286  0.2452 -0.1377
  403MOL0     C55537   3.970   5.131  10.381 -0.4065  0.0827 -0.4525
  403MOL0     C55538   3.986   5.169  10.229  0.1786 -0.4511 -1.1142
  403MOL0     C55539   3.881   5.111  10.140  0.4366  0.7693 -0.1438
  403MOL0     C55540   3.871   5.187  10.017  0.2870  0.7606  0.1905
  403MOL0     C55541   3.853   5.269   9.930  0.5747 -0.1156  1.0372
  403MOL0     C55542   4.361   4.922  10.363  0.7977 -0.4633  0.1535
  403MOL0     C55543   4.498   4.907  10.380 -0.4421  0.6430 -0.7904
  403MOL0     C55544   4.556   4.838  10.258 -0.3453 -0.4650  0.5679
  403MOL0     H55545   4.816   4.805  10.873  0.6011 -0.9440  0.3864
  403MOL0     H55546   5.046   4.789  10.967  3.9253  0.6228  0.1697
  403MOL0     H55547   5.387   4.949  10.691 -2.1481 -0.9248 -1.4684
  403MOL0     H55548   5.372   4.770  10.686  0.6495  0.1249 -0.8440
  403MOL0     H55549   5.525   4.934  10.888  0.8708  0.5869 -0.3714
  403MOL0     H55550   5.482   4.757  10.911 -3.1623 -0.3265 -1.1325
  403MOL0     H55551   5.636   4.870  10.661 -2.8082 -2.3966 -1.6511
  403MOL0     H55552   5.713   4.820  10.819 -0.3464  0.4045 -0.1523
  403MOL0     H55553   5.663   4.609  10.792 -1.8421 -0.0618  0.7403
  403MOL0     H55554   5.535   4.634  10.670 -0.7455  1.9625 -0.8358
  403MOL0     H55555   5.829   4.695  10.599 -0.5981  0.9148 -1.5077
  403MOL0     H55556   5.686   4.677  10.491  0.4115 -0.3408 -0.0947
  403MOL0     H55557   5.850   4.452  10.624 -1.8493 -1.8211  0.5529
  403MOL0     H55558   5.683   4.438  10.612 -0.4942 -1.8381 -1.1726
  403MOL0     H55559   5.839   4.508  10.356 -0.8590  0.1594 -1.4818
  403MOL0     H55560   5.666   4.464  10.396 -0.3519 -0.2217  2.3739
  403MOL0     H55561   5.722   4.252  10.467 -0.0982  0.5253  0.7688
  403MOL0     H55562   5.793   4.259  10.304  0.8539 -0.9636 -0.1585
  403MOL0     H55563   6.028   4.242  10.252  1.3822  2.2514  0.5258
  403MOL0     H55564   6.304   4.285  10.368 -1.8800  1.3960  3.0286
  403MOL0     H55565   6.268   4.131  10.295 -3.9902  0.1961  0.4925
  403MOL0     H55566   6.365   4.179  10.569  0.8048  1.6294 -1.2131
  403MOL0     H55567   6.357   4.013  10.514  1.7002 -0.2061  1.0502
  403MOL0     H55568   6.534   4.059  10.352  1.2785 -0.0689 -0.1512
  403MOL0     H55569   6.543   4.227  10.385 -0.2853 -0.0593  0.6737
  403MOL0     H55570   6.624   4.172  10.630  0.2509  1.5323 -1.4866
  403MOL0     H55571   6.575   4.015  10.595 -0.0840 -0.0484 -1.5579
  403MOL0     H55572   6.964   3.999  10.410  2.3921  3.4088  1.1459
  403MOL0     H55573   7.285   3.937  10.579  2.9386 -3.9776 -3.3165
  403MOL0     H55574   7.196   3.964  10.430 -0.4786 -3.0652 -1.5579
  403MOL0     H55575   7.210   3.806  10.494 -0.6242 -0.2005 -1.4420
  403MOL0     H55576   7.239   3.614  10.996 -0.2369 -1.2050  0.2242
  403MOL0     H55577   7.447   3.520  11.094 -3.7832  0.3799  0.1209
  403MOL0     H55578   7.628   3.409  11.045 -0.8008  0.7406 -0.4502
  403MOL0     H55579   7.803   3.432  10.996 -0.9408 -2.8240 -0.8690
  403MOL0     H55580   7.665   3.509  11.265 -0.6922 -1.7817 -0.2886
  403MOL0     H55581   7.794   3.382  11.241  2.9147  0.6615 -1.4275
  403MOL0     H55582   7.854   3.614  11.349 -1.3120  0.6613 -0.1678
  403MOL0     H55583   7.853   3.690  11.198  1.6323  0.7986  1.0661
  403MOL0     H55584   8.023   3.579  11.104 -1.0880 -1.7256 -0.8249
  403MOL0     H55585   8.004   3.435  11.204 -1.3766  0.4886 -1.4748
  403MOL0     H55586   8.109   3.695  11.290 -3.1360 -0.3096 -2.2442
  403MOL0     H55587   8.099   3.544  11.398 -0.8681  0.0576  0.5747
  403MOL0     H55588   8.260   3.560  11.137  0.5061 -2.5852 -0.5029
  403MOL0     H55589   8.242   3.420  11.237 -0.4703 -0.7534  3.3673
  403MOL0     H55590   8.372   3.526  11.421  2.4000 -0.0973  0.2662
  403MOL0     H55591   8.393   3.671  11.324  0.0414  0.2457 -3.6789
  403MOL0     H55592   8.512   3.508  11.151  3.8644  0.5541  0.5364
  403MOL0     H55593   8.488   3.382  11.268  0.2413 -0.8206 -3.4998
  403MOL0     H55594   7.680   3.791  10.844  1.9812 -2.8090  2.5396
  403MOL0     H55595   7.475   3.842  10.723  1.4649  0.7639  0.5708
  403MOL0     H55596   6.918   3.968  10.898  2.5613 -0.0554  0.1354
  403MOL0     H55597   6.735   4.035  10.755 -1.6338  0.4516 -1.4972
  403MOL0     H55598   5.196   4.973  10.599 -1.4408 -0.0961 -2.6784
  403MOL0     H55599   4.982   4.995  10.517  1.1477  1.9311  1.4307
  403MOL0     H55600   4.499   4.994  10.715 -0.2180  3.1507  0.2501
  403MOL0     H55601   4.277   5.026  10.671  3.1434 -1.1356  2.4207
  403MOL0     H55602   4.089   5.141  10.568  2.4533  0.4079  0.0872
  403MOL0     H55603   4.170   5.188  10.416 -2.1936  2.1967 -0.4452
  403MOL0     H55604   3.906   5.207  10.428 -0.3474 -1.4172  2.2766
  403MOL0     H55605   3.912   5.039  10.390  0.8005 -0.5863  0.6814
  403MOL0     H55606   3.988   5.279  10.226 -0.2851 -0.3002  1.6833
  403MOL0     H55607   4.085   5.142  10.192 -1.0686 -2.4252 -3.2736
  403MOL0     H55608   3.787   5.123  10.194  0.9988  1.2314  0.7496
  403MOL0     H55609   3.898   5.004  10.122  0.5080  0.5211  1.2609
  403MOL0     H55610   3.843   5.345   9.856  3.7646  0.9117  1.5077
  403MOL0     H55611   4.318   4.899  10.266 -0.6310  4.1879 -0.5727
  403MOL0     H55612   4.484   4.781  10.199  1.4582  0.9890 -3.4277
  403MOL0     H55613   4.613   4.900  10.188  0.5647 -1.1077  0.7278
  403MOL0     H55614   4.625   4.767  10.303  0.2741  0.4106  1.0412
  404MOL0     O55615   5.527   0.220   2.449  0.1479 -0.6921  0.1189
  404MOL0     C55616   5.451   0.311   2.499  0.6082 -0.2262 -0.1383
  404MOL0     O55617   5.470   0.448   2.484  0.1862  0.0246  0.3269
  404MOL0     C55618   5.576   0.488   2.398 -0.5457 -0.1684 -0.5719
  404MOL0     C55619   5.710   0.509   2.445  0.7474  1.3682  0.9137
  404MOL0     C55620   5.811   0.554   2.356  0.5406  0.7462 -0.6163
  404MOL0     C55621   5.776   0.578   2.219 -0.1676 -0.5945 -0.4382
  404MOL0     O55622   5.860   0.636   2.130 -0.1881  0.3216  0.2298
  404MOL0     C55623   6.005   0.621   2.149 -0.3765 -0.8872  0.3813
  404MOL0     C55624   6.080   0.688   2.040 -0.5727 -0.3188  0.5081
  404MOL0     C55625   6.233   0.680   2.062  0.2948 -0.4650  0.1882
  404MOL0     C55626   6.277   0.781   2.180  0.4759  0.4060 -0.3384
  404MOL0     C55627   6.430   0.784   2.185  1.1939 -0.1911  0.8518
  404MOL0     C55628   6.463   0.901   2.280  0.2347  0.1080  0.0384
  404MOL0     C55629   6.612   0.901   2.317 -0.3025  0.9952  0.1969
  404MOL0     C55630   6.655   1.023   2.400  0.1133  0.1651  0.4945
  404MOL0     N55631   6.797   0.996   2.435 -0.3999 -0.8684 -0.4017
  404MOL0     C55632   6.866   1.086   2.520  0.0648 -0.3064 -0.5999
  404MOL0     C55633   7.000   1.032   2.510  1.6196 -0.0152 -0.3403
  404MOL0     C55634   7.116   1.109   2.573  0.2268 -0.3067 -0.1485
  404MOL0     C55635   7.242   1.024   2.617  0.9396  0.0786 -1.0326
  404MOL0     C55636   7.325   0.956   2.517 -0.2501  0.0745 -1.0523
  404MOL0     C55637   7.416   0.858   2.582 -0.0264  0.6312 -0.4041
  404MOL0     O55638   7.533   0.835   2.501  0.1890 -0.1243 -0.6632
  404MOL0     C55639   7.637   0.928   2.503 -0.0155 -0.1728 -0.0040
  404MOL0     C55640   7.733   0.910   2.404  0.2295 -0.1783  0.1913
  404MOL0     C55641   7.853   0.987   2.397  0.3611  0.2035 -0.5584
  404MOL0     C55642   7.931   0.974   2.272  0.6283 -0.9396 -0.0214
  404MOL0     C55643   7.891   1.070   2.503 -0.5758 -0.1462  0.9935
  404MOL0     C55644   8.022   1.139   2.523 -0.5915  0.0257 -0.2739
  404MOL0     O55645   8.033   1.242   2.614  0.2612  0.4400  0.5140
  404MOL0     C55646   8.151   1.310   2.629 -0.3365 -0.7591  0.6889
  404MOL0     C55647   8.180   1.342   2.759 -0.2895 -0.1468  0.7922
  404MOL0     C55648   8.288   1.425   2.789 -0.4166  0.7427  0.0304
  404MOL0     C55649   8.381   1.468   2.693 -0.1511  0.8455 -0.2243
  404MOL0     O55650   8.484   1.551   2.723 -0.0361  0.0487 -0.0694
  404MOL0     C55651   8.490   1.600   2.859 -1.5125 -0.8255 -0.4980
  404MOL0     C55652   8.628   1.685   2.879  0.7168 -0.3165 -0.5486
  404MOL0     C55653   8.634   1.776   3.000 -0.4451 -0.4721 -0.7103
  404MOL0     C55654   8.638   1.698   3.140  0.1452  0.4296 -0.3401
  404MOL0     C55655   8.636   1.800   3.250 -0.5231  0.2016 -0.2509
  404MOL0     C55656   8.639   1.749   3.393  0.1894 -0.4050 -0.2744
  404MOL0     C55657   8.662   1.860   3.496  0.2219 -0.6078  0.1657
  404MOL0     C55658   8.543   1.972   3.498 -0.6820 -0.6261 -0.0575
  404MOL0    Cl55659   8.601   2.115   3.597 -1.0138 -0.0240 -0.0150
  404MOL0     C55660   8.358   1.423   2.560  0.2679  0.6113  0.1481
  404MOL0     C55661   8.243   1.344   2.529  0.0703 -0.4747 -0.3442
  404MOL0     O55662   8.113   1.087   2.467 -0.4593  0.8888  0.1273
  404MOL0     C55663   7.784   1.094   2.602 -0.4588 -0.2100  0.0127
  404MOL0     C55664   7.668   1.022   2.604 -0.4865 -0.1981 -0.0674
  404MOL0     N55665   7.001   0.924   2.432 -0.0287  0.3298  0.1241
  404MOL0     N55666   6.885   0.908   2.383  0.6431 -0.6493 -0.1526
  404MOL0     C55667   5.642   0.553   2.177 -0.2890 -0.5334  0.5328
  404MOL0     C55668   5.542   0.522   2.267 -0.7286  0.2973  0.4047
  404MOL0     C55669   5.370   0.272   2.609  0.4921 -0.5248 -0.3413
  404MOL0     C55670   5.415   0.182   2.706  0.0047  0.1932 -1.0446
  404MOL0     C55671   5.337   0.158   2.817  0.4548  0.3907  0.8620
  404MOL0     C55672   5.212   0.215   2.838  0.0498 -0.4833 -0.4370
  404MOL0     O55673   5.136   0.192   2.949  0.4012  0.5052 -0.0057
  404MOL0     C55674   5.019   0.111   2.924  0.6688 -0.1311 -0.1029
  404MOL0     C55675   4.905   0.133   3.026 -0.1898  0.0261  0.1458
  404MOL0     C55676   4.925   0.040   3.145 -0.0210  0.0518  0.1043
  404MOL0     C55677   4.876  -0.095   3.108  0.1668 -0.8775 -0.0353
  404MOL0     C55678   4.734  -0.087   3.126  0.4514  0.1911  0.2198
  404MOL0     C55679   4.617  -0.063   3.150  0.0534 -0.0493 -0.1026
  404MOL0     C55680   5.167   0.293   2.731 -0.7175 -0.4651 -0.3133
  404MOL0     C55681   5.240   0.321   2.619  0.9834  0.8052  0.1819
  404MOL0     C55682   5.192   0.427   2.524 -0.0818 -0.7104 -0.0567
  404MOL0     H55683   5.734   0.498   2.551 -2.4878  2.2154  1.8508
  404MOL0     H55684   5.909   0.582   2.391  0.6603 -0.9680  0.5453
  404MOL0     H55685   6.035   0.516   2.139  2.1528 -0.2116  0.4223
  404MOL0     H55686   6.043   0.662   2.242  2.0136 -0.4465 -0.7049
  404MOL0     H55687   6.058   0.648   1.940 -0.1903  1.4417 -0.3173
  404MOL0     H55688   6.054   0.794   2.028 -1.3454 -0.7913 -3.7885
  404MOL0     H55689   6.269   0.582   2.091  0.0538 -0.3602  0.8572
  404MOL0     H55690   6.271   0.708   1.963 -2.2176  1.7609 -0.2843
  404MOL0     H55691   6.250   0.885   2.156  2.8035  1.0622 -0.3929
  404MOL0     H55692   6.229   0.763   2.276 -0.7191 -0.8167 -1.1264
  404MOL0     H55693   6.469   0.812   2.086 -2.1306  1.5197 -0.1475
  404MOL0     H55694   6.453   0.684   2.222  1.2784 -0.1705  0.8550
  404MOL0     H55695   6.454   0.998   2.230  2.8049 -0.5447 -1.9259
  404MOL0     H55696   6.406   0.901   2.374 -0.2386  0.4878 -0.2443
  404MOL0     H55697   6.681   0.894   2.232 -0.8531  2.4316 -0.3827
  404MOL0     H55698   6.641   0.809   2.369 -2.1806 -0.3223 -0.9784
  404MOL0     H55699   6.644   1.120   2.349  1.8665  0.3068  0.3235
  404MOL0     H55700   6.591   1.035   2.488  2.5296 -0.1782  2.4053
  404MOL0     H55701   6.827   1.166   2.581  2.0309 -0.3039  0.7500
  404MOL0     H55702   7.073   1.155   2.661  0.2389 -1.0832  0.2754
  404MOL0     H55703   7.155   1.184   2.504  0.8021  0.0710  0.5796
  404MOL0     H55704   7.302   1.096   2.674 -0.2975 -0.3594  0.9053
  404MOL0     H55705   7.210   0.948   2.688 -1.9288  1.1927 -1.0246
  404MOL0     H55706   7.266   0.887   2.457 -2.8365 -0.3389  1.7579
  404MOL0     H55707   7.388   1.034   2.472  0.6736  0.3800  0.6514
  404MOL0     H55708   7.438   0.882   2.687 -1.5423 -2.3310  0.7213
  404MOL0     H55709   7.371   0.759   2.599 -1.3342  1.1969 -0.5276
  404MOL0     H55710   7.718   0.838   2.324  0.7820  0.6388 -0.6668
  404MOL0     H55711   8.024   0.920   2.292  0.5041  0.0211  4.2748
  404MOL0     H55712   7.960   1.073   2.235  0.2531  0.2198  2.4968
  404MOL0     H55713   7.869   0.927   2.196  0.0905  2.5183 -1.9455
  404MOL0     H55714   8.110   1.315   2.838 -0.7339 -3.1497 -0.4872
  404MOL0     H55715   8.300   1.459   2.892 -0.2711 -1.5375  0.8282
  404MOL0     H55716   8.406   1.668   2.871  1.4328  3.2934 -1.1014
  404MOL0     H55717   8.492   1.517   2.931 -0.7424  0.4558  1.0027
  404MOL0     H55718   8.710   1.613   2.874  2.2490  1.2589  0.8234
  404MOL0     H55719   8.643   1.745   2.789 -0.7977  0.5598 -0.2402
  404MOL0     H55720   8.547   1.842   3.002  0.2978  0.5641 -1.4225
  404MOL0     H55721   8.728   1.832   2.995 -0.6932 -0.1497 -2.2605
  404MOL0     H55722   8.730   1.640   3.137 -1.5206 -2.3800 -1.5142
  404MOL0     H55723   8.549   1.636   3.154  0.5940  0.2853  2.4872
  404MOL0     H55724   8.723   1.864   3.234  1.3722 -2.1989 -0.2236
  404MOL0     H55725   8.545   1.860   3.249 -0.8216 -0.0976  2.2727
  404MOL0     H55726   8.721   1.678   3.405 -0.1147 -0.7880 -0.4292
  404MOL0     H55727   8.548   1.694   3.417  0.4640 -1.1507 -0.9084
  404MOL0     H55728   8.763   1.901   3.488 -0.3738  0.6268 -1.5547
  404MOL0     H55729   8.668   1.819   3.597 -1.0429 -0.8329  0.1687
  404MOL0     H55730   8.451   1.922   3.530 -0.4874 -2.2563 -1.8186
  404MOL0     H55731   8.521   2.006   3.397  2.1608 -0.3617 -0.6780
  404MOL0     H55732   8.419   1.453   2.475  0.8672  2.4913  1.2089
  404MOL0     H55733   8.220   1.322   2.425 -0.6707 -3.1798  0.3163
  404MOL0     H55734   7.806   1.160   2.685 -1.5823  0.1169  0.0648
  404MOL0     H55735   7.600   1.039   2.687  0.5108  1.8545  0.3989
  404MOL0     H55736   5.616   0.566   2.072 -0.8189 -0.1860  0.7033
  404MOL0     H55737   5.443   0.503   2.228 -1.7405  4.3242  0.6225
  404MOL0     H55738   5.507   0.126   2.693 -0.2058 -1.4786  3.0941
  404MOL0     H55739   5.386   0.098   2.893  3.2406  1.3951 -0.0114
  404MOL0     H55740   4.971   0.116   2.825 -1.6431 -2.1434  0.8283
  404MOL0     H55741   5.048   0.006   2.925 -1.6382 -0.8327 -1.0322
  404MOL0     H55742   4.806   0.133   2.980  1.0269  1.8589 -2.7015
  404MOL0     H55743   4.916   0.237   3.057 -3.6041 -0.7501  5.1198
  404MOL0     H55744   5.030   0.042   3.176  0.0614  1.2606 -0.1753
  404MOL0     H55745   4.860   0.081   3.223 -1.2852  0.6572 -1.2133
  404MOL0     H55746   4.915  -0.163   3.185 -0.0090  0.1088  0.9485
  404MOL0     H55747   4.905  -0.128   3.008  1.0893 -2.0262  0.5770
  404MOL0     H55748   4.512  -0.050   3.165 -0.2712 -1.5941 -0.8313
  404MOL0     H55749   5.068   0.338   2.728 -0.0210  1.3096  1.0306
  404MOL0     H55750   5.229   0.408   2.422 -2.2236  0.7062 -1.1799
  404MOL0     H55751   5.083   0.433   2.520 -0.1081 -1.4292 -1.9021
  404MOL0     H55752   5.222   0.521   2.571  3.0295 -2.8530  2.7007
  405MOL0     O55753   0.576   8.097   0.999 -0.2392  0.3743 -0.0359
  405MOL0     C55754   0.514   8.198   0.973  0.6791  0.9293  0.1935
  405MOL0     O55755   0.569   8.323   0.956 -0.4557  0.0425 -0.4776
  405MOL0     C55756   0.700   8.339   0.909  0.6392  0.5885 -1.1193
  405MOL0     C55757   0.780   8.437   0.973 -0.2725  0.0028 -0.6319
  405MOL0     C55758   0.906   8.444   0.945  1.2814  0.4078  0.2252
  405MOL0     C55759   0.971   8.376   0.849 -0.2053  0.3907  0.8063
  405MOL0     O55760   1.108   8.392   0.840 -0.2611  0.0154  0.4402
  405MOL0     C55761   1.186   8.299   0.762  0.6605 -0.3556 -0.9208
  405MOL0     C55762   1.329   8.291   0.806 -0.8326  0.1631 -0.3991
  405MOL0     C55763   1.393   8.425   0.807 -0.5511 -1.0053 -0.0158
  405MOL0     C55764   1.543   8.435   0.781 -0.0353 -0.6100  0.6380
  405MOL0     C55765   1.614   8.573   0.808 -0.3922  0.4169 -0.1444
  405MOL0     C55766   1.760   8.558   0.826  0.3195  0.8212  0.4181
  405MOL0     C55767   1.822   8.532   0.680  0.4634  0.2777 -1.2305
  405MOL0     C55768   1.973   8.507   0.676 -0.4799 -0.3740 -0.6867
  405MOL0     N55769   2.047   8.622   0.712 -0.8142 -0.1044 -0.0812
  405MOL0     C55770   2.036   8.739   0.646 -0.2536 -0.1419  0.2305
  405MOL0     C55771   2.142   8.809   0.692  0.2872  0.3516 -0.6224
  405MOL0     C55772   2.177   8.951   0.642  0.4553 -0.1760  0.2384
  405MOL0     C55773   2.338   8.962   0.629 -0.4253 -0.4766  0.3108
  405MOL0     C55774   2.386   9.076   0.548 -0.3964  0.0076 -0.5120
  405MOL0     C55775   2.538   9.075   0.532 -0.2608 -0.3013  0.0470
  405MOL0     O55776   2.557   8.957   0.450  0.5857 -0.8385 -0.4705
  405MOL0     C55777   2.681   8.911   0.432  0.6987  0.1509 -0.1469
  405MOL0     C55778   2.793   8.960   0.493  0.0659  0.4319 -0.5677
  405MOL0     C55779   2.915   8.891   0.482 -0.5621 -0.1460 -1.2806
  405MOL0     C55780   3.036   8.960   0.540  0.7651 -0.3342 -0.1822
  405MOL0     C55781   2.933   8.775   0.399  0.9153  0.7315  0.6705
  405MOL0     C55782   3.068   8.709   0.368 -0.3979  0.9435 -0.3040
  405MOL0     O55783   3.172   8.726   0.452 -0.1517  0.2419  0.3691
  405MOL0     C55784   3.278   8.633   0.424  0.2162  0.3844  0.1449
  405MOL0     C55785   3.410   8.681   0.418 -0.7226 -0.1190  0.0179
  405MOL0     C55786   3.521   8.596   0.397  0.2831  0.1875 -0.1797
  405MOL0     C55787   3.501   8.462   0.405 -0.4040 -0.0202  0.9199
  405MOL0     O55788   3.618   8.386   0.389  0.2931  0.2540 -0.0518
  405MOL0     C55789   3.618   8.246   0.416 -0.2992 -0.3560 -0.4335
  405MOL0     C55790   3.765   8.202   0.421  0.0434  0.2129 -0.4557
  405MOL0     C55791   3.773   8.048   0.452 -0.7515 -0.1825 -0.5967
  405MOL0     C55792   3.907   8.007   0.511  0.3662  0.3689 -0.2615
  405MOL0     C55793   3.922   7.849   0.516 -0.7946  0.8079  0.4187
  405MOL0     C55794   4.056   7.801   0.570 -0.0620 -0.4464 -0.1689
  405MOL0     C55795   4.076   7.652   0.563  0.2323  0.2674 -0.5149
  405MOL0     C55796   4.214   7.606   0.617  0.1079  0.2989 -0.4478
  405MOL0    Cl55797   4.342   7.665   0.505  0.3281 -0.2208 -0.0226
  405MOL0     C55798   3.378   8.410   0.405 -0.4839 -0.4674  0.0532
  405MOL0     C55799   3.272   8.490   0.414  0.2588  1.0223  0.4669
  405MOL0     O55800   3.076   8.649   0.258 -0.4389 -0.6347 -0.2085
  405MOL0     C55801   2.814   8.740   0.330  0.5005  0.5134 -0.1083
  405MOL0     C55802   2.690   8.802   0.349  0.1418  0.5684  0.2357
  405MOL0     N55803   2.213   8.737   0.792  0.5574 -0.7609 -0.3222
  405MOL0     N55804   2.134   8.631   0.815 -0.6556 -0.3100  0.1616
  405MOL0     C55805   0.890   8.281   0.774 -0.1190  0.1353 -0.5038
  405MOL0     C55806   0.755   8.262   0.804  0.0923 -0.4601 -0.2127
  405MOL0     C55807   0.362   8.198   0.972  0.4035 -0.6517 -0.0036
  405MOL0     C55808   0.296   8.309   0.911  0.3265  0.1863  1.1054
  405MOL0     C55809   0.159   8.303   0.876 -0.0798  0.3155 -0.0195
  405MOL0     C55810   0.081   8.193   0.919 -0.4545 -0.1329  0.1361
  405MOL0     O55811  -0.056   8.190   0.896 -0.4485  0.2770  0.9068
  405MOL0     C55812  -0.097   8.073   0.824  0.0108 -0.4627  0.0073
  405MOL0     C55813  -0.210   7.997   0.895 -0.8063 -0.5737 -0.1772
  405MOL0     C55814  -0.341   8.077   0.904  0.2256 -0.0518 -0.0323
  405MOL0     C55815  -0.436   8.045   1.024 -0.0360 -0.4787 -0.1162
  405MOL0     C55816  -0.477   7.908   1.012  0.4399  0.5330  0.3265
  405MOL0     C55817  -0.492   7.789   0.992 -0.2813  0.2798 -0.5009
  405MOL0     C55818   0.138   8.102   1.005  0.0392 -0.2283 -0.6206
  405MOL0     C55819   0.278   8.095   1.026  0.1180  0.5282 -0.0097
  405MOL0     C55820   0.327   7.980   1.100  0.5094 -0.6324  0.0798
  405MOL0     H55821   0.743   8.493   1.058  3.0522  1.6530 -0.1324
  405MOL0     H55822   0.962   8.522   0.997 -1.2024  2.1537  0.4650
  405MOL0     H55823   1.191   8.337   0.660  0.9001  2.9436  0.1860
  405MOL0     H55824   1.144   8.198   0.764 -2.3880  0.8034 -1.5119
  405MOL0     H55825   1.347   8.245   0.904 -0.2459 -1.1777 -1.1149
  405MOL0     H55826   1.381   8.227   0.735  0.6785  0.0453  0.7563
  405MOL0     H55827   1.344   8.487   0.731 -0.7940 -0.5421  0.5066
  405MOL0     H55828   1.364   8.469   0.903 -0.8118 -1.7418  0.2491
  405MOL0     H55829   1.585   8.358   0.847 -2.4818 -2.3737  0.2807
  405MOL0     H55830   1.574   8.408   0.680  0.1179 -0.8052  0.7359
  405MOL0     H55831   1.582   8.622   0.901  1.6150  1.2658  0.1546
  405MOL0     H55832   1.590   8.645   0.730  1.5306  2.1568  0.7743
  405MOL0     H55833   1.814   8.644   0.866  0.9740  1.0276 -0.8448
  405MOL0     H55834   1.783   8.473   0.892  2.2015  0.9717  0.0373
  405MOL0     H55835   1.790   8.615   0.617 -1.3482 -0.6356 -1.5843
  405MOL0     H55836   1.781   8.447   0.625 -1.9408  0.7459 -0.3010
  405MOL0     H55837   2.002   8.425   0.743  2.8670  3.0944  2.6637
  405MOL0     H55838   2.015   8.487   0.577  3.1424 -2.8660  1.0946
  405MOL0     H55839   1.973   8.770   0.564 -0.2976  2.4484  1.1608
  405MOL0     H55840   2.148   9.025   0.717 -1.2237 -1.6743  1.1316
  405MOL0     H55841   2.125   8.968   0.548 -1.8949  0.6402  1.6018
  405MOL0     H55842   2.380   8.973   0.730  1.4507  1.0080 -0.5645
  405MOL0     H55843   2.380   8.867   0.596  1.0612  0.2998 -0.1483
  405MOL0     H55844   2.335   9.050   0.454 -2.0353 -1.7300  0.7875
  405MOL0     H55845   2.359   9.171   0.595  0.8545 -0.2746  0.8523
  405MOL0     H55846   2.569   9.164   0.477  1.6000 -1.2721 -0.5269
  405MOL0     H55847   2.587   9.072   0.630 -1.5939 -0.8844  0.7271
  405MOL0     H55848   2.789   9.042   0.564 -1.7011 -1.3771  1.5894
  405MOL0     H55849   3.009   9.048   0.600 -3.2524  0.1706 -2.3902
  405MOL0     H55850   3.098   8.992   0.456  1.8867  1.7026  1.3287
  405MOL0     H55851   3.085   8.890   0.608 -0.1308 -1.5068 -0.7156
  405MOL0     H55852   3.427   8.788   0.422  1.0258 -0.2008 -2.6637
  405MOL0     H55853   3.617   8.646   0.391  0.0671  0.5030 -4.3377
  405MOL0     H55854   3.580   8.237   0.518  1.9188 -1.1137  0.3713
  405MOL0     H55855   3.562   8.187   0.343 -0.8636  2.2979 -2.3256
  405MOL0     H55856   3.803   8.197   0.319 -0.0273 -1.1821 -0.4347
  405MOL0     H55857   3.828   8.263   0.485 -0.5551  0.2891  0.0807
  405MOL0     H55858   3.751   8.001   0.356  1.4614  0.0817 -1.2921
  405MOL0     H55859   3.692   8.010   0.514 -0.8658  2.0498  0.7195
  405MOL0     H55860   3.935   8.059   0.603  0.7149 -1.5224  0.7499
  405MOL0     H55861   3.985   8.038   0.441  0.8090  0.7999  0.4167
  405MOL0     H55862   3.848   7.810   0.587 -0.9092  0.9561  0.3807
  405MOL0     H55863   3.911   7.821   0.411 -1.1817  2.1780  0.0736
  405MOL0     H55864   4.056   7.830   0.675 -2.3706 -0.9855  0.0211
  405MOL0     H55865   4.133   7.850   0.509  0.1897  0.3360  0.7621
  405MOL0     H55866   4.072   7.618   0.459  1.1313  0.5270 -0.6379
  405MOL0     H55867   4.001   7.600   0.624  0.5400 -1.0630 -1.2125
  405MOL0     H55868   4.218   7.498   0.628  2.5680  0.5851  5.1922
  405MOL0     H55869   4.224   7.652   0.717 -0.0506 -0.8545  0.1101
  405MOL0     H55870   3.358   8.303   0.400  0.5385 -0.6685 -0.1326
  405MOL0     H55871   3.173   8.446   0.415  1.6791 -2.7193 -1.8190
  405MOL0     H55872   2.818   8.660   0.257  0.2122  0.2716  0.1344
  405MOL0     H55873   2.599   8.773   0.298 -0.3724  0.8743  0.9656
  405MOL0     H55874   0.921   8.198   0.710 -1.7133 -1.2918  0.5098
  405MOL0     H55875   0.705   8.177   0.760  0.5975 -1.7313  1.5753
  405MOL0     H55876   0.351   8.393   0.870  1.3549 -1.2313 -0.5556
  405MOL0     H55877   0.103   8.375   0.816  0.5913  2.0266  1.3060
  405MOL0     H55878  -0.119   8.085   0.717  1.0546 -1.2409 -0.3206
  405MOL0     H55879  -0.015   8.000   0.827  1.2570  0.9071  0.2691
  405MOL0     H55880  -0.174   7.964   0.993  3.3166 -0.2386 -1.3564
  405MOL0     H55881  -0.237   7.909   0.836 -1.8569 -0.8334  0.6631
  405MOL0     H55882  -0.327   8.185   0.917 -1.4592  0.3963 -1.5366
  405MOL0     H55883  -0.395   8.054   0.812  0.6303 -0.8821 -0.0708
  405MOL0     H55884  -0.524   8.110   1.024  2.0001  2.4498 -0.9655
  405MOL0     H55885  -0.385   8.068   1.118 -0.0810 -2.1291  0.3463
  405MOL0     H55886  -0.504   7.684   0.973  1.3286  0.0343 -0.2964
  405MOL0     H55887   0.068   8.037   1.057  0.5436 -1.7546 -1.7857
  405MOL0     H55888   0.376   7.910   1.031  0.6464 -0.3844 -0.0748
  405MOL0     H55889   0.400   8.006   1.177 -0.7162 -3.0733  2.2060
  405MOL0     H55890   0.248   7.935   1.160 -1.9718  4.0209  0.7035
  406MOL0     O55891   7.472   9.262   1.588  1.0403 -0.4605  0.4724
  406MOL0     C55892   7.368   9.247   1.525 -0.1548 -0.3484 -0.0237
  406MOL0     O55893   7.341   9.326   1.408  0.6219 -0.0715 -0.8688
  406MOL0     C55894   7.430   9.399   1.346 -0.3738 -0.2272 -0.2231
  406MOL0     C55895   7.506   9.503   1.403  0.4212  0.8702  0.4921
  406MOL0     C55896   7.601   9.572   1.324  0.1664 -0.2391  0.0959
  406MOL0     C55897   7.602   9.548   1.189 -0.5576  0.1078 -0.2837
  406MOL0     O55898   7.692   9.619   1.118  0.0606 -0.3739  0.3033
  406MOL0     C55899   7.824   9.564   1.115  0.1575  0.3743  0.0679
  406MOL0     C55900   7.909   9.637   1.007  0.4158  0.4442 -0.1540
  406MOL0     C55901   8.054   9.604   1.015 -0.2948 -0.9423  0.2355
  406MOL0     C55902   8.136   9.697   0.918 -0.1377  0.5236 -0.5411
  406MOL0     C55903   8.286   9.648   0.928 -0.4224 -0.0166  0.4358
  406MOL0     C55904   8.373   9.714   1.033  0.9322  0.1993 -0.2603
  406MOL0     C55905   8.524   9.677   1.021 -0.3426 -0.4144  0.3452
  406MOL0     C55906   8.599   9.730   1.139 -0.0023 -0.2081 -0.0488
  406MOL0     N55907   8.745   9.690   1.144 -0.5354 -0.2389 -0.8281
  406MOL0     C55908   8.841   9.750   1.066  0.1074 -0.2247  0.0962
  406MOL0     C55909   8.955   9.678   1.090 -0.4926 -0.7046 -0.1313
  406MOL0     C55910   9.095   9.698   1.039 -0.7708  0.8250  0.8082
  406MOL0     C55911   9.146   9.835   1.046  0.0871 -0.2696  0.3319
  406MOL0     C55912   9.305   9.836   1.046 -0.0686 -0.0215  0.0761
  406MOL0     C55913   9.362   9.984   1.063  0.8184 -0.1793  1.0600
  406MOL0     O55914   9.488   9.980   1.137  0.4546 -0.2825 -0.0568
  406MOL0     C55915   9.604   9.949   1.078  0.4758  0.5008 -0.0190
  406MOL0     C55916   9.622   9.932   0.937 -0.0150 -0.0019 -0.6339
  406MOL0     C55917   9.754   9.900   0.894  0.6523 -0.1376 -0.0187
  406MOL0     C55918   9.774   9.873   0.744  0.0492 -0.3355 -0.2296
  406MOL0     C55919   9.860   9.901   0.984 -0.3460  0.4956  0.3767
  406MOL0     C55920   9.998   9.875   0.937  0.0513  0.7632  0.2097
  406MOL0     O55921  10.058   9.780   1.003 -0.7546  0.1725 -0.0686
  406MOL0     C55922  10.193   9.786   1.034  0.1257  0.5544  1.0054
  406MOL0     C55923  10.256   9.659   1.049  0.0898 -0.2126  0.3713
  406MOL0     C55924  10.392   9.657   1.066 -0.3280  0.2260  0.2843
  406MOL0     C55925  10.471   9.778   1.075  1.2971  0.3667  0.0050
  406MOL0     O55926  10.598   9.746   1.104 -0.6285  0.0999  0.0297
  406MOL0     C55927  10.690   9.845   1.148 -1.0219 -0.2501  0.6137
  406MOL0     C55928  10.826   9.780   1.181  0.2694  0.7364 -0.4209
  406MOL0     C55929  10.903   9.866   1.280  0.4063 -0.0080 -0.7007
  406MOL0     C55930  10.964   9.999   1.227 -0.3718  0.1829  0.1313
  406MOL0     C55931  11.060  10.082   1.327 -1.2617  0.8060 -0.1949
  406MOL0     C55932  11.039  10.042   1.480 -0.9833 -0.8358  0.1922
  406MOL0     C55933  11.135  10.147   1.545  0.3929 -0.0443 -0.5380
  406MOL0     C55934  11.103  10.151   1.696 -0.2040 -0.1922 -0.4189
  406MOL0    Cl55935  11.252  10.186   1.789  0.1724 -0.3286  0.5074
  406MOL0     C55936  10.406   9.898   1.062 -0.0880 -0.7588 -1.1864
  406MOL0     C55937  10.267   9.903   1.056  0.0586  0.2812  0.5458
  406MOL0     O55938  10.049   9.955   0.858  0.7550  0.1155  0.2227
  406MOL0     C55939   9.840   9.939   1.122  0.5298 -0.1590  0.6859
  406MOL0     C55940   9.712   9.963   1.164  0.0556  0.6941 -0.2791
  406MOL0     N55941   8.932   9.574   1.178  0.0355  0.2086  0.3669
  406MOL0     N55942   8.803   9.580   1.201  0.2987  0.2215  0.3113
  406MOL0     C55943   7.524   9.451   1.131  0.3013  0.8509  0.0474
  406MOL0     C55944   7.448   9.365   1.212  1.4160  0.1854 -0.3509
  406MOL0     C55945   7.268   9.147   1.560 -0.4326  0.0214  0.2305
  406MOL0     C55946   7.136   9.160   1.509 -0.2049  0.1358  0.2124
  406MOL0     C55947   7.042   9.059   1.529 -0.0897 -0.6711 -0.2101
  406MOL0     C55948   7.064   8.949   1.617  0.2996  0.5713  0.0384
  406MOL0     O55949   6.958   8.863   1.627 -0.2844  0.4196 -0.3592
  406MOL0     C55950   6.964   8.745   1.703 -0.1366  0.8641 -0.3084
  406MOL0     C55951   6.865   8.646   1.634 -0.4357 -0.1701  0.5841
  406MOL0     C55952   6.717   8.698   1.636 -0.3008  0.5701  0.4762
  406MOL0     C55953   6.626   8.615   1.548 -0.3876 -0.7543  0.1389
  406MOL0     C55954   6.498   8.599   1.602  0.3753  1.3243  0.1631
  406MOL0     C55955   6.377   8.587   1.624  1.1312  0.6007 -0.3957
  406MOL0     C55956   7.187   8.942   1.670  0.7464  0.8713  1.1901
  406MOL0     C55957   7.289   9.034   1.646  0.7833  0.1821 -0.0120
  406MOL0     C55958   7.426   9.017   1.719 -0.1549  0.3675 -0.2190
  406MOL0     H55959   7.494   9.520   1.509  1.6955 -0.8615  0.9793
  406MOL0     H55960   7.669   9.640   1.374  1.5988 -0.4256 -1.5175
  406MOL0     H55961   7.825   9.457   1.095  2.3050 -0.5300  3.9588
  406MOL0     H55962   7.868   9.578   1.215 -2.0118 -1.5291  1.3893
  406MOL0     H55963   7.875   9.625   0.903  1.3641 -0.4207 -0.3849
  406MOL0     H55964   7.897   9.742   1.033 -3.9504  0.1403 -0.2029
  406MOL0     H55965   8.075   9.640   1.116 -0.5465  0.3266 -0.1429
  406MOL0     H55966   8.072   9.497   1.001 -2.5179 -1.3367  0.1065
  406MOL0     H55967   8.087   9.680   0.822 -0.8103 -1.0363  0.0473
  406MOL0     H55968   8.127   9.805   0.935 -3.2719  1.0273 -4.0244
  406MOL0     H55969   8.325   9.669   0.828 -0.0725  0.5182  0.6768
  406MOL0     H55970   8.293   9.540   0.946 -0.7728  0.0456  0.9667
  406MOL0     H55971   8.361   9.822   1.016 -0.5512  0.4137  1.8028
  406MOL0     H55972   8.333   9.686   1.131  0.1753 -0.4770 -0.7549
  406MOL0     H55973   8.561   9.725   0.931 -0.6689  0.7306  0.8042
  406MOL0     H55974   8.551   9.571   1.031 -1.2704 -0.8777 -1.5263
  406MOL0     H55975   8.589   9.839   1.135  0.7944 -0.1582 -1.2801
  406MOL0     H55976   8.552   9.693   1.231  3.0829  0.3937  1.9124
  406MOL0     H55977   8.818   9.845   1.018 -2.3173 -0.8309 -0.0781
  406MOL0     H55978   9.102   9.667   0.934 -1.5831 -2.0509  1.5033
  406MOL0     H55979   9.170   9.639   1.093 -0.3377  1.1096  0.5283
  406MOL0     H55980   9.109   9.890   0.959  1.5091 -0.7633 -0.6350
  406MOL0     H55981   9.112   9.883   1.138  3.0905  0.4284  1.1846
  406MOL0     H55982   9.342   9.761   1.116 -0.7749  0.0808  0.5641
  406MOL0     H55983   9.318   9.801   0.943  1.5246  1.3171 -0.2248
  406MOL0     H55984   9.372  10.047   0.975  1.7908 -1.6161  0.0864
  406MOL0     H55985   9.293  10.032   1.133 -0.3560  0.2162 -0.3380
  406MOL0     H55986   9.535   9.933   0.872 -1.2907 -0.6738  0.9992
  406MOL0     H55987   9.845   9.946   0.705  0.2397 -1.4519 -2.1087
  406MOL0     H55988   9.681   9.885   0.687 -0.6015  0.4312  0.9536
  406MOL0     H55989   9.810   9.770   0.735  4.3067  0.8223  1.3492
  406MOL0     H55990  10.206   9.563   1.044  0.9868 -0.6521 -0.8950
  406MOL0     H55991  10.442   9.561   1.057  0.3149  0.6076 -0.3135
  406MOL0     H55992  10.710   9.921   1.072 -3.1364 -0.0596  0.1743
  406MOL0     H55993  10.653   9.891   1.239 -2.4892 -3.3154  1.7262
  406MOL0     H55994  10.809   9.682   1.228 -0.6231  1.9173  1.9124
  406MOL0     H55995  10.873   9.767   1.083 -2.3167  1.5006 -1.8437
  406MOL0     H55996  10.979   9.797   1.318  2.6228  3.5584  2.0569
  406MOL0     H55997  10.842   9.891   1.367  0.6418  0.7170 -0.7337
  406MOL0     H55998  10.875  10.061   1.208 -0.0497  0.8481  0.7455
  406MOL0     H55999  11.016   9.989   1.131 -2.4199 -0.3724 -0.9718
  406MOL0     H56000  11.165  10.065   1.300 -2.1168 -0.8508 -2.8238
  406MOL0     H56001  11.033  10.188   1.324 -0.1287  1.1162  0.0633
  406MOL0     H56002  11.068   9.937   1.490 -0.6434 -1.0438 -2.4266
  406MOL0     H56003  10.935  10.056   1.511 -0.3693 -0.7915  2.4053
  406MOL0     H56004  11.118  10.248   1.505 -2.2117  0.4672  1.5336
  406MOL0     H56005  11.237  10.111   1.530 -0.0702 -1.7081  0.1074
  406MOL0     H56006  11.067  10.055   1.734 -1.0553  0.8039  1.4559
  406MOL0     H56007  11.019  10.219   1.716  0.8222  0.9958  0.0082
  406MOL0     H56008  10.460   9.991   1.078 -4.9419  1.9326  1.8940
  406MOL0     H56009  10.227  10.004   1.051 -0.0507  0.2248  0.2533
  406MOL0     H56010   9.918   9.950   1.197 -0.3541  0.0767  1.5983
  406MOL0     H56011   9.687   9.987   1.266 -0.2277  2.7050 -0.7741
  406MOL0     H56012   7.530   9.432   1.024 -0.1271 -0.0013  0.1603
  406MOL0     H56013   7.382   9.294   1.165  0.5405 -0.3950  1.6283
  406MOL0     H56014   7.106   9.247   1.450 -4.0152 -0.5984  0.7613
  406MOL0     H56015   6.956   9.061   1.464  0.3782 -2.3533 -0.9408
  406MOL0     H56016   7.066   8.704   1.700 -0.4987 -0.1425  0.6378
  406MOL0     H56017   6.954   8.749   1.812 -1.1887 -3.8806 -0.0389
  406MOL0     H56018   6.879   8.549   1.682 -1.4023  0.5097  2.3587
  406MOL0     H56019   6.891   8.647   1.528 -1.2100 -1.3737  0.3693
  406MOL0     H56020   6.691   8.681   1.741  1.3256  1.8538  1.1276
  406MOL0     H56021   6.714   8.804   1.608  1.4271  0.2291 -1.1909
  406MOL0     H56022   6.672   8.519   1.520  0.7825  0.8286 -4.1679
  406MOL0     H56023   6.624   8.663   1.450  2.8501  0.7327  0.6777
  406MOL0     H56024   6.276   8.567   1.651  1.3176  1.1642  0.7667
  406MOL0     H56025   7.215   8.849   1.719 -0.2137 -0.7913 -1.1972
  406MOL0     H56026   7.452   9.108   1.774 -1.1634  1.3821 -1.3455
  406MOL0     H56027   7.429   8.923   1.774 -4.0604 -2.3487 -3.9592
  406MOL0     H56028   7.499   9.000   1.640 -1.4301 -0.8327 -1.2067
  407MOL0     O56029   7.116   7.725   0.653 -0.0363 -0.4763  0.3825
  407MOL0     C56030   7.083   7.632   0.581 -0.3826  0.0679 -0.5623
  407MOL0     O56031   7.170   7.525   0.554  0.4573 -0.0838 -0.2344
  407MOL0     C56032   7.306   7.541   0.594  0.1898 -0.3669 -0.6605
  407MOL0     C56033   7.385   7.623   0.515  0.3164  0.2000  0.3252
  407MOL0     C56034   7.523   7.632   0.533  0.2522 -0.6025 -0.4300
  407MOL0     C56035   7.589   7.548   0.617 -0.2617 -0.1391 -0.5033
  407MOL0     O56036   7.726   7.535   0.618 -0.2794 -0.2352  0.4028
  407MOL0     C56037   7.801   7.448   0.695 -0.4411  0.0489  0.4326
  407MOL0     C56038   7.829   7.326   0.604  0.4255 -0.1406  0.3181
  407MOL0     C56039   7.908   7.360   0.470  0.3596 -0.8549  0.6614
  407MOL0     C56040   7.826   7.421   0.351 -0.5381 -0.0274 -0.7856
  407MOL0     C56041   7.901   7.408   0.218 -0.0077 -0.4222  0.6920
  407MOL0     C56042   8.031   7.487   0.216  0.6447 -1.4156 -0.1933
  407MOL0     C56043   8.064   7.520   0.072  1.2824  0.2018 -0.2394
  407MOL0     C56044   8.119   7.665   0.048  0.9518  0.3172 -0.1596
  407MOL0     N56045   8.236   7.674   0.135  0.0806 -0.5988  1.0739
  407MOL0     C56046   8.358   7.606   0.112 -0.7654 -0.1020 -0.2178
  407MOL0     C56047   8.436   7.639   0.219 -0.2273 -0.2144 -0.2727
  407MOL0     C56048   8.581   7.606   0.236  0.9552  0.1487  0.0647
  407MOL0     C56049   8.608   7.458   0.236  0.1492  0.4792  1.0258
  407MOL0     C56050   8.758   7.417   0.253 -0.8872  0.4614 -1.0078
  407MOL0     C56051   8.834   7.452   0.120 -0.0788  0.1214 -0.4618
  407MOL0     O56052   8.796   7.344   0.036 -0.2133 -0.4178 -1.0561
  407MOL0     C56053   8.714   7.365  -0.069 -0.2017  0.8842 -0.6923
  407MOL0     C56054   8.661   7.249  -0.132  1.2551  0.2191 -0.0963
  407MOL0     C56055   8.566   7.264  -0.234 -0.5800 -0.4806 -0.2627
  407MOL0     C56056   8.523   7.144  -0.311  0.0862 -0.0098 -1.2094
  407MOL0     C56057   8.530   7.391  -0.273  0.2340  0.0410 -0.0265
  407MOL0     C56058   8.431   7.408  -0.371 -0.3104  0.6370 -0.3759
  407MOL0     O56059   8.484   7.460  -0.494  0.5160  0.0287  0.7077
  407MOL0     C56060   8.387   7.488  -0.583 -0.5950 -0.3361 -1.3375
  407MOL0     C56061   8.347   7.621  -0.602 -0.1936  0.0820 -0.4546
  407MOL0     C56062   8.268   7.649  -0.703  0.8889 -1.0089  0.5243
  407MOL0     C56063   8.206   7.556  -0.790 -1.3186  0.7104 -0.9293
  407MOL0     O56064   8.119   7.582  -0.892 -0.0707  0.0253  0.1131
  407MOL0     C56065   8.017   7.674  -0.866 -0.1825 -0.8049  0.4497
  407MOL0     C56066   7.921   7.697  -0.984 -0.4336  0.1386 -0.3013
  407MOL0     C56067   7.818   7.578  -1.016 -0.3314  0.0032  0.7117
  407MOL0     C56068   7.759   7.609  -1.146  0.3143  0.0535 -0.2634
  407MOL0     C56069   7.611   7.556  -1.154 -0.3469  0.2343 -0.9235
  407MOL0     C56070   7.556   7.545  -1.292  0.2029 -1.0113 -0.4467
  407MOL0     C56071   7.397   7.523  -1.286 -0.0193 -0.8060 -0.4560
  407MOL0     C56072   7.305   7.638  -1.248  1.0736  0.2944 -0.0041
  407MOL0    Cl56073   7.308   7.760  -1.371 -0.1973 -0.1329  0.1166
  407MOL0     C56074   8.240   7.421  -0.761  0.1776  0.6267 -0.0733
  407MOL0     C56075   8.332   7.390  -0.661  0.0075  0.5216 -0.8197
  407MOL0     O56076   8.310   7.395  -0.346 -0.8632  0.0205  0.2707
  407MOL0     C56077   8.586   7.509  -0.219  0.4003 -0.1067 -0.0023
  407MOL0     C56078   8.678   7.494  -0.120  0.7830 -0.5619 -0.0111
  407MOL0     N56079   8.373   7.737   0.289 -0.5155  0.2393 -0.4093
  407MOL0     N56080   8.257   7.758   0.234 -0.6656  0.1192  0.0012
  407MOL0     C56081   7.501   7.466   0.698 -0.6019 -0.3884  0.0265
  407MOL0     C56082   7.361   7.457   0.691  0.2034  0.0696  0.5286
  407MOL0     C56083   6.944   7.621   0.536 -0.6888 -0.1439  0.7468
  407MOL0     C56084   6.887   7.491   0.532 -0.0266 -0.1450 -0.2985
  407MOL0     C56085   6.752   7.475   0.494 -0.8602  0.2556 -0.2222
  407MOL0     C56086   6.674   7.585   0.468  1.0738  0.4827  0.0217
  407MOL0     O56087   6.539   7.555   0.418 -0.9285  0.1819 -1.0911
  407MOL0     C56088   6.435   7.649   0.408  0.3179  0.2207 -0.3991
  407MOL0     C56089   6.441   7.747   0.289 -0.2525 -1.1677 -1.0839
  407MOL0     C56090   6.327   7.841   0.282  0.5102 -1.1790 -0.0943
  407MOL0     C56091   6.333   7.933   0.158  1.3405  0.1230  0.3680
  407MOL0     C56092   6.202   8.008   0.150 -0.3435  0.7767 -0.3866
  407MOL0     C56093   6.097   8.068   0.137 -0.0909  0.5069  0.2030
  407MOL0     C56094   6.724   7.712   0.488  0.6935 -0.1367  0.3740
  407MOL0     C56095   6.862   7.735   0.498 -0.8738  0.1003 -0.3808
  407MOL0     C56096   6.914   7.874   0.503  0.4106 -0.6997  0.2150
  407MOL0     H56097   7.332   7.667   0.431 -1.4567 -2.0327  0.1848
  407MOL0     H56098   7.578   7.686   0.456 -2.8678  1.4368 -1.4475
  407MOL0     H56099   7.759   7.421   0.792 -0.7078  3.3737  1.3477
  407MOL0     H56100   7.899   7.493   0.712  0.4968 -0.5879 -2.6748
  407MOL0     H56101   7.885   7.249   0.658  0.8755 -0.7092 -0.9202
  407MOL0     H56102   7.734   7.281   0.574  1.6787 -3.9762  1.4391
  407MOL0     H56103   7.996   7.420   0.496  0.5378 -1.7678  2.2826
  407MOL0     H56104   7.945   7.265   0.431 -0.8487 -1.2622  0.4685
  407MOL0     H56105   7.727   7.376   0.359  0.4782 -2.0289  2.1516
  407MOL0     H56106   7.817   7.527   0.376 -0.5444 -0.5601  1.7409
  407MOL0     H56107   7.828   7.445   0.146  2.1156  3.2355  0.2006
  407MOL0     H56108   7.931   7.307   0.188 -2.0233 -1.2234  1.2326
  407MOL0     H56109   8.017   7.575   0.279 -0.5984 -0.3566 -1.8500
  407MOL0     H56110   8.113   7.426   0.254  1.9754  0.7440  0.6298
  407MOL0     H56111   7.987   7.494  -0.002  0.7732  0.8386  0.0619
  407MOL0     H56112   8.144   7.448   0.049  0.9736  0.0359 -0.8321
  407MOL0     H56113   8.146   7.683  -0.057 -0.6025  2.3773 -0.2678
  407MOL0     H56114   8.025   7.714   0.073 -0.5342 -2.8695  0.9874
  407MOL0     H56115   8.384   7.553   0.021  2.4961 -0.6971  0.9093
  407MOL0     H56116   8.613   7.644   0.334 -0.1975  0.3484  0.3844
  407MOL0     H56117   8.636   7.659   0.158  1.0107  1.2255  0.8035
  407MOL0     H56118   8.556   7.421   0.325 -1.8621  0.4173 -0.1006
  407MOL0     H56119   8.566   7.406   0.149  0.7297  1.4658  0.1369
  407MOL0     H56120   8.804   7.460   0.343  1.4645  1.4254 -2.5617
  407MOL0     H56121   8.772   7.310   0.272  2.2567  0.6420 -1.6897
  407MOL0     H56122   8.823   7.553   0.082  0.8752  0.0083 -1.0833
  407MOL0     H56123   8.943   7.442   0.126  0.3085  4.0137  1.5436
  407MOL0     H56124   8.680   7.148  -0.096  2.8989 -0.8216 -3.4890
  407MOL0     H56125   8.579   7.055  -0.280 -1.3246 -1.3326 -2.2498
  407MOL0     H56126   8.542   7.146  -0.419  1.6126 -1.2869 -1.0039
  407MOL0     H56127   8.418   7.118  -0.294  0.7944 -2.6499 -0.3037
  407MOL0     H56128   8.387   7.692  -0.530 -1.6057 -0.8723  1.3698
  407MOL0     H56129   8.251   7.756  -0.715  2.7194 -0.8869 -1.5925
  407MOL0     H56130   7.965   7.629  -0.780 -0.0533 -0.1609  0.8688
  407MOL0     H56131   8.073   7.765  -0.843  1.8370 -1.1098 -2.6081
  407MOL0     H56132   7.855   7.781  -0.958 -0.3276 -0.4018  1.9584
  407MOL0     H56133   7.980   7.705  -1.075  0.5138 -4.4662 -0.3439
  407MOL0     H56134   7.745   7.581  -0.935  2.1456 -2.6293  3.2733
  407MOL0     H56135   7.879   7.488  -1.016 -0.5952 -0.2285 -1.2188
  407MOL0     H56136   7.818   7.583  -1.234 -1.1776 -0.3521 -1.1759
  407MOL0     H56137   7.749   7.718  -1.154 -2.9269  0.0756  1.7997
  407MOL0     H56138   7.603   7.461  -1.100 -3.6184  0.6422 -0.4840
  407MOL0     H56139   7.554   7.619  -1.085  1.1862  0.7626 -0.0816
  407MOL0     H56140   7.602   7.462  -1.346  0.8176  0.4838 -2.3132
  407MOL0     H56141   7.589   7.632  -1.350 -2.9725 -0.1821 -1.1784
  407MOL0     H56142   7.382   7.434  -1.225 -0.8241  0.0252  0.5904
  407MOL0     H56143   7.365   7.491  -1.386  2.4423  0.5997 -1.7762
  407MOL0     H56144   7.350   7.680  -1.158  1.9136 -3.4038  1.4974
  407MOL0     H56145   7.200   7.610  -1.238  0.1416  2.1626 -3.2327
  407MOL0     H56146   8.201   7.345  -0.828  2.6976  1.2642 -2.4180
  407MOL0     H56147   8.366   7.289  -0.643  2.8514  1.7787  2.0670
  407MOL0     H56148   8.562   7.605  -0.263 -0.0216  0.3098  1.1027
  407MOL0     H56149   8.703   7.589  -0.074  0.5396 -0.4349 -0.1413
  407MOL0     H56150   7.548   7.388   0.757 -1.5949  1.3813  3.4785
  407MOL0     H56151   7.301   7.395   0.757  0.7379 -0.5831  0.4117
  407MOL0     H56152   6.943   7.405   0.566 -0.4099 -0.0824  0.5251
  407MOL0     H56153   6.731   7.369   0.487  1.9457 -0.6179  2.1922
  407MOL0     H56154   6.340   7.593   0.407  0.1475  0.4623  0.8760
  407MOL0     H56155   6.430   7.707   0.501 -0.9650  0.0851 -0.3666
  407MOL0     H56156   6.454   7.697   0.193 -0.7870 -1.0966 -1.2018
  407MOL0     H56157   6.523   7.816   0.311 -1.9563 -0.1038  2.7686
  407MOL0     H56158   6.240   7.775   0.277 -0.1602 -0.2275 -2.0374
  407MOL0     H56159   6.315   7.917   0.360 -2.2465 -0.0012 -1.5189
  407MOL0     H56160   6.314   7.865   0.074 -1.1761  1.1887 -0.0457
  407MOL0     H56161   6.414   8.007   0.159  1.0967  0.4542 -1.2428
  407MOL0     H56162   6.011   8.127   0.115 -1.6690 -0.7479  2.6201
  407MOL0     H56163   6.659   7.791   0.452 -0.6500 -2.7496 -3.5463
  407MOL0     H56164   7.018   7.883   0.471  0.9013  1.6932  2.1795
  407MOL0     H56165   6.851   7.939   0.441 -2.0054  0.6274  3.7419
  407MOL0     H56166   6.919   7.917   0.604  1.6593 -1.4029  0.4848
  408MOL0     O56167   6.889   8.929   4.596  0.0375 -0.6736  0.5386
  408MOL0     C56168   6.872   9.044   4.613 -0.5371  0.1039 -0.3892
  408MOL0     O56169   6.972   9.133   4.637 -0.3935 -0.5171 -0.1156
  408MOL0     C56170   7.111   9.106   4.611  0.1363  0.7471  0.2365
  408MOL0     C56171   7.173   8.992   4.661 -0.9693 -0.3733 -0.1758
  408MOL0     C56172   7.308   8.974   4.632 -0.4735  0.4752  0.2958
  408MOL0     C56173   7.375   9.067   4.565 -0.5835  0.5575  0.1118
  408MOL0     O56174   7.509   9.040   4.545 -0.0869  0.9118  0.0368
  408MOL0     C56175   7.589   9.140   4.469 -0.0442 -1.2485  0.4635
  408MOL0     C56176   7.633   9.270   4.531 -0.5110  0.0067 -0.6295
  408MOL0     C56177   7.756   9.255   4.630 -0.2764  0.8951  0.1288
  408MOL0     C56178   7.793   9.401   4.660  0.0238 -1.0628  0.3059
  408MOL0     C56179   7.918   9.412   4.742 -0.8302 -0.2629  0.0117
  408MOL0     C56180   7.943   9.565   4.759  0.6569 -0.0314 -0.4656
  408MOL0     C56181   8.042   9.576   4.872  0.4251  0.7753  0.8029
  408MOL0     C56182   8.114   9.709   4.872  0.1008 -0.5859  0.1897
  408MOL0     N56183   8.218   9.702   4.975 -0.3396  0.4657  0.2973
  408MOL0     C56184   8.201   9.711   5.110 -0.3589 -0.2007  0.3379
  408MOL0     C56185   8.324   9.733   5.163 -0.1333  0.3202 -0.4307
  408MOL0     C56186   8.378   9.752   5.309  0.4873 -0.5530 -0.7805
  408MOL0     C56187   8.453   9.628   5.383 -0.8528  0.0412  0.2868
  408MOL0     C56188   8.479   9.651   5.529  0.7708 -0.2958 -0.0295
  408MOL0     C56189   8.587   9.557   5.576  0.1186  0.1810 -0.2696
  408MOL0     O56190   8.706   9.603   5.523 -0.2604 -0.0368  0.6570
  408MOL0     C56191   8.801   9.607   5.615 -0.2538  0.0512 -0.0933
  408MOL0     C56192   8.824   9.499   5.705  0.3147  0.0244  0.3647
  408MOL0     C56193   8.931   9.495   5.786 -0.3921  0.3154  0.1829
  408MOL0     C56194   8.932   9.375   5.881 -0.0506 -0.3687  0.6458
  408MOL0     C56195   9.027   9.598   5.787  0.3717 -0.3325 -1.3920
  408MOL0     C56196   9.157   9.583   5.855  0.0001 -0.0709 -0.1182
  408MOL0     O56197   9.210   9.703   5.894  0.3032 -0.1389  0.1628
  408MOL0     C56198   9.324   9.709   5.974  0.1211  0.5532 -0.5208
  408MOL0     C56199   9.401   9.821   5.960  0.7794  0.0380 -0.3353
  408MOL0     C56200   9.521   9.841   6.019 -0.3971  0.0316  0.5122
  408MOL0     C56201   9.577   9.732   6.096  0.5848 -0.2649  0.5537
  408MOL0     O56202   9.692   9.774   6.159  0.4709 -0.1859  0.2922
  408MOL0     C56203   9.710   9.724   6.287  0.1221 -0.0376 -0.7347
  408MOL0     C56204   9.822   9.794   6.370 -1.3616 -0.3545 -0.2150
  408MOL0     C56205   9.962   9.792   6.313 -0.2004  1.0006 -0.0107
  408MOL0     C56206  10.056   9.888   6.375  0.0507 -0.5522  0.2494
  408MOL0     C56207  10.182   9.914   6.288  0.0251 -0.1865  0.5342
  408MOL0     C56208  10.283   9.965   6.381 -0.3042  0.8827 -0.2597
  408MOL0     C56209  10.425   9.969   6.311  0.3153 -0.4977 -1.3724
  408MOL0     C56210  10.522  10.015   6.417 -1.6889 -0.2326 -0.3699
  408MOL0    Cl56211  10.528   9.893   6.545  0.5618 -0.1094 -0.1243
  408MOL0     C56212   9.500   9.621   6.126  0.8496  0.1929 -0.3927
  408MOL0     C56213   9.374   9.609   6.062  0.0353 -0.4361 -0.0226
  408MOL0     O56214   9.203   9.474   5.880  0.1667 -0.0894 -0.1928
  408MOL0     C56215   8.998   9.712   5.707 -0.1297  0.4674 -0.8476
  408MOL0     C56216   8.884   9.715   5.625  0.9653  0.8749  0.7869
  408MOL0     N56217   8.417   9.732   5.054  0.1587 -0.1483 -0.3070
  408MOL0     N56218   8.347   9.711   4.948 -0.5081 -1.2319 -0.3619
  408MOL0     C56219   7.314   9.177   4.530  0.0142 -0.2081  0.1609
  408MOL0     C56220   7.180   9.200   4.544 -0.5858  0.5074 -0.0893
  408MOL0     C56221   6.736   9.101   4.608  0.6586 -0.7313  0.6425
  408MOL0     C56222   6.725   9.239   4.621  0.1703  0.2326 -0.6689
  408MOL0     C56223   6.604   9.305   4.597 -0.5788  0.8880 -0.1052
  408MOL0     C56224   6.492   9.233   4.560 -0.3061  0.2203 -0.9931
  408MOL0     O56225   6.386   9.316   4.533 -0.8325 -0.1565 -0.8029
  408MOL0     C56226   6.292   9.267   4.435  0.3868  0.1782 -0.0907
  408MOL0     C56227   6.157   9.344   4.414  0.2616  0.2440  0.2261
  408MOL0     C56228   6.079   9.312   4.287  0.1119  0.0350 -0.4679
  408MOL0     C56229   6.013   9.184   4.295 -0.0190  0.7851  0.0059
  408MOL0     C56230   5.907   9.152   4.200 -0.3431  0.1517 -0.1791
  408MOL0     C56231   5.819   9.125   4.125  0.0203  0.4395 -0.0517
  408MOL0     C56232   6.503   9.098   4.549 -0.0861 -0.1073 -0.1619
  408MOL0     C56233   6.618   9.023   4.568 -0.4884  0.2502  0.7764
  408MOL0     C56234   6.601   8.873   4.535  0.3690 -0.0466 -0.0707
  408MOL0     H56235   7.114   8.927   4.726 -1.2410  0.3756  0.3400
  408MOL0     H56236   7.349   8.877   4.659 -2.2439 -1.3628 -3.0983
  408MOL0     H56237   7.534   9.177   4.382 -0.3811 -1.0530  0.7533
  408MOL0     H56238   7.675   9.080   4.437  0.9480 -1.6968  3.6305
  408MOL0     H56239   7.671   9.331   4.449  1.9583  0.8297  0.9965
  408MOL0     H56240   7.554   9.329   4.580  0.0437 -1.2669  2.0196
  408MOL0     H56241   7.729   9.195   4.717  0.0099  1.0804  0.3477
  408MOL0     H56242   7.835   9.204   4.574 -1.8579 -0.5789 -0.8467
  408MOL0     H56243   7.811   9.457   4.567 -0.9573 -0.3975  0.5073
  408MOL0     H56244   7.711   9.460   4.701 -1.3984 -1.8205 -1.3365
  408MOL0     H56245   8.000   9.375   4.680 -0.0437  2.0965 -0.4283
  408MOL0     H56246   7.898   9.348   4.829  1.0911  2.1423  2.3702
  408MOL0     H56247   7.975   9.619   4.669  0.8132  0.2334 -0.2548
  408MOL0     H56248   7.846   9.606   4.789 -0.1946 -3.3773  1.9739
  408MOL0     H56249   8.107   9.488   4.866 -1.1254 -0.3279 -1.0596
  408MOL0     H56250   7.977   9.578   4.960  0.7648  1.2278  1.0535
  408MOL0     H56251   8.143   9.734   4.769 -1.1462 -2.4050 -0.6633
  408MOL0     H56252   8.041   9.785   4.900 -1.7233 -0.8516 -3.2313
  408MOL0     H56253   8.107   9.717   5.165 -0.5499  0.9520 -0.0934
  408MOL0     H56254   8.303   9.805   5.370  0.5008 -2.1925  0.7519
  408MOL0     H56255   8.462   9.820   5.292  0.2626 -0.9781 -4.1014
  408MOL0     H56256   8.386   9.545   5.357  1.6509 -2.1415  0.3734
  408MOL0     H56257   8.549   9.631   5.332 -1.1594  3.1416 -0.3298
  408MOL0     H56258   8.518   9.753   5.534 -1.5499  0.9100 -3.3613
  408MOL0     H56259   8.387   9.653   5.589  0.2355  2.7224 -0.7494
  408MOL0     H56260   8.577   9.561   5.685 -0.1156 -0.3585 -0.2694
  408MOL0     H56261   8.558   9.456   5.546 -2.7552  0.7214  0.3983
  408MOL0     H56262   8.759   9.413   5.691  1.1403 -1.3525  3.9165
  408MOL0     H56263   8.997   9.293   5.848 -1.6622 -1.2995 -0.3632
  408MOL0     H56264   8.837   9.323   5.897  0.7226 -2.2148 -0.3478
  408MOL0     H56265   8.974   9.407   5.976  1.4851  1.0094 -0.4426
  408MOL0     H56266   9.352   9.897   5.900 -1.1414  0.3987  1.5602
  408MOL0     H56267   9.583   9.926   5.990 -2.4670  1.7073  0.7427
  408MOL0     H56268   9.616   9.739   6.341  0.2198 -1.1198 -0.2412
  408MOL0     H56269   9.732   9.617   6.287 -1.0054 -0.2855  0.0208
  408MOL0     H56270   9.797   9.899   6.389  1.7840  0.1316  1.9402
  408MOL0     H56271   9.823   9.748   6.470  0.8417  0.3790  0.1350
  408MOL0     H56272   9.960   9.817   6.206  0.9690 -0.9283 -0.5390
  408MOL0     H56273   9.992   9.687   6.316 -2.0470  0.4546  1.1512
  408MOL0     H56274  10.084   9.856   6.476  1.3059 -0.5141 -0.0677
  408MOL0     H56275   9.996   9.979   6.379 -0.3372 -0.8218  0.7062
  408MOL0     H56276  10.212   9.822   6.236 -0.1077  1.1267 -2.0248
  408MOL0     H56277  10.157   9.981   6.205 -1.5595 -1.1756  0.1740
  408MOL0     H56278  10.299   9.889   6.458  0.1107 -1.1030 -2.2080
  408MOL0     H56279  10.236  10.056   6.420 -2.2146 -0.3865  0.5875
  408MOL0     H56280  10.415  10.046   6.234 -0.5204  0.7096 -0.0834
  408MOL0     H56281  10.453   9.871   6.270  1.9446 -0.3422 -0.7175
  408MOL0     H56282  10.501  10.115   6.456 -2.0423 -1.2597  2.2488
  408MOL0     H56283  10.625  10.011   6.380 -0.8009 -1.2050  2.0338
  408MOL0     H56284   9.533   9.533   6.181  0.3978 -0.7942 -1.6166
  408MOL0     H56285   9.317   9.519   6.079 -0.6913 -0.2385 -1.2969
  408MOL0     H56286   9.071   9.789   5.684  0.4844  0.1373 -0.0421
  408MOL0     H56287   8.865   9.801   5.561 -0.3035  1.5288  1.9673
  408MOL0     H56288   7.355   9.264   4.479 -3.3562  0.5444 -1.5641
  408MOL0     H56289   7.129   9.289   4.508 -1.0384  0.1282 -0.3911
  408MOL0     H56290   6.812   9.293   4.656 -0.8655  0.9293  0.9583
  408MOL0     H56291   6.602   9.413   4.597 -3.0145  0.8859  0.4047
  408MOL0     H56292   6.341   9.280   4.338 -0.3655  3.7010 -0.1337
  408MOL0     H56293   6.256   9.167   4.464 -3.0980  1.9455  2.5321
  408MOL0     H56294   6.186   9.450   4.419  0.4900  0.2734 -1.2231
  408MOL0     H56295   6.097   9.323   4.503  0.1641  0.7002  0.2733
  408MOL0     H56296   6.000   9.385   4.271 -1.5058 -1.0740  1.9184
  408MOL0     H56297   6.152   9.312   4.205  2.0839 -5.4171  0.8598
  408MOL0     H56298   5.953   9.182   4.386 -2.9003  0.2892 -1.7705
  408MOL0     H56299   6.096   9.112   4.305  0.1560  0.6315 -2.1400
  408MOL0     H56300   5.738   9.095   4.062  1.1564 -0.1024 -1.2815
  408MOL0     H56301   6.430   9.035   4.499  1.3521 -0.5554 -1.7903
  408MOL0     H56302   6.683   8.809   4.570  0.7261 -0.8266 -2.1796
  408MOL0     H56303   6.507   8.831   4.573 -0.3494  0.0189 -1.6887
  408MOL0     H56304   6.581   8.859   4.428 -2.7165  0.0958  0.3897
  409MOL0     O56305   8.831   0.951   7.491  0.7258  0.1648 -0.0646
  409MOL0     C56306   8.777   1.009   7.396  0.4579 -0.4617 -0.1017
  409MOL0     O56307   8.848   1.061   7.285  0.0594  0.0699  0.2095
  409MOL0     C56308   8.974   1.016   7.266  0.2556 -0.4093  0.0205
  409MOL0     C56309   8.990   0.945   7.150  0.1064  0.0183  0.3024
  409MOL0     C56310   9.119   0.898   7.108  0.2134  0.2799 -0.0594
  409MOL0     C56311   9.230   0.919   7.185 -0.1753  0.7919 -0.4373
  409MOL0     O56312   9.346   0.870   7.134 -0.0256  0.5699 -0.2301
  409MOL0     C56313   9.448   0.829   7.223 -0.5512 -0.0205 -0.5644
  409MOL0     C56314   9.586   0.886   7.200 -0.3606 -0.0011  0.2558
  409MOL0     C56315   9.694   0.826   7.287  0.1523  0.3824 -0.1951
  409MOL0     C56316   9.764   0.707   7.215 -0.4791 -0.1520 -0.3093
  409MOL0     C56317   9.886   0.669   7.305 -0.2678 -0.1181  1.1003
  409MOL0     C56318   9.949   0.548   7.240 -0.6901  0.3171 -0.4612
  409MOL0     C56319  10.054   0.482   7.334  0.0355  1.2115  0.0131
  409MOL0     C56320  10.182   0.562   7.329  1.2303  0.2012 -0.0295
  409MOL0     N56321  10.279   0.515   7.432  0.5928  0.2420  0.3013
  409MOL0     C56322  10.393   0.436   7.431 -0.2569 -0.2473  0.8254
  409MOL0     C56323  10.407   0.396   7.554 -0.0114 -0.1770 -1.0223
  409MOL0     C56324  10.524   0.306   7.598 -0.1804 -0.9420  0.2107
  409MOL0     C56325  10.568   0.327   7.749 -0.1045  0.1919  0.1847
  409MOL0     C56326  10.602   0.470   7.777 -0.6732 -0.6419  0.1791
  409MOL0     C56327  10.754   0.489   7.746 -0.0513 -0.8757  0.5322
  409MOL0     O56328  10.774   0.476   7.609  0.1384 -0.0979  0.2749
  409MOL0     C56329  10.898   0.455   7.559  0.7283 -0.6973 -0.1760
  409MOL0     C56330  10.993   0.555   7.582  0.5547  0.6248 -0.7900
  409MOL0     C56331  11.113   0.558   7.507  0.0413 -1.0734 -0.3746
  409MOL0     C56332  11.211   0.675   7.528  0.1079 -0.4676  0.2831
  409MOL0     C56333  11.141   0.455   7.418 -0.2891  0.4369  0.2297
  409MOL0     C56334  11.264   0.442   7.341  0.3152  0.3546 -0.1542
  409MOL0     O56335  11.300   0.552   7.267 -0.1800 -0.2155  0.1323
  409MOL0     C56336  11.436   0.595   7.285  0.1052  0.0409 -0.3383
  409MOL0     C56337  11.472   0.708   7.218 -0.1086 -1.1910 -0.4190
  409MOL0     C56338  11.598   0.774   7.231 -0.3392 -0.1907 -0.7360
  409MOL0     C56339  11.693   0.723   7.311 -0.3758  1.1631  1.0466
  409MOL0     O56340  11.807   0.786   7.311  0.5197 -0.1903 -0.5872
  409MOL0     C56341  11.932   0.718   7.330 -0.5684  0.5253  0.5476
  409MOL0     C56342  11.982   0.668   7.196  0.7555 -0.0508  0.1304
  409MOL0     C56343  12.100   0.566   7.202 -0.2177 -0.3160  1.0238
  409MOL0     C56344  12.235   0.634   7.227 -0.1845  0.8058  0.1322
  409MOL0     C56345  12.275   0.737   7.121  0.0585 -0.8850  0.1704
  409MOL0     C56346  12.419   0.791   7.126  0.2841 -0.2217  0.0088
  409MOL0     C56347  12.491   0.782   6.989 -0.3328 -0.7662 -0.4471
  409MOL0     C56348  12.639   0.806   7.020  0.0589  0.1453 -0.2537
  409MOL0    Cl56349  12.718   0.834   6.853  0.1682  0.4126  0.0362
  409MOL0     C56350  11.666   0.601   7.373  0.1859  0.7873 -0.7559
  409MOL0     C56351  11.545   0.534   7.363 -0.4238  0.1311  0.5510
  409MOL0     O56352  11.311   0.325   7.321 -0.5838 -0.6802 -0.5117
  409MOL0     C56353  11.042   0.359   7.394 -0.2164  0.0957  0.1326
  409MOL0     C56354  10.928   0.357   7.469  0.1617  0.8194  0.0284
  409MOL0     N56355  10.309   0.440   7.636  0.3492  0.1678 -0.1165
  409MOL0     N56356  10.238   0.517   7.566 -0.0841 -0.5694  0.0962
  409MOL0     C56357   9.212   0.992   7.302 -0.8869  0.6246  0.2094
  409MOL0     C56358   9.079   1.040   7.343 -0.8422 -0.4933  0.6166
  409MOL0     C56359   8.629   1.015   7.403 -0.0362  0.2122 -0.2673
  409MOL0     C56360   8.565   1.035   7.531 -0.1677  0.8042  0.4567
  409MOL0     C56361   8.424   1.035   7.539  0.5614 -0.0312  0.1781
  409MOL0     C56362   8.342   1.004   7.420  0.1205 -0.3367  0.2660
  409MOL0     O56363   8.203   0.990   7.423  0.3216  0.1165 -0.6516
  409MOL0     C56364   8.129   1.042   7.542  0.2101  0.2027 -0.9846
  409MOL0     C56365   7.982   1.028   7.529 -0.2756 -0.4167 -0.8693
  409MOL0     C56366   7.911   1.081   7.652  0.5117  0.8603  0.3018
  409MOL0     C56367   7.757   1.040   7.658  0.1547 -0.4893  0.1426
  409MOL0     C56368   7.677   1.113   7.556  0.5573 -0.1903  0.0699
  409MOL0     C56369   7.629   1.184   7.465 -0.9488  0.7153  0.1998
  409MOL0     C56370   8.406   1.000   7.296  0.0067  0.0023 -0.1664
  409MOL0     C56371   8.543   1.002   7.288 -0.5901  0.5834 -0.1000
  409MOL0     C56372   8.598   0.973   7.152 -0.3963 -0.0517 -0.3026
  409MOL0     H56373   8.899   0.932   7.093 -2.2864  2.4481  3.1771
  409MOL0     H56374   9.135   0.846   7.014  1.3284  1.9917 -0.8866
  409MOL0     H56375   9.451   0.722   7.201  0.0726  0.1859 -1.5699
  409MOL0     H56376   9.425   0.837   7.330  0.5698 -2.9970 -0.0115
  409MOL0     H56377   9.622   0.866   7.099  2.2291 -1.1650  1.3426
  409MOL0     H56378   9.563   0.993   7.209  0.3534  0.3691 -1.7695
  409MOL0     H56379   9.763   0.907   7.312 -1.2394  1.0785  1.6316
  409MOL0     H56380   9.648   0.789   7.379  1.8894 -2.9331 -0.5209
  409MOL0     H56381   9.696   0.622   7.222 -0.9730  0.3377  1.2389
  409MOL0     H56382   9.785   0.738   7.113  0.5113  2.8205  0.6851
  409MOL0     H56383   9.849   0.647   7.406  1.2995 -3.4438  1.0798
  409MOL0     H56384   9.950   0.757   7.303  0.4453 -0.4111 -4.5581
  409MOL0     H56385   9.873   0.469   7.240  0.1574 -0.5194  0.0181
  409MOL0     H56386   9.987   0.575   7.142 -0.7293  2.3628  0.0390
  409MOL0     H56387  10.077   0.380   7.303 -1.9863 -0.0784  2.4646
  409MOL0     H56388  10.020   0.493   7.437 -3.8472 -0.6190 -0.9090
  409MOL0     H56389  10.231   0.568   7.232  2.1740  0.2910  0.4387
  409MOL0     H56390  10.162   0.666   7.354 -0.2953 -0.3679  1.2803
  409MOL0     H56391  10.446   0.414   7.339 -1.2757  0.6083 -0.0029
  409MOL0     H56392  10.612   0.323   7.536 -1.1086  2.4214 -0.3859
  409MOL0     H56393  10.492   0.202   7.586  0.5813 -1.0472 -1.0126
  409MOL0     H56394  10.481   0.308   7.813 -0.3981  0.9049  0.0143
  409MOL0     H56395  10.646   0.253   7.770  1.1679  0.2746 -3.4894
  409MOL0     H56396  10.552   0.532   7.702  0.7267  2.3194  1.5320
  409MOL0     H56397  10.574   0.509   7.875 -0.0964 -1.8592  0.8586
  409MOL0     H56398  10.796   0.584   7.780  2.2612 -1.1941 -1.1553
  409MOL0     H56399  10.801   0.411   7.807  2.0910  2.3511  3.4173
  409MOL0     H56400  10.980   0.637   7.651 -1.3186 -0.4101  0.1506
  409MOL0     H56401  11.308   0.640   7.564 -0.3505  0.8178  3.0405
  409MOL0     H56402  11.171   0.746   7.601 -1.1978  0.3925 -1.2168
  409MOL0     H56403  11.216   0.733   7.435 -3.1999  0.2346  0.4291
  409MOL0     H56404  11.397   0.769   7.169  0.9765  2.2017  1.7370
  409MOL0     H56405  11.610   0.861   7.168 -1.7015  0.0569 -0.6743
  409MOL0     H56406  12.007   0.786   7.369  1.9125  0.5229 -3.6391
  409MOL0     H56407  11.936   0.638   7.405  1.4738  0.3008  0.2380
  409MOL0     H56408  11.897   0.610   7.161  1.3683 -0.7974 -0.1407
  409MOL0     H56409  11.994   0.760   7.138 -0.4313 -0.1369 -0.2824
  409MOL0     H56410  12.108   0.525   7.101  0.2977  1.6352  0.2182
  409MOL0     H56411  12.079   0.490   7.277  0.2099  0.0966  1.5674
  409MOL0     H56412  12.316   0.560   7.231  0.4906  1.5798  2.5148
  409MOL0     H56413  12.234   0.687   7.323 -2.4344 -0.8319  1.1019
  409MOL0     H56414  12.260   0.680   7.029  0.0650  0.6767 -0.8430
  409MOL0     H56415  12.208   0.824   7.125  1.4495  0.1759  2.2249
  409MOL0     H56416  12.482   0.735   7.196 -0.0436 -0.6108  0.0005
  409MOL0     H56417  12.418   0.896   7.156  0.1798  0.2869 -1.6714
  409MOL0     H56418  12.464   0.865   6.923 -1.6000 -1.2836 -0.6015
  409MOL0     H56419  12.483   0.684   6.941  1.0258 -0.5399 -1.2124
  409MOL0     H56420  12.682   0.721   7.074 -1.0831 -0.1427  0.2457
  409MOL0     H56421  12.653   0.893   7.085 -1.6489 -0.5429  1.1269
  409MOL0     H56422  11.747   0.565   7.436 -1.5713  0.7199  1.6008
  409MOL0     H56423  11.524   0.445   7.421 -1.3887 -0.6324 -0.8951
  409MOL0     H56424  11.065   0.279   7.325 -1.0997  2.4058 -3.1145
  409MOL0     H56425  10.853   0.280   7.454  2.6385 -1.6201 -0.8064
  409MOL0     H56426   9.288   1.016   7.377  1.2591  0.4239 -1.7685
  409MOL0     H56427   9.078   1.098   7.435  0.1202  1.6909 -0.6748
  409MOL0     H56428   8.625   1.053   7.620  0.1220  1.5025  0.1266
  409MOL0     H56429   8.374   1.055   7.634 -0.8105  0.5174 -0.6273
  409MOL0     H56430   8.162   0.990   7.633 -1.2800 -0.7270 -0.9494
  409MOL0     H56431   8.147   1.150   7.544  2.2664 -0.1062 -0.9071
  409MOL0     H56432   7.959   0.928   7.491  2.4515 -0.4407 -2.6936
  409MOL0     H56433   7.951   1.098   7.450  0.6940 -0.0405 -0.9214
  409MOL0     H56434   7.961   1.049   7.744 -0.1252 -0.4774  0.2220
  409MOL0     H56435   7.912   1.190   7.656 -2.7372  0.9774  1.0087
  409MOL0     H56436   7.726   1.073   7.758  0.5922 -1.2756  0.5522
  409MOL0     H56437   7.741   0.932   7.646  0.7374 -0.4044 -1.6589
  409MOL0     H56438   7.589   1.247   7.388 -2.5401  0.6348  0.9176
  409MOL0     H56439   8.348   0.979   7.207 -2.1605  0.1895  1.1231
  409MOL0     H56440   8.635   0.870   7.154  0.4803  0.2168  2.8350
  409MOL0     H56441   8.528   0.990   7.070 -0.7562 -0.4639 -0.0797
  409MOL0     H56442   8.684   1.035   7.123 -1.8432  1.3806 -1.7865
  410MOL0     O56443  10.862   2.510   7.433  0.2579 -0.2739 -0.0618
  410MOL0     C56444  10.798   2.611   7.415  0.5484 -0.2287 -0.1732
  410MOL0     O56445  10.847   2.739   7.407  1.4420  1.5212 -0.7085
  410MOL0     C56446  10.977   2.749   7.391  0.0708 -1.1342  0.2920
  410MOL0     C56447  11.019   2.766   7.264 -0.9406  0.6769 -0.0353
  410MOL0     C56448  11.155   2.760   7.233 -0.7983  0.2319 -0.2509
  410MOL0     C56449  11.258   2.748   7.330  0.6811 -0.2880 -0.2233
  410MOL0     O56450  11.389   2.724   7.317 -0.4319  0.4826  0.5161
  410MOL0     C56451  11.449   2.684   7.187 -0.4078  0.1106 -0.5783
  410MOL0     C56452  11.581   2.628   7.224 -0.7005  0.7794  0.8871
  410MOL0     C56453  11.677   2.601   7.103  0.1320 -0.0370 -0.7119
  410MOL0     C56454  11.815   2.642   7.145  0.4477  0.4897 -0.2336
  410MOL0     C56455  11.914   2.597   7.037 -0.3037 -1.0095  0.4725
  410MOL0     C56456  12.060   2.651   7.071  0.6008  0.3755  0.1220
  410MOL0     C56457  12.152   2.654   6.950 -0.5962 -0.5761  0.6512
  410MOL0     C56458  12.164   2.514   6.899 -0.5570  0.1914  0.1235
  410MOL0     N56459  12.275   2.509   6.809  0.0286  0.2935 -0.0655
  410MOL0     C56460  12.396   2.549   6.840 -0.7543  0.2535  0.0498
  410MOL0     C56461  12.476   2.520   6.726  0.0055  0.8101  0.2480
  410MOL0     C56462  12.628   2.516   6.705 -0.4089 -0.7501 -0.3258
  410MOL0     C56463  12.692   2.407   6.806 -0.3085  0.3953  0.5375
  410MOL0     C56464  12.686   2.267   6.736 -0.1662 -0.5391  0.4524
  410MOL0     C56465  12.770   2.149   6.786  0.2970 -0.8561 -0.2953
  410MOL0     O56466  12.747   2.034   6.695 -0.1355 -0.0120 -0.6328
  410MOL0     C56467  12.839   1.932   6.704  0.1593 -0.5840 -0.2376
  410MOL0     C56468  12.938   1.922   6.799  0.1403 -0.2217 -0.2723
  410MOL0     C56469  13.022   1.809   6.810  0.7740 -0.1519  0.7502
  410MOL0     C56470  13.140   1.834   6.899  0.3499  1.1293  0.1808
  410MOL0     C56471  13.010   1.706   6.718 -0.1328  0.2233 -0.3527
  410MOL0     C56472  13.109   1.594   6.706  1.0643 -0.2803 -0.2300
  410MOL0     O56473  13.097   1.526   6.590  0.1349  0.2938 -0.2167
  410MOL0     C56474  13.158   1.412   6.574  0.1429 -0.1896  0.7773
  410MOL0     C56475  13.087   1.312   6.504  1.1487  1.4166  0.6791
  410MOL0     C56476  13.155   1.201   6.451  0.8146 -0.4743 -0.9520
  410MOL0     C56477  13.289   1.180   6.460 -0.2433 -0.1499 -0.6246
  410MOL0     O56478  13.363   1.083   6.392 -0.0031  0.0038 -0.0901
  410MOL0     C56479  13.299   0.970   6.330  0.1754  0.7917 -0.3184
  410MOL0     C56480  13.403   0.854   6.330  0.4077 -0.4080 -0.2728
  410MOL0     C56481  13.460   0.839   6.474  0.2833  0.2841  0.0286
  410MOL0     C56482  13.534   0.713   6.497  0.4787 -0.1787 -0.4900
  410MOL0     C56483  13.662   0.705   6.421 -0.1117  0.4444 -0.2690
  410MOL0     C56484  13.745   0.579   6.448  1.5309  0.0304  0.2528
  410MOL0     C56485  13.874   0.584   6.371  0.5319  0.3874 -0.4048
  410MOL0     C56486  13.972   0.472   6.404 -0.0196 -1.1253 -0.2901
  410MOL0    Cl56487  14.104   0.481   6.282  0.4280 -0.2963  0.1630
  410MOL0     C56488  13.362   1.270   6.538 -0.1825 -1.5219 -0.1015
  410MOL0     C56489  13.298   1.385   6.592  0.5750 -0.4473  0.0477
  410MOL0     O56490  13.164   1.554   6.804  0.2155  0.1231  0.8458
  410MOL0     C56491  12.902   1.712   6.630 -0.7054  0.3016 -0.1156
  410MOL0     C56492  12.827   1.825   6.619  0.7432 -0.0118  0.2072
  410MOL0     N56493  12.382   2.473   6.635 -0.2250 -0.0641  0.2185
  410MOL0     N56494  12.270   2.463   6.690  0.2047  0.2240 -0.1872
  410MOL0     C56495  11.216   2.745   7.466  0.3876 -1.1543 -0.9401
  410MOL0     C56496  11.076   2.755   7.493  0.1867 -0.3042  0.1386
  410MOL0     C56497  10.646   2.583   7.427 -0.0716  0.1987 -0.1252
  410MOL0     C56498  10.575   2.651   7.531 -0.7736  0.0172 -0.6513
  410MOL0     C56499  10.445   2.625   7.574 -0.0552  0.4076 -0.2145
  410MOL0     C56500  10.378   2.534   7.503 -0.1945  0.7090  0.3807
  410MOL0     O56501  10.256   2.501   7.565  0.3069 -0.7253  0.7385
  410MOL0     C56502  10.162   2.444   7.474 -0.9155 -0.5834 -0.7502
  410MOL0     C56503  10.042   2.408   7.558  0.0679  0.4027 -0.4053
  410MOL0     C56504   9.918   2.376   7.469  0.5289  0.0563  0.9396
  410MOL0     C56505   9.798   2.328   7.547  1.1100  0.6608  0.2658
  410MOL0     C56506   9.728   2.430   7.631  0.3657 -0.2624  0.4118
  410MOL0     C56507   9.675   2.516   7.697  0.3927  0.3563 -0.6799
  410MOL0     C56508  10.443   2.450   7.406 -0.1524  0.3461 -0.8591
  410MOL0     C56509  10.578   2.479   7.360  0.5329  0.1117  0.4440
  410MOL0     C56510  10.645   2.397   7.250  0.4269  0.2964 -0.2295
  410MOL0     H56511  10.941   2.770   7.189 -1.0349  0.8615  0.0721
  410MOL0     H56512  11.180   2.768   7.128  3.1322  0.7038  0.5690
  410MOL0     H56513  11.458   2.773   7.124  0.2482  2.5609  2.6980
  410MOL0     H56514  11.384   2.609   7.141 -2.1319 -0.0677  1.9422
  410MOL0     H56515  11.627   2.697   7.295 -0.4941  0.3130  1.2098
  410MOL0     H56516  11.555   2.534   7.272  0.0740  0.3994  0.5803
  410MOL0     H56517  11.675   2.495   7.077 -2.0646 -0.1263 -0.3577
  410MOL0     H56518  11.642   2.648   7.011  2.0832  0.2202 -1.3838
  410MOL0     H56519  11.818   2.749   7.166 -1.5111  0.3391  1.1081
  410MOL0     H56520  11.843   2.600   7.242  1.3233  3.3040  0.8297
  410MOL0     H56521  11.887   2.643   6.941  1.2680  2.0847  1.3998
  410MOL0     H56522  11.914   2.487   7.029 -1.3491 -0.9469 -0.7970
  410MOL0     H56523  12.054   2.749   7.119  0.6193 -0.6241  2.2662
  410MOL0     H56524  12.096   2.581   7.146 -1.8747 -0.5609  0.5248
  410MOL0     H56525  12.248   2.696   6.981 -0.2773  0.0487 -1.0901
  410MOL0     H56526  12.110   2.722   6.876 -2.4825 -0.0833  2.0781
  410MOL0     H56527  12.183   2.450   6.986  3.8181  2.2198  0.9130
  410MOL0     H56528  12.071   2.487   6.849 -0.6572 -0.9037  0.8647
  410MOL0     H56529  12.441   2.581   6.934  1.1941 -0.1001 -0.7214
  410MOL0     H56530  12.671   2.613   6.732  0.6031 -1.6234  1.3452
  410MOL0     H56531  12.653   2.499   6.600 -1.4738 -0.2115 -0.6853
  410MOL0     H56532  12.800   2.423   6.816  0.2952 -2.7166  0.1469
  410MOL0     H56533  12.645   2.411   6.905  1.5264  3.5940  1.4272
  410MOL0     H56534  12.582   2.234   6.735  0.5182 -3.0009  2.0740
  410MOL0     H56535  12.706   2.271   6.629 -1.0637  0.5033  0.3017
  410MOL0     H56536  12.874   2.180   6.800  0.1382 -1.0614  1.6741
  410MOL0     H56537  12.731   2.127   6.886 -0.3735  1.1691 -0.0665
  410MOL0     H56538  12.947   2.001   6.873  0.1513  2.8465 -3.2678
  410MOL0     H56539  13.181   1.935   6.901  0.9023  0.9263 -0.3821
  410MOL0     H56540  13.223   1.770   6.866  0.4573  1.9970 -1.3344
  410MOL0     H56541  13.126   1.803   7.003  1.4499  1.4030  0.4211
  410MOL0     H56542  12.986   1.309   6.465  1.5060 -4.6059 -0.7667
  410MOL0     H56543  13.099   1.133   6.387  0.4482  0.0334 -1.1793
  410MOL0     H56544  13.209   0.943   6.386  0.5391  1.5354  0.6513
  410MOL0     H56545  13.276   0.992   6.226  3.0991 -3.7431 -2.2579
  410MOL0     H56546  13.364   0.760   6.291 -3.4972  0.1472  1.7895
  410MOL0     H56547  13.492   0.884   6.274 -0.2660  0.2123 -1.0408
  410MOL0     H56548  13.379   0.840   6.548  0.6254  0.9437  0.4104
  410MOL0     H56549  13.532   0.918   6.498  2.2878 -1.8618  1.5503
  410MOL0     H56550  13.470   0.626   6.483  2.2989 -1.9496  1.3587
  410MOL0     H56551  13.563   0.713   6.603 -0.5406 -1.3615 -0.1882
  410MOL0     H56552  13.630   0.715   6.317  2.6064  3.6964 -0.9611
  410MOL0     H56553  13.731   0.786   6.446  0.2949  0.0568 -0.1430
  410MOL0     H56554  13.679   0.494   6.428 -1.2895  1.8848  1.1483
  410MOL0     H56555  13.766   0.573   6.555 -1.3057 -2.1551  0.7870
  410MOL0     H56556  13.920   0.682   6.385  2.2816 -0.3496 -0.7917
  410MOL0     H56557  13.843   0.575   6.267 -1.8695 -0.9939  0.3487
  410MOL0     H56558  13.930   0.372   6.398  3.3084 -2.6941  0.0216
  410MOL0     H56559  14.004   0.485   6.508 -1.6368  1.3974 -0.0196
  410MOL0     H56560  13.466   1.256   6.568  0.1632  0.4008 -0.2962
  410MOL0     H56561  13.357   1.448   6.658  0.2747  0.5995 -0.6652
  410MOL0     H56562  12.881   1.641   6.551  0.3155 -0.7292  0.5184
  410MOL0     H56563  12.739   1.827   6.555 -0.5739  2.7943  1.8675
  410MOL0     H56564  11.288   2.743   7.546  1.5043 -0.3087 -1.8908
  410MOL0     H56565  11.051   2.743   7.598  3.2502  0.0994  1.0042
  410MOL0     H56566  10.620   2.733   7.587 -0.4494  0.0829 -1.0006
  410MOL0     H56567  10.401   2.681   7.656 -4.3396 -0.5588 -1.6231
  410MOL0     H56568  10.143   2.522   7.400 -0.8627  1.8582  1.6583
  410MOL0     H56569  10.191   2.349   7.428  0.0675 -0.5143 -0.3054
  410MOL0     H56570  10.013   2.495   7.617  3.8247  1.2367  0.4602
  410MOL0     H56571  10.050   2.320   7.623 -1.7615 -1.4595 -2.5239
  410MOL0     H56572   9.887   2.471   7.426 -0.2677  0.1937  1.7764
  410MOL0     H56573   9.948   2.303   7.393 -0.8686 -1.3822  1.6977
  410MOL0     H56574   9.817   2.235   7.602  1.2199  1.5742  1.8416
  410MOL0     H56575   9.728   2.302   7.467  0.5872 -0.2062  0.9863
  410MOL0     H56576   9.630   2.597   7.751 -2.1355 -0.4242 -1.4795
  410MOL0     H56577  10.392   2.363   7.366 -2.2682  1.4209 -0.6677
  410MOL0     H56578  10.574   2.363   7.174 -1.0036  0.5635  0.9330
  410MOL0     H56579  10.721   2.460   7.203  0.9531  0.9282  1.4009
  410MOL0     H56580  10.688   2.314   7.306  2.4732  1.2920 -0.2307
  411MOL0     O56581   9.698   7.381   2.696 -0.0132  0.1030 -0.3514
  411MOL0     C56582   9.675   7.319   2.591 -0.5265  0.0428  0.2694
  411MOL0     O56583   9.768   7.231   2.546 -0.0695 -0.5436 -0.0395
  411MOL0     C56584   9.881   7.204   2.620  0.2467  0.7223 -0.4148
  411MOL0     C56585   9.888   7.113   2.730  0.6740 -0.0563 -0.7744
  411MOL0     C56586  10.004   7.090   2.795  0.1085 -0.0236  0.3343
  411MOL0     C56587  10.121   7.151   2.753  0.1599  1.0032 -0.3941
  411MOL0     O56588  10.235   7.119   2.823 -0.6342 -0.5462 -0.3153
  411MOL0     C56589  10.367   7.150   2.769 -1.0550 -0.0720  0.3107
  411MOL0     C56590  10.478   7.076   2.844 -0.0456  0.1788 -0.4376
  411MOL0     C56591  10.614   7.096   2.777  1.1822 -0.0202  0.1387
  411MOL0     C56592  10.717   6.997   2.834 -0.0522 -0.4018  0.4168
  411MOL0     C56593  10.859   7.019   2.793 -0.8319 -0.5509  0.0040
  411MOL0     C56594  10.960   6.914   2.845 -0.3839 -0.0004 -0.3858
  411MOL0     C56595  11.107   6.962   2.812 -0.0416 -0.0068  0.3174
  411MOL0     C56596  11.203   6.853   2.866 -0.8318  0.5503  1.0465
  411MOL0     N56597  11.172   6.722   2.815 -0.4398  0.6003  0.2084
  411MOL0     C56598  11.077   6.630   2.851  0.3982 -0.3502  0.8599
  411MOL0     C56599  11.085   6.536   2.746  0.8837 -0.1167 -0.1368
  411MOL0     C56600  10.986   6.423   2.727 -0.1140 -0.0026  0.5865
  411MOL0     C56601  10.868   6.477   2.640 -0.1880  0.4392  0.3697
  411MOL0     C56602  10.738   6.451   2.705  0.2796  0.4624  0.2698
  411MOL0     C56603  10.680   6.309   2.712 -0.3376  0.8880 -0.2738
  411MOL0     O56604  10.793   6.227   2.737 -0.6723  0.0897 -1.0627
  411MOL0     C56605  10.784   6.091   2.749  0.4403  0.5480  0.4834
  411MOL0     C56606  10.899   6.020   2.757 -0.1592  0.6490  0.3803
  411MOL0     C56607  10.890   5.871   2.772 -0.4635  0.0281  0.1367
  411MOL0     C56608  11.019   5.793   2.777  0.5653 -0.6388 -0.4945
  411MOL0     C56609  10.764   5.802   2.776  0.8077  0.3002  0.0354
  411MOL0     C56610  10.750   5.655   2.789  0.4836  0.3862 -0.6415
  411MOL0     O56611  10.663   5.620   2.890 -0.0370  0.5687 -0.4737
  411MOL0     C56612  10.641   5.491   2.918  0.4327 -0.0634 -0.3970
  411MOL0     C56613  10.507   5.443   2.939 -0.8150  0.5813 -0.0317
  411MOL0     C56614  10.477   5.310   2.969 -1.1901  0.4571 -0.3609
  411MOL0     C56615  10.582   5.212   2.979 -0.2964 -0.8797 -0.1105
  411MOL0     O56616  10.577   5.083   3.025 -0.9525  0.3524 -0.3974
  411MOL0     C56617  10.480   5.052   3.123  0.2645  0.0831  0.4663
  411MOL0     C56618  10.415   4.914   3.102  0.2196 -1.3405 -0.4703
  411MOL0     C56619  10.274   4.917   3.169 -0.7750  0.0025  0.1718
  411MOL0     C56620  10.216   4.775   3.148 -0.2815 -0.5035 -0.2662
  411MOL0     C56621  10.070   4.769   3.180 -0.9228 -1.2912 -0.3013
  411MOL0     C56622  10.030   4.631   3.213 -0.2808  1.1437  0.0005
  411MOL0     C56623   9.876   4.635   3.247 -0.4885 -0.5006 -0.4297
  411MOL0     C56624   9.815   4.502   3.304 -0.7014 -0.0271  0.1580
  411MOL0    Cl56625   9.654   4.503   3.321  0.1865 -0.4913  0.5940
  411MOL0     C56626  10.713   5.249   2.946  0.3303 -0.3163  0.5856
  411MOL0     C56627  10.739   5.393   2.924 -0.6978 -0.2041 -0.9990
  411MOL0     O56628  10.810   5.573   2.716 -0.2349  0.4924 -0.0596
  411MOL0     C56629  10.653   5.882   2.765 -0.3327  0.2653 -0.1128
  411MOL0     C56630  10.662   6.022   2.745 -0.7477 -0.0694 -1.2147
  411MOL0     N56631  11.201   6.550   2.682 -1.4557 -0.1120 -0.3267
  411MOL0     N56632  11.251   6.661   2.717  0.1004  0.4137  0.6377
  411MOL0     C56633  10.116   7.242   2.646 -0.3243 -0.9982  0.9416
  411MOL0     C56634   9.999   7.273   2.582  0.4837  0.7544  0.2822
  411MOL0     C56635   9.565   7.358   2.492 -0.2591  0.6457  0.2440
  411MOL0     C56636   9.545   7.267   2.387 -0.6608 -0.0159  0.5707
  411MOL0     C56637   9.458   7.299   2.286  0.2235  0.2683  0.0999
  411MOL0     C56638   9.381   7.413   2.292  0.2916  0.0097  0.1073
  411MOL0     O56639   9.292   7.437   2.180 -0.4327  1.0837  0.4722
  411MOL0     C56640   9.173   7.508   2.218 -0.2627 -0.3171 -0.4985
  411MOL0     C56641   9.067   7.506   2.115 -0.1536  0.7896  0.2375
  411MOL0     C56642   9.032   7.369   2.053 -0.6446  0.3863 -0.3682
  411MOL0     C56643   8.890   7.350   1.989  0.0070  0.9418 -1.1576
  411MOL0     C56644   8.891   7.394   1.851 -0.4413 -0.4419  0.9206
  411MOL0     C56645   8.896   7.423   1.729  0.3702  0.1430 -0.4410
  411MOL0     C56646   9.394   7.492   2.407  0.6376 -0.5028 -0.4039
  411MOL0     C56647   9.485   7.466   2.512  1.3746 -0.2948  0.6888
  411MOL0     C56648   9.488   7.564   2.627  0.4962 -0.3304 -0.2004
  411MOL0     H56649   9.799   7.059   2.760  2.3263 -1.3776  2.1419
  411MOL0     H56650  10.010   7.018   2.876  1.8488  0.4075  0.6345
  411MOL0     H56651  10.391   7.256   2.769 -2.3028  0.2550 -1.2733
  411MOL0     H56652  10.364   7.114   2.666 -1.1440 -0.4235  0.4326
  411MOL0     H56653  10.498   7.105   2.948  0.2722  0.8915 -0.6914
  411MOL0     H56654  10.451   6.970   2.842  1.0159 -0.2841  2.9840
  411MOL0     H56655  10.591   7.087   2.670 -1.2594 -0.5700  0.6438
  411MOL0     H56656  10.638   7.202   2.792  0.8024  0.3235 -1.4877
  411MOL0     H56657  10.720   7.005   2.943  0.2621 -1.0369  0.4633
  411MOL0     H56658  10.685   6.896   2.806 -1.2753  0.4350 -1.4120
  411MOL0     H56659  10.886   7.119   2.829  1.4417 -0.9399 -0.5027
  411MOL0     H56660  10.866   7.028   2.684  0.2090  1.2198  0.1793
  411MOL0     H56661  10.943   6.892   2.951 -3.9690 -3.4690 -1.4407
  411MOL0     H56662  10.935   6.825   2.788 -2.0779  2.1403 -3.2352
  411MOL0     H56663  11.122   7.053   2.871 -5.2470  0.3540  1.5848
  411MOL0     H56664  11.099   6.984   2.706  0.6393  0.7716  0.4181
  411MOL0     H56665  11.301   6.877   2.823  0.2797 -2.2475  1.8076
  411MOL0     H56666  11.207   6.841   2.974 -0.3438  0.2508  0.9958
  411MOL0     H56667  10.996   6.642   2.923  1.1893 -0.8796  1.8572
  411MOL0     H56668  10.959   6.397   2.830 -2.0950  2.6788  0.8399
  411MOL0     H56669  11.034   6.339   2.675 -2.6821 -0.4747 -1.2088
  411MOL0     H56670  10.870   6.585   2.627  1.6939  0.3123 -0.6255
  411MOL0     H56671  10.870   6.428   2.542  1.5309 -3.7427  2.2455
  411MOL0     H56672  10.741   6.482   2.810 -1.2851 -1.8432  1.0756
  411MOL0     H56673  10.660   6.516   2.663 -0.2193 -0.4872 -0.3220
  411MOL0     H56674  10.611   6.294   2.795  0.0664 -2.9029 -0.4387
  411MOL0     H56675  10.633   6.274   2.620 -3.0708 -0.9220  1.6588
  411MOL0     H56676  11.000   6.061   2.764  0.6274 -0.7549 -1.6589
  411MOL0     H56677  11.008   5.722   2.859 -0.1918  0.3546  0.3006
  411MOL0     H56678  11.096   5.864   2.809  0.5205 -0.0584 -1.6174
  411MOL0     H56679  11.051   5.749   2.682 -0.8597 -0.7390 -0.9523
  411MOL0     H56680  10.421   5.509   2.937 -0.4633  1.0983  0.9259
  411MOL0     H56681  10.372   5.291   2.990 -0.6236 -1.5894  0.9330
  411MOL0     H56682  10.521   5.051   3.225  3.1270 -1.8278 -0.5738
  411MOL0     H56683  10.403   5.130   3.116  1.9759  1.9450  1.1594
  411MOL0     H56684  10.416   4.904   2.993 -0.4322  0.4804 -0.6769
  411MOL0     H56685  10.476   4.834   3.146 -1.6278 -2.4645  0.1887
  411MOL0     H56686  10.208   4.988   3.117 -0.6454  0.8212  1.1067
  411MOL0     H56687  10.283   4.944   3.274 -3.7911  0.7809  0.3293
  411MOL0     H56688  10.275   4.712   3.215 -0.3109  0.8267  1.0664
  411MOL0     H56689  10.226   4.745   3.044  2.2625 -0.2899 -0.1394
  411MOL0     H56690  10.051   4.835   3.265  1.3332 -1.0539  0.0676
  411MOL0     H56691  10.025   4.796   3.084 -1.1422 -0.9593 -0.1077
  411MOL0     H56692  10.086   4.587   3.296  0.3118 -1.3884 -1.6564
  411MOL0     H56693  10.037   4.557   3.133 -3.0012  0.9803 -0.1973
  411MOL0     H56694   9.814   4.653   3.159 -2.7420  0.6231  1.2644
  411MOL0     H56695   9.857   4.717   3.318 -0.5884 -1.4635  0.6860
  411MOL0     H56696   9.855   4.478   3.403 -0.1502  0.1813 -0.0111
  411MOL0     H56697   9.843   4.423   3.234 -0.1028 -0.8680  1.3090
  411MOL0     H56698  10.799   5.183   2.941  0.0426 -0.7594  1.3404
  411MOL0     H56699  10.845   5.418   2.922 -0.2742 -1.5447  1.2332
  411MOL0     H56700  10.554   5.837   2.757  0.2567 -0.9649 -0.7691
  411MOL0     H56701  10.571   6.074   2.720 -2.7257 -2.4634  0.5428
  411MOL0     H56702  10.202   7.299   2.616 -0.4670 -1.8454 -1.2539
  411MOL0     H56703   9.994   7.349   2.506 -0.7454  1.7673  1.3329
  411MOL0     H56704   9.600   7.175   2.371 -2.9393 -1.2313 -0.7351
  411MOL0     H56705   9.449   7.244   2.193  0.9318 -1.6750  1.1046
  411MOL0     H56706   9.131   7.474   2.312  3.7680  0.1919  1.7285
  411MOL0     H56707   9.194   7.614   2.236  1.4309 -0.8806  1.0755
  411MOL0     H56708   9.098   7.557   2.024 -0.1718  0.4259  0.0231
  411MOL0     H56709   8.974   7.549   2.155 -0.5103 -0.5331  0.9047
  411MOL0     H56710   9.105   7.341   1.976 -0.0458  3.2144 -0.9339
  411MOL0     H56711   9.044   7.298   2.135  0.7905  0.6581 -0.3023
  411MOL0     H56712   8.811   7.393   2.051 -0.1113 -0.3669 -0.3660
  411MOL0     H56713   8.864   7.243   1.986  0.4846  0.8254 -3.9956
  411MOL0     H56714   8.916   7.433   1.624  2.6802  1.7033  0.0759
  411MOL0     H56715   9.333   7.581   2.420  1.1219  0.0783 -1.8770
  411MOL0     H56716   9.403   7.630   2.613  1.9122  1.8303  0.7960
  411MOL0     H56717   9.476   7.518   2.726 -2.3449  2.3193  0.8502
  411MOL0     H56718   9.576   7.630   2.627  1.0258 -0.9763 -2.3087
  412MOL0     O56719   9.073   2.395  10.200 -0.1277  0.1134 -0.1394
  412MOL0     C56720   9.003   2.378  10.105  0.0120 -0.2537 -0.8287
  412MOL0     O56721   9.022   2.432   9.986 -0.1078 -1.4024  0.1822
  412MOL0     C56722   9.149   2.477   9.955 -0.0765 -0.6234 -0.1822
  412MOL0     C56723   9.166   2.600   9.890 -0.7135 -0.6274  0.3402
  412MOL0     C56724   9.295   2.654   9.855  0.5976  0.1366 -0.1789
  412MOL0     C56725   9.409   2.576   9.886  0.2971  0.1073 -0.2136
  412MOL0     O56726   9.537   2.597   9.853  0.2553  0.0856  0.6346
  412MOL0     C56727   9.610   2.671   9.948 -0.5524  0.3572  0.8086
  412MOL0     C56728   9.757   2.665   9.912  0.2180 -0.0322 -0.4859
  412MOL0     C56729   9.812   2.525   9.899 -0.1325 -1.5611 -0.2716
  412MOL0     C56730   9.967   2.522   9.898 -0.1754 -0.8538 -0.2216
  412MOL0     C56731  10.036   2.399   9.850  1.0090  0.8222 -0.1553
  412MOL0     C56732  10.186   2.409   9.881 -0.1663 -0.7566  0.2257
  412MOL0     C56733  10.262   2.285   9.821  0.4025  0.7784  0.2599
  412MOL0     C56734  10.188   2.148   9.861  0.4062  0.4597  0.8177
  412MOL0     N56735  10.286   2.037   9.842  0.3591  0.2028 -0.7562
  412MOL0     C56736  10.359   2.003   9.735 -0.7508 -0.1025  0.1339
  412MOL0     C56737  10.465   1.934   9.776  0.0101 -0.5870  0.7247
  412MOL0     C56738  10.593   1.896   9.706  0.1071 -0.5016  0.3316
  412MOL0     C56739  10.683   2.032   9.695 -0.0004 -0.1540 -0.2483
  412MOL0     C56740  10.815   1.999   9.638 -0.8283 -0.5507  0.3368
  412MOL0     C56741  10.906   2.123   9.621  0.5946 -0.3770 -0.6956
  412MOL0     O56742  10.995   2.123   9.733  0.5755 -0.3918  0.2837
  412MOL0     C56743  11.131   2.114   9.710  0.1351 -0.5370 -0.2936
  412MOL0     C56744  11.211   2.179   9.804  0.0093 -0.6159  0.4955
  412MOL0     C56745  11.350   2.199   9.792 -0.8350  0.2229  0.4666
  412MOL0     C56746  11.427   2.264   9.891 -0.9883  0.0087 -1.0690
  412MOL0     C56747  11.407   2.151   9.666 -0.0923  0.6495  1.1691
  412MOL0     C56748  11.543   2.183   9.609  0.4632  0.5350 -0.5533
  412MOL0     O56749  11.565   2.144   9.478  0.6026 -0.1530 -0.1201
  412MOL0     C56750  11.674   2.184   9.395 -0.0124  0.2097 -0.1817
  412MOL0     C56751  11.723   2.319   9.386 -0.8860 -0.2951  0.4237
  412MOL0     C56752  11.839   2.347   9.308 -0.4124 -0.2404 -0.3056
  412MOL0     C56753  11.912   2.242   9.250 -0.4314 -0.0138  0.7938
  412MOL0     O56754  12.038   2.274   9.199  0.2079  0.0297 -0.6144
  412MOL0     C56755  12.069   2.214   9.072  0.3711 -0.7311  0.0851
  412MOL0     C56756  12.156   2.305   8.985 -0.2872 -0.0246 -0.1482
  412MOL0     C56757  12.059   2.407   8.920 -0.7358 -0.4796  0.0067
  412MOL0     C56758  12.140   2.478   8.806 -0.1170 -0.2232 -0.9984
  412MOL0     C56759  12.080   2.601   8.727  0.3041  1.5129 -0.0385
  412MOL0     C56760  12.052   2.711   8.819 -0.0429 -0.6662 -0.2858
  412MOL0     C56761  12.012   2.840   8.733 -0.0842 -0.9361  0.7692
  412MOL0     C56762  12.127   2.929   8.691 -0.2856 -0.4562  0.9019
  412MOL0    Cl56763  12.259   2.848   8.590  0.2800 -0.4133  0.0392
  412MOL0     C56764  11.861   2.110   9.257 -0.0445 -0.0091  0.5541
  412MOL0     C56765  11.750   2.085   9.336 -0.2345  0.1025 -0.3040
  412MOL0     O56766  11.622   2.245   9.672 -0.2762 -0.2453  0.0528
  412MOL0     C56767  11.317   2.063   9.579 -1.3492 -0.7859 -0.2472
  412MOL0     C56768  11.187   2.056   9.601 -0.5849  0.1629  0.4589
  412MOL0     N56769  10.445   1.903   9.907 -1.2574 -0.5853 -0.0210
  412MOL0     N56770  10.344   1.970   9.948  0.3315 -0.4843 -0.4548
  412MOL0     C56771   9.388   2.452   9.943  0.4870  0.5184  0.5505
  412MOL0     C56772   9.261   2.401   9.976 -0.4897 -0.4388 -0.4580
  412MOL0     C56773   8.885   2.285  10.129 -0.1929  0.4719 -0.0188
  412MOL0     C56774   8.875   2.220  10.253 -0.0471  0.3537 -0.3831
  412MOL0     C56775   8.771   2.127  10.281  0.6257 -0.2650 -0.5128
  412MOL0     C56776   8.687   2.090  10.180 -0.0809  0.5141  0.9467
  412MOL0     O56777   8.570   2.011  10.187 -0.0606 -0.1676 -0.1055
  412MOL0     C56778   8.542   1.931  10.304  0.3503  0.4508  0.6369
  412MOL0     C56779   8.405   1.861  10.297 -0.2571 -0.2822  0.0404
  412MOL0     C56780   8.297   1.954  10.349 -0.3512  0.7623 -0.4600
  412MOL0     C56781   8.163   1.893  10.301 -0.0986  0.7482  0.1245
  412MOL0     C56782   8.050   1.975  10.363 -1.5138 -0.0412  0.9125
  412MOL0     C56783   7.971   2.043  10.421 -0.0738  0.3590 -0.4182
  412MOL0     C56784   8.696   2.142  10.049  0.3493 -0.8029 -0.1250
  412MOL0     C56785   8.795   2.240  10.029 -0.0147  0.0679  0.1044
  412MOL0     C56786   8.808   2.282   9.882 -0.1381 -0.8053  0.4409
  412MOL0     H56787   9.082   2.662   9.861 -0.1331 -0.1418 -0.3378
  412MOL0     H56788   9.291   2.745   9.795  1.5974 -0.9082 -1.9061
  412MOL0     H56789   9.610   2.625  10.047 -1.1758 -0.4862  0.4356
  412MOL0     H56790   9.570   2.773   9.949 -0.6220  0.4809 -2.7873
  412MOL0     H56791   9.773   2.731   9.826 -1.7423  0.6122 -0.4047
  412MOL0     H56792   9.807   2.714   9.996  1.6232 -1.2651 -0.5712
  412MOL0     H56793   9.778   2.463   9.982 -0.4436 -0.4940  0.4193
  412MOL0     H56794   9.783   2.496   9.798  0.1728  2.1548 -1.5889
  412MOL0     H56795  10.001   2.604   9.834 -0.6644 -2.7495 -3.0516
  412MOL0     H56796   9.996   2.547  10.001  2.3877 -1.4130 -0.7548
  412MOL0     H56797  10.016   2.387   9.743  1.2801  2.2872 -0.3889
  412MOL0     H56798   9.986   2.321   9.910  2.1688  0.2415  0.0789
  412MOL0     H56799  10.222   2.503   9.837 -1.0462 -0.0529  0.9913
  412MOL0     H56800  10.206   2.418   9.988  0.8856 -1.4003  0.1073
  412MOL0     H56801  10.362   2.292   9.865  0.7267  2.5495 -0.6958
  412MOL0     H56802  10.258   2.278   9.712  4.1166  0.1802  0.0401
  412MOL0     H56803  10.156   2.154   9.965  2.9345  2.6086  1.5875
  412MOL0     H56804  10.101   2.122   9.800  1.1329 -2.1925  0.7867
  412MOL0     H56805  10.342   2.057   9.643 -1.3874  0.2458  0.4466
  412MOL0     H56806  10.570   1.857   9.606 -0.2721  0.9901 -0.1939
  412MOL0     H56807  10.650   1.823   9.765  0.2182 -0.8097 -0.1495
  412MOL0     H56808  10.629   2.110   9.640  2.7441  1.1155 -1.3129
  412MOL0     H56809  10.698   2.081   9.792  0.7638  2.1153 -1.4410
  412MOL0     H56810  10.862   1.926   9.705 -1.9603  0.4631  2.3427
  412MOL0     H56811  10.805   1.956   9.537  1.5820 -1.0911  0.2839
  412MOL0     H56812  10.956   2.135   9.524  2.0163 -1.1954 -0.0967
  412MOL0     H56813  10.852   2.216   9.638  1.4453  0.0817 -0.4562
  412MOL0     H56814  11.175   2.239   9.887  2.4204  2.2723 -0.3606
  412MOL0     H56815  11.484   2.351   9.858 -0.0113 -1.2101 -2.7223
  412MOL0     H56816  11.492   2.188   9.936  0.4554  1.5177 -0.4769
  412MOL0     H56817  11.357   2.305   9.965  1.6679  1.2357  0.9399
  412MOL0     H56818  11.659   2.392   9.434 -0.4110 -0.9649  2.1405
  412MOL0     H56819  11.865   2.452   9.304 -1.0445  0.0827  2.3191
  412MOL0     H56820  12.118   2.119   9.095  0.5262 -1.0405 -1.4616
  412MOL0     H56821  11.977   2.197   9.016 -0.3154  0.3045  0.8506
  412MOL0     H56822  12.231   2.347   9.053 -2.6759  4.3047  0.2026
  412MOL0     H56823  12.203   2.243   8.909 -2.7604 -0.2821 -1.5796
  412MOL0     H56824  12.032   2.477   9.000  1.7554  1.4702 -0.7216
  412MOL0     H56825  11.973   2.358   8.873  0.8724 -0.4665 -3.3003
  412MOL0     H56826  12.173   2.402   8.734 -1.6262  0.3402 -2.3403
  412MOL0     H56827  12.233   2.514   8.851 -0.2289 -1.2253  0.0741
  412MOL0     H56828  12.153   2.639   8.656 -0.0954  1.4525 -0.4902
  412MOL0     H56829  11.991   2.556   8.681  1.1108 -1.4739  1.1031
  412MOL0     H56830  12.146   2.737   8.868 -0.1635 -0.2258 -0.2826
  412MOL0     H56831  11.974   2.688   8.892  1.2279 -2.3271  0.6198
  412MOL0     H56832  11.941   2.895   8.795 -0.6441 -0.0804 -0.5894
  412MOL0     H56833  11.960   2.808   8.643 -2.6331 -0.1131  1.8620
  412MOL0     H56834  12.176   2.961   8.784  2.7310  1.0950 -1.0686
  412MOL0     H56835  12.074   3.012   8.644 -0.7384 -0.4058  1.4875
  412MOL0     H56836  11.919   2.036   9.203 -0.6605  1.4411 -2.2689
  412MOL0     H56837  11.726   1.980   9.342  0.0936 -0.0028 -0.8213
  412MOL0     H56838  11.355   2.007   9.494 -1.6393 -1.2707 -0.0571
  412MOL0     H56839  11.128   1.992   9.537 -0.9224  0.8189  0.0991
  412MOL0     H56840   9.478   2.393   9.955  0.9271  1.1013  0.1890
  412MOL0     H56841   9.256   2.305  10.025  0.1454 -0.6491 -0.7992
  412MOL0     H56842   8.941   2.246  10.336  1.2335 -0.4241 -1.1150
  412MOL0     H56843   8.757   2.085  10.380 -0.7896 -1.8243 -1.3068
  412MOL0     H56844   8.611   1.847  10.316  0.6975  0.6683  0.1884
  412MOL0     H56845   8.557   1.995  10.391 -0.8747  1.2290  0.3061
  412MOL0     H56846   8.402   1.766  10.351  0.0640 -1.3327 -1.6849
  412MOL0     H56847   8.392   1.825  10.194 -1.2033 -1.7794  0.6465
  412MOL0     H56848   8.296   1.964  10.458  1.3420  0.9259 -0.4320
  412MOL0     H56849   8.313   2.059  10.322  0.9585  1.0355  1.2338
  412MOL0     H56850   8.165   1.791  10.339  0.2730  0.7435  0.1001
  412MOL0     H56851   8.159   1.891  10.191 -0.2366  1.8107  0.0919
  412MOL0     H56852   7.907   2.107  10.478 -0.5623  1.2667 -1.9272
  412MOL0     H56853   8.628   2.115   9.969 -0.3678  0.6840 -0.0402
  412MOL0     H56854   8.909   2.263   9.843 -0.9056  0.3545 -2.3375
  412MOL0     H56855   8.730   2.236   9.822  0.2093 -1.6015  0.5856
  412MOL0     H56856   8.796   2.390   9.871 -0.3488 -0.9512 -0.8904
  413MOL0     O56857   7.474   6.573   3.723  0.7771  1.0123  0.2077
  413MOL0     C56858   7.407   6.522   3.633  0.2809  0.2861  0.3610
  413MOL0     O56859   7.416   6.385   3.590 -0.1131  0.5390 -0.2555
  413MOL0     C56860   7.518   6.317   3.654 -0.1904  1.1597  0.3569
  413MOL0     C56861   7.638   6.308   3.584 -0.0978  0.2021 -0.7325
  413MOL0     C56862   7.733   6.218   3.629 -0.6787  0.0228  0.5542
  413MOL0     C56863   7.718   6.149   3.748  0.4780 -0.4522  0.6858
  413MOL0     O56864   7.837   6.086   3.778  1.2730  0.6162 -0.3747
  413MOL0     C56865   7.859   6.069   3.922 -0.3924 -0.3652 -0.5536
  413MOL0     C56866   7.998   6.028   3.940  0.7255  0.1156 -0.1987
  413MOL0     C56867   8.045   6.015   4.084  0.3391 -0.1913 -0.7406
  413MOL0     C56868   8.192   5.964   4.097  1.0036 -0.7616  0.1736
  413MOL0     C56869   8.241   5.953   4.248  0.1523 -0.0124  0.2028
  413MOL0     C56870   8.223   6.081   4.322  0.0489  0.5114  0.0274
  413MOL0     C56871   8.285   6.210   4.263  1.0794 -0.3457  0.7742
  413MOL0     C56872   8.437   6.189   4.237 -0.8143 -0.2890 -0.0590
  413MOL0     N56873   8.510   6.193   4.362  0.2586  1.0817 -0.3131
  413MOL0     C56874   8.523   6.103   4.463  0.0311 -0.4740 -0.0181
  413MOL0     C56875   8.601   6.159   4.548  0.0502  0.3771 -0.0514
  413MOL0     C56876   8.635   6.084   4.674 -0.0367 -0.4025 -0.3864
  413MOL0     C56877   8.782   6.055   4.688  0.0684  0.0111 -0.3191
  413MOL0     C56878   8.825   5.974   4.572 -0.3595 -0.0760  0.0225
  413MOL0     C56879   8.968   5.924   4.584 -1.4221  0.2200 -0.2605
  413MOL0     O56880   8.982   5.806   4.498  0.0379  0.3362  0.0279
  413MOL0     C56881   9.096   5.729   4.504 -0.0186 -0.1924 -0.3638
  413MOL0     C56882   9.080   5.602   4.442 -1.4214 -0.7397 -0.1776
  413MOL0     C56883   9.196   5.524   4.414  0.2900  0.2780  0.6200
  413MOL0     C56884   9.173   5.398   4.340 -0.2806 -0.8047  0.2462
  413MOL0     C56885   9.322   5.564   4.462 -0.2622  0.1938 -0.5935
  413MOL0     C56886   9.448   5.497   4.416  0.5095  0.0167 -0.5229
  413MOL0     O56887   9.555   5.487   4.504 -0.1354 -0.0564  0.3224
  413MOL0     C56888   9.683   5.499   4.456 -0.5178 -0.6918  0.9743
  413MOL0     C56889   9.728   5.630   4.421  1.0202 -0.4971 -0.9660
  413MOL0     C56890   9.858   5.654   4.373 -0.2168 -0.4311  0.6199
  413MOL0     C56891   9.946   5.543   4.363 -0.2000  0.7933 -0.6575
  413MOL0     O56892  10.077   5.579   4.320 -0.1897 -0.5192 -0.7222
  413MOL0     C56893  10.171   5.469   4.337  0.1205 -0.8299 -0.1390
  413MOL0     C56894  10.307   5.516   4.296 -1.3552  0.2334 -0.4466
  413MOL0     C56895  10.403   5.402   4.311  0.6487 -0.6738  0.3272
  413MOL0     C56896  10.519   5.429   4.212 -0.9561  0.3723 -0.2227
  413MOL0     C56897  10.622   5.315   4.204 -0.3112  0.0641  0.3059
  413MOL0     C56898  10.648   5.237   4.330  0.0902 -0.3685  0.2671
  413MOL0     C56899  10.785   5.172   4.325  0.2643  0.5167 -0.4583
  413MOL0     C56900  10.780   5.057   4.224  0.1487 -0.0753  0.5570
  413MOL0    Cl56901  10.720   4.900   4.286 -0.3110 -0.3107  0.1971
  413MOL0     C56902   9.899   5.417   4.414 -1.2913  0.7057  0.4038
  413MOL0     C56903   9.770   5.396   4.453  0.2589  0.5967  0.0826
  413MOL0     O56904   9.457   5.447   4.304  0.3665 -0.4003 -0.3059
  413MOL0     C56905   9.338   5.679   4.540  0.4904 -0.2743  0.2081
  413MOL0     C56906   9.220   5.769   4.551 -0.0889  0.1597  0.5067
  413MOL0     N56907   8.638   6.282   4.505 -0.1291  0.4310 -0.2069
  413MOL0     N56908   8.581   6.298   4.392  0.7980  0.1142  0.2714
  413MOL0     C56909   7.597   6.156   3.811  0.6961  0.7684 -0.8261
  413MOL0     C56910   7.496   6.242   3.771 -0.3272 -0.5627  0.7141
  413MOL0     C56911   7.289   6.592   3.583 -0.7129  0.4593 -0.4248
  413MOL0     C56912   7.185   6.516   3.529 -0.7648 -0.0427 -0.1105
  413MOL0     C56913   7.068   6.574   3.479 -0.2862 -1.2871 -0.0545
  413MOL0     C56914   7.069   6.717   3.457 -0.3064  0.0892  0.3113
  413MOL0     O56915   6.955   6.763   3.399 -0.0336 -0.3712 -0.3013
  413MOL0     C56916   6.955   6.896   3.338 -0.7574  0.5883 -0.3357
  413MOL0     C56917   6.807   6.931   3.337 -0.4586  0.0428 -0.2836
  413MOL0     C56918   6.782   7.056   3.250 -0.0403  0.2239 -0.1653
  413MOL0     C56919   6.642   7.116   3.280  0.5943  0.7720 -0.5821
  413MOL0     C56920   6.536   7.064   3.188 -0.0116 -1.4214 -0.2405
  413MOL0     C56921   6.453   7.024   3.114 -0.4351 -0.4021 -0.0363
  413MOL0     C56922   7.165   6.798   3.513 -0.2440  0.0785 -0.5732
  413MOL0     C56923   7.275   6.734   3.573  0.6866  0.3055  0.0066
  413MOL0     C56924   7.378   6.835   3.631 -0.2925  0.4181 -0.1403
  413MOL0     H56925   7.647   6.380   3.504  2.0336 -2.1242 -2.7842
  413MOL0     H56926   7.822   6.213   3.567 -0.6452  1.0821  0.4879
  413MOL0     H56927   7.787   6.001   3.968 -1.4557  0.9499 -0.2103
  413MOL0     H56928   7.855   6.166   3.973 -0.0279 -1.1765  1.0653
  413MOL0     H56929   8.016   5.936   3.885  4.6595 -1.5996  3.3297
  413MOL0     H56930   8.066   6.107   3.905 -0.5534  2.9611  3.0891
  413MOL0     H56931   8.012   6.104   4.138 -1.2587  0.0391 -2.0108
  413MOL0     H56932   7.995   5.927   4.127  1.0996  0.1417  0.8846
  413MOL0     H56933   8.184   5.871   4.040  1.9925 -0.1957 -0.9521
  413MOL0     H56934   8.263   6.020   4.035  1.1145 -1.1671 -0.0649
  413MOL0     H56935   8.346   5.922   4.242  0.0301 -0.2244 -1.7462
  413MOL0     H56936   8.181   5.879   4.302 -1.7620  1.6711  0.4902
  413MOL0     H56937   8.117   6.097   4.344  0.1255  0.4305  0.4470
  413MOL0     H56938   8.268   6.073   4.421  2.0659  2.4490 -0.6606
  413MOL0     H56939   8.265   6.296   4.329  1.1024  1.6259 -1.6517
  413MOL0     H56940   8.242   6.231   4.165  0.1908  3.3157  1.7798
  413MOL0     H56941   8.466   6.097   4.183  1.0953  0.5599 -0.5620
  413MOL0     H56942   8.469   6.278   4.182 -1.1520  0.3725  0.8116
  413MOL0     H56943   8.494   5.999   4.461 -0.1191 -0.4175 -0.9009
  413MOL0     H56944   8.580   5.990   4.674 -1.4390  0.3778  0.2915
  413MOL0     H56945   8.612   6.143   4.763  1.2425 -0.2097 -0.1669
  413MOL0     H56946   8.836   6.149   4.701 -0.0942 -0.1073  1.5797
  413MOL0     H56947   8.799   6.008   4.785 -0.2788  0.0111 -0.2554
  413MOL0     H56948   8.762   5.886   4.560  0.9636 -1.0946  0.2778
  413MOL0     H56949   8.822   6.037   4.483  0.1105 -0.7895 -0.5048
  413MOL0     H56950   9.036   5.999   4.542 -2.2463  0.5062 -1.1329
  413MOL0     H56951   8.991   5.900   4.688 -1.5979  0.7556 -0.0933
  413MOL0     H56952   8.979   5.583   4.406 -1.4826  0.7238 -0.8724
  413MOL0     H56953   9.069   5.378   4.316 -0.4102  0.2973 -0.1680
  413MOL0     H56954   9.224   5.310   4.380  2.0080  0.5091  0.4119
  413MOL0     H56955   9.220   5.417   4.243 -0.6819 -0.1406  0.1803
  413MOL0     H56956   9.655   5.707   4.443  0.9685 -0.7621 -0.1808
  413MOL0     H56957   9.893   5.748   4.331  0.5123 -1.9704 -2.5036
  413MOL0     H56958  10.174   5.445   4.443 -0.1190 -1.2346 -0.2233
  413MOL0     H56959  10.142   5.380   4.280  1.0709 -0.5375 -1.1135
  413MOL0     H56960  10.298   5.558   4.195 -3.1707  1.8660  0.3109
  413MOL0     H56961  10.341   5.596   4.363  0.1174 -0.1974 -0.6494
  413MOL0     H56962  10.347   5.321   4.263  1.7737 -0.2948 -1.7414
  413MOL0     H56963  10.441   5.373   4.409 -0.2993 -1.8013  0.3852
  413MOL0     H56964  10.571   5.519   4.244 -1.0412  1.2147 -2.3257
  413MOL0     H56965  10.489   5.460   4.111 -0.2520  0.9765 -0.2521
  413MOL0     H56966  10.585   5.238   4.136  1.2055 -1.4295  1.1023
  413MOL0     H56967  10.709   5.364   4.160  0.1094 -0.3704  0.6537
  413MOL0     H56968  10.568   5.163   4.341 -2.1784  1.9830  0.5224
  413MOL0     H56969  10.659   5.306   4.414  1.4235  1.4511 -1.3123
  413MOL0     H56970  10.805   5.143   4.428  3.0750  0.6384 -0.8952
  413MOL0     H56971  10.859   5.249   4.302 -0.1835  0.4961 -2.1417
  413MOL0     H56972  10.886   5.033   4.207 -0.0950 -0.9818  0.2286
  413MOL0     H56973  10.725   5.089   4.135  2.4775  0.1005 -0.9294
  413MOL0     H56974   9.961   5.329   4.397  1.1485  2.4333 -0.1433
  413MOL0     H56975   9.749   5.292   4.477  3.3954 -0.1688 -0.0741
  413MOL0     H56976   9.432   5.718   4.577  0.5347  1.7935 -1.8152
  413MOL0     H56977   9.235   5.862   4.605 -0.1886 -1.1201  2.8916
  413MOL0     H56978   7.583   6.099   3.902 -0.7441 -1.3811 -2.2960
  413MOL0     H56979   7.401   6.254   3.821 -0.7908 -0.5602 -0.1430
  413MOL0     H56980   7.191   6.408   3.534  1.7780  0.0316 -0.3866
  413MOL0     H56981   6.988   6.512   3.439 -1.7590  1.3079 -1.4119
  413MOL0     H56982   7.015   6.969   3.392 -0.9391  1.2862 -1.0605
  413MOL0     H56983   6.988   6.889   3.234  0.1359  0.1954 -0.0303
  413MOL0     H56984   6.767   6.946   3.438  2.4367  1.3811  0.7621
  413MOL0     H56985   6.751   6.850   3.290  0.3989 -0.0216 -1.2390
  413MOL0     H56986   6.851   7.126   3.298 -0.5999  1.7900 -1.5336
  413MOL0     H56987   6.802   7.051   3.143  0.8239  1.2337 -0.0716
  413MOL0     H56988   6.645   7.224   3.264  1.3467  0.8338 -0.0973
  413MOL0     H56989   6.611   7.108   3.384 -1.0768  1.1727 -1.0278
  413MOL0     H56990   6.378   6.998   3.041 -1.6191  5.5895 -1.4996
  413MOL0     H56991   7.167   6.906   3.524 -1.3262  0.0706 -0.1909
  413MOL0     H56992   7.482   6.801   3.629  0.6424  3.0387 -1.4069
  413MOL0     H56993   7.386   6.930   3.576  0.8129 -0.2746 -1.2218
  413MOL0     H56994   7.361   6.846   3.739  2.5183  0.1699  0.4134
  414MOL0     O56995   1.396   9.491   8.068  0.2257 -0.1633  0.0059
  414MOL0     C56996   1.286   9.540   8.056  0.5776  0.0747  0.3665
  414MOL0     O56997   1.265   9.667   8.005 -0.0409  0.3000  0.0275
  414MOL0     C56998   1.362   9.764   8.030 -0.1884 -0.4853 -0.4680
  414MOL0     C56999   1.388   9.855   7.914 -0.2166  0.4029  1.1733
  414MOL0     C57000   1.476   9.961   7.939 -0.6281  0.1549 -0.2954
  414MOL0     C57001   1.542   9.970   8.065  0.6461 -0.6969  0.0141
  414MOL0     O57002   1.651  10.056   8.069 -0.0114  0.0507  0.9987
  414MOL0     C57003   1.665  10.151   8.177 -0.4059  0.6885  0.1191
  414MOL0     C57004   1.813  10.156   8.193 -0.8527 -0.6434 -0.4160
  414MOL0     C57005   1.878  10.053   8.300  0.6814  0.5520 -0.2198
  414MOL0     C57006   2.023  10.103   8.331 -1.1689  0.0999  0.1542
  414MOL0     C57007   2.064  10.029   8.472 -0.5814  0.0925  0.7589
  414MOL0     C57008   2.041   9.873   8.456  0.0365  0.3481 -0.6580
  414MOL0     C57009   2.100   9.800   8.578 -0.4950  0.3032 -0.2782
  414MOL0     C57010   2.101   9.647   8.567  0.7427 -0.6164  0.7457
  414MOL0     N57011   2.188   9.577   8.666  0.1660  0.5761  0.3587
  414MOL0     C57012   2.146   9.483   8.760 -0.0468 -0.6992  0.4202
  414MOL0     C57013   2.263   9.443   8.819 -0.4567  0.4439  0.0252
  414MOL0     C57014   2.277   9.328   8.913 -0.1607  0.4632 -0.7661
  414MOL0     C57015   2.294   9.207   8.829 -1.0849  0.0615  0.0677
  414MOL0     C57016   2.303   9.084   8.918 -0.2908  0.0231  0.2135
  414MOL0     C57017   2.430   9.064   9.004 -0.4650  0.4860  1.0570
  414MOL0     O57018   2.530   8.994   8.924  0.0244  0.4270 -0.5063
  414MOL0     C57019   2.613   9.053   8.831  0.3249  0.3110  1.1675
  414MOL0     C57020   2.671   8.973   8.732 -0.1267 -0.1352 -0.2150
  414MOL0     C57021   2.760   9.028   8.643 -0.3247  0.1546  0.8314
  414MOL0     C57022   2.803   8.936   8.524 -0.6547 -0.4760  0.1747
  414MOL0     C57023   2.796   9.164   8.639 -1.0168  0.2454 -0.5510
  414MOL0     C57024   2.890   9.226   8.536  0.0624 -0.0664 -0.2931
  414MOL0     O57025   2.892   9.176   8.411 -0.2542  0.5682  0.4754
  414MOL0     C57026   2.970   9.214   8.306  0.3009 -1.0723  0.1067
  414MOL0     C57027   2.929   9.174   8.182 -0.3678  0.1305  0.1973
  414MOL0     C57028   2.997   9.220   8.069 -0.5797  0.3364  0.3599
  414MOL0     C57029   3.110   9.296   8.081  0.4444 -0.8765 -0.2836
  414MOL0     O57030   3.192   9.329   7.975 -0.0716 -0.4148  0.3707
  414MOL0     C57031   3.126   9.351   7.849  0.2437 -0.3063 -0.5818
  414MOL0     C57032   3.231   9.429   7.765 -0.2501  0.1254  0.0370
  414MOL0     C57033   3.166   9.466   7.618  0.2369  0.6229 -0.1674
  414MOL0     C57034   3.270   9.545   7.534  0.0086  0.1025 -0.1913
  414MOL0     C57035   3.219   9.593   7.391 -0.2265 -0.1299  0.1476
  414MOL0     C57036   3.156   9.731   7.394  0.7756 -0.9486 -0.5947
  414MOL0     C57037   3.121   9.782   7.251  0.2139 -0.6617 -0.5660
  414MOL0     C57038   3.103   9.935   7.250  0.5632 -0.0227 -0.5637
  414MOL0    Cl57039   3.249  10.033   7.223  0.0799 -0.5893  0.3482
  414MOL0     C57040   3.168   9.326   8.209  0.9286  0.0318  0.2144
  414MOL0     C57041   3.089   9.288   8.318 -0.2898  0.5469  0.5891
  414MOL0     O57042   2.956   9.320   8.582  0.1710  0.4387  0.9426
  414MOL0     C57043   2.758   9.237   8.748  0.4990  0.1879  0.0717
  414MOL0     C57044   2.666   9.186   8.840 -0.1011 -0.2304  0.0238
  414MOL0     N57045   2.372   9.507   8.761  0.7581 -0.1014  0.2705
  414MOL0     N57046   2.318   9.603   8.678 -0.0109  0.0892 -0.4158
  414MOL0     C57047   1.528   9.872   8.167 -0.7186 -0.0983  0.4528
  414MOL0     C57048   1.432   9.772   8.152 -0.2444 -1.2969 -1.0105
  414MOL0     C57049   1.172   9.453   8.104 -0.2871 -1.4056  0.1129
  414MOL0     C57050   1.200   9.316   8.125  0.6075 -0.0523 -0.6800
  414MOL0     C57051   1.096   9.232   8.146 -0.2878 -0.0210  0.0833
  414MOL0     C57052   0.964   9.279   8.152  0.2460  0.0081 -0.0417
  414MOL0     O57053   0.857   9.203   8.164 -0.4897  0.2307 -0.6073
  414MOL0     C57054   0.856   9.096   8.257  0.1413 -0.2956  1.0630
  414MOL0     C57055   0.715   9.053   8.296  0.6239 -0.1771  0.5343
  414MOL0     C57056   0.643   8.988   8.177  0.1241  0.2973  0.1674
  414MOL0     C57057   0.520   8.898   8.216 -0.8766  0.1644 -0.1444
  414MOL0     C57058   0.400   8.969   8.247  0.6533 -0.3298  0.6057
  414MOL0     C57059   0.297   9.032   8.267 -0.4236  0.5236  0.4485
  414MOL0     C57060   0.936   9.414   8.139  0.0276  0.5849 -1.2644
  414MOL0     C57061   1.041   9.504   8.115 -0.3393 -0.4144  0.4889
  414MOL0     C57062   0.999   9.645   8.086  0.1371 -0.0711 -0.2584
  414MOL0     H57063   1.341   9.844   7.817  3.1036 -1.9445 -0.3437
  414MOL0     H57064   1.500  10.048   7.879 -2.5459  0.8528 -0.1022
  414MOL0     H57065   1.612  10.127   8.270 -2.7525 -2.2958 -1.8280
  414MOL0     H57066   1.613  10.242   8.147  0.4890  0.3910 -2.6201
  414MOL0     H57067   1.859  10.135   8.096  1.9839 -1.3531  0.9753
  414MOL0     H57068   1.836  10.257   8.229 -0.9464 -0.9114  0.4122
  414MOL0     H57069   1.823  10.045   8.394  1.1648 -1.2199 -0.0481
  414MOL0     H57070   1.871   9.953   8.258 -1.9831 -0.0879  1.4841
  414MOL0     H57071   2.095  10.081   8.252 -2.0793  0.6594 -0.8589
  414MOL0     H57072   2.025  10.212   8.337  1.8722  0.1359  0.2222
  414MOL0     H57073   2.000  10.074   8.549 -0.8060 -0.8539  1.1365
  414MOL0     H57074   2.168  10.051   8.497 -0.1542  1.4674 -1.8257
  414MOL0     H57075   1.938   9.846   8.434  0.1423  1.2066 -2.4100
  414MOL0     H57076   2.103   9.837   8.374 -0.1527 -0.0559 -0.6256
  414MOL0     H57077   2.041   9.831   8.665  0.1609 -1.8119  1.0151
  414MOL0     H57078   2.204   9.830   8.597 -0.8541 -0.0832  2.8840
  414MOL0     H57079   2.003   9.598   8.575  0.1939  0.6475  2.4139
  414MOL0     H57080   2.146   9.617   8.472  2.4810 -2.0785  1.9527
  414MOL0     H57081   2.048   9.438   8.773 -0.0159 -1.2369 -1.0585
  414MOL0     H57082   2.193   9.322   8.982  2.0458 -3.0009  1.9513
  414MOL0     H57083   2.364   9.339   8.979 -0.4431  2.1455 -0.6320
  414MOL0     H57084   2.218   9.210   8.751  0.9926  3.4284 -2.1105
  414MOL0     H57085   2.391   9.210   8.778 -1.2331  4.0167 -0.3203
  414MOL0     H57086   2.222   9.088   8.991 -1.3584 -0.7363 -0.8830
  414MOL0     H57087   2.280   8.993   8.862 -0.1456  0.0616  0.0877
  414MOL0     H57088   2.468   9.156   9.049  0.9031  0.9747 -0.9902
  414MOL0     H57089   2.405   8.997   9.087 -2.3710  1.6605  1.5076
  414MOL0     H57090   2.649   8.867   8.726  3.7596 -1.0089 -2.6710
  414MOL0     H57091   2.743   8.962   8.436  0.2827  1.4145  0.0354
  414MOL0     H57092   2.794   8.830   8.545 -2.9479 -0.3482  0.0526
  414MOL0     H57093   2.910   8.956   8.506 -1.2129  2.7949 -0.2291
  414MOL0     H57094   2.832   9.126   8.189 -0.6794  0.7866  0.5452
  414MOL0     H57095   2.961   9.189   7.972 -0.4970  0.4462  0.2940
  414MOL0     H57096   3.086   9.255   7.813  1.6865 -1.2775  0.2757
  414MOL0     H57097   3.042   9.415   7.875  2.4880  1.4513  3.2273
  414MOL0     H57098   3.256   9.524   7.815  0.4850  0.1823 -0.4249
  414MOL0     H57099   3.321   9.368   7.751 -0.0937 -0.1786  2.0552
  414MOL0     H57100   3.076   9.528   7.623 -0.3415  0.0662 -2.3436
  414MOL0     H57101   3.125   9.374   7.575 -0.4245  0.1019  1.5163
  414MOL0     H57102   3.359   9.481   7.530  0.6642  0.9258  0.7230
  414MOL0     H57103   3.294   9.636   7.591 -3.3984  0.0410  1.6010
  414MOL0     H57104   3.304   9.608   7.323 -0.3425  2.8518  0.5618
  414MOL0     H57105   3.151   9.518   7.349  1.1876 -1.1054 -0.5362
  414MOL0     H57106   3.223   9.810   7.428 -1.1045  0.9915 -1.1766
  414MOL0     H57107   3.073   9.730   7.464  1.0742  1.0848 -0.1607
  414MOL0     H57108   3.032   9.731   7.212  0.1201 -0.3449 -0.7704
  414MOL0     H57109   3.207   9.761   7.187  1.6774 -2.6471  1.8099
  414MOL0     H57110   3.073   9.974   7.347  0.1150 -0.5795 -0.4716
  414MOL0     H57111   3.023   9.967   7.182 -0.7062  2.8299  1.9979
  414MOL0     H57112   3.265   9.369   8.227  0.8699  0.1549  0.2365
  414MOL0     H57113   3.119   9.327   8.414  0.3273  1.1757  0.1455
  414MOL0     H57114   2.780   9.339   8.779 -0.4645  0.0309  1.3463
  414MOL0     H57115   2.640   9.248   8.925  0.8203  0.0412  0.1166
  414MOL0     H57116   1.605   9.870   8.243 -0.2338 -0.3103 -0.0417
  414MOL0     H57117   1.416   9.704   8.235 -0.4980 -0.4135 -0.3213
  414MOL0     H57118   1.299   9.271   8.122  0.3649 -1.0780  2.5485
  414MOL0     H57119   1.113   9.125   8.154 -0.3610  0.1103  3.4119
  414MOL0     H57120   0.924   9.015   8.227  1.7531  1.3104  0.1821
  414MOL0     H57121   0.897   9.134   8.351  0.1906 -0.2348  1.0176
  414MOL0     H57122   0.665   9.145   8.326  0.0328  0.2484 -1.5561
  414MOL0     H57123   0.717   8.975   8.373  1.0606  1.3275  2.1193
  414MOL0     H57124   0.613   9.075   8.117 -1.6497  0.9464  1.8882
  414MOL0     H57125   0.705   8.919   8.118  0.0650 -0.5831  1.1048
  414MOL0     H57126   0.555   8.846   8.306 -0.8323  2.7401  1.4404
  414MOL0     H57127   0.503   8.835   8.128  1.8779 -0.8351 -0.0577
  414MOL0     H57128   0.211   9.096   8.270 -1.3168 -0.5319 -0.9108
  414MOL0     H57129   0.836   9.454   8.153 -0.4281 -1.0874  0.6357
  414MOL0     H57130   1.054   9.710   8.156  1.3629  1.3320 -2.4300
  414MOL0     H57131   1.022   9.684   7.987 -2.4855 -1.2050 -1.4035
  414MOL0     H57132   0.893   9.661   8.107  0.5108 -1.3618  3.4125
  415MOL0     O57133   4.940   6.338  10.162  0.1224 -0.5443 -0.3110
  415MOL0     C57134   4.888   6.234  10.131  0.2721  0.7341 -0.2430
  415MOL0     O57135   4.959   6.112  10.137 -0.4048 -0.3274  0.0519
  415MOL0     C57136   5.081   6.105  10.197  0.6185  0.6168  0.4214
  415MOL0     C57137   5.145   5.991  10.164  0.1133 -0.0624 -0.0121
  415MOL0     C57138   5.268   5.957  10.223 -0.3064  0.6067 -0.3278
  415MOL0     C57139   5.315   6.029  10.332 -0.0595 -0.2198 -0.1180
  415MOL0     O57140   5.442   5.992  10.382 -0.6281  0.4903 -0.7928
  415MOL0     C57141   5.489   6.074  10.493 -0.1140 -0.0470 -0.5792
  415MOL0     C57142   5.639   6.059  10.520 -0.5372  0.0331 -0.2336
  415MOL0     C57143   5.728   6.103  10.398  0.1017  0.1006  0.2965
  415MOL0     C57144   5.873   6.066  10.426 -0.6582 -0.5085 -0.2357
  415MOL0     C57145   5.952   6.133  10.311 -0.5268  0.5660 -0.0489
  415MOL0     C57146   6.106   6.097  10.306  0.0768  0.2692  0.4128
  415MOL0     C57147   6.166   6.109  10.168 -0.1165  0.0634  0.2161
  415MOL0     C57148   6.122   5.984  10.088  0.4902  0.4244  0.4898
  415MOL0     N57149   6.178   5.857  10.142 -0.3933 -0.0851  0.2666
  415MOL0     C57150   6.310   5.828  10.165  0.5807 -0.1945  0.4925
  415MOL0     C57151   6.310   5.699  10.210 -0.3947  1.1384  0.6350
  415MOL0     C57152   6.433   5.616  10.252 -0.5540 -0.2245 -1.1300
  415MOL0     C57153   6.473   5.506  10.152  0.4685 -0.3654 -0.3391
  415MOL0     C57154   6.557   5.559  10.041 -1.0650  0.6088 -0.0679
  415MOL0     C57155   6.596   5.455   9.922  0.5775  0.8206  0.0392
  415MOL0     O57156   6.685   5.347   9.974 -0.3754 -0.1806  0.4329
  415MOL0     C57157   6.823   5.376   9.970 -0.3806  0.6015 -1.6438
  415MOL0     C57158   6.875   5.504   9.969  0.1751  0.0619  0.0123
  415MOL0     C57159   7.015   5.530   9.978 -0.7586 -0.0432  0.1415
  415MOL0     C57160   7.044   5.679   9.984 -0.2191  0.2237 -0.8465
  415MOL0     C57161   7.113   5.425   9.974 -1.0138 -0.7470  0.4588
  415MOL0     C57162   7.264   5.448   9.999 -0.4005  1.3315 -0.6586
  415MOL0     O57163   7.331   5.331  10.051  0.4729 -0.4393 -0.2310
  415MOL0     C57164   7.460   5.338  10.096  0.0585 -0.2249  0.1806
  415MOL0     C57165   7.550   5.446  10.098  0.1909 -0.4641  0.1442
  415MOL0     C57166   7.673   5.430  10.158 -0.1745 -0.0383 -0.0450
  415MOL0     C57167   7.713   5.317  10.224 -0.9389  0.4336  1.0132
  415MOL0     O57168   7.836   5.305  10.287  0.0304 -0.1398  0.2194
  415MOL0     C57169   7.821   5.267  10.427  0.6941  0.2133  0.1643
  415MOL0     C57170   7.952   5.269  10.512  0.4043 -0.8183 -0.2303
  415MOL0     C57171   8.050   5.380  10.453  0.9637  0.0748 -0.9919
  415MOL0     C57172   8.167   5.399  10.547 -0.1965  0.0735 -0.5067
  415MOL0     C57173   8.261   5.504  10.496  0.4740 -0.3678 -0.3048
  415MOL0     C57174   8.369   5.538  10.599  0.7971  0.2818  0.1902
  415MOL0     C57175   8.496   5.454  10.598  0.0354 -0.0824 -0.5163
  415MOL0     C57176   8.603   5.511  10.695 -0.0578 -0.2734 -0.6369
  415MOL0    Cl57177   8.720   5.377  10.736  0.4082  0.1445  0.3466
  415MOL0     C57178   7.634   5.203  10.215 -0.1593  0.8474 -0.1471
  415MOL0     C57179   7.512   5.214  10.144 -0.1160  0.8904 -0.2629
  415MOL0     O57180   7.316   5.554   9.991 -0.0221  0.7704  0.4511
  415MOL0     C57181   7.052   5.301   9.958 -0.3026 -0.4776  0.4507
  415MOL0     C57182   6.916   5.274   9.963 -0.3742  0.3822 -0.5109
  415MOL0     N57183   6.184   5.646  10.210  0.7184 -0.5769 -0.0623
  415MOL0     N57184   6.107   5.744  10.167 -0.2300  0.6394 -0.4638
  415MOL0     C57185   5.244   6.140  10.376  0.6705 -0.3022  0.4897
  415MOL0     C57186   5.124   6.174  10.311 -0.6310 -0.8091  0.4764
  415MOL0     C57187   4.742   6.231  10.115  0.5250  0.6427  0.6170
  415MOL0     C57188   4.681   6.101  10.113  0.7160  0.0561  0.0475
  415MOL0     C57189   4.545   6.076  10.094 -0.6486  0.1510  0.4975
  415MOL0     C57190   4.467   6.188  10.060  0.1780 -0.3401  0.1907
  415MOL0     O57191   4.336   6.172  10.043 -0.0922 -0.1256  0.1140
  415MOL0     C57192   4.262   6.047   9.998 -0.6683 -0.0632 -0.5852
  415MOL0     C57193   4.307   5.990   9.866 -0.4338 -0.2953 -0.0771
  415MOL0     C57194   4.305   6.100   9.766 -0.5971  0.8431 -1.1249
  415MOL0     C57195   4.363   6.067   9.633  0.4332  0.3770  0.9821
  415MOL0     C57196   4.284   5.972   9.551  0.0453  0.5504 -0.1433
  415MOL0     C57197   4.203   5.900   9.497  0.1018 -0.1799 -0.0099
  415MOL0     C57198   4.514   6.315  10.067  0.5140 -0.0870 -0.8130
  415MOL0     C57199   4.653   6.345  10.086 -0.5545 -0.3444 -0.4266
  415MOL0     C57200   4.698   6.495  10.090  0.1323 -0.0663  0.0659
  415MOL0     H57201   5.100   5.920  10.096 -1.0601 -0.3491  1.0291
  415MOL0     H57202   5.328   5.882  10.172 -0.5401 -1.9009  2.7869
  415MOL0     H57203   5.426   6.069  10.582  0.8789  0.6405  0.1917
  415MOL0     H57204   5.487   6.179  10.461  0.9905  0.1313 -0.1012
  415MOL0     H57205   5.666   6.116  10.609  0.3547  0.6241 -0.8608
  415MOL0     H57206   5.662   5.953  10.531  2.2994  0.5198 -0.8121
  415MOL0     H57207   5.705   6.038  10.313 -2.5001 -2.2375  2.5877
  415MOL0     H57208   5.712   6.208  10.371  2.7767  0.7403  0.9133
  415MOL0     H57209   5.901   6.104  10.524  0.1354 -3.2517  0.6839
  415MOL0     H57210   5.894   5.959  10.431  0.2261 -0.3374  0.0257
  415MOL0     H57211   5.936   6.241  10.315  0.5460  0.7649 -0.8041
  415MOL0     H57212   5.914   6.100  10.214  1.2935  0.3051 -0.7064
  415MOL0     H57213   6.153   6.162  10.381  4.2032 -2.5895  0.6282
  415MOL0     H57214   6.121   5.999  10.352  2.2735  0.4481  0.1642
  415MOL0     H57215   6.274   6.121  10.179 -0.3623  0.1636  3.1881
  415MOL0     H57216   6.123   6.195  10.117 -2.3554 -1.0547  0.1231
  415MOL0     H57217   6.012   5.980  10.092  0.3602 -1.6438 -2.1967
  415MOL0     H57218   6.154   5.998   9.985  3.4414  1.1823  1.4085
  415MOL0     H57219   6.397   5.892  10.151  2.7280 -3.3832 -2.3780
  415MOL0     H57220   6.405   5.566  10.345  1.9431  0.9506  0.3612
  415MOL0     H57221   6.519   5.683  10.260 -1.2960  0.5147  1.9585
  415MOL0     H57222   6.527   5.425  10.203  0.1770  0.5591  1.5385
  415MOL0     H57223   6.382   5.458  10.113 -0.7197  0.1969  1.5890
  415MOL0     H57224   6.512   5.647   9.995  0.0702  1.3779  0.2319
  415MOL0     H57225   6.649   5.592  10.090 -1.8572 -1.5124  3.1245
  415MOL0     H57226   6.504   5.404   9.891  0.7523 -0.6840  1.7830
  415MOL0     H57227   6.644   5.508   9.840  0.0374  3.1348  1.1253
  415MOL0     H57228   6.813   5.592   9.958 -0.3170 -0.2858  0.0110
  415MOL0     H57229   6.962   5.750   9.974  1.0159  2.0004  0.8485
  415MOL0     H57230   7.115   5.704   9.905  0.6084  2.1299  0.4215
  415MOL0     H57231   7.094   5.694  10.080  0.6886  0.4836 -1.3516
  415MOL0     H57232   7.530   5.547  10.064  3.1386 -0.0309 -0.6116
  415MOL0     H57233   7.738   5.515  10.173  0.0948 -0.7006  3.2809
  415MOL0     H57234   7.756   5.332  10.486  2.4075  0.8974  1.3691
  415MOL0     H57235   7.780   5.166  10.439 -1.5571  1.1833  1.2448
  415MOL0     H57236   7.923   5.289  10.616  2.1558  1.2485 -0.0612
  415MOL0     H57237   8.003   5.173  10.509 -0.3937 -1.4507  2.5947
  415MOL0     H57238   8.002   5.478  10.451  0.0236 -0.3714 -1.1801
  415MOL0     H57239   8.079   5.350  10.352 -1.7057  0.9002 -2.1160
  415MOL0     H57240   8.223   5.305  10.539  0.1107  0.3806 -2.4717
  415MOL0     H57241   8.127   5.419  10.647 -1.4581 -0.1592 -0.9417
  415MOL0     H57242   8.310   5.474  10.403 -2.2687 -1.2853 -1.5583
  415MOL0     H57243   8.201   5.592  10.472 -1.1599 -2.1881 -3.5971
  415MOL0     H57244   8.320   5.517  10.694 -0.8855 -3.0395 -1.2410
  415MOL0     H57245   8.380   5.647  10.590  1.1371  0.3329  1.1003
  415MOL0     H57246   8.530   5.447  10.494  0.8359 -2.3564 -0.1564
  415MOL0     H57247   8.470   5.352  10.626 -0.8129  0.4001  0.4860
  415MOL0     H57248   8.561   5.553  10.787  1.1701 -3.8640  1.7797
  415MOL0     H57249   8.667   5.586  10.648  3.1123 -2.6839 -0.4930
  415MOL0     H57250   7.669   5.106  10.248  1.3919  2.0418  2.0376
  415MOL0     H57251   7.457   5.123  10.118  4.6720 -2.2151 -0.7163
  415MOL0     H57252   7.115   5.213   9.942 -2.6279 -1.9062 -1.5268
  415MOL0     H57253   6.882   5.171   9.963 -1.5920  0.7362 -2.3259
  415MOL0     H57254   5.274   6.181  10.471  2.2130 -0.9423  0.3031
  415MOL0     H57255   5.059   6.250  10.352  0.0260  0.5517 -0.9182
  415MOL0     H57256   4.742   6.012  10.126  0.0006 -0.3637  0.6346
  415MOL0     H57257   4.510   5.974  10.104 -0.0810  0.1025  2.1612
  415MOL0     H57258   4.288   5.986  10.085  2.3185  2.3047  0.3748
  415MOL0     H57259   4.154   6.054   9.988 -0.8061 -3.0839 -2.2943
  415MOL0     H57260   4.231   5.916   9.841  1.6315 -2.5718 -0.0538
  415MOL0     H57261   4.403   5.939   9.881  1.3464  3.0045  0.9366
  415MOL0     H57262   4.205   6.144   9.752 -1.2672 -0.3943 -0.4320
  415MOL0     H57263   4.360   6.191   9.792 -3.2861  2.7847 -1.6416
  415MOL0     H57264   4.465   6.028   9.644  0.3060 -0.2137  0.1002
  415MOL0     H57265   4.370   6.155   9.568 -0.3127 -0.6109 -0.4866
  415MOL0     H57266   4.145   5.845   9.426  0.5942 -2.1079  1.0081
  415MOL0     H57267   4.447   6.400  10.055 -0.7083 -0.8714  0.1542
  415MOL0     H57268   4.640   6.555  10.019 -1.2253 -1.5145 -0.0994
  415MOL0     H57269   4.675   6.521  10.194  2.0760 -1.0408  0.7830
  415MOL0     H57270   4.806   6.508  10.088  0.0716  0.3593 -1.3665
  416MOL0     O57271   8.952   7.740   8.444 -0.4627  0.2886  0.8979
  416MOL0     C57272   8.888   7.643   8.487 -0.7042 -0.2363  0.9631
  416MOL0     O57273   8.936   7.513   8.494  0.3874 -0.7137  0.0234
  416MOL0     C57274   9.059   7.473   8.444  0.3021 -0.4845  0.2839
  416MOL0     C57275   9.137   7.377   8.507 -0.4546  0.0483  0.5070
  416MOL0     C57276   9.250   7.316   8.447  0.1351 -0.6528 -0.2138
  416MOL0     C57277   9.291   7.352   8.318  0.3483  0.5637 -0.7484
  416MOL0     O57278   9.405   7.288   8.264 -0.3400 -0.0433  0.2786
  416MOL0     C57279   9.474   7.354   8.157  0.7160 -0.9596  0.4962
  416MOL0     C57280   9.575   7.249   8.091 -0.1002  0.3699  0.0916
  416MOL0     C57281   9.702   7.237   8.177 -0.2640  0.0954  0.7484
  416MOL0     C57282   9.814   7.155   8.101  1.0455  0.3747 -0.0035
  416MOL0     C57283   9.943   7.175   8.166  1.3413  0.1354  0.8698
  416MOL0     C57284  10.034   7.059   8.117 -0.2604 -0.0053 -0.3459
  416MOL0     C57285  10.174   7.089   8.179 -0.1248  0.5453  0.1599
  416MOL0     C57286  10.268   6.963   8.178  0.0937  0.3241 -0.1906
  416MOL0     N57287  10.337   6.947   8.046  0.3211 -0.1413 -0.3985
  416MOL0     C57288  10.290   6.866   7.949  0.1821  0.0245  0.1227
  416MOL0     C57289  10.378   6.882   7.850 -0.6063 -0.0195 -0.1845
  416MOL0     C57290  10.357   6.854   7.699  0.3576  0.0548 -0.1517
  416MOL0     C57291  10.421   6.713   7.669 -0.2221 -0.2899 -0.3264
  416MOL0     C57292  10.376   6.665   7.525  0.0682 -0.1096  0.0154
  416MOL0     C57293  10.434   6.520   7.511  0.3899  0.6485 -0.1965
  416MOL0     O57294  10.578   6.528   7.483  0.1033  0.1117  0.5423
  416MOL0     C57295  10.622   6.576   7.370  0.7907 -0.7396 -0.0745
  416MOL0     C57296  10.553   6.601   7.252  0.5653 -0.2684  0.4036
  416MOL0     C57297  10.615   6.664   7.145  0.0840  0.1132  0.1138
  416MOL0     C57298  10.540   6.682   7.011 -0.2890 -0.9491 -0.6395
  416MOL0     C57299  10.741   6.720   7.164  0.0294 -0.0858  0.1649
  416MOL0     C57300  10.810   6.814   7.071  0.5051  0.5238 -0.6599
  416MOL0     O57301  10.940   6.814   7.084 -0.6448  0.1676 -0.0315
  416MOL0     C57302  11.006   6.906   7.012  0.2246  0.0920 -0.1526
  416MOL0     C57303  11.109   6.980   7.079 -0.0878  0.1525 -0.6771
  416MOL0     C57304  11.179   7.075   7.001 -0.4262 -0.1540  0.0093
  416MOL0     C57305  11.153   7.098   6.864 -0.3194  0.3240  0.1562
  416MOL0     O57306  11.233   7.196   6.813  0.1990  0.3374 -0.8677
  416MOL0     C57307  11.219   7.234   6.678 -0.2073  0.4038 -0.1332
  416MOL0     C57308  11.318   7.147   6.598 -0.3799  0.2500  0.4359
  416MOL0     C57309  11.455   7.224   6.592  0.1340  0.7508  0.4683
  416MOL0     C57310  11.453   7.358   6.525  0.8094  1.2561  0.0303
  416MOL0     C57311  11.594   7.411   6.493  0.2889 -0.0310  0.2035
  416MOL0     C57312  11.679   7.419   6.625 -0.2508  0.4913  0.8713
  416MOL0     C57313  11.802   7.512   6.605 -0.1821  0.7196  0.4853
  416MOL0     C57314  11.867   7.535   6.745 -0.4217 -0.2841 -0.0137
  416MOL0    Cl57315  11.927   7.384   6.811 -0.3397 -0.1441  0.1230
  416MOL0     C57316  11.058   7.021   6.797 -0.2315  0.4495  0.0006
  416MOL0     C57317  10.994   6.921   6.872 -0.1969  0.2687  0.4966
  416MOL0     O57318  10.746   6.878   6.988  0.1620  0.2330 -0.3593
  416MOL0     C57319  10.813   6.704   7.290  0.5961  0.0841  0.3603
  416MOL0     C57320  10.752   6.631   7.393  0.4155 -0.5537 -0.2962
  416MOL0     N57321  10.485   6.957   7.893  0.0028 -0.0126  0.5932
  416MOL0     N57322  10.458   6.989   8.015  0.3007 -0.4337 -0.9093
  416MOL0     C57323   9.214   7.449   8.249  0.4560  0.0459  0.7361
  416MOL0     C57324   9.096   7.505   8.311 -0.3061 -0.1537 -0.2722
  416MOL0     C57325   8.746   7.662   8.525 -0.4980 -0.6613 -0.1881
  416MOL0     C57326   8.680   7.550   8.582  0.2916  0.3854  0.2311
  416MOL0     C57327   8.544   7.558   8.622  0.4890 -0.1877  0.7466
  416MOL0     C57328   8.467   7.668   8.591 -0.1619 -0.1970 -0.2294
  416MOL0     O57329   8.335   7.664   8.641 -0.1466 -0.6881 -0.1513
  416MOL0     C57330   8.244   7.773   8.627  0.5242 -0.0514  0.6869
  416MOL0     C57331   8.254   7.887   8.728  0.2839 -0.7041 -0.0126
  416MOL0     C57332   8.134   7.977   8.727  0.6015 -0.1793  0.3760
  416MOL0     C57333   8.163   8.100   8.811  0.3526  0.2607  0.4974
  416MOL0     C57334   8.029   8.160   8.827  0.7700  0.2139  0.8117
  416MOL0     C57335   7.918   8.208   8.839 -0.2989 -1.7371 -0.2556
  416MOL0     C57336   8.530   7.783   8.534 -0.5245 -0.0651 -0.2054
  416MOL0     C57337   8.665   7.783   8.499 -0.3154 -0.5399  0.3963
  416MOL0     C57338   8.719   7.911   8.442 -0.5317 -0.0768 -0.1755
  416MOL0     H57339   9.116   7.357   8.611  2.0094  1.8314  1.4473
  416MOL0     H57340   9.318   7.246   8.495  0.4245 -0.2385 -0.0204
  416MOL0     H57341   9.529   7.443   8.190  1.3439 -1.5576  1.0921
  416MOL0     H57342   9.403   7.389   8.082 -0.0836 -0.3259  1.5179
  416MOL0     H57343   9.523   7.152   8.082 -2.1636  1.1316  2.5289
  416MOL0     H57344   9.613   7.288   7.997 -0.3504  0.0191 -0.1588
  416MOL0     H57345   9.746   7.335   8.197 -0.7028  1.3226 -3.3372
  416MOL0     H57346   9.685   7.192   8.275  2.6796  0.1883  1.3807
  416MOL0     H57347   9.774   7.054   8.097 -0.4678  0.9458 -0.0010
  416MOL0     H57348   9.830   7.199   8.002 -0.2123 -0.2709 -0.5122
  416MOL0     H57349   9.932   7.179   8.275  1.6395  1.0192  0.8727
  416MOL0     H57350   9.978   7.274   8.137 -3.0875  0.8746 -3.1439
  416MOL0     H57351   9.995   6.964   8.154  0.6014  0.0187  0.6603
  416MOL0     H57352  10.039   7.049   8.008  0.0330 -0.1314 -0.3228
  416MOL0     H57353  10.160   7.129   8.280 -1.3804  2.0213 -0.5386
  416MOL0     H57354  10.216   7.171   8.121 -1.4497  2.1988  1.4228
  416MOL0     H57355  10.345   6.995   8.249  2.5292  2.6584 -3.5428
  416MOL0     H57356  10.215   6.872   8.206  1.2735 -1.2348 -2.6626
  416MOL0     H57357  10.189   6.827   7.945 -0.3674  1.4889 -2.4058
  416MOL0     H57358  10.396   6.935   7.636  1.4810 -0.4364 -0.1132
  416MOL0     H57359  10.250   6.844   7.677  0.3589  4.4445 -3.5697
  416MOL0     H57360  10.530   6.720   7.675 -0.1012  0.2164 -2.5146
  416MOL0     H57361  10.385   6.645   7.746  0.7408  1.1083  1.4386
  416MOL0     H57362  10.270   6.659   7.502  0.0994  1.2012 -0.5029
  416MOL0     H57363  10.416   6.735   7.451  1.2944  0.7555  1.4406
  416MOL0     H57364  10.423   6.473   7.609 -0.2909  2.4772  0.6445
  416MOL0     H57365  10.392   6.463   7.428  2.1218 -1.7795  0.4808
  416MOL0     H57366  10.454   6.560   7.234  0.2678  0.6817 -0.1533
  416MOL0     H57367  10.607   6.661   6.927 -0.9608  0.5697 -1.5856
  416MOL0     H57368  10.500   6.784   7.006 -0.7095 -1.1317 -0.9776
  416MOL0     H57369  10.457   6.611   7.006 -0.5478 -0.7879  0.7513
  416MOL0     H57370  11.135   6.964   7.183  1.4016 -3.3715 -1.4192
  416MOL0     H57371  11.269   7.124   7.036  1.6952 -1.2415 -3.4729
  416MOL0     H57372  11.119   7.229   6.633  0.4901 -1.3830 -1.6214
  416MOL0     H57373  11.239   7.341   6.690  0.8914  0.3467 -1.2929
  416MOL0     H57374  11.332   7.045   6.635 -1.5433 -0.6197 -1.3722
  416MOL0     H57375  11.271   7.130   6.501  0.1371  0.4432  0.1428
  416MOL0     H57376  11.519   7.158   6.533  0.3552  0.5298  0.9510
  416MOL0     H57377  11.493   7.226   6.695 -0.3886 -0.0421  0.6890
  416MOL0     H57378  11.397   7.440   6.573  1.3830  1.4809  0.3246
  416MOL0     H57379  11.409   7.353   6.425  1.9147  1.6680 -0.4909
  416MOL0     H57380  11.647   7.349   6.421  0.5584 -0.8634  1.0969
  416MOL0     H57381  11.600   7.508   6.444  1.0331  0.2557  0.8352
  416MOL0     H57382  11.722   7.321   6.650  0.5024  0.8712  1.1062
  416MOL0     H57383  11.622   7.441   6.716  0.6983  2.1316  1.1068
  416MOL0     H57384  11.762   7.607   6.567  0.1053  0.4160 -0.6327
  416MOL0     H57385  11.870   7.462   6.535  0.1530 -0.8650  1.8984
  416MOL0     H57386  11.814   7.596   6.818 -1.3600  0.6110 -1.4076
  416MOL0     H57387  11.957   7.595   6.729 -1.4114  1.2815  0.0784
  416MOL0     H57388  11.056   7.020   6.689 -0.7951 -0.6069  0.0119
  416MOL0     H57389  10.936   6.860   6.804  2.4753  0.0253 -1.7557
  416MOL0     H57390  10.916   6.735   7.296  0.5572  0.7879 -1.9467
  416MOL0     H57391  10.810   6.611   7.482  0.4473  0.6365 -0.0362
  416MOL0     H57392   9.224   7.467   8.142  0.1721  1.1132  0.8733
  416MOL0     H57393   9.027   7.564   8.252 -1.5566  0.9549  2.1471
  416MOL0     H57394   8.732   7.456   8.600  2.0652  1.6962  2.3860
  416MOL0     H57395   8.503   7.476   8.679 -2.5518  0.1404 -0.7429
  416MOL0     H57396   8.255   7.798   8.521  2.9515  2.4804  1.4256
  416MOL0     H57397   8.143   7.731   8.639  0.6181 -0.2076  0.9389
  416MOL0     H57398   8.350   7.938   8.717  0.4961 -0.8243  1.1725
  416MOL0     H57399   8.267   7.838   8.825 -0.0040 -1.3161 -0.2802
  416MOL0     H57400   8.106   8.007   8.625 -2.5419  2.0976  1.7557
  416MOL0     H57401   8.048   7.929   8.774  0.1961 -0.5305 -0.6761
  416MOL0     H57402   8.237   8.164   8.763  1.4754 -1.2585  0.1355
  416MOL0     H57403   8.211   8.078   8.907 -3.6039 -3.2065  1.9927
  416MOL0     H57404   7.827   8.260   8.860  1.5970  2.7159 -1.6581
  416MOL0     H57405   8.471   7.873   8.520 -2.3582 -1.2482 -0.5256
  416MOL0     H57406   8.656   7.999   8.459 -0.7061  0.2398 -2.2243
  416MOL0     H57407   8.814   7.927   8.495  0.0291 -2.3973 -0.3622
  416MOL0     H57408   8.739   7.885   8.338 -0.2090  1.4388 -0.5159
  417MOL0     O57409   4.100   2.104   2.498 -0.0281  0.0057 -0.2072
  417MOL0     C57410   4.116   2.171   2.601  0.5052  0.5808  0.1465
  417MOL0     O57411   4.227   2.240   2.640 -0.7985 -0.0047  0.1495
  417MOL0     C57412   4.322   2.289   2.556 -0.0572  0.3789  0.5264
  417MOL0     C57413   4.301   2.323   2.418 -0.5134 -0.1797 -0.3839
  417MOL0     C57414   4.405   2.377   2.342 -0.3245 -0.1755  0.3554
  417MOL0     C57415   4.531   2.390   2.397 -1.1054  0.0881 -0.2962
  417MOL0     O57416   4.631   2.431   2.303 -0.1156  0.1988 -0.0304
  417MOL0     C57417   4.726   2.513   2.366 -0.1740 -0.1531  0.1156
  417MOL0     C57418   4.792   2.611   2.269  0.0078 -0.1558  0.4274
  417MOL0     C57419   4.928   2.656   2.329 -0.2531  0.3354 -0.3925
  417MOL0     C57420   5.007   2.721   2.209  0.1255  0.3010 -0.3588
  417MOL0     C57421   5.119   2.803   2.283 -0.4744  0.6216  0.6717
  417MOL0     C57422   5.166   2.917   2.197  0.3119  0.5133 -0.5246
  417MOL0     C57423   5.249   2.881   2.070 -0.0959 -0.3973  0.1845
  417MOL0     C57424   5.379   2.813   2.113  0.9778 -0.2988 -0.1193
  417MOL0     N57425   5.493   2.803   2.019 -0.3576  0.4037  0.2444
  417MOL0     C57426   5.480   2.767   1.881 -0.4225  0.1977  0.0031
  417MOL0     C57427   5.601   2.755   1.829  0.9064 -0.6957  0.9400
  417MOL0     C57428   5.641   2.705   1.694  0.0763  0.1786  0.8030
  417MOL0     C57429   5.673   2.814   1.595  0.1045 -0.6675 -0.0496
  417MOL0     C57430   5.538   2.897   1.568 -0.5261  0.3468 -0.0008
  417MOL0     C57431   5.560   3.024   1.491  0.5477 -0.4329  0.4453
  417MOL0     O57432   5.634   3.118   1.565 -0.4550 -0.1135 -0.0339
  417MOL0     C57433   5.773   3.133   1.538  0.3389 -0.4195  0.3154
  417MOL0     C57434   5.856   3.059   1.450  0.1129  0.4264  0.7150
  417MOL0     C57435   5.991   3.087   1.430  0.1732  0.1316 -0.0338
  417MOL0     C57436   6.075   2.997   1.338 -0.6032  0.1639 -0.7970
  417MOL0     C57437   6.041   3.206   1.482 -0.0591 -0.1725 -0.7775
  417MOL0     C57438   6.171   3.268   1.465  0.4305  0.5491  0.4412
  417MOL0     O57439   6.221   3.343   1.570 -0.1079  0.4981 -0.0837
  417MOL0     C57440   6.338   3.409   1.530  0.5057  0.1424 -0.5430
  417MOL0     C57441   6.460   3.361   1.563  0.0531  0.0422  0.1595
  417MOL0     C57442   6.581   3.414   1.511  1.6008 -0.4738 -0.0995
  417MOL0     C57443   6.572   3.530   1.429 -0.8109 -0.2781 -0.5615
  417MOL0     O57444   6.681   3.604   1.391  0.1659 -0.0631  0.2068
  417MOL0     C57445   6.812   3.592   1.444  0.0894 -0.7001 -0.4708
  417MOL0     C57446   6.920   3.635   1.348 -0.7804  0.2019  0.5135
  417MOL0     C57447   7.057   3.624   1.409  0.7886  0.5086 -0.1161
  417MOL0     C57448   7.140   3.751   1.386 -0.6201 -0.2000 -0.0598
  417MOL0     C57449   7.288   3.744   1.436  0.6133 -0.4018  0.0731
  417MOL0     C57450   7.376   3.654   1.350  0.4373  0.4451 -0.4925
  417MOL0     C57451   7.527   3.674   1.363  0.0737  0.9140 -0.1961
  417MOL0     C57452   7.596   3.589   1.258 -0.3492  0.5311  0.0115
  417MOL0    Cl57453   7.767   3.628   1.267 -0.1606 -0.7537  0.3122
  417MOL0     C57454   6.440   3.584   1.403  0.2411  0.3785 -0.4590
  417MOL0     C57455   6.323   3.522   1.446 -0.4491  0.9236 -1.1143
  417MOL0     O57456   6.235   3.253   1.356 -0.4209 -0.5049 -0.2045
  417MOL0     C57457   5.958   3.280   1.567 -0.3020 -0.6712 -0.7949
  417MOL0     C57458   5.831   3.235   1.615  0.5312 -0.0039 -0.3926
  417MOL0     N57459   5.687   2.789   1.932 -0.9703 -0.1520 -0.3638
  417MOL0     N57460   5.630   2.818   2.045 -0.6022  0.3903  0.3465
  417MOL0     C57461   4.558   2.355   2.534 -0.0124  0.5717 -0.5098
  417MOL0     C57462   4.450   2.320   2.616 -0.4406 -0.1047 -0.8078
  417MOL0     C57463   4.001   2.178   2.693  0.0977 -0.2957  0.1948
  417MOL0     C57464   3.874   2.139   2.642 -0.0464  0.4692  0.2089
  417MOL0     C57465   3.764   2.139   2.726  0.4651 -0.2227  0.3311
  417MOL0     C57466   3.766   2.202   2.851 -0.4990 -0.1613 -0.1514
  417MOL0     O57467   3.659   2.243   2.921  0.6225 -0.3954 -0.8596
  417MOL0     C57468   3.527   2.208   2.874 -0.2807  0.1191 -0.1856
  417MOL0     C57469   3.405   2.237   2.966 -0.3064  0.1480 -0.8187
  417MOL0     C57470   3.306   2.348   2.933  0.0948  0.2272  0.4656
  417MOL0     C57471   3.183   2.309   2.852  0.7072 -0.8774  0.2742
  417MOL0     C57472   3.128   2.426   2.784 -0.0778  0.6430 -0.2014
  417MOL0     C57473   3.080   2.516   2.728  0.2549 -0.9541  0.3995
  417MOL0     C57474   3.886   2.242   2.905  0.0097 -0.0079  0.6695
  417MOL0     C57475   4.007   2.215   2.831  0.2508 -0.0097 -0.7285
  417MOL0     C57476   4.137   2.232   2.912 -0.7833  0.3284  0.2079
  417MOL0     H57477   4.207   2.293   2.373  1.4182 -3.6432 -2.6370
  417MOL0     H57478   4.383   2.402   2.239 -1.0833  1.2197  0.8317
  417MOL0     H57479   4.812   2.449   2.390  0.9589 -0.6165 -4.3852
  417MOL0     H57480   4.683   2.563   2.453 -1.4084 -0.4553 -0.3111
  417MOL0     H57481   4.820   2.564   2.174  0.0291  0.6606  0.0245
  417MOL0     H57482   4.728   2.699   2.256 -0.1663 -0.1447  1.2894
  417MOL0     H57483   4.899   2.725   2.408 -2.2301  1.1181 -1.7156
  417MOL0     H57484   4.990   2.574   2.365 -3.7925 -1.5892  1.9528
  417MOL0     H57485   5.057   2.649   2.143 -2.4721 -3.1471  1.1187
  417MOL0     H57486   4.944   2.797   2.161  1.1041 -0.4421 -3.0359
  417MOL0     H57487   5.197   2.731   2.311 -2.5500 -0.9981  2.6888
  417MOL0     H57488   5.084   2.848   2.376 -1.5836  1.7456 -0.2532
  417MOL0     H57489   5.083   2.978   2.159 -1.4080 -2.1138 -1.3127
  417MOL0     H57490   5.220   2.984   2.264  1.2197  3.3410 -3.7881
  417MOL0     H57491   5.275   2.977   2.024  0.4616 -1.5897 -2.1535
  417MOL0     H57492   5.187   2.818   2.007 -0.9935 -2.0283  2.5630
  417MOL0     H57493   5.424   2.864   2.198  1.3967 -2.0969  0.7965
  417MOL0     H57494   5.351   2.710   2.137 -1.1431  0.8079  2.7204
  417MOL0     H57495   5.389   2.744   1.827  1.2849 -1.1062 -2.4891
  417MOL0     H57496   5.569   2.634   1.652 -0.0533 -0.0228  1.3581
  417MOL0     H57497   5.726   2.636   1.696 -0.0937 -0.0643 -0.0735
  417MOL0     H57498   5.750   2.871   1.649 -1.2421 -0.2783  1.5681
  417MOL0     H57499   5.714   2.765   1.506  2.3139 -1.7255  1.4506
  417MOL0     H57500   5.475   2.831   1.507  0.7244 -0.4633 -0.4591
  417MOL0     H57501   5.489   2.926   1.661 -2.1931 -0.4473 -0.5919
  417MOL0     H57502   5.606   3.000   1.394  1.1091 -2.7974  1.2276
  417MOL0     H57503   5.460   3.069   1.485  1.3202  1.3776  0.5876
  417MOL0     H57504   5.825   2.974   1.390  1.8984  1.8524 -2.4814
  417MOL0     H57505   6.177   3.030   1.320 -1.1026  2.3942  0.1080
  417MOL0     H57506   6.034   2.982   1.237  0.0278  0.2344 -1.0655
  417MOL0     H57507   6.076   2.901   1.391 -0.9086  1.9555  2.7268
  417MOL0     H57508   6.464   3.270   1.622 -1.8576 -2.2791 -2.9452
  417MOL0     H57509   6.672   3.361   1.538  1.6055  0.3095  1.5522
  417MOL0     H57510   6.809   3.664   1.526  0.5073  1.3237 -2.1537
  417MOL0     H57511   6.831   3.490   1.479 -0.0440 -1.1962 -1.7923
  417MOL0     H57512   6.913   3.571   1.260 -0.4849  1.7865 -0.7098
  417MOL0     H57513   6.890   3.737   1.324  0.3031  0.1466 -1.2125
  417MOL0     H57514   7.109   3.536   1.369 -1.1662 -0.6747 -0.1819
  417MOL0     H57515   7.043   3.626   1.517  0.4840  4.1202 -0.1020
  417MOL0     H57516   7.099   3.837   1.439  1.2093  0.3724  0.5144
  417MOL0     H57517   7.139   3.769   1.278  0.2053  1.1329  0.1309
  417MOL0     H57518   7.330   3.845   1.436 -0.3171  0.0129  1.7368
  417MOL0     H57519   7.295   3.695   1.533  1.2829 -0.8852 -0.2025
  417MOL0     H57520   7.360   3.661   1.242 -0.8704  0.0482 -0.3432
  417MOL0     H57521   7.350   3.549   1.362 -0.5256  0.9299  2.6569
  417MOL0     H57522   7.557   3.628   1.458 -0.6152 -1.1263 -0.9114
  417MOL0     H57523   7.549   3.779   1.346  0.6372  1.1605  1.7756
  417MOL0     H57524   7.559   3.612   1.157 -1.2286 -1.9315 -0.2919
  417MOL0     H57525   7.585   3.485   1.288 -0.8436  0.9977  1.4895
  417MOL0     H57526   6.434   3.671   1.338  0.0909 -0.2868 -1.3536
  417MOL0     H57527   6.222   3.549   1.416 -1.2327 -2.7390 -2.2145
  417MOL0     H57528   5.983   3.375   1.613 -2.1484 -0.7388  0.4270
  417MOL0     H57529   5.764   3.296   1.674  1.6347  0.6927  0.1890
  417MOL0     H57530   4.655   2.352   2.582 -0.1154  2.0201 -0.1794
  417MOL0     H57531   4.468   2.280   2.715 -0.8109  0.2972 -0.5798
  417MOL0     H57532   3.860   2.115   2.537 -1.7608 -2.8982  1.0667
  417MOL0     H57533   3.669   2.121   2.677 -1.1912  1.4608  2.6964
  417MOL0     H57534   3.505   2.261   2.781  1.2230  0.1917 -0.5234
  417MOL0     H57535   3.528   2.102   2.851 -1.9456 -0.9198  3.6218
  417MOL0     H57536   3.441   2.260   3.066 -0.8696  0.4609 -0.6824
  417MOL0     H57537   3.341   2.151   2.987 -0.3429  0.8267  2.2471
  417MOL0     H57538   3.268   2.381   3.030 -1.1252  1.6983 -0.4616
  417MOL0     H57539   3.359   2.435   2.894 -0.0861  1.3394  2.5117
  417MOL0     H57540   3.098   2.258   2.900 -3.0588  1.7515 -2.9140
  417MOL0     H57541   3.220   2.242   2.775  2.5667 -2.0377  2.0705
  417MOL0     H57542   3.038   2.597   2.671  0.9668 -1.4266 -0.8411
  417MOL0     H57543   3.883   2.261   3.012 -1.2914 -1.0443  0.8470
  417MOL0     H57544   4.122   2.211   3.019 -0.6802  1.9705  0.5812
  417MOL0     H57545   4.217   2.166   2.876 -2.3832 -0.3974 -2.1793
  417MOL0     H57546   4.179   2.333   2.915  0.6972 -0.2669  1.0812
  418MOL0     O57547   4.137   1.474   6.202 -0.0101 -0.7064  0.3112
  418MOL0     C57548   4.074   1.583   6.216  0.2239 -0.2788  0.0594
  418MOL0     O57549   4.128   1.685   6.284  0.4928 -0.6342 -0.1459
  418MOL0     C57550   4.265   1.701   6.316  0.4282  0.5811 -0.3762
  418MOL0     C57551   4.307   1.832   6.307 -0.2242 -0.1683 -0.7285
  418MOL0     C57552   4.441   1.865   6.337 -0.4915 -0.0773  0.4975
  418MOL0     C57553   4.539   1.768   6.372  0.4288  0.3791  0.0361
  418MOL0     O57554   4.675   1.805   6.371  0.1344 -0.1843  0.4244
  418MOL0     C57555   4.770   1.696   6.383 -0.0007 -0.6300  0.1757
  418MOL0     C57556   4.902   1.747   6.321  0.3053 -0.5049 -0.2911
  418MOL0     C57557   4.994   1.620   6.306  0.3234  0.6750  0.0555
  418MOL0     C57558   5.127   1.665   6.258 -0.9541  0.3787  0.3710
  418MOL0     C57559   5.119   1.753   6.138  2.0512  0.2174  0.0269
  418MOL0     C57560   5.251   1.786   6.063  0.3807 -0.0661 -0.6655
  418MOL0     C57561   5.310   1.666   5.978 -1.0583 -0.1930  0.0443
  418MOL0     C57562   5.242   1.649   5.839 -0.0717  0.4558  0.1048
  418MOL0     N57563   5.327   1.572   5.743  0.0595 -0.8300 -0.3277
  418MOL0     C57564   5.292   1.451   5.698  0.0649  0.1338  0.4629
  418MOL0     C57565   5.333   1.447   5.572  0.0349 -0.4306  0.0255
  418MOL0     C57566   5.336   1.331   5.478  0.0121 -0.8935 -0.1719
  418MOL0     C57567   5.207   1.330   5.395 -0.5517  0.3803 -0.7446
  418MOL0     C57568   5.205   1.440   5.294 -0.1210  0.1995 -0.5603
  418MOL0     C57569   5.308   1.450   5.183 -0.3239  0.0260  1.1656
  418MOL0     O57570   5.283   1.570   5.113 -0.3188 -1.1597 -0.1924
  418MOL0     C57571   5.375   1.668   5.115 -1.0469  0.2886  0.5769
  418MOL0     C57572   5.398   1.733   4.995  0.2468 -0.6464 -0.2650
  418MOL0     C57573   5.466   1.852   4.982  0.1923  0.6221 -0.1608
  418MOL0     C57574   5.472   1.907   4.842 -0.3803 -0.5341 -0.5860
  418MOL0     C57575   5.542   1.889   5.098 -0.1625  0.5375 -0.5453
  418MOL0     C57576   5.623   2.014   5.095 -0.2865 -0.0131 -0.0744
  418MOL0     O57577   5.677   2.040   5.212 -0.0229 -0.4654  0.0296
  418MOL0     C57578   5.777   2.134   5.221 -0.2367  0.0888  0.4917
  418MOL0     C57579   5.794   2.190   5.353 -0.1573  0.3239 -0.2792
  418MOL0     C57580   5.899   2.283   5.364 -0.2322  0.6741 -0.3917
  418MOL0     C57581   5.987   2.316   5.260  0.3743  0.0700 -0.3190
  418MOL0     O57582   6.082   2.406   5.292 -0.4795 -0.6958  0.3911
  418MOL0     C57583   6.096   2.517   5.204  0.2660  0.0481 -0.1885
  418MOL0     C57584   6.196   2.598   5.278  0.8837 -1.1651  0.5328
  418MOL0     C57585   6.212   2.731   5.205  0.1574  0.5692  0.2917
  418MOL0     C57586   6.347   2.789   5.251 -0.6507 -0.3654  0.5316
  418MOL0     C57587   6.394   2.904   5.164 -0.0632  0.0745  0.0595
  418MOL0     C57588   6.531   2.956   5.205  0.2689  0.8593  0.4521
  418MOL0     C57589   6.653   2.852   5.222 -0.1029 -0.7959  0.6637
  418MOL0     C57590   6.662   2.752   5.107  0.5212 -1.5288 -0.5512
  418MOL0    Cl57591   6.718   2.836   4.959  0.0485 -0.3609 -0.0601
  418MOL0     C57592   5.969   2.255   5.139 -0.2461  0.0538  0.3718
  418MOL0     C57593   5.868   2.161   5.119  0.3085 -0.2287 -0.6353
  418MOL0     O57594   5.627   2.087   4.990  0.5631 -0.2197 -0.4734
  418MOL0     C57595   5.529   1.818   5.221 -0.9135  0.2317 -0.0215
  418MOL0     C57596   5.445   1.708   5.225  0.2534 -0.2842 -0.3066
  418MOL0     N57597   5.416   1.556   5.554  0.2364  0.2364 -0.0473
  418MOL0     N57598   5.401   1.631   5.652 -0.1513  0.0672 -0.4549
  418MOL0     C57599   4.484   1.635   6.386 -0.0703  0.3793  0.2328
  418MOL0     C57600   4.349   1.601   6.363 -0.4465  0.1112 -0.5620
  418MOL0     C57601   3.931   1.602   6.163 -0.3284  0.2472 -0.8306
  418MOL0     C57602   3.870   1.725   6.182  0.1843 -0.1389 -0.0090
  418MOL0     C57603   3.742   1.757   6.139  0.4867  0.9287  1.0567
  418MOL0     C57604   3.676   1.645   6.084  0.4382  0.3309 -0.2016
  418MOL0     O57605   3.550   1.653   6.018 -0.0622  0.3990 -0.3478
  418MOL0     C57606   3.471   1.773   6.008 -1.5440  0.4638  0.0692
  418MOL0     C57607   3.334   1.738   5.949 -0.3650 -0.3787  0.1952
  418MOL0     C57608   3.325   1.771   5.803 -0.5546  0.0712  0.7332
  418MOL0     C57609   3.204   1.701   5.753 -0.0766 -0.4980  0.3130
  418MOL0     C57610   3.171   1.751   5.617  1.4255 -0.1140 -1.1287
  418MOL0     C57611   3.131   1.794   5.510 -0.1239  0.5906  0.6489
  418MOL0     C57612   3.728   1.518   6.070 -0.3438 -0.2309 -0.1664
  418MOL0     C57613   3.861   1.492   6.109  0.8025 -0.0312 -1.3105
  418MOL0     C57614   3.903   1.347   6.098  0.0718 -0.4154  0.0051
  418MOL0     H57615   4.246   1.905   6.253 -0.7157 -1.5434 -2.1050
  418MOL0     H57616   4.484   1.961   6.311 -1.3175 -0.0748 -0.9754
  418MOL0     H57617   4.744   1.604   6.329  0.2846 -1.0060  0.6676
  418MOL0     H57618   4.782   1.672   6.489 -1.0036  2.3331  1.0359
  418MOL0     H57619   4.872   1.798   6.228 -0.8555 -0.9437 -0.1720
  418MOL0     H57620   4.927   1.828   6.390  0.0182 -2.6704  2.4832
  418MOL0     H57621   5.007   1.578   6.406 -3.8834  1.8137  1.2440
  418MOL0     H57622   4.948   1.547   6.238  2.8966 -0.7341 -0.3277
  418MOL0     H57623   5.188   1.713   6.335  2.1623 -3.1953  0.4076
  418MOL0     H57624   5.189   1.580   6.230  1.7532  1.7665  1.7697
  418MOL0     H57625   5.085   1.847   6.182  0.4951 -0.1430 -0.3493
  418MOL0     H57626   5.042   1.713   6.071  1.1262  1.7852  0.0949
  418MOL0     H57627   5.237   1.870   5.995 -1.0222 -0.8497 -1.4020
  418MOL0     H57628   5.325   1.814   6.138 -1.8403  0.6474  1.3797
  418MOL0     H57629   5.313   1.570   6.030  1.1971 -1.0668 -1.5780
  418MOL0     H57630   5.416   1.680   5.956 -1.0284 -0.4237  0.0428
  418MOL0     H57631   5.143   1.603   5.850  1.2549 -2.7596 -0.2969
  418MOL0     H57632   5.230   1.749   5.798  0.6387  0.9658  1.1051
  418MOL0     H57633   5.220   1.384   5.742 -1.4962  1.7966  0.5736
  418MOL0     H57634   5.327   1.247   5.547  0.2881 -2.3126 -1.7959
  418MOL0     H57635   5.423   1.325   5.413 -0.4080 -1.5936 -0.6796
  418MOL0     H57636   5.198   1.230   5.353 -0.3265 -2.1037  4.3035
  418MOL0     H57637   5.123   1.345   5.464 -0.4536 -1.8813 -0.0617
  418MOL0     H57638   5.112   1.422   5.237 -0.1122 -1.0872 -0.1951
  418MOL0     H57639   5.201   1.535   5.348  2.9687 -0.2678  0.7056
  418MOL0     H57640   5.411   1.452   5.220 -0.5935  2.2695  1.9958
  418MOL0     H57641   5.315   1.368   5.111  2.4248 -0.3070  1.6846
  418MOL0     H57642   5.335   1.696   4.914 -2.5974 -2.8472  2.6594
  418MOL0     H57643   5.575   1.922   4.811  0.8784 -1.2989  2.7952
  418MOL0     H57644   5.423   2.005   4.837 -0.8991 -0.6304  1.4193
  418MOL0     H57645   5.424   1.846   4.765  1.4947  0.0637 -2.3229
  418MOL0     H57646   5.722   2.176   5.433 -1.6149 -0.7157 -1.6935
  418MOL0     H57647   5.911   2.328   5.462  0.7585  0.8139 -0.5639
  418MOL0     H57648   6.146   2.477   5.115 -2.4916 -1.0159 -1.3691
  418MOL0     H57649   6.007   2.579   5.190 -1.2945 -2.1894 -0.5399
  418MOL0     H57650   6.156   2.617   5.378  1.1434  0.0568  0.4136
  418MOL0     H57651   6.293   2.547   5.287  1.6503  0.4312  1.9278
  418MOL0     H57652   6.129   2.801   5.219  0.6672  0.6906  3.9051
  418MOL0     H57653   6.225   2.712   5.098  1.6007  1.4703  0.2784
  418MOL0     H57654   6.423   2.711   5.258  0.4432  0.5443 -0.6210
  418MOL0     H57655   6.337   2.825   5.354 -2.3717  0.4029  0.1290
  418MOL0     H57656   6.405   2.858   5.065 -1.2320 -0.4694  0.1633
  418MOL0     H57657   6.325   2.988   5.155  1.1749  1.0068 -1.0691
  418MOL0     H57658   6.512   2.986   5.309 -1.1941 -3.1621  1.5169
  418MOL0     H57659   6.566   3.042   5.148  1.1163  2.1950  2.8016
  418MOL0     H57660   6.633   2.799   5.315 -0.9680 -1.7692 -0.0514
  418MOL0     H57661   6.743   2.912   5.237  0.0228 -1.1739  1.4186
  418MOL0     H57662   6.565   2.705   5.087  0.1955 -0.7004 -0.9876
  418MOL0     H57663   6.732   2.679   5.147 -0.5929 -2.1383  0.3588
  418MOL0     H57664   6.029   2.279   5.051 -1.6367 -1.7397 -1.1683
  418MOL0     H57665   5.873   2.103   5.027  2.3862 -1.7746  0.3689
  418MOL0     H57666   5.583   1.852   5.309 -0.7075  1.7184 -0.6841
  418MOL0     H57667   5.434   1.645   5.313 -1.1723 -0.1415 -0.3702
  418MOL0     H57668   4.545   1.553   6.422 -1.2044 -0.9662 -0.7922
  418MOL0     H57669   4.314   1.501   6.388 -0.4851  0.6046  1.5421
  418MOL0     H57670   3.922   1.811   6.224 -1.0593  0.2286  0.8518
  418MOL0     H57671   3.711   1.860   6.154 -0.6830  0.5416  1.4063
  418MOL0     H57672   3.462   1.819   6.107  1.7178 -0.3326  0.8592
  418MOL0     H57673   3.535   1.844   5.954 -1.2460  1.1952  1.3552
  418MOL0     H57674   3.266   1.806   6.002 -1.2122 -0.7650 -0.3955
  418MOL0     H57675   3.303   1.635   5.965 -1.7379 -0.2851 -1.6725
  418MOL0     H57676   3.326   1.879   5.784 -0.0548 -0.0504  0.0641
  418MOL0     H57677   3.416   1.732   5.757  0.5902  1.0717  2.0537
  418MOL0     H57678   3.117   1.716   5.818  0.3798 -0.7850  1.0012
  418MOL0     H57679   3.226   1.595   5.736 -1.8493 -0.5712 -2.0966
  418MOL0     H57680   3.099   1.820   5.412  2.8652 -1.0414 -0.9097
  418MOL0     H57681   3.658   1.438   6.046  1.2159 -1.5994 -0.2909
  418MOL0     H57682   3.984   1.335   6.026 -1.9023 -0.6640 -2.3255
  418MOL0     H57683   3.930   1.305   6.195 -0.3077  2.8648  1.6703
  418MOL0     H57684   3.829   1.276   6.060  1.0351 -1.3631 -0.1450
  419MOL0     O57685   9.251   9.552   6.835  0.5202  0.0631  0.2027
  419MOL0     C57686   9.181   9.460   6.882 -0.4142  0.5728  0.5978
  419MOL0     O57687   9.220   9.337   6.913 -0.3445  0.4288 -0.3316
  419MOL0     C57688   9.352   9.316   6.910  0.4133 -0.4146 -0.1204
  419MOL0     C57689   9.441   9.365   7.002  0.2497 -0.6896  0.2057
  419MOL0     C57690   9.577   9.344   7.002 -0.4109  0.8462 -0.0104
  419MOL0     C57691   9.628   9.266   6.889 -1.1657 -0.2365 -0.0597
  419MOL0     O57692   9.758   9.257   6.859 -0.3316  0.0473 -0.4971
  419MOL0     C57693   9.807   9.356   6.767 -0.1171  0.2523 -0.5272
  419MOL0     C57694   9.957   9.340   6.754  0.7219 -0.5764  0.4819
  419MOL0     C57695  10.027   9.336   6.887 -0.4869  0.4335  0.7869
  419MOL0     C57696  10.175   9.288   6.864  0.4447 -1.0739  0.4025
  419MOL0     C57697  10.262   9.411   6.817  0.8660  0.9590  0.8614
  419MOL0     C57698  10.404   9.355   6.780 -0.2333 -0.1902 -0.4370
  419MOL0     C57699  10.480   9.458   6.699  0.6564 -0.1390  0.4337
  419MOL0     C57700  10.535   9.580   6.786 -0.1448 -0.6525  0.3274
  419MOL0     N57701  10.646   9.532   6.868 -0.9707  0.5957 -0.2571
  419MOL0     C57702  10.627   9.504   7.001 -0.2408 -0.5385  0.3311
  419MOL0     C57703  10.754   9.483   7.049  0.8441  1.1924 -0.2151
  419MOL0     C57704  10.800   9.468   7.187 -0.3188  0.3366  0.7667
  419MOL0     C57705  10.766   9.585   7.265  0.0810 -0.2106 -0.0356
  419MOL0     C57706  10.860   9.593   7.388 -0.9035 -1.0143  0.4437
  419MOL0     C57707  10.886   9.739   7.428 -0.0680 -0.1180 -0.4672
  419MOL0     O57708  10.958   9.816   7.332  0.0370 -0.1694 -0.3994
  419MOL0     C57709  11.097   9.805   7.340 -0.0243  0.1092  0.1809
  419MOL0     C57710  11.173   9.799   7.224  0.3810 -0.3099 -0.1620
  419MOL0     C57711  11.317   9.786   7.229  1.2534  0.2830 -0.2358
  419MOL0     C57712  11.387   9.763   7.095  0.0363  0.3698  0.0041
  419MOL0     C57713  11.384   9.798   7.356 -0.5104 -0.0798  0.2274
  419MOL0     C57714  11.532   9.791   7.377 -0.6959 -0.0872 -0.2987
  419MOL0     O57715  11.583   9.768   7.508 -0.4485 -0.1460 -0.3299
  419MOL0     C57716  11.709   9.797   7.546 -0.3296 -0.1367  0.4357
  419MOL0     C57717  11.806   9.853   7.462 -0.4615 -0.0065 -0.2080
  419MOL0     C57718  11.932   9.879   7.515 -0.6576  0.3358  0.3428
  419MOL0     C57719  11.967   9.862   7.644 -0.6274  0.4095  0.3144
  419MOL0     O57720  12.096   9.889   7.670  0.2039  0.3152  0.8275
  419MOL0     C57721  12.137   9.897   7.803 -0.6230  0.4637 -0.4627
  419MOL0     C57722  12.292   9.909   7.800 -0.4358  0.6672  0.5773
  419MOL0     C57723  12.338   9.956   7.941  0.2512  0.6566 -0.9354
  419MOL0     C57724  12.329  10.106   7.966 -0.1383  0.1679 -0.3361
  419MOL0     C57725  12.355  10.144   8.115  0.3475  0.5813 -0.4323
  419MOL0     C57726  12.491  10.091   8.169 -0.9753  0.4966 -0.4878
  419MOL0     C57727  12.510  10.115   8.318  0.3550  0.4035 -0.3285
  419MOL0     C57728  12.660  10.104   8.353  0.5001 -0.4750 -0.3014
  419MOL0    Cl57729  12.745  10.252   8.286  0.2014 -0.1955 -0.0235
  419MOL0     C57730  11.865   9.813   7.729 -0.0259 -0.0084  0.1334
  419MOL0     C57731  11.741   9.781   7.678  0.4207 -1.2230 -1.5124
  419MOL0     O57732  11.594   9.798   7.271 -1.1426 -0.8843 -0.3802
  419MOL0     C57733  11.307   9.803   7.471  1.0307 -0.5750 -0.8808
  419MOL0     C57734  11.165   9.813   7.462 -0.9338  0.6675 -0.3555
  419MOL0     N57735  10.846   9.498   6.951 -0.3320  0.0111  0.6658
  419MOL0     N57736  10.779   9.531   6.846 -0.0936 -0.4991 -0.6371
  419MOL0     C57737   9.537   9.199   6.799 -0.0745  0.1885 -0.4679
  419MOL0     C57738   9.400   9.220   6.819 -0.1341  0.3991  0.7724
  419MOL0     C57739   9.043   9.496   6.920  0.2165 -0.1876 -0.2361
  419MOL0     C57740   9.016   9.631   6.939  0.1334  0.2747  0.1673
  419MOL0     C57741   8.886   9.678   6.969 -0.2345 -0.0144 -0.3874
  419MOL0     C57742   8.779   9.597   6.979  0.3320  0.7203 -0.1517
  419MOL0     O57743   8.647   9.625   6.992 -0.3801 -0.3704 -0.3419
  419MOL0     C57744   8.612   9.764   7.034 -0.1312  0.7118  0.3982
  419MOL0     C57745   8.646   9.792   7.177  0.2227  0.1573  0.1668
  419MOL0     C57746   8.583   9.697   7.281  0.1411  0.3204  0.3055
  419MOL0     C57747   8.669   9.697   7.407  0.0233 -0.6840  0.2558
  419MOL0     C57748   8.578   9.639   7.513  0.6477  0.2006  1.0946
  419MOL0     C57749   8.511   9.580   7.596 -0.0958 -0.6102 -0.1624
  419MOL0     C57750   8.811   9.460   6.951  0.7341 -0.8531  0.5669
  419MOL0     C57751   8.931   9.408   6.925 -0.0995  0.2743 -0.3298
  419MOL0     C57752   8.943   9.260   6.912  0.7140 -0.5153  0.1889
  419MOL0     H57753   9.401   9.432   7.078  1.9428  0.1035  0.4401
  419MOL0     H57754   9.649   9.390   7.069 -0.1295  1.4610 -0.7203
  419MOL0     H57755   9.775   9.457   6.794  1.1635 -0.4916  4.8035
  419MOL0     H57756   9.772   9.330   6.666  1.5127 -1.8277 -0.6237
  419MOL0     H57757   9.973   9.247   6.698 -0.0949  0.0632 -0.8799
  419MOL0     H57758   9.998   9.420   6.691 -0.6635  0.9170  1.3896
  419MOL0     H57759  10.020   9.431   6.941 -5.1276  1.6809 -1.4273
  419MOL0     H57760   9.974   9.260   6.945  1.2741 -0.5524  1.1656
  419MOL0     H57761  10.219   9.254   6.958  2.7379 -1.2010 -0.6642
  419MOL0     H57762  10.172   9.208   6.790  0.1559 -2.3988  1.7966
  419MOL0     H57763  10.276   9.478   6.902  1.9150  1.2230  0.5008
  419MOL0     H57764  10.226   9.465   6.728 -0.4979 -1.3053 -0.0508
  419MOL0     H57765  10.457   9.323   6.870  0.2543 -0.1115 -0.6956
  419MOL0     H57766  10.397   9.261   6.724  0.8558 -0.7827  0.3928
  419MOL0     H57767  10.416   9.515   6.630 -1.1557 -0.2733  1.9112
  419MOL0     H57768  10.558   9.402   6.648  0.8275  0.2837  0.2247
  419MOL0     H57769  10.590   9.651   6.723 -0.0055 -1.9151 -1.0350
  419MOL0     H57770  10.459   9.637   6.841  1.0283  3.3212 -1.7791
  419MOL0     H57771  10.535   9.504   7.058  0.5469 -0.1282  1.6697
  419MOL0     H57772  10.908   9.465   7.174 -0.4331  1.0358 -0.4876
  419MOL0     H57773  10.763   9.369   7.217 -0.2350 -0.3774 -1.2805
  419MOL0     H57774  10.772   9.681   7.213 -2.1932  0.7807  1.4090
  419MOL0     H57775  10.664   9.585   7.303  1.1408 -2.6543  3.2204
  419MOL0     H57776  10.798   9.556   7.471  0.1605 -1.5263  1.0317
  419MOL0     H57777  10.954   9.539   7.377 -1.8030 -2.0542 -3.5978
  419MOL0     H57778  10.787   9.784   7.446 -0.2899 -0.2849 -1.2366
  419MOL0     H57779  10.929   9.742   7.529  2.1137 -2.3306 -1.2403
  419MOL0     H57780  11.128   9.810   7.126  2.2209  0.7129 -0.9542
  419MOL0     H57781  11.319   9.711   7.026 -0.1740  0.4528  0.1486
  419MOL0     H57782  11.467   9.689   7.101 -1.3987 -1.1291  2.1305
  419MOL0     H57783  11.425   9.849   7.039  0.0310  0.3448 -0.0380
  419MOL0     H57784  11.782   9.883   7.360 -0.4978 -0.6848 -0.4029
  419MOL0     H57785  12.013   9.931   7.464 -0.0704 -0.0030  0.9179
  419MOL0     H57786  12.099   9.991   7.844  1.1821 -0.0067  2.5332
  419MOL0     H57787  12.109   9.817   7.872  1.2765  1.6255  1.8050
  419MOL0     H57788  12.335   9.810   7.782  1.3664  1.1457  1.9229
  419MOL0     H57789  12.321   9.978   7.720  0.7889  0.8095  1.1228
  419MOL0     H57790  12.440   9.921   7.960 -0.6432 -1.1011  1.0704
  419MOL0     H57791  12.273   9.910   8.017 -0.9953  0.5719 -2.0214
  419MOL0     H57792  12.228  10.143   7.950  0.6419  2.4259 -0.3082
  419MOL0     H57793  12.406  10.157   7.908 -0.1634  2.0007  1.1563
  419MOL0     H57794  12.355  10.252   8.131 -0.7436  0.8371 -1.9567
  419MOL0     H57795  12.268  10.104   8.166  1.0454  1.9926  2.0430
  419MOL0     H57796  12.570  10.130   8.105  1.7090 -2.7436  0.5801
  419MOL0     H57797  12.494   9.982   8.165  0.7743  0.3601  1.9838
  419MOL0     H57798  12.459  10.043   8.383  0.0135  1.1074  0.2041
  419MOL0     H57799  12.470  10.214   8.342  0.8686  0.1136  1.9626
  419MOL0     H57800  12.712  10.013   8.322  0.8123 -0.9313  1.4444
  419MOL0     H57801  12.666  10.110   8.462  0.9742  1.3075 -0.3861
  419MOL0     H57802  11.881   9.802   7.836 -0.3662 -5.2180 -0.0867
  419MOL0     H57803  11.659   9.751   7.743  0.1457  0.8145 -0.8466
  419MOL0     H57804  11.358   9.809   7.567  0.2997  1.6334 -0.5717
  419MOL0     H57805  11.128   9.827   7.563  1.0164  0.7714  0.3848
  419MOL0     H57806   9.565   9.144   6.710  0.2197  1.5064 -1.2102
  419MOL0     H57807   9.319   9.179   6.759 -0.8236  0.9881  1.2722
  419MOL0     H57808   9.094   9.707   6.941  0.1226  0.2969 -0.2453
  419MOL0     H57809   8.884   9.786   6.969 -0.5778  0.1285 -4.3459
  419MOL0     H57810   8.662   9.831   6.964 -1.1726 -1.8225 -3.0279
  419MOL0     H57811   8.504   9.779   7.025 -0.6486 -2.2151  0.8285
  419MOL0     H57812   8.615   9.894   7.202  0.2265 -0.0233  0.9653
  419MOL0     H57813   8.754   9.806   7.189  0.4357  0.2430 -1.5907
  419MOL0     H57814   8.479   9.723   7.298  0.1827  1.0740 -0.5341
  419MOL0     H57815   8.576   9.600   7.231 -1.0433  0.6029 -0.1011
  419MOL0     H57816   8.697   9.800   7.430  1.6170 -0.8608 -0.7419
  419MOL0     H57817   8.762   9.639   7.401 -0.2899 -1.2910  1.1324
  419MOL0     H57818   8.455   9.533   7.674 -0.8810  0.1133 -0.2727
  419MOL0     H57819   8.716   9.408   6.947  0.1420  0.2679 -1.0783
  419MOL0     H57820   8.845   9.213   6.900 -0.0986  0.5958  2.0845
  419MOL0     H57821   9.017   9.239   6.834  1.5103  0.2141  0.7296
  419MOL0     H57822   8.990   9.207   6.995 -0.4106 -0.2351  1.0288
  420MOL0     O57823   5.737  10.424   1.343 -0.7485  0.0155  0.5103
  420MOL0     C57824   5.692  10.528   1.303 -0.3576 -0.4491  0.0085
  420MOL0     O57825   5.766  10.633   1.265  0.3159 -0.0018 -0.1292
  420MOL0     C57826   5.901  10.612   1.249  0.3191 -0.1649 -0.2504
  420MOL0     C57827   5.989  10.644   1.355  0.8860 -0.3644  0.2232
  420MOL0     C57828   6.128  10.620   1.342  0.1495 -0.9287  0.4337
  420MOL0     C57829   6.172  10.564   1.226  0.1630  0.2982  0.1520
  420MOL0     O57830   6.301  10.552   1.211  0.2035  0.3705  0.1131
  420MOL0     C57831   6.347  10.422   1.201 -0.1566  0.0151 -1.2252
  420MOL0     C57832   6.479  10.419   1.144 -0.4340 -0.1147 -0.1184
  420MOL0     C57833   6.521  10.278   1.118  0.1666 -0.2647 -0.6959
  420MOL0     C57834   6.652  10.279   1.052 -0.1414  0.4599  0.4420
  420MOL0     C57835   6.703  10.137   1.043 -0.2678  0.7836  0.4350
  420MOL0     C57836   6.829  10.140   0.970 -0.8972 -0.2461 -0.0067
  420MOL0     C57837   6.906  10.005   0.955 -0.7748 -0.7068 -0.3340
  420MOL0     C57838   7.052  10.010   0.891  0.0764  0.1845  0.4035
  420MOL0     N57839   7.143  10.088   0.972 -0.2956  0.1013 -0.8807
  420MOL0     C57840   7.191  10.208   0.942 -0.5050 -0.3948 -0.3342
  420MOL0     C57841   7.296  10.229   1.027  0.4446  0.1195 -0.3677
  420MOL0     C57842   7.406  10.326   1.015 -0.3968 -0.4509  0.3676
  420MOL0     C57843   7.533  10.258   0.947 -0.1532  1.1749 -0.1659
  420MOL0     C57844   7.501  10.183   0.817  1.0044 -0.3854 -1.3899
  420MOL0     C57845   7.437  10.267   0.712  0.6801 -0.4599  0.0573
  420MOL0     O57846   7.501  10.391   0.689 -0.8350  0.3417 -0.4705
  420MOL0     C57847   7.633  10.393   0.655 -0.0926 -0.0082  0.8839
  420MOL0     C57848   7.710  10.505   0.694  0.2164  0.1326 -0.0081
  420MOL0     C57849   7.843  10.525   0.661 -0.5107 -0.5572  0.2367
  420MOL0     C57850   7.898  10.657   0.708 -0.2349  0.3036 -0.2138
  420MOL0     C57851   7.923  10.418   0.602  0.3104  0.2089  0.1576
  420MOL0     C57852   8.074  10.417   0.570 -0.1437  0.1742 -0.7483
  420MOL0     O57853   8.135  10.294   0.534 -0.3419  0.1605  0.2253
  420MOL0     C57854   8.266  10.297   0.490 -0.0974 -0.3115  0.0155
  420MOL0     C57855   8.306  10.368   0.369 -0.2151 -0.0251 -0.8537
  420MOL0     C57856   8.437  10.361   0.328  0.9569 -0.9108 -0.1683
  420MOL0     C57857   8.530  10.283   0.396 -0.0985  0.0977 -0.5730
  420MOL0     O57858   8.660  10.268   0.351  0.0706 -0.3234 -0.1080
  420MOL0     C57859   8.740  10.385   0.315  0.5753 -0.6418 -0.3461
  420MOL0     C57860   8.882  10.379   0.354  0.1123  0.0126  0.0877
  420MOL0     C57861   8.946  10.243   0.349  0.9810  0.5561 -0.9766
  420MOL0     C57862   9.101  10.255   0.337 -0.7789 -1.0705  0.8335
  420MOL0     C57863   9.165  10.113   0.365 -0.7328  0.6448  0.3633
  420MOL0     C57864   9.316  10.106   0.310 -0.0317  0.0248 -0.1853
  420MOL0     C57865   9.359   9.959   0.278  0.5151  0.4704 -0.3785
  420MOL0     C57866   9.502   9.936   0.319 -0.2097  0.4859 -0.1449
  420MOL0    Cl57867   9.623  10.036   0.227 -0.2421 -0.3051  0.2972
  420MOL0     C57868   8.491  10.205   0.509  0.3801 -0.1897 -0.4276
  420MOL0     C57869   8.358  10.219   0.555 -0.0620 -0.5144 -0.5325
  420MOL0     O57870   8.136  10.511   0.606 -0.6992 -0.3961 -0.2458
  420MOL0     C57871   7.842  10.305   0.568  0.3581  0.4274  0.2292
  420MOL0     C57872   7.704  10.289   0.592  0.1066 -0.8590  0.5533
  420MOL0     N57873   7.308  10.122   1.110 -0.0175  0.1663 -0.2531
  420MOL0     N57874   7.215  10.036   1.077 -0.3100  0.4219  0.1629
  420MOL0     C57875   6.088  10.534   1.117  0.3105  1.0596 -1.2890
  420MOL0     C57876   5.947  10.556   1.132  0.1270 -0.2392 -0.5100
  420MOL0     C57877   5.553  10.558   1.318  0.9070 -0.1102 -0.5027
  420MOL0     C57878   5.512  10.684   1.290 -0.0361 -0.5545  0.3738
  420MOL0     C57879   5.376  10.710   1.299 -0.2904  0.2155 -0.3515
  420MOL0     C57880   5.285  10.616   1.338  0.4836 -0.3110  0.6507
  420MOL0     O57881   5.154  10.659   1.336 -0.3698 -0.3797  0.2175
  420MOL0     C57882   5.055  10.562   1.342  0.0779 -0.5187 -0.7399
  420MOL0     C57883   4.919  10.606   1.294 -0.2337  0.3732 -0.1003
  420MOL0     C57884   4.829  10.684   1.392 -0.4598  0.6074 -0.9970
  420MOL0     C57885   4.684  10.694   1.362  0.5152 -0.7557 -0.4151
  420MOL0     C57886   4.624  10.562   1.366 -0.3185 -0.6113  0.3203
  420MOL0     C57887   4.568  10.454   1.345 -0.2417  0.1171 -0.6117
  420MOL0     C57888   5.323  10.487   1.376  0.7006  0.7228 -0.6365
  420MOL0     C57889   5.454  10.455   1.360  0.3084 -0.5097  0.3070
  420MOL0     C57890   5.489  10.308   1.388  0.0286  0.8438 -1.1806
  420MOL0     H57891   5.948  10.689   1.445  1.7177  1.4338 -0.2484
  420MOL0     H57892   6.196  10.635   1.426 -0.2178 -0.0454  0.5783
  420MOL0     H57893   6.271  10.359   1.155 -1.5640  0.3804  0.4895
  420MOL0     H57894   6.349  10.377   1.301 -0.1938  0.4110 -1.0426
  420MOL0     H57895   6.478  10.477   1.052 -1.6231  0.1814  0.0608
  420MOL0     H57896   6.553  10.471   1.205  0.4719 -1.1058 -0.3422
  420MOL0     H57897   6.516  10.223   1.212  0.4399 -0.9520 -1.0788
  420MOL0     H57898   6.446  10.228   1.055 -2.4455  2.4793 -0.0353
  420MOL0     H57899   6.634  10.316   0.951 -0.4613  1.6668  0.9217
  420MOL0     H57900   6.725  10.340   1.107 -0.0119 -3.6086  5.5729
  420MOL0     H57901   6.629  10.076   0.992 -1.4298  1.4264  1.3001
  420MOL0     H57902   6.714  10.085   1.138 -1.8793 -0.8646 -0.2235
  420MOL0     H57903   6.804  10.187   0.874  1.6310  3.6960  1.0364
  420MOL0     H57904   6.905  10.209   1.009  1.3742 -1.3293 -2.2086
  420MOL0     H57905   6.844   9.940   0.893  0.2455 -0.9876 -1.0912
  420MOL0     H57906   6.913   9.959   1.054  0.6272  0.2795  0.0588
  420MOL0     H57907   7.099   9.911   0.896  0.6887  0.4428 -0.0728
  420MOL0     H57908   7.040  10.046   0.788 -0.9570 -0.6332  0.2151
  420MOL0     H57909   7.155  10.254   0.850  0.5181 -2.0135 -1.5926
  420MOL0     H57910   7.427  10.358   1.117 -2.8753 -1.9873  1.4571
  420MOL0     H57911   7.371  10.411   0.955 -2.4682 -0.7860  1.0116
  420MOL0     H57912   7.610  10.334   0.934  1.2140  0.1996  1.6978
  420MOL0     H57913   7.587  10.196   1.020  0.1208  1.5584 -0.0381
  420MOL0     H57914   7.591  10.136   0.776  1.0776 -0.9813 -0.5580
  420MOL0     H57915   7.438  10.098   0.844  2.8375 -0.8719  1.8649
  420MOL0     H57916   7.423  10.228   0.611 -1.5120 -2.8282  1.1447
  420MOL0     H57917   7.333  10.291   0.739  0.2564 -1.4704 -0.6130
  420MOL0     H57918   7.670  10.581   0.761  1.2419 -0.0505  0.8514
  420MOL0     H57919   7.965  10.648   0.794  0.6591  0.2635 -0.9031
  420MOL0     H57920   7.824  10.735   0.730  0.1181  0.6762 -0.3278
  420MOL0     H57921   7.970  10.708   0.644  2.5911  0.8978  3.1180
  420MOL0     H57922   8.236  10.434   0.318  0.1345  0.9406 -0.1061
  420MOL0     H57923   8.463  10.414   0.237 -0.6970  0.3320  0.0165
  420MOL0     H57924   8.737  10.398   0.207 -2.2137  1.7953 -0.1011
  420MOL0     H57925   8.689  10.470   0.361  0.5312  0.3496 -2.1692
  420MOL0     H57926   8.938  10.446   0.287  3.7939 -0.4074  2.4610
  420MOL0     H57927   8.892  10.414   0.457 -0.1990 -0.2585  0.2124
  420MOL0     H57928   8.907  10.184   0.266  0.3874  0.2279 -0.4736
  420MOL0     H57929   8.926  10.191   0.443  2.3897 -0.7994 -1.3808
  420MOL0     H57930   9.142  10.326   0.409 -0.9316  0.2368 -0.3271
  420MOL0     H57931   9.118  10.290   0.235 -4.0294 -0.9550  0.2037
  420MOL0     H57932   9.175  10.091   0.472  0.3399 -2.3287 -0.2251
  420MOL0     H57933   9.097  10.040   0.319  2.3947 -0.6517 -2.7006
  420MOL0     H57934   9.388  10.143   0.384  0.3870 -2.1658  0.5810
  420MOL0     H57935   9.314  10.168   0.220 -4.5674 -0.3535 -0.5857
  420MOL0     H57936   9.340   9.947   0.170 -1.7359 -4.4720  0.2519
  420MOL0     H57937   9.299   9.888   0.335 -2.0595  3.0157  0.2742
  420MOL0     H57938   9.524   9.830   0.301  1.8031  1.0353 -1.2196
  420MOL0     H57939   9.512   9.971   0.422 -0.3669  1.1961 -0.3641
  420MOL0     H57940   8.571  10.152   0.560 -0.6163 -0.5759  0.7790
  420MOL0     H57941   8.329  10.157   0.639  2.2455 -2.2066 -0.9063
  420MOL0     H57942   7.889  10.226   0.509 -4.3156 -1.7357 -1.0886
  420MOL0     H57943   7.653  10.202   0.553 -1.7101  1.2962 -2.2969
  420MOL0     H57944   6.125  10.480   1.031 -0.6835  3.1057 -3.1027
  420MOL0     H57945   5.878  10.539   1.050 -0.9536 -0.4699  0.4194
  420MOL0     H57946   5.580  10.755   1.245 -0.4609  0.4007  1.1923
  420MOL0     H57947   5.321  10.800   1.271 -1.3205  0.8908  3.3420
  420MOL0     H57948   5.091  10.479   1.280 -0.1947 -1.7908  0.7543
  420MOL0     H57949   5.053  10.522   1.443  1.9746 -0.1394 -0.5219
  420MOL0     H57950   4.855  10.522   1.263 -1.3444  0.2300  2.3056
  420MOL0     H57951   4.942  10.665   1.205 -1.7921 -0.8074 -1.3493
  420MOL0     H57952   4.847  10.643   1.491 -0.0042  0.0923 -1.2886
  420MOL0     H57953   4.854  10.791   1.397  0.6229  0.5354 -3.4278
  420MOL0     H57954   4.660  10.752   1.272 -1.6048 -1.3434 -0.2882
  420MOL0     H57955   4.639  10.757   1.439  1.1581 -0.5499 -0.1992
  420MOL0     H57956   4.535  10.354   1.331  0.5614 -0.3496  0.6396
  420MOL0     H57957   5.257  10.412   1.420 -3.2531  1.6148 -4.3583
  420MOL0     H57958   5.406  10.247   1.423 -1.9657  4.0459  0.0802
  420MOL0     H57959   5.514  10.258   1.294 -4.9562 -1.1679 -1.7321
  420MOL0     H57960   5.563  10.297   1.468 -1.7234  0.1119  0.4066
  421MOL0     O57961   9.339   4.342   8.611 -0.0283  0.0853  0.2428
  421MOL0     C57962   9.305   4.261   8.697  0.1304 -0.3662  0.8824
  421MOL0     O57963   9.385   4.170   8.763 -0.0433  0.2724 -0.2722
  421MOL0     C57964   9.506   4.131   8.709  0.1029 -0.3702  0.5661
  421MOL0     C57965   9.504   4.074   8.587 -0.2996  0.5420 -0.5092
  421MOL0     C57966   9.618   4.014   8.532 -0.2824  0.0870  0.5158
  421MOL0     C57967   9.746   4.018   8.591  0.1390  0.2319  0.4518
  421MOL0     O57968   9.857   3.944   8.555 -0.5162  0.0018  0.2348
  421MOL0     C57969   9.830   3.832   8.465  0.3363  0.2234 -1.0945
  421MOL0     C57970   9.932   3.732   8.473 -1.2810 -0.1824  0.0044
  421MOL0     C57971  10.061   3.776   8.410 -0.1115 -0.3723 -0.0803
  421MOL0     C57972  10.159   3.665   8.437 -1.1063  0.4779  0.1950
  421MOL0     C57973  10.287   3.688   8.360 -0.2496 -0.0080  0.6211
  421MOL0     C57974  10.393   3.604   8.417  0.3323 -0.6797  0.1713
  421MOL0     C57975  10.527   3.602   8.337 -0.1085 -0.0425 -0.3932
  421MOL0     C57976  10.610   3.724   8.386  0.4677  0.3420 -0.0077
  421MOL0     N57977  10.737   3.728   8.318  0.1712 -0.4799 -0.1786
  421MOL0     C57978  10.833   3.629   8.337 -0.4726  0.3700 -0.0883
  421MOL0     C57979  10.950   3.676   8.273 -0.1270  0.0416 -0.5078
  421MOL0     C57980  11.086   3.618   8.257 -0.3889 -0.5056  0.1563
  421MOL0     C57981  11.182   3.673   8.358  0.5489 -0.4622  0.5607
  421MOL0     C57982  11.141   3.623   8.493 -0.1574 -0.9468 -0.1711
  421MOL0     C57983  11.227   3.707   8.606 -0.0622 -0.2032 -0.3255
  421MOL0     O57984  11.363   3.669   8.588 -0.3076 -0.4378 -0.3539
  421MOL0     C57985  11.456   3.728   8.664  0.4226  0.4150 -0.0198
  421MOL0     C57986  11.434   3.831   8.755  0.4256  0.3458 -1.0164
  421MOL0     C57987  11.538   3.883   8.835 -0.1603  1.0179  0.4876
  421MOL0     C57988  11.499   4.000   8.923 -0.1231  0.0488  0.9128
  421MOL0     C57989  11.678   3.834   8.819  1.1501 -0.0737  0.3009
  421MOL0     C57990  11.801   3.899   8.879  0.0648 -0.6506 -0.2124
  421MOL0     O57991  11.789   3.999   8.968  0.4317 -0.3628  0.4212
  421MOL0     C57992  11.895   4.073   9.012 -0.1493  0.3016 -0.0370
  421MOL0     C57993  12.007   4.126   8.936  0.1239 -0.2018 -0.2030
  421MOL0     C57994  12.100   4.215   8.994 -0.3590 -0.1100 -0.2278
  421MOL0     C57995  12.093   4.247   9.125  0.0643 -0.6170  0.4079
  421MOL0     O57996  12.186   4.340   9.179  0.5862 -0.2601 -0.0163
  421MOL0     C57997  12.134   4.439   9.268 -0.1382  0.4221 -1.0887
  421MOL0     C57998  12.240   4.501   9.344 -0.4884  0.2062  0.1877
  421MOL0     C57999  12.211   4.521   9.497 -0.5956 -0.4818  0.2409
  421MOL0     C58000  12.349   4.548   9.560  0.1023  0.6677  0.4707
  421MOL0     C58001  12.344   4.604   9.700  0.0850  0.7067  0.2796
  421MOL0     C58002  12.481   4.601   9.765  0.4852  0.7169 -0.1788
  421MOL0     C58003  12.453   4.622   9.912  0.0765  0.2275 -0.4080
  421MOL0     C58004  12.576   4.631  10.007  0.0469  0.2512 -0.3254
  421MOL0    Cl58005  12.674   4.773   9.956  0.2599  0.5260  0.4119
  421MOL0     C58006  11.999   4.186   9.203 -0.2872  0.2597  0.4621
  421MOL0     C58007  11.899   4.106   9.147 -0.0897 -0.7069  1.3123
  421MOL0     O58008  11.907   3.864   8.836  0.3815  0.4374  0.0266
  421MOL0     C58009  11.692   3.731   8.720  0.8285 -0.1477  1.1065
  421MOL0     C58010  11.583   3.672   8.650  0.4670 -0.4664 -0.0675
  421MOL0     N58011  10.903   3.784   8.198  0.0392 -0.3083 -0.8120
  421MOL0     N58012  10.779   3.814   8.227 -0.0370 -0.0359 -0.5610
  421MOL0     C58013   9.745   4.100   8.706 -1.1352  0.2989 -0.2162
  421MOL0     C58014   9.627   4.145   8.766  0.1338 -0.1432  0.1360
  421MOL0     C58015   9.173   4.272   8.752 -0.0692  0.5021 -0.9666
  421MOL0     C58016   9.127   4.163   8.827  0.0839 -0.0807 -1.0127
  421MOL0     C58017   9.006   4.169   8.895 -0.8187 -0.0854  0.1507
  421MOL0     C58018   8.912   4.267   8.870  0.1804  0.0572  0.2263
  421MOL0     O58019   8.787   4.262   8.925 -0.2790 -0.1231 -1.0934
  421MOL0     C58020   8.761   4.347   9.034  0.2836  0.0017  0.3181
  421MOL0     C58021   8.837   4.288   9.155 -0.0696 -0.4943 -0.3242
  421MOL0     C58022   8.756   4.326   9.280 -0.5397  0.0050 -0.4760
  421MOL0     C58023   8.822   4.288   9.409  0.6148  0.4313  0.6873
  421MOL0     C58024   8.931   4.371   9.452 -0.3129 -0.7276 -1.4666
  421MOL0     C58025   9.026   4.436   9.483 -0.0338 -0.2330  0.7395
  421MOL0     C58026   8.952   4.376   8.788  0.0810  0.4903 -0.5640
  421MOL0     C58027   9.080   4.380   8.732  0.3288  0.3208 -0.2205
  421MOL0     C58028   9.119   4.512   8.683  0.2824  0.8973 -0.1825
  421MOL0     H58029   9.410   4.058   8.535 -0.4700  1.2616 -0.4402
  421MOL0     H58030   9.606   3.973   8.433  0.0325 -1.2019  0.9986
  421MOL0     H58031   9.809   3.865   8.363 -2.3611  0.9374 -0.3783
  421MOL0     H58032   9.738   3.785   8.499  0.6975  0.1727 -0.1355
  421MOL0     H58033   9.938   3.725   8.582  1.0398 -0.9749 -0.1071
  421MOL0     H58034   9.891   3.637   8.438 -1.2251 -0.6617  1.1783
  421MOL0     H58035  10.050   3.800   8.304 -1.6082 -4.8484 -1.1666
  421MOL0     H58036  10.101   3.862   8.465  2.1965 -1.2277 -0.3104
  421MOL0     H58037  10.184   3.667   8.543 -0.2298 -0.8339  0.0348
  421MOL0     H58038  10.110   3.569   8.418 -2.0514  0.9697  0.0949
  421MOL0     H58039  10.317   3.793   8.362 -0.5755  0.1062 -0.1695
  421MOL0     H58040  10.268   3.668   8.254  4.8649  1.9957 -0.9743
  421MOL0     H58041  10.409   3.634   8.521 -0.3587  0.4838 -0.0429
  421MOL0     H58042  10.350   3.504   8.430  2.6789 -2.0854 -1.8875
  421MOL0     H58043  10.502   3.608   8.231  2.6436 -0.3783 -1.1349
  421MOL0     H58044  10.584   3.515   8.372  2.0764  1.2664 -0.4822
  421MOL0     H58045  10.557   3.819   8.373 -2.6448 -1.5448 -2.4431
  421MOL0     H58046  10.614   3.717   8.496 -3.7054  0.9683  0.3592
  421MOL0     H58047  10.819   3.540   8.396 -0.5856  0.9003  0.7059
  421MOL0     H58048  11.132   3.634   8.159  0.5424  0.6109  0.7473
  421MOL0     H58049  11.072   3.510   8.264 -0.7322 -0.4561  0.2349
  421MOL0     H58050  11.285   3.648   8.332 -0.0263 -1.1891 -1.1525
  421MOL0     H58051  11.180   3.782   8.356  0.3090 -0.4560  1.0342
  421MOL0     H58052  11.040   3.652   8.522  0.7883  1.9168  0.6182
  421MOL0     H58053  11.171   3.519   8.509  0.5448 -0.8420 -0.7305
  421MOL0     H58054  11.216   3.814   8.589 -1.3937 -0.2220  0.2732
  421MOL0     H58055  11.200   3.678   8.708 -2.1986 -2.2118 -1.3607
  421MOL0     H58056  11.337   3.880   8.755  1.4055  2.3590 -1.2239
  421MOL0     H58057  11.552   4.090   8.891 -0.4903  0.5603  1.7216
  421MOL0     H58058  11.529   3.984   9.027  3.3864 -0.3184 -0.0335
  421MOL0     H58059  11.392   4.020   8.927 -0.1483 -0.0331  4.5740
  421MOL0     H58060  12.025   4.104   8.831  0.4996 -1.2292  0.0586
  421MOL0     H58061  12.187   4.257   8.946  1.2444 -2.0646  0.8085
  421MOL0     H58062  12.061   4.502   9.217 -2.1918 -0.0183  1.1419
  421MOL0     H58063  12.076   4.385   9.344  3.0187 -4.0926 -1.4073
  421MOL0     H58064  12.326   4.434   9.334 -0.2697  0.7540 -2.0092
  421MOL0     H58065  12.276   4.597   9.307 -1.0531  2.0073  3.8852
  421MOL0     H58066  12.167   4.431   9.540 -0.6648 -1.4622 -1.7508
  421MOL0     H58067  12.141   4.603   9.513  0.8412  1.1250 -1.2735
  421MOL0     H58068  12.418   4.603   9.494  0.1365  1.5345  1.2163
  421MOL0     H58069  12.404   4.453   9.559  1.2442  1.2069 -3.0472
  421MOL0     H58070  12.320   4.711   9.694 -1.3836  0.3426 -1.2566
  421MOL0     H58071  12.275   4.556   9.770  1.6182  0.4890  1.6862
  421MOL0     H58072  12.534   4.688   9.724 -0.4559  2.2761  1.7239
  421MOL0     H58073  12.526   4.502   9.761 -0.3924  0.3039  0.0169
  421MOL0     H58074  12.390   4.540   9.948  0.1892  0.7338  0.9961
  421MOL0     H58075  12.404   4.719   9.927  0.5505  0.6630 -1.5566
  421MOL0     H58076  12.638   4.542   9.992 -2.9793 -1.6228 -3.0756
  421MOL0     H58077  12.546   4.639  10.112 -0.7936 -0.2662 -0.5188
  421MOL0     H58078  12.002   4.181   9.312  1.1800 -0.4936  0.4148
  421MOL0     H58079  11.820   4.054   9.202 -0.1302 -1.5445  0.4877
  421MOL0     H58080  11.792   3.693   8.705  2.1528  1.9266  3.8273
  421MOL0     H58081  11.596   3.590   8.580  1.2783 -0.1655 -0.2752
  421MOL0     H58082   9.842   4.120   8.751 -1.5793 -0.4596  1.1500
  421MOL0     H58083   9.636   4.197   8.861 -3.4333  2.1522 -0.6289
  421MOL0     H58084   9.179   4.073   8.857  1.4306  0.9760 -0.0261
  421MOL0     H58085   8.988   4.099   8.976 -0.0949 -0.9236 -0.4011
  421MOL0     H58086   8.794   4.448   9.008 -4.1594  1.3597 -1.0759
  421MOL0     H58087   8.653   4.356   9.050  0.2678  1.7316 -0.5487
  421MOL0     H58088   8.933   4.340   9.166 -1.0887  1.4436 -0.1755
  421MOL0     H58089   8.849   4.180   9.150  0.3583 -0.5672  1.6390
  421MOL0     H58090   8.727   4.431   9.281 -2.5109 -0.5002  0.1264
  421MOL0     H58091   8.660   4.274   9.281 -0.1103 -0.8507  1.5862
  421MOL0     H58092   8.853   4.184   9.411 -3.0348 -0.8038  0.1902
  421MOL0     H58093   8.748   4.300   9.489  0.2376 -4.6491  1.4251
  421MOL0     H58094   9.102   4.506   9.510  0.2353 -0.2801  0.1322
  421MOL0     H58095   8.882   4.458   8.775  1.4444  1.6799 -0.6968
  421MOL0     H58096   9.163   4.572   8.763 -1.7367  0.3682  1.4046
  421MOL0     H58097   9.182   4.509   8.594  0.1563 -0.9018 -0.2559
  421MOL0     H58098   9.029   4.561   8.647 -0.1009  0.5108  0.2459
  422MOL0     O58099   2.746   3.974   3.820  0.1792 -0.0132 -0.2793
  422MOL0     C58100   2.696   3.975   3.934  0.7405 -0.5401 -0.2564
  422MOL0     O58101   2.759   4.026   4.053  0.0328 -0.2084 -0.0299
  422MOL0     C58102   2.871   4.109   4.040 -0.0672 -0.3117  0.1650
  422MOL0     C58103   2.993   4.048   4.010  0.0753 -0.2736  0.7925
  422MOL0     C58104   3.103   4.121   3.987  0.4815 -0.8569  0.0193
  422MOL0     C58105   3.102   4.266   4.002 -0.0062 -0.3295 -0.7789
  422MOL0     O58106   3.216   4.338   3.983  0.1208 -0.2155 -0.0448
  422MOL0     C58107   3.232   4.450   4.063  0.2482 -0.2634 -0.1144
  422MOL0     C58108   3.383   4.490   4.075  0.8635 -0.0191  0.4115
  422MOL0     C58109   3.465   4.375   4.136  0.8216  0.2037  0.5017
  422MOL0     C58110   3.598   4.429   4.189  0.1254 -0.0203 -0.6221
  422MOL0     C58111   3.703   4.324   4.222 -0.2552  0.4414  0.2227
  422MOL0     C58112   3.841   4.383   4.275  0.5365  0.2291  0.0375
  422MOL0     C58113   3.931   4.453   4.174  0.2286  0.6822 -0.4554
  422MOL0     C58114   4.002   4.349   4.093  0.3813 -0.2837  0.7033
  422MOL0     N58115   4.125   4.304   4.151 -0.2112 -0.8610 -0.2585
  422MOL0     C58116   4.251   4.364   4.153 -0.1472  0.0263 -0.6669
  422MOL0     C58117   4.335   4.269   4.197 -0.2029  0.1659 -0.0680
  422MOL0     C58118   4.481   4.277   4.224 -0.4274 -0.2543  1.0000
  422MOL0     C58119   4.555   4.304   4.084  0.4278 -0.5753 -0.6092
  422MOL0     C58120   4.617   4.179   4.039 -0.0048  0.3309  0.2532
  422MOL0     C58121   4.698   4.186   3.903  0.0976  0.3164  0.0192
  422MOL0     O58122   4.825   4.116   3.907  0.1430  0.3035 -0.3955
  422MOL0     C58123   4.897   4.106   3.787  1.0890  1.0295 -0.0570
  422MOL0     C58124   5.033   4.067   3.791  0.0971  0.8107 -0.5289
  422MOL0     C58125   5.124   4.059   3.677  0.8240 -0.5444 -0.7160
  422MOL0     C58126   5.255   4.004   3.692 -0.4656 -0.1812  0.0954
  422MOL0     C58127   5.057   4.088   3.552 -1.4420  0.2664  0.2000
  422MOL0     C58128   5.126   4.069   3.417 -0.5631 -0.6799 -0.6859
  422MOL0     O58129   5.048   4.076   3.313 -0.7878 -0.2117  0.2895
  422MOL0     C58130   5.109   4.099   3.192  0.5968 -0.5873  0.2263
  422MOL0     C58131   5.048   4.038   3.081 -0.1655  0.5555 -0.1994
  422MOL0     C58132   5.106   4.056   2.954  0.3897  0.4711  0.5101
  422MOL0     C58133   5.218   4.125   2.934  0.5790 -0.2490 -0.0666
  422MOL0     O58134   5.266   4.133   2.809  0.1280 -0.3959 -0.2289
  422MOL0     C58135   5.398   4.185   2.792 -0.3665 -0.1740  0.8357
  422MOL0     C58136   5.445   4.173   2.644 -0.0064  0.2344 -0.5851
  422MOL0     C58137   5.584   4.222   2.627 -0.0408  0.4465  0.2446
  422MOL0     C58138   5.628   4.208   2.480 -0.0505 -0.7192 -0.3107
  422MOL0     C58139   5.770   4.266   2.473 -0.1467  0.0265 -1.2040
  422MOL0     C58140   5.821   4.296   2.324  0.2994  0.4021  0.9045
  422MOL0     C58141   5.970   4.339   2.321 -0.4342 -0.4085  1.1162
  422MOL0     C58142   6.027   4.344   2.176  0.5568 -0.0373 -0.1398
  422MOL0    Cl58143   6.181   4.430   2.179  0.0451  0.4942  0.2824
  422MOL0     C58144   5.280   4.193   3.045 -0.1727  0.0392  0.5729
  422MOL0     C58145   5.225   4.177   3.168  0.2849 -0.5635  0.1038
  422MOL0     O58146   5.249   4.051   3.410  0.3763  0.6436 -0.8548
  422MOL0     C58147   4.917   4.118   3.548 -0.0682 -0.0308 -0.2480
  422MOL0     C58148   4.834   4.127   3.662 -0.7678 -0.4403  0.4620
  422MOL0     N58149   4.261   4.155   4.212  0.6897 -0.2940 -0.4633
  422MOL0     N58150   4.131   4.182   4.197 -0.3799  0.4715  0.0957
  422MOL0     C58151   2.975   4.327   4.025  0.1076 -0.3769 -0.1977
  422MOL0     C58152   2.854   4.252   4.032 -0.2114 -0.7873 -0.8950
  422MOL0     C58153   2.565   3.915   3.956  0.3823  0.0496  0.0168
  422MOL0     C58154   2.520   3.893   4.091 -0.1082 -0.9744 -0.1030
  422MOL0     C58155   2.397   3.838   4.120 -0.3206  0.8994 -0.2738
  422MOL0     C58156   2.306   3.800   4.023  0.1199 -0.2769  0.7560
  422MOL0     O58157   2.200   3.734   4.059  0.4210 -0.2728 -0.2212
  422MOL0     C58158   2.142   3.628   3.985  0.2458 -0.7910  0.1399
  422MOL0     C58159   2.059   3.515   4.054 -0.6076 -0.2941 -0.1958
  422MOL0     C58160   2.144   3.388   4.082 -0.5639 -0.8428  0.5985
  422MOL0     C58161   2.084   3.295   4.186  0.4743 -0.3225 -0.0868
  422MOL0     C58162   1.951   3.258   4.141  0.1577  0.1299 -0.5476
  422MOL0     C58163   1.838   3.222   4.115 -0.9877  0.8611  0.2598
  422MOL0     C58164   2.340   3.823   3.897 -0.3927 -0.2873  0.0522
  422MOL0     C58165   2.467   3.877   3.859  0.0353  0.1565 -0.5515
  422MOL0     C58166   2.488   3.904   3.711  0.9177 -0.2999 -0.0989
  422MOL0     H58167   2.992   3.942   3.990 -3.0647 -0.3922  1.1970
  422MOL0     H58168   3.203   4.078   3.985  0.7488 -0.4761  2.3410
  422MOL0     H58169   3.210   4.428   4.167 -0.1134  1.8774  0.2873
  422MOL0     H58170   3.182   4.540   4.028 -0.4884 -0.5273  0.2484
  422MOL0     H58171   3.425   4.522   3.980 -1.7231  1.4370 -0.3419
  422MOL0     H58172   3.379   4.586   4.128 -1.4312  0.1646 -0.0079
  422MOL0     H58173   3.407   4.316   4.207  0.2725  0.7525  0.5079
  422MOL0     H58174   3.488   4.307   4.052  3.5986 -0.4764  1.6857
  422MOL0     H58175   3.635   4.494   4.110 -0.3468  0.2199 -0.6510
  422MOL0     H58176   3.578   4.499   4.271  0.4189  0.0966 -0.6485
  422MOL0     H58177   3.709   4.267   4.129 -2.4978 -1.7793  1.2999
  422MOL0     H58178   3.659   4.250   4.290 -2.8175  0.5677 -1.2012
  422MOL0     H58179   3.822   4.453   4.357 -1.6497 -0.2565  0.0074
  422MOL0     H58180   3.903   4.307   4.324  1.1157  0.5951 -0.1157
  422MOL0     H58181   4.003   4.520   4.222  2.1066  0.2659 -2.5273
  422MOL0     H58182   3.870   4.516   4.109  3.0242  2.5105 -1.4955
  422MOL0     H58183   3.942   4.268   4.051  0.6302 -0.4531  0.6696
  422MOL0     H58184   4.026   4.392   3.995 -4.2014 -0.1186 -0.6130
  422MOL0     H58185   4.280   4.466   4.133  0.7407  0.2611  1.5238
  422MOL0     H58186   4.523   4.186   4.269 -2.2655 -0.9612  1.3626
  422MOL0     H58187   4.498   4.363   4.289 -0.1285  0.9121 -0.5727
  422MOL0     H58188   4.486   4.341   4.008  0.4184  3.1559  0.9717
  422MOL0     H58189   4.636   4.378   4.091  3.6596 -3.8687  0.0145
  422MOL0     H58190   4.693   4.141   4.108  0.8695  1.7712  0.1328
  422MOL0     H58191   4.538   4.104   4.036  1.5548 -1.4260  0.8571
  422MOL0     H58192   4.642   4.123   3.833  0.8912 -1.1684  0.6883
  422MOL0     H58193   4.720   4.287   3.868  0.3917  0.1235 -0.3499
  422MOL0     H58194   5.078   4.034   3.884 -0.0631  0.2493 -0.6444
  422MOL0     H58195   5.334   4.054   3.634  0.0981 -1.6754 -0.4812
  422MOL0     H58196   5.249   3.904   3.648 -0.7483  0.5881 -1.6969
  422MOL0     H58197   5.292   3.989   3.794 -0.2491 -0.7886 -0.0676
  422MOL0     H58198   4.962   3.977   3.107  0.1531  0.1317 -0.1347
  422MOL0     H58199   5.073   4.002   2.866  1.5107  0.1372  0.2840
  422MOL0     H58200   5.415   4.292   2.810  1.5426 -0.5133  1.3162
  422MOL0     H58201   5.461   4.130   2.862  0.8310 -0.0329 -0.0943
  422MOL0     H58202   5.423   4.070   2.613  0.7702  0.2684 -1.2605
  422MOL0     H58203   5.381   4.231   2.577 -0.8378  1.7247  1.3869
  422MOL0     H58204   5.658   4.159   2.678 -0.8214 -0.5752  0.1356
  422MOL0     H58205   5.601   4.323   2.667  2.7422 -0.3570  1.3096
  422MOL0     H58206   5.565   4.267   2.413 -1.0640 -3.2646 -1.7617
  422MOL0     H58207   5.621   4.104   2.447 -0.8583 -0.0148 -2.5286
  422MOL0     H58208   5.783   4.360   2.528 -2.6087 -1.0033  1.4225
  422MOL0     H58209   5.827   4.187   2.522 -1.6356  0.6023  1.6766
  422MOL0     H58210   5.759   4.367   2.270  1.3069  1.3987  1.0301
  422MOL0     H58211   5.824   4.201   2.270  0.7222 -0.8650  3.0460
  422MOL0     H58212   6.041   4.272   2.371  0.6714 -1.9157 -2.2163
  422MOL0     H58213   5.974   4.441   2.361 -2.9798  0.2542 -0.0818
  422MOL0     H58214   5.946   4.385   2.115  0.8580  1.8210  0.6439
  422MOL0     H58215   6.042   4.244   2.134  0.0430  0.6654 -2.0898
  422MOL0     H58216   5.370   4.250   3.025 -0.5738  0.2186 -0.8462
  422MOL0     H58217   5.263   4.234   3.253 -2.8022 -0.1838  1.3683
  422MOL0     H58218   4.866   4.132   3.454  0.3765 -0.6772 -0.5907
  422MOL0     H58219   4.729   4.155   3.655 -0.6304 -0.1255 -0.4027
  422MOL0     H58220   2.970   4.433   4.048  0.6466 -0.2333 -0.7189
  422MOL0     H58221   2.766   4.306   4.066 -0.6845 -0.9932 -1.7629
  422MOL0     H58222   2.594   3.918   4.166  1.4964 -1.2657 -1.5083
  422MOL0     H58223   2.369   3.822   4.224 -0.6895  1.4829 -0.2779
  422MOL0     H58224   2.077   3.672   3.909 -1.9014 -0.3393  2.1283
  422MOL0     H58225   2.221   3.571   3.934  0.8494 -0.8869  1.1555
  422MOL0     H58226   1.969   3.489   3.997 -0.6196  0.2363 -0.4183
  422MOL0     H58227   2.023   3.545   4.153 -0.9434 -3.0429  0.5918
  422MOL0     H58228   2.150   3.337   3.986 -3.0624  0.6628 -0.4733
  422MOL0     H58229   2.241   3.418   4.122 -2.2867  3.1069  2.4642
  422MOL0     H58230   2.076   3.340   4.286 -1.1675 -1.6960  0.4549
  422MOL0     H58231   2.136   3.200   4.203  0.3275 -0.1417  1.5892
  422MOL0     H58232   1.748   3.165   4.100 -0.7684  0.4883  0.3430
  422MOL0     H58233   2.277   3.798   3.813  1.0519 -0.1902 -1.1030
  422MOL0     H58234   2.552   3.989   3.685 -0.8947  0.8256 -1.1174
  422MOL0     H58235   2.519   3.816   3.653 -1.9847 -0.6067 -1.3360
  422MOL0     H58236   2.391   3.931   3.667  0.3424 -0.5176  1.0164
  423MOL0     O58237   7.766  10.902   9.812 -0.0549  0.2526 -0.9425
  423MOL0     C58238   7.717  10.982   9.735 -0.2741  0.4343  0.0411
  423MOL0     O58239   7.785  11.065   9.652  0.8407  0.6937 -0.1764
  423MOL0     C58240   7.917  11.070   9.638  0.8308 -0.2247  0.8143
  423MOL0     C58241   7.953  11.111   9.510 -0.6063 -0.6375  0.0048
  423MOL0     C58242   8.083  11.106   9.469 -0.3828 -0.0477  0.2364
  423MOL0     C58243   8.182  11.104   9.566 -0.5030  0.0326  0.6244
  423MOL0     O58244   8.313  11.125   9.528 -0.9008  0.4423  0.9154
  423MOL0     C58245   8.425  11.097   9.606 -0.7892 -0.0249 -0.8329
  423MOL0     C58246   8.547  11.077   9.523 -1.0145 -0.3624  0.7204
  423MOL0     C58247   8.680  11.107   9.593 -0.3900 -0.1340 -0.3406
  423MOL0     C58248   8.772  11.201   9.517  0.4220  0.3290 -0.1457
  423MOL0     C58249   8.912  11.222   9.586  0.5901  0.1316  0.3871
  423MOL0     C58250   9.017  11.283   9.500 -0.5795  0.1151  0.4373
  423MOL0     C58251   9.080  11.193   9.389  0.2444 -0.2485 -0.2822
  423MOL0     C58252   9.193  11.252   9.307 -0.5220  0.3585 -0.2813
  423MOL0     N58253   9.205  11.178   9.182  0.1583 -1.2895 -0.5462
  423MOL0     C58254   9.119  11.197   9.069 -0.2829 -0.6273 -0.3601
  423MOL0     C58255   9.177  11.145   8.967  0.6538  0.9076  0.2976
  423MOL0     C58256   9.118  11.145   8.829  0.0162 -0.1261  0.3156
  423MOL0     C58257   9.198  11.060   8.726 -0.0024  0.6270  0.1173
  423MOL0     C58258   9.186  10.909   8.749 -0.5699  0.4572 -0.0412
  423MOL0     C58259   9.323  10.848   8.772  0.0336 -0.4434 -0.2547
  423MOL0     O58260   9.401  10.860   8.648  1.0370  0.1428 -0.6444
  423MOL0     C58261   9.535  10.858   8.656 -0.0608 -1.1568 -0.0081
  423MOL0     C58262   9.592  10.849   8.530  0.1231  0.3675 -0.2695
  423MOL0     C58263   9.729  10.875   8.508 -0.0023 -1.1924  0.5241
  423MOL0     C58264   9.782  10.867   8.370  0.3116  0.4316  0.7265
  423MOL0     C58265   9.806  10.918   8.617 -0.4332 -0.5525  0.3584
  423MOL0     C58266   9.949  10.948   8.596 -0.0366 -0.3396  0.0737
  423MOL0     O58267  10.038  10.899   8.686 -0.0651 -0.4952 -0.4436
  423MOL0     C58268  10.156  10.961   8.714 -0.3222 -0.0051  0.0819
  423MOL0     C58269  10.275  10.945   8.635  0.2461 -0.7067 -0.4743
  423MOL0     C58270  10.390  11.021   8.671  0.3136  0.6100  0.2520
  423MOL0     C58271  10.388  11.098   8.788 -0.4570  0.4106  0.8318
  423MOL0     O58272  10.498  11.156   8.843  0.1818 -0.1139  1.0870
  423MOL0     C58273  10.629  11.100   8.810 -0.5818 -0.2394 -0.3705
  423MOL0     C58274  10.737  11.112   8.918  0.1352  0.1668  0.0259
  423MOL0     C58275  10.790  11.255   8.917  0.1201  0.3705 -0.5643
  423MOL0     C58276  10.884  11.270   9.039 -0.0324  0.1550 -0.3596
  423MOL0     C58277  10.960  11.404   9.044  0.1742 -0.6423  0.1055
  423MOL0     C58278  11.073  11.413   9.149  0.9316  0.2888  0.4837
  423MOL0     C58279  11.193  11.333   9.108 -0.1460 -0.5863  0.9244
  423MOL0     C58280  11.233  11.333   8.956  0.0236 -0.2161 -0.3287
  423MOL0    Cl58281  11.398  11.281   8.942  0.0225 -0.1930  0.0280
  423MOL0     C58282  10.275  11.113   8.862 -0.0959  0.3251  0.1032
  423MOL0     C58283  10.157  11.047   8.826 -0.7092  0.0010  0.2400
  423MOL0     O58284   9.977  11.027   8.508 -0.9064 -0.0778 -0.2210
  423MOL0     C58285   9.744  10.929   8.746  0.0894 -0.2463 -0.6959
  423MOL0     C58286   9.613  10.896   8.765 -0.0459 -0.2753 -0.2612
  423MOL0     N58287   9.291  11.085   9.010 -1.3202  0.2866  0.9115
  423MOL0     N58288   9.303  11.104   9.136 -0.4634  0.1049 -1.3363
  423MOL0     C58289   8.146  11.090   9.705 -0.2843  0.6180 -0.0512
  423MOL0     C58290   8.014  11.059   9.736  0.5387  0.4891  0.5563
  423MOL0     C58291   7.568  10.987   9.728  0.4940  0.3103 -0.6462
  423MOL0     C58292   7.490  10.885   9.795  0.4529 -0.2474 -0.1194
  423MOL0     C58293   7.349  10.887   9.792  0.4027 -0.1411  0.3154
  423MOL0     C58294   7.277  10.986   9.723  0.3788  0.1231  0.5844
  423MOL0     O58295   7.136  10.997   9.720 -0.7556  0.3826  0.9931
  423MOL0     C58296   7.050  11.056   9.620 -0.1057  0.4216 -0.2084
  423MOL0     C58297   6.906  11.052   9.658 -0.7796 -0.3504  0.0729
  423MOL0     C58298   6.882  11.156   9.769  0.5185  0.7407  0.7849
  423MOL0     C58299   6.730  11.179   9.807  0.2892  0.4951  0.5684
  423MOL0     C58300   6.652  11.241   9.694 -0.6393 -0.3511 -0.6221
  423MOL0     C58301   6.588  11.303   9.608 -0.4710  0.9080 -0.0510
  423MOL0     C58302   7.350  11.093   9.662 -0.1672  0.6736  0.1954
  423MOL0     C58303   7.493  11.100   9.672 -0.6980  0.0161 -0.3126
  423MOL0     C58304   7.546  11.231   9.622 -0.6504  0.2576  0.0907
  423MOL0     H58305   7.878  11.120   9.432 -1.9307 -1.6997  1.1207
  423MOL0     H58306   8.099  11.101   9.362 -0.4290  2.5373  0.0385
  423MOL0     H58307   8.399  11.008   9.665  1.0365  0.9730  1.6364
  423MOL0     H58308   8.442  11.178   9.678  3.6566 -1.1578 -0.3237
  423MOL0     H58309   8.546  10.975   9.482 -2.2445 -0.5973  1.3019
  423MOL0     H58310   8.538  11.148   9.441  0.5267  0.3202  1.1089
  423MOL0     H58311   8.666  11.168   9.683  1.6417  1.0848 -0.7634
  423MOL0     H58312   8.744  11.020   9.610  2.0659  1.6116 -0.1094
  423MOL0     H58313   8.782  11.169   9.413  1.0746  0.1669 -0.0405
  423MOL0     H58314   8.720  11.297   9.511 -0.0421  0.0364 -0.8992
  423MOL0     H58315   8.945  11.126   9.628 -2.9874 -1.7672 -0.7363
  423MOL0     H58316   8.899  11.278   9.679 -2.6042 -0.7017  0.5457
  423MOL0     H58317   8.991  11.375   9.448  1.2220  2.1314  2.8868
  423MOL0     H58318   9.091  11.318   9.572 -0.0058  1.7391 -0.8790
  423MOL0     H58319   9.002  11.177   9.314  0.7169  0.3190 -0.9177
  423MOL0     H58320   9.106  11.098   9.437  0.1449  0.2547  0.7895
  423MOL0     H58321   9.171  11.358   9.289 -0.6810  0.4363  0.3320
  423MOL0     H58322   9.283  11.249   9.369 -1.3998 -0.2307  1.0116
  423MOL0     H58323   9.019  11.238   9.081 -0.9337 -2.3232  0.3083
  423MOL0     H58324   9.105  11.249   8.797 -0.0300  0.8608  3.2441
  423MOL0     H58325   9.011  11.119   8.830 -0.0554  0.1469 -0.1571
  423MOL0     H58326   9.157  11.080   8.627 -0.3852 -0.3532  0.0640
  423MOL0     H58327   9.304  11.086   8.722  0.5587 -0.6130  3.5539
  423MOL0     H58328   9.131  10.889   8.842  0.2061  2.4791  0.9240
  423MOL0     H58329   9.129  10.859   8.670  2.0930 -2.2994 -0.4200
  423MOL0     H58330   9.371  10.899   8.856 -1.8822 -2.9647  2.5862
  423MOL0     H58331   9.319  10.744   8.804  1.8103 -0.2073  0.8551
  423MOL0     H58332   9.541  10.817   8.440  1.5159  0.7114 -1.2253
  423MOL0     H58333   9.884  10.827   8.363  0.8958  2.0118 -6.0127
  423MOL0     H58334   9.779  10.960   8.314 -0.2835  0.1153  0.2223
  423MOL0     H58335   9.706  10.809   8.316  1.2919  0.1136 -0.3535
  423MOL0     H58336  10.270  10.883   8.546 -0.9666 -3.7999  1.5810
  423MOL0     H58337  10.477  11.007   8.608  0.5661 -0.0898  0.7458
  423MOL0     H58338  10.616  10.995   8.780  0.4258 -1.1385  2.0555
  423MOL0     H58339  10.676  11.149   8.724  2.7681  1.7525  2.3598
  423MOL0     H58340  10.692  11.079   9.012 -2.0223  2.4715 -0.0966
  423MOL0     H58341  10.817  11.041   8.894 -1.1392 -1.4205  0.3204
  423MOL0     H58342  10.707  11.325   8.931  0.8010  0.5628  3.4076
  423MOL0     H58343  10.836  11.271   8.819 -1.7480 -1.0610 -1.7387
  423MOL0     H58344  10.960  11.191   9.036 -0.2652 -0.0551 -2.3599
  423MOL0     H58345  10.824  11.266   9.131 -0.3694  2.2063 -0.4349
  423MOL0     H58346  10.999  11.417   8.942 -2.2011 -0.8820 -0.8886
  423MOL0     H58347  10.894  11.490   9.055  0.2057 -0.6030 -0.0084
  423MOL0     H58348  11.039  11.377   9.247 -1.7988 -0.4890 -0.6787
  423MOL0     H58349  11.101  11.518   9.164 -2.1110  1.4065 -1.0061
  423MOL0     H58350  11.184  11.228   9.138 -1.4927 -0.7928 -0.0748
  423MOL0     H58351  11.273  11.369   9.173 -0.8034 -2.7328  3.0679
  423MOL0     H58352  11.230  11.437   8.922 -3.0649 -0.6576 -1.7519
  423MOL0     H58353  11.173  11.282   8.880 -0.6475  1.8233 -1.2401
  423MOL0     H58354  10.287  11.165   8.957 -2.3680 -2.0669  1.8377
  423MOL0     H58355  10.067  11.048   8.887 -0.2001 -1.8943  1.0742
  423MOL0     H58356   9.796  10.969   8.833 -0.1366  1.8103 -1.4441
  423MOL0     H58357   9.575  10.921   8.864  2.1929  1.5886  0.2256
  423MOL0     H58358   8.217  11.088   9.788  0.7008 -1.4021 -0.8752
  423MOL0     H58359   7.979  11.041   9.837 -1.9854 -1.3402 -0.5349
  423MOL0     H58360   7.535  10.805   9.852  0.9405 -1.2362 -1.8184
  423MOL0     H58361   7.290  10.798   9.816  0.7470 -0.1043  1.3245
  423MOL0     H58362   7.079  11.158   9.591 -1.6351  1.2665  1.0347
  423MOL0     H58363   7.058  10.996   9.529  0.5196 -1.8427  1.2619
  423MOL0     H58364   6.873  10.952   9.686  1.1021 -0.8103  0.8084
  423MOL0     H58365   6.844  11.074   9.570 -1.7642 -3.7087 -0.2082
  423MOL0     H58366   6.938  11.133   9.860  1.9637 -0.8607 -0.4347
  423MOL0     H58367   6.933  11.250   9.744  1.5712  0.6871  2.5635
  423MOL0     H58368   6.720  11.239   9.897  0.6334  2.5455 -0.7033
  423MOL0     H58369   6.674  11.086   9.822 -1.8021  1.4806 -0.6628
  423MOL0     H58370   6.531  11.350   9.531 -0.0596  0.9976 -0.3045
  423MOL0     H58371   7.284  11.158   9.605 -0.7139  0.8631  1.0260
  423MOL0     H58372   7.643  11.262   9.661 -0.5866  0.8909 -0.5436
  423MOL0     H58373   7.555  11.234   9.513  3.1327 -0.1555  0.2595
  423MOL0     H58374   7.473  11.303   9.660 -3.1566 -2.8602  1.6461
  424MOL0     O58375   6.714   5.609   2.641  0.2447  0.1666  0.1962
  424MOL0     C58376   6.776   5.702   2.681 -0.2647  0.0856 -0.4435
  424MOL0     O58377   6.728   5.829   2.696  0.2859 -0.0499 -0.0393
  424MOL0     C58378   6.600   5.859   2.649  0.7220 -0.2926 -0.3935
  424MOL0     C58379   6.479   5.832   2.714 -0.5856  0.2364 -0.1297
  424MOL0     C58380   6.353   5.857   2.656  0.5108  0.6283  0.1503
  424MOL0     C58381   6.346   5.921   2.530 -0.5434 -0.6371  0.0417
  424MOL0     O58382   6.231   5.949   2.467  0.1403 -0.0391  0.0838
  424MOL0     C58383   6.105   5.955   2.544 -0.9210  0.8116 -0.0798
  424MOL0     C58384   6.001   6.013   2.434 -1.1272 -0.4360 -0.2576
  424MOL0     C58385   6.024   6.169   2.394 -0.6404  0.2868 -0.8798
  424MOL0     C58386   5.919   6.200   2.285 -0.1018 -0.0287  0.6920
  424MOL0     C58387   5.926   6.350   2.255  0.0016  0.4265 -0.1763
  424MOL0     C58388   5.801   6.394   2.184 -0.9978  0.1488  0.0213
  424MOL0     C58389   5.803   6.547   2.174 -0.2135 -0.2160  0.9027
  424MOL0     C58390   5.757   6.606   2.032  0.3681  0.5884  0.0072
  424MOL0     N58391   5.851   6.572   1.929 -0.0945  0.0954  0.6359
  424MOL0     C58392   5.959   6.653   1.890  0.2133  0.5517  0.5959
  424MOL0     C58393   5.986   6.614   1.765  0.0075  0.6281  0.8282
  424MOL0     C58394   6.086   6.678   1.666  0.5060  0.6749  0.0007
  424MOL0     C58395   6.228   6.618   1.665 -0.5966  0.7400  0.6476
  424MOL0     C58396   6.294   6.596   1.793 -0.2211 -0.1335  0.0934
  424MOL0     C58397   6.454   6.562   1.771 -0.1840  0.4707 -0.5886
  424MOL0     O58398   6.517   6.672   1.714  0.1002 -0.0762  0.2422
  424MOL0     C58399   6.642   6.647   1.670 -0.8844 -0.1063  0.3802
  424MOL0     C58400   6.681   6.715   1.558 -0.3278 -0.9198 -0.3080
  424MOL0     C58401   6.809   6.710   1.509  1.1215 -0.4131  0.1108
  424MOL0     C58402   6.845   6.798   1.395  0.4748 -0.0655  0.9936
  424MOL0     C58403   6.901   6.632   1.576  0.2276  0.0248 -0.3579
  424MOL0     C58404   7.053   6.621   1.548  0.3914  0.1401 -0.2826
  424MOL0     O58405   7.118   6.721   1.483  0.4915 -0.1499 -0.2097
  424MOL0     C58406   7.227   6.681   1.413 -0.6129 -0.4818  0.1372
  424MOL0     C58407   7.350   6.688   1.483  0.5464 -0.1200  0.6837
  424MOL0     C58408   7.466   6.669   1.403  0.5268 -0.1442 -0.6802
  424MOL0     C58409   7.464   6.634   1.269 -1.0597 -0.0408 -0.8683
  424MOL0     O58410   7.588   6.624   1.211 -0.0460  0.6818  0.1658
  424MOL0     C58411   7.584   6.581   1.071  0.3838  0.0665 -0.2126
  424MOL0     C58412   7.734   6.557   1.034  0.2655  0.3171  0.2376
  424MOL0     C58413   7.807   6.452   1.124 -0.5217 -0.0117 -0.5363
  424MOL0     C58414   7.932   6.517   1.192 -0.8479  0.0681 -0.0832
  424MOL0     C58415   8.012   6.413   1.280  0.3519 -0.9762 -0.5705
  424MOL0     C58416   8.162   6.440   1.286  0.6822 -0.6551  1.0949
  424MOL0     C58417   8.193   6.579   1.344  0.8773 -0.2182 -0.1855
  424MOL0     C58418   8.335   6.589   1.394 -0.6402  0.2525  0.4300
  424MOL0    Cl58419   8.388   6.757   1.414  0.6609 -0.3210 -0.1283
  424MOL0     C58420   7.349   6.618   1.202  0.2236 -0.3402  0.0286
  424MOL0     C58421   7.228   6.638   1.279 -0.6592 -0.2761  0.5194
  424MOL0     O58422   7.102   6.517   1.595  0.5128  0.4353 -0.1321
  424MOL0     C58423   6.861   6.556   1.691 -0.8355 -0.2535 -0.0844
  424MOL0     C58424   6.729   6.563   1.732  0.2141  0.0164 -0.5572
  424MOL0     N58425   5.890   6.521   1.724 -0.9951  0.4935 -0.9670
  424MOL0     N58426   5.813   6.490   1.822 -0.7191  0.8889 -0.0089
  424MOL0     C58427   6.467   5.968   2.470  1.4814  0.5434 -0.0148
  424MOL0     C58428   6.584   5.922   2.525 -0.1304 -0.1933 -0.0409
  424MOL0     C58429   6.913   5.688   2.727 -0.1965  0.5373 -0.7335
  424MOL0     C58430   6.992   5.804   2.732  0.7351  0.5662  0.6642
  424MOL0     C58431   7.130   5.796   2.742 -0.7790 -0.0284  0.4808
  424MOL0     C58432   7.187   5.674   2.770  0.6662 -0.0029  0.5708
  424MOL0     O58433   7.323   5.679   2.806  0.1233  0.8513  0.5144
  424MOL0     C58434   7.401   5.624   2.705  0.0121 -0.6653  0.1760
  424MOL0     C58435   7.539   5.610   2.762 -0.4310  1.0606 -0.1796
  424MOL0     C58436   7.630   5.554   2.656  0.5468 -0.0319  0.3907
  424MOL0     C58437   7.769   5.526   2.718  0.5116  0.4064  0.1331
  424MOL0     C58438   7.870   5.537   2.616 -0.8390  0.5889  0.4901
  424MOL0     C58439   7.959   5.571   2.542  0.9540 -1.3906 -0.5489
  424MOL0     C58440   7.120   5.555   2.769  0.1670 -0.1775  0.3801
  424MOL0     C58441   6.986   5.559   2.747  0.2385 -0.1115 -0.3104
  424MOL0     C58442   6.919   5.421   2.744  0.4013  0.5392 -0.6554
  424MOL0     H58443   6.498   5.785   2.810  1.6441  4.8287  2.0442
  424MOL0     H58444   6.262   5.818   2.701 -1.1013  2.5563 -1.2529
  424MOL0     H58445   6.120   6.020   2.630 -1.2308  0.7853 -0.0076
  424MOL0     H58446   6.069   5.857   2.578 -2.5375  1.0329 -1.0660
  424MOL0     H58447   6.010   5.957   2.340 -0.2327  0.4967 -0.7479
  424MOL0     H58448   5.897   6.005   2.469 -1.4796 -4.3704 -1.6316
  424MOL0     H58449   6.010   6.224   2.488  1.8258  1.6356 -1.2137
  424MOL0     H58450   6.125   6.192   2.359  1.0252 -4.6182 -0.0180
  424MOL0     H58451   5.949   6.142   2.198  0.5489 -1.1176  1.6078
  424MOL0     H58452   5.817   6.173   2.316 -0.6291  0.5910 -0.4599
  424MOL0     H58453   6.001   6.373   2.179  0.5327  0.9657  0.5095
  424MOL0     H58454   5.943   6.417   2.340  0.7732  2.7781 -2.0776
  424MOL0     H58455   5.800   6.352   2.083  1.3575  0.2559 -0.0934
  424MOL0     H58456   5.708   6.363   2.232 -0.5526 -1.0565  0.1412
  424MOL0     H58457   5.901   6.593   2.192 -0.4914  0.5735  0.4776
  424MOL0     H58458   5.725   6.586   2.240  0.1555  0.9712  0.6634
  424MOL0     H58459   5.658   6.572   1.999  0.1554  1.7923 -0.6795
  424MOL0     H58460   5.747   6.715   2.022  0.3698  0.5055 -0.9151
  424MOL0     H58461   6.011   6.730   1.945 -0.8971  0.8241  1.2911
  424MOL0     H58462   6.103   6.777   1.710  1.3093 -0.6591  2.8759
  424MOL0     H58463   6.038   6.673   1.567 -1.6615 -0.4231  1.0375
  424MOL0     H58464   6.220   6.515   1.628  2.5310  1.3420 -2.2140
  424MOL0     H58465   6.289   6.666   1.587  1.0452 -3.1884 -0.7588
  424MOL0     H58466   6.301   6.692   1.844 -2.8726  0.2682 -0.1959
  424MOL0     H58467   6.255   6.517   1.858  0.9559 -0.4104  0.4872
  424MOL0     H58468   6.501   6.537   1.866 -0.1478  1.3463 -0.3719
  424MOL0     H58469   6.476   6.481   1.701  2.8954 -1.4376  2.2701
  424MOL0     H58470   6.614   6.778   1.499  0.5089 -0.5037 -0.8403
  424MOL0     H58471   6.941   6.762   1.357 -0.0957 -2.7420  1.8884
  424MOL0     H58472   6.865   6.902   1.426  1.2306  0.4617 -1.0773
  424MOL0     H58473   6.771   6.791   1.315  0.2938  3.1831  0.7122
  424MOL0     H58474   7.354   6.736   1.580 -0.8811  3.2372 -0.7930
  424MOL0     H58475   7.558   6.682   1.460 -0.0497 -1.8319  0.7683
  424MOL0     H58476   7.529   6.487   1.060  0.7437 -0.5279  2.5417
  424MOL0     H58477   7.542   6.660   1.008 -0.0115  2.1555  2.4818
  424MOL0     H58478   7.730   6.527   0.929  1.4787 -0.4534  0.4025
  424MOL0     H58479   7.795   6.648   1.034  0.2359  0.3684 -1.2430
  424MOL0     H58480   7.843   6.369   1.062  0.0881 -0.1260 -0.0377
  424MOL0     H58481   7.737   6.408   1.195  0.1604 -0.9349 -0.4178
  424MOL0     H58482   7.896   6.592   1.263  0.1914 -1.7851  2.5995
  424MOL0     H58483   7.998   6.560   1.117  0.0815 -2.5184 -0.8646
  424MOL0     H58484   7.970   6.414   1.381  0.4369 -0.4749 -0.5343
  424MOL0     H58485   7.988   6.313   1.244 -4.1387 -0.5910  0.7226
  424MOL0     H58486   8.200   6.432   1.183  3.8875 -2.5365  2.2609
  424MOL0     H58487   8.218   6.369   1.348 -0.0401 -1.2762  1.0607
  424MOL0     H58488   8.130   6.592   1.433  2.1144  0.0843  0.6588
  424MOL0     H58489   8.177   6.663   1.275 -1.8282 -0.2530  0.2771
  424MOL0     H58490   8.395   6.553   1.309  2.4555  4.9019  0.2315
  424MOL0     H58491   8.349   6.528   1.483 -0.3009  3.1850  2.5500
  424MOL0     H58492   7.336   6.583   1.100  0.8425  0.9254 -0.5100
  424MOL0     H58493   7.139   6.617   1.220  0.0190  2.7706 -1.9112
  424MOL0     H58494   6.930   6.506   1.758 -0.6186 -0.7447 -0.6633
  424MOL0     H58495   6.700   6.510   1.823 -0.2319  1.4169  0.1384
  424MOL0     H58496   6.451   6.021   2.376  2.3813  0.5798 -0.1538
  424MOL0     H58497   6.676   5.962   2.483  1.8417 -1.8861  2.4251
  424MOL0     H58498   6.953   5.904   2.715  0.9950  0.5422 -0.1550
  424MOL0     H58499   7.193   5.883   2.736 -0.3125 -0.2492  1.7958
  424MOL0     H58500   7.358   5.527   2.678 -1.5077  0.0906 -0.2799
  424MOL0     H58501   7.407   5.682   2.612 -0.5088 -1.2502 -0.2294
  424MOL0     H58502   7.548   5.545   2.849  1.8112  1.9694  0.3522
  424MOL0     H58503   7.573   5.711   2.787 -1.8076  1.8771 -1.4182
  424MOL0     H58504   7.581   5.467   2.611 -0.3159  1.3303 -1.4426
  424MOL0     H58505   7.636   5.631   2.579  0.2958 -1.7564 -1.4287
  424MOL0     H58506   7.769   5.430   2.771 -0.2935  0.9428  1.1505
  424MOL0     H58507   7.789   5.595   2.801 -1.9275  0.1831  0.9965
  424MOL0     H58508   8.040   5.611   2.484  0.2863  2.2546  0.7669
  424MOL0     H58509   7.175   5.463   2.789  0.8416  0.5809  2.1695
  424MOL0     H58510   6.828   5.413   2.803 -1.2187 -1.8188 -3.1970
  424MOL0     H58511   6.896   5.397   2.640  0.0302  1.4048 -0.7754
  424MOL0     H58512   6.988   5.350   2.792 -0.8792  0.6064  1.3912
  425MOL0     O58513   0.497   9.263   0.106 -0.1503  0.2838 -0.6747
  425MOL0     C58514   0.397   9.322   0.066  0.1685  0.0524  0.2858
  425MOL0     O58515   0.372   9.457   0.061  0.3463 -0.1039 -0.4285
  425MOL0     C58516   0.476   9.539   0.103  0.0635 -0.1356 -0.6290
  425MOL0     C58517   0.488   9.576   0.233  0.6563 -0.1532 -0.2669
  425MOL0     C58518   0.605   9.648   0.272  1.3340  0.6845  0.4921
  425MOL0     C58519   0.703   9.683   0.182 -0.1715  0.2754  0.4173
  425MOL0     O58520   0.812   9.754   0.212 -0.9120 -0.5377 -0.4326
  425MOL0     C58521   0.849   9.786   0.343  0.1166  0.0687 -0.9751
  425MOL0     C58522   1.005   9.811   0.352  0.1244 -0.5471 -0.6404
  425MOL0     C58523   1.045   9.945   0.296  0.6075 -0.1461  0.5651
  425MOL0     C58524   1.195   9.964   0.279  0.9501 -0.0478  0.2204
  425MOL0     C58525   1.219  10.105   0.239 -0.1202 -0.2287  0.7816
  425MOL0     C58526   1.360  10.115   0.170  0.2109  0.1675 -0.0019
  425MOL0     C58527   1.386  10.265   0.122  0.4691 -0.5730 -0.2305
  425MOL0     C58528   1.504  10.263   0.029 -0.3591 -0.3161 -1.1488
  425MOL0     N58529   1.619  10.248   0.123 -0.0636 -0.0674  0.0766
  425MOL0     C58530   1.712  10.150   0.151  1.0723  0.7360  0.1769
  425MOL0     C58531   1.794  10.198   0.244 -0.7050  0.5894  0.6803
  425MOL0     C58532   1.916  10.121   0.302 -1.3485  0.3857  0.0267
  425MOL0     C58533   2.002  10.065   0.192  0.6017  0.3224 -0.8716
  425MOL0     C58534   2.130   9.992   0.250  0.1588  0.8091 -0.7624
  425MOL0     C58535   2.194   9.883   0.153  0.0857  0.0722 -0.1046
  425MOL0     O58536   2.265   9.941   0.047 -0.3512 -0.2066 -0.4188
  425MOL0     C58537   2.406   9.928   0.051  0.7807 -0.0352 -0.1233
  425MOL0     C58538   2.484   9.995   0.145 -0.1869  0.8733 -0.1917
  425MOL0     C58539   2.626   9.978   0.157  0.0820  0.3030 -0.7644
  425MOL0     C58540   2.697  10.052   0.267 -0.3267  0.5197 -0.1013
  425MOL0     C58541   2.696   9.900   0.067 -0.2006  0.1327  0.8855
  425MOL0     C58542   2.830   9.852   0.084 -0.5419 -0.1654  1.2637
  425MOL0     O58543   2.904   9.854  -0.026 -0.1919  0.0643 -0.9779
  425MOL0     C58544   3.042   9.839  -0.007 -0.5761 -0.0777  0.6043
  425MOL0     C58545   3.130   9.934   0.042 -0.1978  0.1467 -0.6804
  425MOL0     C58546   3.267   9.916   0.049 -0.0828  0.0473  0.4576
  425MOL0     C58547   3.327   9.798  -0.007 -0.0918 -0.1704 -0.7301
  425MOL0     O58548   3.461   9.796  -0.014  0.6773 -0.6984 -0.6104
  425MOL0     C58549   3.527   9.669  -0.018  0.4836 -0.2194 -0.3829
  425MOL0     C58550   3.652   9.690   0.066 -0.3552  0.5066  0.0898
  425MOL0     C58551   3.738   9.792  -0.006  0.1853  0.0113 -0.1712
  425MOL0     C58552   3.888   9.761   0.004  0.6469 -0.5801 -0.3587
  425MOL0     C58553   3.966   9.871  -0.066 -0.0555  0.8388 -0.7855
  425MOL0     C58554   4.108   9.827  -0.083 -0.2653 -0.7666 -0.2837
  425MOL0     C58555   4.199   9.937  -0.139 -0.9463 -0.7727  1.3803
  425MOL0     C58556   4.349   9.902  -0.154 -1.3310 -0.1295 -0.2919
  425MOL0    Cl58557   4.372   9.801  -0.303 -0.1931 -0.2538  0.1180
  425MOL0     C58558   3.238   9.703  -0.066  0.7110 -0.8640  0.6930
  425MOL0     C58559   3.096   9.726  -0.071  0.7214 -1.0954 -0.1367
  425MOL0     O58560   2.859   9.811   0.198  0.3729 -0.3621 -0.2668
  425MOL0     C58561   2.625   9.839  -0.038 -0.5689 -0.6677 -1.0251
  425MOL0     C58562   2.483   9.849  -0.042  0.9355  0.0387 -0.1039
  425MOL0     N58563   1.756  10.328   0.273  0.2397 -0.3661  0.6019
  425MOL0     N58564   1.655  10.355   0.197 -0.2549 -0.6094 -0.6686
  425MOL0     C58565   0.680   9.656   0.044  0.0303 -0.9468 -0.3174
  425MOL0     C58566   0.578   9.566   0.007  0.4876  0.5135 -0.4583
  425MOL0     C58567   0.281   9.231   0.031 -0.3351  0.0528  0.3862
  425MOL0     C58568   0.310   9.103  -0.023  0.3267  0.3418 -0.7339
  425MOL0     C58569   0.214   9.011  -0.061 -0.3169  0.4073  0.2505
  425MOL0     C58570   0.079   9.039  -0.032 -0.1208 -0.1857 -0.1230
  425MOL0     O58571  -0.011   8.938  -0.063  0.2756  0.0482 -0.4505
  425MOL0     C58572  -0.152   8.954  -0.034  0.5772  0.6762  0.3295
  425MOL0     C58573  -0.233   8.819  -0.040 -0.2229 -0.5073  0.5097
  425MOL0     C58574  -0.185   8.702   0.049 -0.3642 -0.1336  1.2648
  425MOL0     C58575  -0.307   8.619   0.087  0.3580  0.4394  0.2728
  425MOL0     C58576  -0.257   8.527   0.176 -0.0433 -0.2133 -0.3554
  425MOL0     C58577  -0.213   8.460   0.261  0.1309 -0.6421  0.1323
  425MOL0     C58578   0.050   9.172   0.017  0.6847  0.0058  0.4098
  425MOL0     C58579   0.148   9.261   0.059  0.0035  0.6836  0.3155
  425MOL0     C58580   0.098   9.400   0.109 -0.3924  0.3515 -0.1309
  425MOL0     H58581   0.413   9.554   0.307  0.2091  3.1443  0.4136
  425MOL0     H58582   0.621   9.671   0.377 -1.4420  3.3226  0.4625
  425MOL0     H58583   0.826   9.701   0.409  0.9519  1.0243  0.6069
  425MOL0     H58584   0.786   9.870   0.371 -1.4997 -0.7569 -1.9617
  425MOL0     H58585   1.042   9.807   0.455  1.3185  1.3583 -0.9508
  425MOL0     H58586   1.048   9.723   0.304 -3.1400 -3.2972  1.0305
  425MOL0     H58587   0.988   9.967   0.206 -1.7386  2.2353  2.4585
  425MOL0     H58588   1.002  10.018   0.365  0.9604  0.4457  0.1719
  425MOL0     H58589   1.242   9.943   0.376 -1.6028 -0.0537  1.5331
  425MOL0     H58590   1.233   9.895   0.203  1.0984  0.5551 -0.2658
  425MOL0     H58591   1.227  10.168   0.328  4.3298  0.2835  0.2070
  425MOL0     H58592   1.146  10.144   0.167  2.4948 -1.1812 -2.6454
  425MOL0     H58593   1.430  10.085   0.248  0.4394  0.3843 -0.1185
  425MOL0     H58594   1.337  10.048   0.087 -0.0664  0.0030  0.2077
  425MOL0     H58595   1.397  10.331   0.209  2.3899  0.8706 -1.4913
  425MOL0     H58596   1.296  10.280   0.062  0.5341 -0.4693 -0.3028
  425MOL0     H58597   1.484  10.187  -0.047 -5.6137  0.3523 -0.8308
  425MOL0     H58598   1.501  10.360  -0.022 -2.3149  0.6445  0.6274
  425MOL0     H58599   1.711  10.049   0.112  2.1384  1.5870 -2.2686
  425MOL0     H58600   1.891  10.053   0.384 -0.7196  2.3306  1.9455
  425MOL0     H58601   1.984  10.192   0.350 -2.1963  0.4536  1.1872
  425MOL0     H58602   1.933   9.990   0.151 -0.6408 -0.4352  2.3135
  425MOL0     H58603   2.034  10.143   0.122  0.9151  1.3490  0.3829
  425MOL0     H58604   2.206  10.068   0.271  0.8995 -0.2699  0.6681
  425MOL0     H58605   2.093   9.943   0.340 -1.3205  0.2224 -1.6505
  425MOL0     H58606   2.266   9.819   0.206  0.7311  1.3119  0.5619
  425MOL0     H58607   2.110   9.830   0.108 -0.3061  1.4459 -1.0297
  425MOL0     H58608   2.439  10.060   0.219  1.3062  2.8583 -0.9376
  425MOL0     H58609   2.637  10.138   0.296  3.3385  2.6547  1.8311
  425MOL0     H58610   2.796  10.084   0.234  0.1990 -0.7751  0.1307
  425MOL0     H58611   2.700   9.974   0.344 -0.0650  1.0175  0.3996
  425MOL0     H58612   3.081  10.023   0.080  1.8535  0.9141  0.3419
  425MOL0     H58613   3.329   9.991   0.098 -2.2269  1.6972  0.8216
  425MOL0     H58614   3.463   9.601   0.039 -2.1062  2.2605 -0.1216
  425MOL0     H58615   3.536   9.650  -0.125  0.5839 -0.9319 -0.2553
  425MOL0     H58616   3.623   9.709   0.170  1.1930 -0.6531  0.7685
  425MOL0     H58617   3.706   9.595   0.072 -0.1789  0.6082  0.1216
  425MOL0     H58618   3.714   9.895   0.023  3.7095  1.3176 -1.3341
  425MOL0     H58619   3.711   9.798  -0.112  0.4149 -2.9863 -0.4730
  425MOL0     H58620   3.904   9.666  -0.049 -3.0233 -0.9152 -1.1513
  425MOL0     H58621   3.919   9.749   0.108 -0.1856  1.0334  0.1131
  425MOL0     H58622   3.929   9.903  -0.164 -0.7647  3.3523  0.2219
  425MOL0     H58623   3.966   9.957   0.002  0.1244  0.4195 -0.2459
  425MOL0     H58624   4.115   9.744  -0.154  3.4445 -0.9327  0.0776
  425MOL0     H58625   4.147   9.787   0.011  0.4615 -2.5828 -1.3077
  425MOL0     H58626   4.193  10.024  -0.074 -1.2724  1.0765 -1.0025
  425MOL0     H58627   4.169   9.990  -0.230  1.8721 -1.0064  0.2000
  425MOL0     H58628   4.377   9.836  -0.071 -0.3359  0.2974 -0.2792
  425MOL0     H58629   4.407   9.994  -0.161 -0.7566 -0.3397  1.3010
  425MOL0     H58630   3.263   9.617  -0.127 -3.4504 -3.3897  2.1054
  425MOL0     H58631   3.031   9.662  -0.130 -0.7449 -0.4173  0.6945
  425MOL0     H58632   2.685   9.791  -0.115 -0.1593 -0.8443 -0.5990
  425MOL0     H58633   2.424   9.808  -0.124 -1.1771  1.3249  0.7058
  425MOL0     H58634   0.757   9.682  -0.028  0.9520 -0.6888  0.7311
  425MOL0     H58635   0.575   9.539  -0.098  1.1878  2.2599 -0.9605
  425MOL0     H58636   0.416   9.085  -0.042  0.2285 -4.4596  1.7974
  425MOL0     H58637   0.244   8.915  -0.101 -2.1005 -0.1301  0.1409
  425MOL0     H58638  -0.162   8.994   0.067  0.7581 -0.1913  0.7017
  425MOL0     H58639  -0.204   9.027  -0.097 -1.4713  0.1556  1.3528
  425MOL0     H58640  -0.220   8.782  -0.142  0.5708 -2.2957  1.2206
  425MOL0     H58641  -0.340   8.841  -0.031 -0.1962 -0.6760  1.3233
  425MOL0     H58642  -0.109   8.643  -0.002 -1.1163 -1.6670  1.8619
  425MOL0     H58643  -0.137   8.747   0.136 -2.3576  0.5248  2.0759
  425MOL0     H58644  -0.354   8.573  -0.000 -3.4065  2.2733  1.1042
  425MOL0     H58645  -0.384   8.681   0.136 -0.8075 -0.0918 -0.8434
  425MOL0     H58646  -0.146   8.396   0.315  0.3336 -2.0397 -1.6524
  425MOL0     H58647  -0.051   9.204   0.039  2.0419  4.4325  1.0577
  425MOL0     H58648   0.141   9.414   0.208 -3.7487  0.5084  1.4352
  425MOL0     H58649   0.132   9.487   0.052 -0.0647  0.3078 -0.0027
  425MOL0     H58650  -0.011   9.395   0.121 -0.3134  1.3083  1.1528
  426MOL0     O58651   3.132   6.975   4.399  0.4401 -0.0950  0.3408
  426MOL0     C58652   3.151   7.072   4.327 -0.3700 -0.3532 -0.9584
  426MOL0     O58653   3.244   7.074   4.235  0.4784  0.5665  0.7419
  426MOL0     C58654   3.315   6.958   4.208 -0.2147 -0.1555 -0.1236
  426MOL0     C58655   3.458   6.969   4.192  0.4993  0.6215  0.2141
  426MOL0     C58656   3.536   6.860   4.158  0.5281 -0.7989  0.5538
  426MOL0     C58657   3.476   6.738   4.119 -0.3919  0.0073  0.5388
  426MOL0     O58658   3.551   6.629   4.057 -0.3784  0.3046 -0.7912
  426MOL0     C58659   3.696   6.645   4.048  0.6934 -0.8361  0.4652
  426MOL0     C58660   3.742   6.512   4.006  0.0458 -0.1210  0.3208
  426MOL0     C58661   3.890   6.509   3.977 -0.6607  0.0800  0.3820
  426MOL0     C58662   3.962   6.368   3.948 -0.8156 -0.4842  0.2082
  426MOL0     C58663   4.113   6.387   3.967 -0.4721  0.1946 -0.1678
  426MOL0     C58664   4.180   6.479   3.866 -0.9357  0.6201 -0.0716
  426MOL0     C58665   4.335   6.492   3.898 -0.1863 -0.4543  0.0756
  426MOL0     C58666   4.377   6.579   4.013 -0.7904 -0.1288  0.6212
  426MOL0     N58667   4.523   6.596   4.016 -0.7976  0.1130 -0.4675
  426MOL0     C58668   4.591   6.705   3.969  0.2434 -0.2428  0.2384
  426MOL0     C58669   4.705   6.709   4.044 -0.7523 -0.0031 -0.2499
  426MOL0     C58670   4.806   6.816   4.048  0.1335 -0.2084 -0.0595
  426MOL0     C58671   4.860   6.828   3.908 -0.0950 -0.0579  0.6873
  426MOL0     C58672   4.992   6.895   3.902 -0.2028 -0.0115 -0.8670
  426MOL0     C58673   5.045   6.881   3.759  0.0216  0.6319  0.5521
  426MOL0     O58674   5.148   6.975   3.724 -0.4628  0.1063  0.7591
  426MOL0     C58675   5.281   6.944   3.750 -0.5344 -0.7350 -0.0197
  426MOL0     C58676   5.369   7.047   3.729 -0.3098 -0.3423 -0.2596
  426MOL0     C58677   5.507   7.035   3.751  0.4854 -0.4752  0.1083
  426MOL0     C58678   5.599   7.152   3.707  0.4451  0.2207 -0.5558
  426MOL0     C58679   5.561   6.911   3.805  0.3596  0.0753 -0.0891
  426MOL0     C58680   5.701   6.897   3.839 -0.7158  0.6109  0.0241
  426MOL0     O58681   5.741   6.760   3.822  0.0823 -0.8082  0.3652
  426MOL0     C58682   5.866   6.721   3.868  0.1927 -0.0764  0.0575
  426MOL0     C58683   5.870   6.601   3.937  0.3964 -0.5829 -0.0265
  426MOL0     C58684   5.985   6.559   4.006 -0.0220 -0.5339 -0.3318
  426MOL0     C58685   6.103   6.620   3.989 -1.0151 -0.0486 -0.5780
  426MOL0     O58686   6.205   6.576   4.065  0.2210 -0.3483 -0.5032
  426MOL0     C58687   6.343   6.626   4.042 -0.0097  0.5972 -0.2933
  426MOL0     C58688   6.421   6.552   4.155 -0.0009  0.2849 -0.6513
  426MOL0     C58689   6.556   6.623   4.186 -0.8117 -0.2372  0.2116
  426MOL0     C58690   6.643   6.537   4.279  0.1017  0.1015 -0.8085
  426MOL0     C58691   6.778   6.610   4.298  0.4284  0.5471  0.5053
  426MOL0     C58692   6.876   6.544   4.395  0.3466 -0.3914  0.1370
  426MOL0     C58693   6.942   6.412   4.347  0.1413 -0.5507  0.0817
  426MOL0     C58694   7.088   6.403   4.382  0.3628  0.0085 -0.1589
  426MOL0    Cl58695   7.128   6.387   4.564  0.6364 -0.2077 -0.2130
  426MOL0     C58696   6.110   6.736   3.899 -0.1091 -1.2052  0.2038
  426MOL0     C58697   5.991   6.786   3.840 -0.0569  0.1509  0.3277
  426MOL0     O58698   5.773   6.990   3.876  0.3540  0.0706  0.1384
  426MOL0     C58699   5.473   6.813   3.843  0.3509  0.0822 -0.8412
  426MOL0     C58700   5.329   6.834   3.821 -0.9121  0.3947 -0.0013
  426MOL0     N58701   4.696   6.606   4.135 -0.6122 -0.3375  0.0879
  426MOL0     N58702   4.599   6.535   4.111  0.5089  0.3767 -0.2327
  426MOL0     C58703   3.341   6.726   4.131  0.3799  0.1504 -0.7036
  426MOL0     C58704   3.261   6.831   4.187  0.2251 -0.6236  0.4274
  426MOL0     C58705   3.070   7.199   4.346  0.4034 -0.1941 -0.1097
  426MOL0     C58706   2.961   7.198   4.429 -0.0204  0.3615 -0.5220
  426MOL0     C58707   2.871   7.306   4.453 -0.7151  0.0118  0.2053
  426MOL0     C58708   2.891   7.423   4.383  0.2723 -0.3928  0.0498
  426MOL0     O58709   2.797   7.525   4.390  0.1118  0.5354  0.4148
  426MOL0     C58710   2.806   7.633   4.303 -0.2251 -0.1991  0.2573
  426MOL0     C58711   2.674   7.673   4.258 -0.0750 -0.4723 -0.3567
  426MOL0     C58712   2.588   7.708   4.386 -0.6318  0.3259 -0.0006
  426MOL0     C58713   2.478   7.801   4.354  0.0274  0.2872  0.6734
  426MOL0     C58714   2.435   7.869   4.481  1.3419 -0.6471  0.4594
  426MOL0     C58715   2.391   7.940   4.565  0.1976 -0.1483 -0.1969
  426MOL0     C58716   3.008   7.430   4.311 -0.0923  0.3353 -0.7875
  426MOL0     C58717   3.096   7.324   4.291  0.0190  0.0254  0.8578
  426MOL0     C58718   3.215   7.343   4.197  0.3596 -0.3706 -0.2300
  426MOL0     H58719   3.505   7.059   4.232  3.1753 -0.0383 -1.2200
  426MOL0     H58720   3.639   6.893   4.148  1.3724 -2.8940  1.7979
  426MOL0     H58721   3.732   6.671   4.148 -3.6759  1.2213  1.7812
  426MOL0     H58722   3.715   6.725   3.977 -1.6314  0.9266  1.7003
  426MOL0     H58723   3.717   6.445   4.089 -0.8568 -0.4999 -0.2392
  426MOL0     H58724   3.692   6.463   3.921 -1.5838 -1.0441  1.7466
  426MOL0     H58725   3.920   6.575   3.895  0.1968 -1.5664 -0.6828
  426MOL0     H58726   3.940   6.559   4.061 -1.1106  0.9338  0.1610
  426MOL0     H58727   3.933   6.291   4.020 -0.3243 -4.1232 -3.1574
  426MOL0     H58728   3.943   6.323   3.850  0.0341  1.1607 -0.7564
  426MOL0     H58729   4.153   6.285   3.969  1.1642  0.7913 -1.2264
  426MOL0     H58730   4.135   6.437   4.062 -0.1307 -0.4313  0.0861
  426MOL0     H58731   4.167   6.444   3.764 -2.4426  0.6197  0.1057
  426MOL0     H58732   4.134   6.578   3.872 -2.3479 -0.0597  0.6509
  426MOL0     H58733   4.383   6.535   3.809  3.9195 -0.1609  2.2217
  426MOL0     H58734   4.369   6.388   3.908 -2.6598 -1.2304  1.2840
  426MOL0     H58735   4.321   6.673   4.021 -0.7395 -0.0781  0.3998
  426MOL0     H58736   4.347   6.522   4.102 -0.2264 -3.4063 -1.1350
  426MOL0     H58737   4.560   6.774   3.892  1.9873  1.3897  0.9049
  426MOL0     H58738   4.888   6.787   4.115 -0.6918  0.2529  1.1840
  426MOL0     H58739   4.755   6.906   4.082 -2.3932 -1.3914 -0.4481
  426MOL0     H58740   4.879   6.730   3.863  1.9705 -0.2605  1.8536
  426MOL0     H58741   4.779   6.876   3.852 -0.2417 -1.2855 -0.1981
  426MOL0     H58742   4.988   6.998   3.936 -0.8130 -1.0366  2.5300
  426MOL0     H58743   5.050   6.845   3.980 -0.4809  1.0497  0.0453
  426MOL0     H58744   5.074   6.776   3.749 -0.2222  0.6243 -0.1335
  426MOL0     H58745   4.953   6.896   3.702 -0.0725  0.6793  0.7183
  426MOL0     H58746   5.339   7.142   3.685 -0.1660 -0.6313 -0.9856
  426MOL0     H58747   5.665   7.108   3.631  2.2420  0.3535  0.8526
  426MOL0     H58748   5.660   7.177   3.794  0.6904 -0.8176 -0.4199
  426MOL0     H58749   5.547   7.237   3.663 -4.1055 -2.7374 -1.6052
  426MOL0     H58750   5.784   6.540   3.960  0.9247 -0.8991  1.2373
  426MOL0     H58751   5.986   6.467   4.064 -0.9376 -1.7922 -2.2234
  426MOL0     H58752   6.395   6.614   3.947  1.1676  2.1649  0.1101
  426MOL0     H58753   6.341   6.732   4.068 -0.4493  0.2280  1.3260
  426MOL0     H58754   6.365   6.548   4.249 -1.3620 -2.5614 -1.4988
  426MOL0     H58755   6.426   6.447   4.125 -1.1806 -0.3898  1.2789
  426MOL0     H58756   6.546   6.715   4.245  1.8325  0.2664 -0.0102
  426MOL0     H58757   6.608   6.646   4.092 -1.2651  0.4973  0.1289
  426MOL0     H58758   6.663   6.436   4.242 -0.8424 -0.1603 -0.6352
  426MOL0     H58759   6.605   6.526   4.381 -0.1715  1.9576 -0.6799
  426MOL0     H58760   6.833   6.604   4.203  1.1918  0.1336  0.9662
  426MOL0     H58761   6.768   6.715   4.326  0.5591  0.3653  1.2319
  426MOL0     H58762   6.830   6.529   4.493  1.5789 -1.4615  0.5749
  426MOL0     H58763   6.954   6.621   4.402 -1.8695  1.9084  0.9951
  426MOL0     H58764   6.928   6.417   4.238 -0.7086  1.5256  0.2425
  426MOL0     H58765   6.896   6.319   4.381 -1.6986  0.6864  1.1122
  426MOL0     H58766   7.132   6.495   4.343 -0.5027  0.2413 -0.6299
  426MOL0     H58767   7.136   6.320   4.329  0.2608  0.8601 -1.6498
  426MOL0     H58768   6.204   6.790   3.884 -0.1857 -0.1033  3.1038
  426MOL0     H58769   5.986   6.884   3.795 -0.2713 -0.7096 -1.6330
  426MOL0     H58770   5.501   6.730   3.908 -0.0037  1.5058  1.2558
  426MOL0     H58771   5.258   6.771   3.874  0.1733  0.1601  1.2036
  426MOL0     H58772   3.287   6.634   4.113 -0.6561  0.5496  0.2229
  426MOL0     H58773   3.153   6.823   4.198  0.1487 -1.1221 -0.6481
  426MOL0     H58774   2.952   7.123   4.507 -0.6768 -0.0357 -0.9728
  426MOL0     H58775   2.783   7.290   4.514 -0.8477 -0.3524 -0.0802
  426MOL0     H58776   2.855   7.721   4.345 -1.2382  0.1568  0.7253
  426MOL0     H58777   2.856   7.607   4.210 -3.7272 -0.2775 -1.7830
  426MOL0     H58778   2.612   7.609   4.194  0.2070  0.9072 -2.0567
  426MOL0     H58779   2.687   7.767   4.205  2.5372 -0.1666  0.6890
  426MOL0     H58780   2.543   7.622   4.436  2.3818  0.5697  3.5882
  426MOL0     H58781   2.649   7.761   4.461  0.9465 -0.6523 -0.5590
  426MOL0     H58782   2.391   7.750   4.311  0.4604 -1.4687  1.7588
  426MOL0     H58783   2.518   7.876   4.285  0.0544  1.5934  2.0718
  426MOL0     H58784   2.344   8.001   4.640  2.3756 -0.6379  1.7037
  426MOL0     H58785   3.046   7.514   4.253  0.1632 -0.4275 -1.7421
  426MOL0     H58786   3.209   7.441   4.149 -0.3965 -1.2995 -2.1444
  426MOL0     H58787   3.305   7.348   4.260 -2.2118  2.2112  3.7119
  426MOL0     H58788   3.236   7.274   4.114 -4.1338  0.9970 -2.8381
  427MOL0     O58789   6.192   8.970   8.444  0.0009 -0.1239 -0.3577
  427MOL0     C58790   6.176   8.956   8.321  0.0465 -0.3493 -0.0148
  427MOL0     O58791   6.264   8.898   8.233 -0.7166  0.2049  0.1384
  427MOL0     C58792   6.383   8.843   8.260  0.1345 -0.1782 -1.1127
  427MOL0     C58793   6.450   8.869   8.378 -0.2784 -0.2944  0.4872
  427MOL0     C58794   6.575   8.823   8.408 -0.0418  0.2013  0.5550
  427MOL0     C58795   6.634   8.746   8.308 -0.5962  0.3800 -0.2719
  427MOL0     O58796   6.768   8.718   8.332 -0.6478  0.1809 -0.5555
  427MOL0     C58797   6.858   8.758   8.233 -0.9333 -0.0371 -0.6405
  427MOL0     C58798   6.994   8.758   8.297 -0.0862 -0.2082  0.2679
  427MOL0     C58799   7.051   8.612   8.320 -0.3453 -0.1532  0.4245
  427MOL0     C58800   7.198   8.623   8.277 -0.0787 -1.0500  0.3331
  427MOL0     C58801   7.275   8.488   8.270 -0.2454  0.8382  0.2915
  427MOL0     C58802   7.431   8.504   8.297 -0.5325 -0.1240 -0.5953
  427MOL0     C58803   7.526   8.392   8.259  0.5449  0.2756 -1.1893
  427MOL0     C58804   7.502   8.274   8.349 -0.5791 -0.0030 -0.2784
  427MOL0     N58805   7.597   8.166   8.313  0.5899  0.5380  0.1521
  427MOL0     C58806   7.732   8.175   8.329  0.2795  0.1294  0.0378
  427MOL0     C58807   7.786   8.067   8.275  0.6733 -0.5676 -0.1177
  427MOL0     C58808   7.929   8.056   8.249  0.0179 -0.3377 -0.3009
  427MOL0     C58809   7.968   7.908   8.224  0.0199 -0.2919  0.2750
  427MOL0     C58810   7.958   7.833   8.357  0.0925  0.2165  0.3715
  427MOL0     C58811   8.008   7.687   8.331 -0.1137 -0.4108  0.1080
  427MOL0     O58812   8.140   7.687   8.294 -0.1565  0.0626 -0.3085
  427MOL0     C58813   8.207   7.566   8.304 -0.0600 -0.0623  0.0286
  427MOL0     C58814   8.156   7.435   8.307 -0.2663 -0.7870 -0.5660
  427MOL0     C58815   8.236   7.317   8.304  0.2886  0.0034 -0.0772
  427MOL0     C58816   8.163   7.184   8.325  0.0623 -0.1585  0.7147
  427MOL0     C58817   8.375   7.335   8.295  0.2440  1.0458  0.3596
  427MOL0     C58818   8.475   7.217   8.296 -0.0251 -0.7872  0.9834
  427MOL0     O58819   8.607   7.260   8.323 -0.1984  0.5760  0.1175
  427MOL0     C58820   8.721   7.183   8.291  0.4561  0.4388  0.0622
  427MOL0     C58821   8.727   7.046   8.311  1.1068  0.5736  0.2875
  427MOL0     C58822   8.846   6.982   8.294  0.2582 -0.1827 -0.7431
  427MOL0     C58823   8.966   7.053   8.246  0.3807 -0.1450  0.7458
  427MOL0     O58824   9.079   6.983   8.228 -0.2707  0.2144  0.0479
  427MOL0     C58825   9.189   7.050   8.163 -1.0441 -0.5598  0.3374
  427MOL0     C58826   9.295   6.937   8.157  0.7527  0.0096 -0.8907
  427MOL0     C58827   9.363   6.933   8.296  0.4306 -0.0175 -0.0916
  427MOL0     C58828   9.474   6.833   8.305 -0.8502  0.3414  0.1117
  427MOL0     C58829   9.550   6.842   8.438 -0.4793  0.0361  0.4677
  427MOL0     C58830   9.702   6.861   8.419 -1.0933  0.0531 -1.3362
  427MOL0     C58831   9.774   6.854   8.550 -0.1697 -1.0350  0.4201
  427MOL0     C58832   9.923   6.834   8.542 -1.5192  0.2732 -0.3031
  427MOL0    Cl58833  10.011   6.959   8.459  0.0013 -0.4150  0.0927
  427MOL0     C58834   8.952   7.193   8.218  0.1666 -0.2305  0.2706
  427MOL0     C58835   8.830   7.258   8.250  0.6655 -0.0113 -0.3360
  427MOL0     O58836   8.440   7.111   8.259 -0.7134 -0.1576 -0.1045
  427MOL0     C58837   8.428   7.467   8.286 -0.2407 -0.7098  0.4023
  427MOL0     C58838   8.338   7.581   8.288 -1.2829  0.0228  0.3718
  427MOL0     N58839   7.682   7.982   8.250 -0.2740  0.0020  0.4643
  427MOL0     N58840   7.572   8.048   8.261 -0.7448  0.2215 -0.3658
  427MOL0     C58841   6.571   8.714   8.194  0.0511  0.0451  0.1476
  427MOL0     C58842   6.447   8.759   8.170  0.3686 -0.1998  0.3179
  427MOL0     C58843   6.058   9.021   8.252 -0.8129 -0.5370  0.2950
  427MOL0     C58844   6.043   9.025   8.110 -0.4033 -0.6809 -0.1485
  427MOL0     C58845   5.930   9.059   8.041 -0.3158 -0.7340 -0.7805
  427MOL0     C58846   5.823   9.108   8.110  0.0462 -1.1461 -0.8888
  427MOL0     O58847   5.712   9.152   8.042  0.6692 -0.0283 -0.0240
  427MOL0     C58848   5.600   9.064   8.037 -0.2203  0.3732 -0.2855
  427MOL0     C58849   5.463   9.131   8.029  0.3528  0.2324  0.9911
  427MOL0     C58850   5.457   9.233   8.141 -0.0552 -0.8954 -0.1560
  427MOL0     C58851   5.331   9.315   8.133 -0.5289  0.3790 -0.6672
  427MOL0     C58852   5.213   9.233   8.154 -0.2971 -0.6353  0.0344
  427MOL0     C58853   5.114   9.159   8.148 -0.7725  0.6745  0.1464
  427MOL0     C58854   5.823   9.112   8.248 -0.8234  0.0630  0.5606
  427MOL0     C58855   5.942   9.073   8.318 -0.3256  1.1222 -0.7002
  427MOL0     C58856   5.923   9.076   8.465 -0.7372  0.4407 -0.1328
  427MOL0     H58857   6.415   8.939   8.453 -1.3047 -0.3491  0.0737
  427MOL0     H58858   6.614   8.850   8.506  0.9730  0.8422 -0.0071
  427MOL0     H58859   6.836   8.859   8.197  0.1131  0.2841 -0.4028
  427MOL0     H58860   6.866   8.690   8.148  0.6904 -0.1956 -0.3966
  427MOL0     H58861   7.063   8.814   8.233 -0.1554  0.4220  0.7353
  427MOL0     H58862   6.989   8.799   8.398 -2.8217 -1.8241  0.9055
  427MOL0     H58863   7.032   8.580   8.423 -2.3559  1.5154  0.6457
  427MOL0     H58864   7.012   8.542   8.246 -2.7639  0.2917  1.1851
  427MOL0     H58865   7.210   8.687   8.189 -4.0995 -0.6633 -0.1608
  427MOL0     H58866   7.240   8.683   8.357 -1.7238  0.6081  0.0225
  427MOL0     H58867   7.262   8.443   8.171  1.5552  0.7652  0.0549
  427MOL0     H58868   7.233   8.417   8.341  1.9640 -0.8306  0.0238
  427MOL0     H58869   7.455   8.591   8.234  0.6118  1.2937  1.6879
  427MOL0     H58870   7.453   8.539   8.398 -3.0064  2.7306 -0.8875
  427MOL0     H58871   7.627   8.433   8.264  0.6318 -0.0734  0.3694
  427MOL0     H58872   7.507   8.366   8.154 -2.3582  1.9994 -1.1954
  427MOL0     H58873   7.499   8.312   8.451 -4.1587 -0.3198 -0.1190
  427MOL0     H58874   7.406   8.222   8.333 -0.2665 -1.3726  1.9636
  427MOL0     H58875   7.791   8.258   8.368 -1.0846  0.9461  0.4464
  427MOL0     H58876   7.995   8.102   8.323 -2.2905  1.0142  1.0380
  427MOL0     H58877   7.945   8.109   8.155 -0.0166 -1.8593 -1.1848
  427MOL0     H58878   7.900   7.875   8.145 -1.5338  5.3150 -1.1862
  427MOL0     H58879   8.073   7.893   8.196  0.5801  0.1093  2.0425
  427MOL0     H58880   8.024   7.886   8.427 -0.2982  2.3880 -0.7941
  427MOL0     H58881   7.856   7.819   8.392  0.7605 -4.6418  1.0859
  427MOL0     H58882   7.987   7.623   8.417 -1.0317  1.4824  1.3527
  427MOL0     H58883   7.959   7.634   8.249 -3.6847  2.4399  0.1563
  427MOL0     H58884   8.050   7.421   8.324 -0.4131 -1.5793 -1.9483
  427MOL0     H58885   8.158   7.121   8.236 -2.9310 -1.0814  1.4485
  427MOL0     H58886   8.056   7.187   8.348 -0.0503  0.8129  0.1522
  427MOL0     H58887   8.218   7.128   8.402  3.3583  0.8902 -0.6924
  427MOL0     H58888   8.641   6.989   8.346 -0.2939  1.0968 -2.0292
  427MOL0     H58889   8.845   6.874   8.312 -0.7145  0.1511  1.5215
  427MOL0     H58890   9.168   7.089   8.063 -1.0831  0.7986  0.8557
  427MOL0     H58891   9.217   7.134   8.226  0.1554 -1.6816  1.3630
  427MOL0     H58892   9.248   6.839   8.145 -0.2663  0.4201 -0.4015
  427MOL0     H58893   9.362   6.956   8.072  1.5185 -0.2049 -0.3389
  427MOL0     H58894   9.296   6.917   8.381  1.5663 -0.7584  0.7081
  427MOL0     H58895   9.409   7.032   8.310 -3.7455  2.2342 -0.6165
  427MOL0     H58896   9.542   6.857   8.223 -0.3115  1.7465  0.9330
  427MOL0     H58897   9.434   6.733   8.290 -1.0624 -0.2430  3.6861
  427MOL0     H58898   9.519   6.927   8.500 -2.0996 -0.4959  0.4327
  427MOL0     H58899   9.526   6.749   8.490  1.2252 -1.7015 -1.6915
  427MOL0     H58900   9.720   6.956   8.369 -0.5518  1.6849  1.7363
  427MOL0     H58901   9.740   6.779   8.357 -0.8154 -0.0963 -0.9790
  427MOL0     H58902   9.731   6.771   8.607 -1.7492 -0.9266 -0.5486
  427MOL0     H58903   9.747   6.943   8.607 -0.4652  0.7186 -2.2804
  427MOL0     H58904   9.948   6.747   8.481  2.0465 -0.0708  1.4097
  427MOL0     H58905   9.967   6.823   8.641  3.2641 -0.0786 -2.1578
  427MOL0     H58906   9.031   7.251   8.172 -1.8210  1.6861 -0.9230
  427MOL0     H58907   8.821   7.365   8.234  0.8866  0.4133  2.0229
  427MOL0     H58908   8.535   7.485   8.278  0.1790 -3.3250 -0.9631
  427MOL0     H58909   8.377   7.682   8.284 -1.8981  0.2698  0.5541
  427MOL0     H58910   6.623   8.655   8.120 -0.8295  1.0853 -1.3594
  427MOL0     H58911   6.412   8.733   8.071 -0.3604  2.0475 -0.0551
  427MOL0     H58912   6.127   8.979   8.058 -0.8144 -1.7982  0.1435
  427MOL0     H58913   5.933   9.049   7.932 -3.2710 -1.6839 -0.8657
  427MOL0     H58914   5.614   8.984   7.964  1.7443 -0.6212  1.0865
  427MOL0     H58915   5.604   9.005   8.129  2.4530 -1.4479 -1.4141
  427MOL0     H58916   5.384   9.056   8.040 -1.0247  0.9831 -2.2744
  427MOL0     H58917   5.449   9.164   7.925  1.9759  0.6933  0.8933
  427MOL0     H58918   5.468   9.184   8.238 -0.1646  2.5412  1.7807
  427MOL0     H58919   5.539   9.304   8.126  1.8538 -2.6744  1.3114
  427MOL0     H58920   5.330   9.377   8.043  0.5905 -0.7293 -1.4806
  427MOL0     H58921   5.328   9.388   8.214 -0.5737  0.7676 -1.0167
  427MOL0     H58922   5.034   9.088   8.153 -0.4910  0.3022 -0.5670
  427MOL0     H58923   5.739   9.141   8.311 -0.5329 -0.7848  1.3725
  427MOL0     H58924   5.820   9.108   8.484 -0.3224  1.0492  1.1881
  427MOL0     H58925   5.928   8.974   8.504  3.0119  1.4004  2.3915
  427MOL0     H58926   5.991   9.145   8.516 -1.0316  1.8655 -1.6050
  428MOL0     O58927   8.791   2.369   3.374  0.3042  0.0826 -0.7706
  428MOL0     C58928   8.674   2.403   3.347 -0.2030  0.4566  0.3986
  428MOL0     O58929   8.611   2.524   3.382 -0.2029  0.5013  0.0346
  428MOL0     C58930   8.685   2.630   3.416 -0.5124  0.3173 -0.6282
  428MOL0     C58931   8.656   2.710   3.519 -0.0194 -0.1532  0.1946
  428MOL0     C58932   8.727   2.826   3.557 -0.1787 -0.3300 -0.2171
  428MOL0     C58933   8.847   2.851   3.486 -0.4225  0.9450 -0.5954
  428MOL0     O58934   8.921   2.964   3.510 -0.0090 -0.1326 -0.4486
  428MOL0     C58935   9.062   2.958   3.524  0.4648 -0.4699  0.3626
  428MOL0     C58936   9.104   3.096   3.595 -0.3390  0.2672 -0.1922
  428MOL0     C58937   9.255   3.115   3.588  0.1699 -0.6816 -0.5251
  428MOL0     C58938   9.297   3.265   3.621  0.8192  0.1178 -0.3131
  428MOL0     C58939   9.451   3.267   3.644 -0.5726 -0.0308 -0.4556
  428MOL0     C58940   9.497   3.403   3.688  0.1275  0.6074  0.1038
  428MOL0     C58941   9.645   3.424   3.686 -1.1049  0.1860  0.1470
  428MOL0     C58942   9.683   3.563   3.737 -0.9624  0.0508  0.1863
  428MOL0     N58943   9.822   3.611   3.715  0.2572  0.0344 -0.3875
  428MOL0     C58944   9.937   3.531   3.740 -0.0233 -0.1419 -0.1410
  428MOL0     C58945  10.041   3.613   3.732 -0.1492 -0.5355 -0.3085
  428MOL0     C58946  10.177   3.566   3.750 -0.2664  0.1141  0.6508
  428MOL0     C58947  10.256   3.649   3.855  0.0486 -0.7535 -0.1686
  428MOL0     C58948  10.396   3.589   3.878  0.2216  0.3717 -0.3992
  428MOL0     C58949  10.469   3.565   3.746  0.0982  0.5034  0.9465
  428MOL0     O58950  10.608   3.544   3.788 -0.8219 -0.9766 -0.3245
  428MOL0     C58951  10.695   3.647   3.773 -0.6320  0.3130 -0.5669
  428MOL0     C58952  10.815   3.641   3.844 -0.1166 -0.3434 -1.7414
  428MOL0     C58953  10.917   3.729   3.832  0.6965 -0.1381 -0.5683
  428MOL0     C58954  11.046   3.705   3.916  0.4794 -0.3339 -0.1427
  428MOL0     C58955  10.903   3.844   3.745  0.2556 -0.0205 -0.3668
  428MOL0     C58956  11.006   3.948   3.732  0.2608 -0.0474 -0.0882
  428MOL0     O58957  11.029   3.996   3.610 -0.3065 -0.3893 -0.8510
  428MOL0     C58958  11.143   4.066   3.585  0.0363  0.1143  0.1272
  428MOL0     C58959  11.280   4.030   3.621  0.0217 -0.1060  0.7504
  428MOL0     C58960  11.391   4.098   3.574 -0.5823  0.3664 -0.4955
  428MOL0     C58961  11.366   4.222   3.505  0.3677 -0.7170  0.2565
  428MOL0     O58962  11.464   4.299   3.451  0.3291 -0.5313 -0.6117
  428MOL0     C58963  11.577   4.323   3.541  0.1278  0.1149  0.8140
  428MOL0     C58964  11.614   4.472   3.517 -0.0767 -0.9253 -0.1350
  428MOL0     C58965  11.737   4.516   3.601 -0.4478 -0.2010 -0.5894
  428MOL0     C58966  11.865   4.489   3.521  0.3225 -0.0366 -0.2076
  428MOL0     C58967  11.986   4.558   3.577  0.7326  0.4701 -0.5465
  428MOL0     C58968  12.109   4.519   3.491 -0.0480 -1.1204 -0.2505
  428MOL0     C58969  12.225   4.629   3.495  0.6485  0.5579 -0.4030
  428MOL0     C58970  12.354   4.587   3.416 -0.2948  0.7628  0.4379
  428MOL0    Cl58971  12.504   4.657   3.509  0.2697  0.2069 -0.2571
  428MOL0     C58972  11.237   4.263   3.476  0.2278  0.4924 -0.5946
  428MOL0     C58973  11.127   4.179   3.507 -0.1761  0.0868 -0.4295
  428MOL0     O58974  11.063   3.989   3.834 -0.4791  0.3065 -0.1795
  428MOL0     C58975  10.787   3.844   3.654  0.0213  0.5203  0.0847
  428MOL0     C58976  10.686   3.746   3.671  0.7193 -0.6939 -0.1438
  428MOL0     N58977  10.000   3.738   3.689  0.1167  0.3385 -0.1709
  428MOL0     N58978   9.871   3.740   3.678 -0.2989 -0.5891  0.0766
  428MOL0     C58979   8.884   2.773   3.376  0.0958  0.3230 -0.4021
  428MOL0     C58980   8.796   2.669   3.335 -0.1632 -0.4522 -0.1051
  428MOL0     C58981   8.588   2.301   3.275 -0.9615 -0.4454 -0.2187
  428MOL0     C58982   8.453   2.304   3.300  0.0456 -0.4726 -0.0539
  428MOL0     C58983   8.360   2.212   3.245 -0.0641  1.3305 -0.3438
  428MOL0     C58984   8.406   2.109   3.158  0.0213  0.5479  0.1025
  428MOL0     O58985   8.331   2.000   3.109 -0.1235  0.5469  0.8490
  428MOL0     C58986   8.208   1.962   3.171  0.2510 -0.2669  0.9238
  428MOL0     C58987   8.202   1.807   3.165 -0.1460  0.1383  0.7127
  428MOL0     C58988   8.112   1.748   3.278  0.3665 -0.0467  0.2684
  428MOL0     C58989   7.967   1.788   3.265 -0.8327 -0.3236 -0.1025
  428MOL0     C58990   7.897   1.696   3.355  0.1783  0.3700 -0.6999
  428MOL0     C58991   7.830   1.623   3.429  0.2302  0.2127 -0.4820
  428MOL0     C58992   8.550   2.114   3.124  0.2763  0.3142  0.3202
  428MOL0     C58993   8.638   2.207   3.178 -0.2003 -0.2720  0.1553
  428MOL0     C58994   8.770   2.212   3.118 -0.2940  0.0429  0.0913
  428MOL0     H58995   8.575   2.693   3.590  0.0745 -1.1281  0.0695
  428MOL0     H58996   8.703   2.881   3.647  2.8718  0.3619  0.2959
  428MOL0     H58997   9.117   2.955   3.429  1.9247 -2.0761  1.1855
  428MOL0     H58998   9.100   2.881   3.593  2.2487 -0.9586 -1.0851
  428MOL0     H58999   9.061   3.170   3.526 -1.0941 -2.0231 -2.3424
  428MOL0     H59000   9.062   3.090   3.696  0.5375 -2.2181  0.0967
  428MOL0     H59001   9.299   3.057   3.670  0.0921  0.2532  0.1991
  428MOL0     H59002   9.294   3.071   3.496  1.0371  0.7799 -0.8878
  428MOL0     H59003   9.263   3.340   3.549  0.8270  1.9777  1.5646
  428MOL0     H59004   9.252   3.298   3.715  2.4205  1.3174  0.0682
  428MOL0     H59005   9.503   3.254   3.549 -1.7200  2.3567 -1.5247
  428MOL0     H59006   9.481   3.195   3.721 -1.9925  0.2128  0.3584
  428MOL0     H59007   9.440   3.478   3.633 -0.0497  0.0659 -0.4625
  428MOL0     H59008   9.465   3.415   3.792 -2.3918 -0.3255 -0.5049
  428MOL0     H59009   9.686   3.402   3.587 -3.0360  1.0396 -0.9191
  428MOL0     H59010   9.690   3.354   3.757 -0.0824 -1.1536 -1.7276
  428MOL0     H59011   9.618   3.640   3.694  2.3283  2.7148 -0.4128
  428MOL0     H59012   9.680   3.572   3.846  1.4297 -1.1370  0.4098
  428MOL0     H59013   9.934   3.426   3.765 -0.6493  0.1545  1.1104
  428MOL0     H59014  10.224   3.580   3.652 -2.4923  0.8888 -0.3830
  428MOL0     H59015  10.181   3.459   3.771 -1.2035  0.4551  2.8488
  428MOL0     H59016  10.264   3.752   3.821  0.0305 -1.0668 -1.1707
  428MOL0     H59017  10.195   3.641   3.945 -1.0875 -2.0917 -1.0157
  428MOL0     H59018  10.452   3.649   3.951 -0.6032 -2.2302  2.6126
  428MOL0     H59019  10.379   3.494   3.930 -0.0960  0.2024 -0.8077
  428MOL0     H59020  10.440   3.469   3.703  1.7372 -0.0502  0.9901
  428MOL0     H59021  10.452   3.649   3.678 -2.6203  0.8957  2.0068
  428MOL0     H59022  10.844   3.555   3.903 -0.4425  0.9477  0.3993
  428MOL0     H59023  11.065   3.795   3.975 -0.7605  3.0426 -4.3117
  428MOL0     H59024  11.128   3.686   3.845  0.6583  1.9173 -0.6177
  428MOL0     H59025  11.037   3.614   3.975 -1.7752  0.6285  1.0854
  428MOL0     H59026  11.299   3.939   3.676  0.0846  0.2489  1.3286
  428MOL0     H59027  11.488   4.054   3.592 -0.4147  0.9536  0.0474
  428MOL0     H59028  11.552   4.313   3.648 -2.4743 -0.7319  0.2083
  428MOL0     H59029  11.664   4.265   3.510  0.6905  0.3988  1.8028
  428MOL0     H59030  11.625   4.494   3.410 -2.5171  2.2062  0.0885
  428MOL0     H59031  11.525   4.527   3.550  0.5692  0.0329  0.0210
  428MOL0     H59032  11.745   4.462   3.695 -0.3040 -1.9724 -1.5836
  428MOL0     H59033  11.724   4.623   3.619  0.7772  0.4108 -2.8617
  428MOL0     H59034  11.859   4.525   3.418  2.2761  0.7881 -0.0873
  428MOL0     H59035  11.881   4.381   3.520 -2.1499 -0.5472  2.2905
  428MOL0     H59036  11.964   4.665   3.577 -0.7395  0.1871 -0.9076
  428MOL0     H59037  12.003   4.529   3.682 -1.0126  1.1319 -0.0485
  428MOL0     H59038  12.063   4.531   3.392 -3.6318  2.0622  1.5048
  428MOL0     H59039  12.149   4.421   3.516  0.6197 -1.1587 -1.3989
  428MOL0     H59040  12.257   4.639   3.600 -1.1811  1.7222  0.0837
  428MOL0     H59041  12.196   4.725   3.453  0.2885 -0.2745 -2.1636
  428MOL0     H59042  12.347   4.612   3.310 -2.0016  0.1225  0.3701
  428MOL0     H59043  12.354   4.478   3.422  1.2484  0.8282  3.1133
  428MOL0     H59044  11.230   4.363   3.432 -2.2920  0.5096 -0.3092
  428MOL0     H59045  11.031   4.221   3.480  0.0579 -0.5293 -2.4221
  428MOL0     H59046  10.786   3.915   3.571  0.3934 -2.4694 -2.6866
  428MOL0     H59047  10.594   3.752   3.614 -0.4641  2.6422  1.8173
  428MOL0     H59048   8.973   2.793   3.317 -0.9971  0.9829 -1.9095
  428MOL0     H59049   8.820   2.613   3.245 -1.4354 -1.1212 -0.0601
  428MOL0     H59050   8.407   2.378   3.365 -0.4448 -0.3032 -0.5920
  428MOL0     H59051   8.258   2.213   3.283 -0.3023  0.5467 -0.9467
  428MOL0     H59052   8.215   2.002   3.273 -2.3805  2.2974  0.2539
  428MOL0     H59053   8.117   2.004   3.128  0.2689 -1.9959 -0.9499
  428MOL0     H59054   8.294   1.749   3.172 -0.4754 -0.3071  1.5966
  428MOL0     H59055   8.161   1.780   3.068  0.0667 -2.8226  1.3626
  428MOL0     H59056   8.116   1.639   3.273 -1.4502 -0.1484  0.1809
  428MOL0     H59057   8.152   1.782   3.374 -1.7010  1.0185  0.8199
  428MOL0     H59058   7.940   1.784   3.159  0.1170 -1.9370 -0.3096
  428MOL0     H59059   7.961   1.891   3.303  1.2536 -0.0830 -0.2876
  428MOL0     H59060   7.776   1.557   3.494  0.7054  0.9080  0.6683
  428MOL0     H59061   8.590   2.045   3.051  1.7220  0.3910  1.0121
  428MOL0     H59062   8.783   2.120   3.061 -2.9885  1.2820 -2.8566
  428MOL0     H59063   8.784   2.290   3.042  2.7354 -2.1117 -1.8159
  428MOL0     H59064   8.848   2.207   3.195 -0.5299 -0.1516  0.3186
  429MOL0     O59065   6.322   6.563  10.464  0.0535 -0.5163 -0.4479
  429MOL0     C59066   6.273   6.584  10.574  0.1201 -0.3785 -0.0463
  429MOL0     O59067   6.343   6.615  10.695  0.3620 -0.2770  0.0766
  429MOL0     C59068   6.478   6.652  10.689  0.8068  0.1509 -0.7650
  429MOL0     C59069   6.527   6.725  10.581  0.4057 -1.2072  0.4386
  429MOL0     C59070   6.655   6.765  10.585 -0.3513  0.1629 -0.6357
  429MOL0     C59071   6.738   6.735  10.691 -0.4299 -0.0706 -0.0085
  429MOL0     O59072   6.864   6.777  10.690 -0.8536 -0.3110 -0.0963
  429MOL0     C59073   6.926   6.831  10.570 -0.4446 -0.3590 -0.5037
  429MOL0     C59074   7.072   6.859  10.612  1.2288 -0.3981 -0.2796
  429MOL0     C59075   7.140   6.901  10.476 -0.3195 -0.4509  0.4392
  429MOL0     C59076   7.279   6.960  10.500  0.3531 -0.6139  0.1606
  429MOL0     C59077   7.375   6.849  10.512  0.3483 -0.4419 -0.4362
  429MOL0     C59078   7.510   6.914  10.537  0.3707 -0.2992  0.3618
  429MOL0     C59079   7.619   6.814  10.568  0.7183 -0.1788 -0.5236
  429MOL0     C59080   7.753   6.878  10.590 -0.0248  0.3924 -0.6470
  429MOL0     N59081   7.860   6.786  10.604  0.4112 -0.3391  0.1402
  429MOL0     C59082   7.848   6.665  10.671  0.3812 -1.0214  0.5247
  429MOL0     C59083   7.966   6.612  10.643  0.5729  0.4166 -0.4247
  429MOL0     C59084   7.990   6.475  10.692 -0.4146  0.6724 -0.8182
  429MOL0     C59085   8.138   6.446  10.718 -0.6136 -0.1172  0.3477
  429MOL0     C59086   8.162   6.298  10.756  0.5832 -0.0159 -0.6331
  429MOL0     C59087   8.310   6.266  10.780 -0.6158 -0.4712 -0.4479
  429MOL0     O59088   8.369   6.265  10.649  0.1224 -0.1808  0.5212
  429MOL0     C59089   8.501   6.249  10.635 -0.3876 -0.2167  0.2776
  429MOL0     C59090   8.602   6.284  10.728  0.2681 -0.7998 -0.1334
  429MOL0     C59091   8.742   6.269  10.701  0.4374  0.1076 -0.3181
  429MOL0     C59092   8.843   6.296  10.813  0.3928 -0.3763 -0.5563
  429MOL0     C59093   8.782   6.221  10.573 -1.5671 -0.0575  0.7329
  429MOL0     C59094   8.928   6.189  10.542  0.7028  0.6617  0.9855
  429MOL0     O59095   8.968   6.214  10.411  0.2286  0.0114  1.2225
  429MOL0     C59096   9.101   6.211  10.384 -0.0686 -0.9856 -0.2651
  429MOL0     C59097   9.138   6.114  10.290  0.2420 -0.0480  0.5145
  429MOL0     C59098   9.269   6.110  10.258  0.4433  0.7246 -0.0085
  429MOL0     C59099   9.369   6.189  10.326 -0.0409 -0.0060 -0.8892
  429MOL0     O59100   9.500   6.206  10.284  0.1942 -0.4185 -0.1912
  429MOL0     C59101   9.571   6.085  10.240  0.2485 -0.1196 -0.2136
  429MOL0     C59102   9.730   6.074  10.235 -0.4113 -0.7462  0.7592
  429MOL0     C59103   9.787   5.993  10.354  0.3426 -0.7261 -0.1256
  429MOL0     C59104   9.941   5.999  10.365  0.5928 -0.1580  0.4258
  429MOL0     C59105  10.014   5.897  10.448  0.3963  0.0442  0.3651
  429MOL0     C59106  10.033   5.956  10.589  0.2279  0.4896 -0.1611
  429MOL0     C59107  10.122   5.855  10.675  0.1015 -0.6009  1.0248
  429MOL0     C59108  10.159   5.908  10.812  0.4370 -0.6062 -0.3409
  429MOL0    Cl59109  10.261   5.806  10.897  0.0265 -0.0556  0.3381
  429MOL0     C59110   9.323   6.291  10.413  0.0200 -0.0916 -0.4910
  429MOL0     C59111   9.191   6.296  10.448 -0.2501  0.7275 -0.5316
  429MOL0     O59112   8.988   6.128  10.626 -0.0121  0.6149  0.4533
  429MOL0     C59113   8.683   6.205  10.477 -0.0331  0.3274 -0.1617
  429MOL0     C59114   8.548   6.218  10.506 -0.3414 -0.2857  0.2191
  429MOL0     N59115   8.041   6.685  10.560 -0.7049  0.1939  0.3713
  429MOL0     N59116   7.972   6.796  10.532  0.1937  0.5922  0.2192
  429MOL0     C59117   6.699   6.661  10.799 -0.5888  0.3363  0.1843
  429MOL0     C59118   6.561   6.622  10.805  0.7149 -0.1935  0.2443
  429MOL0     C59119   6.127   6.575  10.577 -0.3141  0.1257 -1.3708
  429MOL0     C59120   6.071   6.451  10.562  0.4535 -0.0847  0.2055
  429MOL0     C59121   5.932   6.437  10.582  0.1076  0.2381 -0.6152
  429MOL0     C59122   5.851   6.543  10.613  0.8338 -0.2041 -0.0343
  429MOL0     O59123   5.724   6.509  10.629  0.8000  0.8162 -0.3270
  429MOL0     C59124   5.633   6.598  10.688 -0.1686 -0.4947  0.4263
  429MOL0     C59125   5.532   6.521  10.767  0.5941  0.6245  0.3901
  429MOL0     C59126   5.426   6.453  10.677 -0.7701 -0.0866  0.0829
  429MOL0     C59127   5.329   6.532  10.588 -0.4206 -0.5641 -0.1913
  429MOL0     C59128   5.221   6.593  10.659  0.4721 -0.1781 -0.3831
  429MOL0     C59129   5.125   6.649  10.712 -0.6883 -0.0559 -0.2348
  429MOL0     C59130   5.907   6.673  10.623 -0.5337  0.3142 -0.1344
  429MOL0     C59131   6.047   6.690  10.612  0.4428  0.3698  0.5155
  429MOL0     C59132   6.102   6.829  10.629 -0.8214  0.7019  0.3252
  429MOL0     H59133   6.460   6.766  10.507  1.1688 -1.5012 -0.4307
  429MOL0     H59134   6.685   6.825  10.499  0.8763 -2.5576 -2.2599
  429MOL0     H59135   6.878   6.918  10.522  1.0066  1.0877  0.5561
  429MOL0     H59136   6.938   6.760  10.488 -0.6584 -0.9818 -0.0036
  429MOL0     H59137   7.067   6.939  10.686 -1.3554  0.1201 -0.9154
  429MOL0     H59138   7.128   6.772  10.649  0.3041 -0.5540  0.8029
  429MOL0     H59139   7.140   6.811  10.414  0.3711 -0.9969  1.2018
  429MOL0     H59140   7.073   6.972  10.427 -0.7793 -1.4099 -0.3521
  429MOL0     H59141   7.314   7.024  10.419 -2.3690  2.5832  1.2826
  429MOL0     H59142   7.282   7.023  10.589 -1.4496  0.2058 -0.3190
  429MOL0     H59143   7.365   6.774  10.434 -2.1857 -0.9823  0.3089
  429MOL0     H59144   7.349   6.785  10.597  1.4246 -1.8609 -1.1440
  429MOL0     H59145   7.547   6.974  10.454 -0.5280  1.6810  1.3325
  429MOL0     H59146   7.512   6.970  10.631 -0.9418 -1.7105  1.2850
  429MOL0     H59147   7.627   6.743  10.484 -1.9346  0.1263 -1.1314
  429MOL0     H59148   7.591   6.754  10.655  0.3513 -1.4225 -1.4599
  429MOL0     H59149   7.783   6.948  10.512  0.2504  1.4771  0.3939
  429MOL0     H59150   7.747   6.928  10.687  1.6888  1.2741 -0.9580
  429MOL0     H59151   7.763   6.631  10.730 -1.1211  0.5051 -0.6985
  429MOL0     H59152   7.952   6.402  10.620  1.9566  0.4376 -1.9091
  429MOL0     H59153   7.946   6.455  10.791  1.4179  1.8782  0.2879
  429MOL0     H59154   8.203   6.466  10.633  1.5387  0.2397  1.9874
  429MOL0     H59155   8.174   6.518  10.792 -1.9392  2.2801 -1.2209
  429MOL0     H59156   8.114   6.285  10.854  0.3727  2.1474 -0.4037
  429MOL0     H59157   8.127   6.224  10.684 -0.3158 -0.5903  0.3574
  429MOL0     H59158   8.355   6.351  10.832  1.7567 -1.0029 -1.4997
  429MOL0     H59159   8.327   6.170  10.830 -2.2638 -0.7666 -0.3908
  429MOL0     H59160   8.576   6.306  10.831 -1.1433 -0.6085 -0.5141
  429MOL0     H59161   8.932   6.338  10.766 -0.5183  1.1330 -1.0016
  429MOL0     H59162   8.860   6.192  10.842  2.4185  0.0693  0.0200
  429MOL0     H59163   8.809   6.356  10.898 -0.8697  2.2843 -2.7689
  429MOL0     H59164   9.071   6.051  10.232 -0.1568  1.0150 -0.2004
  429MOL0     H59165   9.286   6.046  10.172 -2.3875  0.0026 -0.1240
  429MOL0     H59166   9.521   5.999  10.287 -1.1444  1.2674  0.9422
  429MOL0     H59167   9.541   6.070  10.136 -1.2681 -0.6140  0.2624
  429MOL0     H59168   9.769   6.024  10.146 -2.1978  0.3027 -0.7077
  429MOL0     H59169   9.773   6.174  10.229  1.7787 -1.7062 -0.4375
  429MOL0     H59170   9.757   5.889  10.339  1.6505 -0.8201 -2.6321
  429MOL0     H59171   9.747   6.029  10.449 -0.6662 -2.2069  0.0448
  429MOL0     H59172   9.974   6.100  10.395  0.3740 -0.3899  1.5050
  429MOL0     H59173   9.977   5.991  10.262 -1.8348  2.5267 -0.7939
  429MOL0     H59174   9.961   5.802  10.461  3.1681 -1.4934  1.4986
  429MOL0     H59175  10.101   5.868  10.388 -0.4430 -0.1455 -0.7756
  429MOL0     H59176   9.935   5.983  10.628 -1.3051 -3.6028 -0.6786
  429MOL0     H59177  10.095   6.044  10.570 -0.8938  1.2507 -0.3828
  429MOL0     H59178  10.202   5.811  10.617 -1.4897 -1.4188 -0.6407
  429MOL0     H59179  10.063   5.765  10.692  0.0486 -0.5766  0.9730
  429MOL0     H59180  10.063   5.911  10.865  0.6719  1.6112  0.0711
  429MOL0     H59181  10.193   6.012  10.812 -2.3858  0.5224  3.1032
  429MOL0     H59182   9.401   6.352  10.456  1.8835 -1.8392 -1.2493
  429MOL0     H59183   9.167   6.364  10.530  1.4775  0.2094  0.4412
  429MOL0     H59184   8.721   6.167  10.383 -0.4161  0.2434 -0.2845
  429MOL0     H59185   8.472   6.215  10.429 -1.0250  0.4058  0.8483
  429MOL0     H59186   6.776   6.632  10.869 -1.3302  0.1279  0.9191
  429MOL0     H59187   6.519   6.558  10.882  0.2233  0.2057  0.3150
  429MOL0     H59188   6.132   6.363  10.547 -1.9565 -1.5073 -2.1015
  429MOL0     H59189   5.877   6.344  10.595  1.2198 -0.0453  3.7696
  429MOL0     H59190   5.679   6.674  10.752 -0.4400 -0.1671  0.2377
  429MOL0     H59191   5.590   6.651  10.603  1.1924 -0.0461  0.0059
  429MOL0     H59192   5.488   6.600  10.829  2.9330  1.2530  1.3431
  429MOL0     H59193   5.580   6.448  10.833 -0.3248  0.5014  0.9439
  429MOL0     H59194   5.486   6.382  10.619  2.6087  1.1343  1.7940
  429MOL0     H59195   5.366   6.379  10.731 -0.5197  2.0478  3.6374
  429MOL0     H59196   5.290   6.463  10.512  0.3667  1.0686 -2.1716
  429MOL0     H59197   5.397   6.600  10.537  2.3550 -1.9635  1.4242
  429MOL0     H59198   5.054   6.703  10.770  1.7488  2.0240  0.9932
  429MOL0     H59199   5.844   6.759  10.641 -0.8917  0.3438 -1.4609
  429MOL0     H59200   6.045   6.913  10.588 -0.2337  0.2641 -1.5141
  429MOL0     H59201   6.110   6.851  10.736 -0.6888 -2.1009  0.9724
  429MOL0     H59202   6.201   6.828  10.581 -1.5278 -5.3637 -1.9526
  430MOL0     O59203   1.462   9.347   4.341 -0.5808 -0.3434 -0.3378
  430MOL0     C59204   1.428   9.418   4.440  0.3659 -0.3296 -0.4548
  430MOL0     O59205   1.514   9.471   4.533 -0.5918  0.0719 -0.2726
  430MOL0     C59206   1.637   9.414   4.538  0.3335 -0.9705  0.9095
  430MOL0     C59207   1.658   9.304   4.616 -0.7898  0.2466 -0.2540
  430MOL0     C59208   1.780   9.236   4.611  0.0089 -0.4899  0.1940
  430MOL0     C59209   1.883   9.284   4.540  0.2651  0.6333  1.3513
  430MOL0     O59210   2.001   9.220   4.525 -0.0963  0.2605 -0.0378
  430MOL0     C59211   2.068   9.189   4.651  0.0158 -0.5107  0.2353
  430MOL0     C59212   2.215   9.213   4.610 -0.4015 -0.8601  0.5529
  430MOL0     C59213   2.311   9.224   4.731  0.6420  0.2463 -1.0580
  430MOL0     C59214   2.448   9.252   4.676 -0.0341 -0.3147  0.6510
  430MOL0     C59215   2.556   9.277   4.771 -0.5030 -0.0358 -0.1275
  430MOL0     C59216   2.572   9.164   4.878  0.0884  0.5465  0.1997
  430MOL0     C59217   2.706   9.168   4.954  0.1801  0.4445 -0.2239
  430MOL0     C59218   2.722   9.056   5.052 -0.2514 -0.4642  0.2474
  430MOL0     N59219   2.867   9.056   5.082  0.0700  0.5769 -0.1480
  430MOL0     C59220   2.959   8.981   5.015 -0.2543 -0.1456  0.4496
  430MOL0     C59221   3.073   9.008   5.071 -0.8930 -0.4732  0.5145
  430MOL0     C59222   3.213   8.959   5.045  0.2099 -0.2308 -0.4470
  430MOL0     C59223   3.263   8.884   5.169  1.1710 -0.6921 -0.2882
  430MOL0     C59224   3.395   8.811   5.143  0.4636 -0.2423 -0.4551
  430MOL0     C59225   3.508   8.894   5.121 -0.7568  0.2553  0.0147
  430MOL0     O59226   3.631   8.820   5.099  0.3456 -0.1491  0.0547
  430MOL0     C59227   3.731   8.850   5.188 -1.0331  0.3706  0.5481
  430MOL0     C59228   3.708   8.835   5.325 -0.3041  0.2280 -0.7824
  430MOL0     C59229   3.798   8.876   5.424  1.2048 -0.0640 -0.8115
  430MOL0     C59230   3.762   8.841   5.568 -0.7645  0.0341  0.0127
  430MOL0     C59231   3.922   8.933   5.368  1.1282 -0.5125  0.1943
  430MOL0     C59232   4.025   8.993   5.451 -0.3863 -0.0014  0.4059
  430MOL0     O59233   3.990   9.024   5.577 -0.0893 -0.1865  0.6124
  430MOL0     C59234   4.081   9.082   5.663  0.7503 -0.0398 -0.0049
  430MOL0     C59235   4.076   9.218   5.685 -0.1055  0.2228  0.2766
  430MOL0     C59236   4.148   9.275   5.785  0.4200 -1.5675  0.3032
  430MOL0     C59237   4.242   9.208   5.860 -0.5010 -0.3083  0.2368
  430MOL0     O59238   4.322   9.286   5.939  0.7468  0.1139  0.5197
  430MOL0     C59239   4.445   9.232   5.980  0.4600 -0.6616 -0.9284
  430MOL0     C59240   4.542   9.240   5.859  1.0408  1.0763  0.2078
  430MOL0     C59241   4.547   9.376   5.786  0.2026  0.1567  0.5179
  430MOL0     C59242   4.586   9.500   5.874 -0.1906  0.2989  0.5407
  430MOL0     C59243   4.505   9.621   5.839  0.0110  0.3146  0.1380
  430MOL0     C59244   4.544   9.683   5.693 -0.5260 -0.4237  0.0315
  430MOL0     C59245   4.444   9.796   5.655 -0.2567 -0.1103 -0.2608
  430MOL0     C59246   4.465   9.914   5.750 -0.5589 -0.3485  0.0398
  430MOL0    Cl59247   4.634   9.974   5.755  0.1507 -0.4225 -0.0607
  430MOL0     C59248   4.259   9.074   5.831  0.3933  0.3404  0.1426
  430MOL0     C59249   4.181   9.012   5.726  0.4547 -0.2700 -0.9693
  430MOL0     O59250   4.137   9.005   5.402  0.2026  0.0740 -1.0262
  430MOL0     C59251   3.947   8.941   5.230  0.7295  0.7953 -0.1434
  430MOL0     C59252   3.855   8.898   5.137 -0.0358  0.3940  0.7961
  430MOL0     N59253   3.046   9.090   5.183 -0.5935 -0.0281 -0.7807
  430MOL0     N59254   2.919   9.119   5.195 -0.1936 -0.1326  0.5410
  430MOL0     C59255   1.866   9.406   4.462  0.3912  0.0622  0.5744
  430MOL0     C59256   1.742   9.470   4.464  0.4823  0.5737 -0.1368
  430MOL0     C59257   1.287   9.439   4.460 -0.5349  0.6239  0.0670
  430MOL0     C59258   1.236   9.407   4.585 -0.6491  0.7071  0.1920
  430MOL0     C59259   1.103   9.423   4.620 -0.3967  0.2606  0.1148
  430MOL0     C59260   1.012   9.455   4.523 -0.1533  0.1362 -0.1832
  430MOL0     O59261   0.880   9.464   4.539  0.6684  0.3547 -0.4195
  430MOL0     C59262   0.827   9.459   4.669  0.5823 -0.7643 -0.9990
  430MOL0     C59263   0.677   9.459   4.676  0.3145  0.1173  0.7009
  430MOL0     C59264   0.631   9.443   4.828  0.7960 -0.4252  0.6717
  430MOL0     C59265   0.480   9.482   4.853 -0.6905  0.0810  0.3825
  430MOL0     C59266   0.391   9.367   4.807 -0.0694 -0.3948  0.3988
  430MOL0     C59267   0.310   9.280   4.774 -0.6371 -0.1864 -0.2754
  430MOL0     C59268   1.059   9.496   4.402  0.4682  0.3824 -0.2454
  430MOL0     C59269   1.194   9.476   4.364  0.1018 -0.4526  0.1978
  430MOL0     C59270   1.230   9.493   4.217 -0.8176 -0.7755  0.0196
  430MOL0     H59271   1.579   9.257   4.674  0.5081 -0.2767  1.1599
  430MOL0     H59272   1.781   9.142   4.665 -1.5279  0.5493  2.1550
  430MOL0     H59273   2.049   9.086   4.681  1.5999 -1.5652 -2.0604
  430MOL0     H59274   2.034   9.256   4.731  3.3613  0.2326  1.1972
  430MOL0     H59275   2.257   9.144   4.536 -0.8257 -0.2403 -0.2784
  430MOL0     H59276   2.225   9.311   4.563  0.9690 -0.4358  1.6797
  430MOL0     H59277   2.287   9.303   4.803 -1.0107 -0.3533 -0.9117
  430MOL0     H59278   2.318   9.128   4.784 -0.2991  0.9955  0.4963
  430MOL0     H59279   2.479   9.159   4.629 -1.9332 -1.3007  1.2399
  430MOL0     H59280   2.441   9.335   4.605  0.6624  0.6453  1.6774
  430MOL0     H59281   2.536   9.377   4.809  2.2676  1.3512 -1.9625
  430MOL0     H59282   2.652   9.282   4.718 -1.3077 -1.7646 -1.8989
  430MOL0     H59283   2.494   9.184   4.953  0.8805  3.7343  0.3227
  430MOL0     H59284   2.554   9.063   4.841 -1.3676  0.6930  0.4192
  430MOL0     H59285   2.717   9.265   5.003  0.3305  0.8809 -1.1127
  430MOL0     H59286   2.788   9.181   4.884 -0.3479  0.2027 -0.9022
  430MOL0     H59287   2.650   9.081   5.131 -1.1379 -2.0614 -0.0015
  430MOL0     H59288   2.699   8.958   5.008 -1.1271  0.2307 -0.9168
  430MOL0     H59289   2.945   8.929   4.921 -0.6789  0.1959  0.3182
  430MOL0     H59290   3.276   9.048   5.036  0.8907 -0.0167  4.0436
  430MOL0     H59291   3.219   8.886   4.964 -0.7878 -0.1524 -0.6148
  430MOL0     H59292   3.275   8.963   5.245  1.1873  0.8416 -1.8169
  430MOL0     H59293   3.187   8.821   5.215 -2.1523  2.1719 -1.4115
  430MOL0     H59294   3.412   8.754   5.235  1.6084  0.1694 -0.3933
  430MOL0     H59295   3.363   8.741   5.065  2.1109 -1.4611 -0.0968
  430MOL0     H59296   3.493   8.973   5.046 -0.7971  2.6974  2.4634
  430MOL0     H59297   3.528   8.959   5.207 -0.2060 -0.7208  0.6420
  430MOL0     H59298   3.611   8.790   5.343 -0.5099  1.0758  0.3721
  430MOL0     H59299   3.668   8.785   5.572 -0.1310 -1.0417  0.2050
  430MOL0     H59300   3.761   8.927   5.636  1.8136  1.1990 -1.2987
  430MOL0     H59301   3.849   8.785   5.605  1.0633  2.3518 -0.4931
  430MOL0     H59302   4.006   9.279   5.629 -0.7996  0.4595  1.3670
  430MOL0     H59303   4.136   9.382   5.773  2.6370 -1.4759 -1.9814
  430MOL0     H59304   4.474   9.287   6.070 -4.5791 -0.7012  1.0663
  430MOL0     H59305   4.423   9.134   6.023 -0.3052 -0.1111 -0.0313
  430MOL0     H59306   4.640   9.212   5.900  0.3546  0.0933  1.2147
  430MOL0     H59307   4.511   9.171   5.780 -0.2233  2.1857 -0.2980
  430MOL0     H59308   4.454   9.408   5.738  2.5802  2.0277 -3.4164
  430MOL0     H59309   4.620   9.364   5.705 -0.8427 -0.3548 -0.3665
  430MOL0     H59310   4.689   9.524   5.845 -0.3904  0.6391  0.0935
  430MOL0     H59311   4.583   9.469   5.978  1.1390  0.6978  0.7224
  430MOL0     H59312   4.402   9.584   5.835  0.6369 -1.7023  1.1630
  430MOL0     H59313   4.528   9.692   5.920 -0.2393  0.2155  0.2981
  430MOL0     H59314   4.544   9.597   5.625 -0.4216  0.3395 -0.9625
  430MOL0     H59315   4.650   9.708   5.686  0.0295 -3.0028 -2.4431
  430MOL0     H59316   4.336   9.781   5.658 -1.0980  4.4426  0.5551
  430MOL0     H59317   4.472   9.823   5.552  3.5606 -1.8795  0.1447
  430MOL0     H59318   4.434   9.884   5.851 -3.6295  1.8486 -0.1040
  430MOL0     H59319   4.391   9.988   5.718 -1.7106 -1.5427 -0.1488
  430MOL0     H59320   4.323   9.007   5.889 -0.6721  0.5827  1.6802
  430MOL0     H59321   4.198   8.909   5.695 -1.5203 -1.5634  1.7898
  430MOL0     H59322   4.042   8.970   5.186  0.4813  1.2492 -0.3772
  430MOL0     H59323   3.870   8.911   5.031  0.6655 -0.0777  0.8281
  430MOL0     H59324   1.952   9.443   4.408 -0.3876  0.5055 -0.3859
  430MOL0     H59325   1.732   9.564   4.411 -1.0478  0.7607  0.4058
  430MOL0     H59326   1.306   9.386   4.665  0.0970  3.0377  0.2413
  430MOL0     H59327   1.069   9.398   4.719 -0.2792  2.4549  0.7531
  430MOL0     H59328   0.864   9.366   4.714  1.7578 -0.4564 -1.3124
  430MOL0     H59329   0.863   9.551   4.717 -1.1549 -0.8698  0.6499
  430MOL0     H59330   0.658   9.367   4.621 -0.6935  0.6263  0.1864
  430MOL0     H59331   0.646   9.548   4.621 -2.5898 -0.8177  0.6874
  430MOL0     H59332   0.640   9.337   4.854  1.9086 -0.0714  1.7863
  430MOL0     H59333   0.693   9.500   4.897  1.2886 -1.5711  1.2063
  430MOL0     H59334   0.452   9.578   4.809 -0.2517 -0.4535 -1.1490
  430MOL0     H59335   0.463   9.492   4.960  2.7895 -0.7255  1.1265
  430MOL0     H59336   0.237   9.205   4.753 -0.0474 -0.3227 -2.0226
  430MOL0     H59337   0.983   9.533   4.334 -0.1728  0.4847  0.5173
  430MOL0     H59338   1.152   9.551   4.167  2.1350  0.5615 -3.5578
  430MOL0     H59339   1.320   9.555   4.206 -0.2881 -1.4371  0.5573
  430MOL0     H59340   1.246   9.395   4.171  1.3439 -0.2114 -0.5784
  431MOL0     O59341   5.210   8.287   0.641 -0.0899  0.6427  0.4207
  431MOL0     C59342   5.191   8.390   0.581  0.4507 -0.1835  0.7558
  431MOL0     O59343   5.235   8.514   0.618  0.2593 -0.3151  0.0621
  431MOL0     C59344   5.308   8.530   0.737 -0.2685 -0.4963  0.0749
  431MOL0     C59345   5.250   8.493   0.861  0.0889  0.3044 -0.0633
  431MOL0     C59346   5.318   8.530   0.980 -0.1073  0.1202  0.3820
  431MOL0     C59347   5.443   8.608   0.983 -0.0221  0.9413 -0.4373
  431MOL0     O59348   5.529   8.637   1.087 -0.1857 -0.2304  0.2849
  431MOL0     C59349   5.479   8.616   1.219  0.5142 -0.4127 -0.0207
  431MOL0     C59350   5.579   8.676   1.324 -0.8279  0.0527  0.3766
  431MOL0     C59351   5.588   8.832   1.331  0.8081  0.4146  0.1522
  431MOL0     C59352   5.475   8.896   1.414 -0.2599  0.0555 -0.0687
  431MOL0     C59353   5.481   9.042   1.425 -0.2108 -1.2163  0.6407
  431MOL0     C59354   5.399   9.112   1.531  0.2613  0.1525  0.1578
  431MOL0     C59355   5.429   9.262   1.528 -0.2245 -0.5921 -0.1767
  431MOL0     C59356   5.330   9.331   1.438  0.8661 -0.7390 -0.4340
  431MOL0     N59357   5.345   9.477   1.434 -0.1939 -0.5936  1.2819
  431MOL0     C59358   5.432   9.534   1.350  0.1239  0.6823 -0.0186
  431MOL0     C59359   5.407   9.660   1.367 -0.4339 -0.1209  0.5957
  431MOL0     C59360   5.474   9.766   1.290 -0.1389  0.0146  0.8683
  431MOL0     C59361   5.596   9.822   1.362 -0.2518  0.2245 -0.4995
  431MOL0     C59362   5.566   9.921   1.467 -0.1056  0.2828  0.0175
  431MOL0     C59363   5.684  10.015   1.487 -0.6528 -0.0455 -0.8287
  431MOL0     O59364   5.789   9.951   1.556  0.7560  0.3550 -0.7601
  431MOL0     C59365   5.915   9.987   1.533  0.5855 -0.4106 -0.6811
  431MOL0     C59366   5.965  10.099   1.474  0.1752 -0.4275  0.2557
  431MOL0     C59367   6.099  10.118   1.455 -0.5473 -0.6331 -0.1135
  431MOL0     C59368   6.138  10.247   1.385 -0.5567 -0.3539 -0.5494
  431MOL0     C59369   6.190  10.022   1.494  0.4118  0.0696  0.2914
  431MOL0     C59370   6.336  10.031   1.481 -0.0338 -0.2337  0.0200
  431MOL0     O59371   6.410   9.936   1.547 -0.0155 -0.0599 -0.6224
  431MOL0     C59372   6.549   9.958   1.530 -0.0718 -0.1710 -0.6466
  431MOL0     C59373   6.623   9.886   1.435 -0.0540 -0.0003 -0.1570
  431MOL0     C59374   6.752   9.914   1.400 -0.3192 -0.7945  0.7438
  431MOL0     C59375   6.825   9.999   1.480  0.2510 -0.4737  0.6257
  431MOL0     O59376   6.952  10.037   1.459 -0.8313  0.3684 -0.1292
  431MOL0     C59377   6.980  10.143   1.374  0.3046  0.4185 -0.4837
  431MOL0     C59378   7.124  10.183   1.363 -0.4469  0.1313  0.5426
  431MOL0     C59379   7.169  10.246   1.494  0.2139 -0.2741 -0.1967
  431MOL0     C59380   7.317  10.275   1.495 -0.0511 -0.9115  0.9272
  431MOL0     C59381   7.363  10.266   1.635  0.7429  0.3108 -0.4722
  431MOL0     C59382   7.507  10.301   1.662  0.7105 -0.0941 -0.1369
  431MOL0     C59383   7.540  10.282   1.812  0.5412  0.0961  0.0295
  431MOL0     C59384   7.677  10.222   1.817 -0.4157  0.0817  0.2219
  431MOL0    Cl59385   7.712  10.179   1.990 -0.6537  0.0648  0.2596
  431MOL0     C59386   6.758  10.061   1.586 -1.6413 -0.0865  0.1685
  431MOL0     C59387   6.620  10.044   1.613 -0.4781  0.1798  0.4960
  431MOL0     O59388   6.379  10.127   1.410  0.1426  0.2157 -0.2792
  431MOL0     C59389   6.135   9.906   1.553  0.3009  0.1949 -0.4808
  431MOL0     C59390   6.001   9.889   1.576 -0.6344  0.7562  0.4538
  431MOL0     N59391   5.298   9.686   1.447 -1.0998  0.0610  0.0908
  431MOL0     N59392   5.261   9.566   1.492  0.6208  0.3851  0.5046
  431MOL0     C59393   5.501   8.639   0.860 -0.7197 -0.0343  0.3302
  431MOL0     C59394   5.433   8.605   0.740  0.1415 -0.2775  0.5805
  431MOL0     C59395   5.101   8.392   0.455 -0.3836 -0.1102  0.2601
  431MOL0     C59396   5.090   8.509   0.380 -0.6089 -0.0208 -0.5847
  431MOL0     C59397   5.032   8.508   0.251 -0.0975 -0.9281  0.5698
  431MOL0     C59398   4.989   8.390   0.197 -1.4016  0.1930  0.3595
  431MOL0     O59399   4.941   8.396   0.066  0.4026  0.5893 -0.0591
  431MOL0     C59400   4.843   8.304   0.021  0.4114 -0.4707 -0.1694
  431MOL0     C59401   4.703   8.321   0.077 -0.1449  0.0849 -0.8564
  431MOL0     C59402   4.592   8.289  -0.010 -0.1269  0.4115  0.6697
  431MOL0     C59403   4.460   8.299   0.064 -0.3390  0.2000 -0.1626
  431MOL0     C59404   4.443   8.443   0.096 -0.4931  0.4104  0.6076
  431MOL0     C59405   4.426   8.559   0.103 -0.2596 -0.8809  0.3006
  431MOL0     C59406   4.988   8.272   0.276  0.4778 -0.3286 -0.3864
  431MOL0     C59407   5.032   8.278   0.406 -0.0519 -0.8689 -0.4481
  431MOL0     C59408   5.009   8.162   0.494  0.0471 -0.3339  0.6608
  431MOL0     H59409   5.149   8.454   0.868  0.2370  0.0739  1.1966
  431MOL0     H59410   5.273   8.498   1.073  0.4008 -3.8163 -0.5476
  431MOL0     H59411   5.468   8.508   1.228 -2.2198 -0.0743  1.7723
  431MOL0     H59412   5.381   8.660   1.239  1.8169  0.8430  5.4822
  431MOL0     H59413   5.555   8.639   1.424 -0.3036  0.6267  0.7204
  431MOL0     H59414   5.677   8.633   1.302 -0.0153  2.0302 -0.0369
  431MOL0     H59415   5.684   8.866   1.370  0.7309 -0.1771  0.8817
  431MOL0     H59416   5.585   8.868   1.228  1.7556  1.1387  0.3619
  431MOL0     H59417   5.373   8.865   1.391  0.7078 -1.3022 -2.9492
  431MOL0     H59418   5.485   8.849   1.512 -0.7438  1.3433  0.6291
  431MOL0     H59419   5.439   9.069   1.328  4.2211  1.4684 -0.8035
  431MOL0     H59420   5.584   9.079   1.423 -0.1360 -1.4564 -0.0401
  431MOL0     H59421   5.294   9.080   1.528  0.2244  0.3133 -0.4078
  431MOL0     H59422   5.425   9.091   1.635 -2.0228  3.4031  1.5632
  431MOL0     H59423   5.534   9.284   1.506  0.4223 -0.6167  2.4977
  431MOL0     H59424   5.419   9.295   1.632  2.1650 -0.1531 -0.0237
  431MOL0     H59425   5.334   9.281   1.341  0.9132 -0.9031 -0.3480
  431MOL0     H59426   5.230   9.320   1.479  0.0424  0.5898 -1.9420
  431MOL0     H59427   5.510   9.491   1.288 -0.0346 -0.1136  0.3206
  431MOL0     H59428   5.410   9.852   1.266 -0.7147 -0.7867 -0.6271
  431MOL0     H59429   5.500   9.742   1.186  1.0590  0.3909  1.0676
  431MOL0     H59430   5.662   9.744   1.402  0.2457  1.5642  1.4218
  431MOL0     H59431   5.657   9.869   1.284  0.4649 -0.5709 -0.4427
  431MOL0     H59432   5.481   9.985   1.440 -0.2340  0.7525  1.4325
  431MOL0     H59433   5.527   9.886   1.563  4.5897  0.4929  2.2876
  431MOL0     H59434   5.721  10.048   1.390  0.7579 -0.5192 -0.4842
  431MOL0     H59435   5.666  10.108   1.542  2.8968  1.3550 -1.7748
  431MOL0     H59436   5.896  10.181   1.456 -1.0684 -1.1606  1.4719
  431MOL0     H59437   6.052  10.312   1.370 -0.5039 -0.1201  0.1418
  431MOL0     H59438   6.176  10.228   1.284 -3.8577  0.5471 -2.0743
  431MOL0     H59439   6.204  10.305   1.451  0.1783 -0.1349 -1.4552
  431MOL0     H59440   6.566   9.824   1.367 -0.1136  1.2546 -1.3098
  431MOL0     H59441   6.800   9.866   1.315 -0.4914  2.1608 -1.1527
  431MOL0     H59442   6.934  10.128   1.276  0.2996 -1.2752 -0.2477
  431MOL0     H59443   6.922  10.223   1.423  1.6013  0.3501  1.2437
  431MOL0     H59444   7.182  10.093   1.343 -3.4290 -1.7311 -0.3025
  431MOL0     H59445   7.134  10.256   1.282  0.4710  0.9733  1.3883
  431MOL0     H59446   7.148  10.176   1.576  0.3655  1.2613  1.2019
  431MOL0     H59447   7.115  10.339   1.513  0.4317 -0.4417  1.4690
  431MOL0     H59448   7.333  10.378   1.460 -1.1400 -1.2727 -0.7276
  431MOL0     H59449   7.353  10.194   1.432 -2.2819 -0.5589 -0.9914
  431MOL0     H59450   7.299  10.320   1.706 -1.1269 -1.6074 -0.6068
  431MOL0     H59451   7.350  10.160   1.659  1.2699  0.1678 -0.8176
  431MOL0     H59452   7.514  10.409   1.648 -0.4892  0.0431  0.2232
  431MOL0     H59453   7.574  10.245   1.596  1.2043 -1.2595  1.3130
  431MOL0     H59454   7.471  10.211   1.859  0.1774  0.4668  0.0618
  431MOL0     H59455   7.540  10.380   1.862 -0.5859 -0.4533  1.1645
  431MOL0     H59456   7.745  10.293   1.770 -0.6247 -0.3052 -0.6778
  431MOL0     H59457   7.679  10.129   1.760  0.1434  0.5690 -0.5719
  431MOL0     H59458   6.819  10.125   1.651 -0.1928 -3.0007  1.8893
  431MOL0     H59459   6.563  10.090   1.693 -0.6874 -1.1282  1.1273
  431MOL0     H59460   6.202   9.825   1.581  1.9862  1.2586 -1.2721
  431MOL0     H59461   5.956   9.800   1.620 -0.4081  0.6881  0.5456
  431MOL0     H59462   5.598   8.686   0.846 -0.2873 -0.7630  0.8265
  431MOL0     H59463   5.495   8.617   0.651 -1.4951 -0.0410 -0.5683
  431MOL0     H59464   5.127   8.601   0.424  2.0758 -1.1959 -0.1874
  431MOL0     H59465   5.025   8.597   0.189 -1.8495 -1.5814 -0.2540
  431MOL0     H59466   4.855   8.308  -0.088 -1.7211 -1.6613 -0.5060
  431MOL0     H59467   4.875   8.201   0.042  1.5976 -0.1964 -0.5467
  431MOL0     H59468   4.694   8.425   0.109 -2.3172 -0.6517  1.1986
  431MOL0     H59469   4.689   8.258   0.165 -2.8659 -0.8839 -1.8922
  431MOL0     H59470   4.580   8.364  -0.089 -1.4690 -0.8710 -0.3878
  431MOL0     H59471   4.603   8.190  -0.054 -0.3661  0.5743  0.2317
  431MOL0     H59472   4.458   8.241   0.157 -0.2831  0.6199  0.1021
  431MOL0     H59473   4.378   8.273  -0.004  0.0761 -0.7880 -0.3022
  431MOL0     H59474   4.379   8.648   0.139  0.1540 -1.1313  1.5066
  431MOL0     H59475   4.942   8.181   0.240  1.0805 -0.5846 -0.5139
  431MOL0     H59476   4.951   8.081   0.449  1.8406 -0.8563 -0.8451
  431MOL0     H59477   5.106   8.112   0.507  1.0116  0.5418 -2.3585
  431MOL0     H59478   4.968   8.189   0.592  1.7300  0.2257  1.2527
  432MOL0     O59479   6.100   0.050   2.569  0.2631  0.4963  0.4988
  432MOL0     C59480   6.061  -0.030   2.656  0.2295  0.5942  0.1537
  432MOL0     O59481   6.138  -0.094   2.747  0.3735 -0.0178  0.1013
  432MOL0     C59482   6.273  -0.069   2.744 -0.6220  0.1263 -0.1115
  432MOL0     C59483   6.371  -0.174   2.735  0.0435 -0.6806 -0.1232
  432MOL0     C59484   6.505  -0.145   2.739 -0.0118  0.3312 -0.9715
  432MOL0     C59485   6.544  -0.009   2.756 -0.4842 -0.2865  0.2286
  432MOL0     O59486   6.687   0.026   2.747 -0.0729 -0.4032 -0.1463
  432MOL0     C59487   6.784  -0.067   2.685  0.3573  0.1997  0.7121
  432MOL0     C59488   6.909   0.017   2.677  0.1210 -0.6984 -0.8124
  432MOL0     C59489   6.981   0.064   2.811 -0.2268  0.8346 -0.2679
  432MOL0     C59490   6.891   0.161   2.906 -0.3071 -0.8827  0.5001
  432MOL0     C59491   6.984   0.241   3.003 -0.2254 -0.2235  0.4578
  432MOL0     C59492   7.092   0.325   2.939 -0.5458  0.4947 -0.8057
  432MOL0     C59493   7.131   0.434   3.038 -0.5770  1.0605  0.5139
  432MOL0     C59494   7.202   0.377   3.162 -0.6781  0.1436 -0.3991
  432MOL0     N59495   7.266   0.483   3.246  0.2662 -0.0808  0.4198
  432MOL0     C59496   7.367   0.570   3.209  0.7528 -0.1374  0.3005
  432MOL0     C59497   7.384   0.653   3.319  0.2509  1.3911  0.1323
  432MOL0     C59498   7.477   0.767   3.330 -0.0834 -0.7055  0.2933
  432MOL0     C59499   7.616   0.710   3.299 -0.3457 -0.7092  0.2705
  432MOL0     C59500   7.667   0.619   3.407  0.2004  0.7406  0.0856
  432MOL0     C59501   7.798   0.538   3.374 -1.1401 -1.0973 -0.9109
  432MOL0     O59502   7.785   0.463   3.252 -0.1786 -0.7519 -0.1565
  432MOL0     C59503   7.713   0.353   3.236 -0.9041 -0.4512 -0.6827
  432MOL0     C59504   7.648   0.340   3.114 -0.5499  0.1522  0.6184
  432MOL0     C59505   7.598   0.209   3.077  0.6796  0.0271  0.6165
  432MOL0     C59506   7.536   0.194   2.938  0.0860  0.1728 -0.0847
  432MOL0     C59507   7.602   0.107   3.169 -0.1484  0.2746 -0.6576
  432MOL0     C59508   7.536  -0.028   3.156  0.7501 -0.6739  0.0612
  432MOL0     O59509   7.487  -0.061   3.038  0.1284 -0.5909  0.9499
  432MOL0     C59510   7.452  -0.190   3.002  0.7064 -0.3306  0.2422
  432MOL0     C59511   7.497  -0.312   3.068 -0.6968 -0.2826  0.0483
  432MOL0     C59512   7.461  -0.443   3.028 -0.1055  0.3705  0.1821
  432MOL0     C59513   7.378  -0.453   2.916 -0.7328 -0.6486 -0.5710
  432MOL0     O59514   7.327  -0.566   2.862 -0.0178 -0.4114 -0.3660
  432MOL0     C59515   7.310  -0.688   2.930 -0.3192  0.9327  0.7884
  432MOL0     C59516   7.205  -0.777   2.868  0.3110 -0.0631 -0.5918
  432MOL0     C59517   7.079  -0.691   2.855 -0.5147 -0.6357 -0.5244
  432MOL0     C59518   6.953  -0.783   2.864 -0.0046  0.3917  0.2928
  432MOL0     C59519   6.924  -0.851   2.730 -0.4291  0.8130  0.0260
  432MOL0     C59520   6.810  -0.955   2.725 -0.4725  0.3397 -0.6662
  432MOL0     C59521   6.667  -0.896   2.705  0.7593 -0.5203 -0.1505
  432MOL0     C59522   6.562  -0.997   2.679 -1.0751  0.8391  0.7039
  432MOL0    Cl59523   6.397  -0.947   2.719  0.0652  0.2272  0.0447
  432MOL0     C59524   7.327  -0.334   2.850  0.0143 -0.0683 -0.0650
  432MOL0     C59525   7.362  -0.202   2.896  1.4302  0.4830  0.2845
  432MOL0     O59526   7.513  -0.090   3.257 -0.1306  0.3917  0.2653
  432MOL0     C59527   7.671   0.127   3.296 -0.2700  0.1269 -0.2413
  432MOL0     C59528   7.721   0.254   3.330 -0.1231 -0.2618 -0.3322
  432MOL0     N59529   7.289   0.620   3.417 -0.2970 -0.0649 -0.4044
  432MOL0     N59530   7.217   0.529   3.367 -0.5378  0.0879  0.0312
  432MOL0     C59531   6.450   0.091   2.772  0.0991  0.2944  0.2745
  432MOL0     C59532   6.313   0.062   2.772 -0.3778 -0.3502 -0.1318
  432MOL0     C59533   5.913  -0.057   2.675 -0.1561 -0.2135  0.1000
  432MOL0     C59534   5.871  -0.147   2.778  1.3753 -0.0182 -0.3198
  432MOL0     C59535   5.733  -0.178   2.799  0.8905  0.0761  0.0399
  432MOL0     C59536   5.639  -0.141   2.699  0.3111  0.3636 -0.4978
  432MOL0     O59537   5.504  -0.157   2.720  0.3405 -0.2189  0.4190
  432MOL0     C59538   5.433  -0.198   2.607  0.3924 -0.2171  0.2698
  432MOL0     C59539   5.302  -0.276   2.653 -0.3272 -0.1539  0.5708
  432MOL0     C59540   5.231  -0.214   2.772  0.1214 -0.5662 -0.2029
  432MOL0     C59541   5.106  -0.297   2.819 -0.2651 -0.0416  0.3775
  432MOL0     C59542   5.002  -0.293   2.724 -0.8897 -0.0535 -0.6634
  432MOL0     C59543   4.922  -0.288   2.637 -0.4585  0.1419  0.1518
  432MOL0     C59544   5.681  -0.046   2.605  0.3092  0.0388 -0.0695
  432MOL0     C59545   5.814  -0.001   2.589  0.3754  1.1196  0.3800
  432MOL0     C59546   5.838   0.096   2.473 -0.3511  0.8605 -0.4962
  432MOL0     H59547   6.337  -0.275   2.714  0.8015 -0.5647 -2.1109
  432MOL0     H59548   6.585  -0.216   2.722  1.1528  0.9866  1.3501
  432MOL0     H59549   6.752  -0.084   2.582 -1.9750 -0.6697  1.5084
  432MOL0     H59550   6.794  -0.160   2.742 -1.7213  0.2169  1.2143
  432MOL0     H59551   6.981  -0.039   2.618  0.0863  0.2893 -1.8144
  432MOL0     H59552   6.899   0.112   2.624 -0.5296 -0.8975 -1.0550
  432MOL0     H59553   7.006  -0.027   2.867  3.0743  0.5454 -1.9193
  432MOL0     H59554   7.081   0.102   2.785  0.2501 -1.6907 -2.5702
  432MOL0     H59555   6.847   0.235   2.838  0.4264 -1.0658 -0.1945
  432MOL0     H59556   6.812   0.110   2.962 -1.0930 -1.4767 -1.0925
  432MOL0     H59557   7.027   0.177   3.081  0.4490  0.5770  0.7587
  432MOL0     H59558   6.915   0.299   3.065  0.8267  0.9459  0.5783
  432MOL0     H59559   7.180   0.266   2.914  0.0504  0.6381  0.8233
  432MOL0     H59560   7.045   0.375   2.854 -1.7887  2.2896  0.8215
  432MOL0     H59561   7.042   0.490   3.067 -1.9424 -0.7121 -0.1049
  432MOL0     H59562   7.195   0.509   2.989  0.8756 -0.5748 -0.2087
  432MOL0     H59563   7.121   0.341   3.227 -0.5258  0.6714  0.0931
  432MOL0     H59564   7.271   0.295   3.142 -1.5851 -1.0960  1.3038
  432MOL0     H59565   7.435   0.563   3.126 -1.2063  1.1038 -1.5215
  432MOL0     H59566   7.470   0.823   3.424 -1.6722  0.4479 -0.4486
  432MOL0     H59567   7.446   0.838   3.253 -0.3703 -0.2328  0.8304
  432MOL0     H59568   7.615   0.653   3.206 -1.1104  1.0686 -0.8741
  432MOL0     H59569   7.687   0.792   3.284  1.1407 -1.8507  0.9015
  432MOL0     H59570   7.693   0.690   3.485  2.2800  2.4920 -2.0313
  432MOL0     H59571   7.589   0.546   3.432  1.1649 -0.0726  0.8220
  432MOL0     H59572   7.892   0.593   3.374 -0.4101 -2.1943  1.6247
  432MOL0     H59573   7.824   0.473   3.459  0.9916  0.2190 -0.4832
  432MOL0     H59574   7.652   0.428   3.050  0.2052 -0.9083 -0.8346
  432MOL0     H59575   7.428   0.191   2.955  0.0762  1.9923  0.4218
  432MOL0     H59576   7.579   0.103   2.896  2.1075  1.4370 -0.9336
  432MOL0     H59577   7.547   0.279   2.869 -0.6098  1.4651  1.3298
  432MOL0     H59578   7.569  -0.295   3.148 -1.0909 -1.9504  0.7907
  432MOL0     H59579   7.506  -0.532   3.071 -1.5195 -1.6791 -2.3675
  432MOL0     H59580   7.406  -0.740   2.926  0.2586  1.9931  0.3544
  432MOL0     H59581   7.276  -0.680   3.033  0.2805  3.9194  0.8393
  432MOL0     H59582   7.226  -0.825   2.772  3.5585 -1.4508  0.6747
  432MOL0     H59583   7.190  -0.863   2.934  0.9020 -0.2335 -0.6711
  432MOL0     H59584   7.087  -0.633   2.762  1.9570  1.0939  0.6381
  432MOL0     H59585   7.063  -0.626   2.941 -0.5765 -1.7699  0.3387
  432MOL0     H59586   6.860  -0.729   2.883 -1.1402 -1.6552  0.8793
  432MOL0     H59587   6.966  -0.863   2.937 -1.7516  1.3975  1.7730
  432MOL0     H59588   6.927  -0.779   2.647  0.1371 -1.0041 -1.6251
  432MOL0     H59589   7.018  -0.905   2.715 -0.3244  0.6752  1.1190
  432MOL0     H59590   6.817  -1.008   2.821 -0.7942 -0.0525 -0.8552
  432MOL0     H59591   6.831  -1.032   2.650 -0.1077  2.0856 -2.4126
  432MOL0     H59592   6.677  -0.817   2.631 -0.1677 -1.0002 -0.8069
  432MOL0     H59593   6.637  -0.854   2.802 -1.2605 -3.0388  0.4378
  432MOL0     H59594   6.584  -1.085   2.740 -0.6300  0.0231 -0.6017
  432MOL0     H59595   6.565  -1.022   2.573  1.3755 -0.5947  1.0426
  432MOL0     H59596   7.264  -0.348   2.763  2.4766 -3.9510 -1.4954
  432MOL0     H59597   7.334  -0.121   2.829  1.2762 -0.1889 -0.4745
  432MOL0     H59598   7.683   0.054   3.376 -0.1417  2.1027  1.6284
  432MOL0     H59599   7.785   0.264   3.417 -0.9245 -0.3570  0.2790
  432MOL0     H59600   6.489   0.191   2.790  2.7652 -0.7861  1.0147
  432MOL0     H59601   6.244   0.143   2.793  1.4060  0.9331  1.0166
  432MOL0     H59602   5.944  -0.181   2.850  1.4790 -2.4195 -1.4897
  432MOL0     H59603   5.716  -0.265   2.862  0.3212 -0.8462 -1.3346
  432MOL0     H59604   5.414  -0.115   2.539  1.4548 -0.1566  0.0276
  432MOL0     H59605   5.501  -0.265   2.553  1.5675 -0.8681  2.4386
  432MOL0     H59606   5.336  -0.377   2.678  1.4610  0.5983  1.3599
  432MOL0     H59607   5.234  -0.295   2.570 -1.6609 -2.2003  2.0160
  432MOL0     H59608   5.307  -0.204   2.850  0.3177 -3.2452  0.0457
  432MOL0     H59609   5.199  -0.115   2.738  3.5177  0.3376 -1.1238
  432MOL0     H59610   5.064  -0.241   2.903  1.5487  1.3763  0.4255
  432MOL0     H59611   5.120  -0.397   2.861  2.4173  0.0257 -0.1674
  432MOL0     H59612   4.852  -0.293   2.555  0.7196 -0.9486 -0.8438
  432MOL0     H59613   5.605  -0.000   2.542 -0.0073 -0.1859  0.1494
  432MOL0     H59614   5.912   0.045   2.412 -2.5264 -4.0994  0.5214
  432MOL0     H59615   5.752   0.122   2.411 -1.2564 -0.5171  0.1238
  432MOL0     H59616   5.873   0.194   2.505  2.2016  0.2752 -1.2843
  433MOL0     O59617   7.636   1.736  10.787  0.1151 -0.2135 -0.5747
  433MOL0     C59618   7.549   1.668  10.726 -0.0347 -0.4982  0.0050
  433MOL0     O59619   7.569   1.559  10.649  0.4339  0.7283  0.7151
  433MOL0     C59620   7.692   1.539  10.602 -0.2319  0.9412 -0.6348
  433MOL0     C59621   7.738   1.411  10.619  0.5084  0.1022 -1.0852
  433MOL0     C59622   7.859   1.376  10.566  0.2538 -0.4960 -0.0583
  433MOL0     C59623   7.940   1.463  10.491 -0.2018  0.3792 -0.4200
  433MOL0     O59624   8.066   1.414  10.445 -0.6301  0.4015  0.6460
  433MOL0     C59625   8.148   1.499  10.368 -0.3706 -0.2066  1.2199
  433MOL0     C59626   8.101   1.522  10.221 -0.0979 -0.1905 -0.1950
  433MOL0     C59627   8.211   1.556  10.127 -0.3490 -0.7193 -0.2618
  433MOL0     C59628   8.158   1.579   9.989 -0.2458 -0.1591  0.2119
  433MOL0     C59629   8.264   1.644   9.902 -0.6332  0.7156 -1.0893
  433MOL0     C59630   8.208   1.728   9.790  1.0131 -0.0291  0.3528
  433MOL0     C59631   8.317   1.792   9.707  0.2176 -0.1599  0.4559
  433MOL0     C59632   8.401   1.897   9.790  0.7509 -1.3020  0.4944
  433MOL0     N59633   8.530   1.916   9.735  0.0809  0.1876  0.7444
  433MOL0     C59634   8.644   1.857   9.777 -0.8025  0.4523  0.6635
  433MOL0     C59635   8.739   1.883   9.693 -0.2643  0.9507 -0.4140
  433MOL0     C59636   8.875   1.831   9.712 -0.2121  0.5846  0.1516
  433MOL0     C59637   8.997   1.900   9.643 -0.2101  0.0862 -0.6539
  433MOL0     C59638   9.061   2.028   9.709  0.3002  0.6342 -0.2369
  433MOL0     C59639   9.144   2.009   9.844 -0.7924 -0.1007 -0.4711
  433MOL0     O59640   9.270   1.947   9.812  0.0862  0.1856 -0.5977
  433MOL0     C59641   9.383   1.978   9.884  1.1288 -0.1066  0.0692
  433MOL0     C59642   9.489   1.892   9.849  0.1007  0.2159  0.0417
  433MOL0     C59643   9.619   1.909   9.903 -0.2150  0.6619  0.3148
  433MOL0     C59644   9.725   1.810   9.858 -0.9031 -0.6127 -0.7981
  433MOL0     C59645   9.634   2.011   9.994  0.3615  0.2041 -0.1516
  433MOL0     C59646   9.771   2.051  10.034  0.2049 -0.8298 -0.0741
  433MOL0     O59647   9.787   2.098  10.162 -0.1602 -1.0875 -0.3253
  433MOL0     C59648   9.914   2.139  10.198 -0.7292 -0.5730 -0.0997
  433MOL0     C59649  10.024   2.048  10.205  0.4267  0.6803  0.0696
  433MOL0     C59650  10.154   2.090  10.228 -0.6987 -0.0487 -0.8167
  433MOL0     C59651  10.182   2.227  10.243  0.0364  0.6963  0.6178
  433MOL0     O59652  10.307   2.283  10.262  0.0347  0.1265 -0.0658
  433MOL0     C59653  10.427   2.199  10.259  0.3247 -0.9996 -0.2725
  433MOL0     C59654  10.548   2.298  10.224 -0.5688  0.5156 -0.0569
  433MOL0     C59655  10.680   2.228  10.236  0.0122 -0.0729 -0.2652
  433MOL0     C59656  10.694   2.096  10.144  0.3934  0.4426  0.4508
  433MOL0     C59657  10.839   2.070  10.135  0.0379  0.0902  0.4992
  433MOL0     C59658  10.887   1.959  10.034  0.1210  0.2745  0.7838
  433MOL0     C59659  11.038   1.951  10.046 -1.0209 -0.0829  0.1519
  433MOL0     C59660  11.078   1.843   9.950 -0.6513  0.2239 -0.7679
  433MOL0    Cl59661  11.248   1.804   9.941  0.0699  0.1054  0.2407
  433MOL0     C59662  10.080   2.319  10.225 -0.0427 -0.2265 -0.7976
  433MOL0     C59663   9.946   2.277  10.205  0.0553 -0.3303  0.0763
  433MOL0     O59664   9.859   2.041   9.949  0.8726 -0.0269 -0.0438
  433MOL0     C59665   9.519   2.067  10.054 -1.1114 -0.7309 -0.1857
  433MOL0     C59666   9.389   2.058  10.006  0.2891  0.0933 -0.2152
  433MOL0     N59667   8.692   1.963   9.594  0.6640  0.6353 -0.4056
  433MOL0     N59668   8.566   1.979   9.621  0.2758 -0.6271 -0.7749
  433MOL0     C59669   7.892   1.597  10.477 -0.2324 -0.1650  0.5329
  433MOL0     C59670   7.769   1.632  10.534  0.6800  0.8853 -0.8065
  433MOL0     C59671   7.408   1.718  10.724 -0.2825 -0.3743 -0.3445
  433MOL0     C59672   7.327   1.682  10.616 -0.1239  0.1345 -0.5292
  433MOL0     C59673   7.196   1.726  10.611 -0.4487 -0.0870  1.4640
  433MOL0     C59674   7.138   1.802  10.709  0.7791 -0.1306 -0.0884
  433MOL0     O59675   7.008   1.844  10.714  0.3829 -0.3796 -0.1289
  433MOL0     C59676   6.918   1.828  10.609 -0.7202  0.0492  0.0292
  433MOL0     C59677   6.808   1.928  10.633 -0.2488 -0.8090 -0.8402
  433MOL0     C59678   6.694   1.928  10.537  0.1123  0.7120 -1.1142
  433MOL0     C59679   6.561   2.000  10.563 -0.3055 -0.1410 -0.4130
  433MOL0     C59680   6.469   1.963  10.463  0.5683 -0.5965  0.9523
  433MOL0     C59681   6.380   1.942  10.379 -0.3379 -0.3646  0.0333
  433MOL0     C59682   7.216   1.835  10.819 -0.1048 -0.2905 -0.2897
  433MOL0     C59683   7.351   1.792  10.835 -0.2374  0.0909 -0.6929
  433MOL0     C59684   7.422   1.813  10.967 -0.4908  0.4036  0.2897
  433MOL0     H59685   7.681   1.343  10.682 -1.0027 -0.2961 -2.7960
  433MOL0     H59686   7.886   1.273  10.584 -1.0369 -0.6880  0.8692
  433MOL0     H59687   8.248   1.453  10.363 -0.8631 -1.2232  0.3231
  433MOL0     H59688   8.166   1.592  10.423  1.7429  1.4869 -2.0542
  433MOL0     H59689   8.029   1.444  10.195 -1.9809  1.3392  0.1750
  433MOL0     H59690   8.029   1.604  10.230 -1.4187 -1.2849 -0.4576
  433MOL0     H59691   8.269   1.639  10.168  1.8534 -1.9395 -0.7376
  433MOL0     H59692   8.292   1.482  10.122  0.6184  0.2096  0.8779
  433MOL0     H59693   8.126   1.489   9.936 -0.0533  1.5310 -3.0469
  433MOL0     H59694   8.073   1.648   9.997 -0.7763 -1.0157  3.4399
  433MOL0     H59695   8.330   1.562   9.872  1.2107  1.1112  1.5525
  433MOL0     H59696   8.335   1.695   9.967  0.8419 -1.2470 -1.0802
  433MOL0     H59697   8.147   1.674   9.717  0.5297 -0.0867  0.7953
  433MOL0     H59698   8.142   1.802   9.835  1.3130  0.8676 -0.6390
  433MOL0     H59699   8.275   1.842   9.619  1.8260  0.0221 -0.2331
  433MOL0     H59700   8.385   1.715   9.670  3.1766  2.9392 -1.1442
  433MOL0     H59701   8.343   1.990   9.781 -0.4218 -1.8231  2.1274
  433MOL0     H59702   8.420   1.864   9.893  3.9943 -1.3027 -0.0181
  433MOL0     H59703   8.656   1.797   9.866 -0.5506  0.5606  0.7004
  433MOL0     H59704   8.878   1.723   9.693  0.7801  0.2007  2.2277
  433MOL0     H59705   8.903   1.826   9.818  1.8758 -1.4914 -0.3991
  433MOL0     H59706   9.080   1.831   9.660 -1.0961 -1.1657 -1.2632
  433MOL0     H59707   8.975   1.908   9.536  0.3979  0.1695 -0.7730
  433MOL0     H59708   9.125   2.078   9.636 -0.9120  0.1475 -1.6865
  433MOL0     H59709   8.981   2.100   9.730 -1.2453 -0.6979 -1.3394
  433MOL0     H59710   9.146   2.113   9.879 -3.6778  0.2470 -1.0989
  433MOL0     H59711   9.088   1.944   9.912  0.8684 -0.7931  0.2677
  433MOL0     H59712   9.464   1.809   9.784 -1.4245 -0.6370  1.6410
  433MOL0     H59713   9.685   1.716   9.819 -1.4755  0.0186 -1.7652
  433MOL0     H59714   9.795   1.790   9.940  0.4621 -0.3929 -1.8785
  433MOL0     H59715   9.783   1.854   9.776  0.9675 -1.2756  0.1279
  433MOL0     H59716  10.014   1.941  10.192 -1.7267  0.7067  1.0045
  433MOL0     H59717  10.229   2.012  10.224 -1.1041 -0.3963 -2.3634
  433MOL0     H59718  10.450   2.148  10.353  1.7233 -0.0385 -0.0638
  433MOL0     H59719  10.421   2.123  10.180  2.7829 -2.1166  0.5299
  433MOL0     H59720  10.544   2.330  10.120 -3.0099 -0.5845 -0.3780
  433MOL0     H59721  10.531   2.379  10.296  1.6581 -0.8199  2.0968
  433MOL0     H59722  10.702   2.208  10.341  0.1677 -1.1556 -0.4903
  433MOL0     H59723  10.756   2.300  10.206  1.5485 -1.8031 -0.7561
  433MOL0     H59724  10.667   2.121  10.041  1.8587  2.4065  0.4785
  433MOL0     H59725  10.639   2.013  10.188  1.4495  1.0916  3.2046
  433MOL0     H59726  10.890   2.162  10.104  0.2872 -0.3681 -0.4830
  433MOL0     H59727  10.882   2.045  10.232  0.4426  2.1313  0.8889
  433MOL0     H59728  10.849   1.991   9.936  1.1207 -0.4116  0.1418
  433MOL0     H59729  10.849   1.860  10.061  0.8320  0.0177  0.8749
  433MOL0     H59730  11.068   1.944  10.151  4.1753  1.0602 -0.9603
  433MOL0     H59731  11.091   2.043  10.020  3.7383 -1.7364  2.6502
  433MOL0     H59732  11.041   1.878   9.853 -0.5460  1.6877 -0.2947
  433MOL0     H59733  11.031   1.750   9.984 -1.9215  1.7144  1.8685
  433MOL0     H59734  10.107   2.424  10.218  2.0659 -0.8482 -4.4941
  433MOL0     H59735   9.860   2.338  10.180 -0.7848 -1.6635 -0.3831
  433MOL0     H59736   9.522   2.131  10.141  1.0597 -1.0624  0.0384
  433MOL0     H59737   9.297   2.085  10.058  0.5111 -0.7699  0.6737
  433MOL0     H59738   7.952   1.675  10.431  0.2761  0.2339  1.8317
  433MOL0     H59739   7.730   1.732  10.519 -2.1116  0.7318  3.5517
  433MOL0     H59740   7.364   1.618  10.537 -0.6580  0.5016 -1.0890
  433MOL0     H59741   7.139   1.688  10.527  0.0814  1.4475  0.3724
  433MOL0     H59742   6.964   1.860  10.515  0.2205  0.7206  0.7084
  433MOL0     H59743   6.881   1.725  10.606 -1.1014  0.2028 -0.7298
  433MOL0     H59744   6.847   2.027  10.658  0.2445 -1.4214  1.0074
  433MOL0     H59745   6.775   1.899  10.734  0.6933  1.4821  0.1935
  433MOL0     H59746   6.734   1.972  10.445  1.5191  0.0462 -0.8606
  433MOL0     H59747   6.672   1.823  10.516  3.3052 -0.5167  0.8871
  433MOL0     H59748   6.572   2.109  10.563  0.5335 -0.2038  0.6109
  433MOL0     H59749   6.515   1.979  10.659 -0.2881  1.3192 -0.0666
  433MOL0     H59750   6.297   1.921  10.315 -0.1884  2.2833 -1.1646
  433MOL0     H59751   7.175   1.893  10.901  1.7747  1.0033 -0.1768
  433MOL0     H59752   7.508   1.880  10.957 -0.1898 -0.3067 -3.6283
  433MOL0     H59753   7.345   1.835  11.041 -0.6621 -0.1389  0.2781
  433MOL0     H59754   7.474   1.717  10.982 -0.6620 -0.8482 -4.9879
  434MOL0     O59755   5.610   6.712   9.466  0.8102 -0.3496  0.3082
  434MOL0     C59756   5.513   6.721   9.541 -0.6291 -0.4890  0.1359
  434MOL0     O59757   5.512   6.691   9.672 -0.4340  0.0401  0.1488
  434MOL0     C59758   5.636   6.664   9.735  0.3376  0.6159 -0.4922
  434MOL0     C59759   5.711   6.759   9.811  0.1306  0.2451  0.5222
  434MOL0     C59760   5.819   6.703   9.880 -1.1429  0.2844  0.2489
  434MOL0     C59761   5.866   6.569   9.867  0.4818 -0.0426 -0.0718
  434MOL0     O59762   5.983   6.522   9.927  0.5423 -1.1219 -0.0069
  434MOL0     C59763   6.095   6.616   9.914 -1.2759 -0.5605 -0.2812
  434MOL0     C59764   6.234   6.552   9.906 -0.4587  0.3546  0.5345
  434MOL0     C59765   6.271   6.508  10.044  0.0746  0.0188 -0.3673
  434MOL0     C59766   6.383   6.401  10.030  0.7971  0.1414  0.0787
  434MOL0     C59767   6.517   6.442  10.078  1.2915 -0.4962 -0.2839
  434MOL0     C59768   6.535   6.440  10.236 -0.5204 -0.4867  0.2500
  434MOL0     C59769   6.475   6.320  10.311  0.0273  0.9519  0.4664
  434MOL0     C59770   6.543   6.306  10.441 -0.7800  0.6625 -1.3338
  434MOL0     N59771   6.526   6.169  10.485  0.2552 -0.1624 -0.0334
  434MOL0     C59772   6.410   6.126  10.548  0.0806 -0.0809 -0.4125
  434MOL0     C59773   6.430   5.998  10.571 -0.8258  0.9793 -0.7156
  434MOL0     C59774   6.340   5.913  10.657  0.4329 -0.1294  0.1461
  434MOL0     C59775   6.396   5.834  10.769  1.3050  0.3275 -0.0479
  434MOL0     C59776   6.484   5.721  10.732  0.5090 -0.4202  0.5108
  434MOL0     C59777   6.516   5.635  10.852  0.4808 -0.3611 -0.5232
  434MOL0     O59778   6.619   5.543  10.814  0.9455 -1.0203  0.1503
  434MOL0     C59779   6.752   5.557  10.835  0.6257 -0.2340  0.0322
  434MOL0     C59780   6.798   5.683  10.873  0.2915 -0.7138 -0.2944
  434MOL0     C59781   6.934   5.710  10.905  0.9535  0.4110  0.5228
  434MOL0     C59782   6.960   5.841  10.961 -0.4036  0.2347  0.1355
  434MOL0     C59783   7.029   5.615  10.866 -0.5835  0.4663  0.1360
  434MOL0     C59784   7.182   5.629  10.878 -0.1502  0.3297  0.1445
  434MOL0     O59785   7.232   5.711  10.975 -0.3020 -0.3203 -0.1340
  434MOL0     C59786   7.361   5.703  11.015 -0.8788 -0.2262  0.1327
  434MOL0     C59787   7.464   5.734  10.922 -0.3958 -0.5369  0.6258
  434MOL0     C59788   7.599   5.704  10.956  0.8331  0.6426 -0.4143
  434MOL0     C59789   7.633   5.656  11.081 -0.0260 -0.4876  0.2573
  434MOL0     O59790   7.765   5.629  11.112  0.4504 -0.4148 -0.9242
  434MOL0     C59791   7.827   5.705  11.218  0.0373  0.2010 -0.3027
  434MOL0     C59792   7.904   5.623  11.317 -0.4585 -0.5355 -0.0316
  434MOL0     C59793   7.957   5.709  11.431  0.3765 -0.1114 -0.0916
  434MOL0     C59794   8.069   5.807  11.381  0.0307  0.2901  0.6069
  434MOL0     C59795   8.140   5.889  11.478  0.2218  1.4717 -1.3429
  434MOL0     C59796   8.201   5.814  11.596 -0.6538 -0.1508  0.4574
  434MOL0     C59797   8.308   5.712  11.557 -0.2098  0.6214 -0.6732
  434MOL0     C59798   8.344   5.616  11.669  0.0612  0.0335  0.6519
  434MOL0    Cl59799   8.469   5.518  11.615  0.3307 -0.1995  0.2980
  434MOL0     C59800   7.530   5.628  11.170  0.0988 -0.1442 -0.3552
  434MOL0     C59801   7.396   5.657  11.138 -0.0195 -0.4931  0.4652
  434MOL0     O59802   7.248   5.546  10.817 -0.0292  0.3307  0.2314
  434MOL0     C59803   6.987   5.481  10.823  0.0208  0.0842 -0.1116
  434MOL0     C59804   6.846   5.455  10.814 -0.1801 -0.5700 -0.5599
  434MOL0     N59805   6.551   5.955  10.509 -0.3845 -0.2724  0.1789
  434MOL0     N59806   6.609   6.064  10.459  0.3454 -0.4522 -0.6507
  434MOL0     C59807   5.779   6.480   9.801 -0.9644 -0.3223 -0.4135
  434MOL0     C59808   5.669   6.528   9.731  0.7811  0.3600 -0.3463
  434MOL0     C59809   5.384   6.767   9.491  0.2561 -0.1342  0.2139
  434MOL0     C59810   5.273   6.711   9.557 -0.6504 -0.2635  0.4153
  434MOL0     C59811   5.143   6.741   9.508 -0.2986  1.0156 -0.3244
  434MOL0     C59812   5.126   6.833   9.403 -0.1906  0.3541  0.7722
  434MOL0     O59813   5.003   6.878   9.351 -0.5809 -0.0244  0.1833
  434MOL0     C59814   4.894   6.881   9.437  0.3595  0.3593 -1.2509
  434MOL0     C59815   4.789   6.987   9.413  1.1244 -1.1335  0.2680
  434MOL0     C59816   4.858   7.118   9.359 -0.7863  0.0928  0.6987
  434MOL0     C59817   4.781   7.240   9.316 -0.4289 -0.5181  0.2674
  434MOL0     C59818   4.691   7.202   9.204  0.3159  1.0955 -0.4925
  434MOL0     C59819   4.598   7.167   9.132 -0.0859 -0.9148  0.2787
  434MOL0     C59820   5.240   6.882   9.329 -0.5134  0.5404 -0.0222
  434MOL0     C59821   5.370   6.849   9.373 -0.1232 -0.2449  0.6517
  434MOL0     C59822   5.482   6.912   9.285 -0.2643 -0.4868 -0.4257
  434MOL0     H59823   5.681   6.864   9.819 -1.3310  0.1406 -2.1886
  434MOL0     H59824   5.869   6.785   9.932 -1.2652  2.0410 -2.2163
  434MOL0     H59825   6.096   6.679  10.003  1.5996 -0.3452 -0.3749
  434MOL0     H59826   6.086   6.680   9.826  2.3200 -1.0664 -1.2174
  434MOL0     H59827   6.241   6.468   9.836 -0.9730  0.1116  0.7725
  434MOL0     H59828   6.313   6.619   9.870 -1.1528  0.5461 -0.7047
  434MOL0     H59829   6.303   6.595  10.102 -0.5498  0.9963 -1.4367
  434MOL0     H59830   6.184   6.470  10.098  0.3088  1.2684  0.9455
  434MOL0     H59831   6.349   6.316  10.090  1.0620 -2.0103 -2.6480
  434MOL0     H59832   6.390   6.366   9.927 -1.8091  1.3900 -0.5987
  434MOL0     H59833   6.536   6.545  10.045  0.7404 -0.7030 -1.3036
  434MOL0     H59834   6.594   6.380  10.030  0.6046 -0.0807 -1.9977
  434MOL0     H59835   6.644   6.435  10.235 -0.5012 -1.1242 -2.4326
  434MOL0     H59836   6.498   6.527  10.291 -1.0499 -1.2921  1.1831
  434MOL0     H59837   6.484   6.232  10.247 -0.7171 -0.7739  2.6117
  434MOL0     H59838   6.372   6.330  10.345  0.7229  0.1640  2.9776
  434MOL0     H59839   6.648   6.335  10.438 -1.2049  2.8986  1.2450
  434MOL0     H59840   6.504   6.373  10.519  0.2102 -0.5398  0.2417
  434MOL0     H59841   6.316   6.178  10.560 -0.5737 -0.9314 -1.6314
  434MOL0     H59842   6.278   5.851  10.591 -0.2348  0.5294  0.1472
  434MOL0     H59843   6.268   5.978  10.708 -2.0662 -0.2107 -2.9800
  434MOL0     H59844   6.447   5.902  10.838  3.3299  0.5002 -1.6276
  434MOL0     H59845   6.311   5.787  10.819 -0.7715  1.3535 -2.3753
  434MOL0     H59846   6.443   5.663  10.649 -0.4366 -0.2760  0.8602
  434MOL0     H59847   6.571   5.773  10.692 -0.8518  0.6633 -1.2101
  434MOL0     H59848   6.541   5.671  10.952  1.7490 -2.3056 -0.0964
  434MOL0     H59849   6.432   5.568  10.873  0.3901 -0.1017 -0.0574
  434MOL0     H59850   6.733   5.768  10.891  1.4314 -0.1841  1.5023
  434MOL0     H59851   7.029   5.836  11.046  0.0389 -1.4203 -0.2812
  434MOL0     H59852   6.869   5.894  10.989 -1.6952 -0.6914 -2.0730
  434MOL0     H59853   7.009   5.900  10.883 -0.0475 -1.7275 -1.1866
  434MOL0     H59854   7.424   5.770  10.828 -3.4963 -0.6279  1.7892
  434MOL0     H59855   7.682   5.718  10.887  1.7004  0.6342  0.6032
  434MOL0     H59856   7.881   5.784  11.165  1.4725 -1.8795 -2.1495
  434MOL0     H59857   7.745   5.745  11.278 -2.2380 -3.2926 -0.7749
  434MOL0     H59858   7.846   5.539  11.356  1.0448 -1.7662 -0.3803
  434MOL0     H59859   7.995   5.572  11.284 -0.6545 -0.9849  0.1167
  434MOL0     H59860   8.007   5.632  11.491  0.8542 -1.9615 -2.7016
  434MOL0     H59861   7.883   5.765  11.489  1.4032  2.3920 -1.0809
  434MOL0     H59862   8.026   5.882  11.314 -2.6048 -1.2368  0.4584
  434MOL0     H59863   8.146   5.751  11.329 -0.5246 -0.5348  0.6510
  434MOL0     H59864   8.217   5.948  11.429  1.5646 -0.3332 -1.5342
  434MOL0     H59865   8.073   5.963  11.523 -0.9358  1.0350 -2.2911
  434MOL0     H59866   8.129   5.760  11.658 -2.4476  0.7586 -0.7373
  434MOL0     H59867   8.248   5.892  11.656 -0.2096  2.2827 -2.7671
  434MOL0     H59868   8.396   5.776  11.548 -0.3148  0.6745 -1.4103
  434MOL0     H59869   8.283   5.656  11.467  0.9402 -0.8180 -0.1313
  434MOL0     H59870   8.250   5.564  11.688  0.1220  0.4479  2.2124
  434MOL0     H59871   8.375   5.673  11.757  2.9154  2.1346 -1.5050
  434MOL0     H59872   7.547   5.603  11.274  1.1539  2.3648  0.1484
  434MOL0     H59873   7.320   5.631  11.211  0.0034  1.6554  1.3087
  434MOL0     H59874   7.060   5.402  10.809 -2.1939 -2.3283  1.1057
  434MOL0     H59875   6.815   5.361  10.770 -0.7997 -0.3760 -0.5583
  434MOL0     H59876   5.810   6.376   9.793  0.3759 -0.0057  0.2842
  434MOL0     H59877   5.609   6.451   9.683 -0.6627  2.2615 -1.7655
  434MOL0     H59878   5.283   6.649   9.646 -4.1163  1.6126  2.3514
  434MOL0     H59879   5.060   6.700   9.565  2.3005 -1.2534  2.1400
  434MOL0     H59880   4.838   6.789   9.418  0.5116  0.4127 -1.9810
  434MOL0     H59881   4.935   6.888   9.538 -1.6175 -0.2949 -0.3494
  434MOL0     H59882   4.733   7.010   9.504 -1.4903  0.3005 -1.5892
  434MOL0     H59883   4.719   6.952   9.337  3.4845 -4.1841 -0.7017
  434MOL0     H59884   4.913   7.156   9.446  0.4303  0.0702 -0.0317
  434MOL0     H59885   4.925   7.093   9.276  0.4672  0.0688  1.6908
  434MOL0     H59886   4.853   7.314   9.279 -4.0373  1.8427 -2.8542
  434MOL0     H59887   4.729   7.281   9.403 -1.6402 -1.6538  0.1068
  434MOL0     H59888   4.513   7.148   9.069  1.2530 -2.5992 -1.1225
  434MOL0     H59889   5.221   6.943   9.242 -1.8976  1.8185  1.1169
  434MOL0     H59890   5.534   6.990   9.342 -0.3857 -1.4014  0.9771
  434MOL0     H59891   5.551   6.834   9.252 -2.4382 -1.7876 -2.1338
  434MOL0     H59892   5.449   6.964   9.195 -2.5629  1.3447  1.3575
  435MOL0     O59893   4.245   9.857   9.550 -0.5881 -0.0028  0.1663
  435MOL0     C59894   4.281   9.742   9.536 -0.2047  0.4096 -0.6484
  435MOL0     O59895   4.409   9.699   9.499  1.3548 -0.1325 -0.9890
  435MOL0     C59896   4.521   9.768   9.520  0.2350 -0.0584  0.2079
  435MOL0     C59897   4.624   9.745   9.422  1.0384 -0.5356 -0.4164
  435MOL0     C59898   4.735   9.832   9.423  0.0724 -0.3116 -0.6528
  435MOL0     C59899   4.758   9.929   9.524  0.3333 -0.0026  0.8616
  435MOL0     O59900   4.865  10.018   9.536 -0.4575 -0.2548  0.0656
  435MOL0     C59901   4.953  10.013   9.421 -0.7040  0.6193  0.0388
  435MOL0     C59902   5.082  10.081   9.476  0.3819 -0.0491 -0.5556
  435MOL0     C59903   5.193  10.081   9.364  0.6596 -0.5764  0.1343
  435MOL0     C59904   5.153  10.184   9.248  0.1050 -0.0666 -0.1039
  435MOL0     C59905   5.276  10.210   9.151  0.4660  0.1469 -0.1010
  435MOL0     C59906   5.364  10.336   9.190  0.5929 -0.3056 -0.4672
  435MOL0     C59907   5.494  10.350   9.106  0.1918  0.3887 -0.7473
  435MOL0     C59908   5.469  10.374   8.956 -0.8530  0.6669 -0.4185
  435MOL0     N59909   5.607  10.394   8.898 -0.1197  0.3603  0.3491
  435MOL0     C59910   5.660  10.521   8.865 -0.1866  0.2069 -0.7212
  435MOL0     C59911   5.779  10.493   8.803  0.0824  0.1406 -0.0041
  435MOL0     C59912   5.881  10.589   8.744  0.5435 -0.3479 -0.3698
  435MOL0     C59913   5.880  10.575   8.590 -0.4736 -0.0884  0.6974
  435MOL0     C59914   5.951  10.689   8.516  0.2110  0.0525 -0.3096
  435MOL0     C59915   6.099  10.704   8.547 -0.4730 -0.0531  0.6643
  435MOL0     O59916   6.157  10.577   8.506  0.3702  1.0237  0.1724
  435MOL0     C59917   6.289  10.544   8.536 -0.8876 -0.4229  0.4105
  435MOL0     C59918   6.385  10.638   8.571  0.2552  0.4196  0.5806
  435MOL0     C59919   6.522  10.604   8.598 -0.1517  0.1572  1.3755
  435MOL0     C59920   6.627  10.708   8.649 -0.1976 -0.3607  0.3796
  435MOL0     C59921   6.560  10.467   8.586 -1.4796 -0.4354  0.3605
  435MOL0     C59922   6.701  10.430   8.604  0.0187 -0.0107 -0.1848
  435MOL0     O59923   6.789  10.498   8.524  0.3833 -0.3087  0.1787
  435MOL0     C59924   6.924  10.477   8.544  0.0199 -0.9113  1.3990
  435MOL0     C59925   6.994  10.577   8.601 -0.5559  0.8371 -0.0301
  435MOL0     C59926   7.128  10.557   8.652  0.7891 -0.3082 -0.5135
  435MOL0     C59927   7.175  10.425   8.655  0.0436  0.4588  0.1045
  435MOL0     O59928   7.289  10.409   8.719  0.0735  0.7144 -0.3642
  435MOL0     C59929   7.317  10.280   8.776 -0.2105  0.7398 -0.6837
  435MOL0     C59930   7.442  10.281   8.864 -0.5897 -0.6505 -0.5787
  435MOL0     C59931   7.419  10.306   9.019  0.1473  0.0956 -0.4229
  435MOL0     C59932   7.355  10.185   9.098 -0.3008 -0.7136 -0.1197
  435MOL0     C59933   7.358  10.233   9.244 -0.1272  0.3838 -0.0973
  435MOL0     C59934   7.276  10.143   9.326 -0.4403  0.2359 -0.3044
  435MOL0     C59935   7.289  10.176   9.477 -0.1530 -0.3224  0.2486
  435MOL0     C59936   7.424  10.156   9.549 -0.1005  0.3650 -0.2179
  435MOL0    Cl59937   7.491   9.998   9.528  0.1319 -0.0580 -0.0056
  435MOL0     C59938   7.104  10.323   8.584 -0.3565 -0.4368 -0.5249
  435MOL0     C59939   6.976  10.352   8.537 -0.7708  0.2434  0.4143
  435MOL0     O59940   6.727  10.339   8.681  0.2681 -0.6413  0.2570
  435MOL0     C59941   6.465  10.377   8.544 -0.4455  0.8423 -0.5924
  435MOL0     C59942   6.331  10.410   8.528 -0.7200 -0.7997 -0.4011
  435MOL0     N59943   5.796  10.356   8.795  0.0038 -0.1199 -0.0155
  435MOL0     N59944   5.696  10.299   8.859  0.8644 -0.1008  0.2217
  435MOL0     C59945   4.657   9.942   9.617  0.5836  0.0392  0.0342
  435MOL0     C59946   4.545   9.868   9.616 -0.1608 -0.2286  1.0669
  435MOL0     C59947   4.191   9.628   9.575  0.1916  1.0272 -0.1576
  435MOL0     C59948   4.240   9.507   9.623 -1.0211 -0.0887 -0.3534
  435MOL0     C59949   4.163   9.405   9.679  0.1635  0.2746  0.0266
  435MOL0     C59950   4.031   9.426   9.695  0.3176  1.0040 -0.1819
  435MOL0     O59951   3.963   9.313   9.751  0.3053  0.0115 -0.0803
  435MOL0     C59952   3.830   9.287   9.709 -0.2279 -0.6087 -0.1954
  435MOL0     C59953   3.816   9.215   9.577  0.0913 -0.4173 -0.6021
  435MOL0     C59954   3.794   9.308   9.457  0.7250  0.3682  0.0961
  435MOL0     C59955   3.915   9.348   9.373 -0.6055  0.4069  0.2328
  435MOL0     C59956   3.946   9.239   9.274  0.1412  0.7658 -0.3948
  435MOL0     C59957   3.966   9.162   9.177 -0.5173 -1.0322  0.3529
  435MOL0     C59958   3.975   9.541   9.643 -0.1518  0.1885  0.6044
  435MOL0     C59959   4.052   9.640   9.572 -0.1673  1.1306 -0.1639
  435MOL0     C59960   3.974   9.733   9.496  0.2517 -0.1541  0.0374
  435MOL0     H59961   4.599   9.675   9.343  1.4172 -0.5240 -0.5456
  435MOL0     H59962   4.806   9.807   9.345  2.6652  1.0538  1.1097
  435MOL0     H59963   4.917  10.062   9.330 -0.3287  1.1876  0.1863
  435MOL0     H59964   4.977   9.910   9.392 -1.6801 -0.1323  1.7185
  435MOL0     H59965   5.062  10.178   9.521  1.1452 -0.3981  0.5653
  435MOL0     H59966   5.120  10.025   9.562  0.0808  1.8128  0.8374
  435MOL0     H59967   5.286  10.125   9.401  0.6180 -0.8813  0.6123
  435MOL0     H59968   5.211   9.978   9.332  1.5121 -0.3116 -0.2609
  435MOL0     H59969   5.072  10.147   9.184 -1.7747 -1.2210  2.7202
  435MOL0     H59970   5.127  10.277   9.299 -0.4679 -1.3247  2.0387
  435MOL0     H59971   5.237  10.223   9.050 -1.4106 -4.6928 -0.2251
  435MOL0     H59972   5.333  10.117   9.154  0.1602 -0.0256  2.1737
  435MOL0     H59973   5.312  10.432   9.193  0.3483 -0.4435 -0.2517
  435MOL0     H59974   5.400  10.322   9.293 -3.9371 -1.3747  1.1775
  435MOL0     H59975   5.549  10.256   9.116  0.2425  0.6312  2.4174
  435MOL0     H59976   5.557  10.429   9.149 -0.1242 -0.4515  1.3872
  435MOL0     H59977   5.419  10.290   8.907  1.8344 -1.8465  0.8099
  435MOL0     H59978   5.408  10.463   8.940  0.6373  1.5549 -1.5364
  435MOL0     H59979   5.629  10.623   8.884  0.3920  0.4943 -1.2760
  435MOL0     H59980   5.981  10.575   8.785  1.8563  0.7710 -2.9380
  435MOL0     H59981   5.845  10.691   8.760 -1.0476 -0.9681  0.2284
  435MOL0     H59982   5.917  10.474   8.571 -1.0628 -0.3318  0.8342
  435MOL0     H59983   5.775  10.572   8.563 -1.3655  3.0317  3.2548
  435MOL0     H59984   5.954  10.673   8.407  2.0305 -1.2793 -0.1167
  435MOL0     H59985   5.899  10.780   8.545  1.6330  1.3069 -1.4610
  435MOL0     H59986   6.131  10.785   8.481  1.4792 -1.0777  0.3017
  435MOL0     H59987   6.127  10.726   8.650  2.1022  3.7689 -0.6427
  435MOL0     H59988   6.354  10.742   8.572 -0.8630  0.1757 -1.7595
  435MOL0     H59989   6.691  10.747   8.570  1.1038 -2.2216  0.4533
  435MOL0     H59990   6.695  10.655   8.717 -0.3984 -0.4114  0.5427
  435MOL0     H59991   6.576  10.795   8.692  0.1763  1.0197 -1.7805
  435MOL0     H59992   6.952  10.677   8.595 -2.3154  0.1296  0.0146
  435MOL0     H59993   7.178  10.647   8.686 -1.5476  0.4448  1.1933
  435MOL0     H59994   7.230  10.241   8.831  3.0925 -3.0139  2.5156
  435MOL0     H59995   7.327  10.214   8.690 -0.6358  0.0017 -0.1791
  435MOL0     H59996   7.503  10.192   8.844 -1.7683 -1.1427 -2.2398
  435MOL0     H59997   7.500  10.366   8.827 -1.7930  0.3375 -0.2621
  435MOL0     H59998   7.347  10.388   9.031 -0.3238 -0.2938 -0.5623
  435MOL0     H59999   7.518  10.328   9.060  0.1363  0.0408 -0.3675
  435MOL0     H60000   7.409  10.094   9.075 -2.4513 -2.6093  1.7928
  435MOL0     H60001   7.250  10.176   9.067 -0.4597 -1.9652  0.7275
  435MOL0     H60002   7.463  10.235   9.275 -0.5487 -0.0871  1.4275
  435MOL0     H60003   7.311  10.331   9.257 -0.2397  0.7214 -2.5700
  435MOL0     H60004   7.300  10.037   9.314 -3.4866 -0.7808  1.2812
  435MOL0     H60005   7.169  10.153   9.305 -0.4625 -0.9306 -0.7935
  435MOL0     H60006   7.219  10.120   9.540 -2.2354  1.3401 -0.4982
  435MOL0     H60007   7.253  10.277   9.494  0.5011 -0.4870  3.0557
  435MOL0     H60008   7.401  10.176   9.654 -4.7503 -0.7915 -0.7700
  435MOL0     H60009   7.496  10.230   9.513 -0.1469  0.9277  0.8227
  435MOL0     H60010   7.126  10.217   8.585 -0.8991 -0.5597  0.8558
  435MOL0     H60011   6.921  10.264   8.503 -1.3077  0.6833  0.1284
  435MOL0     H60012   6.483  10.270   8.541  1.0590  0.6854  4.6555
  435MOL0     H60013   6.263  10.331   8.499 -1.1499  0.0223 -1.7103
  435MOL0     H60014   4.671  10.016   9.695  0.4743  0.2031 -0.0999
  435MOL0     H60015   4.470   9.889   9.691  0.8775  0.6643  1.8814
  435MOL0     H60016   4.348   9.498   9.620 -0.9493  0.7724 -0.7080
  435MOL0     H60017   4.217   9.320   9.720 -0.1436  0.7174  1.4105
  435MOL0     H60018   3.781   9.232   9.790 -0.7211  1.7715  1.2249
  435MOL0     H60019   3.768   9.377   9.698 -0.3366 -0.6578  0.0105
  435MOL0     H60020   3.733   9.144   9.584  1.0268 -1.3927  1.2124
  435MOL0     H60021   3.903   9.150   9.568  0.4580 -0.0984  0.4655
  435MOL0     H60022   3.719   9.254   9.398  3.2497 -2.5219 -0.7659
  435MOL0     H60023   3.734   9.392   9.492  0.5972  0.0719  0.6031
  435MOL0     H60024   4.002   9.365   9.437 -0.8343 -3.3025  1.7906
  435MOL0     H60025   3.884   9.438   9.319 -0.9325  1.3647  1.9416
  435MOL0     H60026   3.975   9.100   9.091  3.1315 -0.2384  0.0055
  435MOL0     H60027   3.866   9.537   9.643 -0.1181 -1.4293  0.5405
  435MOL0     H60028   4.029   9.806   9.436 -0.7378  1.1347  0.6410
  435MOL0     H60029   3.921   9.665   9.429 -2.7075 -0.3328  2.3306
  435MOL0     H60030   3.899   9.785   9.557  0.3751 -0.4783  0.4769
  436MOL0     O60031   4.852   0.120   9.034  0.7011 -0.2188 -0.1285
  436MOL0     C60032   4.735   0.119   8.987 -0.4390 -0.6627 -0.6966
  436MOL0     O60033   4.680   0.202   8.894 -0.4996  0.0801 -0.2157
  436MOL0     C60034   4.769   0.270   8.815 -0.7505 -0.0716  0.3064
  436MOL0     C60035   4.839   0.378   8.880  0.3578 -0.2868  0.5274
  436MOL0     C60036   4.924   0.451   8.799 -0.6190  0.5512 -0.7410
  436MOL0     C60037   4.953   0.426   8.664  0.9772  0.7963  0.0098
  436MOL0     O60038   5.050   0.506   8.598 -0.5078  0.4329  0.3872
  436MOL0     C60039   5.124   0.447   8.488 -0.9472 -0.1152 -0.1522
  436MOL0     C60040   5.220   0.550   8.441 -0.2238  0.6709  0.3759
  436MOL0     C60041   5.362   0.545   8.505  1.2271  0.5991  0.7015
  436MOL0     C60042   5.454   0.643   8.429  0.3159 -0.0220  0.4740
  436MOL0     C60043   5.604   0.634   8.473  0.2692 -0.2631  0.0727
  436MOL0     C60044   5.684   0.730   8.388 -0.5350  0.3871  0.2450
  436MOL0     C60045   5.829   0.722   8.427  0.1016 -0.1721  0.0092
  436MOL0     C60046   5.863   0.790   8.562  0.8684  0.2145  0.0359
  436MOL0     N60047   6.011   0.795   8.572  0.5283 -0.3398  0.1569
  436MOL0     C60048   6.095   0.841   8.474 -0.0552  0.1852 -0.1497
  436MOL0     C60049   6.220   0.807   8.508 -0.0628  0.4808 -0.0603
  436MOL0     C60050   6.357   0.824   8.435  0.6145 -1.3638 -0.3316
  436MOL0     C60051   6.376   0.698   8.355 -0.5397  0.0231 -0.1559
  436MOL0     C60052   6.484   0.708   8.248  0.5841 -0.2257 -0.2474
  436MOL0     C60053   6.501   0.574   8.186 -0.7689  0.1915  1.1674
  436MOL0     O60054   6.571   0.595   8.054 -0.7111 -0.0448 -0.6863
  436MOL0     C60055   6.709   0.592   8.065 -0.0730 -0.2011  0.5241
  436MOL0     C60056   6.780   0.489   8.120  0.0205 -0.7411 -0.4744
  436MOL0     C60057   6.923   0.485   8.122 -0.3295  0.4119  0.5856
  436MOL0     C60058   6.992   0.368   8.181 -1.0522  0.3375  0.4820
  436MOL0     C60059   6.988   0.606   8.069  0.5281  0.0292  0.1920
  436MOL0     C60060   7.135   0.617   8.046 -0.1023 -0.0716 -0.1737
  436MOL0     O60061   7.188   0.736   7.981  0.1791 -0.2551 -0.0428
  436MOL0     C60062   7.314   0.753   7.962 -0.5987 -0.1808  0.6448
  436MOL0     C60063   7.363   0.863   8.025 -0.6560  0.3697  0.5461
  436MOL0     C60064   7.491   0.894   8.013 -0.3370  0.1779  1.7389
  436MOL0     C60065   7.584   0.823   7.927 -0.9866 -0.7554 -0.4568
  436MOL0     O60066   7.713   0.865   7.907  0.7901 -0.0962  1.0465
  436MOL0     C60067   7.807   0.836   8.009  0.9474 -0.2531 -0.7034
  436MOL0     C60068   7.940   0.898   7.965  0.2546 -0.2831 -0.4430
  436MOL0     C60069   8.043   0.906   8.083 -0.1143 -0.0614  0.5962
  436MOL0     C60070   8.086   0.766   8.138 -0.0041  0.4758  0.1228
  436MOL0     C60071   8.189   0.776   8.254 -0.7426  0.4344  0.1017
  436MOL0     C60072   8.327   0.838   8.216  0.5315  0.4966  0.0366
  436MOL0     C60073   8.396   0.882   8.347  0.2505 -0.0009  0.1291
  436MOL0     C60074   8.349   1.027   8.390  0.6181  0.9539  0.5290
  436MOL0    Cl60075   8.387   1.073   8.554  0.1290  0.3064  0.2957
  436MOL0     C60076   7.530   0.711   7.855  0.4454 -0.6674 -0.2909
  436MOL0     C60077   7.395   0.673   7.876  0.8995 -0.0196 -0.1727
  436MOL0     O60078   7.204   0.526   8.086 -0.4315  0.8368 -0.4796
  436MOL0     C60079   6.906   0.709   8.018  0.5551  0.0012  0.6950
  436MOL0     C60080   6.771   0.704   8.020 -0.0750 -0.7837 -0.0060
  436MOL0     N60081   6.206   0.757   8.634 -0.3263  0.6564  0.7418
  436MOL0     N60082   6.082   0.751   8.672 -1.0142  0.2431  0.0421
  436MOL0     C60083   4.891   0.310   8.612  0.3955  0.3209  0.3718
  436MOL0     C60084   4.795   0.240   8.679  0.9252  0.2637 -0.8260
  436MOL0     C60085   4.644   0.039   9.055  0.1411  0.6032  0.2054
  436MOL0     C60086   4.539   0.116   9.119 -0.0135  0.2244 -0.2532
  436MOL0     C60087   4.444   0.065   9.209 -0.6307  0.3122 -0.3651
  436MOL0     C60088   4.448  -0.078   9.228 -0.2552 -0.3461  0.9914
  436MOL0     O60089   4.358  -0.143   9.311  0.5609 -0.1594  0.5890
  436MOL0     C60090   4.224  -0.163   9.263  0.0485  0.6764 -0.4470
  436MOL0     C60091   4.198  -0.247   9.135 -0.3436  0.9040  0.3042
  436MOL0     C60092   4.250  -0.393   9.142 -0.6747 -0.3938  0.2281
  436MOL0     C60093   4.186  -0.489   9.032  0.8649  0.0855  1.0834
  436MOL0     C60094   4.147  -0.422   8.906 -0.0424  0.4543 -1.4162
  436MOL0     C60095   4.101  -0.377   8.805  0.5758  0.5868 -0.1621
  436MOL0     C60096   4.550  -0.148   9.165 -0.2287  0.0013 -0.0827
  436MOL0     C60097   4.654  -0.091   9.087 -0.1705  0.7258  1.2576
  436MOL0     C60098   4.757  -0.180   9.030  0.1954 -0.3643 -0.1747
  436MOL0     H60099   4.821   0.408   8.983 -0.5477 -0.6817  0.4894
  436MOL0     H60100   4.979   0.532   8.846  0.2994 -0.4187 -0.1162
  436MOL0     H60101   5.057   0.421   8.406  0.0624 -2.1381 -0.3975
  436MOL0     H60102   5.176   0.358   8.526  0.0914 -0.2942 -1.8829
  436MOL0     H60103   5.231   0.530   8.334  2.0123 -2.0186  0.9839
  436MOL0     H60104   5.177   0.649   8.460  1.7928  1.1760  2.8771
  436MOL0     H60105   5.350   0.567   8.611 -0.1589 -0.7402  0.8560
  436MOL0     H60106   5.400   0.443   8.496  0.5079  0.4790 -1.7682
  436MOL0     H60107   5.457   0.625   8.321 -1.0095 -0.0040  0.4242
  436MOL0     H60108   5.408   0.742   8.435  0.2762 -0.0876  1.3697
  436MOL0     H60109   5.640   0.531   8.468 -0.7343 -0.5757 -1.9225
  436MOL0     H60110   5.603   0.672   8.576  0.9602  2.0890 -0.7223
  436MOL0     H60111   5.662   0.695   8.287 -0.8685  1.3967 -0.0399
  436MOL0     H60112   5.659   0.836   8.388  0.8398  0.7379 -0.5547
  436MOL0     H60113   5.898   0.749   8.346  0.3834 -0.8023  0.0310
  436MOL0     H60114   5.844   0.616   8.451 -1.3184 -0.9173 -2.0722
  436MOL0     H60115   5.827   0.894   8.565 -0.7180 -0.2649 -0.8502
  436MOL0     H60116   5.807   0.743   8.644  1.0166 -0.1569 -0.0797
  436MOL0     H60117   6.072   0.882   8.376  0.6241  2.7645  0.6798
  436MOL0     H60118   6.438   0.848   8.506 -0.8014 -3.3592  2.1349
  436MOL0     H60119   6.334   0.909   8.370 -1.1042 -1.7924 -0.3313
  436MOL0     H60120   6.399   0.610   8.416 -0.5881  0.6037  0.7332
  436MOL0     H60121   6.282   0.677   8.304  0.2844 -0.7431 -1.3985
  436MOL0     H60122   6.449   0.775   8.168 -2.0807 -0.0788  0.9301
  436MOL0     H60123   6.574   0.745   8.297 -1.4220  3.1364  1.2891
  436MOL0     H60124   6.562   0.524   8.262  1.9272  1.3102 -0.0998
  436MOL0     H60125   6.410   0.518   8.165 -0.6070  0.7151 -1.2890
  436MOL0     H60126   6.726   0.399   8.147 -1.5970  0.2028 -0.4157
  436MOL0     H60127   6.920   0.296   8.220 -1.3139 -1.2271 -2.5558
  436MOL0     H60128   7.068   0.400   8.252  0.0385 -0.2290 -0.3867
  436MOL0     H60129   7.044   0.307   8.107  1.0191  2.0888  0.3871
  436MOL0     H60130   7.300   0.931   8.082  0.7907  1.2697  1.1363
  436MOL0     H60131   7.525   0.994   8.042  0.5230  0.1185  1.0018
  436MOL0     H60132   7.772   0.890   8.098 -0.0937 -1.2149 -0.5069
  436MOL0     H60133   7.808   0.729   8.030 -0.4488  0.3065  3.0713
  436MOL0     H60134   7.982   0.850   7.876  1.0845  0.4807 -0.4702
  436MOL0     H60135   7.921   1.002   7.938 -1.7592 -0.7101 -0.8615
  436MOL0     H60136   8.003   0.962   8.168 -3.0699  1.4493 -1.6027
  436MOL0     H60137   8.123   0.970   8.046 -0.6897  0.5460  0.3840
  436MOL0     H60138   8.129   0.704   8.058  0.7959 -1.2509  1.8208
  436MOL0     H60139   8.004   0.707   8.181  1.3974 -2.5204 -0.9852
  436MOL0     H60140   8.138   0.845   8.322  1.4190 -0.5094  2.8385
  436MOL0     H60141   8.213   0.679   8.299  2.7415  0.1068 -2.1047
  436MOL0     H60142   8.316   0.928   8.156  0.4688  0.4736  0.0139
  436MOL0     H60143   8.386   0.773   8.152  1.9098  2.8608 -1.2224
  436MOL0     H60144   8.501   0.890   8.320 -0.5170  2.6077 -2.5003
  436MOL0     H60145   8.377   0.809   8.427 -0.4320  0.3684  0.3078
  436MOL0     H60146   8.242   1.035   8.366  0.5682 -1.6465 -0.3682
  436MOL0     H60147   8.390   1.102   8.322 -1.6825  1.5158 -0.3469
  436MOL0     H60148   7.601   0.658   7.792  2.0997  1.1657 -0.0674
  436MOL0     H60149   7.355   0.585   7.825 -1.9364  1.4127 -0.6126
  436MOL0     H60150   6.943   0.798   7.969 -0.1445 -0.7312 -1.2889
  436MOL0     H60151   6.715   0.787   7.977  0.6511 -0.3579 -0.1466
  436MOL0     H60152   4.904   0.265   8.514  0.3007  0.2115  0.4092
  436MOL0     H60153   4.747   0.162   8.621  0.1540  0.5234 -0.5360
  436MOL0     H60154   4.527   0.224   9.108  0.7992  0.3948  0.4544
  436MOL0     H60155   4.363   0.125   9.250 -0.7221  0.5683 -0.9007
  436MOL0     H60156   4.169  -0.210   9.345  1.3526 -1.2109 -0.5966
  436MOL0     H60157   4.173  -0.068   9.243  0.3344  1.3765  1.8804
  436MOL0     H60158   4.259  -0.197   9.059 -2.4900  1.2915 -1.2573
  436MOL0     H60159   4.093  -0.247   9.104 -0.9226 -2.3397  1.8302
  436MOL0     H60160   4.360  -0.390   9.139 -0.6410 -0.4186  1.0094
  436MOL0     H60161   4.233  -0.432   9.243 -0.3186  2.2945  1.3957
  436MOL0     H60162   4.095  -0.531   9.076  1.1797 -0.4422  1.2488
  436MOL0     H60163   4.258  -0.567   9.004 -0.0835 -0.6150  0.5489
  436MOL0     H60164   4.058  -0.349   8.711 -0.7031 -0.8085 -0.0179
  436MOL0     H60165   4.545  -0.255   9.183 -1.6556  0.0769  0.1064
  436MOL0     H60166   4.748  -0.176   8.921  0.7787  2.5289 -0.1851
  436MOL0     H60167   4.857  -0.160   9.069  2.1116 -2.8682 -3.2790
  436MOL0     H60168   4.743  -0.285   9.059  3.4716 -0.9761 -0.3687
  437MOL0     O60169   6.306   9.674  10.873  0.3004  0.2745  0.2718
  437MOL0     C60170   6.406   9.678  10.938  0.5500  0.6974 -0.8700
  437MOL0     O60171   6.432   9.770  11.035 -0.2512  0.1082 -0.1980
  437MOL0     C60172   6.333   9.848  11.089  0.7565 -1.0244 -0.4236
  437MOL0     C60173   6.359   9.880  11.218  0.1089  0.3567 -0.3526
  437MOL0     C60174   6.270   9.958  11.294  1.7969 -0.6590  0.3782
  437MOL0     C60175   6.154  10.013  11.227 -0.2417  0.2643  0.4028
  437MOL0     O60176   6.069  10.091  11.299  0.1925  0.0073 -0.0477
  437MOL0     C60177   5.929  10.087  11.267  0.2702 -0.1181 -0.0856
  437MOL0     C60178   5.859  10.118  11.390  0.0396  0.0011 -0.2950
  437MOL0     C60179   5.849  10.009  11.498 -0.2535  0.3282  1.3978
  437MOL0     C60180   5.762   9.890  11.447  0.0052 -0.0509  0.6329
  437MOL0     C60181   5.791   9.768  11.529  0.8092 -0.9541 -0.1299
  437MOL0     C60182   5.700   9.652  11.500 -0.4219  0.1377 -0.5050
  437MOL0     C60183   5.736   9.520  11.581  0.5186 -0.4028 -0.1607
  437MOL0     C60184   5.629   9.417  11.532 -0.2376 -0.3832 -0.4278
  437MOL0     N60185   5.672   9.283  11.560 -0.7096  0.8859 -0.7425
  437MOL0     C60186   5.615   9.175  11.508 -0.2109  0.5817  0.0788
  437MOL0     C60187   5.682   9.076  11.568 -0.1557  0.0612  0.4031
  437MOL0     C60188   5.682   8.930  11.536  0.1467 -0.1644 -0.1786
  437MOL0     C60189   5.787   8.893  11.443 -0.2925 -0.7392  0.4188
  437MOL0     C60190   5.797   8.738  11.430 -0.5161 -0.8191  0.5300
  437MOL0     C60191   5.927   8.714  11.343  0.3467 -0.3884 -0.9537
  437MOL0     O60192   5.962   8.573  11.328  0.1347  0.3471 -0.3341
  437MOL0     C60193   6.097   8.538  11.322 -0.1750 -0.6461 -0.6103
  437MOL0     C60194   6.109   8.409  11.299 -0.1565  0.0300 -0.0476
  437MOL0     C60195   6.236   8.346  11.282 -0.1358  0.3711 -1.1475
  437MOL0     C60196   6.238   8.203  11.242  0.6002 -0.7230 -0.0610
  437MOL0     C60197   6.353   8.430  11.287  0.6062  0.2769 -0.5618
  437MOL0     C60198   6.487   8.386  11.298 -0.3154  0.8565 -0.0978
  437MOL0     O60199   6.576   8.457  11.220  0.1152  0.5559 -0.3082
  437MOL0     C60200   6.700   8.393  11.203 -0.1950 -0.4328 -0.2679
  437MOL0     C60201   6.716   8.250  11.183  0.5285 -0.3106 -0.7329
  437MOL0     C60202   6.848   8.206  11.165 -0.1714 -0.4454  0.3333
  437MOL0     C60203   6.960   8.301  11.155 -0.0617  0.3221 -0.2384
  437MOL0     O60204   7.092   8.258  11.128  0.5997 -0.5872  0.2644
  437MOL0     C60205   7.127   8.122  11.120 -0.4808  0.8584  0.2743
  437MOL0     C60206   7.268   8.109  11.081 -0.7954  1.0511 -0.4930
  437MOL0     C60207   7.299   7.969  11.043 -0.4659  0.0403  0.5749
  437MOL0     C60208   7.451   7.943  11.053  0.0758  0.1085  0.5292
  437MOL0     C60209   7.505   7.805  11.013 -0.0439  0.3607  0.0312
  437MOL0     C60210   7.650   7.793  11.069  0.1776  0.2187  0.0944
  437MOL0     C60211   7.704   7.662  11.014  0.0639 -0.2779  0.1527
  437MOL0     C60212   7.843   7.645  11.086  0.1298 -0.5756  0.0114
  437MOL0    Cl60213   7.908   7.486  11.025  0.2412 -0.3127 -0.0909
  437MOL0     C60214   6.944   8.435  11.186 -0.1940  0.3869 -0.1159
  437MOL0     C60215   6.815   8.483  11.205 -0.4156 -0.2371  0.0420
  437MOL0     O60216   6.513   8.288  11.367  0.9382 -0.3381  0.1604
  437MOL0     C60217   6.336   8.573  11.299  0.5334  0.6765  1.0288
  437MOL0     C60218   6.212   8.622  11.323  0.8832  0.2406  0.1679
  437MOL0     N60219   5.758   9.129  11.674  0.1367 -0.2342  0.8828
  437MOL0     N60220   5.754   9.250  11.663  0.2130 -0.1936 -0.3049
  437MOL0     C60221   6.139   9.994  11.088  0.4072  0.8131 -0.4950
  437MOL0     C60222   6.229   9.908  11.022 -0.1661 -0.5109 -0.2809
  437MOL0     C60223   6.501   9.568  10.923 -0.2519  0.5182 -0.0087
  437MOL0     C60224   6.537   9.534  10.787 -0.1026  0.4590 -0.7599
  437MOL0     C60225   6.608   9.417  10.767 -1.0820 -0.3841 -0.6608
  437MOL0     C60226   6.668   9.352  10.871  0.5629  0.3464 -1.0933
  437MOL0     O60227   6.761   9.252  10.861  0.3238 -0.3863  0.4098
  437MOL0     C60228   6.893   9.300  10.824 -0.2759  0.5693  0.3442
  437MOL0     C60229   6.993   9.182  10.819 -0.2277  0.4139  0.6763
  437MOL0     C60230   6.967   9.091  10.700  0.0298  0.9386 -1.2341
  437MOL0     C60231   7.095   9.008  10.661  0.6446  0.4191 -0.6189
  437MOL0     C60232   7.065   8.891  10.575  0.6359  0.4928 -0.4435
  437MOL0     C60233   7.058   8.790  10.500 -0.3703 -0.7854  0.1522
  437MOL0     C60234   6.647   9.398  11.007 -0.3313 -0.1025 -0.7173
  437MOL0     C60235   6.550   9.500  11.034 -0.7521 -0.7017  0.6383
  437MOL0     C60236   6.522   9.518  11.177 -1.3469 -0.7214  1.3040
  437MOL0     H60237   6.447   9.839  11.265 -0.2006 -0.6081 -0.5823
  437MOL0     H60238   6.290   9.962  11.400  0.0745 -1.8545  0.7844
  437MOL0     H60239   5.884   9.991  11.238  0.1102 -0.4600  1.2219
  437MOL0     H60240   5.910  10.164  11.192  1.3844 -0.0917 -0.3602
  437MOL0     H60241   5.895  10.206  11.444 -0.6033 -0.7149  1.3789
  437MOL0     H60242   5.763  10.156  11.354  1.7668  1.4704 -3.7498
  437MOL0     H60243   5.950   9.979  11.527  0.8099  2.2431 -0.0904
  437MOL0     H60244   5.795  10.043  11.587 -0.5387  0.9116  1.0080
  437MOL0     H60245   5.661   9.931  11.456 -0.6180 -0.4260 -3.0690
  437MOL0     H60246   5.766   9.857  11.343 -0.5008 -0.3966  0.7209
  437MOL0     H60247   5.775   9.791  11.635  1.2632  0.0581 -0.2660
  437MOL0     H60248   5.898   9.745  11.524  1.6158  2.0015  1.1813
  437MOL0     H60249   5.595   9.672  11.521 -0.4163  2.6832 -2.3170
  437MOL0     H60250   5.701   9.636  11.392  1.2245  0.8297 -0.6334
  437MOL0     H60251   5.732   9.538  11.688 -0.2658 -0.9842 -0.0807
  437MOL0     H60252   5.830   9.473  11.553 -1.1301 -2.1956 -3.2665
  437MOL0     H60253   5.530   9.439  11.573  0.1837 -0.1196  0.4894
  437MOL0     H60254   5.612   9.423  11.425 -0.1276  0.9124 -0.3908
  437MOL0     H60255   5.559   9.164  11.416  1.0515 -1.4422 -0.5037
  437MOL0     H60256   5.592   8.899  11.482  1.9616  1.4426 -4.6037
  437MOL0     H60257   5.691   8.874  11.629 -2.5595 -1.3009 -0.5108
  437MOL0     H60258   5.765   8.934  11.344 -0.7914 -0.4934  0.6276
  437MOL0     H60259   5.877   8.938  11.487 -0.5316  1.8985 -1.5376
  437MOL0     H60260   5.801   8.681  11.523  2.3256 -0.8801  0.4665
  437MOL0     H60261   5.711   8.711  11.368  0.9395 -2.2347 -0.9541
  437MOL0     H60262   5.921   8.757  11.242 -2.1423  0.9765 -0.3112
  437MOL0     H60263   5.998   8.776  11.398 -1.9778  1.4453  0.1636
  437MOL0     H60264   6.019   8.350  11.306  1.3413 -2.7880 -2.3728
  437MOL0     H60265   6.277   8.152  11.330  3.2235  1.8727  0.4317
  437MOL0     H60266   6.302   8.185  11.155 -2.1533 -3.8313 -1.6700
  437MOL0     H60267   6.139   8.163  11.216  0.7838  0.1820 -2.4296
  437MOL0     H60268   6.631   8.184  11.171  3.0705 -3.7361 -1.6639
  437MOL0     H60269   6.872   8.101  11.151  1.0548  0.0505 -1.7347
  437MOL0     H60270   7.129   8.074  11.218  2.7299  2.1208  0.9645
  437MOL0     H60271   7.065   8.070  11.047  0.7992 -0.6886  0.2307
  437MOL0     H60272   7.279   8.177  10.996  0.5291 -0.1098 -1.3013
  437MOL0     H60273   7.330   8.145  11.164 -0.7296  1.0428 -0.5394
  437MOL0     H60274   7.263   7.948  10.942  0.4561 -3.0051  0.7707
  437MOL0     H60275   7.241   7.900  11.104 -0.2299 -1.4173 -0.7683
  437MOL0     H60276   7.464   7.952  11.161 -0.0163  2.5032  0.4074
  437MOL0     H60277   7.505   8.023  11.000  1.9883  0.8400  3.3453
  437MOL0     H60278   7.449   7.724  11.061  0.6042  0.7545  1.5047
  437MOL0     H60279   7.494   7.779  10.907 -2.1037 -0.8158  0.4757
  437MOL0     H60280   7.640   7.794  11.178  2.1026 -2.0711  0.3842
  437MOL0     H60281   7.718   7.876  11.045  0.6037 -0.4602 -1.0750
  437MOL0     H60282   7.719   7.682  10.908 -0.6358  1.5937  0.3664
  437MOL0     H60283   7.640   7.574  11.023  0.7200 -0.6318  1.8443
  437MOL0     H60284   7.838   7.644  11.195  2.9833 -2.0413  0.2386
  437MOL0     H60285   7.900   7.730  11.046 -0.5191  0.4393  1.1689
  437MOL0     H60286   7.035   8.495  11.186 -0.3322  0.5987  0.0394
  437MOL0     H60287   6.799   8.589  11.220  0.4961 -0.1680  0.6151
  437MOL0     H60288   6.420   8.639  11.283 -0.8159  1.6735 -3.5475
  437MOL0     H60289   6.195   8.729  11.326  1.3179  0.2963  2.5664
  437MOL0     H60290   6.058  10.041  11.034  1.4002  1.0578 -1.8128
  437MOL0     H60291   6.231   9.885  10.916 -1.7908  0.7446 -0.6234
  437MOL0     H60292   6.490   9.598  10.713  1.0141 -0.8675 -2.7165
  437MOL0     H60293   6.632   9.389  10.665  5.7910  3.0829 -0.5176
  437MOL0     H60294   6.901   9.350  10.727  0.8305 -1.6819 -0.8021
  437MOL0     H60295   6.928   9.377  10.892 -0.7215  1.8294 -0.7991
  437MOL0     H60296   7.001   9.128  10.914  1.7649  2.8951  2.0741
  437MOL0     H60297   7.086   9.231  10.789  0.1617 -1.2114 -0.8774
  437MOL0     H60298   6.890   9.017  10.724  1.2748 -0.9356 -2.7510
  437MOL0     H60299   6.931   9.147  10.613  0.8938  1.0566 -1.5204
  437MOL0     H60300   7.140   8.972  10.754 -0.7043  0.1960 -0.0428
  437MOL0     H60301   7.173   9.059  10.604  1.9237 -0.2879  0.4388
  437MOL0     H60302   7.042   8.707  10.434  1.0683  0.9781 -2.6161
  437MOL0     H60303   6.691   9.341  11.088  0.6244  0.5148 -0.7822
  437MOL0     H60304   6.584   9.455  11.240  2.6952 -0.0338 -1.6079
  437MOL0     H60305   6.548   9.618  11.213  0.0315 -1.1961  1.6943
  437MOL0     H60306   6.418   9.509  11.210 -1.8187  4.1287  1.7948
  438MOL0     O60307   9.770   2.037   3.532 -0.2108  0.2284 -0.0082
  438MOL0     C60308   9.839   1.939   3.545 -0.2840 -0.1183 -0.3767
  438MOL0     O60309   9.969   1.934   3.594  0.7236  0.2497  0.1624
  438MOL0     C60310  10.049   2.042   3.573 -0.1370  0.3003 -1.0153
  438MOL0     C60311  10.033   2.148   3.486  0.1498  0.2782  0.4722
  438MOL0     C60312  10.129   2.249   3.484  0.5004  0.6001  0.2148
  438MOL0     C60313  10.233   2.251   3.573 -1.1622 -0.5666 -0.8077
  438MOL0     O60314  10.310   2.364   3.574 -0.2875 -0.6489 -0.7309
  438MOL0     C60315  10.434   2.357   3.636  0.6499 -0.1901 -0.1513
  438MOL0     C60316  10.525   2.484   3.611 -0.2019 -0.0520  0.0926
  438MOL0     C60317  10.566   2.515   3.470  0.7058  0.1764 -0.4741
  438MOL0     C60318  10.634   2.657   3.460 -0.1644 -1.2353 -0.1184
  438MOL0     C60319  10.704   2.673   3.322 -0.3690  0.5308 -0.8144
  438MOL0     C60320  10.609   2.677   3.204  0.6045  0.6945 -0.0170
  438MOL0     C60321  10.702   2.668   3.085 -0.7737  0.2138  0.6790
  438MOL0     C60322  10.641   2.681   2.947  0.6453  0.4583  1.0305
  438MOL0     N60323  10.736   2.641   2.845 -0.1471  0.2739  0.0757
  438MOL0     C60324  10.843   2.703   2.800 -0.0801 -0.1917 -0.4629
  438MOL0     C60325  10.878   2.650   2.685  0.2735 -0.1101 -0.1923
  438MOL0     C60326  10.977   2.712   2.596 -0.4776  0.1940 -0.4171
  438MOL0     C60327  11.121   2.664   2.597 -0.1527  0.1758 -0.5700
  438MOL0     C60328  11.197   2.735   2.491 -0.8396 -0.6772  0.3015
  438MOL0     C60329  11.353   2.742   2.523 -0.4187 -0.0908  0.1957
  438MOL0     O60330  11.402   2.615   2.559 -0.3802 -0.0979  0.3817
  438MOL0     C60331  11.535   2.600   2.580 -0.0809  0.2109  0.4805
  438MOL0     C60332  11.632   2.699   2.575 -0.5816 -0.5072  0.2304
  438MOL0     C60333  11.765   2.669   2.584 -0.1490  0.1128  0.1180
  438MOL0     C60334  11.865   2.781   2.567 -0.1626 -0.1117 -0.0329
  438MOL0     C60335  11.807   2.534   2.614 -0.3967  0.6261 -0.0439
  438MOL0     C60336  11.949   2.485   2.644  0.0235  0.1358 -0.8266
  438MOL0     O60337  11.968   2.348   2.673 -0.1895  0.0252  0.1100
  438MOL0     C60338  12.066   2.315   2.765 -0.6720  1.0492 -0.5956
  438MOL0     C60339  12.031   2.283   2.890  0.1375 -0.1514 -0.2086
  438MOL0     C60340  12.120   2.259   2.987  0.1471 -0.5961  0.7738
  438MOL0     C60341  12.257   2.263   2.964  0.1748  0.9957 -1.9389
  438MOL0     O60342  12.341   2.226   3.074 -0.1338  0.2167  0.8496
  438MOL0     C60343  12.488   2.213   3.063 -0.0420 -0.5252  0.2783
  438MOL0     C60344  12.567   2.278   3.188  1.2857  0.1251 -0.8544
  438MOL0     C60345  12.724   2.296   3.177  0.5441  0.3764  0.1180
  438MOL0     C60346  12.795   2.162   3.139 -0.1348 -0.5384  0.1005
  438MOL0     C60347  12.767   2.041   3.233  0.4682  0.3348 -0.8615
  438MOL0     C60348  12.808   2.055   3.382 -0.0805 -0.4081  0.7391
  438MOL0     C60349  12.957   2.089   3.386 -0.4453 -0.5562 -0.4727
  438MOL0     C60350  13.012   2.081   3.537 -0.2090 -0.4404 -0.5276
  438MOL0    Cl60351  12.975   2.214   3.646  0.0819  0.0753  0.3670
  438MOL0     C60352  12.299   2.273   2.834  0.0481 -0.6851 -0.2044
  438MOL0     C60353  12.204   2.309   2.735 -0.1191 -0.1076  0.6342
  438MOL0     O60354  12.037   2.570   2.652  0.1812 -0.3162  0.2652
  438MOL0     C60355  11.710   2.433   2.630 -0.0921  0.6515  0.2659
  438MOL0     C60356  11.579   2.472   2.605 -0.4077  0.1017 -0.2187
  438MOL0     N60357  10.790   2.552   2.653  0.3906 -0.7633 -0.3133
  438MOL0     N60358  10.706   2.543   2.749 -0.6270  0.1895  0.1361
  438MOL0     C60359  10.242   2.146   3.664 -0.8543  0.9848 -1.2112
  438MOL0     C60360  10.159   2.033   3.656  0.6089  0.8520 -0.3400
  438MOL0     C60361   9.786   1.811   3.490  0.2609 -0.0433  0.2558
  438MOL0     C60362   9.644   1.805   3.455 -0.4770 -0.1107 -0.1192
  438MOL0     C60363   9.590   1.700   3.391 -0.4943 -0.4280  0.2692
  438MOL0     C60364   9.667   1.590   3.362 -0.2932 -0.5192 -0.3348
  438MOL0     O60365   9.611   1.474   3.310  0.1108 -0.9005 -0.0467
  438MOL0     C60366   9.465   1.464   3.314  0.7216  0.1057  0.4407
  438MOL0     C60367   9.409   1.327   3.280  0.0766  0.4799 -0.5178
  438MOL0     C60368   9.449   1.276   3.142  0.2106  0.7204 -0.1386
  438MOL0     C60369   9.366   1.146   3.110 -0.2474 -0.1571 -0.0249
  438MOL0     C60370   9.363   1.135   2.967  0.0606 -0.9964 -0.6416
  438MOL0     C60371   9.362   1.123   2.848  0.3613  1.4275 -0.1538
  438MOL0     C60372   9.804   1.589   3.386  0.3626  0.4295 -0.1348
  438MOL0     C60373   9.866   1.700   3.443  0.7347  0.6976  0.4624
  438MOL0     C60374  10.010   1.699   3.439 -0.8905  0.3310 -0.0592
  438MOL0     H60375   9.947   2.148   3.419  0.2945 -2.5635  0.1747
  438MOL0     H60376  10.128   2.323   3.405  0.8175  1.0742  0.6532
  438MOL0     H60377  10.485   2.269   3.596  0.3188 -0.8888  0.9145
  438MOL0     H60378  10.409   2.343   3.742  0.4292  0.8685 -0.0524
  438MOL0     H60379  10.470   2.568   3.653  0.2857  0.3269 -0.0212
  438MOL0     H60380  10.614   2.480   3.674 -0.1272  0.6065  0.0332
  438MOL0     H60381  10.623   2.430   3.431  2.7094  1.5487 -0.6894
  438MOL0     H60382  10.477   2.525   3.407  1.8633  2.0450 -1.8999
  438MOL0     H60383  10.560   2.737   3.471  1.0392  0.0768 -1.1547
  438MOL0     H60384  10.694   2.656   3.551 -1.2946 -0.2965  0.6631
  438MOL0     H60385  10.771   2.588   3.306  0.4131  1.0395 -0.3553
  438MOL0     H60386  10.766   2.763   3.331  1.4440 -0.7247  0.0079
  438MOL0     H60387  10.538   2.594   3.207  0.3375  0.8842 -0.7721
  438MOL0     H60388  10.556   2.772   3.213 -0.9778 -0.3379  2.3625
  438MOL0     H60389  10.750   2.571   3.095  0.0564  0.6730  1.2589
  438MOL0     H60390  10.780   2.743   3.100  0.4451 -1.0555  0.7965
  438MOL0     H60391  10.551   2.619   2.951  1.3519 -0.5690  1.5720
  438MOL0     H60392  10.612   2.783   2.922 -3.3214 -0.8983 -0.5624
  438MOL0     H60393  10.884   2.793   2.844 -0.0836  0.6551 -2.1517
  438MOL0     H60394  10.985   2.818   2.620 -0.6558  0.3210 -0.9133
  438MOL0     H60395  10.932   2.707   2.496  0.2882  1.2733 -0.8365
  438MOL0     H60396  11.162   2.685   2.696  2.6705  0.1078 -1.6285
  438MOL0     H60397  11.113   2.555   2.583  0.6233  0.2700 -1.8431
  438MOL0     H60398  11.184   2.689   2.392 -0.9010  1.2905 -0.6515
  438MOL0     H60399  11.167   2.840   2.500  1.7559 -0.0313  3.4792
  438MOL0     H60400  11.393   2.781   2.429 -0.7920 -0.2413 -0.0288
  438MOL0     H60401  11.362   2.814   2.604 -1.4069  0.5436 -0.2407
  438MOL0     H60402  11.597   2.800   2.558 -0.5172 -0.8347 -2.2325
  438MOL0     H60403  11.905   2.797   2.667 -3.5460  0.6925  1.3508
  438MOL0     H60404  11.815   2.871   2.528  0.7461  0.8373  0.9373
  438MOL0     H60405  11.956   2.762   2.510  1.0029  2.6872  0.7459
  438MOL0     H60406  11.925   2.299   2.908  0.0593  0.6687 -1.3137
  438MOL0     H60407  12.081   2.235   3.085 -2.7205  0.1930 -0.0719
  438MOL0     H60408  12.514   2.107   3.060  0.6342 -0.3657  0.3961
  438MOL0     H60409  12.521   2.255   2.968  0.1559  0.2867  0.6926
  438MOL0     H60410  12.526   2.379   3.194  2.0698  0.7419 -4.0031
  438MOL0     H60411  12.542   2.222   3.278  0.7668  0.7692 -0.5956
  438MOL0     H60412  12.755   2.327   3.278  0.2252  1.3442 -0.0713
  438MOL0     H60413  12.752   2.376   3.107 -1.8516  0.0191 -1.3346
  438MOL0     H60414  12.903   2.170   3.127  0.2686  0.1754  3.3664
  438MOL0     H60415  12.762   2.137   3.038  2.4694 -0.3322 -0.8713
  438MOL0     H60416  12.662   2.011   3.242  0.8700 -0.8557  0.1210
  438MOL0     H60417  12.816   1.954   3.189 -0.1823  0.5662 -2.0808
  438MOL0     H60418  12.794   1.962   3.437 -0.2246 -1.0066 -0.2850
  438MOL0     H60419  12.759   2.139   3.431 -1.2215 -1.1010  0.8306
  438MOL0     H60420  12.978   2.188   3.345 -1.7727 -0.0522  0.0187
  438MOL0     H60421  13.009   2.013   3.327 -0.7774 -0.6776 -0.6117
  438MOL0     H60422  13.121   2.071   3.528  0.2435  3.2576 -0.6474
  438MOL0     H60423  12.970   1.986   3.572  0.8437 -1.3270 -1.5768
  438MOL0     H60424  12.403   2.262   2.804  0.9796  2.1092  1.6083
  438MOL0     H60425  12.240   2.330   2.635  0.8174 -0.2548  0.9203
  438MOL0     H60426  11.723   2.329   2.657  0.9502  0.2072 -1.7437
  438MOL0     H60427  11.516   2.384   2.602  2.6957 -2.2507 -2.9943
  438MOL0     H60428  10.317   2.139   3.743 -0.0875  2.9171 -1.7080
  438MOL0     H60429  10.175   1.948   3.722  0.9832  2.4421  1.7286
  438MOL0     H60430   9.587   1.896   3.471 -0.9894  0.5093 -4.2731
  438MOL0     H60431   9.486   1.707   3.361 -1.3889  0.9863  3.3237
  438MOL0     H60432   9.425   1.497   3.410 -2.9124 -0.4397 -0.7182
  438MOL0     H60433   9.421   1.530   3.239  0.5301  1.2476  1.5313
  438MOL0     H60434   9.300   1.327   3.293 -0.0555 -4.2680  0.1244
  438MOL0     H60435   9.448   1.253   3.350 -1.7115  0.2533  0.3036
  438MOL0     H60436   9.432   1.346   3.060  2.3772 -0.0018 -1.2796
  438MOL0     H60437   9.555   1.249   3.134  0.1044 -0.9945  2.6062
  438MOL0     H60438   9.269   1.159   3.159  0.1380  2.9950  0.1206
  438MOL0     H60439   9.410   1.054   3.150  0.6021 -0.5805 -1.8258
  438MOL0     H60440   9.365   1.108   2.742 -2.3332 -3.2863  0.1808
  438MOL0     H60441   9.861   1.507   3.344 -1.9665 -0.5040 -1.6625
  438MOL0     H60442  10.039   1.719   3.542 -0.7209 -0.4852  0.0563
  438MOL0     H60443  10.052   1.605   3.402  1.7728  1.8671 -1.2747
  438MOL0     H60444  10.037   1.787   3.379 -0.9649  0.7496  0.5196
  439MOL0     O60445   9.004   8.118  10.457  0.0586 -0.0574 -0.4305
  439MOL0     C60446   8.992   7.995  10.456 -0.0203  0.0462  0.8069
  439MOL0     O60447   9.092   7.905  10.483  0.1235 -0.2140  0.1435
  439MOL0     C60448   9.222   7.935  10.446 -0.9204  0.4058 -0.2849
  439MOL0     C60449   9.285   8.049  10.505 -0.0308 -0.2291  0.2827
  439MOL0     C60450   9.413   8.092  10.464 -0.1992  1.2568  0.4665
  439MOL0     C60451   9.487   8.021  10.368 -0.0371  0.1997 -0.3563
  439MOL0     O60452   9.617   8.053  10.330 -0.3371  1.0208  0.3133
  439MOL0     C60453   9.684   8.176  10.346 -0.8500  0.6977  0.1789
  439MOL0     C60454   9.775   8.190  10.225 -0.2789 -0.0466  0.5164
  439MOL0     C60455   9.887   8.075  10.204 -0.8332  0.5122  0.2002
  439MOL0     C60456  10.008   8.104  10.295  0.6228 -0.1535 -1.0019
  439MOL0     C60457  10.128   8.013  10.265  0.1912 -0.3810 -0.4129
  439MOL0     C60458  10.243   8.021  10.371  0.0342 -0.1415  0.2272
  439MOL0     C60459  10.358   7.927  10.351 -0.8319 -0.3575  0.2858
  439MOL0     C60460  10.462   7.929  10.466  0.2872 -0.3263 -0.3873
  439MOL0     N60461  10.604   7.911  10.421 -0.4960  0.4693  0.1646
  439MOL0     C60462  10.644   7.794  10.357  0.3092 -0.1323 -0.0834
  439MOL0     C60463  10.781   7.803  10.363 -0.4565  0.2472  0.3922
  439MOL0     C60464  10.865   7.689  10.304  0.2774  0.3272  0.3425
  439MOL0     C60465  10.961   7.743  10.205  0.1828  0.0011  0.5269
  439MOL0     C60466  11.032   7.617  10.160  0.1353 -0.5813 -0.3938
  439MOL0     C60467  11.144   7.645  10.052  0.1673 -0.5582  0.0703
  439MOL0     O60468  11.254   7.710  10.105  0.8758 -0.4685  0.0747
  439MOL0     C60469  11.363   7.734  10.030 -0.6033  0.2013 -0.3614
  439MOL0     C60470  11.368   7.720   9.888  0.6455 -0.0397  0.1034
  439MOL0     C60471  11.487   7.746   9.824  0.7802 -0.4300  0.6712
  439MOL0     C60472  11.501   7.735   9.674  0.0273  0.6710 -0.4658
  439MOL0     C60473  11.603   7.799   9.896  0.3731 -1.0289 -0.2478
  439MOL0     C60474  11.722   7.855   9.824 -0.1060 -0.2443 -0.2527
  439MOL0     O60475  11.820   7.893   9.909  0.4033 -0.0382 -0.7438
  439MOL0     C60476  11.931   7.947   9.853 -0.5984 -0.2079 -0.1823
  439MOL0     C60477  12.055   7.878   9.839  0.2285  0.1061  1.0762
  439MOL0     C60478  12.160   7.934   9.771 -0.1913  0.6087  0.3210
  439MOL0     C60479  12.152   8.060   9.717 -0.5622  0.0342 -0.6455
  439MOL0     O60480  12.251   8.119   9.646 -0.1038 -0.1484  0.2201
  439MOL0     C60481  12.340   8.040   9.573 -0.2790 -0.2459 -0.4689
  439MOL0     C60482  12.420   8.138   9.487 -0.1502 -0.4369  0.0303
  439MOL0     C60483  12.576   8.124   9.469  0.4333 -0.8040  0.5954
  439MOL0     C60484  12.609   8.001   9.383  0.7439  0.0367 -0.4082
  439MOL0     C60485  12.760   7.976   9.370  0.6167  0.0647  0.7627
  439MOL0     C60486  12.831   8.076   9.283  0.3274  0.4100  0.3321
  439MOL0     C60487  12.969   8.025   9.244 -0.6225  0.4306  0.4223
  439MOL0     C60488  13.065   7.976   9.347 -1.0165  0.4573 -0.0748
  439MOL0    Cl60489  13.045   8.106   9.480 -0.2654 -0.1991 -0.0319
  439MOL0     C60490  12.042   8.132   9.740  0.5890  0.0935 -0.4263
  439MOL0     C60491  11.927   8.079   9.805 -0.4570  0.0953  0.4669
  439MOL0     O60492  11.732   7.857   9.702  0.1277 -0.1391 -0.2957
  439MOL0     C60493  11.594   7.814  10.031  0.6784 -0.2352  0.2078
  439MOL0     C60494  11.472   7.782  10.096 -0.5767  0.0925  0.4781
  439MOL0     N60495  10.828   7.923  10.416 -0.2276  0.2019 -0.0313
  439MOL0     N60496  10.717   7.979  10.455  0.0871 -0.6405  0.2003
  439MOL0     C60497   9.425   7.907  10.312  0.0431  1.1369  0.0178
  439MOL0     C60498   9.297   7.860  10.362  0.2000 -0.8502  0.1569
  439MOL0     C60499   8.849   7.946  10.458  0.0406 -0.1692 -0.9461
  439MOL0     C60500   8.804   7.873  10.568  0.7047 -0.6480 -0.3654
  439MOL0     C60501   8.678   7.823  10.569  0.6351  0.0249  0.2639
  439MOL0     C60502   8.593   7.861  10.462  0.0421  0.4100 -0.7655
  439MOL0     O60503   8.459   7.841  10.487  0.0748  0.5463  0.1440
  439MOL0     C60504   8.365   7.943  10.451  0.9233  0.0449  0.9539
  439MOL0     C60505   8.373   8.071  10.521 -0.3147 -0.6349  0.0544
  439MOL0     C60506   8.286   8.188  10.454 -0.0854  0.4208  0.1898
  439MOL0     C60507   8.285   8.320  10.531  0.3407  0.0054  0.5284
  439MOL0     C60508   8.308   8.435  10.448  0.0056  0.6420  0.6110
  439MOL0     C60509   8.311   8.543  10.390 -0.8894 -0.1744 -0.7920
  439MOL0     C60510   8.633   7.929  10.354 -0.3376  0.0046 -0.2707
  439MOL0     C60511   8.767   7.972  10.347  0.1116  0.1057 -0.1132
  439MOL0     C60512   8.814   8.052  10.224  0.3324 -0.5557 -0.0574
  439MOL0     H60513   9.232   8.110  10.577  0.3238  0.6872 -0.2211
  439MOL0     H60514   9.460   8.174  10.518 -1.2050  2.9911 -1.1575
  439MOL0     H60515   9.745   8.182  10.437  0.3913  3.4641 -0.7387
  439MOL0     H60516   9.619   8.264  10.355 -2.4795 -0.2466 -1.4976
  439MOL0     H60517   9.706   8.172  10.141 -0.2467 -4.8964  1.2477
  439MOL0     H60518   9.820   8.289  10.217 -0.4628 -0.0887 -2.9688
  439MOL0     H60519   9.839   7.978  10.220 -0.9655  0.8056  1.7749
  439MOL0     H60520   9.923   8.062  10.101  1.0098  0.0063  0.8674
  439MOL0     H60521  10.035   8.209  10.292 -0.1318  0.0287 -1.7815
  439MOL0     H60522   9.980   8.077  10.398 -0.2191 -2.2350 -1.7080
  439MOL0     H60523  10.172   8.033  10.167 -0.8348 -0.0883 -0.8207
  439MOL0     H60524  10.091   7.910  10.263 -2.8343  0.6046 -2.2080
  439MOL0     H60525  10.270   8.126  10.384 -1.4752  0.3937 -0.7197
  439MOL0     H60526  10.194   7.992  10.464 -1.1113 -0.7625 -0.5406
  439MOL0     H60527  10.416   7.950  10.261 -3.0742 -1.1823 -1.4569
  439MOL0     H60528  10.330   7.823  10.331  0.5422 -0.7200  0.1708
  439MOL0     H60529  10.459   8.019  10.529  0.2231 -1.4517  1.2723
  439MOL0     H60530  10.435   7.853  10.539 -1.1094  0.3815 -0.1144
  439MOL0     H60531  10.584   7.714  10.316 -3.9636  1.5318  2.3471
  439MOL0     H60532  10.793   7.618  10.263  0.0765  0.7862 -0.0996
  439MOL0     H60533  10.929   7.646  10.383  0.3659 -1.1682 -0.5132
  439MOL0     H60534  10.911   7.795  10.122 -0.5890 -1.3504  0.1144
  439MOL0     H60535  11.028   7.812  10.256 -0.5900  1.7525 -0.7257
  439MOL0     H60536  11.080   7.562  10.242  0.0007 -0.1661 -0.0284
  439MOL0     H60537  10.957   7.547  10.124 -2.8942  2.0686  0.2598
  439MOL0     H60538  11.186   7.558  10.001  0.0297 -0.6252  0.0721
  439MOL0     H60539  11.106   7.711   9.973  1.0695 -0.6181 -0.4255
  439MOL0     H60540  11.276   7.683   9.844 -0.6107  1.5290  1.2868
  439MOL0     H60541  11.512   7.831   9.622 -4.5433  3.7815  3.3983
  439MOL0     H60542  11.412   7.688   9.632  0.0769  2.8172 -3.2278
  439MOL0     H60543  11.583   7.669   9.644 -1.1249 -0.1208 -1.9553
  439MOL0     H60544  12.049   7.772   9.861 -2.5937 -0.3401 -1.1962
  439MOL0     H60545  12.244   7.866   9.758 -0.3045 -0.2153  3.2922
  439MOL0     H60546  12.409   7.990   9.643 -1.8083 -0.7450  0.7534
  439MOL0     H60547  12.300   7.955   9.518  0.4397 -0.2069 -1.0641
  439MOL0     H60548  12.378   8.133   9.386  3.2102 -2.1128 -1.4686
  439MOL0     H60549  12.403   8.238   9.529  2.1588 -0.8364  2.1881
  439MOL0     H60550  12.626   8.119   9.566 -2.1495  0.8397  2.1328
  439MOL0     H60551  12.605   8.211   9.409 -1.6598  0.5108  1.3651
  439MOL0     H60552  12.544   8.005   9.294  1.1592 -1.4271 -0.8071
  439MOL0     H60553  12.576   7.915   9.442  2.4127  0.2714  0.9363
  439MOL0     H60554  12.795   7.972   9.474 -2.1407 -0.2184  1.7800
  439MOL0     H60555  12.762   7.876   9.326 -0.8731 -0.7017  2.3007
  439MOL0     H60556  12.828   8.176   9.326  2.8263 -0.1549  2.0363
  439MOL0     H60557  12.768   8.078   9.193  2.3030 -1.6612 -1.2107
  439MOL0     H60558  13.009   8.112   9.191 -0.7431  0.0858 -0.2328
  439MOL0     H60559  12.956   7.955   9.162  0.2609 -2.6822  2.7530
  439MOL0     H60560  13.169   7.975   9.312 -2.3310  1.0597 -4.6886
  439MOL0     H60561  13.033   7.879   9.386 -1.0211 -0.0669 -1.3473
  439MOL0     H60562  12.030   8.220   9.679 -2.1819 -0.1380 -0.3117
  439MOL0     H60563  11.827   8.121   9.799 -2.4042 -4.1938 -0.7761
  439MOL0     H60564  11.678   7.837  10.096 -1.4618  0.4698  2.9256
  439MOL0     H60565  11.467   7.786  10.204 -1.3963  0.7900  0.4152
  439MOL0     H60566   9.480   7.847  10.241 -0.7843 -1.6449  1.5829
  439MOL0     H60567   9.252   7.775  10.312  2.1721 -0.4669 -2.5170
  439MOL0     H60568   8.870   7.855  10.652 -1.6291 -2.1783  1.2355
  439MOL0     H60569   8.635   7.776  10.657  0.4865  4.1103  2.6479
  439MOL0     H60570   8.361   7.959  10.342 -0.2234  0.3287  1.0235
  439MOL0     H60571   8.266   7.903  10.471 -0.7591  2.8309 -1.0158
  439MOL0     H60572   8.474   8.112  10.517  0.1119 -1.5476  0.9005
  439MOL0     H60573   8.343   8.061  10.626  1.6074  1.0230  0.8144
  439MOL0     H60574   8.328   8.204  10.354 -1.0570 -1.4935 -0.5742
  439MOL0     H60575   8.190   8.139  10.435  0.9678 -2.1686  1.0100
  439MOL0     H60576   8.347   8.320  10.621  2.0621 -0.9397 -0.6059
  439MOL0     H60577   8.183   8.307  10.569  1.7894 -3.2614  4.0448
  439MOL0     H60578   8.319   8.643  10.353  0.5585 -0.4319 -1.2510
  439MOL0     H60579   8.560   7.954  10.278 -1.0904 -3.3021 -0.7940
  439MOL0     H60580   8.731   8.055  10.153  0.5385 -2.3829 -0.4094
  439MOL0     H60581   8.849   8.153  10.246  0.7452 -0.7980  0.4021
  439MOL0     H60582   8.899   8.005  10.173  0.9410  0.5065 -0.0618
  440MOL0     O60583   1.822  10.055   3.582  0.3831  0.8216  0.5215
  440MOL0     C60584   1.907   9.976   3.530  0.3495 -0.6333 -0.2225
  440MOL0     O60585   2.036  10.016   3.498  0.3920 -0.5158 -0.3093
  440MOL0     C60586   2.076  10.144   3.541 -0.1734 -0.6708  0.9873
  440MOL0     C60587   2.027  10.256   3.485  0.1346  0.0943  0.0503
  440MOL0     C60588   2.060  10.385   3.527 -0.4928 -0.4419  0.4821
  440MOL0     C60589   2.157  10.405   3.620 -0.4526  0.6307  0.6999
  440MOL0     O60590   2.189  10.525   3.665  0.1036  0.4011 -0.3083
  440MOL0     C60591   2.312  10.558   3.739 -0.2995  0.1204 -0.0349
  440MOL0     C60592   2.347  10.711   3.729  0.7031  0.1259 -0.4413
  440MOL0     C60593   2.486  10.754   3.776 -0.0084 -1.6128 -0.2007
  440MOL0     C60594   2.513  10.904   3.752 -0.4638  0.1388  0.5429
  440MOL0     C60595   2.661  10.931   3.779  0.5469  0.4568 -0.3237
  440MOL0     C60596   2.716  10.863   3.906  0.5078 -0.1540 -0.3384
  440MOL0     C60597   2.868  10.877   3.907 -0.0016 -0.4651 -0.4282
  440MOL0     C60598   2.920  10.999   3.986  0.3420  0.2512  0.4544
  440MOL0     N60599   3.067  11.012   3.987  0.1975  0.3500  0.6605
  440MOL0     C60600   3.164  10.995   3.893 -0.1891 -0.3207 -0.1946
  440MOL0     C60601   3.283  11.041   3.945  0.2072  0.0098  0.1930
  440MOL0     C60602   3.418  11.039   3.874  0.3740 -0.2751 -0.5817
  440MOL0     C60603   3.500  10.919   3.925 -0.3051 -0.0177 -0.1032
  440MOL0     C60604   3.440  10.779   3.964  0.7258 -0.4989 -0.3931
  440MOL0     C60605   3.527  10.666   3.911  0.1359 -0.3690 -0.8716
  440MOL0     O60606   3.664  10.697   3.955  0.3542  0.1566  0.5817
  440MOL0     C60607   3.749  10.598   3.994  0.1333  0.5065 -0.3616
  440MOL0     C60608   3.718  10.459   3.986 -0.8957 -0.5707 -0.4785
  440MOL0     C60609   3.815  10.371   4.014 -0.2965  0.2439  0.3058
  440MOL0     C60610   3.765  10.233   4.009 -0.5799  0.5799 -0.3114
  440MOL0     C60611   3.941  10.413   4.056  0.3280  0.5446  0.0033
  440MOL0     C60612   4.048  10.318   4.085  0.0325 -0.5274  0.0100
  440MOL0     O60613   4.147  10.383   4.153  0.3706 -0.1990  0.5211
  440MOL0     C60614   4.282  10.342   4.139 -0.6771 -0.3966 -0.8910
  440MOL0     C60615   4.374  10.368   4.249 -0.0173  0.4486 -0.5020
  440MOL0     C60616   4.507  10.314   4.236 -0.2424 -0.3454  0.9577
  440MOL0     C60617   4.557  10.258   4.113  0.5859 -0.3081  0.1869
  440MOL0     O60618   4.679  10.198   4.112 -0.3649 -0.1363 -0.4245
  440MOL0     C60619   4.666  10.054   4.136  0.7814  0.0860  0.1290
  440MOL0     C60620   4.802   9.989   4.077  0.2036  0.5129  0.2564
  440MOL0     C60621   4.927  10.053   4.135 -0.0335 -0.6456  0.4255
  440MOL0     C60622   5.044   9.991   4.052 -0.2154  0.4372  0.1209
  440MOL0     C60623   5.183   9.993   4.128 -0.2004  0.4921  0.7617
  440MOL0     C60624   5.306   9.923   4.062 -0.3694 -0.0114 -0.1897
  440MOL0     C60625   5.270   9.781   4.038  0.1410  0.1501  0.2560
  440MOL0     C60626   5.228   9.700   4.167 -0.4976  0.5971 -0.6207
  440MOL0    Cl60627   5.364   9.688   4.277 -0.8045 -0.3165 -0.2369
  440MOL0     C60628   4.464  10.243   4.010  0.8812 -0.5492 -0.1035
  440MOL0     C60629   4.329  10.275   4.023  0.0358  0.9217  0.2722
  440MOL0     O60630   4.048  10.205   4.027 -0.5964  0.1181 -0.1072
  440MOL0     C60631   3.968  10.555   4.056 -0.2366 -0.2700 -0.4453
  440MOL0     C60632   3.872  10.643   4.032 -0.9169 -0.4060  0.0916
  440MOL0     N60633   3.253  11.084   4.075 -0.4307  0.5717  0.6276
  440MOL0     N60634   3.125  11.077   4.085  0.1084  0.3636  0.3863
  440MOL0     C60635   2.217  10.281   3.675 -0.2230 -0.7583 -0.5941
  440MOL0     C60636   2.186  10.156   3.623  1.0837 -0.3723 -0.5465
  440MOL0     C60637   1.880   9.831   3.503  0.7509 -0.5719 -0.1584
  440MOL0     C60638   1.989   9.747   3.480 -0.5777  0.3868 -0.5576
  440MOL0     C60639   1.981   9.615   3.451  0.5305  0.5858 -0.1880
  440MOL0     C60640   1.859   9.564   3.441  0.6733  0.0638  0.1439
  440MOL0     O60641   1.857   9.425   3.415 -0.6216 -0.2078 -0.3883
  440MOL0     C60642   1.738   9.363   3.384  0.3075 -0.0853  0.1524
  440MOL0     C60643   1.701   9.398   3.243 -0.4442 -0.3158  0.3219
  440MOL0     C60644   1.814   9.427   3.143  1.1189  0.4994 -0.8590
  440MOL0     C60645   1.746   9.480   3.010  0.4708 -0.0197 -0.1006
  440MOL0     C60646   1.679   9.371   2.933 -0.1104 -0.2704 -0.6325
  440MOL0     C60647   1.608   9.295   2.877  0.2199  0.9173  0.3703
  440MOL0     C60648   1.747   9.640   3.462  0.6839 -0.9160  0.2642
  440MOL0     C60649   1.746   9.776   3.498  0.0706  0.3361 -0.5268
  440MOL0     C60650   1.613   9.856   3.512  0.7225 -0.2475  0.0766
  440MOL0     H60651   1.951  10.240   3.410 -1.2845 -1.2575  1.6856
  440MOL0     H60652   1.999  10.464   3.485 -3.5353 -1.4362  2.6547
  440MOL0     H60653   2.398  10.504   3.700  0.6401  1.7859 -0.3527
  440MOL0     H60654   2.296  10.537   3.845  1.3773  0.9988  0.4215
  440MOL0     H60655   2.337  10.749   3.627  0.7720  3.4519  0.6741
  440MOL0     H60656   2.271  10.763   3.788  1.0848  0.0814  0.1038
  440MOL0     H60657   2.491  10.746   3.885  1.6372  3.4498  0.3298
  440MOL0     H60658   2.558  10.693   3.720  2.3345 -0.1694  1.0981
  440MOL0     H60659   2.488  10.935   3.649  2.7008  1.5517  0.0846
  440MOL0     H60660   2.447  10.962   3.817 -3.4907  3.3030 -4.5705
  440MOL0     H60661   2.688  11.036   3.785  0.3616  0.4565  0.7501
  440MOL0     H60662   2.719  10.901   3.691  2.0200 -0.9249  1.0568
  440MOL0     H60663   2.667  10.896   3.998  1.3891  1.4198 -0.4075
  440MOL0     H60664   2.692  10.758   3.888  0.4125 -0.1911  0.0038
  440MOL0     H60665   2.896  10.877   3.801  0.4621 -1.6787 -0.3274
  440MOL0     H60666   2.901  10.779   3.941 -0.6162  0.3925  3.0328
  440MOL0     H60667   2.878  11.091   3.943 -0.8006  0.2157  1.4345
  440MOL0     H60668   2.888  10.990   4.090  1.7976 -1.8311  0.7938
  440MOL0     H60669   3.143  10.950   3.796 -0.0089  0.5256 -0.6435
  440MOL0     H60670   3.481  11.128   3.879  3.9381 -2.6224 -0.6042
  440MOL0     H60671   3.413  11.031   3.765  2.8747  1.5191 -0.9035
  440MOL0     H60672   3.582  10.918   3.853 -0.2094 -1.6953  0.0042
  440MOL0     H60673   3.550  10.955   4.015 -1.4493  0.9950  0.1530
  440MOL0     H60674   3.435  10.772   4.073  1.5495 -4.1247 -0.4515
  440MOL0     H60675   3.344  10.768   3.913  0.1580  1.4776  0.1916
  440MOL0     H60676   3.484  10.574   3.953  0.7583 -1.5641 -2.7387
  440MOL0     H60677   3.534  10.666   3.802  0.2495  1.7388 -0.8969
  440MOL0     H60678   3.622  10.426   3.949  0.2411 -2.5787 -1.8369
  440MOL0     H60679   3.657  10.229   3.992 -0.8576 -3.3442  1.4310
  440MOL0     H60680   3.787  10.179   4.101 -4.0661 -1.7401 -0.6458
  440MOL0     H60681   3.823  10.188   3.928 -3.4379 -1.3637 -1.4280
  440MOL0     H60682   4.337  10.418   4.338 -0.0158 -0.3694 -0.0227
  440MOL0     H60683   4.569  10.319   4.325  2.4441 -0.4362 -0.7802
  440MOL0     H60684   4.662  10.036   4.244  0.0860  0.2786  0.1386
  440MOL0     H60685   4.580  10.022   4.076 -0.5055  3.6460 -0.1448
  440MOL0     H60686   4.793   9.882   4.096  0.1212  0.3608 -0.6151
  440MOL0     H60687   4.806  10.000   3.968  1.2547 -0.8707  0.1339
  440MOL0     H60688   4.921  10.017   4.238 -0.9037 -1.1421  0.2139
  440MOL0     H60689   4.947  10.160   4.130  4.3058 -1.1755  2.1092
  440MOL0     H60690   5.061  10.057   3.966  1.8400 -0.7740 -0.4665
  440MOL0     H60691   5.013   9.892   4.018  0.0948  0.3696  0.0360
  440MOL0     H60692   5.206  10.099   4.134  0.3667  0.4681 -0.6109
  440MOL0     H60693   5.168   9.956   4.230 -1.2069  1.3422  0.9397
  440MOL0     H60694   5.399   9.928   4.119 -0.6758 -2.2746  0.5922
  440MOL0     H60695   5.326   9.975   3.967  0.2225 -1.0238 -0.6314
  440MOL0     H60696   5.360   9.730   4.002  1.1360  1.8194  0.2865
  440MOL0     H60697   5.193   9.785   3.961  2.2753  2.7908 -1.9394
  440MOL0     H60698   5.186   9.601   4.144  1.4808 -0.0033 -1.9228
  440MOL0     H60699   5.140   9.747   4.213 -0.9616 -0.8909  0.0778
  440MOL0     H60700   4.511  10.210   3.918  0.3520 -0.7875 -0.2979
  440MOL0     H60701   4.264  10.264   3.937 -0.6026 -1.5178  0.9942
  440MOL0     H60702   4.070  10.587   4.076 -1.4858  2.8868  1.7306
  440MOL0     H60703   3.897  10.745   4.004 -1.9077 -0.6164 -1.7130
  440MOL0     H60704   2.296  10.295   3.749 -0.7067  0.0524 -0.2065
  440MOL0     H60705   2.235  10.062   3.646 -0.1490 -0.6380  1.1716
  440MOL0     H60706   2.090   9.788   3.476 -1.3202  2.4799  0.6540
  440MOL0     H60707   2.062   9.549   3.422  0.6408  1.6051 -2.4100
  440MOL0     H60708   1.754   9.255   3.380  0.6070 -0.1982  2.7497
  440MOL0     H60709   1.656   9.373   3.456  0.9769  1.1742  0.7742
  440MOL0     H60710   1.632   9.483   3.246  1.7509  1.6914 -1.5003
  440MOL0     H60711   1.643   9.315   3.202 -0.6135 -0.1186  0.1603
  440MOL0     H60712   1.881   9.506   3.179 -1.4757  2.6521 -0.4522
  440MOL0     H60713   1.874   9.337   3.125 -1.4165 -1.7466  1.1360
  440MOL0     H60714   1.827   9.510   2.942  0.7330 -0.3674  0.0511
  440MOL0     H60715   1.674   9.560   3.030 -1.1035 -1.2156 -0.7758
  440MOL0     H60716   1.535   9.233   2.828  0.5668  1.9908 -1.6039
  440MOL0     H60717   1.650   9.598   3.438  0.5939 -0.6724  0.1989
  440MOL0     H60718   1.623   9.939   3.583 -2.4635 -0.5010  0.9714
  440MOL0     H60719   1.584   9.893   3.413 -1.0060  0.4075  0.7801
  440MOL0     H60720   1.533   9.791   3.549 -0.5519  2.0776  1.7216
  441MOL0     O60721   3.203   2.039   5.993 -0.1454  0.4532  0.0160
  441MOL0     C60722   3.164   2.140   6.043  0.4916  0.4147 -0.4866
  441MOL0     O60723   3.247   2.230   6.108 -0.1967 -0.5291  0.2694
  441MOL0     C60724   3.371   2.194   6.150  0.1911 -0.0504 -0.3405
  441MOL0     C60725   3.481   2.270   6.110  0.1321 -0.3722 -0.2264
  441MOL0     C60726   3.613   2.235   6.153 -1.0508  0.1650 -0.0428
  441MOL0     C60727   3.633   2.140   6.241 -0.5384 -0.5117 -0.3815
  441MOL0     O60728   3.766   2.118   6.278  0.5385  0.6192  0.1127
  441MOL0     C60729   3.795   2.073   6.413 -1.0137 -0.4594  0.3233
  441MOL0     C60730   3.908   2.166   6.458 -0.1125 -0.0423 -0.6096
  441MOL0     C60731   4.053   2.133   6.426 -0.3103  0.0097 -0.5771
  441MOL0     C60732   4.156   2.226   6.497 -0.5106  0.5665  0.2708
  441MOL0     C60733   4.300   2.201   6.454  1.2329  0.0270  0.1571
  441MOL0     C60734   4.397   2.235   6.565 -0.4809 -1.1100 -0.7528
  441MOL0     C60735   4.534   2.208   6.511 -0.8857 -0.2290 -0.6713
  441MOL0     C60736   4.637   2.243   6.623  0.3594 -0.4591 -0.2644
  441MOL0     N60737   4.766   2.246   6.559 -0.1320  0.6704 -0.1212
  441MOL0     C60738   4.828   2.156   6.479  0.1236 -0.3271  0.1976
  441MOL0     C60739   4.966   2.188   6.480  0.6598  0.1064 -0.0399
  441MOL0     C60740   5.077   2.108   6.433 -0.4916  0.5244 -0.0590
  441MOL0     C60741   5.195   2.105   6.531 -0.1629 -0.2396  0.2941
  441MOL0     C60742   5.302   2.013   6.459 -0.0404  0.0915  0.6201
  441MOL0     C60743   5.435   2.037   6.534 -0.2814 -0.1348  0.2543
  441MOL0     O60744   5.532   1.938   6.482  0.8030 -0.3701 -0.3076
  441MOL0     C60745   5.667   1.943   6.512  1.3286 -0.5689 -0.9113
  441MOL0     C60746   5.719   1.969   6.638  0.0490 -0.6831  0.0388
  441MOL0     C60747   5.854   1.980   6.665 -0.4471  0.0710 -0.0742
  441MOL0     C60748   5.892   2.025   6.808 -0.1494 -0.2735 -0.2929
  441MOL0     C60749   5.942   1.950   6.556 -0.2631 -0.4330  0.8396
  441MOL0     C60750   6.092   1.970   6.567 -0.0719 -0.2260  1.2914
  441MOL0     O60751   6.155   1.991   6.450  0.0514 -0.4824  0.7620
  441MOL0     C60752   6.289   1.982   6.430  0.3897  1.0255  0.0687
  441MOL0     C60753   6.340   1.887   6.342  0.5410 -0.5933 -0.5743
  441MOL0     C60754   6.472   1.865   6.323 -0.9010  0.9406  0.3046
  441MOL0     C60755   6.570   1.940   6.391 -0.6679  1.3002 -0.0834
  441MOL0     O60756   6.701   1.922   6.352  0.3071  0.6922  0.1517
  441MOL0     C60757   6.805   1.997   6.424 -0.1279 -0.1623  0.2196
  441MOL0     C60758   6.945   1.946   6.367 -1.1167  0.6648  0.2140
  441MOL0     C60759   7.058   1.956   6.474 -0.3674 -0.0488 -0.0221
  441MOL0     C60760   7.193   1.957   6.409 -0.1161 -0.4899 -0.1168
  441MOL0     C60761   7.302   1.936   6.516  0.1145 -0.0099 -0.1684
  441MOL0     C60762   7.425   1.992   6.462 -0.3328  0.0859 -0.5329
  441MOL0     C60763   7.492   1.885   6.373  0.0184 -0.4962 -0.1559
  441MOL0     C60764   7.617   1.942   6.315  0.5731 -1.2328 -0.5940
  441MOL0    Cl60765   7.750   1.980   6.433  0.0220  0.5257 -0.0713
  441MOL0     C60766   6.521   2.036   6.486 -0.3673  0.9580 -0.9273
  441MOL0     C60767   6.382   2.051   6.504 -0.8635  0.0353  0.1101
  441MOL0     O60768   6.145   1.936   6.674 -0.3523  0.2239 -0.4229
  441MOL0     C60769   5.887   1.913   6.433  0.4154  1.9118  0.6316
  441MOL0     C60770   5.749   1.912   6.416 -1.4511 -0.1816 -0.5041
  441MOL0     N60771   4.982   2.300   6.557  0.2644 -1.1297  0.2097
  441MOL0     N60772   4.858   2.338   6.600  0.1856 -1.1720 -0.2011
  441MOL0     C60773   3.524   2.056   6.280 -0.2475  0.3373  0.0264
  441MOL0     C60774   3.390   2.090   6.242 -0.3740  0.1916  0.1081
  441MOL0     C60775   3.017   2.164   6.040  0.1218  0.9752 -0.1572
  441MOL0     C60776   2.978   2.295   6.075 -0.0599 -0.4235 -0.6902
  441MOL0     C60777   2.844   2.337   6.054  0.0209 -0.4963  0.0010
  441MOL0     C60778   2.744   2.246   6.015 -0.9148 -0.9170 -0.2831
  441MOL0     O60779   2.606   2.271   6.003  0.9451 -0.9596  0.0935
  441MOL0     C60780   2.578   2.409   5.974  0.4726 -0.3296 -0.6770
  441MOL0     C60781   2.635   2.456   5.839  0.3397  0.9096 -0.6527
  441MOL0     C60782   2.552   2.398   5.719  0.2569  0.2622 -1.0017
  441MOL0     C60783   2.620   2.452   5.591  0.2853 -0.2971  0.3568
  441MOL0     C60784   2.567   2.583   5.555 -0.2770 -0.5301  0.7159
  441MOL0     C60785   2.510   2.687   5.510  0.8857 -0.1500  0.3939
  441MOL0     C60786   2.778   2.113   6.003  0.0342 -0.4005  1.2706
  441MOL0     C60787   2.918   2.073   5.996  0.0134  0.0319  0.6293
  441MOL0     C60788   2.932   1.929   5.956  0.0251  0.3008 -0.5361
  441MOL0     H60789   3.448   2.354   6.050 -0.1322 -1.5884 -1.8527
  441MOL0     H60790   3.694   2.287   6.103 -0.4549 -1.4080 -0.7659
  441MOL0     H60791   3.821   1.967   6.408 -3.7343 -1.2130  0.4550
  441MOL0     H60792   3.726   2.095   6.495 -1.2467  1.4410 -0.3251
  441MOL0     H60793   3.876   2.269   6.443  2.9752  0.8606 -1.7429
  441MOL0     H60794   3.901   2.146   6.565  0.2098 -3.4425 -1.1094
  441MOL0     H60795   4.076   2.029   6.450 -0.7132  0.2849  1.1483
  441MOL0     H60796   4.080   2.158   6.323  0.4087  1.8608  0.0162
  441MOL0     H60797   4.130   2.331   6.478  0.7026  0.4293 -2.4345
  441MOL0     H60798   4.154   2.224   6.607 -1.4554  1.9135  0.3136
  441MOL0     H60799   4.325   2.259   6.365  0.8359  0.2669  0.1979
  441MOL0     H60800   4.304   2.099   6.415 -1.5358 -0.0094 -0.2375
  441MOL0     H60801   4.386   2.340   6.592  1.3671 -1.4528  1.7086
  441MOL0     H60802   4.385   2.170   6.653  0.7639  1.2918  1.3101
  441MOL0     H60803   4.549   2.271   6.422  0.8749  0.6684  0.2096
  441MOL0     H60804   4.538   2.100   6.493 -1.7237 -0.9080  2.5904
  441MOL0     H60805   4.614   2.343   6.659  0.3204 -0.3284 -0.6457
  441MOL0     H60806   4.627   2.170   6.704  0.0293  1.5778  1.6190
  441MOL0     H60807   4.782   2.078   6.418  2.0473 -1.0190 -0.4449
  441MOL0     H60808   5.107   2.150   6.337 -1.5085  0.9873 -0.1858
  441MOL0     H60809   5.042   2.005   6.437  0.4034  0.1806 -0.7362
  441MOL0     H60810   5.236   2.206   6.533 -0.8979  0.1514 -1.9536
  441MOL0     H60811   5.174   2.082   6.636 -1.5832  0.7824  0.2653
  441MOL0     H60812   5.268   1.909   6.465  1.1674 -0.4177 -0.8779
  441MOL0     H60813   5.317   2.046   6.356 -0.6377 -1.3149  0.0614
  441MOL0     H60814   5.467   2.140   6.514  0.4765 -0.3657  0.2417
  441MOL0     H60815   5.418   2.029   6.642  1.5682 -0.2020  0.5807
  441MOL0     H60816   5.656   1.995   6.722  0.0310  1.6547 -0.6443
  441MOL0     H60817   5.819   1.997   6.884 -0.4579  2.5176  0.5284
  441MOL0     H60818   5.895   2.134   6.819 -1.9341 -0.2206 -0.0356
  441MOL0     H60819   5.989   1.985   6.841  1.0421  2.1564 -0.5835
  441MOL0     H60820   6.272   1.836   6.275 -0.2102  0.2688 -0.4777
  441MOL0     H60821   6.501   1.780   6.263 -1.9660  0.2621  0.7178
  441MOL0     H60822   6.797   2.106   6.412  1.4461  0.5632  4.0912
  441MOL0     H60823   6.811   1.987   6.533  0.7338 -0.9752  0.1105
  441MOL0     H60824   6.946   1.844   6.327 -2.9789  0.5127  0.4733
  441MOL0     H60825   6.967   2.011   6.282  0.7631 -0.2936 -0.0905
  441MOL0     H60826   7.053   1.864   6.532 -1.8192 -0.7857 -1.2184
  441MOL0     H60827   7.042   2.051   6.526 -1.9792 -0.1494 -0.2621
  441MOL0     H60828   7.207   2.049   6.352  1.0093 -1.3538 -1.3017
  441MOL0     H60829   7.199   1.873   6.340 -1.4259 -0.0874 -0.7470
  441MOL0     H60830   7.278   1.992   6.607  0.5932 -1.0054  0.5951
  441MOL0     H60831   7.299   1.833   6.554 -2.5201 -1.5299 -3.9264
  441MOL0     H60832   7.489   2.015   6.547 -1.6347  2.0864  0.0003
  441MOL0     H60833   7.402   2.083   6.405 -2.0099 -2.2056 -3.8920
  441MOL0     H60834   7.423   1.847   6.297 -1.9926  0.8872  0.8561
  441MOL0     H60835   7.524   1.794   6.424  0.1047 -0.0193  0.6544
  441MOL0     H60836   7.590   2.031   6.258  1.3490  0.1054  1.0582
  441MOL0     H60837   7.659   1.872   6.242  3.4029  0.6768 -0.9417
  441MOL0     H60838   6.585   2.107   6.537 -0.1421 -1.4845  2.5821
  441MOL0     H60839   6.352   2.124   6.578 -1.4379  0.1697 -0.2506
  441MOL0     H60840   5.952   1.889   6.349  1.1374 -0.1410  1.7010
  441MOL0     H60841   5.709   1.897   6.316  1.3799 -1.6274 -1.5157
  441MOL0     H60842   3.534   1.974   6.350 -2.1458 -2.3705 -2.6205
  441MOL0     H60843   3.305   2.033   6.279 -0.6176  0.2436 -0.3525
  441MOL0     H60844   3.045   2.375   6.105 -1.8370  0.2150  1.9231
  441MOL0     H60845   2.817   2.433   6.096  4.6406  1.5070 -0.9558
  441MOL0     H60846   2.468   2.412   5.971  0.3784 -1.6940  0.6589
  441MOL0     H60847   2.609   2.478   6.053  0.6303 -1.6003  0.3933
  441MOL0     H60848   2.742   2.437   5.831  0.3663  0.4922  0.4585
  441MOL0     H60849   2.636   2.565   5.847  1.0108  0.8659 -0.0407
  441MOL0     H60850   2.566   2.290   5.729  1.4466  0.3940 -1.1476
  441MOL0     H60851   2.444   2.413   5.728  0.1270 -1.3995  1.2086
  441MOL0     H60852   2.604   2.376   5.514 -2.5513  0.7743 -0.2061
  441MOL0     H60853   2.728   2.469   5.604  0.1711  0.5063  0.3010
  441MOL0     H60854   2.451   2.770   5.479 -1.6980 -2.1167 -0.3083
  441MOL0     H60855   2.696   2.052   5.966  1.2652 -0.4899 -1.6277
  441MOL0     H60856   3.017   1.919   5.887  0.8069  0.1647  0.4221
  441MOL0     H60857   2.949   1.878   6.051 -0.4699  1.1923  0.0329
  441MOL0     H60858   2.844   1.885   5.909  0.3478 -1.2724  0.2290
  442MOL0     O60859   8.409   7.766   5.105 -0.0939  0.3878  0.1877
  442MOL0     C60860   8.422   7.792   5.224 -0.1195  0.4708  0.0223
  442MOL0     O60861   8.527   7.765   5.299 -0.4989  0.0037  0.2106
  442MOL0     C60862   8.642   7.702   5.254 -0.9773 -0.9283 -0.4833
  442MOL0     C60863   8.719   7.649   5.358  1.1749  0.3829 -0.8484
  442MOL0     C60864   8.831   7.570   5.334  0.2025 -0.3691  0.2987
  442MOL0     C60865   8.890   7.562   5.209  0.5419 -0.3185 -0.4054
  442MOL0     O60866   9.003   7.487   5.201 -0.6793 -0.1622 -0.2488
  442MOL0     C60867   9.103   7.517   5.098 -0.1726  0.3791  0.4170
  442MOL0     C60868   9.211   7.404   5.105  0.2435 -0.6086 -0.6069
  442MOL0     C60869   9.343   7.467   5.143  0.1514 -0.2583 -0.2633
  442MOL0     C60870   9.452   7.354   5.163 -0.7030  0.7028 -0.8781
  442MOL0     C60871   9.499   7.295   5.027 -0.2433 -0.0810 -0.4001
  442MOL0     C60872   9.602   7.396   4.971  1.0738 -0.5033 -0.4809
  442MOL0     C60873   9.674   7.325   4.856 -0.7083  0.0352  0.4993
  442MOL0     C60874   9.769   7.407   4.768  0.0495 -0.3717 -0.1096
  442MOL0     N60875   9.803   7.346   4.643  0.3739 -0.1218  0.0936
  442MOL0     C60876   9.895   7.248   4.617  0.6522  0.2011  0.3804
  442MOL0     C60877   9.906   7.252   4.477 -0.3193  0.0880  0.1337
  442MOL0     C60878   9.997   7.165   4.396  0.0809  0.1156 -0.3695
  442MOL0     C60879  10.138   7.227   4.376  0.4562  1.0161  0.1962
  442MOL0     C60880  10.221   7.206   4.504 -0.6626  0.7462  0.9377
  442MOL0     C60881  10.367   7.203   4.477  0.8412 -0.2505  0.4701
  442MOL0     O60882  10.407   7.073   4.440 -0.0297 -0.0589  0.3721
  442MOL0     C60883  10.534   7.040   4.413 -0.0485 -0.4373 -0.3000
  442MOL0     C60884  10.575   6.908   4.397 -0.1945  0.9112  0.4331
  442MOL0     C60885  10.706   6.877   4.361 -0.2864  0.6618 -1.0035
  442MOL0     C60886  10.738   6.731   4.356  0.6635  0.5885  0.6478
  442MOL0     C60887  10.800   6.978   4.333 -0.2993  0.0034 -0.6739
  442MOL0     C60888  10.944   6.958   4.292  0.0904  1.0289 -0.3830
  442MOL0     O60889  11.026   7.066   4.302 -1.0178  0.0498 -0.3510
  442MOL0     C60890  11.157   7.039   4.262  0.0300 -0.5392  0.2021
  442MOL0     C60891  11.249   7.058   4.357 -0.9000  1.0755  0.2367
  442MOL0     C60892  11.384   7.071   4.325 -0.0198  0.1301 -0.1565
  442MOL0     C60893  11.428   7.054   4.192  0.0054  0.5812 -0.2563
  442MOL0     O60894  11.566   7.062   4.182 -0.3370  0.1369 -0.3581
  442MOL0     C60895  11.618   6.980   4.078 -0.0721  0.5956 -0.4501
  442MOL0     C60896  11.770   6.982   4.076  0.4128 -0.0714 -0.4607
  442MOL0     C60897  11.836   7.108   4.035 -0.4499 -0.3999 -0.5798
  442MOL0     C60898  11.986   7.102   4.063  0.6821  0.2652  0.4890
  442MOL0     C60899  12.060   7.216   3.993 -0.2843 -0.1668 -0.0131
  442MOL0     C60900  12.207   7.207   4.024  0.4316 -0.3154  0.1229
  442MOL0     C60901  12.289   7.105   3.941 -0.5687 -0.7749 -0.1231
  442MOL0     C60902  12.363   7.155   3.814  0.7891  0.3289  0.2853
  442MOL0    Cl60903  12.505   7.243   3.872  0.1632  0.0665 -0.0475
  442MOL0     C60904  11.333   7.025   4.100  0.6767  1.2866 -0.5859
  442MOL0     C60905  11.196   7.019   4.130 -0.0168 -0.9159 -0.4271
  442MOL0     O60906  10.978   6.849   4.253 -0.2835 -0.2404  0.9145
  442MOL0     C60907  10.766   7.111   4.350  0.4039 -0.4024 -1.0738
  442MOL0     C60908  10.630   7.139   4.392 -0.1404  0.6961  0.1410
  442MOL0     N60909   9.820   7.339   4.425  0.3793  0.1766 -0.0608
  442MOL0     N60910   9.769   7.403   4.526 -0.8402  0.6520 -0.3409
  442MOL0     C60911   8.819   7.623   5.105  0.4903 -0.4208 -0.1995
  442MOL0     C60912   8.695   7.691   5.121  0.5800 -0.2779 -0.5387
  442MOL0     C60913   8.310   7.862   5.288  0.7503 -0.1726  0.7671
  442MOL0     C60914   8.226   7.938   5.204  0.0058  0.2937 -0.1593
  442MOL0     C60915   8.119   8.012   5.258 -0.2048  0.0663  0.8818
  442MOL0     C60916   8.082   8.011   5.392 -0.5334  0.0668  0.5504
  442MOL0     O60917   7.980   8.083   5.446  0.2152  0.4083  0.3641
  442MOL0     C60918   7.859   8.091   5.370 -0.4919 -0.6837  0.5931
  442MOL0     C60919   7.726   8.129   5.438  0.3181 -0.3328 -0.0735
  442MOL0     C60920   7.683   8.022   5.539 -0.6215  0.7567  0.1711
  442MOL0     C60921   7.679   7.876   5.495  0.5077 -0.5924 -0.2450
  442MOL0     C60922   7.568   7.808   5.573  0.3096 -0.4691 -0.2056
  442MOL0     C60923   7.488   7.742   5.630 -0.4167  0.3911  0.0987
  442MOL0     C60924   8.157   7.932   5.474 -0.0628  0.0529  1.1161
  442MOL0     C60925   8.274   7.863   5.427 -0.2851  0.6656 -0.4904
  442MOL0     C60926   8.335   7.780   5.531  0.2134  0.7296  0.1113
  442MOL0     H60927   8.675   7.651   5.457  0.8725 -0.6701 -0.9396
  442MOL0     H60928   8.861   7.516   5.423 -2.2087 -1.4561  0.5267
  442MOL0     H60929   9.157   7.611   5.109  0.8820  0.0494 -1.5036
  442MOL0     H60930   9.050   7.518   5.002 -0.4364 -0.8589  0.5283
  442MOL0     H60931   9.185   7.328   5.179 -1.1483 -1.1871 -1.6535
  442MOL0     H60932   9.222   7.352   5.009  0.1461 -0.1812 -0.8552
  442MOL0     H60933   9.386   7.546   5.081  0.0059 -1.0174 -1.3571
  442MOL0     H60934   9.332   7.508   5.244 -1.4370  1.2660 -1.0140
  442MOL0     H60935   9.546   7.394   5.203  0.2132 -2.2099  0.0851
  442MOL0     H60936   9.416   7.278   5.233 -1.4371  0.6739 -1.2805
  442MOL0     H60937   9.416   7.285   4.956  2.4792 -1.8842 -3.5566
  442MOL0     H60938   9.539   7.194   5.035  1.1117  0.4481 -0.2974
  442MOL0     H60939   9.550   7.485   4.936 -2.2592 -1.8229  0.7394
  442MOL0     H60940   9.682   7.417   5.043  0.4084  3.7106 -0.7397
  442MOL0     H60941   9.597   7.282   4.791 -0.7061  1.2052 -0.3168
  442MOL0     H60942   9.728   7.243   4.903 -1.8440 -1.6642 -1.0306
  442MOL0     H60943   9.706   7.494   4.748 -0.5269 -0.9693 -0.9646
  442MOL0     H60944   9.860   7.453   4.807 -0.8272  2.2216 -0.8930
  442MOL0     H60945   9.946   7.178   4.683 -1.4329 -3.0322 -1.1781
  442MOL0     H60946   9.958   7.157   4.294 -0.3992 -0.1314 -0.1671
  442MOL0     H60947   9.997   7.066   4.441  1.3505  0.2807  0.0349
  442MOL0     H60948  10.178   7.165   4.296 -1.5919  0.4745 -0.4641
  442MOL0     H60949  10.138   7.327   4.332  0.7418 -0.4266 -3.4744
  442MOL0     H60950  10.198   7.283   4.578  0.3468  1.1587  0.8451
  442MOL0     H60951  10.195   7.106   4.540  0.8047  0.8240  2.3565
  442MOL0     H60952  10.398   7.273   4.399  0.5642  0.3399  0.8881
  442MOL0     H60953  10.422   7.230   4.567  1.8573  1.8091 -0.7043
  442MOL0     H60954  10.497   6.836   4.419 -0.6531  0.8448 -1.2950
  442MOL0     H60955  10.656   6.662   4.377  2.2311 -2.1756 -1.5266
  442MOL0     H60956  10.809   6.700   4.433  1.4993 -2.7793 -1.2921
  442MOL0     H60957  10.772   6.708   4.254  1.0323  1.2621  0.6079
  442MOL0     H60958  11.205   7.082   4.453 -0.1527  0.0537  0.8479
  442MOL0     H60959  11.452   7.117   4.397 -1.3047  0.9092  0.5854
  442MOL0     H60960  11.585   6.876   4.091 -0.3794  0.6256 -0.9613
  442MOL0     H60961  11.581   7.017   3.982 -1.2894 -0.9152 -0.6155
  442MOL0     H60962  11.803   6.958   4.177 -0.9265  0.9371  0.2531
  442MOL0     H60963  11.808   6.914   3.999  0.2095 -1.4762  0.6450
  442MOL0     H60964  11.796   7.189   4.097  1.6929  0.8224 -0.6724
  442MOL0     H60965  11.816   7.126   3.929 -1.5137 -0.1569 -0.3480
  442MOL0     H60966  12.017   7.005   4.021  1.1241  0.8468 -0.5867
  442MOL0     H60967  11.991   7.104   4.172  0.5674  0.1691  0.4960
  442MOL0     H60968  12.050   7.202   3.885 -3.1909  2.3620 -0.2007
  442MOL0     H60969  12.007   7.309   4.017 -0.1552  0.4358 -1.8865
  442MOL0     H60970  12.213   7.176   4.129  2.2639  0.2312  0.2300
  442MOL0     H60971  12.261   7.302   4.019  2.4682 -1.4709 -2.7166
  442MOL0     H60972  12.216   7.031   3.907 -1.8042 -0.6965  2.1387
  442MOL0     H60973  12.357   7.058   4.013  1.7240  1.4817 -0.6723
  442MOL0     H60974  12.297   7.219   3.754  3.6259  2.5357 -0.7029
  442MOL0     H60975  12.376   7.065   3.754  0.2558  0.2090  0.3446
  442MOL0     H60976  11.356   7.001   3.996  0.2529 -5.8521  0.4779
  442MOL0     H60977  11.125   7.004   4.049  0.8536 -1.2181 -1.1420
  442MOL0     H60978  10.820   7.200   4.321 -1.9397  1.0074 -1.3955
  442MOL0     H60979  10.606   7.245   4.397  3.0761  1.7134 -2.1890
  442MOL0     H60980   8.859   7.617   5.005 -1.9707  0.2162 -1.2977
  442MOL0     H60981   8.648   7.741   5.036  2.3911  1.9079 -0.3594
  442MOL0     H60982   8.247   7.950   5.098  0.7702 -1.7403 -0.2705
  442MOL0     H60983   8.067   8.070   5.183  3.5700 -0.1295 -2.1970
  442MOL0     H60984   7.883   8.167   5.296  1.9824  0.4093  2.3681
  442MOL0     H60985   7.849   7.995   5.318 -0.2936 -0.4617  0.1409
  442MOL0     H60986   7.653   8.149   5.360  0.4138 -0.6857 -0.2550
  442MOL0     H60987   7.744   8.225   5.488 -0.9877 -0.7643  1.3104
  442MOL0     H60988   7.746   8.034   5.628 -1.6967  0.3062  1.0221
  442MOL0     H60989   7.585   8.053   5.576 -0.4979  3.6016 -1.5775
  442MOL0     H60990   7.776   7.828   5.506  0.9938  0.8531  2.4312
  442MOL0     H60991   7.641   7.872   5.392  2.5283 -0.7692 -1.0243
  442MOL0     H60992   7.425   7.676   5.687  0.5326 -0.9775 -0.3995
  442MOL0     H60993   8.130   7.926   5.579 -1.4417 -1.3492  0.7186
  442MOL0     H60994   8.386   7.690   5.495 -0.7394  0.8547 -1.6450
  442MOL0     H60995   8.404   7.828   5.601  1.1223 -4.0577  2.9865
  442MOL0     H60996   8.256   7.730   5.587 -1.8017  2.0761 -1.3733
  443MOL0     O60997   5.516  10.298  11.102  0.1418 -0.0941 -0.2390
  443MOL0     C60998   5.409  10.284  11.163 -0.5376 -0.3774  0.1693
  443MOL0     O60999   5.394  10.315  11.292 -0.0848  0.0818 -0.6391
  443MOL0     C61000   5.492  10.388  11.359  0.5482  0.6909 -0.4645
  443MOL0     C61001   5.542  10.330  11.477 -0.1534 -0.5537  0.5131
  443MOL0     C61002   5.647  10.395  11.543  0.7064  1.1120 -0.3814
  443MOL0     C61003   5.704  10.507  11.489 -0.0402  0.5491  0.4921
  443MOL0     O61004   5.823  10.543  11.550  0.6779  0.5576  0.3811
  443MOL0     C61005   5.921  10.607  11.464  0.3939  0.5228  0.0742
  443MOL0     C61006   5.985  10.491  11.392 -0.5569  0.1903 -0.4241
  443MOL0     C61007   6.116  10.530  11.328 -0.3204 -0.5489  1.0144
  443MOL0     C61008   6.200  10.407  11.274 -0.2146  0.3734  0.3402
  443MOL0     C61009   6.327  10.454  11.204 -0.0456 -0.2011  0.0974
  443MOL0     C61010   6.417  10.334  11.141  0.3422 -0.1121  0.5843
  443MOL0     C61011   6.360  10.288  11.007 -1.2420 -0.5535  0.3838
  443MOL0     C61012   6.400  10.387  10.897  0.7944  0.1701  0.1208
  443MOL0     N61013   6.542  10.371  10.865 -0.1602  0.2684 -0.2862
  443MOL0     C61014   6.598  10.257  10.816 -0.0228 -0.2884  0.5265
  443MOL0     C61015   6.735  10.295  10.802 -0.0854  0.7311 -0.2240
  443MOL0     C61016   6.846  10.228  10.721  0.0440 -0.5143 -0.2756
  443MOL0     C61017   6.973  10.197  10.802 -0.2997 -0.2405  0.1391
  443MOL0     C61018   7.076  10.130  10.708 -0.7740  0.0751 -0.0914
  443MOL0     C61019   7.191  10.042  10.768  0.3374  0.0065 -0.2391
  443MOL0     O61020   7.298  10.130  10.800  0.6678 -0.2309  0.2043
  443MOL0     C61021   7.412  10.063  10.827  0.2047 -0.1987  0.0374
  443MOL0     C61022   7.508  10.032  10.729  0.1256  0.5321 -0.0288
  443MOL0     C61023   7.630   9.973  10.775 -0.0796 -0.4343 -0.9357
  443MOL0     C61024   7.742   9.965  10.674  0.2222  0.8819  0.4492
  443MOL0     C61025   7.649   9.938  10.915  0.1473 -0.0607  0.5234
  443MOL0     C61026   7.779   9.904  10.975  0.4085 -0.6307 -0.4470
  443MOL0     O61027   7.899   9.902  10.901  0.6678 -0.0104 -0.6907
  443MOL0     C61028   8.019   9.886  10.968  0.6977 -0.2374 -0.4951
  443MOL0     C61029   8.116   9.819  10.902 -0.3303  0.2969  0.7657
  443MOL0     C61030   8.241   9.799  10.953 -0.2471  0.2111  0.1597
  443MOL0     C61031   8.285   9.861  11.070 -0.4517 -0.0784  0.1551
  443MOL0     O61032   8.420   9.861  11.098 -0.0417  0.1727  0.2735
  443MOL0     C61033   8.469   9.967  11.185 -0.6796  0.6160  0.4620
  443MOL0     C61034   8.614   9.944  11.206 -0.6569 -0.0819 -0.4558
  443MOL0     C61035   8.640   9.807  11.260  0.4361  0.1978 -0.2776
  443MOL0     C61036   8.785   9.792  11.277 -0.4064  0.3433 -0.0653
  443MOL0     C61037   8.864   9.765  11.145  0.7054 -0.3281  0.4883
  443MOL0     C61038   9.005   9.740  11.167  0.2818 -0.5860  0.5927
  443MOL0     C61039   9.086   9.712  11.043 -0.3816 -1.6236 -0.1840
  443MOL0     C61040   9.236   9.695  11.072  0.5185 -0.2281 -0.8830
  443MOL0    Cl61041   9.262   9.579  11.211  0.1779 -0.0477  0.0292
  443MOL0     C61042   8.191   9.937  11.140  0.1921  0.5365 -0.8408
  443MOL0     C61043   8.058   9.944  11.093 -0.0705  0.1503  0.3044
  443MOL0     O61044   7.780   9.897  11.098 -0.8979 -0.1140 -0.4466
  443MOL0     C61045   7.541   9.968  11.008 -0.5238  0.7325  0.5237
  443MOL0     C61046   7.425  10.018  10.961 -0.2389 -0.7374 -0.1518
  443MOL0     N61047   6.750  10.427  10.840  0.2258 -0.0783  0.5763
  443MOL0     N61048   6.634  10.469  10.875 -0.8629  0.3356 -0.0811
  443MOL0     C61049   5.652  10.567  11.367  0.3788  0.9561 -0.9285
  443MOL0     C61050   5.537  10.507  11.310  0.2454 -0.4022 -0.3130
  443MOL0     C61051   5.291  10.210  11.103  0.1920 -1.0886  1.0507
  443MOL0     C61052   5.170  10.214  11.170  0.4641  0.1815 -0.3631
  443MOL0     C61053   5.055  10.162  11.107 -0.9061  0.7665 -0.4542
  443MOL0     C61054   5.063  10.115  10.976  0.4667 -0.4756 -0.7465
  443MOL0     O61055   4.947  10.077  10.915 -0.3195 -0.9487  0.3776
  443MOL0     C61056   4.920  10.146  10.789 -0.4872  0.4031  0.4157
  443MOL0     C61057   4.772  10.110  10.759  0.3749  0.1072 -0.2066
  443MOL0     C61058   4.691  10.242  10.734  0.7360  0.5480  0.1471
  443MOL0     C61059   4.550  10.217  10.697  1.0099  0.2139  0.0197
  443MOL0     C61060   4.473  10.158  10.810 -0.3835  0.5985 -0.3062
  443MOL0     C61061   4.408  10.108  10.899 -0.0585  0.3370  0.6950
  443MOL0     C61062   5.180  10.106  10.915 -0.4182 -0.4014  0.1689
  443MOL0     C61063   5.295  10.150  10.975 -0.1121 -0.9184  0.7315
  443MOL0     C61064   5.426  10.138  10.890  0.1552  0.4761  0.3255
  443MOL0     H61065   5.489  10.243  11.513 -2.3742  0.2314 -0.6423
  443MOL0     H61066   5.699  10.349  11.626  0.2114 -0.1514 -0.7434
  443MOL0     H61067   5.994  10.651  11.534  2.5307  0.2192 -1.8626
  443MOL0     H61068   5.892  10.682  11.390 -1.1036  0.6774  0.7751
  443MOL0     H61069   6.006  10.415  11.468 -0.3814  1.4738  0.8541
  443MOL0     H61070   5.914  10.447  11.322 -0.1266 -0.4203 -0.4815
  443MOL0     H61071   6.094  10.589  11.238 -0.8603  0.3654  1.7341
  443MOL0     H61072   6.178  10.590  11.395  1.8567  1.2845 -2.3694
  443MOL0     H61073   6.218  10.346  11.363  3.4678  2.3504  1.1999
  443MOL0     H61074   6.150  10.350  11.196  1.9973  0.1970 -1.0382
  443MOL0     H61075   6.390  10.517  11.269 -1.6849  2.1531 -0.4997
  443MOL0     H61076   6.298  10.515  11.118  0.5064  1.8188  1.2768
  443MOL0     H61077   6.518  10.373  11.126 -0.4841  2.0014  0.2379
  443MOL0     H61078   6.428  10.247  11.207  1.5641 -1.1954 -0.9464
  443MOL0     H61079   6.252  10.269  11.016 -1.7748  0.7579 -2.2120
  443MOL0     H61080   6.415  10.195  10.986  1.5774  1.0732  0.1647
  443MOL0     H61081   6.347  10.349  10.809  0.0813 -1.1845  1.0988
  443MOL0     H61082   6.377  10.493  10.907  0.4860  0.1514 -0.3412
  443MOL0     H61083   6.546  10.169  10.780  1.8478 -0.8974 -0.8999
  443MOL0     H61084   6.871  10.305  10.647  2.1794 -2.5196 -1.7730
  443MOL0     H61085   6.804  10.143  10.667 -3.0111  0.8115 -0.2159
  443MOL0     H61086   7.011  10.289  10.850 -2.7534  0.5984  0.5953
  443MOL0     H61087   6.945  10.123  10.878  0.3963  0.7925  1.4553
  443MOL0     H61088   7.027  10.078  10.625 -1.0346 -0.6602  0.5023
  443MOL0     H61089   7.127  10.214  10.660 -1.9472  0.1339 -1.2673
  443MOL0     H61090   7.156   9.999  10.862 -1.1205  5.2391  1.9601
  443MOL0     H61091   7.212   9.961  10.697 -1.0238 -0.0051 -0.6589
  443MOL0     H61092   7.499  10.065  10.626 -2.6376 -0.8072 -0.3041
  443MOL0     H61093   7.809  10.049  10.689 -2.2866  3.1066 -0.0256
  443MOL0     H61094   7.710   9.981  10.571 -0.4995  0.5700  0.6165
  443MOL0     H61095   7.798   9.871  10.668 -0.8102  0.3486 -2.2836
  443MOL0     H61096   8.099   9.776  10.804  2.5199  1.2901 -0.2752
  443MOL0     H61097   8.311   9.731  10.906 -0.4620 -0.1688  0.3888
  443MOL0     H61098   8.445  10.061  11.134  1.4771  0.8112 -0.2945
  443MOL0     H61099   8.410   9.961  11.277 -1.0254 -1.8851  0.1545
  443MOL0     H61100   8.659   9.956  11.107 -1.3930 -0.8361 -0.9025
  443MOL0     H61101   8.658  10.012  11.279 -0.3740 -1.5180  0.7834
  443MOL0     H61102   8.596   9.731  11.194 -0.1640 -0.8923  1.3149
  443MOL0     H61103   8.594   9.785  11.357 -2.9530  0.8412 -1.5619
  443MOL0     H61104   8.811   9.703  11.334  1.7372 -0.4172 -2.0454
  443MOL0     H61105   8.815   9.870  11.348  1.9289  0.3170 -0.9266
  443MOL0     H61106   8.812   9.675  11.112 -1.2779  0.1259  2.1507
  443MOL0     H61107   8.855   9.852  11.079  1.8893 -1.2761 -0.9617
  443MOL0     H61108   9.019   9.653  11.233  3.5792  0.3712  1.3648
  443MOL0     H61109   9.053   9.824  11.218  0.7891 -0.5951  0.1432
  443MOL0     H61110   9.068   9.794  10.972 -1.6939 -1.1890  0.6185
  443MOL0     H61111   9.051   9.619  11.000  0.1052 -1.1472 -1.6584
  443MOL0     H61112   9.278   9.795  11.086 -0.7130  0.2658 -0.5721
  443MOL0     H61113   9.292   9.653  10.988  2.9266  0.3037  0.3644
  443MOL0     H61114   8.209   9.996  11.229 -1.3399 -0.6920  0.3354
  443MOL0     H61115   7.996  10.007  11.156  1.7215  0.7798  1.5139
  443MOL0     H61116   7.539   9.942  11.113 -0.8695  1.6627  0.7556
  443MOL0     H61117   7.345  10.039  11.032 -0.1806 -0.4082 -0.1834
  443MOL0     H61118   5.691  10.662  11.331  2.7524 -0.7278 -3.2394
  443MOL0     H61119   5.485  10.542  11.221 -1.7197 -0.4700  0.7507
  443MOL0     H61120   5.161  10.246  11.274 -2.1308  1.3035 -0.8471
  443MOL0     H61121   4.958  10.158  11.155 -0.4972 -1.6146  0.3324
  443MOL0     H61122   4.925  10.255  10.803  1.2699  0.1371  2.4877
  443MOL0     H61123   4.989  10.116  10.710 -0.4621 -0.6663  0.8310
  443MOL0     H61124   4.742  10.049  10.845  2.8257 -3.2963 -1.5845
  443MOL0     H61125   4.758  10.045  10.673 -3.0522 -0.1152  0.3773
  443MOL0     H61126   4.703  10.303  10.824 -2.2868 -1.9331  2.4890
  443MOL0     H61127   4.752  10.289  10.656  1.4003 -1.4109 -0.5784
  443MOL0     H61128   4.548  10.168  10.599 -0.1545  2.1130 -0.9430
  443MOL0     H61129   4.517  10.321  10.695  1.8010  0.5159  1.1073
  443MOL0     H61130   4.345  10.091  10.985  0.0286  0.2651  0.7436
  443MOL0     H61131   5.173  10.071  10.812  1.0944  1.1958 -0.5255
  443MOL0     H61132   5.516  10.111  10.945  0.6620 -0.5534 -0.9495
  443MOL0     H61133   5.401  10.065  10.812 -1.2225  0.6983  0.5331
  443MOL0     H61134   5.435  10.237  10.845 -0.6450  1.3616  2.0388
  444MOL0     O61135   3.234   9.625   8.882 -0.5251 -1.0177 -0.2386
  444MOL0     C61136   3.131   9.688   8.917  0.4775 -0.2262 -0.9124
  444MOL0     O61137   3.124   9.826   8.919 -0.0707  0.1562  0.1204
  444MOL0     C61138   3.233   9.893   8.877  0.1785 -0.1514  0.2469
  444MOL0     C61139   3.343   9.925   8.960  0.8834 -0.4174  0.1843
  444MOL0     C61140   3.457   9.995   8.908  1.2309  0.4311  0.5197
  444MOL0     C61141   3.465  10.032   8.772  0.2148  0.0125 -0.2107
  444MOL0     O61142   3.576  10.091   8.716  0.3149 -0.0808  0.4649
  444MOL0     C61143   3.702  10.123   8.775 -0.6658 -0.1366 -0.3954
  444MOL0     C61144   3.811  10.162   8.681 -0.1262 -0.1305 -0.1192
  444MOL0     C61145   3.850  10.056   8.581 -0.2325  0.4976 -0.0717
  444MOL0     C61146   3.940   9.955   8.651 -0.5507  0.2113 -0.6284
  444MOL0     C61147   4.018   9.863   8.552 -0.1732 -0.4740  0.4519
  444MOL0     C61148   4.113   9.757   8.614 -1.0853  0.6052 -0.7386
  444MOL0     C61149   4.182   9.670   8.510  0.7382 -0.2216  0.7997
  444MOL0     C61150   4.094   9.552   8.455 -0.0053  0.1778  0.2309
  444MOL0     N61151   4.161   9.497   8.341 -0.1471 -0.1253  0.4196
  444MOL0     C61152   4.147   9.540   8.209  0.0569  0.7375 -0.3583
  444MOL0     C61153   4.230   9.458   8.138  0.0384  0.6789 -0.9657
  444MOL0     C61154   4.256   9.465   7.986  0.3303  0.3219  0.0474
  444MOL0     C61155   4.152   9.397   7.902 -0.2854 -0.3007 -1.4616
  444MOL0     C61156   4.120   9.249   7.930 -0.4434 -0.0910 -0.0660
  444MOL0     C61157   4.248   9.166   7.898  0.0020 -0.3236 -0.4657
  444MOL0     O61158   4.216   9.032   7.879 -0.5164 -0.1301  0.2925
  444MOL0     C61159   4.171   8.987   7.757  0.0173  0.3566  0.4551
  444MOL0     C61160   4.167   9.063   7.640 -0.2219 -0.6644  0.5970
  444MOL0     C61161   4.106   9.011   7.520 -0.0288  0.5602  0.1736
  444MOL0     C61162   4.113   9.092   7.394 -0.1771  0.2246  0.0317
  444MOL0     C61163   4.049   8.877   7.528 -0.0199 -0.3138 -0.2862
  444MOL0     C61164   3.980   8.812   7.417 -0.2707 -0.2810 -0.0351
  444MOL0     O61165   4.010   8.678   7.406  0.0101 -1.0550  0.0150
  444MOL0     C61166   4.008   8.628   7.281 -0.4040  0.1554 -0.1501
  444MOL0     C61167   4.122   8.616   7.202 -0.3890  0.5719  0.2717
  444MOL0     C61168   4.113   8.551   7.078 -0.2435  0.3536  0.2582
  444MOL0     C61169   3.991   8.506   7.029  0.8723  0.5249  0.3026
  444MOL0     O61170   3.968   8.462   6.903 -0.2810  0.1822  0.2636
  444MOL0     C61171   4.069   8.490   6.805 -0.5633 -0.3819 -0.6536
  444MOL0     C61172   4.020   8.444   6.674 -0.1767  0.2625  0.4008
  444MOL0     C61173   4.121   8.454   6.562 -0.2518 -0.0220 -0.7571
  444MOL0     C61174   4.042   8.450   6.424 -1.0347  0.3465  0.6442
  444MOL0     C61175   4.146   8.431   6.313  0.0837 -0.5920  1.0055
  444MOL0     C61176   4.202   8.289   6.313 -0.4596  0.3808 -0.0720
  444MOL0     C61177   4.274   8.251   6.178 -0.9868 -0.8078 -1.0125
  444MOL0     C61178   4.421   8.303   6.157  0.9730 -0.8020 -0.7574
  444MOL0    Cl61179   4.515   8.181   6.068 -0.0746 -0.7749 -0.1165
  444MOL0     C61180   3.872   8.518   7.110 -0.4317  0.2543  0.2385
  444MOL0     C61181   3.892   8.575   7.231  0.4593 -1.0977  0.5708
  444MOL0     O61182   3.912   8.878   7.332 -1.5011  0.4533  0.4047
  444MOL0     C61183   4.067   8.802   7.650  0.7235  0.2032 -0.8091
  444MOL0     C61184   4.125   8.859   7.758  0.2126 -0.0052  0.0750
  444MOL0     N61185   4.294   9.365   8.222 -0.1898 -0.6333 -0.6986
  444MOL0     N61186   4.243   9.385   8.341 -0.3235  0.6489  0.1168
  444MOL0     C61187   3.367   9.995   8.686  0.7115 -0.5488  0.0265
  444MOL0     C61188   3.243   9.941   8.744 -0.1611  0.9649 -0.1077
  444MOL0     C61189   3.022   9.614   8.975  0.1614  0.1992  0.6363
  444MOL0     C61190   2.925   9.678   9.049 -0.3079  0.5007 -0.5591
  444MOL0     C61191   2.822   9.613   9.110 -0.2920  0.4825  0.1511
  444MOL0     C61192   2.792   9.482   9.084  0.4743  0.6113  0.0809
  444MOL0     O61193   2.695   9.405   9.144  0.4916  0.0914 -0.6965
  444MOL0     C61194   2.626   9.454   9.263 -0.3925  0.0425 -0.3424
  444MOL0     C61195   2.511   9.544   9.230  0.0521  0.6249 -0.3673
  444MOL0     C61196   2.440   9.604   9.346  0.0092  0.8608  0.3716
  444MOL0     C61197   2.317   9.524   9.389 -0.1827  0.5191  0.5538
  444MOL0     C61198   2.235   9.598   9.482  0.5879 -0.0412 -1.2849
  444MOL0     C61199   2.149   9.656   9.549 -0.1675  0.0731  0.2356
  444MOL0     C61200   2.889   9.414   9.003 -0.0694  0.4529  0.4797
  444MOL0     C61201   3.002   9.477   8.951  0.3945 -0.3641  0.2356
  444MOL0     C61202   3.101   9.379   8.885  0.7772  0.1399 -0.6063
  444MOL0     H61203   3.330   9.884   9.060 -0.2687 -0.6682 -0.0426
  444MOL0     H61204   3.548  10.012   8.965  0.8138  0.7432  1.0977
  444MOL0     H61205   3.731  10.038   8.837 -1.0067  2.1425  3.2395
  444MOL0     H61206   3.681  10.199   8.851 -1.3260  1.1966 -1.8656
  444MOL0     H61207   3.789  10.256   8.630  1.6953  1.2338  1.4472
  444MOL0     H61208   3.907  10.187   8.726  0.7628 -0.5611 -1.7016
  444MOL0     H61209   3.758  10.023   8.531 -0.1419  1.7528 -1.1427
  444MOL0     H61210   3.905  10.109   8.503  2.5459  0.7635  1.9245
  444MOL0     H61211   4.016  10.005   8.712 -2.5151 -0.8350  2.9526
  444MOL0     H61212   3.885   9.896   8.725 -0.1222 -2.4120 -2.2751
  444MOL0     H61213   4.076   9.933   8.492  0.5999  0.5177  2.2662
  444MOL0     H61214   3.944   9.802   8.500  0.0461 -0.8557  0.5878
  444MOL0     H61215   4.191   9.817   8.662 -0.0973 -2.6097  2.0968
  444MOL0     H61216   4.064   9.691   8.686  1.2806  2.8939  3.3426
  444MOL0     H61217   4.274   9.619   8.542  0.5804 -1.7388 -0.9949
  444MOL0     H61218   4.196   9.734   8.423 -0.7696  1.9141  2.0313
  444MOL0     H61219   4.097   9.472   8.529 -0.0649 -2.1255 -2.1365
  444MOL0     H61220   3.991   9.581   8.432 -0.0910 -0.1786  0.1584
  444MOL0     H61221   4.077   9.614   8.172  1.4470  2.6579  0.6525
  444MOL0     H61222   4.353   9.417   7.967  1.3047  1.0134  2.8340
  444MOL0     H61223   4.272   9.571   7.967  1.2396  1.0358  3.9156
  444MOL0     H61224   4.061   9.457   7.912  0.2897  0.5033 -1.0275
  444MOL0     H61225   4.186   9.404   7.799 -1.5649 -2.2765 -2.0871
  444MOL0     H61226   4.092   9.239   8.035  0.1672 -0.5453  0.0582
  444MOL0     H61227   4.041   9.200   7.872 -0.3935 -0.6566  0.3273
  444MOL0     H61228   4.299   9.199   7.808  0.0557  3.5142  0.7867
  444MOL0     H61229   4.322   9.183   7.976  2.0137  1.7920 -2.6922
  444MOL0     H61230   4.214   9.161   7.635  0.3226 -0.9771 -1.2823
  444MOL0     H61231   4.142   9.020   7.317 -0.3932 -0.2431  0.3887
  444MOL0     H61232   4.190   9.170   7.395  2.1182 -1.9104  1.5899
  444MOL0     H61233   4.015   9.135   7.369 -2.8957 -3.7232  2.6844
  444MOL0     H61234   4.211   8.669   7.233  1.0134 -0.1237 -2.2555
  444MOL0     H61235   4.194   8.553   7.006 -2.1767 -0.6575 -2.0675
  444MOL0     H61236   4.102   8.594   6.811 -1.5676 -0.1140  0.5241
  444MOL0     H61237   4.162   8.433   6.822  1.2279  2.2730 -0.9727
  444MOL0     H61238   3.990   8.339   6.678  2.4893 -0.6523 -1.0068
  444MOL0     H61239   3.923   8.486   6.645 -1.9248 -2.0335  2.4419
  444MOL0     H61240   4.185   8.367   6.571  0.2729  0.3468 -0.8712
  444MOL0     H61241   4.178   8.546   6.579  1.8825 -1.1339 -1.5751
  444MOL0     H61242   3.993   8.546   6.407 -2.0643 -0.0091  1.4914
  444MOL0     H61243   3.962   8.375   6.419 -1.1025  0.2550  2.4192
  444MOL0     H61244   4.096   8.443   6.217  1.6348 -1.1644  0.0755
  444MOL0     H61245   4.229   8.503   6.317 -0.4524  0.0768  0.2501
  444MOL0     H61246   4.114   8.225   6.323  1.2781 -2.1750 -0.1826
  444MOL0     H61247   4.263   8.271   6.403  1.7283  3.7949 -0.6691
  444MOL0     H61248   4.230   8.276   6.081  0.0135 -0.2240 -1.3316
  444MOL0     H61249   4.285   8.142   6.185  1.8373 -0.5749 -0.7971
  444MOL0     H61250   4.469   8.300   6.255 -3.0536 -2.6111  1.3478
  444MOL0     H61251   4.417   8.401   6.107 -5.0569 -1.4295 -2.2410
  444MOL0     H61252   3.774   8.480   7.083 -0.7871  2.2116 -1.4365
  444MOL0     H61253   3.793   8.577   7.276  0.0635 -0.6064 -0.3122
  444MOL0     H61254   4.025   8.703   7.659  1.3721 -0.2220 -2.0907
  444MOL0     H61255   4.137   8.812   7.856  4.2351 -0.6727 -0.5848
  444MOL0     H61256   3.389   9.995   8.580  2.4072 -1.2132  0.3434
  444MOL0     H61257   3.160   9.927   8.675 -0.1189  0.9515 -0.1561
  444MOL0     H61258   2.919   9.784   9.073  0.5939 -0.0814  2.8137
  444MOL0     H61259   2.759   9.667   9.180  2.0499  3.3080  0.2734
  444MOL0     H61260   2.590   9.367   9.319 -0.9039  2.4792  3.5228
  444MOL0     H61261   2.701   9.497   9.330  0.4395  2.7321 -2.7872
  444MOL0     H61262   2.436   9.484   9.177 -1.3627  0.9747  1.1571
  444MOL0     H61263   2.532   9.631   9.166  0.6947  3.0921  2.9543
  444MOL0     H61264   2.509   9.623   9.429 -0.4719  1.7874  0.5796
  444MOL0     H61265   2.411   9.704   9.312  2.1097  1.2646 -0.3865
  444MOL0     H61266   2.347   9.425   9.426  0.9955 -0.3409 -2.4391
  444MOL0     H61267   2.258   9.495   9.302 -0.0774 -4.7447  1.8883
  444MOL0     H61268   2.084   9.714   9.611 -2.4987 -1.5669 -0.5439
  444MOL0     H61269   2.885   9.308   8.984 -1.6124  0.9190 -2.3134
  444MOL0     H61270   3.107   9.403   8.779  1.8376  0.4549 -0.4804
  444MOL0     H61271   3.201   9.390   8.926  1.1946 -0.8020 -1.3358
  444MOL0     H61272   3.068   9.275   8.894 -2.0273  1.0430  1.1904
  445MOL0     O61273   6.892   4.335   1.360 -0.8936 -0.8253 -0.2335
  445MOL0     C61274   6.892   4.225   1.397 -0.4313 -0.9499 -0.3063
  445MOL0     O61275   7.005   4.160   1.445 -0.2889 -0.7800 -0.3869
  445MOL0     C61276   7.129   4.222   1.447 -0.5423 -0.4332 -0.2383
  445MOL0     C61277   7.239   4.153   1.401  0.9001 -0.0597  0.5435
  445MOL0     C61278   7.370   4.207   1.407 -0.0373 -0.7014  0.0035
  445MOL0     C61279   7.392   4.331   1.450 -0.0963  0.4469 -0.1710
  445MOL0     O61280   7.519   4.375   1.454 -0.2370 -0.1373  0.0797
  445MOL0     C61281   7.562   4.437   1.578 -0.0066  0.9499 -0.9257
  445MOL0     C61282   7.715   4.450   1.594  0.1334  1.1757 -0.0461
  445MOL0     C61283   7.750   4.464   1.748  0.5422 -0.1232  0.4785
  445MOL0     C61284   7.901   4.440   1.782 -1.2812 -0.3166  0.4129
  445MOL0     C61285   7.984   4.562   1.754  0.7755  0.0401 -0.2213
  445MOL0     C61286   8.131   4.550   1.783 -0.3565 -0.3798 -0.0273
  445MOL0     C61287   8.200   4.683   1.778 -0.2970  0.2969  0.2076
  445MOL0     C61288   8.345   4.676   1.817 -0.6189 -0.1400  0.4055
  445MOL0     N61289   8.441   4.601   1.738  0.0065 -0.3028  0.1517
  445MOL0     C61290   8.569   4.639   1.713  0.9313  0.4880 -0.5092
  445MOL0     C61291   8.633   4.523   1.694 -0.5925 -0.4056  0.8354
  445MOL0     C61292   8.769   4.500   1.644  0.2923 -0.3987  0.6438
  445MOL0     C61293   8.881   4.526   1.740 -1.1579  1.1587 -0.1701
  445MOL0     C61294   9.008   4.468   1.684 -0.5914 -0.5386  0.1331
  445MOL0     C61295   9.130   4.477   1.770  1.1494 -0.4542  0.1539
  445MOL0     O61296   9.195   4.605   1.764 -0.1471 -0.4658 -0.9211
  445MOL0     C61297   9.331   4.621   1.749 -0.5411 -0.6178 -0.4918
  445MOL0     C61298   9.380   4.755   1.733 -1.5513  0.0052 -0.1020
  445MOL0     C61299   9.508   4.780   1.707 -1.1069  0.3300 -0.0200
  445MOL0     C61300   9.544   4.929   1.691  0.8788  0.0057  0.3671
  445MOL0     C61301   9.608   4.680   1.710 -0.7310 -0.3282  0.1860
  445MOL0     C61302   9.754   4.700   1.710  0.6267  1.2239 -0.1190
  445MOL0     O61303   9.821   4.583   1.746  0.7716  0.4084 -0.1280
  445MOL0     C61304   9.958   4.584   1.716  0.5684  1.0684 -0.1602
  445MOL0     C61305  10.010   4.576   1.586 -0.3216  0.4342  0.3164
  445MOL0     C61306  10.149   4.560   1.572 -0.0299  0.6984  0.2009
  445MOL0     C61307  10.226   4.543   1.684 -0.9506  0.0621  0.3911
  445MOL0     O61308  10.358   4.510   1.656 -0.5994  0.1648 -0.3216
  445MOL0     C61309  10.461   4.582   1.723 -0.2792  0.3199 -0.5343
  445MOL0     C61310  10.582   4.492   1.711  0.2175 -0.2994  1.0207
  445MOL0     C61311  10.651   4.451   1.579  0.2586 -0.2482 -0.0449
  445MOL0     C61312  10.772   4.357   1.603 -0.3978  0.4634 -0.1684
  445MOL0     C61313  10.843   4.316   1.470 -1.3655 -0.1129  0.3233
  445MOL0     C61314  10.972   4.226   1.482  1.2405  0.4673 -0.6670
  445MOL0     C61315  11.083   4.288   1.562  0.1258  0.1358  0.2779
  445MOL0     C61316  11.209   4.213   1.517  0.3858 -0.0258 -0.5102
  445MOL0    Cl61317  11.263   4.287   1.362  0.2842 -0.1732  0.6994
  445MOL0     C61318  10.180   4.565   1.812 -0.9425  0.1624  0.2705
  445MOL0     C61319  10.041   4.580   1.827 -0.6006  0.4916  0.0111
  445MOL0     O61320   9.801   4.801   1.664  0.9482 -0.4393  0.3427
  445MOL0     C61321   9.561   4.547   1.725  0.4668 -0.2408  0.3364
  445MOL0     C61322   9.425   4.518   1.741 -0.4375 -0.3297  0.5225
  445MOL0     N61323   8.544   4.417   1.707  0.2925 -0.2569 -0.2930
  445MOL0     N61324   8.427   4.466   1.742 -0.1659 -0.3839 -0.0623
  445MOL0     C61325   7.279   4.409   1.487  0.3039  0.4283 -1.1983
  445MOL0     C61326   7.150   4.359   1.487  0.4950  0.1855 -0.2524
  445MOL0     C61327   6.766   4.145   1.405 -0.1281  0.2734 -0.1243
  445MOL0     C61328   6.767   4.014   1.454 -0.3797  0.0525 -0.4394
  445MOL0     C61329   6.655   3.933   1.468 -0.6198  0.5188  0.9957
  445MOL0     C61330   6.526   3.983   1.434  0.5225 -0.9648 -0.1930
  445MOL0     O61331   6.415   3.913   1.480  0.0111  0.1344  0.4133
  445MOL0     C61332   6.295   3.979   1.506  0.8278  0.1198  0.2523
  445MOL0     C61333   6.219   3.931   1.630 -0.0989  1.4651  0.7089
  445MOL0     C61334   6.290   3.982   1.756  1.2224  0.0833 -0.4314
  445MOL0     C61335   6.231   3.928   1.883  0.1745  0.1472 -0.3527
  445MOL0     C61336   6.257   4.003   2.000  0.4930 -0.6787  0.1033
  445MOL0     C61337   6.264   4.067   2.109 -0.8347 -0.2930  1.0508
  445MOL0     C61338   6.522   4.105   1.365 -0.2196 -0.4137 -0.3256
  445MOL0     C61339   6.640   4.185   1.341 -0.1864 -0.7588 -0.4634
  445MOL0     C61340   6.627   4.309   1.255 -0.0756 -0.5585 -0.7288
  445MOL0     H61341   7.221   4.057   1.354 -0.0940  1.8167 -3.3187
  445MOL0     H61342   7.453   4.146   1.375 -0.3882 -0.5785 -1.2077
  445MOL0     H61343   7.545   4.372   1.664  2.8065  1.0747 -0.1702
  445MOL0     H61344   7.520   4.536   1.601  2.2683  1.7832 -0.0335
  445MOL0     H61345   7.760   4.356   1.559  2.3101  2.3114 -0.4895
  445MOL0     H61346   7.750   4.537   1.537  0.6501  3.1908  3.1215
  445MOL0     H61347   7.731   4.569   1.771  0.7523  0.4326 -1.6384
  445MOL0     H61348   7.681   4.401   1.805 -0.7511 -0.2933 -1.1798
  445MOL0     H61349   7.920   4.418   1.887  0.6023  1.4209  0.4914
  445MOL0     H61350   7.931   4.353   1.722 -1.3976 -1.5278  2.0630
  445MOL0     H61351   7.947   4.634   1.827 -0.5440 -0.6241 -0.2042
  445MOL0     H61352   7.964   4.603   1.654 -2.9159  0.9777  0.7654
  445MOL0     H61353   8.151   4.520   1.886 -0.0681  1.4329  0.4807
  445MOL0     H61354   8.171   4.483   1.706  1.4243 -0.9874  1.3533
  445MOL0     H61355   8.143   4.746   1.846 -0.7734  0.3180 -0.2082
  445MOL0     H61356   8.188   4.722   1.677 -2.4211 -0.7658 -0.0182
  445MOL0     H61357   8.370   4.782   1.815 -0.8368 -0.0985 -1.4233
  445MOL0     H61358   8.356   4.639   1.919  1.1242 -1.3827 -0.1857
  445MOL0     H61359   8.608   4.739   1.697 -1.1567  1.4636  0.1764
  445MOL0     H61360   8.787   4.555   1.551  1.7283  1.0611  1.7327
  445MOL0     H61361   8.774   4.392   1.623 -0.5946 -0.6445  1.6113
  445MOL0     H61362   8.892   4.635   1.752 -2.2107  1.4010 -1.2143
  445MOL0     H61363   8.884   4.483   1.840  5.6529 -1.4360 -0.9232
  445MOL0     H61364   8.997   4.362   1.658  0.5069 -0.4021 -0.9932
  445MOL0     H61365   9.022   4.515   1.587 -0.8241  1.3155  0.9665
  445MOL0     H61366   9.115   4.450   1.875  0.5131  0.0366  0.1966
  445MOL0     H61367   9.202   4.406   1.728  1.6447  0.2891 -0.2837
  445MOL0     H61368   9.308   4.836   1.746 -2.3534 -0.8791  1.1443
  445MOL0     H61369   9.618   4.967   1.761  0.0300  4.3494 -0.7809
  445MOL0     H61370   9.459   4.996   1.706 -0.0150 -0.7811 -0.9042
  445MOL0     H61371   9.574   4.951   1.588 -3.3895  2.3306 -0.6290
  445MOL0     H61372   9.941   4.580   1.503 -1.2412 -0.7748  0.9916
  445MOL0     H61373  10.189   4.564   1.471 -0.8490 -0.9816 -0.2263
  445MOL0     H61374  10.479   4.672   1.664  3.1257 -0.7375 -1.2961
  445MOL0     H61375  10.451   4.607   1.829  4.1010  2.7239 -0.4534
  445MOL0     H61376  10.666   4.532   1.769  1.1832 -1.1795  0.2545
  445MOL0     H61377  10.560   4.393   1.754  0.0060 -0.6315  0.1638
  445MOL0     H61378  10.710   4.536   1.543  2.4134 -1.6035  0.1016
  445MOL0     H61379  10.581   4.415   1.503 -1.0102  1.9601 -0.0324
  445MOL0     H61380  10.743   4.265   1.654  1.8281  1.3978  3.0752
  445MOL0     H61381  10.847   4.404   1.667 -1.7352  1.7259  0.5383
  445MOL0     H61382  10.775   4.261   1.405 -2.0877  1.2958 -0.1554
  445MOL0     H61383  10.865   4.407   1.413 -0.3288 -1.6078 -1.7707
  445MOL0     H61384  11.008   4.206   1.380  3.3069 -1.9531  0.4260
  445MOL0     H61385  10.951   4.127   1.523  2.4606  0.4495 -0.0358
  445MOL0     H61386  11.070   4.275   1.669 -0.4956  1.5116  0.3977
  445MOL0     H61387  11.090   4.396   1.546  2.3099 -0.1182 -0.8330
  445MOL0     H61388  11.202   4.104   1.506 -1.9529 -0.0126  0.4027
  445MOL0     H61389  11.280   4.226   1.600 -2.1241  0.2209  1.7137
  445MOL0     H61390  10.244   4.554   1.899  0.8877 -0.7858 -1.1248
  445MOL0     H61391  10.003   4.595   1.927 -0.5878  1.2944 -0.1033
  445MOL0     H61392   9.625   4.464   1.700  0.6611  0.6221 -2.3789
  445MOL0     H61393   9.402   4.412   1.746 -0.6300 -0.5072 -2.6631
  445MOL0     H61394   7.292   4.512   1.519  1.1681  0.3689 -1.3398
  445MOL0     H61395   7.062   4.419   1.511 -0.6507 -1.3968 -0.3607
  445MOL0     H61396   6.856   3.969   1.497 -0.9127 -1.6316 -0.9839
  445MOL0     H61397   6.652   3.834   1.512  1.0890 -0.1824 -0.3389
  445MOL0     H61398   6.318   4.084   1.526  0.9205  0.3538 -0.9989
  445MOL0     H61399   6.234   3.979   1.415  0.8055  3.3648  0.1608
  445MOL0     H61400   6.210   3.822   1.641 -0.7731  1.5858  1.5084
  445MOL0     H61401   6.116   3.965   1.616 -0.3361 -0.1924 -2.4632
  445MOL0     H61402   6.391   3.941   1.759  1.3454  0.3149  3.9257
  445MOL0     H61403   6.292   4.091   1.749 -1.1903  0.0928 -3.6203
  445MOL0     H61404   6.262   3.825   1.903  0.6049  0.2298 -0.5891
  445MOL0     H61405   6.123   3.932   1.863  0.2665 -1.8683 -1.5339
  445MOL0     H61406   6.281   4.109   2.206 -2.1709 -1.9903  2.0863
  445MOL0     H61407   6.428   4.145   1.330  0.0221  3.4041  2.7950
  445MOL0     H61408   6.522   4.310   1.226 -0.4861 -0.1435  0.6979
  445MOL0     H61409   6.646   4.394   1.321 -0.2668  0.6796 -2.1982
  445MOL0     H61410   6.684   4.310   1.161 -0.6241  0.8979 -1.0698
  446MOL0     O61411   3.525  10.001   6.816 -0.5511 -0.1224  0.2083
  446MOL0     C61412   3.452   9.954   6.903  0.1714  0.4028 -0.8624
  446MOL0     O61413   3.493   9.914   7.027 -0.3150  0.1026 -0.1373
  446MOL0     C61414   3.608   9.968   7.084 -0.3608  0.2619  0.4786
  446MOL0     C61415   3.605  10.083   7.171  0.0827  0.4870  0.3924
  446MOL0     C61416   3.728  10.122   7.225 -0.4719 -0.3579 -0.2100
  446MOL0     C61417   3.845  10.055   7.199 -0.5483  0.0178  0.3185
  446MOL0     O61418   3.961  10.092   7.267  0.0458  0.0414  0.2811
  446MOL0     C61419   3.986  10.028   7.386  0.1183  0.4775  0.0568
  446MOL0     C61420   4.137  10.060   7.433 -0.1299  0.6214 -0.3674
  446MOL0     C61421   4.166   9.954   7.540 -0.2822 -0.7428  0.8230
  446MOL0     C61422   4.297   9.988   7.616 -0.9767 -0.3793  0.0852
  446MOL0     C61423   4.324   9.898   7.743 -0.1096 -1.3726 -0.3344
  446MOL0     C61424   4.368   9.755   7.711 -0.3931 -0.3036 -0.4607
  446MOL0     C61425   4.501   9.761   7.633 -0.3713 -0.4011  0.5535
  446MOL0     C61426   4.592   9.633   7.639  1.1485  0.0623  0.1548
  446MOL0     N61427   4.515   9.523   7.576 -0.6169 -0.4302 -0.1738
  446MOL0     C61428   4.551   9.477   7.452  0.3480 -0.5729 -0.2274
  446MOL0     C61429   4.482   9.356   7.439  0.0953 -0.2662 -0.2498
  446MOL0     C61430   4.490   9.262   7.325  0.9831  0.2611  0.9177
  446MOL0     C61431   4.442   9.309   7.186 -0.2241  0.3211  1.1027
  446MOL0     C61432   4.333   9.220   7.123  0.0947 -0.1983  0.7240
  446MOL0     C61433   4.301   9.255   6.977  0.0346 -0.8700  0.3932
  446MOL0     O61434   4.224   9.367   6.954 -0.1320 -0.8712  0.0999
  446MOL0     C61435   4.088   9.368   6.975  0.4087 -0.2822  0.2080
  446MOL0     C61436   4.018   9.260   7.018 -0.3827 -0.1563 -0.2204
  446MOL0     C61437   3.881   9.273   7.053  0.1865  0.6376 -0.4720
  446MOL0     C61438   3.833   9.138   7.099 -0.1480 -1.6462 -0.0014
  446MOL0     C61439   3.806   9.392   7.023 -0.2125  1.0766  0.7538
  446MOL0     C61440   3.658   9.397   7.034  0.6745 -0.8560 -0.3287
  446MOL0     O61441   3.581   9.284   7.046  0.0746 -0.9722 -0.1378
  446MOL0     C61442   3.448   9.284   7.063 -0.3489  0.3095 -0.0725
  446MOL0     C61443   3.392   9.193   7.151  0.4394 -0.5243 -0.0227
  446MOL0     C61444   3.253   9.188   7.178 -0.4652  0.4049 -0.1149
  446MOL0     C61445   3.166   9.269   7.104  0.3728 -0.2474 -1.3121
  446MOL0     O61446   3.036   9.259   7.147 -0.3793  0.6585 -0.1644
  446MOL0     C61447   2.939   9.213   7.050  0.4309  0.3637  0.6419
  446MOL0     C61448   2.875   9.086   7.106  0.6373  0.1767  0.0034
  446MOL0     C61449   2.783   9.013   7.008  0.2928 -1.2000 -0.2481
  446MOL0     C61450   2.769   8.872   7.046  0.4684  0.1548 -0.8822
  446MOL0     C61451   2.680   8.821   6.927 -0.6556 -0.0175  0.2544
  446MOL0     C61452   2.639   8.671   6.948 -0.1653  0.5974  0.0024
  446MOL0     C61453   2.554   8.617   6.829  0.2049 -0.4086  0.6217
  446MOL0     C61454   2.499   8.482   6.871  0.4724 -0.0242  0.8513
  446MOL0    Cl61455   2.640   8.362   6.869 -0.1038 -0.2137  0.2450
  446MOL0     C61456   3.226   9.370   7.016  0.8677 -0.0170 -0.9932
  446MOL0     C61457   3.362   9.375   6.989  0.1883  0.4051  0.9641
  446MOL0     O61458   3.614   9.510   7.024 -0.4992 -0.0677  0.8550
  446MOL0     C61459   3.890   9.501   6.977  0.7420  0.8340 -0.0207
  446MOL0     C61460   4.028   9.492   6.956  0.3707 -0.1346  0.2285
  446MOL0     N61461   4.406   9.326   7.559  0.1914  0.2937  0.6493
  446MOL0     N61462   4.434   9.424   7.638  0.1867 -0.4671 -0.0319
  446MOL0     C61463   3.852   9.946   7.107  0.3725  0.4421 -0.2597
  446MOL0     C61464   3.728   9.903   7.042 -0.2950 -0.2252  0.1568
  446MOL0     C61465   3.315   9.923   6.879 -0.3278  0.0276  0.0100
  446MOL0     C61466   3.266   9.800   6.929  0.1627  0.4204  0.1767
  446MOL0     C61467   3.128   9.773   6.897  0.2394  0.6698  0.8276
  446MOL0     C61468   3.053   9.859   6.820  0.4416 -0.2252  0.4153
  446MOL0     O61469   2.914   9.842   6.807 -0.3489  0.1534  0.6738
  446MOL0     C61470   2.869   9.811   6.675  0.5659  0.5424 -0.2073
  446MOL0     C61471   2.733   9.740   6.656 -0.2818  0.7522  0.3263
  446MOL0     C61472   2.735   9.606   6.732 -0.1412  0.3308 -0.8425
  446MOL0     C61473   2.835   9.498   6.686 -0.6309  0.8452 -0.0893
  446MOL0     C61474   2.784   9.369   6.727 -0.8867  0.6688  0.3381
  446MOL0     C61475   2.722   9.266   6.751  1.0713  0.5960 -0.2145
  446MOL0     C61476   3.109   9.979   6.773  0.5253 -0.0352 -0.0683
  446MOL0     C61477   3.240  10.020   6.808  0.1198 -0.1954 -0.2335
  446MOL0     C61478   3.293  10.151   6.756  0.6793  0.9160 -0.6148
  446MOL0     H61479   3.514  10.130   7.208 -1.0240 -1.3988  0.2179
  446MOL0     H61480   3.725  10.213   7.285  0.3816 -0.1966 -0.3964
  446MOL0     H61481   3.961   9.923   7.373 -0.7193  0.6164  0.4738
  446MOL0     H61482   3.915  10.068   7.460  0.0781  2.0395 -0.7837
  446MOL0     H61483   4.205  10.046   7.350  1.8211  2.4757  0.8162
  446MOL0     H61484   4.149  10.163   7.470  0.6132  0.8073 -1.1225
  446MOL0     H61485   4.083   9.954   7.612  1.1557 -1.1554  2.5475
  446MOL0     H61486   4.172   9.853   7.500  0.9927 -1.7838  3.4223
  446MOL0     H61487   4.382   9.993   7.546 -1.3270 -0.2771 -0.3378
  446MOL0     H61488   4.273  10.092   7.641 -1.9083 -0.2711 -1.1569
  446MOL0     H61489   4.238   9.906   7.811 -0.0831  0.1803 -0.4579
  446MOL0     H61490   4.412   9.948   7.786 -1.3954 -0.2865  1.1775
  446MOL0     H61491   4.397   9.695   7.798 -1.1086  1.3165  0.9435
  446MOL0     H61492   4.288   9.705   7.655 -0.3070 -1.4909  0.4452
  446MOL0     H61493   4.556   9.848   7.670  2.6930 -2.7297  1.9661
  446MOL0     H61494   4.491   9.787   7.527 -2.3965  1.4210  1.1337
  446MOL0     H61495   4.697   9.648   7.612  0.8116 -0.1966 -1.3812
  446MOL0     H61496   4.598   9.597   7.742  1.0520 -1.1286 -0.2517
  446MOL0     H61497   4.620   9.514   7.376  0.7608  0.8673  0.8186
  446MOL0     H61498   4.441   9.169   7.354 -1.0520 -0.3004 -3.5382
  446MOL0     H61499   4.595   9.232   7.312  0.8698  0.2177  0.0196
  446MOL0     H61500   4.408   9.413   7.194 -0.2059  0.6185 -1.5446
  446MOL0     H61501   4.532   9.302   7.124  1.8203  2.7931  3.5158
  446MOL0     H61502   4.366   9.116   7.126 -2.6596 -1.1309  2.3063
  446MOL0     H61503   4.243   9.236   7.184  0.1753 -2.0778  1.4115
  446MOL0     H61504   4.401   9.260   6.932  1.5637 -0.4513  3.5094
  446MOL0     H61505   4.255   9.163   6.940  0.1199 -0.9073  0.3773
  446MOL0     H61506   4.072   9.171   7.048 -0.7570 -0.1242  0.5754
  446MOL0     H61507   3.891   9.047   7.078 -0.8885 -1.8981 -1.0269
  446MOL0     H61508   3.738   9.114   7.051  0.5316  0.2719 -2.5184
  446MOL0     H61509   3.814   9.146   7.207  1.8356 -1.6356  0.3960
  446MOL0     H61510   3.458   9.115   7.187  2.7374  2.1382  1.9695
  446MOL0     H61511   3.214   9.114   7.246 -1.8140  0.2986 -0.9738
  446MOL0     H61512   2.859   9.287   7.046 -2.5585 -2.5508  1.6398
  446MOL0     H61513   2.986   9.191   6.954 -2.1558 -0.1468 -0.5905
  446MOL0     H61514   2.961   9.028   7.139  0.0855  0.4178  2.0119
  446MOL0     H61515   2.817   9.103   7.197  1.7603  1.3299  0.5304
  446MOL0     H61516   2.824   9.014   6.906 -0.6132  1.9738 -0.6953
  446MOL0     H61517   2.688   9.067   7.015  2.1173  2.1596  1.1469
  446MOL0     H61518   2.711   8.847   7.135  1.0551 -3.1523 -1.3168
  446MOL0     H61519   2.868   8.826   7.052 -0.2712 -1.4026  0.2441
  446MOL0     H61520   2.595   8.884   6.902 -1.3864 -1.2502 -0.4179
  446MOL0     H61521   2.741   8.819   6.836 -0.3805  0.3216  0.4289
  446MOL0     H61522   2.580   8.659   7.039 -0.5081  0.1951 -0.2646
  446MOL0     H61523   2.730   8.613   6.962  0.5384  0.3882 -4.1287
  446MOL0     H61524   2.614   8.611   6.739 -1.3597  2.1646 -0.7282
  446MOL0     H61525   2.473   8.690   6.815  0.5486  0.5217  3.0114
  446MOL0     H61526   2.424   8.442   6.802  2.6397 -2.4240 -0.2926
  446MOL0     H61527   2.462   8.482   6.973 -2.1253 -0.3054 -0.0306
  446MOL0     H61528   3.158   9.446   6.980  3.1084  2.8034  0.3515
  446MOL0     H61529   3.405   9.449   6.923  0.0064 -0.3213  0.0126
  446MOL0     H61530   3.837   9.595   6.966 -1.9669 -0.3208  2.0179
  446MOL0     H61531   4.077   9.578   6.913  1.3806 -1.5391 -1.5975
  446MOL0     H61532   3.945   9.898   7.080  0.7135  0.7399  0.3494
  446MOL0     H61533   3.724   9.828   6.964 -0.0454  1.0199 -1.0906
  446MOL0     H61534   3.328   9.739   6.994  2.9004  2.8588  0.0941
  446MOL0     H61535   3.074   9.686   6.934 -3.3040  2.3900  0.1895
  446MOL0     H61536   2.849   9.910   6.632 -3.1914 -0.2148 -0.4906
  446MOL0     H61537   2.949   9.769   6.614  1.7263  1.0250  0.9286
  446MOL0     H61538   2.707   9.724   6.551  2.8535 -0.2821 -0.3947
  446MOL0     H61539   2.662   9.805   6.707 -2.0360 -1.7798  1.3176
  446MOL0     H61540   2.765   9.629   6.835  0.3167 -1.1749 -0.6310
  446MOL0     H61541   2.634   9.565   6.741 -0.1051  0.6055  1.7981
  446MOL0     H61542   2.932   9.512   6.735  0.0500  0.2541 -1.2227
  446MOL0     H61543   2.848   9.509   6.578 -0.4580  1.1541 -0.0376
  446MOL0     H61544   2.656   9.184   6.772  4.2881 -2.3665 -0.7896
  446MOL0     H61545   3.057  10.044   6.703  1.0528 -0.2043 -0.6244
  446MOL0     H61546   3.343  10.212   6.832  1.2138 -1.0845  0.7232
  446MOL0     H61547   3.357  10.137   6.669  0.9845 -0.2869 -0.2095
  446MOL0     H61548   3.205  10.209   6.725  0.9946  1.7777  0.0656
  447MOL0     O61549   2.803   2.266   7.969  0.2095 -0.1223  0.4023
  447MOL0     C61550   2.881   2.184   8.010 -0.5411 -0.5983  0.3793
  447MOL0     O61551   3.015   2.184   7.985 -0.8580 -0.4501  0.2030
  447MOL0     C61552   3.068   2.212   7.858  0.3116 -0.4776  0.2370
  447MOL0     C61553   2.993   2.233   7.741  0.0853  0.3605 -0.4788
  447MOL0     C61554   3.050   2.250   7.624  0.7825 -1.6304  0.1273
  447MOL0     C61555   3.186   2.249   7.604 -0.2131 -0.2611 -1.1071
  447MOL0     O61556   3.248   2.269   7.480 -0.1886 -0.6421 -0.9730
  447MOL0     C61557   3.171   2.320   7.365 -0.1159  0.1832  0.2894
  447MOL0     C61558   3.262   2.321   7.246  0.2364 -0.4990 -0.0172
  447MOL0     C61559   3.384   2.412   7.252  0.2417  0.0516  0.7582
  447MOL0     C61560   3.474   2.410   7.131 -0.3013  0.4646 -0.0192
  447MOL0     C61561   3.614   2.471   7.149  0.3981  0.1345 -0.5264
  447MOL0     C61562   3.619   2.625   7.149 -0.3518  0.6987  0.1444
  447MOL0     C61563   3.761   2.671   7.182 -0.3073  0.3105 -1.1817
  447MOL0     C61564   3.763   2.819   7.183 -0.2309  0.7262 -0.2509
  447MOL0     N61565   3.889   2.876   7.175 -0.3969  0.0378  0.4271
  447MOL0     C61566   3.981   2.901   7.272  0.5673  0.6954 -0.2411
  447MOL0     C61567   4.083   2.950   7.203 -0.6370 -1.2032  0.5031
  447MOL0     C61568   4.210   3.007   7.254 -0.0721 -0.2187  0.0868
  447MOL0     C61569   4.259   2.945   7.380  0.1981  0.1084  0.1277
  447MOL0     C61570   4.394   3.009   7.422 -0.0405 -0.3708 -0.3832
  447MOL0     C61571   4.469   2.902   7.508 -0.0750  0.5911  0.8022
  447MOL0     O61572   4.570   2.961   7.590 -0.3967 -0.5733  0.0392
  447MOL0     C61573   4.694   2.984   7.539  0.0755  0.4200  0.8881
  447MOL0     C61574   4.756   3.095   7.590  0.4959 -0.5362  0.5674
  447MOL0     C61575   4.888   3.129   7.562 -0.3671 -0.0160  0.0558
  447MOL0     C61576   4.945   3.256   7.621 -0.3426  0.8711 -0.6219
  447MOL0     C61577   4.957   3.055   7.460  0.4341 -1.2886 -0.3317
  447MOL0     C61578   5.095   3.085   7.419  0.4967  0.7186 -0.4268
  447MOL0     O61579   5.191   3.112   7.509  0.5531  0.5033 -0.2742
  447MOL0     C61580   5.325   3.090   7.479 -0.1693 -0.4174 -1.0351
  447MOL0     C61581   5.374   3.000   7.394 -0.1781  0.1861  1.0985
  447MOL0     C61582   5.510   2.980   7.373 -0.2817  0.9313  0.8243
  447MOL0     C61583   5.606   3.060   7.435 -0.0512  0.5103  0.4351
  447MOL0     O61584   5.742   3.045   7.434 -0.0462  1.0770  0.3679
  447MOL0     C61585   5.796   2.977   7.319  0.1436  0.7850  0.5212
  447MOL0     C61586   5.812   2.835   7.362 -0.3420  0.5724 -0.1743
  447MOL0     C61587   5.953   2.808   7.425 -0.0212 -0.4038  0.2789
  447MOL0     C61588   5.959   2.860   7.567  0.2655 -0.7333  0.0788
  447MOL0     C61589   6.052   2.765   7.649 -0.5675  0.6197  0.8591
  447MOL0     C61590   6.199   2.748   7.593  0.2996  0.7268 -1.3634
  447MOL0     C61591   6.285   2.867   7.618 -0.1023  0.6319 -0.4176
  447MOL0     C61592   6.316   2.879   7.766  0.1482 -0.4466  0.6008
  447MOL0    Cl61593   6.448   2.762   7.821  0.5845 -0.0152  0.2186
  447MOL0     C61594   5.556   3.167   7.510  1.0933  0.0281 -0.0071
  447MOL0     C61595   5.417   3.187   7.531  0.5299 -0.4604 -0.4481
  447MOL0     O61596   5.107   3.075   7.296 -0.2316  0.5847  0.2001
  447MOL0     C61597   4.892   2.947   7.405 -0.6059  0.5724  0.5689
  447MOL0     C61598   4.763   2.911   7.441  0.5773  0.4518 -0.6409
  447MOL0     N61599   4.055   2.959   7.071 -0.3199  0.0023  0.7519
  447MOL0     N61600   3.940   2.916   7.054  0.7260 -0.6921 -0.7886
  447MOL0     C61601   3.260   2.241   7.721 -0.8620  0.1074  0.0940
  447MOL0     C61602   3.204   2.220   7.846 -0.6576  0.2184  0.6021
  447MOL0     C61603   2.838   2.091   8.125 -0.6740  0.1516 -0.2760
  447MOL0     C61604   2.934   2.011   8.189  0.0117 -0.0183  0.5891
  447MOL0     C61605   2.894   1.930   8.298 -0.5568  0.2328  0.1271
  447MOL0     C61606   2.769   1.938   8.351  0.6848  0.4305 -0.6245
  447MOL0     O61607   2.754   1.878   8.476 -0.0702 -0.3231 -1.0762
  447MOL0     C61608   2.621   1.875   8.527 -0.2127  0.6656 -0.0081
  447MOL0     C61609   2.631   1.786   8.659  0.6396 -0.0703 -0.6155
  447MOL0     C61610   2.634   1.631   8.634 -0.6995  0.6241  0.1096
  447MOL0     C61611   2.634   1.548   8.764  0.5865  0.6644 -0.1937
  447MOL0     C61612   2.527   1.597   8.856 -0.2185  0.3623  0.2109
  447MOL0     C61613   2.438   1.639   8.927  0.3911  0.8845 -0.2115
  447MOL0     C61614   2.673   2.019   8.285  0.2009 -0.3288  0.0532
  447MOL0     C61615   2.697   2.087   8.165  0.0942 -0.2517 -0.3383
  447MOL0     C61616   2.577   2.136   8.094 -0.6863 -0.0727 -0.3673
  447MOL0     H61617   2.885   2.222   7.741  0.1544 -0.7275 -2.6644
  447MOL0     H61618   2.985   2.268   7.539  1.1242  1.4899  0.4144
  447MOL0     H61619   3.134   2.422   7.379 -0.2613  0.0789  0.6823
  447MOL0     H61620   3.085   2.258   7.338  1.0289 -1.5991  0.5446
  447MOL0     H61621   3.296   2.219   7.225 -0.5019 -0.3621 -2.0678
  447MOL0     H61622   3.199   2.345   7.161  0.9791  0.8584 -0.2172
  447MOL0     H61623   3.352   2.514   7.277  0.8977  0.5869 -0.5062
  447MOL0     H61624   3.440   2.363   7.333  1.9750 -1.8212 -1.4118
  447MOL0     H61625   3.495   2.310   7.093 -0.0072  0.7653 -0.6806
  447MOL0     H61626   3.413   2.453   7.051 -1.7584 -2.5303 -0.6451
  447MOL0     H61627   3.677   2.435   7.067  3.3165  1.9013  0.7801
  447MOL0     H61628   3.654   2.433   7.244 -2.6386  3.4330  2.3336
  447MOL0     H61629   3.594   2.658   7.048 -1.7697  1.8157  0.8202
  447MOL0     H61630   3.551   2.663   7.226 -2.8364  0.5863 -1.8771
  447MOL0     H61631   3.832   2.632   7.108 -0.1099 -3.3341  0.6806
  447MOL0     H61632   3.778   2.634   7.283 -2.9414  1.1490 -0.3636
  447MOL0     H61633   3.701   2.849   7.098 -0.6327  2.4398  0.5972
  447MOL0     H61634   3.716   2.856   7.274 -2.7974 -2.2016 -0.2298
  447MOL0     H61635   3.974   2.894   7.380 -0.0805  1.3675 -0.2321
  447MOL0     H61636   4.209   3.115   7.267 -0.3453 -0.3832  1.6783
  447MOL0     H61637   4.284   2.993   7.174 -2.6710 -1.3285 -2.2672
  447MOL0     H61638   4.183   2.962   7.456 -1.3453 -1.7133 -0.9352
  447MOL0     H61639   4.268   2.838   7.360  4.7144  0.8518 -3.7267
  447MOL0     H61640   4.451   3.032   7.331 -0.7705 -0.4618 -0.8722
  447MOL0     H61641   4.368   3.102   7.474 -0.4806 -1.0250  0.5993
  447MOL0     H61642   4.402   2.843   7.571 -0.5104  1.1691  0.8825
  447MOL0     H61643   4.515   2.832   7.437 -2.4953  1.0548 -1.3590
  447MOL0     H61644   4.698   3.157   7.658 -0.3380 -1.8954  1.1274
  447MOL0     H61645   4.995   3.324   7.552  2.4556 -0.2899  0.1318
  447MOL0     H61646   5.015   3.226   7.699 -0.0426 -3.4932 -2.2410
  447MOL0     H61647   4.866   3.315   7.669  2.5110  5.3116 -0.9138
  447MOL0     H61648   5.316   2.918   7.352 -0.0612  0.3475  0.6132
  447MOL0     H61649   5.556   2.905   7.309  0.8073  3.0005 -0.9036
  447MOL0     H61650   5.733   2.990   7.230 -1.5148 -0.8649  1.3833
  447MOL0     H61651   5.895   3.021   7.303  0.5120  0.2813  1.3465
  447MOL0     H61652   5.739   2.813   7.440 -0.2404 -0.1189 -0.2631
  447MOL0     H61653   5.801   2.773   7.272  2.5363  3.0560 -2.4698
  447MOL0     H61654   6.031   2.856   7.366  0.4811  2.4791  3.0218
  447MOL0     H61655   5.972   2.700   7.418  2.7783 -0.0454  1.2251
  447MOL0     H61656   5.859   2.867   7.610  0.3130  1.3340 -0.0756
  447MOL0     H61657   5.998   2.962   7.574 -1.3682 -0.1830  5.0052
  447MOL0     H61658   6.051   2.784   7.756 -1.2986  1.3994  0.7190
  447MOL0     H61659   6.006   2.667   7.637 -1.4461  0.7966  2.5287
  447MOL0     H61660   6.194   2.726   7.486 -0.6649 -1.2872 -0.9621
  447MOL0     H61661   6.252   2.661   7.634 -2.1015 -0.7864 -1.2542
  447MOL0     H61662   6.231   2.957   7.588  0.4899  1.1193 -0.0425
  447MOL0     H61663   6.371   2.862   7.550  0.3892 -1.4887  0.2592
  447MOL0     H61664   6.230   2.854   7.829 -0.5691 -3.2043 -1.3086
  447MOL0     H61665   6.331   2.986   7.784  0.1507 -0.1857 -0.8864
  447MOL0     H61666   5.620   3.241   7.559  0.1324  0.2898  0.8929
  447MOL0     H61667   5.380   3.274   7.584 -1.4466 -0.3482 -1.8853
  447MOL0     H61668   4.950   2.900   7.326  0.4872  0.9361  1.1353
  447MOL0     H61669   4.721   2.816   7.409 -3.1385  2.1931 -1.5226
  447MOL0     H61670   3.368   2.253   7.715 -1.0260  1.6725 -0.1458
  447MOL0     H61671   3.268   2.196   7.930  1.5578 -1.6947 -1.4729
  447MOL0     H61672   3.040   2.015   8.162 -0.0506  0.9043  0.4545
  447MOL0     H61673   2.973   1.881   8.354 -1.5925 -1.2475  0.3191
  447MOL0     H61674   2.586   1.976   8.549 -1.7942  0.8368 -2.8073
  447MOL0     H61675   2.549   1.828   8.458 -1.3920  1.1895  0.8211
  447MOL0     H61676   2.540   1.811   8.714 -0.1160 -1.4935 -1.1533
  447MOL0     H61677   2.714   1.827   8.718 -0.8858 -0.3799  1.8895
  447MOL0     H61678   2.543   1.607   8.577  0.8955 -2.2794 -1.4184
  447MOL0     H61679   2.721   1.605   8.573 -1.6271 -0.1634 -0.9188
  447MOL0     H61680   2.735   1.559   8.806 -0.3333  1.3636  2.0354
  447MOL0     H61681   2.623   1.441   8.748 -0.1217  0.2187  2.7144
  447MOL0     H61682   2.358   1.674   8.989 -1.3040  1.1264 -2.4422
  447MOL0     H61683   2.569   2.017   8.316 -0.4005  0.2293 -1.8112
  447MOL0     H61684   2.488   2.083   8.127  0.1368 -1.8874 -0.9181
  447MOL0     H61685   2.568   2.245   8.089  1.8452  0.1901 -0.7057
  447MOL0     H61686   2.593   2.100   7.991  1.7840 -0.7749  0.1870
  448MOL0     O61687   2.079   7.498   1.358  0.2459  0.0835 -0.1763
  448MOL0     C61688   2.069   7.374   1.350 -0.6206  0.0232 -0.2482
  448MOL0     O61689   2.174   7.286   1.355  0.2426  0.1151  0.1169
  448MOL0     C61690   2.290   7.319   1.417  0.0442  0.0867 -0.2811
  448MOL0     C61691   2.399   7.297   1.346  0.3925  0.1887 -0.0969
  448MOL0     C61692   2.526   7.328   1.405 -0.2505  0.5897 -0.0423
  448MOL0     C61693   2.544   7.388   1.529 -0.9640 -0.5754 -0.5534
  448MOL0     O61694   2.677   7.413   1.570 -0.1731  0.3859  0.3830
  448MOL0     C61695   2.701   7.484   1.690 -0.0502 -0.0898  0.3047
  448MOL0     C61696   2.841   7.533   1.710 -0.4032 -0.0365  0.2459
  448MOL0     C61697   2.866   7.648   1.610  0.2345  0.0974 -0.7308
  448MOL0     C61698   3.012   7.670   1.633 -0.4762 -0.6911  0.3015
  448MOL0     C61699   3.068   7.762   1.525  0.3894 -0.3041  0.0905
  448MOL0     C61700   3.207   7.800   1.551 -0.8198  0.3943  0.7938
  448MOL0     C61701   3.232   7.907   1.663 -0.1875  0.5041 -0.5894
  448MOL0     C61702   3.375   7.968   1.639  0.4995  0.5185  0.9121
  448MOL0     N61703   3.434   7.982   1.774 -0.2646  0.5910  0.4732
  448MOL0     C61704   3.471   7.870   1.839  0.7244 -0.5150  0.4275
  448MOL0     C61705   3.523   7.924   1.955  0.0424  0.7045  0.9218
  448MOL0     C61706   3.578   7.846   2.066 -0.1064  0.4581  0.2060
  448MOL0     C61707   3.675   7.921   2.154  0.1912  0.3272 -0.4593
  448MOL0     C61708   3.805   7.955   2.079 -0.3721 -0.0705  0.2651
  448MOL0     C61709   3.912   8.008   2.172  0.4231 -0.2949  0.5870
  448MOL0     O61710   3.980   7.900   2.243  0.2465  0.8123 -0.1918
  448MOL0     C61711   4.113   7.905   2.275 -0.1880 -0.5008 -0.6909
  448MOL0     C61712   4.169   7.788   2.329  0.0181  0.1437 -0.3934
  448MOL0     C61713   4.304   7.787   2.347  0.9736 -0.0605  0.4201
  448MOL0     C61714   4.366   7.653   2.386  0.4104 -0.6398 -0.2216
  448MOL0     C61715   4.389   7.893   2.317  0.0716 -0.0690 -0.4968
  448MOL0     C61716   4.537   7.894   2.350  0.3406 -0.2761  0.9682
  448MOL0     O61717   4.581   8.000   2.410  0.7267  0.3306  0.1177
  448MOL0     C61718   4.717   8.026   2.425 -0.3819 -0.2037 -0.0696
  448MOL0     C61719   4.761   8.097   2.541  0.5549 -0.0075 -0.3597
  448MOL0     C61720   4.899   8.120   2.574  0.4191  0.2924  0.2747
  448MOL0     C61721   4.994   8.067   2.489 -0.9237 -0.0535 -0.0306
  448MOL0     O61722   5.125   8.076   2.529  0.5110  0.4486 -0.5914
  448MOL0     C61723   5.224   8.092   2.425 -0.3063  0.9631 -0.1680
  448MOL0     C61724   5.341   8.179   2.470  0.0947  0.1323  0.4268
  448MOL0     C61725   5.455   8.118   2.556  0.2797 -0.5498  0.6273
  448MOL0     C61726   5.575   8.211   2.571 -0.5923 -0.4868 -0.7027
  448MOL0     C61727   5.677   8.137   2.658 -0.2420  0.5402  0.4887
  448MOL0     C61728   5.799   8.228   2.689  0.5903 -0.7537 -0.0675
  448MOL0     C61729   5.868   8.183   2.814  0.3150  0.1736 -0.9622
  448MOL0     C61730   6.023   8.209   2.822 -0.6644  0.1001 -0.1121
  448MOL0    Cl61731   6.071   8.152   2.984 -0.1301 -0.1747 -0.3412
  448MOL0     C61732   4.952   8.004   2.366 -0.1496 -0.3830 -0.1715
  448MOL0     C61733   4.822   7.983   2.338 -0.1306 -0.5555  0.5262
  448MOL0     O61734   4.605   7.804   2.303  0.1317 -0.2595 -0.1652
  448MOL0     C61735   4.327   8.015   2.274 -0.6125 -0.1105 -0.2354
  448MOL0     C61736   4.191   8.016   2.250 -0.6592 -0.7881  0.0749
  448MOL0     N61737   3.511   8.062   1.952  0.0757 -0.2168 -0.2063
  448MOL0     N61738   3.451   8.101   1.842  0.0264  0.0755  0.3926
  448MOL0     C61739   2.424   7.417   1.602  0.4317 -0.0142  0.6997
  448MOL0     C61740   2.298   7.379   1.544  0.1625 -0.6832  0.2179
  448MOL0     C61741   1.934   7.322   1.347  0.1924 -0.0916 -0.4363
  448MOL0     C61742   1.913   7.190   1.382 -0.2117  0.0907 -0.4915
  448MOL0     C61743   1.784   7.135   1.408  0.6453  0.0666 -0.2177
  448MOL0     C61744   1.667   7.204   1.381 -0.0365 -0.7916  0.6583
  448MOL0     O61745   1.550   7.130   1.380 -0.3850 -0.5753 -0.3874
  448MOL0     C61746   1.435   7.207   1.408 -0.2973 -0.5553 -0.1824
  448MOL0     C61747   1.313   7.126   1.444 -0.7890 -0.0242  0.0504
  448MOL0     C61748   1.245   7.054   1.327  0.7810 -0.9847 -0.5459
  448MOL0     C61749   1.132   6.975   1.387 -0.1459 -0.1759  0.1745
  448MOL0     C61750   1.080   6.892   1.279  0.5228  0.0635  0.4667
  448MOL0     C61751   1.029   6.831   1.187 -0.0829 -0.2256 -0.4401
  448MOL0     C61752   1.684   7.337   1.337  0.0893  0.2877  0.2687
  448MOL0     C61753   1.812   7.395   1.318  0.1589 -0.2693  0.2039
  448MOL0     C61754   1.817   7.525   1.239 -0.4910  0.6036  1.2584
  448MOL0     H61755   2.386   7.251   1.249 -1.7537  0.7729 -0.1180
  448MOL0     H61756   2.617   7.293   1.358 -0.6401 -0.6255  0.0714
  448MOL0     H61757   2.669   7.431   1.780  0.9083  0.2740  0.8826
  448MOL0     H61758   2.633   7.570   1.685 -0.1756 -0.0616  1.9060
  448MOL0     H61759   2.848   7.567   1.814  0.2233  0.8659 -0.0732
  448MOL0     H61760   2.906   7.451   1.677 -2.5961 -1.0530 -1.8940
  448MOL0     H61761   2.852   7.610   1.508  2.5722  2.1689 -1.9444
  448MOL0     H61762   2.793   7.725   1.636 -0.5882 -0.4877 -1.2523
  448MOL0     H61763   3.008   7.729   1.725 -1.5420  1.6071 -1.1274
  448MOL0     H61764   3.081   7.585   1.637  1.5185  0.7508 -1.1727
  448MOL0     H61765   3.005   7.852   1.525 -0.1187 -0.5904  2.8390
  448MOL0     H61766   3.065   7.712   1.428  0.2646 -0.0624 -0.0314
  448MOL0     H61767   3.258   7.705   1.568 -0.8298  0.2537  0.0822
  448MOL0     H61768   3.253   7.842   1.461  1.8229 -2.4955  0.6386
  448MOL0     H61769   3.212   7.838   1.746 -1.6329 -2.2566 -3.0239
  448MOL0     H61770   3.152   7.979   1.678 -2.0033 -1.8657  2.1251
  448MOL0     H61771   3.439   7.895   1.589  0.2869  1.4077 -0.7061
  448MOL0     H61772   3.386   8.059   1.580  3.8945 -1.3331 -1.6371
  448MOL0     H61773   3.461   7.776   1.787 -0.4545  1.0782 -2.5040
  448MOL0     H61774   3.632   7.762   2.023 -0.5787  1.5749 -2.8357
  448MOL0     H61775   3.495   7.812   2.130 -3.9256  3.0590 -2.8617
  448MOL0     H61776   3.629   8.004   2.208  0.3893  1.0263 -1.3378
  448MOL0     H61777   3.703   7.849   2.231  0.9726 -0.3143 -1.3172
  448MOL0     H61778   3.846   7.867   2.028  0.4089 -0.9101  2.2722
  448MOL0     H61779   3.799   8.033   2.002  3.1374  0.3621  0.2905
  448MOL0     H61780   3.985   8.061   2.111 -1.1140  1.6071  0.2644
  448MOL0     H61781   3.861   8.076   2.242 -1.0232 -1.3013  0.5547
  448MOL0     H61782   4.111   7.703   2.365 -0.5213  0.7447  0.1845
  448MOL0     H61783   4.288   7.582   2.416  0.0429  0.5767  1.9501
  448MOL0     H61784   4.429   7.665   2.476 -1.5314  0.4298  1.0574
  448MOL0     H61785   4.427   7.613   2.305  1.3540  1.5365 -0.6682
  448MOL0     H61786   4.691   8.126   2.619  1.2718 -2.2693  1.2330
  448MOL0     H61787   4.928   8.175   2.663  2.0485  3.9070 -2.2242
  448MOL0     H61788   5.258   7.995   2.388  0.7642  0.6871  1.4404
  448MOL0     H61789   5.171   8.146   2.346 -1.6981  0.5065  0.4132
  448MOL0     H61790   5.388   8.229   2.384  2.3393 -0.5651  1.1717
  448MOL0     H61791   5.294   8.254   2.534 -0.0042 -0.1964  0.7437
  448MOL0     H61792   5.476   8.027   2.500  0.8580  1.3927 -2.6255
  448MOL0     H61793   5.421   8.086   2.655 -1.4172  0.6834  0.4966
  448MOL0     H61794   5.556   8.305   2.623  0.2696  0.7557 -2.5183
  448MOL0     H61795   5.634   8.231   2.481  3.6827  0.4064  2.0023
  448MOL0     H61796   5.628   8.101   2.749  2.6665  0.3059  2.0787
  448MOL0     H61797   5.716   8.049   2.606 -1.1832  0.9496 -0.9612
  448MOL0     H61798   5.773   8.334   2.704 -0.5003 -0.8318 -1.2398
  448MOL0     H61799   5.872   8.233   2.608  1.8605  1.3584  1.1121
  448MOL0     H61800   5.863   8.074   2.823  2.1911  0.0963 -0.3071
  448MOL0     H61801   5.816   8.211   2.906  0.7211 -3.3604  0.5186
  448MOL0     H61802   6.044   8.314   2.798  0.9571 -0.5185 -1.6828
  448MOL0     H61803   6.085   8.153   2.751  1.6479  1.8658  0.4013
  448MOL0     H61804   5.022   7.970   2.291 -0.9005 -3.3080  0.2997
  448MOL0     H61805   4.802   7.940   2.240  4.3327 -0.0374 -0.8047
  448MOL0     H61806   4.396   8.092   2.240  0.4987 -1.8807 -2.2667
  448MOL0     H61807   4.152   8.113   2.221  0.9134 -0.3789 -0.7861
  448MOL0     H61808   2.440   7.451   1.704  0.6297 -0.4911  0.8341
  448MOL0     H61809   2.201   7.397   1.589  0.1579 -0.7647  0.2395
  448MOL0     H61810   1.994   7.120   1.401 -0.4731  0.1233  0.8397
  448MOL0     H61811   1.787   7.030   1.435  2.2867  0.0964 -0.1537
  448MOL0     H61812   1.455   7.261   1.501 -3.4421 -0.0280  0.3181
  448MOL0     H61813   1.407   7.267   1.320  0.5362 -2.1015 -1.5544
  448MOL0     H61814   1.245   7.199   1.489  0.2228  1.7482 -1.1823
  448MOL0     H61815   1.343   7.055   1.521 -0.8338  1.0278  1.0506
  448MOL0     H61816   1.196   7.126   1.260 -3.4793 -0.6812  2.4948
  448MOL0     H61817   1.316   6.986   1.278 -0.1524 -1.9889 -0.5354
  448MOL0     H61818   1.050   7.047   1.396  1.0850  1.9142 -3.2105
  448MOL0     H61819   1.163   6.925   1.480  0.1679 -2.7877 -1.2393
  448MOL0     H61820   0.973   6.777   1.113 -3.4860  1.3777  0.7560
  448MOL0     H61821   1.602   7.403   1.310 -0.7250 -1.2640 -1.2326
  448MOL0     H61822   1.903   7.516   1.171 -0.3927 -2.1848  1.6230
  448MOL0     H61823   1.725   7.546   1.184  0.0686  1.1881  0.5104
  448MOL0     H61824   1.835   7.611   1.303  0.3810  0.4884  1.1809
  449MOL0     O61825   5.399   3.654   4.530  0.1608  0.9749  0.1586
  449MOL0     C61826   5.284   3.630   4.568  1.1688  1.0877  0.1105
  449MOL0     O61827   5.231   3.512   4.593  0.0640  0.8111  0.2288
  449MOL0     C61828   5.290   3.401   4.531 -0.5667  0.3189 -0.4047
  449MOL0     C61829   5.335   3.404   4.402 -0.6216 -0.0672  0.5444
  449MOL0     C61830   5.392   3.291   4.339  0.0169 -0.2374  0.2936
  449MOL0     C61831   5.404   3.169   4.408  0.3845 -0.6321 -0.3040
  449MOL0     O61832   5.467   3.053   4.374 -0.2321  0.4863  0.0069
  449MOL0     C61833   5.548   3.047   4.260 -0.6106 -0.5112  0.0166
  449MOL0     C61834   5.659   2.936   4.270  0.2743  0.4220  0.1371
  449MOL0     C61835   5.754   2.937   4.147  0.3458 -0.9731  0.6251
  449MOL0     C61836   5.864   3.035   4.139 -0.4955  0.0992  0.0290
  449MOL0     C61837   5.938   3.041   4.002 -0.0656 -0.3964  0.3918
  449MOL0     C61838   6.049   3.150   4.002 -0.7779  0.0320  0.0843
  449MOL0     C61839   6.096   3.172   3.861 -0.7465 -0.5505 -0.1388
  449MOL0     C61840   6.162   3.302   3.844 -0.5716  0.3852  0.2447
  449MOL0     N61841   6.304   3.316   3.896 -0.3303 -0.2042  0.3504
  449MOL0     C61842   6.376   3.210   3.943 -0.2932 -0.9996  0.2314
  449MOL0     C61843   6.505   3.267   3.963  0.9627  0.3524 -0.1650
  449MOL0     C61844   6.614   3.173   3.993 -0.1858 -0.1324  0.2053
  449MOL0     C61845   6.726   3.231   4.086  0.8033 -0.4589  0.3228
  449MOL0     C61846   6.837   3.131   4.117 -0.3957 -0.6148  0.3274
  449MOL0     C61847   6.962   3.204   4.162 -0.3094 -0.0830 -0.3590
  449MOL0     O61848   7.035   3.115   4.239 -0.0950  0.8529  0.3774
  449MOL0     C61849   7.173   3.131   4.254  0.5863  0.4363  0.1705
  449MOL0     C61850   7.245   3.243   4.211 -0.2197  0.1832 -0.6119
  449MOL0     C61851   7.389   3.242   4.206 -0.1353 -1.0639  0.6661
  449MOL0     C61852   7.452   3.355   4.147  0.5133 -0.6048 -0.2201
  449MOL0     C61853   7.453   3.131   4.270  0.7386  0.5013 -0.0450
  449MOL0     C61854   7.601   3.127   4.293  0.4453 -1.1996 -0.1924
  449MOL0     O61855   7.664   3.247   4.308  0.5933 -0.7939  0.6249
  449MOL0     C61856   7.798   3.246   4.301  0.3387 -0.0357 -0.1164
  449MOL0     C61857   7.849   3.276   4.171  0.6320 -0.0205  0.3637
  449MOL0     C61858   7.976   3.282   4.152  0.0568 -0.2570 -0.3178
  449MOL0     C61859   8.067   3.259   4.254  0.0384  0.3797  0.6464
  449MOL0     O61860   8.197   3.250   4.234  0.8236 -0.8521  0.4120
  449MOL0     C61861   8.245   3.375   4.192  0.4425  0.0756  0.3884
  449MOL0     C61862   8.372   3.410   4.259 -0.4026  0.1985  0.2520
  449MOL0     C61863   8.485   3.321   4.202  0.2743  0.4915  0.6241
  449MOL0     C61864   8.623   3.369   4.248 -0.1557  0.1141 -0.1682
  449MOL0     C61865   8.729   3.251   4.261 -0.5839 -0.3134  0.6938
  449MOL0     C61866   8.850   3.307   4.326 -0.4285 -0.4682  0.1560
  449MOL0     C61867   8.963   3.201   4.342  0.2461  0.6895  0.2312
  449MOL0     C61868   9.083   3.277   4.403  0.8254 -0.0679  0.1529
  449MOL0    Cl61869   9.216   3.171   4.412 -0.6930  0.0481  0.5936
  449MOL0     C61870   8.018   3.238   4.386  0.0740  0.4298 -0.2060
  449MOL0     C61871   7.884   3.228   4.410  0.4245 -0.5300 -0.1482
  449MOL0     O61872   7.655   3.020   4.306 -0.0207  0.5780 -0.2199
  449MOL0     C61873   7.377   3.039   4.338 -0.1406  0.3224 -0.1562
  449MOL0     C61874   7.238   3.031   4.324 -0.1093 -0.1850 -0.0893
  449MOL0     N61875   6.513   3.392   3.902 -0.5961  0.3880 -0.7901
  449MOL0     N61876   6.392   3.420   3.875 -0.1716  0.3059 -0.1445
  449MOL0     C61877   5.361   3.165   4.541  0.2572 -0.4520  0.3888
  449MOL0     C61878   5.303   3.280   4.601  0.4977  0.0033 -0.1171
  449MOL0     C61879   5.199   3.744   4.581  1.1629 -0.6145  0.3415
  449MOL0     C61880   5.099   3.742   4.681  0.0168  0.0734 -0.4824
  449MOL0     C61881   5.016   3.846   4.699 -0.5661 -0.7025  0.6674
  449MOL0     C61882   5.015   3.966   4.618 -1.0596 -0.7276  0.2802
  449MOL0     O61883   4.930   4.073   4.630  0.7946 -0.7560  0.0935
  449MOL0     C61884   4.887   4.112   4.761  0.4637  0.4726  0.8693
  449MOL0     C61885   4.837   4.252   4.757 -0.0376 -0.1587  0.2996
  449MOL0     C61886   4.718   4.273   4.854  0.9078  0.3150 -0.1158
  449MOL0     C61887   4.652   4.418   4.876  0.4690  0.0261  0.1648
  449MOL0     C61888   4.753   4.514   4.911  0.1356 -1.0008 -0.7758
  449MOL0     C61889   4.834   4.599   4.947 -0.2215  0.0762  1.2554
  449MOL0     C61890   5.119   3.969   4.524  0.0253 -0.2071 -0.0014
  449MOL0     C61891   5.207   3.861   4.502  0.3059 -0.0394  0.5261
  449MOL0     C61892   5.311   3.884   4.391 -0.0036  0.4782  0.6580
  449MOL0     H61893   5.327   3.496   4.345  0.1681 -0.0744  0.4103
  449MOL0     H61894   5.420   3.301   4.235 -2.9230 -1.4273 -0.7092
  449MOL0     H61895   5.594   3.146   4.249 -1.0393 -0.1619  1.2055
  449MOL0     H61896   5.478   3.024   4.179 -3.6681 -0.0181  2.3409
  449MOL0     H61897   5.723   2.957   4.356 -0.0787  0.6179  0.3569
  449MOL0     H61898   5.618   2.835   4.270 -0.5071  0.6756 -2.0046
  449MOL0     H61899   5.796   2.836   4.143 -0.0338 -1.0987 -1.6479
  449MOL0     H61900   5.692   2.940   4.057  1.9046  2.1888 -0.4977
  449MOL0     H61901   5.807   3.128   4.153 -1.3173  0.3116 -3.5854
  449MOL0     H61902   5.941   3.023   4.215 -0.1991 -0.8785 -0.4086
  449MOL0     H61903   5.870   3.076   3.925  0.1402  0.3935  0.5567
  449MOL0     H61904   5.975   2.942   3.976  0.4413 -0.6862  2.0759
  449MOL0     H61905   6.006   3.246   4.032  0.3864  1.4851 -2.5098
  449MOL0     H61906   6.135   3.116   4.061 -0.9533  0.1839  0.4264
  449MOL0     H61907   6.009   3.161   3.796  0.1355 -0.3938 -1.3806
  449MOL0     H61908   6.173   3.104   3.825  2.1589  2.2094  0.3748
  449MOL0     H61909   6.161   3.330   3.738 -0.0665 -1.3017 -0.2370
  449MOL0     H61910   6.099   3.374   3.898 -1.0686  1.8291 -2.0633
  449MOL0     H61911   6.352   3.105   3.960 -0.1410 -1.0479  0.1496
  449MOL0     H61912   6.671   3.149   3.902 -1.8707 -0.2094 -0.8704
  449MOL0     H61913   6.569   3.079   4.027  0.0811 -0.4085 -0.1917
  449MOL0     H61914   6.768   3.319   4.036 -1.4501  0.7870  0.5099
  449MOL0     H61915   6.685   3.260   4.183 -1.3715 -1.0214 -0.3688
  449MOL0     H61916   6.799   3.069   4.199 -0.9477  3.1558  3.2525
  449MOL0     H61917   6.850   3.062   4.034  0.4541 -1.1690  0.9040
  449MOL0     H61918   7.014   3.231   4.070 -1.9044  2.1599 -0.6839
  449MOL0     H61919   6.937   3.292   4.222 -2.6286 -1.1517  0.3545
  449MOL0     H61920   7.189   3.330   4.177 -1.2877 -0.7683 -1.3375
  449MOL0     H61921   7.471   3.441   4.211 -3.8435  0.8531 -0.4899
  449MOL0     H61922   7.388   3.404   4.073  1.9641 -0.1258 -1.2003
  449MOL0     H61923   7.542   3.324   4.093  0.7669 -0.6728  0.2393
  449MOL0     H61924   7.789   3.275   4.081  1.2914 -2.1977 -0.1178
  449MOL0     H61925   8.003   3.315   4.052  0.5028 -0.6923 -0.3447
  449MOL0     H61926   8.242   3.382   4.083 -2.1023  0.6275  0.4277
  449MOL0     H61927   8.180   3.462   4.209  0.4475  0.3141 -0.7492
  449MOL0     H61928   8.394   3.513   4.229 -0.7445  0.7157  1.6988
  449MOL0     H61929   8.369   3.423   4.367 -0.9328  0.7805  0.1738
  449MOL0     H61930   8.478   3.311   4.093  0.5998 -0.6369  0.7021
  449MOL0     H61931   8.463   3.223   4.244  0.2141 -0.0391 -0.5946
  449MOL0     H61932   8.615   3.438   4.332  0.5286  0.3628 -0.3032
  449MOL0     H61933   8.661   3.437   4.172 -2.3992 -0.3927 -1.8427
  449MOL0     H61934   8.678   3.173   4.319 -1.3113 -1.6276 -1.5650
  449MOL0     H61935   8.751   3.223   4.157  1.4067  1.1665  0.6800
  449MOL0     H61936   8.818   3.340   4.426 -1.3510 -1.3482  0.1658
  449MOL0     H61937   8.885   3.394   4.269  0.2129  0.3598  1.7459
  449MOL0     H61938   8.981   3.152   4.247 -0.5152  1.0672 -0.1201
  449MOL0     H61939   8.924   3.138   4.422 -0.4669  3.4040  2.1825
  449MOL0     H61940   9.066   3.324   4.500  2.0864 -2.3610  1.5723
  449MOL0     H61941   9.111   3.354   4.329  1.0953 -2.1349 -2.0135
  449MOL0     H61942   8.084   3.224   4.470 -0.7465 -0.9082  0.2464
  449MOL0     H61943   7.842   3.223   4.510 -0.5956  1.3588 -0.4274
  449MOL0     H61944   7.422   2.961   4.398 -3.7850 -0.2836  2.0659
  449MOL0     H61945   7.182   2.940   4.343  0.2385 -0.5350 -0.6876
  449MOL0     H61946   5.387   3.078   4.601  1.0148 -0.6573 -0.2257
  449MOL0     H61947   5.257   3.262   4.697 -1.1517 -1.5858 -1.1434
  449MOL0     H61948   5.095   3.668   4.760  0.1656  2.0478  1.4587
  449MOL0     H61949   4.945   3.842   4.780 -0.6056  0.2101  0.6882
  449MOL0     H61950   4.808   4.037   4.774  0.5059  0.1462 -0.5703
  449MOL0     H61951   4.970   4.094   4.830 -1.0741 -1.3178  2.3983
  449MOL0     H61952   4.795   4.264   4.657 -1.4178  0.0637  0.8756
  449MOL0     H61953   4.926   4.313   4.775  1.0870 -1.2268 -1.4485
  449MOL0     H61954   4.634   4.210   4.825 -0.0756  0.5008  2.1454
  449MOL0     H61955   4.735   4.215   4.945 -0.0866  0.8257  0.4041
  449MOL0     H61956   4.571   4.409   4.950 -1.4198 -2.9580 -2.0672
  449MOL0     H61957   4.611   4.449   4.780  0.0498  0.0912  0.3630
  449MOL0     H61958   4.899   4.672   4.991 -1.2495  0.8507  1.5457
  449MOL0     H61959   5.117   4.059   4.463 -3.7888  0.2535  0.5662
  449MOL0     H61960   5.355   3.791   4.353  1.4052  0.5462  2.0317
  449MOL0     H61961   5.261   3.933   4.307  0.1381  0.4537  0.5588
  449MOL0     H61962   5.394   3.947   4.423  0.0095  0.5727  0.4419
  450MOL0     O61963   0.576   5.225   9.695  0.1639  0.2263  0.2330
  450MOL0     C61964   0.598   5.346   9.719 -0.1203  1.1230  0.1672
  450MOL0     O61965   0.685   5.424   9.642 -0.2509 -0.2616  0.2525
  450MOL0     C61966   0.782   5.369   9.553  0.4307  0.2172  0.2695
  450MOL0     C61967   0.921   5.398   9.569 -0.1611  0.3833 -0.0071
  450MOL0     C61968   1.013   5.346   9.476  0.6107 -0.2855  0.3712
  450MOL0     C61969   0.972   5.284   9.357  0.5808 -0.5754 -0.5740
  450MOL0     O61970   1.072   5.274   9.262  0.2349  0.5974  0.3505
  450MOL0     C61971   1.049   5.172   9.166 -0.1329  0.5127 -0.4969
  450MOL0     C61972   1.154   5.184   9.049 -0.2564 -0.2889  0.4648
  450MOL0     C61973   1.291   5.147   9.111 -0.0133 -1.6431  0.3034
  450MOL0     C61974   1.406   5.198   9.023  0.3397  0.1218 -0.4772
  450MOL0     C61975   1.439   5.346   9.064  0.1829  0.1129  0.6723
  450MOL0     C61976   1.545   5.410   8.974 -0.5008 -0.7968  0.1615
  450MOL0     C61977   1.611   5.544   9.026  0.8269  0.6678 -0.3780
  450MOL0     C61978   1.702   5.520   9.149 -0.5523  0.9199  0.6385
  450MOL0     N61979   1.733   5.651   9.218 -0.5955  0.4668  0.0046
  450MOL0     C61980   1.829   5.743   9.173  0.0599 -0.3890  0.2046
  450MOL0     C61981   1.849   5.831   9.278 -0.2523 -0.0311 -0.7075
  450MOL0     C61982   1.964   5.929   9.281  0.8240 -0.4795  0.0874
  450MOL0     C61983   1.927   6.051   9.197 -0.0293 -0.8686  1.2973
  450MOL0     C61984   1.990   6.054   9.044  0.1680  1.0502  0.4254
  450MOL0     C61985   2.138   6.086   9.045 -0.5274  0.1410  0.9211
  450MOL0     O61986   2.173   6.114   8.910  0.0075 -0.0080  0.9205
  450MOL0     C61987   2.303   6.140   8.883 -0.1326  0.6194  0.1746
  450MOL0     C61988   2.362   6.068   8.779  0.0547 -0.3238  0.1379
  450MOL0     C61989   2.501   6.092   8.746  0.1540  0.4546 -0.1984
  450MOL0     C61990   2.566   5.998   8.644  0.1590  0.8802 -0.6600
  450MOL0     C61991   2.575   6.193   8.816 -0.1082  0.0933 -0.1774
  450MOL0     C61992   2.722   6.191   8.787  0.7921 -0.2489 -0.2975
  450MOL0     O61993   2.776   6.293   8.717  0.1933  0.2385  0.3956
  450MOL0     C61994   2.910   6.307   8.726  0.1407 -0.2216 -0.1491
  450MOL0     C61995   2.992   6.265   8.618  0.4094  0.4284 -0.0383
  450MOL0     C61996   3.131   6.281   8.619 -0.0581  1.0352  0.4316
  450MOL0     C61997   3.192   6.339   8.730  0.5986 -0.2564 -0.0162
  450MOL0     O61998   3.331   6.317   8.718 -0.4895  0.5216  0.2019
  450MOL0     C61999   3.410   6.393   8.812  0.8077 -0.0349 -0.4245
  450MOL0     C62000   3.561   6.366   8.784  1.1777  0.0666 -0.1016
  450MOL0     C62001   3.646   6.466   8.856  0.0760 -0.0562  0.0796
  450MOL0     C62002   3.788   6.475   8.809 -0.1645  0.3280 -0.1967
  450MOL0     C62003   3.852   6.340   8.810  0.0174 -0.5810  0.1546
  450MOL0     C62004   3.998   6.346   8.748 -0.4900  0.3891 -0.4718
  450MOL0     C62005   4.066   6.209   8.765 -0.0815  0.2693 -0.2349
  450MOL0     C62006   4.170   6.185   8.658  0.2375  0.6374  0.0281
  450MOL0    Cl62007   4.274   6.044   8.699  0.2411 -0.0034  0.0513
  450MOL0     C62008   3.114   6.392   8.837  0.2071 -0.3571  0.3981
  450MOL0     C62009   2.976   6.371   8.836 -0.4355  0.1380 -0.0765
  450MOL0     O62010   2.783   6.087   8.822 -0.6922  0.4475  0.0001
  450MOL0     C62011   2.520   6.261   8.920 -0.0186  0.1204 -0.5239
  450MOL0     C62012   2.382   6.233   8.954  0.4045 -0.5224 -0.3098
  450MOL0     N62013   1.767   5.795   9.381 -0.2058  0.1958 -0.3874
  450MOL0     N62014   1.696   5.691   9.342  0.2156  0.5117  0.1646
  450MOL0     C62015   0.830   5.248   9.347 -0.0395  0.3235  0.6087
  450MOL0     C62016   0.739   5.289   9.440 -0.2733  0.3210 -0.9385
  450MOL0     C62017   0.509   5.402   9.820  0.2416  0.6275  0.6231
  450MOL0     C62018   0.467   5.321   9.930  0.5123 -0.0373 -0.5875
  450MOL0     C62019   0.379   5.383  10.026  0.6810  0.5741 -0.0725
  450MOL0     C62020   0.324   5.509  10.017  1.2031  0.4033  1.1076
  450MOL0     O62021   0.243   5.552  10.116  0.4592  0.5543 -0.6365
  450MOL0     C62022   0.176   5.678  10.114  0.7736  0.3576 -0.9337
  450MOL0     C62023   0.076   5.700  10.230 -0.0616  0.9432 -0.0170
  450MOL0     C62024  -0.031   5.806  10.194 -1.1641  0.0911 -0.3718
  450MOL0     C62025  -0.126   5.837  10.304  1.2017 -0.0829 -0.3690
  450MOL0     C62026  -0.193   5.702  10.344  0.6252  0.4365  0.0482
  450MOL0     C62027  -0.253   5.601  10.379  0.0901 -1.1045 -0.2692
  450MOL0     C62028   0.365   5.582   9.906  0.0510 -0.6064  0.0240
  450MOL0     C62029   0.457   5.534   9.809  0.4882 -0.7256 -0.3590
  450MOL0     C62030   0.480   5.630   9.700  1.5473 -0.6005 -0.6631
  450MOL0     H62031   0.946   5.464   9.651  0.5154  0.2016 -0.0555
  450MOL0     H62032   1.113   5.383   9.495 -0.6603  3.0954  1.2375
  450MOL0     H62033   0.949   5.182   9.123 -0.4206 -1.9503 -0.5780
  450MOL0     H62034   1.046   5.070   9.204  2.4317  0.4800 -0.2107
  450MOL0     H62035   1.117   5.110   8.977 -2.1446  0.8639  0.1760
  450MOL0     H62036   1.155   5.286   9.009  3.8845 -0.6005 -0.6164
  450MOL0     H62037   1.302   5.184   9.213 -1.4232 -0.3611  0.0163
  450MOL0     H62038   1.301   5.038   9.110 -1.9257 -1.8410 -0.0415
  450MOL0     H62039   1.492   5.131   9.036  0.0544 -0.3536 -1.0123
  450MOL0     H62040   1.376   5.193   8.918 -0.4801 -0.4834 -0.2189
  450MOL0     H62041   1.470   5.348   9.169 -3.4009 -1.1449  1.9202
  450MOL0     H62042   1.351   5.409   9.051  0.5171  0.9274  2.1478
  450MOL0     H62043   1.620   5.330   8.975 -0.5888 -0.8990  2.0238
  450MOL0     H62044   1.500   5.431   8.876 -2.8124  3.8638  1.9536
  450MOL0     H62045   1.538   5.619   9.058  0.6408  0.1972  0.3430
  450MOL0     H62046   1.674   5.593   8.952 -0.1847  0.4708 -1.3962
  450MOL0     H62047   1.648   5.458   9.222  0.6893 -1.6310 -0.5054
  450MOL0     H62048   1.794   5.472   9.116 -1.8046 -0.6434 -0.7492
  450MOL0     H62049   1.890   5.739   9.084  1.9307 -2.1059  1.4785
  450MOL0     H62050   2.058   5.884   9.247  1.0212 -2.1893  2.6006
  450MOL0     H62051   1.984   5.965   9.383  1.7990  2.0213 -0.9082
  450MOL0     H62052   1.819   6.071   9.194  0.2496  1.2937  3.0560
  450MOL0     H62053   1.963   6.142   9.246  1.0845  0.0872 -1.1088
  450MOL0     H62054   1.960   5.964   8.990  1.9795  0.7268 -0.1194
  450MOL0     H62055   1.943   6.134   8.987  1.7538  1.7625  0.0527
  450MOL0     H62056   2.166   6.170   9.109 -1.5726  0.2967  1.1996
  450MOL0     H62057   2.193   5.999   9.084  1.8160  2.0299  2.1099
  450MOL0     H62058   2.297   5.994   8.732 -1.8997  0.5901  1.2805
  450MOL0     H62059   2.645   6.042   8.582  1.0945  1.1600  0.6962
  450MOL0     H62060   2.484   5.969   8.577 -1.1643  2.0086  0.4177
  450MOL0     H62061   2.609   5.912   8.696  1.7203  0.1572 -2.9713
  450MOL0     H62062   2.941   6.203   8.545  1.0592 -1.0041  0.6869
  450MOL0     H62063   3.187   6.243   8.534  1.5218  0.8989  1.4771
  450MOL0     H62064   3.394   6.501   8.815 -4.7688 -0.5620 -0.4052
  450MOL0     H62065   3.382   6.355   8.911  2.4064 -0.7179 -0.1982
  450MOL0     H62066   3.588   6.266   8.818 -0.1035  0.3967  2.0575
  450MOL0     H62067   3.584   6.374   8.677  1.3014  2.8999  0.0641
  450MOL0     H62068   3.667   6.441   8.960  2.1230  3.7366  0.7646
  450MOL0     H62069   3.606   6.567   8.838  0.6844 -0.0148 -1.1765
  450MOL0     H62070   3.847   6.545   8.869 -1.2225  0.9252  0.1708
  450MOL0     H62071   3.791   6.506   8.704 -2.5127  0.1676 -0.3677
  450MOL0     H62072   3.865   6.298   8.910  1.4438 -2.5017 -0.7697
  450MOL0     H62073   3.792   6.273   8.748 -1.3580  0.4256  0.3444
  450MOL0     H62074   4.058   6.429   8.787  0.5522  1.3215 -3.7557
  450MOL0     H62075   3.979   6.358   8.641  1.6598 -0.3039 -0.9773
  450MOL0     H62076   3.996   6.126   8.773 -0.5452  0.4629 -1.8511
  450MOL0     H62077   4.114   6.221   8.862 -0.3539 -0.7311  0.0316
  450MOL0     H62078   4.232   6.275   8.648  1.1348 -0.0415 -0.6126
  450MOL0     H62079   4.123   6.177   8.560  1.9871 -0.4916 -0.7859
  450MOL0     H62080   3.172   6.455   8.904 -0.7782 -1.9705  2.8933
  450MOL0     H62081   2.915   6.421   8.910 -0.9946 -1.1001  0.3428
  450MOL0     H62082   2.585   6.322   8.981 -1.9342 -0.1611  1.9595
  450MOL0     H62083   2.330   6.289   9.031  1.5623  0.2409 -0.0432
  450MOL0     H62084   0.784   5.194   9.265  1.6622 -2.9773  1.6603
  450MOL0     H62085   0.631   5.278   9.428 -0.3947 -1.0192  0.8850
  450MOL0     H62086   0.515   5.224   9.938  1.8681  0.1082 -4.5301
  450MOL0     H62087   0.345   5.332  10.115 -0.7383  0.9578 -0.3680
  450MOL0     H62088   0.237   5.767  10.101  1.5765 -0.0601 -0.1072
  450MOL0     H62089   0.107   5.680  10.028  3.7144  0.5315 -3.4635
  450MOL0     H62090   0.124   5.716  10.327  1.4787  2.4223 -0.9787
  450MOL0     H62091   0.022   5.605  10.243 -0.1887  0.7847 -1.5896
  450MOL0     H62092   0.022   5.898  10.167 -2.0995  0.4989 -0.8584
  450MOL0     H62093  -0.082   5.762  10.108  3.4365 -0.6760 -3.0383
  450MOL0     H62094  -0.197   5.910  10.266  3.1096  1.3244 -1.3831
  450MOL0     H62095  -0.086   5.888  10.392 -1.0338  0.1106  0.6205
  450MOL0     H62096  -0.317   5.523  10.414  1.4391 -1.7372  0.9080
  450MOL0     H62097   0.329   5.685   9.908 -2.5846 -1.4491  1.6321
  450MOL0     H62098   0.563   5.695   9.728  1.6428 -1.5403  1.4250
  450MOL0     H62099   0.507   5.579   9.607  1.1208 -0.8799 -0.6371
  450MOL0     H62100   0.393   5.694   9.685  0.2637 -2.1832 -0.2689
  451MOL0     O62101   3.663  10.788   1.110 -0.6046  0.2482  0.6441
  451MOL0     C62102   3.605  10.844   1.023  0.7580  0.0809 -0.0703
  451MOL0     O62103   3.663  10.947   0.945  0.3109  0.0730 -0.4214
  451MOL0     C62104   3.777  11.010   0.997  0.2467  0.2483 -0.6725
  451MOL0     C62105   3.901  10.959   0.965 -0.5981 -0.1020  0.2370
  451MOL0     C62106   4.020  11.026   1.004  0.7066  0.4611 -0.8089
  451MOL0     C62107   4.012  11.141   1.088  0.0439 -0.3453  0.8179
  451MOL0     O62108   4.130  11.177   1.147 -0.0339 -0.5958 -0.6048
  451MOL0     C62109   4.137  11.278   1.243 -0.8384 -0.3681  0.4726
  451MOL0     C62110   4.233  11.389   1.196  0.0681 -0.1131  0.5046
  451MOL0     C62111   4.205  11.453   1.054  0.7319 -0.3973  0.6650
  451MOL0     C62112   4.084  11.540   1.048  0.1318  0.2205  0.4056
  451MOL0     C62113   4.001  11.517   0.915 -0.8615 -0.0674 -0.5348
  451MOL0     C62114   3.917  11.632   0.872 -0.0776 -0.5001  0.3002
  451MOL0     C62115   3.782  11.637   0.944  0.2792 -0.2239 -0.4474
  451MOL0     C62116   3.734  11.782   0.931 -0.1956  0.7819 -0.4587
  451MOL0     N62117   3.694  11.810   0.787 -0.6403 -0.5047 -0.0455
  451MOL0     C62118   3.762  11.858   0.685 -0.2698 -0.1422 -0.6556
  451MOL0     C62119   3.678  11.854   0.578  0.2508 -0.4605  1.0947
  451MOL0     C62120   3.713  11.905   0.436 -0.0720  0.1106  0.1986
  451MOL0     C62121   3.674  11.788   0.342 -0.2309  0.2164  0.1341
  451MOL0     C62122   3.676  11.839   0.191  0.1653  0.5098 -0.5183
  451MOL0     C62123   3.673  11.730   0.084 -0.1105 -0.0328 -1.0496
  451MOL0     O62124   3.688  11.780  -0.042  0.2452 -0.4382  1.1784
  451MOL0     C62125   3.812  11.812  -0.096  0.1121  0.2461  0.9504
  451MOL0     C62126   3.819  11.834  -0.233 -0.3364 -0.3489  0.1947
  451MOL0     C62127   3.935  11.893  -0.292  0.3038  0.0849  0.1711
  451MOL0     C62128   3.926  11.930  -0.441  0.2516 -0.1752  0.4712
  451MOL0     C62129   4.055  11.917  -0.209  1.1662 -0.5248  1.0480
  451MOL0     C62130   4.175  11.976  -0.261  0.1250 -0.0775 -0.1879
  451MOL0     O62131   4.245  12.054  -0.180  0.2420 -0.2537 -1.0292
  451MOL0     C62132   4.378  12.087  -0.202  0.4833 -0.4648  0.2100
  451MOL0     C62133   4.413  12.208  -0.269  0.3308 -0.1740 -0.0461
  451MOL0     C62134   4.547  12.239  -0.294 -0.5195  0.3813 -0.0538
  451MOL0     C62135   4.652  12.151  -0.271  0.0357 -0.3898  0.2211
  451MOL0     O62136   4.772  12.182  -0.322 -0.0663 -1.2285  0.7325
  451MOL0     C62137   4.894  12.119  -0.277 -0.2528  0.6827  0.2359
  451MOL0     C62138   5.017  12.210  -0.299  0.3097  0.7256 -0.4709
  451MOL0     C62139   5.059  12.210  -0.442  0.2424 -0.4979 -0.0116
  451MOL0     C62140   5.174  12.307  -0.466 -0.6417 -0.4669  0.0601
  451MOL0     C62141   5.227  12.305  -0.605 -0.2611  0.5681 -0.0364
  451MOL0     C62142   5.308  12.177  -0.645  0.5150  0.8527 -0.3312
  451MOL0     C62143   5.381  12.189  -0.782 -0.4017  0.0828  0.0152
  451MOL0     C62144   5.416  12.040  -0.827 -0.5924 -1.0395 -0.6333
  451MOL0    Cl62145   5.551  11.985  -0.710  0.0538  0.3572  0.1582
  451MOL0     C62146   4.621  12.035  -0.201  0.5515 -0.5506 -0.1173
  451MOL0     C62147   4.482  12.007  -0.162 -0.7057  0.1433 -0.5533
  451MOL0     O62148   4.204  11.956  -0.380  0.1769 -0.2452  0.0569
  451MOL0     C62149   4.041  11.887  -0.069 -0.3139 -0.6982 -1.1397
  451MOL0     C62150   3.921  11.841  -0.012  0.2426  0.2476  0.6082
  451MOL0     N62151   3.555  11.815   0.621  0.1931  0.2480 -0.4260
  451MOL0     N62152   3.567  11.780   0.745 -0.5765 -0.6705  0.1389
  451MOL0     C62153   3.883  11.186   1.125  0.0923 -0.5196  0.7284
  451MOL0     C62154   3.766  11.124   1.073 -0.1658 -1.0224 -0.3550
  451MOL0     C62155   3.468  10.789   0.979 -0.2235 -0.0722 -0.5486
  451MOL0     C62156   3.442  10.653   0.995 -0.2388 -0.1542 -0.0694
  451MOL0     C62157   3.320  10.601   0.946  0.0603 -0.6914 -0.1755
  451MOL0     C62158   3.221  10.681   0.888 -0.0504 -0.5814 -0.4598
  451MOL0     O62159   3.105  10.612   0.847 -0.7002 -0.8354 -0.6695
  451MOL0     C62160   3.004  10.679   0.765  0.5091  0.8501  0.0592
  451MOL0     C62161   2.908  10.764   0.862 -0.3049  0.1430  0.1140
  451MOL0     C62162   2.874  10.698   0.997 -0.0533 -0.3007 -0.4311
  451MOL0     C62163   2.772  10.591   0.965 -0.0714  0.5662  0.1681
  451MOL0     C62164   2.645  10.648   0.920 -0.5243 -0.3951 -0.1625
  451MOL0     C62165   2.548  10.708   0.882  0.8069 -1.0398 -0.0378
  451MOL0     C62166   3.255  10.812   0.866 -0.2276 -0.4623 -0.3015
  451MOL0     C62167   3.372  10.874   0.909 -0.8929  0.8615  0.1528
  451MOL0     C62168   3.380  11.020   0.891  0.2508  0.3604 -0.7987
  451MOL0     H62169   3.909  10.867   0.908  0.7438 -0.3618  0.8143
  451MOL0     H62170   4.120  10.992   0.979  1.1050 -0.5459  1.8697
  451MOL0     H62171   4.177  11.233   1.334 -0.4953 -0.8427  0.0948
  451MOL0     H62172   4.042  11.322   1.276  0.0870  1.0039  1.4517
  451MOL0     H62173   4.234  11.470   1.269  3.7037 -1.2889  2.0091
  451MOL0     H62174   4.337  11.354   1.198  0.5769  1.3118  0.1077
  451MOL0     H62175   4.297  11.495   1.012  0.4854  2.3139  2.6188
  451MOL0     H62176   4.188  11.370   0.984 -0.1001 -0.4040  0.8689
  451MOL0     H62177   4.014  11.509   1.126  0.2451  2.2342  1.3597
  451MOL0     H62178   4.108  11.646   1.063 -0.5957  0.5559 -0.6712
  451MOL0     H62179   3.930  11.435   0.929 -1.8608  0.0431 -4.0532
  451MOL0     H62180   4.069  11.492   0.833 -2.0816 -1.1950 -1.2459
  451MOL0     H62181   3.980  11.719   0.894 -0.9974 -0.3831  2.8760
  451MOL0     H62182   3.894  11.631   0.765 -2.6045  0.7854  0.7494
  451MOL0     H62183   3.787  11.606   1.048  3.3741  2.4813  0.3635
  451MOL0     H62184   3.705  11.573   0.900  0.1472 -1.8695  2.0022
  451MOL0     H62185   3.642  11.803   0.985 -0.6338 -2.0342  0.0209
  451MOL0     H62186   3.809  11.856   0.959 -0.3375  1.5144 -1.8945
  451MOL0     H62187   3.866  11.888   0.686  0.5663 -2.7695  0.3593
  451MOL0     H62188   3.821  11.919   0.429 -0.1686  0.4961 -0.7027
  451MOL0     H62189   3.664  12.001   0.420  2.4928  1.8058  1.9158
  451MOL0     H62190   3.743  11.706   0.363 -0.7939 -0.3068 -0.0326
  451MOL0     H62191   3.573  11.751   0.358 -1.5589  1.7076 -3.6391
  451MOL0     H62192   3.589  11.905   0.183 -2.8174 -3.0356 -0.0815
  451MOL0     H62193   3.766  11.898   0.177 -0.6905  1.2687 -3.8990
  451MOL0     H62194   3.747  11.653   0.106  0.5204  0.6443 -0.7311
  451MOL0     H62195   3.578  11.679   0.098  0.5629 -1.0967 -0.0873
  451MOL0     H62196   3.730  11.823  -0.294 -0.6946  2.1057  0.1697
  451MOL0     H62197   3.953  12.035  -0.455 -0.4698 -0.0501 -0.0493
  451MOL0     H62198   3.825  11.920  -0.482 -0.6023 -0.2050  2.4788
  451MOL0     H62199   3.991  11.860  -0.494  0.1385  0.6420 -0.7765
  451MOL0     H62200   4.344  12.277  -0.315  2.0500  0.4718 -1.8144
  451MOL0     H62201   4.586  12.334  -0.330  0.2858  1.3336  3.0509
  451MOL0     H62202   4.884  12.114  -0.168  0.6666 -0.2490  0.3005
  451MOL0     H62203   4.908  12.019  -0.320  2.1208  1.0085  0.1181
  451MOL0     H62204   4.989  12.312  -0.269 -0.6046  0.4498 -0.3498
  451MOL0     H62205   5.089  12.176  -0.224 -2.0136  1.7874  2.4958
  451MOL0     H62206   4.979  12.247  -0.506  1.1578  0.9409 -0.3637
  451MOL0     H62207   5.092  12.108  -0.467  1.1557 -0.4438  0.8978
  451MOL0     H62208   5.254  12.282  -0.395  0.0860 -3.2458 -1.6072
  451MOL0     H62209   5.133  12.407  -0.448 -0.4120 -0.5717  1.2453
  451MOL0     H62210   5.142  12.332  -0.668 -0.5942  1.7712  0.8970
  451MOL0     H62211   5.295  12.390  -0.619 -1.7457  2.6308  3.8344
  451MOL0     H62212   5.238  12.095  -0.663 -0.2307  1.5908 -0.8465
  451MOL0     H62213   5.382  12.152  -0.568 -0.7793  0.1337  0.7100
  451MOL0     H62214   5.473  12.247  -0.773 -0.8955  1.4420 -2.7841
  451MOL0     H62215   5.326  12.238  -0.863 -0.9204  0.1746  0.4133
  451MOL0     H62216   5.444  12.037  -0.933 -2.7979  3.6110 -1.6321
  451MOL0     H62217   5.333  11.973  -0.803 -2.0754  1.3232  1.3391
  451MOL0     H62218   4.702  11.970  -0.168  0.4236 -2.3720 -2.9697
  451MOL0     H62219   4.466  11.917  -0.103  2.4038 -0.4429 -0.4202
  451MOL0     H62220   4.121  11.900   0.003 -1.6538 -1.1778  0.5009
  451MOL0     H62221   3.918  11.811   0.092 -0.4878 -1.6553  0.0712
  451MOL0     H62222   3.879  11.271   1.193  1.9851 -0.6320  1.0469
  451MOL0     H62223   3.670  11.162   1.106  1.5947  0.7031  3.3493
  451MOL0     H62224   3.514  10.602   1.058  1.2963  0.1628 -1.5018
  451MOL0     H62225   3.310  10.494   0.961  1.7125 -0.9320 -0.5937
  451MOL0     H62226   3.038  10.747   0.686 -1.2495 -1.6000 -3.0243
  451MOL0     H62227   2.955  10.599   0.708  0.1870  4.2036 -5.0744
  451MOL0     H62228   2.817  10.796   0.811 -2.2796 -2.2364  1.9118
  451MOL0     H62229   2.962  10.856   0.887  2.0507 -0.8538 -0.9856
  451MOL0     H62230   2.964  10.649   1.036  0.9351  2.0352  0.4425
  451MOL0     H62231   2.833  10.772   1.066  1.1167 -0.2146  0.2024
  451MOL0     H62232   2.759  10.542   1.062 -1.1058  1.8584  0.7097
  451MOL0     H62233   2.804  10.511   0.897 -0.7459  0.7197 -0.3409
  451MOL0     H62234   2.474  10.773   0.839  2.7523  1.5516  0.2620
  451MOL0     H62235   3.181  10.885   0.835 -0.9030 -1.2923 -0.7002
  451MOL0     H62236   3.436  11.053   0.804  3.1298  1.4626  1.3162
  451MOL0     H62237   3.286  11.076   0.902  1.1274  1.7392  0.0223
  451MOL0     H62238   3.437  11.067   0.972  1.2674  0.8535 -1.7676
  452MOL0     O62239   4.149   2.898   0.229  0.4549  0.3517 -0.5222
  452MOL0     C62240   4.146   3.021   0.232  0.3836  0.5545 -0.0306
  452MOL0     O62241   4.254   3.093   0.258  0.0828  0.2660  0.0209
  452MOL0     C62242   4.377   3.032   0.278 -0.2275  0.9100 -0.7019
  452MOL0     C62243   4.473   3.017   0.172  0.6720  0.4443  0.1187
  452MOL0     C62244   4.591   2.945   0.190 -0.5790 -0.0523 -0.0316
  452MOL0     C62245   4.620   2.884   0.304 -0.1180 -0.7194 -0.1423
  452MOL0     O62246   4.730   2.807   0.322  0.3105  0.1194 -0.2132
  452MOL0     C62247   4.824   2.787   0.214  0.4137  0.7541 -0.3505
  452MOL0     C62248   4.785   2.682   0.109  0.6219 -0.2950 -0.8078
  452MOL0     C62249   4.909   2.668   0.025 -0.8951  0.2047  0.6324
  452MOL0     C62250   4.900   2.538  -0.060  0.0640 -0.0056  0.1955
  452MOL0     C62251   5.032   2.509  -0.134 -0.1762  0.4089 -0.1856
  452MOL0     C62252   5.025   2.374  -0.205 -0.4059 -0.4883  0.5703
  452MOL0     C62253   5.159   2.333  -0.269 -0.2672 -0.3933 -0.0428
  452MOL0     C62254   5.196   2.411  -0.393 -0.2982 -0.3338 -0.0812
  452MOL0     N62255   5.299   2.344  -0.476 -0.1489 -0.5153  0.2111
  452MOL0     C62256   5.437   2.352  -0.447  1.1211 -0.1956 -0.2289
  452MOL0     C62257   5.497   2.269  -0.531 -0.1338  0.3461  0.0872
  452MOL0     C62258   5.644   2.228  -0.550  0.4586  1.3229 -0.3508
  452MOL0     C62259   5.700   2.161  -0.427 -0.4661 -0.0166  0.2961
  452MOL0     C62260   5.649   2.017  -0.413 -0.7376  0.7616  0.0275
  452MOL0     C62261   5.753   1.940  -0.331  0.4869  0.2577 -0.1757
  452MOL0     O62262   5.883   1.956  -0.390 -0.3347  0.7431  0.6733
  452MOL0     C62263   5.982   1.877  -0.337 -0.1551 -0.4125  0.1375
  452MOL0     C62264   5.966   1.782  -0.232 -0.3106 -1.1652 -0.7751
  452MOL0     C62265   6.076   1.708  -0.176  0.4713 -0.2495  0.6557
  452MOL0     C62266   6.060   1.605  -0.062  0.8785  0.5291 -0.6012
  452MOL0     C62267   6.203   1.733  -0.233 -0.0067  0.3963 -1.0851
  452MOL0     C62268   6.326   1.669  -0.179  0.5860  0.4941 -0.9044
  452MOL0     O62269   6.422   1.635  -0.266  1.3914  0.2074  0.2379
  452MOL0     C62270   6.534   1.570  -0.229  0.8395  0.5040 -0.3725
  452MOL0     C62271   6.563   1.455  -0.298  0.5711 -0.4784  0.3587
  452MOL0     C62272   6.677   1.376  -0.273 -0.2165 -0.5615  0.3459
  452MOL0     C62273   6.764   1.406  -0.170 -0.0427 -0.3750  0.0913
  452MOL0     O62274   6.873   1.344  -0.126 -0.0694  0.1105  0.0474
  452MOL0     C62275   6.929   1.260  -0.220 -0.0393  0.1805  0.5317
  452MOL0     C62276   7.061   1.214  -0.159  0.3655 -0.2303  1.0873
  452MOL0     C62277   7.135   1.114  -0.252  0.1524 -0.3169  0.4410
  452MOL0     C62278   7.278   1.093  -0.202  0.1078 -0.0222 -0.1392
  452MOL0     C62279   7.360   0.992  -0.289  0.0768 -0.2114 -0.8557
  452MOL0     C62280   7.497   0.969  -0.232 -0.9602  0.3580  0.0132
  452MOL0     C62281   7.586   1.093  -0.232  0.0369 -0.0076  0.3350
  452MOL0     C62282   7.717   1.064  -0.157  0.2825  0.3328 -0.6119
  452MOL0    Cl62283   7.702   1.062   0.026  0.3924 -0.1677 -0.2129
  452MOL0     C62284   6.737   1.522  -0.096  0.7205 -0.5058 -0.2362
  452MOL0     C62285   6.623   1.599  -0.124 -0.0496  0.0573  0.1308
  452MOL0     O62286   6.342   1.651  -0.056 -0.5011  0.1192 -0.2154
  452MOL0     C62287   6.224   1.828  -0.330  0.8925  0.1531 -0.4648
  452MOL0     C62288   6.121   1.894  -0.382  0.7660  0.8604  0.4503
  452MOL0     N62289   5.405   2.222  -0.628  0.3268 -0.1229 -0.3616
  452MOL0     N62290   5.287   2.265  -0.592  0.3432  1.1364 -0.0615
  452MOL0     C62291   4.531   2.894   0.407 -0.3555 -0.4216 -0.3490
  452MOL0     C62292   4.414   2.966   0.404  0.5686  0.1005 -0.6759
  452MOL0     C62293   4.010   3.101   0.226 -0.4989  0.3805 -0.1290
  452MOL0     C62294   3.892   3.033   0.243  0.1739  0.7456  0.9206
  452MOL0     C62295   3.764   3.093   0.238  0.0432  0.0945 -0.9886
  452MOL0     C62296   3.747   3.223   0.205  0.6534 -0.6320 -0.3374
  452MOL0     O62297   3.625   3.276   0.180 -0.0993 -0.0311  0.3956
  452MOL0     C62298   3.621   3.413   0.139  0.3520 -1.4025  0.4714
  452MOL0     C62299   3.477   3.452   0.092  0.5432  0.3372 -0.6052
  452MOL0     C62300   3.453   3.598   0.094 -0.2589  0.3397 -0.2710
  452MOL0     C62301   3.538   3.675  -0.005 -0.2958 -0.6917 -0.3130
  452MOL0     C62302   3.658   3.736   0.055 -0.3021  0.8359  0.5178
  452MOL0     C62303   3.765   3.781   0.105  1.3880  0.1549  0.0474
  452MOL0     C62304   3.864   3.298   0.206  0.1716  0.7017 -0.0300
  452MOL0     C62305   3.992   3.240   0.213 -0.4686 -0.2194  0.4466
  452MOL0     C62306   4.119   3.334   0.231 -0.5723  0.3569  0.2150
  452MOL0     H62307   4.441   3.060   0.078 -2.2275  2.3414  1.8167
  452MOL0     H62308   4.653   2.942   0.101  2.1493  0.4515  1.7523
  452MOL0     H62309   4.910   2.743   0.266 -1.0834  1.5060  3.0324
  452MOL0     H62310   4.854   2.880   0.165  0.0785  0.3120 -1.4425
  452MOL0     H62311   4.752   2.589   0.156  2.6611 -0.1679  1.0211
  452MOL0     H62312   4.700   2.725   0.055  1.0765 -1.7068 -2.7311
  452MOL0     H62313   4.925   2.751  -0.044  0.1578  0.0048  0.6247
  452MOL0     H62314   5.002   2.668   0.081  0.2754  0.6998 -1.2222
  452MOL0     H62315   4.890   2.454   0.009 -1.9557 -0.6139 -0.7454
  452MOL0     H62316   4.818   2.540  -0.132 -0.5287  1.5903  0.8665
  452MOL0     H62317   5.106   2.502  -0.054 -0.9557  0.1603  0.5312
  452MOL0     H62318   5.057   2.594  -0.198 -0.2992  1.7405  1.4687
  452MOL0     H62319   4.975   2.293  -0.151 -3.5042  0.4903 -0.6349
  452MOL0     H62320   4.957   2.384  -0.290  2.0736 -0.4308 -1.5156
  452MOL0     H62321   5.147   2.226  -0.289 -1.9443 -0.3596  0.6255
  452MOL0     H62322   5.230   2.345  -0.187 -1.2140 -1.8043  1.0368
  452MOL0     H62323   5.103   2.432  -0.448 -1.1274  1.8831  1.9951
  452MOL0     H62324   5.236   2.509  -0.367  0.5707  0.1808 -3.0356
  452MOL0     H62325   5.488   2.414  -0.375  0.7268 -0.3802  0.2120
  452MOL0     H62326   5.699   2.322  -0.558 -0.6109  2.1015  0.9958
  452MOL0     H62327   5.652   2.174  -0.645 -1.3328 -0.8465  0.6361
  452MOL0     H62328   5.809   2.171  -0.428  0.0536 -3.8740 -2.1832
  452MOL0     H62329   5.657   2.207  -0.337 -0.1464  0.5115  0.1804
  452MOL0     H62330   5.559   2.025  -0.351  0.0545  2.9782  0.9967
  452MOL0     H62331   5.636   1.980  -0.516 -0.3634 -0.0384  0.2687
  452MOL0     H62332   5.762   1.965  -0.225  3.1555  0.1592 -0.3188
  452MOL0     H62333   5.716   1.837  -0.324  2.5375 -0.4286  2.0614
  452MOL0     H62334   5.865   1.762  -0.197 -0.1110 -0.8906 -0.0257
  452MOL0     H62335   6.094   1.507  -0.098 -0.3470 -0.1438  0.0085
  452MOL0     H62336   5.954   1.593  -0.037  0.3964  1.7746 -1.8933
  452MOL0     H62337   6.122   1.639   0.022  1.9913  4.8747 -2.8833
  452MOL0     H62338   6.505   1.433  -0.387 -0.7840 -1.7982  1.5147
  452MOL0     H62339   6.697   1.294  -0.342  0.6745 -1.3455  1.4987
  452MOL0     H62340   6.865   1.178  -0.255  1.0166  0.0873 -1.3365
  452MOL0     H62341   6.950   1.315  -0.312 -1.8238 -1.5494 -1.0337
  452MOL0     H62342   7.128   1.296  -0.130 -0.3734 -0.2789  3.0602
  452MOL0     H62343   7.044   1.164  -0.063  0.5000 -0.4612  0.9929
  452MOL0     H62344   7.134   1.140  -0.358  2.8097  2.9257  1.0280
  452MOL0     H62345   7.090   1.015  -0.246 -1.5349  0.0551 -3.3511
  452MOL0     H62346   7.276   1.064  -0.096  0.1060  0.7524  0.0781
  452MOL0     H62347   7.328   1.189  -0.217 -1.0791  0.3307 -2.2468
  452MOL0     H62348   7.299   0.901  -0.296 -1.6100  0.8344 -0.2528
  452MOL0     H62349   7.385   1.025  -0.390 -0.2482  1.2683 -0.4676
  452MOL0     H62350   7.542   0.883  -0.283  0.5475  0.2769  1.3801
  452MOL0     H62351   7.481   0.938  -0.128 -1.5156  0.3309 -0.0815
  452MOL0     H62352   7.536   1.180  -0.188 -2.4119 -0.8629 -0.6169
  452MOL0     H62353   7.613   1.114  -0.336  0.4800 -2.2443 -0.0335
  452MOL0     H62354   7.793   1.137  -0.188 -0.3678  2.2971  2.0476
  452MOL0     H62355   7.752   0.964  -0.186 -0.2588 -1.1099  3.1721
  452MOL0     H62356   6.801   1.536  -0.009 -0.6981  2.5609  0.4482
  452MOL0     H62357   6.590   1.679  -0.057 -1.2379 -0.7130  0.4945
  452MOL0     H62358   6.322   1.850  -0.371  1.7820 -0.2593  1.3399
  452MOL0     H62359   6.139   1.969  -0.459 -3.0266 -1.9416 -3.6766
  452MOL0     H62360   4.546   2.838   0.499  1.0691 -0.8212 -0.8053
  452MOL0     H62361   4.351   2.968   0.493  0.7904 -1.0442 -0.4711
  452MOL0     H62362   3.898   2.925   0.258  0.5105  1.1129  3.9308
  452MOL0     H62363   3.670   3.043   0.261 -1.1236  2.8323  0.7673
  452MOL0     H62364   3.642   3.480   0.223  0.7335  0.2436 -0.8695
  452MOL0     H62365   3.685   3.428   0.051 -1.0481 -0.0369 -0.3726
  452MOL0     H62366   3.399   3.409   0.155  3.0321 -0.1166  2.3702
  452MOL0     H62367   3.472   3.398  -0.003  1.7254 -2.7030  0.9132
  452MOL0     H62368   3.347   3.616   0.071  0.2672  0.9148 -2.4479
  452MOL0     H62369   3.466   3.633   0.197  0.2592  1.8065 -0.8056
  452MOL0     H62370   3.480   3.762  -0.039 -2.1324 -3.0392 -3.8014
  452MOL0     H62371   3.544   3.606  -0.090 -1.7945 -0.9598 -0.2427
  452MOL0     H62372   3.858   3.819   0.141  2.6663 -0.2122 -2.6227
  452MOL0     H62373   3.868   3.407   0.209  1.2258  0.6890 -0.4684
  452MOL0     H62374   4.082   3.433   0.206  0.4096  0.2175 -2.0149
  452MOL0     H62375   4.155   3.321   0.334  0.5372  0.7987 -0.1099
  452MOL0     H62376   4.200   3.331   0.157  0.1753 -3.9025  0.9107
  453MOL0     O62377  10.012   7.720   9.322 -0.5756  0.0712  0.0330
  453MOL0     C62378   9.951   7.697   9.226  0.5691 -0.4471  0.4500
  453MOL0     O62379   9.989   7.637   9.113 -1.3825 -0.0600  0.5912
  453MOL0     C62380  10.117   7.597   9.102 -0.3824  0.4290 -0.9674
  453MOL0     C62381  10.207   7.695   9.068  0.3328  0.7790 -0.1246
  453MOL0     C62382  10.340   7.676   9.038 -0.1419 -0.7558 -0.0613
  453MOL0     C62383  10.394   7.549   9.069  0.8030  0.2247 -0.4936
  453MOL0     O62384  10.526   7.509   9.038  0.2628  0.1855 -0.2995
  453MOL0     C62385  10.593   7.585   8.939  0.2775  0.3702 -0.0677
  453MOL0     C62386  10.724   7.512   8.909 -0.1906  0.4572  0.5310
  453MOL0     C62387  10.713   7.360   8.884  0.8122 -0.7887 -0.3751
  453MOL0     C62388  10.830   7.313   8.802  0.4332  0.8324  0.4206
  453MOL0     C62389  10.821   7.167   8.765  0.3020  0.3305  0.3863
  453MOL0     C62390  10.957   7.108   8.736  0.2388 -0.5148  0.5588
  453MOL0     C62391  11.040   7.185   8.626 -0.0325  0.4386  0.4282
  453MOL0     C62392  11.164   7.106   8.592  1.0348 -0.4058 -0.4241
  453MOL0     N62393  11.243   7.173   8.488  0.2729  0.5956  0.3414
  453MOL0     C62394  11.195   7.179   8.358 -0.0510 -0.4770  0.4653
  453MOL0     C62395  11.303   7.221   8.287 -1.0414  0.0666  0.0949
  453MOL0     C62396  11.316   7.260   8.140  0.1228 -0.2005 -0.0030
  453MOL0     C62397  11.433   7.187   8.071  0.2012 -0.1283 -0.0310
  453MOL0     C62398  11.563   7.278   8.078 -0.3934 -0.0731  0.0190
  453MOL0     C62399  11.685   7.200   8.025 -0.9311  0.0943 -0.3630
  453MOL0     O62400  11.663   7.176   7.882 -0.1165  0.6871 -0.1427
  453MOL0     C62401  11.766   7.129   7.801 -0.1683  0.1760  0.3315
  453MOL0     C62402  11.896   7.125   7.836 -0.4080 -0.0191  0.2520
  453MOL0     C62403  11.994   7.087   7.735 -0.4074 -0.2096 -0.3792
  453MOL0     C62404  12.140   7.117   7.766 -0.6903 -0.2544  0.0514
  453MOL0     C62405  11.953   7.038   7.608  0.3536 -0.2135  0.0853
  453MOL0     C62406  12.039   6.978   7.511 -0.2035 -0.3199  0.7777
  453MOL0     O62407  12.035   7.025   7.386  0.5033  0.0313 -0.0323
  453MOL0     C62408  12.138   6.992   7.305 -0.8052 -0.1713  0.1704
  453MOL0     C62409  12.152   6.868   7.241  0.7055  0.6893  0.7771
  453MOL0     C62410  12.261   6.841   7.154  0.4697 -0.3354 -0.2629
  453MOL0     C62411  12.358   6.934   7.123  0.3787 -0.6181  0.3791
  453MOL0     O62412  12.462   6.904   7.042 -0.2137  0.0222 -0.0665
  453MOL0     C62413  12.568   6.997   7.042  0.1851  0.6539 -0.7984
  453MOL0     C62414  12.700   6.943   6.985  0.0184 -0.0046  0.2865
  453MOL0     C62415  12.729   6.987   6.835  0.1021  0.2872 -0.3254
  453MOL0     C62416  12.860   6.928   6.793 -0.3041  0.4377 -0.5382
  453MOL0     C62417  12.896   6.963   6.652 -0.2101 -0.4568  1.1640
  453MOL0     C62418  13.046   6.930   6.613 -0.1351  0.8918  0.5477
  453MOL0     C62419  13.047   6.775   6.602  0.2382 -0.3310 -0.4328
  453MOL0     C62420  13.193   6.726   6.598 -0.1864 -0.1424  0.0040
  453MOL0    Cl62421  13.297   6.769   6.730 -0.1814  0.0642  0.3528
  453MOL0     C62422  12.329   7.069   7.173  0.2537  0.2495  1.0717
  453MOL0     C62423  12.219   7.098   7.262  0.8455 -0.2515 -0.1511
  453MOL0     O62424  12.121   6.895   7.554  0.5635 -0.0684  0.3791
  453MOL0     C62425  11.813   7.031   7.590 -0.2310 -0.2084 -0.2569
  453MOL0     C62426  11.718   7.075   7.684 -0.3362  1.1176 -0.3792
  453MOL0     N62427  11.408   7.237   8.372 -0.2002  0.3195 -0.3873
  453MOL0     N62428  11.374   7.215   8.494  0.4869  0.1439  0.2750
  453MOL0     C62429  10.316   7.442   9.126 -0.3970 -0.5075 -0.2899
  453MOL0     C62430  10.173   7.466   9.144  1.1861  0.2455 -0.8966
  453MOL0     C62431   9.822   7.753   9.217 -0.3626 -0.0238 -1.4230
  453MOL0     C62432   9.734   7.704   9.314  0.6066 -1.1448  0.0371
  453MOL0     C62433   9.606   7.761   9.315  0.0738  0.8175 -0.5216
  453MOL0     C62434   9.558   7.848   9.212  0.0297  1.1749 -0.2252
  453MOL0     O62435   9.426   7.888   9.218 -0.4098  0.6206  1.0576
  453MOL0     C62436   9.312   7.796   9.244  0.1267  0.3643 -0.6083
  453MOL0     C62437   9.186   7.868   9.201  0.5504  0.1047 -0.9465
  453MOL0     C62438   9.133   7.968   9.305  0.2796  0.4846  0.2351
  453MOL0     C62439   8.993   8.026   9.275 -0.3975 -0.3527 -0.4751
  453MOL0     C62440   8.890   7.915   9.270 -0.0260 -0.0480  1.0683
  453MOL0     C62441   8.817   7.817   9.290  0.1305 -0.2796 -0.6602
  453MOL0     C62442   9.649   7.905   9.123  0.1960  0.3495  0.2485
  453MOL0     C62443   9.784   7.855   9.125  0.2805  0.0513 -0.8743
  453MOL0     C62444   9.885   7.914   9.032  0.6317  0.1804 -0.3372
  453MOL0     H62445  10.163   7.793   9.055  0.6749  0.8613 -0.6869
  453MOL0     H62446  10.408   7.752   9.003  1.3800 -2.5574 -1.2097
  453MOL0     H62447  10.611   7.688   8.970  1.6875  0.0453  0.2643
  453MOL0     H62448  10.528   7.597   8.851 -0.3965  0.6648  0.4655
  453MOL0     H62449  10.760   7.565   8.820 -3.1696 -1.2959 -1.9400
  453MOL0     H62450  10.800   7.526   8.987 -0.6183  1.8410  0.7198
  453MOL0     H62451  10.718   7.327   8.988 -2.6205  0.7667  0.4440
  453MOL0     H62452  10.619   7.325   8.841  0.0883 -0.8231  1.1726
  453MOL0     H62453  10.827   7.368   8.707 -0.8692  1.3589  0.7444
  453MOL0     H62454  10.921   7.335   8.858  0.0557 -0.4207  1.5704
  453MOL0     H62455  10.747   7.155   8.686  1.5608  1.1322 -0.9505
  453MOL0     H62456  10.778   7.112   8.850 -0.5388  0.0533 -0.2040
  453MOL0     H62457  11.015   7.098   8.829 -0.7974 -0.6544  1.2051
  453MOL0     H62458  10.939   7.006   8.704 -1.6599 -0.7323  2.1046
  453MOL0     H62459  11.066   7.288   8.652 -1.8888  1.0177  0.1430
  453MOL0     H62460  10.979   7.193   8.535  0.3542  4.8588  0.3528
  453MOL0     H62461  11.227   7.095   8.680 -1.1793 -0.5019  1.2495
  453MOL0     H62462  11.135   7.007   8.557  1.0326 -0.6462  0.2545
  453MOL0     H62463  11.096   7.164   8.318  0.4330  3.4344 -2.8004
  453MOL0     H62464  11.332   7.368   8.128  2.5427 -0.4855  0.1637
  453MOL0     H62465  11.225   7.228   8.089 -0.4510  1.9993 -0.4779
  453MOL0     H62466  11.454   7.087   8.112 -0.0253 -0.5743 -0.9702
  453MOL0     H62467  11.424   7.170   7.963  0.7891  0.2085 -0.1389
  453MOL0     H62468  11.547   7.372   8.025 -1.9737  0.3441  1.1579
  453MOL0     H62469  11.581   7.301   8.184  4.4995  4.0012 -1.3463
  453MOL0     H62470  11.774   7.263   8.031 -0.3852 -0.7354  0.5434
  453MOL0     H62471  11.708   7.111   8.085 -0.9302  1.1868  1.3188
  453MOL0     H62472  11.952   7.156   7.924  3.2830 -4.9131  0.1025
  453MOL0     H62473  12.162   7.208   7.824 -1.5275  0.1517 -0.2466
  453MOL0     H62474  12.198   7.117   7.674 -2.0830  1.6858 -0.9035
  453MOL0     H62475  12.158   7.025   7.821  1.5384 -1.0721 -1.9148
  453MOL0     H62476  12.069   6.799   7.249 -1.0371  2.4723 -0.8118
  453MOL0     H62477  12.279   6.742   7.113 -0.9180  0.4358 -3.0043
  453MOL0     H62478  12.545   7.080   6.975  0.8467  2.7648  1.4348
  453MOL0     H62479  12.584   7.035   7.143  3.4105  1.0843 -1.3728
  453MOL0     H62480  12.775   6.984   7.052  0.4972  0.9965 -0.8229
  453MOL0     H62481  12.693   6.834   6.996 -2.6774 -0.1233 -1.5496
  453MOL0     H62482  12.735   7.095   6.822 -0.2197  0.2392 -0.9292
  453MOL0     H62483  12.659   6.947   6.761  0.4567  0.7826 -0.9322
  453MOL0     H62484  12.848   6.819   6.797 -0.1357  0.4010 -0.9125
  453MOL0     H62485  12.945   6.956   6.855  1.3027 -0.4341 -2.2313
  453MOL0     H62486  12.823   6.929   6.578 -0.0976  2.3171 -0.3748
  453MOL0     H62487  12.895   7.072   6.641  3.2008 -0.4898 -0.7773
  453MOL0     H62488  13.112   6.970   6.691  3.0020 -0.5498 -1.1938
  453MOL0     H62489  13.078   6.967   6.516  0.4346 -1.7845 -0.3668
  453MOL0     H62490  12.996   6.742   6.511 -1.0287  1.8815 -0.5766
  453MOL0     H62491  12.996   6.732   6.688 -2.9090 -0.7142 -2.3542
  453MOL0     H62492  13.230   6.747   6.497 -0.3278 -3.6480 -0.9199
  453MOL0     H62493  13.200   6.617   6.595 -0.2061 -0.1199 -2.0054
  453MOL0     H62494  12.391   7.155   7.146 -0.7946  0.8062  0.3559
  453MOL0     H62495  12.224   7.199   7.301  1.6634 -0.8114  1.2923
  453MOL0     H62496  11.763   6.974   7.512  0.3661  0.1766 -0.9308
  453MOL0     H62497  11.614   7.048   7.668 -0.1845 -1.1141  1.8551
  453MOL0     H62498  10.364   7.345   9.139 -1.3235 -1.0116 -0.5054
  453MOL0     H62499  10.107   7.396   9.193  0.1915 -0.0133 -2.5583
  453MOL0     H62500   9.766   7.638   9.394  0.5350  2.7879  3.6635
  453MOL0     H62501   9.529   7.727   9.384 -1.3193  0.8850 -1.9843
  453MOL0     H62502   9.336   7.704   9.190  2.0054  1.4975 -1.8197
  453MOL0     H62503   9.299   7.770   9.349 -0.1477  4.1997  0.4539
  453MOL0     H62504   9.115   7.785   9.196  3.7032 -2.6953 -2.2460
  453MOL0     H62505   9.187   7.926   9.108 -1.3877  1.2501 -0.3314
  453MOL0     H62506   9.130   7.917   9.402  0.1548 -2.3320 -1.1322
  453MOL0     H62507   9.200   8.054   9.305 -1.4456  1.9775 -2.1623
  453MOL0     H62508   8.992   8.075   9.177  0.0059 -1.0187 -0.8143
  453MOL0     H62509   8.971   8.099   9.353 -2.4501  0.0028 -1.3206
  453MOL0     H62510   8.750   7.737   9.313  0.1466 -0.1085 -0.0050
  453MOL0     H62511   9.610   7.969   9.045  0.0958 -0.5937 -0.4942
  453MOL0     H62512   9.966   7.969   9.081 -0.6670 -0.2848  2.5612
  453MOL0     H62513   9.926   7.832   8.972  0.7294 -1.2541  1.5848
  453MOL0     H62514   9.835   7.978   8.959  0.4825 -0.8788 -1.1961
  454MOL0     O62515   5.419   7.888  10.022  0.2378  0.5233  0.0158
  454MOL0     C62516   5.495   7.981  10.043  0.0545 -0.5308  0.6276
  454MOL0     O62517   5.457   8.099  10.105 -0.1805  0.3550  0.0139
  454MOL0     C62518   5.326   8.120  10.148  0.0931 -1.6458 -0.5658
  454MOL0     C62519   5.233   8.027  10.194 -0.3693  0.4965  0.1268
  454MOL0     C62520   5.096   8.060  10.214 -0.2153  0.5441  1.0421
  454MOL0     C62521   5.058   8.186  10.194 -0.7480 -0.0242 -0.3396
  454MOL0     O62522   4.931   8.211  10.227 -0.1022  0.3462  0.1875
  454MOL0     C62523   4.863   8.315  10.160  0.0761 -0.1110  0.4107
  454MOL0     C62524   4.717   8.311  10.176  0.2806  0.5239 -0.8664
  454MOL0     C62525   4.658   8.178  10.233  0.2815 -0.5797  0.1641
  454MOL0     C62526   4.661   8.059  10.123  0.6490  0.3674 -0.7911
  454MOL0     C62527   4.532   7.981  10.125 -0.1792  0.3423 -0.0326
  454MOL0     C62528   4.432   8.064  10.043  0.0407  0.2176 -0.2736
  454MOL0     C62529   4.296   8.002  10.071 -1.1976  0.0541  0.1126
  454MOL0     C62530   4.187   8.061   9.983 -0.8248 -0.2724  0.9221
  454MOL0     N62531   4.059   8.014  10.033 -0.1673  0.3328  0.1037
  454MOL0     C62532   3.993   8.048  10.151  0.1677 -0.2710  0.3213
  454MOL0     C62533   3.879   7.972  10.148 -0.5983  0.0237 -0.3997
  454MOL0     C62534   3.770   7.965  10.252  0.0690  0.4414  0.3693
  454MOL0     C62535   3.796   7.892  10.378 -0.6671  0.3587  0.0647
  454MOL0     C62536   3.829   7.747  10.375  0.4960  0.3102 -0.0876
  454MOL0     C62537   3.964   7.701  10.324 -0.1882 -0.5413  1.2233
  454MOL0     O62538   4.089   7.744  10.386  0.5834  0.0913  0.0200
  454MOL0     C62539   4.214   7.703  10.341  1.0175  0.8623  0.6943
  454MOL0     C62540   4.228   7.627  10.227  0.3490  0.4547 -0.1291
  454MOL0     C62541   4.354   7.604  10.172  0.3767 -0.3940 -0.7355
  454MOL0     C62542   4.366   7.550  10.035  0.1899  0.2405 -1.4677
  454MOL0     C62543   4.469   7.638  10.244 -0.2708 -0.2597  0.2395
  454MOL0     C62544   4.607   7.589  10.205 -0.0844 -0.1705 -0.4743
  454MOL0     O62545   4.711   7.636  10.276  0.0314 -0.3533 -0.5528
  454MOL0     C62546   4.841   7.614  10.238  0.4026 -0.8044 -0.0421
  454MOL0     C62547   4.933   7.714  10.198  0.2461 -0.3547 -0.1825
  454MOL0     C62548   5.068   7.689  10.160  0.7155 -0.4844 -0.0911
  454MOL0     C62549   5.118   7.562  10.162 -0.7042  0.3181  0.0121
  454MOL0     O62550   5.244   7.529  10.124 -0.1742  0.1336  0.1597
  454MOL0     C62551   5.348   7.579  10.206  0.4968  0.2341 -0.7974
  454MOL0     C62552   5.474   7.541  10.135  1.1520  0.5407 -0.2161
  454MOL0     C62553   5.490   7.385  10.161 -0.0131  0.0719 -0.0891
  454MOL0     C62554   5.640   7.333  10.131 -0.7206  0.7466  0.7534
  454MOL0     C62555   5.664   7.313   9.986  0.0211  0.2220  0.1983
  454MOL0     C62556   5.812   7.302   9.942  0.1351 -0.5330 -0.1753
  454MOL0     C62557   5.872   7.162   9.967 -0.2351 -0.0077  0.2371
  454MOL0     C62558   6.005   7.135   9.895 -1.0980 -0.3731 -0.3084
  454MOL0    Cl62559   6.103   7.285   9.916 -0.2909  0.1463  0.1203
  454MOL0     C62560   5.027   7.462  10.209  0.0468 -0.5135  0.3193
  454MOL0     C62561   4.906   7.492  10.251  0.1808  0.0948 -0.1110
  454MOL0     O62562   4.618   7.492  10.125  0.2539 -0.0480  0.4837
  454MOL0     C62563   4.462   7.705  10.367  1.1797 -0.0179  0.0343
  454MOL0     C62564   4.332   7.738  10.414 -0.2538 -1.1304 -0.4065
  454MOL0     N62565   3.874   7.906  10.026  0.4306  0.3746  0.7360
  454MOL0     N62566   3.983   7.937   9.961 -0.0687  0.1877  0.0888
  454MOL0     C62567   5.145   8.283  10.158 -0.9800 -0.9849  0.0564
  454MOL0     C62568   5.286   8.252  10.142  0.2091  0.0525  0.1882
  454MOL0     C62569   5.635   7.947  10.000  0.1899  0.8343 -0.0007
  454MOL0     C62570   5.659   7.815   9.954 -0.3803  0.3380  0.2983
  454MOL0     C62571   5.777   7.769   9.905 -0.2783  0.1036 -0.2238
  454MOL0     C62572   5.891   7.853   9.909  0.4881  0.5751  0.6808
  454MOL0     O62573   6.021   7.833   9.870 -0.6173 -0.3594 -0.7460
  454MOL0     C62574   6.059   7.710   9.813  0.1604 -0.5198  0.5194
  454MOL0     C62575   6.199   7.708   9.748 -0.6459 -0.5487  0.9134
  454MOL0     C62576   6.247   7.569   9.702 -1.2265 -0.2259  0.9206
  454MOL0     C62577   6.159   7.520   9.587 -0.1657 -0.5361  0.0670
  454MOL0     C62578   6.215   7.399   9.527 -0.1339  0.4903 -0.1961
  454MOL0     C62579   6.265   7.291   9.486  0.5642 -0.7014  1.0527
  454MOL0     C62580   5.866   7.977   9.965 -0.7248 -0.7938  0.5724
  454MOL0     C62581   5.751   8.033  10.001  0.6533  0.1034  0.2852
  454MOL0     C62582   5.750   8.170  10.067 -0.8290 -0.2546 -0.2365
  454MOL0     H62583   5.253   7.923  10.218 -0.9497  0.8812  2.5259
  454MOL0     H62584   5.030   7.978  10.238  0.4147 -0.5057 -0.6331
  454MOL0     H62585   4.890   8.301  10.055 -0.3703 -2.5526  0.5744
  454MOL0     H62586   4.894   8.414  10.194  0.4802  0.9152 -2.6632
  454MOL0     H62587   4.701   8.391  10.249 -0.1038 -1.0656  0.8585
  454MOL0     H62588   4.662   8.339  10.085 -3.3437  0.2882  1.0510
  454MOL0     H62589   4.713   8.147  10.322 -0.0384 -0.7561  0.3021
  454MOL0     H62590   4.557   8.208  10.263  0.4633  0.0385  0.1690
  454MOL0     H62591   4.686   8.097  10.024 -3.0094 -1.4309 -2.5953
  454MOL0     H62592   4.752   8.000  10.139  1.7251  1.2123 -3.3371
  454MOL0     H62593   4.496   7.964  10.226  0.2066  2.1432  0.4413
  454MOL0     H62594   4.544   7.884  10.074 -4.1056 -0.7694  0.8462
  454MOL0     H62595   4.427   8.164  10.089  0.9967 -0.5505  1.6171
  454MOL0     H62596   4.455   8.065   9.936  0.8263 -1.8487 -0.1717
  454MOL0     H62597   4.266   8.009  10.175  1.8533  0.0551  1.1023
  454MOL0     H62598   4.295   7.895  10.047 -0.0372 -0.1824  1.0574
  454MOL0     H62599   4.198   8.169   9.996  0.0133 -0.2160 -0.0802
  454MOL0     H62600   4.202   8.040   9.876  0.8468  1.9366  0.6511
  454MOL0     H62601   4.038   8.110  10.228 -1.8991 -2.6747  3.7139
  454MOL0     H62602   3.682   7.921  10.204 -0.3773  0.1987  1.3809
  454MOL0     H62603   3.745   8.067  10.283 -0.5330  0.2754  0.4489
  454MOL0     H62604   3.884   7.939  10.423 -1.3781  2.6221 -0.7515
  454MOL0     H62605   3.713   7.912  10.447 -0.2885  0.3156  0.5372
  454MOL0     H62606   3.822   7.715  10.480 -0.9235 -1.1140 -0.5731
  454MOL0     H62607   3.758   7.693  10.311  0.5214  0.5813 -0.3463
  454MOL0     H62608   3.964   7.593  10.306 -2.8036 -0.4497  0.2771
  454MOL0     H62609   3.985   7.748  10.228  4.3367  1.4166  2.9010
  454MOL0     H62610   4.136   7.592  10.181 -0.2167  0.4893  0.9522
  454MOL0     H62611   4.430   7.609   9.968 -1.2459  2.3910 -1.0454
  454MOL0     H62612   4.265   7.555   9.992 -0.8881 -1.3992  0.6884
  454MOL0     H62613   4.402   7.448  10.050  2.9732  1.4070  0.6853
  454MOL0     H62614   4.897   7.816  10.197  1.2245  0.0413  1.7437
  454MOL0     H62615   5.121   7.781  10.138 -0.6465  0.5887  0.9044
  454MOL0     H62616   5.340   7.688  10.213  0.3138  0.1441  0.9210
  454MOL0     H62617   5.339   7.542  10.308 -1.9172  0.4236 -0.8861
  454MOL0     H62618   5.467   7.558  10.027 -0.6337 -2.3612 -0.6625
  454MOL0     H62619   5.565   7.587  10.176  0.2953 -1.0922  4.0060
  454MOL0     H62620   5.414   7.327  10.109  1.0795 -0.0404 -1.6390
  454MOL0     H62621   5.479   7.372  10.269 -4.0090  1.1317 -0.2193
  454MOL0     H62622   5.673   7.247  10.190 -1.9148 -0.2948 -0.0426
  454MOL0     H62623   5.707   7.415  10.158  0.0012 -0.6203  3.4993
  454MOL0     H62624   5.601   7.227   9.961  0.3073 -0.7125  2.4481
  454MOL0     H62625   5.619   7.398   9.935 -0.8154 -0.5875 -0.4578
  454MOL0     H62626   5.853   7.380  10.007  0.0590 -0.6802  0.0497
  454MOL0     H62627   5.842   7.325   9.840  3.3076  0.8684  0.9333
  454MOL0     H62628   5.806   7.079   9.942  0.4760 -0.2678 -0.8265
  454MOL0     H62629   5.890   7.170  10.075 -1.6689  1.8377  0.4040
  454MOL0     H62630   5.993   7.115   9.788 -0.3387 -1.3637 -0.2170
  454MOL0     H62631   6.055   7.051   9.944 -2.0702  0.2530  1.8883
  454MOL0     H62632   5.072   7.364  10.198  0.6689  0.0210 -2.8091
  454MOL0     H62633   4.824   7.426  10.278 -2.2595  2.7793 -0.4272
  454MOL0     H62634   4.552   7.733  10.421 -0.0155  1.0811  1.5741
  454MOL0     H62635   4.310   7.818  10.485 -1.0144 -0.1941 -1.6441
  454MOL0     H62636   5.102   8.383  10.164 -3.7377 -2.0657 -0.1021
  454MOL0     H62637   5.361   8.329  10.129 -0.2337  0.6257  0.8624
  454MOL0     H62638   5.585   7.737   9.964 -0.1289  0.1779  0.9754
  454MOL0     H62639   5.796   7.671   9.862 -0.2301 -0.9403  2.0390
  454MOL0     H62640   6.038   7.633   9.888 -2.1971 -0.2089  0.2664
  454MOL0     H62641   5.987   7.681   9.736  0.4030  2.0853 -0.8090
  454MOL0     H62642   6.266   7.751   9.824 -2.5592  0.8347  1.8951
  454MOL0     H62643   6.212   7.764   9.655  0.7930 -2.8342 -0.3501
  454MOL0     H62644   6.349   7.577   9.663 -2.0153 -0.3964 -1.3269
  454MOL0     H62645   6.247   7.493   9.781  1.1678  0.2848  1.4841
  454MOL0     H62646   6.139   7.592   9.506  3.0638  0.4262 -0.0039
  454MOL0     H62647   6.061   7.496   9.629 -1.1291  3.3958  0.4729
  454MOL0     H62648   6.319   7.199   9.478 -0.1294 -1.3947  3.6047
  454MOL0     H62649   5.954   8.040   9.970 -1.1041  0.0582 -1.9094
  454MOL0     H62650   5.664   8.232  10.038 -0.2010  0.1378 -1.2917
  454MOL0     H62651   5.741   8.152  10.175  0.5844  0.1289 -0.0336
  454MOL0     H62652   5.845   8.220  10.049  0.2662 -2.2136 -0.1343
  455MOL0     O62653   2.917   1.615   6.333  0.0982  0.0055  0.4767
  455MOL0     C62654   2.908   1.741   6.329 -0.4918 -0.3125 -0.3458
  455MOL0     O62655   3.009   1.831   6.359 -0.0220  0.2297 -0.0675
  455MOL0     C62656   3.136   1.794   6.398  0.1330 -0.2780 -0.2022
  455MOL0     C62657   3.205   1.873   6.491  0.2731 -0.6876 -0.1558
  455MOL0     C62658   3.342   1.844   6.521  0.2288  0.5507 -0.2917
  455MOL0     C62659   3.406   1.734   6.460 -0.2400  0.4717 -0.1204
  455MOL0     O62660   3.541   1.714   6.488 -0.3046 -0.4149  0.2231
  455MOL0     C62661   3.572   1.606   6.571 -0.8253  0.9952  0.9621
  455MOL0     C62662   3.707   1.543   6.521  0.3441 -0.1254 -0.4053
  455MOL0     C62663   3.824   1.626   6.531 -0.2957 -0.1321  0.6015
  455MOL0     C62664   3.900   1.618   6.667 -0.4337 -0.7482 -0.2809
  455MOL0     C62665   4.041   1.680   6.655  0.1388  0.3761  0.8073
  455MOL0     C62666   4.132   1.634   6.767 -0.0157  0.5190 -0.5595
  455MOL0     C62667   4.282   1.663   6.752  0.0290  0.1352 -0.1127
  455MOL0     C62668   4.309   1.815   6.745  0.3257 -0.3902 -0.2963
  455MOL0     N62669   4.452   1.835   6.788 -0.2474  0.0543 -0.6119
  455MOL0     C62670   4.556   1.872   6.703  0.4548 -0.3325 -0.2516
  455MOL0     C62671   4.666   1.869   6.780  0.2623 -0.2966 -0.1988
  455MOL0     C62672   4.806   1.888   6.728  0.2481 -0.1676  1.1124
  455MOL0     C62673   4.898   1.771   6.741 -0.2793 -0.6539 -0.1325
  455MOL0     C62674   5.044   1.791   6.689  0.2623  0.1440  0.2545
  455MOL0     C62675   5.128   1.662   6.680 -0.2277 -0.5991  0.1649
  455MOL0     O62676   5.244   1.683   6.602  0.0672  0.2938 -0.7594
  455MOL0     C62677   5.366   1.687   6.668 -0.5860  0.2986  0.0041
  455MOL0     C62678   5.381   1.743   6.794 -0.0175 -0.9029 -0.1374
  455MOL0     C62679   5.503   1.718   6.865 -0.0054  0.3721  0.3220
  455MOL0     C62680   5.527   1.791   7.001  0.1941 -1.0187  0.0169
  455MOL0     C62681   5.604   1.637   6.807 -0.0246 -0.0864  0.7871
  455MOL0     C62682   5.724   1.591   6.884 -0.3803 -0.1724  0.0681
  455MOL0     O62683   5.835   1.555   6.806  0.4908  0.0996 -0.7040
  455MOL0     C62684   5.946   1.534   6.877  0.1810  0.4817 -0.2045
  455MOL0     C62685   6.032   1.637   6.883 -1.0544 -0.1460 -0.0774
  455MOL0     C62686   6.138   1.629   6.973 -0.5731 -0.8809 -0.3513
  455MOL0     C62687   6.165   1.509   7.054  0.3938  0.0175  0.6547
  455MOL0     O62688   6.268   1.497   7.139 -0.0464 -0.7513 -0.1447
  455MOL0     C62689   6.398   1.540   7.086 -0.3373  0.1880 -0.2896
  455MOL0     C62690   6.521   1.479   7.150  0.5922  1.3243  0.2101
  455MOL0     C62691   6.648   1.543   7.091 -0.3588 -0.2306 -0.3412
  455MOL0     C62692   6.685   1.479   6.957  0.8226  0.0613  0.1201
  455MOL0     C62693   6.826   1.524   6.914  0.7853  0.4903 -0.1508
  455MOL0     C62694   6.870   1.458   6.782 -0.8086  0.1366  0.6902
  455MOL0     C62695   6.994   1.520   6.720 -0.1919 -0.5106  0.6483
  455MOL0     C62696   7.049   1.438   6.594 -0.7866 -0.2475  0.8074
  455MOL0    Cl62697   7.154   1.545   6.498  0.0596 -0.4691  0.6301
  455MOL0     C62698   6.079   1.403   7.029 -0.0784  0.3804 -0.2936
  455MOL0     C62699   5.978   1.411   6.933 -0.5120  0.2538  0.3998
  455MOL0     O62700   5.713   1.567   7.005 -0.4733 -0.3098  0.8552
  455MOL0     C62701   5.588   1.589   6.673  1.2602 -0.0104  0.8281
  455MOL0     C62702   5.475   1.626   6.604 -0.1647  0.3496  0.5476
  455MOL0     N62703   4.623   1.845   6.909 -0.2237  0.0372 -0.0770
  455MOL0     N62704   4.500   1.802   6.909  0.5803  0.7156 -0.0612
  455MOL0     C62705   3.332   1.655   6.375 -0.0824 -0.9484  0.3263
  455MOL0     C62706   3.201   1.690   6.343  0.1310  0.1371  0.6747
  455MOL0     C62707   2.783   1.799   6.285 -0.0196  0.0849  0.0723
  455MOL0     C62708   2.711   1.711   6.187  0.3025 -0.1166 -0.0996
  455MOL0     C62709   2.597   1.753   6.118  0.3991 -1.0241 -0.0412
  455MOL0     C62710   2.551   1.883   6.132 -0.2820 -0.2849 -0.4225
  455MOL0     O62711   2.433   1.920   6.069 -0.6927 -0.0281 -0.0733
  455MOL0     C62712   2.359   2.035   6.097  0.1272  0.1460  0.0079
  455MOL0     C62713   2.208   2.020   6.048 -0.6479 -0.8393 -0.5599
  455MOL0     C62714   2.190   2.017   5.896 -0.1878  0.4942 -0.2641
  455MOL0     C62715   2.250   2.139   5.829 -1.0196 -0.2708 -0.1393
  455MOL0     C62716   2.174   2.255   5.872  0.7505  0.7869  1.2146
  455MOL0     C62717   2.130   2.367   5.887  0.5781 -0.2066  1.5020
  455MOL0     C62718   2.615   1.961   6.236 -0.1503 -0.8502  0.4643
  455MOL0     C62719   2.729   1.927   6.311 -0.1922  0.0479 -0.1990
  455MOL0     C62720   2.785   2.028   6.410  1.0702 -0.2440 -0.0214
  455MOL0     H62721   3.148   1.952   6.539  0.3861 -2.0073  2.2734
  455MOL0     H62722   3.392   1.908   6.593  1.3454  2.4955 -2.6502
  455MOL0     H62723   3.498   1.526   6.561  0.3829 -0.1685  1.0023
  455MOL0     H62724   3.582   1.630   6.677 -0.3024 -0.4949  1.2672
  455MOL0     H62725   3.718   1.449   6.577  0.8124 -1.5691 -2.7647
  455MOL0     H62726   3.688   1.514   6.417  0.1586  2.2880 -1.0903
  455MOL0     H62727   3.896   1.601   6.453 -1.2700  1.0742 -0.7310
  455MOL0     H62728   3.798   1.728   6.504 -0.6135  0.2970  2.3808
  455MOL0     H62729   3.834   1.668   6.739 -1.7693 -2.2957 -0.3706
  455MOL0     H62730   3.923   1.516   6.697  0.6503 -0.1412  1.0730
  455MOL0     H62731   4.036   1.788   6.647  0.9297  0.6404  3.1095
  455MOL0     H62732   4.083   1.644   6.560 -2.1946  0.8645 -0.4764
  455MOL0     H62733   4.094   1.691   6.852  3.5200  2.6897 -0.2324
  455MOL0     H62734   4.119   1.528   6.793  3.8534  0.1387  0.4126
  455MOL0     H62735   4.303   1.622   6.653 -1.5904  0.0084 -0.4206
  455MOL0     H62736   4.341   1.614   6.831  2.2578 -1.7096 -2.7168
  455MOL0     H62737   4.305   1.852   6.642  1.5891 -0.2158 -0.2978
  455MOL0     H62738   4.238   1.862   6.814 -2.8913  0.1134 -3.6522
  455MOL0     H62739   4.557   1.912   6.603  0.6856 -0.2124 -0.2033
  455MOL0     H62740   4.846   1.964   6.795 -2.0672  1.5448  0.6624
  455MOL0     H62741   4.804   1.922   6.624  1.8598 -2.3897  0.2779
  455MOL0     H62742   4.895   1.757   6.849  1.3523  1.5256  0.2501
  455MOL0     H62743   4.859   1.683   6.688  0.1071 -0.7070 -0.3285
  455MOL0     H62744   5.052   1.849   6.596 -0.1266  0.2664  0.2975
  455MOL0     H62745   5.095   1.856   6.761 -0.9848 -0.6623  1.9122
  455MOL0     H62746   5.156   1.635   6.782 -1.2594 -2.7783 -0.0838
  455MOL0     H62747   5.070   1.583   6.633  1.0970 -1.3606 -0.2591
  455MOL0     H62748   5.304   1.805   6.839 -1.8368 -3.1788  0.0606
  455MOL0     H62749   5.525   1.713   7.077  2.3447 -1.1797 -0.0336
  455MOL0     H62750   5.448   1.863   7.021  0.7653  0.7785 -3.3718
  455MOL0     H62751   5.628   1.832   7.014 -0.5417  1.3531 -1.0611
  455MOL0     H62752   6.011   1.724   6.823 -1.4249 -0.0471  0.1932
  455MOL0     H62753   6.194   1.722   6.971 -2.4302  0.3106  0.2894
  455MOL0     H62754   6.396   1.522   6.978  2.7382  3.9085 -1.1645
  455MOL0     H62755   6.406   1.648   7.097  1.7572  0.2195 -1.7295
  455MOL0     H62756   6.508   1.495   7.258 -1.0837  0.0288  0.2393
  455MOL0     H62757   6.527   1.372   7.130  2.2967  1.6755 -1.3437
  455MOL0     H62758   6.732   1.510   7.154  1.0040 -2.1997 -2.9489
  455MOL0     H62759   6.649   1.652   7.094 -0.0108 -0.2526  1.4002
  455MOL0     H62760   6.615   1.507   6.878  1.0366  0.9367  0.2347
  455MOL0     H62761   6.687   1.369   6.961  1.5705  0.0141 -1.0876
  455MOL0     H62762   6.832   1.633   6.901  1.6721  1.0262  3.6810
  455MOL0     H62763   6.895   1.504   6.997  0.5647 -0.7980 -0.2554
  455MOL0     H62764   6.785   1.475   6.716 -0.6042 -0.3712  0.2924
  455MOL0     H62765   6.880   1.349   6.783  1.0070  0.1887 -1.5103
  455MOL0     H62766   7.062   1.539   6.803 -1.9732  1.2625  1.7742
  455MOL0     H62767   6.972   1.622   6.688  0.3265 -0.3585  0.7587
  455MOL0     H62768   6.963   1.415   6.531 -0.9568  0.6669  0.6883
  455MOL0     H62769   7.111   1.350   6.613 -2.1544 -1.9342 -1.9813
  455MOL0     H62770   6.096   1.307   7.077 -1.2661 -0.3393 -1.2442
  455MOL0     H62771   5.919   1.321   6.919 -0.0970 -0.1152  0.9617
  455MOL0     H62772   5.662   1.532   6.617  1.9548 -1.0751  2.7595
  455MOL0     H62773   5.454   1.597   6.502  0.0411  0.3466  0.5074
  455MOL0     H62774   3.384   1.568   6.337 -1.1154 -0.7049 -1.7982
  455MOL0     H62775   3.146   1.623   6.277  0.2663  0.0413  0.6582
  455MOL0     H62776   2.726   1.605   6.171  3.1208  0.1736  0.0405
  455MOL0     H62777   2.547   1.678   6.057  0.2071 -0.3114 -0.7770
  455MOL0     H62778   2.365   2.070   6.201  1.9817 -1.6843  0.5827
  455MOL0     H62779   2.403   2.120   6.043 -1.9251 -0.1173 -2.2543
  455MOL0     H62780   2.142   2.094   6.095  0.9546 -0.4838  1.2618
  455MOL0     H62781   2.172   1.926   6.089 -1.4962  0.3883  1.6703
  455MOL0     H62782   2.240   1.936   5.842  0.3043  0.5919  0.0427
  455MOL0     H62783   2.083   2.005   5.874  0.4325 -2.2609 -2.2537
  455MOL0     H62784   2.247   2.128   5.721 -0.9111  1.4936 -0.3622
  455MOL0     H62785   2.357   2.148   5.853 -0.8535 -1.1933 -0.5024
  455MOL0     H62786   2.087   2.465   5.897  0.9716  0.1164  0.2081
  455MOL0     H62787   2.576   2.061   6.253  0.2134 -0.0020 -2.8751
  455MOL0     H62788   2.699   2.089   6.441  0.7724 -0.5198 -0.3022
  455MOL0     H62789   2.843   1.996   6.497  3.2612  0.0502 -1.3110
  455MOL0     H62790   2.859   2.091   6.361 -0.1239  0.0684 -1.4877
  456MOL0     O62791   9.160  10.264   4.111 -0.1070 -0.6828 -0.9773
  456MOL0     C62792   9.189  10.361   4.179 -0.1997 -0.1799 -0.0022
  456MOL0     O62793   9.250  10.471   4.131 -0.8539 -0.0111 -0.4102
  456MOL0     C62794   9.303  10.475   4.005 -0.2183  0.9183  0.2263
  456MOL0     C62795   9.297  10.591   3.930 -0.1286 -0.0202  0.4140
  456MOL0     C62796   9.374  10.604   3.812  0.7420  0.0951  0.7022
  456MOL0     C62797   9.450  10.499   3.760 -0.1917  0.5200 -0.5643
  456MOL0     O62798   9.526  10.509   3.647  0.0925 -0.2172 -0.3630
  456MOL0     C62799   9.481  10.602   3.550 -0.4603 -0.3427 -1.0694
  456MOL0     C62800   9.560  10.613   3.424 -0.1318  0.0804 -0.7828
  456MOL0     C62801   9.572  10.473   3.360 -0.3533  0.0933 -1.2904
  456MOL0     C62802   9.592  10.483   3.210  0.1963  0.4379 -0.5946
  456MOL0     C62803   9.620  10.356   3.143  0.2269 -0.3314 -0.0459
  456MOL0     C62804   9.645  10.375   2.996  0.2862 -1.0192  0.3107
  456MOL0     C62805   9.651  10.241   2.920  0.6265  0.9785  0.3529
  456MOL0     C62806   9.509  10.172   2.904 -0.3921  0.8999 -0.3307
  456MOL0     N62807   9.494  10.081   2.783  0.1425  0.2896 -0.5795
  456MOL0     C62808   9.541   9.944   2.775  1.3228 -0.4210  0.1408
  456MOL0     C62809   9.487   9.896   2.668  0.7643 -0.0822  0.4678
  456MOL0     C62810   9.513   9.755   2.622  0.1799  0.0422 -0.4002
  456MOL0     C62811   9.666   9.742   2.593 -0.1791  0.3905  0.8336
  456MOL0     C62812   9.707   9.606   2.524  0.0267 -1.0993  0.3097
  456MOL0     C62813   9.845   9.611   2.463 -0.4047 -0.2302 -0.4526
  456MOL0     O62814   9.878   9.480   2.419  0.7310 -0.1907 -0.1039
  456MOL0     C62815   9.999   9.437   2.457 -0.4855  0.3553 -0.3249
  456MOL0     C62816  10.005   9.304   2.493 -0.6494  0.4606  0.2769
  456MOL0     C62817  10.127   9.243   2.523  0.2071 -0.4563 -0.4271
  456MOL0     C62818  10.128   9.104   2.582 -0.1676  0.1150 -0.1617
  456MOL0     C62819  10.247   9.318   2.513 -0.1153  0.0329 -0.5766
  456MOL0     C62820  10.383   9.254   2.523  0.5032 -0.1613 -0.2738
  456MOL0     O62821  10.495   9.340   2.559  0.3283 -0.1178  0.6053
  456MOL0     C62822  10.617   9.274   2.570  0.5446 -0.7602  0.9329
  456MOL0     C62823  10.653   9.195   2.676 -0.4805 -0.4212  0.3856
  456MOL0     C62824  10.777   9.141   2.683 -0.0008 -0.0892  0.1486
  456MOL0     C62825  10.877   9.173   2.592 -0.5772 -1.0981  0.0004
  456MOL0     O62826  11.006   9.126   2.616  0.0148 -0.4759  0.0152
  456MOL0     C62827  11.101   9.124   2.510  0.2253 -0.4230  0.3204
  456MOL0     C62828  11.225   9.044   2.547 -0.7902 -0.2291  0.0474
  456MOL0     C62829  11.293   8.958   2.438 -0.6993  1.1603 -0.4761
  456MOL0     C62830  11.421   8.893   2.488 -0.2266 -0.1989  0.6215
  456MOL0     C62831  11.461   8.776   2.389 -0.0010 -0.3252 -0.1784
  456MOL0     C62832  11.587   8.710   2.448  0.1435  0.5013  0.6957
  456MOL0     C62833  11.621   8.596   2.343 -0.4850  0.1314 -1.1503
  456MOL0     C62834  11.750   8.523   2.388 -0.7294  0.3212 -0.3515
  456MOL0    Cl62835  11.896   8.631   2.393 -0.0264  0.6819 -0.1596
  456MOL0     C62836  10.844   9.259   2.481 -0.3012 -0.2336 -0.2711
  456MOL0     C62837  10.713   9.309   2.479 -0.6072  0.1221 -0.3001
  456MOL0     O62838  10.393   9.131   2.519 -0.2372  0.4295  0.4515
  456MOL0     C62839  10.243   9.456   2.476  0.0845  0.0333 -0.2778
  456MOL0     C62840  10.118   9.516   2.444 -0.4323  0.5769  0.0091
  456MOL0     N62841   9.404   9.999   2.608 -0.1986 -0.0369 -0.0515
  456MOL0     N62842   9.418  10.113   2.675  0.5458 -0.5464  0.3971
  456MOL0     C62843   9.462  10.391   3.846 -0.0552 -1.0486 -0.2974
  456MOL0     C62844   9.402  10.385   3.968 -0.0872  0.3716 -0.0245
  456MOL0     C62845   9.143  10.372   4.320 -0.0062 -0.2140 -0.0951
  456MOL0     C62846   9.166  10.486   4.396  0.3566 -0.0918 -0.1740
  456MOL0     C62847   9.119  10.503   4.525 -0.3746 -0.1509 -0.2427
  456MOL0     C62848   9.047  10.400   4.589 -0.5064  0.0210 -0.0835
  456MOL0     O62849   9.007  10.408   4.720  0.7793 -0.1693 -0.3771
  456MOL0     C62850   9.079  10.314   4.802  0.7856 -0.7818  0.3148
  456MOL0     C62851   9.155  10.391   4.915  0.5698  0.2639 -0.0969
  456MOL0     C62852   9.286  10.452   4.864  0.3998  1.1964  0.5225
  456MOL0     C62853   9.379  10.492   4.975 -0.4800  0.6460 -0.0577
  456MOL0     C62854   9.520  10.502   4.924 -0.2958  0.4303 -0.1987
  456MOL0     C62855   9.625  10.515   4.866  0.4645 -0.2847 -0.2616
  456MOL0     C62856   9.026  10.280   4.529 -0.6716 -0.0454  0.1141
  456MOL0     C62857   9.072  10.270   4.394 -0.2348 -0.5007 -0.0233
  456MOL0     C62858   9.031  10.143   4.318  0.4246 -0.1539 -0.2648
  456MOL0     H62859   9.250  10.680   3.971  0.2946  0.4357 -0.0786
  456MOL0     H62860   9.354  10.697   3.761 -1.3690  0.2768  1.7414
  456MOL0     H62861   9.480  10.705   3.587 -1.2915 -0.2547 -1.3084
  456MOL0     H62862   9.377  10.578   3.525 -2.0637  4.2868  0.0150
  456MOL0     H62863   9.499  10.674   3.356 -1.5160 -2.0267 -1.5433
  456MOL0     H62864   9.661  10.652   3.437  0.6214 -2.3968  2.1998
  456MOL0     H62865   9.661  10.423   3.400 -0.7316  0.9869  0.8104
  456MOL0     H62866   9.482  10.414   3.381  1.9355 -2.4231  3.0280
  456MOL0     H62867   9.514  10.548   3.169 -0.5361 -0.2169 -0.2701
  456MOL0     H62868   9.687  10.535   3.194  1.0113 -1.6260 -3.2935
  456MOL0     H62869   9.537  10.284   3.146  1.0117 -1.4142 -2.0992
  456MOL0     H62870   9.709  10.313   3.188 -0.0312  0.0352  0.8247
  456MOL0     H62871   9.574  10.446   2.951  0.9650  0.7942  1.9621
  456MOL0     H62872   9.742  10.424   2.987  0.7073 -2.0549 -1.1782
  456MOL0     H62873   9.715  10.172   2.974 -0.8032 -2.6681 -2.2325
  456MOL0     H62874   9.695  10.268   2.823  1.3523 -0.0656  0.3830
  456MOL0     H62875   9.500  10.106   2.991  1.8938  1.9038  0.7625
  456MOL0     H62876   9.432  10.249   2.911 -1.4336 -0.2043  1.0272
  456MOL0     H62877   9.610   9.892   2.841 -0.1896 -2.8218 -0.0382
  456MOL0     H62878   9.462   9.733   2.528  1.2173  0.3617 -1.0561
  456MOL0     H62879   9.489   9.689   2.706  2.5629  1.8491  1.9153
  456MOL0     H62880   9.683   9.823   2.522  2.4909  0.9910  2.0381
  456MOL0     H62881   9.734   9.767   2.675 -0.7417 -1.3710  1.8929
  456MOL0     H62882   9.716   9.535   2.607 -1.6772  2.5142  3.9328
  456MOL0     H62883   9.643   9.575   2.440  0.9894  1.1102 -1.3386
  456MOL0     H62884   9.840   9.683   2.381  2.1351  1.5321  0.7931
  456MOL0     H62885   9.914   9.648   2.539 -0.5594  2.1014 -1.3762
  456MOL0     H62886   9.908   9.254   2.489 -0.4363  0.0986 -1.2837
  456MOL0     H62887  10.030   9.079   2.625  0.2945  1.4803  1.8078
  456MOL0     H62888  10.213   9.088   2.649  0.9725 -0.9666 -1.7838
  456MOL0     H62889  10.134   9.045   2.490  0.5776 -0.6715  0.3722
  456MOL0     H62890  10.583   9.160   2.751 -1.7211  0.9853 -0.0703
  456MOL0     H62891  10.791   9.073   2.766 -0.3822  2.6969  2.6663
  456MOL0     H62892  11.050   9.086   2.421  0.0158 -0.6599  0.5407
  456MOL0     H62893  11.128   9.229   2.496 -0.9667 -0.1174  0.1832
  456MOL0     H62894  11.306   9.105   2.587 -0.5969 -1.2957  1.3569
  456MOL0     H62895  11.207   8.967   2.622 -1.0199  0.2445  0.4865
  456MOL0     H62896  11.328   9.018   2.353  0.0009  0.9224 -0.3583
  456MOL0     H62897  11.217   8.885   2.407  0.8782 -0.8069  0.0793
  456MOL0     H62898  11.408   8.846   2.586  0.2503 -1.1047  0.2566
  456MOL0     H62899  11.509   8.955   2.505 -0.5763 -0.3172  3.2794
  456MOL0     H62900  11.389   8.693   2.386 -2.2355  1.5605 -2.3416
  456MOL0     H62901  11.471   8.808   2.285  4.9469 -2.9716 -0.8265
  456MOL0     H62902  11.564   8.664   2.544 -2.2865 -0.7396 -0.3930
  456MOL0     H62903  11.670   8.781   2.451 -1.4039  2.7453 -2.9682
  456MOL0     H62904  11.635   8.623   2.238  1.8548 -0.7366 -1.1415
  456MOL0     H62905  11.535   8.528   2.347 -0.1201 -0.3038 -0.4149
  456MOL0     H62906  11.753   8.442   2.314 -0.7139  1.1410 -1.2697
  456MOL0     H62907  11.740   8.483   2.489  0.0904 -1.8249 -1.0527
  456MOL0     H62908  10.925   9.294   2.419  2.0172 -1.9278  1.6013
  456MOL0     H62909  10.682   9.375   2.398  1.8387  0.8747 -0.7039
  456MOL0     H62910  10.332   9.515   2.455 -0.3619  0.2224 -1.7302
  456MOL0     H62911  10.121   9.620   2.414  0.4091  0.7075  0.4938
  456MOL0     H62912   9.533  10.314   3.819 -1.6739 -2.4507 -0.7426
  456MOL0     H62913   9.422  10.294   4.023  1.1436  1.2971  1.1428
  456MOL0     H62914   9.225  10.565   4.351  2.3673  0.7199  3.5353
  456MOL0     H62915   9.119  10.597   4.580 -1.4047  0.2130 -0.8485
  456MOL0     H62916   9.002  10.249   4.844 -2.3520  1.2624 -1.9010
  456MOL0     H62917   9.152  10.260   4.740 -0.3089  0.8484 -2.5468
  456MOL0     H62918   9.172  10.324   5.000 -0.9435 -0.9134 -0.6696
  456MOL0     H62919   9.094  10.476   4.946  1.3631  1.4495 -1.6552
  456MOL0     H62920   9.338  10.385   4.794 -0.3391 -0.1065  1.1904
  456MOL0     H62921   9.254  10.540   4.808  0.3232  0.2123 -1.0251
  456MOL0     H62922   9.369  10.427   5.063 -0.3515 -0.0313 -0.5337
  456MOL0     H62923   9.350  10.591   5.010  3.5014  2.9469 -2.5311
  456MOL0     H62924   9.714  10.538   4.812  1.0227 -0.2855  0.6416
  456MOL0     H62925   8.977  10.197   4.578  0.8520 -0.9063  0.2543
  456MOL0     H62926   9.123  10.086   4.301  1.7500  1.6903  0.2965
  456MOL0     H62927   8.968  10.075   4.376 -0.9256 -1.9600 -3.5838
  456MOL0     H62928   8.974  10.175   4.231 -0.6471 -0.1615  0.4178
  457MOL0     O62929   6.642   1.381   4.071  0.1929 -0.6042 -0.7591
  457MOL0     C62930   6.612   1.385   4.188  0.0239 -1.2975 -0.9376
  457MOL0     O62931   6.703   1.392   4.292 -0.4568 -0.9490 -0.1483
  457MOL0     C62932   6.841   1.381   4.264 -0.1413 -0.2116 -0.6400
  457MOL0     C62933   6.918   1.492   4.231 -0.5238  0.6284 -0.3164
  457MOL0     C62934   7.050   1.470   4.211 -0.2376  0.5254  0.8478
  457MOL0     C62935   7.107   1.340   4.223  0.5357 -0.0111  0.6136
  457MOL0     O62936   7.241   1.329   4.203 -0.1875 -0.5881 -0.4721
  457MOL0     C62937   7.305   1.196   4.196  0.6482 -0.6279  0.6011
  457MOL0     C62938   7.427   1.193   4.106  0.1487  0.2512 -0.1116
  457MOL0     C62939   7.547   1.271   4.164  0.9142 -0.2461  0.3811
  457MOL0     C62940   7.685   1.228   4.131 -0.6006 -0.3536 -0.0555
  457MOL0     C62941   7.793   1.295   4.227 -0.1392 -0.2420 -0.0782
  457MOL0     C62942   7.922   1.213   4.197  0.3003  0.1106  0.4336
  457MOL0     C62943   8.048   1.274   4.268  0.5129  0.0983 -0.6932
  457MOL0     C62944   8.064   1.429   4.247 -0.8464  0.5420  0.4305
  457MOL0     N62945   8.196   1.476   4.284  0.9491 -0.1425  0.0303
  457MOL0     C62946   8.314   1.459   4.216 -0.1088  0.4186 -0.6960
  457MOL0     C62947   8.407   1.526   4.291 -0.4668  0.3314 -0.3236
  457MOL0     C62948   8.552   1.557   4.254  0.7931  0.6373  0.1812
  457MOL0     C62949   8.649   1.576   4.373  0.0462  0.4218 -0.4107
  457MOL0     C62950   8.794   1.576   4.334  0.5566 -0.3157 -0.0051
  457MOL0     C62951   8.872   1.500   4.428 -0.5604  0.6995 -0.2877
  457MOL0     O62952   9.005   1.543   4.426 -0.5636 -0.0099 -0.3778
  457MOL0     C62953   9.098   1.479   4.497 -0.2852 -0.2952  0.4938
  457MOL0     C62954   9.076   1.358   4.555  0.1536 -0.5000  0.0192
  457MOL0     C62955   9.154   1.308   4.660 -0.0923 -0.1586  0.0930
  457MOL0     C62956   9.103   1.196   4.734  0.4854  0.0559  0.2613
  457MOL0     C62957   9.279   1.375   4.688 -0.0215 -0.5654  0.1362
  457MOL0     C62958   9.375   1.323   4.791  0.2406  0.5204 -0.4385
  457MOL0     O62959   9.491   1.376   4.773 -0.2295 -0.0504  0.0684
  457MOL0     C62960   9.585   1.348   4.867 -0.4517  0.5707 -0.6028
  457MOL0     C62961   9.665   1.228   4.871  0.7909 -0.2109 -0.3446
  457MOL0     C62962   9.757   1.212   4.969 -0.4698 -0.1957  0.5208
  457MOL0     C62963   9.770   1.307   5.077 -0.6751  0.3836  0.9886
  457MOL0     O62964   9.849   1.284   5.184  0.6849  0.1239  0.2136
  457MOL0     C62965   9.912   1.160   5.204  0.1652  0.4009  0.6494
  457MOL0     C62966  10.007   1.165   5.323 -0.3716 -0.1945  0.1050
  457MOL0     C62967  10.098   1.046   5.321  0.2740  0.4776 -0.3518
  457MOL0     C62968  10.209   1.073   5.427 -0.4013  0.5710 -0.3097
  457MOL0     C62969  10.298   0.940   5.445  0.0981 -0.4477 -0.5351
  457MOL0     C62970  10.351   0.881   5.315 -1.2571 -0.0607 -0.0077
  457MOL0     C62971  10.446   0.760   5.352  0.3485  0.2989  0.2811
  457MOL0     C62972  10.592   0.819   5.356 -0.2397 -0.1020 -0.2193
  457MOL0    Cl62973  10.702   0.700   5.444  0.3981  0.4348  0.1609
  457MOL0     C62974   9.700   1.422   5.074 -0.1793 -0.0778  0.2524
  457MOL0     C62975   9.606   1.441   4.971 -0.1765  0.2893  0.2181
  457MOL0     O62976   9.348   1.245   4.881  0.2774  0.1621 -0.2448
  457MOL0     C62977   9.304   1.489   4.609  0.4241 -1.0642 -0.9198
  457MOL0     C62978   9.220   1.541   4.514  0.4799  0.7068 -0.1692
  457MOL0     N62979   8.340   1.569   4.405 -0.2869  0.5485 -0.3089
  457MOL0     N62980   8.220   1.541   4.398  1.1512 -0.0328  0.0448
  457MOL0     C62981   7.036   1.227   4.258  0.0192  0.1404  0.1560
  457MOL0     C62982   6.900   1.259   4.294  0.4041  0.6000 -0.0762
  457MOL0     C62983   6.465   1.367   4.227 -0.1433 -0.1169 -0.2440
  457MOL0     C62984   6.443   1.366   4.366  0.5612 -0.1073  1.2807
  457MOL0     C62985   6.311   1.348   4.411  0.7924  0.3291 -0.2420
  457MOL0     C62986   6.199   1.339   4.333 -0.3543 -0.7721 -0.3794
  457MOL0     O62987   6.075   1.325   4.389  1.0266 -1.2217  0.0841
  457MOL0     C62988   5.969   1.280   4.296  1.2122 -0.0417 -0.7406
  457MOL0     C62989   5.845   1.250   4.372  0.1742  0.5178  0.3982
  457MOL0     C62990   5.725   1.250   4.286  1.1831  0.1350 -0.2455
  457MOL0     C62991   5.613   1.336   4.343 -1.2219  0.5006 -0.0630
  457MOL0     C62992   5.505   1.347   4.252 -0.2098 -0.1460  0.1801
  457MOL0     C62993   5.402   1.357   4.190 -0.8410 -0.2275  0.1089
  457MOL0     C62994   6.224   1.356   4.193  0.2623  0.0305 -0.3123
  457MOL0     C62995   6.352   1.364   4.135 -0.7257  0.3919 -0.7135
  457MOL0     C62996   6.364   1.349   3.990 -0.6625  0.2521 -0.1155
  457MOL0     H62997   6.886   1.595   4.242  1.0910  1.1206  0.0132
  457MOL0     H62998   7.125   1.547   4.199  1.8270 -1.3149  1.2637
  457MOL0     H62999   7.239   1.123   4.148  1.1491  0.0100 -1.1316
  457MOL0     H63000   7.323   1.172   4.301  4.2069  1.1575  0.5516
  457MOL0     H63001   7.451   1.086   4.100 -0.5116  0.1324 -1.0227
  457MOL0     H63002   7.409   1.218   4.001  0.8829  0.2507 -0.2412
  457MOL0     H63003   7.536   1.379   4.148 -0.8765 -0.0812  2.2983
  457MOL0     H63004   7.540   1.263   4.273  1.1428 -0.7698  0.3612
  457MOL0     H63005   7.684   1.118   4.136 -1.3844 -0.2967  1.2245
  457MOL0     H63006   7.714   1.262   4.031 -1.9288  1.3893  0.1020
  457MOL0     H63007   7.760   1.281   4.330 -0.4476 -1.8329 -0.3538
  457MOL0     H63008   7.799   1.401   4.202  0.4333 -0.4660 -0.9489
  457MOL0     H63009   7.894   1.115   4.236 -1.6551  0.7131  0.6562
  457MOL0     H63010   7.956   1.193   4.095  0.6348 -2.2063  0.9498
  457MOL0     H63011   8.140   1.225   4.235 -1.0074 -3.7880  0.1936
  457MOL0     H63012   8.037   1.254   4.375  0.0395 -2.4301 -1.1332
  457MOL0     H63013   8.057   1.447   4.140 -0.8788  0.7837  0.4739
  457MOL0     H63014   7.988   1.495   4.290  1.0710  1.9399  1.8769
  457MOL0     H63015   8.346   1.423   4.119  1.6798 -0.6135  0.1992
  457MOL0     H63016   8.548   1.652   4.199 -0.3372  0.6836  0.3152
  457MOL0     H63017   8.591   1.476   4.192  0.6518 -1.0201  2.1706
  457MOL0     H63018   8.629   1.667   4.432  0.4360  0.4725 -0.3573
  457MOL0     H63019   8.631   1.494   4.443  0.0297 -0.3332 -1.2882
  457MOL0     H63020   8.808   1.544   4.231  1.0009  0.4881 -0.2046
  457MOL0     H63021   8.837   1.676   4.347  0.9214 -0.7547  2.7726
  457MOL0     H63022   8.843   1.511   4.533 -0.2449  0.6232 -0.1914
  457MOL0     H63023   8.865   1.397   4.391  1.4017  0.6373 -0.5534
  457MOL0     H63024   8.980   1.310   4.540 -0.6718  1.3540 -1.1540
  457MOL0     H63025   9.073   1.243   4.828 -1.1993 -0.6326  0.1123
  457MOL0     H63026   9.182   1.130   4.771 -0.3236 -1.8625 -1.2519
  457MOL0     H63027   9.015   1.149   4.689 -1.7029  2.3017  1.9079
  457MOL0     H63028   9.631   1.153   4.799 -4.5527 -0.1103  1.6320
  457MOL0     H63029   9.804   1.114   4.960  0.7283  0.3999 -0.0607
  457MOL0     H63030   9.835   1.084   5.219  1.1622 -0.4855  1.5043
  457MOL0     H63031   9.957   1.123   5.112 -2.2691 -3.2170  0.7143
  457MOL0     H63032  10.070   1.254   5.320 -0.0104 -0.4702 -1.6214
  457MOL0     H63033   9.949   1.164   5.416 -1.8969 -1.4367 -0.8153
  457MOL0     H63034  10.145   1.026   5.225 -1.0515  1.6177 -1.2748
  457MOL0     H63035  10.042   0.964   5.368 -0.8288  1.7100  0.5977
  457MOL0     H63036  10.169   1.091   5.528  0.3788  0.7988 -0.0334
  457MOL0     H63037  10.269   1.160   5.402  0.2607  0.1435 -0.2209
  457MOL0     H63038  10.387   0.965   5.503 -0.1115  0.9195 -0.7646
  457MOL0     H63039  10.238   0.866   5.499  0.8305 -0.3588  0.4289
  457MOL0     H63040  10.405   0.961   5.263 -0.9418 -0.3344 -0.0979
  457MOL0     H63041  10.267   0.846   5.255 -0.4658 -0.1439 -1.0912
  457MOL0     H63042  10.442   0.685   5.273  0.9233  0.5322  0.0193
  457MOL0     H63043  10.412   0.718   5.447  1.8553 -1.4402  0.1055
  457MOL0     H63044  10.592   0.923   5.390 -0.3475  0.4527 -1.8365
  457MOL0     H63045  10.630   0.835   5.255 -0.7244 -3.2838 -1.0121
  457MOL0     H63046   9.718   1.490   5.157 -1.6240  1.3103 -0.5214
  457MOL0     H63047   9.544   1.530   4.978 -0.0554  0.3299  0.7912
  457MOL0     H63048   9.395   1.546   4.625  0.9442 -1.9504 -0.6629
  457MOL0     H63049   9.250   1.638   4.475 -0.9493  1.9779  1.6721
  457MOL0     H63050   7.082   1.129   4.264  3.0957  1.5119  0.3819
  457MOL0     H63051   6.845   1.180   4.345 -3.1131  2.8037 -0.0776
  457MOL0     H63052   6.517   1.386   4.444  0.2947  0.7582  1.3245
  457MOL0     H63053   6.300   1.340   4.519 -0.4545 -2.8119 -0.4945
  457MOL0     H63054   5.947   1.368   4.234  0.0665  0.8327  0.8467
  457MOL0     H63055   6.008   1.193   4.242  1.1293 -0.3203 -0.3552
  457MOL0     H63056   5.835   1.324   4.452 -0.7708  0.2134  0.5656
  457MOL0     H63057   5.866   1.153   4.417  1.9785 -0.3378 -2.0562
  457MOL0     H63058   5.756   1.272   4.183  2.8300 -1.6478 -0.1962
  457MOL0     H63059   5.683   1.149   4.281  0.3343  0.4581  0.2543
  457MOL0     H63060   5.663   1.431   4.367  2.3885 -1.4266  0.8956
  457MOL0     H63061   5.575   1.303   4.440 -3.8111  2.1512 -0.4112
  457MOL0     H63062   5.312   1.360   4.132 -0.0320  1.5916 -1.1390
  457MOL0     H63063   6.140   1.368   4.127  1.5562  0.2834 -1.9739
  457MOL0     H63064   6.266   1.327   3.946 -1.3594 -0.3408  1.6631
  457MOL0     H63065   6.396   1.439   3.936  1.8682 -0.4666  0.0447
  457MOL0     H63066   6.435   1.268   3.972  0.2675  1.0983 -0.4105
  458MOL0     O63067  11.252   1.284   7.941 -0.5705 -0.5531  0.2482
  458MOL0     C63068  11.267   1.167   7.895  0.2621 -0.0860 -0.3663
  458MOL0     O63069  11.381   1.092   7.889 -0.9076  0.1233  0.1005
  458MOL0     C63070  11.488   1.154   7.955 -0.6202  0.4874 -0.3109
  458MOL0     C63071  11.503   1.146   8.090 -0.1768  0.4204 -0.9579
  458MOL0     C63072  11.608   1.207   8.160  0.2062  0.0805  0.4612
  458MOL0     C63073  11.708   1.268   8.081 -0.5660 -0.0254 -0.4201
  458MOL0     O63074  11.818   1.316   8.141  0.0074 -0.3628  0.1076
  458MOL0     C63075  11.939   1.281   8.081  1.1826 -0.5482 -0.6579
  458MOL0     C63076  12.053   1.311   8.177  0.3517 -0.2875 -0.7600
  458MOL0     C63077  12.183   1.274   8.102  0.2604 -0.0189  0.3434
  458MOL0     C63078  12.324   1.285   8.182  0.2992  0.3440 -0.2559
  458MOL0     C63079  12.442   1.283   8.088  0.5593  0.1139  0.1757
  458MOL0     C63080  12.475   1.139   8.037 -0.1412  0.3284  0.2303
  458MOL0     C63081  12.598   1.169   7.937 -0.9278  0.0738  0.0011
  458MOL0     C63082  12.740   1.144   8.004 -1.1128 -0.2207  0.9481
  458MOL0     N63083  12.795   1.256   8.083  0.1950  0.3239  1.1213
  458MOL0     C63084  12.890   1.347   8.051  0.4484 -0.7667  0.3920
  458MOL0     C63085  12.913   1.421   8.165 -0.6469 -0.4058 -0.4748
  458MOL0     C63086  13.014   1.533   8.191 -0.9221 -0.0716  0.1492
  458MOL0     C63087  13.147   1.494   8.257  0.3249 -0.2501  0.1244
  458MOL0     C63088  13.251   1.615   8.275  0.3575  0.1834  1.4224
  458MOL0     C63089  13.383   1.551   8.331  0.3192 -0.1683  0.2107
  458MOL0     O63090  13.497   1.636   8.330  0.4763 -0.1699  0.0555
  458MOL0     C63091  13.613   1.579   8.347 -0.9119 -0.5308  0.0880
  458MOL0     C63092  13.636   1.448   8.411 -0.4923 -1.0421  0.1496
  458MOL0     C63093  13.765   1.394   8.411  0.2329 -0.6514  0.3414
  458MOL0     C63094  13.772   1.264   8.483  0.3714  0.6977 -0.1723
  458MOL0     C63095  13.874   1.460   8.348  0.0542 -0.6673 -0.6477
  458MOL0     C63096  14.006   1.403   8.317 -0.1832 -0.0675  0.5645
  458MOL0     O63097  14.102   1.485   8.267  0.5971  0.5686  0.4754
  458MOL0     C63098  14.220   1.448   8.218  0.3802  0.5708  0.2726
  458MOL0     C63099  14.279   1.316   8.221  1.1689 -0.1497  1.1273
  458MOL0     C63100  14.407   1.298   8.172 -0.1839  0.6554  0.1299
  458MOL0     C63101  14.472   1.406   8.107 -0.7196 -0.9397  0.1576
  458MOL0     O63102  14.583   1.359   8.037  0.1793 -0.0955 -0.1005
  458MOL0     C63103  14.675   1.462   8.002  0.3829  0.4625 -0.3029
  458MOL0     C63104  14.787   1.405   7.922  0.2351 -0.0657  0.2791
  458MOL0     C63105  14.883   1.317   8.002 -0.8085 -0.1442  0.4684
  458MOL0     C63106  15.012   1.279   7.919  0.4568  0.0753  0.0905
  458MOL0     C63107  15.137   1.227   8.004  0.9015 -0.3183  0.0961
  458MOL0     C63108  15.210   1.349   8.060  0.2644  0.1631  0.5163
  458MOL0     C63109  15.323   1.309   8.150  0.0556 -0.3992 -0.5575
  458MOL0     C63110  15.379   1.430   8.218  0.0289 -0.1809 -0.6014
  458MOL0    Cl63111  15.256   1.513   8.316  0.1887 -0.0170  0.0703
  458MOL0     C63112  14.410   1.531   8.092  0.2072  0.4901  0.1005
  458MOL0     C63113  14.297   1.551   8.161 -0.1936  0.5747  1.1013
  458MOL0     O63114  14.018   1.281   8.334  0.0535  0.4646 -0.2832
  458MOL0     C63115  13.858   1.595   8.318 -0.1689 -0.6773  0.0914
  458MOL0     C63116  13.734   1.648   8.302  0.2968 -0.8138  0.6453
  458MOL0     N63117  12.838   1.371   8.266  0.5940  0.1845 -0.2546
  458MOL0     N63118  12.778   1.267   8.219  0.9635  0.6092 -0.2840
  458MOL0     C63119  11.696   1.278   7.941  0.7484 -0.5065 -0.0579
  458MOL0     C63120  11.583   1.221   7.884 -0.1654  0.9835  1.0448
  458MOL0     C63121  11.153   1.102   7.832 -0.1691  0.4527 -0.1007
  458MOL0     C63122  11.086   1.178   7.743  0.7206  0.1430  0.3637
  458MOL0     C63123  10.979   1.120   7.669 -0.0967  0.2217  0.4647
  458MOL0     C63124  10.935   0.987   7.695  0.1643 -0.3267  0.2299
  458MOL0     O63125  10.829   0.922   7.650 -0.1849 -0.1152  0.3564
  458MOL0     C63126  10.724   1.001   7.583  0.3965  0.5055  0.8640
  458MOL0     C63127  10.613   0.910   7.532  0.0700 -0.4713 -0.4514
  458MOL0     C63128  10.523   0.963   7.433  0.1135 -0.5716  0.6097
  458MOL0     C63129  10.399   0.869   7.420  0.1106 -0.5489 -0.6935
  458MOL0     C63130  10.287   0.946   7.376 -0.6018  0.9963 -0.4244
  458MOL0     C63131  10.188   1.004   7.340 -0.0562  0.0572 -0.2660
  458MOL0     C63132  11.009   0.916   7.789  0.1478  0.4159  0.6639
  458MOL0     C63133  11.116   0.967   7.851 -0.4253 -0.5782  1.0271
  458MOL0     C63134  11.198   0.881   7.941  0.0385  0.5422  0.5231
  458MOL0     H63135  11.433   1.089   8.149  3.0230  0.0459  2.9125
  458MOL0     H63136  11.642   1.200   8.263  2.9639  1.1485 -0.2821
  458MOL0     H63137  11.958   1.334   7.987  2.0390 -0.4874 -0.4595
  458MOL0     H63138  11.943   1.177   8.049  1.5561 -0.2410 -1.6608
  458MOL0     H63139  12.032   1.415   8.205  0.3352 -0.4989  0.0482
  458MOL0     H63140  12.052   1.246   8.265 -3.6448  1.5528  0.8477
  458MOL0     H63141  12.180   1.168   8.075 -1.0367 -0.4748  2.0961
  458MOL0     H63142  12.196   1.333   8.011  0.9688  1.8766  1.6233
  458MOL0     H63143  12.325   1.384   8.229 -0.8467  0.6436 -0.8319
  458MOL0     H63144  12.333   1.209   8.261 -1.2682 -1.4818 -1.7292
  458MOL0     H63145  12.527   1.332   8.137 -0.9370 -0.4235  3.6023
  458MOL0     H63146  12.414   1.354   8.010 -0.9735 -0.0136  0.5658
  458MOL0     H63147  12.483   1.069   8.120 -1.8162 -1.4816 -1.0510
  458MOL0     H63148  12.392   1.106   7.974  1.8985  0.6810 -2.8668
  458MOL0     H63149  12.602   1.266   7.888 -0.0339 -1.0896 -2.3940
  458MOL0     H63150  12.589   1.112   7.844 -0.2646  1.4703 -0.9478
  458MOL0     H63151  12.733   1.060   8.073  0.3899 -1.0959  0.1010
  458MOL0     H63152  12.813   1.132   7.923  1.7346 -1.3717  3.4611
  458MOL0     H63153  12.947   1.348   7.959  0.3267 -0.6907  0.3164
  458MOL0     H63154  12.971   1.614   8.251 -0.3059  0.2492  0.1602
  458MOL0     H63155  13.043   1.574   8.094 -1.3167 -1.6170 -0.6597
  458MOL0     H63156  13.129   1.450   8.355  0.5390  0.3218  0.4280
  458MOL0     H63157  13.194   1.417   8.196 -0.9880 -0.5462 -0.5284
  458MOL0     H63158  13.263   1.669   8.181  1.6668 -0.9700  0.8949
  458MOL0     H63159  13.211   1.679   8.355  0.2482  0.7857  0.8906
  458MOL0     H63160  13.358   1.521   8.433 -1.9760  0.3194 -0.1631
  458MOL0     H63161  13.411   1.464   8.271 -2.1522 -0.7953 -0.1053
  458MOL0     H63162  13.558   1.404   8.473 -1.5069  0.7911  0.2137
  458MOL0     H63163  13.690   1.244   8.552  1.5195 -2.0033  0.5447
  458MOL0     H63164  13.864   1.260   8.543  0.5131 -2.3536 -0.4238
  458MOL0     H63165  13.770   1.188   8.404  0.5763  0.7291 -0.2091
  458MOL0     H63166  14.236   1.222   8.254 -1.3295  0.7954  0.8338
  458MOL0     H63167  14.457   1.204   8.191 -2.9185 -0.7165  1.1549
  458MOL0     H63168  14.631   1.544   7.945 -1.6484 -0.7303 -0.5410
  458MOL0     H63169  14.716   1.501   8.096 -1.1960  1.3506  0.0519
  458MOL0     H63170  14.759   1.358   7.827  0.0175  2.1716 -0.8466
  458MOL0     H63171  14.834   1.499   7.891 -0.9928  0.3565 -0.3942
  458MOL0     H63172  14.843   1.224   8.043 -2.1598  0.4579  0.5933
  458MOL0     H63173  14.913   1.384   8.083  0.0881  0.1446 -0.0854
  458MOL0     H63174  15.044   1.371   7.870  2.4659 -0.4592  0.3276
  458MOL0     H63175  14.975   1.204   7.848 -1.1492 -0.4782  1.4274
  458MOL0     H63176  15.100   1.166   8.088 -0.6488  0.8310  0.2919
  458MOL0     H63177  15.204   1.161   7.948  0.5013 -1.6334  1.0913
  458MOL0     H63178  15.136   1.419   8.101 -2.0141 -0.6900 -1.8263
  458MOL0     H63179  15.250   1.402   7.973 -0.3502  1.6246  1.0905
  458MOL0     H63180  15.403   1.257   8.096 -0.6831  0.0793 -2.1796
  458MOL0     H63181  15.285   1.241   8.226 -0.4711  0.3180 -0.1690
  458MOL0     H63182  15.437   1.494   8.150  0.9454  1.4678  1.6214
  458MOL0     H63183  15.448   1.390   8.293  0.1853  2.7611  0.9720
  458MOL0     H63184  14.445   1.622   8.045 -2.5976  1.5020 -0.2462
  458MOL0     H63185  14.255   1.649   8.181  0.2847  0.7342  1.3279
  458MOL0     H63186  13.938   1.655   8.276  0.5890  0.2612  2.6526
  458MOL0     H63187  13.726   1.750   8.267 -0.7948  0.0411  3.1900
  458MOL0     H63188  11.779   1.317   7.883  1.4399  0.6213  1.6094
  458MOL0     H63189  11.582   1.219   7.775  0.2557 -0.4852  1.0405
  458MOL0     H63190  11.108   1.283   7.724 -0.2048  0.0947 -1.1346
  458MOL0     H63191  10.919   1.187   7.608  3.4409 -0.2534 -4.1342
  458MOL0     H63192  10.681   1.074   7.652 -0.3101  1.4943 -0.5990
  458MOL0     H63193  10.782   1.048   7.504 -0.0885 -0.0028  0.1964
  458MOL0     H63194  10.561   0.862   7.615 -1.2788 -2.3690 -2.2812
  458MOL0     H63195  10.662   0.825   7.481 -1.6878 -2.0084  0.3214
  458MOL0     H63196  10.489   1.063   7.460  1.0865 -0.2509  0.6665
  458MOL0     H63197  10.568   0.980   7.335  0.3328  0.6574  0.9057
  458MOL0     H63198  10.374   0.832   7.520 -0.0501  1.4998  0.0757
  458MOL0     H63199  10.419   0.788   7.349 -1.2693 -0.7800 -0.8525
  458MOL0     H63200  10.102   1.064   7.319  0.3013  0.8450  0.4611
  458MOL0     H63201  10.972   0.815   7.808 -4.5313  2.2048  2.4390
  458MOL0     H63202  11.148   0.789   7.972 -0.1540  0.7275  0.7705
  458MOL0     H63203  11.292   0.849   7.896 -0.7411 -2.9104  1.0384
  458MOL0     H63204  11.212   0.930   8.037  1.0477  0.9087  0.1956
  459MOL0     O63205   7.040   6.087   1.392  0.8121 -0.0699 -0.5481
  459MOL0     C63206   7.012   6.196   1.350 -0.2511 -0.0417 -0.5075
  459MOL0     O63207   7.107   6.289   1.317 -0.1670  0.4270  0.0668
  459MOL0     C63208   7.236   6.259   1.302 -0.9491  0.2889  1.1751
  459MOL0     C63209   7.330   6.299   1.402  0.2611  0.0533 -0.2719
  459MOL0     C63210   7.462   6.275   1.383 -0.3679 -0.1908  0.5721
  459MOL0     C63211   7.516   6.205   1.271  0.9700 -0.2648 -0.0551
  459MOL0     O63212   7.645   6.172   1.249 -0.2527 -0.5062  0.0299
  459MOL0     C63213   7.729   6.148   1.365  0.3912 -0.1237  0.3894
  459MOL0     C63214   7.850   6.083   1.312 -0.3314  0.3766 -0.1415
  459MOL0     C63215   7.951   6.071   1.431  0.1534 -0.4326  0.1296
  459MOL0     C63216   8.062   5.974   1.393 -0.2512 -0.1905  0.4821
  459MOL0     C63217   8.175   5.953   1.498 -0.6920  0.2956  0.6649
  459MOL0     C63218   8.248   6.093   1.531 -0.4196  1.0161  0.1275
  459MOL0     C63219   8.357   6.066   1.638 -0.4059 -0.4181  0.6033
  459MOL0     C63220   8.440   6.182   1.671 -0.7215 -0.0199  0.4330
  459MOL0     N63221   8.540   6.205   1.558 -1.2481  0.3162 -0.3752
  459MOL0     C63222   8.638   6.121   1.508  0.7610 -0.1146  1.1106
  459MOL0     C63223   8.686   6.184   1.399 -0.2915 -0.7294 -0.8413
  459MOL0     C63224   8.800   6.134   1.320 -0.1873  0.0404  1.5976
  459MOL0     C63225   8.930   6.221   1.340 -0.4162 -0.6464 -0.0432
  459MOL0     C63226   8.982   6.239   1.484 -0.0103  0.4290  0.9416
  459MOL0     C63227   9.031   6.107   1.539 -0.3462  0.4016 -0.1788
  459MOL0     O63228   9.136   6.034   1.466  0.3801  0.6131 -0.9642
  459MOL0     C63229   9.259   6.098   1.455  0.7982  0.0727 -0.3431
  459MOL0     C63230   9.357   6.112   1.555 -0.0709 -0.2416  0.3178
  459MOL0     C63231   9.481   6.178   1.539  0.2970  0.0646  0.8503
  459MOL0     C63232   9.584   6.192   1.651 -0.1195 -0.6624 -0.4826
  459MOL0     C63233   9.504   6.241   1.411 -1.1432  0.0374 -0.1566
  459MOL0     C63234   9.634   6.311   1.374  0.0496  0.2105 -0.8314
  459MOL0     O63235   9.646   6.419   1.289 -0.2467 -0.1495 -0.1639
  459MOL0     C63236   9.769   6.485   1.271 -0.0304  1.0435  0.5490
  459MOL0     C63237   9.858   6.415   1.189 -0.4849  0.4707  0.0625
  459MOL0     C63238   9.981   6.476   1.157  0.4277  0.0295  0.6083
  459MOL0     C63239  10.005   6.613   1.205  0.1477 -0.3734 -0.5916
  459MOL0     O63240  10.126   6.669   1.158  0.1444 -0.0887  0.5625
  459MOL0     C63241  10.128   6.810   1.139  0.0866 -0.7168  0.0717
  459MOL0     C63242  10.210   6.837   1.021  0.1661  0.5740  0.1587
  459MOL0     C63243  10.227   6.980   0.995 -1.0175 -0.1912  0.9825
  459MOL0     C63244  10.334   7.047   1.075  0.2588 -1.2630  0.9143
  459MOL0     C63245  10.393   7.188   1.025 -0.0361  0.1966  1.0958
  459MOL0     C63246  10.518   7.224   1.115  0.7177 -0.1162 -0.6285
  459MOL0     C63247  10.584   7.349   1.055 -0.1394  0.5792 -0.2999
  459MOL0     C63248  10.526   7.480   1.102 -0.1402 -0.1779  0.3159
  459MOL0    Cl63249  10.360   7.511   1.044  0.1109  0.4848 -0.2145
  459MOL0     C63250   9.911   6.670   1.292  0.0146 -0.4795  0.1694
  459MOL0     C63251   9.786   6.608   1.318  0.2507 -0.0411 -0.0926
  459MOL0     O63252   9.733   6.241   1.405  0.6967  0.2355 -0.1048
  459MOL0     C63253   9.413   6.216   1.311  0.9151  0.4958 -0.8654
  459MOL0     C63254   9.288   6.144   1.332 -0.4228 -0.4446  0.0197
  459MOL0     N63255   8.632   6.310   1.402 -1.1256 -0.3338 -0.2528
  459MOL0     N63256   8.547   6.323   1.500  0.6543 -0.2815  0.6304
  459MOL0     C63257   7.421   6.172   1.167  1.0989 -0.6868 -0.0444
  459MOL0     C63258   7.278   6.199   1.183 -0.7652  1.4279  0.3605
  459MOL0     C63259   6.872   6.241   1.351 -0.4678 -0.4305  1.5205
  459MOL0     C63260   6.836   6.381   1.336  0.5673  0.4390  0.1979
  459MOL0     C63261   6.702   6.427   1.325  0.9678 -0.4151 -0.1533
  459MOL0     C63262   6.593   6.338   1.340 -0.1172  0.1240  0.3587
  459MOL0     O63263   6.463   6.370   1.323  0.5552  0.4655  0.5297
  459MOL0     C63264   6.430   6.508   1.346 -0.0060  0.3052  0.1808
  459MOL0     C63265   6.278   6.522   1.328 -0.0616  0.0443 -1.5406
  459MOL0     C63266   6.233   6.500   1.185 -0.2947 -0.0300  0.2319
  459MOL0     C63267   6.076   6.495   1.167  0.2878 -0.0701  0.7498
  459MOL0     C63268   5.999   6.594   1.245 -0.0160 -0.4252  1.2259
  459MOL0     C63269   5.941   6.676   1.304 -0.4288 -0.5421 -0.5946
  459MOL0     C63270   6.633   6.204   1.351  0.5773  0.1971  0.2737
  459MOL0     C63271   6.764   6.147   1.364 -0.9467 -0.6487  0.1150
  459MOL0     C63272   6.773   6.002   1.396  0.0640  0.2705  0.7460
  459MOL0     H63273   7.302   6.359   1.488  0.9618  0.9509 -0.6490
  459MOL0     H63274   7.533   6.312   1.456  1.3861 -1.6388 -0.3240
  459MOL0     H63275   7.679   6.075   1.430  2.0123 -0.9830  0.7321
  459MOL0     H63276   7.749   6.237   1.424  0.9920 -1.8847  3.0321
  459MOL0     H63277   7.806   5.985   1.290 -0.9777  0.2032  1.7749
  459MOL0     H63278   7.895   6.122   1.220  2.5597  1.5920  1.6360
  459MOL0     H63279   7.995   6.171   1.444 -4.0766  1.5533  0.7411
  459MOL0     H63280   7.906   6.040   1.525  1.6672 -2.6361  0.2039
  459MOL0     H63281   8.018   5.874   1.391  2.5694 -1.5331  0.4308
  459MOL0     H63282   8.109   6.005   1.299 -2.1940 -1.2580 -0.9262
  459MOL0     H63283   8.252   5.890   1.452 -0.7791  1.0437 -0.5470
  459MOL0     H63284   8.141   5.914   1.594  1.4016  2.8652  2.5961
  459MOL0     H63285   8.294   6.133   1.440 -0.5106  2.4568  0.6872
  459MOL0     H63286   8.177   6.166   1.572 -1.7759  0.1131 -0.5340
  459MOL0     H63287   8.433   5.998   1.599  2.1961  2.4258  0.3151
  459MOL0     H63288   8.300   6.023   1.721  0.9970 -0.3467  1.6472
  459MOL0     H63289   8.375   6.269   1.662 -1.2904 -0.5316 -0.4767
  459MOL0     H63290   8.500   6.179   1.763  2.7782 -0.4088 -1.6542
  459MOL0     H63291   8.655   6.021   1.545 -1.9535 -1.5672 -1.1361
  459MOL0     H63292   8.773   6.140   1.214 -1.1477 -4.2137  1.4284
  459MOL0     H63293   8.812   6.027   1.339 -1.9576 -1.1448 -2.7855
  459MOL0     H63294   9.013   6.186   1.278 -0.2905 -0.1630 -0.1563
  459MOL0     H63295   8.903   6.317   1.295 -0.7572 -0.7552 -0.0692
  459MOL0     H63296   9.071   6.302   1.476 -0.0487  0.6464  2.0681
  459MOL0     H63297   8.908   6.285   1.550 -0.0265  1.6551  0.0983
  459MOL0     H63298   9.069   6.121   1.640 -3.6750 -0.5682  1.3154
  459MOL0     H63299   8.939   6.049   1.549 -0.5068  0.6524 -0.1963
  459MOL0     H63300   9.332   6.073   1.653  2.0156 -0.9064  0.6459
  459MOL0     H63301   9.550   6.143   1.743  0.5316 -1.8595 -0.8652
  459MOL0     H63302   9.624   6.292   1.672 -1.0558 -0.2314 -0.6828
  459MOL0     H63303   9.675   6.141   1.619  1.0322  1.0173 -0.0165
  459MOL0     H63304   9.840   6.314   1.153 -0.9383  0.5522  0.0505
  459MOL0     H63305  10.052   6.442   1.083 -0.3527 -1.2659  0.4416
  459MOL0     H63306  10.026   6.849   1.128  0.3271  0.4964  1.7122
  459MOL0     H63307  10.168   6.871   1.221 -1.2756 -0.1861  0.3676
  459MOL0     H63308  10.311   6.800   1.038 -0.4580 -0.9157  0.8472
  459MOL0     H63309  10.170   6.795   0.928  1.2203  0.2783 -0.1776
  459MOL0     H63310  10.129   7.024   1.016 -0.6429 -0.3125  3.2694
  459MOL0     H63311  10.240   6.992   0.887 -0.2891  0.7525  1.1620
  459MOL0     H63312  10.417   6.978   1.092  0.6474 -0.9040  0.5065
  459MOL0     H63313  10.292   7.069   1.173 -0.0112 -0.9369  0.7245
  459MOL0     H63314  10.431   7.182   0.923  2.4111  0.2506  1.9574
  459MOL0     H63315  10.310   7.260   1.021 -1.7361 -1.6972 -1.7605
  459MOL0     H63316  10.592   7.144   1.110  0.6285 -0.3500  1.1042
  459MOL0     H63317  10.495   7.232   1.222  1.8507 -0.5019 -0.3375
  459MOL0     H63318  10.598   7.347   0.946 -0.2468 -0.5107 -0.3039
  459MOL0     H63319  10.684   7.341   1.098 -0.4292 -0.3626  0.2201
  459MOL0     H63320  10.597   7.559   1.078  0.7854 -0.9604  0.3864
  459MOL0     H63321  10.525   7.464   1.210  3.9073 -2.7657  0.1799
  459MOL0     H63322   9.948   6.756   1.348  1.0807 -0.5723 -0.3594
  459MOL0     H63323   9.709   6.650   1.382 -1.6368 -1.2595 -1.4564
  459MOL0     H63324   9.435   6.240   1.207  5.0695  0.4847 -0.1723
  459MOL0     H63325   9.227   6.119   1.245  2.0158  3.7781 -3.3168
  459MOL0     H63326   7.444   6.118   1.076  0.6680  0.1847 -0.6866
  459MOL0     H63327   7.201   6.172   1.111  0.3654 -2.9843  0.5121
  459MOL0     H63328   6.916   6.453   1.325  1.1299  0.1961  2.2488
  459MOL0     H63329   6.683   6.531   1.304 -0.6306 -0.5898  0.2913
  459MOL0     H63330   6.452   6.550   1.444 -0.1500  0.7684  0.0195
  459MOL0     H63331   6.486   6.568   1.274  0.7791  0.3160  0.7861
  459MOL0     H63332   6.242   6.621   1.360  1.0772  0.2278 -0.7773
  459MOL0     H63333   6.220   6.449   1.384 -0.2418  0.1464 -1.5951
  459MOL0     H63334   6.275   6.580   1.124 -0.3137  1.3326  1.9275
  459MOL0     H63335   6.265   6.402   1.147 -1.0340 -1.0317  2.0735
  459MOL0     H63336   6.050   6.398   1.211  0.0486 -0.7005 -0.7095
  459MOL0     H63337   6.046   6.496   1.062 -2.1022  0.7172  1.3864
  459MOL0     H63338   5.888   6.748   1.363  1.9434 -0.1052  1.1869
  459MOL0     H63339   6.555   6.128   1.356  0.5863  0.0607 -1.1619
  459MOL0     H63340   6.674   5.957   1.405  0.3104 -0.4930 -0.1455
  459MOL0     H63341   6.826   5.945   1.318  1.6929  2.4822  0.1474
  459MOL0     H63342   6.809   5.990   1.499  1.0966  0.3353  0.4110
  460MOL0     O63343   5.679  10.812   6.052 -0.4532 -0.2765 -0.6541
  460MOL0     C63344   5.604  10.747   6.121 -0.0656  0.5280 -0.2182
  460MOL0     O63345   5.640  10.683   6.232 -0.0114 -0.0783  0.4341
  460MOL0     C63346   5.769  10.697   6.280  0.0161  1.4532  0.8430
  460MOL0     C63347   5.885  10.699   6.201  0.2892 -0.3788  0.0818
  460MOL0     C63348   6.017  10.709   6.251  0.4205  0.8623 -0.0096
  460MOL0     C63349   6.039  10.715   6.386  0.1352 -0.2315 -0.2110
  460MOL0     O63350   6.162  10.716   6.454 -0.0387 -0.5633  0.8321
  460MOL0     C63351   6.280  10.749   6.384  0.5256  0.6195 -0.2033
  460MOL0     C63352   6.392  10.759   6.488 -0.1372  0.2005  0.0190
  460MOL0     C63353   6.487  10.645   6.478  0.0283  0.3039  0.1060
  460MOL0     C63354   6.415  10.522   6.534 -0.8423 -0.5123 -0.3600
  460MOL0     C63355   6.501  10.389   6.550  0.9193 -0.5555  0.5205
  460MOL0     C63356   6.598  10.365   6.432  0.2464 -0.3164 -0.2785
  460MOL0     C63357   6.677  10.236   6.452  0.6526 -0.3067  0.7367
  460MOL0     C63358   6.777  10.254   6.574  0.1108 -0.2198  0.6911
  460MOL0     N63359   6.898  10.341   6.555  0.1374  0.6086 -0.3110
  460MOL0     C63360   7.031  10.301   6.590 -0.2142 -0.5919  0.3876
  460MOL0     C63361   7.106  10.409   6.565  0.7477 -0.8184 -0.2675
  460MOL0     C63362   7.249  10.424   6.599 -0.2371  0.2228  0.1777
  460MOL0     C63363   7.322  10.520   6.496 -0.2329  0.0420 -0.3219
  460MOL0     C63364   7.339  10.437   6.365  0.3857 -0.0825  1.4910
  460MOL0     C63365   7.455  10.499   6.278 -0.0500 -0.0377 -0.2271
  460MOL0     O63366   7.574  10.478   6.347  0.8404 -0.2207 -0.0822
  460MOL0     C63367   7.687  10.503   6.281 -0.3580  0.5866 -0.2418
  460MOL0     C63368   7.802  10.471   6.361  0.9038 -0.6779  0.3822
  460MOL0     C63369   7.933  10.501   6.321  0.3296 -0.0393 -0.2247
  460MOL0     C63370   8.049  10.476   6.419  0.0942 -0.4556  0.6560
  460MOL0     C63371   7.954  10.559   6.194  0.9400 -0.5211  0.2092
  460MOL0     C63372   8.085  10.601   6.155  0.1101 -0.5321  0.7602
  460MOL0     O63373   8.199  10.534   6.195 -0.9101  0.3278  0.6076
  460MOL0     C63374   8.325  10.583   6.150 -0.0703  0.7621  0.0057
  460MOL0     C63375   8.352  10.581   6.008  0.2436 -0.8968 -0.7266
  460MOL0     C63376   8.484  10.633   5.962 -0.0716  0.4300 -0.5058
  460MOL0     C63377   8.586  10.669   6.055 -0.2270  0.6655 -0.1441
  460MOL0     O63378   8.707  10.726   6.035 -0.3358  0.1411 -0.1095
  460MOL0     C63379   8.742  10.778   5.901 -0.7771 -0.3738  0.7757
  460MOL0     C63380   8.811  10.663   5.831  1.2881 -0.3501 -0.2913
  460MOL0     C63381   8.948  10.633   5.873  0.2893  1.6055  0.2569
  460MOL0     C63382   8.992  10.507   5.794 -0.1930 -0.2036  0.0387
  460MOL0     C63383   9.143  10.488   5.804 -0.0838 -1.1398 -0.5899
  460MOL0     C63384   9.233  10.615   5.804 -0.8169 -0.2848  0.3232
  460MOL0     C63385   9.381  10.580   5.790 -0.3871 -0.1034  0.7792
  460MOL0     C63386   9.463  10.708   5.753  0.0511  0.0019 -0.0870
  460MOL0    Cl63387   9.433  10.836   5.867 -0.0103 -0.4784  0.1261
  460MOL0     C63388   8.554  10.646   6.195  0.0817 -0.5513 -0.0202
  460MOL0     C63389   8.430  10.606   6.240  0.1024 -0.2807 -0.2166
  460MOL0     O63390   8.083  10.698   6.076 -0.8900  0.2771 -0.3888
  460MOL0     C63391   7.840  10.590   6.111 -0.4665  0.5516 -0.8074
  460MOL0     C63392   7.707  10.555   6.148  0.5108 -0.4657  0.6201
  460MOL0     N63393   7.025  10.508   6.519 -0.2005  0.0581  0.5548
  460MOL0     N63394   6.906  10.470   6.510 -0.0877  0.3899 -0.5751
  460MOL0     C63395   5.930  10.697   6.469 -0.4877  0.2313  0.5074
  460MOL0     C63396   5.798  10.689   6.418 -0.4858 -0.7620 -0.6065
  460MOL0     C63397   5.464  10.755   6.081  0.0082 -0.5414 -0.7190
  460MOL0     C63398   5.431  10.753   5.945 -0.0416  0.2927 -0.3552
  460MOL0     C63399   5.306  10.789   5.890  0.7872  0.8741 -0.2817
  460MOL0     C63400   5.202  10.811   5.985 -0.9056  0.0488  0.9724
  460MOL0     O63401   5.073  10.844   5.952  0.4503  0.3662  0.9775
  460MOL0     C63402   5.041  10.881   5.815 -0.2015 -0.1537 -0.2722
  460MOL0     C63403   4.904  10.965   5.803  0.0047  0.2177  0.1442
  460MOL0     C63404   4.775  10.882   5.847 -0.5978  0.0132  0.7835
  460MOL0     C63405   4.727  10.788   5.735  0.2099  0.9657  1.0884
  460MOL0     C63406   4.747  10.826   5.591 -0.0997 -0.8246 -0.4736
  460MOL0     C63407   4.748  10.861   5.471 -0.2505  0.5934 -0.5247
  460MOL0     C63408   5.226  10.801   6.122 -0.6595 -0.0972 -0.3515
  460MOL0     C63409   5.355  10.773   6.177  0.9352  0.1255 -0.6046
  460MOL0     C63410   5.364  10.742   6.324  0.0973 -0.3544  0.4466
  460MOL0     H63411   5.864  10.682   6.096  1.3715  0.5584 -0.3067
  460MOL0     H63412   6.096  10.712   6.177  2.0442  2.7467  1.7094
  460MOL0     H63413   6.281  10.845   6.331  1.8670 -0.0927 -1.5928
  460MOL0     H63414   6.304  10.670   6.312 -3.8416 -1.0360 -0.1256
  460MOL0     H63415   6.459  10.841   6.462  0.9200 -0.2644  1.2398
  460MOL0     H63416   6.351  10.771   6.588  2.6459  1.9878  1.0522
  460MOL0     H63417   6.520  10.629   6.375 -0.2047 -1.2906  0.2532
  460MOL0     H63418   6.580  10.659   6.534  0.7005  0.8080 -1.1099
  460MOL0     H63419   6.372  10.543   6.632  0.5808 -0.3945  0.2719
  460MOL0     H63420   6.338  10.514   6.456  0.8424  3.8248 -2.8439
  460MOL0     H63421   6.429  10.309   6.567  1.1321 -0.2955  2.9059
  460MOL0     H63422   6.559  10.411   6.640 -0.2318  3.8533  0.4353
  460MOL0     H63423   6.532  10.357   6.345  1.3321 -0.4526 -1.1024
  460MOL0     H63424   6.661  10.452   6.410  1.9047 -2.0246 -2.7593
  460MOL0     H63425   6.749  10.211   6.373 -1.1023 -1.7921 -0.4817
  460MOL0     H63426   6.607  10.155   6.471 -0.4361  0.5536  0.4632
  460MOL0     H63427   6.727  10.311   6.653 -1.3000 -1.3310  0.6445
  460MOL0     H63428   6.810  10.156   6.609 -0.7472 -0.0067  2.1679
  460MOL0     H63429   7.072  10.216   6.642  2.7505  0.6861  0.3385
  460MOL0     H63430   7.296  10.326   6.603  3.7287  1.9415  0.0009
  460MOL0     H63431   7.262  10.469   6.698  0.0469 -3.5781  2.0589
  460MOL0     H63432   7.276  10.615   6.469  0.1433 -0.3219 -2.4119
  460MOL0     H63433   7.420  10.548   6.535 -0.3894  2.0447 -1.2446
  460MOL0     H63434   7.358  10.330   6.376 -1.2480 -0.3747  1.7012
  460MOL0     H63435   7.246  10.459   6.312  2.5660  5.4293 -0.8216
  460MOL0     H63436   7.441  10.442   6.186 -1.8925 -0.7901  0.4728
  460MOL0     H63437   7.432  10.603   6.256 -1.5494 -0.4753 -0.8457
  460MOL0     H63438   7.781  10.434   6.461  0.0412 -0.0988  0.4310
  460MOL0     H63439   8.118  10.561   6.414 -1.0282  0.9332  4.9639
  460MOL0     H63440   8.097  10.380   6.399  2.3788  0.4408  1.4547
  460MOL0     H63441   8.010  10.474   6.521  1.8764 -0.1558  1.3809
  460MOL0     H63442   8.267  10.548   5.948 -0.2131 -0.4334 -0.3358
  460MOL0     H63443   8.508  10.644   5.857  0.0800  0.0042 -0.5179
  460MOL0     H63444   8.656  10.816   5.846 -0.2394  0.1707  0.2948
  460MOL0     H63445   8.812  10.862   5.903  0.7844 -1.5711 -0.7698
  460MOL0     H63446   8.739  10.580   5.827 -2.7272  2.8150 -4.0902
  460MOL0     H63447   8.806  10.699   5.728 -1.3795  2.5235  0.6834
  460MOL0     H63448   8.952  10.614   5.980  0.4193 -0.7496 -0.1054
  460MOL0     H63449   9.002  10.722   5.839 -0.5148  2.3015  0.7725
  460MOL0     H63450   8.957  10.519   5.691 -2.2649 -1.1555  0.5591
  460MOL0     H63451   8.940  10.422   5.840 -1.6147  0.2508 -0.6540
  460MOL0     H63452   9.154  10.433   5.897 -1.2192 -0.5476 -0.0785
  460MOL0     H63453   9.174  10.427   5.719 -1.9742 -1.4722 -1.1018
  460MOL0     H63454   9.232  10.676   5.895 -0.8179  3.3233 -1.8672
  460MOL0     H63455   9.198  10.685   5.727 -1.7765  1.6174  2.3594
  460MOL0     H63456   9.396  10.502   5.714 -0.9927  0.3221  0.2155
  460MOL0     H63457   9.427  10.538   5.880 -0.5409  3.2465  2.5803
  460MOL0     H63458   9.446  10.755   5.656 -1.6624  0.5100  0.4286
  460MOL0     H63459   9.569  10.683   5.750 -0.0121 -0.1649 -1.7614
  460MOL0     H63460   8.635  10.666   6.265  0.7090  1.3948 -1.2090
  460MOL0     H63461   8.414  10.591   6.346  1.9630  0.6967  0.2482
  460MOL0     H63462   7.866  10.630   6.013  1.7820 -0.4586 -0.6796
  460MOL0     H63463   7.632  10.581   6.074  0.2033 -1.5343  0.5417
  460MOL0     H63464   5.945  10.700   6.576 -3.2691  1.5608  0.9442
  460MOL0     H63465   5.714  10.675   6.485 -1.4003 -1.1813 -1.8118
  460MOL0     H63466   5.507  10.732   5.870 -0.4253 -1.4621 -0.2869
  460MOL0     H63467   5.302  10.802   5.783 -2.9091  0.3756 -0.3420
  460MOL0     H63468   5.121  10.945   5.776 -0.6067  0.3772 -0.2441
  460MOL0     H63469   5.045  10.789   5.756  0.8007 -0.2356 -0.1005
  460MOL0     H63470   4.908  10.992   5.697  0.2246 -0.7796 -0.1124
  460MOL0     H63471   4.910  11.058   5.860 -0.1266  1.0288 -1.1143
  460MOL0     H63472   4.798  10.826   5.938  0.8487 -1.5659 -0.4706
  460MOL0     H63473   4.698  10.956   5.869  0.6866  0.5376  4.1250
  460MOL0     H63474   4.619  10.786   5.753  0.1365  1.9258  0.7735
  460MOL0     H63475   4.764  10.688   5.760  0.1916  1.3198  2.6315
  460MOL0     H63476   4.759  10.900   5.372  3.9398 -0.0816 -0.5053
  460MOL0     H63477   5.154  10.825   6.200 -1.1344  1.1959 -1.1446
  460MOL0     H63478   5.420  10.825   6.368 -2.1518  2.6600 -1.9352
  460MOL0     H63479   5.266  10.741   6.372  0.2375  1.3310  0.8408
  460MOL0     H63480   5.418  10.648   6.340 -0.0585 -0.7901 -1.4531
  461MOL0     O63481   1.110   0.364   4.514 -0.6926  0.0169 -0.9115
  461MOL0     C63482   1.051   0.414   4.428 -0.3506 -0.4279  0.7138
  461MOL0     O63483   1.112   0.482   4.321  0.1879 -0.0013 -0.7606
  461MOL0     C63484   1.241   0.456   4.307 -0.6810 -0.4946 -0.3459
  461MOL0     C63485   1.333   0.509   4.401  0.4608 -0.0506  0.5418
  461MOL0     C63486   1.468   0.476   4.392  0.0888 -0.1558 -0.2763
  461MOL0     C63487   1.521   0.401   4.289 -0.5879 -0.0749 -0.3053
  461MOL0     O63488   1.661   0.384   4.292  0.2802 -0.4819 -0.3249
  461MOL0     C63489   1.731   0.319   4.186  0.4168  0.4795  0.0177
  461MOL0     C63490   1.877   0.291   4.233 -0.1853  0.5831 -0.2381
  461MOL0     C63491   1.962   0.252   4.114  0.0101 -0.1946  1.3547
  461MOL0     C63492   2.113   0.228   4.147  0.3226  0.4431  0.1326
  461MOL0     C63493   2.196   0.358   4.181  0.1292  0.1601  0.8155
  461MOL0     C63494   2.343   0.340   4.199 -0.8818 -0.7280 -0.2429
  461MOL0     C63495   2.418   0.296   4.078  0.6669 -0.3812 -0.4075
  461MOL0     C63496   2.567   0.319   4.099 -0.0951  0.1024  0.1423
  461MOL0     N63497   2.640   0.292   3.983 -0.3074  0.3655  0.5242
  461MOL0     C63498   2.643   0.372   3.873 -1.0017 -0.3308 -1.5657
  461MOL0     C63499   2.693   0.299   3.774 -0.8505  0.8274  0.5936
  461MOL0     C63500   2.701   0.351   3.635 -0.4815  0.0531  0.5717
  461MOL0     C63501   2.801   0.276   3.548  0.3087  0.0821 -0.1818
  461MOL0     C63502   2.850   0.344   3.425 -0.9270 -0.3246  0.5584
  461MOL0     C63503   2.965   0.263   3.366  0.7840  0.3148  0.8412
  461MOL0     O63504   3.014   0.330   3.255 -0.2762  0.0366  0.2544
  461MOL0     C63505   3.105   0.438   3.267 -0.3384 -0.3638 -0.0488
  461MOL0     C63506   3.171   0.475   3.382  0.5138  0.3433  0.2635
  461MOL0     C63507   3.278   0.563   3.396 -0.4484  0.0860  0.3109
  461MOL0     C63508   3.335   0.563   3.534 -1.2313  0.0382 -0.0595
  461MOL0     C63509   3.313   0.644   3.287  0.4632 -0.3400 -1.0224
  461MOL0     C63510   3.422   0.745   3.290 -0.1903  0.2307 -0.5120
  461MOL0     O63511   3.531   0.704   3.355  0.3864  0.2473  0.6545
  461MOL0     C63512   3.646   0.748   3.294  0.4234 -0.4461  0.5087
  461MOL0     C63513   3.734   0.838   3.355 -0.3545 -0.0526  0.4268
  461MOL0     C63514   3.855   0.870   3.295  0.2412 -0.0303  0.0954
  461MOL0     C63515   3.889   0.813   3.171  0.0507  0.2240  0.3689
  461MOL0     O63516   4.016   0.824   3.114  0.3591  0.5286 -0.0809
  461MOL0     C63517   4.083   0.952   3.109  0.4245 -0.1404 -0.1407
  461MOL0     C63518   4.004   1.053   3.026 -1.3201  1.3949  0.4422
  461MOL0     C63519   4.085   1.170   2.972  0.0515  0.0507  0.3882
  461MOL0     C63520   4.161   1.247   3.085  0.6159 -0.7791  0.0637
  461MOL0     C63521   4.218   1.381   3.018 -0.0274 -0.2944 -0.6403
  461MOL0     C63522   4.343   1.439   3.074  0.5899  0.6992 -0.2756
  461MOL0     C63523   4.338   1.500   3.214 -0.0049  0.9511 -0.5902
  461MOL0     C63524   4.481   1.556   3.258  0.7820  0.0413  0.8450
  461MOL0    Cl63525   4.594   1.431   3.311  0.4039 -0.6247  0.2610
  461MOL0     C63526   3.800   0.726   3.116  0.2535  0.1228  0.3115
  461MOL0     C63527   3.677   0.698   3.175  0.0477 -0.4652  0.3118
  461MOL0     O63528   3.410   0.843   3.222  0.5706 -0.0902 -0.5938
  461MOL0     C63529   3.242   0.619   3.169  0.8346  0.0659 -0.7808
  461MOL0     C63530   3.140   0.520   3.158 -0.6364 -0.0017 -0.1814
  461MOL0     N63531   2.736   0.179   3.820  0.1896  0.3725  0.1869
  461MOL0     N63532   2.711   0.174   3.956 -0.2474 -0.5580  0.3959
  461MOL0     C63533   1.430   0.373   4.186  0.1885  0.1345  0.7170
  461MOL0     C63534   1.293   0.388   4.195  0.3291 -0.0323 -0.0014
  461MOL0     C63535   0.901   0.399   4.419 -0.0927  1.0433 -1.6051
  461MOL0     C63536   0.840   0.478   4.318  0.3540 -1.3086 -0.5414
  461MOL0     C63537   0.704   0.456   4.288  0.1411 -0.2249 -0.3374
  461MOL0     C63538   0.629   0.370   4.364 -1.0737  0.6619 -0.0222
  461MOL0     O63539   0.496   0.344   4.326  0.4232 -0.5395  0.0597
  461MOL0     C63540   0.405   0.370   4.434  0.0002  0.3008  0.2370
  461MOL0     C63541   0.267   0.391   4.379  0.7358  0.0354  0.8682
  461MOL0     C63542   0.217   0.280   4.280 -0.2929 -0.4645  0.4812
  461MOL0     C63543   0.083   0.315   4.217  0.6898 -0.2157 -0.1183
  461MOL0     C63544   0.022   0.219   4.128  0.1062 -0.5582 -1.1058
  461MOL0     C63545  -0.020   0.141   4.043  0.5342 -0.1778 -0.1345
  461MOL0     C63546   0.692   0.278   4.453  0.0100  0.6415 -0.0079
  461MOL0     C63547   0.827   0.298   4.487 -0.0045 -0.6164  0.1846
  461MOL0     C63548   0.887   0.210   4.599  0.6685 -1.1756  0.4182
  461MOL0     H63549   1.295   0.568   4.484 -0.1155  0.4956 -0.0983
  461MOL0     H63550   1.534   0.511   4.471 -1.1523  1.3687  0.1433
  461MOL0     H63551   1.740   0.389   4.102  3.4861  1.1463  0.7912
  461MOL0     H63552   1.684   0.224   4.158  1.7416 -0.2347  0.1513
  461MOL0     H63553   1.917   0.383   4.278  0.9344  2.2515 -4.2030
  461MOL0     H63554   1.879   0.212   4.308 -1.3094 -0.1598 -0.9617
  461MOL0     H63555   1.911   0.165   4.071 -1.2508  2.0187 -2.0009
  461MOL0     H63556   1.936   0.328   4.041 -2.3450  0.6779  2.9553
  461MOL0     H63557   2.123   0.148   4.221 -0.6902  1.3725  1.3147
  461MOL0     H63558   2.141   0.203   4.044 -1.3366  2.6194 -0.9211
  461MOL0     H63559   2.151   0.389   4.276 -0.5878 -0.9106  0.8456
  461MOL0     H63560   2.178   0.432   4.103 -0.8664 -0.3974  0.4912
  461MOL0     H63561   2.363   0.444   4.227 -3.6972 -0.0853 -0.3437
  461MOL0     H63562   2.366   0.285   4.290 -1.5768 -1.2587 -0.3823
  461MOL0     H63563   2.387   0.353   3.990  1.6302 -0.7882 -1.0254
  461MOL0     H63564   2.404   0.189   4.057 -0.6123 -0.4710  0.7219
  461MOL0     H63565   2.594   0.416   4.143 -0.4974  0.7965 -1.0921
  461MOL0     H63566   2.599   0.248   4.176  3.6591  0.4933 -0.8284
  461MOL0     H63567   2.604   0.470   3.847  0.5160  0.7288 -0.1051
  461MOL0     H63568   2.725   0.458   3.639 -1.5245  0.3157  0.0978
  461MOL0     H63569   2.608   0.335   3.580 -0.3624  2.8021 -0.5503
  461MOL0     H63570   2.892   0.266   3.608 -0.1770 -0.0712  0.5447
  461MOL0     H63571   2.761   0.180   3.512  0.6904 -0.3833  0.5898
  461MOL0     H63572   2.769   0.357   3.352 -1.7695  0.1895  1.5627
  461MOL0     H63573   2.892   0.443   3.446  1.7212 -1.1241 -0.4674
  461MOL0     H63574   3.044   0.264   3.441  2.2191  1.0938 -0.6018
  461MOL0     H63575   2.937   0.162   3.334  0.0382  1.6489 -3.4164
  461MOL0     H63576   3.136   0.423   3.471 -2.6096 -0.3586 -1.2369
  461MOL0     H63577   3.290   0.496   3.608 -2.7991  0.5970 -0.4623
  461MOL0     H63578   3.333   0.662   3.582  0.1147 -0.2553  0.6560
  461MOL0     H63579   3.441   0.542   3.520 -0.3037  3.4772  0.7911
  461MOL0     H63580   3.717   0.893   3.447 -0.6255  2.2579 -0.9209
  461MOL0     H63581   3.927   0.946   3.322  0.3842  0.5513 -1.8320
  461MOL0     H63582   4.093   0.988   3.212 -1.3378 -0.3032  0.1213
  461MOL0     H63583   4.183   0.942   3.066  1.0252 -2.3163  1.6005
  461MOL0     H63584   3.961   0.996   2.943  1.5068  1.8835 -1.4717
  461MOL0     H63585   3.918   1.082   3.088 -1.3224 -0.4448  1.3791
  461MOL0     H63586   4.011   1.238   2.929 -0.5386 -0.3897  0.6816
  461MOL0     H63587   4.148   1.132   2.892 -2.1752  2.0197 -2.5260
  461MOL0     H63588   4.247   1.185   3.111  1.0426 -1.3553 -2.4291
  461MOL0     H63589   4.086   1.279   3.158 -3.2507 -2.1505 -2.9219
  461MOL0     H63590   4.245   1.365   2.913  0.6398 -0.3785 -0.4573
  461MOL0     H63591   4.142   1.461   3.012 -0.8393 -0.9380  0.7454
  461MOL0     H63592   4.365   1.518   3.001  4.1656 -0.9753 -1.2237
  461MOL0     H63593   4.423   1.365   3.065  0.9926  0.9210  1.2402
  461MOL0     H63594   4.283   1.445   3.290  0.5904 -1.7298 -1.9845
  461MOL0     H63595   4.278   1.590   3.193  0.6346  1.3886 -0.5758
  461MOL0     H63596   4.484   1.648   3.316  1.3221  3.0062 -3.3923
  461MOL0     H63597   4.530   1.593   3.167  0.4642 -0.1009  0.6097
  461MOL0     H63598   3.819   0.671   3.024 -1.2689 -0.7376  0.4814
  461MOL0     H63599   3.611   0.631   3.120 -1.0284  1.9986 -1.6000
  461MOL0     H63600   3.267   0.684   3.086  2.2892  1.3825  0.6084
  461MOL0     H63601   3.103   0.516   3.056  1.7508  2.1642 -1.2504
  461MOL0     H63602   1.471   0.319   4.101  0.8803 -2.1233  2.3811
  461MOL0     H63603   1.226   0.342   4.123  0.2126  0.5031 -0.2420
  461MOL0     H63604   0.892   0.550   4.256 -0.7866 -0.0336 -0.0437
  461MOL0     H63605   0.659   0.516   4.210  0.4797 -3.2979 -3.1045
  461MOL0     H63606   0.415   0.281   4.497  1.5724  0.6180  0.4540
  461MOL0     H63607   0.431   0.456   4.496  1.3578  0.3352 -0.3571
  461MOL0     H63608   0.249   0.487   4.329 -1.5233 -0.7260  0.1028
  461MOL0     H63609   0.198   0.390   4.465  0.5300  1.5155  0.7487
  461MOL0     H63610   0.288   0.256   4.200  0.0201  0.7851  0.3637
  461MOL0     H63611   0.206   0.192   4.344  2.8119  0.1869  2.1228
  461MOL0     H63612   0.103   0.406   4.159  2.6546 -1.5330 -1.6275
  461MOL0     H63613   0.016   0.340   4.300  2.6308  0.8723  1.1948
  461MOL0     H63614  -0.051   0.073   3.966  2.5324 -1.8803  0.4814
  461MOL0     H63615   0.637   0.200   4.504  0.2724  1.5469  1.7175
  461MOL0     H63616   0.812   0.138   4.633  0.5213 -1.5759 -0.7013
  461MOL0     H63617   0.974   0.155   4.562  2.1955 -0.0283  2.0849
  461MOL0     H63618   0.913   0.277   4.682  0.3367  0.9772 -1.1137
  462MOL0     O63619   6.286   5.701   5.378  0.7070  0.2184 -0.1435
  462MOL0     C63620   6.200   5.690   5.292  0.0893  0.7748 -0.2237
  462MOL0     O63621   6.226   5.694   5.152  0.2212  0.8957 -0.3272
  462MOL0     C63622   6.352   5.675   5.113 -0.8015  0.7112  0.6924
  462MOL0     C63623   6.439   5.577   5.159  0.7256  0.2891 -0.2655
  462MOL0     C63624   6.560   5.559   5.093 -0.3712  0.0952 -0.0524
  462MOL0     C63625   6.601   5.638   4.981  0.5941 -0.3594 -0.0392
  462MOL0     O63626   6.721   5.617   4.919 -0.3163 -0.5798 -0.2852
  462MOL0     C63627   6.780   5.737   4.868 -0.0805  0.6925 -0.5893
  462MOL0     C63628   6.914   5.692   4.805 -0.6139  0.5811 -0.7405
  462MOL0     C63629   7.023   5.654   4.918 -0.2351 -0.8196 -0.0701
  462MOL0     C63630   7.075   5.517   4.882 -0.6134  0.2692  0.0547
  462MOL0     C63631   7.183   5.453   4.976 -0.2983 -0.1227 -0.2163
  462MOL0     C63632   7.306   5.551   5.003  0.6699 -0.1599  0.4530
  462MOL0     C63633   7.439   5.477   5.002  0.3793 -0.7105  0.4356
  462MOL0     C63634   7.460   5.378   5.119 -0.9802 -0.1365  0.7739
  462MOL0     N63635   7.586   5.300   5.111 -0.9518 -0.1489  0.3570
  462MOL0     C63636   7.592   5.167   5.067  0.3533 -0.2067  0.1995
  462MOL0     C63637   7.719   5.132   5.098  0.2097  0.4705  0.7533
  462MOL0     C63638   7.792   5.002   5.070  0.5153 -0.5195 -0.0209
  462MOL0     C63639   7.944   5.004   5.066  0.2968 -0.3098 -0.9137
  462MOL0     C63640   7.995   4.861   5.048  0.3742  0.0569  0.3489
  462MOL0     C63641   8.022   4.780   5.171  0.6285 -0.5907 -0.1164
  462MOL0     O63642   8.056   4.652   5.127 -0.1391 -0.3025 -0.0090
  462MOL0     C63643   8.194   4.625   5.119  0.3226  0.2274  0.1009
  462MOL0     C63644   8.235   4.494   5.132 -0.4477 -0.5318  1.3900
  462MOL0     C63645   8.371   4.454   5.129  0.7282 -0.2471  0.4610
  462MOL0     C63646   8.407   4.306   5.133 -0.5054  0.1391  0.0670
  462MOL0     C63647   8.467   4.552   5.106 -0.2314 -0.0462 -0.5086
  462MOL0     C63648   8.612   4.521   5.094  0.0600  0.6979  0.2611
  462MOL0     O63649   8.687   4.498   5.211  0.3731  0.5705 -0.1899
  462MOL0     C63650   8.816   4.464   5.189 -0.1040  0.3977  1.0729
  462MOL0     C63651   8.842   4.332   5.149  0.8537  0.0438  0.3110
  462MOL0     C63652   8.973   4.290   5.126  0.3310  0.4324  0.3265
  462MOL0     C63653   9.079   4.378   5.135  0.9401 -0.8597 -0.0893
  462MOL0     O63654   9.209   4.350   5.090  0.1970 -0.4063  0.5944
  462MOL0     C63655   9.231   4.217   5.029 -0.3938  0.4940  0.2635
  462MOL0     C63656   9.348   4.221   4.935  0.1142 -0.1080 -0.4891
  462MOL0     C63657   9.471   4.225   5.005  0.4307 -0.1905 -0.5487
  462MOL0     C63658   9.581   4.222   4.912 -0.4027 -0.2944  0.3949
  462MOL0     C63659   9.724   4.236   4.983 -0.4026  0.4078  0.0932
  462MOL0     C63660   9.817   4.260   4.861  0.1419  0.0428 -0.1170
  462MOL0     C63661   9.957   4.280   4.914  0.6148 -0.5043  0.9593
  462MOL0     C63662  10.033   4.150   4.940 -0.4327 -0.9547  0.0444
  462MOL0    Cl63663  10.204   4.158   4.882 -0.0904 -0.0890 -0.3771
  462MOL0     C63664   9.046   4.512   5.181  0.1108 -0.7416 -0.3900
  462MOL0     C63665   8.919   4.552   5.198 -0.6646 -0.0461 -0.4089
  462MOL0     O63666   8.662   4.539   4.981  0.1814  0.1045  0.0252
  462MOL0     C63667   8.431   4.688   5.092 -0.1053  0.5793  0.0280
  462MOL0     C63668   8.297   4.727   5.103  0.0765 -0.0424 -0.5342
  462MOL0     N63669   7.783   5.232   5.167  0.4212 -0.5116 -0.1791
  462MOL0     N63670   7.707   5.333   5.169  0.3240  0.6274  0.0904
  462MOL0     C63671   6.510   5.736   4.937 -1.4784  0.8895 -0.7527
  462MOL0     C63672   6.383   5.751   4.998 -0.3139  0.5811 -0.0022
  462MOL0     C63673   6.058   5.667   5.326  0.5286 -0.1737  0.1390
  462MOL0     C63674   6.002   5.766   5.400  0.6766 -0.3876 -0.3427
  462MOL0     C63675   5.867   5.767   5.413 -0.2565  0.4983 -0.1548
  462MOL0     C63676   5.781   5.670   5.368  0.2478  0.0450 -0.1234
  462MOL0     O63677   5.644   5.667   5.379 -0.3438  0.6104  0.0830
  462MOL0     C63678   5.590   5.786   5.443 -0.7476  0.9021 -0.5886
  462MOL0     C63679   5.439   5.770   5.461  0.0813  0.4538  0.3378
  462MOL0     C63680   5.364   5.896   5.480 -0.0808 -0.6210  0.6827
  462MOL0     C63681   5.218   5.870   5.514  0.4649  0.4590  0.0975
  462MOL0     C63682   5.127   5.988   5.527  0.1559  0.0086 -0.2381
  462MOL0     C63683   5.042   6.075   5.529 -0.2279  0.4767  0.6978
  462MOL0     C63684   5.847   5.567   5.299 -0.3814 -0.6853 -0.5007
  462MOL0     C63685   5.982   5.556   5.267  0.2858 -0.0242 -1.1631
  462MOL0     C63686   6.035   5.436   5.205 -0.3123 -0.1703 -0.0446
  462MOL0     H63687   6.409   5.513   5.241 -2.2339  1.1770 -0.5328
  462MOL0     H63688   6.632   5.488   5.131  0.3552  1.0416  0.3670
  462MOL0     H63689   6.787   5.806   4.952 -2.3393 -0.6857  0.8172
  462MOL0     H63690   6.728   5.783   4.784 -2.2254 -0.4531  0.0358
  462MOL0     H63691   6.895   5.607   4.738  0.1785  0.1581 -0.4443
  462MOL0     H63692   6.955   5.777   4.751  3.4463  0.1145  1.2001
  462MOL0     H63693   7.104   5.727   4.922  1.0573 -2.2500  2.4725
  462MOL0     H63694   6.978   5.630   5.015 -1.4058 -3.5146 -1.1638
  462MOL0     H63695   6.989   5.450   4.885 -0.5624  0.1972 -0.1005
  462MOL0     H63696   7.125   5.522   4.785  1.9909  0.2981  1.3111
  462MOL0     H63697   7.213   5.359   4.930 -1.2495 -0.2091 -0.6945
  462MOL0     H63698   7.148   5.432   5.078 -1.1744  0.0912 -0.4629
  462MOL0     H63699   7.312   5.625   4.923  2.8347 -0.0714  0.6419
  462MOL0     H63700   7.295   5.625   5.082  4.6002 -0.1322  1.1878
  462MOL0     H63701   7.507   5.562   5.011  1.1508 -1.3088  0.2925
  462MOL0     H63702   7.465   5.429   4.907 -1.0658  1.1913 -1.0233
  462MOL0     H63703   7.455   5.426   5.218 -1.9526  0.9884  0.2134
  462MOL0     H63704   7.377   5.307   5.127 -0.0377 -1.1921  1.3343
  462MOL0     H63705   7.512   5.106   5.027 -1.4385  2.1363 -0.0091
  462MOL0     H63706   7.767   4.974   4.967 -2.4952 -0.2132  0.5512
  462MOL0     H63707   7.761   4.924   5.141 -0.3877 -2.0331 -1.9747
  462MOL0     H63708   7.989   5.067   4.989 -0.8936 -0.2317 -1.5693
  462MOL0     H63709   7.977   5.047   5.161  0.3553  1.5570 -1.7379
  462MOL0     H63710   7.934   4.802   4.979  1.1414 -2.1224  1.4422
  462MOL0     H63711   8.090   4.864   4.994  1.5884 -0.8073  2.3395
  462MOL0     H63712   8.090   4.822   5.245  0.1867 -2.4256  1.4108
  462MOL0     H63713   7.926   4.777   5.224  0.4112 -1.4464 -0.5367
  462MOL0     H63714   8.161   4.417   5.154 -0.0124 -1.6319 -0.7230
  462MOL0     H63715   8.319   4.244   5.151 -0.5649  0.9563  3.1845
  462MOL0     H63716   8.462   4.285   5.225 -3.0555  0.5404  1.7801
  462MOL0     H63717   8.461   4.274   5.044  2.9262  0.4890  1.8676
  462MOL0     H63718   8.759   4.262   5.153  1.9831 -1.3070  0.9183
  462MOL0     H63719   8.986   4.186   5.097  1.0181  1.2971 -2.9091
  462MOL0     H63720   9.241   4.155   5.119 -1.6494  1.9268  1.4612
  462MOL0     H63721   9.153   4.171   4.968  0.3580 -2.2228  1.2380
  462MOL0     H63722   9.343   4.136   4.866 -1.1739  1.6965 -2.7785
  462MOL0     H63723   9.336   4.308   4.869  0.1347 -0.4801 -0.9905
  462MOL0     H63724   9.480   4.141   5.074  0.2799  0.9673  0.9275
  462MOL0     H63725   9.470   4.313   5.071 -3.3669 -0.6359  0.1869
  462MOL0     H63726   9.568   4.312   4.851 -0.6760 -0.8622 -0.4073
  462MOL0     H63727   9.579   4.126   4.860  0.5434 -0.4817  0.6892
  462MOL0     H63728   9.724   4.313   5.061 -2.6138 -0.6913  1.2789
  462MOL0     H63729   9.754   4.139   5.026 -4.0342  0.2781  2.7872
  462MOL0     H63730   9.772   4.349   4.814 -1.7424 -1.1046 -0.5889
  462MOL0     H63731   9.815   4.172   4.796  1.9176  1.6112 -2.4495
  462MOL0     H63732   9.952   4.343   5.003  0.6936 -0.4685  0.9383
  462MOL0     H63733  10.001   4.338   4.832 -0.2983 -1.5183 -0.2696
  462MOL0     H63734   9.989   4.061   4.893  0.2187 -1.2169 -0.0744
  462MOL0     H63735  10.035   4.119   5.045  2.6770 -0.4035  0.2410
  462MOL0     H63736   9.126   4.585   5.192  0.0918 -0.6368 -0.9117
  462MOL0     H63737   8.919   4.659   5.217 -2.3435  0.0250 -0.6364
  462MOL0     H63738   8.503   4.769   5.090 -2.2602  2.6794  1.7699
  462MOL0     H63739   8.267   4.829   5.084 -0.9222  0.2891  2.3393
  462MOL0     H63740   6.532   5.790   4.845  1.1146  1.8632  0.3605
  462MOL0     H63741   6.300   5.811   4.961  1.0398  2.2004 -0.5409
  462MOL0     H63742   6.061   5.849   5.439  1.3060 -0.9945  0.0235
  462MOL0     H63743   5.830   5.851   5.471  2.1856  1.8161 -0.3659
  462MOL0     H63744   5.643   5.803   5.536  0.8489  0.7860 -1.4464
  462MOL0     H63745   5.616   5.874   5.383  1.0557  2.1973  1.9383
  462MOL0     H63746   5.416   5.705   5.546 -0.0106 -0.7300 -0.5546
  462MOL0     H63747   5.403   5.725   5.367  1.2360 -0.0163  0.1030
  462MOL0     H63748   5.403   5.963   5.557 -0.8147  0.4586  0.1400
  462MOL0     H63749   5.373   5.952   5.386 -1.5864 -0.0208  0.8740
  462MOL0     H63750   5.213   5.832   5.616 -0.0072  3.1909  1.1583
  462MOL0     H63751   5.173   5.795   5.448  1.5684 -0.7603  0.6775
  462MOL0     H63752   4.965   6.149   5.533  2.6633  3.7281  4.0924
  462MOL0     H63753   5.777   5.490   5.265 -0.4979 -0.5228 -0.6320
  462MOL0     H63754   6.087   5.467   5.115 -4.1944 -1.9929 -3.2210
  462MOL0     H63755   6.100   5.390   5.280  0.0434  2.5174  1.4253
  462MOL0     H63756   5.959   5.371   5.161 -0.2864 -1.8259  2.1559
  463MOL0     O63757   0.139   6.273  11.070  0.1335 -1.0761 -0.0305
  463MOL0     C63758   0.187   6.345  10.978  0.4840 -0.8810 -0.2682
  463MOL0     O63759   0.224   6.300  10.856 -0.1696 -0.5117  0.3769
  463MOL0     C63760   0.273   6.173  10.835  0.1177  0.1516 -0.2446
  463MOL0     C63761   0.373   6.114  10.914  0.2182 -0.3289 -0.2168
  463MOL0     C63762   0.417   5.982  10.894 -0.6472  0.3745 -0.4402
  463MOL0     C63763   0.358   5.914  10.788 -0.0229 -0.3935  0.1545
  463MOL0     O63764   0.395   5.778  10.766 -0.0282 -1.1365 -0.5365
  463MOL0     C63765   0.296   5.679  10.803  0.0117 -0.4785  0.2396
  463MOL0     C63766   0.277   5.574  10.691  0.3169 -0.4586 -0.2169
  463MOL0     C63767   0.387   5.481  10.653  0.5009 -0.9889  0.2534
  463MOL0     C63768   0.342   5.393  10.533 -0.2934 -0.1495  0.1230
  463MOL0     C63769   0.471   5.307  10.515  0.4740  0.4212  0.1987
  463MOL0     C63770   0.476   5.244  10.376  0.0961  0.2849  0.5923
  463MOL0     C63771   0.607   5.170  10.361  0.2203 -0.3068 -0.0842
  463MOL0     C63772   0.733   5.246  10.321  0.0505  0.1657  0.0089
  463MOL0     N63773   0.790   5.303  10.446  0.1070 -0.5935  0.7006
  463MOL0     C63774   0.827   5.226  10.551 -1.0321  0.0579 -0.5450
  463MOL0     C63775   0.877   5.324  10.637 -0.3606  0.1065 -0.1063
  463MOL0     C63776   0.931   5.311  10.779 -0.2169 -0.9106  0.7504
  463MOL0     C63777   1.080   5.345  10.779 -0.9743 -0.0819  0.5053
  463MOL0     C63778   1.153   5.329  10.913  0.6075  0.2365 -0.9880
  463MOL0     C63779   1.301   5.338  10.923  0.2576 -0.2829 -0.5795
  463MOL0     O63780   1.340   5.458  10.854 -0.2680 -0.2886 -0.3345
  463MOL0     C63781   1.454   5.518  10.892  0.2258 -0.0194  0.4296
  463MOL0     C63782   1.566   5.452  10.956  0.2169 -0.1779  1.0822
  463MOL0     C63783   1.679   5.519  10.990 -0.4475  0.0410  0.3258
  463MOL0     C63784   1.766   5.450  11.087 -0.0513  0.0959 -0.9117
  463MOL0     C63785   1.691   5.658  10.950  0.0821 -0.4556  0.1347
  463MOL0     C63786   1.809   5.743  10.979 -0.1985 -0.2316  0.4310
  463MOL0     O63787   1.924   5.674  10.981  0.2816  0.8852  0.5470
  463MOL0     C63788   2.034   5.749  11.022  0.1932 -0.0449 -0.2152
  463MOL0     C63789   2.075   5.729  11.155 -0.0678  0.0189  0.8477
  463MOL0     C63790   2.170   5.809  11.216  0.2557  0.6657 -0.5116
  463MOL0     C63791   2.255   5.885  11.138 -0.6312  0.4052  0.1384
  463MOL0     O63792   2.372   5.946  11.178 -0.1027  0.3616  0.0859
  463MOL0     C63793   2.402   6.076  11.138 -0.1339 -0.0100 -0.5594
  463MOL0     C63794   2.526   6.119  11.218 -0.2276 -0.1894 -0.0010
  463MOL0     C63795   2.578   6.263  11.202  0.2782  0.6753 -0.5757
  463MOL0     C63796   2.653   6.280  11.066  0.7514  0.1198  0.7212
  463MOL0     C63797   2.705   6.418  11.042  0.1526 -0.4451 -0.9669
  463MOL0     C63798   2.779   6.428  10.915 -0.2367  0.0523  0.0746
  463MOL0     C63799   2.865   6.549  10.914 -0.9907 -0.2021  0.2450
  463MOL0     C63800   2.947   6.569  10.787 -0.0445 -0.2813  0.0400
  463MOL0    Cl63801   2.833   6.609  10.649  0.3118 -0.2136  0.0011
  463MOL0     C63802   2.230   5.889  10.999 -1.2580  0.1498  0.8064
  463MOL0     C63803   2.113   5.827  10.942 -0.3668 -0.3379  0.0448
  463MOL0     O63804   1.801   5.866  11.005  0.1096 -0.0044 -0.7957
  463MOL0     C63805   1.582   5.725  10.883 -0.5026  0.7932 -0.2101
  463MOL0     C63806   1.473   5.648  10.861  0.0475 -0.9676  0.0709
  463MOL0     N63807   0.878   5.452  10.569 -0.4284  1.0463  0.5476
  463MOL0     N63808   0.834   5.433  10.459 -0.0450  0.4320 -0.1858
  463MOL0     C63809   0.247   5.972  10.715 -0.4186  0.6843 -0.2021
  463MOL0     C63810   0.217   6.108  10.730 -0.5291  0.0935  0.4673
  463MOL0     C63811   0.193   6.489  10.997  0.2234  0.2607  0.1732
  463MOL0     C63812   0.216   6.575  10.884  0.4270  1.0659 -0.4824
  463MOL0     C63813   0.221   6.713  10.895 -0.6495 -0.1220  0.0997
  463MOL0     C63814   0.217   6.769  11.020  0.5110  0.3211 -0.0344
  463MOL0     O63815   0.239   6.906  11.028 -0.1717 -0.1893  0.0792
  463MOL0     C63816   0.116   6.979  11.045 -0.3335  1.0601  0.5055
  463MOL0     C63817   0.039   6.998  10.913  0.5545  0.4366  1.0345
  463MOL0     C63818   0.117   7.062  10.800  0.3603  0.0919 -0.4285
  463MOL0     C63819   0.046   7.053  10.661  0.7018  0.7622 -0.3042
  463MOL0     C63820   0.019   6.919  10.610  0.4416  0.6889  0.2480
  463MOL0     C63821  -0.015   6.814  10.553  0.7410  0.2178 -0.2125
  463MOL0     C63822   0.192   6.689  11.131 -0.2901  0.0425  0.1257
  463MOL0     C63823   0.188   6.550  11.123  1.0441  0.2413 -0.3803
  463MOL0     C63824   0.191   6.477  11.260  0.5685 -0.9558  0.1043
  463MOL0     H63825   0.423   6.173  10.990  3.7415 -3.1219 -0.0897
  463MOL0     H63826   0.488   5.936  10.963  1.3295  1.7911 -1.4376
  463MOL0     H63827   0.201   5.724  10.833 -1.4937 -3.0400 -0.4579
  463MOL0     H63828   0.323   5.620  10.891  0.4224  1.6710  1.6411
  463MOL0     H63829   0.201   5.506  10.731  1.2006 -2.4063 -1.6460
  463MOL0     H63830   0.241   5.631  10.605  0.2183 -0.7829 -0.3923
  463MOL0     H63831   0.470   5.549  10.631  0.2082 -0.4837  0.7023
  463MOL0     H63832   0.402   5.411  10.736 -2.8566 -0.5210  1.3904
  463MOL0     H63833   0.259   5.324  10.547  1.1733 -1.6062  2.0903
  463MOL0     H63834   0.318   5.455  10.446  0.7406 -1.2912 -1.0294
  463MOL0     H63835   0.476   5.235  10.597  1.5629 -0.4782 -0.6259
  463MOL0     H63836   0.563   5.365  10.529  0.6064  0.1607  0.4272
  463MOL0     H63837   0.385   5.185  10.361 -0.3569  0.4651  2.3697
  463MOL0     H63838   0.465   5.328  10.306 -0.1829  0.0973  0.4096
  463MOL0     H63839   0.595   5.099  10.279  0.8152  1.0478 -1.3846
  463MOL0     H63840   0.626   5.110  10.451 -2.6291 -2.7822 -0.9763
  463MOL0     H63841   0.810   5.192  10.265 -1.0459 -1.5396  0.0792
  463MOL0     H63842   0.710   5.334  10.259  3.7501  2.2494  1.2689
  463MOL0     H63843   0.815   5.120  10.570  1.1402 -0.0752  0.4405
  463MOL0     H63844   0.914   5.212  10.824  0.2529 -1.6160 -0.5688
  463MOL0     H63845   0.860   5.367  10.840 -1.9094 -4.4163  2.2645
  463MOL0     H63846   1.135   5.275  10.716  1.7807 -0.3558  3.0068
  463MOL0     H63847   1.094   5.443  10.731  1.9318 -0.9045 -0.5482
  463MOL0     H63848   1.117   5.408  10.979  0.9432  1.6333 -2.4231
  463MOL0     H63849   1.127   5.230  10.954 -0.8163  0.4606 -1.2847
  463MOL0     H63850   1.323   5.344  11.030 -2.8523  2.5130  0.0902
  463MOL0     H63851   1.351   5.248  10.884  1.7290  0.4335 -0.3879
  463MOL0     H63852   1.559   5.347  10.985  1.7193 -0.8841 -0.8655
  463MOL0     H63853   1.837   5.392  11.027  0.7955  0.5647 -0.3889
  463MOL0     H63854   1.705   5.396  11.160  0.0034  2.3342  0.9074
  463MOL0     H63855   1.825   5.517  11.151  1.2158 -0.4894 -1.4153
  463MOL0     H63856   2.020   5.662  11.220 -1.6540 -0.7918 -1.1944
  463MOL0     H63857   2.201   5.811  11.320  2.2368 -0.1113 -1.0376
  463MOL0     H63858   2.422   6.073  11.031 -4.6236  0.9102 -1.6246
  463MOL0     H63859   2.322   6.149  11.151 -1.6050 -1.5845 -0.4647
  463MOL0     H63860   2.507   6.102  11.324 -2.6616 -1.6606 -0.5892
  463MOL0     H63861   2.613   6.055  11.198 -0.8578 -1.1196  0.1904
  463MOL0     H63862   2.636   6.292  11.291 -1.2274  0.2944  0.5695
  463MOL0     H63863   2.495   6.334  11.204 -0.0278  0.3179 -0.3934
  463MOL0     H63864   2.585   6.246  10.988  0.3097 -0.8977  1.5348
  463MOL0     H63865   2.734   6.208  11.053  0.5333 -0.1289  0.7445
  463MOL0     H63866   2.628   6.494  11.058  2.5820  2.1849 -0.8880
  463MOL0     H63867   2.779   6.431  11.122 -2.9959  1.9577  1.8259
  463MOL0     H63868   2.703   6.420  10.836 -1.6740  0.0074  1.4098
  463MOL0     H63869   2.845   6.343  10.901  0.2570  0.8833 -4.1651
  463MOL0     H63870   2.941   6.548  10.993  0.4212 -1.8618 -1.0388
  463MOL0     H63871   2.795   6.632  10.924 -2.5956 -1.0379 -2.9067
  463MOL0     H63872   2.997   6.472  10.775 -2.7626 -1.6474 -1.3562
  463MOL0     H63873   3.027   6.642  10.799  0.1546 -0.4535 -0.2308
  463MOL0     H63874   2.288   5.951  10.930  0.8740 -1.7502  0.7917
  463MOL0     H63875   2.089   5.847  10.838  0.4816 -2.5400 -0.6504
  463MOL0     H63876   1.582   5.830  10.854  1.2888  0.6400 -0.8754
  463MOL0     H63877   1.390   5.703  10.816  2.6228  2.3527 -1.0911
  463MOL0     H63878   0.194   5.929  10.631  1.4777  0.7445 -1.4812
  463MOL0     H63879   0.145   6.141  10.656  1.1281  0.0571 -1.2539
  463MOL0     H63880   0.210   6.531  10.785 -3.6417 -1.8755  0.8207
  463MOL0     H63881   0.243   6.776  10.809 -1.0740 -1.1266 -0.7648
  463MOL0     H63882   0.056   6.935  11.125 -0.9523 -0.5628 -0.7868
  463MOL0     H63883   0.149   7.078  11.078 -0.4535  0.6176  2.0219
  463MOL0     H63884  -0.049   7.059  10.933 -0.0983 -1.3848  4.4604
  463MOL0     H63885  -0.007   6.906  10.878  1.0113  0.3973  0.5191
  463MOL0     H63886   0.126   7.167  10.830 -1.3702  0.7234 -1.9638
  463MOL0     H63887   0.213   7.012  10.792 -0.3566 -1.2008 -1.1052
  463MOL0     H63888   0.111   7.100  10.586  1.3365  2.8052  1.4215
  463MOL0     H63889  -0.050   7.101  10.679 -0.1729 -1.7739  2.3524
  463MOL0     H63890  -0.036   6.717  10.510 -0.4059  0.0141  0.7265
  463MOL0     H63891   0.182   6.732  11.230  1.6216  0.9477 -0.0364
  463MOL0     H63892   0.095   6.425  11.270 -0.9435  1.3073 -1.6941
  463MOL0     H63893   0.278   6.411  11.271  1.6110  0.3411 -0.1126
  463MOL0     H63894   0.195   6.547  11.344 -1.5791  0.1617 -0.6440
  464MOL0     O63895   8.748   1.162   2.041 -0.9268  0.1005 -0.2694
  464MOL0     C63896   8.741   1.041   2.047 -0.3674  0.3426 -0.4747
  464MOL0     O63897   8.846   0.961   2.033  0.0613  0.5381  0.1011
  464MOL0     C63898   8.960   0.979   2.111 -0.0491  1.2356 -0.2790
  464MOL0     C63899   9.067   0.900   2.068 -0.6604  0.7589  0.4442
  464MOL0     C63900   9.195   0.903   2.132  0.4214 -0.7067  0.4776
  464MOL0     C63901   9.210   0.984   2.242 -0.3300 -0.0456  0.3813
  464MOL0     O63902   9.332   0.985   2.305 -0.0102  0.6280 -0.3983
  464MOL0     C63903   9.389   1.116   2.320  0.0989 -0.1705 -0.6799
  464MOL0     C63904   9.534   1.105   2.270  0.4105  0.4068  0.0907
  464MOL0     C63905   9.623   1.231   2.291 -0.5095  0.5584 -0.7642
  464MOL0     C63906   9.597   1.341   2.187  0.6172  0.1198  0.7959
  464MOL0     C63907   9.708   1.452   2.211  0.1039  0.8518 -0.3214
  464MOL0     C63908   9.734   1.522   2.071  0.2267  0.4964 -0.7944
  464MOL0     C63909   9.612   1.588   2.026 -0.4833 -1.2188  0.1622
  464MOL0     C63910   9.583   1.715   2.100 -0.2981 -0.4178  0.1221
  464MOL0     N63911   9.680   1.827   2.089  0.6344 -0.0162  0.8938
  464MOL0     C63912   9.775   1.863   2.178  0.5749  0.7281  0.2444
  464MOL0     C63913   9.831   1.981   2.136 -0.5358 -0.3794  0.3708
  464MOL0     C63914   9.941   2.059   2.194 -1.1586  0.2911  0.2313
  464MOL0     C63915  10.075   1.988   2.203 -0.3495  0.2698 -0.4088
  464MOL0     C63916  10.127   1.954   2.063 -0.1631  0.1307 -0.9739
  464MOL0     C63917  10.186   2.079   1.997  0.1565 -0.1532  0.0429
  464MOL0     O63918  10.266   2.053   1.878  0.3598 -0.0348 -0.2879
  464MOL0     C63919  10.396   2.004   1.901  0.1999  0.2617  0.4657
  464MOL0     C63920  10.478   1.979   1.793 -0.5399  0.5351 -0.9119
  464MOL0     C63921  10.612   1.929   1.803 -1.0725 -0.4594  0.9170
  464MOL0     C63922  10.685   1.915   1.674 -0.4812  1.0311 -0.4166
  464MOL0     C63923  10.675   1.920   1.927 -0.2257  0.0348  0.1480
  464MOL0     C63924  10.811   1.871   1.955 -1.1301  0.4968 -1.0738
  464MOL0     O63925  10.855   1.866   2.094 -0.4216  0.0389  0.1871
  464MOL0     C63926  10.983   1.826   2.110 -0.4935  0.1421 -0.2430
  464MOL0     C63927  11.006   1.686   2.117  0.2508  0.1069  0.6675
  464MOL0     C63928  11.130   1.645   2.150 -0.0513  0.1520  0.7256
  464MOL0     C63929  11.236   1.730   2.183  0.2006  0.2537 -0.9714
  464MOL0     O63930  11.364   1.692   2.206  0.1436 -0.0840 -1.2172
  464MOL0     C63931  11.402   1.570   2.142 -0.5111  0.5562 -0.3153
  464MOL0     C63932  11.543   1.527   2.193  0.1104  0.0106 -0.3223
  464MOL0     C63933  11.638   1.636   2.141 -0.7661  0.2008 -0.0214
  464MOL0     C63934  11.779   1.598   2.185 -0.1642  0.2040  0.6127
  464MOL0     C63935  11.885   1.677   2.103 -0.3904 -0.9197 -1.0880
  464MOL0     C63936  12.029   1.630   2.152 -0.3778 -0.6494 -0.4447
  464MOL0     C63937  12.152   1.681   2.069  0.0067 -0.2146  0.2698
  464MOL0     C63938  12.286   1.615   2.093  0.3215  0.0019  0.8744
  464MOL0    Cl63939  12.406   1.724   2.042  0.0565  0.1064  0.0635
  464MOL0     C63940  11.210   1.867   2.184  0.6385  0.2976  0.3122
  464MOL0     C63941  11.089   1.916   2.139 -0.4141  0.6838  0.3380
  464MOL0     O63942  10.877   1.824   1.863 -0.7437 -0.5044  0.4350
  464MOL0     C63943  10.599   1.969   2.033  0.0929  0.7892 -0.1168
  464MOL0     C63944  10.464   1.997   2.025  0.0662 -0.1696 -1.2219
  464MOL0     N63945   9.755   2.014   2.023 -0.0570 -0.2469  0.9538
  464MOL0     N63946   9.661   1.923   1.998 -0.1121 -0.0608  0.8574
  464MOL0     C63947   9.100   1.053   2.294 -0.9542 -0.4430 -0.2091
  464MOL0     C63948   8.976   1.062   2.225 -0.4538  0.3541  0.7238
  464MOL0     C63949   8.605   0.980   2.061  1.2940  0.1311  0.1628
  464MOL0     C63950   8.585   0.859   1.995 -1.1649 -0.9121  0.4233
  464MOL0     C63951   8.462   0.796   1.997 -0.4262 -0.6633 -0.6176
  464MOL0     C63952   8.353   0.867   2.047 -0.1207 -0.0479  0.3556
  464MOL0     O63953   8.219   0.836   2.054  0.1397  0.1965  0.6011
  464MOL0     C63954   8.174   0.744   1.958  0.6599  0.3439 -0.3238
  464MOL0     C63955   8.024   0.725   1.980 -0.5713 -0.7562 -0.1705
  464MOL0     C63956   8.005   0.666   2.120 -1.0504  0.5954  0.7109
  464MOL0     C63957   7.847   0.646   2.133 -0.2535  0.0578  0.3703
  464MOL0     C63958   7.814   0.589   2.270 -0.5004  0.3451  0.0363
  464MOL0     C63959   7.787   0.549   2.384 -0.2937 -0.8178 -0.1827
  464MOL0     C63960   8.372   0.992   2.117  0.2919  1.0704  0.6155
  464MOL0     C63961   8.498   1.043   2.135  0.6919  0.8318  0.0757
  464MOL0     C63962   8.523   1.157   2.223  0.1733 -0.0204 -0.1727
  464MOL0     H63963   9.041   0.843   1.980  2.3003 -2.2278  1.3147
  464MOL0     H63964   9.279   0.849   2.091 -0.3619  0.4054 -2.9252
  464MOL0     H63965   9.386   1.141   2.426 -0.9854  0.8740 -0.9287
  464MOL0     H63966   9.337   1.198   2.270 -2.9444  0.2622  2.8132
  464MOL0     H63967   9.576   1.016   2.317  1.2656  0.3950 -0.6779
  464MOL0     H63968   9.533   1.081   2.163  0.6665 -0.1033  0.2020
  464MOL0     H63969   9.615   1.274   2.391  0.4569 -1.1095  0.0903
  464MOL0     H63970   9.729   1.207   2.275 -0.2625  1.4202 -0.4993
  464MOL0     H63971   9.608   1.288   2.091 -0.8885  1.4571 -0.1624
  464MOL0     H63972   9.494   1.376   2.192  0.8707  1.2666 -1.0989
  464MOL0     H63973   9.797   1.402   2.252 -1.9178 -2.7716  0.1292
  464MOL0     H63974   9.682   1.516   2.296  2.9917 -0.4486  1.7056
  464MOL0     H63975   9.824   1.581   2.087  0.3115 -0.0554  1.0096
  464MOL0     H63976   9.767   1.453   1.993  1.2730  0.3954 -0.2775
  464MOL0     H63977   9.532   1.514   2.036 -0.5468 -1.0404  1.0782
  464MOL0     H63978   9.622   1.605   1.918 -1.5814 -2.2567 -0.1266
  464MOL0     H63979   9.481   1.744   2.074 -0.1899  0.6906  0.8423
  464MOL0     H63980   9.578   1.697   2.208 -1.1260  0.3328  0.2205
  464MOL0     H63981   9.811   1.798   2.257  0.3388  0.5623  0.2180
  464MOL0     H63982   9.905   2.087   2.294 -1.6878 -0.1286  0.1643
  464MOL0     H63983   9.955   2.156   2.145 -0.1676  0.2899  0.4869
  464MOL0     H63984  10.146   2.051   2.257 -0.3433 -1.4712  1.7615
  464MOL0     H63985  10.066   1.899   2.267  0.1785 -2.1262 -3.4130
  464MOL0     H63986  10.209   1.883   2.075  1.1543  1.9066  1.4127
  464MOL0     H63987  10.040   1.913   2.011 -1.7465 -1.0373  2.2771
  464MOL0     H63988  10.101   2.138   1.961  1.3634  3.2722  2.2130
  464MOL0     H63989  10.237   2.145   2.067  0.2319 -2.4469  2.2922
  464MOL0     H63990  10.432   1.992   1.696  0.7779  1.8957 -1.3915
  464MOL0     H63991  10.729   1.815   1.669  0.2090  1.1979  1.3963
  464MOL0     H63992  10.772   1.981   1.666  1.1210 -0.8193  1.1155
  464MOL0     H63993  10.620   1.928   1.586  0.0105 -2.9584 -1.5344
  464MOL0     H63994  10.929   1.612   2.095  1.3136 -0.0878 -3.1210
  464MOL0     H63995  11.144   1.539   2.168 -2.0925  0.1523  2.7922
  464MOL0     H63996  11.339   1.487   2.176  0.6959 -1.1655 -2.0549
  464MOL0     H63997  11.394   1.571   2.033 -2.8943 -1.0570 -0.2364
  464MOL0     H63998  11.547   1.516   2.302 -0.7767  2.4781  0.0199
  464MOL0     H63999  11.566   1.432   2.144  0.0753 -1.5672  2.5159
  464MOL0     H64000  11.601   1.733   2.175 -1.5216  0.0144 -0.2855
  464MOL0     H64001  11.636   1.639   2.031  3.1424  0.0121 -0.2326
  464MOL0     H64002  11.782   1.490   2.170 -0.2475  0.3567 -0.6192
  464MOL0     H64003  11.792   1.620   2.291  0.6845  3.0552 -0.0003
  464MOL0     H64004  11.874   1.667   1.995 -1.5572 -1.5977 -0.9252
  464MOL0     H64005  11.878   1.784   2.126 -0.6928 -1.2277  0.3688
  464MOL0     H64006  12.032   1.522   2.168  2.6715 -0.6353 -0.4138
  464MOL0     H64007  12.049   1.670   2.252 -0.3081 -0.7797 -0.4070
  464MOL0     H64008  12.157   1.789   2.084 -0.7639 -0.2918  1.2626
  464MOL0     H64009  12.138   1.669   1.961 -0.7397 -1.0625  0.4438
  464MOL0     H64010  12.300   1.520   2.040  2.5381  1.0574 -0.5954
  464MOL0     H64011  12.294   1.604   2.201  1.2654  0.2657  0.8359
  464MOL0     H64012  11.288   1.927   2.229  2.0449 -2.5082  1.8960
  464MOL0     H64013  11.069   2.022   2.149 -1.5715  0.4131  1.1523
  464MOL0     H64014  10.637   1.975   2.134 -2.3839  0.1295  0.9282
  464MOL0     H64015  10.417   2.042   2.112  0.3566  0.9216 -1.6013
  464MOL0     H64016   9.110   1.113   2.384 -1.1068  1.4483 -1.4002
  464MOL0     H64017   8.898   1.131   2.258 -0.9770  0.4218 -0.5714
  464MOL0     H64018   8.657   0.818   1.926 -3.0631 -2.9714 -0.4289
  464MOL0     H64019   8.445   0.709   1.935 -1.7846 -0.7988 -0.0814
  464MOL0     H64020   8.180   0.773   1.853 -1.8147  2.0756 -0.0668
  464MOL0     H64021   8.217   0.646   1.979 -0.3508 -0.3450 -1.3943
  464MOL0     H64022   7.998   0.657   1.898  0.0477 -0.6601 -0.4496
  464MOL0     H64023   7.969   0.820   1.971  1.0451  0.0514 -2.2016
  464MOL0     H64024   8.042   0.564   2.137  0.1787  1.1608  1.5181
  464MOL0     H64025   8.053   0.722   2.201  1.0008 -2.0267  1.4733
  464MOL0     H64026   7.818   0.569   2.061  2.5242  0.3930 -1.2292
  464MOL0     H64027   7.794   0.736   2.098  0.2988 -0.3371 -1.6220
  464MOL0     H64028   7.751   0.533   2.483 -0.7045  0.1188 -0.1685
  464MOL0     H64029   8.295   1.045   2.173 -0.7096  2.1184 -1.6128
  464MOL0     H64030   8.616   1.147   2.279 -0.0390 -0.0649  0.1748
  464MOL0     H64031   8.513   1.254   2.173  4.0622  0.3336 -0.5232
  464MOL0     H64032   8.445   1.149   2.300  1.7666 -2.3458  1.3194
  465MOL0     O64033   8.962   1.689   7.751  0.3988  0.1639  0.7918
  465MOL0     C64034   8.989   1.778   7.830 -0.6637 -0.1002 -0.0026
  465MOL0     O64035   9.111   1.828   7.859  0.2442 -0.0938  0.3304
  465MOL0     C64036   9.218   1.779   7.793 -0.2919 -1.0368  0.3269
  465MOL0     C64037   9.325   1.733   7.868 -0.6924  0.1142  0.3929
  465MOL0     C64038   9.447   1.709   7.814  0.7351  0.4622  0.2982
  465MOL0     C64039   9.473   1.728   7.677 -0.1217  1.6768  0.4739
  465MOL0     O64040   9.602   1.710   7.627 -0.1267 -1.3207 -0.3366
  465MOL0     C64041   9.612   1.633   7.506  0.2718  0.9360  0.2150
  465MOL0     C64042   9.763   1.602   7.487  0.8250 -1.0562 -0.5945
  465MOL0     C64043   9.798   1.489   7.584 -0.0741 -0.4587  0.3953
  465MOL0     C64044   9.948   1.465   7.577 -0.1229 -0.0206  0.2733
  465MOL0     C64045   9.994   1.335   7.652  0.5558 -0.4215  0.4218
  465MOL0     C64046  10.128   1.284   7.616  0.4092  1.0244 -0.8351
  465MOL0     C64047  10.239   1.365   7.687  0.0793 -0.2088 -0.2628
  465MOL0     C64048  10.372   1.286   7.655  0.7319 -0.1055  0.0501
  465MOL0     N64049  10.483   1.356   7.710  0.2241 -0.3297  0.2474
  465MOL0     C64050  10.501   1.494   7.715 -0.6012  0.3368 -0.6048
  465MOL0     C64051  10.629   1.511   7.745  0.3301  0.9407  0.7614
  465MOL0     C64052  10.708   1.646   7.731  0.2576 -0.2705  0.4706
  465MOL0     C64053  10.848   1.657   7.799 -0.0923  0.8685 -0.0854
  465MOL0     C64054  10.958   1.593   7.712  1.0380  0.5586  0.3548
  465MOL0     C64055  11.095   1.589   7.773  0.8930 -0.2716  0.2429
  465MOL0     O64056  11.151   1.724   7.780 -0.0541  0.0891  0.1076
  465MOL0     C64057  11.292   1.730   7.801  0.0714  0.2067  0.5481
  465MOL0     C64058  11.359   1.842   7.753  0.2847 -0.5179 -1.1356
  465MOL0     C64059  11.501   1.859   7.759  1.0771 -0.3868 -0.9184
  465MOL0     C64060  11.551   1.980   7.684  0.1202  0.1894 -0.5979
  465MOL0     C64061  11.585   1.755   7.819  0.7383 -0.8800  0.4935
  465MOL0     C64062  11.727   1.759   7.827  0.3690 -1.3474 -0.3325
  465MOL0     O64063  11.785   1.637   7.853  0.4890  0.7120  0.1849
  465MOL0     C64064  11.916   1.638   7.899 -0.0852 -0.0236  0.2300
  465MOL0     C64065  12.022   1.605   7.805  0.0533  0.0937 -0.2417
  465MOL0     C64066  12.151   1.609   7.851  0.4402 -0.2348 -0.4081
  465MOL0     C64067  12.182   1.641   7.985 -0.4274 -0.3256 -0.5674
  465MOL0     O64068  12.309   1.622   8.022 -0.4355 -0.0528 -0.2674
  465MOL0     C64069  12.353   1.662   8.157 -0.5054 -0.1219  0.6488
  465MOL0     C64070  12.503   1.661   8.170 -0.3934  0.3245  0.1846
  465MOL0     C64071  12.554   1.710   8.305  0.7022 -0.4371 -0.2452
  465MOL0     C64072  12.703   1.689   8.332 -0.1847 -0.1329 -0.3747
  465MOL0     C64073  12.753   1.769   8.450 -0.6867  0.6742 -0.0179
  465MOL0     C64074  12.700   1.707   8.577  0.6638 -0.2718  0.1675
  465MOL0     C64075  12.728   1.795   8.705 -0.6468 -0.7612 -0.1665
  465MOL0     C64076  12.657   1.731   8.826  0.2758 -0.4323 -0.1732
  465MOL0    Cl64077  12.748   1.591   8.902 -0.3318 -0.5535  0.1425
  465MOL0     C64078  12.086   1.680   8.075  0.3866 -0.1190  0.7209
  465MOL0     C64079  11.952   1.674   8.034 -0.0609 -0.2295 -0.1144
  465MOL0     O64080  11.780   1.871   7.830 -0.4556 -0.2466 -0.0280
  465MOL0     C64081  11.514   1.641   7.863 -0.2031 -0.6748 -0.7656
  465MOL0     C64082  11.375   1.631   7.857  0.1997  0.0842  0.2904
  465MOL0     N64083  10.679   1.387   7.785  0.0457  0.0890 -0.4431
  465MOL0     N64084  10.594   1.298   7.754  0.0221 -0.1137 -0.2364
  465MOL0     C64085   9.358   1.752   7.601  0.5670 -0.5116  1.0911
  465MOL0     C64086   9.229   1.783   7.647  0.3340  0.8396 -0.1179
  465MOL0     C64087   8.877   1.856   7.888  0.3361 -0.2171 -1.1567
  465MOL0     C64088   8.871   1.893   8.026 -0.4502  0.5968  0.1725
  465MOL0     C64089   8.761   1.958   8.083 -0.7392 -0.2374 -0.3687
  465MOL0     C64090   8.645   1.986   8.013 -0.3113 -0.6279 -0.2241
  465MOL0     O64091   8.538   2.061   8.054  0.3443  0.5310  0.7720
  465MOL0     C64092   8.505   2.057   8.191  0.0879 -0.1226  0.1574
  465MOL0     C64093   8.445   1.928   8.248 -1.1023  0.3992  0.4097
  465MOL0     C64094   8.301   1.915   8.216  0.2823  0.4976  0.5045
  465MOL0     C64095   8.239   1.781   8.241  0.0403 -0.8115 -0.7974
  465MOL0     C64096   8.247   1.754   8.384 -0.8223  0.5793  0.2716
  465MOL0     C64097   8.251   1.752   8.500  0.1318  0.7687 -0.4165
  465MOL0     C64098   8.654   1.960   7.877 -0.9100 -0.6235  0.1555
  465MOL0     C64099   8.766   1.895   7.817  0.1071 -0.2406 -0.1856
  465MOL0     C64100   8.746   1.854   7.677 -0.3650 -0.5094 -0.0737
  465MOL0     H64101   9.318   1.731   7.976 -0.3992 -0.0697  0.4086
  465MOL0     H64102   9.519   1.680   7.890 -0.7478 -1.6918  1.0071
  465MOL0     H64103   9.583   1.699   7.423  0.9339  0.6268 -0.2671
  465MOL0     H64104   9.553   1.541   7.510  0.7100  0.6923  1.9096
  465MOL0     H64105   9.791   1.576   7.385  0.7765  3.3785 -1.9642
  465MOL0     H64106   9.821   1.693   7.504  0.4964 -1.4653  4.0236
  465MOL0     H64107   9.760   1.506   7.685 -2.8551 -0.9867 -0.4587
  465MOL0     H64108   9.746   1.399   7.549  1.5901 -0.5694 -2.0599
  465MOL0     H64109   9.980   1.438   7.477 -1.0588 -2.1990  0.4929
  465MOL0     H64110   9.997   1.556   7.614 -4.3088  2.4116  0.5603
  465MOL0     H64111   9.928   1.255   7.618  3.2645 -1.7150 -2.1481
  465MOL0     H64112   9.967   1.324   7.758  1.9574  0.0662  0.8518
  465MOL0     H64113  10.130   1.186   7.663  0.0103  0.4054 -2.0729
  465MOL0     H64114  10.156   1.273   7.511 -0.9112  3.8064 -1.5714
  465MOL0     H64115  10.220   1.365   7.795 -1.6863  2.0783 -0.4803
  465MOL0     H64116  10.243   1.471   7.660  0.6226 -0.3957 -0.9362
  465MOL0     H64117  10.369   1.185   7.697 -0.5250  1.1296  3.2567
  465MOL0     H64118  10.386   1.291   7.547  0.1721 -0.5892 -0.0526
  465MOL0     H64119  10.435   1.575   7.686 -0.3759  0.0098 -2.1209
  465MOL0     H64120  10.633   1.718   7.767 -3.3427 -2.8418 -1.2970
  465MOL0     H64121  10.721   1.680   7.628 -0.1436 -0.0551  0.4839
  465MOL0     H64122  10.891   1.757   7.798 -3.2203  2.3427 -0.0031
  465MOL0     H64123  10.851   1.617   7.901 -0.1702 -1.0204 -0.7785
  465MOL0     H64124  10.918   1.493   7.692  0.6969  0.9154 -0.8139
  465MOL0     H64125  10.963   1.646   7.617 -3.1991 -1.3957 -1.2169
  465MOL0     H64126  11.095   1.552   7.876 -2.1326  0.8995  0.7521
  465MOL0     H64127  11.157   1.520   7.715  1.1541 -0.4247  0.6968
  465MOL0     H64128  11.300   1.927   7.721  0.0864 -1.4700 -3.5144
  465MOL0     H64129  11.567   2.063   7.753 -0.6235 -0.2974  0.1756
  465MOL0     H64130  11.465   2.009   7.622 -2.7152  0.3040  3.0729
  465MOL0     H64131  11.641   1.951   7.630  0.9673  0.3299  0.6933
  465MOL0     H64132  12.003   1.579   7.702 -2.0252 -0.7947  0.3030
  465MOL0     H64133  12.231   1.576   7.786  2.5419 -2.5617  2.9783
  465MOL0     H64134  12.323   1.766   8.169 -1.6011 -0.5682  2.1961
  465MOL0     H64135  12.311   1.594   8.232  0.8229 -3.7150 -1.5925
  465MOL0     H64136  12.546   1.563   8.148  1.5620  0.7088  1.9595
  465MOL0     H64137  12.536   1.731   8.093 -1.6419  0.3484 -0.3447
  465MOL0     H64138  12.508   1.649   8.383  1.5970  2.6357  2.9068
  465MOL0     H64139  12.536   1.817   8.318  0.1129 -0.6922  1.1997
  465MOL0     H64140  12.759   1.726   8.246 -1.5504  1.0124 -0.8035
  465MOL0     H64141  12.734   1.584   8.332 -0.8294 -0.3326 -0.2176
  465MOL0     H64142  12.862   1.755   8.454 -0.8859 -0.8709  0.7141
  465MOL0     H64143  12.738   1.877   8.439  2.4197  1.3619  1.3399
  465MOL0     H64144  12.741   1.607   8.591  1.3464 -0.3381 -2.0152
  465MOL0     H64145  12.592   1.691   8.565  0.6029 -0.1644  0.5535
  465MOL0     H64146  12.700   1.899   8.688 -0.4815 -0.6491  0.2347
  465MOL0     H64147  12.836   1.803   8.723 -0.7426  2.4235 -0.4806
  465MOL0     H64148  12.557   1.693   8.804 -0.4859 -0.1958  2.5266
  465MOL0     H64149  12.635   1.806   8.903 -1.3016 -2.1188  1.0992
  465MOL0     H64150  12.095   1.707   8.180  0.3150 -2.1447  1.3078
  465MOL0     H64151  11.869   1.693   8.102  0.4975 -4.3853  2.0773
  465MOL0     H64152  11.564   1.559   7.914  1.1059  2.0802  2.7471
  465MOL0     H64153  11.323   1.542   7.891 -1.5129  1.1580  0.6620
  465MOL0     H64154   9.362   1.748   7.493  0.8083 -2.9204  1.1174
  465MOL0     H64155   9.145   1.804   7.581  0.2986  1.8300  0.2192
  465MOL0     H64156   8.959   1.867   8.083 -0.3480  0.1949 -0.1596
  465MOL0     H64157   8.771   1.985   8.188 -1.3753 -2.7267  0.3829
  465MOL0     H64158   8.594   2.090   8.246  1.7760 -1.7182 -1.4933
  465MOL0     H64159   8.423   2.127   8.211 -0.6266 -1.5167  2.5698
  465MOL0     H64160   8.450   1.931   8.357 -0.3592  2.3962  0.3501
  465MOL0     H64161   8.499   1.847   8.197 -2.7474  1.6306 -3.6722
  465MOL0     H64162   8.236   1.989   8.264  0.2212 -0.2993  1.6651
  465MOL0     H64163   8.307   1.937   8.109 -0.9589 -0.9931  0.1009
  465MOL0     H64164   8.291   1.703   8.184  0.1590  1.5293 -4.1636
  465MOL0     H64165   8.138   1.774   8.201 -0.7875  0.3735  0.9593
  465MOL0     H64166   8.257   1.744   8.606 -1.1160 -1.6224 -0.4555
  465MOL0     H64167   8.576   1.986   7.805  1.1603 -1.5140 -2.5519
  465MOL0     H64168   8.699   1.936   7.623  0.8930 -1.7677 -3.3192
  465MOL0     H64169   8.841   1.832   7.627 -0.3184 -3.1073  1.0131
  465MOL0     H64170   8.681   1.766   7.678 -2.7041  1.1079 -1.4918
  466MOL0     O64171   5.932   0.127  10.706  0.5780  0.0125  0.3496
  466MOL0     C64172   6.001   0.165  10.612  0.0528 -0.0293 -0.1931
  466MOL0     O64173   6.127   0.114  10.580 -0.5248  0.7389 -0.5954
  466MOL0     C64174   6.155  -0.009  10.636 -0.1035  0.3751 -0.1300
  466MOL0     C64175   6.239  -0.018  10.747  0.1947  0.3516 -0.3913
  466MOL0     C64176   6.291  -0.142  10.787 -1.2891  0.5383  0.3114
  466MOL0     C64177   6.260  -0.261  10.723 -0.5867 -0.4184 -0.7263
  466MOL0     O64178   6.312  -0.381  10.754  1.2345  0.3360 -0.9278
  466MOL0     C64179   6.311  -0.421  10.890 -1.1366 -0.0470 -0.5342
  466MOL0     C64180   6.431  -0.510  10.913  0.0628 -0.0252 -0.0635
  466MOL0     C64181   6.555  -0.444  10.972 -0.0208  0.2901 -0.4838
  466MOL0     C64182   6.664  -0.549  10.996  0.0812 -0.8191 -0.0597
  466MOL0     C64183   6.761  -0.482  11.099 -0.5272 -0.1219  0.2308
  466MOL0     C64184   6.838  -0.582  11.184  0.0489 -0.5892 -0.0437
  466MOL0     C64185   6.917  -0.666  11.087 -0.0702  0.3805 -0.4129
  466MOL0     C64186   7.028  -0.749  11.159  0.7446  0.9113  0.8884
  466MOL0     N64187   6.974  -0.873  11.222 -0.4464 -0.1359  0.2364
  466MOL0     C64188   6.901  -0.974  11.153  0.2927  0.5444  0.2705
  466MOL0     C64189   6.859  -1.058  11.256  0.0719 -0.6216  0.7705
  466MOL0     C64190   6.775  -1.184  11.262  0.0905  0.0934 -1.0272
  466MOL0     C64191   6.761  -1.262  11.138 -0.2722 -0.3037 -0.2035
  466MOL0     C64192   6.689  -1.394  11.152  0.7580  0.7192 -0.6806
  466MOL0     C64193   6.755  -1.502  11.246  0.3148 -0.5900 -0.7499
  466MOL0     O64194   6.884  -1.530  11.191 -0.6560  0.7043  0.3354
  466MOL0     C64195   6.969  -1.626  11.246  0.6527  0.1572 -0.2104
  466MOL0     C64196   7.104  -1.618  11.219 -0.2612 -0.4406  0.6771
  466MOL0     C64197   7.200  -1.702  11.273  0.0649  1.0653 -1.1771
  466MOL0     C64198   7.346  -1.671  11.238  0.2947 -0.1214 -0.2068
  466MOL0     C64199   7.161  -1.797  11.369  0.6867  0.2991  0.0554
  466MOL0     C64200   7.258  -1.884  11.448  0.6067  0.7500  0.2277
  466MOL0     O64201   7.392  -1.881  11.420  0.2686  0.3661 -0.7932
  466MOL0     C64202   7.483  -1.957  11.493 -1.2675 -0.2500  0.2026
  466MOL0     C64203   7.559  -2.050  11.423 -0.0138  0.4771  0.0014
  466MOL0     C64204   7.648  -2.130  11.500  0.0634 -0.3110 -0.4066
  466MOL0     C64205   7.663  -2.098  11.640 -0.1590  0.6857  0.3991
  466MOL0     O64206   7.750  -2.176  11.719  0.1016 -0.1951 -0.2324
  466MOL0     C64207   7.870  -2.108  11.736 -0.0021  0.3704  0.7087
  466MOL0     C64208   7.967  -2.104  11.611  0.3892 -0.0816 -0.6743
  466MOL0     C64209   8.012  -2.242  11.560  0.6626 -0.4008  0.4079
  466MOL0     C64210   8.070  -2.328  11.672  0.1339  0.1112  0.0547
  466MOL0     C64211   8.113  -2.464  11.617 -0.1228  1.1370 -0.3226
  466MOL0     C64212   8.174  -2.545  11.734  0.4325 -0.4649 -0.4860
  466MOL0     C64213   8.061  -2.594  11.827 -0.7710  0.0159 -0.3278
  466MOL0     C64214   8.118  -2.703  11.919 -0.4803 -0.0269 -0.0049
  466MOL0    Cl64215   8.257  -2.642  12.010  0.3042  0.1794 -0.6687
  466MOL0     C64216   7.591  -2.000  11.709  0.0154 -0.2814 -0.3491
  466MOL0     C64217   7.499  -1.931  11.624 -1.3034  0.3452  0.1913
  466MOL0     O64218   7.203  -1.954  11.534 -0.1721 -0.9127  0.2335
  466MOL0     C64219   7.022  -1.816  11.390  0.5341 -0.9852 -0.3067
  466MOL0     C64220   6.927  -1.735  11.326  0.3647 -1.1498 -0.9595
  466MOL0     N64221   6.914  -1.010  11.377 -0.3267 -0.3453 -0.7380
  466MOL0     N64222   6.989  -0.912  11.356 -1.0760 -1.5086  1.0478
  466MOL0     C64223   6.183  -0.246  10.612 -0.3813 -0.1311  1.0717
  466MOL0     C64224   6.125  -0.125  10.563 -0.6513 -0.0978  0.5618
  466MOL0     C64225   5.949   0.284  10.538  1.2848  0.2545 -0.0867
  466MOL0     C64226   6.040   0.346  10.453 -0.7733  0.1006 -0.8317
  466MOL0     C64227   5.993   0.442  10.369  0.3024  0.0400  0.4054
  466MOL0     C64228   5.867   0.498  10.371  0.4506 -0.2609  0.8570
  466MOL0     O64229   5.850   0.603  10.282  0.4842 -0.4945  1.1170
  466MOL0     C64230   5.724   0.667  10.246 -0.1022 -0.0138  0.5428
  466MOL0     C64231   5.695   0.786  10.343 -0.4028 -0.1003 -0.3173
  466MOL0     C64232   5.556   0.844  10.320  0.4291 -0.1024  0.5745
  466MOL0     C64233   5.542   0.909  10.187 -0.4921 -1.0728  0.1498
  466MOL0     C64234   5.421   0.990  10.192 -0.0719 -0.0040 -0.4672
  466MOL0     C64235   5.323   1.063  10.169  0.2456 -0.4148 -0.3236
  466MOL0     C64236   5.772   0.441  10.457  0.3019 -0.1627 -0.4898
  466MOL0     C64237   5.809   0.333  10.541  0.1086 -0.8268  0.7123
  466MOL0     C64238   5.701   0.279  10.628  0.1837  0.4267 -0.7359
  466MOL0     H64239   6.255   0.081  10.790 -1.9723 -0.2902  2.1707
  466MOL0     H64240   6.364  -0.130  10.866  2.2801  1.3018 -2.7895
  466MOL0     H64241   6.225  -0.485  10.912 -0.4171 -0.3776  1.5669
  466MOL0     H64242   6.309  -0.338  10.962  1.4892 -1.9516  1.9572
  466MOL0     H64243   6.403  -0.582  10.990 -0.1222 -0.3643 -0.4399
  466MOL0     H64244   6.457  -0.565  10.822  1.2242 -1.6603  1.1886
  466MOL0     H64245   6.603  -0.374  10.903 -0.2380  1.0033  0.0867
  466MOL0     H64246   6.508  -0.399  11.060 -0.7364  0.9951 -1.2029
  466MOL0     H64247   6.625  -0.643  11.034  2.8420 -2.2017 -0.3991
  466MOL0     H64248   6.729  -0.567  10.910  1.3980  0.6108  0.5880
  466MOL0     H64249   6.708  -0.419  11.171 -3.0642 -0.6091 -1.0825
  466MOL0     H64250   6.840  -0.427  11.047 -1.0546 -0.4142 -0.9292
  466MOL0     H64251   6.906  -0.528  11.251  0.3495  1.6531 -2.0318
  466MOL0     H64252   6.768  -0.640  11.245  2.6280 -2.8597  0.9651
  466MOL0     H64253   6.966  -0.595  11.019 -1.7411  2.2099  0.2281
  466MOL0     H64254   6.860  -0.739  11.029  0.4817 -0.3464 -0.0596
  466MOL0     H64255   7.101  -0.778  11.083 -0.7596 -0.2831 -0.1865
  466MOL0     H64256   7.071  -0.690  11.240  0.4450  1.4609  0.6555
  466MOL0     H64257   6.871  -0.989  11.049  2.4535  0.4738 -0.3835
  466MOL0     H64258   6.676  -1.154  11.296  0.0858 -2.2631  1.3410
  466MOL0     H64259   6.813  -1.245  11.344 -2.9717 -1.1161 -0.3880
  466MOL0     H64260   6.717  -1.201  11.058  0.8972 -0.1127 -0.7358
  466MOL0     H64261   6.861  -1.285  11.099  1.2082  3.2052  1.1479
  466MOL0     H64262   6.586  -1.375  11.182  0.3893  0.9762 -2.0169
  466MOL0     H64263   6.683  -1.436  11.051 -2.2896 -1.1407  0.1555
  466MOL0     H64264   6.760  -1.461  11.347 -0.4402  1.5900 -1.5548
  466MOL0     H64265   6.696  -1.593  11.260 -0.8594  0.1925 -0.4489
  466MOL0     H64266   7.136  -1.534  11.157  0.2349  0.7938  2.5327
  466MOL0     H64267   7.410  -1.623  11.312  2.8801 -2.6354 -0.6606
  466MOL0     H64268   7.338  -1.609  11.148 -2.7953 -1.3242 -0.9121
  466MOL0     H64269   7.404  -1.759  11.208  0.5242  0.0623 -0.3076
  466MOL0     H64270   7.562  -2.067  11.316  3.4201  0.7839 -0.0763
  466MOL0     H64271   7.705  -2.207  11.449  0.9589 -0.7852  1.2170
  466MOL0     H64272   7.872  -2.001  11.760 -0.1200  0.4672  0.3084
  466MOL0     H64273   7.920  -2.159  11.819 -1.5717 -0.6993  1.0223
  466MOL0     H64274   7.918  -2.043  11.535  0.6885 -0.3484 -1.0902
  466MOL0     H64275   8.060  -2.052  11.635  0.9582 -1.1528 -0.4593
  466MOL0     H64276   8.080  -2.211  11.480  1.0183 -2.6264 -0.2394
  466MOL0     H64277   7.925  -2.296  11.520  0.6783  0.8673 -1.4868
  466MOL0     H64278   7.998  -2.338  11.754 -0.7701  0.8124 -0.6194
  466MOL0     H64279   8.165  -2.286  11.704 -0.4240  1.3777  0.1229
  466MOL0     H64280   8.028  -2.514  11.569  0.4029 -0.5865  0.4487
  466MOL0     H64281   8.194  -2.460  11.544 -1.0424 -2.8927 -1.8289
  466MOL0     H64282   8.245  -2.481  11.787 -0.3139  0.1105 -0.1646
  466MOL0     H64283   8.216  -2.642  11.706  0.1735 -1.6922  2.8899
  466MOL0     H64284   7.976  -2.629  11.769 -2.6455  1.9270  1.0910
  466MOL0     H64285   8.016  -2.512  11.885 -1.0713 -0.0617 -0.4497
  466MOL0     H64286   8.158  -2.782  11.855 -0.1778  1.1067 -1.2626
  466MOL0     H64287   8.033  -2.738  11.978  0.7376 -1.8017  0.7981
  466MOL0     H64288   7.610  -1.979  11.814  5.4256 -0.4181 -0.9903
  466MOL0     H64289   7.452  -1.842  11.663  1.8067  1.5510  1.4645
  466MOL0     H64290   6.984  -1.888  11.463 -1.7478  0.7558  0.3331
  466MOL0     H64291   6.820  -1.753  11.330 -0.5872  3.4769 -0.5963
  466MOL0     H64292   6.166  -0.337  10.556  1.2946 -0.7762  1.5495
  466MOL0     H64293   6.084  -0.126  10.463  0.6923 -1.9362 -0.0402
  466MOL0     H64294   6.146   0.325  10.464 -0.2531  0.0717 -4.5375
  466MOL0     H64295   6.066   0.486  10.301  1.0357 -1.7636 -0.0333
  466MOL0     H64296   5.718   0.699  10.141  3.8934 -1.6785 -0.3813
  466MOL0     H64297   5.639   0.602  10.267 -2.0429  2.5167  1.0010
  466MOL0     H64298   5.782   0.853  10.344 -0.3244 -0.1839  1.6583
  466MOL0     H64299   5.684   0.741  10.442  0.1193 -0.6787 -0.5213
  466MOL0     H64300   5.470   0.778  10.335  1.1697 -1.5229 -1.0620
  466MOL0     H64301   5.550   0.922  10.396  2.2585 -0.0388  0.7114
  466MOL0     H64302   5.535   0.833  10.109  0.0045  0.1063 -1.0923
  466MOL0     H64303   5.628   0.971  10.162 -0.6938  1.1875  4.1886
  466MOL0     H64304   5.243   1.133  10.152  1.3661  0.8720 -0.4427
  466MOL0     H64305   5.673   0.482  10.471 -0.9451 -2.5032 -1.8974
  466MOL0     H64306   5.616   0.349  10.627 -0.2915 -0.1330 -0.3460
  466MOL0     H64307   5.668   0.184  10.586 -0.6706 -0.0064  0.8319
  466MOL0     H64308   5.734   0.261  10.731 -1.5774 -0.8154 -0.3291
  467MOL0     O64309   7.307  10.051   4.756  0.6504 -0.6386  0.3505
  467MOL0     C64310   7.271   9.932   4.732 -0.6826  0.1162  0.3152
  467MOL0     O64311   7.352   9.830   4.726 -0.1787 -0.1599 -0.7428
  467MOL0     C64312   7.488   9.851   4.727  0.1611  0.5995 -0.3410
  467MOL0     C64313   7.563   9.849   4.848 -0.5036  0.0373  0.6848
  467MOL0     C64314   7.699   9.875   4.839  0.2716  0.2585  0.8416
  467MOL0     C64315   7.764   9.910   4.725 -0.2573  0.3780  0.8398
  467MOL0     O64316   7.898   9.929   4.724 -0.7554  0.6341 -0.0365
  467MOL0     C64317   7.952  10.039   4.642  0.1810  0.0041  0.7147
  467MOL0     C64318   8.096  10.049   4.687  0.0730 -0.1528 -0.0650
  467MOL0     C64319   8.151  10.189   4.638  0.2206  0.2340 -0.0779
  467MOL0     C64320   8.293  10.212   4.694 -0.0301 -0.1919  0.7321
  467MOL0     C64321   8.328  10.355   4.646 -0.7062 -0.5958  0.8233
  467MOL0     C64322   8.453  10.412   4.724  0.3018 -0.2622 -0.7120
  467MOL0     C64323   8.532  10.523   4.647  0.8923 -0.1588 -0.3680
  467MOL0     C64324   8.666  10.556   4.698 -0.0861  0.8710 -0.8092
  467MOL0     N64325   8.664  10.578   4.844  0.0674 -0.1519  0.2248
  467MOL0     C64326   8.740  10.501   4.929 -0.0752  0.0143  0.4707
  467MOL0     C64327   8.736  10.561   5.047  0.4113  0.3584 -0.3016
  467MOL0     C64328   8.786  10.511   5.182  0.0064 -0.5718  0.1432
  467MOL0     C64329   8.929  10.555   5.212 -0.1535  0.4217  0.4537
  467MOL0     C64330   8.962  10.498   5.351 -0.6680 -0.4706 -0.5958
  467MOL0     C64331   9.118  10.519   5.370  0.9031  0.1596  0.4237
  467MOL0     O64332   9.169  10.657   5.359  0.2362 -0.2393  0.6017
  467MOL0     C64333   9.298  10.670   5.314  1.0925  0.2645 -0.4649
  467MOL0     C64334   9.333  10.789   5.256 -0.3732 -0.4213  0.5783
  467MOL0     C64335   9.459  10.814   5.189 -0.0177 -0.0108  0.8844
  467MOL0     C64336   9.478  10.946   5.107 -0.7817  1.0498  0.4003
  467MOL0     C64337   9.555  10.711   5.198 -0.0597  0.2619 -0.0376
  467MOL0     C64338   9.700  10.724   5.142 -0.3856 -0.0006  0.3383
  467MOL0     O64339   9.798  10.653   5.207  0.4740 -0.1428 -0.3055
  467MOL0     C64340   9.928  10.651   5.144  1.0685 -0.3944 -0.0977
  467MOL0     C64341  10.034  10.725   5.188 -0.8520  0.4492  0.5977
  467MOL0     C64342  10.170  10.715   5.133  0.8365 -1.2411 -0.0315
  467MOL0     C64343  10.200  10.610   5.037  1.6092  0.1683 -0.0666
  467MOL0     O64344  10.320  10.581   4.992 -0.1294 -0.6170  0.5165
  467MOL0     C64345  10.323  10.595   4.849  0.2235  0.8595  0.8239
  467MOL0     C64346  10.474  10.612   4.810  0.5213 -0.1443  0.0712
  467MOL0     C64347  10.562  10.684   4.914  0.2214 -0.7939  0.4945
  467MOL0     C64348  10.528  10.834   4.926  0.4774 -0.0884  0.2576
  467MOL0     C64349  10.654  10.909   4.983 -0.4951 -0.1141  0.1088
  467MOL0     C64350  10.627  11.046   5.034  0.2348 -0.6632  0.6566
  467MOL0     C64351  10.752  11.111   5.107 -0.1077  0.5052 -0.3609
  467MOL0     C64352  10.869  11.145   5.022  0.1371  0.5443  0.0093
  467MOL0    Cl64353  10.990  11.233   5.111 -0.1672 -0.5621 -0.2590
  467MOL0     C64354  10.087  10.533   4.994 -0.6871 -0.2319  0.8579
  467MOL0     C64355   9.954  10.555   5.041  0.4356 -0.0368 -0.0882
  467MOL0     O64356   9.723  10.801   5.055 -0.3850 -0.1619  0.2769
  467MOL0     C64357   9.523  10.598   5.274 -0.4395  0.1060  0.5055
  467MOL0     C64358   9.401  10.569   5.330 -0.3162 -0.3256 -0.3481
  467MOL0     N64359   8.665  10.673   5.032 -0.2164 -0.2465 -0.1234
  467MOL0     N64360   8.617  10.683   4.907 -0.5784 -0.8287 -0.3485
  467MOL0     C64361   7.682   9.926   4.612 -0.1368  0.8420  0.0585
  467MOL0     C64362   7.546   9.886   4.601 -0.2623  0.0658 -0.1981
  467MOL0     C64363   7.123   9.900   4.725 -0.9266 -0.2417  0.2109
  467MOL0     C64364   7.083   9.774   4.681 -0.1449  0.0113  0.6343
  467MOL0     C64365   6.948   9.730   4.693 -0.4808 -0.2840 -0.1088
  467MOL0     C64366   6.857   9.812   4.758 -0.5868  1.3246 -0.3913
  467MOL0     O64367   6.733   9.767   4.781  0.5334 -0.5125 -0.7817
  467MOL0     C64368   6.640   9.836   4.869  0.6069 -0.1876  0.2548
  467MOL0     C64369   6.517   9.748   4.911  0.0054 -0.9284  0.0206
  467MOL0     C64370   6.435   9.693   4.799  0.3260  0.2091 -0.2748
  467MOL0     C64371   6.411   9.795   4.689 -0.7140  0.8052 -0.1713
  467MOL0     C64372   6.310   9.741   4.607 -0.3066 -0.4913  1.4549
  467MOL0     C64373   6.225   9.688   4.550  0.6795 -0.5529  0.0191
  467MOL0     C64374   6.892   9.942   4.770 -0.5518  0.2405 -0.2546
  467MOL0     C64375   7.027   9.990   4.748  0.2213 -0.0531 -0.4823
  467MOL0     C64376   7.037  10.131   4.786 -0.3294 -0.2200 -0.0843
  467MOL0     H64377   7.526   9.827   4.948  2.9252  1.9561  2.5626
  467MOL0     H64378   7.764   9.884   4.926 -0.6433  1.8332  1.3981
  467MOL0     H64379   7.894  10.129   4.665 -2.0858  0.2977 -4.6170
  467MOL0     H64380   7.944  10.011   4.536  0.9424 -1.7710  1.0931
  467MOL0     H64381   8.102  10.050   4.796  0.1866 -0.7420 -0.0610
  467MOL0     H64382   8.150   9.964   4.645 -1.0621 -0.7093 -0.4450
  467MOL0     H64383   8.152  10.181   4.529 -2.3223 -1.9714 -0.0280
  467MOL0     H64384   8.080  10.265   4.672  1.4647  0.4694  2.1443
  467MOL0     H64385   8.299  10.210   4.803  0.2445  1.7968  0.7789
  467MOL0     H64386   8.366  10.148   4.644 -1.0437 -2.6303  2.1404
  467MOL0     H64387   8.245  10.426   4.647  0.3587  0.7019  0.3015
  467MOL0     H64388   8.364  10.346   4.543  1.5114 -0.4575  1.5267
  467MOL0     H64389   8.422  10.435   4.826  2.8831 -0.6199  0.2186
  467MOL0     H64390   8.527  10.334   4.743 -1.0313 -0.7511  3.2733
  467MOL0     H64391   8.470  10.612   4.634  0.3787 -0.2373  1.3279
  467MOL0     H64392   8.549  10.487   4.545 -1.9908 -1.1737 -0.5685
  467MOL0     H64393   8.737  10.478   4.670  0.9511  1.7278 -0.6155
  467MOL0     H64394   8.714  10.644   4.654 -0.4822  0.7630 -1.4747
  467MOL0     H64395   8.790  10.411   4.893 -2.2619 -1.8272  1.7962
  467MOL0     H64396   8.792  10.402   5.189  2.2441 -0.4119  1.8044
  467MOL0     H64397   8.715  10.540   5.260 -1.4812  0.0887 -1.4012
  467MOL0     H64398   8.982  10.504   5.131 -1.0101 -2.6920  1.6877
  467MOL0     H64399   8.957  10.660   5.214 -1.9589  1.0221 -1.7353
  467MOL0     H64400   8.914  10.533   5.443 -0.8861  1.7407 -1.4894
  467MOL0     H64401   8.944  10.390   5.351 -0.8160 -0.4471 -0.8263
  467MOL0     H64402   9.137  10.485   5.473 -2.1512 -1.8263  0.4825
  467MOL0     H64403   9.154  10.453   5.291 -2.7324 -0.8394 -0.5951
  467MOL0     H64404   9.249  10.857   5.247 -0.0739 -0.2225 -1.1062
  467MOL0     H64405   9.418  11.028   5.147 -0.6782  1.6934 -0.7328
  467MOL0     H64406   9.432  10.936   5.008 -3.3284  0.0343  1.6008
  467MOL0     H64407   9.581  10.983   5.101  0.0540 -1.3157 -1.7132
  467MOL0     H64408  10.004  10.801   5.260  0.3623  1.2874  0.2448
  467MOL0     H64409  10.250  10.782   5.164  0.2874  0.5233 -2.1185
  467MOL0     H64410  10.288  10.505   4.798 -1.7857  2.5939 -1.0071
  467MOL0     H64411  10.262  10.679   4.815 -1.7279 -0.7038  0.2418
  467MOL0     H64412  10.524  10.517   4.792  1.6468  0.8703 -2.6638
  467MOL0     H64413  10.476  10.670   4.717  0.0758 -0.2549 -0.0093
  467MOL0     H64414  10.664  10.669   4.877 -0.0959  1.3154 -1.5064
  467MOL0     H64415  10.553  10.646   5.016 -3.5514  1.8257  1.3699
  467MOL0     H64416  10.437  10.841   4.987  0.0659 -0.6082 -0.2871
  467MOL0     H64417  10.502  10.885   4.833  0.0280 -0.5103  0.1492
  467MOL0     H64418  10.704  10.858   5.066  2.2196 -0.6279 -1.7210
  467MOL0     H64419  10.734  10.912   4.909  0.2562  0.5518  0.9239
  467MOL0     H64420  10.541  11.033   5.100  0.0099 -2.8418  0.0118
  467MOL0     H64421  10.599  11.124   4.961 -0.7879  1.1930  2.9048
  467MOL0     H64422  10.780  11.053   5.196 -0.4145  2.0362  0.7933
  467MOL0     H64423  10.713  11.206   5.146 -1.5460 -0.4938  0.7827
  467MOL0     H64424  10.836  11.205   4.936 -1.1505  0.2997  0.3046
  467MOL0     H64425  10.903  11.046   4.990 -0.6924  0.1406  0.3447
  467MOL0     H64426  10.102  10.454   4.921  1.0688  1.5537 -0.8330
  467MOL0     H64427   9.874  10.492   5.003 -0.0794 -0.2421  1.2791
  467MOL0     H64428   9.604  10.526   5.272 -0.4325  0.1226 -1.2807
  467MOL0     H64429   9.398  10.483   5.395  2.7320  0.9367  1.6789
  467MOL0     H64430   7.721   9.948   4.513  2.2921 -1.5194  0.3648
  467MOL0     H64431   7.490   9.890   4.508 -1.2693  2.8805  0.4249
  467MOL0     H64432   7.159   9.707   4.642 -0.8028 -0.7900  0.6856
  467MOL0     H64433   6.917   9.631   4.663 -1.5674 -0.0216  0.0898
  467MOL0     H64434   6.691   9.873   4.958 -2.5575  0.0468  2.1148
  467MOL0     H64435   6.608   9.929   4.821  0.8138  0.2917  1.0187
  467MOL0     H64436   6.448   9.804   4.974 -0.7757 -0.3461 -1.3049
  467MOL0     H64437   6.556   9.664   4.969  0.1521 -0.2712  0.8974
  467MOL0     H64438   6.488   9.606   4.759  1.1287 -0.3173  1.8039
  467MOL0     H64439   6.337   9.674   4.843 -0.4709  3.5171 -0.3463
  467MOL0     H64440   6.503   9.807   4.630 -0.1189 -0.4970  0.4411
  467MOL0     H64441   6.379   9.892   4.728  3.0870  1.9504  0.5539
  467MOL0     H64442   6.134   9.638   4.521  0.0050 -0.8161  2.3315
  467MOL0     H64443   6.819  10.011   4.812  1.3641  0.9042  2.2084
  467MOL0     H64444   7.074  10.141   4.889 -0.7490 -0.5747  0.1027
  467MOL0     H64445   7.101  10.185   4.716  1.5943 -2.0283  0.1447
  467MOL0     H64446   6.941  10.181   4.774 -1.5794 -2.2332  0.8566
  468MOL0     O64447  10.529   7.094   9.466  0.4014  0.4030 -0.1387
  468MOL0     C64448  10.438   7.006   9.483 -0.0647 -0.1501 -0.8877
  468MOL0     O64449  10.467   6.897   9.564 -0.1048 -0.1954  0.6308
  468MOL0     C64450  10.593   6.850   9.556 -0.4351  0.1696  0.1640
  468MOL0     C64451  10.633   6.779   9.442 -0.0303  0.0322  0.2388
  468MOL0     C64452  10.766   6.725   9.435  0.5135 -0.0539  0.5386
  468MOL0     C64453  10.849   6.727   9.543 -0.4583 -0.2145 -0.4396
  468MOL0     O64454  10.980   6.684   9.545 -0.2743 -0.6984 -0.6396
  468MOL0     C64455  11.017   6.585   9.456  0.8545  0.1658 -0.2556
  468MOL0     C64456  11.164   6.573   9.456 -0.1221  0.6951  0.5284
  468MOL0     C64457  11.223   6.539   9.596  0.2631 -0.0694 -0.1853
  468MOL0     C64458  11.375   6.526   9.606  0.1469 -0.7849  0.9997
  468MOL0     C64459  11.413   6.491   9.754  0.2833  0.1330  0.4437
  468MOL0     C64460  11.557   6.438   9.762  0.0130  0.7835 -0.1202
  468MOL0     C64461  11.612   6.447   9.903 -0.1240  0.2397 -0.3952
  468MOL0     C64462  11.541   6.337   9.988 -0.2325  1.0112 -0.9367
  468MOL0     N64463  11.608   6.199   9.982 -0.2755 -0.3101  0.0539
  468MOL0     C64464  11.740   6.167  10.017 -0.0820 -0.5055 -0.8937
  468MOL0     C64465  11.754   6.041   9.973  0.3993 -1.0525  0.2983
  468MOL0     C64466  11.881   5.961   9.974 -0.5636  0.1316 -0.6576
  468MOL0     C64467  11.974   6.001   9.861 -0.7609  0.4274  0.0284
  468MOL0     C64468  12.021   6.152   9.857  0.5486  0.1789  0.6415
  468MOL0     C64469  12.048   6.194   9.717 -0.6034  0.0201 -0.5689
  468MOL0     O64470  12.131   6.314   9.714 -0.0773  0.1719 -0.9947
  468MOL0     C64471  12.135   6.395   9.612 -0.3649 -0.3093  0.4027
  468MOL0     C64472  12.103   6.366   9.485 -0.0260  1.3209  0.0721
  468MOL0     C64473  12.138   6.453   9.381 -0.1804 -0.7563  0.2208
  468MOL0     C64474  12.086   6.409   9.248  0.6211  0.1177  0.2550
  468MOL0     C64475  12.204   6.569   9.396  0.3134 -0.2079 -0.9991
  468MOL0     C64476  12.220   6.681   9.298 -0.4020 -0.5731  0.3997
  468MOL0     O64477  12.322   6.768   9.327  0.2233  0.6908  0.1595
  468MOL0     C64478  12.327   6.884   9.257  0.2748  0.5309  0.4326
  468MOL0     C64479  12.320   6.902   9.116  0.0314 -0.5568  0.2060
  468MOL0     C64480  12.322   7.033   9.060  0.6845 -0.0712  0.0355
  468MOL0     C64481  12.332   7.155   9.134 -0.0087 -0.1481 -0.5916
  468MOL0     O64482  12.310   7.274   9.067  0.0285  0.5139 -0.1757
  468MOL0     C64483  12.333   7.395   9.151  0.4331 -0.6665  0.5851
  468MOL0     C64484  12.302   7.515   9.067 -0.7302  0.6184  0.4345
  468MOL0     C64485  12.413   7.521   8.960  0.0567 -1.0932 -0.7052
  468MOL0     C64486  12.390   7.645   8.874 -1.5399  0.5005 -0.2958
  468MOL0     C64487  12.499   7.647   8.774 -0.1747 -0.5606  0.7657
  468MOL0     C64488  12.470   7.734   8.649 -0.1030 -0.0235  0.0158
  468MOL0     C64489  12.570   7.696   8.546  0.1047  0.5378 -0.2506
  468MOL0     C64490  12.556   7.772   8.413 -0.0488  0.3548 -0.2398
  468MOL0    Cl64491  12.399   7.724   8.348 -0.4345  0.1877 -0.2938
  468MOL0     C64492  12.359   7.128   9.271  0.1525  0.2470 -0.2288
  468MOL0     C64493  12.342   7.003   9.328  0.3406  0.1994 -0.8619
  468MOL0     O64494  12.139   6.695   9.208  0.2460  0.4602  0.7307
  468MOL0     C64495  12.246   6.599   9.528  0.2264  0.3739  0.5988
  468MOL0     C64496  12.211   6.515   9.637 -0.2730  0.2945  0.3076
  468MOL0     N64497  11.636   5.987   9.926  0.0146 -0.4243 -0.5871
  468MOL0     N64498  11.552   6.086   9.935  0.6339 -0.4441  0.1574
  468MOL0     C64499  10.806   6.792   9.662 -0.5544  0.3150  0.4255
  468MOL0     C64500  10.678   6.844   9.678  0.3203  0.2377  0.5794
  468MOL0     C64501  10.306   7.031   9.434 -1.3668 -0.2144 -0.0206
  468MOL0     C64502  10.292   7.075   9.301 -0.6369  0.7704 -0.5596
  468MOL0     C64503  10.166   7.093   9.250  0.2543 -0.9678  0.4357
  468MOL0     C64504  10.054   7.075   9.329 -0.0468  0.2274 -0.1501
  468MOL0     O64505   9.939   7.085   9.260 -0.0506  0.0010  0.2505
  468MOL0     C64506   9.818   7.134   9.317 -0.4391  0.1100 -0.4926
  468MOL0     C64507   9.708   7.098   9.229  0.1155 -0.3973  0.0619
  468MOL0     C64508   9.725   7.184   9.100  0.0638 -0.3365  1.1694
  468MOL0     C64509   9.720   7.333   9.104  0.1342  0.4042 -0.2835
  468MOL0     C64510   9.595   7.381   9.159 -0.0856  1.1443  0.7503
  468MOL0     C64511   9.499   7.434   9.202  0.4966 -0.5134  0.2080
  468MOL0     C64512  10.065   7.043   9.461 -0.2825  0.7212 -0.7530
  468MOL0     C64513  10.194   7.016   9.518 -0.5637  0.3677  0.0946
  468MOL0     C64514  10.198   6.968   9.658  0.5392  0.4868  0.3008
  468MOL0     H64515  10.564   6.770   9.359  1.8255  1.3021 -1.5374
  468MOL0     H64516  10.796   6.684   9.338  3.5345 -0.7601  1.6713
  468MOL0     H64517  10.984   6.599   9.352  1.5230  1.0389 -0.3628
  468MOL0     H64518  10.976   6.489   9.489 -3.4266  2.2173  1.1935
  468MOL0     H64519  11.194   6.495   9.386 -2.4224  0.5201 -0.3264
  468MOL0     H64520  11.211   6.671   9.442  0.0602  0.8110  1.7625
  468MOL0     H64521  11.214   6.618   9.671  0.0898 -0.8765  0.6616
  468MOL0     H64522  11.185   6.445   9.637 -2.6431  1.7475  1.6700
  468MOL0     H64523  11.396   6.442   9.538 -2.3367  1.4365 -2.9070
  468MOL0     H64524  11.425   6.619   9.578 -0.4858 -0.0712  2.1627
  468MOL0     H64525  11.336   6.432   9.804  1.0389 -1.5601 -0.3270
  468MOL0     H64526  11.412   6.587   9.808 -0.1888 -0.5785  1.7439
  468MOL0     H64527  11.568   6.333   9.735 -0.4302  0.3101  1.4568
  468MOL0     H64528  11.616   6.506   9.699  1.1475  0.8258  0.9417
  468MOL0     H64529  11.593   6.542   9.953 -1.3488 -0.9336  1.5137
  468MOL0     H64530  11.718   6.428   9.923 -0.3383  1.1462  2.0322
  468MOL0     H64531  11.538   6.364  10.094 -1.8527 -0.2004 -0.6369
  468MOL0     H64532  11.438   6.322   9.953  0.1332  1.4713 -2.2780
  468MOL0     H64533  11.817   6.224  10.067  0.3585 -1.9179  0.1308
  468MOL0     H64534  11.853   5.857   9.952  0.3061  0.0568 -1.4537
  468MOL0     H64535  11.931   5.971  10.071 -0.7214  0.3086 -0.5930
  468MOL0     H64536  12.061   5.936   9.856  0.9127  2.6205 -0.9889
  468MOL0     H64537  11.913   5.988   9.771 -1.1379  0.9308  0.2053
  468MOL0     H64538  11.957   6.230   9.898 -0.6940  0.5849 -1.8731
  468MOL0     H64539  12.119   6.146   9.905  0.5355  0.3040  0.6831
  468MOL0     H64540  12.094   6.115   9.656  0.6712 -0.3282  0.7886
  468MOL0     H64541  11.952   6.211   9.666  0.4132  0.4437 -2.4411
  468MOL0     H64542  12.052   6.273   9.466  0.5096  1.0342  0.0189
  468MOL0     H64543  12.034   6.313   9.247 -2.4462  1.6253 -2.1278
  468MOL0     H64544  12.165   6.402   9.173 -0.5808  0.8732 -1.1485
  468MOL0     H64545  12.011   6.477   9.207 -0.3659 -1.4833 -0.6853
  468MOL0     H64546  12.308   6.818   9.049 -1.4107 -1.6471  1.7613
  468MOL0     H64547  12.314   7.035   8.952  1.8425 -1.7886 -0.1300
  468MOL0     H64548  12.276   7.388   9.244  1.2650 -0.3310  1.1289
  468MOL0     H64549  12.438   7.395   9.182  1.6965  3.1712 -2.7734
  468MOL0     H64550  12.203   7.508   9.023  0.3788 -2.8023 -1.8998
  468MOL0     H64551  12.307   7.601   9.135 -3.0524  1.2985 -0.1995
  468MOL0     H64552  12.405   7.432   8.897 -1.5307 -1.6313  0.1837
  468MOL0     H64553  12.504   7.544   9.017  0.2390  2.2192 -2.1163
  468MOL0     H64554  12.375   7.733   8.937  2.2090  0.9337  0.2108
  468MOL0     H64555  12.299   7.616   8.821 -0.6396 -2.3358 -0.5036
  468MOL0     H64556  12.593   7.682   8.819  1.6157 -3.3142 -0.5046
  468MOL0     H64557  12.517   7.544   8.742  2.3867 -0.4583  1.6011
  468MOL0     H64558  12.476   7.838   8.681  0.4592 -0.2978  0.8378
  468MOL0     H64559  12.369   7.724   8.608  0.7522 -1.1673 -1.9758
  468MOL0     H64560  12.565   7.592   8.515 -1.0408  1.4637 -3.5520
  468MOL0     H64561  12.667   7.721   8.591 -0.5909  4.0040 -0.3406
  468MOL0     H64562  12.639   7.742   8.348  0.5974  1.3811  0.0759
  468MOL0     H64563  12.562   7.880   8.433 -0.4719  0.3641 -0.1523
  468MOL0     H64564  12.400   7.205   9.335  1.3260 -1.2335  0.8687
  468MOL0     H64565  12.372   6.999   9.432 -0.9822  0.3568 -0.4557
  468MOL0     H64566  12.303   6.691   9.540  1.0980 -0.1025  0.1994
  468MOL0     H64567  12.238   6.536   9.740 -0.9715  0.2831  0.4984
  468MOL0     H64568  10.879   6.793   9.743 -0.7870  1.2495  0.6345
  468MOL0     H64569  10.644   6.887   9.772 -0.0287 -2.0533  1.5861
  468MOL0     H64570  10.378   7.084   9.235 -1.1379  1.2521 -1.1634
  468MOL0     H64571  10.156   7.135   9.151 -1.1144  1.0302  1.3573
  468MOL0     H64572   9.812   7.102   9.421  1.4552  2.7611  0.5832
  468MOL0     H64573   9.818   7.243   9.331 -1.7707  0.1381 -0.6277
  468MOL0     H64574   9.608   7.127   9.263 -0.4982  2.0590 -3.3601
  468MOL0     H64575   9.714   6.990   9.209 -0.9045 -0.4291 -0.1544
  468MOL0     H64576   9.818   7.169   9.045  0.0188 -0.0806  1.0260
  468MOL0     H64577   9.648   7.144   9.032  1.2856 -0.9183  0.0734
  468MOL0     H64578   9.725   7.381   9.006 -0.9903  1.5546  0.2065
  468MOL0     H64579   9.801   7.372   9.167  1.6028 -1.7697 -0.7168
  468MOL0     H64580   9.416   7.493   9.236  1.5015  1.5362 -0.6921
  468MOL0     H64581   9.982   7.041   9.531 -0.0156  1.8637 -0.3719
  468MOL0     H64582  10.236   6.865   9.655 -0.8902 -0.0426 -1.6998
  468MOL0     H64583  10.270   7.019   9.723  0.3639 -0.5728  1.3633
  468MOL0     H64584  10.105   6.974   9.714 -0.1038  1.4206 -0.8166
  469MOL0     O64585   6.063  10.724  10.778  0.3210  0.2905  0.6770
  469MOL0     C64586   5.972  10.692  10.696 -0.7502  0.6192  0.0716
  469MOL0     O64587   5.988  10.678  10.557 -0.8915  0.2171  0.2891
  469MOL0     C64588   6.106  10.707  10.489  0.5429  0.1067 -0.5662
  469MOL0     C64589   6.207  10.795  10.539  0.6458  0.1041 -0.1898
  469MOL0     C64590   6.338  10.796  10.485  0.4410 -0.2142  0.0787
  469MOL0     C64591   6.358  10.721  10.375 -0.1536  0.5375  0.9260
  469MOL0     O64592   6.477  10.751  10.313  0.5245 -0.3441  0.4403
  469MOL0     C64593   6.520  10.675  10.203 -0.9623 -0.1052 -0.7855
  469MOL0     C64594   6.642  10.743  10.135 -0.1050 -0.7467 -0.6884
  469MOL0     C64595   6.768  10.713  10.223  0.7214 -0.0450 -0.9677
  469MOL0     C64596   6.885  10.766  10.143 -1.1709  0.1083  0.4036
  469MOL0     C64597   6.994  10.827  10.239  0.1222  1.0687 -0.0629
  469MOL0     C64598   7.077  10.709  10.304 -0.7172 -0.1086  0.0726
  469MOL0     C64599   7.206  10.740  10.375 -0.6616 -0.1065 -0.8004
  469MOL0     C64600   7.311  10.829  10.306 -0.4604  0.2955 -0.1396
  469MOL0     N64601   7.429  10.755  10.257 -0.0372 -0.6766  0.4091
  469MOL0     C64602   7.538  10.736  10.336 -0.5998  0.6406  1.7582
  469MOL0     C64603   7.631  10.684  10.250 -0.2487 -0.7668  0.1617
  469MOL0     C64604   7.764  10.654  10.304  0.5358  0.2514  0.3107
  469MOL0     C64605   7.805  10.508  10.312  0.5783 -0.1777  0.8683
  469MOL0     C64606   7.937  10.493  10.388  0.2548  0.3205 -0.0765
  469MOL0     C64607   7.996  10.350  10.400  0.8115 -0.5204  0.6884
  469MOL0     O64608   8.040  10.294  10.283 -0.5011  0.0252 -0.5514
  469MOL0     C64609   8.175  10.288  10.254 -0.0815 -0.2351  1.0663
  469MOL0     C64610   8.192  10.225  10.127  0.8403  0.2691  0.1276
  469MOL0     C64611   8.321  10.200  10.079 -0.2181 -0.4988  1.0838
  469MOL0     C64612   8.339  10.147   9.936  0.6343 -0.1899  0.4015
  469MOL0     C64613   8.432  10.239  10.158 -0.6040 -1.2414 -0.2979
  469MOL0     C64614   8.579  10.205  10.134  0.1789  0.1131  0.4533
  469MOL0     O64615   8.678  10.278  10.188 -0.0052  0.2633  0.6888
  469MOL0     C64616   8.806  10.237  10.180  0.7272 -0.8575  0.3229
  469MOL0     C64617   8.898  10.318  10.119  0.0341 -0.2843  0.7457
  469MOL0     C64618   9.035  10.301  10.135 -1.1915  0.1788  0.9742
  469MOL0     C64619   9.084  10.190  10.199 -0.3727  0.2725 -0.5844
  469MOL0     O64620   9.210  10.153  10.216 -0.1924 -0.2295  0.1296
  469MOL0     C64621   9.315  10.221  10.150  0.5299  0.5260  0.0640
  469MOL0     C64622   9.435  10.127  10.167  0.5167  0.2938 -0.9752
  469MOL0     C64623   9.411   9.992  10.131  0.3447  0.3784  0.8032
  469MOL0     C64624   9.536   9.904  10.152  0.6089 -0.1932  0.5105
  469MOL0     C64625   9.506   9.778  10.079  0.1736  0.8808  0.1302
  469MOL0     C64626   9.593   9.658  10.109  0.7042 -0.0691  0.0026
  469MOL0     C64627   9.593   9.550  10.000 -0.0142 -0.4357  0.2495
  469MOL0     C64628   9.716   9.464  10.020 -0.2875  0.4934  0.3534
  469MOL0    Cl64629   9.683   9.342  10.146  0.1741 -0.2039 -0.5956
  469MOL0     C64630   8.995  10.095  10.240 -0.3175  0.8354  0.6563
  469MOL0     C64631   8.858  10.121  10.236 -0.3132  0.1066  0.1147
  469MOL0     O64632   8.601  10.104  10.061  0.3619  0.0529  0.1697
  469MOL0     C64633   8.416  10.299  10.290  0.4596 -0.1365  0.0218
  469MOL0     C64634   8.283  10.315  10.342 -1.1223  0.0945 -1.0775
  469MOL0     N64635   7.578  10.669  10.125  0.3130 -0.1615 -0.2447
  469MOL0     N64636   7.460  10.706  10.129  0.4527 -0.4737  0.3475
  469MOL0     C64637   6.261  10.631  10.319 -0.3917 -0.2958 -0.2013
  469MOL0     C64638   6.137  10.627  10.374 -0.3420 -0.2157 -0.6054
  469MOL0     C64639   5.844  10.657  10.752  0.5674 -0.3633 -0.7636
  469MOL0     C64640   5.732  10.663  10.666  0.2839 -0.1149  0.3418
  469MOL0     C64641   5.608  10.624  10.704  0.6246  0.1271 -0.2968
  469MOL0     C64642   5.583  10.591  10.836  0.0303  0.2509  0.1396
  469MOL0     O64643   5.459  10.563  10.888 -0.0859 -0.0049  0.5597
  469MOL0     C64644   5.345  10.608  10.809 -0.0956  0.2327 -0.2158
  469MOL0     C64645   5.235  10.659  10.901  0.3138 -0.0218 -0.0164
  469MOL0     C64646   5.194  10.538  10.984  0.8344 -0.6633 -0.3794
  469MOL0     C64647   5.080  10.589  11.081 -0.2666  0.1074 -0.1493
  469MOL0     C64648   4.948  10.600  11.025 -0.5899  0.7238  0.2044
  469MOL0     C64649   4.838  10.580  10.971  0.3047 -0.2795 -0.5970
  469MOL0     C64650   5.691  10.579  10.922  0.1369 -0.5877  0.0022
  469MOL0     C64651   5.820  10.619  10.883 -0.5210  0.3582 -0.4854
  469MOL0     C64652   5.924  10.606  10.982 -0.5401  0.3986  0.3936
  469MOL0     H64653   6.191  10.849  10.633  0.7436 -0.0548 -0.0812
  469MOL0     H64654   6.420  10.851  10.531 -1.0023  0.7912  1.5453
  469MOL0     H64655   6.442  10.673  10.126 -0.0875 -1.8959 -1.6919
  469MOL0     H64656   6.546  10.573  10.234  3.1568  0.8842 -0.3767
  469MOL0     H64657   6.661  10.704  10.034  0.8568 -0.4393 -0.6366
  469MOL0     H64658   6.623  10.851  10.133  1.0664 -0.3582  2.8661
  469MOL0     H64659   6.754  10.767  10.317 -1.1268 -0.8986 -0.7107
  469MOL0     H64660   6.778  10.606  10.242  0.0122 -0.0262 -0.4571
  469MOL0     H64661   6.913  10.678  10.084 -1.4558  0.7209 -0.6780
  469MOL0     H64662   6.858  10.853  10.083  1.7759  0.6398 -0.2895
  469MOL0     H64663   6.943  10.886  10.316 -0.2162 -1.7522  2.0339
  469MOL0     H64664   7.063  10.883  10.175  0.4089 -0.7401 -1.4310
  469MOL0     H64665   7.006  10.654  10.367 -1.5367 -0.2599 -0.9497
  469MOL0     H64666   7.106  10.643  10.223 -0.2794 -0.9810  0.9191
  469MOL0     H64667   7.259  10.650  10.406  3.4729  1.5762 -2.2322
  469MOL0     H64668   7.185  10.790  10.470 -1.2895  1.6843 -1.8356
  469MOL0     H64669   7.264  10.880  10.221  0.7016  1.0636 -0.3466
  469MOL0     H64670   7.349  10.900  10.380  3.7000 -0.4670 -1.3215
  469MOL0     H64671   7.551  10.757  10.442 -2.6583 -1.1677  2.4413
  469MOL0     H64672   7.759  10.674  10.412  3.1104 -0.2879  0.5757
  469MOL0     H64673   7.834  10.721  10.254 -0.1872  1.2476  0.5956
  469MOL0     H64674   7.721  10.451  10.354  0.5790 -0.7139  0.1677
  469MOL0     H64675   7.830  10.474  10.211 -1.1550 -0.9043  0.6466
  469MOL0     H64676   8.011  10.562  10.347 -0.2556 -1.0830 -3.6821
  469MOL0     H64677   7.928  10.521  10.494  0.6578 -2.5945  0.8327
  469MOL0     H64678   8.062  10.347  10.487 -1.1006 -0.8197  2.1972
  469MOL0     H64679   7.919  10.284  10.442 -0.1938  2.1718  3.4204
  469MOL0     H64680   8.112  10.199  10.059  2.1875  1.3787 -2.0048
  469MOL0     H64681   8.437  10.160   9.890  0.2216 -1.8399 -1.0512
  469MOL0     H64682   8.267  10.204   9.876 -0.4731  0.5227  2.3333
  469MOL0     H64683   8.303  10.044   9.927 -0.9403  0.4285 -0.9783
  469MOL0     H64684   8.860  10.406  10.068 -2.4896 -2.7293 -1.9931
  469MOL0     H64685   9.110  10.361  10.084  1.1810 -1.5033  2.2693
  469MOL0     H64686   9.287  10.225  10.045 -1.1937 -3.4209  0.2066
  469MOL0     H64687   9.337  10.325  10.176 -0.1955  1.4568 -2.6991
  469MOL0     H64688   9.522  10.168  10.113  1.0845  1.0215  0.4393
  469MOL0     H64689   9.457  10.127  10.274 -1.0467 -1.2789 -0.6227
  469MOL0     H64690   9.374   9.985  10.028  1.8942 -2.1919  0.3237
  469MOL0     H64691   9.329   9.945  10.187 -0.5016 -1.0811 -1.5130
  469MOL0     H64692   9.559   9.899  10.259 -0.0378 -0.0980  0.6543
  469MOL0     H64693   9.629   9.937  10.104  1.2141 -0.2302  1.6407
  469MOL0     H64694   9.402   9.750  10.101  0.3756 -1.0187 -1.0452
  469MOL0     H64695   9.519   9.795   9.972  1.5098  2.9324  0.5552
  469MOL0     H64696   9.559   9.619  10.206 -0.6035  4.3827  1.5967
  469MOL0     H64697   9.694   9.687  10.137  0.8501 -0.1799 -0.3967
  469MOL0     H64698   9.601   9.588   9.897  0.8601  1.9561  1.1203
  469MOL0     H64699   9.501   9.491  10.007 -0.3535  0.2300  1.8493
  469MOL0     H64700   9.799   9.528  10.053  0.2815  1.1217 -2.1199
  469MOL0     H64701   9.749   9.415   9.928  1.6440  0.9079  0.7749
  469MOL0     H64702   9.041  10.010  10.290  0.6022 -1.5684 -3.7737
  469MOL0     H64703   8.789  10.045  10.272 -1.6621  0.6695 -1.1619
  469MOL0     H64704   8.505  10.327  10.345  0.8230  0.0043 -0.6336
  469MOL0     H64705   8.270  10.349  10.445 -0.8483  3.2058 -1.9619
  469MOL0     H64706   6.288  10.574  10.231  2.2516  1.8041 -0.8854
  469MOL0     H64707   6.050  10.570  10.343 -1.4804 -0.0026  1.9508
  469MOL0     H64708   5.754  10.694  10.564 -0.1274 -2.3514 -0.4936
  469MOL0     H64709   5.531  10.633  10.628  1.7738  0.1214 -1.4946
  469MOL0     H64710   5.369  10.690  10.741 -0.1584 -0.7162 -1.4179
  469MOL0     H64711   5.316  10.523  10.745  2.3972 -0.4865 -0.4770
  469MOL0     H64712   5.154  10.708  10.847  0.4057  0.4919  0.3079
  469MOL0     H64713   5.282  10.736  10.963  0.1223 -0.2731  0.4489
  469MOL0     H64714   5.160  10.466  10.909 -1.1078  0.4842 -0.6674
  469MOL0     H64715   5.276  10.490  11.039  1.1015  1.7104  1.4430
  469MOL0     H64716   5.106  10.687  11.123 -1.8630  0.9498 -1.0252
  469MOL0     H64717   5.067  10.531  11.173 -1.2928  1.5323  0.6456
  469MOL0     H64718   4.757  10.573  10.900  2.6476 -1.0373 -3.4016
  469MOL0     H64719   5.675  10.543  11.024  3.0755  3.3435  2.0977
  469MOL0     H64720   5.964  10.703  11.012  0.3638 -0.3840  1.8189
  469MOL0     H64721   5.885  10.544  11.064  0.0626 -1.6565 -0.8062
  469MOL0     H64722   6.006  10.543  10.946 -1.5981 -1.7686  1.5206
  470MOL0     O64723   3.381   0.322   3.135  0.1634 -0.2155 -0.0003
  470MOL0     C64724   3.322   0.278   3.038 -0.0142  0.5641 -0.3192
  470MOL0     O64725   3.337   0.322   2.910  0.5359  0.1308 -0.3340
  470MOL0     C64726   3.441   0.409   2.873 -0.5916 -0.6215 -0.6256
  470MOL0     C64727   3.574   0.400   2.911  0.5799 -0.6941 -0.4685
  470MOL0     C64728   3.668   0.497   2.870 -0.0378 -0.5152 -0.5691
  470MOL0     C64729   3.628   0.604   2.789  0.6246  0.4141 -0.3698
  470MOL0     O64730   3.721   0.701   2.755  1.0094 -0.2974  0.5478
  470MOL0     C64731   3.711   0.794   2.649 -0.3905  0.5243 -0.5974
  470MOL0     C64732   3.823   0.896   2.674  0.3401  0.3652 -0.3660
  470MOL0     C64733   3.952   0.866   2.596 -0.1243  0.5486 -0.6874
  470MOL0     C64734   4.030   0.993   2.559 -0.7325 -0.6558 -0.1005
  470MOL0     C64735   4.138   0.953   2.456  1.1507  0.0027  0.2569
  470MOL0     C64736   4.224   1.078   2.422  0.0404 -0.1450  0.1520
  470MOL0     C64737   4.362   1.045   2.348  0.5458 -0.5683 -0.4690
  470MOL0     C64738   4.432   1.175   2.303  0.4634 -0.3800  0.2288
  470MOL0     N64739   4.575   1.168   2.272 -0.3978 -0.8997 -0.2496
  470MOL0     C64740   4.681   1.119   2.346 -0.3760 -0.2205 -0.2682
  470MOL0     C64741   4.788   1.156   2.272 -0.0153 -0.7334  0.3017
  470MOL0     C64742   4.933   1.128   2.310  1.1564  0.0129  0.1109
  470MOL0     C64743   5.020   1.256   2.284 -0.2483  0.4324 -0.1271
  470MOL0     C64744   5.157   1.266   2.345  0.9120  0.3850  0.5548
  470MOL0     C64745   5.253   1.160   2.282 -0.3452 -0.5851 -1.1737
  470MOL0     O64746   5.261   1.173   2.142 -0.2356 -0.9543 -0.0195
  470MOL0     C64747   5.373   1.237   2.096  0.2666  0.5619  0.1571
  470MOL0     C64748   5.437   1.346   2.158  0.9035 -0.0439  0.0083
  470MOL0     C64749   5.540   1.422   2.102 -0.4450 -0.4319 -0.2039
  470MOL0     C64750   5.578   1.547   2.175  0.3615  0.5816 -0.3441
  470MOL0     C64751   5.596   1.374   1.983 -0.0769 -0.2266 -0.4251
  470MOL0     C64752   5.715   1.434   1.926 -0.4093  0.2827 -0.2047
  470MOL0     O64753   5.764   1.366   1.823  0.3449 -0.1242  0.0659
  470MOL0     C64754   5.871   1.412   1.738 -0.2473 -0.0778  0.1612
  470MOL0     C64755   5.970   1.510   1.780  0.3456  0.6612 -0.4475
  470MOL0     C64756   6.065   1.562   1.699 -0.2335  0.6250  0.5910
  470MOL0     C64757   6.068   1.501   1.572 -0.5568 -0.8012  0.0141
  470MOL0     O64758   6.161   1.566   1.493  0.2236 -0.2955  0.1904
  470MOL0     C64759   6.278   1.481   1.461 -0.2478 -0.2414 -0.1402
  470MOL0     C64760   6.398   1.504   1.566  0.2109  0.1053 -0.1844
  470MOL0     C64761   6.484   1.631   1.529  0.4770  0.0819  0.0287
  470MOL0     C64762   6.421   1.766   1.580  0.7634  0.6199 -0.2516
  470MOL0     C64763   6.529   1.874   1.541  0.4017 -0.4491 -0.2319
  470MOL0     C64764   6.459   2.011   1.526 -0.7539  0.0646 -0.9768
  470MOL0     C64765   6.407   2.076   1.659  0.6796  0.1591 -0.9173
  470MOL0     C64766   6.387   2.230   1.656  0.7504  0.3636 -0.3204
  470MOL0    Cl64767   6.548   2.309   1.642  0.0647 -0.1643  0.0241
  470MOL0     C64768   5.981   1.411   1.521  0.4203  0.5940 -0.5339
  470MOL0     C64769   5.877   1.369   1.606 -0.7290  0.2325  0.0275
  470MOL0     O64770   5.754   1.545   1.968 -0.0629 -0.2629  0.5520
  470MOL0     C64771   5.539   1.266   1.924 -0.7189  1.0037  0.5349
  470MOL0     C64772   5.428   1.196   1.973  0.3626  0.6638 -0.5106
  470MOL0     N64773   4.745   1.226   2.157 -0.1740 -0.4326 -0.3612
  470MOL0     N64774   4.620   1.230   2.159  0.3907 -0.2835 -0.0743
  470MOL0     C64775   3.495   0.608   2.743 -0.7369 -0.1816  0.0289
  470MOL0     C64776   3.405   0.511   2.790  0.5220 -0.2244  0.6367
  470MOL0     C64777   3.234   0.161   3.072  0.5532  0.4640  0.5921
  470MOL0     C64778   3.127   0.126   2.982  0.1079  0.0871  0.2996
  470MOL0     C64779   3.041   0.023   3.012 -0.6832 -0.0017 -0.3669
  470MOL0     C64780   3.040  -0.039   3.128 -0.2387  0.7427 -1.1076
  470MOL0     O64781   2.945  -0.138   3.141 -0.3027  0.0375  0.0480
  470MOL0     C64782   2.907  -0.201   3.261  0.4484 -0.2579  0.1523
  470MOL0     C64783   2.776  -0.280   3.240  0.5286  0.4159 -0.2822
  470MOL0     C64784   2.658  -0.186   3.190  0.2581  0.0825 -0.0399
  470MOL0     C64785   2.541  -0.264   3.141 -0.5671  0.3102  0.4741
  470MOL0     C64786   2.488  -0.362   3.234 -0.4882  0.2260 -0.4232
  470MOL0     C64787   2.443  -0.432   3.328  0.3109 -0.1801 -0.0083
  470MOL0     C64788   3.144  -0.006   3.221 -0.5766  0.1930  0.7700
  470MOL0     C64789   3.240   0.090   3.196  0.2874 -0.0508 -0.2335
  470MOL0     C64790   3.361   0.089   3.288 -0.3299  0.4590 -0.9584
  470MOL0     H64791   3.593   0.315   2.977  0.8142  0.2135  0.6717
  470MOL0     H64792   3.771   0.472   2.895 -0.0573 -2.3122 -2.0572
  470MOL0     H64793   3.619   0.853   2.658 -2.7007 -2.8103 -0.5944
  470MOL0     H64794   3.730   0.748   2.552 -1.0583  1.7464 -1.3422
  470MOL0     H64795   3.787   0.991   2.635 -2.2310 -0.4484 -0.1667
  470MOL0     H64796   3.831   0.918   2.780  0.8621  1.9752 -0.7221
  470MOL0     H64797   4.014   0.810   2.666 -1.1841 -0.5936 -0.6242
  470MOL0     H64798   3.925   0.799   2.514  1.0634 -1.7221  0.6729
  470MOL0     H64799   3.965   1.075   2.526  0.5001  0.9904  1.3298
  470MOL0     H64800   4.080   1.027   2.651 -0.1228 -2.2490  0.1928
  470MOL0     H64801   4.095   0.909   2.366 -0.3248 -0.1742  1.0137
  470MOL0     H64802   4.192   0.875   2.511 -2.6515 -1.6878  1.9733
  470MOL0     H64803   4.172   1.136   2.345  0.7819 -1.8163 -1.7091
  470MOL0     H64804   4.249   1.145   2.504  1.3020  2.1987 -2.0124
  470MOL0     H64805   4.347   0.984   2.259  3.1052 -2.1673  0.0933
  470MOL0     H64806   4.435   0.995   2.412  1.0812  0.1423 -0.5178
  470MOL0     H64807   4.375   1.208   2.216  2.3323  3.6952  0.3117
  470MOL0     H64808   4.422   1.249   2.383  2.6070 -0.6116  0.7752
  470MOL0     H64809   4.671   1.047   2.427 -0.9907 -0.6474 -0.7163
  470MOL0     H64810   4.966   1.041   2.252 -1.7700 -2.2883  1.5892
  470MOL0     H64811   4.932   1.097   2.415 -2.6639  0.7269  0.4379
  470MOL0     H64812   5.027   1.279   2.177  1.2455 -1.7476 -0.5532
  470MOL0     H64813   4.966   1.342   2.325  1.9623  2.2479 -0.8235
  470MOL0     H64814   5.197   1.365   2.321  0.9212  0.4761  0.9364
  470MOL0     H64815   5.142   1.267   2.453 -0.9914 -1.0166  0.3655
  470MOL0     H64816   5.353   1.164   2.326 -2.2823  0.0903  3.7603
  470MOL0     H64817   5.210   1.064   2.309 -0.0961 -0.3984 -0.0741
  470MOL0     H64818   5.389   1.375   2.251  0.0034 -2.4572  0.3826
  470MOL0     H64819   5.545   1.631   2.115  0.9081  0.3885 -0.9233
  470MOL0     H64820   5.686   1.553   2.193  0.2792 -1.8576  1.6474
  470MOL0     H64821   5.525   1.542   2.271 -3.2273 -1.9150 -2.2223
  470MOL0     H64822   5.958   1.545   1.883  1.1837 -1.1430  0.3080
  470MOL0     H64823   6.128   1.645   1.729  0.1800  0.8248 -0.7427
  470MOL0     H64824   6.250   1.378   1.485 -0.7569  0.5622  3.3237
  470MOL0     H64825   6.306   1.483   1.356  1.1136  0.8136  0.2106
  470MOL0     H64826   6.362   1.502   1.670  1.6025 -1.7890  0.3187
  470MOL0     H64827   6.461   1.414   1.572  1.0808  0.6723 -0.5743
  470MOL0     H64828   6.514   1.639   1.424 -1.8043 -0.5106 -0.7214
  470MOL0     H64829   6.574   1.624   1.592  2.2739  3.8104 -1.7719
  470MOL0     H64830   6.398   1.769   1.687 -0.0257  4.1634 -0.3921
  470MOL0     H64831   6.327   1.773   1.524  0.4029  3.0629  0.5318
  470MOL0     H64832   6.609   1.873   1.616  0.0694 -1.6665  0.1263
  470MOL0     H64833   6.591   1.846   1.455 -0.5635 -1.7649 -0.5269
  470MOL0     H64834   6.373   2.010   1.459 -1.0630 -0.0199 -0.5773
  470MOL0     H64835   6.544   2.071   1.490  0.9484 -2.2240 -1.0129
  470MOL0     H64836   6.464   2.041   1.745  0.1057  1.0182 -0.1655
  470MOL0     H64837   6.304   2.041   1.674  1.8372 -3.4062 -0.4232
  470MOL0     H64838   6.321   2.260   1.738  1.1733 -0.3917  0.3089
  470MOL0     H64839   6.336   2.252   1.562  2.3370  1.3687 -0.9772
  470MOL0     H64840   5.984   1.378   1.417 -2.4226 -0.1747 -0.4416
  470MOL0     H64841   5.818   1.288   1.563 -0.8392  0.0865  0.4549
  470MOL0     H64842   5.577   1.222   1.832 -0.1331 -1.4820  1.8620
  470MOL0     H64843   5.382   1.121   1.910  0.2287  0.9665 -0.7784
  470MOL0     H64844   3.465   0.691   2.680 -0.0789  2.1856  2.6521
  470MOL0     H64845   3.303   0.499   2.756  0.9918 -0.8195 -0.6186
  470MOL0     H64846   3.111   0.192   2.897  1.6054 -1.2985 -1.1404
  470MOL0     H64847   2.962   0.009   2.938 -1.2700 -1.3955  0.4829
  470MOL0     H64848   2.976  -0.278   3.295 -1.2219 -0.7686  2.6987
  470MOL0     H64849   2.882  -0.129   3.340  1.6314 -0.9271  1.1856
  470MOL0     H64850   2.739  -0.310   3.338 -1.4845  2.5004 -0.3191
  470MOL0     H64851   2.791  -0.362   3.170  0.5749  0.2007 -0.0215
  470MOL0     H64852   2.618  -0.113   3.260  1.0600  1.1111 -0.6176
  470MOL0     H64853   2.695  -0.126   3.106 -0.9349  1.4374  0.3621
  470MOL0     H64854   2.570  -0.310   3.046 -1.7218  1.5924 -0.5331
  470MOL0     H64855   2.458  -0.197   3.120 -0.1111  1.0122  0.8896
  470MOL0     H64856   2.405  -0.499   3.403  0.1470  0.8412  0.8436
  470MOL0     H64857   3.150  -0.070   3.309 -0.5134 -2.9217 -1.3418
  470MOL0     H64858   3.370   0.173   3.358  2.5512 -0.4100 -0.1923
  470MOL0     H64859   3.367   0.005   3.357  1.4983  1.9263  0.7735
  470MOL0     H64860   3.436   0.082   3.209  0.1048  2.7098 -0.8043
  471MOL0     O64861   7.881   7.180   9.880 -0.5864 -1.1715 -0.0667
  471MOL0     C64862   7.828   7.281   9.920  0.2980 -0.4664 -0.2799
  471MOL0     O64863   7.860   7.347  10.038  0.2782 -0.1226 -0.3229
  471MOL0     C64864   7.940   7.278  10.126 -0.0652 -0.6948 -0.0581
  471MOL0     C64865   8.075   7.250  10.108  0.3889 -1.0399  0.4698
  471MOL0     C64866   8.143   7.177  10.200 -0.0178 -1.2251 -0.2016
  471MOL0     C64867   8.084   7.148  10.324  0.1643  0.6561  0.6073
  471MOL0     O64868   8.150   7.088  10.430 -0.2931  0.2466 -0.9356
  471MOL0     C64869   8.285   7.036  10.418 -0.2015  0.7065 -0.4157
  471MOL0     C64870   8.272   6.902  10.340  0.4033  0.2569  0.3184
  471MOL0     C64871   8.406   6.839  10.354  0.5654  0.6155  0.1629
  471MOL0     C64872   8.395   6.725  10.466  1.1324 -0.8261 -0.1268
  471MOL0     C64873   8.523   6.682  10.530  0.4716  0.3158 -1.0362
  471MOL0     C64874   8.624   6.623  10.435 -0.5300  0.5220 -0.1470
  471MOL0     C64875   8.760   6.647  10.494  0.0343  0.3536  1.2163
  471MOL0     C64876   8.876   6.577  10.419 -0.1735  0.4274 -0.0881
  471MOL0     N64877   9.000   6.620  10.473 -0.5388  0.5844  0.3007
  471MOL0     C64878   9.049   6.604  10.597  0.3263  0.3583  0.8246
  471MOL0     C64879   9.169   6.658  10.603  0.2475 -0.2046 -0.5606
  471MOL0     C64880   9.259   6.641  10.720 -0.3885  0.6461  0.8950
  471MOL0     C64881   9.368   6.745  10.727 -0.6489 -0.4557  0.0231
  471MOL0     C64882   9.496   6.701  10.662  0.2436 -1.1947 -0.3222
  471MOL0     C64883   9.596   6.816  10.651  0.3319  1.2449  0.3783
  471MOL0     O64884   9.583   6.906  10.765 -0.4505  0.1886  0.1424
  471MOL0     C64885   9.680   6.994  10.790  0.6271 -0.4070 -0.0177
  471MOL0     C64886   9.807   7.002  10.721  0.8763 -0.4744 -0.4983
  471MOL0     C64887   9.901   7.094  10.775 -0.6540 -0.2820 -0.3299
  471MOL0     C64888  10.035   7.111  10.714 -0.2587  0.4390  1.3654
  471MOL0     C64889   9.868   7.165  10.893 -0.2891  0.6064  0.0061
  471MOL0     C64890   9.965   7.265  10.956  0.7976 -0.8589  0.9348
  471MOL0     O64891   9.901   7.361  11.031  0.4470  0.4163  0.1080
  471MOL0     C64892   9.977   7.455  11.098  0.6854 -0.2875  0.6543
  471MOL0     C64893  10.044   7.421  11.215 -0.6294  0.1566  0.0717
  471MOL0     C64894  10.131   7.516  11.273  0.0081 -0.3676  0.2852
  471MOL0     C64895  10.137   7.647  11.221 -0.3717 -0.2578 -0.0520
  471MOL0     O64896  10.226   7.745  11.266  0.3286  0.1586  0.0288
  471MOL0     C64897  10.256   7.760  11.400 -0.2170  0.7274 -0.5266
  471MOL0     C64898  10.350   7.869  11.428 -0.0806  1.2800 -0.0034
  471MOL0     C64899  10.358   7.893  11.580  0.1653 -0.7716  0.0274
  471MOL0     C64900  10.433   8.020  11.611 -0.0777  0.5851 -0.0344
  471MOL0     C64901  10.445   8.072  11.753 -0.3046  0.1112  0.2281
  471MOL0     C64902  10.305   8.108  11.808 -0.2723 -0.4255 -0.2550
  471MOL0     C64903  10.316   8.196  11.933 -0.9301  0.2132  0.3464
  471MOL0     C64904  10.192   8.271  11.951  0.5017 -0.2634  0.6550
  471MOL0    Cl64905  10.172   8.380  11.814 -0.1190  0.3647  0.4393
  471MOL0     C64906  10.068   7.677  11.105  0.2186  0.1014  0.3383
  471MOL0     C64907   9.985   7.583  11.049  0.4327 -0.1889 -0.3746
  471MOL0     O64908  10.087   7.249  10.955  0.0604  0.0325  0.4193
  471MOL0     C64909   9.730   7.170  10.931  0.2127  0.5431 -1.0139
  471MOL0     C64910   9.638   7.085  10.881  0.2102 -0.7176 -0.2737
  471MOL0     N64911   9.203   6.704  10.476 -1.0413  0.6960 -0.5728
  471MOL0     N64912   9.099   6.679  10.396 -0.0395  0.2321  0.0369
  471MOL0     C64913   7.956   7.184  10.343  0.5408 -0.8944 -0.0643
  471MOL0     C64914   7.884   7.249  10.244  0.5918  0.5941 -0.5094
  471MOL0     C64915   7.720   7.344   9.843  0.0769  0.6917  0.1761
  471MOL0     C64916   7.613   7.267   9.793  0.0448  0.3928  0.6451
  471MOL0     C64917   7.510   7.320   9.724 -0.1570  0.9850  0.3515
  471MOL0     C64918   7.506   7.460   9.694  0.0006 -0.0094  0.1212
  471MOL0     O64919   7.409   7.531   9.628  0.1349 -0.3960 -0.1173
  471MOL0     C64920   7.275   7.469   9.631 -0.8097 -0.3824  0.2755
  471MOL0     C64921   7.235   7.441   9.774  1.0280  0.1047 -0.6260
  471MOL0     C64922   7.084   7.417   9.789  0.2776 -0.3233 -0.6999
  471MOL0     C64923   7.048   7.279   9.743 -0.0085  0.6571  0.0505
  471MOL0     C64924   7.003   7.282   9.605 -0.1522 -0.0510  0.4874
  471MOL0     C64925   6.962   7.293   9.492 -1.1238  0.7113  0.9448
  471MOL0     C64926   7.615   7.545   9.736 -0.4571 -0.6640 -0.0047
  471MOL0     C64927   7.727   7.486   9.813  0.8022 -0.2670 -0.6271
  471MOL0     C64928   7.838   7.575   9.850 -0.8620 -0.1034  0.4914
  471MOL0     H64929   8.118   7.264  10.009 -0.2498 -2.2699 -0.0187
  471MOL0     H64930   8.245   7.148  10.176  0.8422  0.1955  1.5204
  471MOL0     H64931   8.337   7.031  10.513 -0.4605  0.1228 -0.3008
  471MOL0     H64932   8.349   7.104  10.361 -0.8893  2.4634  0.8396
  471MOL0     H64933   8.192   6.838  10.381  0.6110  1.4700  2.7954
  471MOL0     H64934   8.260   6.919  10.232  1.3579 -0.0498  0.1551
  471MOL0     H64935   8.439   6.811  10.254 -0.3553  3.1866 -0.9628
  471MOL0     H64936   8.488   6.900  10.391  1.6678  0.9101 -2.5588
  471MOL0     H64937   8.322   6.753  10.543 -1.8814  0.9287 -3.3289
  471MOL0     H64938   8.344   6.639  10.421  2.5464 -1.2965 -0.8815
  471MOL0     H64939   8.515   6.618  10.618  2.1537 -0.0561 -1.1234
  471MOL0     H64940   8.575   6.773  10.561  5.7701 -1.8914 -2.2764
  471MOL0     H64941   8.600   6.516  10.438  2.1363 -0.1401  0.6312
  471MOL0     H64942   8.616   6.658  10.331  2.8627 -5.0751 -2.7898
  471MOL0     H64943   8.762   6.605  10.595  0.6067 -1.2834  0.5591
  471MOL0     H64944   8.764   6.756  10.494 -2.2302  0.4853  0.5742
  471MOL0     H64945   8.874   6.468  10.427 -0.3040  0.4659  0.4624
  471MOL0     H64946   8.868   6.596  10.312 -0.4967 -1.6284 -0.4689
  471MOL0     H64947   8.987   6.555  10.671 -0.3984  0.0182  0.0069
  471MOL0     H64948   9.300   6.540  10.714 -2.6390 -0.2749 -3.1162
  471MOL0     H64949   9.201   6.641  10.812 -0.4572  0.3452  0.8514
  471MOL0     H64950   9.332   6.837  10.679 -1.8484 -0.3704  1.0224
  471MOL0     H64951   9.387   6.771  10.832 -1.5633  2.7451 -0.5163
  471MOL0     H64952   9.538   6.624  10.728 -1.5302 -0.1707  2.1784
  471MOL0     H64953   9.487   6.667  10.559  4.1875 -0.0843 -1.2036
  471MOL0     H64954   9.697   6.774  10.642 -1.0034 -2.0942 -0.7086
  471MOL0     H64955   9.579   6.877  10.562 -1.5611  0.9908  0.5290
  471MOL0     H64956   9.834   6.936  10.639 -1.4842  0.0261 -1.7691
  471MOL0     H64957  10.113   7.085  10.787  1.7728 -1.1315 -1.1648
  471MOL0     H64958  10.059   7.214  10.687  0.4784 -0.0511  0.0542
  471MOL0     H64959  10.058   7.054  10.624  0.4575  1.7466  0.6914
  471MOL0     H64960  10.044   7.315  11.236  0.4682 -0.1666 -1.4186
  471MOL0     H64961  10.205   7.490  11.347  3.1256  1.6833 -1.8270
  471MOL0     H64962  10.163   7.777  11.457 -0.5556 -0.1799 -0.7968
  471MOL0     H64963  10.311   7.671  11.432 -0.1158  1.9064  2.9844
  471MOL0     H64964  10.451   7.849  11.390 -0.9734 -0.3851 -1.6965
  471MOL0     H64965  10.310   7.960  11.382  1.3306  1.3037 -1.2908
  471MOL0     H64966  10.409   7.813  11.634  2.8129  1.9203  1.7928
  471MOL0     H64967  10.260   7.898  11.628  0.6331 -1.3300  1.0550
  471MOL0     H64968  10.377   8.092  11.551 -0.2515 -1.3993 -2.4261
  471MOL0     H64969  10.535   7.997  11.579  0.3172  0.5190  1.2324
  471MOL0     H64970  10.493   7.998  11.817 -2.5193 -1.0559  0.6423
  471MOL0     H64971  10.513   8.157  11.755  1.7685 -1.4806  2.5216
  471MOL0     H64972  10.248   8.018  11.835 -0.2527 -1.2449 -2.7122
  471MOL0     H64973  10.259   8.162  11.725 -1.0159 -1.9417 -0.8756
  471MOL0     H64974  10.399   8.264  11.909 -1.1952 -0.0740 -1.5640
  471MOL0     H64975  10.338   8.139  12.023 -1.6810 -2.6555 -1.1756
  471MOL0     H64976  10.194   8.342  12.035  0.0213  2.4301 -1.4692
  471MOL0     H64977  10.106   8.203  11.958  1.2603 -1.2181  0.8347
  471MOL0     H64978  10.075   7.779  11.069  1.9037 -1.6222 -5.1165
  471MOL0     H64979   9.913   7.613  10.974  1.4992 -1.0728 -1.8036
  471MOL0     H64980   9.687   7.238  11.004  1.6247  2.1626 -1.6166
  471MOL0     H64981   9.541   7.082  10.930  1.3221 -1.4886  2.0187
  471MOL0     H64982   7.916   7.158  10.440 -0.6539  3.7878  0.9859
  471MOL0     H64983   7.779   7.264  10.265  0.1429 -1.5846 -0.8874
  471MOL0     H64984   7.608   7.168   9.837  1.9484 -0.8536 -1.7295
  471MOL0     H64985   7.425   7.256   9.702  0.1066  0.9066 -0.4812
  471MOL0     H64986   7.211   7.537   9.574  1.4770  1.4774 -0.2140
  471MOL0     H64987   7.265   7.376   9.573  0.4524 -1.3615  1.5726
  471MOL0     H64988   7.251   7.533   9.830  3.5510 -0.6789  0.0655
  471MOL0     H64989   7.281   7.361   9.833 -0.0266  1.5076  2.3161
  471MOL0     H64990   7.066   7.425   9.896 -0.6646  0.7466 -0.9138
  471MOL0     H64991   7.020   7.491   9.739 -0.6829  0.1286  1.1161
  471MOL0     H64992   6.963   7.239   9.800  1.4841 -1.0616  1.1637
  471MOL0     H64993   7.122   7.202   9.767 -0.2434  1.1620  2.7682
  471MOL0     H64994   6.945   7.314   9.389 -4.3669 -0.9750  1.0238
  471MOL0     H64995   7.613   7.651   9.713  1.5407 -0.1586  1.8714
  471MOL0     H64996   7.933   7.522   9.846  0.2198  1.7922 -3.3373
  471MOL0     H64997   7.844   7.660   9.782  2.7690  0.3314  1.1745
  471MOL0     H64998   7.815   7.624   9.945 -1.2023  3.7284 -1.3688
  472MOL0     O64999   7.714  10.794   7.485  1.1596  0.6979  0.4827
  472MOL0     C65000   7.671  10.846   7.592 -0.4219 -0.0983 -1.0412
  472MOL0     O65001   7.718  10.832   7.719 -0.1088  0.4830 -0.6095
  472MOL0     C65002   7.860  10.822   7.742  0.4554  0.5259  0.3701
  472MOL0     C65003   7.960  10.861   7.655  0.0814  0.3893 -0.0059
  472MOL0     C65004   8.094  10.831   7.688  0.0789 -0.9148  0.3454
  472MOL0     C65005   8.133  10.775   7.809  0.4076  1.4572  0.4082
  472MOL0     O65006   8.261  10.743   7.853  0.0892  0.3404  0.2151
  472MOL0     C65007   8.371  10.790   7.773 -0.2933 -0.7460  0.7609
  472MOL0     C65008   8.500  10.792   7.852 -1.0786 -0.3111  0.1140
  472MOL0     C65009   8.565  10.655   7.889  0.2923 -1.1439 -0.5088
  472MOL0     C65010   8.660  10.596   7.782 -0.6238 -0.3435  0.4902
  472MOL0     C65011   8.717  10.467   7.832 -0.5721 -0.3654 -0.1418
  472MOL0     C65012   8.627  10.339   7.846  1.3139  0.3413 -0.4572
  472MOL0     C65013   8.713  10.218   7.884 -0.9880 -0.5624 -0.2649
  472MOL0     C65014   8.636  10.105   7.954  0.6081 -0.5560 -0.1843
  472MOL0     N65015   8.723   9.981   7.969 -0.0137 -0.1785 -0.5621
  472MOL0     C65016   8.811   9.947   8.074 -1.2258 -0.2111  1.0579
  472MOL0     C65017   8.857   9.830   8.038 -0.2785  0.6070  0.0083
  472MOL0     C65018   8.954   9.753   8.118  0.1865 -0.4897 -1.1736
  472MOL0     C65019   9.074   9.838   8.138  0.2635 -0.7300  0.4575
  472MOL0     C65020   9.184   9.753   8.188 -0.2499  0.3647  0.2763
  472MOL0     C65021   9.300   9.836   8.256  0.2523  1.2493 -0.0296
  472MOL0     O65022   9.368   9.737   8.346 -0.0715 -0.5027 -0.1409
  472MOL0     C65023   9.500   9.754   8.363 -0.1753 -0.9246  0.1245
  472MOL0     C65024   9.564   9.883   8.349 -0.3778  0.2773  0.4926
  472MOL0     C65025   9.701   9.898   8.376 -0.1804 -0.0597 -0.0731
  472MOL0     C65026   9.744  10.046   8.378  0.1693 -0.0355  0.0806
  472MOL0     C65027   9.773   9.788   8.416  0.2872  0.1556 -0.2841
  472MOL0     C65028   9.913   9.797   8.465 -0.0258  0.1378  0.8755
  472MOL0     O65029   9.995   9.686   8.444  0.2894 -0.1171 -0.1835
  472MOL0     C65030  10.125   9.688   8.497 -0.7097 -0.4857  0.7896
  472MOL0     C65031  10.215   9.798   8.508  0.0595 -0.0095 -0.9238
  472MOL0     C65032  10.350   9.777   8.549  0.3102 -0.3978  0.2158
  472MOL0     C65033  10.396   9.644   8.582  0.3439  0.1870 -0.2229
  472MOL0     O65034  10.532   9.615   8.607  0.0669  0.2643 -0.4547
  472MOL0     C65035  10.560   9.515   8.707 -0.1336 -0.7021 -0.4197
  472MOL0     C65036  10.706   9.508   8.752 -0.2255 -0.6323  0.4229
  472MOL0     C65037  10.740   9.377   8.822 -0.3457 -0.8335 -0.4053
  472MOL0     C65038  10.888   9.360   8.836 -0.0533  0.7047 -0.1399
  472MOL0     C65039  10.932   9.225   8.899  0.4475  0.8275 -0.5626
  472MOL0     C65040  10.858   9.196   9.024 -0.2194  0.1866  0.0960
  472MOL0     C65041  10.929   9.078   9.086 -0.1688 -0.4849 -0.1598
  472MOL0     C65042  10.837   9.000   9.181 -0.0309 -0.1408  0.0602
  472MOL0    Cl65043  10.795   9.091   9.327 -0.1696  0.0886 -0.1724
  472MOL0     C65044  10.302   9.538   8.566  0.4879 -0.5831  0.3719
  472MOL0     C65045  10.169   9.560   8.526 -0.4073  0.0309 -0.6577
  472MOL0     O65046   9.945   9.894   8.527 -0.0754 -0.4296 -0.2060
  472MOL0     C65047   9.704   9.666   8.437  0.2623  0.3958 -0.0292
  472MOL0     C65048   9.562   9.651   8.412  0.2298  0.4926  0.0744
  472MOL0     N65049   8.817   9.792   7.913  0.8162 -0.4866 -0.2417
  472MOL0     N65050   8.736   9.883   7.877 -0.2540  0.6749  0.1842
  472MOL0     C65051   8.028  10.743   7.899 -0.1316 -0.0444  0.2251
  472MOL0     C65052   7.900  10.764   7.866 -0.9014 -0.7627  0.0134
  472MOL0     C65053   7.536  10.912   7.575  0.5211  0.0425 -0.3206
  472MOL0     C65054   7.442  10.901   7.675 -0.3249  1.3879  0.1043
  472MOL0     C65055   7.314  10.958   7.672  0.0653  0.3968 -0.2276
  472MOL0     C65056   7.280  11.041   7.562  0.2707 -0.1245 -1.1208
  472MOL0     O65057   7.154  11.100   7.569  0.4182 -0.5063 -0.2016
  472MOL0     C65058   7.138  11.243   7.527 -0.4931  0.4199 -0.0435
  472MOL0     C65059   7.191  11.332   7.629 -0.3678  0.2903 -0.8170
  472MOL0     C65060   7.147  11.298   7.770  0.9679 -0.6426  0.5423
  472MOL0     C65061   7.001  11.341   7.796  0.3567  0.3532  0.0908
  472MOL0     C65062   6.968  11.322   7.936  0.1688  0.6575  0.6468
  472MOL0     C65063   6.934  11.318   8.045  0.4540 -0.1313  0.0084
  472MOL0     C65064   7.373  11.054   7.462  0.2026 -0.5473  0.1507
  472MOL0     C65065   7.499  10.995   7.463 -1.0083  0.4987 -0.0746
  472MOL0     C65066   7.598  11.013   7.348  0.6568 -0.5521 -0.1787
  472MOL0     H65067   7.928  10.885   7.554 -3.9154 -0.5888  0.8591
  472MOL0     H65068   8.170  10.858   7.616  2.3047  0.3415  2.9819
  472MOL0     H65069   8.357  10.894   7.741  3.1039 -0.4024 -0.0354
  472MOL0     H65070   8.374  10.721   7.688 -1.0521 -2.4997  2.0909
  472MOL0     H65071   8.569  10.854   7.794  0.6274 -0.2284  2.0897
  472MOL0     H65072   8.483  10.852   7.941 -1.6017  2.2142 -1.5838
  472MOL0     H65073   8.617  10.670   7.984 -1.9988 -0.6712  0.7377
  472MOL0     H65074   8.475  10.599   7.913 -2.9333  3.6025 -0.0660
  472MOL0     H65075   8.611  10.585   7.685  0.1605 -0.1889  0.0687
  472MOL0     H65076   8.746  10.663   7.778 -0.2288 -0.8594  0.2494
  472MOL0     H65077   8.752  10.482   7.934  0.1986  1.0570 -0.6013
  472MOL0     H65078   8.799  10.426   7.773  0.4204 -0.4195  1.2314
  472MOL0     H65079   8.559  10.364   7.928  4.1158  1.1747  1.8083
  472MOL0     H65080   8.571  10.325   7.753  0.0706 -1.3283  0.4986
  472MOL0     H65081   8.796  10.246   7.950 -0.2820 -2.4555 -0.2796
  472MOL0     H65082   8.758  10.172   7.795 -0.3926 -4.0296  1.6240
  472MOL0     H65083   8.614  10.135   8.057  1.1459 -2.7608  0.6250
  472MOL0     H65084   8.543  10.081   7.902  0.1550  0.4092  0.1533
  472MOL0     H65085   8.828  10.009   8.162  1.4944 -0.9755  1.1793
  472MOL0     H65086   8.957   9.665   8.054 -0.7602 -1.7925  0.4852
  472MOL0     H65087   8.913   9.715   8.212 -4.7890 -0.2183 -2.9106
  472MOL0     H65088   9.102   9.875   8.039 -1.0901 -0.6988  0.0625
  472MOL0     H65089   9.069   9.922   8.209  2.4870 -1.1458  1.1741
  472MOL0     H65090   9.140   9.679   8.255 -0.5962 -1.5094 -1.8897
  472MOL0     H65091   9.222   9.696   8.103 -3.3638  0.4231 -1.2815
  472MOL0     H65092   9.350   9.877   8.168 -1.1513 -0.9489 -1.9659
  472MOL0     H65093   9.267   9.923   8.315  2.3319  2.1579 -0.1112
  472MOL0     H65094   9.517   9.975   8.317  1.6837  1.1176 -0.2779
  472MOL0     H65095   9.683  10.110   8.314 -1.1819  0.3569  1.6997
  472MOL0     H65096   9.848  10.055   8.344 -0.2593 -2.5333 -2.1562
  472MOL0     H65097   9.729  10.093   8.476  2.1554 -1.2329  1.0262
  472MOL0     H65098  10.186   9.894   8.466  4.3867  1.7436 -0.4427
  472MOL0     H65099  10.419   9.860   8.552 -0.2376  0.0448  1.3943
  472MOL0     H65100  10.499   9.535   8.795 -0.1076  0.8622 -0.7308
  472MOL0     H65101  10.520   9.420   8.668 -1.6910  0.0745 -0.8216
  472MOL0     H65102  10.760   9.519   8.657 -3.2596 -3.0197 -1.7678
  472MOL0     H65103  10.731   9.592   8.817 -0.8474 -1.4212  1.7338
  472MOL0     H65104  10.697   9.289   8.771 -0.1755 -1.4054  0.4200
  472MOL0     H65105  10.693   9.376   8.921  0.8606 -0.9312  0.1729
  472MOL0     H65106  10.927   9.441   8.898 -0.3948  2.2951 -1.9093
  472MOL0     H65107  10.936   9.375   8.739  2.1782 -3.2203  0.1310
  472MOL0     H65108  10.906   9.145   8.828 -2.8498  1.8426 -0.6887
  472MOL0     H65109  11.040   9.239   8.907  0.8734  0.7066 -4.3111
  472MOL0     H65110  10.751   9.174   9.013 -0.9505  2.7264  1.0879
  472MOL0     H65111  10.867   9.285   9.088 -1.7823  1.4865 -1.3823
  472MOL0     H65112  11.019   9.111   9.137 -0.6732 -0.3228  0.6404
  472MOL0     H65113  10.964   9.007   9.010 -0.9791  1.2299 -2.2756
  472MOL0     H65114  10.883   8.905   9.212 -1.1938  0.5910  4.9278
  472MOL0     H65115  10.742   8.978   9.131 -0.7679  1.8266  0.5312
  472MOL0     H65116  10.326   9.434   8.582 -1.2649 -1.0644  0.0941
  472MOL0     H65117  10.100   9.478   8.509 -0.3218 -0.2290  0.2255
  472MOL0     H65118   9.759   9.582   8.479 -1.2654 -1.1371 -0.9902
  472MOL0     H65119   9.505   9.565   8.444 -1.9879  2.2049  0.9717
  472MOL0     H65120   8.047  10.695   7.994  2.0305  0.3822  0.0684
  472MOL0     H65121   7.817  10.718   7.919 -1.6198  0.0389 -0.4013
  472MOL0     H65122   7.454  10.817   7.743  0.9994  0.9475 -0.6386
  472MOL0     H65123   7.241  10.927   7.747  1.3445 -1.1735  0.4223
  472MOL0     H65124   7.180  11.256   7.427  1.6383 -0.8908  0.6274
  472MOL0     H65125   7.031  11.266   7.521 -1.0347 -2.0881 -1.4968
  472MOL0     H65126   7.156  11.434   7.610 -2.0222 -0.4465 -1.9538
  472MOL0     H65127   7.300  11.327   7.632 -0.4196 -1.4472 -0.8895
  472MOL0     H65128   7.156  11.192   7.794  0.3012 -1.5678 -2.8194
  472MOL0     H65129   7.208  11.368   7.828 -0.5037  1.5615 -0.3926
  472MOL0     H65130   6.940  11.268   7.743  3.0300 -3.2580  1.5541
  472MOL0     H65131   6.982  11.445   7.769  0.9542  0.3050 -0.5717
  472MOL0     H65132   6.903  11.319   8.148 -2.1691  2.7139 -0.6404
  472MOL0     H65133   7.348  11.133   7.392 -0.2227 -0.3423  0.5239
  472MOL0     H65134   7.559  11.085   7.276 -1.6965 -2.3584 -0.8520
  472MOL0     H65135   7.698  11.047   7.377  0.5370 -0.0845 -0.3090
  472MOL0     H65136   7.607  10.927   7.281  1.9592 -3.4113  3.3267
  473MOL0     O65137   0.483   2.349  10.946 -0.4248 -0.0311 -0.3326
  473MOL0     C65138   0.400   2.341  11.036 -0.5752 -0.1156  0.8726
  473MOL0     O65139   0.381   2.229  11.107 -0.3668  0.2719  0.0442
  473MOL0     C65140   0.468   2.122  11.094  0.1506 -0.3049  0.1515
  473MOL0     C65141   0.610   2.121  11.070  0.5848  0.7002 -0.5068
  473MOL0     C65142   0.673   2.003  11.040  0.3422  0.1748 -1.0022
  473MOL0     C65143   0.608   1.879  11.039  0.5936 -0.2656 -0.0179
  473MOL0     O65144   0.664   1.753  11.010  0.1635  0.1295 -0.8326
  473MOL0     C65145   0.799   1.725  11.043 -0.8941 -0.6361  0.3974
  473MOL0     C65146   0.837   1.581  11.018  0.0228  0.3587  0.2043
  473MOL0     C65147   0.979   1.550  11.061  0.3180 -0.1718 -0.3470
  473MOL0     C65148   0.990   1.401  11.057  0.5686 -0.8797 -0.2318
  473MOL0     C65149   1.130   1.364  11.095  0.1846  0.7630  0.3954
  473MOL0     C65150   1.135   1.208  11.112 -0.8402  0.0670 -0.1841
  473MOL0     C65151   1.260   1.148  11.177  0.1472  0.1084  0.5415
  473MOL0     C65152   1.386   1.181  11.097  0.0406 -0.8690  0.0602
  473MOL0     N65153   1.510   1.113  11.146  0.3792  0.9136  0.6195
  473MOL0     C65154   1.585   1.168  11.246 -0.1592 -0.3546  0.4238
  473MOL0     C65155   1.711   1.122  11.227 -0.3730 -0.1945 -0.2902
  473MOL0     C65156   1.829   1.149  11.319 -0.7513 -0.3924 -0.1307
  473MOL0     C65157   1.961   1.077  11.291  0.1232  0.0412 -0.2031
  473MOL0     C65158   2.051   1.177  11.232 -0.3265 -0.6295 -0.3659
  473MOL0     C65159   2.175   1.114  11.171  0.1944 -0.0656  0.4159
  473MOL0     O65160   2.262   1.038  11.256 -0.0119 -0.9779  0.0970
  473MOL0     C65161   2.384   1.004  11.216 -0.0151 -0.2010 -0.3230
  473MOL0     C65162   2.462   1.074  11.126 -0.6345  0.1093 -0.0311
  473MOL0     C65163   2.590   1.030  11.088  0.0264 -0.0445 -0.1504
  473MOL0     C65164   2.677   1.132  11.013 -0.4549  0.3676  0.8325
  473MOL0     C65165   2.632   0.900  11.130 -1.1004  0.1570 -0.1237
  473MOL0     C65166   2.763   0.848  11.095 -0.5729  0.3918 -0.0882
  473MOL0     O65167   2.797   0.737  11.159  0.1543  0.1417  0.8299
  473MOL0     C65168   2.903   0.672  11.104 -0.3705  0.0693 -0.1184
  473MOL0     C65169   2.884   0.549  11.050 -0.0080 -0.0507 -0.2644
  473MOL0     C65170   2.989   0.486  10.974  0.7149 -0.4431 -0.7084
  473MOL0     C65171   3.113   0.535  10.971 -0.6090  0.3009  0.0205
  473MOL0     O65172   3.211   0.459  10.915  0.3620 -0.2951  0.2746
  473MOL0     C65173   3.283   0.366  10.990 -0.4155  0.1398 -0.6771
  473MOL0     C65174   3.399   0.296  10.928  1.1154 -0.2216 -0.3458
  473MOL0     C65175   3.497   0.385  10.853 -0.3025 -0.0451  0.8250
  473MOL0     C65176   3.594   0.292  10.774  0.6612  0.2442  0.2240
  473MOL0     C65177   3.683   0.375  10.674  0.7794 -0.0442 -0.4619
  473MOL0     C65178   3.808   0.301  10.642 -0.0515 -0.1432  0.0510
  473MOL0     C65179   3.912   0.393  10.571 -0.2182  0.3440  0.5149
  473MOL0     C65180   4.043   0.335  10.569 -0.5013  0.4921 -0.1778
  473MOL0    Cl65181   4.144   0.426  10.454  0.2271 -0.5795  0.0439
  473MOL0     C65182   3.129   0.655  11.032 -0.1258  0.1076  0.2891
  473MOL0     C65183   3.034   0.725  11.095  0.1118 -0.5391  1.4183
  473MOL0     O65184   2.828   0.900  11.012  0.0012 -0.6860  0.2523
  473MOL0     C65185   2.552   0.840  11.231 -0.0798  0.4261  0.0166
  473MOL0     C65186   2.428   0.889  11.273  0.0408  0.1089 -0.4640
  473MOL0     N65187   1.704   1.039  11.112  0.5098  0.6752  0.1228
  473MOL0     N65188   1.584   1.033  11.066  0.1291 -0.1935  0.2398
  473MOL0     C65189   0.472   1.879  11.056  0.8289  0.5570  0.0949
  473MOL0     C65190   0.404   1.997  11.081 -0.1730 -0.0982  0.2801
  473MOL0     C65191   0.325   2.462  11.070 -0.8099 -0.0516  0.4532
  473MOL0     C65192   0.201   2.448  11.132  0.5732 -1.0087  0.1531
  473MOL0     C65193   0.126   2.558  11.170 -0.7684 -0.3438 -0.9410
  473MOL0     C65194   0.165   2.686  11.144  0.3974  0.0804 -0.2746
  473MOL0     O65195   0.071   2.779  11.194 -0.2263 -0.2620 -0.0343
  473MOL0     C65196   0.119   2.913  11.185  0.5330 -0.7332 -0.3255
  473MOL0     C65197   0.009   3.011  11.208  0.4477  0.2185 -0.1156
  473MOL0     C65198   0.052   3.159  11.185 -0.8421  0.0321 -0.0718
  473MOL0     C65199   0.194   3.197  11.230  0.0132 -0.2996 -0.0653
  473MOL0     C65200   0.204   3.200  11.379 -0.3469 -0.2531 -0.1432
  473MOL0     C65201   0.202   3.214  11.497 -0.0040  0.6460  0.0650
  473MOL0     C65202   0.294   2.706  11.087 -0.2580  0.3614 -0.1457
  473MOL0     C65203   0.373   2.597  11.048  0.0259 -0.3489 -0.4848
  473MOL0     C65204   0.501   2.635  10.976  0.4611  0.0828 -0.0940
  473MOL0     H65205   0.663   2.215  11.063  2.1108  0.3413  3.4149
  473MOL0     H65206   0.777   2.015  11.010 -0.1208  1.2115 -2.2785
  473MOL0     H65207   0.816   1.748  11.149 -0.9274 -1.1179  0.5131
  473MOL0     H65208   0.871   1.788  10.991 -1.4576 -0.9848 -0.8318
  473MOL0     H65209   0.761   1.527  11.075  0.0903  1.3734  1.2859
  473MOL0     H65210   0.836   1.557  10.911  2.9235  0.4226  0.0769
  473MOL0     H65211   1.062   1.592  11.005  1.6681  0.1620  1.7706
  473MOL0     H65212   0.975   1.588  11.164 -1.6033 -2.4539  0.5297
  473MOL0     H65213   0.914   1.352  11.118 -0.2417 -2.0093 -2.0389
  473MOL0     H65214   0.975   1.368  10.953  2.1908  2.4372 -1.6714
  473MOL0     H65215   1.154   1.409  11.192  0.5150 -0.7458  1.0399
  473MOL0     H65216   1.207   1.393  11.023  0.8120  0.2224  0.8319
  473MOL0     H65217   1.044   1.185  11.168  0.0269  0.1662  1.3144
  473MOL0     H65218   1.121   1.155  11.017 -1.3580  0.4649 -0.3362
  473MOL0     H65219   1.257   1.039  11.185 -1.0247  0.0918  0.1136
  473MOL0     H65220   1.265   1.188  11.279  1.1343 -4.0225  2.3464
  473MOL0     H65221   1.356   1.142  11.000 -1.6302  0.7854 -0.1376
  473MOL0     H65222   1.408   1.287  11.084  0.3735 -1.2852 -4.4103
  473MOL0     H65223   1.552   1.238  11.322  0.1783 -0.8825  1.0637
  473MOL0     H65224   1.793   1.125  11.419  0.3793  1.2055  0.6915
  473MOL0     H65225   1.844   1.257  11.323 -2.6846  0.0143 -1.9376
  473MOL0     H65226   2.005   1.039  11.383 -1.9608 -0.8530  0.4897
  473MOL0     H65227   1.949   0.998  11.216 -3.1145 -2.6394  2.7765
  473MOL0     H65228   2.012   1.230  11.145 -1.9537 -1.9620 -0.4938
  473MOL0     H65229   2.080   1.254  11.305 -0.6398  0.4868 -1.3833
  473MOL0     H65230   2.153   1.041  11.092 -1.4278  0.7810  0.0385
  473MOL0     H65231   2.223   1.199  11.120  1.6746 -1.9142 -1.4419
  473MOL0     H65232   2.429   1.165  11.077 -0.4278  0.1774 -0.0439
  473MOL0     H65233   2.618   1.222  10.995 -0.7233 -0.1773 -1.2777
  473MOL0     H65234   2.705   1.098  10.913 -1.4085 -1.5979  1.1904
  473MOL0     H65235   2.763   1.160  11.075 -1.8847  0.7140  2.7240
  473MOL0     H65236   2.786   0.504  11.051 -0.8210  1.5431 -2.1753
  473MOL0     H65237   2.967   0.386  10.937  0.1990 -0.4240 -0.4713
  473MOL0     H65238   3.319   0.421  11.077  2.4730  1.1369 -2.3655
  473MOL0     H65239   3.216   0.281  11.008  0.8799 -0.9486 -0.8534
  473MOL0     H65240   3.451   0.245  11.011  2.1772 -0.7874 -1.3256
  473MOL0     H65241   3.360   0.214  10.867  1.7493  0.7150 -2.0805
  473MOL0     H65242   3.553   0.459  10.910  1.9100 -0.8206 -0.2568
  473MOL0     H65243   3.441   0.455  10.790 -1.0930  0.9118  2.5173
  473MOL0     H65244   3.544   0.220  10.707 -1.3424  2.0538 -0.3399
  473MOL0     H65245   3.663   0.231  10.833  0.5681  1.2170  1.3686
  473MOL0     H65246   3.628   0.399  10.583  1.3055  0.2176 -0.7189
  473MOL0     H65247   3.729   0.468  10.709 -1.1218  0.7450  0.0415
  473MOL0     H65248   3.785   0.223  10.570  2.7841 -2.7192  1.6898
  473MOL0     H65249   3.855   0.253  10.728  0.7110 -1.3864 -1.0226
  473MOL0     H65250   3.914   0.492  10.618 -0.5359  0.5168  0.1740
  473MOL0     H65251   3.883   0.408  10.466  1.2774 -4.9383 -0.9447
  473MOL0     H65252   4.054   0.229  10.543  1.3802  0.1974  1.5274
  473MOL0     H65253   4.083   0.344  10.670 -1.9646  2.1934  0.2956
  473MOL0     H65254   3.225   0.705  11.032  0.2208 -0.4744 -1.2096
  473MOL0     H65255   3.045   0.817  11.152  1.7898  1.4546 -1.8180
  473MOL0     H65256   2.587   0.749  11.279 -0.2631 -1.1577 -2.6486
  473MOL0     H65257   2.364   0.837  11.344  1.2073  0.4727  0.9033
  473MOL0     H65258   0.418   1.786  11.047 -1.6285  2.0468 -2.4487
  473MOL0     H65259   0.297   1.994  11.098 -0.1109 -3.9620  0.8048
  473MOL0     H65260   0.168   2.347  11.157 -0.9179 -0.3915  0.8085
  473MOL0     H65261   0.031   2.543  11.222 -1.0278  1.0654 -0.9564
  473MOL0     H65262   0.196   2.940  11.257 -0.4599 -0.1432  0.5457
  473MOL0     H65263   0.155   2.938  11.085 -0.5616  2.1093 -0.0936
  473MOL0     H65264  -0.025   3.005  11.312  0.3084  2.9153  0.0545
  473MOL0     H65265  -0.086   3.005  11.154  0.8685  1.0503 -0.9736
  473MOL0     H65266   0.053   3.179  11.077  1.0407 -1.3972 -0.3611
  473MOL0     H65267  -0.016   3.231  11.231 -0.3476  0.0371  0.6599
  473MOL0     H65268   0.215   3.300  11.198  0.1996 -0.6166 -1.0093
  473MOL0     H65269   0.268   3.141  11.172 -0.9441 -1.6237 -0.0605
  473MOL0     H65270   0.201   3.203  11.603  0.3033 -0.3421 -0.0306
  473MOL0     H65271   0.315   2.811  11.068 -1.6752  0.5615 -0.7145
  473MOL0     H65272   0.582   2.625  11.050 -0.3610  1.3254  1.0275
  473MOL0     H65273   0.522   2.586  10.880 -1.4586 -0.1464 -0.4414
  473MOL0     H65274   0.500   2.743  10.958  0.2633 -0.2606 -2.5241
  474MOL0     O65275   1.661   8.208   0.424  0.7247  0.2300  0.1756
  474MOL0     C65276   1.635   8.137   0.522 -0.3907 -0.1009  0.5697
  474MOL0     O65277   1.709   8.120   0.636 -0.0389 -0.0519  0.1737
  474MOL0     C65278   1.846   8.132   0.633  0.0720 -0.2261 -0.4733
  474MOL0     C65279   1.916   8.155   0.755  0.0561 -0.1153 -0.5319
  474MOL0     C65280   2.062   8.153   0.758 -0.0305 -0.8606  0.3847
  474MOL0     C65281   2.130   8.138   0.636  0.0107  0.8605  0.4814
  474MOL0     O65282   2.269   8.127   0.636  0.0386 -0.7106 -0.1203
  474MOL0     C65283   2.324   8.016   0.705 -0.8128  0.1507  0.7142
  474MOL0     C65284   2.470   8.014   0.646 -0.4586 -0.1183 -1.1230
  474MOL0     C65285   2.566   7.922   0.731 -0.1290 -0.0037  0.1227
  474MOL0     C65286   2.699   7.906   0.666 -0.2987  0.4000 -0.2763
  474MOL0     C65287   2.794   7.817   0.753  0.5705 -0.2765 -0.0083
  474MOL0     C65288   2.916   7.776   0.678  0.5407  0.2936  0.0920
  474MOL0     C65289   3.022   7.723   0.779  0.4358  0.3170  0.4803
  474MOL0     C65290   3.127   7.653   0.688  0.8714  0.4748 -0.1893
  474MOL0     N65291   3.254   7.637   0.755 -0.2808 -0.0512 -0.0952
  474MOL0     C65292   3.366   7.708   0.724  0.6672  0.3894  0.1452
  474MOL0     C65293   3.469   7.644   0.786  0.0235 -0.1592  0.5829
  474MOL0     C65294   3.600   7.685   0.769 -0.9051 -0.2972  0.6346
  474MOL0     C65295   3.670   7.721   0.900 -0.4211  1.0990 -0.2507
  474MOL0     C65296   3.824   7.756   0.862 -0.1372 -0.4265  0.7682
  474MOL0     C65297   3.886   7.823   0.979  0.7464 -0.0377 -0.0702
  474MOL0     O65298   3.877   7.738   1.091 -0.7386  0.2600 -0.4488
  474MOL0     C65299   3.990   7.670   1.130  0.1294  0.3615  0.2027
  474MOL0     C65300   4.076   7.598   1.050 -0.1632  0.6664  0.0241
  474MOL0     C65301   4.180   7.526   1.101  0.2225 -0.1361  0.0621
  474MOL0     C65302   4.262   7.457   0.992 -0.2518 -0.2982  0.0333
  474MOL0     C65303   4.210   7.538   1.239  0.3684  0.0106  0.0459
  474MOL0     C65304   4.333   7.503   1.306  0.8751 -0.0246  0.6834
  474MOL0     O65305   4.334   7.488   1.443  0.4824  0.1555  1.0328
  474MOL0     C65306   4.452   7.464   1.508 -0.8443 -0.5772  0.0761
  474MOL0     C65307   4.581   7.513   1.485  0.0354 -0.3105  0.2934
  474MOL0     C65308   4.688   7.473   1.554  0.2003  0.7392 -0.4912
  474MOL0     C65309   4.670   7.387   1.667 -1.0362  0.8069  0.3647
  474MOL0     O65310   4.776   7.337   1.744 -0.1339 -1.0216  0.4160
  474MOL0     C65311   4.910   7.334   1.684  0.9277 -0.1065  0.2400
  474MOL0     C65312   5.019   7.253   1.756 -0.1458  0.0336  0.8034
  474MOL0     C65313   4.962   7.113   1.782 -0.6852 -0.5280 -0.5096
  474MOL0     C65314   4.955   7.024   1.657  0.4987 -0.0132  0.4211
  474MOL0     C65315   4.983   6.879   1.696 -0.1957 -0.3825  0.0611
  474MOL0     C65316   4.970   6.771   1.590  0.4152  0.0628  0.2725
  474MOL0     C65317   4.820   6.747   1.532 -0.0081 -0.9082  0.4621
  474MOL0     C65318   4.811   6.796   1.386 -0.2392 -0.2296  0.7694
  474MOL0    Cl65319   4.897   6.685   1.273 -0.1995  0.1424  0.2845
  474MOL0     C65320   4.545   7.349   1.695 -1.1115 -0.2876  0.3652
  474MOL0     C65321   4.437   7.381   1.624  0.4701  0.1972 -0.4193
  474MOL0     O65322   4.433   7.514   1.233 -0.5995 -0.6802  0.0964
  474MOL0     C65323   4.114   7.597   1.322  0.1714 -0.4185 -0.3549
  474MOL0     C65324   4.000   7.655   1.268 -0.4071 -0.5613 -0.2113
  474MOL0     N65325   3.425   7.530   0.849  0.1511  0.0376 -0.2045
  474MOL0     N65326   3.294   7.534   0.832 -0.0632  0.2271 -1.1147
  474MOL0     C65327   2.062   8.129   0.515  0.5385  0.4859 -0.7380
  474MOL0     C65328   1.920   8.133   0.519 -0.7391  0.3781  0.3182
  474MOL0     C65329   1.513   8.061   0.512  0.0916 -0.2109  0.0056
  474MOL0     C65330   1.513   7.925   0.544 -0.0911  0.6168  0.6594
  474MOL0     C65331   1.387   7.851   0.546 -0.0571 -0.2691 -0.3296
  474MOL0     C65332   1.268   7.918   0.514 -0.1015  0.8656 -1.3829
  474MOL0     O65333   1.147   7.852   0.511 -0.5838 -0.0783 -0.1385
  474MOL0     C65334   1.137   7.711   0.517  0.2245  0.6476  0.1118
  474MOL0     C65335   0.994   7.673   0.485 -0.2171  0.1120  0.4498
  474MOL0     C65336   0.992   7.520   0.454 -0.0854 -0.3256 -0.3516
  474MOL0     C65337   0.853   7.463   0.427 -0.2364 -0.5861 -0.7355
  474MOL0     C65338   0.855   7.334   0.363  0.4390  0.0325  0.0531
  474MOL0     C65339   0.841   7.216   0.324  0.4016 -0.4103  0.2197
  474MOL0     C65340   1.270   8.051   0.496  0.4269  0.4110  0.0862
  474MOL0     C65341   1.389   8.133   0.489  0.4074  0.1359  0.0666
  474MOL0     C65342   1.368   8.268   0.444 -0.4339  0.5684 -0.3533
  474MOL0     H65343   1.859   8.167   0.847  4.7962  0.2266  2.7326
  474MOL0     H65344   2.119   8.177   0.847  0.8864  2.1696 -0.9120
  474MOL0     H65345   2.265   7.925   0.691  1.7639 -1.4158 -0.7875
  474MOL0     H65346   2.336   8.046   0.810  0.8176  0.9823  0.3341
  474MOL0     H65347   2.472   7.975   0.544 -1.1855 -1.2424 -0.7264
  474MOL0     H65348   2.506   8.116   0.664 -2.8890  0.7847 -0.9548
  474MOL0     H65349   2.575   7.970   0.829  0.2244  3.3660 -1.3932
  474MOL0     H65350   2.518   7.825   0.748 -3.3735  0.9844 -2.2791
  474MOL0     H65351   2.675   7.855   0.572 -0.7839  1.3316 -0.6734
  474MOL0     H65352   2.745   8.006   0.663  0.3540  0.1748  1.3296
  474MOL0     H65353   2.742   7.725   0.783  1.0659 -0.0929  1.4821
  474MOL0     H65354   2.829   7.876   0.838 -0.2566  1.8806 -1.0937
  474MOL0     H65355   2.879   7.699   0.610  0.5313 -1.4041  1.9228
  474MOL0     H65356   2.957   7.862   0.625  1.9752 -0.4152 -0.0208
  474MOL0     H65357   2.976   7.649   0.845 -2.1247  0.0378 -1.4641
  474MOL0     H65358   3.073   7.802   0.834 -2.1098  1.6175  1.1275
  474MOL0     H65359   3.087   7.558   0.652 -1.6073  0.4289  2.3153
  474MOL0     H65360   3.141   7.704   0.593 -0.1630 -0.8186 -1.0806
  474MOL0     H65361   3.377   7.791   0.656 -2.5549 -0.2862 -1.4095
  474MOL0     H65362   3.606   7.776   0.709 -1.5988 -0.2945  0.5655
  474MOL0     H65363   3.648   7.602   0.717 -1.1460 -1.3940  2.0776
  474MOL0     H65364   3.610   7.794   0.954 -2.9207 -0.8110 -0.2804
  474MOL0     H65365   3.671   7.631   0.962 -2.1556 -0.9423 -2.9608
  474MOL0     H65366   3.874   7.663   0.835 -2.8287 -2.1069  1.2243
  474MOL0     H65367   3.831   7.830   0.781 -2.0466  2.3003  2.8831
  474MOL0     H65368   3.991   7.839   0.953  0.4131  0.4570 -1.1830
  474MOL0     H65369   3.844   7.921   1.002 -1.1134 -0.3828 -1.6984
  474MOL0     H65370   4.060   7.604   0.943  0.2097  1.6646  0.0172
  474MOL0     H65371   4.312   7.371   1.036  0.9250  0.4030  0.1060
  474MOL0     H65372   4.337   7.527   0.953 -2.6045  1.9124 -0.8163
  474MOL0     H65373   4.191   7.419   0.918  1.2597 -1.9068 -0.6479
  474MOL0     H65374   4.587   7.587   1.405 -1.2092  0.2097  0.6550
  474MOL0     H65375   4.785   7.506   1.517  0.5653 -0.5928 -0.7728
  474MOL0     H65376   4.897   7.289   1.585 -1.4442 -2.3822  1.4463
  474MOL0     H65377   4.948   7.436   1.670  1.3806 -0.5589 -2.3059
  474MOL0     H65378   5.100   7.245   1.684  0.6061  0.6771  1.5633
  474MOL0     H65379   5.063   7.304   1.842  0.1518  0.7839  0.2153
  474MOL0     H65380   4.863   7.117   1.830 -1.7559 -1.5915 -2.4916
  474MOL0     H65381   5.030   7.059   1.848 -0.1914 -1.7246 -1.9447
  474MOL0     H65382   5.032   7.039   1.580  0.4902 -1.7715  0.0083
  474MOL0     H65383   4.857   7.039   1.611  1.4401  1.0313 -1.3625
  474MOL0     H65384   5.084   6.874   1.737  0.4423  0.4420 -1.3362
  474MOL0     H65385   4.916   6.855   1.780  0.4670 -2.6290  0.0166
  474MOL0     H65386   4.994   6.673   1.633  0.8731 -0.4245 -1.0344
  474MOL0     H65387   5.034   6.803   1.506  0.6739  0.6490  0.6888
  474MOL0     H65388   4.755   6.820   1.581 -1.4958 -0.5261 -1.9100
  474MOL0     H65389   4.785   6.645   1.552  3.7556 -2.7138 -1.1445
  474MOL0     H65390   4.861   6.893   1.381 -3.8358  1.7577 -1.0028
  474MOL0     H65391   4.704   6.799   1.361 -0.0949 -0.0836  0.1455
  474MOL0     H65392   4.520   7.281   1.776 -1.2180  0.4935  0.9940
  474MOL0     H65393   4.340   7.345   1.657  1.0631 -1.4462 -0.3784
  474MOL0     H65394   4.124   7.595   1.431 -0.0425 -4.6432 -0.2670
  474MOL0     H65395   3.918   7.700   1.324 -2.5820 -1.3241 -2.6036
  474MOL0     H65396   2.115   8.129   0.421  0.2608 -2.4862 -1.0014
  474MOL0     H65397   1.882   8.106   0.421  1.9464 -2.9546  0.0016
  474MOL0     H65398   1.610   7.886   0.572 -0.0852  1.1730  1.4445
  474MOL0     H65399   1.385   7.755   0.595 -0.9777 -0.9347 -1.6121
  474MOL0     H65400   1.214   7.663   0.456  1.6597  1.5624  1.1392
  474MOL0     H65401   1.155   7.673   0.618 -3.2329  1.4193  1.1537
  474MOL0     H65402   0.957   7.733   0.401  1.2489 -0.0938 -0.3800
  474MOL0     H65403   0.929   7.688   0.571 -0.4258  2.4613 -0.0424
  474MOL0     H65404   1.060   7.495   0.373  0.7651  1.6220 -0.3006
  474MOL0     H65405   1.033   7.468   0.541  1.1715 -0.8291 -1.2277
  474MOL0     H65406   0.800   7.536   0.365  0.5946  1.7574  1.1174
  474MOL0     H65407   0.796   7.468   0.521  2.7224  2.5398  1.1577
  474MOL0     H65408   0.853   7.111   0.307 -0.4060 -0.3757 -0.5960
  474MOL0     H65409   1.170   8.083   0.466 -0.9299 -2.4655  1.1928
  474MOL0     H65410   1.265   8.302   0.457 -0.0612  0.6258  3.6140
  474MOL0     H65411   1.440   8.320   0.509 -0.5795 -1.4047  1.4769
  474MOL0     H65412   1.385   8.293   0.339  0.8010  1.5599  0.0567
  475MOL0     O65413   8.355   3.266   6.774 -0.0710  0.0242  0.6070
  475MOL0     C65414   8.320   3.188   6.865 -1.1283 -0.0786 -0.7344
  475MOL0     O65415   8.391   3.164   6.974 -0.3464  0.9792  1.2058
  475MOL0     C65416   8.529   3.172   6.966  0.1349  0.3389  0.1474
  475MOL0     C65417   8.604   3.211   7.081  0.1056 -0.4744 -0.5439
  475MOL0     C65418   8.745   3.192   7.088 -0.7543 -0.5987 -0.2431
  475MOL0     C65419   8.815   3.145   6.981  0.4502  0.8097  0.1595
  475MOL0     O65420   8.952   3.157   6.991 -0.5064  0.6055 -0.2296
  475MOL0     C65421   9.020   3.147   6.868  0.2491 -0.8503 -0.0137
  475MOL0     C65422   9.156   3.203   6.892  0.5870  0.2898 -0.3781
  475MOL0     C65423   9.229   3.130   6.999  0.2045 -0.1000 -0.0303
  475MOL0     C65424   9.390   3.134   6.989  0.0232 -0.3912  0.1350
  475MOL0     C65425   9.446   3.156   7.126  0.5309 -0.3385 -0.2231
  475MOL0     C65426   9.592   3.144   7.123 -0.4786 -0.6998 -1.1107
  475MOL0     C65427   9.648   3.159   7.262  0.4753  0.3753  0.4479
  475MOL0     C65428   9.797   3.118   7.258 -0.5872  0.1385  0.8223
  475MOL0     N65429   9.865   3.175   7.141  0.0554  0.5153 -0.2992
  475MOL0     C65430   9.907   3.307   7.128 -0.6595  0.6189 -0.1365
  475MOL0     C65431   9.980   3.311   7.013 -0.6675  0.2678  0.1187
  475MOL0     C65432  10.043   3.433   6.948 -0.2372  0.0995  0.3199
  475MOL0     C65433  10.195   3.417   6.957  0.7475 -0.3680  0.7482
  475MOL0     C65434  10.269   3.529   6.878  0.5543 -0.0208 -0.0176
  475MOL0     C65435  10.414   3.484   6.857 -0.2250  0.6123  0.0317
  475MOL0     O65436  10.475   3.557   6.748 -0.0367  0.1802 -0.2637
  475MOL0     C65437  10.569   3.651   6.770 -0.3008  0.2859  0.5701
  475MOL0     C65438  10.570   3.741   6.875 -0.8074 -0.6769 -0.6218
  475MOL0     C65439  10.677   3.832   6.904  0.0631 -0.8576 -0.2265
  475MOL0     C65440  10.666   3.917   7.032 -0.0586  0.0024  0.3064
  475MOL0     C65441  10.797   3.822   6.828  0.3528 -0.7770 -0.5385
  475MOL0     C65442  10.912   3.920   6.838 -0.0060  0.2655 -0.6770
  475MOL0     O65443  10.873   4.043   6.866 -0.4396 -1.1584 -0.1400
  475MOL0     C65444  10.971   4.129   6.907 -0.1184 -0.3422  0.1626
  475MOL0     C65445  11.069   4.104   7.004  0.4088 -0.3235  0.2549
  475MOL0     C65446  11.148   4.213   7.047 -0.0660  0.6745 -0.6745
  475MOL0     C65447  11.144   4.342   6.993  0.4472  0.7105  0.6414
  475MOL0     O65448  11.219   4.440   7.046  0.1729 -0.6418 -0.2903
  475MOL0     C65449  11.246   4.561   6.964 -0.0956  0.1710  0.1534
  475MOL0     C65450  11.388   4.613   6.988 -0.0088 -1.1590 -0.0149
  475MOL0     C65451  11.444   4.695   6.876  0.5262 -0.0804 -0.5913
  475MOL0     C65452  11.581   4.740   6.906  0.1089  0.2106  0.7951
  475MOL0     C65453  11.638   4.814   6.784  0.1521  0.6112 -0.2221
  475MOL0     C65454  11.579   4.954   6.776  0.2567  0.2726 -0.5843
  475MOL0     C65455  11.634   5.053   6.676  0.6736 -0.0596  0.4169
  475MOL0     C65456  11.781   5.043   6.673 -1.0981  0.4713 -0.0139
  475MOL0    Cl65457  11.828   5.188   6.586 -0.1100 -0.2549  0.4742
  475MOL0     C65458  11.049   4.363   6.886 -0.1867 -0.0325 -0.4422
  475MOL0     C65459  10.965   4.255   6.854 -0.4237  0.5541  0.4494
  475MOL0     O65460  11.025   3.880   6.811 -0.2678 -0.0970 -0.2465
  475MOL0     C65461  10.802   3.733   6.724 -0.2085 -0.4854  0.1674
  475MOL0     C65462  10.693   3.645   6.696  0.3661  0.3313 -0.4165
  475MOL0     N65463   9.986   3.180   6.959  1.0157 -0.8606 -0.3992
  475MOL0     N65464   9.916   3.104   7.035 -0.6573 -0.4973  0.1376
  475MOL0     C65465   8.749   3.104   6.865 -0.7260  0.0595 -0.4346
  475MOL0     C65466   8.608   3.123   6.867 -0.7199 -0.2155  0.3375
  475MOL0     C65467   8.193   3.123   6.859  0.1657 -0.5966  0.5298
  475MOL0     C65468   8.098   3.136   6.963 -0.5965  0.3083 -0.2014
  475MOL0     C65469   7.970   3.119   6.935  0.5259  0.4496  0.1157
  475MOL0     C65470   7.917   3.075   6.813  0.2847 -1.2406 -0.2664
  475MOL0     O65471   7.780   3.093   6.791 -0.1250  0.1731 -0.7128
  475MOL0     C65472   7.736   3.107   6.660  0.1458 -0.1647 -0.6293
  475MOL0     C65473   7.588   3.144   6.656 -0.1458 -0.3686 -0.8932
  475MOL0     C65474   7.580   3.274   6.755  0.9072  0.3938  0.2860
  475MOL0     C65475   7.428   3.310   6.770  0.3903  1.2292  0.6804
  475MOL0     C65476   7.356   3.200   6.824 -0.0369  0.2391  0.0534
  475MOL0     C65477   7.280   3.122   6.881 -0.2234  0.8827 -0.0784
  475MOL0     C65478   8.010   3.055   6.714 -0.2542 -0.4313 -0.2832
  475MOL0     C65479   8.149   3.069   6.737  0.1491 -0.2976 -0.8181
  475MOL0     C65480   8.249   3.032   6.623 -0.1426 -0.5890  0.2440
  475MOL0     H65481   8.549   3.252   7.165 -0.6505 -0.2990 -1.1185
  475MOL0     H65482   8.804   3.231   7.170  0.2927  0.4387 -1.4588
  475MOL0     H65483   8.978   3.207   6.786  0.4963  2.0351  1.8556
  475MOL0     H65484   9.024   3.042   6.835 -0.0419 -0.7092 -0.5128
  475MOL0     H65485   9.201   3.197   6.793 -1.6968 -3.2075 -1.3644
  475MOL0     H65486   9.142   3.309   6.919  1.2031 -0.5658  4.0631
  475MOL0     H65487   9.193   3.165   7.097  3.1587  1.5392  0.6204
  475MOL0     H65488   9.197   3.026   6.992 -1.0469  0.1570  1.3081
  475MOL0     H65489   9.419   3.041   6.938 -1.8643  0.3303 -2.5327
  475MOL0     H65490   9.419   3.218   6.925 -2.4396  1.8376  1.7495
  475MOL0     H65491   9.397   3.086   7.194 -1.2471 -0.9937 -2.0578
  475MOL0     H65492   9.422   3.256   7.164  0.1560 -1.4197  2.5795
  475MOL0     H65493   9.619   3.046   7.084 -1.3040 -1.2243 -0.4009
  475MOL0     H65494   9.633   3.218   7.053  0.9427  1.5095  1.8746
  475MOL0     H65495   9.584   3.100   7.328  0.8715  2.3006  2.6753
  475MOL0     H65496   9.633   3.267   7.272 -1.7289  0.1319  0.3507
  475MOL0     H65497   9.845   3.153   7.349  2.8845  0.0082 -0.8013
  475MOL0     H65498   9.823   3.012   7.263  4.7615  1.1319 -0.0676
  475MOL0     H65499   9.908   3.388   7.200 -0.4927 -0.4760  1.1226
  475MOL0     H65500  10.016   3.535   6.978  1.7148  0.2301  1.8580
  475MOL0     H65501  10.013   3.420   6.843 -0.2050  0.0939  0.3114
  475MOL0     H65502  10.232   3.421   7.060  0.6890  1.1538  0.7366
  475MOL0     H65503  10.221   3.323   6.908 -0.7135  0.0729 -0.9755
  475MOL0     H65504  10.218   3.543   6.782 -0.1543  2.7917  0.6859
  475MOL0     H65505  10.269   3.623   6.932  1.4736 -1.6771  3.1038
  475MOL0     H65506  10.465   3.490   6.953 -0.0236  0.6942 -0.0794
  475MOL0     H65507  10.420   3.379   6.829 -1.9540  0.2463  0.8648
  475MOL0     H65508  10.483   3.728   6.939 -1.9491 -1.6357 -2.2839
  475MOL0     H65509  10.567   3.901   7.077  0.6182 -1.1517  1.4936
  475MOL0     H65510  10.672   4.023   7.010 -0.4755  0.2779  1.4453
  475MOL0     H65511  10.742   3.889   7.106 -1.4477  0.1389  1.8423
  475MOL0     H65512  11.077   4.009   7.055 -0.7799 -1.2390 -1.1604
  475MOL0     H65513  11.219   4.205   7.129  0.1967 -1.5462 -1.0400
  475MOL0     H65514  11.250   4.519   6.863  1.5034 -3.2850  1.4844
  475MOL0     H65515  11.168   4.635   6.983 -2.1146 -2.5083  3.3170
  475MOL0     H65516  11.387   4.674   7.079  0.1938 -1.2100  0.0225
  475MOL0     H65517  11.450   4.527   7.015 -0.4512 -1.4734  0.0237
  475MOL0     H65518  11.374   4.778   6.864 -0.3988 -0.4760  1.5135
  475MOL0     H65519  11.444   4.639   6.782  2.2091  0.8427 -1.1770
  475MOL0     H65520  11.651   4.657   6.920  1.8983  1.4789 -0.1840
  475MOL0     H65521  11.588   4.800   6.997  0.7087  1.6534 -0.1457
  475MOL0     H65522  11.745   4.823   6.803  0.2397  0.0313 -0.4125
  475MOL0     H65523  11.614   4.771   6.686  0.8510  3.4610 -1.7396
  475MOL0     H65524  11.593   5.002   6.873 -0.1057 -2.5375  0.9360
  475MOL0     H65525  11.472   4.949   6.752 -0.0814 -2.6240  1.0818
  475MOL0     H65526  11.597   5.153   6.702 -2.4479 -0.3834 -2.1603
  475MOL0     H65527  11.607   5.031   6.573  1.2492  0.6793  0.0938
  475MOL0     H65528  11.808   4.956   6.612 -2.4716  1.2606 -1.8627
  475MOL0     H65529  11.825   5.036   6.773 -0.6867  2.9476  0.0439
  475MOL0     H65530  11.032   4.455   6.830 -0.9240 -0.6583 -1.2879
  475MOL0     H65531  10.874   4.280   6.800 -1.0998 -1.1063  0.7802
  475MOL0     H65532  10.892   3.714   6.666 -0.9028 -2.6564 -0.3142
  475MOL0     H65533  10.704   3.564   6.624 -1.6182  0.1112 -0.5325
  475MOL0     H65534   8.800   3.063   6.779  1.2467  2.9397 -0.7852
  475MOL0     H65535   8.561   3.079   6.779  0.2740 -0.9130  0.1309
  475MOL0     H65536   8.141   3.175   7.054 -0.4313 -0.8886  0.2512
  475MOL0     H65537   7.896   3.143   7.011  0.2471 -1.4146  0.4696
  475MOL0     H65538   7.798   3.182   6.611  0.3117  0.1698  0.0749
  475MOL0     H65539   7.739   3.011   6.608  2.7406 -0.6036  0.1936
  475MOL0     H65540   7.526   3.064   6.697 -2.1021  0.5227 -1.9601
  475MOL0     H65541   7.561   3.165   6.552  0.0223  0.5732 -0.7589
  475MOL0     H65542   7.619   3.252   6.855  1.2672  2.2344  0.5884
  475MOL0     H65543   7.637   3.359   6.718  3.3990 -0.3300  2.1844
  475MOL0     H65544   7.386   3.345   6.675 -2.0160 -2.5486  0.1022
  475MOL0     H65545   7.420   3.394   6.840 -1.6248  1.7663 -0.0985
  475MOL0     H65546   7.224   3.062   6.951 -0.8736  1.2738 -0.2526
  475MOL0     H65547   7.990   3.033   6.609  0.7389  0.6833 -0.7343
  475MOL0     H65548   8.232   3.093   6.534  0.8854  0.5124  0.7729
  475MOL0     H65549   8.353   3.029   6.657 -0.0060 -0.7560 -0.1868
  475MOL0     H65550   8.230   2.930   6.588 -3.4573  0.0561 -0.1732
  476MOL0     O65551   6.287   7.050   7.680  0.4317 -0.5044 -0.0039
  476MOL0     C65552   6.348   7.157   7.718  1.3435  0.2602 -0.2657
  476MOL0     O65553   6.482   7.173   7.735  0.2217 -0.8347  0.0583
  476MOL0     C65554   6.561   7.071   7.744 -0.6105  0.0017 -0.4688
  476MOL0     C65555   6.525   6.956   7.815  0.1271 -0.2100  0.7220
  476MOL0     C65556   6.611   6.855   7.832 -0.2360  0.4413  0.1173
  476MOL0     C65557   6.738   6.864   7.768  0.4645 -0.4047 -0.4991
  476MOL0     O65558   6.814   6.749   7.787 -0.5789 -0.1460  0.0096
  476MOL0     C65559   6.950   6.746   7.731  0.1309  0.0318 -0.3473
  476MOL0     C65560   7.004   6.610   7.739  0.4555 -0.2724  0.0395
  476MOL0     C65561   7.039   6.577   7.890  0.0901 -0.3567 -0.1358
  476MOL0     C65562   7.105   6.430   7.889  0.6605 -0.4215 -0.2788
  476MOL0     C65563   7.142   6.379   8.033  0.3961 -0.3953  0.3504
  476MOL0     C65564   7.223   6.248   8.002 -0.3050 -0.4776  0.3549
  476MOL0     C65565   7.286   6.177   8.117 -0.3737 -0.1869 -0.7861
  476MOL0     C65566   7.379   6.064   8.071  0.9046 -0.4353 -0.1706
  476MOL0     N65567   7.493   6.052   8.167 -0.4520  0.1303 -0.2138
  476MOL0     C65568   7.633   6.049   8.144  0.3148  0.4567  0.3280
  476MOL0     C65569   7.690   6.069   8.267  0.6030 -0.0728 -0.5397
  476MOL0     C65570   7.835   6.062   8.299 -0.1572 -0.6746  0.2936
  476MOL0     C65571   7.888   6.200   8.273  0.3150  0.0795  0.5158
  476MOL0     C65572   8.041   6.196   8.272 -0.4439 -0.7476  1.2053
  476MOL0     C65573   8.114   6.331   8.294  0.6337 -0.6225 -0.6463
  476MOL0     O65574   8.257   6.326   8.286  0.3383 -0.1687  0.2516
  476MOL0     C65575   8.322   6.337   8.162  0.0921 -0.6375 -0.3954
  476MOL0     C65576   8.463   6.326   8.172 -0.3010  0.3050  0.1798
  476MOL0     C65577   8.545   6.328   8.059 -0.2475  0.3407 -0.1851
  476MOL0     C65578   8.690   6.307   8.079  0.5815 -0.1180  0.2626
  476MOL0     C65579   8.488   6.347   7.930 -0.5960 -0.6909 -0.2214
  476MOL0     C65580   8.570   6.362   7.803  0.0408  1.0565 -0.4131
  476MOL0     O65581   8.676   6.280   7.790  0.3454 -0.0137 -0.0905
  476MOL0     C65582   8.792   6.322   7.723 -0.1632 -0.1851 -0.6349
  476MOL0     C65583   8.891   6.229   7.691 -0.8802  0.7350 -0.0830
  476MOL0     C65584   9.018   6.270   7.626  0.4874 -0.4089  0.3367
  476MOL0     C65585   9.029   6.409   7.606 -0.2302  0.0576  0.2120
  476MOL0     O65586   9.134   6.445   7.523 -0.2277  0.4193  0.1006
  476MOL0     C65587   9.247   6.513   7.579 -0.3712 -1.2086  0.5169
  476MOL0     C65588   9.377   6.468   7.503  0.1789  0.0569  0.4086
  476MOL0     C65589   9.470   6.589   7.480  0.2045  0.0840  0.7316
  476MOL0     C65590   9.593   6.548   7.397  0.0329  0.1539 -0.3222
  476MOL0     C65591   9.721   6.630   7.422  0.2576 -0.4468  0.6505
  476MOL0     C65592   9.783   6.615   7.565 -0.4076  0.0504 -0.1195
  476MOL0     C65593   9.854   6.485   7.600  0.3179 -0.0274 -0.3673
  476MOL0     C65594  10.008   6.501   7.631  0.8503  0.7247 -0.5277
  476MOL0    Cl65595  10.034   6.589   7.770 -0.2387 -0.3428 -0.2903
  476MOL0     C65596   8.935   6.498   7.646 -0.0247 -0.9793  0.8384
  476MOL0     C65597   8.818   6.457   7.695 -0.6390  0.1103  0.0715
  476MOL0     O65598   8.523   6.425   7.713  0.5002  0.3914  0.7868
  476MOL0     C65599   8.354   6.377   7.928  0.2820 -0.1505 -0.7498
  476MOL0     C65600   8.269   6.365   8.039  0.3333  0.0290 -0.2196
  476MOL0     N65601   7.592   6.076   8.365 -0.3865  0.6701 -0.2396
  476MOL0     N65602   7.476   6.074   8.304 -1.1785  1.2534 -0.2221
  476MOL0     C65603   6.772   6.976   7.686 -0.1684  0.4347 -0.0995
  476MOL0     C65604   6.682   7.079   7.671  0.6245 -0.3839 -0.1274
  476MOL0     C65605   6.256   7.279   7.718  0.9278 -0.4062 -0.6600
  476MOL0     C65606   6.126   7.266   7.649 -0.0924 -0.1423  0.3252
  476MOL0     C65607   6.041   7.376   7.650  0.3475 -0.0737 -1.0044
  476MOL0     C65608   6.077   7.501   7.708  0.4016  0.2481  1.2724
  476MOL0     O65609   5.977   7.590   7.705 -0.3431  0.7900 -0.1374
  476MOL0     C65610   5.993   7.721   7.761  0.0913  0.9316 -0.8050
  476MOL0     C65611   6.064   7.830   7.679  0.0402 -0.0823 -0.1109
  476MOL0     C65612   5.983   7.843   7.542 -0.0617 -0.2011 -0.4615
  476MOL0     C65613   6.070   7.921   7.434  0.4497  0.4665 -0.1172
  476MOL0     C65614   6.003   7.920   7.305 -0.9061 -0.1014 -0.0632
  476MOL0     C65615   5.952   7.913   7.194  0.2815 -0.3769 -0.4466
  476MOL0     C65616   6.194   7.521   7.774 -0.1130  0.7008  0.1981
  476MOL0     C65617   6.284   7.410   7.785 -0.1180 -0.1242  0.1149
  476MOL0     C65618   6.410   7.433   7.861 -0.5900  0.0998 -0.8952
  476MOL0     H65619   6.426   6.947   7.859 -1.8803 -0.0906 -3.2673
  476MOL0     H65620   6.582   6.767   7.889  0.0033 -0.1504 -0.6517
  476MOL0     H65621   7.003   6.824   7.787 -1.1170  1.0148 -0.4864
  476MOL0     H65622   6.943   6.776   7.626  0.5410  0.7559 -0.1765
  476MOL0     H65623   6.929   6.544   7.695  1.7176 -2.5422  1.0945
  476MOL0     H65624   7.085   6.607   7.666  0.3733  3.4689 -0.3950
  476MOL0     H65625   7.099   6.657   7.934 -1.3795 -0.0807  1.4594
  476MOL0     H65626   6.944   6.584   7.943 -0.1907 -0.5246 -0.6047
  476MOL0     H65627   7.032   6.355   7.859 -1.7452  0.5132  2.7624
  476MOL0     H65628   7.187   6.429   7.816  2.2527  0.1966  1.4215
  476MOL0     H65629   7.057   6.365   8.100 -0.4961  1.3807 -0.3426
  476MOL0     H65630   7.216   6.438   8.088 -1.0493 -1.3370  3.5093
  476MOL0     H65631   7.164   6.176   7.943  0.5307 -0.7466 -0.1783
  476MOL0     H65632   7.301   6.286   7.935 -1.2248  3.8268  1.4387
  476MOL0     H65633   7.210   6.141   8.187 -1.3160  1.2400 -1.0198
  476MOL0     H65634   7.342   6.255   8.168 -1.5841  0.7384 -0.8243
  476MOL0     H65635   7.320   5.973   8.076  2.6393 -1.5291  2.8213
  476MOL0     H65636   7.412   6.071   7.967 -1.5776 -0.3336 -1.0259
  476MOL0     H65637   7.683   6.016   8.054 -0.9301 -0.3410 -0.0966
  476MOL0     H65638   7.880   5.980   8.242 -3.0242 -1.6020 -0.8284
  476MOL0     H65639   7.834   6.059   8.408 -5.0789  1.0897  0.5582
  476MOL0     H65640   7.856   6.237   8.175  2.0251  0.3851  0.0349
  476MOL0     H65641   7.859   6.272   8.349 -1.0889 -0.2418  0.3116
  476MOL0     H65642   8.054   6.121   8.350 -2.7269 -1.7918  0.6756
  476MOL0     H65643   8.079   6.163   8.175 -1.0143  0.6473  0.4828
  476MOL0     H65644   8.070   6.407   8.229 -3.4309 -1.7517  0.4888
  476MOL0     H65645   8.081   6.362   8.393 -2.0801  0.2559 -1.7262
  476MOL0     H65646   8.501   6.295   8.269 -0.1351  1.0319  0.3585
  476MOL0     H65647   8.730   6.407   8.058 -2.6056  1.4461  1.1095
  476MOL0     H65648   8.736   6.226   8.022 -1.1642 -0.5719 -0.5538
  476MOL0     H65649   8.713   6.276   8.182  0.3489 -1.6194 -0.1153
  476MOL0     H65650   8.869   6.123   7.693  0.3450  0.3801 -2.2782
  476MOL0     H65651   9.085   6.193   7.591 -1.6118 -2.8765  1.4155
  476MOL0     H65652   9.239   6.622   7.578  4.9656 -0.5910  0.0738
  476MOL0     H65653   9.243   6.486   7.685  1.0969 -2.7391  0.2304
  476MOL0     H65654   9.427   6.396   7.569 -2.0747 -2.4591 -0.4406
  476MOL0     H65655   9.362   6.421   7.406 -1.8013 -0.3351  0.8621
  476MOL0     H65656   9.498   6.636   7.574  0.2974  1.3291  0.1035
  476MOL0     H65657   9.415   6.669   7.429  2.3733  1.4985  0.4713
  476MOL0     H65658   9.573   6.553   7.290  1.3458  0.7586 -0.5615
  476MOL0     H65659   9.614   6.445   7.429 -0.2643  0.2302  0.1208
  476MOL0     H65660   9.798   6.594   7.354  1.2151  0.7474  1.0610
  476MOL0     H65661   9.699   6.733   7.393  1.3404 -0.2758  0.4004
  476MOL0     H65662   9.704   6.619   7.641 -2.4756 -2.5043 -1.9539
  476MOL0     H65663   9.853   6.695   7.591  1.4946 -0.9001 -2.0793
  476MOL0     H65664   9.847   6.405   7.525  4.1611  0.9258 -1.9813
  476MOL0     H65665   9.808   6.446   7.691  0.0681  0.5119 -0.2641
  476MOL0     H65666  10.047   6.568   7.554  0.4401  3.4129  1.4366
  476MOL0     H65667  10.061   6.405   7.636 -4.6236 -2.6842  0.8795
  476MOL0     H65668   8.947   6.605   7.628  1.8759 -1.5833 -2.1043
  476MOL0     H65669   8.738   6.530   7.700 -0.0508  0.8177 -0.6548
  476MOL0     H65670   8.310   6.411   7.835 -0.5482  2.4954  0.5239
  476MOL0     H65671   8.166   6.396   8.034  0.5314  0.9921  0.9542
  476MOL0     H65672   6.872   6.977   7.645  1.0020  1.1323  2.5238
  476MOL0     H65673   6.726   7.165   7.620  1.4036  0.0453  1.2137
  476MOL0     H65674   6.097   7.173   7.601  5.5708 -1.7963 -0.6482
  476MOL0     H65675   5.945   7.377   7.600 -1.9261  2.0679  2.9254
  476MOL0     H65676   5.891   7.758   7.777 -0.8351 -1.5995 -0.3312
  476MOL0     H65677   6.025   7.714   7.866 -1.8354  0.8632 -0.1817
  476MOL0     H65678   6.167   7.797   7.664 -0.7378 -2.3843 -0.8560
  476MOL0     H65679   6.070   7.921   7.740 -1.0877  0.3454 -0.6001
  476MOL0     H65680   5.944   7.750   7.502 -1.2066  0.9060 -2.0535
  476MOL0     H65681   5.899   7.908   7.568 -0.8064 -1.5421  0.6262
  476MOL0     H65682   6.167   7.869   7.435  0.1752 -0.0537  0.9064
  476MOL0     H65683   6.078   8.026   7.463  1.3343  0.5597 -0.6592
  476MOL0     H65684   5.902   7.921   7.100  1.6531 -0.0036 -1.1733
  476MOL0     H65685   6.216   7.623   7.804 -0.9749  0.3730  2.0655
  476MOL0     H65686   6.500   7.411   7.803  0.7362 -0.5313  1.3015
  476MOL0     H65687   6.414   7.536   7.897 -0.8785 -0.6892  1.5457
  476MOL0     H65688   6.426   7.369   7.949 -0.6528  2.0056  0.5558
  477MOL0     O65689  11.248   9.332   3.277  0.1168  0.7738  0.2059
  477MOL0     C65690  11.270   9.288   3.387  0.2341  0.1278 -0.5306
  477MOL0     O65691  11.395   9.279   3.451 -0.3104  0.9083 -0.1512
  477MOL0     C65692  11.510   9.315   3.379  0.6044  0.4036  0.4360
  477MOL0     C65693  11.625   9.245   3.408 -0.3280  0.0506 -0.4686
  477MOL0     C65694  11.746   9.268   3.345 -0.3158  0.5400  0.1933
  477MOL0     C65695  11.757   9.363   3.240  0.7543 -0.4767  0.2212
  477MOL0     O65696  11.877   9.396   3.182  0.5220 -1.2956 -0.1544
  477MOL0     C65697  11.923   9.279   3.104 -0.2955 -1.0382 -0.3565
  477MOL0     C65698  12.063   9.310   3.033 -0.5378  0.3719  0.0975
  477MOL0     C65699  12.063   9.361   2.884  0.7214 -0.3878  0.2256
  477MOL0     C65700  12.201   9.372   2.813 -0.5285 -0.0397 -0.4255
  477MOL0     C65701  12.185   9.402   2.671  0.1986  0.3732  0.1139
  477MOL0     C65702  12.322   9.405   2.600 -0.3981  0.3412  0.3812
  477MOL0     C65703  12.304   9.378   2.443  0.1987  0.0865  0.2437
  477MOL0     C65704  12.212   9.468   2.354 -0.4055 -0.8235  0.8819
  477MOL0     N65705  12.280   9.593   2.318  0.5666  0.3110 -0.0472
  477MOL0     C65706  12.324   9.633   2.193 -0.8785  0.1998 -0.3288
  477MOL0     C65707  12.384   9.754   2.211 -0.7008  0.0065 -0.3878
  477MOL0     C65708  12.449   9.848   2.112  0.5499 -0.1002 -0.3127
  477MOL0     C65709  12.518   9.769   1.997  1.0852  0.1120  0.1597
  477MOL0     C65710  12.595   9.879   1.916  0.4120 -0.3224 -0.7890
  477MOL0     C65711  12.504   9.964   1.826  0.5214  0.4315 -0.5791
  477MOL0     O65712  12.450   9.878   1.724  0.2380  0.4639 -0.6998
  477MOL0     C65713  12.415   9.938   1.606  0.2082  0.0833 -0.9571
  477MOL0     C65714  12.381   9.850   1.501  0.7018  0.2625 -0.1627
  477MOL0     C65715  12.321   9.889   1.377  0.7788 -0.5138  0.4344
  477MOL0     C65716  12.289   9.782   1.287 -0.1124 -0.8193  0.6092
  477MOL0     C65717  12.312  10.028   1.349  0.4146 -0.0222  0.0321
  477MOL0     C65718  12.241  10.078   1.224  0.4353 -1.0724  0.1653
  477MOL0     O65719  12.206  10.210   1.233  0.6210 -0.2891 -0.1790
  477MOL0     C65720  12.103  10.269   1.168  0.2368  0.4700 -1.0810
  477MOL0     C65721  12.104  10.409   1.169  0.4864 -0.1105  0.1092
  477MOL0     C65722  11.992  10.475   1.114  0.6770  0.5989  0.4464
  477MOL0     C65723  11.877  10.406   1.066 -0.4087 -0.2434 -0.2624
  477MOL0     O65724  11.778  10.493   1.021 -0.2677  0.1103  0.5610
  477MOL0     C65725  11.670  10.442   0.945  0.0695  0.1558  0.7653
  477MOL0     C65726  11.600  10.565   0.879 -0.6379  0.4377 -0.2360
  477MOL0     C65727  11.462  10.533   0.824  0.7904 -0.7657  0.3117
  477MOL0     C65728  11.369  10.656   0.830 -0.7020 -0.3370  1.3820
  477MOL0     C65729  11.246  10.652   0.730 -0.4765  0.4171 -0.2521
  477MOL0     C65730  11.147  10.541   0.772 -0.1676  0.1563  0.3080
  477MOL0     C65731  11.019  10.543   0.684 -0.6502  0.2655 -0.3911
  477MOL0     C65732  11.035  10.445   0.574  0.4582  0.7469 -0.1937
  477MOL0    Cl65733  10.881  10.407   0.499  0.2914  0.0101  0.0555
  477MOL0     C65734  11.880  10.266   1.070 -0.6182  0.1006  0.4957
  477MOL0     C65735  11.992  10.196   1.110 -0.7109 -0.3227  0.3069
  477MOL0     O65736  12.201  10.008   1.130  0.3053 -0.1499 -0.1571
  477MOL0     C65737  12.356  10.116   1.455  0.6979  0.3942  0.0477
  477MOL0     C65738  12.403  10.075   1.580  0.4099  0.5291  0.2118
  477MOL0     N65739  12.372   9.785   2.346  0.2583 -0.0773  0.8177
  477MOL0     N65740  12.313   9.689   2.407 -0.5107 -0.4210  0.8117
  477MOL0     C65741  11.645   9.446   3.219 -0.1825  0.7970  0.5621
  477MOL0     C65742  11.521   9.419   3.280  0.2672 -0.3335 -0.4661
  477MOL0     C65743  11.167   9.253   3.486 -0.0744 -1.1544 -0.8330
  477MOL0     C65744  11.192   9.252   3.625  0.1744  0.0258 -0.5427
  477MOL0     C65745  11.089   9.212   3.719  0.9264 -0.0879  0.0047
  477MOL0     C65746  10.955   9.181   3.684 -0.1673 -0.7800  0.2819
  477MOL0     O65747  10.873   9.154   3.787  0.3999 -0.3528  0.2858
  477MOL0     C65748  10.732   9.160   3.755 -0.0658 -0.0450  1.2704
  477MOL0     C65749  10.648   9.136   3.876 -0.4302 -0.0124 -0.0445
  477MOL0     C65750  10.509   9.184   3.868  0.0757 -0.0352 -0.6589
  477MOL0     C65751  10.429   9.140   3.990 -0.1121 -0.3346 -0.0778
  477MOL0     C65752  10.291   9.173   3.971 -0.1802  0.3417 -0.8481
  477MOL0     C65753  10.174   9.196   3.973 -0.0720  0.3426 -0.1954
  477MOL0     C65754  10.938   9.188   3.549 -0.0484  0.5591 -0.0409
  477MOL0     C65755  11.038   9.216   3.451  0.4453 -0.0420  0.5738
  477MOL0     C65756  10.975   9.222   3.317  0.2236 -0.3619  0.9731
  477MOL0     H65757  11.618   9.181   3.496 -0.5453  2.4703  1.3809
  477MOL0     H65758  11.824   9.198   3.371 -0.1423 -0.0212 -1.7270
  477MOL0     H65759  11.853   9.239   3.030 -0.7527  1.8684 -1.6479
  477MOL0     H65760  11.953   9.203   3.177  0.2205  0.8617  1.5249
  477MOL0     H65761  12.107   9.391   3.093 -0.6217  0.5004 -0.0121
  477MOL0     H65762  12.125   9.220   3.039 -0.3337  0.4914 -0.1945
  477MOL0     H65763  12.002   9.297   2.821  1.3958 -0.1361 -0.7047
  477MOL0     H65764  12.028   9.464   2.874 -3.4540 -1.6890 -0.2082
  477MOL0     H65765  12.270   9.443   2.860 -0.3748  0.8097 -1.8874
  477MOL0     H65766  12.243   9.271   2.827  1.6929  0.9079  0.2137
  477MOL0     H65767  12.137   9.499   2.655  1.3849  0.7251 -1.4977
  477MOL0     H65768  12.128   9.314   2.639  2.8943 -1.6515  0.5385
  477MOL0     H65769  12.371   9.501   2.619 -0.3807  0.8365 -1.9523
  477MOL0     H65770  12.383   9.329   2.649  0.0723  1.7832  2.1497
  477MOL0     H65771  12.258   9.280   2.427 -0.9424  0.8085 -1.1862
  477MOL0     H65772  12.401   9.378   2.393 -0.0565 -0.4447 -0.2698
  477MOL0     H65773  12.192   9.420   2.258  2.1314 -1.0168  0.3635
  477MOL0     H65774  12.122   9.503   2.405 -2.5040  2.8853 -4.4814
  477MOL0     H65775  12.319   9.586   2.096  2.4689  0.2953 -0.6543
  477MOL0     H65776  12.522   9.917   2.156  0.0633  1.3760 -1.6891
  477MOL0     H65777  12.370   9.911   2.069 -0.5670  1.7804  3.9993
  477MOL0     H65778  12.588   9.695   2.039 -0.7412 -2.8649 -1.6194
  477MOL0     H65779  12.452   9.712   1.931 -0.1630  1.9651 -0.2506
  477MOL0     H65780  12.636   9.950   1.989  1.8660 -0.9449 -0.9744
  477MOL0     H65781  12.683   9.848   1.858  1.2745  0.5459  0.0235
  477MOL0     H65782  12.417   9.995   1.884 -2.6298 -2.7767 -3.1188
  477MOL0     H65783  12.562  10.050   1.792  1.1542 -0.4693 -1.8451
  477MOL0     H65784  12.396   9.745   1.527 -2.7882 -0.8988 -2.1850
  477MOL0     H65785  12.268   9.697   1.353 -2.2134  0.1541  1.2805
  477MOL0     H65786  12.375   9.755   1.225 -0.9215  0.8070 -1.3309
  477MOL0     H65787  12.198   9.800   1.229  0.6641  0.8880 -0.1238
  477MOL0     H65788  12.186  10.463   1.217  2.5565 -2.7752 -0.1282
  477MOL0     H65789  11.998  10.583   1.106  0.0277  0.6627  0.8063
  477MOL0     H65790  11.692  10.363   0.872  1.6162  0.5779  0.7449
  477MOL0     H65791  11.587  10.403   1.004  1.6397 -0.9632  2.3395
  477MOL0     H65792  11.572  10.646   0.948 -0.0468  0.2413  0.2453
  477MOL0     H65793  11.668  10.604   0.804  1.4400  1.6356  2.1085
  477MOL0     H65794  11.413  10.463   0.892  1.1865  0.3853  1.8379
  477MOL0     H65795  11.457  10.493   0.723  0.2338 -2.0361  0.8227
  477MOL0     H65796  11.429  10.746   0.814  1.4306 -2.0176 -0.6053
  477MOL0     H65797  11.319  10.666   0.928 -2.7593  0.5226  0.3143
  477MOL0     H65798  11.200  10.750   0.741  1.2763  1.4441 -1.6077
  477MOL0     H65799  11.272  10.645   0.623 -1.2736 -1.4809 -0.3753
  477MOL0     H65800  11.121  10.557   0.877 -0.2126 -0.5022  0.4013
  477MOL0     H65801  11.197  10.444   0.774 -0.4126  0.0031  2.7715
  477MOL0     H65802  10.996  10.643   0.647  0.5843  1.2850  1.4827
  477MOL0     H65803  10.947  10.513   0.760 -0.1573  0.5587  0.1930
  477MOL0     H65804  11.067  10.351   0.619  0.0858  0.3866 -0.6627
  477MOL0     H65805  11.104  10.483   0.498 -0.3324  1.3426 -0.6326
  477MOL0     H65806  11.799  10.199   1.041  0.1122 -0.9062  0.7564
  477MOL0     H65807  11.985  10.088   1.121  0.7699 -1.0316 -3.7620
  477MOL0     H65808  12.326  10.219   1.441  3.3616  0.9212 -2.8894
  477MOL0     H65809  12.406  10.146   1.662 -1.2269 -0.8134  1.5143
  477MOL0     H65810  11.660   9.540   3.166 -1.0626  2.6205  3.3024
  477MOL0     H65811  11.440   9.488   3.262 -0.9038 -0.9747  1.9517
  477MOL0     H65812  11.291   9.278   3.662 -0.2495 -0.2284  0.8464
  477MOL0     H65813  11.111   9.202   3.825  1.3374  1.4685  0.0909
  477MOL0     H65814  10.711   9.252   3.700 -0.3691 -2.1648 -2.4864
  477MOL0     H65815  10.704   9.078   3.689  1.0656 -1.4251  2.4238
  477MOL0     H65816  10.694   9.177   3.966  2.2464 -1.9170 -0.4270
  477MOL0     H65817  10.662   9.029   3.893  0.2790  0.2298  0.9809
  477MOL0     H65818  10.495   9.292   3.857 -1.0231 -0.3403 -2.7128
  477MOL0     H65819  10.485   9.138   3.772  1.8070 -0.8383 -0.7490
  477MOL0     H65820  10.466   9.201   4.073  0.3626 -0.3156 -0.2985
  477MOL0     H65821  10.445   9.036   4.022 -0.3559 -0.0632  0.9727
  477MOL0     H65822  10.067   9.207   3.973  0.0005  1.2142 -1.2289
  477MOL0     H65823  10.833   9.173   3.525  0.1803 -1.4635  0.0793
  477MOL0     H65824  10.912   9.134   3.303  0.2328 -0.2773  0.3820
  477MOL0     H65825  10.919   9.316   3.322 -0.7211 -0.9443  1.5422
  477MOL0     H65826  11.051   9.216   3.238  1.0117 -0.0109  1.6791
  478MOL0     O65827   9.733   6.567   5.127 -0.2247  0.1505 -0.4643
  478MOL0     C65828   9.734   6.485   5.038  0.2682 -0.0686  0.3927
  478MOL0     O65829   9.650   6.376   5.018  0.0073  0.3990 -0.0556
  478MOL0     C65830   9.535   6.380   5.104  0.1283  1.3689 -0.3418
  478MOL0     C65831   9.509   6.279   5.194 -0.0849  0.2475 -0.4015
  478MOL0     C65832   9.393   6.261   5.260 -0.2958 -0.2776 -0.4247
  478MOL0     C65833   9.281   6.343   5.239 -1.0427 -0.1656 -0.6707
  478MOL0     O65834   9.166   6.323   5.309 -0.1191  0.3255  0.6548
  478MOL0     C65835   9.054   6.417   5.297 -0.5007 -0.0966 -0.3097
  478MOL0     C65836   8.936   6.369   5.386 -0.2790 -0.4332 -0.4824
  478MOL0     C65837   8.874   6.234   5.332  0.5197  0.1373  1.3721
  478MOL0     C65838   8.809   6.155   5.441  0.9494  0.6802 -0.2914
  478MOL0     C65839   8.906   6.080   5.525 -0.8056  0.0946 -0.6630
  478MOL0     C65840   8.932   5.936   5.480  0.1933  0.2612  0.2368
  478MOL0     C65841   9.069   5.878   5.491 -0.1354 -0.0558 -0.4892
  478MOL0     C65842   9.177   5.949   5.409 -0.3911 -0.4082  0.1577
  478MOL0     N65843   9.308   5.885   5.429 -0.2284  0.3088  0.7416
  478MOL0     C65844   9.400   5.871   5.330  0.1522  0.3254 -0.3192
  478MOL0     C65845   9.494   5.794   5.382  0.8215 -0.4912 -0.2578
  478MOL0     C65846   9.588   5.718   5.286 -0.1658  0.1269 -0.7482
  478MOL0     C65847   9.719   5.689   5.358 -0.3346 -0.2086  0.6457
  478MOL0     C65848   9.822   5.605   5.285 -0.2817 -0.0414  0.1804
  478MOL0     C65849   9.960   5.591   5.357 -0.0180  0.0775 -0.1608
  478MOL0     O65850  10.040   5.687   5.294  0.3549 -0.6753 -0.1942
  478MOL0     C65851  10.167   5.716   5.360 -0.2013  0.0823  0.4503
  478MOL0     C65852  10.231   5.821   5.300  0.3375  0.0958 -0.3431
  478MOL0     C65853  10.356   5.850   5.341  0.1347 -0.8447 -1.1188
  478MOL0     C65854  10.400   5.991   5.304  0.0541 -0.1201  0.8598
  478MOL0     C65855  10.428   5.781   5.446  0.2013 -0.9499  0.3254
  478MOL0     C65856  10.559   5.821   5.507 -0.2303 -0.1052 -0.5199
  478MOL0     O65857  10.654   5.864   5.419  0.0917 -0.2121  0.6562
  478MOL0     C65858  10.787   5.842   5.458  0.1254 -0.8826  0.4400
  478MOL0     C65859  10.878   5.949   5.437  0.7499 -0.9512  0.0090
  478MOL0     C65860  11.005   5.949   5.496 -0.2973  0.7533  0.5884
  478MOL0     C65861  11.052   5.832   5.559  0.2059  0.5464 -0.2754
  478MOL0     O65862  11.178   5.838   5.593  0.1634  0.5154  0.7096
  478MOL0     C65863  11.198   5.908   5.717  0.9626  0.0069 -0.5315
  478MOL0     C65864  11.340   5.915   5.765 -0.0585  0.2202 -0.0702
  478MOL0     C65865  11.449   5.948   5.658 -0.3218 -0.0161  0.4116
  478MOL0     C65866  11.590   5.918   5.724 -0.3334  0.0074 -0.4719
  478MOL0     C65867  11.691   5.918   5.616 -0.2115  0.2847  0.1582
  478MOL0     C65868  11.834   5.893   5.676 -0.5912  1.0491  0.0319
  478MOL0     C65869  11.938   5.998   5.626 -1.1032  0.4714 -0.2951
  478MOL0     C65870  12.068   5.971   5.706 -0.2248 -0.3283 -0.7603
  478MOL0    Cl65871  12.206   6.087   5.660  0.1493  0.1158 -0.1893
  478MOL0     C65872  10.979   5.715   5.555  0.6871  0.5614  0.5901
  478MOL0     C65873  10.845   5.722   5.497 -0.1097  0.3143  0.0273
  478MOL0     O65874  10.580   5.797   5.625  0.7560  0.0732 -0.2200
  478MOL0     C65875  10.349   5.684   5.505 -1.3276 -0.4613 -0.3903
  478MOL0     C65876  10.229   5.647   5.467  0.6482 -0.9653  0.2291
  478MOL0     N65877   9.450   5.768   5.518 -0.1375 -0.0183  0.1198
  478MOL0     N65878   9.341   5.831   5.544  0.1852  0.1535  0.5235
  478MOL0     C65879   9.303   6.456   5.158 -0.0739 -0.2315  1.0221
  478MOL0     C65880   9.428   6.468   5.084  0.1446  0.7327 -0.3093
  478MOL0     C65881   9.836   6.509   4.934  0.4517  0.7345 -0.0161
  478MOL0     C65882   9.791   6.481   4.801 -1.3068  0.9082 -0.3697
  478MOL0     C65883   9.878   6.494   4.698  0.4033 -0.1141  0.6590
  478MOL0     C65884  10.013   6.530   4.717  0.2737 -0.0462 -1.4222
  478MOL0     O65885  10.108   6.560   4.619  0.0852  0.0198  0.0914
  478MOL0     C65886  10.055   6.612   4.496  0.4231  0.1257 -0.3505
  478MOL0     C65887  10.154   6.704   4.427 -0.3703  0.2924 -0.4885
  478MOL0     C65888  10.097   6.754   4.302 -0.6394  0.2746  0.2215
  478MOL0     C65889  10.191   6.845   4.226 -0.9213 -0.9353 -0.2993
  478MOL0     C65890  10.117   6.911   4.114  0.5081  0.0970  0.0842
  478MOL0     C65891  10.071   6.941   4.011  0.6176  0.1227 -0.1160
  478MOL0     C65892  10.054   6.567   4.847 -0.5519 -0.7061  0.1989
  478MOL0     C65893   9.968   6.561   4.958 -0.0070  0.3532  0.7723
  478MOL0     C65894  10.018   6.606   5.093  1.3813 -0.0448 -1.0384
  478MOL0     H65895   9.590   6.208   5.207 -0.3037  0.3571  1.9793
  478MOL0     H65896   9.392   6.183   5.336 -0.5373  1.6645  1.6803
  478MOL0     H65897   9.015   6.408   5.195 -0.2894 -0.7285 -0.3395
  478MOL0     H65898   9.092   6.514   5.328 -1.6929  0.4143 -0.3919
  478MOL0     H65899   8.965   6.365   5.492  1.0543  2.2636 -0.6551
  478MOL0     H65900   8.856   6.441   5.369  0.9542  0.6152 -2.0769
  478MOL0     H65901   8.800   6.268   5.258  1.9822  2.7073  0.9767
  478MOL0     H65902   8.950   6.177   5.278  0.0415  1.2363 -0.5891
  478MOL0     H65903   8.742   6.226   5.491 -1.8062 -0.7115 -1.7762
  478MOL0     H65904   8.744   6.086   5.388 -1.6145  2.6541  0.0628
  478MOL0     H65905   8.862   6.082   5.625  1.4934 -0.4946  0.4352
  478MOL0     H65906   9.001   6.131   5.543 -0.9447  1.4379 -3.2877
  478MOL0     H65907   8.872   5.862   5.535  1.4336 -1.2998 -0.4240
  478MOL0     H65908   8.913   5.919   5.374  2.4946  0.5395 -0.2825
  478MOL0     H65909   9.061   5.777   5.451 -0.4623  0.0303 -0.6421
  478MOL0     H65910   9.093   5.871   5.598  2.0542  0.2390 -0.9196
  478MOL0     H65911   9.155   5.955   5.302 -0.8976  1.0668  0.3190
  478MOL0     H65912   9.181   6.048   5.456 -0.8947 -1.4112  2.4616
  478MOL0     H65913   9.394   5.915   5.231  1.8182 -1.3304 -1.2169
  478MOL0     H65914   9.585   5.766   5.188 -2.6723 -3.0500 -2.4340
  478MOL0     H65915   9.540   5.621   5.269  0.1327 -0.1325 -0.1494
  478MOL0     H65916   9.760   5.786   5.386 -2.8826  0.8657  0.9812
  478MOL0     H65917   9.700   5.629   5.448 -4.9281 -3.6880 -2.2123
  478MOL0     H65918   9.785   5.502   5.286  1.0771 -0.5554  1.0584
  478MOL0     H65919   9.833   5.636   5.181  0.9304 -3.0257 -0.6867
  478MOL0     H65920   9.938   5.609   5.463  0.8034 -0.9245  0.2012
  478MOL0     H65921   9.995   5.489   5.340 -0.6830 -0.0382 -0.8334
  478MOL0     H65922  10.176   5.866   5.217 -3.3964 -4.1978 -0.6388
  478MOL0     H65923  10.430   6.003   5.199  1.5447  0.3074  1.3097
  478MOL0     H65924  10.482   6.019   5.372 -0.7544 -0.4237  1.9877
  478MOL0     H65925  10.326   6.071   5.317  3.7666  4.2744 -1.9672
  478MOL0     H65926  10.849   6.041   5.388 -2.3292 -1.3178  0.9202
  478MOL0     H65927  11.060   6.041   5.487 -2.4164  2.1183  0.8283
  478MOL0     H65928  11.169   6.014   5.705 -2.1266 -0.7258 -0.5447
  478MOL0     H65929  11.140   5.863   5.798  0.6534  0.7757 -0.3155
  478MOL0     H65930  11.343   5.998   5.837  1.0796  1.7033 -1.7284
  478MOL0     H65931  11.348   5.822   5.823 -1.1816  1.4269  2.1719
  478MOL0     H65932  11.449   6.052   5.625  1.2490  0.0859  0.6660
  478MOL0     H65933  11.422   5.877   5.579 -0.7102 -0.5395  1.0024
  478MOL0     H65934  11.581   5.826   5.782 -0.8121 -1.1249 -2.2397
  478MOL0     H65935  11.613   6.001   5.791 -0.4421 -2.1500  2.4652
  478MOL0     H65936  11.665   5.837   5.548  2.0177  1.7779 -2.6813
  478MOL0     H65937  11.684   6.010   5.558  0.1376  0.7880  0.8923
  478MOL0     H65938  11.858   5.789   5.649 -0.4311  1.5346 -1.8485
  478MOL0     H65939  11.822   5.892   5.785 -0.2775 -0.2144  0.0706
  478MOL0     H65940  11.903   6.101   5.637  1.7655  1.3500  1.9488
  478MOL0     H65941  11.958   5.977   5.520 -0.0449 -0.5013  0.0736
  478MOL0     H65942  12.106   5.870   5.690  4.6206  1.0046  0.6185
  478MOL0     H65943  12.042   5.989   5.811 -3.3952  1.8000 -1.7339
  478MOL0     H65944  11.012   5.624   5.604 -0.5418 -0.7238 -0.8484
  478MOL0     H65945  10.782   5.634   5.509 -1.7371  1.5772  1.3545
  478MOL0     H65946  10.397   5.622   5.581  0.1008 -0.0829 -0.9391
  478MOL0     H65947  10.185   5.562   5.517 -0.8287  0.4204  1.3761
  478MOL0     H65948   9.238   6.540   5.138  2.6514  1.7329 -0.1848
  478MOL0     H65949   9.437   6.559   5.024  1.4865  0.7765 -0.0658
  478MOL0     H65950   9.692   6.440   4.783 -0.5234 -0.6985 -1.2726
  478MOL0     H65951   9.856   6.465   4.595  1.4735  2.1115 -0.2703
  478MOL0     H65952  10.038   6.525   4.432  0.0284  1.0077 -1.4659
  478MOL0     H65953   9.961   6.664   4.517 -0.4056 -1.1156 -0.8903
  478MOL0     H65954  10.251   6.653   4.417 -0.2391  0.7540 -1.7073
  478MOL0     H65955  10.180   6.782   4.499 -0.3172  0.8291 -1.0834
  478MOL0     H65956  10.056   6.676   4.236 -0.4636  1.8207 -1.8110
  478MOL0     H65957  10.008   6.809   4.335 -0.4037  1.3183 -0.8132
  478MOL0     H65958  10.278   6.794   4.184 -0.2419  0.1327 -0.2145
  478MOL0     H65959  10.239   6.917   4.292  1.0181 -3.1953  0.8989
  478MOL0     H65960  10.033   6.958   3.913  4.0309  4.3794 -1.0040
  478MOL0     H65961  10.156   6.603   4.854 -1.3470  3.0891 -3.4467
  478MOL0     H65962   9.966   6.694   5.132  2.4681 -0.6246  2.0626
  478MOL0     H65963   9.999   6.524   5.163  3.4678 -0.0922 -0.4480
  478MOL0     H65964  10.126   6.623   5.083  1.5700 -1.7541 -2.2658
  479MOL0     O65965  10.002   5.280   4.668 -0.3790 -0.4274  0.3100
  479MOL0     C65966  10.056   5.200   4.745  1.3030 -0.0156 -0.9857
  479MOL0     O65967   9.979   5.107   4.815 -0.1581  0.2229  0.3124
  479MOL0     C65968   9.859   5.083   4.747 -0.1548 -0.3458 -0.2054
  479MOL0     C65969   9.860   5.027   4.620  0.4866  0.4838  0.7406
  479MOL0     C65970   9.732   5.006   4.560  0.4586 -0.9096 -0.3498
  479MOL0     C65971   9.610   5.044   4.619  0.1052 -0.2335 -0.0952
  479MOL0     O65972   9.494   5.019   4.552 -0.2332  0.0067  0.3580
  479MOL0     C65973   9.453   4.883   4.552  0.0213  0.1203  0.2827
  479MOL0     C65974   9.326   4.862   4.462 -0.0428 -0.2311  0.1650
  479MOL0     C65975   9.198   4.934   4.504  0.4959  0.1810  0.0235
  479MOL0     C65976   9.104   4.962   4.385 -0.1686 -0.6168 -0.2597
  479MOL0     C65977   8.975   5.034   4.425  0.1916  0.0954 -0.5197
  479MOL0     C65978   8.903   5.072   4.295  0.4781  0.5613  0.1284
  479MOL0     C65979   8.758   5.139   4.320  0.0683 -0.0553 -0.0795
  479MOL0     C65980   8.687   5.206   4.198  0.4722 -0.2588 -0.0872
  479MOL0     N65981   8.780   5.277   4.114  0.3697  0.0517 -0.1074
  479MOL0     C65982   8.855   5.225   4.009 -0.6522  0.5023  0.1026
  479MOL0     C65983   8.955   5.316   3.983 -0.0453 -0.4381  0.2280
  479MOL0     C65984   9.070   5.309   3.880 -0.4036  0.3009 -0.3207
  479MOL0     C65985   9.202   5.311   3.955 -0.6651  0.1235 -0.5722
  479MOL0     C65986   9.238   5.173   3.996 -0.3988  0.4768  0.0235
  479MOL0     C65987   9.369   5.163   4.074  0.2714 -0.6187 -0.5539
  479MOL0     O65988   9.480   5.184   3.981 -0.1721  0.5139  0.1643
  479MOL0     C65989   9.605   5.151   4.038  0.6500  0.7779  0.6052
  479MOL0     C65990   9.705   5.124   3.938 -0.2028  0.4622  0.7433
  479MOL0     C65991   9.835   5.096   3.967  1.1288  0.1795 -1.0237
  479MOL0     C65992   9.924   5.055   3.855  0.0760 -0.6879  0.1510
  479MOL0     C65993   9.872   5.103   4.106  0.3823 -0.1858 -0.6401
  479MOL0     C65994  10.012   5.066   4.159  0.2319  0.2793 -0.4584
  479MOL0     O65995  10.030   5.096   4.290  0.0717 -0.2220  0.3736
  479MOL0     C65996  10.127   5.034   4.361 -0.0206 -0.6111 -0.3915
  479MOL0     C65997  10.132   4.894   4.362  0.4688  0.6448 -1.0744
  479MOL0     C65998  10.230   4.818   4.420 -0.8594 -0.4848  0.7693
  479MOL0     C65999  10.342   4.885   4.481  0.0485  0.4870 -0.8315
  479MOL0     O66000  10.444   4.820   4.545  0.3914  0.3913  0.4473
  479MOL0     C66001  10.561   4.884   4.590 -0.5932  0.6139  0.0407
  479MOL0     C66002  10.678   4.782   4.602  0.4929  0.3755  0.6254
  479MOL0     C66003  10.805   4.864   4.635 -1.1138 -0.0258 -0.2028
  479MOL0     C66004  10.922   4.765   4.645  0.5484  0.1410  0.3564
  479MOL0     C66005  11.056   4.822   4.591  0.4284  0.4393 -0.0987
  479MOL0     C66006  11.060   4.855   4.449  0.3260  0.8635  0.7647
  479MOL0     C66007  11.200   4.922   4.428  0.0278 -0.2731  0.6004
  479MOL0     C66008  11.240   4.900   4.285 -0.2408 -0.9146 -0.9648
  479MOL0    Cl66009  11.356   5.023   4.230 -0.0103 -0.0754 -0.4827
  479MOL0     C66010  10.333   5.024   4.492 -1.4213  0.3558  0.3858
  479MOL0     C66011  10.237   5.101   4.426  0.5343  0.3262  0.5634
  479MOL0     O66012  10.093   5.008   4.084  0.3830 -0.0264  0.1760
  479MOL0     C66013   9.771   5.141   4.205  0.5402  0.0483 -0.8045
  479MOL0     C66014   9.634   5.162   4.173  0.1171 -0.3691  1.0543
  479MOL0     N66015   8.943   5.412   4.083  0.7777  0.3501 -0.3771
  479MOL0     N66016   8.834   5.399   4.148 -0.2041  0.1790  0.0227
  479MOL0     C66017   9.619   5.103   4.749  0.6154 -0.4397  0.0849
  479MOL0     C66018   9.743   5.118   4.812  0.1554  0.2935 -0.9841
  479MOL0     C66019  10.193   5.221   4.767 -0.3654 -0.0247  0.3450
  479MOL0     C66020  10.243   5.345   4.733 -0.7279 -0.3769  0.3094
  479MOL0     C66021  10.382   5.364   4.742  0.5983 -0.5101  0.3233
  479MOL0     C66022  10.477   5.268   4.777 -0.0131 -1.1312  0.7868
  479MOL0     O66023  10.610   5.297   4.782  0.4028  0.2158 -0.1635
  479MOL0     C66024  10.697   5.193   4.822  0.2440 -0.2361 -0.2583
  479MOL0     C66025  10.843   5.239   4.781  0.0215  0.1873  0.2635
  479MOL0     C66026  10.866   5.384   4.825 -0.6550  0.3392  0.2882
  479MOL0     C66027  11.014   5.406   4.792 -0.3133 -0.8263  0.2913
  479MOL0     C66028  11.049   5.547   4.773  0.0683 -0.5397 -0.1538
  479MOL0     C66029  11.082   5.666   4.773  0.4090  0.0468  0.6511
  479MOL0     C66030  10.419   5.148   4.824  0.2698  0.0664  0.0643
  479MOL0     C66031  10.283   5.120   4.813  0.7717 -0.3253 -0.1816
  479MOL0     C66032  10.247   4.981   4.857 -0.3006  0.2002  0.1654
  479MOL0     H66033   9.954   5.006   4.570  1.9328  3.3586  2.0113
  479MOL0     H66034   9.739   4.952   4.467 -0.0864 -2.0164  0.2281
  479MOL0     H66035   9.434   4.840   4.651  1.4366 -1.0251  0.0862
  479MOL0     H66036   9.534   4.819   4.517 -1.0669 -1.5370  0.6141
  479MOL0     H66037   9.356   4.902   4.364 -1.1184  3.3513  1.1465
  479MOL0     H66038   9.315   4.754   4.453  0.7953 -0.2464 -0.9528
  479MOL0     H66039   9.149   4.877   4.584 -0.8606 -1.0875 -1.6268
  479MOL0     H66040   9.223   5.026   4.558  1.0420 -0.3578  0.7105
  479MOL0     H66041   9.163   5.023   4.315 -0.3039 -0.5995 -0.3599
  479MOL0     H66042   9.072   4.873   4.331  0.7985  0.2711 -2.3990
  479MOL0     H66043   8.999   5.118   4.491  1.2897  0.0703 -0.8565
  479MOL0     H66044   8.918   4.961   4.483  0.8470  0.5892  0.7816
  479MOL0     H66045   8.962   5.141   4.234  0.4067  0.2013 -0.3533
  479MOL0     H66046   8.886   4.973   4.253 -0.2305 -0.1638  1.9999
  479MOL0     H66047   8.775   5.212   4.399  0.2212 -2.0691  1.8257
  479MOL0     H66048   8.695   5.059   4.360  0.5086  0.4257  1.6678
  479MOL0     H66049   8.638   5.135   4.132 -1.0061 -0.0605  0.7384
  479MOL0     H66050   8.622   5.287   4.232  0.9704  0.8470 -1.6535
  479MOL0     H66051   8.837   5.129   3.961  2.9058  0.0509 -0.6398
  479MOL0     H66052   9.068   5.404   3.826  1.5719 -0.2489 -1.4839
  479MOL0     H66053   9.064   5.222   3.815 -1.6748  0.0874  0.0638
  479MOL0     H66054   9.282   5.353   3.893 -0.1906 -0.5470 -0.4355
  479MOL0     H66055   9.182   5.372   4.044 -2.1385  0.8813 -1.3978
  479MOL0     H66056   9.162   5.130   4.062  2.1296 -1.8716  1.6468
  479MOL0     H66057   9.244   5.098   3.917 -1.3898 -0.9309  1.2247
  479MOL0     H66058   9.366   5.246   4.145  0.1068  1.3055 -2.6822
  479MOL0     H66059   9.367   5.071   4.134 -2.4556 -0.1357  0.2144
  479MOL0     H66060   9.669   5.132   3.836 -1.8472  2.9459  1.4458
  479MOL0     H66061   9.988   5.142   3.834 -1.6248  0.6196  0.1773
  479MOL0     H66062   9.876   5.033   3.759  0.3606 -0.8539  0.0460
  479MOL0     H66063   9.995   4.973   3.873 -0.2954 -1.3043 -1.1179
  479MOL0     H66064  10.045   4.847   4.318 -0.2815  2.8730 -2.1259
  479MOL0     H66065  10.222   4.710   4.423 -2.4135 -0.3945  3.8564
  479MOL0     H66066  10.583   4.974   4.532  1.2064  2.1363  2.8447
  479MOL0     H66067  10.559   4.923   4.693  1.2020  0.0841  0.3079
  479MOL0     H66068  10.658   4.704   4.676  0.5085 -0.5207 -0.2908
  479MOL0     H66069  10.690   4.741   4.502  1.7446  0.3939  0.7503
  479MOL0     H66070  10.801   4.917   4.730  0.8246  0.0480 -0.1193
  479MOL0     H66071  10.817   4.941   4.559 -1.6625 -1.0591 -1.3802
  479MOL0     H66072  10.899   4.674   4.588  0.7665  2.2470 -3.3999
  479MOL0     H66073  10.930   4.737   4.750 -1.4912  1.9671  1.0574
  479MOL0     H66074  11.084   4.912   4.647  2.8628  0.1412 -0.7078
  479MOL0     H66075  11.135   4.749   4.613 -1.5316 -2.2646 -1.4955
  479MOL0     H66076  10.976   4.920   4.422 -0.5419 -0.9675 -1.2412
  479MOL0     H66077  11.054   4.762   4.394 -1.4729 -0.2213  2.6551
  479MOL0     H66078  11.278   4.869   4.485  1.0073 -1.0006 -1.3319
  479MOL0     H66079  11.199   5.028   4.455 -1.9292 -0.3488  0.9377
  479MOL0     H66080  11.156   4.919   4.219 -0.5826  0.8728 -0.0794
  479MOL0     H66081  11.294   4.806   4.266  1.3997  0.0433 -1.2549
  479MOL0     H66082  10.393   5.094   4.549 -3.0137  2.4514 -0.3592
  479MOL0     H66083  10.245   5.209   4.432 -1.1384  0.6075 -1.2119
  479MOL0     H66084   9.790   5.144   4.312  0.4807  2.2786 -0.8056
  479MOL0     H66085   9.556   5.197   4.240  0.6820  3.2423  0.0471
  479MOL0     H66086   9.526   5.121   4.802  1.2916  2.3761  0.5061
  479MOL0     H66087   9.749   5.168   4.908  1.5979  2.0554 -1.9149
  479MOL0     H66088  10.171   5.423   4.711  1.0504  1.6572  1.3392
  479MOL0     H66089  10.418   5.462   4.709 -0.3768 -0.3986 -0.4675
  479MOL0     H66090  10.682   5.176   4.929  0.9101  3.5346  0.5884
  479MOL0     H66091  10.685   5.094   4.778 -0.2758 -0.5864  0.6575
  479MOL0     H66092  10.863   5.228   4.674  3.2364  1.9793  0.5612
  479MOL0     H66093  10.915   5.173   4.829 -1.0234 -1.6300 -0.5459
  479MOL0     H66094  10.804   5.453   4.767  1.3232  0.3245 -1.9609
  479MOL0     H66095  10.844   5.394   4.932 -2.0909  3.2219 -0.1783
  479MOL0     H66096  11.042   5.355   4.699 -0.8264 -0.5115 -0.0429
  479MOL0     H66097  11.066   5.351   4.871 -1.2762 -1.3198  0.6103
  479MOL0     H66098  11.123   5.763   4.753 -2.7378  1.2367 -0.5128
  479MOL0     H66099  10.478   5.064   4.860 -1.6862 -0.8121  1.3617
  479MOL0     H66100  10.215   4.987   4.961  1.4318 -1.6795  0.8695
  479MOL0     H66101  10.166   4.937   4.798  0.5771  3.0411 -3.5519
  479MOL0     H66102  10.335   4.917   4.858  0.8230  1.6760  2.1039
  480MOL0     O66103   1.270   4.459   1.166  0.3913 -0.1277 -0.2315
  480MOL0     C66104   1.172   4.425   1.228  0.5385 -0.1865 -0.1397
  480MOL0     O66105   1.056   4.495   1.239  0.6374  0.2391  0.0734
  480MOL0     C66106   1.057   4.620   1.193  0.2641  0.3821 -0.5210
  480MOL0     C66107   1.037   4.638   1.060  0.1405 -0.1714  0.5384
  480MOL0     C66108   1.047   4.760   1.007 -0.1488 -0.3359 -0.8493
  480MOL0     C66109   1.084   4.872   1.079 -0.4625 -0.6745 -0.5144
  480MOL0     O66110   1.087   4.995   1.018 -0.4755  0.0818  0.4963
  480MOL0     C66111   1.134   5.113   1.078  0.3320  0.4940 -0.7992
  480MOL0     C66112   1.273   5.107   1.133 -0.0068 -0.5473  0.3835
  480MOL0     C66113   1.323   5.248   1.173 -0.0171  0.5767 -0.3689
  480MOL0     C66114   1.478   5.239   1.142  0.4782 -0.2797 -1.2354
  480MOL0     C66115   1.558   5.357   1.187 -0.9276  0.5344 -0.0796
  480MOL0     C66116   1.524   5.486   1.125  0.2924 -0.3659 -0.4533
  480MOL0     C66117   1.577   5.516   0.992  0.4343 -0.2304 -0.0261
  480MOL0     C66118   1.525   5.646   0.930 -0.6401 -0.0645 -0.3980
  480MOL0     N66119   1.588   5.769   0.987 -0.4495 -0.2827 -0.1442
  480MOL0     C66120   1.663   5.861   0.912 -1.2568  0.3229 -0.0804
  480MOL0     C66121   1.701   5.961   1.005 -1.1732  0.6783  0.2694
  480MOL0     C66122   1.794   6.076   0.982  0.4798 -0.6878 -0.1141
  480MOL0     C66123   1.834   6.146   1.107 -0.8669 -0.5490 -0.3434
  480MOL0     C66124   1.872   6.288   1.083 -0.0070  0.2610 -0.0939
  480MOL0     C66125   1.900   6.368   1.207 -0.1837 -0.7394  0.3475
  480MOL0     O66126   2.014   6.327   1.291  0.1350 -0.3174 -0.1471
  480MOL0     C66127   2.135   6.384   1.260  0.3563 -0.2917  1.1256
  480MOL0     C66128   2.211   6.324   1.166  0.1464  0.8449  0.4369
  480MOL0     C66129   2.341   6.381   1.133  0.1996 -0.2242  0.1319
  480MOL0     C66130   2.432   6.329   1.025  0.6093 -0.2765  0.3500
  480MOL0     C66131   2.385   6.501   1.199  0.1582  0.2101 -1.4337
  480MOL0     C66132   2.515   6.568   1.168  0.1386  0.5129  0.5442
  480MOL0     O66133   2.576   6.624   1.273 -0.5122  0.0027  0.3463
  480MOL0     C66134   2.699   6.680   1.263  0.7537 -0.4790 -0.3337
  480MOL0     C66135   2.712   6.808   1.317 -0.2071  0.2244  0.1246
  480MOL0     C66136   2.832   6.887   1.309 -0.7331  0.9628  0.2007
  480MOL0     C66137   2.948   6.823   1.259  0.8802 -0.7591 -0.4242
  480MOL0     O66138   3.067   6.897   1.253 -0.0816 -0.0712 -0.6343
  480MOL0     C66139   3.159   6.870   1.143  0.3360  0.8650 -0.8579
  480MOL0     C66140   3.301   6.890   1.209  0.1658  0.1263  0.4469
  480MOL0     C66141   3.336   6.755   1.283  0.3795 -0.1722  0.4815
  480MOL0     C66142   3.491   6.731   1.289  0.4149  0.6289  0.4070
  480MOL0     C66143   3.511   6.622   1.399  0.4125  0.7965  0.3601
  480MOL0     C66144   3.656   6.627   1.441 -0.7119 -0.0259  0.5910
  480MOL0     C66145   3.699   6.529   1.555 -0.0666 -0.7510 -0.3523
  480MOL0     C66146   3.757   6.599   1.678  0.6525  0.0771 -0.3602
  480MOL0    Cl66147   3.876   6.715   1.615 -0.6517 -0.5102 -0.1589
  480MOL0     C66148   2.933   6.694   1.209  0.5769 -0.4834  0.9482
  480MOL0     C66149   2.815   6.625   1.206  0.6750  0.1556 -0.5118
  480MOL0     O66150   2.556   6.582   1.050 -0.4454  0.4246  0.2973
  480MOL0     C66151   2.296   6.556   1.297  0.8074 -0.1291  0.3132
  480MOL0     C66152   2.176   6.500   1.330 -1.0600 -0.0611 -0.2072
  480MOL0     N66153   1.640   5.928   1.122 -0.6309  0.6371 -0.0537
  480MOL0     N66154   1.572   5.813   1.109  0.4219 -0.4259 -0.4272
  480MOL0     C66155   1.096   4.854   1.220 -0.2971  0.4330  0.3431
  480MOL0     C66156   1.079   4.728   1.273  0.4543  0.7223  0.0156
  480MOL0     C66157   1.182   4.302   1.315 -0.0048 -0.1775 -0.5516
  480MOL0     C66158   1.266   4.202   1.276 -0.9312  0.9222  0.0082
  480MOL0     C66159   1.279   4.085   1.349 -0.5383 -0.7336  0.1671
  480MOL0     C66160   1.203   4.059   1.456  0.0502 -0.7814  0.1125
  480MOL0     O66161   1.209   3.942   1.524  0.2529  0.7774  0.6556
  480MOL0     C66162   1.107   3.885   1.615 -0.0256 -0.7783  0.0354
  480MOL0     C66163   1.125   3.728   1.620  0.3873 -0.2029  0.2220
  480MOL0     C66164   1.034   3.660   1.725  0.3706 -0.5731 -0.8673
  480MOL0     C66165   1.052   3.706   1.873  0.3770  0.0380 -0.3385
  480MOL0     C66166   1.191   3.684   1.918 -0.2545  0.8660  0.8144
  480MOL0     C66167   1.310   3.661   1.937 -0.4125 -0.2971 -0.0019
  480MOL0     C66168   1.128   4.164   1.509  0.3056  0.2753  0.2766
  480MOL0     C66169   1.117   4.287   1.443  0.7248  0.6449  0.1207
  480MOL0     C66170   1.037   4.394   1.517  0.1562 -0.2551 -0.5743
  480MOL0     H66171   1.019   4.562   0.985 -1.0335  0.1689  0.4530
  480MOL0     H66172   1.015   4.764   0.904 -3.2584 -0.2960  0.0195
  480MOL0     H66173   1.071   5.143   1.163 -1.0830  1.8145 -2.2551
  480MOL0     H66174   1.128   5.197   1.009 -0.7075  1.5463  0.5228
  480MOL0     H66175   1.282   5.032   1.212 -0.9513  0.2058  1.2311
  480MOL0     H66176   1.341   5.065   1.059 -0.9535 -1.6095  0.0826
  480MOL0     H66177   1.275   5.326   1.114  2.4356  1.7513 -0.9575
  480MOL0     H66178   1.300   5.282   1.275 -1.1445 -1.8259  0.2423
  480MOL0     H66179   1.522   5.153   1.193 -1.2156 -0.5834 -0.2261
  480MOL0     H66180   1.487   5.210   1.037 -0.6036 -0.5976 -1.2528
  480MOL0     H66181   1.663   5.337   1.162 -0.8253 -1.0376  1.4429
  480MOL0     H66182   1.545   5.368   1.295 -1.5004  1.9589 -0.2692
  480MOL0     H66183   1.416   5.500   1.137 -0.3327 -2.8422 -2.3001
  480MOL0     H66184   1.564   5.558   1.198  2.8711 -2.4779  0.3885
  480MOL0     H66185   1.556   5.429   0.930 -0.9066 -1.5603  2.1891
  480MOL0     H66186   1.685   5.528   1.009  0.4042  1.1524 -0.5917
  480MOL0     H66187   1.543   5.634   0.822  2.4396 -5.0750  0.3112
  480MOL0     H66188   1.417   5.649   0.946 -0.7996 -3.7097  0.2161
  480MOL0     H66189   1.702   5.857   0.811  2.3985  2.0019  1.0873
  480MOL0     H66190   1.748   6.152   0.918 -0.5017 -2.4975 -1.6603
  480MOL0     H66191   1.873   6.045   0.914 -1.8222  0.6848 -3.7340
  480MOL0     H66192   1.752   6.144   1.180 -1.4136  2.3701 -0.7303
  480MOL0     H66193   1.916   6.084   1.143 -0.0101 -0.3033 -1.8165
  480MOL0     H66194   1.957   6.293   1.014 -0.4242 -1.5988 -0.7778
  480MOL0     H66195   1.783   6.333   1.037  0.3414  0.6578 -0.3881
  480MOL0     H66196   1.920   6.472   1.178 -1.2400  0.7907  4.3581
  480MOL0     H66197   1.808   6.368   1.266  0.1276 -0.8162  0.8397
  480MOL0     H66198   2.179   6.233   1.116  1.1728  1.1108 -0.7597
  480MOL0     H66199   2.400   6.228   0.996  0.0533 -0.0333  0.0942
  480MOL0     H66200   2.535   6.322   1.060  1.3329  2.6992 -0.9462
  480MOL0     H66201   2.447   6.396   0.940  0.7152  0.2404  0.7718
  480MOL0     H66202   2.631   6.854   1.372  1.1877  1.9027  0.8687
  480MOL0     H66203   2.835   6.994   1.327  0.7914  0.5021  3.2253
  480MOL0     H66204   3.157   6.768   1.102  1.5202  0.5825 -0.2587
  480MOL0     H66205   3.141   6.931   1.055 -2.3902 -0.6710 -1.4937
  480MOL0     H66206   3.385   6.916   1.144  2.1188  0.1625  2.8242
  480MOL0     H66207   3.300   6.975   1.278  2.7034  0.2195  0.4730
  480MOL0     H66208   3.317   6.664   1.225  0.3772  0.7063 -0.9288
  480MOL0     H66209   3.287   6.739   1.380 -0.3439 -1.0729 -0.0135
  480MOL0     H66210   3.536   6.828   1.311 -1.2053  0.8791  3.0923
  480MOL0     H66211   3.539   6.687   1.201 -0.6661  0.9831 -0.3711
  480MOL0     H66212   3.441   6.645   1.480 -1.4552  1.7686 -1.4237
  480MOL0     H66213   3.488   6.526   1.351  0.8968  0.4694  0.7718
  480MOL0     H66214   3.669   6.730   1.476 -0.4192 -1.0807  3.9565
  480MOL0     H66215   3.719   6.601   1.356  1.8522 -1.6839  2.8276
  480MOL0     H66216   3.767   6.453   1.517  0.8002 -0.3873  0.4453
  480MOL0     H66217   3.610   6.486   1.602  0.4778  0.0035  1.4313
  480MOL0     H66218   3.799   6.532   1.754  0.0596  0.1127  0.0068
  480MOL0     H66219   3.687   6.654   1.743  0.9280 -2.1823  2.0049
  480MOL0     H66220   3.022   6.645   1.171  1.4474  0.6310  1.4699
  480MOL0     H66221   2.813   6.519   1.187 -5.1522  0.2256 -2.2418
  480MOL0     H66222   2.322   6.655   1.334  1.3022 -1.2677  3.3352
  480MOL0     H66223   2.128   6.536   1.420 -1.5432 -0.8276 -0.1483
  480MOL0     H66224   1.125   4.930   1.292  1.2082 -0.3330  0.5815
  480MOL0     H66225   1.092   4.705   1.378 -0.9755 -2.1860 -0.3478
  480MOL0     H66226   1.319   4.218   1.183  2.2414 -0.7044  1.3845
  480MOL0     H66227   1.348   4.008   1.314 -0.4630 -0.6913  0.2222
  480MOL0     H66228   1.115   3.931   1.714 -0.2175 -0.5777 -0.0413
  480MOL0     H66229   1.007   3.905   1.576  0.4171 -3.1871 -2.6736
  480MOL0     H66230   1.232   3.709   1.616  0.8010  2.1524 -1.1765
  480MOL0     H66231   1.088   3.681   1.528 -0.4925 -0.6851  0.8019
  480MOL0     H66232   0.934   3.672   1.683  0.8801  0.5460 -1.8064
  480MOL0     H66233   1.062   3.554   1.728 -0.0368 -0.6672  0.6473
  480MOL0     H66234   0.980   3.641   1.923  0.3014  0.1679 -0.2807
  480MOL0     H66235   1.027   3.812   1.868  0.7484  0.0666 -2.4814
  480MOL0     H66236   1.416   3.650   1.945 -0.3499  1.1732  1.7868
  480MOL0     H66237   1.076   4.138   1.600 -2.0087  1.6839 -0.5502
  480MOL0     H66238   1.000   4.358   1.614 -1.6911  3.8392  0.4673
  480MOL0     H66239   1.089   4.486   1.544  1.0435 -0.4366 -1.5878
  480MOL0     H66240   0.943   4.413   1.464  0.8529  0.8693 -1.4425
  481MOL0     O66241   4.530   9.421   0.325 -0.0629 -0.2343  0.0063
  481MOL0     C66242   4.421   9.408   0.385  0.3614 -0.0642 -0.3237
  481MOL0     O66243   4.374   9.292   0.449 -0.6296 -0.1343  0.1772
  481MOL0     C66244   4.438   9.171   0.427 -0.2768 -0.5721 -0.2351
  481MOL0     C66245   4.570   9.145   0.458  0.0827  0.3322  0.1739
  481MOL0     C66246   4.619   9.016   0.441 -0.3377 -0.1118  0.3081
  481MOL0     C66247   4.536   8.907   0.410 -0.3953  0.0133 -0.4711
  481MOL0     O66248   4.575   8.778   0.400  0.2090  0.0480  0.4447
  481MOL0     C66249   4.715   8.741   0.423  0.1581  0.2195 -0.1655
  481MOL0     C66250   4.725   8.587   0.411  0.4748 -0.3291 -0.7991
  481MOL0     C66251   4.665   8.499   0.527 -0.3524 -0.6019  0.3581
  481MOL0     C66252   4.618   8.365   0.480  0.9904 -0.3117  0.3681
  481MOL0     C66253   4.588   8.279   0.604 -0.1479  0.7439 -0.0279
  481MOL0     C66254   4.550   8.135   0.572  0.4231 -0.4860  0.3731
  481MOL0     C66255   4.498   8.070   0.695  0.4373 -0.7164 -0.4985
  481MOL0     C66256   4.542   7.932   0.709 -0.5234  0.1773 -0.0845
  481MOL0     N66257   4.687   7.907   0.688 -0.7080 -0.0705 -0.6719
  481MOL0     C66258   4.785   7.938   0.779 -0.0026  0.3697 -0.1889
  481MOL0     C66259   4.894   7.906   0.717  0.0132  0.1335 -0.1076
  481MOL0     C66260   5.030   7.935   0.772  0.2988 -0.8444 -1.2859
  481MOL0     C66261   5.130   7.823   0.746 -0.9538  0.5869  0.3108
  481MOL0     C66262   5.275   7.861   0.783 -0.8052 -1.0109  0.6407
  481MOL0     C66263   5.362   7.754   0.730 -0.7633  0.0856 -0.0809
  481MOL0     O66264   5.500   7.787   0.712  0.3765 -0.3848  0.1891
  481MOL0     C66265   5.592   7.787   0.815 -0.1028  0.7004 -0.3226
  481MOL0     C66266   5.578   7.751   0.957 -0.6626  0.0449 -0.0286
  481MOL0     C66267   5.687   7.753   1.045  0.3025  0.1765 -0.3453
  481MOL0     C66268   5.659   7.711   1.189  0.7736 -0.4120 -0.8707
  481MOL0     C66269   5.815   7.786   0.998 -0.9333  0.0751 -0.9833
  481MOL0     C66270   5.939   7.772   1.080  0.8291  0.8390  0.0269
  481MOL0     O66271   6.048   7.727   1.009  0.4500 -0.1463  0.2145
  481MOL0     C66272   6.166   7.717   1.076  0.7715  0.3944  1.0139
  481MOL0     C66273   6.210   7.590   1.130 -0.0691  0.1480  0.1857
  481MOL0     C66274   6.336   7.587   1.181  0.0097 -0.5740  0.0477
  481MOL0     C66275   6.412   7.704   1.207 -0.1856  0.5217 -0.4863
  481MOL0     O66276   6.533   7.688   1.269  0.4131 -0.2663 -0.4852
  481MOL0     C66277   6.607   7.802   1.309  0.8058 -0.3970  0.2782
  481MOL0     C66278   6.727   7.743   1.381 -1.0891  0.9920  0.3902
  481MOL0     C66279   6.690   7.700   1.525 -0.0901  0.3448 -0.9282
  481MOL0     C66280   6.798   7.644   1.621  0.7504 -0.5252  0.4220
  481MOL0     C66281   6.743   7.582   1.751  0.6674 -0.2201  0.4837
  481MOL0     C66282   6.842   7.495   1.826 -0.1812  0.4255  0.3633
  481MOL0     C66283   6.926   7.561   1.942  0.2561 -0.5619 -0.9834
  481MOL0     C66284   7.016   7.668   1.891 -0.3226 -0.7194 -0.7400
  481MOL0    Cl66285   7.134   7.602   1.777 -0.2925 -0.2288 -0.0084
  481MOL0     C66286   6.365   7.828   1.162  0.8276 -0.0942  0.6331
  481MOL0     C66287   6.242   7.830   1.093  0.4828  0.7016  0.0280
  481MOL0     O66288   5.937   7.820   1.196  0.0120 -0.2870 -0.2825
  481MOL0     C66289   5.826   7.830   0.869 -0.7506 -0.2515  0.8830
  481MOL0     C66290   5.723   7.820   0.776 -0.5749 -0.6426  0.4637
  481MOL0     N66291   4.876   7.868   0.585 -0.2963  0.4272  0.8147
  481MOL0     N66292   4.745   7.855   0.575 -0.1433  0.8858 -0.2768
  481MOL0     C66293   4.405   8.937   0.380  0.2845 -0.4179  0.3788
  481MOL0     C66294   4.350   9.063   0.393 -0.1114 -0.6745  0.3450
  481MOL0     C66295   4.337   9.527   0.418 -0.0983  0.5029 -0.1904
  481MOL0     C66296   4.281   9.548   0.545  0.3368  0.2268 -0.6206
  481MOL0     C66297   4.199   9.658   0.579 -0.3967  1.1575  0.6126
  481MOL0     C66298   4.165   9.748   0.481 -0.8401 -0.4796 -0.6023
  481MOL0     O66299   4.084   9.846   0.533  0.5254  0.5915  0.0468
  481MOL0     C66300   4.061   9.960   0.440 -0.9879  0.2064 -0.0539
  481MOL0     C66301   4.157  10.073   0.475 -0.4874 -0.6807 -0.3875
  481MOL0     C66302   4.106  10.213   0.445 -0.6437 -0.4545 -0.0478
  481MOL0     C66303   4.225  10.314   0.452 -0.7675 -0.3077 -0.7837
  481MOL0     C66304   4.275  10.330   0.592 -1.2134  0.0240  0.1958
  481MOL0     C66305   4.316  10.323   0.708 -0.2909 -0.0133  0.5515
  481MOL0     C66306   4.219   9.731   0.350 -0.3817 -0.0307  0.7714
  481MOL0     C66307   4.303   9.620   0.317  0.4495 -0.3150 -0.7386
  481MOL0     C66308   4.355   9.609   0.177  0.2988  0.7442  0.4826
  481MOL0     H66309   4.638   9.218   0.499 -1.3658  1.2973  0.9594
  481MOL0     H66310   4.722   8.986   0.461 -1.1655 -2.8124  1.0170
  481MOL0     H66311   4.760   8.775   0.517 -1.2449  0.4799  0.4377
  481MOL0     H66312   4.775   8.789   0.345  2.0167 -0.1471  0.9771
  481MOL0     H66313   4.702   8.561   0.307  3.1927  0.8420 -1.7917
  481MOL0     H66314   4.828   8.557   0.428  0.9248  1.8058  0.7235
  481MOL0     H66315   4.748   8.496   0.598  2.6850  0.7677 -2.8187
  481MOL0     H66316   4.580   8.550   0.575 -2.8316 -1.0823 -3.1041
  481MOL0     H66317   4.518   8.372   0.436  1.6294  1.2097 -0.9411
  481MOL0     H66318   4.675   8.313   0.402  2.4348 -2.7190  2.8493
  481MOL0     H66319   4.502   8.332   0.647  0.4235  2.9568 -1.4308
  481MOL0     H66320   4.676   8.273   0.667  0.7225  1.2059 -1.1582
  481MOL0     H66321   4.474   8.126   0.494  0.5347  2.5042 -0.1997
  481MOL0     H66322   4.640   8.088   0.531  0.4499  0.3017 -0.5189
  481MOL0     H66323   4.389   8.073   0.703  0.5222 -1.9283  2.4976
  481MOL0     H66324   4.536   8.127   0.781  0.0537 -1.4546  0.1774
  481MOL0     H66325   4.514   7.890   0.806 -1.0838  0.0753 -0.2869
  481MOL0     H66326   4.499   7.871   0.629  0.9258 -0.6884 -0.2420
  481MOL0     H66327   4.762   7.961   0.883  0.0607 -2.1497  0.4286
  481MOL0     H66328   5.028   7.976   0.874  1.8740  0.8552 -1.8822
  481MOL0     H66329   5.065   8.017   0.709 -3.3003  3.4250  1.6208
  481MOL0     H66330   5.099   7.732   0.798  1.0871  0.1929  0.9234
  481MOL0     H66331   5.127   7.810   0.637  3.6890 -1.0339  0.1581
  481MOL0     H66332   5.299   7.950   0.725  1.2696 -1.7167  0.3327
  481MOL0     H66333   5.291   7.885   0.889 -0.0320  1.0970  0.0908
  481MOL0     H66334   5.344   7.664   0.790 -2.6148  1.7981  2.1562
  481MOL0     H66335   5.327   7.736   0.628  0.4144 -0.8615 -0.3406
  481MOL0     H66336   5.483   7.717   0.997  1.0394 -2.8512  1.9086
  481MOL0     H66337   5.591   7.625   1.188 -0.3309  0.0723  4.6625
  481MOL0     H66338   5.596   7.791   1.230 -0.7124 -1.8497 -0.2495
  481MOL0     H66339   5.736   7.690   1.263 -1.4732 -1.0385  1.3924
  481MOL0     H66340   6.149   7.501   1.115 -2.3356  1.8966 -1.5716
  481MOL0     H66341   6.377   7.491   1.209 -1.0006 -0.3331  2.7058
  481MOL0     H66342   6.630   7.869   1.225 -1.7043 -2.4258 -2.2399
  481MOL0     H66343   6.549   7.854   1.386  0.9617 -0.0331  0.1540
  481MOL0     H66344   6.752   7.649   1.331  0.1603 -0.5188  3.5509
  481MOL0     H66345   6.820   7.801   1.381  0.6446 -1.5655 -0.2257
  481MOL0     H66346   6.613   7.623   1.522  1.5195 -1.4810  1.1547
  481MOL0     H66347   6.654   7.786   1.582 -0.5618 -0.7621  0.4830
  481MOL0     H66348   6.888   7.702   1.643  0.3703 -0.5321  2.1145
  481MOL0     H66349   6.841   7.559   1.566  1.0395 -2.4499  3.3922
  481MOL0     H66350   6.697   7.663   1.807 -0.2192  0.6234 -1.4034
  481MOL0     H66351   6.664   7.513   1.721 -1.1068  1.9471 -0.0483
  481MOL0     H66352   6.902   7.447   1.749 -1.8755  2.2899 -2.2917
  481MOL0     H66353   6.793   7.409   1.873  1.2292 -1.3221 -1.1854
  481MOL0     H66354   6.973   7.482   2.000  0.2448  1.4230  1.9127
  481MOL0     H66355   6.858   7.613   2.010  1.7963 -0.4762  0.5444
  481MOL0     H66356   7.078   7.703   1.975 -0.2564  1.4547 -1.6323
  481MOL0     H66357   6.966   7.753   1.844  0.1441 -0.9860 -1.7431
  481MOL0     H66358   6.422   7.919   1.180  0.8584  0.3823 -1.6236
  481MOL0     H66359   6.206   7.923   1.048  0.9613  0.3994 -1.0276
  481MOL0     H66360   5.916   7.872   0.825 -1.9558  1.8841  0.3006
  481MOL0     H66361   5.747   7.875   0.685  1.2408  2.7491  2.7696
  481MOL0     H66362   4.346   8.849   0.356  1.7673 -1.4999  0.5159
  481MOL0     H66363   4.247   9.089   0.373  0.3026  2.8882  2.1044
  481MOL0     H66364   4.305   9.480   0.627 -0.0473  0.4085 -0.3511
  481MOL0     H66365   4.154   9.664   0.677 -3.8896 -1.9267 -0.5560
  481MOL0     H66366   4.064   9.935   0.333  0.3777  0.1039  0.0000
  481MOL0     H66367   3.962  10.001   0.462 -1.4893 -1.3190  0.6575
  481MOL0     H66368   4.241  10.035   0.417 -1.0813 -1.9579 -0.4537
  481MOL0     H66369   4.179  10.060   0.581 -1.0191  2.5393  0.2048
  481MOL0     H66370   4.057  10.219   0.348 -2.0027 -1.2262  0.5501
  481MOL0     H66371   4.037  10.243   0.525 -1.0285  1.4687 -1.0463
  481MOL0     H66372   4.186  10.414   0.432  1.3686  1.3557  2.5027
  481MOL0     H66373   4.299  10.281   0.379 -2.0680 -1.5083 -1.6103
  481MOL0     H66374   4.361  10.320   0.805  1.5530  0.4876 -0.2505
  481MOL0     H66375   4.202   9.796   0.265 -1.9076  2.9350  3.1382
  481MOL0     H66376   4.352   9.504   0.146  1.2566  0.6418  0.7043
  481MOL0     H66377   4.290   9.656   0.103  1.5260  2.2645  0.3108
  481MOL0     H66378   4.460   9.642   0.171  1.2181 -1.7886  1.1755
  482MOL0     O66379   1.093  10.728  11.118  0.2465 -0.1673 -0.3673
  482MOL0     C66380   1.034  10.783  11.212  0.7612  0.5213 -0.7655
  482MOL0     O66381   1.093  10.836  11.330  0.2663 -0.1577  1.0391
  482MOL0     C66382   1.224  10.812  11.343  0.6588 -0.5203  0.1658
  482MOL0     C66383   1.267  10.678  11.357  0.0908  0.0086  0.6163
  482MOL0     C66384   1.411  10.661  11.355 -0.0364  0.3967  0.0157
  482MOL0     C66385   1.500  10.772  11.347 -0.5040 -0.4999 -0.1693
  482MOL0     O66386   1.629  10.734  11.373 -0.2871 -0.5526  0.4584
  482MOL0     C66387   1.712  10.842  11.417  0.1419 -0.0875 -0.7236
  482MOL0     C66388   1.856  10.804  11.462  0.2782 -1.2032  0.2076
  482MOL0     C66389   1.857  10.690  11.563 -0.1723  0.6657  0.1506
  482MOL0     C66390   1.992  10.686  11.635 -0.0436  0.3042 -0.6895
  482MOL0     C66391   1.989  10.580  11.748  0.0026 -0.0752  0.8417
  482MOL0     C66392   2.118  10.590  11.834  0.1016 -0.0077 -0.9173
  482MOL0     C66393   2.117  10.469  11.928 -0.5369 -0.2814  0.2402
  482MOL0     C66394   2.233  10.475  12.038 -0.2439  0.3827 -0.1798
  482MOL0     N66395   2.364  10.429  11.984  0.1978 -0.4496 -0.5702
  482MOL0     C66396   2.484  10.483  12.012 -0.3234  0.4054 -0.1778
  482MOL0     C66397   2.577  10.404  11.947  0.8290  0.6740 -0.0604
  482MOL0     C66398   2.728  10.424  11.946  0.1231  0.3562 -0.1965
  482MOL0     C66399   2.780  10.425  11.806  0.2272 -0.1723 -0.0133
  482MOL0     C66400   2.931  10.432  11.807  0.4198 -0.3347  0.3950
  482MOL0     C66401   2.993  10.414  11.668 -0.5405 -0.5329 -0.3336
  482MOL0     O66402   3.143  10.419  11.672 -0.1434 -0.5216 -0.0890
  482MOL0     C66403   3.208  10.304  11.713 -0.2230 -0.0850  0.5108
  482MOL0     C66404   3.150  10.184  11.742  0.1683  0.1531 -0.5231
  482MOL0     C66405   3.228  10.072  11.787  0.0138  0.0768  0.0661
  482MOL0     C66406   3.146   9.954  11.810  0.0957  0.6236  0.3998
  482MOL0     C66407   3.367  10.084  11.778 -0.6348  0.5660  0.7685
  482MOL0     C66408   3.459   9.973  11.814  0.3175  0.1532  0.5376
  482MOL0     O66409   3.596   9.989  11.799  0.1783  0.0280  0.7569
  482MOL0     C66410   3.669   9.919  11.889  1.0280  0.6875 -0.3821
  482MOL0     C66411   3.701   9.987  12.006  0.2772 -0.0990  0.8420
  482MOL0     C66412   3.766   9.923  12.114 -0.2879  0.5231 -0.2284
  482MOL0     C66413   3.790   9.788  12.104  0.1682 -0.4247 -0.0613
  482MOL0     O66414   3.845   9.705  12.207 -0.0889  0.5668  0.8339
  482MOL0     C66415   3.873   9.767  12.331  0.6711  0.4885  0.2926
  482MOL0     C66416   3.928   9.668  12.434 -0.5272  0.0907 -0.1404
  482MOL0     C66417   4.034   9.577  12.376 -0.3877  0.2822 -0.2809
  482MOL0     C66418   4.088   9.497  12.494 -0.1906 -0.3814  0.0263
  482MOL0     C66419   4.189   9.389  12.451 -0.0753  0.7215  0.3903
  482MOL0     C66420   4.326   9.443  12.436 -0.4002 -0.3304 -0.0913
  482MOL0     C66421   4.414   9.337  12.367  0.2753 -0.3605  0.7071
  482MOL0     C66422   4.549   9.400  12.325  0.0166  0.0226  0.1386
  482MOL0    Cl66423   4.514   9.539  12.214  0.0049  0.2430  0.1704
  482MOL0     C66424   3.766   9.723  11.986  0.2087 -0.1079  0.6260
  482MOL0     C66425   3.702   9.791  11.881 -0.2623 -0.0066 -0.2676
  482MOL0     O66426   3.413   9.872  11.869  0.0771  0.1826  0.4672
  482MOL0     C66427   3.428  10.208  11.746  0.9968  0.9183  0.0281
  482MOL0     C66428   3.349  10.314  11.718  0.0159 -0.1580 -0.7188
  482MOL0     N66429   2.510  10.299  11.872 -0.7228 -0.6227 -0.1262
  482MOL0     N66430   2.383  10.325  11.900  0.1577  0.5414 -0.6410
  482MOL0     C66431   1.448  10.901  11.331  0.9255 -0.2314  0.7578
  482MOL0     C66432   1.311  10.918  11.329 -0.0282  0.1910  0.6254
  482MOL0     C66433   0.888  10.807  11.194 -0.3089 -0.9056 -0.4085
  482MOL0     C66434   0.839  10.822  11.065  0.9389  0.8394 -0.3627
  482MOL0     C66435   0.704  10.834  11.033  0.2030 -0.5000  0.9136
  482MOL0     C66436   0.617  10.853  11.142  0.1067  0.1287  0.3216
  482MOL0     O66437   0.489  10.862  11.097 -0.2250  0.5703 -0.9092
  482MOL0     C66438   0.375  10.900  11.179 -0.9381 -0.4554  0.1717
  482MOL0     C66439   0.284  10.947  11.070  0.3616  0.0674 -0.3792
  482MOL0     C66440   0.155  11.000  11.135 -0.7698 -0.8315  0.1608
  482MOL0     C66441   0.076  11.071  11.030 -0.1191  0.5546  0.1258
  482MOL0     C66442   0.041  10.976  10.912  0.4306  0.3060 -1.2452
  482MOL0     C66443   0.005  10.904  10.825 -0.0184  0.7145 -0.3368
  482MOL0     C66444   0.659  10.844  11.271  0.0109  0.8090 -0.2097
  482MOL0     C66445   0.790  10.818  11.301  0.1613  0.0231  0.9204
  482MOL0     C66446   0.823  10.803  11.443  0.5633  1.0076 -0.0981
  482MOL0     H66447   1.198  10.595  11.363 -0.0570 -0.0746 -1.5989
  482MOL0     H66448   1.440  10.557  11.363  0.6870  0.7258  2.4043
  482MOL0     H66449   1.678  10.885  11.512 -0.3662  0.0335 -0.9565
  482MOL0     H66450   1.722  10.924  11.345 -2.1078  1.0366  0.1376
  482MOL0     H66451   1.911  10.778  11.371  0.9939  1.6745 -0.2872
  482MOL0     H66452   1.904  10.892  11.507  0.6986 -0.6469 -1.2747
  482MOL0     H66453   1.773  10.692  11.633  2.3659 -1.0295  3.5820
  482MOL0     H66454   1.849  10.596  11.509 -4.1697 -0.1847  1.8571
  482MOL0     H66455   2.065  10.668  11.556  0.9548  1.3886 -0.0460
  482MOL0     H66456   2.017  10.781  11.684  1.5098 -0.2468 -0.3404
  482MOL0     H66457   1.977  10.482  11.702  2.9767 -0.1784  0.1016
  482MOL0     H66458   1.902  10.592  11.813 -0.9189 -0.9004 -0.2093
  482MOL0     H66459   2.206  10.590  11.770  0.5640  2.0263 -0.3444
  482MOL0     H66460   2.115  10.682  11.892 -0.7283  0.0951 -1.1086
  482MOL0     H66461   2.114  10.376  11.871  0.9697  0.3661 -0.9561
  482MOL0     H66462   2.018  10.473  11.974 -0.1040  0.2244  1.1497
  482MOL0     H66463   2.246  10.577  12.076  1.4809  0.8789 -1.9437
  482MOL0     H66464   2.195  10.411  12.118  0.8852  0.0634  0.1213
  482MOL0     H66465   2.507  10.577  12.061 -0.7463  0.8789 -0.8826
  482MOL0     H66466   2.762  10.338  12.004 -2.4815  0.2414  1.2838
  482MOL0     H66467   2.757  10.515  11.999  2.1119  0.1338 -0.8064
  482MOL0     H66468   2.741  10.331  11.765 -0.1449  0.0053 -0.0751
  482MOL0     H66469   2.747  10.518  11.758 -1.5849 -0.9542 -0.3840
  482MOL0     H66470   2.959  10.529  11.850  1.7803 -0.2873 -0.5275
  482MOL0     H66471   2.973  10.352  11.868  1.4644  0.6915  1.0862
  482MOL0     H66472   2.965  10.320  11.621  1.5563 -0.2323 -2.3714
  482MOL0     H66473   2.968  10.500  11.604  0.6172  0.5593  0.6254
  482MOL0     H66474   3.042  10.175  11.749  0.2913 -0.3970  1.0451
  482MOL0     H66475   3.167   9.886  11.727  0.6352 -0.0920  1.1118
  482MOL0     H66476   3.038   9.972  11.807 -0.0815 -0.4664 -1.2394
  482MOL0     H66477   3.170   9.909  11.907 -0.0844 -0.4180 -0.0246
  482MOL0     H66478   3.665  10.088  12.025  1.2032  0.3601  0.2461
  482MOL0     H66479   3.791   9.976  12.205 -1.9694 -0.0362  0.6017
  482MOL0     H66480   3.945   9.849  12.322  0.9742  0.7676  3.8700
  482MOL0     H66481   3.787   9.817  12.377  0.8327 -1.5492  3.0899
  482MOL0     H66482   3.966   9.728  12.518 -2.8793  0.3240  0.8381
  482MOL0     H66483   3.842   9.610  12.470 -1.6260 -0.6143 -3.5785
  482MOL0     H66484   4.112   9.623  12.315  0.2590 -0.0349  0.2920
  482MOL0     H66485   3.985   9.505  12.309  0.1885 -0.9851  0.6207
  482MOL0     H66486   4.004   9.454  12.550  1.4225 -1.1695  1.9843
  482MOL0     H66487   4.133   9.560  12.572  0.5459 -0.5055 -0.2872
  482MOL0     H66488   4.190   9.313  12.529 -1.7124  0.5109  0.2441
  482MOL0     H66489   4.149   9.339  12.362 -1.2179  0.2589  1.1425
  482MOL0     H66490   4.365   9.489  12.528 -1.3223  1.4815 -0.5555
  482MOL0     H66491   4.313   9.536  12.380 -3.3164 -0.4255  0.2563
  482MOL0     H66492   4.365   9.304  12.275 -0.2811 -1.0304  1.2312
  482MOL0     H66493   4.433   9.248  12.427  0.7269 -0.4553  0.4263
  482MOL0     H66494   4.611   9.327  12.272 -0.9291  1.1016 -2.6630
  482MOL0     H66495   4.597   9.444  12.413 -2.0590  2.2692  0.2613
  482MOL0     H66496   3.802   9.621  11.981 -0.7445 -0.3751 -2.3324
  482MOL0     H66497   3.671   9.738  11.791 -1.7427 -0.6197  0.5773
  482MOL0     H66498   3.533  10.233  11.748  1.1330  1.6374 -4.6660
  482MOL0     H66499   3.393  10.403  11.675  0.0707  0.6800  0.9857
  482MOL0     H66500   1.510  10.990  11.328  0.6805 -0.0753  0.1764
  482MOL0     H66501   1.274  11.013  11.289 -2.5890 -1.4121 -1.1008
  482MOL0     H66502   0.913  10.804  10.987  0.1739 -0.6892 -0.7603
  482MOL0     H66503   0.661  10.831  10.934  0.3973  0.9852  0.7541
  482MOL0     H66504   0.331  10.824  11.243  0.7216 -0.5467  1.2559
  482MOL0     H66505   0.401  10.986  11.241  3.3957 -0.6104 -1.1075
  482MOL0     H66506   0.271  10.862  11.001  1.0783  0.4758 -1.0414
  482MOL0     H66507   0.334  11.025  11.011  3.3888 -1.9766 -0.7384
  482MOL0     H66508   0.108  10.919  11.191  1.9849 -2.2700  0.5589
  482MOL0     H66509   0.181  11.071  11.213  1.0727 -3.3099  1.9433
  482MOL0     H66510   0.139  11.147  10.983  1.3830 -0.4111  0.5335
  482MOL0     H66511  -0.010  11.123  11.074 -0.4233 -0.0987  0.3261
  482MOL0     H66512  -0.021  10.840  10.743  0.1109  2.5880 -1.8989
  482MOL0     H66513   0.597  10.849  11.360  1.1714  1.5448  0.5790
  482MOL0     H66514   0.865  10.899  11.477  0.5193  0.4834  1.5556
  482MOL0     H66515   0.734  10.785  11.504  0.1314  0.4940 -0.8826
  482MOL0     H66516   0.893  10.722  11.464  0.5756  0.7046 -1.2533
  483MOL0     O66517   4.418   8.308  10.652 -0.2536  0.4008 -0.3796
  483MOL0     C66518   4.453   8.217  10.574 -0.3779 -0.0300 -0.4802
  483MOL0     O66519   4.388   8.159  10.473  0.8474  0.3814  0.4429
  483MOL0     C66520   4.254   8.200  10.461  0.4634 -0.9098 -0.4627
  483MOL0     C66521   4.155   8.141  10.535 -0.1716  0.4160  0.1277
  483MOL0     C66522   4.022   8.180  10.526 -0.9876 -0.5237  0.0723
  483MOL0     C66523   3.974   8.280  10.438 -0.2064 -0.0489 -0.4723
  483MOL0     O66524   3.839   8.302  10.417 -0.0694 -0.1780 -0.7666
  483MOL0     C66525   3.760   8.332  10.537 -0.2510  0.5575  0.3824
  483MOL0     C66526   3.644   8.235  10.548  0.2985 -0.6662 -0.8198
  483MOL0     C66527   3.548   8.254  10.671 -0.1630  0.7276  0.1779
  483MOL0     C66528   3.416   8.193  10.640  0.5614  0.3650 -0.3902
  483MOL0     C66529   3.306   8.218  10.747  1.2366 -0.1855 -0.1605
  483MOL0     C66530   3.318   8.112  10.855 -0.1612  0.2349 -0.7718
  483MOL0     C66531   3.213   8.154  10.966  0.9822  0.0159 -0.5339
  483MOL0     C66532   3.063   8.114  10.934 -0.9479 -0.4754 -0.8960
  483MOL0     N66533   2.976   8.165  11.039 -0.8549 -0.1111 -0.2941
  483MOL0     C66534   3.001   8.291  11.098 -0.2030  0.3437  0.4485
  483MOL0     C66535   2.907   8.292  11.194  0.4595  0.4120 -0.5351
  483MOL0     C66536   2.877   8.408  11.281 -0.2553 -0.4587  0.0112
  483MOL0     C66537   2.920   8.381  11.421 -0.2874  0.3306 -0.1867
  483MOL0     C66538   3.065   8.326  11.440  0.2781 -0.0687  0.5781
  483MOL0     C66539   3.171   8.423  11.385  0.3343  0.3620  0.0306
  483MOL0     O66540   3.286   8.401  11.464  0.0378 -0.6401  0.3756
  483MOL0     C66541   3.396   8.325  11.421 -0.2718  0.1940 -0.6448
  483MOL0     C66542   3.391   8.216  11.337 -0.7580 -0.1130  0.8942
  483MOL0     C66543   3.501   8.134  11.308 -0.8023 -1.2964  0.1732
  483MOL0     C66544   3.474   8.014  11.230  0.9097 -0.4225  0.2867
  483MOL0     C66545   3.619   8.159  11.378 -1.6819 -0.2006 -0.2461
  483MOL0     C66546   3.752   8.087  11.340 -0.6209  1.0332 -0.7179
  483MOL0     O66547   3.846   8.100  11.440 -0.1105 -0.3757 -0.0222
  483MOL0     C66548   3.965   8.046  11.431 -0.5798 -0.2939  0.3721
  483MOL0     C66549   3.999   7.984  11.546  0.1705  0.5727 -1.0020
  483MOL0     C66550   4.133   7.935  11.559 -0.0747 -0.1504 -0.6692
  483MOL0     C66551   4.226   7.943  11.458 -0.5112 -0.0628  0.2879
  483MOL0     O66552   4.360   7.896  11.465 -0.7059  0.4381  0.8133
  483MOL0     C66553   4.398   7.788  11.551  0.4451 -0.5686 -0.1209
  483MOL0     C66554   4.538   7.738  11.523 -0.0456  0.2552  0.5579
  483MOL0     C66555   4.640   7.833  11.598 -0.6666  0.3868  0.6111
  483MOL0     C66556   4.790   7.793  11.561  0.4353 -0.3001 -0.5766
  483MOL0     C66557   4.898   7.881  11.635 -1.0674  0.2602 -0.6038
  483MOL0     C66558   5.041   7.852  11.585  0.2097  0.6245 -0.2873
  483MOL0     C66559   5.153   7.925  11.662  0.1549  0.2410  0.5769
  483MOL0     C66560   5.287   7.878  11.607 -0.8427  0.3092  0.7247
  483MOL0    Cl66561   5.408   7.905  11.743 -0.2819 -0.3245 -0.0563
  483MOL0     C66562   4.186   8.005  11.340  0.3341  0.3832  0.2647
  483MOL0     C66563   4.059   8.063  11.324  0.1938  0.2434  0.1281
  483MOL0     O66564   3.773   8.034  11.233 -0.8337  0.5658 -0.1496
  483MOL0     C66565   3.627   8.261  11.479 -0.4502  0.8347  0.3533
  483MOL0     C66566   3.517   8.344  11.495 -0.7139 -0.6080  0.1767
  483MOL0     N66567   2.839   8.165  11.192 -0.1081 -0.3675  0.3808
  483MOL0     N66568   2.877   8.092  11.094 -1.0548 -0.8741 -0.8119
  483MOL0     C66569   4.077   8.350  10.367  0.3756  0.0201 -0.6250
  483MOL0     C66570   4.210   8.307  10.374 -0.0797  0.0514 -0.0587
  483MOL0     C66571   4.597   8.169  10.599  0.9486 -0.0462 -0.2732
  483MOL0     C66572   4.616   8.035  10.571 -0.2411  0.7661 -0.5175
  483MOL0     C66573   4.741   7.971  10.598  0.2288 -0.1723 -0.7041
  483MOL0     C66574   4.845   8.043  10.632 -0.3436 -0.9442 -0.6749
  483MOL0     O66575   4.963   7.988  10.650 -0.0232 -0.5905 -0.3517
  483MOL0     C66576   5.002   7.867  10.580 -0.3532  0.5363  0.7049
  483MOL0     C66577   5.148   7.837  10.607 -0.4637  0.0246  0.0132
  483MOL0     C66578   5.182   7.833  10.759 -0.6202  0.0997  0.1154
  483MOL0     C66579   5.319   7.767  10.777 -0.1155 -0.1627  0.1921
  483MOL0     C66580   5.345   7.765  10.922 -0.5608 -0.1780  0.2692
  483MOL0     C66581   5.359   7.781  11.039 -0.2971  0.5987  0.0777
  483MOL0     C66582   4.838   8.180  10.651 -0.3321  0.5609 -0.3658
  483MOL0     C66583   4.714   8.245  10.635  0.2471  0.3396 -0.4509
  483MOL0     C66584   4.706   8.393  10.657 -0.0511  0.1989  0.1385
  483MOL0     H66585   4.192   8.063  10.601  3.1791 -0.3571 -2.3852
  483MOL0     H66586   3.949   8.129  10.588 -1.9171 -1.3039 -1.5813
  483MOL0     H66587   3.720   8.433  10.521 -3.1753 -0.4389  0.9206
  483MOL0     H66588   3.819   8.332  10.630  1.5291  1.0494 -0.6950
  483MOL0     H66589   3.584   8.254  10.457 -3.0719  3.3003  1.8407
  483MOL0     H66590   3.684   8.133  10.548 -3.4420 -2.3203  0.0015
  483MOL0     H66591   3.596   8.197  10.751  1.1492  0.1833 -0.9703
  483MOL0     H66592   3.531   8.359  10.694  0.2487  0.7716  0.2833
  483MOL0     H66593   3.379   8.244  10.551  0.6439  2.3976  0.6873
  483MOL0     H66594   3.421   8.084  10.627  3.1147  0.1790  1.3784
  483MOL0     H66595   3.210   8.208  10.695 -0.4968  0.1724  2.7556
  483MOL0     H66596   3.306   8.325  10.772 -1.6006  0.5591 -2.8262
  483MOL0     H66597   3.299   8.012  10.816  0.7369 -0.2432 -0.0234
  483MOL0     H66598   3.420   8.113  10.895 -0.8037 -1.2746  1.0571
  483MOL0     H66599   3.224   8.259  10.996 -3.2325 -0.2424  2.8408
  483MOL0     H66600   3.236   8.091  11.052 -2.3565 -2.0261 -0.9728
  483MOL0     H66601   3.043   8.164  10.838 -0.5467  0.9655 -0.2514
  483MOL0     H66602   3.050   8.006  10.928 -2.0721 -0.4345  0.4595
  483MOL0     H66603   3.068   8.371  11.069  0.7655 -1.1082 -1.4604
  483MOL0     H66604   2.770   8.429  11.275 -0.6829 -2.2758  0.6852
  483MOL0     H66605   2.934   8.495  11.246  1.2935 -2.1280 -1.8617
  483MOL0     H66606   2.914   8.465  11.491 -3.0325 -1.7627  2.3994
  483MOL0     H66607   2.857   8.301  11.461 -0.9500  1.3606  0.9154
  483MOL0     H66608   3.081   8.314  11.548 -1.4523 -0.3156  0.8325
  483MOL0     H66609   3.072   8.225  11.397 -1.1909 -0.2658  0.7480
  483MOL0     H66610   3.183   8.424  11.276 -0.6060  1.3960 -0.0917
  483MOL0     H66611   3.141   8.523  11.418  1.6720  0.4619  1.0561
  483MOL0     H66612   3.296   8.191  11.289 -0.5794 -0.2654  0.6138
  483MOL0     H66613   3.493   7.917  11.277 -3.8513 -3.5961 -3.3576
  483MOL0     H66614   3.530   8.025  11.137  0.0146  3.5786  0.0666
  483MOL0     H66615   3.368   8.006  11.201  0.5177  0.3423  1.4203
  483MOL0     H66616   3.933   7.978  11.633  0.3772  1.5935 -0.7633
  483MOL0     H66617   4.158   7.894  11.656 -3.8503  1.1156  1.0530
  483MOL0     H66618   4.381   7.819  11.655  2.7375  2.7822 -0.6104
  483MOL0     H66619   4.324   7.708  11.538  0.1719 -0.6454  1.6593
  483MOL0     H66620   4.549   7.637  11.565  0.0618 -1.7650 -3.8460
  483MOL0     H66621   4.554   7.739  11.415  2.6021 -2.2099  0.7981
  483MOL0     H66622   4.636   7.822  11.706  0.7679 -1.1683  0.5522
  483MOL0     H66623   4.617   7.935  11.568  1.0007  0.4825 -0.5119
  483MOL0     H66624   4.790   7.815  11.454 -1.6305 -0.7222 -0.6981
  483MOL0     H66625   4.821   7.690  11.577  2.1055  0.1121 -0.9545
  483MOL0     H66626   4.873   7.988  11.625 -3.1954 -0.0052  1.0518
  483MOL0     H66627   4.892   7.863  11.743  2.0467 -1.3326 -0.5797
  483MOL0     H66628   5.048   7.868  11.477  0.4699 -2.0697 -0.7470
  483MOL0     H66629   5.062   7.745  11.600  1.3147  1.0292  1.3303
  483MOL0     H66630   5.154   7.902  11.768  1.9003 -1.4154  0.2535
  483MOL0     H66631   5.139   8.032  11.645 -0.6398  0.0478 -0.0913
  483MOL0     H66632   5.318   7.933  11.518 -1.1000 -0.6435  0.0356
  483MOL0     H66633   5.278   7.772  11.582 -0.5926 -0.0271  1.9630
  483MOL0     H66634   4.255   8.007  11.256 -0.3192  3.8272 -0.3264
  483MOL0     H66635   4.030   8.111  11.231 -0.9914  1.7716  1.2320
  483MOL0     H66636   3.720   8.283  11.530 -0.9741  3.5620  0.2814
  483MOL0     H66637   3.511   8.435  11.555 -1.2073  1.0077 -2.1719
  483MOL0     H66638   4.041   8.430  10.304 -1.3958 -0.1184  0.1422
  483MOL0     H66639   4.287   8.360  10.318 -0.6325  1.3070  0.3425
  483MOL0     H66640   4.537   7.970  10.535  2.2155 -3.4513  0.9553
  483MOL0     H66641   4.743   7.864  10.578 -0.2185  0.2844 -3.6436
  483MOL0     H66642   4.936   7.788  10.617 -1.4773  0.4678 -1.3079
  483MOL0     H66643   4.984   7.882  10.473 -3.8459 -2.5893  0.6842
  483MOL0     H66644   5.208   7.921  10.570  0.5167  0.8233  3.1142
  483MOL0     H66645   5.174   7.736  10.574 -0.1950 -0.0395  0.4235
  483MOL0     H66646   5.168   7.933  10.801 -1.1944 -0.4115  1.2018
  483MOL0     H66647   5.105   7.767  10.800 -1.0950 -0.9205 -2.2655
  483MOL0     H66648   5.401   7.820  10.727 -0.8993  0.7283 -0.1859
  483MOL0     H66649   5.323   7.664  10.742  1.2057  0.0218 -0.2711
  483MOL0     H66650   5.371   7.777  11.145  0.1197 -2.8884  0.0073
  483MOL0     H66651   4.919   8.247  10.681 -0.5677  1.0107 -0.7195
  483MOL0     H66652   4.657   8.442  10.572 -0.8686  0.4316  0.7271
  483MOL0     H66653   4.652   8.426  10.747  1.9319  1.2433  1.0010
  483MOL0     H66654   4.808   8.433  10.662 -0.2556  1.1169 -1.8656
  484MOL0     O66655   2.887   3.838   7.405 -0.1329  0.1150  1.2705
  484MOL0     C66656   2.869   3.949   7.450  1.3010 -0.4905 -0.4207
  484MOL0     O66657   2.949   4.060   7.410 -0.0106 -0.9339  0.1573
  484MOL0     C66658   3.085   4.047   7.382  0.0657  0.3682 -0.0171
  484MOL0     C66659   3.158   4.140   7.313  0.6503  0.8955  0.1878
  484MOL0     C66660   3.282   4.125   7.263  0.1010  0.1006 -0.0723
  484MOL0     C66661   3.348   4.003   7.282 -0.8842 -0.2497  0.3744
  484MOL0     O66662   3.480   3.981   7.236  0.0229 -0.3443 -0.4213
  484MOL0     C66663   3.577   4.069   7.287  0.1616 -0.4489 -0.2460
  484MOL0     C66664   3.599   4.040   7.429 -0.3161 -0.3407  0.0807
  484MOL0     C66665   3.519   4.114   7.541 -0.8587 -0.4383  0.3146
  484MOL0     C66666   3.516   4.261   7.534  0.1951 -0.3415  0.0414
  484MOL0     C66667   3.412   4.320   7.637 -1.3086  0.3132  0.2545
  484MOL0     C66668   3.264   4.311   7.593  0.4119  0.5953  1.3291
  484MOL0     C66669   3.170   4.398   7.679  0.9679  0.2830  0.3845
  484MOL0     C66670   3.015   4.381   7.645  0.0909  0.1874 -0.0026
  484MOL0     N66671   2.936   4.486   7.712 -0.5470 -0.1383  0.3150
  484MOL0     C66672   2.922   4.488   7.847  0.5549  0.1341  0.3764
  484MOL0     C66673   2.846   4.603   7.868  0.8288  0.2686  0.1231
  484MOL0     C66674   2.802   4.666   7.999  0.5388  0.5495  0.7137
  484MOL0     C66675   2.904   4.773   8.038 -0.4174  0.4196 -0.0361
  484MOL0     C66676   2.874   4.807   8.188  0.0631 -0.1295  0.9392
  484MOL0     C66677   2.988   4.914   8.222 -0.2257  0.0135 -0.0526
  484MOL0     O66678   3.113   4.847   8.243 -0.0978 -0.2007  0.7856
  484MOL0     C66679   3.223   4.932   8.245  0.6241 -0.1540  0.0151
  484MOL0     C66680   3.341   4.881   8.195  0.5753  0.3119 -0.3517
  484MOL0     C66681   3.458   4.960   8.173 -0.4730  0.6762  0.6830
  484MOL0     C66682   3.579   4.901   8.097 -0.1406 -0.7618  0.1430
  484MOL0     C66683   3.462   5.089   8.231 -0.4231  0.5226  0.4041
  484MOL0     C66684   3.579   5.187   8.222  0.0210 -0.0628 -1.3769
  484MOL0     O66685   3.693   5.144   8.181 -0.2857  0.6341  0.7810
  484MOL0     C66686   3.791   5.234   8.155  0.3608  0.0120  0.7447
  484MOL0     C66687   3.866   5.277   8.264 -0.1575 -0.9380  0.8113
  484MOL0     C66688   3.965   5.371   8.240 -0.4296 -1.0017  0.0401
  484MOL0     C66689   3.985   5.444   8.119 -0.1244 -0.5105 -0.0648
  484MOL0     O66690   4.090   5.537   8.094  0.5355 -0.4683  0.7123
  484MOL0     C66691   4.165   5.573   8.207 -0.2692  0.1631  0.0420
  484MOL0     C66692   4.262   5.685   8.174 -0.1762  0.3480  0.2805
  484MOL0     C66693   4.373   5.648   8.079 -0.4829  0.5436 -0.2086
  484MOL0     C66694   4.476   5.758   8.071 -0.3940  0.4888 -0.0390
  484MOL0     C66695   4.553   5.739   7.935 -0.6827  0.1200 -0.2720
  484MOL0     C66696   4.626   5.868   7.892 -0.3106  0.3687 -0.8314
  484MOL0     C66697   4.750   5.910   7.979  0.3033 -0.6551  0.1882
  484MOL0     C66698   4.787   6.058   7.943  0.4180  0.5324 -0.4651
  484MOL0    Cl66699   4.774   6.095   7.778  0.4524 -0.0902 -0.2767
  484MOL0     C66700   3.907   5.395   8.011 -0.4625  1.4501 -0.2137
  484MOL0     C66701   3.817   5.287   8.026 -0.4662 -0.3598  0.5097
  484MOL0     O66702   3.553   5.301   8.254  0.3528 -0.2585  0.1277
  484MOL0     C66703   3.350   5.132   8.298  0.2235 -0.0107 -0.3840
  484MOL0     C66704   3.228   5.061   8.293  0.6724 -0.4978 -0.1831
  484MOL0     N66705   2.817   4.660   7.745 -0.1524 -0.0278 -0.0784
  484MOL0     N66706   2.866   4.589   7.651 -0.1904  0.4266 -0.0256
  484MOL0     C66707   3.294   3.912   7.375  0.7087 -0.1798  0.0367
  484MOL0     C66708   3.161   3.933   7.421 -0.2100 -0.2007  0.1830
  484MOL0     C66709   2.737   3.979   7.511 -0.1685  0.5919  0.1545
  484MOL0     C66710   2.680   3.885   7.603  0.6392 -0.0890 -0.1204
  484MOL0     C66711   2.557   3.911   7.661  0.3913  0.9905 -0.5312
  484MOL0     C66712   2.486   4.020   7.641  0.1491  0.6122  0.1558
  484MOL0     O66713   2.358   4.047   7.685 -0.2529  0.3986  0.0202
  484MOL0     C66714   2.328   4.016   7.824 -0.4963 -0.7254 -1.3169
  484MOL0     C66715   2.175   4.027   7.832 -0.2523 -0.7062 -0.7822
  484MOL0     C66716   2.129   4.028   7.985 -0.3692  0.7426  1.2726
  484MOL0     C66717   2.147   4.156   8.061 -1.1446 -0.5016 -0.9834
  484MOL0     C66718   2.150   4.134   8.205  0.6947  0.5576 -0.1439
  484MOL0     C66719   2.152   4.107   8.328  0.6722  0.4328  0.5707
  484MOL0     C66720   2.539   4.120   7.553 -0.7697 -0.9629  0.1310
  484MOL0     C66721   2.661   4.094   7.483  0.4433 -0.2350  0.5743
  484MOL0     C66722   2.690   4.185   7.361  0.4908 -0.2223  0.1034
  484MOL0     H66723   3.105   4.230   7.285 -3.2650 -1.2870 -0.0685
  484MOL0     H66724   3.330   4.208   7.212 -0.1027  0.6561  0.6164
  484MOL0     H66725   3.547   4.173   7.271  0.7878 -0.2377 -0.0747
  484MOL0     H66726   3.669   4.063   7.228  1.7240  2.6284  1.6281
  484MOL0     H66727   3.608   3.934   7.454  1.9349  0.2911  2.4350
  484MOL0     H66728   3.699   4.078   7.455  0.5485 -0.1518 -3.1174
  484MOL0     H66729   3.413   4.085   7.547 -1.3726  1.6243  4.4584
  484MOL0     H66730   3.560   4.089   7.639 -0.5812 -1.0149  0.0580
  484MOL0     H66731   3.610   4.305   7.569  1.5416 -1.9804 -1.3722
  484MOL0     H66732   3.493   4.293   7.432 -1.5417 -2.7988 -0.4257
  484MOL0     H66733   3.435   4.425   7.656  0.5167  0.4550 -2.2469
  484MOL0     H66734   3.424   4.262   7.729 -0.0157 -3.2973 -1.9817
  484MOL0     H66735   3.259   4.335   7.486  3.5134 -0.1474  0.9118
  484MOL0     H66736   3.245   4.205   7.613  0.9637  0.4758  1.2543
  484MOL0     H66737   3.184   4.504   7.660  1.8251 -0.1589 -1.6660
  484MOL0     H66738   3.192   4.371   7.783  0.6655  1.6713  0.8305
  484MOL0     H66739   2.995   4.388   7.537 -2.8955 -3.6639  0.0565
  484MOL0     H66740   2.985   4.280   7.675  1.2366 -0.4495 -0.8871
  484MOL0     H66741   2.951   4.412   7.919  3.0076 -0.8512 -1.5101
  484MOL0     H66742   2.777   4.591   8.074 -3.0086 -1.8064 -2.4238
  484MOL0     H66743   2.705   4.714   7.981  0.0281 -0.9919 -1.0146
  484MOL0     H66744   3.000   4.719   8.036 -1.4891 -1.6787  1.4046
  484MOL0     H66745   2.909   4.862   7.975 -0.9693  0.1917 -0.4088
  484MOL0     H66746   2.782   4.865   8.201 -0.7832 -1.2592  0.1824
  484MOL0     H66747   2.878   4.715   8.248  0.2076 -0.2709  0.7182
  484MOL0     H66748   2.993   4.991   8.144  1.3286  0.6482  0.6459
  484MOL0     H66749   2.961   4.960   8.317 -0.9354 -1.3570  0.4486
  484MOL0     H66750   3.327   4.781   8.155 -1.7932 -1.0358  3.3175
  484MOL0     H66751   3.549   4.806   8.051 -1.0722  0.2653 -1.4784
  484MOL0     H66752   3.660   4.873   8.165  1.6305 -0.5929 -1.8046
  484MOL0     H66753   3.612   4.973   8.022 -1.1949 -0.8953 -0.4809
  484MOL0     H66754   3.833   5.247   8.363 -2.5701 -1.0299  0.0313
  484MOL0     H66755   4.034   5.399   8.319  1.7191 -2.5050 -1.1931
  484MOL0     H66756   4.101   5.602   8.291 -0.3497  2.2122 -0.6803
  484MOL0     H66757   4.223   5.488   8.244 -2.6886 -0.7016  2.2016
  484MOL0     H66758   4.204   5.774   8.145 -2.0797 -1.3802 -1.5655
  484MOL0     H66759   4.306   5.716   8.269  0.2241 -0.4058  0.3421
  484MOL0     H66760   4.331   5.632   7.979  1.7345  0.6909 -1.2342
  484MOL0     H66761   4.428   5.557   8.107 -0.9129  0.7317  1.3425
  484MOL0     H66762   4.539   5.753   8.160  2.9077 -1.2498 -2.3162
  484MOL0     H66763   4.422   5.853   8.066 -1.3905 -0.1131 -1.5827
  484MOL0     H66764   4.627   5.658   7.931 -1.1489 -0.3533  0.4091
  484MOL0     H66765   4.472   5.713   7.865 -1.6643  1.5842  0.2650
  484MOL0     H66766   4.551   5.948   7.896 -2.4748 -1.5876 -0.4919
  484MOL0     H66767   4.652   5.853   7.787 -2.4697 -0.0911 -1.3457
  484MOL0     H66768   4.830   5.840   7.953 -1.2510 -1.2107 -3.6846
  484MOL0     H66769   4.721   5.887   8.082 -1.1724  0.0168 -0.0495
  484MOL0     H66770   4.887   6.085   7.978  0.4734 -0.4071  0.1411
  484MOL0     H66771   4.711   6.118   7.994  0.4851 -1.0102  1.5821
  484MOL0     H66772   3.913   5.434   7.910 -0.1971  0.7534 -0.4735
  484MOL0     H66773   3.765   5.258   7.935 -1.2733  3.1016 -0.2522
  484MOL0     H66774   3.342   5.231   8.343  0.9070  0.4674 -1.2801
  484MOL0     H66775   3.137   5.098   8.338 -1.4910 -1.6337 -3.2841
  484MOL0     H66776   3.345   3.821   7.405  0.0879 -0.8648 -0.8902
  484MOL0     H66777   3.108   3.855   7.474 -4.7183  1.5443 -1.3300
  484MOL0     H66778   2.747   3.805   7.635 -0.9573 -1.2531  0.4655
  484MOL0     H66779   2.510   3.847   7.735  1.3331  0.5511 -0.3041
  484MOL0     H66780   2.357   3.918   7.863 -3.4396 -0.7948  1.1299
  484MOL0     H66781   2.384   4.082   7.890  1.3477 -4.1530  0.8502
  484MOL0     H66782   2.135   3.935   7.790  0.2311 -0.5821 -1.5410
  484MOL0     H66783   2.144   4.107   7.764  1.3613  2.4261  1.8724
  484MOL0     H66784   2.023   4.001   7.979 -0.3750  0.9468  0.2916
  484MOL0     H66785   2.193   3.954   8.032  1.8466  1.2029 -0.8240
  484MOL0     H66786   2.073   4.233   8.039 -0.6316  0.1816 -0.3712
  484MOL0     H66787   2.248   4.195   8.044 -0.3709 -0.7902  2.2994
  484MOL0     H66788   2.149   4.080   8.432 -1.7716 -1.2386  0.1317
  484MOL0     H66789   2.480   4.207   7.529  2.0958  1.5269  1.3492
  484MOL0     H66790   2.764   4.265   7.377  0.7013 -0.3809 -0.0827
  484MOL0     H66791   2.718   4.118   7.279 -0.6713 -1.6694  0.8466
  484MOL0     H66792   2.603   4.245   7.331  1.1276  0.2069 -0.9388
  485MOL0     O66793   3.868   8.004   4.131  0.0379  0.8165  0.4472
  485MOL0     C66794   3.885   8.086   4.042 -0.2237 -0.1457  0.4126
  485MOL0     O66795   4.004   8.135   3.994  0.1643  0.0587 -0.2385
  485MOL0     C66796   4.108   8.152   4.080  0.7861  0.5595 -0.8153
  485MOL0     C66797   4.227   8.083   4.047 -0.4356 -0.5325 -0.4505
  485MOL0     C66798   4.338   8.099   4.132 -0.1351  0.0432 -0.4680
  485MOL0     C66799   4.332   8.171   4.255  0.1829 -0.0408 -0.0389
  485MOL0     O66800   4.434   8.172   4.347  0.3833  0.1826  0.1756
  485MOL0     C66801   4.402   8.094   4.458  0.4245 -0.4177  0.8583
  485MOL0     C66802   4.525   8.026   4.511 -0.8149  0.4481 -0.2767
  485MOL0     C66803   4.502   7.929   4.640  0.0532 -0.4685  0.6178
  485MOL0     C66804   4.451   8.011   4.767  0.1307  0.0248  0.1796
  485MOL0     C66805   4.523   7.986   4.898  1.0827 -0.1497 -0.3530
  485MOL0     C66806   4.458   8.073   5.018  0.0834 -0.5773  0.5723
  485MOL0     C66807   4.538   8.045   5.145  0.0683  0.7134  0.3579
  485MOL0     C66808   4.504   7.917   5.213 -0.1110  0.7001  0.3336
  485MOL0     N66809   4.580   7.900   5.335 -0.2164 -0.1439  0.1359
  485MOL0     C66810   4.549   7.973   5.438 -0.5280  1.2222  0.3586
  485MOL0     C66811   4.656   7.948   5.520  0.5747  0.0349 -0.0738
  485MOL0     C66812   4.676   8.002   5.664  0.9131  0.2815  0.9267
  485MOL0     C66813   4.595   8.124   5.712 -0.2036  0.1071  0.1025
  485MOL0     C66814   4.599   8.244   5.611 -0.1341 -0.0583 -0.5662
  485MOL0     C66815   4.733   8.295   5.563  0.5427 -0.2371  0.4298
  485MOL0     O66816   4.811   8.318   5.677  0.4223  0.6904 -0.0742
  485MOL0     C66817   4.934   8.350   5.643  0.7683 -0.1303 -0.1796
  485MOL0     C66818   4.974   8.482   5.660 -0.4397  0.2386 -0.4916
  485MOL0     C66819   5.105   8.524   5.628  0.0034  0.0381 -0.2673
  485MOL0     C66820   5.143   8.659   5.676 -0.1567 -0.2157  0.0007
  485MOL0     C66821   5.202   8.434   5.585 -0.1032  0.4337 -0.4347
  485MOL0     C66822   5.344   8.468   5.555 -0.7937 -0.8202 -0.8488
  485MOL0     O66823   5.438   8.371   5.579 -0.7692  0.3548  0.1487
  485MOL0     C66824   5.572   8.399   5.556 -0.4958 -0.0977  0.5208
  485MOL0     C66825   5.646   8.334   5.458  0.0648  0.2832 -0.0647
  485MOL0     C66826   5.784   8.349   5.449  0.1318 -0.7662 -0.1000
  485MOL0     C66827   5.856   8.428   5.538  0.0379 -0.3224 -0.6119
  485MOL0     O66828   5.993   8.426   5.536 -0.0813  0.5947 -0.2508
  485MOL0     C66829   6.072   8.486   5.641 -0.1978 -0.7515  0.2794
  485MOL0     C66830   6.221   8.456   5.630 -0.3809 -0.3253  0.3543
  485MOL0     C66831   6.296   8.536   5.742 -0.0264  0.6307 -0.5926
  485MOL0     C66832   6.437   8.479   5.751 -0.2007 -0.3587 -0.2445
  485MOL0     C66833   6.541   8.589   5.733 -0.8469 -0.2184 -0.1991
  485MOL0     C66834   6.676   8.530   5.757 -0.2598  0.3290 -0.8762
  485MOL0     C66835   6.789   8.629   5.760  1.0790 -0.4287  0.6525
  485MOL0     C66836   6.755   8.749   5.857 -0.6787  0.1287 -0.0099
  485MOL0    Cl66837   6.900   8.825   5.898  0.0119 -0.0101  0.3940
  485MOL0     C66838   5.782   8.497   5.638  0.6029  0.6445 -0.9429
  485MOL0     C66839   5.640   8.482   5.640  1.3272 -0.1542 -0.2307
  485MOL0     O66840   5.371   8.576   5.508  0.0226 -0.3315 -0.2167
  485MOL0     C66841   5.163   8.305   5.567 -0.0563  0.2484 -0.8807
  485MOL0     C66842   5.030   8.262   5.596 -0.1766  0.2120 -0.4683
  485MOL0     N66843   4.754   7.876   5.454  0.2858  0.0226 -0.3399
  485MOL0     N66844   4.711   7.861   5.341  0.2303  0.3147 -0.0229
  485MOL0     C66845   4.212   8.249   4.279  0.1967  1.3067 -0.8496
  485MOL0     C66846   4.098   8.229   4.200  0.1872  0.5370 -0.0268
  485MOL0     C66847   3.773   8.114   3.951  0.7811 -0.6705  0.6626
  485MOL0     C66848   3.806   8.196   3.837  0.3719 -0.0118  0.1082
  485MOL0     C66849   3.710   8.232   3.744  0.5723 -0.6414  0.1791
  485MOL0     C66850   3.572   8.202   3.763  0.8736 -0.6627 -0.0502
  485MOL0     O66851   3.492   8.214   3.652  0.2288 -0.2784  0.1502
  485MOL0     C66852   3.544   8.183   3.525 -0.3050  0.4240 -0.0968
  485MOL0     C66853   3.430   8.185   3.428 -0.3072 -0.1259 -0.1526
  485MOL0     C66854   3.477   8.173   3.282  1.1057 -0.3640  0.3052
  485MOL0     C66855   3.366   8.140   3.179 -0.1586 -0.4146 -0.0353
  485MOL0     C66856   3.427   8.146   3.046  0.2689  0.5402  0.3895
  485MOL0     C66857   3.465   8.140   2.934  0.4141  0.3491  0.3264
  485MOL0     C66858   3.533   8.128   3.877  0.1398 -0.1811 -0.1607
  485MOL0     C66859   3.629   8.087   3.978 -1.0467 -0.9965 -0.3289
  485MOL0     C66860   3.574   8.006   4.098 -0.2638 -0.6576 -0.4067
  485MOL0     H66861   4.239   8.023   3.958  0.6642 -1.6042  0.3914
  485MOL0     H66862   4.427   8.038   4.119 -0.9989 -1.9890  2.1766
  485MOL0     H66863   4.335   8.010   4.440  1.2035 -1.1447  1.2807
  485MOL0     H66864   4.358   8.155   4.537 -0.5651 -2.3738  1.8967
  485MOL0     H66865   4.555   7.952   4.436 -2.8014 -2.5532  1.6466
  485MOL0     H66866   4.611   8.090   4.534  0.3736 -0.7062 -1.3350
  485MOL0     H66867   4.439   7.843   4.615  1.2334 -0.8969 -1.0628
  485MOL0     H66868   4.602   7.892   4.665  0.4903  1.9806  2.9259
  485MOL0     H66869   4.454   8.118   4.744 -0.5479  0.1851  0.8073
  485MOL0     H66870   4.354   7.977   4.802  0.3548 -1.6206 -0.6911
  485MOL0     H66871   4.628   8.011   4.884  0.4691  2.3310 -1.0322
  485MOL0     H66872   4.508   7.879   4.912  0.5859 -0.3010 -1.8788
  485MOL0     H66873   4.464   8.179   4.992  4.0759 -0.3394  1.8905
  485MOL0     H66874   4.357   8.030   5.023  0.6740 -2.0018  0.9026
  485MOL0     H66875   4.518   8.127   5.214 -0.3638 -0.9458  2.3042
  485MOL0     H66876   4.646   8.037   5.127  0.2070 -0.2446  1.5341
  485MOL0     H66877   4.399   7.928   5.239  0.3320  1.4328  1.9246
  485MOL0     H66878   4.517   7.826   5.153 -0.9309  0.8583 -0.0906
  485MOL0     H66879   4.459   8.030   5.459 -0.7657  2.1915 -2.8163
  485MOL0     H66880   4.782   8.022   5.679  1.3808 -0.9256 -0.5063
  485MOL0     H66881   4.639   7.921   5.728  0.4595  1.5597  2.3640
  485MOL0     H66882   4.489   8.098   5.715 -1.4047  3.9953 -1.9995
  485MOL0     H66883   4.632   8.153   5.811 -2.0685 -3.8472  2.2080
  485MOL0     H66884   4.540   8.204   5.528 -1.2414  0.4068 -0.0205
  485MOL0     H66885   4.545   8.324   5.663 -0.8249 -0.9929  0.1942
  485MOL0     H66886   4.770   8.223   5.489 -1.9589  1.6963 -2.9630
  485MOL0     H66887   4.714   8.380   5.498  0.1591 -1.2280 -0.7847
  485MOL0     H66888   4.902   8.544   5.713 -1.8017  0.3126 -2.3209
  485MOL0     H66889   5.241   8.645   5.721  0.0190  0.1230 -0.2787
  485MOL0     H66890   5.072   8.693   5.752  1.6431 -0.8795  2.0735
  485MOL0     H66891   5.152   8.722   5.587 -1.0179 -1.1255 -0.7697
  485MOL0     H66892   5.592   8.274   5.385 -3.5755  1.9888  1.0221
  485MOL0     H66893   5.838   8.304   5.366  0.1860  1.2906 -1.2304
  485MOL0     H66894   6.041   8.590   5.629  0.8743 -0.7668 -3.9734
  485MOL0     H66895   6.035   8.451   5.738 -0.7013 -0.5931  0.1490
  485MOL0     H66896   6.238   8.352   5.656  2.1299 -0.0253  0.1183
  485MOL0     H66897   6.266   8.472   5.532  2.7886  1.0872  1.9162
  485MOL0     H66898   6.240   8.534   5.836 -1.1456 -3.1796 -1.1777
  485MOL0     H66899   6.304   8.636   5.698  1.7930 -0.1871 -2.2869
  485MOL0     H66900   6.452   8.402   5.675  0.1275 -2.1604  1.5599
  485MOL0     H66901   6.442   8.426   5.846  0.1997 -1.5387 -0.9030
  485MOL0     H66902   6.542   8.634   5.634  2.7362  0.1516 -0.1273
  485MOL0     H66903   6.519   8.662   5.812  0.9013  0.6055 -0.4263
  485MOL0     H66904   6.694   8.466   5.670  1.1888  0.2792 -0.5545
  485MOL0     H66905   6.688   8.458   5.838  1.0998  1.4682 -0.0292
  485MOL0     H66906   6.804   8.672   5.660 -2.3285  1.1840  0.6665
  485MOL0     H66907   6.880   8.576   5.789  0.0617 -1.8680  1.3715
  485MOL0     H66908   6.705   8.716   5.948 -1.5654 -0.3151 -0.6451
  485MOL0     H66909   6.694   8.828   5.813  3.4798  2.9243 -1.3500
  485MOL0     H66910   5.823   8.562   5.715  2.2864  0.1411 -1.3678
  485MOL0     H66911   5.592   8.525   5.728  2.3081 -0.4571  0.4637
  485MOL0     H66912   5.230   8.233   5.522  1.1348  1.0866 -0.5010
  485MOL0     H66913   4.995   8.161   5.579 -0.9312  0.1772  1.0840
  485MOL0     H66914   4.211   8.295   4.378 -0.1846 -2.6466  1.1756
  485MOL0     H66915   4.006   8.283   4.222  0.0995  0.3908 -0.0377
  485MOL0     H66916   3.910   8.210   3.809  1.1592 -1.0122  2.2553
  485MOL0     H66917   3.749   8.284   3.657  1.4349 -0.0838  0.8823
  485MOL0     H66918   3.615   8.259   3.492  0.7783 -0.7816 -0.5765
  485MOL0     H66919   3.593   8.086   3.517  2.0408  1.5757 -0.3319
  485MOL0     H66920   3.372   8.277   3.440 -1.0406 -0.5900 -0.0721
  485MOL0     H66921   3.361   8.102   3.448  0.4632 -0.4599  1.2293
  485MOL0     H66922   3.538   8.260   3.257 -0.5666  1.2579  1.5268
  485MOL0     H66923   3.537   8.081   3.284  0.5258 -0.7525  1.6645
  485MOL0     H66924   3.286   8.214   3.191  0.0591 -0.0856 -0.5997
  485MOL0     H66925   3.322   8.045   3.210  0.3432  0.3168  3.3779
  485MOL0     H66926   3.500   8.133   2.833 -1.2150  0.6292 -0.2993
  485MOL0     H66927   3.428   8.104   3.893 -0.2337  1.4960  0.0887
  485MOL0     H66928   3.626   7.911   4.112  3.3840  1.1687 -0.2882
  485MOL0     H66929   3.583   8.061   4.193 -0.4168  1.9614 -1.8170
  485MOL0     H66930   3.473   7.970   4.079 -0.3415 -0.2233 -0.8367
  486MOL0     O66931   4.863   4.431   9.278 -0.7067  0.0502 -0.0023
  486MOL0     C66932   4.780   4.371   9.207 -0.4287 -0.8548 -1.0913
  486MOL0     O66933   4.815   4.293   9.106  0.5740  0.3358 -0.6423
  486MOL0     C66934   4.944   4.315   9.060 -0.2792  0.3669  0.3903
  486MOL0     C66935   5.047   4.229   9.106  0.9280  0.1914 -0.0339
  486MOL0     C66936   5.175   4.229   9.050 -0.2091  0.4646  0.8132
  486MOL0     C66937   5.209   4.332   8.965  0.5126 -0.6987  0.8862
  486MOL0     O66938   5.323   4.324   8.895  0.3553 -0.4456 -0.3389
  486MOL0     C66939   5.432   4.368   8.976 -0.4621 -1.0982  0.3475
  486MOL0     C66940   5.579   4.315   8.947 -0.5637  0.4433 -0.8925
  486MOL0     C66941   5.601   4.158   8.985 -0.4953 -0.0213  0.8810
  486MOL0     C66942   5.592   4.067   8.861 -0.9306  0.0243  0.6952
  486MOL0     C66943   5.581   3.916   8.904 -0.0750 -0.6355  0.4534
  486MOL0     C66944   5.597   3.813   8.788 -0.3275 -0.3061 -0.1946
  486MOL0     C66945   5.557   3.672   8.830  0.1974 -0.6398 -0.1887
  486MOL0     C66946   5.575   3.566   8.718 -0.5815  0.1699 -0.0718
  486MOL0     N66947   5.554   3.435   8.769  0.8779  0.4325  0.2075
  486MOL0     C66948   5.648   3.359   8.840  0.8601 -0.2804 -0.3765
  486MOL0     C66949   5.581   3.242   8.871 -0.3884 -0.7890 -0.5642
  486MOL0     C66950   5.641   3.127   8.943  0.1300 -0.3444  0.7714
  486MOL0     C66951   5.648   3.145   9.097  0.8482 -0.5064 -0.0523
  486MOL0     C66952   5.713   3.037   9.165 -0.0746 -0.2886 -0.5517
  486MOL0     C66953   5.723   3.067   9.319  0.2246  0.0915 -0.5487
  486MOL0     O66954   5.825   2.978   9.374  0.1293 -0.5285 -0.5611
  486MOL0     C66955   5.958   3.023   9.362 -0.3953 -0.3006  0.1433
  486MOL0     C66956   6.001   3.132   9.288  0.6155  0.7819 -0.1741
  486MOL0     C66957   6.133   3.163   9.264  0.0318 -0.4099 -0.1326
  486MOL0     C66958   6.165   3.268   9.161  0.2781 -0.2727  0.0465
  486MOL0     C66959   6.232   3.093   9.338 -0.1935 -0.3190 -0.1459
  486MOL0     C66960   6.382   3.115   9.333 -0.3686  0.0930 -0.3108
  486MOL0     O66961   6.463   3.062   9.435 -0.0256 -0.7464  0.0131
  486MOL0     C66962   6.599   3.068   9.420 -0.3750  0.4785 -0.7057
  486MOL0     C66963   6.667   3.142   9.519 -0.1848  0.1373 -0.1743
  486MOL0     C66964   6.803   3.168   9.511 -0.7066 -0.5355 -0.7285
  486MOL0     C66965   6.876   3.099   9.407  0.5039  0.2677  0.1901
  486MOL0     O66966   7.017   3.088   9.411  0.6468 -0.4868  0.1192
  486MOL0     C66967   7.090   3.179   9.479 -0.0580  0.1514 -0.5227
  486MOL0     C66968   7.241   3.168   9.447 -0.0765  0.2219  0.1164
  486MOL0     C66969   7.269   3.206   9.298  0.1192  0.0649  0.2511
  486MOL0     C66970   7.422   3.232   9.284  0.0656  0.1249 -0.1114
  486MOL0     C66971   7.459   3.232   9.127 -0.3692 -0.2547 -0.3266
  486MOL0     C66972   7.619   3.231   9.101 -0.0794 -0.3654 -0.3038
  486MOL0     C66973   7.645   3.227   8.947 -0.7052 -0.3252  0.4468
  486MOL0     C66974   7.795   3.217   8.927  0.3683  0.1462  0.3145
  486MOL0    Cl66975   7.841   3.048   8.937  0.2869  0.0792 -0.1194
  486MOL0     C66976   6.802   3.019   9.311  0.1900  0.2738 -0.0829
  486MOL0     C66977   6.665   3.000   9.328  0.2300 -0.8472  0.1130
  486MOL0     O66978   6.423   3.188   9.239  0.3133  0.5901 -1.1153
  486MOL0     C66979   6.190   2.983   9.421 -0.7442 -0.2773 -0.4224
  486MOL0     C66980   6.054   2.955   9.426  0.2272 -0.0700 -0.0376
  486MOL0     N66981   5.444   3.250   8.833  0.6671 -0.7212  0.0028
  486MOL0     N66982   5.429   3.360   8.770 -0.7898 -0.3270 -0.6367
  486MOL0     C66983   5.105   4.431   8.923 -0.3960  1.2105 -0.1343
  486MOL0     C66984   4.973   4.416   8.969 -0.2004  0.1704  0.3582
  486MOL0     C66985   4.635   4.372   9.261  0.5102  0.0842 -0.0840
  486MOL0     C66986   4.564   4.246   9.239  1.3900  0.9555 -0.5120
  486MOL0     C66987   4.428   4.242   9.265 -0.5601  0.6648 -0.1746
  486MOL0     C66988   4.369   4.349   9.334 -1.0161  0.5826 -0.5287
  486MOL0     O66989   4.239   4.328   9.374 -0.2447  0.2083 -0.6966
  486MOL0     C66990   4.141   4.414   9.301 -0.1622 -0.3558 -0.7416
  486MOL0     C66991   4.080   4.320   9.182  0.1376 -0.7135  0.0130
  486MOL0     C66992   3.986   4.211   9.234 -0.5509 -0.6858 -0.3092
  486MOL0     C66993   3.926   4.128   9.126 -0.4494 -1.0130 -0.1648
  486MOL0     C66994   3.841   4.023   9.181 -0.5724 -0.0374  0.1838
  486MOL0     C66995   3.782   3.918   9.195  0.1853 -0.4901  0.2359
  486MOL0     C66996   4.432   4.478   9.343  0.3634  0.5855 -0.6664
  486MOL0     C66997   4.566   4.489   9.304 -0.0710  0.4935  0.8254
  486MOL0     C66998   4.628   4.625   9.297 -0.1084 -0.0300  0.4701
  486MOL0     H66999   5.011   4.146   9.167 -2.6713  0.2147 -1.8335
  486MOL0     H67000   5.232   4.138   9.067 -0.5513  0.0356 -0.2776
  486MOL0     H67001   5.420   4.347   9.083  1.1849 -2.1674  0.3530
  486MOL0     H67002   5.440   4.476   8.961 -1.7144 -1.4794 -5.6233
  486MOL0     H67003   5.611   4.333   8.844  0.2911  2.3920 -0.3328
  486MOL0     H67004   5.651   4.367   9.011  1.5225 -1.3791 -1.6611
  486MOL0     H67005   5.702   4.148   9.027 -1.8715 -2.1542  4.0080
  486MOL0     H67006   5.536   4.130   9.068 -0.2445  3.2115  2.3326
  486MOL0     H67007   5.505   4.103   8.805 -1.8127 -0.6068  1.6100
  486MOL0     H67008   5.671   4.070   8.785  0.4628 -2.1696  1.9591
  486MOL0     H67009   5.483   3.896   8.949 -1.0290 -0.7405 -1.5266
  486MOL0     H67010   5.650   3.907   8.988  1.1838 -0.8386 -0.5762
  486MOL0     H67011   5.536   3.850   8.705  1.6719  1.5485 -0.9156
  486MOL0     H67012   5.703   3.816   8.764 -0.3635  1.1643 -0.2606
  486MOL0     H67013   5.451   3.684   8.856  0.3271 -3.2421  1.8559
  486MOL0     H67014   5.605   3.637   8.921 -3.9682  0.4249  2.6738
  486MOL0     H67015   5.504   3.589   8.639 -0.2454  1.0857 -0.1163
  486MOL0     H67016   5.680   3.572   8.686 -0.3516  0.9706  0.7787
  486MOL0     H67017   5.756   3.373   8.846  0.6515  1.3406  0.0029
  486MOL0     H67018   5.742   3.113   8.904 -0.3536  0.0397 -0.6725
  486MOL0     H67019   5.574   3.046   8.911 -3.8301  2.8296  0.2485
  486MOL0     H67020   5.689   3.244   9.119 -0.9084  0.5133 -1.0857
  486MOL0     H67021   5.543   3.152   9.129  0.3739  2.1815 -1.8428
  486MOL0     H67022   5.654   2.947   9.149 -1.0447  0.2165  0.1052
  486MOL0     H67023   5.813   3.030   9.121  0.9952  1.4235  1.4477
  486MOL0     H67024   5.727   3.173   9.345 -2.4661 -0.4228  2.7375
  486MOL0     H67025   5.628   3.037   9.365  1.9570 -2.3490  1.7423
  486MOL0     H67026   5.928   3.195   9.239 -1.6017 -1.1468  0.4795
  486MOL0     H67027   6.070   3.311   9.128 -0.4467 -0.8903  1.2463
  486MOL0     H67028   6.216   3.215   9.080  0.8121 -0.5185  0.5350
  486MOL0     H67029   6.232   3.350   9.191  1.7229 -0.4221 -2.4539
  486MOL0     H67030   6.608   3.191   9.596  0.6153 -0.2807  0.7318
  486MOL0     H67031   6.847   3.221   9.595  0.4388  1.8823 -2.7109
  486MOL0     H67032   7.056   3.278   9.448  1.9300  0.5475 -1.6245
  486MOL0     H67033   7.072   3.167   9.586  0.0586  0.2632 -0.4898
  486MOL0     H67034   7.300   3.227   9.517 -2.3953  2.4314  0.3489
  486MOL0     H67035   7.265   3.063   9.468 -3.6157 -0.2816  2.5820
  486MOL0     H67036   7.212   3.298   9.279 -1.4429 -0.8166  0.4801
  486MOL0     H67037   7.256   3.114   9.241 -0.4171 -0.2454  0.8751
  486MOL0     H67038   7.479   3.154   9.334  0.8937  1.4078  0.9951
  486MOL0     H67039   7.438   3.326   9.336 -2.1693 -1.0005  2.9049
  486MOL0     H67040   7.417   3.139   9.089  0.5527 -0.6543 -0.3906
  486MOL0     H67041   7.419   3.321   9.077 -1.7343 -1.2522 -1.0805
  486MOL0     H67042   7.664   3.142   9.145  1.5917 -0.0439 -1.2765
  486MOL0     H67043   7.658   3.322   9.147  1.7039 -1.3954  0.3057
  486MOL0     H67044   7.604   3.318   8.902  1.2486  1.3480  1.8479
  486MOL0     H67045   7.603   3.132   8.914 -0.4474 -0.5079  0.6338
  486MOL0     H67046   7.850   3.284   8.995  1.5446 -0.5022  0.0292
  486MOL0     H67047   7.834   3.244   8.829 -2.5545  0.8292 -0.7271
  486MOL0     H67048   6.854   2.981   9.223 -2.7324  1.6648 -2.5774
  486MOL0     H67049   6.597   2.945   9.265 -1.1330 -0.9756  1.6172
  486MOL0     H67050   6.256   2.935   9.493  1.8544  1.8833 -1.1976
  486MOL0     H67051   6.026   2.878   9.497  1.7641  1.0113  1.8436
  486MOL0     H67052   5.125   4.501   8.842  2.6078  1.2382  0.5193
  486MOL0     H67053   4.902   4.485   8.926  0.5073  0.4134 -0.4521
  486MOL0     H67054   4.622   4.159   9.211 -1.1266 -1.4284  1.2162
  486MOL0     H67055   4.373   4.152   9.241  0.2700  1.1042 -4.5033
  486MOL0     H67056   4.058   4.436   9.369  0.3899 -2.7984  0.8369
  486MOL0     H67057   4.184   4.503   9.254  2.6089 -1.5654 -0.7231
  486MOL0     H67058   4.160   4.292   9.112 -0.6990  0.1259 -1.3312
  486MOL0     H67059   4.016   4.390   9.127 -1.1253 -2.0790 -0.3097
  486MOL0     H67060   4.045   4.140   9.293  1.1924  0.3703 -0.7152
  486MOL0     H67061   3.911   4.262   9.296  1.3439 -0.7725  2.1965
  486MOL0     H67062   4.003   4.083   9.062 -2.2978 -3.7227 -0.6550
  486MOL0     H67063   3.873   4.194   9.056  0.0067  0.5867  0.9409
  486MOL0     H67064   3.730   3.833   9.232  2.1677 -1.0397  1.9752
  486MOL0     H67065   4.378   4.569   9.370  2.0671  1.6288 -0.6180
  486MOL0     H67066   4.562   4.707   9.327 -0.1002 -0.3718  1.4494
  486MOL0     H67067   4.714   4.629   9.365  0.0439 -1.2325  0.3574
  486MOL0     H67068   4.669   4.638   9.196 -0.0918 -0.2099  0.4533
  487MOL0     O67069   0.572   4.914   1.671  0.6038 -0.6372  0.3515
  487MOL0     C67070   0.506   5.005   1.619  0.1173  0.4897  0.4107
  487MOL0     O67071   0.538   5.133   1.608  0.2916  0.0501  0.0499
  487MOL0     C67072   0.634   5.192   1.684 -0.2186 -0.2131 -0.1255
  487MOL0     C67073   0.655   5.148   1.820 -0.1528 -0.4971 -0.3559
  487MOL0     C67074   0.748   5.214   1.903 -0.3478  0.2617  0.7028
  487MOL0     C67075   0.825   5.327   1.848  0.4423  0.7257 -0.2507
  487MOL0     O67076   0.926   5.381   1.928 -0.2743  0.1443 -0.0891
  487MOL0     C67077   1.034   5.452   1.866  0.8843 -0.2352 -0.5166
  487MOL0     C67078   1.127   5.514   1.971 -0.2136 -0.2602  0.7500
  487MOL0     C67079   1.249   5.576   1.907 -0.8945 -0.2067  0.7769
  487MOL0     C67080   1.320   5.644   2.018 -0.0910  0.5359 -0.5773
  487MOL0     C67081   1.449   5.717   1.967 -0.1492 -0.2421 -0.0254
  487MOL0     C67082   1.537   5.767   2.076  0.5341  0.7462 -0.0891
  487MOL0     C67083   1.626   5.874   2.013 -0.1230 -0.1105 -0.1945
  487MOL0     C67084   1.737   5.902   2.117  0.2614  0.0178  0.1297
  487MOL0     N67085   1.838   6.000   2.073 -0.3966 -0.5104 -0.4386
  487MOL0     C67086   1.857   6.119   2.144  0.4120 -0.1206 -0.0086
  487MOL0     C67087   1.972   6.164   2.086  0.1783  0.1630  0.2510
  487MOL0     C67088   2.041   6.296   2.118  0.3706 -0.4628 -0.1208
  487MOL0     C67089   2.187   6.282   2.155 -0.0230 -0.3723 -0.1316
  487MOL0     C67090   2.252   6.377   2.253  0.7016  0.9764  0.5939
  487MOL0     C67091   2.255   6.521   2.211  0.0382  0.0009 -0.1469
  487MOL0     O67092   2.314   6.528   2.075 -0.3517  0.2409  0.0694
  487MOL0     C67093   2.455   6.517   2.075 -0.0574 -0.9584 -0.0080
  487MOL0     C67094   2.538   6.585   2.171  0.3111  0.6658  0.4438
  487MOL0     C67095   2.679   6.562   2.167 -0.4764 -0.3084  0.6537
  487MOL0     C67096   2.777   6.638   2.260  0.9223  0.2383 -0.2226
  487MOL0     C67097   2.732   6.457   2.089 -0.3315 -1.1147 -0.0296
  487MOL0     C67098   2.873   6.424   2.092 -0.3624  0.6768  0.2417
  487MOL0     O67099   2.966   6.524   2.069  0.7123  0.0965 -0.4515
  487MOL0     C67100   3.099   6.499   2.090  0.1919  0.7221 -0.0567
  487MOL0     C67101   3.152   6.510   2.218 -0.2433  0.5552  0.3420
  487MOL0     C67102   3.299   6.489   2.236 -0.4762 -0.2874  0.0435
  487MOL0     C67103   3.373   6.449   2.123 -0.5451  0.2011  0.0157
  487MOL0     O67104   3.505   6.416   2.160 -0.1154  0.0481  0.0036
  487MOL0     C67105   3.593   6.368   2.053  1.1150  0.0243  0.7224
  487MOL0     C67106   3.731   6.332   2.112  0.4419 -0.1792  0.8042
  487MOL0     C67107   3.792   6.444   2.188  0.1982 -0.3033  0.4810
  487MOL0     C67108   3.865   6.547   2.095 -0.1032 -1.0205 -0.6883
  487MOL0     C67109   3.899   6.679   2.178 -0.2112  0.8624  0.1481
  487MOL0     C67110   4.026   6.736   2.120 -0.5720 -0.9949  0.6381
  487MOL0     C67111   4.028   6.781   1.970  0.8926  0.1730 -0.1000
  487MOL0     C67112   4.108   6.916   1.954 -0.5859 -0.3583 -0.5482
  487MOL0    Cl67113   4.084   6.967   1.783  0.2067  0.2151  0.0196
  487MOL0     C67114   3.310   6.422   1.996 -0.1515 -0.2566  0.3124
  487MOL0     C67115   3.175   6.465   1.982 -0.4920  0.3597 -0.1727
  487MOL0     O67116   2.899   6.307   2.124  0.7140 -0.4471 -0.1559
  487MOL0     C67117   2.651   6.385   2.003  0.0142  0.6779  0.7613
  487MOL0     C67118   2.511   6.416   1.997 -0.1545 -0.4020  0.3828
  487MOL0     N67119   2.024   6.066   1.996  0.1371  0.0446 -0.3894
  487MOL0     N67120   1.944   5.970   2.001 -0.1814 -0.7970  0.3065
  487MOL0     C67121   0.799   5.369   1.715  0.1731  0.1440 -0.0364
  487MOL0     C67122   0.698   5.303   1.635 -0.1174  0.3714  0.0776
  487MOL0     C67123   0.386   4.966   1.540  0.3372  0.1851  0.1156
  487MOL0     C67124   0.404   4.856   1.462  0.6668  0.5085  0.2642
  487MOL0     C67125   0.292   4.805   1.391 -0.1295 -0.2279 -0.3346
  487MOL0     C67126   0.165   4.856   1.413  0.0536  0.3292 -0.1348
  487MOL0     O67127   0.053   4.791   1.362 -0.4687  0.0808 -0.2810
  487MOL0     C67128  -0.081   4.800   1.406  0.1659 -0.4538 -0.7459
  487MOL0     C67129  -0.156   4.688   1.350 -0.1852  0.3746  0.2528
  487MOL0     C67130  -0.300   4.678   1.393 -0.4485  0.2382  0.0914
  487MOL0     C67131  -0.386   4.799   1.360 -0.4565 -0.3050  0.5011
  487MOL0     C67132  -0.531   4.779   1.374  0.4355  0.6520 -0.1599
  487MOL0     C67133  -0.652   4.758   1.387 -0.0390  0.1775 -0.2728
  487MOL0     C67134   0.150   4.967   1.503  0.3387  0.8478  0.3808
  487MOL0     C67135   0.258   5.020   1.574  0.3523 -0.0364  0.3121
  487MOL0     C67136   0.238   5.118   1.694  0.5185 -0.4932 -0.4635
  487MOL0     H67137   0.599   5.067   1.865 -0.6127  0.5144  0.9733
  487MOL0     H67138   0.768   5.173   2.001  0.7953 -4.6166 -1.2680
  487MOL0     H67139   0.988   5.533   1.809 -1.2460 -0.6340  0.5324
  487MOL0     H67140   1.084   5.384   1.797  0.8967  1.5707 -2.4185
  487MOL0     H67141   1.078   5.583   2.041  3.3750 -0.2529  3.5828
  487MOL0     H67142   1.161   5.425   2.025  1.2615  0.0925  0.4486
  487MOL0     H67143   1.316   5.506   1.855 -0.0742  2.1199 -1.5235
  487MOL0     H67144   1.220   5.649   1.831  0.5484 -0.1025  0.3045
  487MOL0     H67145   1.265   5.713   2.083  1.4143  1.3442 -0.1286
  487MOL0     H67146   1.349   5.562   2.085 -3.9031  0.5540  1.3548
  487MOL0     H67147   1.403   5.792   1.902 -0.9100 -1.7306 -1.2730
  487MOL0     H67148   1.505   5.648   1.904  2.7218  1.8979 -0.0413
  487MOL0     H67149   1.487   5.801   2.167  0.5334  1.0760 -0.2112
  487MOL0     H67150   1.605   5.688   2.109 -1.4845 -0.9725  0.2626
  487MOL0     H67151   1.569   5.967   2.005  0.3013  0.0675 -1.4264
  487MOL0     H67152   1.662   5.846   1.913 -0.5498  0.8405 -0.6250
  487MOL0     H67153   1.696   5.924   2.216 -0.1516  1.6057 -0.3669
  487MOL0     H67154   1.791   5.807   2.129 -2.2539 -1.3603  1.3328
  487MOL0     H67155   1.802   6.148   2.234 -2.4245  0.0002 -1.6657
  487MOL0     H67156   1.989   6.334   2.206  1.3219 -0.2132  0.3552
  487MOL0     H67157   2.043   6.361   2.029  0.3974 -1.5775 -0.9615
  487MOL0     H67158   2.197   6.185   2.205  0.0665 -1.2606 -1.7881
  487MOL0     H67159   2.246   6.288   2.063  2.2330 -3.4616  0.9494
  487MOL0     H67160   2.199   6.373   2.348 -1.7514  2.4328 -0.5919
  487MOL0     H67161   2.353   6.338   2.270 -0.4286 -1.6194  1.8561
  487MOL0     H67162   2.153   6.556   2.194 -0.1921  0.0964  1.3243
  487MOL0     H67163   2.308   6.577   2.288 -2.3256  0.3191  1.3710
  487MOL0     H67164   2.488   6.662   2.229 -1.7642 -1.2001  1.2493
  487MOL0     H67165   2.719   6.714   2.314  2.0666  2.3040 -1.7606
  487MOL0     H67166   2.852   6.696   2.207 -0.9907 -0.1189 -3.6274
  487MOL0     H67167   2.826   6.570   2.330 -1.0271  0.7221  1.7480
  487MOL0     H67168   3.091   6.529   2.306 -1.0813 -0.8195  0.0878
  487MOL0     H67169   3.355   6.502   2.327  0.4344  1.3746 -0.6975
  487MOL0     H67170   3.548   6.285   1.998 -0.8365  0.8874  0.9169
  487MOL0     H67171   3.616   6.447   1.980  0.4364 -1.4205 -1.1330
  487MOL0     H67172   3.726   6.249   2.183  3.0206  2.0192  3.8277
  487MOL0     H67173   3.791   6.306   2.024 -1.7672  1.8537 -1.4623
  487MOL0     H67174   3.864   6.404   2.260 -0.1299 -0.2437  0.8439
  487MOL0     H67175   3.707   6.494   2.234  0.2213  1.1151 -0.9218
  487MOL0     H67176   3.801   6.581   2.013 -0.5831 -0.7129 -0.1951
  487MOL0     H67177   3.955   6.505   2.049  0.9011  0.9441 -0.6130
  487MOL0     H67178   3.816   6.749   2.163  0.7397  1.7927 -0.9299
  487MOL0     H67179   3.909   6.643   2.281 -0.3368 -2.0944 -0.7706
  487MOL0     H67180   4.107   6.665   2.139  2.1216  1.3959 -1.0873
  487MOL0     H67181   4.047   6.822   2.185  0.9113 -3.3577  3.5374
  487MOL0     H67182   3.927   6.781   1.928  2.0678 -0.0431 -3.2039
  487MOL0     H67183   4.083   6.699   1.922  1.4041 -0.2750  1.2110
  487MOL0     H67184   4.214   6.896   1.971 -0.3854 -1.0068 -2.4069
  487MOL0     H67185   4.068   6.988   2.027  1.4016  2.2135 -1.8318
  487MOL0     H67186   3.356   6.392   1.902 -0.5413  1.8752 -0.6386
  487MOL0     H67187   3.116   6.446   1.893 -1.1688  2.7269 -0.3138
  487MOL0     H67188   2.698   6.306   1.946 -1.2178  0.8145 -0.4779
  487MOL0     H67189   2.440   6.366   1.932 -1.8177 -0.0042  1.7990
  487MOL0     H67190   0.859   5.446   1.666  0.3375 -0.1100 -0.2384
  487MOL0     H67191   0.671   5.322   1.531 -0.0191 -1.2328 -0.2609
  487MOL0     H67192   0.495   4.801   1.442  0.9159 -0.3808  3.3700
  487MOL0     H67193   0.312   4.727   1.319  1.4311  1.1416 -1.4588
  487MOL0     H67194  -0.083   4.795   1.516 -0.5631  1.9248 -0.5849
  487MOL0     H67195  -0.128   4.893   1.372 -1.7095 -1.7401 -1.8733
  487MOL0     H67196  -0.115   4.588   1.364 -3.8720 -1.3951 -0.3315
  487MOL0     H67197  -0.153   4.698   1.241  1.2944 -1.3169  0.1030
  487MOL0     H67198  -0.340   4.593   1.337  1.8798  0.0454 -1.3870
  487MOL0     H67199  -0.300   4.646   1.498  4.0390  0.0565  0.2104
  487MOL0     H67200  -0.373   4.835   1.258  1.3618  3.0357  1.7698
  487MOL0     H67201  -0.351   4.876   1.429 -0.8102  0.0981  0.2343
  487MOL0     H67202  -0.756   4.737   1.375  0.3880 -1.8489 -0.7626
  487MOL0     H67203   0.048   5.003   1.510  0.1984  0.4248  0.5408
  487MOL0     H67204   0.305   5.203   1.680  1.2355 -1.0990 -0.7987
  487MOL0     H67205   0.132   5.145   1.699  0.0723 -2.2020  0.1017
  487MOL0     H67206   0.253   5.067   1.790 -2.2827 -0.0594  0.3045
  488MOL0     O67207   7.092  11.011   1.599  0.0104 -0.0451  1.5285
  488MOL0     C67208   7.010  10.966   1.678  0.6287  1.1550  0.0530
  488MOL0     O67209   7.041  10.871   1.772  0.5905 -0.1988 -0.8045
  488MOL0     C67210   7.172  10.832   1.781  0.6033  1.0866  0.3345
  488MOL0     C67211   7.262  10.873   1.876  0.1472 -0.3992 -0.1950
  488MOL0     C67212   7.387  10.815   1.880 -0.6726  0.5337 -0.5268
  488MOL0     C67213   7.434  10.717   1.798  1.0403 -0.2288 -0.2925
  488MOL0     O67214   7.559  10.656   1.774  0.0754  0.0001  0.6691
  488MOL0     C67215   7.668  10.705   1.856 -0.5828 -0.0714  0.0917
  488MOL0     C67216   7.673  10.605   1.978 -0.0092 -0.0637 -0.1209
  488MOL0     C67217   7.724  10.676   2.098  0.4563 -0.7247 -0.3704
  488MOL0     C67218   7.753  10.584   2.225  0.5138 -0.7854 -0.0203
  488MOL0     C67219   7.901  10.547   2.232 -0.2887 -0.3890 -0.2042
  488MOL0     C67220   7.960  10.470   2.109  0.6529 -1.1398 -0.2271
  488MOL0     C67221   8.089  10.394   2.142 -0.0238 -0.0531  0.3041
  488MOL0     C67222   8.163  10.346   2.014 -0.3357 -0.1874 -0.8926
  488MOL0     N67223   8.259  10.257   2.076  0.3858  0.6013  0.1169
  488MOL0     C67224   8.384  10.303   2.122 -0.3087  0.2501  0.7696
  488MOL0     C67225   8.445  10.194   2.172  0.2107 -0.0807  0.4733
  488MOL0     C67226   8.590  10.201   2.213  0.6931 -0.3642 -0.8330
  488MOL0     C67227   8.591  10.205   2.373 -0.3077 -0.3353  0.7046
  488MOL0     C67228   8.727  10.168   2.425  0.7301 -1.0968 -0.6853
  488MOL0     C67229   8.717  10.137   2.574 -0.0091  1.4029 -0.5584
  488MOL0     O67230   8.737  10.251   2.667  0.4018 -0.3172  0.0937
  488MOL0     C67231   8.864  10.297   2.686  0.0750 -1.7392  0.1341
  488MOL0     C67232   8.870  10.400   2.786 -0.1590  0.1610  0.8763
  488MOL0     C67233   8.990  10.469   2.814  0.2158  0.2078  0.5545
  488MOL0     C67234   8.980  10.574   2.922  0.2384 -0.8526  0.9754
  488MOL0     C67235   9.107  10.432   2.742 -0.0305 -0.0628  0.2189
  488MOL0     C67236   9.238  10.502   2.755 -0.0514 -0.3872  0.2850
  488MOL0     O67237   9.331  10.506   2.657  0.0752  0.2091 -0.2776
  488MOL0     C67238   9.451  10.569   2.671 -0.8430  0.3111 -0.4508
  488MOL0     C67239   9.472  10.709   2.675  0.6328  0.7193  0.5467
  488MOL0     C67240   9.602  10.767   2.677  0.8431  0.5928  0.0258
  488MOL0     C67241   9.716  10.690   2.675 -0.3806 -0.1594 -0.2216
  488MOL0     O67242   9.843  10.751   2.676 -0.1545  0.7615  0.5834
  488MOL0     C67243   9.855  10.868   2.608 -0.0062 -0.4687  0.8734
  488MOL0     C67244   9.996  10.893   2.554  0.0344 -0.8739 -0.5761
  488MOL0     C67245  10.062  10.789   2.465  0.0152  0.4706  0.1705
  488MOL0     C67246   9.984  10.744   2.353  0.3993 -0.1576  0.7083
  488MOL0     C67247   9.954  10.859   2.252  0.3956 -0.7938 -0.4732
  488MOL0     C67248   9.828  10.834   2.171  0.3970  0.1308 -0.0590
  488MOL0     C67249   9.794  10.961   2.099  0.3209 -0.0383  0.4666
  488MOL0     C67250   9.650  10.956   2.037 -1.0414  0.5630 -0.3582
  488MOL0    Cl67251   9.669  10.853   1.896 -0.1333 -0.3042  0.2237
  488MOL0     C67252   9.699  10.555   2.682  0.2847 -1.0626 -0.7623
  488MOL0     C67253   9.569  10.500   2.685  0.1849 -0.3458 -0.2558
  488MOL0     O67254   9.257  10.553   2.860  0.2545 -0.4008  0.1726
  488MOL0     C67255   9.102  10.328   2.643 -0.0134  0.2944 -0.4460
  488MOL0     C67256   8.979  10.272   2.620  0.0330  0.6894  0.1927
  488MOL0     N67257   8.352  10.087   2.178 -0.4230  0.8952  0.4591
  488MOL0     N67258   8.241  10.128   2.124  0.4532 -0.3127  0.7481
  488MOL0     C67259   7.330  10.668   1.708 -0.0661 -0.3341  0.6576
  488MOL0     C67260   7.207  10.724   1.692  0.2651 -0.0991 -0.1700
  488MOL0     C67261   6.869  10.981   1.651  0.0939 -0.3793 -0.0076
  488MOL0     C67262   6.781  10.891   1.722 -0.2560  0.5231 -0.8551
  488MOL0     C67263   6.651  10.900   1.705  0.5231 -0.5994 -0.3863
  488MOL0     C67264   6.593  10.993   1.618  0.5181  0.5601  0.1086
  488MOL0     O67265   6.455  10.985   1.627  0.2644  0.3063 -0.2358
  488MOL0     C67266   6.390  11.037   1.508  0.0853  0.7826 -0.1600
  488MOL0     C67267   6.408  10.949   1.377  1.5258 -0.2534  0.7090
  488MOL0     C67268   6.316  11.020   1.272  0.6708  0.0592 -0.3012
  488MOL0     C67269   6.381  11.025   1.132  0.1685  1.1404 -0.2082
  488MOL0     C67270   6.507  11.101   1.119  0.2382  0.1270  0.4791
  488MOL0     C67271   6.602  11.170   1.094  0.3678  0.7821 -0.8342
  488MOL0     C67272   6.670  11.084   1.544 -0.3493  0.7371  1.0044
  488MOL0     C67273   6.815  11.073   1.563  2.0954  0.0766  1.0625
  488MOL0     C67274   6.899  11.170   1.478  0.5753 -0.9998 -0.2952
  488MOL0     H67275   7.218  10.943   1.946 -1.5576  1.4644 -2.9754
  488MOL0     H67276   7.464  10.855   1.945 -0.4762 -0.7459  0.0391
  488MOL0     H67277   7.648  10.810   1.881 -0.1509 -0.5762  2.9234
  488MOL0     H67278   7.765  10.706   1.804 -0.7397 -1.3942 -0.2584
  488MOL0     H67279   7.572  10.565   1.992 -0.8281  2.3961  1.6286
  488MOL0     H67280   7.733  10.518   1.950 -2.4107 -2.0148  0.3523
  488MOL0     H67281   7.814  10.736   2.083 -0.5440  1.0341  0.4575
  488MOL0     H67282   7.642  10.742   2.128  1.0737 -0.6021  1.1093
  488MOL0     H67283   7.722  10.634   2.317 -3.7130 -3.8106  0.4900
  488MOL0     H67284   7.686  10.500   2.204  0.2699 -0.1935 -1.7906
  488MOL0     H67285   7.909  10.473   2.312  3.7793 -1.6053 -1.4631
  488MOL0     H67286   7.963  10.634   2.257  0.8582 -1.8010  2.2317
  488MOL0     H67287   7.883  10.396   2.083 -2.4997  1.0860  2.0026
  488MOL0     H67288   7.969  10.534   2.022  0.3407 -1.4878 -0.5218
  488MOL0     H67289   8.070  10.308   2.207 -1.2829  1.2711  1.7624
  488MOL0     H67290   8.155  10.462   2.196  2.6114 -2.1998  0.0153
  488MOL0     H67291   8.097  10.288   1.949  1.9062 -2.1539 -1.5810
  488MOL0     H67292   8.202  10.433   1.961 -2.7928  1.9179  0.5222
  488MOL0     H67293   8.426  10.399   2.095 -2.0964  0.7841 -0.2630
  488MOL0     H67294   8.637  10.290   2.171  0.1186  2.0990  3.1374
  488MOL0     H67295   8.629  10.103   2.186  1.3536 -1.0347  2.1875
  488MOL0     H67296   8.574  10.312   2.392  0.8013  0.7162 -3.1958
  488MOL0     H67297   8.515  10.133   2.403  0.5294 -0.8934  1.5359
  488MOL0     H67298   8.773  10.079   2.381  1.9482 -2.1862  2.5185
  488MOL0     H67299   8.790  10.257   2.419  0.3340 -0.5312  2.1818
  488MOL0     H67300   8.630  10.074   2.597  2.2797 -3.8661 -4.3633
  488MOL0     H67301   8.803  10.074   2.596 -1.7283 -0.9201 -0.1431
  488MOL0     H67302   8.772  10.415   2.832 -1.7227  1.5060 -2.5217
  488MOL0     H67303   9.050  10.555   3.004  0.6841  2.5294  1.5572
  488MOL0     H67304   8.875  10.588   2.949 -0.4914  2.2585 -2.5747
  488MOL0     H67305   9.009  10.669   2.876 -0.8244 -1.0327 -0.1030
  488MOL0     H67306   9.391  10.776   2.647  1.4584  0.9711 -1.3911
  488MOL0     H67307   9.602  10.873   2.654 -0.9762  1.7153  4.2041
  488MOL0     H67308   9.786  10.883   2.525  0.0225 -0.9161  0.7692
  488MOL0     H67309   9.826  10.954   2.670 -1.8453  1.6272 -2.5764
  488MOL0     H67310  10.003  10.994   2.513 -0.7238  0.1589  1.6946
  488MOL0     H67311  10.062  10.902   2.640  0.8478 -1.2985 -1.1450
  488MOL0     H67312  10.081  10.700   2.525 -1.4216 -0.8302 -1.2137
  488MOL0     H67313  10.163  10.825   2.442 -0.2299  1.5057  0.6502
  488MOL0     H67314   9.893  10.704   2.398 -0.1199  1.6442  1.3684
  488MOL0     H67315  10.030  10.659   2.302  0.3489  1.1112 -1.5847
  488MOL0     H67316   9.937  10.956   2.301  1.0761 -1.8864  2.0755
  488MOL0     H67317  10.037  10.877   2.184 -0.8323  0.8367 -1.6008
  488MOL0     H67318   9.745  10.800   2.233  1.3224 -0.7328  0.7481
  488MOL0     H67319   9.851  10.758   2.095 -0.8804  1.4051 -1.7804
  488MOL0     H67320   9.868  10.989   2.022 -1.3155  1.3550 -0.6760
  488MOL0     H67321   9.783  11.042   2.172  1.0596  0.0171  0.5257
  488MOL0     H67322   9.613  11.057   2.014 -0.4221  1.0350  0.6606
  488MOL0     H67323   9.580  10.910   2.107 -1.3038 -0.5311 -1.3064
  488MOL0     H67324   9.787  10.491   2.685 -1.3963 -3.4549  0.5721
  488MOL0     H67325   9.553  10.392   2.690 -1.8630 -0.1138 -0.9287
  488MOL0     H67326   9.192  10.300   2.590 -0.5711 -0.0536 -1.2204
  488MOL0     H67327   8.996  10.199   2.541 -0.9225  0.6935 -0.0267
  488MOL0     H67328   7.364  10.588   1.642  0.9187  0.3933  0.2635
  488MOL0     H67329   7.138  10.698   1.612 -1.3841  0.7284  0.9242
  488MOL0     H67330   6.811  10.830   1.806 -0.5572  1.4317 -0.0683
  488MOL0     H67331   6.589  10.829   1.759  1.4927 -0.5703  0.8187
  488MOL0     H67332   6.283  11.043   1.531  0.3392  1.1915  0.9554
  488MOL0     H67333   6.420  11.140   1.490 -0.8526  1.1881  0.4816
  488MOL0     H67334   6.377  10.845   1.394 -0.2513  0.2882  0.9300
  488MOL0     H67335   6.510  10.948   1.338  1.4248  2.7929  0.1538
  488MOL0     H67336   6.221  10.965   1.276 -0.3003  1.6138 -1.1577
  488MOL0     H67337   6.289  11.123   1.295  2.1803  0.3523  0.2686
  488MOL0     H67338   6.311  11.070   1.061 -1.7509 -0.5767  0.4997
  488MOL0     H67339   6.389  10.920   1.103 -2.1740  0.0740  2.5569
  488MOL0     H67340   6.685  11.222   1.050  0.8105 -1.2663 -2.6054
  488MOL0     H67341   6.632  11.167   1.486  1.0293 -0.4873 -1.8364
  488MOL0     H67342   6.953  11.120   1.396  1.2675  0.5705 -0.8520
  488MOL0     H67343   6.840  11.250   1.432 -0.0988  1.3789  4.2049
  488MOL0     H67344   6.963  11.222   1.550 -1.5717 -0.0878  1.0325
  489MOL0     O67345   0.791   7.232   5.485  1.0296  0.6031  0.5426
  489MOL0     C67346   0.745   7.273   5.586  0.4145  0.1600 -1.0282
  489MOL0     O67347   0.815   7.293   5.710  0.4839 -0.0236 -0.4525
  489MOL0     C67348   0.936   7.247   5.724 -0.6492 -0.0121  1.0748
  489MOL0     C67349   1.045   7.313   5.670  0.0696  0.1833 -0.2489
  489MOL0     C67350   1.177   7.265   5.679  0.3854 -0.2795 -0.0999
  489MOL0     C67351   1.194   7.155   5.757  0.3808 -0.3772 -0.2775
  489MOL0     O67352   1.314   7.103   5.782  0.5454 -0.4483 -0.3969
  489MOL0     C67353   1.416   7.194   5.817  0.8923  0.0344  0.2043
  489MOL0     C67354   1.529   7.195   5.709 -0.7709  0.4076 -0.0819
  489MOL0     C67355   1.514   7.270   5.568 -0.1367  0.9670 -0.0884
  489MOL0     C67356   1.648   7.297   5.509  0.1420  0.7539  0.1324
  489MOL0     C67357   1.636   7.361   5.372  0.1264 -0.2541  0.2858
  489MOL0     C67358   1.770   7.369   5.291 -0.5239  0.6147  0.0828
  489MOL0     C67359   1.906   7.372   5.365 -0.6601  0.1366 -0.2246
  489MOL0     C67360   1.921   7.512   5.423  0.6211  0.3591  0.9769
  489MOL0     N67361   2.050   7.520   5.506  0.1187 -0.0657 -0.0366
  489MOL0     C67362   2.175   7.469   5.468 -0.3743  0.4424 -0.4098
  489MOL0     C67363   2.262   7.478   5.571  0.6735 -0.1126 -0.6959
  489MOL0     C67364   2.407   7.455   5.569  0.2800  0.9275 -0.2195
  489MOL0     C67365   2.428   7.313   5.627 -0.4576 -0.3475 -0.0430
  489MOL0     C67366   2.555   7.249   5.564  0.1971  0.1540 -0.3007
  489MOL0     C67367   2.587   7.115   5.628  0.6471  0.4291  0.2262
  489MOL0     O67368   2.520   7.013   5.549 -0.3079 -0.0093  0.0179
  489MOL0     C67369   2.528   6.884   5.583  0.1559 -0.6147  0.1959
  489MOL0     C67370   2.430   6.807   5.522 -0.1789  0.6668  0.3198
  489MOL0     C67371   2.441   6.666   5.520  0.0714 -0.3349 -0.4277
  489MOL0     C67372   2.333   6.599   5.447  0.5646  0.4320  0.1478
  489MOL0     C67373   2.545   6.600   5.592  0.0410 -0.5466 -0.5953
  489MOL0     C67374   2.577   6.454   5.599  0.2817 -0.6338  0.2544
  489MOL0     O67375   2.673   6.419   5.685  0.2475 -0.7794  0.2976
  489MOL0     C67376   2.716   6.291   5.690  0.2433 -0.2006 -0.6473
  489MOL0     C67377   2.741   6.240   5.815 -0.9398 -0.8189  0.3270
  489MOL0     C67378   2.774   6.108   5.835  0.0251 -0.5606 -0.3877
  489MOL0     C67379   2.782   6.015   5.731 -0.7392 -0.1406  0.7334
  489MOL0     O67380   2.813   5.883   5.739  0.4718  0.2785  0.3662
  489MOL0     C67381   2.838   5.827   5.864 -0.6819 -0.7914  0.0897
  489MOL0     C67382   2.850   5.680   5.835 -0.3879  0.4792 -0.3241
  489MOL0     C67383   2.853   5.594   5.959 -0.2582 -0.2038  0.0655
  489MOL0     C67384   2.849   5.436   5.939 -0.0791 -0.0989  0.2665
  489MOL0     C67385   2.900   5.361   6.065  0.4958  0.2642 -0.4083
  489MOL0     C67386   3.044   5.357   6.089  0.4682  0.9807 -0.2083
  489MOL0     C67387   3.119   5.277   5.976  0.3197 -0.6691  0.7211
  489MOL0     C67388   3.268   5.267   6.012 -0.5251 -0.2605  0.3278
  489MOL0    Cl67389   3.305   5.167   6.154 -0.0161  0.3007 -0.4017
  489MOL0     C67390   2.762   6.069   5.604 -0.0573 -0.1509 -0.4777
  489MOL0     C67391   2.725   6.205   5.582 -0.4001  0.2610  0.0204
  489MOL0     O67392   2.508   6.376   5.539 -0.3061 -0.1587  0.2670
  489MOL0     C67393   2.640   6.685   5.646  0.3958  0.9839  0.3759
  489MOL0     C67394   2.631   6.823   5.649 -0.4449 -0.2992 -0.0549
  489MOL0     N67395   2.187   7.499   5.685  0.7064  0.7910  0.7398
  489MOL0     N67396   2.067   7.537   5.643  0.2458  0.2720 -0.4929
  489MOL0     C67397   1.089   7.082   5.813  0.1330 -0.2397 -0.1292
  489MOL0     C67398   0.958   7.120   5.795 -0.8822 -0.0877 -0.5836
  489MOL0     C67399   0.599   7.290   5.584 -0.1185 -0.3394  0.8049
  489MOL0     C67400   0.527   7.228   5.686  0.4845  0.1761  0.3820
  489MOL0     C67401   0.389   7.226   5.683  0.9479 -0.0145  0.2904
  489MOL0     C67402   0.316   7.279   5.575 -0.6529  0.7289 -0.1627
  489MOL0     O67403   0.185   7.277   5.590  0.5839  0.2544 -0.5763
  489MOL0     C67404   0.112   7.310   5.471 -0.1594  0.1464  0.5009
  489MOL0     C67405  -0.024   7.350   5.526 -0.3055 -0.4123 -0.6408
  489MOL0     C67406  -0.100   7.447   5.439  1.0474 -0.2350 -0.2033
  489MOL0     C67407  -0.252   7.455   5.470  0.0855  0.0921  0.1002
  489MOL0     C67408  -0.298   7.532   5.591  0.4130 -0.0195  0.0504
  489MOL0     C67409  -0.336   7.585   5.697 -0.9691 -0.3374  0.6091
  489MOL0     C67410   0.389   7.323   5.465 -0.8011  0.4247  0.1223
  489MOL0     C67411   0.526   7.348   5.477  0.0462  0.4401  0.8175
  489MOL0     C67412   0.590   7.405   5.346 -0.1496  0.0693 -1.0283
  489MOL0     H67413   1.027   7.402   5.611 -0.9696 -0.9841 -1.7676
  489MOL0     H67414   1.262   7.321   5.642 -0.9273  1.7155 -0.2688
  489MOL0     H67415   1.455   7.154   5.911 -0.0550 -1.7174 -0.0993
  489MOL0     H67416   1.382   7.296   5.835 -0.0147 -0.0177 -1.0718
  489MOL0     H67417   1.609   7.246   5.763 -1.0252  0.6543  0.0614
  489MOL0     H67418   1.575   7.095   5.704  0.0374  0.6414  1.7933
  489MOL0     H67419   1.456   7.210   5.498  1.4612 -1.6730  0.7111
  489MOL0     H67420   1.465   7.363   5.600  1.6403  1.0667  2.7500
  489MOL0     H67421   1.709   7.368   5.565  1.4059 -0.3304  0.1556
  489MOL0     H67422   1.713   7.211   5.496  0.1942  1.0344 -1.7514
  489MOL0     H67423   1.604   7.463   5.391  3.4756  1.0183 -0.2993
  489MOL0     H67424   1.566   7.303   5.311  1.2542 -2.2386  0.7685
  489MOL0     H67425   1.773   7.277   5.232 -1.9838  0.5805  0.0477
  489MOL0     H67426   1.762   7.442   5.209  0.9932 -1.3730 -1.9741
  489MOL0     H67427   1.986   7.339   5.298 -1.0137 -0.3209 -0.4223
  489MOL0     H67428   1.903   7.294   5.442 -1.2410  1.2015  0.8622
  489MOL0     H67429   1.911   7.598   5.357 -2.7545  0.3645  1.3498
  489MOL0     H67430   1.833   7.530   5.485  0.4099 -1.5153  1.2802
  489MOL0     H67431   2.190   7.418   5.373 -0.9298 -0.5341  0.0075
  489MOL0     H67432   2.452   7.531   5.634 -0.5639 -0.9096  2.6979
  489MOL0     H67433   2.445   7.449   5.466  2.8806 -1.0756  0.7228
  489MOL0     H67434   2.434   7.327   5.735 -0.4960  1.4693 -0.2439
  489MOL0     H67435   2.348   7.246   5.596 -0.1643 -0.0551 -1.5215
  489MOL0     H67436   2.538   7.229   5.458 -1.3538 -0.3483  0.0269
  489MOL0     H67437   2.638   7.319   5.577  0.1300 -0.0737  1.7312
  489MOL0     H67438   2.695   7.099   5.616  1.0582  1.1669  2.4466
  489MOL0     H67439   2.549   7.108   5.730 -2.3278 -1.9000 -0.8828
  489MOL0     H67440   2.347   6.855   5.471 -1.1756 -1.0796  0.2000
  489MOL0     H67441   2.265   6.666   5.393 -1.7588 -0.5298  1.7583
  489MOL0     H67442   2.275   6.528   5.506  2.6121 -0.4177  1.2274
  489MOL0     H67443   2.389   6.548   5.367 -1.1115  0.7356 -1.2780
  489MOL0     H67444   2.746   6.306   5.900  3.3748  0.6382 -0.7927
  489MOL0     H67445   2.793   6.082   5.938 -0.3824 -2.7770 -0.8213
  489MOL0     H67446   2.928   5.869   5.909 -2.0709  2.7843 -0.1403
  489MOL0     H67447   2.757   5.850   5.933 -0.1259 -1.7413  1.0887
  489MOL0     H67448   2.771   5.646   5.767  1.5208  2.9478 -4.1057
  489MOL0     H67449   2.945   5.670   5.782  1.6256  1.5241  2.8336
  489MOL0     H67450   2.769   5.625   6.021  1.8132  1.7875  2.0385
  489MOL0     H67451   2.938   5.628   6.019 -1.4895 -0.6754  2.1379
  489MOL0     H67452   2.910   5.400   5.855  0.2643 -0.3443  0.6216
  489MOL0     H67453   2.745   5.408   5.919  0.2211 -0.9030 -0.2161
  489MOL0     H67454   2.846   5.389   6.155  1.9403 -3.9060  2.0472
  489MOL0     H67455   2.857   5.260   6.057 -2.5843  1.5487 -1.5317
  489MOL0     H67456   3.061   5.296   6.178  3.0076  1.0245 -0.5753
  489MOL0     H67457   3.090   5.457   6.092  0.6227  0.9202 -0.5040
  489MOL0     H67458   3.111   5.324   5.878  2.1087  0.2152  0.9687
  489MOL0     H67459   3.084   5.173   5.970 -0.1522 -0.4669 -0.3057
  489MOL0     H67460   3.304   5.366   6.041  0.1827 -0.1788 -0.7982
  489MOL0     H67461   3.319   5.229   5.923 -3.0578 -1.3734 -0.7454
  489MOL0     H67462   2.773   6.000   5.520  0.3867 -0.4859 -0.1496
  489MOL0     H67463   2.720   6.235   5.478 -0.9184 -0.7486 -0.2646
  489MOL0     H67464   2.732   6.655   5.697  0.0581  3.0908  2.3954
  489MOL0     H67465   2.705   6.889   5.694 -1.9118  0.9196  0.6456
  489MOL0     H67466   1.106   6.989   5.867  2.1850  1.1817  1.8873
  489MOL0     H67467   0.887   7.060   5.852 -1.3978  0.7471 -0.3244
  489MOL0     H67468   0.567   7.175   5.772 -2.1157 -3.6360 -0.4916
  489MOL0     H67469   0.329   7.177   5.759 -0.2796 -1.4593 -1.5109
  489MOL0     H67470   0.157   7.395   5.420  1.2620 -1.8219 -1.7346
  489MOL0     H67471   0.113   7.221   5.407 -4.0565 -0.0487  0.4849
  489MOL0     H67472  -0.014   7.409   5.618 -2.4899 -0.4874 -0.2905
  489MOL0     H67473  -0.081   7.262   5.555  2.1197 -1.4961  1.2059
  489MOL0     H67474  -0.065   7.550   5.453  0.0685 -0.0063  0.6701
  489MOL0     H67475  -0.084   7.415   5.335  3.5388  0.4447 -0.1099
  489MOL0     H67476  -0.303   7.359   5.484 -1.2854  1.1105  2.6942
  489MOL0     H67477  -0.299   7.512   5.390 -3.2856 -0.4182  1.5651
  489MOL0     H67478  -0.368   7.619   5.793  0.4137 -0.7493  1.2355
  489MOL0     H67479   0.338   7.343   5.371  0.8159  1.0508 -0.6667
  489MOL0     H67480   0.687   7.448   5.374 -0.2096  0.1681 -0.9706
  489MOL0     H67481   0.587   7.328   5.269 -0.1110  1.1247 -2.1302
  489MOL0     H67482   0.524   7.489   5.324  1.2305  1.7351  0.7830
  490MOL0     O67483   0.461   6.055   3.291 -0.7923 -0.0196  0.1938
  490MOL0     C67484   0.449   6.089   3.402  0.7801 -0.1776 -0.7001
  490MOL0     O67485   0.533   6.175   3.457  1.0763 -0.6516 -0.2070
  490MOL0     C67486   0.629   6.252   3.388 -0.5616  0.4848 -0.7296
  490MOL0     C67487   0.735   6.304   3.467 -0.2139 -0.3684 -1.5080
  490MOL0     C67488   0.829   6.386   3.411 -0.3493  0.2074 -0.1142
  490MOL0     C67489   0.819   6.422   3.273 -0.1708 -0.5512 -0.8472
  490MOL0     O67490   0.916   6.504   3.217 -0.6666  0.2181  0.7722
  490MOL0     C67491   1.022   6.566   3.291  0.2285  0.3197 -0.4314
  490MOL0     C67492   1.095   6.669   3.200 -0.0658 -0.6046 -0.5128
  490MOL0     C67493   1.219   6.731   3.274 -0.6191  0.2610  0.1349
  490MOL0     C67494   1.306   6.813   3.171 -1.3419  0.6783 -0.3198
  490MOL0     C67495   1.435   6.885   3.242 -0.2220  0.2924 -0.1430
  490MOL0     C67496   1.514   6.802   3.340 -0.7393  0.3886 -1.2930
  490MOL0     C67497   1.638   6.875   3.393  0.2761  0.1406  0.6467
  490MOL0     C67498   1.712   6.779   3.483 -0.6611  0.8540 -0.7067
  490MOL0     N67499   1.849   6.834   3.519  0.3058  0.5691  0.2582
  490MOL0     C67500   1.867   6.929   3.618 -0.7035  0.7694 -0.7922
  490MOL0     C67501   2.000   6.958   3.617 -0.7262 -0.4159  0.3575
  490MOL0     C67502   2.081   7.040   3.712  0.2194  0.3543  0.0192
  490MOL0     C67503   2.202   7.110   3.639  0.3849 -0.1405  0.5735
  490MOL0     C67504   2.303   7.170   3.743  0.4250  0.1879 -0.8792
  490MOL0     C67505   2.450   7.165   3.696  0.2784 -0.3409  0.2664
  490MOL0     O67506   2.509   7.029   3.692 -0.2526  0.5701  0.5437
  490MOL0     C67507   2.633   7.017   3.630  0.2553 -0.3422  0.6580
  490MOL0     C67508   2.716   7.122   3.579 -0.4831  0.1995 -0.0209
  490MOL0     C67509   2.838   7.102   3.501  0.5550 -0.0929  0.0105
  490MOL0     C67510   2.905   7.226   3.445 -0.1516  1.3135  1.1977
  490MOL0     C67511   2.882   6.975   3.476 -0.0145 -0.1741 -0.2614
  490MOL0     C67512   3.016   6.936   3.410 -0.5538  0.5838  0.9791
  490MOL0     O67513   3.052   6.803   3.394  0.4412 -0.5508 -0.4732
  490MOL0     C67514   3.180   6.787   3.344  0.3206 -1.1518  0.0966
  490MOL0     C67515   3.299   6.790   3.422  0.1286 -0.4938 -0.7772
  490MOL0     C67516   3.425   6.789   3.354  0.1802  0.5789 -0.1807
  490MOL0     C67517   3.438   6.778   3.218 -0.1081  0.0041  1.2197
  490MOL0     O67518   3.553   6.793   3.142 -1.0760 -0.5629 -0.6239
  490MOL0     C67519   3.680   6.812   3.212  0.0472  0.9071  0.7538
  490MOL0     C67520   3.782   6.863   3.115 -0.7945 -0.6225 -0.5897
  490MOL0     C67521   3.734   6.981   3.022 -0.2916 -0.2840  0.4310
  490MOL0     C67522   3.793   6.966   2.878  0.5278 -0.2243 -0.5238
  490MOL0     C67523   3.728   7.072   2.780 -0.5414  0.3168 -0.2029
  490MOL0     C67524   3.761   7.043   2.644 -0.1662  0.5919  0.3759
  490MOL0     C67525   3.718   7.154   2.543 -0.2690  0.5654  0.0644
  490MOL0     C67526   3.829   7.185   2.437  0.3959  0.2474 -0.1626
  490MOL0    Cl67527   3.869   7.048   2.337  0.5167 -0.0035 -0.1178
  490MOL0     C67528   3.324   6.760   3.145  0.4929 -1.1891 -0.0269
  490MOL0     C67529   3.197   6.750   3.207  0.5067  0.1431 -0.0407
  490MOL0     O67530   3.099   7.027   3.391  0.0485 -0.4688  0.2136
  490MOL0     C67531   2.804   6.868   3.526 -0.2346  0.6837  0.3975
  490MOL0     C67532   2.680   6.885   3.598 -0.4074  0.3206  0.0454
  490MOL0     N67533   2.055   6.894   3.508  0.1806  0.2598 -0.8445
  490MOL0     N67534   1.960   6.818   3.454 -0.3390 -0.1331  0.1372
  490MOL0     C67535   0.718   6.368   3.194  0.3166 -0.7310  0.1008
  490MOL0     C67536   0.616   6.294   3.255  0.1581 -0.0348  0.2407
  490MOL0     C67537   0.347   6.015   3.485  0.0640 -0.4177  0.6966
  490MOL0     C67538   0.317   6.067   3.611 -0.0833  0.0222  0.6962
  490MOL0     C67539   0.229   6.009   3.710 -1.0805 -0.1868 -0.2774
  490MOL0     C67540   0.175   5.889   3.674  0.4199 -0.5286 -1.1728
  490MOL0     O67541   0.078   5.825   3.752 -0.4651  0.4725  0.9423
  490MOL0     C67542   0.049   5.881   3.876 -0.0098 -0.9369 -0.2172
  490MOL0     C67543  -0.073   5.811   3.934 -0.0092 -0.2483  0.0373
  490MOL0     C67544  -0.096   5.847   4.073 -0.0745 -0.0968  0.3853
  490MOL0     C67545  -0.237   5.812   4.124 -0.2495 -0.0028 -0.2410
  490MOL0     C67546  -0.258   5.810   4.270  0.7963 -0.2844  0.5922
  490MOL0     C67547  -0.279   5.788   4.383  0.4613  0.2264 -0.8324
  490MOL0     C67548   0.196   5.837   3.551  0.2370 -0.6961 -0.6946
  490MOL0     C67549   0.279   5.896   3.451  0.5268  0.1775 -0.5179
  490MOL0     C67550   0.312   5.815   3.330 -0.5160 -0.0325 -0.0296
  490MOL0     H67551   0.725   6.301   3.575 -1.8991 -0.0395 -1.6212
  490MOL0     H67552   0.907   6.434   3.469  0.6318  3.3953 -3.6366
  490MOL0     H67553   1.096   6.498   3.334 -0.8416 -1.3333 -1.1194
  490MOL0     H67554   0.985   6.623   3.378  1.6058 -1.0236  1.0976
  490MOL0     H67555   1.139   6.618   3.114  0.8156 -0.4957 -0.1421
  490MOL0     H67556   1.026   6.749   3.175  1.0843  1.0338  1.2395
  490MOL0     H67557   1.188   6.804   3.349 -3.9504  0.1430 -0.9762
  490MOL0     H67558   1.275   6.647   3.318 -1.1763 -0.9334 -1.3622
  490MOL0     H67559   1.352   6.743   3.101 -2.1074  1.7458 -1.9489
  490MOL0     H67560   1.256   6.887   3.107  0.6160 -0.5708 -3.5711
  490MOL0     H67561   1.408   6.975   3.299  1.1810  1.2594 -0.9660
  490MOL0     H67562   1.511   6.908   3.168  1.7738 -1.4353  1.2537
  490MOL0     H67563   1.461   6.764   3.428  1.3406 -1.2572 -0.6779
  490MOL0     H67564   1.557   6.714   3.291 -1.3420  0.1793 -1.4505
  490MOL0     H67565   1.613   6.961   3.455 -1.5110 -0.8927  1.4372
  490MOL0     H67566   1.705   6.909   3.313  3.3798  0.1451  3.0553
  490MOL0     H67567   1.659   6.754   3.576 -2.6715  0.4854 -1.8891
  490MOL0     H67568   1.723   6.681   3.435  1.3673  0.2380  0.8611
  490MOL0     H67569   1.777   6.969   3.663 -2.2787 -1.1514 -2.0680
  490MOL0     H67570   2.118   6.969   3.787 -0.9670 -1.0697 -0.6833
  490MOL0     H67571   2.020   7.119   3.756 -2.3698 -0.3601 -1.9736
  490MOL0     H67572   2.256   7.040   3.575 -2.1014 -1.2857 -0.3721
  490MOL0     H67573   2.171   7.194   3.576  1.4093 -1.8869 -2.4471
  490MOL0     H67574   2.276   7.275   3.758  0.4293  0.0795 -0.0807
  490MOL0     H67575   2.293   7.126   3.843  1.5291 -0.4433 -1.0335
  490MOL0     H67576   2.450   7.213   3.598  0.6833  0.7332  0.7762
  490MOL0     H67577   2.515   7.223   3.762 -0.8615  0.4260  0.7428
  490MOL0     H67578   2.684   7.223   3.607 -0.2206 -0.4367  2.9268
  490MOL0     H67579   3.002   7.241   3.492  0.0371 -0.6598  1.5204
  490MOL0     H67580   2.847   7.314   3.475  3.4885  4.5912 -0.4384
  490MOL0     H67581   2.912   7.222   3.336 -1.6175  1.2738  1.0783
  490MOL0     H67582   3.297   6.805   3.529  1.7547  1.9610 -1.0327
  490MOL0     H67583   3.504   6.779   3.427 -2.7430  0.1318  3.1610
  490MOL0     H67584   3.685   6.885   3.293 -1.0132  3.4666 -1.3541
  490MOL0     H67585   3.717   6.715   3.249  0.9938  0.4875 -1.1883
  490MOL0     H67586   3.864   6.903   3.176 -2.4102  0.2403  1.0875
  490MOL0     H67587   3.822   6.786   3.048  2.0742  0.8593 -0.7514
  490MOL0     H67588   3.759   7.083   3.053 -1.3208 -0.6344  2.5732
  490MOL0     H67589   3.625   6.984   3.011 -0.1961  2.9668 -0.6166
  490MOL0     H67590   3.786   6.862   2.846 -0.1067  0.6415 -3.5167
  490MOL0     H67591   3.900   6.992   2.881 -0.2524  3.6425 -0.9998
  490MOL0     H67592   3.620   7.057   2.788 -0.5955  1.2015  1.1598
  490MOL0     H67593   3.744   7.178   2.802 -0.7337  0.4134 -0.5196
  490MOL0     H67594   3.713   6.948   2.618  1.4985 -0.6749  1.6955
  490MOL0     H67595   3.869   7.026   2.631 -0.3330  0.7339 -1.4359
  490MOL0     H67596   3.686   7.243   2.598 -0.8425 -0.7988  2.0448
  490MOL0     H67597   3.630   7.123   2.485 -1.9188  0.0404  2.6761
  490MOL0     H67598   3.920   7.213   2.491  0.0573 -1.9932  1.7388
  490MOL0     H67599   3.793   7.263   2.370 -2.1719 -1.2921 -0.7075
  490MOL0     H67600   3.328   6.765   3.037  0.7147 -1.2414 -0.0214
  490MOL0     H67601   3.110   6.727   3.146 -0.9914 -0.6381  2.2653
  490MOL0     H67602   2.847   6.768   3.525  0.4056  0.8688 -3.0892
  490MOL0     H67603   2.625   6.803   3.642  0.2750 -0.2220 -0.0931
  490MOL0     H67604   0.717   6.386   3.087  3.4408 -0.2803  0.0414
  490MOL0     H67605   0.527   6.262   3.203  0.4332 -1.1540  0.4118
  490MOL0     H67606   0.365   6.157   3.649  0.3241 -1.2740  3.4851
  490MOL0     H67607   0.224   6.059   3.806  0.6709  1.6716 -1.0770
  490MOL0     H67608   0.137   5.864   3.940 -0.8358 -2.4447  0.5611
  490MOL0     H67609   0.031   5.989   3.867 -3.2838 -1.5594 -2.9559
  490MOL0     H67610  -0.067   5.702   3.928  0.2874 -0.2074 -0.4844
  490MOL0     H67611  -0.159   5.849   3.876  1.2363  0.6496 -1.3038
  490MOL0     H67612  -0.015   5.806   4.134  0.7247  0.9880  0.0975
  490MOL0     H67613  -0.082   5.956   4.079  5.5799 -0.3402 -2.3283
  490MOL0     H67614  -0.242   5.705   4.107  0.4391  0.3058 -2.7860
  490MOL0     H67615  -0.330   5.853   4.083 -2.3105 -1.5150  2.5916
  490MOL0     H67616  -0.309   5.756   4.481 -0.3223 -1.5207 -1.6042
  490MOL0     H67617   0.147   5.743   3.528 -1.1418 -0.1376 -0.1545
  490MOL0     H67618   0.302   5.875   3.239 -2.6049  0.8728  0.7248
  490MOL0     H67619   0.416   5.782   3.337 -1.6037 -3.9180  0.5930
  490MOL0     H67620   0.251   5.726   3.309  0.9900 -0.9187 -0.7755
  491MOL0     O67621   8.377   7.956   4.408  0.5273 -0.3599  0.6498
  491MOL0     C67622   8.306   7.857   4.406  0.1626 -0.0718 -0.0692
  491MOL0     O67623   8.346   7.722   4.398 -0.3766  0.0472 -0.1013
  491MOL0     C67624   8.466   7.684   4.450 -0.5066 -0.4368  0.4579
  491MOL0     C67625   8.516   7.744   4.566 -1.2963 -0.3378 -0.1721
  491MOL0     C67626   8.636   7.711   4.628 -0.1997  0.1320  0.3745
  491MOL0     C67627   8.715   7.617   4.571 -0.6106 -0.0450  0.6427
  491MOL0     O67628   8.832   7.600   4.639 -0.1936 -0.2006 -0.2571
  491MOL0     C67629   8.890   7.479   4.610 -0.9977 -0.5545  0.2782
  491MOL0     C67630   9.023   7.458   4.682 -0.8895 -0.3075  0.5067
  491MOL0     C67631   9.112   7.583   4.666  0.1115  0.5162  0.4951
  491MOL0     C67632   9.255   7.540   4.719  0.8425  0.4355 -0.5835
  491MOL0     C67633   9.374   7.612   4.674  0.5253  0.5854 -0.4919
  491MOL0     C67634   9.388   7.594   4.519  0.2302  0.3096  0.2728
  491MOL0     C67635   9.524   7.655   4.464  0.2755  0.6336 -0.5968
  491MOL0     C67636   9.496   7.771   4.380 -0.7876  0.0808  1.2323
  491MOL0     N67637   9.469   7.890   4.451  0.0396 -0.1894  0.2753
  491MOL0     C67638   9.564   7.987   4.499  0.3497  0.0835 -0.0819
  491MOL0     C67639   9.483   8.093   4.545  0.0791  0.3833  0.2947
  491MOL0     C67640   9.534   8.218   4.605 -0.4055  0.6207 -0.1583
  491MOL0     C67641   9.627   8.290   4.506 -0.0590 -0.9603 -0.3855
  491MOL0     C67642   9.770   8.281   4.541 -0.1571 -0.5951  0.1701
  491MOL0     C67643   9.866   8.322   4.437  0.0051  0.1973  1.5230
  491MOL0     O67644   9.837   8.451   4.386 -0.6259 -0.1943 -0.2200
  491MOL0     C67645   9.924   8.478   4.285  0.3620  0.4983  0.3982
  491MOL0     C67646   9.873   8.482   4.157 -0.3583  1.1947 -0.0248
  491MOL0     C67647   9.952   8.519   4.043  0.6071  1.0352 -0.4594
  491MOL0     C67648   9.894   8.514   3.904  0.9790 -0.3268  0.8627
  491MOL0     C67649  10.086   8.546   4.073 -0.0397 -0.3253 -0.4954
  491MOL0     C67650  10.187   8.591   3.976  0.4722 -0.3344  0.2868
  491MOL0     O67651  10.282   8.683   4.021  0.4008  0.1334  0.3788
  491MOL0     C67652  10.398   8.683   3.949 -0.2887 -0.4100  0.1510
  491MOL0     C67653  10.424   8.799   3.871 -0.1376 -0.1937  0.4367
  491MOL0     C67654  10.538   8.814   3.787  0.7039 -0.4987  0.1175
  491MOL0     C67655  10.629   8.709   3.790  1.0234  0.4569  0.3455
  491MOL0     O67656  10.743   8.728   3.708 -0.3127  0.4697  0.0656
  491MOL0     C67657  10.830   8.611   3.684 -0.3645 -0.2210 -0.8591
  491MOL0     C67658  10.948   8.638   3.596 -0.9695  0.7969 -0.2601
  491MOL0     C67659  11.037   8.743   3.660 -0.2354 -0.2716 -0.3573
  491MOL0     C67660  11.171   8.756   3.580  0.6002 -0.3036 -0.1423
  491MOL0     C67661  11.260   8.880   3.622  1.0580  0.9915 -0.7455
  491MOL0     C67662  11.405   8.839   3.620 -0.4501  0.4648  0.9471
  491MOL0     C67663  11.497   8.958   3.653 -0.4333 -0.3810 -0.5880
  491MOL0     C67664  11.648   8.923   3.633  0.1107 -0.3590  0.2854
  491MOL0    Cl67665  11.683   8.888   3.470 -0.0321  0.2188  0.3097
  491MOL0     C67666  10.604   8.588   3.870  0.0926 -1.0878  0.5419
  491MOL0     C67667  10.486   8.584   3.947  0.0763  0.4699  0.2741
  491MOL0     O67668  10.200   8.524   3.873  0.4056  0.0714  0.4586
  491MOL0     C67669  10.137   8.548   4.203 -1.2724 -0.4113 -0.2715
  491MOL0     C67670  10.055   8.508   4.316 -0.0601 -0.3003 -0.3439
  491MOL0     N67671   9.350   8.058   4.520  0.1454 -0.5605 -0.3952
  491MOL0     N67672   9.348   7.953   4.449  0.0755  0.5213 -0.3878
  491MOL0     C67673   8.665   7.557   4.450  0.1647 -0.3238 -0.7912
  491MOL0     C67674   8.548   7.587   4.390  0.2184 -0.7083  0.0853
  491MOL0     C67675   8.158   7.882   4.398 -0.6498 -0.3594 -0.0351
  491MOL0     C67676   8.109   8.006   4.350  0.5086 -0.7944 -0.5420
  491MOL0     C67677   7.968   8.022   4.325  0.3840  0.5318 -0.2040
  491MOL0     C67678   7.874   7.933   4.379 -0.5780  0.6290  0.4817
  491MOL0     O67679   7.741   7.954   4.375 -0.4158 -0.2887  0.0526
  491MOL0     C67680   7.681   8.083   4.355  0.4823 -0.2094  0.8434
  491MOL0     C67681   7.699   8.174   4.477 -0.6963 -0.1419 -0.6509
  491MOL0     C67682   7.625   8.309   4.465 -0.3406 -0.5413  0.1219
  491MOL0     C67683   7.716   8.434   4.484 -0.5344 -0.4078 -0.6646
  491MOL0     C67684   7.803   8.455   4.369 -0.0494 -0.5687 -0.7051
  491MOL0     C67685   7.863   8.481   4.268  0.3303  0.5396  0.2505
  491MOL0     C67686   7.922   7.811   4.426 -0.4517 -0.5828 -0.0940
  491MOL0     C67687   8.056   7.784   4.434  0.2837  0.1679  0.6716
  491MOL0     C67688   8.096   7.644   4.491 -0.6745  0.1911 -0.8243
  491MOL0     H67689   8.466   7.830   4.611 -2.4151 -0.9040 -0.3137
  491MOL0     H67690   8.683   7.768   4.707  1.3338 -0.3978 -0.1182
  491MOL0     H67691   8.912   7.481   4.503 -0.2850 -0.4339  0.4225
  491MOL0     H67692   8.822   7.395   4.625 -0.3600 -1.6951 -2.5620
  491MOL0     H67693   9.015   7.429   4.787 -1.5275 -2.7780 -0.1455
  491MOL0     H67694   9.065   7.371   4.631 -0.1692 -0.1412  0.8170
  491MOL0     H67695   9.113   7.619   4.563 -0.1759  1.9973  0.9767
  491MOL0     H67696   9.082   7.665   4.732  0.4034  1.0009  0.0306
  491MOL0     H67697   9.255   7.540   4.828 -0.1401 -2.5775 -0.4926
  491MOL0     H67698   9.273   7.434   4.700 -1.4903 -0.0080 -0.5503
  491MOL0     H67699   9.462   7.584   4.731  0.8514  0.8074 -0.8791
  491MOL0     H67700   9.354   7.717   4.696  1.8808  0.5589  0.9565
  491MOL0     H67701   9.391   7.489   4.490  1.2605  0.2345  0.6277
  491MOL0     H67702   9.308   7.646   4.465  1.3356  1.7717 -0.0346
  491MOL0     H67703   9.575   7.583   4.400 -0.8349 -0.8785  0.1449
  491MOL0     H67704   9.595   7.684   4.542  0.0013  2.3040 -0.9369
  491MOL0     H67705   9.589   7.795   4.328 -0.7371  3.8446  2.7350
  491MOL0     H67706   9.420   7.749   4.305  1.0727 -0.5027 -0.5617
  491MOL0     H67707   9.671   8.000   4.498  0.4247 -0.0720  1.6829
  491MOL0     H67708   9.581   8.197   4.702  0.7920 -2.6293 -1.3250
  491MOL0     H67709   9.449   8.286   4.616  2.4275  4.9131 -1.9484
  491MOL0     H67710   9.611   8.250   4.405  0.4858  0.1940 -0.9443
  491MOL0     H67711   9.586   8.391   4.501 -1.2413 -1.3409  0.8117
  491MOL0     H67712   9.792   8.356   4.617 -1.7782 -1.8138  1.9487
  491MOL0     H67713   9.793   8.183   4.583 -1.2721 -1.1865 -0.5355
  491MOL0     H67714   9.966   8.327   4.483  0.1788  2.9595  1.0228
  491MOL0     H67715   9.870   8.246   4.359  2.3547  1.5213  0.2353
  491MOL0     H67716   9.771   8.446   4.148 -0.2998  1.2502 -1.0718
  491MOL0     H67717   9.897   8.406   3.887 -0.7999 -0.5264  1.6181
  491MOL0     H67718   9.957   8.556   3.825 -0.4207 -0.1069 -0.1623
  491MOL0     H67719   9.798   8.567   3.906  1.5517  0.9749 -1.9503
  491MOL0     H67720  10.352   8.881   3.873  1.2923  1.1665 -1.2326
  491MOL0     H67721  10.563   8.898   3.724 -1.0469 -1.4910 -2.0565
  491MOL0     H67722  10.874   8.572   3.775  2.3560  0.3484 -1.8427
  491MOL0     H67723  10.765   8.538   3.635  0.2306 -0.1096 -1.8541
  491MOL0     H67724  11.007   8.546   3.586 -4.4683 -1.8981  1.7496
  491MOL0     H67725  10.909   8.670   3.499  0.5537  0.4017 -1.0290
  491MOL0     H67726  11.072   8.719   3.760  1.2067  1.9590 -0.2421
  491MOL0     H67727  10.997   8.844   3.664  2.2046  0.8566 -1.7734
  491MOL0     H67728  11.156   8.758   3.471  2.1518 -2.8100 -0.4783
  491MOL0     H67729  11.225   8.662   3.594 -1.0845 -1.0380  2.1427
  491MOL0     H67730  11.240   8.972   3.567 -1.6805  3.0976  3.2162
  491MOL0     H67731  11.243   8.906   3.728  2.7349 -3.3520  0.8099
  491MOL0     H67732  11.429   8.806   3.518 -1.1350  0.5008  0.7739
  491MOL0     H67733  11.426   8.757   3.690  0.1993 -0.8518 -0.7188
  491MOL0     H67734  11.487   8.989   3.757  1.8855 -0.9662 -0.1350
  491MOL0     H67735  11.474   9.046   3.592  3.6229  0.8516 -0.6548
  491MOL0     H67736  11.679   8.841   3.699  2.2358  0.7603  0.7728
  491MOL0     H67737  11.701   9.015   3.657 -1.3111  0.5523  0.0439
  491MOL0     H67738  10.669   8.502   3.857  2.5049  0.5274  1.2404
  491MOL0     H67739  10.467   8.492   4.000  1.3084  0.7023  1.1735
  491MOL0     H67740  10.243   8.567   4.222 -0.0391 -0.5949 -5.4861
  491MOL0     H67741  10.098   8.499   4.415 -0.5723 -3.2317 -0.3036
  491MOL0     H67742   8.733   7.486   4.403  1.1212 -0.6548  0.9718
  491MOL0     H67743   8.514   7.542   4.297 -0.1645 -1.9838  0.8203
  491MOL0     H67744   8.174   8.090   4.328 -0.8269  0.5596  0.4871
  491MOL0     H67745   7.937   8.120   4.289 -0.5190 -0.2967 -1.8119
  491MOL0     H67746   7.713   8.138   4.266 -2.0635  0.6503  0.3733
  491MOL0     H67747   7.572   8.077   4.343  0.5657  1.3237 -1.3674
  491MOL0     H67748   7.803   8.202   4.495  0.1538 -3.6164  0.5696
  491MOL0     H67749   7.665   8.125   4.569  0.3535 -1.4108 -0.9110
  491MOL0     H67750   7.579   8.307   4.365 -1.0415  0.8420  0.3970
  491MOL0     H67751   7.538   8.321   4.530  0.6408  1.2158  1.2001
  491MOL0     H67752   7.778   8.430   4.574 -2.2584  1.9856  0.7414
  491MOL0     H67753   7.653   8.523   4.489 -0.5316 -0.4060 -0.6555
  491MOL0     H67754   7.926   8.522   4.192 -0.2695  1.2136  0.1030
  491MOL0     H67755   7.853   7.733   4.457 -3.4381  0.8532 -2.5990
  491MOL0     H67756   8.179   7.655   4.562 -0.7508 -2.3479 -0.2375
  491MOL0     H67757   8.018   7.596   4.551  1.6485 -0.2399  2.1282
  491MOL0     H67758   8.137   7.569   4.423 -3.2834 -2.1732  0.0165
  492MOL0     O67759   0.919   0.935  11.009  1.0265 -0.1259 -0.0414
  492MOL0     C67760   0.875   0.839  10.945  0.2282  0.6455 -0.5600
  492MOL0     O67761   0.936   0.720  10.927  0.3081 -0.4053 -0.4554
  492MOL0     C67762   1.073   0.714  10.953  0.6880  0.1302 -0.6803
  492MOL0     C67763   1.116   0.589  10.990  0.0283  1.0525  0.5583
  492MOL0     C67764   1.255   0.558  11.000 -0.3990 -0.8224  0.5279
  492MOL0     C67765   1.352   0.659  10.979  0.6484  0.7664  0.2619
  492MOL0     O67766   1.484   0.611  10.971 -0.7249  0.3587  0.0323
  492MOL0     C67767   1.601   0.694  10.968  0.5074  0.0891  0.2503
  492MOL0     C67768   1.726   0.605  10.963  0.6431  0.2936 -0.0882
  492MOL0     C67769   1.722   0.501  11.081  0.8502  0.0746  0.4219
  492MOL0     C67770   1.812   0.382  11.067 -0.5138 -0.3958 -0.5609
  492MOL0     C67771   1.857   0.334  11.207  0.5883  0.5088  0.6649
  492MOL0     C67772   1.751   0.229  11.264 -0.1809  0.1812  0.1755
  492MOL0     C67773   1.793   0.176  11.399  0.4907 -0.9335  0.0014
  492MOL0     C67774   1.804   0.282  11.504  0.3897 -0.2693 -0.5211
  492MOL0     N67775   1.788   0.214  11.635 -0.2595  0.3976 -0.2279
  492MOL0     C67776   1.855   0.095  11.679  1.0306  0.5326  0.2552
  492MOL0     C67777   1.819   0.077  11.802 -0.3017  0.8649 -0.1333
  492MOL0     C67778   1.836  -0.060  11.880  0.0530 -0.3508  0.0480
  492MOL0     C67779   1.979  -0.121  11.884  0.8157 -0.5182  0.5566
  492MOL0     C67780   1.967  -0.257  11.949  0.3682  0.0268 -0.3937
  492MOL0     C67781   2.096  -0.329  11.926  0.3799 -0.2910 -0.3345
  492MOL0     O67782   2.216  -0.261  11.972 -0.2379  0.3540 -0.0958
  492MOL0     C67783   2.339  -0.326  11.956  0.5758 -0.1807 -0.0207
  492MOL0     C67784   2.355  -0.440  11.869  0.1598 -0.3975 -0.5078
  492MOL0     C67785   2.479  -0.500  11.851 -1.0584 -0.0644 -1.1149
  492MOL0     C67786   2.490  -0.616  11.754  0.0794 -0.8215 -0.5632
  492MOL0     C67787   2.591  -0.456  11.921 -0.2729 -0.1232 -0.5735
  492MOL0     C67788   2.723  -0.517  11.910 -0.3777  0.0499 -0.2639
  492MOL0     O67789   2.826  -0.428  11.889 -0.0656  0.3998 -0.1358
  492MOL0     C67790   2.949  -0.479  11.876 -0.7505  0.0913  0.4647
  492MOL0     C67791   3.044  -0.412  11.953  1.0765  1.2193  0.1565
  492MOL0     C67792   3.178  -0.458  11.954 -0.5577  0.3396  0.0878
  492MOL0     C67793   3.217  -0.567  11.880  1.2657 -0.4360  0.6902
  492MOL0     O67794   3.346  -0.598  11.867 -0.2459  0.2708 -0.0170
  492MOL0     C67795   3.395  -0.660  11.989 -0.6813 -0.0592  0.0438
  492MOL0     C67796   3.509  -0.755  11.963  0.0552 -0.7203  0.2672
  492MOL0     C67797   3.560  -0.807  12.099  0.6384 -0.6732 -0.3125
  492MOL0     C67798   3.644  -0.934  12.083 -0.4305 -0.3261 -0.2814
  492MOL0     C67799   3.734  -0.955  12.200 -0.2598 -0.1357 -0.1574
  492MOL0     C67800   3.814  -1.086  12.187  0.0926 -0.5196  0.2367
  492MOL0     C67801   3.938  -1.065  12.275 -0.0981 -0.0460 -0.5776
  492MOL0     C67802   4.046  -1.177  12.298 -0.8414 -0.0675 -0.7763
  492MOL0    Cl67803   3.977  -1.309  12.401  0.1244  0.0379 -0.2014
  492MOL0     C67804   3.122  -0.619  11.785  0.2655 -0.5172 -0.3867
  492MOL0     C67805   2.982  -0.579  11.781 -0.3902  0.2667 -0.7154
  492MOL0     O67806   2.733  -0.638  11.926 -0.7688 -0.2427 -0.2883
  492MOL0     C67807   2.577  -0.337  11.994 -0.3362 -0.0653  0.3233
  492MOL0     C67808   2.458  -0.276  12.010  0.9360  0.0604 -0.3025
  492MOL0     N67809   1.732   0.180  11.839  0.4024 -0.2323  0.3537
  492MOL0     N67810   1.706   0.261  11.737 -0.8153  0.1584 -0.0834
  492MOL0     C67811   1.306   0.787  10.947 -0.2199 -0.4274 -0.0031
  492MOL0     C67812   1.171   0.810  10.939  0.9982 -0.0885 -0.2758
  492MOL0     C67813   0.741   0.849  10.889  1.2061  0.2425  0.2922
  492MOL0     C67814   0.679   0.730  10.850  0.4357  0.0937  0.0371
  492MOL0     C67815   0.546   0.733  10.793  0.2242 -1.3726  0.4020
  492MOL0     C67816   0.476   0.859  10.778  0.4119  0.3207 -0.6717
  492MOL0     O67817   0.349   0.868  10.736 -0.3109  0.8363 -0.7656
  492MOL0     C67818   0.256   0.875  10.844  0.0291  0.7850  0.1556
  492MOL0     C67819   0.151   0.983  10.815  0.2209  0.0426 -0.2086
  492MOL0     C67820   0.067   0.942  10.692 -0.2406 -0.1173 -0.1922
  492MOL0     C67821  -0.036   1.053  10.649  0.2501  0.6860  0.0881
  492MOL0     C67822  -0.176   1.022  10.701 -0.8905  0.0625  0.2866
  492MOL0     C67823  -0.283   0.995  10.751 -0.1862  0.0275  1.3119
  492MOL0     C67824   0.543   0.970  10.814 -0.6944 -0.0592  0.0235
  492MOL0     C67825   0.673   0.970  10.864 -0.6239 -0.1312 -0.0035
  492MOL0     C67826   0.742   1.111  10.882  0.0655  1.0744  0.0611
  492MOL0     H67827   1.052   0.505  11.015 -2.9756  1.9889 -3.2094
  492MOL0     H67828   1.291   0.458  11.022  0.3586 -0.8745 -0.8746
  492MOL0     H67829   1.598   0.768  11.048 -2.5456  0.5348 -0.1592
  492MOL0     H67830   1.586   0.754  10.878 -4.3222 -1.5266 -0.3150
  492MOL0     H67831   1.715   0.552  10.869 -0.3346 -2.1593  1.3098
  492MOL0     H67832   1.815   0.668  10.971 -0.0244  1.0895  1.6602
  492MOL0     H67833   1.751   0.558  11.170 -2.8059 -1.2821  2.7133
  492MOL0     H67834   1.622   0.457  11.092  1.3727 -0.9051  1.4632
  492MOL0     H67835   1.779   0.290  11.017 -0.1300 -0.8974  0.0903
  492MOL0     H67836   1.903   0.407  11.012  0.3785  2.0411  1.8397
  492MOL0     H67837   1.881   0.424  11.264  0.3560  3.0028 -2.8218
  492MOL0     H67838   1.952   0.281  11.198  0.3231 -0.1565  1.6324
  492MOL0     H67839   1.648   0.265  11.264  0.4854  2.3246 -0.8963
  492MOL0     H67840   1.747   0.144  11.195  2.3484 -0.8571  1.1877
  492MOL0     H67841   1.886   0.118  11.394  0.8781 -0.3746  0.6022
  492MOL0     H67842   1.717   0.107  11.436  0.2756 -0.6885  0.0159
  492MOL0     H67843   1.896   0.340  11.504  0.4219 -0.3202 -0.5113
  492MOL0     H67844   1.722   0.354  11.495 -0.4269 -1.1287 -0.1412
  492MOL0     H67845   1.919   0.024  11.627  0.7408 -0.3269  1.0548
  492MOL0     H67846   1.757  -0.124  11.841 -0.5981 -0.6439  1.7688
  492MOL0     H67847   1.812  -0.029  11.982  2.0635  1.0560  0.1567
  492MOL0     H67848   2.008  -0.127  11.779 -0.5198  0.0150  0.1316
  492MOL0     H67849   2.038  -0.050  11.942  0.8665 -0.2953  0.2352
  492MOL0     H67850   1.956  -0.241  12.056 -1.8325  1.8840 -0.8337
  492MOL0     H67851   1.895  -0.328  11.906 -1.3227  0.6136  1.3499
  492MOL0     H67852   2.086  -0.429  11.969  2.2752 -0.3851  0.0058
  492MOL0     H67853   2.100  -0.349  11.818  0.9220 -3.0951  0.1115
  492MOL0     H67854   2.270  -0.480  11.815 -0.3699 -1.1912  0.8637
  492MOL0     H67855   2.501  -0.712  11.806  0.4400  0.0015  0.9227
  492MOL0     H67856   2.563  -0.605  11.673 -1.8891  1.5930 -2.1629
  492MOL0     H67857   2.399  -0.624  11.694 -0.5848 -1.4951  0.5010
  492MOL0     H67858   3.019  -0.328  12.017  0.1177  2.4379 -1.7183
  492MOL0     H67859   3.254  -0.394  11.997  0.2504 -1.4001  1.3183
  492MOL0     H67860   3.425  -0.576  12.053  0.3184  0.6055 -1.2495
  492MOL0     H67861   3.319  -0.718  12.042 -0.2816  0.1671  0.8710
  492MOL0     H67862   3.476  -0.845  11.911  0.4315  0.8991 -3.0068
  492MOL0     H67863   3.588  -0.706  11.906  1.6785 -1.4704  1.7983
  492MOL0     H67864   3.472  -0.835  12.157 -0.6258  0.0919 -1.7821
  492MOL0     H67865   3.619  -0.726  12.143  0.1280 -1.6186  2.2677
  492MOL0     H67866   3.714  -0.916  12.001  0.6420  0.7257  0.8131
  492MOL0     H67867   3.585  -1.020  12.051 -1.4946  0.9629 -1.9457
  492MOL0     H67868   3.797  -0.866  12.209  2.8526 -2.1860  0.1001
  492MOL0     H67869   3.669  -0.955  12.288 -1.3529  1.7573 -0.8906
  492MOL0     H67870   3.833  -1.105  12.081 -1.0778 -0.0648 -0.0700
  492MOL0     H67871   3.760  -1.168  12.234  1.6806 -1.9818 -0.3766
  492MOL0     H67872   3.911  -1.038  12.378  1.7211 -0.8244  0.1452
  492MOL0     H67873   3.985  -0.978  12.228 -2.0519 -0.4161 -3.4232
  492MOL0     H67874   4.131  -1.137  12.355 -2.0207 -1.4288  2.1285
  492MOL0     H67875   4.084  -1.228  12.208 -2.4958 -1.7267 -0.5814
  492MOL0     H67876   3.163  -0.689  11.713  2.4886  0.4673 -0.1522
  492MOL0     H67877   2.905  -0.625  11.720  0.6820  0.7904 -2.5481
  492MOL0     H67878   2.664  -0.286  12.034  0.4489 -1.0782 -0.0388
  492MOL0     H67879   2.452  -0.180  12.062  1.1135  0.0590 -0.2775
  492MOL0     H67880   1.377   0.867  10.929 -0.3887 -0.5545 -1.3221
  492MOL0     H67881   1.144   0.912  10.914 -1.5851 -0.5902  0.1894
  492MOL0     H67882   0.736   0.637  10.849  0.6028  0.1287  1.7665
  492MOL0     H67883   0.490   0.651  10.749 -1.7820  0.5553 -0.8899
  492MOL0     H67884   0.220   0.773  10.859  1.4263  0.1465 -0.5787
  492MOL0     H67885   0.313   0.902  10.933  0.6996  0.6903 -0.2350
  492MOL0     H67886   0.182   1.088  10.808  1.2749 -0.1195  1.5143
  492MOL0     H67887   0.089   0.979  10.905  0.0075  0.7560 -0.3198
  492MOL0     H67888   0.140   0.930  10.611  2.4162 -1.4213  2.2158
  492MOL0     H67889   0.019   0.846  10.714 -1.0187  0.3449  0.2078
  492MOL0     H67890  -0.057   1.045  10.542 -4.9582 -0.1736  0.9299
  492MOL0     H67891  -0.008   1.156  10.674  0.5134  0.6653 -0.1114
  492MOL0     H67892  -0.386   0.988  10.778 -0.3105 -0.1343  0.7962
  492MOL0     H67893   0.493   1.066  10.805 -1.8438 -0.2434  3.1944
  492MOL0     H67894   0.823   1.129  10.811 -0.0552  1.7312  0.0816
  492MOL0     H67895   0.672   1.193  10.865 -0.4037  0.8136  0.6799
  492MOL0     H67896   0.775   1.122  10.986  0.2417 -3.1137  0.6019
  493MOL0     O67897   1.168   7.712   1.208 -0.3288  0.1912 -0.2695
  493MOL0     C67898   1.183   7.637   1.308  0.0234 -0.4770 -0.1363
  493MOL0     O67899   1.301   7.628   1.374  0.2304  0.0429 -0.3289
  493MOL0     C67900   1.376   7.741   1.402 -0.4846  0.5508 -0.6073
  493MOL0     C67901   1.328   7.867   1.436  0.5761 -0.6995  1.3605
  493MOL0     C67902   1.418   7.971   1.468  0.4633  0.3870 -0.2062
  493MOL0     C67903   1.555   7.957   1.463 -0.1061 -0.2956  0.5867
  493MOL0     O67904   1.629   8.060   1.500  0.0600  0.0828 -0.7645
  493MOL0     C67905   1.770   8.057   1.496 -0.0629 -0.3195  0.0243
  493MOL0     C67906   1.816   8.190   1.549 -0.5356 -0.3788  0.0812
  493MOL0     C67907   1.966   8.204   1.555  1.1942 -0.6336 -0.4642
  493MOL0     C67908   2.019   8.337   1.605  0.6145 -0.0306 -0.3540
  493MOL0     C67909   2.172   8.349   1.613 -0.2743  0.0506 -0.2953
  493MOL0     C67910   2.247   8.359   1.482 -0.3114 -0.6027  0.5781
  493MOL0     C67911   2.404   8.362   1.483 -1.0943 -0.8670  0.3340
  493MOL0     C67912   2.465   8.383   1.341  0.2945 -0.3294  1.5465
  493MOL0     N67913   2.614   8.381   1.362  0.0519  0.7729  0.3791
  493MOL0     C67914   2.671   8.497   1.396 -0.3635  0.1739  0.7340
  493MOL0     C67915   2.799   8.483   1.368 -0.7686  0.3114  0.1700
  493MOL0     C67916   2.893   8.598   1.362  0.5591 -0.1341  0.2453
  493MOL0     C67917   3.040   8.555   1.397 -0.3549 -0.1844  0.7723
  493MOL0     C67918   3.113   8.519   1.268  0.0181 -0.3563 -0.2557
  493MOL0     C67919   3.248   8.470   1.309 -0.3795  1.0278  0.5896
  493MOL0     O67920   3.329   8.578   1.344 -0.4315 -0.0876  0.9447
  493MOL0     C67921   3.444   8.562   1.416 -0.8489 -0.4275  0.4039
  493MOL0     C67922   3.495   8.437   1.461  0.1573 -0.4637 -1.0179
  493MOL0     C67923   3.614   8.432   1.533 -0.2171  0.5862 -0.2925
  493MOL0     C67924   3.665   8.300   1.597  0.1917  0.4737 -1.2316
  493MOL0     C67925   3.685   8.560   1.553  0.7179  0.1825 -0.2770
  493MOL0     C67926   3.818   8.565   1.623 -0.3981 -0.0116 -0.5332
  493MOL0     O67927   3.858   8.688   1.671 -0.2876 -0.3368 -0.4309
  493MOL0     C67928   3.973   8.689   1.750  0.1857 -0.9957  1.2479
  493MOL0     C67929   4.101   8.737   1.700  0.1554  0.1621 -0.2835
  493MOL0     C67930   4.209   8.751   1.788  0.0117 -0.5287 -0.0758
  493MOL0     C67931   4.200   8.707   1.920  1.5727 -0.8610  0.6150
  493MOL0     O67932   4.305   8.714   2.002  0.7462 -0.3523  0.1792
  493MOL0     C67933   4.321   8.620   2.106  0.7327 -0.5604  0.1431
  493MOL0     C67934   4.330   8.679   2.246 -0.1077  0.3549 -0.6404
  493MOL0     C67935   4.450   8.784   2.255  0.1843  0.7023  0.7109
  493MOL0     C67936   4.491   8.811   2.401 -0.4552 -0.3333 -0.4693
  493MOL0     C67937   4.377   8.882   2.479 -0.1174  0.8083  0.2830
  493MOL0     C67938   4.429   8.920   2.621  0.0627  0.1706  0.5494
  493MOL0     C67939   4.533   9.028   2.616 -0.7562  0.0856 -0.4939
  493MOL0     C67940   4.592   9.076   2.750  0.1236 -0.2642 -0.5603
  493MOL0    Cl67941   4.707   8.956   2.802  0.0455  0.4142  0.0283
  493MOL0     C67942   4.071   8.683   1.970  0.5611 -0.4723 -0.5503
  493MOL0     C67943   3.959   8.674   1.886 -0.6830 -0.6660 -0.0538
  493MOL0     O67944   3.892   8.464   1.629  0.2790  0.0513 -0.0999
  493MOL0     C67945   3.638   8.680   1.506  1.0841 -0.6796  0.5560
  493MOL0     C67946   3.512   8.685   1.438 -0.7518 -0.1681 -0.6723
  493MOL0     N67947   2.820   8.356   1.331 -1.2137  0.4900  0.5783
  493MOL0     N67948   2.709   8.290   1.328 -0.5164  0.3485  0.0514
  493MOL0     C67949   1.601   7.835   1.424  0.2966  0.2333  0.4532
  493MOL0     C67950   1.518   7.726   1.398 -0.2238  0.2111  0.3710
  493MOL0     C67951   1.082   7.526   1.312  0.4070  0.4299  0.9499
  493MOL0     C67952   0.983   7.519   1.210  0.3878 -0.1579  0.2781
  493MOL0     C67953   0.889   7.413   1.216 -0.3145  0.7997  0.0548
  493MOL0     C67954   0.897   7.314   1.314 -0.3391 -0.1978 -0.5715
  493MOL0     O67955   0.842   7.190   1.323  0.3484 -0.3520  0.4000
  493MOL0     C67956   0.819   7.133   1.194 -0.7055  0.0513  1.2293
  493MOL0     C67957   0.729   7.010   1.202  0.0316  0.5443  0.0435
  493MOL0     C67958   0.593   7.041   1.267  0.4471  0.1021  0.3251
  493MOL0     C67959   0.521   6.910   1.317 -0.3442 -0.5702  0.5674
  493MOL0     C67960   0.528   6.792   1.225 -0.2938  0.6258  0.4439
  493MOL0     C67961   0.528   6.689   1.159 -0.0567  0.3720  0.2547
  493MOL0     C67962   0.982   7.339   1.423  0.5206  0.8673 -0.9528
  493MOL0     C67963   1.076   7.436   1.419 -0.5582 -0.3870 -0.0161
  493MOL0     C67964   1.145   7.463   1.554 -0.4217 -0.4756 -0.2587
  493MOL0     H67965   1.220   7.877   1.437  0.5102 -1.3541  1.1390
  493MOL0     H67966   1.367   8.065   1.485 -4.3115 -1.7256 -1.1087
  493MOL0     H67967   1.809   8.031   1.397  2.8437 -0.3939  1.0732
  493MOL0     H67968   1.809   7.982   1.566  0.3675 -1.2710 -1.1998
  493MOL0     H67969   1.772   8.261   1.477  2.0256 -1.0738 -2.3641
  493MOL0     H67970   1.764   8.206   1.644 -1.0817 -1.7186  0.0287
  493MOL0     H67971   2.002   8.132   1.629 -1.2838 -0.0316  1.4745
  493MOL0     H67972   2.014   8.181   1.460 -0.3365 -2.1759 -0.9092
  493MOL0     H67973   1.983   8.417   1.540  0.0808  0.5439  0.6290
  493MOL0     H67974   1.985   8.360   1.706  1.3612  2.5079 -0.6079
  493MOL0     H67975   2.210   8.261   1.667  1.7203  1.7465  1.2430
  493MOL0     H67976   2.198   8.437   1.673  0.1681 -0.9057  0.9488
  493MOL0     H67977   2.233   8.268   1.423 -2.0720 -3.3462  4.7291
  493MOL0     H67978   2.205   8.441   1.423  1.0653 -0.3701 -0.1441
  493MOL0     H67979   2.449   8.272   1.526  0.9230 -1.0591 -1.9839
  493MOL0     H67980   2.412   8.445   1.553 -1.7668 -0.2814 -0.2592
  493MOL0     H67981   2.447   8.293   1.281  0.4797  1.5845 -1.5905
  493MOL0     H67982   2.428   8.474   1.293  1.1197  0.3631  2.1808
  493MOL0     H67983   2.611   8.577   1.438 -2.6130 -1.1966  0.3292
  493MOL0     H67984   2.858   8.670   1.437 -2.3991 -0.2953 -0.8422
  493MOL0     H67985   2.879   8.645   1.264 -0.7222  0.0669  0.5047
  493MOL0     H67986   3.100   8.624   1.457  2.0327 -0.6584 -0.9033
  493MOL0     H67987   3.033   8.464   1.457 -0.5652 -1.2278 -0.7942
  493MOL0     H67988   3.056   8.440   1.219  1.4168 -1.1320 -0.6806
  493MOL0     H67989   3.128   8.606   1.203  1.8810  0.1047  0.7148
  493MOL0     H67990   3.237   8.399   1.392 -1.0040  0.9076  0.4082
  493MOL0     H67991   3.288   8.413   1.225 -0.7362 -1.6962  2.1299
  493MOL0     H67992   3.444   8.342   1.450 -0.4627 -0.1723 -0.6885
  493MOL0     H67993   3.583   8.227   1.598 -1.0746  1.8696 -1.0661
  493MOL0     H67994   3.691   8.326   1.700 -1.4720  0.3704 -0.7482
  493MOL0     H67995   3.754   8.254   1.552  0.3405 -0.7781  0.2587
  493MOL0     H67996   4.101   8.777   1.599 -2.8515 -2.1766 -1.3520
  493MOL0     H67997   4.304   8.778   1.743 -0.5250  1.3390 -0.1897
  493MOL0     H67998   4.251   8.537   2.099  0.3286 -0.4706  2.2462
  493MOL0     H67999   4.415   8.566   2.088  0.3655 -0.6471 -1.5912
  493MOL0     H68000   4.237   8.728   2.279 -0.2191  1.0187 -1.8386
  493MOL0     H68001   4.356   8.599   2.315  0.1851  2.0939  1.3710
  493MOL0     H68002   4.404   8.876   2.216 -1.9536  0.2420  1.9723
  493MOL0     H68003   4.533   8.766   2.186  0.0561  1.6347  0.2855
  493MOL0     H68004   4.582   8.872   2.399  0.1464 -1.1782  0.4729
  493MOL0     H68005   4.530   8.716   2.440  0.4270 -0.0436 -0.6177
  493MOL0     H68006   4.340   8.970   2.427  3.7029  1.3684 -1.8633
  493MOL0     H68007   4.294   8.811   2.485 -0.0663  0.8035  1.0093
  493MOL0     H68008   4.471   8.832   2.671  0.8124  1.6744  2.7051
  493MOL0     H68009   4.354   8.970   2.682  1.5069 -0.7020  3.1888
  493MOL0     H68010   4.490   9.113   2.562  0.6181  2.4529  1.8869
  493MOL0     H68011   4.625   8.999   2.565 -0.5285 -3.8193  1.7091
  493MOL0     H68012   4.521   9.096   2.830  2.5700  0.9142  1.4787
  493MOL0     H68013   4.651   9.167   2.732  1.6753 -0.5362  2.5568
  493MOL0     H68014   4.065   8.691   2.078  0.9077  2.6351 -0.6889
  493MOL0     H68015   3.862   8.658   1.931 -0.2973  2.9144  2.5153
  493MOL0     H68016   3.693   8.770   1.531 -1.2536  1.2688 -0.8998
  493MOL0     H68017   3.466   8.775   1.398  0.6488 -0.4733 -3.1840
  493MOL0     H68018   1.708   7.829   1.410  0.3749 -4.0248  1.3688
  493MOL0     H68019   1.565   7.631   1.377  0.3544  0.2902  1.2441
  493MOL0     H68020   0.975   7.597   1.136  0.4127 -1.0897 -0.7290
  493MOL0     H68021   0.822   7.405   1.131  0.7483 -1.9872 -0.6119
  493MOL0     H68022   0.762   7.204   1.134  0.7916  0.5495  0.3339
  493MOL0     H68023   0.917   7.119   1.145 -2.3715 -1.0823 -2.1015
  493MOL0     H68024   0.782   6.953   1.279  1.4057  2.6398  0.7449
  493MOL0     H68025   0.714   6.955   1.109 -0.0715  0.9452 -0.1753
  493MOL0     H68026   0.602   7.104   1.356  1.0633 -1.3649  1.3417
  493MOL0     H68027   0.531   7.091   1.193  0.8817  3.6252  2.1487
  493MOL0     H68028   0.419   6.938   1.347  0.0144  2.1622 -0.4830
  493MOL0     H68029   0.573   6.877   1.408  0.1476 -1.6150 -0.0730
  493MOL0     H68030   0.510   6.592   1.116  2.4482  0.1309 -0.4399
  493MOL0     H68031   0.969   7.272   1.508  1.4005  0.3542 -1.2118
  493MOL0     H68032   1.248   7.427   1.559 -1.1275 -3.1194 -2.5732
  493MOL0     H68033   1.147   7.572   1.565  0.7218 -0.4898 -0.2763
  493MOL0     H68034   1.088   7.413   1.633 -0.1675 -0.8970 -0.3398
  494MOL0     O68035   6.014   3.608   3.717  0.6449  0.1632  0.1918
  494MOL0     C68036   5.966   3.598   3.827  1.2876 -0.4844 -0.1464
  494MOL0     O68037   5.986   3.692   3.927 -0.6157  0.4557  0.3171
  494MOL0     C68038   6.074   3.795   3.900  0.4219  0.4822 -0.0477
  494MOL0     C68039   6.038   3.929   3.916 -0.0569  0.8227  0.0940
  494MOL0     C68040   6.129   4.024   3.891 -0.7848 -0.2347  0.3607
  494MOL0     C68041   6.253   3.992   3.828  0.1390  0.8506  0.1424
  494MOL0     O68042   6.345   4.085   3.792  0.4590 -0.2271  0.4235
  494MOL0     C68043   6.307   4.188   3.704 -0.4811 -0.0939  0.0911
  494MOL0     C68044   6.312   4.123   3.555  0.1981  0.3862 -0.3862
  494MOL0     C68045   6.447   4.071   3.502  0.2820  1.1440  0.1100
  494MOL0     C68046   6.425   3.993   3.369  0.2211  0.8718  0.4707
  494MOL0     C68047   6.554   3.945   3.303  0.9177 -0.2030  0.4668
  494MOL0     C68048   6.538   3.904   3.153 -0.3448 -0.3288  0.6624
  494MOL0     C68049   6.637   3.786   3.115  0.4963 -0.3211  0.2462
  494MOL0     C68050   6.782   3.835   3.089 -0.6968  0.2899 -0.7249
  494MOL0     N68051   6.844   3.719   3.023  0.2301 -0.5127 -0.4723
  494MOL0     C68052   6.845   3.704   2.890 -0.3843 -1.0582  0.0120
  494MOL0     C68053   6.909   3.587   2.866  0.3628 -0.4971 -0.2635
  494MOL0     C68054   6.931   3.519   2.737  0.3805  0.5717  0.2484
  494MOL0     C68055   7.078   3.519   2.704 -0.5540 -0.1060 -0.2243
  494MOL0     C68056   7.096   3.434   2.586 -0.7560  0.9841  0.2301
  494MOL0     C68057   7.241   3.443   2.540  0.5301  0.6668 -0.3128
  494MOL0     O68058   7.331   3.399   2.638  0.0942  0.2989  0.9077
  494MOL0     C68059   7.468   3.419   2.623  0.3649  1.0994  0.3930
  494MOL0     C68060   7.539   3.388   2.740 -0.3103  0.1254  0.0674
  494MOL0     C68061   7.677   3.389   2.747 -0.1172 -0.4783 -0.3435
  494MOL0     C68062   7.747   3.329   2.862  0.2843 -0.4191  0.0076
  494MOL0     C68063   7.743   3.451   2.632 -0.0027  0.4372 -0.2652
  494MOL0     C68064   7.894   3.457   2.633  0.7220 -0.5047  0.8543
  494MOL0     O68065   7.958   3.376   2.543 -0.8060  0.0576  0.1906
  494MOL0     C68066   8.094   3.372   2.559  0.8043  0.0347 -0.0886
  494MOL0     C68067   8.146   3.284   2.657 -0.5029 -0.2751 -0.5260
  494MOL0     C68068   8.281   3.281   2.687  0.2276 -0.1496  0.0735
  494MOL0     C68069   8.378   3.349   2.614 -0.6074 -0.4474 -0.1780
  494MOL0     O68070   8.508   3.331   2.645 -0.4546  0.4903  0.1493
  494MOL0     C68071   8.591   3.247   2.564 -0.2704  0.6259 -0.3859
  494MOL0     C68072   8.689   3.339   2.485  0.7500 -0.7526  0.4089
  494MOL0     C68073   8.751   3.298   2.349  0.5654 -0.2726  0.5083
  494MOL0     C68074   8.810   3.162   2.346  0.0909  0.3241  0.3139
  494MOL0     C68075   8.831   3.116   2.204  0.2241 -0.2526 -0.0597
  494MOL0     C68076   8.940   3.006   2.188  0.1972  0.1797 -0.6650
  494MOL0     C68077   8.975   2.955   2.053  0.1659 -0.6097 -0.9225
  494MOL0     C68078   9.043   3.064   1.973  0.4689  0.2177  0.4432
  494MOL0    Cl68079   9.110   2.978   1.829  0.2087 -0.4122 -0.1583
  494MOL0     C68080   8.323   3.428   2.513 -0.2678 -0.2974 -0.4565
  494MOL0     C68081   8.185   3.448   2.487  1.3811  0.1908 -0.1480
  494MOL0     O68082   7.945   3.536   2.713  0.3314  0.2231  0.2853
  494MOL0     C68083   7.670   3.502   2.527  0.0428  0.3011 -0.1227
  494MOL0     C68084   7.535   3.479   2.517 -0.0358  0.1159 -0.6518
  494MOL0     N68085   6.952   3.529   2.994  0.2642 -0.5751  0.1673
  494MOL0     N68086   6.901   3.603   3.083 -0.1815  0.2246  0.3895
  494MOL0     C68087   6.292   3.859   3.822 -0.5299  0.7789  0.0168
  494MOL0     C68088   6.203   3.765   3.863  0.2147 -0.0394 -0.1247
  494MOL0     C68089   5.859   3.489   3.860  0.7310 -0.7997 -0.3083
  494MOL0     C68090   5.795   3.489   3.980 -0.1291  0.0742  0.1974
  494MOL0     C68091   5.685   3.412   4.019 -0.4323  0.3310  0.9764
  494MOL0     C68092   5.634   3.321   3.932  0.4521 -0.5483  0.7482
  494MOL0     O68093   5.517   3.262   3.983 -0.6004  0.0586  0.5764
  494MOL0     C68094   5.453   3.151   3.912 -0.2194  0.3034  0.8637
  494MOL0     C68095   5.313   3.129   3.973 -0.9294  0.5848  0.0655
  494MOL0     C68096   5.224   3.263   3.973 -0.1465  0.1306  0.5104
  494MOL0     C68097   5.079   3.222   4.028  0.1700  0.1168  0.1859
  494MOL0     C68098   5.064   3.219   4.174 -0.4570 -0.1571  0.2628
  494MOL0     C68099   5.065   3.235   4.290  0.6965  0.2868 -0.0798
  494MOL0     C68100   5.698   3.308   3.801 -0.2758  0.6349 -0.2930
  494MOL0     C68101   5.817   3.384   3.766 -0.4730 -0.4052  0.1932
  494MOL0     C68102   5.863   3.379   3.620 -0.7165  0.4609 -0.7188
  494MOL0     H68103   5.942   3.953   3.961 -1.4124 -3.4830 -0.1106
  494MOL0     H68104   6.110   4.128   3.913  1.8531  0.9578 -2.3201
  494MOL0     H68105   6.378   4.270   3.718 -0.4868 -0.4706  2.9050
  494MOL0     H68106   6.206   4.228   3.716 -0.1179  0.6225  0.8730
  494MOL0     H68107   6.243   4.039   3.561 -0.7986  1.0862 -1.5724
  494MOL0     H68108   6.273   4.199   3.487  1.5875  0.9324 -0.6193
  494MOL0     H68109   6.514   4.155   3.480 -2.5602  3.5252 -0.0044
  494MOL0     H68110   6.497   4.007   3.576 -0.8280 -0.4377 -0.4470
  494MOL0     H68111   6.366   3.903   3.389  2.9186 -1.1758 -0.2452
  494MOL0     H68112   6.377   4.059   3.296 -1.9585 -1.8237 -0.7035
  494MOL0     H68113   6.585   3.855   3.358 -0.3429 -0.0477  1.4818
  494MOL0     H68114   6.627   4.025   3.315 -0.5630  1.3811 -0.6964
  494MOL0     H68115   6.433   3.877   3.142 -2.9057  5.7373  4.9513
  494MOL0     H68116   6.559   3.990   3.089 -0.5170 -2.1429 -1.9968
  494MOL0     H68117   6.613   3.747   3.016  1.5811 -1.4334  0.3941
  494MOL0     H68118   6.632   3.700   3.183  1.0763 -0.9407 -0.4684
  494MOL0     H68119   6.800   3.919   3.022 -0.1546 -2.0115 -3.6508
  494MOL0     H68120   6.831   3.854   3.185 -0.3951 -3.8613  0.1504
  494MOL0     H68121   6.804   3.780   2.825  1.0606  0.2471  0.5921
  494MOL0     H68122   6.870   3.570   2.662 -1.8897  0.6671  2.0287
  494MOL0     H68123   6.902   3.414   2.746 -1.3256  0.6991 -2.6063
  494MOL0     H68124   7.104   3.621   2.673 -2.7275  0.5913  0.0764
  494MOL0     H68125   7.137   3.482   2.788  0.8726  0.5405 -0.9118
  494MOL0     H68126   7.075   3.330   2.611 -0.1527  0.6766 -0.4989
  494MOL0     H68127   7.034   3.479   2.508 -1.6062  0.6867  0.7289
  494MOL0     H68128   7.237   3.373   2.456 -4.1253 -1.7009  1.4836
  494MOL0     H68129   7.249   3.547   2.507 -0.8531  1.5520  1.9048
  494MOL0     H68130   7.495   3.357   2.834 -1.3092 -0.3701 -0.5505
  494MOL0     H68131   7.676   3.281   2.930 -1.3124  2.5148  0.5812
  494MOL0     H68132   7.805   3.397   2.925  1.6338 -2.0420  0.5990
  494MOL0     H68133   7.822   3.257   2.826  1.8150  1.4506 -0.7239
  494MOL0     H68134   8.092   3.204   2.707  2.3630 -1.9731  0.0756
  494MOL0     H68135   8.318   3.214   2.764 -0.2223 -0.3554  0.1156
  494MOL0     H68136   8.657   3.185   2.624 -0.8833  0.6599  0.3401
  494MOL0     H68137   8.534   3.178   2.501  1.9897 -1.3418 -0.4092
  494MOL0     H68138   8.634   3.429   2.456  0.7771 -0.9206 -0.1877
  494MOL0     H68139   8.768   3.376   2.550  2.1401  0.6439 -1.9616
  494MOL0     H68140   8.824   3.377   2.330  2.2386 -1.4096  1.8613
  494MOL0     H68141   8.671   3.311   2.276 -0.5016  0.8686  1.8293
  494MOL0     H68142   8.737   3.085   2.373  1.1879 -2.0661 -2.8502
  494MOL0     H68143   8.905   3.169   2.401  2.7459  2.5825 -3.9706
  494MOL0     H68144   8.736   3.086   2.157  0.8224 -1.7452 -0.3753
  494MOL0     H68145   8.866   3.204   2.150 -2.2313  2.3165  2.1745
  494MOL0     H68146   8.902   2.921   2.247 -0.2473  0.6253 -0.2974
  494MOL0     H68147   9.033   3.031   2.239 -0.8008  0.1153  1.3143
  494MOL0     H68148   8.896   2.916   1.989 -1.2282  2.7410 -1.4498
  494MOL0     H68149   9.045   2.874   2.074 -1.6193 -1.9235  0.3099
  494MOL0     H68150   9.124   3.113   2.027  3.1578  0.3293 -3.2455
  494MOL0     H68151   8.970   3.139   1.941 -0.3964 -0.8992 -0.3009
  494MOL0     H68152   8.393   3.474   2.444  1.4994 -0.3483  1.2408
  494MOL0     H68153   8.159   3.507   2.399 -1.2304 -2.1562 -1.1057
  494MOL0     H68154   7.710   3.575   2.457 -1.2944 -0.7604 -2.1185
  494MOL0     H68155   7.472   3.523   2.441 -0.7177 -3.8192 -2.6016
  494MOL0     H68156   6.393   3.827   3.796 -1.1427 -0.3559 -1.0903
  494MOL0     H68157   6.228   3.661   3.845 -0.1030 -0.6022  2.3340
  494MOL0     H68158   5.826   3.568   4.048  2.0016  0.0835 -0.7236
  494MOL0     H68159   5.653   3.425   4.122 -1.1531 -1.2567  0.9935
  494MOL0     H68160   5.447   3.168   3.804  0.1036  0.8518  0.9274
  494MOL0     H68161   5.515   3.062   3.929  0.4614  0.8777  1.4736
  494MOL0     H68162   5.321   3.077   4.069  3.3910  0.5380 -0.1541
  494MOL0     H68163   5.266   3.060   3.903 -0.5919 -0.5382  0.9130
  494MOL0     H68164   5.275   3.331   4.041  1.6682  0.1925 -0.8497
  494MOL0     H68165   5.223   3.304   3.872 -0.7116  0.7710  0.7708
  494MOL0     H68166   5.058   3.127   3.978  1.3043  1.0509 -2.2186
  494MOL0     H68167   5.012   3.300   3.991 -0.2891  0.6340  2.0252
  494MOL0     H68168   5.072   3.253   4.395 -1.5301  1.6233 -0.0944
  494MOL0     H68169   5.654   3.236   3.732 -2.4324 -0.7991  2.3783
  494MOL0     H68170   5.818   3.469   3.578 -2.5997  1.1194  2.3604
  494MOL0     H68171   5.971   3.370   3.606 -0.8438 -4.8335 -0.4973
  494MOL0     H68172   5.820   3.285   3.583 -1.6910  1.2188 -1.5478
  495MOL0     O68173   2.807   0.553   6.820  0.9132 -0.5488 -0.1062
  495MOL0     C68174   2.756   0.442   6.843 -0.0688  0.1678  0.0946
  495MOL0     O68175   2.829   0.337   6.885 -0.2242  0.2595 -0.1735
  495MOL0     C68176   2.962   0.343   6.869 -0.1727 -0.5937 -0.0357
  495MOL0     C68177   3.051   0.393   6.964 -1.5755  0.3322  0.0084
  495MOL0     C68178   3.191   0.368   6.963  0.4965 -0.2358 -0.2346
  495MOL0     C68179   3.249   0.292   6.867  0.0159  0.0309  0.3749
  495MOL0     O68180   3.385   0.270   6.876  0.5428  0.1789  0.4010
  495MOL0     C68181   3.452   0.191   6.771 -0.2112  0.2073  0.1261
  495MOL0     C68182   3.602   0.217   6.780  0.3196 -0.0937 -0.3900
  495MOL0     C68183   3.659   0.161   6.917  0.7659  0.1410  0.5698
  495MOL0     C68184   3.774   0.231   6.981  0.3503 -0.1343  0.0989
  495MOL0     C68185   3.894   0.249   6.891  0.0257  0.3087  0.8523
  495MOL0     C68186   3.999   0.350   6.943 -0.8001  0.6928 -0.5016
  495MOL0     C68187   4.114   0.390   6.852 -0.0683 -0.0068 -0.4235
  495MOL0     C68188   4.202   0.483   6.939 -0.3119  0.0710  0.6617
  495MOL0     N68189   4.316   0.546   6.871 -0.3778  0.3713  0.2701
  495MOL0     C68190   4.309   0.613   6.749 -0.6521  0.4243  0.1349
  495MOL0     C68191   4.423   0.687   6.751 -0.8776  0.0818  0.3469
  495MOL0     C68192   4.472   0.786   6.637  0.6386 -0.8218  0.0074
  495MOL0     C68193   4.620   0.757   6.600 -0.1427  0.0867 -0.3307
  495MOL0     C68194   4.677   0.850   6.496 -0.0555 -0.0023  0.3445
  495MOL0     C68195   4.821   0.837   6.488 -0.2384  0.2046  0.3577
  495MOL0     O68196   4.890   0.901   6.598  0.4345  0.2983  0.6466
  495MOL0     C68197   5.023   0.893   6.607 -0.1527 -0.3055  0.2130
  495MOL0     C68198   5.111   0.841   6.508 -0.2641  0.8194  0.2073
  495MOL0     C68199   5.260   0.839   6.525  0.5601 -0.2738 -0.3843
  495MOL0     C68200   5.333   0.806   6.401  0.4456  0.1343 -0.5070
  495MOL0     C68201   5.313   0.878   6.649 -0.5006 -0.9969 -1.0105
  495MOL0     C68202   5.460   0.875   6.702 -0.0138 -0.6111  0.6331
  495MOL0     O68203   5.560   0.834   6.613  0.0175  0.8602  0.5715
  495MOL0     C68204   5.676   0.777   6.663  0.0240 -0.6402  0.8288
  495MOL0     C68205   5.797   0.801   6.587  0.5223 -0.6478  0.1884
  495MOL0     C68206   5.914   0.730   6.608  0.1147  1.1437  1.2745
  495MOL0     C68207   5.922   0.629   6.712  0.1351 -1.0663  0.3090
  495MOL0     O68208   6.032   0.558   6.714  0.9645 -0.0571  0.0390
  495MOL0     C68209   6.055   0.465   6.827 -0.2962 -0.1550  0.3875
  495MOL0     C68210   6.197   0.403   6.815  0.2075 -0.9679  0.3140
  495MOL0     C68211   6.244   0.379   6.667 -0.3288 -0.3650 -0.5724
  495MOL0     C68212   6.356   0.274   6.682 -0.4500  0.6346 -0.0066
  495MOL0     C68213   6.485   0.304   6.598 -0.0569  0.1797  0.2183
  495MOL0     C68214   6.477   0.289   6.448 -0.3022 -0.5076 -1.1572
  495MOL0     C68215   6.604   0.309   6.371 -0.2496 -0.2300 -0.6538
  495MOL0     C68216   6.586   0.304   6.214 -0.9441 -1.3387 -0.2839
  495MOL0    Cl68217   6.745   0.262   6.138 -0.2618 -0.0090  0.2543
  495MOL0     C68218   5.808   0.605   6.785  0.3848 -0.6213  0.4852
  495MOL0     C68219   5.686   0.680   6.765  0.6840  0.7412 -0.1563
  495MOL0     O68220   5.479   0.912   6.814 -0.3360 -0.5339 -1.0007
  495MOL0     C68221   5.224   0.926   6.746 -0.0310  0.1673  0.2599
  495MOL0     C68222   5.084   0.934   6.721 -0.1593 -0.0298 -0.1630
  495MOL0     N68223   4.486   0.668   6.874  0.3216 -0.1004  0.6818
  495MOL0     N68224   4.424   0.583   6.942  0.6669 -0.3474 -0.7445
  495MOL0     C68225   3.169   0.249   6.759 -0.5803  0.0067 -0.8498
  495MOL0     C68226   3.024   0.272   6.761 -1.0709 -0.6551 -0.3089
  495MOL0     C68227   2.611   0.421   6.830  1.3157  0.7906 -0.1252
  495MOL0     C68228   2.571   0.295   6.882  0.9671 -0.4506 -1.2614
  495MOL0     C68229   2.429   0.271   6.903 -0.7562 -0.5035  0.0298
  495MOL0     C68230   2.330   0.359   6.864 -0.5179  0.3335  0.1790
  495MOL0     O68231   2.200   0.344   6.892 -0.2360 -0.2285 -0.1378
  495MOL0     C68232   2.141   0.257   6.799  0.2592  1.2447  0.0914
  495MOL0     C68233   2.075   0.321   6.672 -0.3722  0.1076 -0.5129
  495MOL0     C68234   1.995   0.446   6.715 -0.4893  0.7430 -0.1913
  495MOL0     C68235   1.851   0.438   6.659 -0.0347  0.2778  0.7747
  495MOL0     C68236   1.779   0.565   6.651  0.8234 -0.5467  0.4559
  495MOL0     C68237   1.716   0.670   6.639  0.9768 -0.0272 -0.2028
  495MOL0     C68238   2.372   0.488   6.808 -1.0468  0.6252 -0.3819
  495MOL0     C68239   2.511   0.515   6.792  0.3570  0.2268  0.0066
  495MOL0     C68240   2.550   0.659   6.753  0.5497  0.1195 -0.2311
  495MOL0     H68241   3.020   0.455   7.047 -1.0449 -1.3636  1.5253
  495MOL0     H68242   3.257   0.419   7.032  0.1462  1.9666 -1.4366
  495MOL0     H68243   3.413   0.230   6.676 -0.3722  2.2822  1.0071
  495MOL0     H68244   3.426   0.085   6.778 -1.6416  0.3067 -2.2969
  495MOL0     H68245   3.641   0.182   6.684 -0.8790  2.7442 -2.0393
  495MOL0     H68246   3.619   0.325   6.774 -0.4028 -0.0593 -3.1423
  495MOL0     H68247   3.579   0.167   6.991 -1.2006 -1.1405 -1.3259
  495MOL0     H68248   3.675   0.055   6.895 -2.1788 -0.7743  2.2599
  495MOL0     H68249   3.735   0.324   7.022 -1.9672 -0.5851 -0.8595
  495MOL0     H68250   3.800   0.168   7.066  0.2399 -3.1770 -1.9490
  495MOL0     H68251   3.867   0.279   6.789  0.8169 -1.6369  0.0261
  495MOL0     H68252   3.944   0.152   6.881 -0.1820  0.0821  1.8700
  495MOL0     H68253   3.955   0.442   6.983  2.1437  1.3308  1.6133
  495MOL0     H68254   4.051   0.313   7.032 -0.1437 -1.6308 -1.7757
  495MOL0     H68255   4.088   0.420   6.750 -0.4599 -2.8552 -1.2550
  495MOL0     H68256   4.175   0.300   6.834 -1.1097 -1.0587  1.0120
  495MOL0     H68257   4.145   0.567   6.980  0.0855  0.5804  0.1865
  495MOL0     H68258   4.255   0.429   7.019  0.7697  0.6319  0.3371
  495MOL0     H68259   4.224   0.600   6.683 -0.8894 -0.7265  0.6361
  495MOL0     H68260   4.472   0.889   6.673  2.2739 -0.6140 -0.5289
  495MOL0     H68261   4.400   0.777   6.555  1.0691  0.4061 -0.5296
  495MOL0     H68262   4.677   0.760   6.693  0.1231  0.5644 -0.5074
  495MOL0     H68263   4.636   0.657   6.557  2.5787 -0.5316  1.8124
  495MOL0     H68264   4.632   0.816   6.402 -0.1084  2.0445 -0.4311
  495MOL0     H68265   4.640   0.951   6.516  0.0345  0.2901 -0.8471
  495MOL0     H68266   4.838   0.730   6.473 -4.1792 -0.2560 -2.4316
  495MOL0     H68267   4.859   0.891   6.401 -3.4024 -1.6374 -2.3775
  495MOL0     H68268   5.078   0.812   6.409  0.8517 -1.7893  0.5228
  495MOL0     H68269   5.428   0.858   6.406  0.9600 -0.8420  0.7126
  495MOL0     H68270   5.282   0.852   6.316  3.4263  2.3704 -1.2334
  495MOL0     H68271   5.353   0.700   6.384  1.9718  0.1458  0.9137
  495MOL0     H68272   5.782   0.885   6.520 -0.2458  0.3918  1.6040
  495MOL0     H68273   5.999   0.750   6.544 -0.4650  1.9440  0.7253
  495MOL0     H68274   6.041   0.522   6.919 -0.9068  1.1390 -0.4712
  495MOL0     H68275   5.981   0.385   6.830  0.0367 -0.5810 -1.4430
  495MOL0     H68276   6.275   0.461   6.866 -1.7362 -1.2581  3.9708
  495MOL0     H68277   6.191   0.304   6.861  1.6745 -3.7863 -4.8327
  495MOL0     H68278   6.287   0.465   6.616  1.6191 -1.7202 -1.3580
  495MOL0     H68279   6.164   0.343   6.601 -0.5406 -3.1507  1.0183
  495MOL0     H68280   6.326   0.173   6.654  2.0525 -0.4978  1.0622
  495MOL0     H68281   6.387   0.276   6.787  0.1263  0.6756 -0.1733
  495MOL0     H68282   6.535   0.394   6.635  1.2942 -1.8344  3.7714
  495MOL0     H68283   6.553   0.221   6.621 -0.7745 -0.5718 -0.3089
  495MOL0     H68284   6.397   0.353   6.409 -0.0361  0.9040  0.5381
  495MOL0     H68285   6.430   0.191   6.434 -4.5534  0.6000  2.8491
  495MOL0     H68286   6.677   0.231   6.393  1.5533  1.0199 -1.9610
  495MOL0     H68287   6.650   0.404   6.400 -0.8795  0.2824 -1.2887
  495MOL0     H68288   6.557   0.404   6.181  1.2050 -0.0433  1.5015
  495MOL0     H68289   6.509   0.236   6.177 -2.1069 -0.6334  0.7797
  495MOL0     H68290   5.792   0.522   6.853 -5.5476  0.4878  1.0070
  495MOL0     H68291   5.604   0.662   6.833  1.7078 -2.2175  0.4454
  495MOL0     H68292   5.241   0.944   6.851  0.8289 -3.0203  0.7700
  495MOL0     H68293   5.017   0.984   6.791  0.5997 -0.2580  0.7501
  495MOL0     H68294   3.214   0.190   6.679 -0.0517 -0.3048 -0.3243
  495MOL0     H68295   2.959   0.223   6.690 -1.3478  0.8778 -1.1522
  495MOL0     H68296   2.644   0.224   6.920 -0.4971 -2.1769 -1.5288
  495MOL0     H68297   2.380   0.187   6.951 -3.0896 -0.3355 -1.8881
  495MOL0     H68298   2.208   0.178   6.762 -1.5761 -0.2947 -0.1495
  495MOL0     H68299   2.063   0.204   6.855  0.5659 -1.0951 -1.5572
  495MOL0     H68300   2.006   0.246   6.631 -2.0374  0.7019  1.0464
  495MOL0     H68301   2.154   0.347   6.602  1.5890 -0.6371  1.3158
  495MOL0     H68302   1.990   0.453   6.824 -1.4636 -1.2322 -0.0761
  495MOL0     H68303   2.041   0.539   6.679 -1.6227  1.2871 -0.2718
  495MOL0     H68304   1.784   0.373   6.716  0.7148 -0.7642  0.4846
  495MOL0     H68305   1.868   0.400   6.558  1.9904  2.6733  0.1188
  495MOL0     H68306   1.665   0.763   6.644  1.8907  0.4810 -0.0847
  495MOL0     H68307   2.295   0.563   6.794 -3.9277 -1.6274  2.0498
  495MOL0     H68308   2.466   0.704   6.700 -2.0355  0.8415  3.9693
  495MOL0     H68309   2.591   0.712   6.840  2.9783  1.1126 -1.8941
  495MOL0     H68310   2.633   0.667   6.683  3.6297 -2.6726  2.7775
  496MOL0     O68311   5.634   2.223   5.651 -0.4886  0.0007  0.3774
  496MOL0     C68312   5.603   2.278   5.758 -0.4003  0.5626  0.4166
  496MOL0     O68313   5.687   2.343   5.838 -0.1208 -0.1445 -0.1741
  496MOL0     C68314   5.808   2.377   5.783 -0.2273 -0.2773  0.3738
  496MOL0     C68315   5.823   2.499   5.728  0.6903 -0.2817  0.0929
  496MOL0     C68316   5.953   2.529   5.671 -0.3265  0.1735  0.5136
  496MOL0     C68317   6.068   2.437   5.682  0.5163 -0.9901  0.8225
  496MOL0     O68318   6.182   2.478   5.616 -0.4263 -0.3838 -0.1112
  496MOL0     C68319   6.309   2.451   5.675 -0.3267 -0.1431  0.5503
  496MOL0     C68320   6.415   2.499   5.568  1.2243  0.0657  0.0726
  496MOL0     C68321   6.552   2.491   5.607 -0.9855  1.1789 -0.4031
  496MOL0     C68322   6.652   2.564   5.522 -0.1222  0.7831 -0.4974
  496MOL0     C68323   6.796   2.561   5.580 -0.5894  0.4956  0.3184
  496MOL0     C68324   6.904   2.576   5.465 -0.0141 -0.6436 -0.1006
  496MOL0     C68325   7.041   2.553   5.537  0.6525  0.6723 -0.3993
  496MOL0     C68326   7.151   2.524   5.427  0.3614  0.4433  0.2229
  496MOL0     N68327   7.147   2.385   5.384  0.7980 -0.0011  0.3668
  496MOL0     C68328   7.163   2.329   5.260 -0.3846  0.6805  0.0506
  496MOL0     C68329   7.180   2.195   5.272  0.5508  0.0520  0.1801
  496MOL0     C68330   7.193   2.094   5.162  0.4236 -0.9609  1.1071
  496MOL0     C68331   7.101   1.970   5.181  0.3644  0.6194 -0.3800
  496MOL0     C68332   6.954   1.998   5.137 -0.5715  0.2937  0.2323
  496MOL0     C68333   6.879   1.873   5.176 -0.6073 -0.4695 -0.6779
  496MOL0     O68334   6.749   1.890   5.132  0.0874  0.1768 -0.5603
  496MOL0     C68335   6.666   1.773   5.116 -0.4943 -0.6981 -0.0348
  496MOL0     C68336   6.700   1.650   5.169 -0.1649  0.3123  0.2403
  496MOL0     C68337   6.627   1.534   5.126 -0.0057  0.0531 -0.6461
  496MOL0     C68338   6.674   1.400   5.183  0.4714  0.2126  0.6282
  496MOL0     C68339   6.501   1.551   5.066  0.1705 -0.0755  0.3027
  496MOL0     C68340   6.398   1.451   5.038  0.0747 -0.4388 -0.5865
  496MOL0     O68341   6.296   1.494   4.948 -0.8511  0.5761 -0.1805
  496MOL0     C68342   6.189   1.412   4.931 -0.9967  0.4373  1.1424
  496MOL0     C68343   6.105   1.365   5.031 -0.5867 -0.5963  0.5450
  496MOL0     C68344   5.999   1.280   4.998  0.6254 -0.3732 -0.1609
  496MOL0     C68345   5.986   1.226   4.867 -0.0021  0.3699 -0.2302
  496MOL0     O68346   5.883   1.133   4.856 -0.4428  0.3998  0.2108
  496MOL0     C68347   5.848   1.086   4.724 -0.5345  0.2418 -0.7927
  496MOL0     C68348   5.728   0.993   4.732  0.1719 -0.7441 -0.4754
  496MOL0     C68349   5.722   0.898   4.610  0.3906  0.0669 -0.5171
  496MOL0     C68350   5.623   0.784   4.638 -0.2753  0.2146  0.4709
  496MOL0     C68351   5.478   0.846   4.637 -1.2758 -0.9101 -0.8362
  496MOL0     C68352   5.380   0.725   4.626 -0.3857  0.0393 -0.3201
  496MOL0     C68353   5.240   0.782   4.593 -0.6909  0.3688 -0.4137
  496MOL0     C68354   5.131   0.684   4.622 -0.2084 -0.3737 -0.4973
  496MOL0    Cl68355   4.980   0.738   4.544 -0.1922 -0.0715  0.5135
  496MOL0     C68356   6.081   1.267   4.762 -0.2219  0.3691  0.8987
  496MOL0     C68357   6.180   1.365   4.799 -0.6040  0.6928 -0.3219
  496MOL0     O68358   6.401   1.348   5.095 -0.5106 -0.0849  0.1234
  496MOL0     C68359   6.465   1.683   5.035  0.6324  0.0333  0.3366
  496MOL0     C68360   6.543   1.796   5.061  0.3623  0.3295 -0.2163
  496MOL0     N68361   7.186   2.174   5.407 -0.0915 -0.2541  0.3079
  496MOL0     N68362   7.149   2.281   5.471 -0.2719  0.1675 -0.0528
  496MOL0     C68363   6.043   2.322   5.754  0.6680 -0.4165 -0.5791
  496MOL0     C68364   5.911   2.284   5.802 -0.7275 -0.6381  0.0980
  496MOL0     C68365   5.453   2.267   5.784 -0.1792  0.3021 -0.0254
  496MOL0     C68366   5.385   2.147   5.751  0.4636  0.0220 -0.2939
  496MOL0     C68367   5.246   2.129   5.781 -0.2015  0.2887 -0.2158
  496MOL0     C68368   5.186   2.234   5.846  0.0771 -0.5048 -0.2822
  496MOL0     O68369   5.055   2.218   5.883 -0.5408 -0.6652 -0.7192
  496MOL0     C68370   4.995   2.083   5.896 -0.3727 -0.3999 -0.7501
  496MOL0     C68371   4.849   2.117   5.925 -0.0787  0.0485 -0.6410
  496MOL0     C68372   4.781   2.002   6.004  0.3069  0.8501 -0.3539
  496MOL0     C68373   4.625   2.014   6.004 -0.3354  1.2329  0.0600
  496MOL0     C68374   4.586   2.142   6.050  0.5121  0.7012  1.1039
  496MOL0     C68375   4.534   2.240   6.104 -0.3068 -0.1694  1.0102
  496MOL0     C68376   5.254   2.353   5.885  0.5426 -0.6465 -0.0190
  496MOL0     C68377   5.382   2.372   5.847 -0.4087 -0.6133 -0.5372
  496MOL0     C68378   5.443   2.504   5.900 -0.3070  0.7763 -0.2731
  496MOL0     H68379   5.744   2.574   5.732 -0.4559 -1.1038 -3.6937
  496MOL0     H68380   5.962   2.621   5.614  0.3348 -0.5779 -0.6531
  496MOL0     H68381   6.325   2.345   5.695 -1.2648  0.2026  3.5190
  496MOL0     H68382   6.324   2.513   5.764  1.3586  0.5430 -0.1715
  496MOL0     H68383   6.395   2.442   5.477  2.6235  1.1998 -1.0029
  496MOL0     H68384   6.392   2.601   5.536 -1.9719 -0.1492  1.3752
  496MOL0     H68385   6.547   2.535   5.708 -0.4936 -0.7616  0.5096
  496MOL0     H68386   6.586   2.388   5.614  0.7978  1.5280 -2.7406
  496MOL0     H68387   6.654   2.516   5.423 -0.6136 -0.6201  0.1553
  496MOL0     H68388   6.618   2.668   5.529  1.2586  1.2412 -0.3402
  496MOL0     H68389   6.819   2.457   5.604  1.8098  0.5486 -1.4185
  496MOL0     H68390   6.806   2.639   5.657  0.6922  2.8992 -2.1030
  496MOL0     H68391   6.881   2.506   5.384  2.3189 -0.2858 -1.1293
  496MOL0     H68392   6.898   2.676   5.423  2.1007 -1.4014 -2.4141
  496MOL0     H68393   7.040   2.474   5.613  1.2029  1.2457  0.2092
  496MOL0     H68394   7.078   2.640   5.591  0.0911 -0.2211  1.5060
  496MOL0     H68395   7.163   2.592   5.343  0.0716 -0.2184 -0.3657
  496MOL0     H68396   7.240   2.528   5.490 -0.0083  0.9498  0.7160
  496MOL0     H68397   7.176   2.396   5.176 -0.0005  1.7635  0.9583
  496MOL0     H68398   7.295   2.056   5.160  0.9439 -0.1246  4.5195
  496MOL0     H68399   7.171   2.148   5.069  0.9342 -1.8692  0.4535
  496MOL0     H68400   7.125   1.878   5.127  0.7284 -0.3290  1.3104
  496MOL0     H68401   7.098   1.943   5.287 -1.1143  2.2520  0.0251
  496MOL0     H68402   6.908   2.085   5.184  1.1145  1.0795  0.4801
  496MOL0     H68403   6.962   2.021   5.031 -1.1062  3.4639  0.8018
  496MOL0     H68404   6.924   1.793   5.115  1.7830  0.2309  0.0462
  496MOL0     H68405   6.896   1.861   5.283 -0.9477  1.4398 -0.3703
  496MOL0     H68406   6.794   1.650   5.222 -0.6194  0.1079  1.0611
  496MOL0     H68407   6.653   1.330   5.102  1.0049  0.6049  0.1422
  496MOL0     H68408   6.606   1.361   5.259 -1.0090 -3.9152 -2.4455
  496MOL0     H68409   6.778   1.400   5.220  1.2880  2.2053 -1.4214
  496MOL0     H68410   6.118   1.394   5.134 -0.1692  2.1615 -0.2133
  496MOL0     H68411   5.937   1.251   5.083 -0.2365  2.8295  0.4224
  496MOL0     H68412   5.831   1.175   4.662  1.6511  1.1582 -0.1612
  496MOL0     H68413   5.931   1.030   4.680 -0.3696  0.8088 -1.2190
  496MOL0     H68414   5.722   0.935   4.825 -0.9476 -1.2565 -0.8451
  496MOL0     H68415   5.639   1.057   4.733 -0.2081 -1.2516  0.3947
  496MOL0     H68416   5.824   0.859   4.611  1.3048  2.1148  2.4353
  496MOL0     H68417   5.702   0.943   4.513  0.0128 -0.1237 -0.5301
  496MOL0     H68418   5.642   0.737   4.735  1.5450  1.3271  0.6999
  496MOL0     H68419   5.634   0.717   4.552 -0.9895  1.2903 -0.4870
  496MOL0     H68420   5.465   0.903   4.729  2.5939  1.1391 -1.3380
  496MOL0     H68421   5.467   0.908   4.548  0.7217 -0.9647 -1.1649
  496MOL0     H68422   5.382   0.666   4.718 -2.1510 -0.3583 -0.5061
  496MOL0     H68423   5.412   0.656   4.548 -2.1765 -0.6732 -0.4634
  496MOL0     H68424   5.233   0.807   4.486 -2.5981 -0.2251 -0.4727
  496MOL0     H68425   5.222   0.877   4.643 -2.2360  0.8297 -1.7377
  496MOL0     H68426   5.121   0.675   4.731  1.8294  2.8804  0.1092
  496MOL0     H68427   5.168   0.587   4.585  0.4089 -0.9991  1.6121
  496MOL0     H68428   6.088   1.248   4.655 -3.3566  1.0182  0.4921
  496MOL0     H68429   6.236   1.400   4.713  0.9320 -1.3636 -0.2307
  496MOL0     H68430   6.373   1.714   4.986  0.1945 -0.4198  0.8655
  496MOL0     H68431   6.509   1.898   5.045 -0.2403  0.3312  0.9349
  496MOL0     H68432   6.132   2.266   5.784  0.8017  1.6662  3.6296
  496MOL0     H68433   5.901   2.189   5.854 -1.7926  0.0469  1.1928
  496MOL0     H68434   5.419   2.065   5.689 -1.5045  0.8546 -2.6497
  496MOL0     H68435   5.190   2.040   5.753 -0.2372  0.2743 -0.0994
  496MOL0     H68436   5.001   2.026   5.802 -0.3446 -1.1367 -0.3044
  496MOL0     H68437   5.050   2.027   5.972 -1.7833 -1.7060 -0.6271
  496MOL0     H68438   4.800   2.140   5.830  3.3203  4.6874 -1.6250
  496MOL0     H68439   4.843   2.207   5.987 -2.4238 -0.8486  0.5485
  496MOL0     H68440   4.797   1.904   5.959 -2.9745  0.1600 -0.2421
  496MOL0     H68441   4.820   1.999   6.107 -0.3281  0.7635 -0.1103
  496MOL0     H68442   4.587   1.934   6.067  0.3189  1.1723  0.3879
  496MOL0     H68443   4.584   1.987   5.906 -1.6418  2.6203  0.1930
  496MOL0     H68444   4.487   2.315   6.165  1.7583  2.4198 -0.3634
  496MOL0     H68445   5.198   2.430   5.937  1.0695  2.6079 -3.7808
  496MOL0     H68446   5.507   2.485   5.987  1.5167  0.9477 -1.5006
  496MOL0     H68447   5.521   2.548   5.837  0.7813  1.1985  1.2889
  496MOL0     H68448   5.369   2.576   5.937  1.1978  2.3340 -0.1120
  497MOL0     O68449   5.558   0.344   7.447 -0.1116 -0.7711 -0.9158
  497MOL0     C68450   5.531   0.434   7.527 -0.5697  0.3308  0.4147
  497MOL0     O68451   5.618   0.495   7.608 -0.0588  0.0323 -0.1835
  497MOL0     C68452   5.761   0.483   7.581  0.1901 -0.2669 -0.1808
  497MOL0     C68453   5.832   0.600   7.571 -0.8118 -1.6049 -0.1482
  497MOL0     C68454   5.977   0.592   7.560  0.4250 -0.4062  0.8833
  497MOL0     C68455   6.044   0.473   7.555 -0.0616 -0.2378 -0.2947
  497MOL0     O68456   6.182   0.486   7.545  0.0106 -0.1271  0.7119
  497MOL0     C68457   6.252   0.363   7.589  0.4587  0.1431 -0.6257
  497MOL0     C68458   6.406   0.383   7.582  0.7594  0.2274  0.2978
  497MOL0     C68459   6.494   0.284   7.656  0.4861  0.3668  0.4987
  497MOL0     C68460   6.492   0.327   7.805 -0.0764  0.8965 -0.5774
  497MOL0     C68461   6.565   0.238   7.890  0.3658  0.8944 -0.6061
  497MOL0     C68462   6.514   0.237   8.036  0.5264 -0.6332  0.4088
  497MOL0     C68463   6.575   0.136   8.139 -0.1083  0.1469 -0.2988
  497MOL0     C68464   6.531  -0.008   8.093 -0.2538 -0.4845  0.2596
  497MOL0     N68465   6.592  -0.120   8.170 -0.4037  0.2998 -0.5678
  497MOL0     C68466   6.631  -0.248   8.120  0.6634 -0.3030 -0.1661
  497MOL0     C68467   6.710  -0.301   8.212  0.1246  0.2068  0.6032
  497MOL0     C68468   6.766  -0.436   8.200  1.1878  0.3211  0.1720
  497MOL0     C68469   6.809  -0.512   8.326  0.7114 -0.5126  0.0830
  497MOL0     C68470   6.892  -0.630   8.308 -0.5440 -0.7438  0.8129
  497MOL0     C68471   7.035  -0.594   8.251  1.1699  0.5935 -0.9736
  497MOL0     O68472   7.122  -0.692   8.311 -0.6646 -0.2248 -0.3919
  497MOL0     C68473   7.257  -0.670   8.290  0.5371  0.4299 -0.5389
  497MOL0     C68474   7.316  -0.616   8.179  0.1372 -0.1218 -0.8954
  497MOL0     C68475   7.453  -0.606   8.163 -0.1134  0.1430 -0.2799
  497MOL0     C68476   7.500  -0.528   8.046 -0.6505  0.2233  0.1563
  497MOL0     C68477   7.544  -0.666   8.264 -0.1255  0.0732  1.0434
  497MOL0     C68478   7.697  -0.659   8.256  0.3128 -0.0736 -0.1164
  497MOL0     O68479   7.762  -0.701   8.371 -0.4107  0.2556  0.5166
  497MOL0     C68480   7.901  -0.694   8.381 -0.0974  0.1802  0.7087
  497MOL0     C68481   7.991  -0.614   8.305  1.0248  0.1790  0.1872
  497MOL0     C68482   8.123  -0.622   8.337 -0.2041 -0.6831  0.2114
  497MOL0     C68483   8.178  -0.726   8.412 -0.2266 -0.3006  0.7961
  497MOL0     O68484   8.313  -0.745   8.403 -0.0897 -0.1776 -0.7142
  497MOL0     C68485   8.393  -0.743   8.524  1.0980  0.2849 -0.2904
  497MOL0     C68486   8.379  -0.620   8.619  0.2630 -0.2413 -0.5200
  497MOL0     C68487   8.420  -0.492   8.549  0.0413  0.3012 -0.1671
  497MOL0     C68488   8.565  -0.448   8.562  0.3706 -0.1315 -0.0690
  497MOL0     C68489   8.590  -0.303   8.499  0.1864  0.9953 -0.9289
  497MOL0     C68490   8.573  -0.297   8.353  0.7810 -0.0156  0.3493
  497MOL0     C68491   8.668  -0.401   8.277 -0.2557 -0.0729  0.3161
  497MOL0     C68492   8.689  -0.362   8.133  0.3666 -0.1338  0.0984
  497MOL0    Cl68493   8.788  -0.488   8.046  0.3783 -0.7495 -0.3394
  497MOL0     C68494   8.088  -0.792   8.492 -0.7892  0.8144  0.6693
  497MOL0     C68495   7.949  -0.773   8.480  0.1861  0.3680  0.3112
  497MOL0     O68496   7.748  -0.624   8.150  0.5135  0.6037  0.2989
  497MOL0     C68497   7.484  -0.731   8.379  0.1258 -0.0693 -0.1992
  497MOL0     C68498   7.341  -0.727   8.392  0.7224  0.5699 -0.6522
  497MOL0     N68499   6.715  -0.215   8.319  0.0876 -0.1491  0.2397
  497MOL0     N68500   6.653  -0.105   8.288 -0.3176 -0.2153  0.2383
  497MOL0     C68501   5.965   0.357   7.552  0.4523 -0.2103 -0.1258
  497MOL0     C68502   5.824   0.365   7.573  0.0318  0.2025  0.6430
  497MOL0     C68503   5.391   0.437   7.574  0.1687  0.3977 -0.1182
  497MOL0     C68504   5.371   0.469   7.707  0.4364  0.3405 -1.0208
  497MOL0     C68505   5.243   0.475   7.766  0.7605  0.2022 -1.0045
  497MOL0     C68506   5.127   0.431   7.701  0.3629  0.9638  0.0395
  497MOL0     O68507   5.002   0.428   7.755 -0.2729  0.6125  0.4549
  497MOL0     C68508   4.882   0.400   7.680 -0.0468 -0.0645 -0.3712
  497MOL0     C68509   4.760   0.445   7.754  0.4412 -0.0568  0.3471
  497MOL0     C68510   4.623   0.409   7.694 -0.2844 -0.8028 -1.1680
  497MOL0     C68511   4.510   0.451   7.789  0.0158 -0.1438  0.5062
  497MOL0     C68512   4.521   0.398   7.927  0.0007  0.1561  0.3747
  497MOL0     C68513   4.523   0.337   8.031  0.8008  0.2277 -0.3089
  497MOL0     C68514   5.146   0.390   7.565  0.2937 -0.2335 -0.2165
  497MOL0     C68515   5.272   0.401   7.505 -0.0609 -0.0166  0.1234
  497MOL0     C68516   5.260   0.388   7.350 -0.6050  0.3006 -0.3919
  497MOL0     H68517   5.789   0.698   7.586 -0.2735 -1.1305 -1.5041
  497MOL0     H68518   6.030   0.687   7.563 -0.7615  0.5639 -3.0492
  497MOL0     H68519   6.220   0.277   7.530 -2.2536 -1.8217  3.2746
  497MOL0     H68520   6.224   0.347   7.693  0.1930 -1.5052 -0.9188
  497MOL0     H68521   6.426   0.383   7.474  2.0019 -0.1544  0.5193
  497MOL0     H68522   6.421   0.487   7.612  2.1457  1.6362 -4.4335
  497MOL0     H68523   6.443   0.187   7.651 -0.3110  0.6398  2.3362
  497MOL0     H68524   6.594   0.275   7.613  1.5458 -0.6106  2.9843
  497MOL0     H68525   6.528   0.430   7.812 -2.4362  1.8439 -1.3148
  497MOL0     H68526   6.388   0.338   7.837  0.3711  0.8737  0.9796
  497MOL0     H68527   6.670   0.269   7.878  1.1662 -2.0973 -2.3580
  497MOL0     H68528   6.559   0.137   7.847 -0.8809  0.7555 -0.1403
  497MOL0     H68529   6.523   0.337   8.078  2.9223 -1.9619  3.4828
  497MOL0     H68530   6.406   0.224   8.035  0.1516  1.6721 -2.5351
  497MOL0     H68531   6.546   0.166   8.240 -0.0953 -1.2594  0.1494
  497MOL0     H68532   6.685   0.138   8.138 -0.0279 -1.7269  0.8547
  497MOL0     H68533   6.425  -0.022   8.115  0.1017 -0.6040  2.0775
  497MOL0     H68534   6.551  -0.031   7.988 -4.7083 -2.9078 -0.3008
  497MOL0     H68535   6.598  -0.298   8.030  2.1081 -0.3724 -0.6790
  497MOL0     H68536   6.850  -0.438   8.129 -0.1725 -1.0518 -1.5077
  497MOL0     H68537   6.690  -0.497   8.149  1.5705 -0.8825  0.9866
  497MOL0     H68538   6.859  -0.434   8.384 -0.6374  0.5151 -0.1021
  497MOL0     H68539   6.717  -0.543   8.376 -1.8754 -0.3798 -4.1534
  497MOL0     H68540   6.891  -0.678   8.407 -1.6604  1.2413  1.8162
  497MOL0     H68541   6.851  -0.696   8.231  1.0024 -1.7423  0.7889
  497MOL0     H68542   7.038  -0.592   8.142 -1.5880 -1.0880 -1.1659
  497MOL0     H68543   7.055  -0.494   8.291 -0.7325  0.3365  0.8105
  497MOL0     H68544   7.249  -0.570   8.107 -0.4297 -3.5259 -2.7394
  497MOL0     H68545   7.551  -0.443   8.094  1.8432 -0.6221 -0.8650
  497MOL0     H68546   7.424  -0.488   7.979  0.5816 -0.1723 -1.5191
  497MOL0     H68547   7.573  -0.582   7.986  0.2777  0.9967  0.5598
  497MOL0     H68548   7.946  -0.542   8.238  1.9222 -1.3753 -2.2342
  497MOL0     H68549   8.199  -0.569   8.280  4.1182 -0.7939  5.0923
  497MOL0     H68550   8.392  -0.837   8.579  2.5365  0.2555 -0.2847
  497MOL0     H68551   8.493  -0.736   8.480  1.4069 -1.9731 -0.0372
  497MOL0     H68552   8.278  -0.611   8.658  1.5265  3.6753  2.4346
  497MOL0     H68553   8.435  -0.634   8.712 -0.0209 -0.0614 -0.3235
  497MOL0     H68554   8.363  -0.418   8.606  1.3971  0.6509  0.8125
  497MOL0     H68555   8.395  -0.480   8.443  0.1663  0.1002 -0.2188
  497MOL0     H68556   8.625  -0.525   8.513 -0.8303 -2.1120  1.4074
  497MOL0     H68557   8.597  -0.444   8.666  1.8319  1.5215 -0.5379
  497MOL0     H68558   8.523  -0.236   8.552 -1.0563 -0.7488 -0.1944
  497MOL0     H68559   8.693  -0.281   8.529 -0.7394  0.4788  3.3655
  497MOL0     H68560   8.592  -0.197   8.313 -0.0919 -0.1894 -0.5447
  497MOL0     H68561   8.471  -0.314   8.318  0.7813 -1.2956  0.9236
  497MOL0     H68562   8.627  -0.501   8.289  1.2777 -0.7725  0.0632
  497MOL0     H68563   8.767  -0.405   8.324 -0.6225 -0.7518  1.0371
  497MOL0     H68564   8.749  -0.271   8.123  0.9350 -0.3487  1.3778
  497MOL0     H68565   8.590  -0.351   8.086  0.5262 -0.3416 -0.2868
  497MOL0     H68566   8.132  -0.855   8.569 -0.6310  1.3200  0.9981
  497MOL0     H68567   7.882  -0.825   8.548 -1.2517  1.1082 -0.4993
  497MOL0     H68568   7.551  -0.772   8.454  0.8739  1.3359 -0.0583
  497MOL0     H68569   7.302  -0.788   8.474  4.2544 -1.0576  0.0003
  497MOL0     H68570   6.012   0.259   7.548  3.3342  1.1121 -0.8431
  497MOL0     H68571   5.766   0.274   7.580 -0.2171  0.1293 -1.6079
  497MOL0     H68572   5.459   0.507   7.758  1.0908  0.2541 -2.0658
  497MOL0     H68573   5.247   0.498   7.872  1.4035 -4.7276  0.3039
  497MOL0     H68574   4.885   0.452   7.584 -1.1252  1.5717  0.4252
  497MOL0     H68575   4.882   0.295   7.649  0.5633  0.4545 -2.2945
  497MOL0     H68576   4.766   0.554   7.767  1.0871 -0.0377 -0.0422
  497MOL0     H68577   4.773   0.394   7.850  1.5079 -2.1020 -0.8146
  497MOL0     H68578   4.607   0.451   7.594 -2.4533  2.9216  0.5392
  497MOL0     H68579   4.614   0.300   7.700 -0.0267 -0.7332  2.4481
  497MOL0     H68580   4.418   0.409   7.746  0.9206  0.9636 -2.8169
  497MOL0     H68581   4.494   0.559   7.799 -1.0905 -0.0944 -1.3061
  497MOL0     H68582   4.506   0.285   8.123  0.8825  0.7531  0.0092
  497MOL0     H68583   5.061   0.360   7.504  0.7099 -0.8595 -0.5037
  497MOL0     H68584   5.220   0.288   7.328 -0.5141 -0.3230  2.0535
  497MOL0     H68585   5.196   0.467   7.311 -1.6157  0.1484  0.8951
  497MOL0     H68586   5.357   0.388   7.299  0.3171  1.5814  1.2682
  498MOL0     O68587   5.440   6.946   3.357 -0.0484  0.5381  0.4482
  498MOL0     C68588   5.344   6.867   3.364  0.6456  0.5450  0.5680
  498MOL0     O68589   5.352   6.730   3.356  0.4800 -0.2770  0.2642
  498MOL0     C68590   5.470   6.670   3.349 -0.0418  0.3135 -0.5587
  498MOL0     C68591   5.584   6.703   3.427 -0.2622  0.5057 -0.3406
  498MOL0     C68592   5.702   6.632   3.416 -0.4264 -0.2681  0.0353
  498MOL0     C68593   5.712   6.523   3.327 -0.2219 -0.0688  0.0786
  498MOL0     O68594   5.839   6.466   3.315 -0.1070  0.5171 -0.3936
  498MOL0     C68595   5.858   6.387   3.194 -0.9323  0.5390 -0.7670
  498MOL0     C68596   6.001   6.345   3.181 -0.2106  0.3511 -0.4691
  498MOL0     C68597   6.083   6.345   3.304 -0.3961  0.1806 -0.2265
  498MOL0     C68598   6.227   6.290   3.259 -0.4662 -0.0110 -0.1676
  498MOL0     C68599   6.342   6.270   3.367 -0.4696  0.0837  0.4248
  498MOL0     C68600   6.481   6.276   3.298 -0.0674  1.6393 -1.1126
  498MOL0     C68601   6.597   6.227   3.395  0.2901  1.3493  0.0988
  498MOL0     C68602   6.732   6.251   3.336 -1.0797 -0.7431  0.2439
  498MOL0     N68603   6.843   6.194   3.422 -0.4183  0.0480  0.1268
  498MOL0     C68604   6.879   6.060   3.449 -0.9678 -0.1288 -0.3497
  498MOL0     C68605   6.989   6.076   3.531 -0.3547  0.6377  0.2283
  498MOL0     C68606   7.070   5.966   3.595 -0.1834  0.6166  0.5147
  498MOL0     C68607   7.212   5.963   3.548 -0.0405 -0.2802 -0.6852
  498MOL0     C68608   7.298   5.853   3.607  0.9158 -0.1088 -0.3451
  498MOL0     C68609   7.438   5.857   3.549 -0.4700  0.5031  0.4933
  498MOL0     O68610   7.521   5.746   3.580  0.0988 -0.3831  0.6698
  498MOL0     C68611   7.660   5.765   3.580 -0.6424  0.5963  0.1573
  498MOL0     C68612   7.740   5.648   3.605  0.2902 -0.2294 -0.0586
  498MOL0     C68613   7.876   5.657   3.625  0.0346  0.4845  0.5078
  498MOL0     C68614   7.944   5.522   3.649  0.4667 -0.3234 -0.6802
  498MOL0     C68615   7.950   5.781   3.599 -0.0589  0.5647  0.6327
  498MOL0     C68616   8.094   5.802   3.615 -0.3618  0.3930  0.6158
  498MOL0     O68617   8.132   5.937   3.620 -0.7092 -0.2267 -0.5488
  498MOL0     C68618   8.266   5.966   3.619 -0.0472 -0.4251  0.3470
  498MOL0     C68619   8.316   6.060   3.711 -0.5893 -0.5589  0.0710
  498MOL0     C68620   8.449   6.119   3.693 -0.3396 -0.2724  0.0748
  498MOL0     C68621   8.538   6.058   3.602  0.1945 -0.5772 -0.3990
  498MOL0     O68622   8.673   6.084   3.600 -0.1257  0.1690 -0.0042
  498MOL0     C68623   8.760   6.095   3.716 -0.1873  0.1826 -1.1156
  498MOL0     C68624   8.907   6.114   3.674  0.9059  0.5877 -0.2837
  498MOL0     C68625   9.016   6.081   3.774 -1.4149 -0.1760  0.9733
  498MOL0     C68626   9.152   6.096   3.708 -0.2471  0.4636 -0.8527
  498MOL0     C68627   9.261   6.103   3.818  0.6730 -0.2693 -0.4844
  498MOL0     C68628   9.272   6.243   3.885 -0.2358 -0.6336 -0.1469
  498MOL0     C68629   9.298   6.237   4.038 -0.1614  0.1190  0.7312
  498MOL0     C68630   9.267   6.372   4.098  0.5837  0.1856  0.0082
  498MOL0    Cl68631   9.380   6.486   4.029  0.5026  0.1168 -0.3369
  498MOL0     C68632   8.491   5.955   3.526  1.2713 -1.2557  1.0134
  498MOL0     C68633   8.357   5.918   3.524  0.2991 -0.4533 -0.4023
  498MOL0     O68634   8.167   5.710   3.617  0.6444  0.2197 -0.1467
  498MOL0     C68635   7.872   5.891   3.568  0.7838  0.5537  0.1837
  498MOL0     C68636   7.730   5.885   3.559  0.1554  0.1090  0.5144
  498MOL0     N68637   7.019   6.211   3.537  0.2467 -0.3894 -0.2716
  498MOL0     N68638   6.935   6.275   3.470 -0.3864 -0.0758 -0.0797
  498MOL0     C68639   5.599   6.484   3.261 -0.1589 -0.1438  0.5354
  498MOL0     C68640   5.475   6.555   3.261 -0.5293 -0.2293 -0.4459
  498MOL0     C68641   5.205   6.925   3.373  0.5740 -0.3184  0.7001
  498MOL0     C68642   5.096   6.837   3.382 -0.6336  0.0975 -0.3223
  498MOL0     C68643   4.967   6.881   3.390 -0.2666 -0.0574 -0.0215
  498MOL0     C68644   4.938   7.020   3.388 -0.0509  0.1602 -0.3415
  498MOL0     O68645   4.802   7.047   3.402 -0.3284  0.1303 -0.5690
  498MOL0     C68646   4.748   7.179   3.406 -0.3456 -0.6140  0.2363
  498MOL0     C68647   4.601   7.192   3.369 -0.3094 -0.0856 -1.0161
  498MOL0     C68648   4.507   7.074   3.413  0.3062 -0.7062  0.4111
  498MOL0     C68649   4.362   7.095   3.362  0.7903  0.1559 -0.0588
  498MOL0     C68650   4.365   7.114   3.222  1.0626 -0.4072  0.2051
  498MOL0     C68651   4.383   7.145   3.104  0.4763 -0.1402 -0.5324
  498MOL0     C68652   5.049   7.107   3.382 -0.4143  0.7580 -0.5264
  498MOL0     C68653   5.176   7.065   3.370 -0.0090 -0.7398 -0.4886
  498MOL0     C68654   5.276   7.174   3.377 -0.0316 -0.3518  0.4022
  498MOL0     H68655   5.565   6.785   3.496 -0.0850  0.6583 -0.4743
  498MOL0     H68656   5.784   6.646   3.486  2.3897 -0.1074 -3.0354
  498MOL0     H68657   5.823   6.444   3.107  2.3754  2.0574 -1.3047
  498MOL0     H68658   5.800   6.295   3.196 -0.3102  0.0277  3.4717
  498MOL0     H68659   5.999   6.237   3.160 -0.2537 -0.0343  1.3548
  498MOL0     H68660   6.044   6.397   3.095  1.6621 -2.0985 -1.1267
  498MOL0     H68661   6.105   6.448   3.334 -0.4785  0.0917  0.1496
  498MOL0     H68662   6.038   6.287   3.386  1.6159  0.2894  1.0226
  498MOL0     H68663   6.224   6.191   3.211  1.0860 -1.2461  2.0925
  498MOL0     H68664   6.273   6.352   3.182  2.8653 -2.9260 -0.7751
  498MOL0     H68665   6.341   6.168   3.407  2.8718 -0.8698 -1.5145
  498MOL0     H68666   6.337   6.337   3.453 -1.8341  0.5954 -0.0258
  498MOL0     H68667   6.489   6.205   3.215  0.2435 -2.0556  1.8160
  498MOL0     H68668   6.506   6.379   3.272 -0.0531  1.5658 -1.4014
  498MOL0     H68669   6.584   6.120   3.411 -2.9375  1.2320 -2.2699
  498MOL0     H68670   6.600   6.276   3.493  0.4378  1.6907 -0.0736
  498MOL0     H68671   6.755   6.206   3.239 -0.7407 -2.1818  0.9568
  498MOL0     H68672   6.742   6.360   3.334  1.1135 -0.8925  0.4366
  498MOL0     H68673   6.836   5.963   3.430  1.3723 -1.1858 -0.6663
  498MOL0     H68674   7.020   5.873   3.568  3.0299 -1.3568  0.7881
  498MOL0     H68675   7.075   5.979   3.703  2.6650  1.4075  0.3885
  498MOL0     H68676   7.216   5.939   3.441 -1.0117 -0.9240 -0.5907
  498MOL0     H68677   7.258   6.061   3.562  1.2955 -0.7602 -1.5619
  498MOL0     H68678   7.304   5.860   3.716 -1.5719 -0.6354 -0.1309
  498MOL0     H68679   7.247   5.762   3.576 -1.0246  0.3022  1.3967
  498MOL0     H68680   7.442   5.856   3.439  1.0669 -1.9885  0.4841
  498MOL0     H68681   7.478   5.956   3.570 -1.8801  1.0978  0.5063
  498MOL0     H68682   7.680   5.559   3.620  0.2589 -0.5429 -1.8697
  498MOL0     H68683   7.867   5.446   3.642 -0.7401  0.8598 -0.6009
  498MOL0     H68684   7.969   5.518   3.756 -2.4961 -0.9359  0.0753
  498MOL0     H68685   8.029   5.498   3.584 -0.9618 -0.8580 -2.3913
  498MOL0     H68686   8.263   6.110   3.792  0.4498  0.2677  0.2689
  498MOL0     H68687   8.487   6.187   3.768 -2.8568 -0.8161  1.9793
  498MOL0     H68688   8.729   6.179   3.779  1.6399 -0.0405  0.1456
  498MOL0     H68689   8.754   6.006   3.779  1.2540  2.1174  1.9846
  498MOL0     H68690   8.922   6.060   3.580  0.8511  1.2676 -0.6932
  498MOL0     H68691   8.907   6.220   3.648  0.0755  0.5925 -0.2956
  498MOL0     H68692   9.007   5.980   3.816  0.0576 -0.0195  1.7247
  498MOL0     H68693   9.018   6.151   3.859  0.8719  0.2645  0.6301
  498MOL0     H68694   9.153   6.174   3.632  1.3450  3.1648  1.7470
  498MOL0     H68695   9.160   6.001   3.654 -0.1022  0.0876 -0.1893
  498MOL0     H68696   9.246   6.025   3.893  0.8589  1.4415  1.4068
  498MOL0     H68697   9.350   6.078   3.760 -0.7547 -0.6089 -2.6449
  498MOL0     H68698   9.182   6.304   3.867  1.1576  1.3030 -0.8923
  498MOL0     H68699   9.355   6.304   3.847  0.7254  0.7739  3.7568
  498MOL0     H68700   9.400   6.207   4.064  0.3654  1.8031  0.7332
  498MOL0     H68701   9.229   6.166   4.085 -1.6047 -1.3798 -3.1692
  498MOL0     H68702   9.270   6.360   4.206  1.0681  0.0668 -0.0202
  498MOL0     H68703   9.169   6.416   4.074 -0.6072 -0.4226  3.2865
  498MOL0     H68704   8.557   5.900   3.461 -0.1936 -0.2886 -1.4799
  498MOL0     H68705   8.324   5.833   3.466  0.7550 -1.6698  1.0731
  498MOL0     H68706   7.908   5.993   3.559 -2.0023  1.4936 -1.6334
  498MOL0     H68707   7.685   5.981   3.540  2.6711  2.2389  4.0328
  498MOL0     H68708   5.590   6.388   3.210 -0.8005  1.4718 -2.5881
  498MOL0     H68709   5.391   6.523   3.200  0.4237 -0.2114 -1.8088
  498MOL0     H68710   5.109   6.729   3.384  1.2865  0.2784 -0.3435
  498MOL0     H68711   4.896   6.808   3.427  2.3034 -4.3944 -2.6753
  498MOL0     H68712   4.757   7.229   3.503 -1.6824  2.1940 -0.9997
  498MOL0     H68713   4.812   7.238   3.340  0.1860  0.1319  1.3897
  498MOL0     H68714   4.613   7.198   3.260  1.3692 -0.0485 -0.8653
  498MOL0     H68715   4.556   7.282   3.410  0.4423  1.3665 -3.1762
  498MOL0     H68716   4.557   6.981   3.381  1.2060 -0.2758  0.5488
  498MOL0     H68717   4.506   7.083   3.522 -1.4747  0.0449  0.3708
  498MOL0     H68718   4.319   7.181   3.414  0.7969 -0.8932  1.7683
  498MOL0     H68719   4.305   7.003   3.381  2.0942 -0.8163 -0.6865
  498MOL0     H68720   4.413   7.179   3.008  0.7859  2.1317  0.3113
  498MOL0     H68721   5.038   7.215   3.377  2.0933  1.0983 -0.1041
  498MOL0     H68722   5.241   7.265   3.428  2.7601  0.9697  0.1646
  498MOL0     H68723   5.357   7.145   3.444 -0.7327 -1.6715  0.7135
  498MOL0     H68724   5.320   7.196   3.279  1.8148  0.3996  1.3492
  499MOL0     O68725   0.039   5.402   7.659  0.6123  0.3063  0.4254
  499MOL0     C68726   0.023   5.305   7.583 -0.4343 -0.0765  0.0251
  499MOL0     O68727   0.132   5.232   7.527 -0.0692 -0.0014  0.1375
  499MOL0     C68728   0.250   5.251   7.583  0.1564  0.7122 -0.6472
  499MOL0     C68729   0.328   5.357   7.546 -0.6126  0.0441 -0.1003
  499MOL0     C68730   0.448   5.377   7.607  0.3294 -0.9221 -0.7891
  499MOL0     C68731   0.500   5.288   7.706 -0.0198 -0.3664 -0.2248
  499MOL0     O68732   0.620   5.309   7.770  0.3275 -0.0032 -0.1676
  499MOL0     C68733   0.648   5.451   7.786  0.0579  0.4672 -0.6339
  499MOL0     C68734   0.740   5.472   7.901 -0.6829  0.4069 -0.2175
  499MOL0     C68735   0.885   5.473   7.854  0.5655 -0.0556 -0.6012
  499MOL0     C68736   0.944   5.335   7.822 -0.7809  0.6515  0.2373
  499MOL0     C68737   1.037   5.312   7.708 -0.1031  0.3220 -0.6032
  499MOL0     C68738   1.182   5.351   7.744 -0.0549  0.2241  0.0324
  499MOL0     C68739   1.273   5.328   7.625 -0.6544  0.8451  0.2826
  499MOL0     C68740   1.284   5.182   7.592 -0.5978  0.2938 -0.0947
  499MOL0     N68741   1.386   5.158   7.489  0.0579 -0.2493 -0.8652
  499MOL0     C68742   1.467   5.252   7.417  0.2629  0.5415  0.4170
  499MOL0     C68743   1.540   5.183   7.328  0.4265  0.2875 -0.0519
  499MOL0     C68744   1.625   5.240   7.220  0.1321 -1.1479  0.5080
  499MOL0     C68745   1.744   5.152   7.200  0.0502  0.3061 -0.4589
  499MOL0     C68746   1.848   5.208   7.102  0.4786 -0.2844  0.3731
  499MOL0     C68747   1.944   5.109   7.046 -0.7688  0.4185  0.3615
  499MOL0     O68748   2.023   5.055   7.149  0.3598  1.2190  0.0360
  499MOL0     C68749   2.133   5.117   7.200 -0.3255  0.5474  0.5632
  499MOL0     C68750   2.195   5.236   7.152  0.2668 -0.8364 -0.4439
  499MOL0     C68751   2.326   5.286   7.191  0.4287  0.0411 -0.3772
  499MOL0     C68752   2.394   5.404   7.119  0.4312  0.7542  0.0719
  499MOL0     C68753   2.383   5.228   7.307 -0.6419 -0.4358  0.1899
  499MOL0     C68754   2.514   5.270   7.371 -0.2559 -0.6334 -0.0736
  499MOL0     O68755   2.612   5.300   7.281 -0.5202 -0.0949 -0.0805
  499MOL0     C68756   2.710   5.384   7.332 -0.4930  0.1891  0.1134
  499MOL0     C68757   2.843   5.327   7.347 -0.2446  0.2710  0.0259
  499MOL0     C68758   2.941   5.417   7.407  0.3341  0.0952 -0.1113
  499MOL0     C68759   2.917   5.551   7.436 -0.3129  0.5628  0.7110
  499MOL0     O68760   3.016   5.627   7.496 -0.4586 -0.3488  0.0720
  499MOL0     C68761   2.970   5.686   7.618  0.1851  0.4715 -0.2508
  499MOL0     C68762   3.095   5.739   7.679 -0.2014 -1.1932 -0.7913
  499MOL0     C68763   3.083   5.793   7.828 -0.6934  0.4636  0.7639
  499MOL0     C68764   3.042   5.689   7.932 -0.4185 -0.6154 -0.2880
  499MOL0     C68765   3.137   5.564   7.946  0.4511 -0.1336  0.7333
  499MOL0     C68766   3.280   5.621   7.982  0.3604  0.1570  0.2148
  499MOL0     C68767   3.382   5.509   8.023  0.3940  0.0234  0.1540
  499MOL0     C68768   3.519   5.527   7.960 -0.7993 -0.1929 -0.3373
  499MOL0    Cl68769   3.597   5.686   7.992  0.1289 -0.0527  0.1475
  499MOL0     C68770   2.786   5.597   7.421 -0.4020  0.6634 -0.2571
  499MOL0     C68771   2.686   5.520   7.363 -0.4653 -0.2623 -0.5134
  499MOL0     O68772   2.522   5.290   7.496 -0.0515  0.3291  0.5401
  499MOL0     C68773   2.309   5.124   7.369 -0.1041  0.9526  0.8870
  499MOL0     C68774   2.196   5.063   7.321  0.1471 -0.2641  0.0463
  499MOL0     N68775   1.508   5.047   7.351  0.6346  0.5416 -0.3334
  499MOL0     N68776   1.416   5.037   7.443  0.5787  0.5795 -1.0540
  499MOL0     C68777   0.427   5.174   7.736  0.6501  0.6546 -0.3601
  499MOL0     C68778   0.299   5.164   7.677  0.0198  0.3149 -0.6112
  499MOL0     C68779  -0.111   5.256   7.548  0.9567  0.0462  0.3692
  499MOL0     C68780  -0.141   5.128   7.506 -0.1686 -0.4855  0.4022
  499MOL0     C68781  -0.271   5.084   7.491  0.1328  1.0212 -0.6220
  499MOL0     C68782  -0.375   5.170   7.511  0.4297 -0.4729  0.7114
  499MOL0     O68783  -0.512   5.132   7.521  0.9096  0.1135  0.2417
  499MOL0     C68784  -0.562   5.054   7.405 -0.4036 -0.0340 -0.6738
  499MOL0     C68785  -0.638   5.129   7.306 -0.1696 -0.0780  0.2887
  499MOL0     C68786  -0.553   5.216   7.218  0.4211  0.7627 -0.7527
  499MOL0     C68787  -0.646   5.260   7.109 -0.9006 -0.4647  0.2666
  499MOL0     C68788  -0.567   5.360   7.025  0.3357  0.7087 -1.3383
  499MOL0     C68789  -0.522   5.435   6.942 -0.0235  0.2332  0.0621
  499MOL0     C68790  -0.352   5.308   7.530  0.4229  0.7874  0.0092
  499MOL0     C68791  -0.224   5.349   7.559  0.0275  1.1109 -0.1303
  499MOL0     C68792  -0.223   5.496   7.597 -0.8188  0.2430 -0.4446
  499MOL0     H68793   0.307   5.430   7.469  2.4275 -0.5521 -1.6440
  499MOL0     H68794   0.509   5.464   7.582 -0.4228 -0.5840 -1.4734
  499MOL0     H68795   0.551   5.499   7.804 -2.1110 -3.7892  0.3563
  499MOL0     H68796   0.699   5.473   7.692 -2.7721 -4.9649 -4.0009
  499MOL0     H68797   0.728   5.569   7.950 -0.8494  0.5010 -0.4406
  499MOL0     H68798   0.740   5.402   7.985 -0.2435  2.3946  1.5242
  499MOL0     H68799   0.890   5.544   7.771  0.5442  0.7602  0.0816
  499MOL0     H68800   0.949   5.514   7.933  1.0788 -1.4886 -0.2355
  499MOL0     H68801   0.984   5.306   7.919  0.5568  3.5625  0.6818
  499MOL0     H68802   0.862   5.268   7.793  1.3782 -2.1972  0.3566
  499MOL0     H68803   1.007   5.371   7.620 -2.7556 -2.3157 -1.6217
  499MOL0     H68804   1.043   5.204   7.696  3.5503  0.3733 -0.5510
  499MOL0     H68805   1.183   5.456   7.775  1.7897  0.3445 -0.3114
  499MOL0     H68806   1.209   5.296   7.835 -1.6845  0.9995  1.0443
  499MOL0     H68807   1.374   5.360   7.653 -1.3436  1.3245  2.3541
  499MOL0     H68808   1.229   5.369   7.534 -2.3579 -1.6530 -0.1076
  499MOL0     H68809   1.307   5.126   7.683  1.4118  1.8386  0.4219
  499MOL0     H68810   1.187   5.152   7.551  0.1326 -1.5350 -0.5638
  499MOL0     H68811   1.477   5.359   7.429  1.4392  0.4003  0.7926
  499MOL0     H68812   1.646   5.341   7.256  0.1822 -0.4689 -1.3267
  499MOL0     H68813   1.571   5.249   7.126  3.3258 -0.7184 -1.4427
  499MOL0     H68814   1.791   5.137   7.298 -2.0357 -0.4262  0.4907
  499MOL0     H68815   1.733   5.045   7.178 -1.0985 -0.0156  1.4920
  499MOL0     H68816   1.790   5.248   7.019 -0.7468  0.1490  1.4119
  499MOL0     H68817   1.897   5.290   7.155  0.8145 -0.3734  0.2084
  499MOL0     H68818   1.890   5.023   7.007 -0.0849  0.7342 -1.4349
  499MOL0     H68819   2.000   5.156   6.963 -1.5035 -0.5717 -0.7262
  499MOL0     H68820   2.154   5.287   7.065  0.2133 -0.3903 -0.1620
  499MOL0     H68821   2.429   5.477   7.192 -0.0035 -2.5419  3.9722
  499MOL0     H68822   2.324   5.456   7.052 -0.3893 -1.1468 -0.6375
  499MOL0     H68823   2.473   5.356   7.061 -1.6328 -1.8648 -0.8190
  499MOL0     H68824   2.880   5.230   7.317  1.3500  0.7127  0.4858
  499MOL0     H68825   3.041   5.384   7.432 -0.1485 -0.8580  0.6601
  499MOL0     H68826   2.894   5.763   7.602  0.6646  1.4142  1.6824
  499MOL0     H68827   2.925   5.604   7.676  3.5087 -1.6475 -0.3695
  499MOL0     H68828   3.171   5.660   7.670  0.5588 -0.9296  2.3001
  499MOL0     H68829   3.121   5.827   7.618  0.9734  0.9057  2.4958
  499MOL0     H68830   3.009   5.873   7.817  0.8213  1.5891 -3.2263
  499MOL0     H68831   3.178   5.840   7.854  0.5091  0.2206 -2.6833
  499MOL0     H68832   2.940   5.667   7.900 -0.4151  0.9592 -1.4656
  499MOL0     H68833   3.032   5.737   8.030 -1.3615  1.0030 -1.1279
  499MOL0     H68834   3.086   5.506   8.023 -1.9067 -0.8816 -1.2511
  499MOL0     H68835   3.137   5.497   7.860 -1.9035  0.4018  0.2319
  499MOL0     H68836   3.272   5.691   8.065  1.1269 -2.3070  2.5210
  499MOL0     H68837   3.315   5.671   7.891 -3.5658 -0.1812 -1.6919
  499MOL0     H68838   3.347   5.407   8.009  0.5613  0.0494 -0.5115
  499MOL0     H68839   3.393   5.514   8.132 -0.9955  2.7702  0.2675
  499MOL0     H68840   3.519   5.509   7.852  0.6147  3.0145 -1.0059
  499MOL0     H68841   3.577   5.447   8.005  0.0439  1.0417  0.8580
  499MOL0     H68842   2.757   5.690   7.468 -0.6609 -0.5171  2.0346
  499MOL0     H68843   2.593   5.575   7.357  0.3422  1.3123  0.8120
  499MOL0     H68844   2.336   5.081   7.465 -1.7280 -1.1751  0.4700
  499MOL0     H68845   2.152   4.977   7.371 -4.4982  2.2361  0.8308
  499MOL0     H68846   0.458   5.100   7.810 -0.3905  1.0845  0.5451
  499MOL0     H68847   0.242   5.073   7.694  0.4773  0.5711  3.1634
  499MOL0     H68848  -0.067   5.049   7.501 -1.2180 -1.4833  0.1688
  499MOL0     H68849  -0.276   4.976   7.482 -1.4474  1.1861 -2.0597
  499MOL0     H68850  -0.476   5.007   7.356 -0.1118  0.7382 -0.9184
  499MOL0     H68851  -0.626   4.978   7.451  0.3272  0.7426  1.7412
  499MOL0     H68852  -0.714   5.184   7.363  2.2105  0.1968  3.4477
  499MOL0     H68853  -0.685   5.059   7.237 -0.7864  1.3288 -0.7574
  499MOL0     H68854  -0.515   5.298   7.280 -0.5300 -0.1948  1.2045
  499MOL0     H68855  -0.470   5.170   7.165  1.1089  2.3220 -1.0866
  499MOL0     H68856  -0.732   5.310   7.154 -0.8255 -1.9092  2.1332
  499MOL0     H68857  -0.682   5.176   7.049 -0.9545 -1.1810  1.2797
  499MOL0     H68858  -0.474   5.481   6.858  1.1446 -2.6478 -0.9883
  499MOL0     H68859  -0.436   5.374   7.547  0.0158 -0.0220  1.3630
  499MOL0     H68860  -0.206   5.497   7.705 -3.1331  0.3706 -0.0228
  499MOL0     H68861  -0.140   5.540   7.541  0.5503 -1.7833 -0.1071
  499MOL0     H68862  -0.322   5.539   7.578 -0.9836 -0.1461 -0.4751
  500MOL0     O68863   3.391   4.023   3.631  0.2851 -0.1928 -0.1474
  500MOL0     C68864   3.373   3.990   3.751 -0.0548 -0.6947 -0.3674
  500MOL0     O68865   3.448   4.015   3.860 -0.6368 -0.6643  1.2894
  500MOL0     C68866   3.573   4.067   3.831  0.7508  0.2906  0.0316
  500MOL0     C68867   3.593   4.208   3.817  0.2209 -0.5854  0.4040
  500MOL0     C68868   3.724   4.257   3.797  0.4154  0.0130 -0.1871
  500MOL0     C68869   3.836   4.182   3.773  0.6881 -0.4256  0.1844
  500MOL0     O68870   3.961   4.240   3.761  0.5995  0.0076 -0.0296
  500MOL0     C68871   4.078   4.163   3.791 -0.1522  0.3405 -0.4822
  500MOL0     C68872   4.202   4.250   3.789 -0.2589 -0.0593  0.4151
  500MOL0     C68873   4.251   4.287   3.646 -0.0362  0.6692  0.0107
  500MOL0     C68874   4.378   4.372   3.657  0.5213 -0.1513 -0.1784
  500MOL0     C68875   4.418   4.419   3.516  0.4296 -0.1093  0.1852
  500MOL0     C68876   4.548   4.506   3.527 -0.4568 -0.0652 -0.8862
  500MOL0     C68877   4.521   4.657   3.529  0.6675  0.5574 -0.2807
  500MOL0     C68878   4.487   4.710   3.389  0.9643 -0.1226 -0.0037
  500MOL0     N68879   4.583   4.798   3.318 -0.3918 -0.1691  0.1454
  500MOL0     C68880   4.562   4.895   3.228  0.7046  0.2171  0.7845
  500MOL0     C68881   4.687   4.933   3.185 -0.5151  0.0877  0.6066
  500MOL0     C68882   4.701   5.027   3.071 -0.1025  0.6657  0.3597
  500MOL0     C68883   4.661   5.176   3.102  0.0672  0.1996 -0.3355
  500MOL0     C68884   4.674   5.279   2.992 -0.3097 -0.1800  1.0578
  500MOL0     C68885   4.820   5.325   2.966  0.4539  0.3866 -0.8465
  500MOL0     O68886   4.878   5.397   3.075  0.4348  0.2972  0.2852
  500MOL0     C68887   5.016   5.397   3.079 -0.5379 -0.1323  0.3249
  500MOL0     C68888   5.099   5.401   2.965  0.5225  0.3715  0.1251
  500MOL0     C68889   5.242   5.421   2.984  0.5640  0.0899  0.1933
  500MOL0     C68890   5.317   5.438   2.853  0.8102 -0.2410  1.3208
  500MOL0     C68891   5.297   5.422   3.114 -0.7827 -0.4826  0.6977
  500MOL0     C68892   5.444   5.435   3.150  0.8415  0.0338 -0.9464
  500MOL0     O68893   5.472   5.368   3.267 -0.0297 -0.7898  0.2006
  500MOL0     C68894   5.592   5.387   3.336  0.3735 -0.0328  0.4067
  500MOL0     C68895   5.564   5.393   3.473 -0.4421  0.4534 -0.5389
  500MOL0     C68896   5.673   5.427   3.561  0.0727 -0.5621 -0.2852
  500MOL0     C68897   5.805   5.442   3.511 -0.1674  0.2802 -0.1499
  500MOL0     O68898   5.901   5.478   3.612 -0.0219 -0.0409  0.1002
  500MOL0     C68899   6.022   5.548   3.577  0.9419  0.3413  0.3020
  500MOL0     C68900   6.140   5.454   3.532  0.2511 -0.0436  0.1664
  500MOL0     C68901   6.187   5.354   3.639 -0.0952 -1.2302  0.2663
  500MOL0     C68902   6.286   5.251   3.585 -0.0616  0.1063  0.9777
  500MOL0     C68903   6.314   5.155   3.698 -0.2432  0.2616 -0.5442
  500MOL0     C68904   6.247   5.016   3.681 -0.2673 -1.0078 -0.0249
  500MOL0     C68905   6.295   4.924   3.797 -0.5812  0.0167  0.7712
  500MOL0     C68906   6.245   4.782   3.808 -0.1342  0.0865 -0.3782
  500MOL0    Cl68907   6.321   4.665   3.688  0.3007 -0.4735 -0.3417
  500MOL0     C68908   5.828   5.437   3.376 -0.0410 -0.9539 -0.5554
  500MOL0     C68909   5.721   5.407   3.295 -0.0244  0.6441  0.2662
  500MOL0     O68910   5.522   5.488   3.073  0.1997  0.1777  0.2547
  500MOL0     C68911   5.213   5.396   3.220  0.0925 -0.1531 -0.0725
  500MOL0     C68912   5.076   5.385   3.201  0.4484  0.1463  0.1330
  500MOL0     N68913   4.774   4.854   3.241 -0.4042 -0.0167 -0.0207
  500MOL0     N68914   4.720   4.786   3.327 -0.1198  0.4024 -0.9501
  500MOL0     C68915   3.816   4.049   3.787 -1.1258  0.1977 -0.2842
  500MOL0     C68916   3.692   3.993   3.807 -0.1856  0.5725 -0.7926
  500MOL0     C68917   3.262   3.895   3.785  1.0239  0.3506  0.1109
  500MOL0     C68918   3.277   3.815   3.906  0.4254 -0.0027  0.0930
  500MOL0     C68919   3.182   3.720   3.945  0.3463  0.0366  0.9909
  500MOL0     C68920   3.072   3.698   3.867  1.1837  0.6891 -0.6710
  500MOL0     O68921   2.974   3.617   3.910  0.2514  0.2907 -0.0297
  500MOL0     C68922   2.914   3.662   4.033 -0.1798  0.8304  0.5622
  500MOL0     C68923   2.777   3.600   4.069 -0.0720  0.0763  0.6079
  500MOL0     C68924   2.747   3.641   4.210  0.4852 -1.0653 -0.1914
  500MOL0     C68925   2.646   3.555   4.278  0.0930  0.9171 -0.0467
  500MOL0     C68926   2.576   3.628   4.378  1.3749  0.7778  0.1154
  500MOL0     C68927   2.525   3.677   4.475  0.5156  0.0504  0.0246
  500MOL0     C68928   3.050   3.772   3.757 -0.5274 -0.9232 -0.1716
  500MOL0     C68929   3.147   3.868   3.713 -0.0847 -0.8221 -0.5579
  500MOL0     C68930   3.119   3.948   3.583 -0.4384 -0.0308  0.8043
  500MOL0     H68931   3.506   4.273   3.827 -1.2937 -1.2761 -4.9959
  500MOL0     H68932   3.738   4.365   3.796  3.5863 -0.3025  0.3890
  500MOL0     H68933   4.086   4.078   3.723  3.7634  1.5186 -1.7738
  500MOL0     H68934   4.061   4.124   3.892  0.9757  0.8586 -0.0729
  500MOL0     H68935   4.188   4.346   3.839 -3.5439  0.9749 -2.1185
  500MOL0     H68936   4.287   4.198   3.835  0.0222 -0.7260 -0.8080
  500MOL0     H68937   4.269   4.194   3.592  0.0222  0.2274  0.7719
  500MOL0     H68938   4.177   4.348   3.592 -1.5958  1.3860  2.7368
  500MOL0     H68939   4.360   4.466   3.712  2.2212  1.0746 -1.6134
  500MOL0     H68940   4.449   4.307   3.709 -0.6848 -0.4990  1.1212
  500MOL0     H68941   4.341   4.481   3.469 -1.9176 -2.8191  0.2138
  500MOL0     H68942   4.432   4.334   3.448  0.5117  0.9871 -1.2279
  500MOL0     H68943   4.603   4.486   3.619  4.6061  2.2642 -3.0219
  500MOL0     H68944   4.608   4.470   3.442 -1.2247  0.8046 -1.8278
  500MOL0     H68945   4.611   4.702   3.573  1.9837 -2.4769  0.3440
  500MOL0     H68946   4.432   4.658   3.593  0.2464 -1.3801 -0.7732
  500MOL0     H68947   4.471   4.622   3.325  0.5449 -1.4299  1.8129
  500MOL0     H68948   4.390   4.758   3.398  1.6106  1.3711 -0.6304
  500MOL0     H68949   4.464   4.930   3.200  0.7583  0.3504  0.7631
  500MOL0     H68950   4.636   4.991   2.990 -1.3559 -2.1838  2.4840
  500MOL0     H68951   4.806   5.032   3.039  0.4487  2.0201  2.1947
  500MOL0     H68952   4.555   5.171   3.128 -0.4057  1.8424 -1.7933
  500MOL0     H68953   4.723   5.197   3.190  0.4998 -0.3535 -0.4990
  500MOL0     H68954   4.629   5.230   2.905  0.3573 -1.4030  1.3713
  500MOL0     H68955   4.607   5.364   3.008  2.2349  2.0455  0.6093
  500MOL0     H68956   4.880   5.235   2.952  1.0913  0.7046 -0.1975
  500MOL0     H68957   4.814   5.392   2.879 -2.8465  0.6655 -0.5543
  500MOL0     H68958   5.045   5.425   2.874  0.4561 -1.5416 -0.3704
  500MOL0     H68959   5.403   5.506   2.851  0.5582  0.0788  1.4764
  500MOL0     H68960   5.240   5.455   2.777  0.3699 -2.3388  1.2400
  500MOL0     H68961   5.356   5.336   2.839  0.2525 -0.8991  3.9773
  500MOL0     H68962   5.461   5.385   3.508 -1.4269  2.6483 -2.6201
  500MOL0     H68963   5.667   5.433   3.669  0.7325 -4.1508  0.0848
  500MOL0     H68964   5.992   5.611   3.493 -0.8954 -2.6139 -1.4431
  500MOL0     H68965   6.053   5.601   3.668  1.0976  0.7004  0.0414
  500MOL0     H68966   6.106   5.390   3.450  1.3151 -0.3963 -0.0209
  500MOL0     H68967   6.228   5.510   3.500 -0.1879  1.0423  0.8242
  500MOL0     H68968   6.107   5.286   3.673  1.4197 -2.6324  1.1830
  500MOL0     H68969   6.232   5.420   3.714 -0.4864  0.5074 -0.9669
  500MOL0     H68970   6.375   5.298   3.542 -0.0939 -2.3792 -2.1406
  500MOL0     H68971   6.237   5.216   3.494  0.3860  0.4787  0.5847
  500MOL0     H68972   6.422   5.146   3.706  0.0966  2.0942 -2.2587
  500MOL0     H68973   6.280   5.206   3.788 -0.1667  2.2468 -1.5880
  500MOL0     H68974   6.274   4.984   3.580  0.4097  1.5287 -0.7305
  500MOL0     H68975   6.139   5.031   3.692 -0.5544 -2.8471 -0.1111
  500MOL0     H68976   6.249   4.980   3.879  0.2211  0.1695  1.1245
  500MOL0     H68977   6.404   4.917   3.797 -0.5865 -0.0912  0.2856
  500MOL0     H68978   6.137   4.790   3.794 -0.4507 -1.6685  0.7087
  500MOL0     H68979   6.265   4.737   3.906 -0.8754 -0.9719 -0.7023
  500MOL0     H68980   5.930   5.456   3.343  0.8025 -0.9329  1.8340
  500MOL0     H68981   5.748   5.405   3.189  3.1874  0.7824  0.9767
  500MOL0     H68982   5.250   5.398   3.322  0.6155 -1.0524 -0.2277
  500MOL0     H68983   5.011   5.359   3.284  0.0419 -2.3262 -0.8955
  500MOL0     H68984   3.897   3.981   3.763 -0.6026 -0.1569  2.2850
  500MOL0     H68985   3.677   3.885   3.807 -1.8626  0.7391 -2.6368
  500MOL0     H68986   3.355   3.831   3.979  0.0620 -0.5185  0.6026
  500MOL0     H68987   3.176   3.644   4.023 -1.6949 -1.7567 -0.7360
  500MOL0     H68988   2.984   3.649   4.115 -0.8477  0.2067  1.0442
  500MOL0     H68989   2.896   3.770   4.024 -0.3240  0.8161  0.6882
  500MOL0     H68990   2.770   3.494   4.044  1.5134  0.4735 -1.9728
  500MOL0     H68991   2.704   3.644   4.000 -0.0394 -0.6952  0.0712
  500MOL0     H68992   2.839   3.643   4.269  1.3264  2.7128 -1.3331
  500MOL0     H68993   2.710   3.744   4.205  0.4593 -0.6727  4.2857
  500MOL0     H68994   2.696   3.465   4.316 -2.3387 -0.3481  0.3837
  500MOL0     H68995   2.564   3.525   4.211 -1.4903 -0.8038  2.4787
  500MOL0     H68996   2.471   3.723   4.556  1.8015 -0.2513  1.0877
  500MOL0     H68997   2.961   3.754   3.698 -0.5743 -0.1016 -0.3590
  500MOL0     H68998   3.187   3.936   3.499 -0.6825  0.1930  0.5740
  500MOL0     H68999   3.029   3.902   3.540 -0.6642  0.7817  0.3899
  500MOL0     H69000   3.087   4.050   3.608  0.7861  0.6283 -0.2382
  501MOL0     O69001   3.267  11.293   7.943  0.7065 -0.2976  0.1943
  501MOL0     C69002   3.208  11.320   7.838 -0.4240  0.2456  0.6614
  501MOL0     O69003   3.269  11.326   7.715 -0.0907  0.6560  1.3185
  501MOL0     C69004   3.396  11.277   7.704 -0.4845  1.0354 -0.0451
  501MOL0     C69005   3.504  11.361   7.704  0.0183  0.4359 -0.0633
  501MOL0     C69006   3.637  11.313   7.703 -0.0898  0.6188 -0.3419
  501MOL0     C69007   3.662  11.176   7.695 -1.6636  0.1272 -0.2552
  501MOL0     O69008   3.798  11.144   7.691  0.0661  0.1956  0.0942
  501MOL0     C69009   3.843  11.007   7.709  0.2278  0.1973  0.2573
  501MOL0     C69010   3.947  10.992   7.825  0.2067 -0.0489 -0.2053
  501MOL0     C69011   4.024  10.857   7.804  0.2121 -0.8409  0.0163
  501MOL0     C69012   4.097  10.828   7.928 -0.0772 -0.4329 -0.3922
  501MOL0     C69013   4.150  10.691   7.954 -0.1630  0.4541 -0.4589
  501MOL0     C69014   4.252  10.655   7.847 -0.9047  0.5976  0.5386
  501MOL0     C69015   4.292  10.502   7.847  0.6095  0.6209  0.4103
  501MOL0     C69016   4.404  10.461   7.754  1.3391  0.2615 -0.4375
  501MOL0     N69017   4.532  10.463   7.830  0.8439 -0.1104  0.1068
  501MOL0     C69018   4.577  10.376   7.928 -0.3683  0.4702 -0.3898
  501MOL0     C69019   4.717  10.375   7.916  0.1529 -0.1267 -0.3949
  501MOL0     C69020   4.816  10.305   8.006  0.0715  0.4580  0.0516
  501MOL0     C69021   4.944  10.308   7.936  0.3131  0.1580 -0.5580
  501MOL0     C69022   5.056  10.232   8.000 -0.9350 -0.0901  0.5276
  501MOL0     C69023   5.178  10.216   7.905 -1.0169 -0.3576 -0.6741
  501MOL0     O69024   5.283  10.189   8.000 -0.2569  0.5508 -0.3048
  501MOL0     C69025   5.405  10.136   7.954  1.7561 -0.2258  0.0205
  501MOL0     C69026   5.436  10.127   7.814 -0.0218  0.9335 -0.1767
  501MOL0     C69027   5.562  10.080   7.778 -0.0946 -0.8631 -0.6164
  501MOL0     C69028   5.581  10.075   7.628  0.4037  0.2962 -0.3902
  501MOL0     C69029   5.663  10.043   7.874  0.0349 -0.6450  0.6131
  501MOL0     C69030   5.800   9.990   7.836  0.7736  0.1690  0.1589
  501MOL0     O69031   5.883   9.985   7.946  0.4820  0.8949  0.0572
  501MOL0     C69032   6.010   9.935   7.921 -0.0605  0.6014 -0.1187
  501MOL0     C69033   6.038   9.803   7.945 -0.1582  0.4684  1.0004
  501MOL0     C69034   6.173   9.763   7.925  0.8802 -0.3030 -0.4243
  501MOL0     C69035   6.267   9.833   7.853 -0.9045  0.6258  0.0583
  501MOL0     O69036   6.373   9.767   7.809 -0.4102  0.0761  0.3478
  501MOL0     C69037   6.503   9.837   7.800 -0.5423  0.2934 -0.8510
  501MOL0     C69038   6.599   9.772   7.906  0.0881 -0.9507 -0.6011
  501MOL0     C69039   6.667   9.651   7.842 -0.5580 -0.6501 -0.1022
  501MOL0     C69040   6.787   9.696   7.756  0.1436 -0.1655  0.9203
  501MOL0     C69041   6.861   9.578   7.697 -1.0143  0.3587 -0.4066
  501MOL0     C69042   7.004   9.616   7.647 -0.3685 -0.6368 -0.3951
  501MOL0     C69043   7.024   9.749   7.566 -0.1601 -0.4411 -1.0222
  501MOL0     C69044   7.173   9.776   7.542 -0.1700  0.1531 -0.5496
  501MOL0    Cl69045   7.238   9.844   7.696  0.1660  0.3514  0.3317
  501MOL0     C69046   6.227   9.967   7.823 -0.6706 -0.1934 -0.6938
  501MOL0     C69047   6.103  10.022   7.863 -1.1946 -0.0917 -0.1184
  501MOL0     O69048   5.829   9.951   7.723 -0.2565 -0.8149 -0.0279
  501MOL0     C69049   5.629  10.056   8.011 -0.0737 -0.3444  0.6969
  501MOL0     C69050   5.506  10.108   8.049  0.2615 -0.8473 -0.3155
  501MOL0     N69051   4.754  10.452   7.815  0.2788 -0.2884  0.6268
  501MOL0     N69052   4.645  10.517   7.769 -0.7434 -0.1288  0.6078
  501MOL0     C69053   3.555  11.083   7.690  0.0724  0.3595 -0.1447
  501MOL0     C69054   3.424  11.135   7.706 -0.6812 -0.2292 -0.2900
  501MOL0     C69055   3.064  11.358   7.838 -0.1431  0.1383 -0.5201
  501MOL0     C69056   3.017  11.430   7.724  0.2861 -0.1174  0.4880
  501MOL0     C69057   2.879  11.472   7.713 -0.1401 -0.2183  0.4804
  501MOL0     C69058   2.782  11.450   7.813 -0.8887 -0.2951  0.4247
  501MOL0     O69059   2.653  11.501   7.828 -0.9337  0.4982  0.0784
  501MOL0     C69060   2.601  11.558   7.712  0.3882 -0.1768  0.0901
  501MOL0     C69061   2.442  11.570   7.721 -0.0918 -0.0956 -0.2471
  501MOL0     C69062   2.384  11.453   7.791  0.3484  0.4854  0.5557
  501MOL0     C69063   2.232  11.466   7.801  0.4010  0.2374 -0.1690
  501MOL0     C69064   2.174  11.336   7.810 -0.1367 -0.3795  0.1796
  501MOL0     C69065   2.151  11.218   7.817 -0.2297 -0.1563 -0.2859
  501MOL0     C69066   2.825  11.371   7.920  0.1665  0.3207 -0.0854
  501MOL0     C69067   2.960  11.328   7.934  0.2651 -0.8942 -0.3995
  501MOL0     C69068   3.000  11.240   8.048  0.1796 -0.5368  0.2296
  501MOL0     H69069   3.484  11.468   7.714 -0.4651  0.3312  0.1318
  501MOL0     H69070   3.721  11.381   7.712 -0.0767  0.4735  0.7309
  501MOL0     H69071   3.887  10.962   7.619 -0.9166 -3.7599  1.4857
  501MOL0     H69072   3.764  10.940   7.744  1.0500  0.1028  2.0609
  501MOL0     H69073   4.014  11.079   7.829 -2.7565  2.3987  1.7955
  501MOL0     H69074   3.887  10.990   7.917  0.4457 -1.3496 -0.0607
  501MOL0     H69075   3.958  10.774   7.780  0.0320 -0.4553 -0.8552
  501MOL0     H69076   4.091  10.878   7.720 -0.0187  0.9079  0.2248
  501MOL0     H69077   4.186  10.891   7.933 -0.0552 -0.4888 -0.0397
  501MOL0     H69078   4.040  10.852   8.018  1.9289  1.2752  0.4965
  501MOL0     H69079   4.065  10.624   7.941  0.9835 -0.8159 -1.6655
  501MOL0     H69080   4.199  10.674   8.051 -1.7054  1.4076  0.5254
  501MOL0     H69081   4.211  10.668   7.747 -1.8481 -0.6889  0.7295
  501MOL0     H69082   4.346  10.711   7.846  1.0693 -2.3649 -2.2069
  501MOL0     H69083   4.203  10.454   7.804  1.7120  1.7889 -3.5138
  501MOL0     H69084   4.316  10.468   7.948 -1.2977 -0.9179  0.4235
  501MOL0     H69085   4.384  10.360   7.716  1.2073  0.0878  0.0935
  501MOL0     H69086   4.408  10.527   7.666  0.3022 -0.1790 -0.8336
  501MOL0     H69087   4.532  10.306   7.998  0.0973  0.4387 -0.1133
  501MOL0     H69088   4.776  10.207   8.030  0.4640  0.1144 -0.6454
  501MOL0     H69089   4.823  10.374   8.091  0.8620  5.3397 -3.4937
  501MOL0     H69090   4.915  10.252   7.847 -1.4787 -2.7884  1.6987
  501MOL0     H69091   4.979  10.406   7.901  1.6579 -0.5551 -1.3030
  501MOL0     H69092   5.084  10.286   8.091 -0.7055  1.1124 -0.2391
  501MOL0     H69093   5.011  10.135   8.022 -2.0829  0.0161 -1.1270
  501MOL0     H69094   5.165  10.126   7.844  3.6145 -2.1432  0.5730
  501MOL0     H69095   5.195  10.296   7.832  0.3094 -0.5715 -0.6118
  501MOL0     H69096   5.362  10.145   7.737 -0.0842  1.7603  0.0664
  501MOL0     H69097   5.681  10.106   7.596  0.3494  0.6168 -0.2462
  501MOL0     H69098   5.510  10.141   7.578 -0.1135  1.0703  1.3337
  501MOL0     H69099   5.549   9.977   7.591 -0.6303 -0.8939  3.2582
  501MOL0     H69100   5.958   9.737   7.977 -1.3259  1.0569 -0.5708
  501MOL0     H69101   6.219   9.671   7.961  0.5048  0.0812  1.1047
  501MOL0     H69102   6.556   9.835   7.705  2.9291 -3.4986  0.8211
  501MOL0     H69103   6.480   9.943   7.816 -0.2252  0.4134 -1.1787
  501MOL0     H69104   6.664   9.846   7.953 -1.5841  0.5550 -0.5681
  501MOL0     H69105   6.544   9.736   7.994  2.1163 -0.4531  0.9490
  501MOL0     H69106   6.601   9.598   7.772 -1.2273 -0.9793  0.7594
  501MOL0     H69107   6.714   9.592   7.921 -1.2390  0.1556  0.9285
  501MOL0     H69108   6.855   9.751   7.822  1.2576 -1.3944  0.8248
  501MOL0     H69109   6.745   9.752   7.672  0.2902 -1.9713 -0.3967
  501MOL0     H69110   6.867   9.501   7.775 -3.8581 -1.6285 -1.9475
  501MOL0     H69111   6.813   9.528   7.612  1.6589 -4.8841  0.7530
  501MOL0     H69112   7.023   9.532   7.579  1.6255 -1.8406  1.5329
  501MOL0     H69113   7.073   9.614   7.732 -0.5507  1.0848 -0.1759
  501MOL0     H69114   6.990   9.829   7.632  2.6211  2.5103 -2.8888
  501MOL0     H69115   6.968   9.752   7.473  2.7302 -0.2586 -2.8699
  501MOL0     H69116   7.180   9.862   7.474 -0.5285  0.1329 -0.6167
  501MOL0     H69117   7.221   9.683   7.509  1.3373  0.4459  0.7597
  501MOL0     H69118   6.296  10.029   7.768  0.8166  0.1145  1.3955
  501MOL0     H69119   6.076  10.124   7.836  1.4762  0.8522  0.4175
  501MOL0     H69120   5.702  10.026   8.086  3.8555  1.1013 -2.2004
  501MOL0     H69121   5.478  10.104   8.154 -0.2208 -0.1762 -0.4040
  501MOL0     H69122   3.567  10.976   7.680 -0.4807  0.2702  0.1172
  501MOL0     H69123   3.354  11.052   7.712 -0.0283 -0.9774 -2.2170
  501MOL0     H69124   3.080  11.438   7.636 -0.6364  1.2086 -0.0975
  501MOL0     H69125   2.858  11.517   7.617  3.9645  3.3694  0.9500
  501MOL0     H69126   2.642  11.660   7.710 -0.5949  0.2196 -0.2275
  501MOL0     H69127   2.630  11.500   7.623 -1.6530  1.3454 -1.6785
  501MOL0     H69128   2.405  11.583   7.619  0.0468 -2.6021 -0.6751
  501MOL0     H69129   2.410  11.652   7.786  0.8097  0.8004 -0.8969
  501MOL0     H69130   2.410  11.373   7.721  4.7106  1.4147  0.8274
  501MOL0     H69131   2.437  11.427   7.883  2.0743  2.0867  0.0862
  501MOL0     H69132   2.202  11.504   7.702 -0.3492 -0.7462 -0.3320
  501MOL0     H69133   2.202  11.529   7.885 -0.0967 -0.7518  0.4136
  501MOL0     H69134   2.128  11.114   7.826 -0.6056 -0.2599 -1.9662
  501MOL0     H69135   2.758  11.353   8.004 -1.5591  1.9527 -1.0270
  501MOL0     H69136   2.918  11.174   8.079 -1.2005 -0.2446 -2.5234
  501MOL0     H69137   3.079  11.172   8.015  0.4192  1.4070 -3.7928
  501MOL0     H69138   3.042  11.289   8.137  1.4415 -0.0189 -0.6195
  502MOL0     O69139  11.297   3.268   9.012  0.2461  0.0164  0.6465
  502MOL0     C69140  11.357   3.316   8.918 -0.3813 -0.2692 -0.3270
  502MOL0     O69141  11.300   3.398   8.829  0.4459  0.5740 -1.0220
  502MOL0     C69142  11.162   3.427   8.848 -0.5511  0.5979  0.2498
  502MOL0     C69143  11.122   3.524   8.940 -0.5423 -0.3098  0.1926
  502MOL0     C69144  10.989   3.553   8.962  0.2360 -0.0249  0.2078
  502MOL0     C69145  10.888   3.477   8.893 -0.2689 -0.4670  0.1237
  502MOL0     O69146  10.752   3.489   8.906  0.9274 -0.7871 -0.1334
  502MOL0     C69147  10.681   3.549   9.015 -0.2371  0.8157 -0.6352
  502MOL0     C69148  10.709   3.468   9.150  0.4598 -0.0660  0.2996
  502MOL0     C69149  10.612   3.505   9.268 -0.3844 -0.9635  1.0931
  502MOL0     C69150  10.469   3.474   9.237 -0.0015 -0.6306  0.0611
  502MOL0     C69151  10.383   3.497   9.364  0.1692 -0.4837  0.2693
  502MOL0     C69152  10.244   3.433   9.340 -0.3540  0.5063  0.2942
  502MOL0     C69153  10.176   3.428   9.481  0.4923  0.2962 -0.1804
  502MOL0     C69154  10.154   3.557   9.562 -0.5337  0.3506 -0.4500
  502MOL0     N69155  10.092   3.662   9.488  0.7408  0.5279  0.4373
  502MOL0     C69156  10.159   3.770   9.437  0.3105 -0.1476  0.2980
  502MOL0     C69157  10.082   3.808   9.329  0.3339  0.1476 -0.2928
  502MOL0     C69158  10.103   3.930   9.241 -0.7123 -0.5035  0.0298
  502MOL0     C69159  10.253   3.972   9.225 -0.0055 -0.4956  0.1632
  502MOL0     C69160  10.342   3.865   9.165  0.6340  0.5830  0.0941
  502MOL0     C69161  10.494   3.887   9.172  0.2818 -0.1593 -0.0608
  502MOL0     O69162  10.537   4.006   9.105 -0.2668  0.0737 -0.3402
  502MOL0     C69163  10.666   4.044   9.128 -0.7488  0.2447 -0.4034
  502MOL0     C69164  10.768   3.957   9.171 -0.4654  0.3339  1.4137
  502MOL0     C69165  10.905   3.998   9.164 -0.1051  0.3963 -0.3553
  502MOL0     C69166  10.997   3.888   9.219 -0.1308  0.0367  0.9363
  502MOL0     C69167  10.937   4.128   9.112  0.6334  0.5999 -0.0122
  502MOL0     C69168  11.084   4.169   9.095 -0.2751 -0.1053 -0.0404
  502MOL0     O69169  11.119   4.295   9.105 -0.3898  0.9718 -0.6451
  502MOL0     C69170  11.249   4.332   9.077  0.0917 -0.6661 -0.2767
  502MOL0     C69171  11.326   4.383   9.189 -0.3554 -0.7868  0.2819
  502MOL0     C69172  11.448   4.441   9.164 -0.8321  0.5694 -0.5856
  502MOL0     C69173  11.499   4.442   9.033  0.0626 -0.4669  0.9529
  502MOL0     O69174  11.622   4.496   9.027 -0.6294  0.4284 -0.5390
  502MOL0     C69175  11.711   4.456   8.920 -0.4898  0.0813  0.6208
  502MOL0     C69176  11.853   4.497   8.948  0.6466  0.0344 -0.0012
  502MOL0     C69177  11.862   4.654   8.950  0.3852  0.5703 -0.6318
  502MOL0     C69178  12.002   4.694   8.989 -0.4126 -1.0325  0.3467
  502MOL0     C69179  12.052   4.828   8.926  0.1046  0.1697  0.6378
  502MOL0     C69180  12.197   4.861   8.965  0.2830  0.0486  0.3982
  502MOL0     C69181  12.289   4.765   8.899  0.3343 -0.2825  0.7112
  502MOL0     C69182  12.433   4.826   8.893  0.1121  0.8937  0.3804
  502MOL0    Cl69183  12.480   4.861   9.068  0.2166 -0.4267  0.2049
  502MOL0     C69184  11.432   4.386   8.927  0.4192  0.3158 -0.2474
  502MOL0     C69185  11.306   4.328   8.950  0.1271 -0.1341 -0.3263
  502MOL0     O69186  11.150   4.081   9.042  0.1106 -0.9422  0.6343
  502MOL0     C69187  10.835   4.215   9.081 -0.4084  0.0401 -0.4823
  502MOL0     C69188  10.701   4.176   9.089  0.8268  0.1957  0.5715
  502MOL0     N69189   9.976   3.723   9.318  0.3002  0.2910  0.0902
  502MOL0     N69190   9.983   3.640   9.416  0.1322 -0.4763  0.2303
  502MOL0     C69191  10.932   3.387   8.796 -0.0805 -0.7608 -0.1521
  502MOL0     C69192  11.065   3.355   8.782  0.3075  0.9711  1.2412
  502MOL0     C69193  11.504   3.301   8.913  0.6277  1.1535 -0.7126
  502MOL0     C69194  11.577   3.407   8.853 -0.2315 -0.1815  0.1916
  502MOL0     C69195  11.713   3.415   8.864  0.4186 -0.9389 -0.2059
  502MOL0     C69196  11.785   3.319   8.932  0.3178  0.2079  0.1097
  502MOL0     O69197  11.922   3.323   8.949 -0.5117 -0.9871 -0.2972
  502MOL0     C69198  11.996   3.199   8.928  0.2483  0.4542 -0.6280
  502MOL0     C69199  12.138   3.246   8.903 -0.2115 -0.6730  0.2359
  502MOL0     C69200  12.153   3.336   8.776 -0.0871 -0.3005 -0.1858
  502MOL0     C69201  12.262   3.448   8.774 -1.1682  0.0835  0.2141
  502MOL0     C69202  12.406   3.401   8.770 -0.3322  0.3216 -0.6620
  502MOL0     C69203  12.524   3.372   8.778 -0.9073 -0.5729 -0.1838
  502MOL0     C69204  11.714   3.210   8.982 -0.7506  0.0337 -0.1595
  502MOL0     C69205  11.578   3.199   8.979 -0.4004 -0.7783  0.1990
  502MOL0     C69206  11.508   3.073   9.037 -0.9313  0.2766  0.8041
  502MOL0     H69207  11.196   3.585   8.991 -1.8072 -0.8341  2.8218
  502MOL0     H69208  10.955   3.636   9.022 -1.4326 -0.1160 -0.5429
  502MOL0     H69209  10.573   3.550   8.994  0.2865  4.1490 -4.3435
  502MOL0     H69210  10.706   3.655   9.022 -1.6121  1.0355  2.1259
  502MOL0     H69211  10.698   3.360   9.138 -0.1549 -0.4963  3.7201
  502MOL0     H69212  10.815   3.483   9.172  0.4797  2.2676 -1.0680
  502MOL0     H69213  10.651   3.449   9.353 -2.6129 -0.4319  2.5339
  502MOL0     H69214  10.627   3.607   9.304  1.5042 -1.1988  1.1209
  502MOL0     H69215  10.429   3.547   9.165  1.7568  0.0617 -0.2781
  502MOL0     H69216  10.462   3.372   9.198  1.5226 -1.0094  0.7019
  502MOL0     H69217  10.361   3.602   9.387 -1.7916 -0.3916 -1.6714
  502MOL0     H69218  10.431   3.447   9.449  1.1397 -0.1140 -0.0451
  502MOL0     H69219  10.181   3.488   9.269 -0.5388 -1.7367 -1.3830
  502MOL0     H69220  10.254   3.330   9.305 -2.1140 -0.7497  3.1768
  502MOL0     H69221  10.239   3.370   9.549 -1.2076 -0.9442  0.4116
  502MOL0     H69222  10.082   3.372   9.473  1.0383 -0.9533  1.5683
  502MOL0     H69223  10.093   3.543   9.651  1.7294 -0.4408  1.0744
  502MOL0     H69224  10.250   3.577   9.610 -0.2631 -2.3195  0.2739
  502MOL0     H69225  10.256   3.811   9.464  0.3380 -0.6236  0.9378
  502MOL0     H69226  10.034   4.011   9.268 -0.7783 -0.3984 -0.4447
  502MOL0     H69227  10.067   3.898   9.143 -3.9717 -1.4497  1.3864
  502MOL0     H69228  10.261   4.064   9.166  0.5615  0.2666  1.3970
  502MOL0     H69229  10.284   4.005   9.324 -3.9204  2.6918  0.5771
  502MOL0     H69230  10.324   3.769   9.214 -1.2521  1.0864  0.4571
  502MOL0     H69231  10.323   3.858   9.057  1.0098 -2.7102  0.1220
  502MOL0     H69232  10.522   3.907   9.276 -1.1921 -0.1113  0.3506
  502MOL0     H69233  10.538   3.797   9.129  2.3871  1.4982 -1.6166
  502MOL0     H69234  10.746   3.857   9.205 -0.6337  0.3092  1.2336
  502MOL0     H69235  10.933   3.824   9.281 -0.3399 -2.2122 -1.4169
  502MOL0     H69236  11.086   3.927   9.269 -0.4959  2.4342 -0.1759
  502MOL0     H69237  11.036   3.822   9.140  1.5641 -0.5891  2.2280
  502MOL0     H69238  11.279   4.378   9.287  0.0801 -2.6216  0.4352
  502MOL0     H69239  11.498   4.487   9.248 -2.0659  2.4584 -0.8365
  502MOL0     H69240  11.713   4.346   8.920  1.6607  0.0739  1.1436
  502MOL0     H69241  11.659   4.493   8.831 -2.8614 -2.3545  0.8486
  502MOL0     H69242  11.873   4.459   9.049  0.8557  2.6649  1.0165
  502MOL0     H69243  11.921   4.459   8.870 -2.4792 -0.4968 -2.6789
  502MOL0     H69244  11.793   4.694   9.025  1.6918  0.8228  0.4852
  502MOL0     H69245  11.840   4.696   8.851  0.3979  1.3778 -0.3046
  502MOL0     H69246  12.071   4.616   8.957  2.3985  0.0977  3.0290
  502MOL0     H69247  12.000   4.706   9.098 -0.8286 -0.1229  0.2475
  502MOL0     H69248  12.047   4.831   8.817 -0.0336  2.8917  0.6461
  502MOL0     H69249  11.982   4.909   8.952 -1.1450 -0.8932  0.6951
  502MOL0     H69250  12.208   4.856   9.074 -2.8162 -1.3856  0.7519
  502MOL0     H69251  12.227   4.964   8.944  0.7868 -0.4840 -1.7932
  502MOL0     H69252  12.253   4.747   8.797 -0.9003 -2.8862  1.5293
  502MOL0     H69253  12.295   4.671   8.955 -1.2164 -0.7957  0.0774
  502MOL0     H69254  12.432   4.925   8.846 -0.3145  0.7030 -0.0319
  502MOL0     H69255  12.505   4.762   8.842 -0.3272 -0.1385  1.0328
  502MOL0     H69256  11.467   4.393   8.824  0.3124  2.5947 -0.2008
  502MOL0     H69257  11.253   4.275   8.872  1.8638 -2.1682 -0.2001
  502MOL0     H69258  10.861   4.314   9.043  1.2156  0.6597  2.0108
  502MOL0     H69259  10.617   4.240   9.063  1.0008  0.0865 -0.2775
  502MOL0     H69260  10.866   3.322   8.740 -1.0130 -1.4252  1.6429
  502MOL0     H69261  11.090   3.273   8.715 -3.6167  0.4729  0.1179
  502MOL0     H69262  11.527   3.466   8.777  2.8344 -1.3676 -3.0322
  502MOL0     H69263  11.781   3.483   8.813 -0.8921 -0.0796 -0.8709
  502MOL0     H69264  11.979   3.135   9.015 -1.1679  0.4680 -0.8708
  502MOL0     H69265  11.960   3.138   8.844 -0.4266 -0.2901  0.1873
  502MOL0     H69266  12.204   3.160   8.896 -0.6182 -1.2778  2.8833
  502MOL0     H69267  12.175   3.302   8.989  3.7606 -3.1622  0.3560
  502MOL0     H69268  12.176   3.273   8.689 -0.8668 -0.4799 -0.2747
  502MOL0     H69269  12.058   3.390   8.774 -0.3107 -0.5722  1.6507
  502MOL0     H69270  12.245   3.511   8.862 -2.9012 -0.8272  0.5818
  502MOL0     H69271  12.249   3.516   8.690 -0.8514  2.2215  1.7954
  502MOL0     H69272  12.618   3.322   8.796 -0.8762 -0.3486  0.2938
  502MOL0     H69273  11.763   3.133   9.040  3.5601  0.5049 -2.8158
  502MOL0     H69274  11.448   3.020   8.963  0.3789  0.0917 -0.1462
  502MOL0     H69275  11.590   3.006   9.063  0.2969  0.2871 -2.6087
  502MOL0     H69276  11.449   3.096   9.127  2.4608  0.0995  3.2667
  503MOL0     O69277   1.451   9.848   0.593 -0.1631 -0.3306 -0.3723
  503MOL0     C69278   1.473   9.970   0.613 -0.3512  0.2089 -0.7116
  503MOL0     O69279   1.574  10.041   0.548  0.0028 -0.4398 -0.5304
  503MOL0     C69280   1.684   9.956   0.534 -0.1279 -0.1800 -0.3960
  503MOL0     C69281   1.700   9.883   0.414  0.6739  0.3497 -0.9642
  503MOL0     C69282   1.807   9.788   0.404  0.3262 -0.0912  0.2968
  503MOL0     C69283   1.889   9.761   0.511  0.7766  1.0162 -0.1588
  503MOL0     O69284   1.982   9.659   0.495  0.3121  0.0938  0.5427
  503MOL0     C69285   2.096   9.651   0.583  0.6410 -0.2261  0.1419
  503MOL0     C69286   2.198   9.540   0.546 -0.3508  0.7094  0.0652
  503MOL0     C69287   2.238   9.572   0.398 -0.2012  0.2853 -0.0042
  503MOL0     C69288   2.344   9.475   0.352 -0.7500 -0.1449 -0.2918
  503MOL0     C69289   2.407   9.509   0.209 -0.1799  0.8783 -0.3446
  503MOL0     C69290   2.524   9.617   0.221  0.1056 -0.3110 -0.2361
  503MOL0     C69291   2.621   9.608   0.339  0.9859  0.6831  0.3966
  503MOL0     C69292   2.685   9.473   0.325 -0.4515 -0.3916 -0.1085
  503MOL0     N69293   2.781   9.435   0.440 -0.0525 -0.2221 -0.5310
  503MOL0     C69294   2.910   9.487   0.457  0.3672 -0.5329 -0.2831
  503MOL0     C69295   2.960   9.417   0.563 -0.0723 -0.4996  1.1976
  503MOL0     C69296   3.085   9.447   0.637  0.0641  0.4587  0.6950
  503MOL0     C69297   3.209   9.396   0.550  0.8138 -0.1306 -0.7707
  503MOL0     C69298   3.227   9.477   0.422 -0.4174  0.2861  0.0243
  503MOL0     C69299   3.374   9.483   0.375 -0.9343  0.6045 -0.1719
  503MOL0     O69300   3.418   9.359   0.315 -0.4002  0.3878 -0.7705
  503MOL0     C69301   3.550   9.344   0.273  0.9423 -0.3475 -0.1930
  503MOL0     C69302   3.652   9.434   0.303  0.4116 -0.3590 -0.0092
  503MOL0     C69303   3.788   9.410   0.275 -0.4726 -0.8883 -0.3259
  503MOL0     C69304   3.885   9.512   0.326 -0.5679  0.2880  0.8261
  503MOL0     C69305   3.831   9.287   0.212  0.5610 -0.0721 -0.3301
  503MOL0     C69306   3.971   9.244   0.186 -0.7921  0.1871  0.5152
  503MOL0     O69307   3.994   9.127   0.117 -0.7304 -0.7178 -0.0735
  503MOL0     C69308   4.115   9.082   0.080  0.3451 -0.2107 -0.6241
  503MOL0     C69309   4.238   9.150   0.089 -0.3077 -0.0960  0.1516
  503MOL0     C69310   4.358   9.090   0.055 -0.2387  0.3907 -1.1647
  503MOL0     C69311   4.359   8.958   0.004 -1.0150 -0.2405 -1.1382
  503MOL0     O69312   4.473   8.890  -0.026 -0.5287 -0.3023  0.4062
  503MOL0     C69313   4.603   8.930   0.010  0.8358 -0.0673 -0.3176
  503MOL0     C69314   4.705   8.812   0.020 -0.1247  0.2775  0.0620
  503MOL0     C69315   4.755   8.765  -0.116 -0.2562  0.5992  0.1229
  503MOL0     C69316   4.832   8.638  -0.093 -0.6819  0.4622  0.3064
  503MOL0     C69317   4.893   8.581  -0.219 -0.1746 -0.2750  0.1416
  503MOL0     C69318   4.792   8.512  -0.315 -0.9746  0.6956  0.0840
  503MOL0     C69319   4.835   8.449  -0.443 -0.2287  1.2009  0.3907
  503MOL0     C69320   4.958   8.357  -0.425  0.2261  1.0780 -0.1547
  503MOL0    Cl69321   5.117   8.439  -0.435  0.0328 -0.0837  0.2379
  503MOL0     C69322   4.244   8.891   0.007  1.1892 -0.1455 -0.0932
  503MOL0     C69323   4.119   8.947   0.042 -0.1297  0.1472  0.0166
  503MOL0     O69324   4.059   9.301   0.255  0.0931 -0.3307 -0.5765
  503MOL0     C69325   3.726   9.200   0.184  0.9192 -0.0901  1.0953
  503MOL0     C69326   3.587   9.227   0.212  0.0089  0.4257  0.4217
  503MOL0     N69327   2.867   9.319   0.597  0.2695  0.2755  0.8299
  503MOL0     N69328   2.764   9.324   0.524  0.0979  0.1405 -0.3788
  503MOL0     C69329   1.872   9.834   0.628 -0.3351 -0.1790  0.0272
  503MOL0     C69330   1.772   9.931   0.638 -0.4854  0.6516  0.1058
  503MOL0     C69331   1.399  10.057   0.714  0.0647  0.1524  0.9611
  503MOL0     C69332   1.467  10.155   0.782  0.1930 -0.5911 -0.0124
  503MOL0     C69333   1.402  10.230   0.879  0.7535  0.4769  0.4499
  503MOL0     C69334   1.273  10.211   0.919  0.0135  0.0386  0.4435
  503MOL0     O69335   1.243  10.286   1.029  0.2991 -0.3277 -0.4307
  503MOL0     C69336   1.113  10.289   1.078  0.1563  0.1795  0.0268
  503MOL0     C69337   1.102  10.394   1.191 -0.0430  0.4394  0.0429
  503MOL0     C69338   1.180  10.350   1.317 -0.2160  0.7189  0.2667
  503MOL0     C69339   1.197  10.461   1.425 -0.9672  0.1044  0.5928
  503MOL0     C69340   1.089  10.460   1.527 -1.0134 -0.1055  0.2991
  503MOL0     C69341   1.005  10.476   1.612  1.0046  0.0848  0.2432
  503MOL0     C69342   1.198  10.113   0.841 -0.8991 -0.3061  0.2081
  503MOL0     C69343   1.256  10.043   0.737 -0.1002 -0.3309 -0.0225
  503MOL0     C69344   1.157   9.952   0.658 -0.0408  0.3297 -0.6321
  503MOL0     H69345   1.639   9.904   0.327  3.3572  3.4081 -2.3110
  503MOL0     H69346   1.817   9.740   0.307 -2.0000 -0.0268 -0.0238
  503MOL0     H69347   2.068   9.644   0.688 -0.7305 -0.1280 -0.1977
  503MOL0     H69348   2.134   9.753   0.569  2.2881 -1.2128 -3.7448
  503MOL0     H69349   2.276   9.542   0.623  0.0744 -2.5123 -0.1225
  503MOL0     H69350   2.152   9.440   0.545 -0.8567  0.8428  2.6372
  503MOL0     H69351   2.151   9.560   0.333  0.9093  1.6066 -1.8457
  503MOL0     H69352   2.259   9.678   0.384  0.3963  0.0655 -0.8771
  503MOL0     H69353   2.421   9.463   0.429 -1.1085 -1.0456 -0.0689
  503MOL0     H69354   2.291   9.380   0.341  1.3052 -1.6971  1.9900
  503MOL0     H69355   2.330   9.548   0.142 -0.8822  1.7966  0.9412
  503MOL0     H69356   2.455   9.424   0.159 -0.2198  0.0161  1.0317
  503MOL0     H69357   2.584   9.622   0.130 -1.3499  1.1029 -1.1685
  503MOL0     H69358   2.481   9.717   0.231  0.5667 -0.0107 -1.1828
  503MOL0     H69359   2.560   9.606   0.429 -2.3290 -0.7354 -1.6911
  503MOL0     H69360   2.682   9.697   0.355 -0.1601  1.6333 -0.3413
  503MOL0     H69361   2.606   9.401   0.304 -1.9160  1.6166 -1.9673
  503MOL0     H69362   2.744   9.481   0.233  0.6115  3.0513  0.7175
  503MOL0     H69363   2.956   9.575   0.414 -0.2298  0.9495  1.9399
  503MOL0     H69364   3.083   9.393   0.732  1.5076 -0.7894  0.0567
  503MOL0     H69365   3.099   9.554   0.658  0.6662  1.5508 -4.1521
  503MOL0     H69366   3.294   9.402   0.619 -1.3753 -1.0931  2.2656
  503MOL0     H69367   3.190   9.289   0.538  1.7202 -0.3786 -0.0973
  503MOL0     H69368   3.168   9.446   0.336  0.3869  3.3755 -1.7848
  503MOL0     H69369   3.202   9.581   0.442  2.5372  1.1537 -0.3232
  503MOL0     H69370   3.386   9.567   0.306 -3.9726  0.8710 -0.5275
  503MOL0     H69371   3.443   9.509   0.455 -0.3522  0.1058 -0.5087
  503MOL0     H69372   3.632   9.533   0.343  1.3290  0.1092 -0.6792
  503MOL0     H69373   3.948   9.485   0.411 -0.9676 -2.1457  0.4092
  503MOL0     H69374   3.844   9.614   0.327  1.0055  0.9658  2.0387
  503MOL0     H69375   3.958   9.516   0.245  0.7353  2.0962  1.9916
  503MOL0     H69376   4.240   9.257   0.111 -2.1152 -0.1040  0.5519
  503MOL0     H69377   4.450   9.148   0.061  1.2745 -1.8536 -1.4863
  503MOL0     H69378   4.639   8.999  -0.067 -0.0522 -0.7139 -1.3241
  503MOL0     H69379   4.602   8.988   0.103 -3.6643 -1.0485  0.4585
  503MOL0     H69380   4.788   8.839   0.086 -0.9384  0.6357  0.9531
  503MOL0     H69381   4.658   8.725   0.068  0.0041  1.2069  1.9627
  503MOL0     H69382   4.824   8.835  -0.166  1.7952 -0.3165  1.5598
  503MOL0     H69383   4.667   8.742  -0.176  0.5937 -0.7888 -0.6576
  503MOL0     H69384   4.768   8.563  -0.047 -0.7513 -0.1971 -0.8227
  503MOL0     H69385   4.908   8.655  -0.016  0.3726 -0.2971 -0.5262
  503MOL0     H69386   4.949   8.661  -0.270 -0.5543 -0.5745 -0.7732
  503MOL0     H69387   4.970   8.514  -0.182  0.1452  0.3642  0.6566
  503MOL0     H69388   4.716   8.587  -0.339  0.0308  2.7137  2.7169
  503MOL0     H69389   4.748   8.436  -0.248  0.6085  2.3303  3.1783
  503MOL0     H69390   4.872   8.523  -0.514  3.6050 -0.4245  0.4508
  503MOL0     H69391   4.759   8.390  -0.495  2.4099 -2.2768  0.0987
  503MOL0     H69392   4.964   8.272  -0.493 -0.8561  0.7527  0.1212
  503MOL0     H69393   4.942   8.304  -0.330  1.7273 -2.4647 -1.6944
  503MOL0     H69394   4.252   8.788  -0.026  3.7794  0.3821 -1.3723
  503MOL0     H69395   4.025   8.894   0.038  0.1863 -0.5988  1.6896
  503MOL0     H69396   3.748   9.105   0.135  1.2728  0.7873 -0.5123
  503MOL0     H69397   3.506   9.158   0.189 -0.7794  0.8575  1.7364
  503MOL0     H69398   1.939   9.811   0.710  1.2244  1.9593 -0.5542
  503MOL0     H69399   1.765   9.982   0.734  2.1974 -2.1602  2.0012
  503MOL0     H69400   1.569  10.171   0.749 -0.7645  1.3277 -2.3593
  503MOL0     H69401   1.460  10.303   0.934  3.2102  0.4278 -1.9206
  503MOL0     H69402   1.055  10.321   0.991  3.0874 -0.3891 -2.3426
  503MOL0     H69403   1.074  10.192   1.108 -1.0560  0.4593 -0.6015
  503MOL0     H69404   0.996  10.391   1.219  0.7904 -1.9969  3.8825
  503MOL0     H69405   1.135  10.493   1.160 -1.2380  0.7755 -0.2226
  503MOL0     H69406   1.133  10.268   1.374 -2.2267  0.5622 -1.5133
  503MOL0     H69407   1.280  10.321   1.282 -0.5562 -0.8035  0.4807
  503MOL0     H69408   1.192  10.558   1.375 -1.0981 -0.2926 -0.1740
  503MOL0     H69409   1.299  10.468   1.463 -0.4853  0.5508 -0.7611
  503MOL0     H69410   0.940  10.488   1.696  1.7494  2.9555  0.5167
  503MOL0     H69411   1.095  10.091   0.866 -0.3674 -1.2221  1.7055
  503MOL0     H69412   1.215   9.905   0.577  0.7467 -2.0793  1.1928
  503MOL0     H69413   1.121   9.872   0.724  1.1947  1.4327  1.5076
  503MOL0     H69414   1.074  10.011   0.619  1.1752  1.4625 -1.5879
  504MOL0     O69415   7.196   8.670   2.720  0.1125  0.1680  0.9533
  504MOL0     C69416   7.308   8.716   2.717 -0.3086 -0.2473  0.0273
  504MOL0     O69417   7.411   8.683   2.627  0.5182 -0.6482  0.4830
  504MOL0     C69418   7.387   8.593   2.527 -0.0118 -0.1283  0.6601
  504MOL0     C69419   7.475   8.493   2.515  0.1774  0.5317  0.6108
  504MOL0     C69420   7.461   8.379   2.429 -0.2954  0.5300 -0.1736
  504MOL0     C69421   7.349   8.373   2.342 -0.4903  0.2933 -0.3070
  504MOL0     O69422   7.320   8.281   2.250 -0.2060 -0.7918  0.2937
  504MOL0     C69423   7.402   8.162   2.240  0.1060 -0.5815 -0.1588
  504MOL0     C69424   7.367   8.080   2.114  0.0607 -0.6925 -0.1615
  504MOL0     C69425   7.441   7.942   2.112 -0.2019 -0.2132 -0.4390
  504MOL0     C69426   7.361   7.817   2.137  0.3175  0.2195  0.1441
  504MOL0     C69427   7.445   7.693   2.115 -0.2582  0.1493  1.2814
  504MOL0     C69428   7.375   7.573   2.187 -0.2013 -1.2059  0.8635
  504MOL0     C69429   7.470   7.451   2.177  0.5363 -0.2103  0.1963
  504MOL0     C69430   7.411   7.329   2.247  0.3182 -0.0795  0.3504
  504MOL0     N69431   7.499   7.208   2.213  0.5376 -1.0558 -0.3299
  504MOL0     C69432   7.487   7.130   2.099 -0.2073 -0.4614  0.1084
  504MOL0     C69433   7.576   7.030   2.118  0.3582 -0.6361 -0.5615
  504MOL0     C69434   7.604   6.922   2.019 -0.4045  0.3541 -0.0090
  504MOL0     C69435   7.585   6.777   2.072  0.6404 -0.3964  0.2619
  504MOL0     C69436   7.639   6.660   1.980  0.1157 -0.3730  0.0912
  504MOL0     C69437   7.787   6.675   1.933 -0.5060 -0.3388 -0.1388
  504MOL0     O69438   7.869   6.725   2.037 -0.0366 -0.1679 -0.4005
  504MOL0     C69439   8.010   6.735   2.024 -0.4030  0.1899  0.0168
  504MOL0     C69440   8.087   6.701   1.915 -0.1012 -0.2017 -0.0637
  504MOL0     C69441   8.229   6.726   1.907  0.0958  0.8752  0.4229
  504MOL0     C69442   8.296   6.716   1.781  0.3058 -0.4706 -0.8455
  504MOL0     C69443   8.291   6.786   2.018 -0.3423  0.6740 -0.2842
  504MOL0     C69444   8.438   6.819   2.027 -0.2213 -1.0743  0.3003
  504MOL0     O69445   8.469   6.894   2.135 -0.3709  0.8074  0.3606
  504MOL0     C69446   8.593   6.946   2.169  0.4798  0.0116 -0.4041
  504MOL0     C69447   8.715   6.927   2.099  0.7813  0.6300 -0.4611
  504MOL0     C69448   8.840   6.979   2.151 -0.0553  0.4897 -0.5584
  504MOL0     C69449   8.847   7.040   2.278  0.4941  0.8184 -0.2420
  504MOL0     O69450   8.970   7.058   2.338 -0.0035  0.2698  0.0042
  504MOL0     C69451   8.973   7.064   2.484  0.1301 -0.1343  0.4754
  504MOL0     C69452   9.119   7.091   2.533 -0.1854 -0.1814  0.8383
  504MOL0     C69453   9.138   7.095   2.687 -0.0898 -0.7505 -1.4622
  504MOL0     C69454   9.290   7.111   2.709 -0.2222  0.3190  0.0855
  504MOL0     C69455   9.315   7.202   2.828 -0.3700 -0.0857  0.4655
  504MOL0     C69456   9.456   7.175   2.874  0.7699  0.4562  0.2523
  504MOL0     C69457   9.487   7.258   2.997 -0.7765  0.6004  0.5493
  504MOL0     C69458   9.632   7.254   3.042 -0.0726  0.5164 -0.0579
  504MOL0    Cl69459   9.647   7.324   3.218 -0.5642  0.0389  0.1040
  504MOL0     C69460   8.726   7.068   2.337  0.0009 -1.0707 -0.1867
  504MOL0     C69461   8.604   7.023   2.284  0.1811 -1.1985 -0.0625
  504MOL0     O69462   8.516   6.793   1.930  0.5957  0.2673  0.7020
  504MOL0     C69463   8.215   6.813   2.133 -0.2078 -0.7611  0.0609
  504MOL0     C69464   8.083   6.794   2.133  0.1664  0.6089  0.6529
  504MOL0     N69465   7.659   7.063   2.232 -0.0037 -0.7031  0.3818
  504MOL0     N69466   7.600   7.163   2.293 -0.0858 -0.7912  0.2031
  504MOL0     C69467   7.256   8.474   2.357  0.1896  0.8031  0.0652
  504MOL0     C69468   7.271   8.586   2.443  0.0638 -0.0974 -0.2293
  504MOL0     C69469   7.326   8.837   2.812 -0.7853 -0.4705  1.2419
  504MOL0     C69470   7.384   8.954   2.763 -0.0112 -0.1306 -0.0596
  504MOL0     C69471   7.409   9.064   2.848 -0.2077  1.3706 -0.3069
  504MOL0     C69472   7.390   9.062   2.978 -0.7296 -0.8685 -0.0992
  504MOL0     O69473   7.447   9.150   3.065  0.2842 -0.3625 -0.4748
  504MOL0     C69474   7.468   9.284   3.014 -0.3847  0.5022 -0.1592
  504MOL0     C69475   7.344   9.349   2.964 -1.0094  0.2078 -0.0481
  504MOL0     C69476   7.258   9.348   3.085 -0.3532 -0.3077  0.7551
  504MOL0     C69477   7.146   9.453   3.058  0.0979 -0.3296  0.3055
  504MOL0     C69478   7.025   9.425   3.136  0.8477  1.1475  0.5351
  504MOL0     C69479   6.920   9.419   3.195  0.5009 -0.0317 -0.1844
  504MOL0     C69480   7.326   8.951   3.026  0.6462 -0.2302  1.0814
  504MOL0     C69481   7.296   8.833   2.948  0.0309 -0.3784  0.0348
  504MOL0     C69482   7.233   8.718   3.019  0.1398 -0.2370  0.2509
  504MOL0     H69483   7.558   8.505   2.583  0.1518  2.5155  0.3382
  504MOL0     H69484   7.538   8.303   2.425 -0.7511  0.1191 -1.8488
  504MOL0     H69485   7.371   8.104   2.327  1.0670  1.0438  1.3047
  504MOL0     H69486   7.507   8.189   2.231 -1.0259  4.3213 -1.6479
  504MOL0     H69487   7.259   8.069   2.104 -0.0501  0.3983 -0.2610
  504MOL0     H69488   7.397   8.136   2.025 -0.1885  3.0055  1.8939
  504MOL0     H69489   7.482   7.933   2.011 -0.7760  1.3168 -0.8364
  504MOL0     H69490   7.520   7.938   2.187 -1.3192 -1.1720  0.7350
  504MOL0     H69491   7.318   7.813   2.237 -4.3343 -2.3446 -1.6182
  504MOL0     H69492   7.280   7.828   2.064 -1.4963 -2.7787  1.5453
  504MOL0     H69493   7.547   7.704   2.152  0.2464  0.5399 -0.1585
  504MOL0     H69494   7.457   7.673   2.008  2.1751 -1.7035  1.8183
  504MOL0     H69495   7.352   7.606   2.288 -1.6150 -2.3393  0.9466
  504MOL0     H69496   7.286   7.559   2.125  1.0752  2.2802 -2.1925
  504MOL0     H69497   7.569   7.480   2.212  0.5489  0.1860 -0.1612
  504MOL0     H69498   7.485   7.418   2.074 -1.0346  0.8284 -0.4034
  504MOL0     H69499   7.410   7.336   2.356 -0.3846 -0.6384  0.3862
  504MOL0     H69500   7.308   7.306   2.220  0.2627  1.9118 -1.4086
  504MOL0     H69501   7.413   7.141   2.020  0.8849 -0.1834 -0.9156
  504MOL0     H69502   7.709   6.926   1.991 -0.0143 -1.9394  0.9026
  504MOL0     H69503   7.546   6.931   1.927  0.9305  2.3849 -0.7099
  504MOL0     H69504   7.636   6.758   2.167  2.1385  2.3839  0.1060
  504MOL0     H69505   7.477   6.764   2.084  0.2700  2.7746  1.3281
  504MOL0     H69506   7.639   6.569   2.042  1.9489 -2.2373 -2.4273
  504MOL0     H69507   7.571   6.648   1.896 -1.4068  3.1731  0.6394
  504MOL0     H69508   7.838   6.590   1.885  0.9306  0.4300 -0.0301
  504MOL0     H69509   7.794   6.744   1.848 -0.7628  0.1334  0.2182
  504MOL0     H69510   8.037   6.674   1.823  0.1519  3.1654 -1.3333
  504MOL0     H69511   8.336   6.815   1.759  0.6065 -0.5439 -0.6231
  504MOL0     H69512   8.228   6.687   1.699  1.7960 -0.7230 -2.0441
  504MOL0     H69513   8.380   6.646   1.778  2.0464  1.5208 -0.5225
  504MOL0     H69514   8.733   6.872   2.007  2.1599 -0.5491  0.4648
  504MOL0     H69515   8.931   6.957   2.095  0.3778  0.1182  0.2711
  504MOL0     H69516   8.912   7.151   2.510 -0.8956 -1.2633  2.0416
  504MOL0     H69517   8.932   6.973   2.529 -1.2553  0.0208 -0.4104
  504MOL0     H69518   9.173   7.005   2.493  0.4931  0.9203 -0.7628
  504MOL0     H69519   9.155   7.178   2.477  0.8106 -0.4136  1.0959
  504MOL0     H69520   9.106   7.007   2.744 -2.8780 -0.0815 -1.8717
  504MOL0     H69521   9.079   7.183   2.714 -3.4159 -3.3166  0.3427
  504MOL0     H69522   9.329   7.156   2.617 -0.9409 -1.1621 -0.9721
  504MOL0     H69523   9.340   7.014   2.717  0.1581  0.4977 -0.1315
  504MOL0     H69524   9.294   7.306   2.803 -3.6919 -0.8664 -0.5050
  504MOL0     H69525   9.253   7.161   2.908 -0.3734  2.7067  2.0055
  504MOL0     H69526   9.523   7.217   2.797  1.1859 -0.8704 -0.1455
  504MOL0     H69527   9.477   7.073   2.906 -1.7288  0.7259  3.1297
  504MOL0     H69528   9.425   7.221   3.079  0.9526 -0.9081  1.2391
  504MOL0     H69529   9.466   7.362   2.970  1.0281  1.0748  0.8454
  504MOL0     H69530   9.687   7.326   2.980 -1.5360  0.6260 -1.2957
  504MOL0     H69531   9.680   7.157   3.029 -1.6460 -0.4803  1.1805
  504MOL0     H69532   8.712   7.126   2.428  1.7803  1.4762 -1.4195
  504MOL0     H69533   8.517   7.043   2.345 -0.3650  1.1200 -1.4528
  504MOL0     H69534   8.261   6.847   2.225 -0.5525  1.8931 -0.6687
  504MOL0     H69535   8.014   6.808   2.216 -2.0912  1.0400 -1.1841
  504MOL0     H69536   7.165   8.482   2.299  1.2903  1.0073 -1.7176
  504MOL0     H69537   7.186   8.653   2.447  1.1092  1.2368  0.1277
  504MOL0     H69538   7.405   8.978   2.659 -1.7103 -0.7290 -0.5801
  504MOL0     H69539   7.456   9.152   2.805  0.7705  1.8580  1.6431
  504MOL0     H69540   7.504   9.361   3.083 -1.8944  0.5915  0.5671
  504MOL0     H69541   7.548   9.270   2.940  0.4033  0.7937  0.6146
  504MOL0     H69542   7.308   9.318   2.866 -0.5577 -0.6066  0.0304
  504MOL0     H69543   7.382   9.451   2.949 -0.3247  0.7769  4.2367
  504MOL0     H69544   7.214   9.249   3.106 -1.3780 -0.2889 -1.0546
  504MOL0     H69545   7.306   9.391   3.173  0.9051  1.6328 -0.8158
  504MOL0     H69546   7.134   9.458   2.949  1.1196 -0.5911  0.1778
  504MOL0     H69547   7.185   9.550   3.089  1.4379  0.6130 -3.6554
  504MOL0     H69548   6.827   9.410   3.248  0.2612 -2.2146 -0.9081
  504MOL0     H69549   7.314   8.945   3.134  1.2037 -0.3561  1.1426
  504MOL0     H69550   7.298   8.631   3.024 -0.0867 -0.3920  0.5763
  504MOL0     H69551   7.209   8.741   3.124  1.6767 -2.0180  1.0445
  504MOL0     H69552   7.137   8.688   2.975  1.3834 -1.4663 -1.7208
  505MOL0     O69553  11.044   2.616  10.442 -0.2528  0.1491  0.5931
  505MOL0     C69554  10.972   2.583  10.351 -0.4374  0.3757  0.7513
  505MOL0     O69555  10.984   2.484  10.265 -0.1171  0.2052  0.4615
  505MOL0     C69556  11.091   2.391  10.282 -0.4917 -0.0908 -0.3590
  505MOL0     C69557  11.065   2.280  10.366  0.5245 -0.5122 -0.3400
  505MOL0     C69558  11.164   2.183  10.383  0.0997  0.5480 -0.4227
  505MOL0     C69559  11.278   2.181  10.308  0.2887 -1.0930 -0.6565
  505MOL0     O69560  11.368   2.081  10.313 -1.0996 -0.0904 -0.4874
  505MOL0     C69561  11.389   1.996  10.194  0.2286 -0.2933  0.3758
  505MOL0     C69562  11.452   1.872  10.233  0.1917  1.5690 -0.1447
  505MOL0     C69563  11.601   1.902  10.260  0.7269 -0.9995 -0.4823
  505MOL0     C69564  11.674   1.774  10.299 -0.5548  0.0599  0.0908
  505MOL0     C69565  11.807   1.787  10.356 -0.4232 -0.7583  0.7245
  505MOL0     C69566  11.912   1.812  10.242  0.1759  0.2069  0.4905
  505MOL0     C69567  11.947   1.687  10.149  0.2229  0.4386 -0.5327
  505MOL0     C69568  12.098   1.672  10.107 -0.1880 -0.3411 -0.2108
  505MOL0     N69569  12.131   1.537  10.060  0.4783 -0.4768  0.2413
  505MOL0     C69570  12.187   1.440  10.132 -0.2423  0.7874  0.5868
  505MOL0     C69571  12.187   1.335  10.044  0.2482 -0.0706 -0.1905
  505MOL0     C69572  12.209   1.191  10.085  0.2995 -0.2533 -0.4867
  505MOL0     C69573  12.346   1.181  10.144  0.2481 -0.5250 -0.4491
  505MOL0     C69574  12.393   1.029  10.155 -0.0750 -0.9633  0.0896
  505MOL0     C69575  12.542   1.023  10.213  0.5101 -0.5144  0.5564
  505MOL0     O69576  12.635   1.055  10.110  0.2066 -0.4182  0.6645
  505MOL0     C69577  12.767   1.059  10.134 -0.6234 -0.4321 -0.3453
  505MOL0     C69578  12.859   1.057  10.026 -0.0506 -0.4670 -0.3871
  505MOL0     C69579  12.997   1.082  10.035  0.8030  0.3704 -0.1346
  505MOL0     C69580  13.075   1.076   9.905 -0.5298  0.1276  0.8225
  505MOL0     C69581  13.051   1.102  10.160 -0.4503  0.4508  0.1677
  505MOL0     C69582  13.196   1.119  10.177  0.9716 -0.1458  0.5997
  505MOL0     O69583  13.240   1.158  10.297  0.4214  0.1857 -1.0980
  505MOL0     C69584  13.347   1.242  10.296 -1.7942 -0.2981  0.0790
  505MOL0     C69585  13.338   1.379  10.295  0.0373 -0.8882 -0.8048
  505MOL0     C69586  13.455   1.461  10.314  0.0411 -0.4104  0.1394
  505MOL0     C69587  13.579   1.408  10.350  0.4378  0.1425 -0.6345
  505MOL0     O69588  13.695   1.486  10.379 -0.1195 -0.3033 -0.8867
  505MOL0     C69589  13.677   1.628  10.402 -0.6244 -0.0214 -0.2025
  505MOL0     C69590  13.815   1.707  10.412  0.2913  0.7672 -0.1031
  505MOL0     C69591  13.812   1.836  10.501  0.4800 -0.0265 -0.5849
  505MOL0     C69592  13.942   1.915  10.498 -0.2229 -0.0972  0.2121
  505MOL0     C69593  14.072   1.850  10.568  0.5133 -0.1033 -0.3613
  505MOL0     C69594  14.190   1.908  10.513 -0.0656 -0.9714  0.6129
  505MOL0     C69595  14.316   1.843  10.576  0.2343  0.0213  0.3036
  505MOL0     C69596  14.442   1.907  10.520  0.2218  0.8670 -0.1971
  505MOL0    Cl69597  14.570   1.885  10.643  0.3943  0.1151 -0.0502
  505MOL0     C69598  13.590   1.276  10.331 -0.3682  0.0816  0.0959
  505MOL0     C69599  13.474   1.195  10.309 -0.2399 -0.1497  0.0176
  505MOL0     O69600  13.275   1.094  10.083  0.1391 -0.0071  0.1088
  505MOL0     C69601  12.967   1.103  10.270  0.1499  0.2194 -0.2278
  505MOL0     C69602  12.826   1.096  10.257 -1.0551 -0.6226  0.1457
  505MOL0     N69603  12.140   1.368   9.920 -0.1755 -0.6005 -0.4901
  505MOL0     N69604  12.098   1.489   9.938  0.3058  0.2769  0.3069
  505MOL0     C69605  11.298   2.294  10.219 -0.6588  0.1504 -0.3322
  505MOL0     C69606  11.204   2.393  10.204 -0.3830  0.6324 -1.1380
  505MOL0     C69607  10.858   2.659  10.324 -0.1906 -0.0677 -0.6160
  505MOL0     C69608  10.735   2.602  10.326  0.1525  0.3960  0.0274
  505MOL0     C69609  10.616   2.678  10.307  0.0552 -0.9478 -0.5768
  505MOL0     C69610  10.623   2.819  10.290 -0.0212 -0.3479  0.0107
  505MOL0     O69611  10.511   2.894  10.278  0.2875  0.0683 -0.3982
  505MOL0     C69612  10.406   2.869  10.367  0.3451  0.5208 -0.2458
  505MOL0     C69613  10.275   2.918  10.301 -0.2657 -0.7236  0.0523
  505MOL0     C69614  10.227   2.848  10.171 -0.4476 -0.6944 -0.0477
  505MOL0     C69615  10.171   2.704  10.191 -0.2898  0.5248  0.6083
  505MOL0     C69616  10.045   2.716  10.262  0.3747 -0.2948 -0.3213
  505MOL0     C69617   9.947   2.744  10.329 -0.2421  0.7404 -0.0595
  505MOL0     C69618  10.747   2.873  10.283  0.5469 -1.1262 -0.5703
  505MOL0     C69619  10.867   2.802  10.305 -0.4884  0.7144  0.7970
  505MOL0     C69620  11.006   2.862  10.277 -0.4233  0.5793 -0.6442
  505MOL0     H69621  10.975   2.264  10.424  0.1900 -2.0872 -1.2120
  505MOL0     H69622  11.146   2.095  10.444  3.5367 -0.3315 -0.4928
  505MOL0     H69623  11.448   2.034  10.111  0.7571 -1.8856 -0.0123
  505MOL0     H69624  11.294   1.964  10.150  0.6042 -0.8938 -0.0116
  505MOL0     H69625  11.403   1.842  10.325  0.4365 -0.8695 -0.7391
  505MOL0     H69626  11.443   1.799  10.152  1.2509  2.0304 -0.7153
  505MOL0     H69627  11.649   1.922  10.164  4.9027 -3.6913  0.7968
  505MOL0     H69628  11.617   1.982  10.333 -0.7050 -1.6676  0.6229
  505MOL0     H69629  11.607   1.729  10.373  0.1265 -1.4986 -0.2193
  505MOL0     H69630  11.682   1.712  10.209  2.7034  2.6166 -1.5817
  505MOL0     H69631  11.830   1.699  10.418 -0.5627 -0.4733  1.1836
  505MOL0     H69632  11.813   1.873  10.422 -3.0183 -0.3805  0.5842
  505MOL0     H69633  11.873   1.891  10.178  2.7755  2.3966  1.4232
  505MOL0     H69634  11.998   1.867  10.281  0.5815  0.6127 -0.9153
  505MOL0     H69635  11.891   1.695  10.056  0.0120  0.5968 -0.3949
  505MOL0     H69636  11.923   1.594  10.200  4.7755 -1.8728 -2.0650
  505MOL0     H69637  12.113   1.752  10.033 -1.1430  0.7663  0.7615
  505MOL0     H69638  12.161   1.682  10.196  1.5528 -1.0452 -1.3124
  505MOL0     H69639  12.227   1.447  10.233  0.9231 -2.8603  0.5271
  505MOL0     H69640  12.205   1.132   9.993  0.0727  1.6950 -1.8010
  505MOL0     H69641  12.135   1.156  10.158  0.6565 -1.3153 -0.6148
  505MOL0     H69642  12.412   1.244  10.083 -1.0222  0.5941 -0.6916
  505MOL0     H69643  12.343   1.231  10.241  2.1207 -1.3671  0.0950
  505MOL0     H69644  12.327   0.967  10.216 -2.3560  0.8705 -0.3692
  505MOL0     H69645  12.398   0.992  10.052  1.5683  2.3924 -1.1926
  505MOL0     H69646  12.551   1.089  10.300 -1.7235  1.3357 -0.5151
  505MOL0     H69647  12.564   0.924  10.254  2.4329 -0.2531  0.2453
  505MOL0     H69648  12.812   1.046   9.929  1.0134  0.1016 -0.9825
  505MOL0     H69649  13.138   1.164   9.892 -1.2073  0.2373 -2.6585
  505MOL0     H69650  13.006   1.063   9.821  1.0974 -2.4871 -0.2192
  505MOL0     H69651  13.133   0.984   9.893 -0.2643  0.3661  0.2373
  505MOL0     H69652  13.242   1.422  10.267 -1.0291 -2.6411 -0.0633
  505MOL0     H69653  13.449   1.569  10.302  3.2937 -0.3454 -2.3642
  505MOL0     H69654  13.616   1.679  10.326  1.1252  2.4361 -0.0605
  505MOL0     H69655  13.626   1.640  10.498  2.8546  2.0269  1.5695
  505MOL0     H69656  13.890   1.642  10.459  0.9935  1.5849 -0.0802
  505MOL0     H69657  13.851   1.723  10.310  1.6316  0.3713  0.2815
  505MOL0     H69658  13.794   1.816  10.608  0.1316  0.8660 -0.4672
  505MOL0     H69659  13.729   1.898  10.466 -0.7478 -0.6893  1.0021
  505MOL0     H69660  13.926   2.015  10.539  0.1408  0.0224  0.0683
  505MOL0     H69661  13.968   1.931  10.392 -1.0215 -0.0510  0.0217
  505MOL0     H69662  14.071   1.855  10.677  0.0047  2.5617 -0.4212
  505MOL0     H69663  14.070   1.743  10.544  0.1151 -0.5864  1.6530
  505MOL0     H69664  14.196   2.015  10.534 -1.7754 -0.2713 -2.0388
  505MOL0     H69665  14.199   1.898  10.405  1.8430  0.3532  0.5863
  505MOL0     H69666  14.323   1.737  10.553  0.1672  0.5633 -2.5481
  505MOL0     H69667  14.316   1.854  10.685  1.8909  0.2866  0.3002
  505MOL0     H69668  14.423   2.009  10.486  0.5714  0.0813 -3.0775
  505MOL0     H69669  14.467   1.851  10.429 -0.8900 -0.0465  0.0348
  505MOL0     H69670  13.685   1.224  10.327 -0.7688 -0.6199 -0.9366
  505MOL0     H69671  13.487   1.088  10.295 -0.7578 -0.1710 -0.3405
  505MOL0     H69672  12.998   1.112  10.373 -0.0554 -2.0952  0.0899
  505MOL0     H69673  12.774   1.097  10.352 -0.4478  0.4767  0.4902
  505MOL0     H69674  11.390   2.290  10.162 -1.1507 -0.3695 -1.1157
  505MOL0     H69675  11.217   2.470  10.129 -0.6101  0.8699 -0.9352
  505MOL0     H69676  10.715   2.498  10.351  2.9014  0.1238  1.5114
  505MOL0     H69677  10.526   2.619  10.296  0.5588 -2.4746  2.3899
  505MOL0     H69678  10.393   2.762  10.388 -1.1969  0.2847 -2.1386
  505MOL0     H69679  10.432   2.940  10.446 -0.7078 -0.0750  0.6721
  505MOL0     H69680  10.288   3.026  10.290 -1.5015 -0.2280  2.6083
  505MOL0     H69681  10.196   2.918  10.377  0.5598  1.7256  1.0090
  505MOL0     H69682  10.151   2.912  10.127 -1.5091 -0.1953  2.3287
  505MOL0     H69683  10.315   2.843  10.106  0.7204  3.0378  0.9923
  505MOL0     H69684  10.248   2.659  10.254  2.3621  1.2931 -1.8778
  505MOL0     H69685  10.169   2.658  10.092 -0.8632  4.3083 -1.3375
  505MOL0     H69686   9.857   2.740  10.387  1.7662  1.0902  3.3297
  505MOL0     H69687  10.756   2.977  10.254  1.3392 -0.1378  2.8147
  505MOL0     H69688  11.008   2.965  10.241 -0.5649  0.6978 -0.3209
  505MOL0     H69689  11.079   2.851  10.359  0.4093  2.2584 -1.1329
  505MOL0     H69690  11.050   2.794  10.203  0.3086  1.0782 -0.6760
  506MOL0     O69691   4.320   1.022   7.774 -0.0874  0.2660  0.3499
  506MOL0     C69692   4.293   0.912   7.739 -0.6165 -1.0302 -1.2381
  506MOL0     O69693   4.373   0.828   7.664  0.6933 -0.1700 -0.3411
  506MOL0     C69694   4.506   0.822   7.680 -0.1384  0.3907 -0.4466
  506MOL0     C69695   4.580   0.880   7.786 -0.3174 -1.1320 -0.6563
  506MOL0     C69696   4.720   0.877   7.797  0.3062 -0.8179  0.0885
  506MOL0     C69697   4.786   0.810   7.693 -0.0745 -0.2742  0.8592
  506MOL0     O69698   4.921   0.811   7.704 -0.6315  0.2867  0.1758
  506MOL0     C69699   5.001   0.743   7.598  0.4764 -0.3969  0.1510
  506MOL0     C69700   5.150   0.764   7.610  0.3351 -0.9646 -0.5479
  506MOL0     C69701   5.200   0.904   7.566  0.0855 -0.2904  0.9139
  506MOL0     C69702   5.349   0.902   7.566 -0.2050 -0.0351 -0.0418
  506MOL0     C69703   5.401   1.026   7.500 -1.0283 -0.2250 -0.4001
  506MOL0     C69704   5.556   1.036   7.508 -0.5972  0.4090  0.1458
  506MOL0     C69705   5.633   0.909   7.465 -0.3003 -0.2802 -0.5882
  506MOL0     C69706   5.756   0.950   7.386  0.1593  0.2418  0.0007
  506MOL0     N69707   5.847   1.031   7.467 -0.8607  0.0231 -0.1901
  506MOL0     C69708   5.860   1.166   7.461 -1.4802  0.6774  0.0413
  506MOL0     C69709   5.943   1.195   7.565 -0.4064  0.3714 -0.1194
  506MOL0     C69710   5.967   1.335   7.614 -0.1428 -0.4847 -1.0651
  506MOL0     C69711   6.070   1.405   7.517  0.0297 -0.2383 -0.3329
  506MOL0     C69712   6.216   1.362   7.508  0.2934 -0.1346  0.0212
  506MOL0     C69713   6.237   1.232   7.424 -1.2623 -0.1781  0.5122
  506MOL0     O69714   6.375   1.219   7.383  0.4808  0.6898  0.3093
  506MOL0     C69715   6.417   1.105   7.322 -0.3294  0.8446 -0.1279
  506MOL0     C69716   6.353   0.980   7.308 -0.4728 -0.0083 -0.4491
  506MOL0     C69717   6.414   0.868   7.256  0.1782  0.1498 -0.3992
  506MOL0     C69718   6.345   0.737   7.250 -0.0775  0.3456  0.4399
  506MOL0     C69719   6.554   0.875   7.224  0.2741 -0.3511  0.1596
  506MOL0     C69720   6.638   0.765   7.181  0.3496  0.6902  0.2958
  506MOL0     O69721   6.723   0.807   7.079 -0.1936  0.3154 -0.3806
  506MOL0     C69722   6.818   0.719   7.048 -0.2993 -0.2075 -0.2843
  506MOL0     C69723   6.788   0.620   6.953  0.0173 -0.4136 -0.4057
  506MOL0     C69724   6.887   0.524   6.927  0.9179 -0.0866 -0.1942
  506MOL0     C69725   7.010   0.526   6.999  0.5785  0.8143  1.3997
  506MOL0     O69726   7.105   0.439   6.953  0.0489 -0.4582  0.0984
  506MOL0     C69727   7.228   0.407   7.028 -0.1641  0.6184 -0.7133
  506MOL0     C69728   7.337   0.322   6.946 -0.4786 -0.3097 -0.7619
  506MOL0     C69729   7.469   0.299   7.024 -0.0150 -0.2667  0.2555
  506MOL0     C69730   7.593   0.372   6.974  0.7943  0.3010  0.2117
  506MOL0     C69731   7.706   0.336   7.068  0.3844  0.5500 -0.2470
  506MOL0     C69732   7.828   0.432   7.027 -0.2444  0.7122  0.6271
  506MOL0     C69733   7.939   0.447   7.134  0.1889 -0.6589  0.3050
  506MOL0     C69734   8.015   0.577   7.110 -0.2798 -0.4126  0.4221
  506MOL0    Cl69735   7.916   0.722   7.156  0.1281  0.1044  0.6809
  506MOL0     C69736   7.030   0.619   7.100  0.2528 -0.8035  0.2154
  506MOL0     C69737   6.933   0.720   7.124  0.6526  0.4595 -0.2752
  506MOL0     O69738   6.636   0.658   7.234 -0.0472 -0.0110 -0.6125
  506MOL0     C69739   6.617   0.993   7.248 -0.3633  0.0104 -0.1728
  506MOL0     C69740   6.551   1.107   7.300 -0.0662  0.6712 -0.5663
  506MOL0     N69741   5.987   1.080   7.625  0.2850  0.4143 -0.2796
  506MOL0     N69742   5.924   0.975   7.565  0.6255  0.0914  0.3603
  506MOL0     C69743   4.716   0.743   7.589  0.4246  0.1605  0.2415
  506MOL0     C69744   4.572   0.744   7.588 -1.3139 -0.5651  0.5242
  506MOL0     C69745   4.145   0.867   7.741  0.0990  0.6901  0.1251
  506MOL0     C69746   4.095   0.783   7.639  0.4258  0.8352 -0.5180
  506MOL0     C69747   3.960   0.743   7.637 -0.3174 -0.0852  0.7284
  506MOL0     C69748   3.866   0.792   7.726 -0.3705  0.1812 -1.0794
  506MOL0     O69749   3.729   0.766   7.727 -0.3133 -0.2202 -0.6530
  506MOL0     C69750   3.678   0.687   7.622  1.3829 -0.4775 -0.9213
  506MOL0     C69751   3.525   0.709   7.623 -1.0113 -0.4714  0.4679
  506MOL0     C69752   3.450   0.672   7.749 -0.2493 -0.3971  0.0703
  506MOL0     C69753   3.409   0.796   7.832 -0.1218 -0.7550  0.2622
  506MOL0     C69754   3.363   0.762   7.963  0.3422  0.5698  0.0547
  506MOL0     C69755   3.334   0.726   8.074 -0.0376  0.7909  0.8278
  506MOL0     C69756   3.918   0.881   7.826 -0.9740  0.4442 -0.9356
  506MOL0     C69757   4.053   0.914   7.838  0.4294  0.0058 -0.2662
  506MOL0     C69758   4.098   0.998   7.959  1.1190 -0.2045  0.3566
  506MOL0     H69759   4.525   0.932   7.863  1.1832 -3.4328  2.1506
  506MOL0     H69760   4.780   0.910   7.881  1.0259 -0.2981 -0.6164
  506MOL0     H69761   4.981   0.795   7.503  1.6976  0.7943  0.5150
  506MOL0     H69762   4.984   0.635   7.593 -1.6248 -0.1016  0.1317
  506MOL0     H69763   5.189   0.752   7.712  2.2444  2.2635 -0.7683
  506MOL0     H69764   5.186   0.681   7.549 -1.2114 -0.4512 -2.2337
  506MOL0     H69765   5.163   0.923   7.465  0.5547  0.1865  0.8256
  506MOL0     H69766   5.160   0.977   7.637  0.5776 -0.7618  1.6866
  506MOL0     H69767   5.391   0.896   7.667  1.8893 -1.7240 -0.9292
  506MOL0     H69768   5.392   0.815   7.515 -0.4592 -0.0333 -0.2675
  506MOL0     H69769   5.345   1.114   7.530 -1.4318 -1.3081  2.2593
  506MOL0     H69770   5.381   1.025   7.392 -0.7430  0.1930 -0.4576
  506MOL0     H69771   5.578   1.120   7.442 -1.1045 -0.5062 -1.2450
  506MOL0     H69772   5.591   1.071   7.605  2.7284 -0.7340 -0.4862
  506MOL0     H69773   5.576   0.844   7.398  1.5070 -0.1000 -2.4329
  506MOL0     H69774   5.675   0.853   7.549 -1.0373  0.3879  0.2382
  506MOL0     H69775   5.808   0.859   7.355  0.3967  0.7038 -1.0004
  506MOL0     H69776   5.726   0.994   7.291 -1.3026  3.0586  1.6188
  506MOL0     H69777   5.819   1.231   7.384  0.5307 -1.6915 -3.2983
  506MOL0     H69778   6.002   1.334   7.718 -2.8308  0.7054 -0.0560
  506MOL0     H69779   5.876   1.394   7.624  0.3836  0.1780  0.0393
  506MOL0     H69780   6.034   1.406   7.414 -2.5361 -1.8356  0.4595
  506MOL0     H69781   6.064   1.510   7.548 -0.0845  0.8273 -3.5743
  506MOL0     H69782   6.274   1.437   7.454  0.3075 -0.8326 -0.9534
  506MOL0     H69783   6.253   1.341   7.609  1.9560 -2.1026 -0.9305
  506MOL0     H69784   6.215   1.148   7.491 -0.9686  0.3352  1.2625
  506MOL0     H69785   6.186   1.223   7.328  1.2644 -0.2298 -0.9222
  506MOL0     H69786   6.248   0.961   7.329 -0.5979 -2.4771 -2.8085
  506MOL0     H69787   6.347   0.697   7.148 -3.7102  0.1734  0.2870
  506MOL0     H69788   6.240   0.739   7.283 -0.0803 -0.4625  0.5213
  506MOL0     H69789   6.387   0.661   7.317 -2.5972 -0.4601  1.2231
  506MOL0     H69790   6.693   0.621   6.900 -0.9445 -0.1956  1.2548
  506MOL0     H69791   6.868   0.445   6.855  1.3521 -2.4149  2.1138
  506MOL0     H69792   7.284   0.491   7.069  1.4131 -0.7094 -0.0067
  506MOL0     H69793   7.193   0.350   7.115 -0.5815  2.7428  0.5767
  506MOL0     H69794   7.312   0.221   6.912  2.0954 -1.4204  0.4021
  506MOL0     H69795   7.370   0.374   6.856  4.8248 -2.2147 -0.2168
  506MOL0     H69796   7.496   0.193   7.016  0.6983 -0.0731  0.0983
  506MOL0     H69797   7.433   0.332   7.122 -3.2034  2.6003 -1.6743
  506MOL0     H69798   7.569   0.479   6.980  0.7521  0.3793 -1.1200
  506MOL0     H69799   7.622   0.360   6.869  1.3290  1.7633  0.1755
  506MOL0     H69800   7.678   0.352   7.172  0.0738 -0.7720 -0.1127
  506MOL0     H69801   7.727   0.229   7.060 -2.0882 -0.3345  3.1062
  506MOL0     H69802   7.785   0.528   6.996  3.0628  1.6822 -1.4792
  506MOL0     H69803   7.879   0.388   6.941 -0.8763 -2.0390  1.5513
  506MOL0     H69804   8.020   0.376   7.116 -0.2990 -1.8444  2.4940
  506MOL0     H69805   7.889   0.429   7.229 -0.8435 -1.5502 -0.3827
  506MOL0     H69806   8.055   0.573   7.009  1.3321 -4.3618  1.0187
  506MOL0     H69807   8.097   0.578   7.183 -0.9751  2.6706  1.3244
  506MOL0     H69808   7.126   0.618   7.151 -1.8847 -0.6489  4.7369
  506MOL0     H69809   6.965   0.802   7.186  1.7927  0.6709 -1.1032
  506MOL0     H69810   6.724   1.002   7.240 -0.0731  1.3751  3.3895
  506MOL0     H69811   6.600   1.201   7.325 -0.0537  0.2910  0.8779
  506MOL0     H69812   4.767   0.701   7.502  2.5378 -1.1500  2.0067
  506MOL0     H69813   4.521   0.700   7.503  0.6683  1.4509 -1.8386
  506MOL0     H69814   4.164   0.751   7.562 -0.2083  0.5408 -0.9754
  506MOL0     H69815   3.933   0.670   7.562  2.3609  1.1939 -1.7054
  506MOL0     H69816   3.731   0.718   7.532 -0.0326 -0.3195 -1.7364
  506MOL0     H69817   3.693   0.579   7.633  1.1977 -0.2999  1.6756
  506MOL0     H69818   3.492   0.643   7.542 -1.6704 -2.5020  2.2770
  506MOL0     H69819   3.502   0.808   7.583  3.7481  0.0641 -1.6653
  506MOL0     H69820   3.366   0.604   7.736  0.0556 -0.5574 -1.1993
  506MOL0     H69821   3.523   0.613   7.805 -0.1572  1.0155  1.5042
  506MOL0     H69822   3.325   0.852   7.790 -1.2580 -0.0803  3.1826
  506MOL0     H69823   3.493   0.866   7.831 -0.2040 -0.6523  0.3946
  506MOL0     H69824   3.310   0.694   8.173  2.0131 -0.1086  1.0863
  506MOL0     H69825   3.848   0.910   7.904 -0.9239 -1.6572 -0.0380
  506MOL0     H69826   4.170   0.956   8.030 -0.1975  0.7120  2.3254
  506MOL0     H69827   4.144   1.093   7.929 -0.2536  0.5750  0.6357
  506MOL0     H69828   4.012   1.039   8.013  0.6105 -2.4634  1.3693
  507MOL0     O69829   7.153   6.992   2.968  0.3254  0.7421  0.4895
  507MOL0     C69830   7.095   7.088   3.023 -0.2316  0.8108 -0.0983
  507MOL0     O69831   7.137   7.144   3.138  0.0050  0.4275 -0.6400
  507MOL0     C69832   7.259   7.106   3.203  0.1725 -0.1993 -0.1414
  507MOL0     C69833   7.306   7.207   3.282 -1.1799 -1.2874 -0.9288
  507MOL0     C69834   7.422   7.195   3.352 -0.4627 -0.5064  0.2247
  507MOL0     C69835   7.497   7.077   3.360 -0.1490 -0.6708  0.1305
  507MOL0     O69836   7.597   7.070   3.453 -0.0148 -0.2138 -0.1974
  507MOL0     C69837   7.725   7.010   3.414  0.0203 -0.1459  0.5028
  507MOL0     C69838   7.783   7.103   3.307  0.2480  0.0115  0.6490
  507MOL0     C69839   7.928   7.091   3.265  0.0857  0.0249 -0.4305
  507MOL0     C69840   7.952   7.200   3.175  0.2457  0.4842 -0.1925
  507MOL0     C69841   8.099   7.187   3.119 -0.1946  0.0581  0.0614
  507MOL0     C69842   8.203   7.209   3.234  0.3122  0.5669  0.3067
  507MOL0     C69843   8.330   7.266   3.178  0.4551 -0.0500 -0.0203
  507MOL0     C69844   8.438   7.276   3.290  0.8585  0.0481  0.4341
  507MOL0     N69845   8.559   7.320   3.221  0.6190  0.1510  0.5634
  507MOL0     C69846   8.677   7.268   3.261 -0.4479 -0.1618  0.1680
  507MOL0     C69847   8.767   7.317   3.176 -0.8253 -0.3646 -0.0255
  507MOL0     C69848   8.912   7.261   3.174  1.2411 -0.3102 -0.2236
  507MOL0     C69849   9.011   7.359   3.114  0.1772 -1.1953 -0.7425
  507MOL0     C69850   9.062   7.476   3.200  0.0323  0.4790 -1.3563
  507MOL0     C69851   8.951   7.574   3.250 -0.0913  0.0293 -1.2293
  507MOL0     O69852   9.017   7.696   3.276 -0.2752 -0.1417 -0.0114
  507MOL0     C69853   8.934   7.802   3.302  0.4114 -0.7143 -0.4553
  507MOL0     C69854   8.990   7.929   3.326 -0.2264  0.4633  0.1737
  507MOL0     C69855   8.908   8.036   3.366 -0.0721  0.0250 -0.1988
  507MOL0     C69856   8.981   8.168   3.363  0.6846 -0.1276 -0.3761
  507MOL0     C69857   8.768   8.015   3.383 -0.2198 -0.0808  0.1127
  507MOL0     C69858   8.678   8.130   3.402  0.1804 -0.2897  0.3177
  507MOL0     O69859   8.701   8.202   3.512  0.6220 -0.5465  0.5083
  507MOL0     C69860   8.623   8.312   3.550 -0.0748  0.2657 -0.6176
  507MOL0     C69861   8.685   8.396   3.647 -0.5351  0.3500  0.3217
  507MOL0     C69862   8.606   8.487   3.712  0.0428 -0.2798  1.2399
  507MOL0     C69863   8.472   8.512   3.681 -0.0389  0.2976 -0.0692
  507MOL0     O69864   8.401   8.611   3.745 -0.5865  0.4917 -0.1718
  507MOL0     C69865   8.366   8.718   3.664  0.3911 -0.1668 -0.4839
  507MOL0     C69866   8.395   8.852   3.732  0.1925 -0.6868 -1.0373
  507MOL0     C69867   8.323   8.873   3.869 -0.1493  0.3171 -0.4031
  507MOL0     C69868   8.349   9.012   3.933  0.2662 -0.6934 -0.9652
  507MOL0     C69869   8.256   9.042   4.054  0.1258 -0.0234 -0.3973
  507MOL0     C69870   8.302   9.168   4.136  0.1236  0.0921  0.1624
  507MOL0     C69871   8.207   9.187   4.261  0.2818  1.1502 -0.3048
  507MOL0     C69872   8.214   9.080   4.372  0.0004 -0.1011 -0.0373
  507MOL0    Cl69873   8.162   9.156   4.526 -0.2327  0.1431 -0.4459
  507MOL0     C69874   8.414   8.440   3.577 -0.0460 -0.1306 -0.8465
  507MOL0     C69875   8.484   8.334   3.516 -0.1085 -1.0598  0.1678
  507MOL0     O69876   8.585   8.145   3.323  0.7260  0.3995  0.4147
  507MOL0     C69877   8.707   7.895   3.364  0.0569 -0.2518 -0.0905
  507MOL0     C69878   8.789   7.786   3.327 -0.0222  0.1874 -0.3502
  507MOL0     N69879   8.704   7.416   3.102  0.5388  0.0105  0.1810
  507MOL0     N69880   8.578   7.423   3.124  0.8490 -0.5969 -0.3641
  507MOL0     C69881   7.445   6.963   3.292  0.1755 -0.2764  0.9339
  507MOL0     C69882   7.325   6.983   3.210 -0.1416  0.4219  0.6073
  507MOL0     C69883   6.974   7.146   2.949 -1.0723  0.1042 -0.5365
  507MOL0     C69884   6.949   7.096   2.819 -0.3107 -0.4227 -0.1077
  507MOL0     C69885   6.849   7.143   2.740 -0.0548  0.2597 -0.2079
  507MOL0     C69886   6.771   7.253   2.779 -1.1716 -0.0357  0.5888
  507MOL0     O69887   6.685   7.316   2.691  0.1550 -0.1567  0.5220
  507MOL0     C69888   6.616   7.236   2.593 -0.7538  0.1780  0.1926
  507MOL0     C69889   6.504   7.327   2.532  0.0870  0.3258 -0.7542
  507MOL0     C69890   6.395   7.368   2.642  0.0032  0.3067  0.2238
  507MOL0     C69891   6.446   7.495   2.718 -0.1518 -1.0197  0.6967
  507MOL0     C69892   6.461   7.447   2.852 -1.2157  0.1551  0.0892
  507MOL0     C69893   6.451   7.398   2.959  0.1653 -0.3734 -0.4571
  507MOL0     C69894   6.800   7.309   2.903 -0.0446 -0.2736  0.1605
  507MOL0     C69895   6.906   7.264   2.986  1.0583 -0.5770 -0.3501
  507MOL0     C69896   6.930   7.353   3.106  0.0239 -0.0864  0.5673
  507MOL0     H69897   7.258   7.304   3.293 -3.8901 -2.1654 -3.7229
  507MOL0     H69898   7.462   7.277   3.411  2.2495 -0.2729 -1.7621
  507MOL0     H69899   7.710   6.907   3.381 -1.9948  0.9329 -2.3941
  507MOL0     H69900   7.799   7.014   3.494 -1.0093 -1.8816  1.6096
  507MOL0     H69901   7.719   7.100   3.218  1.0898 -2.2077  0.0380
  507MOL0     H69902   7.762   7.203   3.346 -1.3551 -0.4908  1.1583
  507MOL0     H69903   7.989   7.095   3.355 -1.2899 -0.0203  0.5371
  507MOL0     H69904   7.939   6.994   3.216 -2.7576 -0.8442  0.4208
  507MOL0     H69905   7.877   7.185   3.096 -0.3222  1.0104  0.2347
  507MOL0     H69906   7.937   7.293   3.230  2.9853  1.1194 -0.4037
  507MOL0     H69907   8.131   7.262   3.046  0.6486  0.2246  0.5828
  507MOL0     H69908   8.114   7.091   3.069 -3.5954 -0.0534 -1.0208
  507MOL0     H69909   8.167   7.285   3.304  1.2569  1.6353 -0.3321
  507MOL0     H69910   8.214   7.115   3.289 -2.0175 -0.1767 -0.3992
  507MOL0     H69911   8.315   7.369   3.144  0.7239  0.1748  0.5269
  507MOL0     H69912   8.368   7.209   3.093  2.2163  1.7169 -0.5042
  507MOL0     H69913   8.407   7.351   3.363 -2.8384 -1.1724  0.3221
  507MOL0     H69914   8.436   7.186   3.352  0.0699 -0.9397 -0.9779
  507MOL0     H69915   8.688   7.193   3.339 -0.2309 -0.3596 -0.0540
  507MOL0     H69916   8.900   7.164   3.125 -0.6197 -0.6463  0.8244
  507MOL0     H69917   8.955   7.245   3.273  3.9021 -0.3623 -1.3124
  507MOL0     H69918   9.098   7.301   3.082  0.7105 -0.4598 -0.6552
  507MOL0     H69919   8.962   7.397   3.024 -2.2204 -1.4412  0.3879
  507MOL0     H69920   9.105   7.436   3.293 -2.1746 -0.9257 -0.8738
  507MOL0     H69921   9.141   7.534   3.152 -0.9957  1.5231 -1.8132
  507MOL0     H69922   8.872   7.583   3.175 -1.2151 -1.3406 -0.2689
  507MOL0     H69923   8.907   7.533   3.341 -0.2045 -1.5380 -1.9705
  507MOL0     H69924   9.094   7.950   3.305  0.4617 -1.4607  1.3615
  507MOL0     H69925   9.033   8.183   3.268  0.3536 -0.0965 -0.5527
  507MOL0     H69926   9.057   8.165   3.442  1.1668 -0.4788 -0.8433
  507MOL0     H69927   8.923   8.260   3.371  1.0751  0.2438 -1.5764
  507MOL0     H69928   8.782   8.379   3.693 -0.7862 -2.5393 -0.0198
  507MOL0     H69929   8.656   8.548   3.788 -2.0166  1.4660  1.2779
  507MOL0     H69930   8.418   8.730   3.568  3.2064 -1.9794  0.6720
  507MOL0     H69931   8.259   8.712   3.644  0.7186 -0.4422 -2.3613
  507MOL0     H69932   8.501   8.873   3.753 -0.6143  2.0398  0.8850
  507MOL0     H69933   8.359   8.931   3.665  0.6220  0.4500  0.0364
  507MOL0     H69934   8.363   8.801   3.941 -1.9317  0.6228  0.9572
  507MOL0     H69935   8.217   8.856   3.850  0.0108 -1.1998 -0.0605
  507MOL0     H69936   8.337   9.091   3.858 -1.2720  1.3169  1.2564
  507MOL0     H69937   8.449   9.016   3.975  0.0857 -1.9403 -0.3614
  507MOL0     H69938   8.154   9.057   4.018  0.9628  1.1584 -2.4535
  507MOL0     H69939   8.262   8.952   4.115  0.6369 -0.8901 -1.6747
  507MOL0     H69940   8.306   9.256   4.072  0.9696  0.4240  0.6534
  507MOL0     H69941   8.406   9.165   4.170  0.7850  4.1278 -1.0383
  507MOL0     H69942   8.102   9.202   4.235  0.2774  5.1024  1.2462
  507MOL0     H69943   8.237   9.283   4.305 -0.8537  2.3922 -2.1083
  507MOL0     H69944   8.321   9.059   4.379 -0.2187 -2.0427 -1.7496
  507MOL0     H69945   8.175   8.982   4.343 -1.0659 -0.9738  3.7869
  507MOL0     H69946   8.307   8.438   3.560  0.1040 -1.1745 -1.7944
  507MOL0     H69947   8.435   8.258   3.456  1.5638 -0.6706 -1.8585
  507MOL0     H69948   8.600   7.878   3.370  0.0859 -0.0829  0.9842
  507MOL0     H69949   8.737   7.691   3.331 -1.2921  0.7790 -1.9682
  507MOL0     H69950   7.495   6.867   3.305  1.0906  0.0498  0.0083
  507MOL0     H69951   7.272   6.905   3.157 -3.8535  3.0339  0.0993
  507MOL0     H69952   7.009   7.019   2.770  1.3041 -0.0706  1.2466
  507MOL0     H69953   6.845   7.094   2.644  0.4174  0.5904 -0.4009
  507MOL0     H69954   6.686   7.209   2.514  2.2577  1.3361  2.2850
  507MOL0     H69955   6.577   7.150   2.647 -0.4638  0.2406  0.5003
  507MOL0     H69956   6.460   7.268   2.451  0.5863 -0.4260 -0.4909
  507MOL0     H69957   6.560   7.414   2.496  0.5996 -0.4535 -1.9088
  507MOL0     H69958   6.305   7.389   2.583  1.8679  0.0808 -2.9615
  507MOL0     H69959   6.376   7.287   2.713 -0.1548  1.3283  1.3863
  507MOL0     H69960   6.363   7.566   2.710 -0.0286 -0.9086  0.3623
  507MOL0     H69961   6.531   7.546   2.670  0.3326 -1.9458  0.5626
  507MOL0     H69962   6.449   7.345   3.052 -0.6870 -0.1959 -0.3611
  507MOL0     H69963   6.733   7.387   2.937 -1.0799 -0.1203 -2.0913
  507MOL0     H69964   7.000   7.429   3.070  0.1574 -0.6024 -0.2826
  507MOL0     H69965   6.841   7.406   3.142  0.7962  0.8031  1.2102
  507MOL0     H69966   6.969   7.305   3.196 -0.5315  1.5127  1.7207
  508MOL0     O69967   8.844   9.832   0.265  0.3464  0.0525  0.3083
  508MOL0     C69968   8.782   9.729   0.239  0.3620 -0.0467 -0.4779
  508MOL0     O69969   8.847   9.611   0.220  0.2220 -0.3059 -0.2646
  508MOL0     C69970   8.985   9.596   0.229 -0.2031 -0.0395  0.0799
  508MOL0     C69971   9.074   9.666   0.159 -0.1468  0.4558 -0.4366
  508MOL0     C69972   9.204   9.634   0.159 -0.5014 -0.4019 -0.7249
  508MOL0     C69973   9.252   9.541   0.250  0.3021  0.3114  0.6728
  508MOL0     O69974   9.376   9.500   0.257 -0.4163  0.1480  0.4760
  508MOL0     C69975   9.463   9.529   0.143  0.8475 -0.0417  0.2341
  508MOL0     C69976   9.597   9.477   0.178 -0.3786  0.7714 -0.2336
  508MOL0     C69977   9.684   9.465   0.046  0.0601 -0.2430 -0.1474
  508MOL0     C69978   9.833   9.458   0.088  0.3745  0.2234 -0.2157
  508MOL0     C69979   9.929   9.488  -0.033 -0.2934  0.0306  0.8027
  508MOL0     C69980  10.065   9.461   0.013  0.4876 -0.3052  0.1878
  508MOL0     C69981  10.151   9.496  -0.108  0.1520 -0.0358  0.3482
  508MOL0     C69982  10.302   9.465  -0.070 -0.0239 -0.3163  0.8806
  508MOL0     N69983  10.403   9.517  -0.171  0.7065 -0.2878 -0.6532
  508MOL0     C69984  10.436   9.648  -0.193 -0.2237  0.4638 -0.6482
  508MOL0     C69985  10.517   9.640  -0.296 -1.3141 -0.6659  0.2429
  508MOL0     C69986  10.585   9.755  -0.351 -0.4065 -0.9071 -0.3921
  508MOL0     C69987  10.696   9.812  -0.260  0.6312 -0.2127  0.1216
  508MOL0     C69988  10.823   9.722  -0.266  0.4503  0.6330 -0.0952
  508MOL0     C69989  10.930   9.749  -0.167 -0.6657 -0.3214 -0.6371
  508MOL0     O69990  10.942   9.642  -0.082  0.3442 -0.2099  0.4701
  508MOL0     C69991  11.027   9.660   0.028  0.5562 -0.2617 -0.1807
  508MOL0     C69992  11.141   9.732   0.036 -0.7605  0.4701  0.1604
  508MOL0     C69993  11.236   9.721   0.145  0.2806 -0.0780  0.9335
  508MOL0     C69994  11.368   9.799   0.145  1.5144  0.6046  0.8987
  508MOL0     C69995  11.205   9.642   0.264 -0.0973 -0.1942  0.4288
  508MOL0     C69996  11.282   9.633   0.384 -0.1629  0.0836 -0.3755
  508MOL0     O69997  11.311   9.512   0.438 -0.6310 -0.0993  0.7967
  508MOL0     C69998  11.380   9.507   0.558  0.5860 -0.3503  0.5416
  508MOL0     C69999  11.318   9.462   0.671  0.1512  0.0826 -0.6541
  508MOL0     C70000  11.371   9.469   0.797  0.1861  1.0346 -0.1846
  508MOL0     C70001  11.496   9.521   0.811 -0.0036  0.7808 -0.1510
  508MOL0     O70002  11.551   9.527   0.939  0.4995  0.3796  0.1925
  508MOL0     C70003  11.681   9.562   0.972  0.0222 -0.1126  0.7639
  508MOL0     C70004  11.699   9.715   0.973  0.1275  0.0266 -0.1104
  508MOL0     C70005  11.828   9.771   1.038 -0.1046  0.3522  0.5060
  508MOL0     C70006  11.814   9.748   1.188  0.8612 -0.1298 -0.5020
  508MOL0     C70007  11.921   9.807   1.270 -0.5255  0.5996 -0.3650
  508MOL0     C70008  11.877   9.826   1.413  0.3600  0.9407 -0.2973
  508MOL0     C70009  11.988   9.881   1.504 -0.2686  0.3146  0.9778
  508MOL0     C70010  11.937   9.927   1.645 -0.5639  0.5643 -0.7404
  508MOL0    Cl70011  12.080   9.971   1.738 -0.0531 -0.1174 -0.1408
  508MOL0     C70012  11.567   9.559   0.691  0.5858 -1.0597 -0.8866
  508MOL0     C70013  11.510   9.552   0.568 -0.2933 -0.3131 -0.4639
  508MOL0     O70014  11.321   9.737   0.428 -0.0659  1.0087  0.0029
  508MOL0     C70015  11.084   9.574   0.258 -0.0499 -0.5799  0.1587
  508MOL0     C70016  10.997   9.585   0.145  0.9405  0.3449  0.3779
  508MOL0     N70017  10.538   9.505  -0.325  0.2927 -0.8824 -0.2579
  508MOL0     N70018  10.455   9.438  -0.261 -0.3827 -0.3673  0.8738
  508MOL0     C70019   9.165   9.487   0.341  0.4898  0.8637  0.7864
  508MOL0     C70020   9.029   9.493   0.312 -0.2428 -0.7825 -0.4277
  508MOL0     C70021   8.639   9.732   0.235 -0.3926 -0.1439 -0.7951
  508MOL0     C70022   8.575   9.609   0.227 -1.1117 -0.1575  0.4354
  508MOL0     C70023   8.442   9.595   0.204 -0.2749 -0.0928 -0.2127
  508MOL0     C70024   8.366   9.716   0.185  0.2710  0.4497 -0.4672
  508MOL0     O70025   8.234   9.684   0.150 -0.5127  0.1838 -0.5352
  508MOL0     C70026   8.137   9.789   0.142  0.2827 -0.9469  0.9333
  508MOL0     C70027   8.001   9.724   0.129  0.6950 -0.9003  0.1780
  508MOL0     C70028   7.899   9.809   0.046 -0.3039 -0.1081  0.2882
  508MOL0     C70029   7.759   9.771   0.054  0.4741 -0.2242 -0.1488
  508MOL0     C70030   7.699   9.800   0.187 -0.3846  0.1684 -0.8181
  508MOL0     C70031   7.644   9.836   0.290  0.5360  0.5045  0.1692
  508MOL0     C70032   8.424   9.838   0.209  0.7691  0.4907 -0.0352
  508MOL0     C70033   8.561   9.847   0.227  0.0013  0.2625 -0.7028
  508MOL0     C70034   8.617   9.985   0.210 -0.0025  0.1431 -0.3237
  508MOL0     H70035   9.036   9.749   0.100 -2.2533  0.9505  1.4888
  508MOL0     H70036   9.270   9.685   0.090  2.4535 -3.1346 -0.1688
  508MOL0     H70037   9.466   9.638   0.137 -0.8044  0.2621  2.9849
  508MOL0     H70038   9.434   9.486   0.047  0.5663  0.5218  0.0608
  508MOL0     H70039   9.649   9.538   0.252  0.5762  2.1878 -1.9949
  508MOL0     H70040   9.590   9.377   0.222 -0.1719  0.6421 -0.4874
  508MOL0     H70041   9.652   9.370  -0.000 -2.3336  0.8464 -0.9097
  508MOL0     H70042   9.663   9.551  -0.018 -1.2505  0.0964  0.7055
  508MOL0     H70043   9.853   9.543   0.155  2.5469  0.5198 -1.1508
  508MOL0     H70044   9.851   9.358   0.127  0.6558  0.6247  0.7164
  508MOL0     H70045   9.917   9.590  -0.071  0.4764 -0.2190 -0.1719
  508MOL0     H70046   9.900   9.425  -0.118  1.5089  0.2789 -0.0414
  508MOL0     H70047  10.089   9.524   0.100 -2.6007 -0.1328  1.0119
  508MOL0     H70048  10.078   9.354   0.030  1.6919  0.1107  2.2972
  508MOL0     H70049  10.135   9.604  -0.115  0.2995  0.2199  2.9480
  508MOL0     H70050  10.132   9.444  -0.202 -0.0142  1.0646 -0.2390
  508MOL0     H70051  10.323   9.508   0.029  0.4742 -2.5535  1.8100
  508MOL0     H70052  10.327   9.359  -0.060  0.9708 -0.1152  0.6624
  508MOL0     H70053  10.394   9.734  -0.142  2.1252  0.1954  1.9881
  508MOL0     H70054  10.502   9.826  -0.350  0.7725  0.5118  0.6283
  508MOL0     H70055  10.618   9.737  -0.454 -0.0438 -1.5105 -0.1776
  508MOL0     H70056  10.730   9.913  -0.286  0.4104 -0.2107 -0.1607
  508MOL0     H70057  10.656   9.818  -0.159  0.2712 -1.3610  0.0603
  508MOL0     H70058  10.778   9.628  -0.234  0.9283 -0.2405 -1.8885
  508MOL0     H70059  10.863   9.694  -0.364 -2.0075 -2.1843 -0.4294
  508MOL0     H70060  11.029   9.768  -0.209 -0.0650 -2.4832 -0.3076
  508MOL0     H70061  10.904   9.842  -0.115 -2.0114 -0.0319 -1.7899
  508MOL0     H70062  11.169   9.802  -0.042  1.2721  0.8535  1.1397
  508MOL0     H70063  11.380   9.851   0.050 -1.3591 -2.3554 -1.3226
  508MOL0     H70064  11.450   9.730   0.164  2.0314  0.5685 -1.2551
  508MOL0     H70065  11.358   9.882   0.217  0.2763 -1.6005  3.4529
  508MOL0     H70066  11.222   9.411   0.661  0.1003 -0.0965  0.5572
  508MOL0     H70067  11.321   9.436   0.888 -0.0891 -0.2771 -0.7860
  508MOL0     H70068  11.704   9.507   1.063  0.1436  1.9802  2.0790
  508MOL0     H70069  11.746   9.528   0.891 -1.0676  1.6499 -0.9632
  508MOL0     H70070  11.702   9.758   0.872 -1.7820 -0.8890 -0.6046
  508MOL0     H70071  11.607   9.739   1.028 -0.2241 -0.4966 -0.4656
  508MOL0     H70072  11.833   9.877   1.010  3.0236  0.0303 -0.4926
  508MOL0     H70073  11.914   9.729   0.985 -1.3469  0.1305 -1.4310
  508MOL0     H70074  11.811   9.648   1.232 -1.7637  0.4563  0.9076
  508MOL0     H70075  11.719   9.796   1.213  0.2420 -0.4784 -2.0816
  508MOL0     H70076  11.999   9.730   1.268 -1.5574 -0.6603  2.4819
  508MOL0     H70077  11.956   9.908   1.249  0.6709  0.3795  0.5119
  508MOL0     H70078  11.833   9.738   1.460 -2.5864  1.0044 -2.6457
  508MOL0     H70079  11.800   9.903   1.424 -2.0618 -1.6010  2.4596
  508MOL0     H70080  12.036   9.965   1.453  1.6755 -0.3015  1.6839
  508MOL0     H70081  12.075   9.817   1.520 -0.9489 -0.4376  1.7573
  508MOL0     H70082  11.886   9.841   1.689 -0.4272 -0.7910 -3.0622
  508MOL0     H70083  11.866  10.010   1.634  0.5207  1.2909 -2.8878
  508MOL0     H70084  11.666   9.603   0.698 -0.7165  2.0653 -0.5683
  508MOL0     H70085  11.558   9.584   0.476  3.7428 -0.3528  1.4605
  508MOL0     H70086  11.038   9.511   0.333  0.2731 -1.6513 -0.5185
  508MOL0     H70087  10.904   9.529   0.151 -0.3681  1.5759 -4.2379
  508MOL0     H70088   9.203   9.428   0.424  3.5769 -0.5983 -1.4564
  508MOL0     H70089   8.955   9.438   0.370 -2.5496  0.8915 -1.6588
  508MOL0     H70090   8.638   9.522   0.244 -0.0969  1.0099  3.2656
  508MOL0     H70091   8.402   9.495   0.215  0.1575 -0.7316 -3.5515
  508MOL0     H70092   8.144   9.861   0.223 -1.1269 -0.5981  0.7711
  508MOL0     H70093   8.162   9.839   0.048  0.8227 -2.8142  0.0322
  508MOL0     H70094   7.955   9.707   0.227  2.0870  1.2854  1.2862
  508MOL0     H70095   8.013   9.627   0.079  0.1339 -1.0350  0.3001
  508MOL0     H70096   7.900   9.912   0.083  1.1161  0.5971 -1.5241
  508MOL0     H70097   7.942   9.814  -0.055 -0.5910  0.4894  0.1947
  508MOL0     H70098   7.745   9.666   0.029 -1.3891 -0.0374 -0.0411
  508MOL0     H70099   7.699   9.821  -0.022  0.0363 -3.1201 -1.8569
  508MOL0     H70100   7.588   9.872   0.373 -0.4389 -2.3989  0.8790
  508MOL0     H70101   8.355   9.922   0.210 -0.6044 -0.6042  1.5231
  508MOL0     H70102   8.668  10.008   0.305  0.4704 -1.9548 -0.0306
  508MOL0     H70103   8.697   9.993   0.136 -0.4779  0.9945 -0.7642
  508MOL0     H70104   8.536  10.059   0.206  0.1549  0.4061  0.8451
  509MOL0     O70105   9.600   9.119   8.172 -0.3209 -0.2366  0.2989
  509MOL0     C70106   9.574   9.010   8.220 -0.3615 -0.2335 -0.5467
  509MOL0     O70107   9.615   8.961   8.344 -0.8498 -0.6141 -0.0447
  509MOL0     C70108   9.680   9.055   8.422  0.6966  0.4059  0.0471
  509MOL0     C70109   9.636   9.063   8.555 -0.2384  0.0845  1.5209
  509MOL0     C70110   9.707   9.141   8.649 -0.4557 -0.5416 -0.0918
  509MOL0     C70111   9.815   9.224   8.598  0.7468  0.4265  0.3982
  509MOL0     O70112   9.887   9.317   8.673  0.2759  0.5663 -0.5706
  509MOL0     C70113   9.814   9.374   8.788 -0.0839 -0.5590 -0.8612
  509MOL0     C70114   9.846   9.523   8.803  0.0339  0.4523 -0.5438
  509MOL0     C70115   9.977   9.541   8.888 -0.3219  1.1082 -0.0253
  509MOL0     C70116  10.020   9.690   8.898  0.0840  0.2254 -0.0050
  509MOL0     C70117  10.171   9.704   8.902 -0.0639 -0.9740  0.6380
  509MOL0     C70118  10.228   9.844   8.886  0.2407 -0.1879  0.4000
  509MOL0     C70119  10.384   9.846   8.890 -0.3227 -0.1551 -0.2087
  509MOL0     C70120  10.419   9.805   9.039  0.1376 -0.5351  0.2429
  509MOL0     N70121  10.559   9.835   9.071 -0.4286  0.1010  0.4125
  509MOL0     C70122  10.604   9.970   9.091  0.0840 -0.3848 -0.3420
  509MOL0     C70123  10.739   9.954   9.114 -0.5003 -0.5411  0.6086
  509MOL0     C70124  10.835  10.068   9.122 -0.1803  0.4669 -0.3551
  509MOL0     C70125  10.967  10.049   9.052  0.9879  0.2459  0.1981
  509MOL0     C70126  11.078  10.139   9.104  0.9569 -0.1954 -0.0327
  509MOL0     C70127  11.209  10.089   9.038  0.4227 -1.1010 -0.2394
  509MOL0     O70128  11.318  10.167   9.086 -0.3039 -0.3745 -0.1103
  509MOL0     C70129  11.442  10.152   9.030 -1.2536 -1.4860 -1.0462
  509MOL0     C70130  11.493  10.056   8.943  0.1155 -0.3685 -0.2527
  509MOL0     C70131  11.628  10.059   8.900  1.0133 -0.9114 -0.5027
  509MOL0     C70132  11.668   9.958   8.802  0.3425 -0.0573  0.5157
  509MOL0     C70133  11.720  10.162   8.952  0.7322  0.9957  0.4900
  509MOL0     C70134  11.864  10.175   8.914  0.3731 -0.3197  0.5178
  509MOL0     O70135  11.920  10.293   8.934  0.2109 -0.4601 -0.2463
  509MOL0     C70136  12.031  10.316   8.868 -0.9322 -0.1195 -0.1291
  509MOL0     C70137  12.026  10.375   8.739 -0.1537  0.1422 -1.0833
  509MOL0     C70138  12.127  10.373   8.645  0.1553  0.0744 -0.6713
  509MOL0     C70139  12.256  10.332   8.680  1.4998  0.2244  0.1838
  509MOL0     O70140  12.358  10.350   8.591 -0.0213  0.0654  0.2350
  509MOL0     C70141  12.479  10.371   8.654 -0.3330  0.8332 -0.2681
  509MOL0     C70142  12.491  10.495   8.737 -0.2527 -1.1213 -0.5474
  509MOL0     C70143  12.614  10.502   8.821  0.2381  1.1191  0.3291
  509MOL0     C70144  12.748  10.505   8.742  0.0255  0.4183 -0.1775
  509MOL0     C70145  12.878  10.530   8.831 -0.0701 -0.2127  0.2440
  509MOL0     C70146  13.009  10.485   8.753  0.4343  0.0677 -1.3135
  509MOL0     C70147  13.036  10.568   8.624 -0.3115 -0.2093  0.7865
  509MOL0     C70148  13.154  10.503   8.553  0.5493  0.2338  0.3224
  509MOL0    Cl70149  13.117  10.358   8.456 -0.3382  0.1918  0.0058
  509MOL0     C70150  12.263  10.262   8.808 -0.1014  0.1334 -0.3532
  509MOL0     C70151  12.157  10.268   8.903 -0.5378 -0.1803 -0.0776
  509MOL0     O70152  11.926  10.077   8.873 -0.3694 -0.5535  0.1079
  509MOL0     C70153  11.658  10.253   9.036 -0.1015  0.5911 -0.3595
  509MOL0     C70154  11.530  10.252   9.078  0.0541  0.4488 -0.2088
  509MOL0     N70155  10.764   9.824   9.119  0.2381 -0.4149 -0.1579
  509MOL0     N70156  10.667   9.753   9.087 -0.3678 -0.0833  0.0910
  509MOL0     C70157   9.851   9.211   8.470 -0.0974 -0.4488 -0.4591
  509MOL0     C70158   9.786   9.128   8.386 -0.5039  1.0997  0.1652
  509MOL0     C70159   9.496   8.904   8.152 -0.3777  0.4120  0.6474
  509MOL0     C70160   9.542   8.772   8.173  0.0200  0.4290  0.7067
  509MOL0     C70161   9.476   8.665   8.112  0.0506  0.2346  1.2104
  509MOL0     C70162   9.377   8.686   8.020 -0.1300  0.0353 -0.4261
  509MOL0     O70163   9.319   8.572   7.972 -0.1992 -0.8847 -0.0727
  509MOL0     C70164   9.188   8.585   7.932 -0.4179  0.0421 -0.0237
  509MOL0     C70165   9.132   8.449   7.901 -0.2040 -0.1905  0.0385
  509MOL0     C70166   8.983   8.482   7.874  0.1250  0.0535 -0.0275
  509MOL0     C70167   8.899   8.355   7.899  0.6167  0.4758 -0.0411
  509MOL0     C70168   8.752   8.378   7.903  0.4172 -0.6290  0.2736
  509MOL0     C70169   8.629   8.389   7.911 -0.5503  0.6709  0.0682
  509MOL0     C70170   9.334   8.817   7.989  0.8170  0.0159  0.2783
  509MOL0     C70171   9.390   8.923   8.058  0.6438 -0.0592 -0.1977
  509MOL0     C70172   9.345   9.060   8.031 -0.1809 -0.5623  1.0734
  509MOL0     H70173   9.552   8.998   8.574 -1.4453  0.1593 -2.6562
  509MOL0     H70174   9.680   9.137   8.754  0.3000 -1.6319  0.0713
  509MOL0     H70175   9.827   9.331   8.888  0.1047 -0.5530 -0.8813
  509MOL0     H70176   9.707   9.373   8.766 -0.6868  0.0921  1.7045
  509MOL0     H70177   9.854   9.562   8.701 -5.3180  0.3009 -1.3022
  509MOL0     H70178   9.770   9.577   8.861  1.1550  1.3416  0.1676
  509MOL0     H70179   9.961   9.516   8.994  0.2415 -0.8836 -0.3701
  509MOL0     H70180  10.061   9.486   8.844  0.3033  0.4783  1.8179
  509MOL0     H70181   9.971   9.731   8.809 -0.7097  0.9752  0.7502
  509MOL0     H70182   9.976   9.740   8.986 -0.7888  2.3302 -1.5544
  509MOL0     H70183  10.203   9.649   8.812  0.8527  0.2384  0.1898
  509MOL0     H70184  10.203   9.654   8.993  1.4621  0.6533  1.0655
  509MOL0     H70185  10.191   9.877   8.789  1.1322  0.7691  0.3761
  509MOL0     H70186  10.186   9.911   8.962 -0.7928 -0.7822  0.3829
  509MOL0     H70187  10.421   9.945   8.860 -2.1293  0.6062 -0.0266
  509MOL0     H70188  10.429   9.775   8.820 -1.1273  1.3415 -2.3533
  509MOL0     H70189  10.362   9.847   9.122  1.5359 -1.0312  1.4963
  509MOL0     H70190  10.400   9.697   9.044 -1.9248 -0.1806  1.1179
  509MOL0     H70191  10.552  10.064   9.077 -1.0227 -1.0027 -0.5395
  509MOL0     H70192  10.852  10.082   9.229 -1.6310 -0.4446  0.0334
  509MOL0     H70193  10.788  10.158   9.081 -4.1273 -0.6894  1.1759
  509MOL0     H70194  10.999   9.946   9.071  0.1638  0.0694  0.6911
  509MOL0     H70195  10.955  10.053   8.944  1.6247 -1.1522  0.0536
  509MOL0     H70196  11.064  10.245   9.081  0.0006  0.0372  1.4676
  509MOL0     H70197  11.094  10.136   9.212  2.5061  2.9709 -0.0664
  509MOL0     H70198  11.231   9.985   9.067  0.2851 -0.2322  3.6025
  509MOL0     H70199  11.209  10.096   8.929  1.4157 -0.0254 -0.1982
  509MOL0     H70200  11.420   9.994   8.892 -2.2590  1.0260  1.2284
  509MOL0     H70201  11.755   9.902   8.839 -0.0141 -0.1900  1.1743
  509MOL0     H70202  11.704   9.999   8.707 -0.6812 -0.7831 -0.2062
  509MOL0     H70203  11.585   9.889   8.784 -1.4667  1.7507  1.4941
  509MOL0     H70204  11.922  10.391   8.710 -1.1372 -1.7083  1.1195
  509MOL0     H70205  12.111  10.413   8.546  3.1065 -3.1278 -2.6708
  509MOL0     H70206  12.511  10.280   8.706 -0.0048  2.4158  2.4749
  509MOL0     H70207  12.539  10.383   8.563 -1.6384 -1.4289 -1.5159
  509MOL0     H70208  12.484  10.581   8.670 -2.0940 -1.8550 -1.3792
  509MOL0     H70209  12.405  10.487   8.804  0.3632  1.1313  0.5968
  509MOL0     H70210  12.608  10.420   8.893 -0.1403  2.3363  1.7158
  509MOL0     H70211  12.607  10.586   8.890 -1.9764  2.4400 -1.3633
  509MOL0     H70212  12.753  10.578   8.661  1.9106 -0.6943 -1.1351
  509MOL0     H70213  12.751  10.403   8.702 -0.4771  0.4509 -0.3089
  509MOL0     H70214  12.880  10.637   8.856 -0.5129 -0.6937  2.5792
  509MOL0     H70215  12.885  10.483   8.929  1.8692  1.1063  0.7742
  509MOL0     H70216  13.001  10.382   8.718 -1.6272 -1.2276  2.4681
  509MOL0     H70217  13.091  10.500   8.823  0.0639  1.8567 -1.1995
  509MOL0     H70218  13.061  10.671   8.651 -1.7134  0.3010  0.2361
  509MOL0     H70219  12.943  10.588   8.571  0.8334  1.8684 -0.6055
  509MOL0     H70220  13.240  10.478   8.616  1.3438 -0.2671 -0.9171
  509MOL0     H70221  13.197  10.580   8.488  0.6525 -1.1097 -1.2741
  509MOL0     H70222  12.351  10.215   8.851  1.7085 -0.4994 -4.3348
  509MOL0     H70223  12.167  10.210   8.994  2.3328  0.1293 -0.0985
  509MOL0     H70224  11.721  10.332   9.076 -0.6272  0.1931  1.3433
  509MOL0     H70225  11.478  10.327   9.136 -0.9640  0.2617 -0.8596
  509MOL0     H70226   9.934   9.271   8.435 -1.7231  3.0955  1.2895
  509MOL0     H70227   9.829   9.123   8.287 -1.6262  2.1412 -0.4089
  509MOL0     H70228   9.636   8.744   8.221  0.4786 -1.6648 -1.2378
  509MOL0     H70229   9.524   8.568   8.115  0.1203  0.2572  4.5183
  509MOL0     H70230   9.127   8.633   8.010 -0.4919  1.7486 -1.0775
  509MOL0     H70231   9.187   8.647   7.842 -0.7133  3.9744  2.4036
  509MOL0     H70232   9.154   8.386   7.988  0.9280  1.8171  1.2825
  509MOL0     H70233   9.193   8.413   7.817  2.9948 -1.0996  2.5122
  509MOL0     H70234   8.942   8.556   7.942  0.3769 -0.2093  0.4153
  509MOL0     H70235   8.972   8.512   7.769 -1.3143 -1.1505 -0.2653
  509MOL0     H70236   8.932   8.303   7.990 -1.9670  1.0793  1.3752
  509MOL0     H70237   8.915   8.282   7.819 -0.4907 -0.8866  0.9300
  509MOL0     H70238   8.524   8.394   7.932 -0.4501  0.5989  0.5828
  509MOL0     H70239   9.250   8.846   7.927 -0.0264 -1.1484  0.8439
  509MOL0     H70240   9.315   9.113   8.122 -1.4029  4.0774 -1.6893
  509MOL0     H70241   9.419   9.121   7.978  0.2211  0.5695  2.8296
  509MOL0     H70242   9.256   9.057   7.969  0.7538 -0.4828 -0.3178
  510MOL0     O70243  10.970   6.678   3.163 -0.0184  0.1174 -0.0111
  510MOL0     C70244  10.931   6.582   3.226  0.1716  0.2004  0.9447
  510MOL0     O70245  10.992   6.525   3.326  0.3389  0.1251 -0.3713
  510MOL0     C70246  11.120   6.551   3.346 -0.0065  0.6419  0.7978
  510MOL0     C70247  11.164   6.534   3.481 -0.6001 -0.1194 -0.5590
  510MOL0     C70248  11.298   6.565   3.509 -0.3860 -0.1869 -0.4226
  510MOL0     C70249  11.392   6.582   3.410  0.0310  0.0795  0.2571
  510MOL0     O70250  11.519   6.593   3.456  0.5509  0.1565  0.3339
  510MOL0     C70251  11.627   6.630   3.357  0.7781  0.1563 -0.7480
  510MOL0     C70252  11.754   6.602   3.428 -0.3458  0.6437 -0.0503
  510MOL0     C70253  11.872   6.595   3.342  0.0102 -1.0337  0.4756
  510MOL0     C70254  11.890   6.724   3.253 -0.7603  0.9124 -0.1984
  510MOL0     C70255  12.020   6.723   3.174  0.2399  0.3366  0.8270
  510MOL0     C70256  12.031   6.855   3.094 -0.4984 -0.2954 -0.6634
  510MOL0     C70257  12.171   6.910   3.065  0.4544 -0.4924 -0.1857
  510MOL0     C70258  12.170   7.042   2.996 -0.6020 -0.6749 -0.0012
  510MOL0     N70259  12.309   7.082   2.972 -0.0953  0.4977 -0.0086
  510MOL0     C70260  12.344   7.200   2.920  0.6604 -0.6919  0.2463
  510MOL0     C70261  12.478   7.207   2.932 -0.5558  0.3616  0.2316
  510MOL0     C70262  12.562   7.331   2.896 -0.4392  0.6059 -0.4864
  510MOL0     C70263  12.652   7.313   2.762 -0.3530 -0.5541 -0.4580
  510MOL0     C70264  12.742   7.440   2.753 -0.3663  0.5313  0.5695
  510MOL0     C70265  12.828   7.435   2.623  1.0538 -0.3865  0.0370
  510MOL0     O70266  12.938   7.532   2.629 -0.0588 -1.0573  0.5528
  510MOL0     C70267  13.059   7.511   2.684 -0.2311  0.4599 -1.4175
  510MOL0     C70268  13.095   7.390   2.759  0.9063  1.1020  0.5703
  510MOL0     C70269  13.227   7.359   2.797  0.0753  0.0018  0.1343
  510MOL0     C70270  13.265   7.222   2.846  0.2097  0.2346  0.3685
  510MOL0     C70271  13.331   7.456   2.756  0.4266  0.0616 -1.0719
  510MOL0     C70272  13.480   7.442   2.782 -0.1166 -0.1414  0.2342
  510MOL0     O70273  13.564   7.523   2.707  0.0664  0.3008 -0.2618
  510MOL0     C70274  13.694   7.550   2.735  0.1301 -0.3144  0.1282
  510MOL0     C70275  13.780   7.474   2.818  0.1924  0.1261  1.0396
  510MOL0     C70276  13.914   7.516   2.842  0.3691 -0.3784  0.5250
  510MOL0     C70277  13.966   7.629   2.772 -0.2884  0.1614 -0.5766
  510MOL0     O70278  14.099   7.668   2.781  0.5646 -0.4612  0.2862
  510MOL0     C70279  14.165   7.655   2.904  0.5290  0.9680  0.3871
  510MOL0     C70280  14.283   7.743   2.893 -0.4484 -0.0764  0.4283
  510MOL0     C70281  14.381   7.716   2.769 -0.8782  0.4195 -0.7899
  510MOL0     C70282  14.500   7.821   2.767  0.0131  0.1209 -0.2796
  510MOL0     C70283  14.625   7.761   2.693 -0.0027 -1.5246 -0.2160
  510MOL0     C70284  14.586   7.739   2.548  0.5709  0.0739 -0.5163
  510MOL0     C70285  14.711   7.709   2.475 -0.0581 -0.0398 -0.3583
  510MOL0     C70286  14.690   7.670   2.323 -0.0161  0.0384 -0.0404
  510MOL0    Cl70287  14.531   7.611   2.290  0.6536 -0.1201  0.4453
  510MOL0     C70288  13.878   7.701   2.696 -0.1694  0.2380  0.8616
  510MOL0     C70289  13.742   7.667   2.677  0.7303  0.6434  0.3202
  510MOL0     O70290  13.512   7.355   2.867 -0.2150 -0.4376  0.2334
  510MOL0     C70291  13.292   7.571   2.694 -0.7474  0.4455 -0.0094
  510MOL0     C70292  13.161   7.594   2.657  0.8235 -0.4886  0.2541
  510MOL0     N70293  12.515   7.096   2.996 -0.2520 -0.2600 -0.0077
  510MOL0     N70294  12.424   7.014   3.011 -0.6152  0.3118  0.5898
  510MOL0     C70295  11.356   6.583   3.274 -0.1483 -0.8370 -0.3506
  510MOL0     C70296  11.218   6.569   3.243 -0.1360 -0.2716  0.7690
  510MOL0     C70297  10.794   6.535   3.189 -0.2312 -0.6699 -0.0657
  510MOL0     C70298  10.760   6.407   3.233  0.4419 -0.0787  0.2798
  510MOL0     C70299  10.636   6.347   3.193  0.1814  0.1361  0.0676
  510MOL0     C70300  10.550   6.408   3.101 -0.2094  0.2821  0.2039
  510MOL0     O70301  10.436   6.354   3.052 -0.8494 -0.0472  0.4506
  510MOL0     C70302  10.397   6.222   3.093 -0.4389  0.5282  0.1295
  510MOL0     C70303  10.264   6.175   3.049  0.6262  0.3208  1.0436
  510MOL0     C70304  10.244   6.188   2.894  0.0813 -0.1983  0.2264
  510MOL0     C70305  10.323   6.078   2.822  0.0421 -0.6563  0.9632
  510MOL0     C70306  10.248   5.950   2.843 -0.2423 -0.3302 -0.5127
  510MOL0     C70307  10.181   5.851   2.844 -0.4556 -0.6641  0.0225
  510MOL0     C70308  10.593   6.526   3.059 -0.0819  0.5435 -0.4743
  510MOL0     C70309  10.704   6.605   3.105  1.0491 -0.2356 -0.0181
  510MOL0     C70310  10.710   6.749   3.073  0.4436  0.4294 -0.2166
  510MOL0     H70311  11.097   6.525   3.566  1.5621  1.2227  1.4175
  510MOL0     H70312  11.339   6.540   3.606 -1.2868 -0.2748 -0.0535
  510MOL0     H70313  11.616   6.732   3.319 -1.2071  0.2124 -0.1786
  510MOL0     H70314  11.625   6.565   3.269  1.1021  1.8688 -2.0783
  510MOL0     H70315  11.759   6.678   3.507 -0.4337 -0.5635  1.1436
  510MOL0     H70316  11.749   6.507   3.482  0.0898 -0.4018 -1.7979
  510MOL0     H70317  11.961   6.582   3.404  0.9959  0.0665 -0.6643
  510MOL0     H70318  11.861   6.510   3.274 -0.8188  0.8536 -1.9080
  510MOL0     H70319  11.803   6.735   3.188 -0.0268  1.0147 -1.1715
  510MOL0     H70320  11.902   6.806   3.325  0.6502  1.7679 -1.3461
  510MOL0     H70321  12.025   6.638   3.106  1.6324  0.7082  0.4306
  510MOL0     H70322  12.106   6.714   3.241  3.1576  0.2467 -2.6568
  510MOL0     H70323  11.980   6.834   3.000  1.1448 -0.5933 -1.5305
  510MOL0     H70324  11.978   6.933   3.149 -1.7079 -1.0987 -0.6617
  510MOL0     H70325  12.229   6.832   3.016  0.1121 -2.0923  1.8240
  510MOL0     H70326  12.212   6.921   3.167  0.7614  0.3499 -0.3839
  510MOL0     H70327  12.120   7.024   2.900 -0.5265  3.0087 -0.8743
  510MOL0     H70328  12.117   7.122   3.048 -0.4209 -1.3234  1.2105
  510MOL0     H70329  12.273   7.269   2.875  1.8756  0.1423 -0.4315
  510MOL0     H70330  12.621   7.362   2.982 -0.9288  1.3235 -0.4031
  510MOL0     H70331  12.497   7.418   2.882 -0.5708  0.1179 -3.7639
  510MOL0     H70332  12.721   7.228   2.775  1.2913  1.0534  2.2284
  510MOL0     H70333  12.587   7.303   2.675 -0.1414 -0.2237 -0.6556
  510MOL0     H70334  12.689   7.536   2.758  0.5727  1.2175 -1.4604
  510MOL0     H70335  12.819   7.447   2.831  1.1827  0.1371 -0.8714
  510MOL0     H70336  12.876   7.338   2.608  3.2415  0.9558 -2.2792
  510MOL0     H70337  12.761   7.454   2.539 -1.1273  0.1154  1.7970
  510MOL0     H70338  13.023   7.309   2.768  1.0603  0.3122 -3.3984
  510MOL0     H70339  13.328   7.164   2.779 -1.5658  0.0194 -1.2248
  510MOL0     H70340  13.172   7.166   2.858 -0.6980  1.7198  0.6349
  510MOL0     H70341  13.320   7.208   2.939  0.2562 -2.7190 -0.0054
  510MOL0     H70342  13.749   7.375   2.848  2.3104 -1.5491 -1.7797
  510MOL0     H70343  13.977   7.446   2.895 -0.8718 -1.9670 -0.0234
  510MOL0     H70344  14.112   7.672   2.998 -0.4355 -1.7689  0.4528
  510MOL0     H70345  14.199   7.551   2.904 -0.5433  0.5943 -0.8059
  510MOL0     H70346  14.239   7.842   2.875  1.2645  0.2024 -3.1910
  510MOL0     H70347  14.337   7.727   2.987 -0.6929 -0.9324  0.4313
  510MOL0     H70348  14.332   7.728   2.673 -0.0208  1.4083 -1.1264
  510MOL0     H70349  14.429   7.617   2.769 -1.4551  0.1261  0.0881
  510MOL0     H70350  14.532   7.855   2.866 -2.4984  0.9781  0.3114
  510MOL0     H70351  14.455   7.907   2.717  1.0847 -0.8381 -3.1230
  510MOL0     H70352  14.707   7.833   2.693  1.1279 -2.7183 -2.2677
  510MOL0     H70353  14.654   7.669   2.744  0.0006 -0.3736  1.9957
  510MOL0     H70354  14.532   7.827   2.510 -0.9928  0.0070  1.3653
  510MOL0     H70355  14.517   7.655   2.537 -0.3614  0.4701  1.6231
  510MOL0     H70356  14.765   7.629   2.525  2.8896  1.4041 -1.0340
  510MOL0     H70357  14.774   7.797   2.490 -3.5436  2.1209  3.9003
  510MOL0     H70358  14.770   7.605   2.285 -0.4598 -2.2051  2.5861
  510MOL0     H70359  14.705   7.764   2.267  0.5761  1.3020  2.1260
  510MOL0     H70360  13.913   7.784   2.636 -1.8662 -0.3180 -0.9782
  510MOL0     H70361  13.689   7.722   2.600  0.2096  0.2214  0.3722
  510MOL0     H70362  13.366   7.640   2.654  1.2158 -1.1412  0.6805
  510MOL0     H70363  13.127   7.682   2.604 -1.5082 -1.8754 -0.7277
  510MOL0     H70364  11.429   6.591   3.193  2.5652  0.7324  2.0388
  510MOL0     H70365  11.195   6.567   3.137 -0.4797 -2.4378  0.8318
  510MOL0     H70366  10.821   6.354   3.306 -0.4655 -2.2733 -0.4648
  510MOL0     H70367  10.615   6.253   3.244 -1.8381  0.6935  0.3790
  510MOL0     H70368  10.468   6.148   3.054 -1.1453 -0.4943  0.7641
  510MOL0     H70369  10.411   6.212   3.201  0.5561 -2.7847 -0.2037
  510MOL0     H70370  10.193   6.248   3.091  2.0864  1.8328  0.9870
  510MOL0     H70371  10.241   6.074   3.084  0.5194  0.3849  1.1619
  510MOL0     H70372  10.136   6.190   2.877  0.1605  3.6227 -0.6581
  510MOL0     H70373  10.284   6.284   2.859  1.2143  0.1696  2.4128
  510MOL0     H70374  10.422   6.058   2.865 -0.1677 -0.8412  1.3719
  510MOL0     H70375  10.343   6.110   2.719  0.3099  4.8312  2.4170
  510MOL0     H70376  10.118   5.765   2.850 -1.5998  0.2547  3.3943
  510MOL0     H70377  10.516   6.576   3.001  1.1598  2.1352 -0.8172
  510MOL0     H70378  10.730   6.816   3.157  1.1408  1.0544 -0.8650
  510MOL0     H70379  10.788   6.770   2.999 -0.2323  0.3772 -0.9644
  510MOL0     H70380  10.609   6.780   3.042 -0.0762 -0.2570  0.7287
  511MOL0     O70381   6.760   1.568   6.469  0.1308 -0.3954 -0.2397
  511MOL0     C70382   6.638   1.580   6.474  0.4905 -0.4362 -0.7755
  511MOL0     O70383   6.555   1.524   6.386  0.7988 -0.6331 -0.3448
  511MOL0     C70384   6.603   1.474   6.272  0.2431  0.9153  0.0458
  511MOL0     C70385   6.541   1.362   6.228 -0.2726 -0.3919 -0.2992
  511MOL0     C70386   6.571   1.308   6.104  0.0029  0.3615  0.0519
  511MOL0     C70387   6.655   1.376   6.014  0.3820 -0.2103  0.2431
  511MOL0     O70388   6.675   1.323   5.891 -0.0529  0.4147  0.2697
  511MOL0     C70389   6.660   1.415   5.783  0.0452 -0.1771  0.0904
  511MOL0     C70390   6.641   1.332   5.654 -0.3153  0.2403  0.7803
  511MOL0     C70391   6.519   1.233   5.670  0.1254  0.1532  0.6978
  511MOL0     C70392   6.488   1.173   5.532 -0.2436  0.0247  0.2573
  511MOL0     C70393   6.385   1.062   5.549 -0.1263 -0.1428 -0.5865
  511MOL0     C70394   6.359   0.990   5.419 -0.0457  0.7070 -0.6089
  511MOL0     C70395   6.276   1.081   5.324  0.0038  0.4001  0.5753
  511MOL0     C70396   6.143   1.141   5.364  1.2027  0.1591  0.1993
  511MOL0     N70397   6.164   1.270   5.434  0.1916  0.0287  0.2872
  511MOL0     C70398   6.235   1.382   5.386  0.0502  0.3076  0.4421
  511MOL0     C70399   6.222   1.482   5.471  0.7153 -0.1291 -0.7068
  511MOL0     C70400   6.273   1.620   5.452  0.0786 -0.3923 -0.7445
  511MOL0     C70401   6.423   1.603   5.466  0.4899 -0.3671  0.0002
  511MOL0     C70402   6.493   1.729   5.443  0.2146  0.2430 -0.5413
  511MOL0     C70403   6.625   1.747   5.513 -0.1506  0.3261 -0.1297
  511MOL0     O70404   6.702   1.624   5.499 -0.0127 -0.4350 -0.2095
  511MOL0     C70405   6.838   1.614   5.530  0.3505 -0.7369  0.4058
  511MOL0     C70406   6.918   1.725   5.568  0.7107  0.2464  0.2963
  511MOL0     C70407   7.054   1.713   5.585  0.0525 -0.9762  0.3429
  511MOL0     C70408   7.123   1.845   5.607  0.2617  0.1223  1.1812
  511MOL0     C70409   7.111   1.585   5.586  0.2897  0.0046 -0.1264
  511MOL0     C70410   7.251   1.567   5.631 -0.7083  0.2066  0.2083
  511MOL0     O70411   7.305   1.441   5.610  0.0475  0.6750 -0.1067
  511MOL0     C70412   7.440   1.425   5.584  0.5371  0.4426  0.1549
  511MOL0     C70413   7.522   1.523   5.514 -0.1484 -0.3413  0.4644
  511MOL0     C70414   7.643   1.484   5.471 -0.3960 -0.0763  0.2091
  511MOL0     C70415   7.706   1.368   5.516  0.5528 -0.3294 -0.3162
  511MOL0     O70416   7.838   1.343   5.458  0.2701 -1.0360 -0.4643
  511MOL0     C70417   7.934   1.274   5.533 -0.0141 -0.0976  0.6870
  511MOL0     C70418   8.065   1.253   5.438  0.2021 -0.6451  0.0271
  511MOL0     C70419   8.188   1.199   5.508 -0.3275  0.2195 -0.0416
  511MOL0     C70420   8.256   1.301   5.598  0.2691  0.1014 -0.5359
  511MOL0     C70421   8.364   1.247   5.692 -0.3961 -0.2846 -1.0907
  511MOL0     C70422   8.499   1.206   5.616 -0.4883  0.4937 -0.4555
  511MOL0     C70423   8.615   1.200   5.721  0.1291  0.4967  0.2403
  511MOL0     C70424   8.753   1.159   5.654 -0.5939  0.3944  1.3592
  511MOL0    Cl70425   8.732   0.993   5.593  0.2722  0.5980  0.5455
  511MOL0     C70426   7.624   1.268   5.573 -0.7557 -0.9539 -0.2940
  511MOL0     C70427   7.493   1.297   5.602  0.2564 -0.0002  0.1032
  511MOL0     O70428   7.328   1.670   5.661  0.4660  0.1538  0.5277
  511MOL0     C70429   7.037   1.478   5.552  0.4958 -0.5395  0.3900
  511MOL0     C70430   6.901   1.493   5.525 -0.3130  0.3071  0.1701
  511MOL0     N70431   6.157   1.430   5.583 -0.1400  1.0287  0.4899
  511MOL0     N70432   6.123   1.310   5.558  0.0709  0.0636 -0.1403
  511MOL0     C70433   6.724   1.491   6.055  1.1805 -0.1404 -0.2363
  511MOL0     C70434   6.693   1.538   6.180  0.3699  0.6971 -0.4806
  511MOL0     C70435   6.580   1.650   6.595 -0.2513 -0.0874 -0.3838
  511MOL0     C70436   6.675   1.722   6.679  0.2166 -0.3387  0.1636
  511MOL0     C70437   6.628   1.782   6.794 -0.5500 -0.3057  0.0948
  511MOL0     C70438   6.495   1.798   6.825  0.5097 -1.6133  0.9891
  511MOL0     O70439   6.474   1.891   6.919  0.1973 -0.1616  0.3797
  511MOL0     C70440   6.398   2.004   6.880 -0.6587 -1.5800  0.3946
  511MOL0     C70441   6.410   2.100   7.002 -0.4322  0.0562  0.2232
  511MOL0     C70442   6.324   2.221   6.973  0.3955 -0.5578 -0.7254
  511MOL0     C70443   6.176   2.200   6.928 -1.0094  0.6168 -0.6382
  511MOL0     C70444   6.112   2.114   7.032 -0.7327 -1.0563 -0.5587
  511MOL0     C70445   6.077   2.052   7.130  0.4716 -0.4910 -0.3899
  511MOL0     C70446   6.400   1.735   6.743  0.4567 -0.1576  1.1673
  511MOL0     C70447   6.440   1.656   6.631  0.1769 -0.0432  0.0872
  511MOL0     C70448   6.335   1.585   6.547  0.0657  0.6989  0.0630
  511MOL0     H70449   6.482   1.308   6.302  0.5419 -0.7952  0.0716
  511MOL0     H70450   6.530   1.210   6.085  0.2786  0.1165  0.6924
  511MOL0     H70451   6.755   1.468   5.771  0.6519 -1.0037  1.0042
  511MOL0     H70452   6.582   1.491   5.789  0.1570  0.0547 -1.1332
  511MOL0     H70453   6.619   1.407   5.578 -2.3553 -0.6198  0.4373
  511MOL0     H70454   6.734   1.279   5.633 -0.0299  2.0017 -3.2818
  511MOL0     H70455   6.554   1.155   5.739  0.3156 -0.7384 -0.3733
  511MOL0     H70456   6.427   1.280   5.704 -0.0793 -1.1485  2.0624
  511MOL0     H70457   6.459   1.252   5.462  0.2823 -0.7660 -0.8771
  511MOL0     H70458   6.571   1.125   5.479 -1.9108 -0.1649 -2.3621
  511MOL0     H70459   6.300   1.115   5.595 -0.6739 -0.0783 -1.6337
  511MOL0     H70460   6.415   0.987   5.622 -1.4041 -1.7149 -1.5950
  511MOL0     H70461   6.452   0.952   5.377 -0.8611 -1.3451 -0.6764
  511MOL0     H70462   6.300   0.900   5.442 -0.8503  1.5121  0.5894
  511MOL0     H70463   6.261   1.026   5.230 -0.8384 -1.2468  1.6117
  511MOL0     H70464   6.346   1.163   5.307 -0.3312  0.6386  0.3287
  511MOL0     H70465   6.081   1.159   5.275  1.9402  0.7753 -0.2068
  511MOL0     H70466   6.081   1.071   5.420 -1.8524  1.8570 -0.8421
  511MOL0     H70467   6.280   1.381   5.287 -0.8244  4.1978 -0.1524
  511MOL0     H70468   6.236   1.696   5.521 -3.0790 -2.3164 -0.1441
  511MOL0     H70469   6.253   1.641   5.347 -1.9138 -1.3286 -0.5883
  511MOL0     H70470   6.445   1.561   5.565 -2.4085  2.1320  1.8620
  511MOL0     H70471   6.463   1.534   5.391  0.3203  0.1667 -0.5845
  511MOL0     H70472   6.504   1.738   5.335  0.2000 -2.3228 -0.8333
  511MOL0     H70473   6.425   1.810   5.471 -1.0594  0.0729 -2.8594
  511MOL0     H70474   6.680   1.825   5.459  1.9088 -2.0788 -1.7580
  511MOL0     H70475   6.610   1.764   5.620  0.0932 -2.5604  0.4293
  511MOL0     H70476   6.881   1.827   5.563  1.2117  0.5339  1.7992
  511MOL0     H70477   7.136   1.862   5.714 -1.3848 -0.8757  1.5810
  511MOL0     H70478   7.068   1.932   5.569  0.8359 -1.2230 -3.3098
  511MOL0     H70479   7.218   1.854   5.552  0.0357 -1.5959  0.4306
  511MOL0     H70480   7.490   1.626   5.501  1.7821  0.0472 -1.7405
  511MOL0     H70481   7.708   1.535   5.399 -3.0035 -0.0173 -2.2820
  511MOL0     H70482   7.953   1.325   5.628 -0.8428  0.0563  0.7780
  511MOL0     H70483   7.902   1.173   5.559  2.5917 -1.5089 -1.1401
  511MOL0     H70484   8.039   1.190   5.352  0.9894 -0.5404 -0.3003
  511MOL0     H70485   8.081   1.349   5.390 -3.2358  0.3528  0.6030
  511MOL0     H70486   8.257   1.173   5.427 -2.0924 -0.7318 -1.3006
  511MOL0     H70487   8.165   1.108   5.565  1.3544  0.2863  0.8048
  511MOL0     H70488   8.181   1.348   5.663 -0.3024 -3.7498  1.9226
  511MOL0     H70489   8.300   1.379   5.536  0.3338 -0.1130 -0.7621
  511MOL0     H70490   8.398   1.326   5.759 -1.2525 -1.3340  0.6520
  511MOL0     H70491   8.325   1.174   5.763  2.1797  0.0852  0.8712
  511MOL0     H70492   8.523   1.277   5.537  2.6163  0.2007  0.1095
  511MOL0     H70493   8.484   1.110   5.565  1.3707  0.2971 -0.6990
  511MOL0     H70494   8.584   1.137   5.805 -1.2237  0.8165  0.0097
  511MOL0     H70495   8.620   1.305   5.754  0.9203  0.3963  0.4740
  511MOL0     H70496   8.843   1.161   5.717  0.8680  1.2203 -0.6378
  511MOL0     H70497   8.774   1.226   5.570  1.5403  1.3081  2.5224
  511MOL0     H70498   7.666   1.170   5.594 -0.4786 -0.7454  0.1458
  511MOL0     H70499   7.437   1.219   5.652 -2.5849  0.9999 -1.3172
  511MOL0     H70500   7.071   1.375   5.550  0.9539 -0.4205 -2.2608
  511MOL0     H70501   6.857   1.403   5.486 -1.8489  1.1431 -0.0872
  511MOL0     H70502   6.792   1.533   5.982 -1.3820  0.1687 -2.6020
  511MOL0     H70503   6.736   1.634   6.207 -0.8742  1.2165 -0.2784
  511MOL0     H70504   6.782   1.725   6.659  0.2046 -1.3331 -0.0734
  511MOL0     H70505   6.702   1.824   6.861  0.5524 -0.9616 -0.6990
  511MOL0     H70506   6.448   2.055   6.797 -1.1436  0.0816  1.0875
  511MOL0     H70507   6.298   1.974   6.845 -1.0590 -0.0931  0.2123
  511MOL0     H70508   6.513   2.135   7.021 -1.1973  1.5634  1.9119
  511MOL0     H70509   6.373   2.055   7.094 -1.8647 -1.5738 -1.0969
  511MOL0     H70510   6.326   2.285   7.061  0.2674 -2.2489  0.5507
  511MOL0     H70511   6.369   2.293   6.903 -1.2069  2.2638  0.9331
  511MOL0     H70512   6.168   2.140   6.838 -2.1068 -0.6714  0.2769
  511MOL0     H70513   6.131   2.300   6.919  1.4866  1.7983 -0.6510
  511MOL0     H70514   6.052   1.990   7.214 -1.1851  1.3448  0.5813
  511MOL0     H70515   6.292   1.740   6.751  0.2872  0.5965 -0.9705
  511MOL0     H70516   6.303   1.638   6.457 -0.9667  0.0308  0.0283
  511MOL0     H70517   6.383   1.491   6.520 -1.5146 -0.6212  1.6219
  511MOL0     H70518   6.241   1.572   6.602  0.3864 -1.8207  0.1451
  512MOL0     O70519   5.964   7.266   1.275  0.0925  0.3907  0.0393
  512MOL0     C70520   5.905   7.158   1.249  0.5379 -0.6195  0.2029
  512MOL0     O70521   5.942   7.032   1.279 -0.9634  0.0370  0.1770
  512MOL0     C70522   6.035   7.006   1.378 -0.3135 -0.4366  0.1303
  512MOL0     C70523   6.010   7.052   1.507 -0.6412  0.3941 -0.2663
  512MOL0     C70524   6.106   7.025   1.606  0.3141 -0.1629  0.7557
  512MOL0     C70525   6.233   6.970   1.568 -0.0076 -0.3663  0.1547
  512MOL0     O70526   6.343   6.981   1.654  0.9413  0.0449 -0.1662
  512MOL0     C70527   6.336   7.046   1.777  0.4548  0.2251 -0.2448
  512MOL0     C70528   6.481   7.079   1.811  0.1351 -0.4127  0.4632
  512MOL0     C70529   6.563   6.957   1.844  0.0782  0.2937  0.2918
  512MOL0     C70530   6.689   6.993   1.906 -0.4255 -0.2315  0.0199
  512MOL0     C70531   6.781   7.066   1.803 -0.6508 -0.7577  1.0123
  512MOL0     C70532   6.926   7.054   1.849 -0.3436 -0.0974  0.1636
  512MOL0     C70533   6.983   6.917   1.819  0.1679  0.1613 -0.4749
  512MOL0     C70534   7.120   6.905   1.880  0.0585  0.9632 -0.4018
  512MOL0     N70535   7.130   6.941   2.028  0.5275  0.5091 -0.0688
  512MOL0     C70536   7.117   6.865   2.141  0.7049  0.5172 -0.9441
  512MOL0     C70537   7.148   6.947   2.244  0.1779 -0.0796 -0.2101
  512MOL0     C70538   7.175   6.903   2.379 -0.5392 -0.4812 -0.2220
  512MOL0     C70539   7.316   6.892   2.409 -0.0073  0.0701 -0.5456
  512MOL0     C70540   7.332   6.832   2.551 -0.3299 -1.1962  1.0468
  512MOL0     C70541   7.479   6.836   2.587 -0.3931  0.3668  0.4242
  512MOL0     O70542   7.570   6.777   2.498 -0.3201  0.5000 -0.1300
  512MOL0     C70543   7.707   6.777   2.518 -0.3848 -0.6469 -0.6019
  512MOL0     C70544   7.771   6.850   2.621 -0.3014 -0.4439  0.8737
  512MOL0     C70545   7.910   6.831   2.645  0.4950  1.4281 -0.3147
  512MOL0     C70546   7.973   6.888   2.769  0.2696 -0.2094  0.7522
  512MOL0     C70547   7.983   6.742   2.560  0.3439 -0.4436 -0.5538
  512MOL0     C70548   8.128   6.704   2.573 -0.2728 -0.2695 -0.6710
  512MOL0     O70549   8.193   6.662   2.460 -0.4601  0.0695 -0.0467
  512MOL0     C70550   8.325   6.644   2.479 -0.7122  0.4625 -0.4704
  512MOL0     C70551   8.363   6.519   2.531 -0.4449 -0.0165 -0.7637
  512MOL0     C70552   8.496   6.488   2.567  0.0490  0.7256  0.3237
  512MOL0     C70553   8.591   6.581   2.542 -0.4205  0.1960 -0.0689
  512MOL0     O70554   8.723   6.541   2.555 -0.1059  0.1341  0.1315
  512MOL0     C70555   8.813   6.533   2.453  0.6366 -0.3246  0.2374
  512MOL0     C70556   8.934   6.608   2.491 -0.8361 -0.3309  0.3029
  512MOL0     C70557   9.045   6.604   2.386 -0.4881  0.9149 -0.0060
  512MOL0     C70558   9.003   6.685   2.264 -0.1496 -1.1803 -0.1611
  512MOL0     C70559   9.121   6.710   2.169  0.0880 -0.2001 -0.0355
  512MOL0     C70560   9.194   6.835   2.222  0.2716  0.2585  0.2695
  512MOL0     C70561   9.328   6.851   2.150 -0.5997  0.3852  0.1159
  512MOL0     C70562   9.399   6.979   2.197  0.1122 -0.4025  0.1162
  512MOL0    Cl70563   9.451   6.964   2.373 -0.0717  0.2730 -0.5424
  512MOL0     C70564   8.558   6.705   2.482 -0.2659  0.2213  0.5384
  512MOL0     C70565   8.423   6.740   2.464  0.4654  0.1685 -0.0284
  512MOL0     O70566   8.180   6.717   2.686 -0.0814 -0.0884 -0.2996
  512MOL0     C70567   7.912   6.685   2.451  0.0349  0.7324  0.1389
  512MOL0     C70568   7.777   6.701   2.433  0.5896 -0.3186  0.7462
  512MOL0     N70569   7.186   7.070   2.192  0.3950  0.6187 -0.4312
  512MOL0     N70570   7.167   7.066   2.066  0.4057  0.7467 -0.0674
  512MOL0     C70571   6.246   6.925   1.432 -0.5431 -0.2075 -0.2043
  512MOL0     C70572   6.146   6.932   1.347 -0.2908  0.2760  0.9198
  512MOL0     C70573   5.784   7.193   1.165 -0.2331  0.0083  0.1822
  512MOL0     C70574   5.684   7.099   1.168 -0.1984 -0.6843 -0.9391
  512MOL0     C70575   5.563   7.124   1.103 -0.0906 -0.9523 -0.7889
  512MOL0     C70576   5.544   7.233   1.023  0.7284  0.0954  0.0230
  512MOL0     O70577   5.409   7.251   0.985  0.0130  0.3454 -1.1459
  512MOL0     C70578   5.379   7.339   0.882  0.2850 -0.9635  0.0123
  512MOL0     C70579   5.274   7.291   0.786  0.3931  0.7357  0.0017
  512MOL0     C70580   5.228   7.410   0.696  0.6776  0.0471  0.2580
  512MOL0     C70581   5.122   7.364   0.585 -0.6366 -0.0851 -0.4591
  512MOL0     C70582   5.057   7.477   0.521  0.3798 -0.0694 -0.4174
  512MOL0     C70583   5.004   7.566   0.459  0.0350 -0.4483  0.2299
  512MOL0     C70584   5.646   7.333   1.014  0.9418  0.4926 -0.8040
  512MOL0     C70585   5.769   7.312   1.081  0.0184 -0.2596 -0.2908
  512MOL0     C70586   5.878   7.424   1.073  0.4735 -0.4665 -0.0182
  512MOL0     H70587   5.931   7.121   1.534 -0.4796  0.0025  1.2958
  512MOL0     H70588   6.088   7.061   1.707  1.0161 -1.1457  1.2461
  512MOL0     H70589   6.294   6.985   1.858 -0.3947 -0.1827 -0.9705
  512MOL0     H70590   6.269   7.133   1.774 -2.4923 -1.6310  2.9590
  512MOL0     H70591   6.521   7.128   1.722 -0.2191 -1.3383 -0.2118
  512MOL0     H70592   6.478   7.151   1.894  0.0841  1.8552 -1.4084
  512MOL0     H70593   6.509   6.890   1.911 -1.6965  0.6431 -0.7141
  512MOL0     H70594   6.587   6.910   1.748 -2.5759  1.9412 -1.3246
  512MOL0     H70595   6.669   7.056   1.994  0.4308 -0.1022  0.1383
  512MOL0     H70596   6.741   6.903   1.940 -2.0302 -1.3533 -0.4483
  512MOL0     H70597   6.744   7.169   1.803  0.3100 -0.3837 -0.2765
  512MOL0     H70598   6.770   7.019   1.705  0.8263 -2.0473  1.4147
  512MOL0     H70599   6.980   7.121   1.782 -1.1475 -0.5794 -1.0065
  512MOL0     H70600   6.935   7.087   1.953  0.7197  1.1979 -0.3113
  512MOL0     H70601   6.999   6.899   1.712  1.7468 -1.5199  0.0020
  512MOL0     H70602   6.922   6.834   1.857  0.2429  0.6631  0.7880
  512MOL0     H70603   7.142   6.799   1.864  1.2412  0.9944  0.8273
  512MOL0     H70604   7.195   6.964   1.825  1.9943  0.0024  1.1016
  512MOL0     H70605   7.115   6.758   2.156  2.7854  0.5209 -0.2797
  512MOL0     H70606   7.127   6.806   2.391 -3.2941  0.7274 -0.4647
  512MOL0     H70607   7.130   6.975   2.449  0.8990  0.1163  0.1151
  512MOL0     H70608   7.365   6.832   2.332  0.1837  1.5676 -1.6235
  512MOL0     H70609   7.370   6.986   2.395  0.3283  0.1100  0.7997
  512MOL0     H70610   7.275   6.883   2.629 -2.7207  0.9524 -1.8417
  512MOL0     H70611   7.298   6.730   2.536 -0.3753 -0.9927 -0.3813
  512MOL0     H70612   7.498   6.944   2.594 -1.6989  0.5534  1.6497
  512MOL0     H70613   7.497   6.787   2.683  2.9523  2.1391  0.8416
  512MOL0     H70614   7.713   6.907   2.692 -0.6596  0.0838  0.1760
  512MOL0     H70615   8.009   6.803   2.828 -0.5101 -3.9905 -3.6273
  512MOL0     H70616   7.903   6.936   2.838 -1.2532 -3.0251  1.3084
  512MOL0     H70617   8.053   6.953   2.731 -1.1608  1.5929  0.7168
  512MOL0     H70618   8.287   6.442   2.541 -2.0791  1.5162 -0.9252
  512MOL0     H70619   8.534   6.390   2.594  1.1574  1.3495  1.1171
  512MOL0     H70620   8.847   6.429   2.452 -1.9847 -1.2525 -0.2002
  512MOL0     H70621   8.777   6.555   2.352  0.2941  1.5522  0.7336
  512MOL0     H70622   8.909   6.711   2.519  0.7092  0.6315 -1.6071
  512MOL0     H70623   8.972   6.572   2.588 -1.1006  2.0250  1.3536
  512MOL0     H70624   9.066   6.501   2.354  1.8930  1.8162 -1.5830
  512MOL0     H70625   9.139   6.648   2.418  1.2108 -0.1405 -3.1440
  512MOL0     H70626   8.962   6.779   2.300 -0.6087 -1.7753  0.9193
  512MOL0     H70627   8.923   6.630   2.214  0.2549 -2.6370  0.7273
  512MOL0     H70628   9.203   6.638   2.168  2.3812  2.1551  2.0904
  512MOL0     H70629   9.086   6.726   2.066 -1.9541 -0.0288  0.6329
  512MOL0     H70630   9.209   6.839   2.330  0.0802  2.0897  0.2609
  512MOL0     H70631   9.143   6.929   2.196  0.8808  0.6231  0.3699
  512MOL0     H70632   9.311   6.853   2.043 -0.5732  1.5490  0.1290
  512MOL0     H70633   9.400   6.775   2.182  2.3765  1.6907 -2.9370
  512MOL0     H70634   9.323   7.056   2.182 -0.8966 -1.2897  0.5865
  512MOL0     H70635   9.483   7.002   2.131 -2.1094  1.2361 -2.3839
  512MOL0     H70636   8.632   6.776   2.446 -1.3033  1.1420  0.1820
  512MOL0     H70637   8.393   6.841   2.438  1.7974  1.2645  2.3746
  512MOL0     H70638   7.957   6.630   2.369 -0.6782  1.5218 -0.8084
  512MOL0     H70639   7.719   6.645   2.360  0.4388  2.4369 -1.4187
  512MOL0     H70640   6.340   6.880   1.402 -1.5488 -2.0051 -0.7992
  512MOL0     H70641   6.157   6.886   1.250 -1.3851  2.4172 -0.2842
  512MOL0     H70642   5.701   7.008   1.223 -1.7311 -1.4528 -1.6762
  512MOL0     H70643   5.483   7.051   1.110 -2.3230  1.2430 -1.5880
  512MOL0     H70644   5.350   7.437   0.922  1.0256 -1.4173  1.7289
  512MOL0     H70645   5.468   7.369   0.826 -2.1534  0.6919 -3.3627
  512MOL0     H70646   5.180   7.248   0.822 -0.8304  1.5822 -1.9949
  512MOL0     H70647   5.311   7.208   0.725 -1.2012  1.1970 -1.6762
  512MOL0     H70648   5.185   7.489   0.758  1.3510 -1.7996  3.2529
  512MOL0     H70649   5.313   7.454   0.643 -0.0678  0.6938 -0.4258
  512MOL0     H70650   5.047   7.294   0.621  1.7366 -1.3901  2.4633
  512MOL0     H70651   5.180   7.300   0.518 -0.8710 -0.1426 -0.6075
  512MOL0     H70652   4.948   7.636   0.400  1.1479 -0.7362 -1.2273
  512MOL0     H70653   5.638   7.426   0.960  1.0780  0.4760 -0.8533
  512MOL0     H70654   5.871   7.473   0.975  1.2766 -1.2106 -0.4743
  512MOL0     H70655   5.864   7.501   1.149 -2.3647  1.1753 -1.9730
  512MOL0     H70656   5.979   7.382   1.075 -0.0136 -1.9440 -2.2438
  513MOL0     O70657   2.017   5.654   5.378  0.0997  0.2465  0.4882
  513MOL0     C70658   1.896   5.672   5.361  0.4393 -0.7431 -0.4043
  513MOL0     O70659   1.822   5.755   5.442  0.0301 -0.1147 -0.0896
  513MOL0     C70660   1.881   5.788   5.558 -0.8031 -0.2357  0.3248
  513MOL0     C70661   1.915   5.925   5.588 -0.6755  0.8141  0.0685
  513MOL0     C70662   1.980   5.979   5.698  0.2827  0.3455  0.1529
  513MOL0     C70663   2.010   5.891   5.810  0.3626 -0.3665  0.2250
  513MOL0     O70664   2.065   5.945   5.925 -0.3165 -0.3231 -0.4699
  513MOL0     C70665   2.118   5.865   6.038 -0.2609  0.3016  0.2109
  513MOL0     C70666   2.203   5.957   6.122 -0.8029  0.6522 -0.6166
  513MOL0     C70667   2.348   5.994   6.069  0.8883 -0.1946 -0.0412
  513MOL0     C70668   2.391   6.135   6.114 -0.1288  0.1074 -0.2915
  513MOL0     C70669   2.414   6.149   6.272 -0.4666 -0.3938  0.2522
  513MOL0     C70670   2.518   6.261   6.304 -0.1411 -0.6237 -0.8004
  513MOL0     C70671   2.488   6.331   6.437  0.9805 -0.4768  0.7028
  513MOL0     C70672   2.488   6.241   6.557 -1.1478  0.0474  0.0930
  513MOL0     N70673   2.622   6.200   6.596 -0.1129  0.0975 -0.3475
  513MOL0     C70674   2.719   6.290   6.610 -0.1344 -0.2135  0.5139
  513MOL0     C70675   2.834   6.220   6.635 -0.0182 -0.2472  0.1137
  513MOL0     C70676   2.972   6.269   6.651 -0.2026 -0.3855 -0.6433
  513MOL0     C70677   3.082   6.161   6.655  0.0176  0.0637  0.4120
  513MOL0     C70678   3.211   6.200   6.593  0.0309  0.3760 -0.1820
  513MOL0     C70679   3.309   6.078   6.586 -0.1697 -0.8665  0.3127
  513MOL0     O70680   3.339   6.027   6.712  0.2270  0.3049 -0.0234
  513MOL0     C70681   3.400   6.100   6.813  0.2023 -0.2752  0.1504
  513MOL0     C70682   3.461   6.221   6.799 -0.5068 -0.0828 -0.1906
  513MOL0     C70683   3.508   6.300   6.905  0.1630  1.2882 -0.7090
  513MOL0     C70684   3.580   6.421   6.874 -0.0380 -0.2302 -0.0054
  513MOL0     C70685   3.482   6.248   7.038 -0.1272 -0.1147 -1.0409
  513MOL0     C70686   3.514   6.322   7.161 -0.3295 -0.0415  0.1569
  513MOL0     O70687   3.506   6.460   7.162  0.1350  0.6673 -0.3388
  513MOL0     C70688   3.560   6.530   7.268  0.2321  0.3854  0.1673
  513MOL0     C70689   3.506   6.536   7.403 -0.2178 -0.1059  0.6541
  513MOL0     C70690   3.558   6.632   7.487 -0.2162  0.5777 -0.2675
  513MOL0     C70691   3.664   6.720   7.448  0.5773  1.7669 -0.2515
  513MOL0     O70692   3.707   6.822   7.532  0.1571  0.7402 -0.1110
  513MOL0     C70693   3.679   6.819   7.672 -0.3093 -0.3066  0.0426
  513MOL0     C70694   3.765   6.906   7.759 -0.1973 -0.0606  0.1065
  513MOL0     C70695   3.916   6.905   7.724  0.1226 -0.3427 -0.6258
  513MOL0     C70696   3.998   6.929   7.845 -0.2189 -0.2922 -1.0025
  513MOL0     C70697   3.981   7.077   7.885 -0.3465  1.2346  0.6952
  513MOL0     C70698   4.053   7.100   8.015 -0.7327 -0.2262 -0.4427
  513MOL0     C70699   4.205   7.097   8.005 -0.0336  0.1408  0.7941
  513MOL0     C70700   4.269   7.122   8.139  0.1553 -0.8430  0.0358
  513MOL0    Cl70701   4.437   7.065   8.115 -0.0468 -0.0086  0.5324
  513MOL0     C70702   3.718   6.710   7.325  0.4857 -0.0512  0.1729
  513MOL0     C70703   3.668   6.620   7.233 -0.3271 -0.0585  0.2080
  513MOL0     O70704   3.551   6.255   7.259 -0.4323 -0.1544 -0.4309
  513MOL0     C70705   3.431   6.121   7.054 -0.1586  0.2329  0.9669
  513MOL0     C70706   3.383   6.053   6.942  0.9475  0.0553  0.1870
  513MOL0     N70707   2.794   6.084   6.640 -0.0642 -0.2666 -0.4446
  513MOL0     N70708   2.670   6.074   6.610  0.1608 -0.4994  0.4576
  513MOL0     C70709   1.963   5.754   5.794  0.0100 -0.1693 -0.4070
  513MOL0     C70710   1.916   5.706   5.669 -0.1521 -0.2606  0.2071
  513MOL0     C70711   1.821   5.618   5.242 -0.4472  0.4986 -0.8069
  513MOL0     C70712   1.686   5.595   5.269  0.2914 -0.1748  0.2732
  513MOL0     C70713   1.607   5.554   5.165 -0.4564  0.1566  0.0489
  513MOL0     C70714   1.649   5.532   5.035 -1.2285 -0.0674  0.1392
  513MOL0     O70715   1.579   5.494   4.924  0.4530  0.5052  0.3789
  513MOL0     C70716   1.435   5.478   4.936  0.6697 -0.1013  0.5710
  513MOL0     C70717   1.379   5.399   4.814  0.2572  0.6449  0.0477
  513MOL0     C70718   1.412   5.249   4.831 -0.5136  0.2998  0.5900
  513MOL0     C70719   1.393   5.171   4.695  0.1489 -1.1510 -0.2086
  513MOL0     C70720   1.522   5.157   4.633  0.7129 -1.1665  0.2267
  513MOL0     C70721   1.629   5.151   4.600 -0.6239  0.2793  0.5341
  513MOL0     C70722   1.786   5.538   5.019 -0.1924  0.0507  0.3788
  513MOL0     C70723   1.875   5.576   5.120 -0.2381  0.1673  0.0788
  513MOL0     C70724   2.018   5.575   5.082 -0.3247 -0.2158  0.0174
  513MOL0     H70725   1.879   6.001   5.520  0.1273  0.9795 -0.1764
  513MOL0     H70726   2.003   6.084   5.685  1.8590 -0.1378 -1.3399
  513MOL0     H70727   2.174   5.776   6.007 -0.3503 -1.7818  5.1532
  513MOL0     H70728   2.033   5.828   6.097 -0.8676 -0.3071 -1.0115
  513MOL0     H70729   2.140   6.042   6.151 -2.1491 -1.4865  3.8059
  513MOL0     H70730   2.234   5.901   6.211  1.8346  3.2300  0.2260
  513MOL0     H70731   2.422   5.924   6.108  1.7434  1.4188  1.3517
  513MOL0     H70732   2.352   5.989   5.960 -1.4033 -3.3432 -0.1220
  513MOL0     H70733   2.481   6.171   6.063 -1.2963  0.5532 -2.0912
  513MOL0     H70734   2.305   6.198   6.093 -2.2428 -2.4584  0.1645
  513MOL0     H70735   2.451   6.058   6.319  2.1394  1.0671  1.2711
  513MOL0     H70736   2.320   6.184   6.316 -1.5887 -1.0484 -1.5203
  513MOL0     H70737   2.616   6.210   6.306 -0.2326 -1.2526 -4.8966
  513MOL0     H70738   2.535   6.338   6.229  0.6467  0.7519  0.7293
  513MOL0     H70739   2.383   6.362   6.430  0.8533 -0.8237  1.0533
  513MOL0     H70740   2.558   6.415   6.441  1.2664 -0.7098  0.6579
  513MOL0     H70741   2.449   6.294   6.644 -0.4572  1.9954 -0.7399
  513MOL0     H70742   2.432   6.147   6.547 -1.1557  0.1395 -0.7918
  513MOL0     H70743   2.716   6.397   6.594 -1.2450 -0.3937 -0.7130
  513MOL0     H70744   2.986   6.333   6.738  0.4403 -0.1495 -0.9130
  513MOL0     H70745   3.004   6.328   6.564  0.8847  2.9223  1.8182
  513MOL0     H70746   3.091   6.155   6.764 -1.2983 -1.2016  0.4894
  513MOL0     H70747   3.046   6.068   6.609 -1.3621 -0.5531  2.5658
  513MOL0     H70748   3.186   6.227   6.490 -3.1638  1.4524  0.7538
  513MOL0     H70749   3.257   6.286   6.642 -1.8811 -0.0600  2.6425
  513MOL0     H70750   3.270   5.998   6.523 -0.8643 -0.5300  0.3080
  513MOL0     H70751   3.403   6.118   6.547  0.6227 -1.0889  1.9294
  513MOL0     H70752   3.474   6.259   6.698  1.1120  2.6051  0.9133
  513MOL0     H70753   3.645   6.407   6.787  0.4957 -0.0451  0.3563
  513MOL0     H70754   3.637   6.455   6.961  3.8028 -2.2059 -1.4796
  513MOL0     H70755   3.508   6.499   6.849 -0.3987 -0.2911  0.8110
  513MOL0     H70756   3.418   6.478   7.429 -1.1797  1.3146  0.6327
  513MOL0     H70757   3.518   6.632   7.588  0.9643  0.1703  0.2211
  513MOL0     H70758   3.573   6.837   7.690 -0.4606 -0.1096 -0.9890
  513MOL0     H70759   3.706   6.719   7.705  1.2345 -1.0263 -3.0645
  513MOL0     H70760   3.727   7.003   7.726  1.8827  1.2585  1.3802
  513MOL0     H70761   3.751   6.891   7.866  0.4148  1.0379  0.3569
  513MOL0     H70762   3.948   6.974   7.645 -0.6644 -1.6239 -2.1168
  513MOL0     H70763   3.938   6.800   7.702  1.9274 -0.2090  0.3688
  513MOL0     H70764   4.101   6.913   7.811  0.1982  1.0787 -0.4730
  513MOL0     H70765   3.974   6.866   7.931 -1.0614  0.2807 -0.8057
  513MOL0     H70766   4.006   7.137   7.796 -0.1801  0.0096 -0.1149
  513MOL0     H70767   3.874   7.095   7.897 -0.2635  2.3735 -0.0969
  513MOL0     H70768   4.007   7.030   8.085 -1.2797 -0.1939 -0.7640
  513MOL0     H70769   4.020   7.192   8.065 -2.5149 -0.9042 -0.2829
  513MOL0     H70770   4.233   7.178   7.937  2.8379 -0.7378  0.8041
  513MOL0     H70771   4.252   7.009   7.961  1.6513  1.8398 -1.0295
  513MOL0     H70772   4.214   7.063   8.213 -2.5844 -0.0003 -1.1707
  513MOL0     H70773   4.261   7.228   8.165 -1.4778  0.1047 -3.6440
  513MOL0     H70774   3.801   6.778   7.309  0.5830 -0.2154 -0.0209
  513MOL0     H70775   3.709   6.617   7.132  1.0311 -0.6366  0.7584
  513MOL0     H70776   3.422   6.071   7.150 -0.4596 -0.7548  0.4379
  513MOL0     H70777   3.326   5.962   6.960 -0.3623  0.5342 -1.2976
  513MOL0     H70778   1.975   5.689   5.880 -2.1023  2.1317  1.7960
  513MOL0     H70779   1.900   5.599   5.659 -1.4310  0.0531 -1.6774
  513MOL0     H70780   1.642   5.617   5.366  2.2550 -0.2264  1.2198
  513MOL0     H70781   1.500   5.542   5.183 -0.7058  1.8226 -0.2223
  513MOL0     H70782   1.411   5.424   5.028  1.6998 -0.4142  0.6669
  513MOL0     H70783   1.400   5.581   4.941 -0.2414 -0.4293  1.3568
  513MOL0     H70784   1.412   5.428   4.714 -0.9268  1.1775 -0.2042
  513MOL0     H70785   1.270   5.413   4.810 -0.3266 -2.7199  1.0473
  513MOL0     H70786   1.512   5.238   4.873  0.1575  0.9257 -0.7935
  513MOL0     H70787   1.333   5.213   4.897  0.2908  0.0548  1.4428
  513MOL0     H70788   1.338   5.231   4.622 -0.5388 -2.7220 -1.0573
  513MOL0     H70789   1.337   5.079   4.714 -3.1693  0.8431  0.4063
  513MOL0     H70790   1.726   5.143   4.555 -1.2614  1.1785 -1.0641
  513MOL0     H70791   1.820   5.517   4.917  0.2120 -1.9841  0.8778
  513MOL0     H70792   2.041   5.665   5.024 -3.2688 -0.7278 -2.1576
  513MOL0     H70793   2.089   5.568   5.165  0.1185 -0.5052 -0.3795
  513MOL0     H70794   2.040   5.488   5.020  0.7217  0.4240 -0.5438
  514MOL0     O70795   8.069   4.021   7.547 -0.4227 -0.1244  0.0034
  514MOL0     C70796   8.016   4.037   7.437  0.2992 -0.2693  0.2160
  514MOL0     O70797   8.085   4.076   7.320 -0.3021 -0.0514  0.0971
  514MOL0     C70798   8.227   4.066   7.318 -0.2457 -0.2739 -0.1379
  514MOL0     C70799   8.288   3.960   7.238  0.2556  0.1672  0.0845
  514MOL0     C70800   8.427   3.943   7.227  1.1317 -0.0686 -0.0180
  514MOL0     C70801   8.506   4.033   7.298 -0.5329 -0.7370 -0.8102
  514MOL0     O70802   8.644   4.035   7.297 -0.4274  0.7586  0.8207
  514MOL0     C70803   8.712   3.946   7.204  0.0950 -0.3754  0.1894
  514MOL0     C70804   8.859   4.001   7.198 -1.2172  0.9500 -0.9394
  514MOL0     C70805   8.915   4.000   7.346  0.5585  0.3144  0.1886
  514MOL0     C70806   9.060   4.047   7.345  0.3588  0.0686  0.1094
  514MOL0     C70807   9.113   4.071   7.491  0.1173 -0.6254 -0.6564
  514MOL0     C70808   9.108   3.961   7.595 -0.4047  0.1134 -0.2212
  514MOL0     C70809   9.195   3.844   7.566  0.7114  0.7277  0.6761
  514MOL0     C70810   9.342   3.864   7.603  0.9365 -0.1769 -0.4797
  514MOL0     N70811   9.422   3.751   7.554 -0.9023  0.1417  0.7990
  514MOL0     C70812   9.509   3.680   7.633 -0.3289  0.1135  0.0373
  514MOL0     C70813   9.551   3.573   7.562 -0.3946  0.4774 -0.2827
  514MOL0     C70814   9.651   3.466   7.605 -0.4560  0.5370 -0.0416
  514MOL0     C70815   9.785   3.488   7.533  0.4042  0.0120 -0.9163
  514MOL0     C70816   9.868   3.607   7.585  0.8450 -0.4328 -0.0677
  514MOL0     C70817  10.013   3.609   7.544  0.3668 -0.5106 -1.3305
  514MOL0     O70818  10.027   3.562   7.411 -0.3268 -0.0870  0.2518
  514MOL0     C70819  10.160   3.547   7.378  0.3423  0.2810 -0.0402
  514MOL0     C70820  10.199   3.415   7.338 -0.2948  0.0945  0.3330
  514MOL0     C70821  10.337   3.383   7.314  0.1164  0.6539  0.0179
  514MOL0     C70822  10.357   3.231   7.286  0.0809 -0.2212 -0.5110
  514MOL0     C70823  10.431   3.491   7.331 -0.1471  0.5781  0.0940
  514MOL0     C70824  10.578   3.480   7.310  0.6925  0.9544 -0.4779
  514MOL0     O70825  10.655   3.589   7.333  0.3752  0.1139 -0.2592
  514MOL0     C70826  10.785   3.599   7.288 -0.1416 -0.0852 -0.3093
  514MOL0     C70827  10.895   3.592   7.379 -0.4759  0.6396 -0.4074
  514MOL0     C70828  11.024   3.606   7.328  0.1967 -0.6127  0.2420
  514MOL0     C70829  11.052   3.651   7.195 -0.0730  0.0085 -0.5009
  514MOL0     O70830  11.172   3.683   7.140  0.0145 -0.2914 -1.2270
  514MOL0     C70831  11.293   3.644   7.222  0.0934 -1.2496  0.5414
  514MOL0     C70832  11.411   3.685   7.140 -0.2614  0.7262 -0.1145
  514MOL0     C70833  11.548   3.623   7.181  0.1177 -0.5681 -0.1265
  514MOL0     C70834  11.545   3.476   7.153  0.4013  1.0748  0.8713
  514MOL0     C70835  11.684   3.420   7.154  0.7874 -0.3298  0.0286
  514MOL0     C70836  11.681   3.274   7.158  0.0419  1.0061  0.0124
  514MOL0     C70837  11.828   3.223   7.157  1.0415  0.0880 -0.4583
  514MOL0     C70838  11.853   3.074   7.189 -0.3499  0.9080  0.3479
  514MOL0    Cl70839  12.017   3.026   7.149 -0.3971 -0.3117 -0.1326
  514MOL0     C70840  10.935   3.656   7.114  0.8902  0.9643  0.7670
  514MOL0     C70841  10.812   3.622   7.150 -0.0377 -0.7535 -0.3700
  514MOL0     O70842  10.622   3.372   7.273 -0.5416 -0.0123  0.5591
  514MOL0     C70843  10.384   3.614   7.367 -0.5602 -0.4268  0.4575
  514MOL0     C70844  10.256   3.641   7.394  0.1254 -0.8973 -0.4997
  514MOL0     N70845   9.492   3.580   7.439  0.3864 -0.0627  0.8053
  514MOL0     N70846   9.421   3.688   7.432  1.2953  0.4164  0.5589
  514MOL0     C70847   8.446   4.137   7.378 -0.3087  0.1496 -0.8948
  514MOL0     C70848   8.308   4.155   7.394  0.7991  0.6951  0.3786
  514MOL0     C70849   7.868   4.025   7.421 -0.2080  0.7264 -1.0238
  514MOL0     C70850   7.824   3.972   7.297 -0.9851  0.7841  0.5113
  514MOL0     C70851   7.693   3.927   7.271 -0.5482 -0.2920  0.7297
  514MOL0     C70852   7.608   3.940   7.381 -0.0272 -0.4235 -0.9458
  514MOL0     O70853   7.474   3.908   7.383  0.0983  0.3267 -0.5495
  514MOL0     C70854   7.393   3.892   7.267  0.0296 -0.6362  0.6236
  514MOL0     C70855   7.286   4.004   7.279  0.0891  0.0552 -0.6282
  514MOL0     C70856   7.159   3.961   7.359  0.0622 -0.1529 -0.1806
  514MOL0     C70857   7.024   4.033   7.344 -0.6897  0.0107  0.9919
  514MOL0     C70858   7.020   4.167   7.396  0.4608 -0.0548  0.8124
  514MOL0     C70859   7.010   4.284   7.432  1.2630 -0.0888 -0.0005
  514MOL0     C70860   7.651   3.988   7.501  0.3735  0.1846 -0.5370
  514MOL0     C70861   7.774   4.038   7.527  0.8076 -0.9164  0.4350
  514MOL0     C70862   7.800   4.104   7.662 -0.1721 -0.7685  0.7306
  514MOL0     H70863   8.215   3.889   7.202  2.0011 -1.1263 -1.0888
  514MOL0     H70864   8.462   3.867   7.157 -1.9629 -1.6251 -0.0396
  514MOL0     H70865   8.664   3.955   7.107  1.0524  1.1060 -0.1760
  514MOL0     H70866   8.714   3.845   7.247 -0.1096  0.7870  3.2203
  514MOL0     H70867   8.917   3.937   7.130 -1.2886 -0.2661  0.1214
  514MOL0     H70868   8.863   4.102   7.155 -1.0427  0.5402 -1.9263
  514MOL0     H70869   8.858   4.070   7.408 -1.0508 -0.5619 -0.2540
  514MOL0     H70870   8.904   3.902   7.393 -3.1676  1.5036  2.2109
  514MOL0     H70871   9.124   3.979   7.288  0.5087  0.7495 -0.5484
  514MOL0     H70872   9.061   4.142   7.290 -2.7091  0.4777  0.5887
  514MOL0     H70873   9.046   4.145   7.535  0.2544 -0.9679  0.1520
  514MOL0     H70874   9.217   4.103   7.491  0.0656  0.0787  3.4922
  514MOL0     H70875   9.137   4.012   7.687  0.2771  0.8494 -0.8404
  514MOL0     H70876   9.006   3.920   7.602 -1.7153  2.4857 -3.3975
  514MOL0     H70877   9.182   3.822   7.459 -0.7625 -0.0872  0.9932
  514MOL0     H70878   9.159   3.762   7.629 -1.2289  1.6934  0.8963
  514MOL0     H70879   9.372   3.951   7.543  1.5676 -0.2700 -0.3074
  514MOL0     H70880   9.360   3.892   7.708  0.6478 -0.6366 -0.3042
  514MOL0     H70881   9.535   3.701   7.736 -0.4598  1.4676 -0.1853
  514MOL0     H70882   9.621   3.363   7.583  1.5982 -0.3208  0.8861
  514MOL0     H70883   9.688   3.469   7.708 -0.1086 -0.7184 -0.1113
  514MOL0     H70884   9.847   3.399   7.543 -0.2331 -0.3339  0.0574
  514MOL0     H70885   9.758   3.498   7.427 -1.8120 -0.8392 -0.4839
  514MOL0     H70886   9.818   3.702   7.564 -1.4109 -1.6776 -0.6325
  514MOL0     H70887   9.860   3.599   7.694  0.2649 -3.1198 -0.2266
  514MOL0     H70888  10.055   3.709   7.558 -0.8476 -0.3671  2.1906
  514MOL0     H70889  10.050   3.535   7.615 -0.5946 -0.4111 -0.7170
  514MOL0     H70890  10.132   3.330   7.347  1.8403 -1.8912 -1.1900
  514MOL0     H70891  10.328   3.184   7.380  1.2875  0.3909  0.1863
  514MOL0     H70892  10.457   3.200   7.251 -0.5630 -1.6628 -1.1943
  514MOL0     H70893  10.292   3.204   7.202  0.8168  2.0209 -1.8909
  514MOL0     H70894  10.863   3.579   7.482  0.2693  0.5156 -0.1843
  514MOL0     H70895  11.105   3.593   7.399  2.3853  0.1129 -1.9818
  514MOL0     H70896  11.289   3.692   7.321 -2.5879  0.3964 -0.2652
  514MOL0     H70897  11.298   3.536   7.238 -0.0420 -1.1484  1.3211
  514MOL0     H70898  11.399   3.676   7.032  0.3508 -1.2913 -0.0419
  514MOL0     H70899  11.420   3.788   7.175 -1.1868  0.3996  1.1715
  514MOL0     H70900  11.568   3.645   7.286 -0.4912 -1.4543  0.1874
  514MOL0     H70901  11.623   3.672   7.118  0.4379  0.2434  0.8702
  514MOL0     H70902  11.509   3.470   7.050 -0.3371  0.6954  1.1465
  514MOL0     H70903  11.481   3.428   7.227 -0.8684  2.2134  0.5560
  514MOL0     H70904  11.743   3.434   7.063 -0.6133  0.2836 -0.8111
  514MOL0     H70905  11.728   3.465   7.244  1.0948  2.4480 -1.3763
  514MOL0     H70906  11.620   3.235   7.077 -2.7666  1.4589  1.7589
  514MOL0     H70907  11.631   3.241   7.250  1.1308  2.0743  1.0308
  514MOL0     H70908  11.884   3.285   7.227  2.0958 -0.5577 -0.7021
  514MOL0     H70909  11.865   3.251   7.057 -2.6690  0.0631 -1.9899
  514MOL0     H70910  11.790   3.009   7.126  0.2047 -0.3018  0.9964
  514MOL0     H70911  11.826   3.026   7.283 -1.4743 -2.0223 -1.3169
  514MOL0     H70912  10.954   3.675   7.009  1.8971  1.4949  1.0321
  514MOL0     H70913  10.727   3.624   7.082 -1.6425  2.7927  1.4528
  514MOL0     H70914  10.454   3.697   7.367  0.0879 -0.9273 -1.4789
  514MOL0     H70915  10.227   3.741   7.427 -4.1024 -1.7954 -0.8709
  514MOL0     H70916   8.522   4.185   7.439 -1.3611  0.0895  0.4977
  514MOL0     H70917   8.265   4.231   7.458  0.0814  1.7119 -1.2221
  514MOL0     H70918   7.901   3.964   7.221 -0.1405 -2.6699  1.5582
  514MOL0     H70919   7.646   3.895   7.178 -3.4799 -1.4529  2.4689
  514MOL0     H70920   7.446   3.906   7.172 -0.4876  0.3344  0.4665
  514MOL0     H70921   7.349   3.792   7.260  2.2456 -1.5846 -0.9756
  514MOL0     H70922   7.252   4.038   7.180 -1.7441 -0.0675 -0.0912
  514MOL0     H70923   7.335   4.085   7.333  1.1431 -0.4804 -0.7752
  514MOL0     H70924   7.150   3.859   7.320  3.2209  0.0090 -1.5886
  514MOL0     H70925   7.192   3.954   7.463 -1.7537  2.4875  0.6740
  514MOL0     H70926   6.957   3.962   7.394  2.5257 -2.7998  1.6286
  514MOL0     H70927   6.996   4.039   7.238  1.3512 -2.4898  0.2074
  514MOL0     H70928   7.006   4.387   7.463  2.4474 -0.5323  1.7774
  514MOL0     H70929   7.584   3.984   7.586  0.0602 -0.0290 -0.7894
  514MOL0     H70930   7.714   4.162   7.696  0.7491  2.9574 -2.5844
  514MOL0     H70931   7.830   4.033   7.740  1.3721 -1.1224 -0.1383
  514MOL0     H70932   7.881   4.175   7.641  0.6667 -0.6286  3.9021
  515MOL0     O70933   3.016   2.366   6.949  0.6408 -0.3663  0.0400
  515MOL0     C70934   2.925   2.289   6.917  0.7157  0.4535  0.4625
  515MOL0     O70935   2.948   2.169   6.856 -0.3385 -0.5771  0.1672
  515MOL0     C70936   3.085   2.132   6.843  0.1937  0.1156  1.0895
  515MOL0     C70937   3.158   2.175   6.731  0.0393 -0.3027 -0.5681
  515MOL0     C70938   3.299   2.154   6.727  1.0334 -0.2372 -0.0034
  515MOL0     C70939   3.357   2.097   6.836 -0.4004  0.9369  0.5361
  515MOL0     O70940   3.493   2.083   6.820  1.1953  0.3626 -0.3444
  515MOL0     C70941   3.560   1.964   6.855 -0.2928  0.2449  0.8961
  515MOL0     C70942   3.704   1.960   6.802 -0.5275  0.4961  0.1729
  515MOL0     C70943   3.785   2.094   6.821  0.4822  0.1145  0.3209
  515MOL0     C70944   3.806   2.131   6.969  0.4781 -0.1524 -0.3351
  515MOL0     C70945   3.958   2.177   6.983 -0.6151  0.3871  0.2932
  515MOL0     C70946   4.063   2.057   6.978  0.0638  1.1753 -0.4616
  515MOL0     C70947   4.202   2.077   7.027 -0.3872 -0.3510 -0.4197
  515MOL0     C70948   4.267   2.183   6.942  0.5284 -0.1599  0.0696
  515MOL0     N70949   4.405   2.212   6.975  0.1879  0.9816 -0.3710
  515MOL0     C70950   4.491   2.118   7.027  0.4728  0.5115 -0.6414
  515MOL0     C70951   4.614   2.184   7.014  0.2709 -0.4952 -0.5205
  515MOL0     C70952   4.753   2.126   7.042  0.1360 -0.7128  0.5505
  515MOL0     C70953   4.858   2.219   6.974  0.7254  0.3579  0.0010
  515MOL0     C70954   4.998   2.161   6.995 -0.2323 -0.3152 -0.0053
  515MOL0     C70955   5.087   2.262   6.920 -0.2844  0.5624  0.0225
  515MOL0     O70956   5.228   2.220   6.942  0.0461 -0.3333  0.4788
  515MOL0     C70957   5.326   2.294   6.883 -0.1902  0.0768  0.4634
  515MOL0     C70958   5.326   2.425   6.838  0.3119 -0.2453 -0.8906
  515MOL0     C70959   5.441   2.486   6.784 -0.0444  0.0346  0.0201
  515MOL0     C70960   5.434   2.626   6.740  0.8594  1.1169 -1.0733
  515MOL0     C70961   5.564   2.411   6.785 -0.2212  0.0536  0.5285
  515MOL0     C70962   5.700   2.448   6.723  0.5801 -0.1709  0.1885
  515MOL0     O70963   5.810   2.383   6.774 -0.7617 -0.3147  0.8888
  515MOL0     C70964   5.928   2.416   6.713  0.0974  0.0885 -0.1792
  515MOL0     C70965   5.962   2.333   6.604 -0.1125 -0.2360 -0.1512
  515MOL0     C70966   6.092   2.348   6.540 -0.6160 -1.0496  0.2340
  515MOL0     C70967   6.170   2.454   6.588  0.7476 -1.2516 -0.3226
  515MOL0     O70968   6.299   2.484   6.551 -0.5521  0.8920 -0.0384
  515MOL0     C70969   6.323   2.488   6.416  0.6081 -0.3871 -0.7923
  515MOL0     C70970   6.462   2.546   6.367 -0.8160 -0.3371 -0.7438
  515MOL0     C70971   6.576   2.476   6.434 -0.3545 -0.2480  1.0655
  515MOL0     C70972   6.712   2.556   6.425 -0.3719  0.0154  0.1083
  515MOL0     C70973   6.826   2.469   6.481 -0.0946  0.3076 -0.1339
  515MOL0     C70974   6.961   2.545   6.468  0.4863  0.0567 -0.3340
  515MOL0     C70975   7.072   2.479   6.544  0.1156 -0.4612 -0.3561
  515MOL0     C70976   7.217   2.516   6.494 -0.3430  0.0034  0.3303
  515MOL0    Cl70977   7.349   2.452   6.598 -0.1251 -0.1964  0.4587
  515MOL0     C70978   6.136   2.526   6.701  0.1143  0.0787  0.1256
  515MOL0     C70979   6.013   2.509   6.764  0.7037  0.1768  0.6320
  515MOL0     O70980   5.699   2.531   6.639 -0.5590 -0.5296  0.0858
  515MOL0     C70981   5.562   2.282   6.841  0.2378  0.1878  0.1589
  515MOL0     C70982   5.447   2.220   6.879  0.3447 -0.0828 -0.1439
  515MOL0     N70983   4.592   2.315   6.965 -0.1300  0.1133 -0.8196
  515MOL0     N70984   4.464   2.329   6.945 -0.1684  0.2380  0.0230
  515MOL0     C70985   3.292   2.067   6.951  0.4301 -0.1236  0.3066
  515MOL0     C70986   3.155   2.084   6.954  0.4907 -0.6069  0.6024
  515MOL0     C70987   2.777   2.320   6.920 -0.4071 -0.8098 -0.0624
  515MOL0     C70988   2.681   2.222   6.874 -0.1430 -1.1227  0.0446
  515MOL0     C70989   2.545   2.250   6.869  0.8314  0.0540  0.5600
  515MOL0     C70990   2.497   2.376   6.908 -0.1225  0.3997 -0.2432
  515MOL0     O70991   2.364   2.412   6.904  0.5116  0.3841 -0.6887
  515MOL0     C70992   2.266   2.342   6.827 -0.4757  0.0760  0.1996
  515MOL0     C70993   2.138   2.404   6.866  0.5392 -0.6173  0.4786
  515MOL0     C70994   2.017   2.350   6.774 -0.6932 -0.5728  0.4735
  515MOL0     C70995   1.893   2.420   6.824 -0.4155  0.3839 -0.0417
  515MOL0     C70996   1.775   2.385   6.740  0.8362 -1.2176  0.4718
  515MOL0     C70997   1.681   2.366   6.663 -0.3709  0.4736  0.0695
  515MOL0     C70998   2.589   2.471   6.956  0.0780  0.5445  0.2446
  515MOL0     C70999   2.730   2.449   6.971  0.1034  0.4895 -0.1401
  515MOL0     C71000   2.818   2.551   7.041  0.2691  0.2044 -0.1562
  515MOL0     H71001   3.100   2.221   6.652 -3.1807 -2.9506  0.0063
  515MOL0     H71002   3.365   2.183   6.646 -0.1901  2.1119 -0.2388
  515MOL0     H71003   3.499   1.884   6.813  0.2143  1.3213 -2.1182
  515MOL0     H71004   3.573   1.957   6.964  1.7541  0.8254  0.7403
  515MOL0     H71005   3.757   1.876   6.847  1.1455  1.1545 -0.5072
  515MOL0     H71006   3.702   1.940   6.695 -2.0293  1.4022  0.0020
  515MOL0     H71007   3.879   2.088   6.765  0.6355  2.4321  0.2706
  515MOL0     H71008   3.731   2.172   6.766  1.8242  2.2913  1.9726
  515MOL0     H71009   3.732   2.205   6.999  1.0576 -0.2750  1.5194
  515MOL0     H71010   3.800   2.052   7.045 -0.1565  0.9293  0.7804
  515MOL0     H71011   3.978   2.221   7.081  2.1620  0.0336 -0.0292
  515MOL0     H71012   3.976   2.247   6.901  0.8079 -2.3544 -1.9403
  515MOL0     H71013   4.022   1.972   7.034  0.5526  1.9198  1.0748
  515MOL0     H71014   4.079   2.019   6.876 -2.7912 -4.9438  0.9172
  515MOL0     H71015   4.261   1.986   7.012  2.1400  0.7631  1.7733
  515MOL0     H71016   4.195   2.108   7.132 -0.4096  3.9433 -1.4910
  515MOL0     H71017   4.259   2.151   6.838  1.1638 -1.3739  0.3725
  515MOL0     H71018   4.209   2.276   6.946 -0.3067 -0.6540 -0.2306
  515MOL0     H71019   4.466   2.018   7.060 -2.5172  0.8904 -1.4604
  515MOL0     H71020   4.770   2.026   7.002  1.2990 -0.1422 -0.4499
  515MOL0     H71021   4.769   2.117   7.150  2.2343  0.5290  0.4031
  515MOL0     H71022   4.832   2.227   6.868 -2.3985  0.2555  0.6658
  515MOL0     H71023   4.860   2.315   7.026 -1.1531  0.5376 -0.1621
  515MOL0     H71024   5.018   2.158   7.103  2.1040 -0.2752 -0.4002
  515MOL0     H71025   5.011   2.058   6.961 -1.5412 -1.0656  1.6088
  515MOL0     H71026   5.078   2.257   6.811 -1.6646  3.3710 -0.0900
  515MOL0     H71027   5.070   2.369   6.939  2.0513  1.1262 -0.8390
  515MOL0     H71028   5.231   2.478   6.841 -0.6726 -1.9634  0.7025
  515MOL0     H71029   5.329   2.656   6.743  0.5708  0.0524  0.0526
  515MOL0     H71030   5.468   2.633   6.636  0.2446  2.9006 -1.1832
  515MOL0     H71031   5.489   2.692   6.807 -0.6237  0.7703  0.5505
  515MOL0     H71032   5.898   2.262   6.553  2.2847 -1.4898 -1.5964
  515MOL0     H71033   6.128   2.286   6.459  2.3247 -0.6919  1.1376
  515MOL0     H71034   6.307   2.383   6.388 -2.0855 -0.8206  1.8090
  515MOL0     H71035   6.249   2.549   6.364  1.3155  0.8274 -0.4146
  515MOL0     H71036   6.469   2.542   6.258  0.3753  0.8606 -0.7255
  515MOL0     H71037   6.460   2.651   6.398  2.0222 -0.9617  2.0982
  515MOL0     H71038   6.590   2.388   6.370  1.4809  0.3180  0.6164
  515MOL0     H71039   6.554   2.438   6.534 -0.6485 -0.8471  0.7776
  515MOL0     H71040   6.711   2.645   6.488  3.9758 -0.5342  1.3366
  515MOL0     H71041   6.731   2.589   6.322 -3.9121  1.1172 -0.3294
  515MOL0     H71042   6.805   2.443   6.585 -2.7193  3.4670  0.2872
  515MOL0     H71043   6.835   2.377   6.423  3.6437 -0.9874  2.0880
  515MOL0     H71044   6.946   2.648   6.501  1.0174 -0.0746  0.3251
  515MOL0     H71045   6.987   2.550   6.362 -0.9629  1.7637 -0.6572
  515MOL0     H71046   7.062   2.370   6.544 -0.8466 -0.3966  0.5142
  515MOL0     H71047   7.064   2.512   6.648 -0.8918 -0.3459 -0.4591
  515MOL0     H71048   7.219   2.625   6.500 -1.1460  0.1476 -1.5639
  515MOL0     H71049   7.231   2.476   6.393 -1.0538 -2.8751  1.2632
  515MOL0     H71050   6.216   2.585   6.744  0.8933 -0.7691 -0.1364
  515MOL0     H71051   5.982   2.553   6.858  0.9327 -2.1943  1.8825
  515MOL0     H71052   5.648   2.217   6.851 -0.7470 -0.9421  1.5389
  515MOL0     H71053   5.459   2.114   6.899 -1.4034 -0.4588 -0.9496
  515MOL0     H71054   3.349   2.029   7.035  0.4671  1.7480  1.1913
  515MOL0     H71055   3.101   2.052   7.042  0.5145  1.2850  1.3588
  515MOL0     H71056   2.708   2.132   6.821 -1.6854 -0.6701 -1.6024
  515MOL0     H71057   2.483   2.168   6.835  1.1254  0.3736 -0.8014
  515MOL0     H71058   2.289   2.360   6.722 -1.1530 -2.1909 -0.3912
  515MOL0     H71059   2.265   2.235   6.851  0.1137  0.3798  1.7595
  515MOL0     H71060   2.154   2.512   6.856  1.4736 -0.8158 -0.3679
  515MOL0     H71061   2.111   2.389   6.971  0.4232 -0.7922  0.4227
  515MOL0     H71062   2.040   2.380   6.672  0.3698  1.2820  1.1986
  515MOL0     H71063   2.015   2.241   6.772  0.7062 -0.6401 -2.9142
  515MOL0     H71064   1.904   2.529   6.821 -3.3380  0.7615  0.0815
  515MOL0     H71065   1.864   2.389   6.924 -2.3672 -1.1735 -1.0318
  515MOL0     H71066   1.597   2.366   6.595  1.3157  2.7060 -2.2014
  515MOL0     H71067   2.545   2.563   6.993  1.7358  1.1362  0.8100
  515MOL0     H71068   2.868   2.485   7.112  0.7005 -1.7539 -2.1667
  515MOL0     H71069   2.895   2.590   6.973  1.0708  1.4067  1.3584
  515MOL0     H71070   2.767   2.636   7.088  1.2427 -0.1793  1.6890
  516MOL0     O71071   1.733   3.857   3.759 -0.2772  0.1014  0.0139
  516MOL0     C71072   1.819   3.831   3.842 -0.8105 -0.0650  0.0012
  516MOL0     O71073   1.819   3.744   3.953 -0.0807 -0.5109  0.0196
  516MOL0     C71074   1.694   3.699   3.986  0.6367  0.5056 -0.1386
  516MOL0     C71075   1.658   3.560   3.972 -0.1645 -0.4545 -0.6062
  516MOL0     C71076   1.544   3.506   4.043 -0.7948 -0.4544  0.3469
  516MOL0     C71077   1.461   3.592   4.119  0.6774  0.3131 -0.3507
  516MOL0     O71078   1.359   3.548   4.203 -0.4661 -0.4843  0.1310
  516MOL0     C71079   1.372   3.417   4.253 -0.9334 -0.5661 -0.1950
  516MOL0     C71080   1.261   3.390   4.350  0.7765  0.7106  0.9813
  516MOL0     C71081   1.260   3.248   4.399 -0.3436  0.4509  1.0208
  516MOL0     C71082   1.360   3.210   4.506  0.9152 -0.6167  0.6074
  516MOL0     C71083   1.314   3.094   4.593  0.2626  0.4805 -0.2493
  516MOL0     C71084   1.424   3.026   4.684  0.1996  0.2932  0.5652
  516MOL0     C71085   1.376   2.909   4.780 -0.0179  0.9049  0.2707
  516MOL0     C71086   1.292   2.790   4.719  0.2642  1.1018  0.5023
  516MOL0     N71087   1.261   2.683   4.813  0.1887  0.3111 -0.5757
  516MOL0     C71088   1.286   2.672   4.947 -1.2871  0.9715  0.5269
  516MOL0     C71089   1.252   2.546   4.984 -0.7068  0.3345 -0.0658
  516MOL0     C71090   1.247   2.499   5.132  0.4689 -0.0492  0.0864
  516MOL0     C71091   1.385   2.471   5.192  0.4414  0.1389 -0.5683
  516MOL0     C71092   1.357   2.424   5.338  0.2688 -0.2822 -0.6106
  516MOL0     C71093   1.473   2.373   5.416  0.1776 -1.1072  0.2661
  516MOL0     O71094   1.502   2.233   5.386  0.3904  0.4192 -0.7315
  516MOL0     C71095   1.634   2.185   5.392 -0.0731  0.1921 -0.8672
  516MOL0     C71096   1.733   2.251   5.478  0.4139  0.0969  0.6349
  516MOL0     C71097   1.858   2.188   5.507  0.2336 -0.3618  0.1522
  516MOL0     C71098   1.958   2.259   5.603  0.2185 -0.3412  0.0764
  516MOL0     C71099   1.887   2.065   5.444 -0.4950 -0.4421 -0.5390
  516MOL0     C71100   2.015   1.992   5.473 -0.4744  0.0810  0.0900
  516MOL0     O71101   2.128   2.055   5.425  0.0561 -0.6302  0.9032
  516MOL0     C71102   2.255   2.000   5.443 -0.5638  0.1710  0.0409
  516MOL0     C71103   2.360   2.090   5.403 -0.4776 -0.0360 -0.6833
  516MOL0     C71104   2.493   2.060   5.448 -0.4068 -0.7931 -0.0007
  516MOL0     C71105   2.518   1.949   5.516 -0.1703  0.1883  0.5929
  516MOL0     O71106   2.641   1.886   5.537  0.7941  0.3444  0.7321
  516MOL0     C71107   2.766   1.956   5.496  0.6155 -0.3325 -0.4826
  516MOL0     C71108   2.801   2.062   5.594  0.1845 -0.4004 -0.8645
  516MOL0     C71109   2.931   2.127   5.567 -0.4228 -0.6247  0.6592
  516MOL0     C71110   2.949   2.263   5.617  0.2216 -0.5123 -0.0062
  516MOL0     C71111   3.095   2.307   5.620  0.2754  0.5635  0.5715
  516MOL0     C71112   3.109   2.431   5.706  0.6290 -0.5922 -0.1772
  516MOL0     C71113   3.064   2.545   5.623  0.2569  0.1623 -0.6585
  516MOL0     C71114   3.135   2.670   5.666 -0.2162 -0.3041  0.4084
  516MOL0    Cl71115   3.080   2.812   5.575 -0.1501  0.0029  0.3118
  516MOL0     C71116   2.419   1.865   5.538 -0.0502  0.8852 -0.2074
  516MOL0     C71117   2.287   1.882   5.507 -0.0788  0.0798  0.6778
  516MOL0     O71118   2.003   1.870   5.505 -0.0686  0.0042 -0.5339
  516MOL0     C71119   1.798   2.013   5.358  0.3265 -0.0521 -0.1780
  516MOL0     C71120   1.675   2.070   5.325  0.1937  0.1494 -1.1071
  516MOL0     N71121   1.194   2.484   4.877 -0.6088  0.5255  0.3956
  516MOL0     N71122   1.206   2.560   4.773 -0.3692  0.7790  0.2660
  516MOL0     C71123   1.487   3.728   4.117  0.0579  0.4363 -0.8850
  516MOL0     C71124   1.603   3.778   4.056 -0.6793  0.2203 -0.2533
  516MOL0     C71125   1.932   3.925   3.837 -0.2967 -1.5037 -0.0615
  516MOL0     C71126   2.000   3.949   3.959 -0.1187 -0.2398  0.1240
  516MOL0     C71127   2.113   4.029   3.958 -0.5122  0.0734 -0.4151
  516MOL0     C71128   2.157   4.088   3.845  0.7767  0.2149  0.0692
  516MOL0     O71129   2.279   4.148   3.868  0.4915  0.2739 -0.4189
  516MOL0     C71130   2.341   4.229   3.770  0.3824  0.5011  0.6873
  516MOL0     C71131   2.484   4.262   3.824  0.0303  0.0940  0.0318
  516MOL0     C71132   2.572   4.335   3.722  0.2527 -0.0851  0.8378
  516MOL0     C71133   2.620   4.239   3.607 -0.4469  0.2235  0.1753
  516MOL0     C71134   2.704   4.315   3.508  0.2509  0.3780  0.8106
  516MOL0     C71135   2.744   4.347   3.398 -0.5358  0.0578  1.0131
  516MOL0     C71136   2.088   4.084   3.726  0.8665  0.5173  0.0687
  516MOL0     C71137   1.972   3.999   3.719 -0.7289 -0.6707 -0.6502
  516MOL0     C71138   1.905   3.991   3.588 -0.2257  0.1197 -0.1429
  516MOL0     H71139   1.724   3.487   3.926 -0.3784  0.3879 -2.3589
  516MOL0     H71140   1.516   3.404   4.020 -0.5468 -1.1071  2.6621
  516MOL0     H71141   1.464   3.402   4.312 -1.5695  0.4727  1.1182
  516MOL0     H71142   1.363   3.342   4.174  1.3179 -0.5376 -0.5525
  516MOL0     H71143   1.257   3.453   4.440  0.6853 -2.0494  3.0312
  516MOL0     H71144   1.167   3.390   4.295  0.5934 -3.4013  1.0013
  516MOL0     H71145   1.162   3.226   4.443 -0.4676 -1.5980 -0.1532
  516MOL0     H71146   1.268   3.185   4.310 -0.2546  1.3135  0.4040
  516MOL0     H71147   1.449   3.177   4.451 -0.3276 -1.4438 -0.9845
  516MOL0     H71148   1.383   3.290   4.577  2.0409 -1.6139  1.4183
  516MOL0     H71149   1.271   3.015   4.530  2.5102 -1.3533  0.3951
  516MOL0     H71150   1.237   3.122   4.666 -0.7056 -1.5947 -0.3944
  516MOL0     H71151   1.510   2.997   4.622  0.7470  0.4470  1.2439
  516MOL0     H71152   1.468   3.102   4.749  1.2657 -1.3748  1.9119
  516MOL0     H71153   1.318   2.955   4.861  2.2021  0.5411  2.1677
  516MOL0     H71154   1.461   2.857   4.824 -0.7514  0.4654  1.2151
  516MOL0     H71155   1.198   2.828   4.678 -0.1613  0.7926  1.1743
  516MOL0     H71156   1.349   2.746   4.637  0.3601 -0.5369  1.4200
  516MOL0     H71157   1.323   2.756   5.004  1.1665  0.0381  0.4121
  516MOL0     H71158   1.182   2.412   5.141  0.9787 -0.2513  2.4705
  516MOL0     H71159   1.206   2.579   5.195 -0.0890 -0.7469  0.6149
  516MOL0     H71160   1.437   2.411   5.116 -0.4621  1.3691 -2.2262
  516MOL0     H71161   1.432   2.569   5.202  1.6049 -0.5085  0.5830
  516MOL0     H71162   1.320   2.512   5.391  0.1723  0.0569 -1.2315
  516MOL0     H71163   1.278   2.350   5.357  0.1617  0.0163  0.1385
  516MOL0     H71164   1.566   2.429   5.399  0.7390 -2.2416 -0.5262
  516MOL0     H71165   1.456   2.384   5.524  0.7594 -0.1430  0.2745
  516MOL0     H71166   1.709   2.343   5.528  1.9370  0.6536  0.3882
  516MOL0     H71167   1.933   2.365   5.610  1.4905 -0.0522  0.5741
  516MOL0     H71168   2.056   2.255   5.554 -0.4728 -1.1932 -1.2947
  516MOL0     H71169   1.965   2.214   5.703  0.1261  0.5202  0.4762
  516MOL0     H71170   2.348   2.186   5.353  3.7724  1.0881  0.0834
  516MOL0     H71171   2.579   2.120   5.422 -1.5492  0.8641 -0.1095
  516MOL0     H71172   2.843   1.879   5.500  0.0056 -0.9005  1.4479
  516MOL0     H71173   2.765   1.982   5.390  2.7591 -0.0153 -0.4561
  516MOL0     H71174   2.717   2.132   5.590  1.3107  1.0661  0.2773
  516MOL0     H71175   2.802   2.022   5.696 -0.1861 -0.8894 -1.0417
  516MOL0     H71176   2.958   2.121   5.461  1.2757  0.4015  1.0052
  516MOL0     H71177   3.001   2.070   5.628 -0.3974  1.4307  2.6823
  516MOL0     H71178   2.904   2.268   5.716 -0.6778 -0.8155 -0.3875
  516MOL0     H71179   2.899   2.341   5.557 -1.5478 -0.6044  1.2752
  516MOL0     H71180   3.156   2.225   5.659  1.3500  1.7327  1.4176
  516MOL0     H71181   3.123   2.308   5.514  2.9776  0.1085  1.2043
  516MOL0     H71182   3.210   2.439   5.748  0.1531 -0.7094  1.0220
  516MOL0     H71183   3.045   2.422   5.794 -0.1572 -1.9853 -0.8546
  516MOL0     H71184   2.958   2.554   5.648  0.5470  0.5754  0.4985
  516MOL0     H71185   3.089   2.535   5.517  0.4705  2.6235 -0.8829
  516MOL0     H71186   3.244   2.661   5.661 -0.3761 -1.7597 -1.3505
  516MOL0     H71187   3.122   2.692   5.773  0.9079  1.3788  0.2384
  516MOL0     H71188   2.438   1.767   5.582 -0.5635  0.1202 -1.6092
  516MOL0     H71189   2.216   1.807   5.542  2.6245 -2.0934  1.8780
  516MOL0     H71190   1.824   1.917   5.313 -1.8932  0.4373 -2.7599
  516MOL0     H71191   1.604   2.010   5.268 -1.2714  0.8618 -0.1096
  516MOL0     H71192   1.429   3.788   4.186  1.2957 -0.1158  0.6937
  516MOL0     H71193   1.629   3.881   4.076  0.8010 -0.4467  1.4648
  516MOL0     H71194   1.971   3.901   4.052 -0.1461  0.2780  0.3819
  516MOL0     H71195   2.172   4.047   4.047 -0.6686 -1.3452  0.0032
  516MOL0     H71196   2.360   4.175   3.677 -0.0900  0.7346  0.4557
  516MOL0     H71197   2.291   4.321   3.737  2.5111  1.3730 -0.2955
  516MOL0     H71198   2.535   4.168   3.846  0.1011  0.3266  0.8882
  516MOL0     H71199   2.481   4.320   3.916  2.4921  0.9649 -0.3775
  516MOL0     H71200   2.521   4.417   3.671  2.5893  0.8953 -0.0753
  516MOL0     H71201   2.655   4.381   3.777  1.3090 -4.0714  3.0058
  516MOL0     H71202   2.542   4.179   3.559  0.6998  0.6504 -2.4355
  516MOL0     H71203   2.696   4.172   3.646 -0.9179 -1.1880 -1.1989
  516MOL0     H71204   2.783   4.368   3.300  0.2587 -1.9183  0.8775
  516MOL0     H71205   2.124   4.143   3.643 -2.6024  0.4798 -1.6288
  516MOL0     H71206   1.804   4.032   3.600  0.0319  0.0536  2.9714
  516MOL0     H71207   1.959   4.046   3.510  2.5869  0.4330  1.9095
  516MOL0     H71208   1.894   3.889   3.549  2.1618 -1.3483  2.6704
  517MOL0     O71209   5.946   3.552   9.236 -0.5740 -0.6179  0.0935
  517MOL0     C71210   5.932   3.675   9.268 -0.3906  0.0590  0.1980
  517MOL0     O71211   6.034   3.755   9.317  0.5608  0.1125 -1.0696
  517MOL0     C71212   6.161   3.700   9.330  0.6003 -0.6587 -0.9135
  517MOL0     C71213   6.191   3.563   9.373 -0.3501  0.1049  0.6561
  517MOL0     C71214   6.320   3.518   9.379  0.3382  0.5408  0.0986
  517MOL0     C71215   6.424   3.612   9.345  0.2255  0.4222 -0.7000
  517MOL0     O71216   6.555   3.578   9.367  0.5616  0.0568  0.0317
  517MOL0     C71217   6.596   3.472   9.284 -0.1612 -0.0047 -0.0349
  517MOL0     C71218   6.742   3.506   9.261 -0.3023  0.2362 -0.1566
  517MOL0     C71219   6.805   3.427   9.148  0.2269 -0.5196  0.3880
  517MOL0     C71220   6.951   3.458   9.141  0.1493  0.2527 -0.1347
  517MOL0     C71221   7.012   3.385   9.027 -0.2468 -0.4199  0.4517
  517MOL0     C71222   6.967   3.418   8.881 -0.1829  0.2677 -0.0379
  517MOL0     C71223   7.011   3.553   8.836 -0.6005  0.1570  0.5751
  517MOL0     C71224   7.162   3.590   8.841 -0.2676 -0.2878 -0.5526
  517MOL0     N71225   7.207   3.679   8.725  0.6220  0.5004 -0.3100
  517MOL0     C71226   7.270   3.627   8.613  1.1096  0.2538 -0.1288
  517MOL0     C71227   7.281   3.734   8.540 -0.3033 -0.3762 -0.0924
  517MOL0     C71228   7.338   3.738   8.397  0.5216  0.4631 -0.3700
  517MOL0     C71229   7.489   3.739   8.410  0.2569  0.5209  0.1836
  517MOL0     C71230   7.550   3.862   8.474  0.4107 -0.2314 -0.6200
  517MOL0     C71231   7.532   3.993   8.404 -0.9071  0.3897  0.3534
  517MOL0     O71232   7.583   3.980   8.271  0.3460 -0.1663 -0.1962
  517MOL0     C71233   7.567   4.102   8.200 -0.3594 -0.0287 -0.0279
  517MOL0     C71234   7.678   4.167   8.141  0.3589  0.1060 -0.1160
  517MOL0     C71235   7.660   4.288   8.069 -0.2103 -0.5474 -0.6196
  517MOL0     C71236   7.786   4.343   8.020 -0.1054  0.4485 -0.2812
  517MOL0     C71237   7.525   4.344   8.047  0.0511 -0.0527 -0.0544
  517MOL0     C71238   7.492   4.470   7.975  0.2541 -0.6305 -1.0989
  517MOL0     O71239   7.366   4.513   7.969  0.1742  0.3294  0.3592
  517MOL0     C71240   7.354   4.644   7.927  0.0247 -0.0543  0.6678
  517MOL0     C71241   7.404   4.702   7.803  0.0350 -0.2466 -0.3584
  517MOL0     C71242   7.416   4.839   7.779 -0.0812  0.4363 -0.2780
  517MOL0     C71243   7.372   4.922   7.879 -0.0691 -0.4411 -0.3249
  517MOL0     O71244   7.373   5.055   7.838  0.5657  0.5285  0.1658
  517MOL0     C71245   7.366   5.146   7.948  0.0179  0.0130 -0.3624
  517MOL0     C71246   7.449   5.270   7.915 -1.0357  0.3734  0.8204
  517MOL0     C71247   7.595   5.246   7.910 -0.5233 -0.5256  0.1294
  517MOL0     C71248   7.668   5.246   8.050  0.6936  0.3315  0.4434
  517MOL0     C71249   7.815   5.197   8.038  0.1982  0.6791 -0.0879
  517MOL0     C71250   7.911   5.322   8.029 -0.6382 -0.4296  0.1725
  517MOL0     C71251   7.923   5.375   8.173 -0.4656  0.2755  1.4782
  517MOL0     C71252   8.040   5.465   8.210 -0.3681  0.2614 -0.3676
  517MOL0    Cl71253   8.194   5.444   8.119 -0.5583  0.2692  0.3862
  517MOL0     C71254   7.314   4.868   8.003  0.5137  0.0136  0.1912
  517MOL0     C71255   7.307   4.726   8.024 -0.2108  0.6597 -0.4601
  517MOL0     O71256   7.593   4.538   7.953 -0.5152 -1.0648  0.2580
  517MOL0     C71257   7.409   4.264   8.092  0.0932  0.1978  0.2281
  517MOL0     C71258   7.433   4.147   8.167  0.2514 -0.7635 -0.1809
  517MOL0     N71259   7.215   3.840   8.599 -0.3267 -0.1713  0.2773
  517MOL0     N71260   7.172   3.807   8.711 -1.0452  0.4678 -0.0332
  517MOL0     C71261   6.393   3.744   9.303  0.3708  0.6611  0.4298
  517MOL0     C71262   6.274   3.785   9.297 -0.3222  0.3567 -0.4524
  517MOL0     C71263   5.797   3.731   9.256 -0.2748 -0.7811  0.2248
  517MOL0     C71264   5.769   3.866   9.288 -0.4817 -0.4506  1.0094
  517MOL0     C71265   5.646   3.912   9.305 -0.3033 -0.5300  0.7644
  517MOL0     C71266   5.540   3.836   9.278 -0.7175 -0.1533 -0.6079
  517MOL0     O71267   5.417   3.894   9.285 -0.3941 -0.3438 -0.1325
  517MOL0     C71268   5.300   3.820   9.267  0.5852 -0.8276 -0.1165
  517MOL0     C71269   5.178   3.912   9.286 -0.4150 -0.2322 -0.7052
  517MOL0     C71270   5.061   3.856   9.371  0.1092  0.1884 -0.6364
  517MOL0     C71271   4.931   3.938   9.349 -1.2352  0.5147  0.4791
  517MOL0     C71272   4.820   3.875   9.426 -0.7385  0.3124  0.4779
  517MOL0     C71273   4.725   3.805   9.460 -0.1404 -0.5438 -0.5911
  517MOL0     C71274   5.556   3.708   9.219 -0.2568 -0.2527  0.4017
  517MOL0     C71275   5.688   3.656   9.216  0.2775  0.7258 -0.5354
  517MOL0     C71276   5.693   3.510   9.160 -0.5417 -1.2423 -0.0143
  517MOL0     H71277   6.103   3.510   9.408  1.1553 -0.5594  3.7753
  517MOL0     H71278   6.345   3.418   9.412  3.0025  0.6061 -1.4134
  517MOL0     H71279   6.555   3.460   9.183 -0.4043 -2.0224  0.2570
  517MOL0     H71280   6.586   3.376   9.337 -2.2000 -0.1109 -0.5247
  517MOL0     H71281   6.744   3.612   9.234 -2.5797  0.6840  1.1874
  517MOL0     H71282   6.795   3.501   9.357  1.4886  2.1256 -0.9544
  517MOL0     H71283   6.789   3.321   9.168  0.2595 -0.9059 -1.4544
  517MOL0     H71284   6.757   3.465   9.057  0.2937 -0.8235  0.2262
  517MOL0     H71285   6.978   3.564   9.137 -0.0112  0.2805 -0.6008
  517MOL0     H71286   7.005   3.411   9.224 -2.1656 -2.5952 -0.0730
  517MOL0     H71287   6.998   3.277   9.036 -2.2717 -0.4059 -1.5648
  517MOL0     H71288   7.119   3.405   9.038 -0.0304 -1.4665  0.3315
  517MOL0     H71289   7.020   3.348   8.816  1.3372 -1.2182  2.6394
  517MOL0     H71290   6.859   3.416   8.860  0.0218  1.7823 -1.5402
  517MOL0     H71291   6.965   3.637   8.889  2.8334  3.2907 -0.9686
  517MOL0     H71292   6.984   3.573   8.731  0.1679 -1.7973 -0.0305
  517MOL0     H71293   7.200   3.643   8.929  1.8445 -3.2948  0.5074
  517MOL0     H71294   7.217   3.496   8.847 -0.4172 -0.3206  0.6382
  517MOL0     H71295   7.296   3.523   8.602 -0.4574 -0.0308 -1.4212
  517MOL0     H71296   7.302   3.833   8.357 -0.6605  0.0556 -0.3077
  517MOL0     H71297   7.324   3.649   8.334  0.4128 -0.8710  1.4443
  517MOL0     H71298   7.524   3.649   8.461  0.8027  1.4540  1.5139
  517MOL0     H71299   7.536   3.746   8.311 -1.0924  0.8703 -0.4558
  517MOL0     H71300   7.520   3.870   8.579 -1.3475  1.8837 -1.1947
  517MOL0     H71301   7.658   3.847   8.477  0.2418 -1.2933  1.5656
  517MOL0     H71302   7.423   4.005   8.406 -1.2522 -2.2719  0.5500
  517MOL0     H71303   7.581   4.077   8.454 -0.3730  0.0862  0.3431
  517MOL0     H71304   7.776   4.123   8.157  0.6965 -0.7833 -3.8620
  517MOL0     H71305   7.868   4.300   8.079 -1.1308  1.2585  1.8751
  517MOL0     H71306   7.793   4.449   8.049  3.6240 -0.0476  1.1351
  517MOL0     H71307   7.788   4.333   7.911 -3.2571  1.4980 -0.5337
  517MOL0     H71308   7.428   4.623   7.731  0.4441 -1.8014  1.3965
  517MOL0     H71309   7.461   4.866   7.684  1.0696 -1.1860 -0.2369
  517MOL0     H71310   7.262   5.170   7.967 -0.4895 -1.2324 -1.3640
  517MOL0     H71311   7.418   5.095   8.030  1.7366 -2.0618 -2.5449
  517MOL0     H71312   7.407   5.319   7.826  0.3150 -0.1750 -0.1424
  517MOL0     H71313   7.431   5.341   7.996 -1.4082 -0.6111  1.6275
  517MOL0     H71314   7.646   5.321   7.848 -0.3214 -0.6615  0.1259
  517MOL0     H71315   7.622   5.151   7.861  2.5061 -0.2817  1.1220
  517MOL0     H71316   7.612   5.163   8.093  0.1498 -1.0098 -2.5837
  517MOL0     H71317   7.652   5.339   8.105 -2.6944 -0.7440  1.4985
  517MOL0     H71318   7.846   5.126   8.115  0.7716  1.2716  0.2362
  517MOL0     H71319   7.829   5.138   7.947 -3.2621 -0.0459 -0.3112
  517MOL0     H71320   7.879   5.403   7.962  1.1747  0.0395 -0.1949
  517MOL0     H71321   8.007   5.281   7.998  1.1707  2.8783  0.8860
  517MOL0     H71322   7.945   5.293   8.241  1.1061 -0.2758  0.3498
  517MOL0     H71323   7.827   5.418   8.206 -0.6037  0.5751  0.7185
  517MOL0     H71324   8.073   5.455   8.314 -0.0715  0.5384 -0.4307
  517MOL0     H71325   8.013   5.569   8.190  0.2139  0.4378 -0.2597
  517MOL0     H71326   7.267   4.928   8.080  0.4080 -0.1420  0.2478
  517MOL0     H71327   7.278   4.688   8.122  0.9288  1.2194  0.1212
  517MOL0     H71328   7.305   4.294   8.085  0.6698  2.3283  0.3614
  517MOL0     H71329   7.347   4.087   8.197  0.3281 -1.1602 -0.7381
  517MOL0     H71330   6.476   3.813   9.294 -0.1737  1.2880  0.1134
  517MOL0     H71331   6.261   3.892   9.282 -1.1031  0.3559  0.1192
  517MOL0     H71332   5.853   3.932   9.305 -0.3976  0.1468 -1.3530
  517MOL0     H71333   5.649   4.012   9.347 -0.8922 -1.6184  3.6346
  517MOL0     H71334   5.294   3.785   9.164  1.0282 -0.9815 -0.0930
  517MOL0     H71335   5.303   3.741   9.344  2.9050 -0.5422  0.1632
  517MOL0     H71336   5.134   3.926   9.187  1.6354 -2.2901 -1.9977
  517MOL0     H71337   5.201   4.015   9.314 -0.7572 -0.0456 -1.1013
  517MOL0     H71338   5.035   3.751   9.359 -2.2970 -0.0214  4.1899
  517MOL0     H71339   5.091   3.864   9.476  1.5903  0.9976 -1.0831
  517MOL0     H71340   4.906   3.957   9.244 -0.7422 -1.6497 -0.0640
  517MOL0     H71341   4.963   4.033   9.394 -0.0415  1.7192 -2.6739
  517MOL0     H71342   4.630   3.755   9.468 -2.1442  3.0250 -0.0829
  517MOL0     H71343   5.468   3.648   9.199 -0.2196  0.4192 -2.1040
  517MOL0     H71344   5.754   3.514   9.070 -0.1497  0.7723  0.2922
  517MOL0     H71345   5.729   3.449   9.244  0.4904  0.7030  1.0127
  517MOL0     H71346   5.598   3.468   9.127 -0.2258  0.5494 -3.6199
  518MOL0     O71347   2.339   2.891   2.302  0.2013 -0.7514  0.5084
  518MOL0     C71348   2.295   2.779   2.280 -0.4276  0.0712 -0.2746
  518MOL0     O71349   2.373   2.672   2.282 -0.7785  0.2551  0.3522
  518MOL0     C71350   2.505   2.695   2.281 -0.7501  1.1217 -0.6481
  518MOL0     C71351   2.579   2.636   2.179 -0.3741  0.5158 -0.4001
  518MOL0     C71352   2.720   2.640   2.180  0.0407  0.2987  1.0413
  518MOL0     C71353   2.792   2.683   2.290  0.4359  0.6590 -0.6622
  518MOL0     O71354   2.922   2.658   2.309 -0.0404  0.2359  0.6972
  518MOL0     C71355   2.986   2.545   2.245  1.4366  0.1282 -0.4122
  518MOL0     C71356   3.083   2.485   2.346  0.2650  0.0209 -0.5928
  518MOL0     C71357   3.211   2.572   2.353  0.1739  0.4172  0.1988
  518MOL0     C71358   3.315   2.488   2.439  0.3097  0.4910 -0.1717
  518MOL0     C71359   3.411   2.414   2.341 -0.3077  0.2912  0.4046
  518MOL0     C71360   3.530   2.358   2.425  0.7737 -0.7327  0.1157
  518MOL0     C71361   3.611   2.249   2.364 -0.3000  0.5754  0.8963
  518MOL0     C71362   3.703   2.297   2.258 -0.1508  0.1842 -0.2604
  518MOL0     N71363   3.781   2.195   2.187 -0.7453 -0.1736  0.4937
  518MOL0     C71364   3.879   2.105   2.239  0.5390  0.1704  0.0101
  518MOL0     C71365   3.902   2.015   2.142  0.1120 -0.1463  0.1139
  518MOL0     C71366   3.982   1.888   2.141  0.5927  0.9124 -0.0756
  518MOL0     C71367   4.133   1.911   2.138  0.4375  0.9804 -0.0857
  518MOL0     C71368   4.188   1.985   2.027 -0.1795 -0.3748 -0.0025
  518MOL0     C71369   4.338   2.008   2.027 -0.3408 -0.5035 -0.2215
  518MOL0     O71370   4.376   2.100   2.133  0.0226 -0.5330  0.5587
  518MOL0     C71371   4.502   2.089   2.179 -0.5016  0.6333 -0.1035
  518MOL0     C71372   4.531   2.066   2.313 -0.3494  0.1801  0.8090
  518MOL0     C71373   4.661   2.059   2.357  0.4892  0.2470 -0.0987
  518MOL0     C71374   4.677   2.055   2.507  0.0591  0.1513  0.1399
  518MOL0     C71375   4.772   2.077   2.266  0.0668  0.2433  0.0219
  518MOL0     C71376   4.914   2.063   2.312 -0.0163 -0.1615  0.7686
  518MOL0     O71377   4.996   2.161   2.256 -0.3506  0.4331  0.0306
  518MOL0     C71378   5.132   2.138   2.257  0.5752 -0.3550  0.4801
  518MOL0     C71379   5.184   2.067   2.153  0.1910 -0.0084  0.6325
  518MOL0     C71380   5.319   2.039   2.146 -0.5329  0.8187  0.2858
  518MOL0     C71381   5.411   2.093   2.240  0.8797  0.2134  0.6155
  518MOL0     O71382   5.543   2.052   2.248  0.1253 -0.5132  0.1336
  518MOL0     C71383   5.623   2.059   2.137  0.2744 -0.5859  0.7373
  518MOL0     C71384   5.631   1.919   2.075  0.1628  0.4362  0.2311
  518MOL0     C71385   5.746   1.917   1.969 -0.4253  1.1978 -0.7104
  518MOL0     C71386   5.883   1.927   2.043 -0.0222 -0.5086 -0.3056
  518MOL0     C71387   6.002   1.883   1.966  0.7282  0.4049 -0.2042
  518MOL0     C71388   6.119   1.954   2.033 -0.2435 -0.7086 -0.1740
  518MOL0     C71389   6.260   1.925   1.969 -0.5297  0.0175  0.2617
  518MOL0     C71390   6.350   2.005   2.061 -0.1265  0.0993  0.3429
  518MOL0    Cl71391   6.311   2.181   2.059 -0.1966 -0.1830 -0.1395
  518MOL0     C71392   5.354   2.170   2.347  0.4239 -0.8026 -0.2066
  518MOL0     C71393   5.213   2.184   2.354  0.4925 -0.1335 -0.2099
  518MOL0     O71394   4.948   1.972   2.387  0.7065 -0.1951  0.7253
  518MOL0     C71395   4.744   2.091   2.128 -0.2885 -0.2738 -0.7025
  518MOL0     C71396   4.609   2.099   2.092 -0.0893  0.2100  1.2143
  518MOL0     N71397   3.819   2.047   2.034 -0.2721  0.8231  0.2130
  518MOL0     N71398   3.751   2.153   2.061 -0.1956 -0.4424 -0.8164
  518MOL0     C71399   2.716   2.741   2.398 -0.1668  0.0553  0.3562
  518MOL0     C71400   2.577   2.751   2.385 -0.5797 -0.3692 -0.3882
  518MOL0     C71401   2.149   2.752   2.280  0.8136  0.9122  0.2183
  518MOL0     C71402   2.068   2.790   2.172  0.0051  0.7661 -1.1426
  518MOL0     C71403   1.942   2.731   2.161  0.7155 -0.7159  0.1340
  518MOL0     C71404   1.885   2.664   2.268  0.1181  1.5460 -1.1907
  518MOL0     O71405   1.755   2.627   2.269  0.3339  0.4626  0.8273
  518MOL0     C71406   1.665   2.667   2.167 -0.7325  0.0439 -0.0912
  518MOL0     C71407   1.525   2.625   2.208  0.0444  0.4505  0.2912
  518MOL0     C71408   1.506   2.477   2.224 -0.3599 -0.7978  0.3808
  518MOL0     C71409   1.392   2.435   2.321 -0.7948 -0.5078  0.4429
  518MOL0     C71410   1.266   2.487   2.268  0.1087  0.5504 -0.2949
  518MOL0     C71411   1.163   2.518   2.222  0.4088  0.2365 -0.1346
  518MOL0     C71412   1.955   2.646   2.382 -0.0994  0.0117  0.2634
  518MOL0     C71413   2.088   2.692   2.392 -0.3326 -0.4795  0.2527
  518MOL0     C71414   2.148   2.697   2.528 -0.3203 -0.3892 -0.0292
  518MOL0     H71415   2.525   2.592   2.096  0.9317 -1.7861 -0.1197
  518MOL0     H71416   2.769   2.598   2.093  0.4906 -2.1973  2.4252
  518MOL0     H71417   3.047   2.582   2.163  1.0840  1.1384 -0.2244
  518MOL0     H71418   2.918   2.475   2.195  2.0885  1.0305 -2.6785
  518MOL0     H71419   3.037   2.485   2.446  1.5694  0.2049  0.0211
  518MOL0     H71420   3.099   2.384   2.307  0.1858 -0.2468  0.0388
  518MOL0     H71421   3.257   2.597   2.257 -0.0248  0.8208  0.2080
  518MOL0     H71422   3.188   2.667   2.401  1.4298  2.6531 -3.2189
  518MOL0     H71423   3.378   2.561   2.492 -0.8370  1.2637  0.1679
  518MOL0     H71424   3.263   2.426   2.512  1.5872  0.9346  1.1892
  518MOL0     H71425   3.449   2.478   2.260  1.7869  2.1631  2.6963
  518MOL0     H71426   3.353   2.334   2.295  2.6353 -1.3471 -0.7318
  518MOL0     H71427   3.600   2.436   2.455 -0.5615  1.5228 -2.1883
  518MOL0     H71428   3.482   2.303   2.506  2.2322 -0.1284  1.4287
  518MOL0     H71429   3.566   2.157   2.326  1.4343 -0.4779  1.2727
  518MOL0     H71430   3.680   2.214   2.442  1.8508  0.7706 -0.8211
  518MOL0     H71431   3.655   2.357   2.180 -2.3388 -1.8577 -0.5827
  518MOL0     H71432   3.775   2.364   2.306 -0.0324 -0.0899 -0.0501
  518MOL0     H71433   3.920   2.091   2.338  3.0778  2.0426 -0.6752
  518MOL0     H71434   3.946   1.829   2.056 -1.3292  0.1686  1.1808
  518MOL0     H71435   3.959   1.833   2.233  0.1417 -0.6003 -1.0619
  518MOL0     H71436   4.162   1.951   2.235  0.7851 -2.2381  1.2412
  518MOL0     H71437   4.170   1.810   2.123 -2.2076  0.0699 -1.0363
  518MOL0     H71438   4.155   1.939   1.933 -0.5044  2.3924 -1.3473
  518MOL0     H71439   4.149   2.087   2.033 -0.0095 -0.3081 -0.0422
  518MOL0     H71440   4.384   1.910   2.043 -0.4967 -0.2509  2.1541
  518MOL0     H71441   4.365   2.049   1.929 -0.5804 -1.1009 -0.5488
  518MOL0     H71442   4.443   2.036   2.369  0.6898 -2.5119  1.1329
  518MOL0     H71443   4.757   2.118   2.546 -1.1964  0.2230  2.8204
  518MOL0     H71444   4.708   1.954   2.535  0.4411 -0.5154 -2.4586
  518MOL0     H71445   4.586   2.075   2.564 -1.0146 -1.6365 -0.8517
  518MOL0     H71446   5.111   2.034   2.080  0.7461 -0.9345  0.4757
  518MOL0     H71447   5.355   1.979   2.062  3.2506 -0.4100  2.5324
  518MOL0     H71448   5.589   2.130   2.061  1.7811 -1.1055 -0.4967
  518MOL0     H71449   5.718   2.097   2.175  1.2469 -0.4910 -1.6083
  518MOL0     H71450   5.644   1.833   2.142 -1.8955 -2.1865 -2.4754
  518MOL0     H71451   5.536   1.901   2.024  0.1231 -1.2026  0.8156
  518MOL0     H71452   5.725   1.996   1.896  0.1218  4.3071  2.2283
  518MOL0     H71453   5.733   1.814   1.935  1.2546  0.3588  1.0323
  518MOL0     H71454   5.893   1.871   2.137  0.9581  2.6828  1.6352
  518MOL0     H71455   5.892   2.031   2.075  3.4448 -1.2536  1.6088
  518MOL0     H71456   5.994   1.774   1.959 -1.5019  0.4316  0.9434
  518MOL0     H71457   5.998   1.922   1.864  2.7460 -0.3523 -0.6163
  518MOL0     H71458   6.105   1.915   2.134 -1.9067  2.2091  0.8490
  518MOL0     H71459   6.084   2.057   2.023 -4.1783 -2.0162 -1.8866
  518MOL0     H71460   6.255   1.976   1.872 -0.1466  1.0987  0.7906
  518MOL0     H71461   6.288   1.820   1.977  1.0283  0.5610  2.7690
  518MOL0     H71462   6.455   2.004   2.032 -0.6556  0.1438 -1.7169
  518MOL0     H71463   6.333   1.967   2.162 -1.3702  2.0436  0.9448
  518MOL0     H71464   5.409   2.204   2.434 -0.5364  0.9391 -0.2350
  518MOL0     H71465   5.166   2.228   2.441 -0.2209  0.1409 -0.7255
  518MOL0     H71466   4.835   2.095   2.068  1.0319  0.1594  1.2246
  518MOL0     H71467   4.595   2.101   1.985  1.5736 -0.4504  0.9642
  518MOL0     H71468   2.777   2.763   2.485 -1.6657 -0.7609  1.6448
  518MOL0     H71469   2.534   2.788   2.478  2.1856  1.2967  0.3201
  518MOL0     H71470   2.113   2.848   2.092  2.7423 -0.5152 -0.6613
  518MOL0     H71471   1.885   2.770   2.078 -0.0839  2.5444  2.0280
  518MOL0     H71472   1.663   2.776   2.162  0.3277  0.1826  1.7655
  518MOL0     H71473   1.696   2.628   2.070 -0.2020 -0.1484  0.1550
  518MOL0     H71474   1.457   2.655   2.128 -0.3636 -1.7602 -0.2427
  518MOL0     H71475   1.497   2.676   2.301  2.9441  0.6797  1.1458
  518MOL0     H71476   1.488   2.432   2.126  0.6040 -0.9096  0.2431
  518MOL0     H71477   1.599   2.434   2.262 -1.2053 -0.7133  2.6894
  518MOL0     H71478   1.420   2.467   2.422  1.6451 -1.4922  0.1697
  518MOL0     H71479   1.382   2.326   2.318  2.4585 -0.9292 -2.5576
  518MOL0     H71480   1.064   2.538   2.185 -0.3743  0.6902  2.0506
  518MOL0     H71481   1.898   2.605   2.465  1.8102 -0.3662  1.4492
  518MOL0     H71482   2.242   2.640   2.527  0.8481  1.4238  0.6185
  518MOL0     H71483   2.172   2.802   2.546  1.5264 -0.6181 -0.8883
  518MOL0     H71484   2.083   2.658   2.608 -0.0369  1.0705  0.9595
  519MOL0     O71485   4.430   1.983   3.472 -0.3138  0.8264  0.4762
  519MOL0     C71486   4.481   1.982   3.361  0.3540  0.2892  0.5666
  519MOL0     O71487   4.429   1.928   3.247 -0.1796 -0.1845  0.4104
  519MOL0     C71488   4.291   1.909   3.235 -0.2114  0.2501  0.0748
  519MOL0     C71489   4.242   1.836   3.127  0.0159 -0.4484  0.2823
  519MOL0     C71490   4.111   1.823   3.100 -0.8934  0.2539 -0.0904
  519MOL0     C71491   4.013   1.893   3.178  0.2569  0.6881 -0.4506
  519MOL0     O71492   3.884   1.885   3.135 -0.0943 -0.5834 -0.5900
  519MOL0     C71493   3.780   1.958   3.193 -0.5906 -0.1698 -0.3780
  519MOL0     C71494   3.728   1.866   3.312  0.4496 -0.4115  0.1429
  519MOL0     C71495   3.623   1.938   3.405 -0.7324 -0.2862 -0.2047
  519MOL0     C71496   3.507   1.994   3.326 -0.9573 -0.4827  0.2152
  519MOL0     C71497   3.395   2.033   3.417 -0.3810 -1.0899 -0.3551
  519MOL0     C71498   3.274   2.105   3.345 -0.5944 -0.9312 -0.7101
  519MOL0     C71499   3.157   2.126   3.441 -1.1054  0.7907  0.2048
  519MOL0     C71500   3.152   2.274   3.480  0.1429  0.3886  0.4658
  519MOL0     N71501   3.234   2.295   3.598 -0.0393  0.4545 -0.3509
  519MOL0     C71502   3.231   2.227   3.719  0.3447  0.3498  0.0092
  519MOL0     C71503   3.331   2.280   3.784  0.2481 -0.5699  0.0347
  519MOL0     C71504   3.372   2.231   3.921 -0.3225  0.4700 -0.9161
  519MOL0     C71505   3.513   2.182   3.942  0.0421  0.4911  0.4812
  519MOL0     C71506   3.538   2.070   3.836 -0.5468 -0.2584  0.3059
  519MOL0     C71507   3.660   1.989   3.865 -0.3873 -0.4399  0.4519
  519MOL0     O71508   3.775   2.071   3.890  0.9484  0.1712 -0.2066
  519MOL0     C71509   3.873   1.989   3.940  0.4089 -0.6285  0.5129
  519MOL0     C71510   3.988   1.972   3.860 -0.2850  0.0646 -0.3698
  519MOL0     C71511   4.089   1.900   3.899 -0.1840  0.4181  0.1861
  519MOL0     C71512   4.180   1.882   3.782 -0.5348 -0.3969  1.2234
  519MOL0     C71513   4.089   1.838   4.024  0.6974  0.2678  0.8418
  519MOL0     C71514   4.190   1.751   4.070  0.6066 -0.2803 -0.4771
  519MOL0     O71515   4.154   1.646   4.148 -0.3375 -0.4751 -0.3086
  519MOL0     C71516   4.242   1.545   4.164 -0.3749  0.5461 -0.3667
  519MOL0     C71517   4.195   1.417   4.121  0.4250 -0.0059 -0.2412
  519MOL0     C71518   4.279   1.301   4.134 -0.0120  0.6473 -0.8830
  519MOL0     C71519   4.404   1.309   4.200  0.3624 -0.2482  1.1915
  519MOL0     O71520   4.497   1.207   4.216  0.4313  0.4930 -0.6593
  519MOL0     C71521   4.490   1.095   4.129  0.4270  0.3690 -0.9561
  519MOL0     C71522   4.597   0.985   4.175 -0.8677 -0.3351  0.5989
  519MOL0     C71523   4.740   1.040   4.163  0.1205  0.5005 -0.0915
  519MOL0     C71524   4.848   0.940   4.183 -0.3503 -1.3433 -0.4309
  519MOL0     C71525   4.988   1.005   4.170  0.0529  0.1009  0.3669
  519MOL0     C71526   5.090   0.893   4.175 -0.3732 -0.0857 -0.1587
  519MOL0     C71527   5.236   0.942   4.210  0.5544  0.0127  0.1750
  519MOL0     C71528   5.342   0.831   4.205 -0.3290  0.1076  0.0119
  519MOL0    Cl71529   5.513   0.899   4.239  0.0418 -0.1995  0.1455
  519MOL0     C71530   4.446   1.434   4.254 -1.1417 -0.2187  0.5344
  519MOL0     C71531   4.369   1.554   4.238  0.6484 -0.3353 -0.0780
  519MOL0     O71532   4.304   1.789   4.050  0.1237  0.0130 -0.3656
  519MOL0     C71533   3.986   1.872   4.112 -0.5161  0.9442 -0.3495
  519MOL0     C71534   3.881   1.952   4.075 -0.1179  0.0172 -0.4264
  519MOL0     N71535   3.402   2.366   3.703  0.2190 -0.2890  1.0081
  519MOL0     N71536   3.343   2.379   3.591  0.4113  1.0039  0.4813
  519MOL0     C71537   4.060   1.961   3.285  0.2103 -0.1369 -0.1558
  519MOL0     C71538   4.195   1.974   3.310  0.3312 -0.3706  1.0620
  519MOL0     C71539   4.623   2.024   3.346  0.6906 -0.3318 -0.5230
  519MOL0     C71540   4.694   1.963   3.241 -0.0042 -0.7106  0.0807
  519MOL0     C71541   4.825   1.995   3.224 -0.3694 -0.1437 -0.0479
  519MOL0     C71542   4.897   2.093   3.296 -0.7580  0.4460  1.0923
  519MOL0     O71543   5.017   2.127   3.246 -0.3507  0.0484  0.2913
  519MOL0     C71544   5.064   2.259   3.247  1.0012 -0.3502 -0.4769
  519MOL0     C71545   5.211   2.258   3.211 -0.3368 -0.6915 -0.4056
  519MOL0     C71546   5.314   2.227   3.325  0.3139 -0.6986 -0.0735
  519MOL0     C71547   5.447   2.166   3.289 -0.2747  0.5426 -0.2738
  519MOL0     C71548   5.509   2.203   3.162 -0.3392 -0.4065 -0.0677
  519MOL0     C71549   5.564   2.246   3.060  0.0361  0.0105 -0.1977
  519MOL0     C71550   4.825   2.161   3.390 -0.1335  1.0457 -1.3063
  519MOL0     C71551   4.690   2.131   3.421  0.7112  0.2777  0.3181
  519MOL0     C71552   4.627   2.201   3.536 -0.4842  0.6662 -0.5468
  519MOL0     H71553   4.307   1.773   3.067 -1.3324 -2.4480  0.8362
  519MOL0     H71554   4.081   1.750   3.024 -0.7689 -1.3657  1.3467
  519MOL0     H71555   3.700   1.984   3.124 -1.8220 -2.4944  0.0807
  519MOL0     H71556   3.827   2.049   3.233  0.7121 -1.0341  0.1264
  519MOL0     H71557   3.685   1.771   3.280  0.8277 -1.5396  2.7271
  519MOL0     H71558   3.813   1.825   3.367  0.9358 -1.3640 -1.2908
  519MOL0     H71559   3.587   1.886   3.494 -0.9692  1.9733  1.0960
  519MOL0     H71560   3.680   2.021   3.447  0.9283 -1.0080 -0.9420
  519MOL0     H71561   3.540   2.077   3.262  1.3524 -2.0911 -0.8271
  519MOL0     H71562   3.471   1.924   3.250  0.2780 -0.3505 -0.5180
  519MOL0     H71563   3.435   2.109   3.484 -0.4839 -0.7614 -0.6653
  519MOL0     H71564   3.352   1.951   3.475 -4.9750  0.2526 -1.4132
  519MOL0     H71565   3.311   2.195   3.294 -0.5894 -0.6046 -0.1405
  519MOL0     H71566   3.232   2.042   3.267  0.0678 -2.0104 -0.2138
  519MOL0     H71567   3.154   2.060   3.528  1.2996  2.4330  1.6451
  519MOL0     H71568   3.068   2.095   3.386  0.7491 -0.5649 -2.2107
  519MOL0     H71569   3.193   2.330   3.396 -0.5152 -1.2258 -0.9913
  519MOL0     H71570   3.049   2.302   3.506 -0.3384  0.4614 -1.3937
  519MOL0     H71571   3.155   2.154   3.746 -0.2974  1.0406  0.0939
  519MOL0     H71572   3.294   2.163   3.957  0.1534  0.8823  1.0430
  519MOL0     H71573   3.366   2.319   3.987 -0.5592  1.7216 -2.5466
  519MOL0     H71574   3.591   2.256   3.921  1.9692 -1.7101 -0.5814
  519MOL0     H71575   3.532   2.143   4.042  3.4337  0.3110 -0.1018
  519MOL0     H71576   3.451   2.006   3.823 -0.8092  0.1736 -0.1051
  519MOL0     H71577   3.563   2.118   3.741  0.5863  0.6198  1.0132
  519MOL0     H71578   3.639   1.916   3.943  0.4556 -1.9670 -0.7022
  519MOL0     H71579   3.675   1.928   3.775 -0.1490 -2.0171  1.5361
  519MOL0     H71580   3.993   2.010   3.758  1.0587 -1.2401 -0.8245
  519MOL0     H71581   4.210   1.979   3.742  1.6356 -1.2604  0.6146
  519MOL0     H71582   4.126   1.836   3.699  2.0165 -2.7172  0.6935
  519MOL0     H71583   4.262   1.811   3.795 -1.7594 -1.6517  2.4641
  519MOL0     H71584   4.108   1.403   4.056  0.2571 -0.1571  0.0138
  519MOL0     H71585   4.250   1.209   4.083 -0.2375  0.4329 -0.3751
  519MOL0     H71586   4.393   1.045   4.137  0.5228  0.4496  1.5517
  519MOL0     H71587   4.509   1.122   4.025 -0.1992  2.6154 -0.5496
  519MOL0     H71588   4.570   0.944   4.273  1.3859 -2.5715  0.3661
  519MOL0     H71589   4.584   0.898   4.110 -4.0198  1.1707 -1.0437
  519MOL0     H71590   4.755   1.125   4.230 -1.3631  3.1418 -2.8281
  519MOL0     H71591   4.746   1.084   4.063 -2.6365  1.8407  0.2258
  519MOL0     H71592   4.832   0.846   4.128 -1.7352 -0.2294 -2.0285
  519MOL0     H71593   4.835   0.913   4.289  0.4696 -4.8635 -1.0981
  519MOL0     H71594   4.999   1.054   4.072  0.2603 -0.7183 -0.0282
  519MOL0     H71595   5.004   1.094   4.232 -1.1176  2.2722 -2.1971
  519MOL0     H71596   5.104   0.841   4.079  0.3491  2.6703 -1.6305
  519MOL0     H71597   5.061   0.817   4.248 -0.6229 -1.2325 -1.4002
  519MOL0     H71598   5.234   0.998   4.303 -2.5399  2.6158 -1.2846
  519MOL0     H71599   5.262   1.012   4.130  4.6686 -2.4946 -1.0300
  519MOL0     H71600   5.337   0.796   4.101  1.7727  0.1254 -0.1374
  519MOL0     H71601   5.318   0.744   4.267  0.7576 -3.0304 -3.5544
  519MOL0     H71602   4.535   1.428   4.316 -0.6004  1.1717 -0.0791
  519MOL0     H71603   4.411   1.648   4.273 -0.3567 -0.7220  2.3425
  519MOL0     H71604   3.989   1.843   4.216  0.4924  1.4633 -0.2187
  519MOL0     H71605   3.802   1.964   4.148  1.2562 -0.3619  1.1722
  519MOL0     H71606   3.987   2.014   3.345  0.7641  0.5090 -0.0444
  519MOL0     H71607   4.222   2.054   3.379  0.6548 -0.8430  1.4864
  519MOL0     H71608   4.646   1.887   3.180  0.0951  0.4901 -1.5559
  519MOL0     H71609   4.877   1.939   3.146  0.0375  1.4311 -0.9525
  519MOL0     H71610   5.018   2.322   3.170 -0.4246 -1.4050 -0.5336
  519MOL0     H71611   5.048   2.316   3.339  1.3342 -0.0002 -0.6345
  519MOL0     H71612   5.230   2.361   3.179  2.2198 -0.6223  1.0090
  519MOL0     H71613   5.230   2.191   3.127  0.2638 -3.6130  1.9104
  519MOL0     H71614   5.341   2.322   3.372 -1.8697  0.9673 -1.9533
  519MOL0     H71615   5.254   2.167   3.394 -0.5616  0.0889 -0.1254
  519MOL0     H71616   5.440   2.057   3.281 -0.7428  0.7133 -3.7645
  519MOL0     H71617   5.518   2.181   3.371 -1.3310  2.6517  0.3041
  519MOL0     H71618   5.622   2.274   2.975  0.2677  0.7065  0.1817
  519MOL0     H71619   4.879   2.230   3.454 -0.8362  1.5001 -1.1893
  519MOL0     H71620   4.538   2.256   3.504 -0.5589  0.9696  0.1592
  519MOL0     H71621   4.593   2.130   3.611 -1.5430 -1.4818 -2.9027
  519MOL0     H71622   4.683   2.289   3.568 -1.7847  1.0064  0.9713
  520MOL0     O71623   6.523   9.093   4.980 -0.2332 -0.0814  0.1068
  520MOL0     C71624   6.490   9.195   4.918 -0.0201  0.2495 -0.3227
  520MOL0     O71625   6.562   9.306   4.911  0.2577  0.1111  0.6198
  520MOL0     C71626   6.699   9.308   4.927 -0.2038 -0.3162  0.7797
  520MOL0     C71627   6.756   9.437   4.915 -0.3784  0.4608  0.6590
  520MOL0     C71628   6.893   9.460   4.926 -0.1935  0.2987 -0.8706
  520MOL0     C71629   6.986   9.354   4.939 -0.3472  0.3642 -0.4481
  520MOL0     O71630   7.115   9.389   4.925 -0.6018 -0.1868  0.1416
  520MOL0     C71631   7.213   9.290   4.899 -0.3455 -0.0466 -0.6518
  520MOL0     C71632   7.355   9.342   4.887  0.2319  0.7649  0.7124
  520MOL0     C71633   7.388   9.429   5.007 -0.3063 -0.5705  0.7657
  520MOL0     C71634   7.526   9.485   4.987 -0.9797 -0.1025  0.8462
  520MOL0     C71635   7.590   9.568   5.095 -0.2908  0.7010 -0.4379
  520MOL0     C71636   7.627   9.494   5.228 -0.2958 -0.5158  0.2260
  520MOL0     C71637   7.733   9.555   5.299 -0.8236 -0.8518  0.1806
  520MOL0     C71638   7.852   9.459   5.291 -0.4389  0.0407  0.6642
  520MOL0     N71639   7.956   9.491   5.388 -0.1159 -0.2503  0.1402
  520MOL0     C71640   7.941   9.526   5.526 -0.2799 -0.3692  0.9055
  520MOL0     C71641   8.069   9.560   5.566  0.3248 -0.5384  0.2002
  520MOL0     C71642   8.121   9.618   5.703 -0.0404 -0.3868 -0.1682
  520MOL0     C71643   8.124   9.769   5.668 -0.1783 -0.3589 -0.3233
  520MOL0     C71644   8.151   9.843   5.794  0.6691 -1.2160 -0.6072
  520MOL0     C71645   8.299   9.867   5.822 -0.3021  0.0867 -0.0566
  520MOL0     O71646   8.353   9.953   5.709 -0.0042 -0.0999 -0.1479
  520MOL0     C71647   8.487   9.980   5.717 -0.3170  0.1497  1.0397
  520MOL0     C71648   8.540  10.059   5.610 -0.4682  0.2821 -0.1047
  520MOL0     C71649   8.674  10.103   5.612  0.9617  0.0815  0.6343
  520MOL0     C71650   8.711  10.187   5.491  0.9181  0.0365  0.2351
  520MOL0     C71651   8.758  10.066   5.717  0.1988 -0.4708  0.3381
  520MOL0     C71652   8.900  10.122   5.733 -0.2366 -0.1806  0.4378
  520MOL0     O71653   8.972  10.058   5.830 -0.5488 -0.0531  0.3203
  520MOL0     C71654   9.112  10.091   5.824  0.3175 -0.5299 -0.1590
  520MOL0     C71655   9.168  10.126   5.948  0.7294  0.1934  0.0066
  520MOL0     C71656   9.310  10.153   5.946  1.1886  0.0371 -0.0984
  520MOL0     C71657   9.384  10.147   5.835 -1.0233 -0.2998  0.4019
  520MOL0     O71658   9.515  10.189   5.844  0.2508 -1.5725  0.0633
  520MOL0     C71659   9.610  10.140   5.745  0.1284  1.2228 -0.1865
  520MOL0     C71660   9.643  10.253   5.643  0.0220 -0.2450 -0.5373
  520MOL0     C71661   9.744  10.355   5.697 -0.2129 -0.7351  0.1053
  520MOL0     C71662   9.764  10.458   5.579  0.1472  0.3054 -0.6839
  520MOL0     C71663   9.840  10.591   5.618 -0.5313  0.1140  0.7055
  520MOL0     C71664   9.927  10.647   5.509 -0.0013 -0.0875 -0.2059
  520MOL0     C71665  10.003  10.782   5.552 -0.3802  0.1624 -1.0155
  520MOL0     C71666   9.921  10.921   5.557 -0.8166 -0.2126  0.1936
  520MOL0    Cl71667   9.849  10.965   5.398 -0.3551  0.1218 -0.0100
  520MOL0     C71668   9.323  10.125   5.715 -0.2341 -0.2644  0.0892
  520MOL0     C71669   9.191  10.083   5.710  0.2918 -0.4279  1.0799
  520MOL0     O71670   8.938  10.219   5.670  0.3731  0.1031  0.0596
  520MOL0     C71671   8.702   9.976   5.815  0.0596 -0.4541  1.0760
  520MOL0     C71672   8.572   9.930   5.822 -0.5499 -0.3295  0.1761
  520MOL0     N71673   8.151   9.555   5.458 -0.7126 -0.7743 -0.7293
  520MOL0     N71674   8.085   9.524   5.353 -0.2631 -0.4166 -0.0445
  520MOL0     C71675   6.935   9.229   4.958 -0.3245 -0.7971  0.1935
  520MOL0     C71676   6.796   9.205   4.943  0.6868  0.4638 -0.7620
  520MOL0     C71677   6.348   9.195   4.865  0.5525  0.6540 -0.3402
  520MOL0     C71678   6.293   9.321   4.836  0.0197 -0.4476 -0.0342
  520MOL0     C71679   6.163   9.341   4.790 -0.7030  0.8268  0.3240
  520MOL0     C71680   6.093   9.230   4.750 -0.4164  0.1717  0.0152
  520MOL0     O71681   5.965   9.263   4.698  0.3794 -0.4496  0.2068
  520MOL0     C71682   5.857   9.170   4.698 -0.2868 -0.4154  0.3432
  520MOL0     C71683   5.730   9.219   4.781 -0.0808  0.3617 -0.8183
  520MOL0     C71684   5.770   9.257   4.926 -0.1223 -0.1627 -0.1738
  520MOL0     C71685   5.834   9.404   4.943  0.1844  0.0377 -0.1015
  520MOL0     C71686   5.836   9.443   5.081 -0.8226  0.3716 -0.1077
  520MOL0     C71687   5.860   9.473   5.190 -0.4054 -0.7003 -0.0495
  520MOL0     C71688   6.147   9.098   4.766  0.1520 -0.6010 -0.4671
  520MOL0     C71689   6.275   9.082   4.826  0.2587  0.5585  0.7055
  520MOL0     C71690   6.313   8.934   4.839  0.0446  0.2830 -0.1574
  520MOL0     H71691   6.697   9.527   4.903  0.5308  1.1544  1.2193
  520MOL0     H71692   6.939   9.559   4.928  0.6227 -0.0801 -0.2110
  520MOL0     H71693   7.192   9.227   4.812  1.0161 -1.3362 -0.0995
  520MOL0     H71694   7.205   9.222   4.985  2.4753  1.2761  0.7758
  520MOL0     H71695   7.420   9.255   4.874 -2.4077 -1.5727  2.0457
  520MOL0     H71696   7.361   9.398   4.793  2.3403 -0.9007 -0.2450
  520MOL0     H71697   7.316   9.511   5.013 -3.6143 -3.1284 -0.7594
  520MOL0     H71698   7.392   9.363   5.094 -3.2068 -1.7997  0.0736
  520MOL0     H71699   7.596   9.405   4.961  1.3469  2.8480 -3.4462
  520MOL0     H71700   7.531   9.544   4.894 -1.1525  0.2630  1.0663
  520MOL0     H71701   7.530   9.655   5.123  0.9463  1.9485 -1.5501
  520MOL0     H71702   7.684   9.597   5.049 -0.2200 -0.8423 -1.3421
  520MOL0     H71703   7.538   9.489   5.290 -1.6816  1.8245 -1.4590
  520MOL0     H71704   7.654   9.393   5.192  4.8059 -0.0702  1.9209
  520MOL0     H71705   7.695   9.565   5.401 -1.7214 -0.1784 -0.2074
  520MOL0     H71706   7.758   9.654   5.259 -3.5509 -0.3375 -0.4625
  520MOL0     H71707   7.822   9.357   5.320  0.1750 -1.0736 -2.2571
  520MOL0     H71708   7.898   9.460   5.192 -0.3399  1.5443  0.7146
  520MOL0     H71709   7.849   9.526   5.583 -2.0970  1.0471 -1.7997
  520MOL0     H71710   8.214   9.583   5.748 -0.6533 -2.0520 -0.1038
  520MOL0     H71711   8.043   9.584   5.773  1.2452 -1.0265  0.9972
  520MOL0     H71712   8.194   9.795   5.588  1.0000  0.6526  0.9962
  520MOL0     H71713   8.024   9.801   5.634 -0.4426  0.1732  0.9016
  520MOL0     H71714   8.104   9.941   5.785  1.2338 -0.8880 -0.0625
  520MOL0     H71715   8.102   9.781   5.870  1.0201 -0.6136  0.1149
  520MOL0     H71716   8.305   9.916   5.920  1.2366  0.7889 -0.4598
  520MOL0     H71717   8.345   9.768   5.827 -0.0025  0.2020 -0.4567
  520MOL0     H71718   8.463  10.078   5.536 -1.0030 -2.7076 -0.4671
  520MOL0     H71719   8.641  10.168   5.409 -1.4928 -0.9901  2.3958
  520MOL0     H71720   8.812  10.164   5.456  1.6916  1.9078  1.0805
  520MOL0     H71721   8.697  10.292   5.520 -2.3013  0.1398 -1.2322
  520MOL0     H71722   9.104  10.143   6.034 -1.8731  0.0478 -1.7926
  520MOL0     H71723   9.359  10.177   6.040  0.5725  0.4678  0.1224
  520MOL0     H71724   9.703  10.109   5.792  2.0756  2.2909 -3.0163
  520MOL0     H71725   9.576  10.044   5.705 -0.3811  1.2176  0.2557
  520MOL0     H71726   9.708  10.211   5.567  1.4152 -2.1107  1.5718
  520MOL0     H71727   9.553  10.305   5.608  0.0851  1.3707  1.4696
  520MOL0     H71728   9.840  10.312   5.725  0.2525 -0.5820 -1.1944
  520MOL0     H71729   9.698  10.402   5.784 -2.2846 -0.1815 -1.1966
  520MOL0     H71730   9.667  10.483   5.535 -0.0292  1.3782  0.2543
  520MOL0     H71731   9.820  10.421   5.493  0.1413  0.4231 -0.7388
  520MOL0     H71732   9.761  10.667   5.619 -0.1036  0.5660  0.5178
  520MOL0     H71733   9.899  10.580   5.710 -0.6587 -0.1219  0.7620
  520MOL0     H71734   9.874  10.658   5.414  0.6774  2.3158 -0.3828
  520MOL0     H71735  10.011  10.579   5.491  1.9627  1.7078  1.5032
  520MOL0     H71736  10.084  10.795   5.480  2.0855  1.0151  1.6824
  520MOL0     H71737  10.048  10.760   5.650 -2.4043 -3.1265 -0.6832
  520MOL0     H71738   9.988  10.994   5.603  0.1962 -2.1089  1.8826
  520MOL0     H71739   9.836  10.907   5.626 -1.3578 -1.4963 -0.6875
  520MOL0     H71740   9.391  10.140   5.632 -0.9256 -2.1742 -0.8877
  520MOL0     H71741   9.160  10.059   5.609  0.7759 -0.1787  0.8698
  520MOL0     H71742   8.760   9.954   5.905 -0.6523 -0.1060  1.6282
  520MOL0     H71743   8.538   9.862   5.900 -1.0232 -1.2274 -0.7931
  520MOL0     H71744   6.998   9.147   4.991  0.5887  0.1290  0.8237
  520MOL0     H71745   6.752   9.109   4.967 -1.2336  1.4654 -0.0310
  520MOL0     H71746   6.338   9.415   4.865 -0.5519 -0.1991  0.0519
  520MOL0     H71747   6.130   9.444   4.784 -0.7940  0.7259 -2.2564
  520MOL0     H71748   5.817   9.160   4.597  1.3664  2.2679 -0.6918
  520MOL0     H71749   5.883   9.071   4.736  1.3557  0.0756  0.5680
  520MOL0     H71750   5.648   9.146   4.782 -1.0533  1.4077  0.7407
  520MOL0     H71751   5.690   9.312   4.741 -3.9045  0.4304  2.5432
  520MOL0     H71752   5.680   9.262   4.988 -1.6340  1.0015 -2.3398
  520MOL0     H71753   5.843   9.185   4.964 -0.5460 -0.1100  0.7713
  520MOL0     H71754   5.772   9.476   4.889 -3.1959 -1.7937  1.0001
  520MOL0     H71755   5.937   9.409   4.909  0.0661  0.4929 -0.3999
  520MOL0     H71756   5.896   9.515   5.282  1.6465 -0.4807 -0.9088
  520MOL0     H71757   6.095   9.012   4.726  0.3456 -0.8377 -0.2162
  520MOL0     H71758   6.389   8.915   4.916  0.5096  1.3350 -0.3353
  520MOL0     H71759   6.221   8.885   4.872  1.4448 -1.9588  0.6459
  520MOL0     H71760   6.343   8.882   4.748  1.1864 -0.5014  0.6303
  521MOL0     O71761  10.467  10.321   9.198 -0.2629 -0.8151 -0.6014
  521MOL0     C71762  10.414  10.315   9.310 -0.0525  0.4472  1.3413
  521MOL0     O71763  10.481  10.319   9.428  0.0807 -0.0411 -0.0189
  521MOL0     C71764  10.618  10.308   9.443  0.4943  0.5177  0.8844
  521MOL0     C71765  10.685  10.183   9.439  0.3382  0.2610  0.4186
  521MOL0     C71766  10.813  10.175   9.498 -0.4726 -0.8438  0.7241
  521MOL0     C71767  10.874  10.284   9.554  0.7632 -0.0988 -0.7098
  521MOL0     O71768  10.998  10.282   9.612  0.2963 -0.6388  0.1214
  521MOL0     C71769  11.062  10.152   9.629  0.0868  0.3198 -0.0817
  521MOL0     C71770  11.181  10.166   9.732 -0.0073  0.1388 -0.0759
  521MOL0     C71771  11.295  10.255   9.680 -0.6587  0.7712  0.3243
  521MOL0     C71772  11.421  10.168   9.667 -0.3327 -0.1456  0.6032
  521MOL0     C71773  11.552  10.225   9.594  0.7084  0.6907  0.4155
  521MOL0     C71774  11.668  10.133   9.624 -0.3632  0.0413  0.3716
  521MOL0     C71775  11.799  10.182   9.565 -1.0735  0.4108  0.4560
  521MOL0     C71776  11.857  10.318   9.619  0.8102  0.6831 -0.4618
  521MOL0     N71777  11.984  10.345   9.551 -0.2835  0.0049  0.1717
  521MOL0     C71778  11.994  10.347   9.413  0.3420  0.1078  0.0305
  521MOL0     C71779  12.129  10.358   9.393 -0.2611 -0.4318  0.0385
  521MOL0     C71780  12.190  10.355   9.251 -0.2959  1.1728 -0.7593
  521MOL0     C71781  12.310  10.453   9.252 -0.3070 -0.3719 -0.7997
  521MOL0     C71782  12.365  10.481   9.113 -0.1767  0.1687 -0.8889
  521MOL0     C71783  12.262  10.569   9.038 -0.3021  0.3761 -0.5335
  521MOL0     O71784  12.310  10.708   9.039 -0.4233 -0.1431  0.2564
  521MOL0     C71785  12.231  10.795   8.966 -0.2284 -0.2293 -0.8343
  521MOL0     C71786  12.274  10.925   8.969  0.6722  0.0334  1.3281
  521MOL0     C71787  12.197  11.033   8.914  0.1163 -0.2839 -0.0188
  521MOL0     C71788  12.233  11.182   8.936 -0.7527 -0.0778 -0.2116
  521MOL0     C71789  12.072  11.000   8.849  0.3920  0.1421  1.0733
  521MOL0     C71790  11.977  11.096   8.785 -0.2348 -0.2701 -0.7457
  521MOL0     O71791  11.929  11.072   8.668 -0.2515  0.0491 -0.2185
  521MOL0     C71792  11.811  11.119   8.613 -0.4217 -0.2431 -0.4037
  521MOL0     C71793  11.790  11.113   8.475  0.2626  0.2009  0.3101
  521MOL0     C71794  11.673  11.154   8.414 -0.2753 -0.5427 -0.5389
  521MOL0     C71795  11.566  11.203   8.492  0.3753  0.3208  0.0849
  521MOL0     O71796  11.447  11.246   8.434 -0.3610  0.7002 -0.7426
  521MOL0     C71797  11.422  11.221   8.298 -0.1273  0.0797  0.9064
  521MOL0     C71798  11.275  11.241   8.259 -0.0522  0.0492  0.2814
  521MOL0     C71799  11.168  11.196   8.356 -0.2546 -0.4557  0.7474
  521MOL0     C71800  11.029  11.247   8.313 -0.0413 -0.5657 -0.4946
  521MOL0     C71801  10.921  11.226   8.419  0.2838 -0.8412  0.1677
  521MOL0     C71802  10.788  11.270   8.354  0.1165 -1.1603  0.7470
  521MOL0     C71803  10.661  11.231   8.446  0.2736  0.3017  0.5781
  521MOL0     C71804  10.520  11.270   8.390  0.3825 -0.0480 -0.2229
  521MOL0    Cl71805  10.467  11.201   8.232 -0.1685 -0.1943 -0.5033
  521MOL0     C71806  11.586  11.203   8.632 -0.0126 -0.7576 -0.4074
  521MOL0     C71807  11.701  11.168   8.693  0.0852 -0.5108  0.1499
  521MOL0     O71808  11.950  11.195   8.854  0.2655  0.2449 -0.3647
  521MOL0     C71809  12.034  10.872   8.834  0.3320  0.8045  0.3163
  521MOL0     C71810  12.116  10.769   8.890 -0.5771 -0.7511 -0.8196
  521MOL0     N71811  12.197  10.389   9.507 -0.4844 -0.6119 -0.3809
  521MOL0     N71812  12.113  10.369   9.606  0.0756  0.0444 -0.5311
  521MOL0     C71813  10.818  10.408   9.537  0.4757  0.0223 -0.2706
  521MOL0     C71814  10.688  10.423   9.485 -0.1902 -0.2912 -0.1007
  521MOL0     C71815  10.263  10.314   9.313  0.2861 -0.1865 -0.9611
  521MOL0     C71816  10.202  10.384   9.414  0.0465 -1.1387 -0.0729
  521MOL0     C71817  10.072  10.398   9.419 -0.2446  0.0663 -0.1660
  521MOL0     C71818   9.986  10.350   9.318 -0.0335  0.4267  0.4714
  521MOL0     O71819   9.853  10.362   9.327  0.7037 -0.0023  0.7204
  521MOL0     C71820   9.771  10.352   9.449 -0.5706 -0.2039 -0.6331
  521MOL0     C71821   9.624  10.332   9.403  0.1553 -0.1891  0.1555
  521MOL0     C71822   9.565  10.466   9.345 -0.2831  0.8117 -0.4908
  521MOL0     C71823   9.585  10.458   9.199  0.1767  0.3593  0.8711
  521MOL0     C71824   9.522  10.570   9.133  0.0893  0.4067  0.2398
  521MOL0     C71825   9.463  10.670   9.090  1.0720 -1.6582  0.0868
  521MOL0     C71826  10.040  10.282   9.205 -0.1216  0.4981 -0.1227
  521MOL0     C71827  10.183  10.269   9.206 -0.2843 -0.6210 -0.5682
  521MOL0     C71828  10.240  10.186   9.092 -0.5887 -0.4273  0.2563
  521MOL0     H71829  10.631  10.093   9.412  1.4220 -0.4898  0.7185
  521MOL0     H71830  10.855  10.075   9.502 -0.8799 -1.0139  0.8219
  521MOL0     H71831  11.099  10.103   9.539  0.9973 -0.0974  0.5046
  521MOL0     H71832  10.981  10.087   9.661 -0.7376  0.8055 -1.1309
  521MOL0     H71833  11.139  10.216   9.820 -0.8190 -0.3536 -0.1753
  521MOL0     H71834  11.215  10.068   9.768  2.7517  2.3678  4.2008
  521MOL0     H71835  11.266  10.304   9.586  0.2153 -0.0783 -0.4058
  521MOL0     H71836  11.319  10.332   9.753  2.6908  0.8489 -0.7123
  521MOL0     H71837  11.432  10.129   9.769 -0.1236 -0.6807  0.3824
  521MOL0     H71838  11.379  10.091   9.601 -1.9238 -0.6741  2.1571
  521MOL0     H71839  11.574  10.325   9.633  0.2661  0.6236  0.8440
  521MOL0     H71840  11.530  10.241   9.488  2.0229 -2.4698 -0.4546
  521MOL0     H71841  11.677  10.123   9.732 -2.5799  0.7727  0.6603
  521MOL0     H71842  11.652  10.035   9.577  4.0922 -1.4783  1.4787
  521MOL0     H71843  11.772  10.198   9.460 -0.3756  1.8682  0.4706
  521MOL0     H71844  11.881  10.110   9.571 -0.5821  0.7341 -1.7467
  521MOL0     H71845  11.791  10.403   9.600 -0.1857  0.3079  1.1812
  521MOL0     H71846  11.875  10.312   9.726 -0.0910  2.2525 -0.1893
  521MOL0     H71847  11.906  10.345   9.350 -0.7362  1.0805  1.4388
  521MOL0     H71848  12.116  10.390   9.180  1.3911  2.7044 -1.8447
  521MOL0     H71849  12.218  10.250   9.236 -0.8561  0.5324  2.0559
  521MOL0     H71850  12.278  10.547   9.296  2.7848  1.0737 -1.3261
  521MOL0     H71851  12.397  10.407   9.301 -0.2830  2.4708  2.1154
  521MOL0     H71852  12.469  10.516   9.120  0.9843 -3.1456  0.1965
  521MOL0     H71853  12.375  10.383   9.067 -0.3410 -1.3738  2.1226
  521MOL0     H71854  12.253  10.534   8.935 -1.1290 -0.8155 -0.0746
  521MOL0     H71855  12.157  10.565   9.069 -0.6557  2.9534 -1.1696
  521MOL0     H71856  12.353  10.949   9.039  0.8461 -3.4908  2.5350
  521MOL0     H71857  12.165  11.242   8.998  0.9352  2.0678 -0.2995
  521MOL0     H71858  12.256  11.241   8.847 -0.3176  0.3577  0.1843
  521MOL0     H71859  12.321  11.199   8.999 -2.2898  0.4562  1.9234
  521MOL0     H71860  11.874  11.075   8.418  1.5848 -1.5750  3.2059
  521MOL0     H71861  11.656  11.140   8.308 -0.0641 -2.4619 -0.3496
  521MOL0     H71862  11.485  11.275   8.226  0.8234 -2.4971 -0.3241
  521MOL0     H71863  11.446  11.116   8.283  0.0907  0.4352 -1.7240
  521MOL0     H71864  11.259  11.348   8.244  0.4535  0.8681  4.4080
  521MOL0     H71865  11.259  11.182   8.168 -3.1019 -2.7575  2.4258
  521MOL0     H71866  11.177  11.237   8.457 -0.6063 -0.1039  0.6357
  521MOL0     H71867  11.168  11.087   8.364  0.3353 -0.5836 -0.6618
  521MOL0     H71868  10.994  11.196   8.223 -0.9762 -2.3930  0.8558
  521MOL0     H71869  11.032  11.355   8.295 -1.5482 -0.7671 -2.2955
  521MOL0     H71870  10.921  11.121   8.449  0.8470 -0.6787  0.7664
  521MOL0     H71871  10.921  11.289   8.509 -1.4154  0.2879 -0.5579
  521MOL0     H71872  10.769  11.234   8.253  0.8772 -0.4344  0.3320
  521MOL0     H71873  10.794  11.379   8.347 -0.2470 -1.2405 -1.4937
  521MOL0     H71874  10.680  11.275   8.544  1.1442 -0.9553  1.0119
  521MOL0     H71875  10.660  11.123   8.463 -0.3961 -0.1484 -1.8244
  521MOL0     H71876  10.525  11.379   8.381 -2.0144  0.1919  0.5285
  521MOL0     H71877  10.432  11.258   8.454 -0.6056  0.5585 -1.4231
  521MOL0     H71878  11.501  11.240   8.688 -0.9970 -0.7876 -1.8335
  521MOL0     H71879  11.704  11.168   8.801 -3.9052  0.5865  0.4106
  521MOL0     H71880  11.946  10.850   8.774 -0.9422 -0.7950  2.6073
  521MOL0     H71881  12.085  10.666   8.877 -1.1322 -0.2775 -4.3271
  521MOL0     H71882  10.861  10.494   9.586 -2.1838  1.2125  0.1860
  521MOL0     H71883  10.640  10.520   9.488 -2.2636 -1.2109 -1.3009
  521MOL0     H71884  10.246  10.432   9.501 -1.4074 -0.1697  0.1506
  521MOL0     H71885  10.031  10.443   9.509 -1.4597 -0.9589 -0.1835
  521MOL0     H71886   9.809  10.276   9.517  1.3939  1.2460 -0.0020
  521MOL0     H71887   9.775  10.443   9.510  3.2524 -1.5682  1.5181
  521MOL0     H71888   9.569  10.288   9.486  2.4088  0.4205  2.0996
  521MOL0     H71889   9.625  10.255   9.326 -0.8994  0.9327 -1.0211
  521MOL0     H71890   9.457  10.470   9.361 -0.0807 -0.7847  1.7160
  521MOL0     H71891   9.617  10.554   9.382  1.4745  0.2553 -1.5173
  521MOL0     H71892   9.530  10.372   9.159 -1.3893  1.4510  0.5650
  521MOL0     H71893   9.690  10.454   9.170  0.4302 -0.4360  1.8423
  521MOL0     H71894   9.415  10.740   9.024 -1.5673 -1.2874  2.2127
  521MOL0     H71895   9.970  10.236   9.137 -1.6562  0.7133  1.2534
  521MOL0     H71896  10.176  10.098   9.079 -0.7896 -0.2488  0.0334
  521MOL0     H71897  10.259  10.250   9.006  0.1328  2.2890  2.3167
  521MOL0     H71898  10.339  10.147   9.114 -0.8864 -0.8092  0.9588
  522MOL0     O71899   6.871   4.316   4.531  0.1586  0.6741 -0.1876
  522MOL0     C71900   6.847   4.339   4.409  0.6262  1.0175  0.0365
  522MOL0     O71901   6.741   4.409   4.364  0.7369  0.5916  0.4467
  522MOL0     C71902   6.630   4.424   4.438  0.5567 -0.5107 -0.1980
  522MOL0     C71903   6.643   4.477   4.562 -0.2368  0.1068  0.4250
  522MOL0     C71904   6.529   4.498   4.647 -0.0509  0.2688  0.1536
  522MOL0     C71905   6.411   4.462   4.606  0.0945  0.4855 -0.1642
  522MOL0     O71906   6.299   4.492   4.678  0.2758  0.0712 -0.2403
  522MOL0     C71907   6.298   4.463   4.813 -0.2313 -0.1526 -0.8078
  522MOL0     C71908   6.152   4.470   4.865 -0.1009 -0.1180  0.3881
  522MOL0     C71909   6.069   4.604   4.870  0.5662 -0.2406  0.5093
  522MOL0     C71910   5.952   4.601   4.965  0.4252  0.2096  0.2415
  522MOL0     C71911   5.858   4.487   4.953  0.3524 -0.1298 -1.2439
  522MOL0     C71912   5.753   4.501   4.844  0.1747  0.2878 -0.4599
  522MOL0     C71913   5.609   4.468   4.892 -0.4138  0.1842  0.6476
  522MOL0     C71914   5.543   4.555   5.007 -0.3208  1.0778 -0.4104
  522MOL0     N71915   5.401   4.519   5.027  0.0637  0.6937  0.0079
  522MOL0     C71916   5.347   4.400   5.058 -0.3273  0.1750 -1.1813
  522MOL0     C71917   5.216   4.422   5.091 -0.1273 -0.6048 -0.4387
  522MOL0     C71918   5.122   4.317   5.164 -1.1290  0.6413  0.5981
  522MOL0     C71919   5.193   4.243   5.274 -0.0850 -0.3152  0.0699
  522MOL0     C71920   5.256   4.104   5.238 -0.8511  0.0973 -0.1665
  522MOL0     C71921   5.272   4.014   5.357  0.0093 -0.0983 -1.5958
  522MOL0     O71922   5.377   4.055   5.448  0.3198 -0.1757  0.0377
  522MOL0     C71923   5.506   4.078   5.402 -0.1904 -0.2989 -0.2555
  522MOL0     C71924   5.581   4.182   5.452  0.4324 -0.2760 -0.5105
  522MOL0     C71925   5.705   4.216   5.391  0.3585 -0.7542  0.9111
  522MOL0     C71926   5.777   4.344   5.442 -0.8503 -0.1429  0.0829
  522MOL0     C71927   5.752   4.131   5.288  0.0365 -0.3770  0.2088
  522MOL0     C71928   5.882   4.158   5.233  0.3584 -0.7276 -0.5934
  522MOL0     O71929   5.959   4.043   5.202 -0.6387  0.0045  0.0114
  522MOL0     C71930   6.074   4.058   5.132  0.0567  0.0419  0.2525
  522MOL0     C71931   6.194   4.116   5.182 -0.1838  0.3221 -0.2331
  522MOL0     C71932   6.297   4.131   5.091  1.2683 -0.7107 -0.6288
  522MOL0     C71933   6.291   4.089   4.956  0.1363  0.1168 -0.1406
  522MOL0     O71934   6.391   4.118   4.876 -0.4759  0.4000  0.1497
  522MOL0     C71935   6.391   4.056   4.742 -0.0915 -0.9034 -0.4198
  522MOL0     C71936   6.514   4.098   4.659 -0.2913 -0.3678  0.6630
  522MOL0     C71937   6.648   4.030   4.693 -0.3223  0.2486 -0.6602
  522MOL0     C71938   6.659   3.895   4.624 -0.1549 -0.5053  0.1254
  522MOL0     C71939   6.739   3.895   4.496 -0.2632 -0.2358 -0.1393
  522MOL0     C71940   6.889   3.892   4.514 -0.8877  0.3049 -0.0344
  522MOL0     C71941   6.966   3.905   4.380 -0.5450  0.3304  0.1043
  522MOL0     C71942   6.984   3.770   4.308  0.6803 -0.2631 -0.8809
  522MOL0    Cl71943   7.071   3.642   4.400 -0.2968  0.3909 -0.2748
  522MOL0     C71944   6.176   4.020   4.916 -0.5003 -0.4970  0.0354
  522MOL0     C71945   6.069   4.010   5.000  0.7880 -1.1215 -0.2605
  522MOL0     O71946   5.907   4.274   5.197  0.1265 -0.2634  0.3289
  522MOL0     C71947   5.690   4.005   5.258  0.4615 -0.4756 -0.2424
  522MOL0     C71948   5.559   3.986   5.307  0.9200  0.1620 -1.1386
  522MOL0     N71949   5.192   4.550   5.059  0.0277 -0.0103  0.5378
  522MOL0     N71950   5.298   4.603   5.008 -0.8458 -0.7827 -0.8336
  522MOL0     C71951   6.399   4.405   4.478  0.2792  0.5818 -0.0927
  522MOL0     C71952   6.503   4.390   4.392  0.3038  1.2653 -0.2804
  522MOL0     C71953   6.935   4.271   4.310 -0.1626 -0.4523 -0.1551
  522MOL0     C71954   6.886   4.256   4.184 -0.2040  0.5201  1.6447
  522MOL0     C71955   6.958   4.187   4.091 -0.3207  0.2013 -0.2501
  522MOL0     C71956   7.087   4.132   4.114  0.3588  0.5097 -0.8460
  522MOL0     O71957   7.174   4.059   4.034 -0.8332 -0.0283 -0.2034
  522MOL0     C71958   7.144   4.039   3.899 -0.1308  0.1401  0.5233
  522MOL0     C71959   7.141   4.172   3.815  1.3334  0.4920 -0.3391
  522MOL0     C71960   7.288   4.213   3.797 -0.1640 -0.6718  0.1960
  522MOL0     C71961   7.293   4.345   3.707 -0.5243 -0.8147 -0.1127
  522MOL0     C71962   7.422   4.419   3.718  0.6763  1.0200  0.0596
  522MOL0     C71963   7.536   4.465   3.719  0.8229  0.7443  0.7581
  522MOL0     C71964   7.139   4.155   4.244  0.3046 -0.2416 -0.1485
  522MOL0     C71965   7.062   4.218   4.345 -2.1058 -0.0559 -0.3665
  522MOL0     C71966   7.133   4.212   4.484  1.4319  0.3744 -0.2257
  522MOL0     H71967   6.741   4.501   4.602  1.3034 -3.5153 -0.7816
  522MOL0     H71968   6.529   4.540   4.747  1.9487 -0.8934  0.7030
  522MOL0     H71969   6.350   4.537   4.875 -0.9030 -1.8921  2.0069
  522MOL0     H71970   6.332   4.366   4.851  1.3684  1.6957  3.0472
  522MOL0     H71971   6.103   4.413   4.786  2.3035 -2.1167  0.2121
  522MOL0     H71972   6.135   4.419   4.960 -3.1933 -0.8634 -0.4785
  522MOL0     H71973   6.140   4.683   4.897  0.9780 -1.0165  1.8110
  522MOL0     H71974   6.030   4.611   4.768  1.4521  0.6867  0.2094
  522MOL0     H71975   6.007   4.594   5.059  0.0701  0.0422  0.4349
  522MOL0     H71976   5.901   4.698   4.967  1.4121  0.7308  1.6662
  522MOL0     H71977   5.801   4.486   5.047  0.8275  0.8758 -0.9301
  522MOL0     H71978   5.909   4.391   4.952  1.5961  0.5198 -1.7823
  522MOL0     H71979   5.749   4.604   4.807 -2.5042  0.1795 -0.6789
  522MOL0     H71980   5.779   4.435   4.761 -3.0309  1.1042 -2.3060
  522MOL0     H71981   5.616   4.363   4.923 -1.5288 -0.3731 -0.8310
  522MOL0     H71982   5.547   4.466   4.802 -0.9097  1.9015  0.9089
  522MOL0     H71983   5.588   4.544   5.106  1.9912  0.7850 -1.4310
  522MOL0     H71984   5.547   4.662   4.983 -2.3289  1.3370  0.2641
  522MOL0     H71985   5.405   4.310   5.078 -2.7530 -0.9402  1.7069
  522MOL0     H71986   5.086   4.244   5.091  0.6151  1.1958 -0.9012
  522MOL0     H71987   5.047   4.374   5.218  0.1480  0.0156  3.2004
  522MOL0     H71988   5.270   4.296   5.331  0.3394 -0.1755 -0.6181
  522MOL0     H71989   5.114   4.219   5.347 -2.0972  0.6519 -1.6921
  522MOL0     H71990   5.192   4.058   5.163 -0.4877 -0.8330  0.0726
  522MOL0     H71991   5.357   4.115   5.197  0.7148 -2.1967  2.6001
  522MOL0     H71992   5.181   4.009   5.417  1.2120 -2.0678  0.2260
  522MOL0     H71993   5.291   3.919   5.305  1.5317  0.5781 -2.3306
  522MOL0     H71994   5.545   4.254   5.524  0.3674 -0.2552 -0.5631
  522MOL0     H71995   5.767   4.420   5.364 -3.0364  2.5542  2.7563
  522MOL0     H71996   5.881   4.315   5.461 -0.6411  1.1076  0.9656
  522MOL0     H71997   5.732   4.386   5.532 -0.6688  1.8076 -0.6721
  522MOL0     H71998   6.197   4.139   5.288 -4.1029 -1.8559  0.5493
  522MOL0     H71999   6.387   4.177   5.130  0.6422  0.4114 -0.4650
  522MOL0     H72000   6.396   3.946   4.745  2.4582 -0.8435  2.0099
  522MOL0     H72001   6.296   4.091   4.700  0.2402  2.5588  1.3701
  522MOL0     H72002   6.497   4.066   4.555 -0.3212 -0.4291  0.6863
  522MOL0     H72003   6.531   4.206   4.656  1.6439 -0.5413  2.9406
  522MOL0     H72004   6.643   4.020   4.802 -0.8205 -2.1403 -0.8503
  522MOL0     H72005   6.732   4.093   4.661  2.4028 -2.3743  0.8292
  522MOL0     H72006   6.560   3.856   4.598 -0.5521 -1.2711  2.5768
  522MOL0     H72007   6.695   3.814   4.688 -0.6025 -0.5448  0.3303
  522MOL0     H72008   6.694   3.806   4.449 -3.0876  0.5973  0.7982
  522MOL0     H72009   6.708   3.977   4.432  3.4560  1.1396 -0.4232
  522MOL0     H72010   6.912   3.794   4.556  0.9030  0.0347 -1.5017
  522MOL0     H72011   6.915   3.980   4.574 -0.5901  0.8416 -0.9338
  522MOL0     H72012   7.063   3.951   4.398 -1.1408  0.7355  2.6470
  522MOL0     H72013   6.913   3.978   4.319 -1.4634  0.1612  0.6644
  522MOL0     H72014   7.037   3.788   4.214 -1.4974 -0.6234 -2.2514
  522MOL0     H72015   6.888   3.731   4.273 -0.2805  0.0066  1.3364
  522MOL0     H72016   6.188   3.968   4.821  6.1795 -0.9513  0.6403
  522MOL0     H72017   5.984   3.957   4.958  0.4655 -1.1889  0.4740
  522MOL0     H72018   5.729   3.936   5.184  2.8240  0.5032 -0.0047
  522MOL0     H72019   5.504   3.898   5.276  0.0350  0.2228  0.2130
  522MOL0     H72020   6.296   4.379   4.456 -0.4933  0.5070  3.1793
  522MOL0     H72021   6.501   4.338   4.297 -2.5468  1.2685 -0.2988
  522MOL0     H72022   6.785   4.291   4.164 -0.4606  1.0227  3.6146
  522MOL0     H72023   6.926   4.181   3.987  0.3061 -0.2612 -0.4233
  522MOL0     H72024   7.204   3.960   3.854 -2.2833 -1.8545  0.9064
  522MOL0     H72025   7.041   4.001   3.894 -1.8214  4.2822 -0.2075
  522MOL0     H72026   7.089   4.257   3.860  0.6889  0.1656 -0.4447
  522MOL0     H72027   7.088   4.147   3.722 -1.0586  1.2825  0.7234
  522MOL0     H72028   7.338   4.231   3.892 -1.0491  0.4051  0.4778
  522MOL0     H72029   7.334   4.128   3.746  0.5638 -0.7201  0.9224
  522MOL0     H72030   7.210   4.412   3.734  1.1405  0.8409  1.1372
  522MOL0     H72031   7.276   4.319   3.602 -0.0612 -0.8917 -0.1677
  522MOL0     H72032   7.641   4.485   3.722  0.4640  3.2967 -0.7701
  522MOL0     H72033   7.238   4.118   4.268 -0.3722 -0.6778  2.2980
  522MOL0     H72034   7.068   4.138   4.532  1.5700  1.2883  1.4386
  522MOL0     H72035   7.238   4.181   4.483  0.8511 -1.9020  1.2902
  522MOL0     H72036   7.119   4.312   4.526  0.5548 -0.5754  1.8818
  523MOL0     O72037   7.917   0.146   7.211  0.4505  0.1670 -0.8040
  523MOL0     C72038   7.876   0.100   7.320 -0.8392  0.2418  0.3830
  523MOL0     O72039   7.940   0.110   7.443 -0.5143  0.2186 -0.0129
  523MOL0     C72040   8.071   0.129   7.460 -0.0752 -0.5009  0.0154
  523MOL0     C72041   8.167   0.044   7.413 -0.8430 -0.1466  0.0653
  523MOL0     C72042   8.302   0.071   7.446  0.6106 -0.6298  0.1265
  523MOL0     C72043   8.343   0.179   7.525  0.2265  0.4559  0.5895
  523MOL0     O72044   8.468   0.208   7.546 -0.6297  0.9681  1.0418
  523MOL0     C72045   8.569   0.142   7.457 -0.5012 -0.0921 -0.7441
  523MOL0     C72046   8.700   0.207   7.493 -0.0962 -0.0218 -0.4148
  523MOL0     C72047   8.815   0.143   7.414 -0.4534 -0.2268 -0.0249
  523MOL0     C72048   8.947   0.212   7.463  0.7484  0.3458 -0.4585
  523MOL0     C72049   9.067   0.214   7.355  0.2820 -0.3806  0.0583
  523MOL0     C72050   9.140   0.084   7.360  0.4368  1.3093  1.0649
  523MOL0     C72051   9.204   0.030   7.488  0.0412 -0.0008  0.1315
  523MOL0     C72052   9.269  -0.115   7.476  0.2455 -0.8359  0.0692
  523MOL0     N72053   9.353  -0.154   7.592 -0.0204  0.3612  0.2488
  523MOL0     C72054   9.319  -0.246   7.687  0.9727 -0.0746 -0.3700
  523MOL0     C72055   9.416  -0.249   7.778  0.1119 -0.8525 -0.4017
  523MOL0     C72056   9.443  -0.352   7.879  1.0161  0.2449 -0.4283
  523MOL0     C72057   9.542  -0.464   7.824  0.2954  0.0922 -0.4685
  523MOL0     C72058   9.461  -0.563   7.741  0.4404  0.5856 -0.0300
  523MOL0     C72059   9.534  -0.702   7.743  0.7720 -0.3756 -1.1155
  523MOL0     O72060   9.676  -0.694   7.712  0.0119 -0.5996  0.7158
  523MOL0     C72061   9.756  -0.783   7.773 -0.1811 -0.2751 -1.8130
  523MOL0     C72062   9.734  -0.925   7.768 -0.3364 -0.7735 -0.0127
  523MOL0     C72063   9.823  -1.019   7.822  0.3835  0.3014 -0.2730
  523MOL0     C72064   9.785  -1.161   7.815 -0.7811  0.2910 -0.0363
  523MOL0     C72065   9.941  -0.970   7.888 -0.4828 -0.3795  0.2354
  523MOL0     C72066  10.049  -1.045   7.955  0.0343 -0.3681 -0.2783
  523MOL0     O72067  10.149  -0.977   8.007 -0.5012 -0.2707  0.3168
  523MOL0     C72068  10.277  -1.021   8.018  1.3940  0.2379  0.4666
  523MOL0     C72069  10.342  -1.105   7.928  0.0162 -1.2929 -0.1007
  523MOL0     C72070  10.480  -1.117   7.937 -0.0155 -0.2859 -0.0454
  523MOL0     C72071  10.559  -1.058   8.045  0.0490  1.2541  0.6048
  523MOL0     O72072  10.699  -1.082   8.045 -0.6235  0.3049  0.6668
  523MOL0     C72073  10.786  -1.007   8.134 -1.0508  0.1714  0.1452
  523MOL0     C72074  10.930  -1.046   8.113  0.5059  0.6391 -0.4224
  523MOL0     C72075  11.020  -0.985   8.224  0.2696  0.0582 -0.8908
  523MOL0     C72076  11.169  -1.003   8.185  0.7086  1.0277 -0.3703
  523MOL0     C72077  11.271  -0.957   8.293  0.4633 -0.0080  0.5759
  523MOL0     C72078  11.302  -0.810   8.283 -0.3372 -0.3970  0.1743
  523MOL0     C72079  11.413  -0.756   8.379  0.2301  0.0285  0.4390
  523MOL0     C72080  11.419  -0.612   8.392  1.0055 -0.6051  0.7353
  523MOL0    Cl72081  11.504  -0.554   8.244  0.2531 -0.6430  0.2620
  523MOL0     C72082  10.485  -0.985   8.133 -1.0024  0.3561  0.7357
  523MOL0     C72083  10.348  -0.968   8.124  0.0409  0.9583  0.0400
  523MOL0     O72084  10.049  -1.169   7.939 -0.0802 -0.8942 -0.3881
  523MOL0     C72085   9.959  -0.832   7.892  0.2414  0.5417 -0.2421
  523MOL0     C72086   9.876  -0.740   7.836  0.1617  0.0948 -0.8297
  523MOL0     N72087   9.504  -0.148   7.735  0.4315  0.6957 -0.3641
  523MOL0     N72088   9.474  -0.103   7.620  0.5855 -0.0056 -0.2142
  523MOL0     C72089   8.249   0.264   7.569  1.2289  0.8428  0.6816
  523MOL0     C72090   8.110   0.242   7.542 -0.3752  0.3180  0.2137
  523MOL0     C72091   7.732   0.060   7.332 -0.6271  0.2789 -0.0164
  523MOL0     C72092   7.651   0.104   7.441 -0.4998  0.4792  0.0162
  523MOL0     C72093   7.512   0.098   7.443  0.0376  0.2268  0.4091
  523MOL0     C72094   7.450   0.016   7.335  0.5672 -0.6065 -0.8004
  523MOL0     O72095   7.318   0.010   7.312 -0.2401 -0.3687  0.5578
  523MOL0     C72096   7.241   0.128   7.335 -0.9511 -0.7813 -0.2801
  523MOL0     C72097   7.093   0.110   7.315 -0.1272  0.1513  0.3531
  523MOL0     C72098   7.012   0.253   7.311 -1.0027 -0.2021  0.3347
  523MOL0     C72099   6.861   0.237   7.333 -0.3023 -0.5958  0.3483
  523MOL0     C72100   6.835   0.164   7.453 -0.6991  0.0662 -0.2957
  523MOL0     C72101   6.801   0.094   7.544  0.3989 -0.0748 -0.1540
  523MOL0     C72102   7.532  -0.049   7.240 -0.1352 -0.0444 -0.5569
  523MOL0     C72103   7.667  -0.030   7.238  0.5068  0.1145  0.1294
  523MOL0     C72104   7.750  -0.078   7.121 -0.0214  0.1136 -0.3527
  523MOL0     H72105   8.141  -0.033   7.342 -2.2275  2.4472 -2.4304
  523MOL0     H72106   8.373   0.004   7.398  0.0875 -0.5402 -0.7982
  523MOL0     H72107   8.550   0.163   7.352  1.9825  1.5189 -0.9813
  523MOL0     H72108   8.575   0.034   7.475 -4.0197 -0.3187 -0.2789
  523MOL0     H72109   8.696   0.315   7.480  0.0305  0.4520  2.6464
  523MOL0     H72110   8.714   0.187   7.600  0.5256  2.7971  0.1222
  523MOL0     H72111   8.806   0.034   7.415 -0.8509 -0.2302 -1.7642
  523MOL0     H72112   8.806   0.171   7.309  2.0765  1.6331  0.1468
  523MOL0     H72113   8.925   0.318   7.480  0.5662  0.3760 -0.8754
  523MOL0     H72114   8.981   0.172   7.558  1.4301  1.9658  0.0158
  523MOL0     H72115   9.133   0.299   7.374 -2.7825  1.8036  1.7604
  523MOL0     H72116   9.027   0.236   7.256  2.5041 -2.1906 -1.3499
  523MOL0     H72117   9.071   0.006   7.326  0.2444  1.6556  0.6506
  523MOL0     H72118   9.210   0.091   7.276 -1.8546 -0.9731 -1.2421
  523MOL0     H72119   9.133   0.022   7.571 -0.5601 -0.7885 -0.4405
  523MOL0     H72120   9.279   0.098   7.530 -0.8045  0.7192  0.5158
  523MOL0     H72121   9.203  -0.196   7.443  2.4026 -2.7655  0.2377
  523MOL0     H72122   9.339  -0.086   7.397  0.7525 -0.9350  0.4777
  523MOL0     H72123   9.242  -0.322   7.682 -0.1039  0.8213  1.4938
  523MOL0     H72124   9.352  -0.404   7.909 -0.1049  2.7349  0.7703
  523MOL0     H72125   9.498  -0.307   7.962  1.9062  0.5857 -1.1825
  523MOL0     H72126   9.627  -0.418   7.772 -0.0393  0.7291 -0.4602
  523MOL0     H72127   9.582  -0.517   7.911 -2.1991  1.5526  1.7060
  523MOL0     H72128   9.354  -0.549   7.763  0.2524  1.4686 -1.3467
  523MOL0     H72129   9.463  -0.534   7.635 -2.6638  2.3457  0.2678
  523MOL0     H72130   9.522  -0.753   7.839  1.3901  1.0397 -0.2458
  523MOL0     H72131   9.485  -0.777   7.681  1.3388 -0.5067 -1.4103
  523MOL0     H72132   9.636  -0.959   7.735 -1.7015  2.0916  0.8050
  523MOL0     H72133   9.792  -1.208   7.913  1.9543 -0.2652 -0.4130
  523MOL0     H72134   9.862  -1.214   7.758 -1.5860 -0.0112 -0.8808
  523MOL0     H72135   9.689  -1.173   7.763 -0.1196  1.9215 -1.7721
  523MOL0     H72136  10.300  -1.160   7.844 -0.0140 -1.6176  0.1267
  523MOL0     H72137  10.536  -1.181   7.869  2.1560  0.0497  1.3412
  523MOL0     H72138  10.787  -0.898   8.123  0.9640  0.3570  1.4590
  523MOL0     H72139  10.764  -1.040   8.236  2.2672 -1.5142  0.4689
  523MOL0     H72140  10.933  -1.155   8.111 -1.0319  0.5859 -1.0745
  523MOL0     H72141  10.963  -1.010   8.015  1.3523  2.0346  0.3506
  523MOL0     H72142  10.991  -1.039   8.314 -1.7175  1.3167 -0.7222
  523MOL0     H72143  11.001  -0.880   8.246 -0.9207 -0.5590  1.3445
  523MOL0     H72144  11.192  -0.950   8.093  0.5233  4.3232  1.3516
  523MOL0     H72145  11.178  -1.112   8.173 -0.6751  0.7118  1.0492
  523MOL0     H72146  11.243  -0.966   8.399  2.8891  2.5650  1.5548
  523MOL0     H72147  11.370  -0.998   8.269  1.2300  0.3488  2.8429
  523MOL0     H72148  11.210  -0.753   8.299 -1.3627 -0.8555 -3.1992
  523MOL0     H72149  11.337  -0.797   8.180 -0.8121  0.5902  0.1251
  523MOL0     H72150  11.514  -0.786   8.350 -0.1010 -3.6701  2.4603
  523MOL0     H72151  11.392  -0.795   8.479 -1.2114  0.7398  0.4404
  523MOL0     H72152  11.465  -0.574   8.484  1.3894  1.3201 -0.1950
  523MOL0     H72153  11.317  -0.571   8.392  0.0908 -2.7402  1.0784
  523MOL0     H72154  10.537  -0.958   8.225 -0.8761 -0.0730  0.7901
  523MOL0     H72155  10.291  -0.915   8.200 -2.3031  1.6822 -2.1003
  523MOL0     H72156  10.043  -0.782   7.940  1.7302  0.6145 -2.7514
  523MOL0     H72157   9.883  -0.632   7.833 -2.4085  0.3213 -3.5430
  523MOL0     H72158   8.274   0.345   7.636 -0.1441  0.7329  1.3618
  523MOL0     H72159   8.027   0.304   7.577 -1.6072  0.1805 -2.2442
  523MOL0     H72160   7.688   0.166   7.523  2.0843  0.4088 -0.9988
  523MOL0     H72161   7.458   0.151   7.520 -2.1824 -0.6542 -0.4510
  523MOL0     H72162   7.253   0.171   7.435  3.8504 -0.6932 -0.6821
  523MOL0     H72163   7.283   0.212   7.279  0.8912  0.9182  3.3249
  523MOL0     H72164   7.051   0.044   7.391  0.0230  1.8659  1.9918
  523MOL0     H72165   7.076   0.061   7.218 -0.0044 -0.5924  0.6980
  523MOL0     H72166   7.054   0.321   7.385 -0.2886 -0.6467  0.3498
  523MOL0     H72167   7.035   0.306   7.218 -2.9793 -0.3081 -0.2565
  523MOL0     H72168   6.831   0.180   7.245  0.7759 -1.7378  0.6941
  523MOL0     H72169   6.822   0.339   7.330  4.2589  1.3941  0.9423
  523MOL0     H72170   6.756   0.029   7.616 -0.6639  0.2612 -0.4973
  523MOL0     H72171   7.476  -0.109   7.169 -0.2707 -3.1816  1.9641
  523MOL0     H72172   7.849  -0.108   7.156  1.3287  0.8800 -3.2117
  523MOL0     H72173   7.720  -0.175   7.082 -1.4776  0.7424 -0.8644
  523MOL0     H72174   7.773  -0.002   7.047  3.9297 -1.3271 -0.7941
  524MOL0     O72175   2.922   0.148   9.721 -0.3477  0.0380  1.0723
  524MOL0     C72176   2.935   0.113   9.606  0.2737  0.0946  0.3199
  524MOL0     O72177   2.845   0.126   9.511 -0.1414  0.4143  1.1038
  524MOL0     C72178   2.713   0.147   9.530  0.3086  0.6288  0.1139
  524MOL0     C72179   2.646   0.187   9.648 -0.1117  0.1239  0.6172
  524MOL0     C72180   2.511   0.224   9.640 -0.0208  0.8601  1.0739
  524MOL0     C72181   2.444   0.216   9.521 -0.8066 -0.7972 -0.1326
  524MOL0     O72182   2.310   0.254   9.523 -0.0214  0.3596  0.3519
  524MOL0     C72183   2.257   0.304   9.395 -0.3899  0.2871 -0.2032
  524MOL0     C72184   2.130   0.363   9.444 -0.1837 -0.0635  0.3238
  524MOL0     C72185   2.037   0.415   9.325 -0.1191  0.0177 -0.1882
  524MOL0     C72186   2.083   0.524   9.224  0.2171 -0.5056  0.0375
  524MOL0     C72187   2.090   0.660   9.295 -0.6101 -1.0018  0.1722
  524MOL0     C72188   2.151   0.749   9.187  0.4679  0.4714 -0.6475
  524MOL0     C72189   2.170   0.891   9.238 -0.0862 -0.0084 -0.1234
  524MOL0     C72190   2.303   0.919   9.319 -0.2094  0.5323 -0.3129
  524MOL0     N72191   2.422   0.844   9.277  0.0049  0.2989 -0.1509
  524MOL0     C72192   2.466   0.728   9.339  0.3568 -0.2901  0.5878
  524MOL0     C72193   2.580   0.699   9.274 -0.1579  0.2123  1.1081
  524MOL0     C72194   2.664   0.583   9.314  0.2857  0.2079  1.4583
  524MOL0     C72195   2.730   0.619   9.446 -0.1115  0.1064  0.5479
  524MOL0     C72196   2.807   0.494   9.485 -0.8521 -0.0034  0.5641
  524MOL0     C72197   2.891   0.526   9.617 -0.2747 -0.0290 -0.0907
  524MOL0     O72198   2.985   0.630   9.608  0.0141 -0.0283  0.2731
  524MOL0     C72199   3.119   0.610   9.561  0.2168 -0.2902 -0.1782
  524MOL0     C72200   3.208   0.509   9.594  0.1668  0.1263 -0.1876
  524MOL0     C72201   3.340   0.510   9.545 -0.0452  0.7430 -0.2634
  524MOL0     C72202   3.423   0.386   9.575 -0.1154  0.6093 -0.0091
  524MOL0     C72203   3.388   0.629   9.483 -0.2131  0.4129  0.6335
  524MOL0     C72204   3.536   0.655   9.449  0.6213 -0.0851 -0.1511
  524MOL0     O72205   3.573   0.796   9.453 -0.2421  0.6069 -0.5576
  524MOL0     C72206   3.691   0.843   9.390  0.5636  0.2967  0.0727
  524MOL0     C72207   3.815   0.774   9.385 -0.1212  0.0577 -0.3136
  524MOL0     C72208   3.929   0.821   9.319 -0.2878  0.1663 -0.1102
  524MOL0     C72209   3.919   0.948   9.253 -0.2680 -0.4570 -0.4633
  524MOL0     O72210   4.013   1.001   9.178 -0.3905 -0.7931 -0.7061
  524MOL0     C72211   4.124   0.921   9.139 -0.7125  0.6122 -0.7749
  524MOL0     C72212   4.223   1.010   9.064  0.3768 -0.2122  0.4033
  524MOL0     C72213   4.163   1.044   8.925 -0.4980  1.1333 -1.3948
  524MOL0     C72214   4.265   1.126   8.851 -0.6742 -0.4114  0.1572
  524MOL0     C72215   4.231   1.139   8.704  0.1305 -0.3948  0.3012
  524MOL0     C72216   4.338   1.229   8.619 -0.4415  0.3939  0.4653
  524MOL0     C72217   4.300   1.249   8.471  0.3186  0.3262 -0.5229
  524MOL0     C72218   4.253   1.118   8.392  0.1520  0.4422  0.3615
  524MOL0    Cl72219   4.384   1.000   8.409 -0.1146 -0.1480 -0.5244
  524MOL0     C72220   3.799   1.019   9.268 -0.1447 -0.2450  0.6091
  524MOL0     C72221   3.691   0.972   9.332 -0.0479 -0.4492  0.3473
  524MOL0     O72222   3.595   0.566   9.384 -0.5860  0.6584 -0.2817
  524MOL0     C72223   3.296   0.738   9.459 -0.9226 -0.4003  0.0139
  524MOL0     C72224   3.167   0.728   9.499  0.6101  0.1315  0.7794
  524MOL0     N72225   2.613   0.802   9.186 -0.0737 -0.4401  0.0015
  524MOL0     N72226   2.514   0.894   9.190 -0.5613  0.0906  0.5062
  524MOL0     C72227   2.507   0.163   9.409 -0.2302  0.3915  0.0343
  524MOL0     C72228   2.639   0.135   9.411  0.1565  0.6138 -0.6394
  524MOL0     C72229   3.068   0.064   9.562  0.3887  0.0042 -0.8413
  524MOL0     C72230   3.125  -0.034   9.640 -0.5382  0.8402  0.3064
  524MOL0     C72231   3.254  -0.084   9.596  0.3632  0.3130  0.3768
  524MOL0     C72232   3.323  -0.037   9.486  0.4349  0.9088  0.1335
  524MOL0     O72233   3.449  -0.082   9.435  0.5531 -0.4620 -0.3749
  524MOL0     C72234   3.503  -0.196   9.511  0.7100 -0.4804 -0.4636
  524MOL0     C72235   3.630  -0.232   9.428 -1.1570 -0.2517 -0.3912
  524MOL0     C72236   3.598  -0.300   9.296 -1.2864 -0.9523  0.2625
  524MOL0     C72237   3.724  -0.313   9.214 -0.7713 -0.5403 -0.7010
  524MOL0     C72238   3.714  -0.424   9.117 -0.5894  0.2920  0.5447
  524MOL0     C72239   3.695  -0.514   9.037  0.4940 -0.2524 -0.0682
  524MOL0     C72240   3.261   0.064   9.415 -0.6095  1.1722  0.8339
  524MOL0     C72241   3.135   0.112   9.444  0.2839 -0.7926 -0.8187
  524MOL0     C72242   3.083   0.217   9.343 -0.1270 -0.3507  0.5536
  524MOL0     H72243   2.708   0.207   9.736  2.1792 -0.9220 -0.6594
  524MOL0     H72244   2.470   0.271   9.729 -0.0288  2.4408  0.2762
  524MOL0     H72245   2.226   0.224   9.328 -1.2059 -1.0146  1.6403
  524MOL0     H72246   2.326   0.375   9.347  2.2278 -1.5556  0.5955
  524MOL0     H72247   2.064   0.302   9.506  0.1863 -2.6782 -1.6659
  524MOL0     H72248   2.147   0.449   9.509 -1.2609  0.4102  0.0158
  524MOL0     H72249   2.012   0.326   9.267  0.7832 -0.5391  0.2578
  524MOL0     H72250   1.946   0.448   9.378 -1.6818  1.9749 -3.7710
  524MOL0     H72251   2.178   0.495   9.179  0.3983  0.0322  0.0561
  524MOL0     H72252   2.005   0.535   9.149 -0.6037 -0.6688  0.8442
  524MOL0     H72253   2.154   0.656   9.383 -0.7480  1.0455  0.4000
  524MOL0     H72254   1.991   0.689   9.331 -0.0310  1.0260  0.2425
  524MOL0     H72255   2.242   0.712   9.139  1.1306  2.8152 -1.3508
  524MOL0     H72256   2.082   0.737   9.103 -1.2787  0.3084  0.7344
  524MOL0     H72257   2.080   0.907   9.298  1.3323  2.4056  1.5142
  524MOL0     H72258   2.178   0.973   9.167  2.2553 -1.9293 -2.2767
  524MOL0     H72259   2.322   1.026   9.304  2.9940  0.0211 -0.5609
  524MOL0     H72260   2.282   0.896   9.424 -0.4666 -1.2402 -0.7237
  524MOL0     H72261   2.412   0.683   9.422 -3.2024  2.4197 -0.0077
  524MOL0     H72262   2.735   0.560   9.234 -2.2103  1.3802 -1.2728
  524MOL0     H72263   2.599   0.498   9.335 -0.2184 -0.2723 -1.6686
  524MOL0     H72264   2.795   0.706   9.434  1.6477 -1.4399 -2.5974
  524MOL0     H72265   2.660   0.637   9.527  0.3799 -0.1572  1.0386
  524MOL0     H72266   2.743   0.406   9.494  2.2808 -2.4713  0.3422
  524MOL0     H72267   2.868   0.468   9.398 -3.3848 -0.6917 -1.1015
  524MOL0     H72268   2.821   0.547   9.699  1.7497 -0.2458  1.7892
  524MOL0     H72269   2.938   0.431   9.645 -0.6233 -0.6458 -1.4858
  524MOL0     H72270   3.169   0.426   9.654  2.9485 -1.9809 -1.0928
  524MOL0     H72271   3.397   0.355   9.676 -1.8852  0.6961 -0.4074
  524MOL0     H72272   3.531   0.405   9.569  0.1176 -0.4773  0.5327
  524MOL0     H72273   3.392   0.306   9.507 -1.5057 -0.3497  1.6708
  524MOL0     H72274   3.828   0.673   9.423  3.3119  0.5131  0.0155
  524MOL0     H72275   4.012   0.752   9.327 -1.8059 -1.5180  2.6998
  524MOL0     H72276   4.167   0.867   9.224 -1.4346  1.5100  0.1877
  524MOL0     H72277   4.092   0.844   9.068 -1.3122  0.3813 -0.2661
  524MOL0     H72278   4.225   1.099   9.128  1.7892 -0.0931  0.2334
  524MOL0     H72279   4.322   0.964   9.063  1.6070  2.1488  1.7994
  524MOL0     H72280   4.067   1.093   8.945 -1.3784 -0.5112 -1.4026
  524MOL0     H72281   4.125   0.955   8.874 -2.8342  1.9352 -1.1715
  524MOL0     H72282   4.367   1.089   8.866 -2.2515 -5.0496  1.2343
  524MOL0     H72283   4.266   1.231   8.882  0.6531 -0.6569  1.0580
  524MOL0     H72284   4.241   1.039   8.660 -0.5569 -0.2010 -0.3188
  524MOL0     H72285   4.131   1.177   8.683 -0.6773 -0.6081  3.3426
  524MOL0     H72286   4.441   1.199   8.640 -0.2149  1.0511  0.3172
  524MOL0     H72287   4.335   1.331   8.660  0.2757  1.6325 -2.3511
  524MOL0     H72288   4.379   1.305   8.420 -1.3553  2.9402 -0.4080
  524MOL0     H72289   4.215   1.317   8.465 -0.0868 -0.0324  0.7959
  524MOL0     H72290   4.232   1.133   8.286 -0.9017  0.3314  0.5458
  524MOL0     H72291   4.161   1.072   8.430  1.4418 -2.0506  0.7095
  524MOL0     H72292   3.779   1.115   9.223 -3.8883 -1.2540 -0.1872
  524MOL0     H72293   3.598   1.027   9.329  0.0002 -0.4077 -0.9117
  524MOL0     H72294   3.320   0.825   9.399 -1.9616  0.0011  0.1743
  524MOL0     H72295   3.096   0.803   9.465  0.9603  1.1138  2.1093
  524MOL0     H72296   2.456   0.135   9.317 -1.5733  1.1071  0.5253
  524MOL0     H72297   2.691   0.100   9.323  1.0232  1.7959 -0.6247
  524MOL0     H72298   3.080  -0.068   9.733  2.2261 -2.4660  0.6574
  524MOL0     H72299   3.301  -0.164   9.652 -0.0070 -0.0431  0.1876
  524MOL0     H72300   3.535  -0.163   9.611  0.7285  0.6442 -0.8191
  524MOL0     H72301   3.437  -0.283   9.510  0.6085 -0.4082 -0.0564
  524MOL0     H72302   3.694  -0.299   9.486 -3.1190  0.3322  2.6857
  524MOL0     H72303   3.690  -0.143   9.409 -0.8107 -0.7474 -1.7388
  524MOL0     H72304   3.550  -0.396   9.318 -1.3563 -0.2501  3.6419
  524MOL0     H72305   3.527  -0.235   9.244  0.0305  0.0458 -0.3386
  524MOL0     H72306   3.808  -0.324   9.284  0.4062  1.4795 -1.7285
  524MOL0     H72307   3.734  -0.219   9.159  0.3495  0.5371  1.2400
  524MOL0     H72308   3.660  -0.584   8.963 -2.8895  1.3390 -0.1693
  524MOL0     H72309   3.323   0.108   9.337  1.8140  1.6069  2.8612
  524MOL0     H72310   3.014   0.171   9.272 -1.1520  1.4957  0.2857
  524MOL0     H72311   3.035   0.301   9.394 -2.2409 -1.2319  0.1109
  524MOL0     H72312   3.161   0.272   9.290 -2.0888  0.0730 -2.0817
  525MOL0     O72313  10.663   1.888   3.380  0.0048  0.1175  0.3280
  525MOL0     C72314  10.551   1.935   3.397 -0.0316  0.5675  0.6180
  525MOL0     O72315  10.507   1.985   3.514 -0.4474  0.3096 -0.0800
  525MOL0     C72316  10.603   2.006   3.611 -0.0754 -0.1520 -0.8287
  525MOL0     C72317  10.703   2.104   3.603 -0.3543 -0.8300 -0.0075
  525MOL0     C72318  10.779   2.139   3.713  0.4530 -0.7344 -0.6842
  525MOL0     C72319  10.780   2.069   3.831  0.7048  0.9304  0.2142
  525MOL0     O72320  10.869   2.102   3.922  0.0309 -0.0814 -0.1912
  525MOL0     C72321  10.950   1.997   3.986  0.0940 -0.7355 -0.2400
  525MOL0     C72322  11.054   2.067   4.070 -0.0186  0.3990  0.5540
  525MOL0     C72323  11.158   2.148   3.983  0.6762 -0.6913  0.4141
  525MOL0     C72324  11.266   2.233   4.055 -0.1189  0.2612 -0.3880
  525MOL0     C72325  11.207   2.345   4.149 -0.2461  0.2616 -0.0023
  525MOL0     C72326  11.122   2.449   4.078 -0.0009 -0.9150  0.1899
  525MOL0     C72327  11.052   2.545   4.177 -0.1329  0.1034  0.5363
  525MOL0     C72328  10.978   2.652   4.105  0.1477  0.1040 -0.7339
  525MOL0     N72329  10.849   2.605   4.056  0.3557  0.4234 -0.6012
  525MOL0     C72330  10.745   2.567   4.131  0.7456  0.1624  0.2004
  525MOL0     C72331  10.671   2.496   4.048  0.4024  0.0409 -0.5898
  525MOL0     C72332  10.544   2.425   4.069 -0.4646 -0.0687 -0.3141
  525MOL0     C72333  10.578   2.269   4.091  0.3208 -0.2528 -0.0673
  525MOL0     C72334  10.486   2.189   4.182 -0.3674 -0.7853 -0.1210
  525MOL0     C72335  10.519   2.042   4.188  0.2382  0.1363 -0.1128
  525MOL0     O72336  10.650   2.027   4.256  0.1896 -0.9379  0.7153
  525MOL0     C72337  10.706   1.908   4.282 -0.4115 -0.3140 -0.0290
  525MOL0     C72338  10.635   1.783   4.279 -0.9627  0.0309  0.3749
  525MOL0     C72339  10.697   1.668   4.333 -0.1327 -0.3931  0.4058
  525MOL0     C72340  10.613   1.542   4.322  0.3696  0.0864  0.0276
  525MOL0     C72341  10.827   1.670   4.383  0.5464  0.4247  0.1500
  525MOL0     C72342  10.905   1.549   4.437  0.8357 -0.3596 -0.1878
  525MOL0     O72343  11.032   1.577   4.457 -0.8369 -0.3561 -0.1824
  525MOL0     C72344  11.128   1.488   4.499  0.2020 -0.2685 -0.1774
  525MOL0     C72345  11.228   1.529   4.588  0.5103  0.4073  0.2672
  525MOL0     C72346  11.327   1.434   4.629 -0.1449 -0.4730  0.8418
  525MOL0     C72347  11.329   1.307   4.576 -0.0526  0.4721  0.4387
  525MOL0     O72348  11.426   1.220   4.609  0.3302 -0.0677 -0.7039
  525MOL0     C72349  11.479   1.135   4.508  0.0835 -0.6458 -0.3161
  525MOL0     C72350  11.628   1.108   4.532 -1.1206  0.1488  1.4683
  525MOL0     C72351  11.675   1.039   4.654  1.2793 -0.0451 -0.0051
  525MOL0     C72352  11.830   1.015   4.651  0.2044  1.0974 -0.5197
  525MOL0     C72353  11.897   0.990   4.794 -0.0796 -0.4288  0.5768
  525MOL0     C72354  12.046   0.959   4.808 -0.3540  0.2036  0.0786
  525MOL0     C72355  12.133   1.058   4.725 -0.0169 -0.5485 -0.3214
  525MOL0     C72356  12.276   1.036   4.754 -0.5056  0.6620  0.3102
  525MOL0    Cl72357  12.321   1.091   4.920 -0.1477  0.5021 -0.4377
  525MOL0     C72358  11.230   1.270   4.482 -0.6703 -0.4546 -0.3088
  525MOL0     C72359  11.138   1.359   4.444  0.5726  0.2030  0.0310
  525MOL0     O72360  10.854   1.440   4.446  0.5107 -0.3777  0.4323
  525MOL0     C72361  10.891   1.798   4.388 -0.6585 -0.0654  0.5668
  525MOL0     C72362  10.831   1.911   4.344 -0.3033 -0.4412  0.3387
  525MOL0     N72363  10.727   2.504   3.920 -0.4821  0.9496 -0.0843
  525MOL0     N72364  10.837   2.562   3.930  0.4810 -0.3666 -0.1572
  525MOL0     C72365  10.684   1.962   3.844 -0.7520 -0.6162  0.2724
  525MOL0     C72366  10.589   1.937   3.737  0.4233 -0.1492 -0.2954
  525MOL0     C72367  10.449   1.913   3.288  0.4846  0.0839  0.5981
  525MOL0     C72368  10.320   1.960   3.320  1.2541 -0.3546 -0.9423
  525MOL0     C72369  10.219   1.940   3.226 -1.2417  0.0925  0.1354
  525MOL0     C72370  10.248   1.882   3.097  0.4410 -0.7902 -0.5234
  525MOL0     O72371  10.138   1.879   3.013  0.2155 -0.1231  0.2270
  525MOL0     C72372  10.072   1.757   3.016  0.1676  0.0468  0.1943
  525MOL0     C72373   9.923   1.783   2.982  0.3360  0.1336  0.1341
  525MOL0     C72374   9.855   1.882   3.084  0.5778  0.3432 -0.1272
  525MOL0     C72375   9.719   1.928   3.024  0.1927  0.4196 -0.3440
  525MOL0     C72376   9.628   1.809   3.026 -0.1339 -0.1706  0.2173
  525MOL0     C72377   9.543   1.723   3.044 -0.0125  0.6850  0.2679
  525MOL0     C72378  10.380   1.849   3.072 -0.8471 -0.2291 -0.0971
  525MOL0     C72379  10.485   1.859   3.169 -0.5403  0.5242 -0.2492
  525MOL0     C72380  10.618   1.808   3.130 -0.0299 -0.1113 -0.2023
  525MOL0     H72381  10.707   2.161   3.511  2.0402 -0.7994  0.0453
  525MOL0     H72382  10.848   2.223   3.709  0.6049 -0.2035  4.9268
  525MOL0     H72383  11.000   1.948   3.901 -1.1340 -1.8509 -0.3472
  525MOL0     H72384  10.885   1.920   4.028 -2.8911  0.9918 -1.3754
  525MOL0     H72385  11.012   2.128   4.151  1.7303 -0.6561  2.3478
  525MOL0     H72386  11.106   1.989   4.126  0.3005  0.4276  0.2963
  525MOL0     H72387  11.204   2.089   3.902 -0.6493 -0.5964 -0.4338
  525MOL0     H72388  11.103   2.216   3.918  2.1287  0.4259  0.2985
  525MOL0     H72389  11.323   2.165   4.118  0.1687  0.7244 -0.1378
  525MOL0     H72390  11.333   2.281   3.982  0.4915  2.0465  1.2702
  525MOL0     H72391  11.296   2.398   4.185  2.0443 -0.6416 -3.7098
  525MOL0     H72392  11.151   2.303   4.232  0.1014 -1.8374 -0.7554
  525MOL0     H72393  11.188   2.506   4.012 -0.6694  1.9750  1.8169
  525MOL0     H72394  11.042   2.406   4.017 -0.9524 -0.8632  1.3705
  525MOL0     H72395  11.133   2.588   4.235  1.0015 -0.0170 -0.8949
  525MOL0     H72396  10.983   2.490   4.242  0.3333 -0.7959  0.2864
  525MOL0     H72397  10.946   2.734   4.170 -3.5265 -0.4846 -1.5690
  525MOL0     H72398  11.037   2.682   4.018  1.0653 -0.3531 -0.2867
  525MOL0     H72399  10.731   2.583   4.237 -1.7207 -1.6324  0.2375
  525MOL0     H72400  10.478   2.441   3.983 -1.2821  0.6574  0.4344
  525MOL0     H72401  10.493   2.476   4.151  0.8646  1.6504 -0.5049
  525MOL0     H72402  10.574   2.222   3.992  0.3619  0.7826 -0.5822
  525MOL0     H72403  10.676   2.252   4.136 -1.5921 -2.7645  3.5706
  525MOL0     H72404  10.503   2.226   4.283  2.6895  0.9334 -1.1110
  525MOL0     H72405  10.383   2.216   4.155  0.2826  0.7700 -1.2570
  525MOL0     H72406  10.438   1.983   4.232 -1.0987  0.6327 -1.8068
  525MOL0     H72407  10.525   2.002   4.086 -0.4481 -1.5523  0.4728
  525MOL0     H72408  10.534   1.781   4.237 -0.2908 -0.5301 -1.3111
  525MOL0     H72409  10.559   1.529   4.416  0.6364 -0.1371  0.1508
  525MOL0     H72410  10.670   1.452   4.296  0.5593 -0.2057  1.3798
  525MOL0     H72411  10.524   1.557   4.260 -0.7455 -1.3248  1.2024
  525MOL0     H72412  11.229   1.632   4.624 -0.3646  0.0196  1.4282
  525MOL0     H72413  11.403   1.476   4.695  0.6418 -0.5858  0.0382
  525MOL0     H72414  11.425   1.040   4.503  0.5772 -0.9067 -0.9461
  525MOL0     H72415  11.462   1.184   4.412 -1.3465 -3.3033 -1.5230
  525MOL0     H72416  11.670   1.060   4.443 -0.5034  0.7941  1.3997
  525MOL0     H72417  11.682   1.203   4.538 -1.0824  0.2013  0.4689
  525MOL0     H72418  11.619   0.945   4.663 -0.7030  1.2736  3.2668
  525MOL0     H72419  11.653   1.092   4.747  2.8076 -2.0848  1.5887
  525MOL0     H72420  11.885   1.105   4.621 -3.0982  3.7686  0.8277
  525MOL0     H72421  11.844   0.936   4.577 -2.5650 -2.5875  2.4837
  525MOL0     H72422  11.896   1.086   4.847  4.3171 -0.3836  0.9879
  525MOL0     H72423  11.846   0.919   4.859  0.8040 -1.1506  0.5002
  525MOL0     H72424  12.067   0.853   4.794 -1.1884 -0.2079  1.7100
  525MOL0     H72425  12.065   0.968   4.916 -2.6509  1.8185  0.4044
  525MOL0     H72426  12.103   1.161   4.748  1.3587 -0.2291  0.1227
  525MOL0     H72427  12.124   1.054   4.616  0.1573  4.1624 -0.7352
  525MOL0     H72428  12.330   1.091   4.676 -0.8685 -0.0019 -0.4260
  525MOL0     H72429  12.312   0.934   4.741  0.8629  0.6290  3.4141
  525MOL0     H72430  11.230   1.164   4.458 -2.2055 -0.3671 -0.8231
  525MOL0     H72431  11.061   1.316   4.380 -0.9338  0.1906  1.7657
  525MOL0     H72432  10.994   1.809   4.421 -1.6410  0.8296  3.6828
  525MOL0     H72433  10.879   2.008   4.349  1.3613 -1.2778  1.6881
  525MOL0     H72434  10.691   1.896   3.929 -0.5834  0.6016  1.2260
  525MOL0     H72435  10.519   1.854   3.747  2.5906 -1.9013  1.3822
  525MOL0     H72436  10.292   1.992   3.420  1.4364 -3.3542  0.1790
  525MOL0     H72437  10.119   1.976   3.250 -1.5655 -0.4092 -0.4677
  525MOL0     H72438  10.114   1.702   2.931 -0.5995 -2.3107  1.2568
  525MOL0     H72439  10.088   1.691   3.101  0.9188 -1.1963 -0.8698
  525MOL0     H72440   9.880   1.683   2.979 -1.8913  0.9488  1.9971
  525MOL0     H72441   9.923   1.818   2.878  2.4236 -2.4668 -0.8441
  525MOL0     H72442   9.843   1.848   3.188 -3.7101 -0.5741 -0.7285
  525MOL0     H72443   9.925   1.966   3.090  2.0731 -0.9779  2.4765
  525MOL0     H72444   9.750   1.959   2.924  1.2678  0.0166 -0.1447
  525MOL0     H72445   9.669   2.002   3.088  1.5485 -1.8172  3.6137
  525MOL0     H72446   9.456   1.663   3.060 -0.6572  1.7551  0.8660
  525MOL0     H72447  10.394   1.813   2.971  0.2860 -0.6730  0.1928
  525MOL0     H72448  10.620   1.775   3.025  1.0539 -0.2559 -0.1534
  525MOL0     H72449  10.693   1.886   3.145  1.5700 -1.3528 -1.2838
  525MOL0     H72450  10.640   1.716   3.184 -0.5471 -1.0232 -1.4808
  526MOL0     O72451   4.487   5.039   1.994  0.3149  1.2345 -0.1910
  526MOL0     C72452   4.580   4.953   2.008 -0.4626  0.2185  0.5262
  526MOL0     O72453   4.688   4.960   2.095 -0.6111  0.0770 -0.4671
  526MOL0     C72454   4.717   5.086   2.124  0.8381  0.8773  0.1701
  526MOL0     C72455   4.810   5.157   2.056 -0.9549  0.1524 -0.2705
  526MOL0     C72456   4.828   5.291   2.084  0.3666  0.1712 -0.7430
  526MOL0     C72457   4.756   5.342   2.192 -0.1248 -0.2359  0.0846
  526MOL0     O72458   4.770   5.482   2.217  0.2760  0.6152 -0.0569
  526MOL0     C72459   4.751   5.540   2.346 -0.8031  0.5905 -0.0044
  526MOL0     C72460   4.865   5.645   2.383  0.2863 -0.3467  0.7658
  526MOL0     C72461   4.857   5.648   2.531 -0.3389 -0.4891 -0.5100
  526MOL0     C72462   4.946   5.755   2.595 -0.3941  0.5869 -0.3645
  526MOL0     C72463   5.090   5.714   2.625 -0.4972 -0.4356 -0.0246
  526MOL0     C72464   5.192   5.829   2.645 -0.8240 -0.3098 -0.1832
  526MOL0     C72465   5.330   5.767   2.668  0.3973  0.5312 -0.2185
  526MOL0     C72466   5.427   5.859   2.747  0.0772 -0.0523  0.5240
  526MOL0     N72467   5.554   5.795   2.754  0.0296  0.5340 -0.0796
  526MOL0     C72468   5.590   5.709   2.854 -0.1934 -0.9283 -0.1854
  526MOL0     C72469   5.716   5.674   2.822 -0.1188 -0.6969  0.0000
  526MOL0     C72470   5.803   5.583   2.909 -0.3097 -0.0620 -0.1586
  526MOL0     C72471   5.936   5.562   2.846  0.3502  0.0398 -0.1852
  526MOL0     C72472   6.033   5.480   2.929 -0.0133 -0.5041 -1.2117
  526MOL0     C72473   6.081   5.553   3.051  0.2514 -0.2381 -0.6430
  526MOL0     O72474   6.130   5.462   3.152  0.6437 -0.6410 -0.2345
  526MOL0     C72475   6.261   5.415   3.137 -1.1254 -0.6457 -0.3341
  526MOL0     C72476   6.356   5.462   3.039  0.3014  0.9759  0.0551
  526MOL0     C72477   6.490   5.424   3.043  0.2326 -0.0270 -0.1191
  526MOL0     C72478   6.585   5.484   2.942 -0.0035 -0.2671  0.8157
  526MOL0     C72479   6.535   5.327   3.141  0.7651 -1.0364 -0.1586
  526MOL0     C72480   6.674   5.282   3.156  0.7322  0.0075  0.5160
  526MOL0     O72481   6.750   5.282   3.048 -0.0083 -0.2684  0.0268
  526MOL0     C72482   6.880   5.245   3.056  0.4622  0.2487 -0.6720
  526MOL0     C72483   6.987   5.333   3.057 -0.0193 -0.2128 -0.0497
  526MOL0     C72484   7.114   5.293   3.092 -0.3086  0.4911  0.3144
  526MOL0     C72485   7.155   5.161   3.102 -0.6353  0.5945  0.1368
  526MOL0     O72486   7.284   5.110   3.108 -0.4542 -0.4904 -0.5557
  526MOL0     C72487   7.389   5.195   3.170 -1.0812  0.1035 -0.3439
  526MOL0     C72488   7.499   5.229   3.075  1.0762  0.3385  0.2604
  526MOL0     C72489   7.586   5.113   3.028 -0.6504 -0.0567 -0.5589
  526MOL0     C72490   7.709   5.097   3.119 -0.2794  0.7358 -0.7040
  526MOL0     C72491   7.792   4.964   3.086  0.2139  0.3930  0.7621
  526MOL0     C72492   7.909   4.950   3.174 -0.1474 -0.1575 -0.2591
  526MOL0     C72493   7.967   4.809   3.136  0.1548  0.1379 -0.6511
  526MOL0     C72494   8.096   4.817   3.046 -0.2220 -0.2556 -0.1364
  526MOL0    Cl72495   8.147   4.649   3.045 -0.4569  0.3945  0.3105
  526MOL0     C72496   7.053   5.071   3.086 -0.0964  1.0420  0.0110
  526MOL0     C72497   6.921   5.116   3.063 -0.2107  1.2644 -0.3772
  526MOL0     O72498   6.716   5.244   3.265 -0.0182  0.2489  1.1460
  526MOL0     C72499   6.441   5.280   3.237 -0.5824 -1.0792  0.3277
  526MOL0     C72500   6.309   5.328   3.236 -0.8704 -0.4789 -0.3116
  526MOL0     N72501   5.753   5.743   2.704 -0.0212  0.5311 -0.2980
  526MOL0     N72502   5.653   5.810   2.662 -0.5105 -0.2311 -0.1430
  526MOL0     C72503   4.659   5.277   2.259  0.2827  0.3410  0.3058
  526MOL0     C72504   4.640   5.149   2.225  0.0089  0.4380  0.2211
  526MOL0     C72505   4.568   4.823   1.934  0.9864 -0.8467  0.1663
  526MOL0     C72506   4.651   4.798   1.826  0.0236 -0.3195  0.0566
  526MOL0     C72507   4.643   4.675   1.759 -0.3192 -1.0502 -0.2273
  526MOL0     C72508   4.549   4.578   1.796 -0.4337  0.2876 -0.1963
  526MOL0     O72509   4.541   4.452   1.738 -0.6249  0.1670 -0.4295
  526MOL0     C72510   4.648   4.413   1.649 -0.2245  0.1450  0.2595
  526MOL0     C72511   4.620   4.267   1.605  0.7477  0.0165 -0.1685
  526MOL0     C72512   4.612   4.166   1.718  0.2959 -0.4317 -0.8514
  526MOL0     C72513   4.527   4.040   1.685 -0.6176 -0.3393  0.3424
  526MOL0     C72514   4.599   3.972   1.568  0.7552 -0.4766  1.0800
  526MOL0     C72515   4.639   3.911   1.471 -0.6021 -0.0788 -0.1357
  526MOL0     C72516   4.450   4.610   1.892  0.2733  0.0051  0.1199
  526MOL0     C72517   4.459   4.734   1.969 -0.7254  0.4752  0.8300
  526MOL0     C72518   4.367   4.768   2.083 -0.1828  0.7566  0.0351
  526MOL0     H72519   4.877   5.116   1.982 -1.5907 -0.2892 -0.6181
  526MOL0     H72520   4.909   5.339   2.031  2.0187  1.2873  2.4844
  526MOL0     H72521   4.751   5.462   2.423 -0.2764 -0.3889 -0.9536
  526MOL0     H72522   4.650   5.580   2.334 -0.5062  1.4647  0.3217
  526MOL0     H72523   4.958   5.596   2.352 -0.2685 -2.1016  1.7586
  526MOL0     H72524   4.850   5.743   2.337  1.2781 -0.5747 -0.0820
  526MOL0     H72525   4.756   5.667   2.567 -0.4005  0.8352 -1.3123
  526MOL0     H72526   4.886   5.550   2.572 -2.6247 -0.8029  0.5162
  526MOL0     H72527   4.933   5.845   2.534 -0.9659  4.4849  4.8688
  526MOL0     H72528   4.906   5.787   2.691 -0.0276  0.1303 -0.0496
  526MOL0     H72529   5.124   5.653   2.540 -2.1726  1.7062 -2.4060
  526MOL0     H72530   5.097   5.655   2.717  2.0155  0.3574  0.3845
  526MOL0     H72531   5.185   5.890   2.554 -1.4371  2.4996  1.6131
  526MOL0     H72532   5.164   5.888   2.733 -5.3886  2.8522 -3.2675
  526MOL0     H72533   5.367   5.742   2.568 -1.0657  0.2378 -0.7134
  526MOL0     H72534   5.312   5.676   2.726 -5.3132  0.3309 -1.6550
  526MOL0     H72535   5.434   5.958   2.702 -1.0562 -0.2598 -0.1565
  526MOL0     H72536   5.385   5.876   2.847  1.4189 -1.6702  1.4040
  526MOL0     H72537   5.529   5.686   2.941 -2.9824 -0.2293 -1.8288
  526MOL0     H72538   5.738   5.497   2.926 -1.5492  0.9452  0.3564
  526MOL0     H72539   5.819   5.634   3.004 -1.5643 -0.6362  0.3832
  526MOL0     H72540   5.930   5.500   2.756  2.3147  0.0708 -0.3879
  526MOL0     H72541   5.981   5.658   2.819  0.7803  0.0303  0.4897
  526MOL0     H72542   5.978   5.391   2.959  0.5343 -0.9835 -1.6130
  526MOL0     H72543   6.115   5.465   2.858  1.2206  2.3758 -0.5797
  526MOL0     H72544   6.151   5.629   3.015  0.9585 -1.2123 -1.4088
  526MOL0     H72545   6.003   5.601   3.111  0.9871 -0.3207  0.3901
  526MOL0     H72546   6.323   5.529   2.961 -2.6109  1.1943  1.3549
  526MOL0     H72547   6.615   5.404   2.874  1.2090  2.2173 -1.8114
  526MOL0     H72548   6.676   5.524   2.987 -0.1200  1.0803 -0.0674
  526MOL0     H72549   6.542   5.560   2.876 -1.0143  1.2967  3.1278
  526MOL0     H72550   6.977   5.441   3.056  0.6195 -0.1156 -1.9659
  526MOL0     H72551   7.183   5.373   3.113  0.7485  0.5061 -2.7490
  526MOL0     H72552   7.352   5.288   3.215 -2.1327 -0.3379 -0.2681
  526MOL0     H72553   7.428   5.135   3.252  0.1100 -0.6303 -1.4151
  526MOL0     H72554   7.451   5.271   2.986  0.0959  0.9357  1.0553
  526MOL0     H72555   7.563   5.311   3.110  0.5507  0.6390  0.5282
  526MOL0     H72556   7.621   5.128   2.925  0.0226 -1.2338 -0.5108
  526MOL0     H72557   7.529   5.020   3.027  0.9769 -1.1229 -2.7470
  526MOL0     H72558   7.671   5.087   3.221 -2.7536 -0.2012 -1.6295
  526MOL0     H72559   7.774   5.183   3.103 -1.4776  1.4790 -1.8049
  526MOL0     H72560   7.731   4.876   3.107 -3.0206  2.6193  1.5074
  526MOL0     H72561   7.806   4.959   2.977 -4.0430 -0.1970  0.0672
  526MOL0     H72562   7.879   4.956   3.279  0.2832  0.3293 -0.1652
  526MOL0     H72563   7.981   5.031   3.157 -0.1985  0.0240  0.3767
  526MOL0     H72564   7.890   4.757   3.079 -1.0247  0.0178  0.9907
  526MOL0     H72565   7.987   4.751   3.227  1.5868 -0.7420 -1.4950
  526MOL0     H72566   8.170   4.892   3.076 -3.4867  3.7970 -1.2752
  526MOL0     H72567   8.062   4.846   2.947  0.0923  0.1196 -0.1367
  526MOL0     H72568   7.098   4.973   3.093 -0.7350  0.8492  2.2823
  526MOL0     H72569   6.841   5.043   3.050  0.2652  0.5899  0.4410
  526MOL0     H72570   6.476   5.202   3.304 -0.3752 -0.8828  0.4516
  526MOL0     H72571   6.252   5.275   3.311  1.7423  1.6290  3.5069
  526MOL0     H72572   4.611   5.323   2.345  3.3488  2.4805  1.0157
  526MOL0     H72573   4.564   5.083   2.265 -1.3031  0.7444 -1.6724
  526MOL0     H72574   4.728   4.868   1.796 -1.7294  1.6665 -0.0841
  526MOL0     H72575   4.723   4.668   1.686  0.5830 -0.4564  0.6752
  526MOL0     H72576   4.654   4.479   1.562 -0.7077 -0.2627 -0.0925
  526MOL0     H72577   4.746   4.419   1.696 -0.3008  1.5102  0.2785
  526MOL0     H72578   4.700   4.234   1.538 -0.8065 -1.3669 -1.4402
  526MOL0     H72579   4.529   4.264   1.545  0.5579 -2.0090  0.1298
  526MOL0     H72580   4.714   4.141   1.747 -0.4867 -1.1031  1.6716
  526MOL0     H72581   4.569   4.212   1.808  2.7781 -0.7831  0.6033
  526MOL0     H72582   4.427   4.074   1.653 -0.0832 -1.0456 -2.3045
  526MOL0     H72583   4.525   3.968   1.767 -2.1812 -0.0898  0.5580
  526MOL0     H72584   4.671   3.848   1.391 -0.4885  0.1214 -0.2495
  526MOL0     H72585   4.377   4.534   1.917 -0.5370  1.2969  1.9049
  526MOL0     H72586   4.411   4.844   2.147  0.9302  3.5181 -3.6602
  526MOL0     H72587   4.275   4.798   2.031  0.7225  3.8267  0.0747
  526MOL0     H72588   4.342   4.687   2.152 -1.5067  2.4360  1.6129
  527MOL0     O72589   7.850   1.897   0.003  0.5693  0.2796 -0.1259
  527MOL0     C72590   7.810   1.795  -0.053 -0.2374  0.3292 -0.6728
  527MOL0     O72591   7.890   1.712  -0.128  0.0276 -0.7140  0.1106
  527MOL0     C72592   8.013   1.759  -0.170  0.5645  0.1912 -0.0146
  527MOL0     C72593   8.123   1.720  -0.094  0.2367  0.1829 -0.8559
  527MOL0     C72594   8.249   1.756  -0.133 -0.4885  0.1275  0.5039
  527MOL0     C72595   8.266   1.834  -0.250 -0.3279 -0.1460 -0.2146
  527MOL0     O72596   8.391   1.878  -0.298  0.0137  0.9985 -0.0616
  527MOL0     C72597   8.503   1.792  -0.281  0.6768 -0.6416  0.3913
  527MOL0     C72598   8.586   1.817  -0.412 -0.3837  0.3267 -0.8982
  527MOL0     C72599   8.691   1.711  -0.438 -1.1980 -0.2970 -0.3119
  527MOL0     C72600   8.820   1.732  -0.354 -0.4254  0.5625  0.3207
  527MOL0     C72601   8.926   1.813  -0.427  0.5412  0.4434 -0.1393
  527MOL0     C72602   9.059   1.794  -0.354  0.8869 -0.4383  1.0040
  527MOL0     C72603   9.154   1.907  -0.407  0.7026  0.6082 -0.0197
  527MOL0     C72604   9.292   1.914  -0.338  0.2042 -0.5443 -0.1268
  527MOL0     N72605   9.368   2.034  -0.379 -0.7085  0.2941 -0.5987
  527MOL0     C72606   9.502   2.062  -0.354 -0.4781 -1.6323 -0.1139
  527MOL0     C72607   9.521   2.198  -0.388  0.5784  0.7746  0.6408
  527MOL0     C72608   9.640   2.297  -0.387  0.1187  0.8342  0.3005
  527MOL0     C72609   9.697   2.325  -0.252  0.0362 -0.2136  0.4411
  527MOL0     C72610   9.595   2.378  -0.150  0.0499 -0.5316  0.7354
  527MOL0     C72611   9.651   2.357  -0.005  0.5041  0.5895 -0.2360
  527MOL0     O72612   9.792   2.369   0.013 -0.1842 -0.1462  0.8024
  527MOL0     C72613   9.850   2.491   0.048  0.0596  0.6437 -0.4152
  527MOL0     C72614   9.983   2.481   0.088 -0.1876 -0.1668  0.2108
  527MOL0     C72615  10.055   2.598   0.112 -0.3625 -0.3425 -0.2890
  527MOL0     C72616  10.191   2.593   0.168 -0.1298 -0.4973  0.3010
  527MOL0     C72617   9.984   2.719   0.097  0.4558 -0.4093 -0.4754
  527MOL0     C72618  10.050   2.850   0.118 -0.4160  1.1564 -0.6414
  527MOL0     O72619   9.965   2.948   0.169 -0.7272 -0.0634 -0.2120
  527MOL0     C72620  10.023   3.071   0.188  0.3352  0.4209 -0.7145
  527MOL0     C72621  10.047   3.147   0.077 -0.2595 -0.5511 -0.6048
  527MOL0     C72622  10.115   3.272   0.095 -0.0868 -0.3164 -0.3726
  527MOL0     C72623  10.161   3.326   0.216 -0.2205  0.7613 -0.3056
  527MOL0     O72624  10.233   3.436   0.205  0.4091  0.1469 -1.3080
  527MOL0     C72625  10.253   3.502   0.330  0.0775  0.1962  0.0940
  527MOL0     C72626  10.321   3.647   0.304  0.2290  0.4736  0.1233
  527MOL0     C72627  10.354   3.744   0.423  0.4878 -0.3876 -0.2152
  527MOL0     C72628  10.437   3.673   0.522 -0.6369  0.6804 -0.4733
  527MOL0     C72629  10.535   3.771   0.593  0.7377  0.4727 -0.1873
  527MOL0     C72630  10.641   3.709   0.683 -0.5355  0.2903 -1.0416
  527MOL0     C72631  10.760   3.808   0.698  0.6841  0.1346  0.0965
  527MOL0     C72632  10.860   3.747   0.805  0.1841 -0.0804  0.1480
  527MOL0    Cl72633  10.962   3.637   0.715 -0.2699  0.3497  0.0938
  527MOL0     C72634  10.126   3.248   0.330  0.5890 -0.1134  0.0509
  527MOL0     C72635  10.064   3.118   0.313  0.1675 -0.4844 -0.0497
  527MOL0     O72636  10.166   2.866   0.094  0.2192 -1.2258  0.7291
  527MOL0     C72637   9.847   2.722   0.067  0.7365  0.1618  0.1494
  527MOL0     C72638   9.785   2.608   0.040  0.7940 -0.9322 -0.0389
  527MOL0     N72639   9.402   2.245  -0.437 -0.3960 -0.1578  0.6968
  527MOL0     N72640   9.313   2.151  -0.428  0.0441  0.6082 -0.4933
  527MOL0     C72641   8.153   1.867  -0.324 -0.1660 -0.7556 -0.0807
  527MOL0     C72642   8.022   1.836  -0.283 -0.2387 -0.0446  0.6785
  527MOL0     C72643   7.673   1.762  -0.030 -0.3045  0.3152  0.0883
  527MOL0     C72644   7.581   1.864  -0.043 -0.3142 -0.0281 -0.5127
  527MOL0     C72645   7.445   1.836  -0.049 -0.7582 -0.3113  0.2322
  527MOL0     C72646   7.388   1.707  -0.035 -0.0659 -0.2163 -0.3652
  527MOL0     O72647   7.254   1.677  -0.038  0.4614  0.1642  0.7605
  527MOL0     C72648   7.171   1.781  -0.090  0.3553 -0.2777  0.3856
  527MOL0     C72649   7.026   1.731  -0.063 -0.0989  0.1563 -0.1432
  527MOL0     C72650   6.927   1.811  -0.140 -0.7542 -0.1736  0.3391
  527MOL0     C72651   6.926   1.785  -0.293 -0.7832 -1.0372 -0.0800
  527MOL0     C72652   6.802   1.844  -0.350 -0.2496 -0.5504  0.0216
  527MOL0     C72653   6.695   1.889  -0.394 -0.0927 -0.4529  0.4242
  527MOL0     C72654   7.484   1.606   0.003  0.0451 -0.9708  0.1050
  527MOL0     C72655   7.627   1.627  -0.001 -0.6329 -0.6560 -0.0536
  527MOL0     C72656   7.724   1.514   0.006 -0.4378  0.2904  0.1048
  527MOL0     H72657   8.105   1.659  -0.006  2.3430 -0.9868 -1.1775
  527MOL0     H72658   8.345   1.729  -0.091 -0.2071 -0.3278 -0.3962
  527MOL0     H72659   8.470   1.688  -0.278 -2.1961  0.1957  1.5472
  527MOL0     H72660   8.559   1.820  -0.192  0.0875  0.3315  0.4721
  527MOL0     H72661   8.518   1.816  -0.498  0.3524 -0.2943 -1.4785
  527MOL0     H72662   8.632   1.916  -0.402 -2.7695  1.3262  2.0162
  527MOL0     H72663   8.666   1.607  -0.412 -3.8470  0.7353  1.8036
  527MOL0     H72664   8.724   1.711  -0.542  4.4574 -1.1460  1.1506
  527MOL0     H72665   8.788   1.783  -0.263 -0.0064  2.9710 -0.8199
  527MOL0     H72666   8.850   1.633  -0.319 -1.6136  1.1804  3.4198
  527MOL0     H72667   8.892   1.916  -0.419  1.1784  0.5310  3.4755
  527MOL0     H72668   8.926   1.789  -0.534 -2.3727  4.7036 -1.3189
  527MOL0     H72669   9.058   1.801  -0.245  0.5971 -2.9648  1.2122
  527MOL0     H72670   9.101   1.697  -0.382  3.4396  0.8576 -0.0101
  527MOL0     H72671   9.104   2.003  -0.415  0.7834  0.5072 -2.2050
  527MOL0     H72672   9.170   1.882  -0.512 -1.1631  0.9122 -0.4058
  527MOL0     H72673   9.297   1.915  -0.229  1.9291  0.7627 -0.1638
  527MOL0     H72674   9.344   1.825  -0.374 -0.3905 -1.4457  1.2001
  527MOL0     H72675   9.575   2.001  -0.302  0.8590  0.4543  0.6166
  527MOL0     H72676   9.606   2.394  -0.425  1.6924  0.6121 -1.8993
  527MOL0     H72677   9.721   2.266  -0.453 -0.3575  1.9257 -0.8303
  527MOL0     H72678   9.737   2.236  -0.203 -0.6102 -0.5616  0.3543
  527MOL0     H72679   9.767   2.407  -0.270  0.6457 -1.0711 -1.4107
  527MOL0     H72680   9.591   2.486  -0.166 -1.5482 -0.6607  0.0391
  527MOL0     H72681   9.493   2.341  -0.160 -0.3133  0.0862  1.9695
  527MOL0     H72682   9.592   2.423   0.060  0.3555 -1.4239  1.7959
  527MOL0     H72683   9.629   2.254   0.024 -0.4664  0.2471 -2.0376
  527MOL0     H72684  10.027   2.384   0.112 -0.0022 -0.5265 -1.4666
  527MOL0     H72685  10.209   2.650   0.260  0.8044 -2.3441  1.3303
  527MOL0     H72686  10.270   2.615   0.097  0.7262  0.6190  1.5479
  527MOL0     H72687  10.212   2.489   0.194  0.3098 -0.0439  1.8659
  527MOL0     H72688  10.025   3.108  -0.021 -0.1795  1.0035 -1.2664
  527MOL0     H72689  10.121   3.335   0.007 -1.2787 -0.4015 -0.5388
  527MOL0     H72690  10.170   3.523   0.397  0.6394  4.9544 -0.3220
  527MOL0     H72691  10.324   3.442   0.389  0.5931 -1.0149 -1.6778
  527MOL0     H72692  10.414   3.632   0.250  0.0429  2.4323 -0.7993
  527MOL0     H72693  10.251   3.700   0.239 -0.5906  2.1407  2.2100
  527MOL0     H72694  10.259   3.773   0.469  0.7167 -0.7263  0.4924
  527MOL0     H72695  10.412   3.828   0.382 -1.7240  0.5958 -1.4941
  527MOL0     H72696  10.495   3.587   0.486  0.4386  1.3356 -0.3566
  527MOL0     H72697  10.369   3.632   0.597  2.2325 -1.2109  1.3361
  527MOL0     H72698  10.590   3.815   0.509  2.4901 -0.8878  0.1877
  527MOL0     H72699  10.469   3.844   0.640 -1.3554  0.2236 -2.5044
  527MOL0     H72700  10.662   3.612   0.636  1.8149  0.2197  0.0117
  527MOL0     H72701  10.603   3.700   0.785 -1.5852  0.7309 -1.3800
  527MOL0     H72702  10.719   3.905   0.726  0.2935 -0.1801  0.6118
  527MOL0     H72703  10.801   3.823   0.597 -0.9310 -0.8567 -0.7625
  527MOL0     H72704  10.803   3.704   0.888  0.6923 -0.8341  0.1192
  527MOL0     H72705  10.927   3.821   0.851  1.9023 -1.2936 -0.3118
  527MOL0     H72706  10.161   3.274   0.429  0.9506 -1.1917  0.2222
  527MOL0     H72707  10.058   3.052   0.398 -2.4551 -0.4105 -0.0869
  527MOL0     H72708   9.801   2.821   0.064 -1.9091 -0.9726 -2.8868
  527MOL0     H72709   9.681   2.619   0.011  0.7667 -1.4441 -0.1438
  527MOL0     H72710   8.165   1.924  -0.415 -2.1967 -0.5140 -0.2509
  527MOL0     H72711   7.932   1.876  -0.328 -1.0939 -0.6454  1.8023
  527MOL0     H72712   7.604   1.966  -0.074  0.0722 -0.7062 -2.6418
  527MOL0     H72713   7.384   1.924  -0.066 -1.5959  0.1111  4.3371
  527MOL0     H72714   7.179   1.880  -0.046 -1.3674 -0.6171  1.5822
  527MOL0     H72715   7.185   1.796  -0.198 -0.4124  2.4729  0.5915
  527MOL0     H72716   7.001   1.746   0.042 -1.9707 -1.7197 -0.2531
  527MOL0     H72717   7.010   1.624  -0.080 -0.3550  0.0071  0.9622
  527MOL0     H72718   6.830   1.785  -0.099 -1.1452 -0.3795 -0.6742
  527MOL0     H72719   6.940   1.915  -0.111  0.6479 -0.3193  0.3240
  527MOL0     H72720   6.930   1.678  -0.314 -0.8089 -1.1747  0.5875
  527MOL0     H72721   7.017   1.825  -0.339  0.3621 -1.1124  1.9737
  527MOL0     H72722   6.608   1.930  -0.441 -0.7380 -0.5632  1.4903
  527MOL0     H72723   7.447   1.507   0.025 -0.4819 -0.7548  0.2057
  527MOL0     H72724   7.770   1.486  -0.089 -0.1161  2.7388 -0.5203
  527MOL0     H72725   7.810   1.539   0.067 -2.3998 -1.0491  3.6986
  527MOL0     H72726   7.672   1.431   0.055  0.9011  0.4273  1.8242
  528MOL0     O72727   7.362   9.992   0.340  0.1135 -0.3360  0.0993
  528MOL0     C72728   7.262   9.945   0.288 -1.2294  0.0394 -0.0716
  528MOL0     O72729   7.209   9.981   0.172 -0.0386 -0.8981 -0.4459
  528MOL0     C72730   7.283  10.055   0.083 -0.1086  0.6635  0.4405
  528MOL0     C72731   7.203  10.127  -0.014 -0.8263  0.1755  1.1708
  528MOL0     C72732   7.269  10.198  -0.120 -0.0987  0.5810  0.6369
  528MOL0     C72733   7.409  10.191  -0.128  0.0730  0.0558 -0.4366
  528MOL0     O72734   7.459  10.274  -0.230  0.2766 -0.1075 -0.6453
  528MOL0     C72735   7.602  10.269  -0.248 -0.1997  0.8445  0.2335
  528MOL0     C72736   7.644  10.362  -0.360  0.0037  0.7433  0.0184
  528MOL0     C72737   7.792  10.413  -0.354 -0.3169 -0.0545  0.5734
  528MOL0     C72738   7.898  10.331  -0.431  0.1385  0.9141  0.7634
  528MOL0     C72739   8.040  10.394  -0.436  0.3288 -0.4959 -0.5046
  528MOL0     C72740   8.155  10.291  -0.487 -0.1776  0.0078  0.5722
  528MOL0     C72741   8.122  10.225  -0.621  0.3414 -0.6909  0.5511
  528MOL0     C72742   8.235  10.153  -0.692  0.7066 -0.0344 -0.7128
  528MOL0     N72743   8.360  10.224  -0.684 -0.1188  0.3085 -0.6474
  528MOL0     C72744   8.492  10.182  -0.663  0.5054 -0.2722  0.1744
  528MOL0     C72745   8.567  10.290  -0.691 -0.3111 -0.2411  0.1529
  528MOL0     C72746   8.717  10.315  -0.685  0.5996  0.8569 -0.1081
  528MOL0     C72747   8.794  10.186  -0.637 -0.0183  0.2025 -1.0388
  528MOL0     C72748   8.949  10.203  -0.634 -0.5256 -0.3314  0.2456
  528MOL0     C72749   9.011  10.231  -0.773  0.2546  0.2599  0.0216
  528MOL0     O72750   9.142  10.299  -0.752 -0.2498 -0.8790  0.5833
  528MOL0     C72751   9.247  10.214  -0.756 -0.0945  0.4310  0.0322
  528MOL0     C72752   9.355  10.237  -0.667  0.0243  0.0797 -0.0180
  528MOL0     C72753   9.476  10.171  -0.670  0.5915  0.3282 -0.0076
  528MOL0     C72754   9.577  10.192  -0.562  0.0912 -0.6246  0.2252
  528MOL0     C72755   9.495  10.085  -0.777 -0.5282  0.0318 -0.6752
  528MOL0     C72756   9.619  10.016  -0.783 -0.1222  0.4419  0.4094
  528MOL0     O72757   9.639   9.932  -0.693  0.8804 -0.7043 -0.3872
  528MOL0     C72758   9.760   9.886  -0.660 -0.3514 -0.2924  0.8298
  528MOL0     C72759   9.884   9.954  -0.680 -0.7893  0.3461 -0.5583
  528MOL0     C72760  10.002   9.883  -0.647 -0.4074  0.3553  0.3166
  528MOL0     C72761  10.002   9.748  -0.594 -0.0600 -0.0972 -1.6036
  528MOL0     O72762  10.108   9.681  -0.545 -0.5092 -0.4177 -0.0538
  528MOL0     C72763  10.248   9.727  -0.550  0.6028  0.0590 -0.2308
  528MOL0     C72764  10.309   9.715  -0.689 -0.0316  0.5632 -0.2930
  528MOL0     C72765  10.363   9.572  -0.737  0.2900  0.2319  0.1391
  528MOL0     C72766  10.498   9.553  -0.802  0.7795 -0.1005  0.7572
  528MOL0     C72767  10.497   9.616  -0.940  0.1593 -0.3566  0.1756
  528MOL0     C72768  10.626   9.577  -1.023  0.0959 -0.8165 -0.6635
  528MOL0     C72769  10.754   9.662  -1.006 -0.6978  0.1702  0.0782
  528MOL0     C72770  10.881   9.602  -1.067 -0.3147 -0.3135 -0.0346
  528MOL0    Cl72771  11.008   9.725  -1.108 -0.3916  0.1944  0.0174
  528MOL0     C72772   9.874   9.704  -0.563  0.2552  0.6356  0.0286
  528MOL0     C72773   9.755   9.767  -0.593 -0.4190 -0.3575 -0.3665
  528MOL0     O72774   9.690  10.024  -0.883 -0.2688 -0.0684  0.1876
  528MOL0     C72775   9.400  10.065  -0.872 -0.5951 -0.4238 -0.3178
  528MOL0     C72776   9.276  10.131  -0.863  0.5588 -0.2681 -0.6173
  528MOL0     N72777   8.481  10.389  -0.734  0.0954  0.2759  0.0024
  528MOL0     N72778   8.353  10.354  -0.724  0.5905 -0.1595  0.5233
  528MOL0     C72779   7.483  10.117  -0.041  0.8905 -0.5327  0.8697
  528MOL0     C72780   7.427  10.052   0.068 -0.2254 -0.0435 -0.0370
  528MOL0     C72781   7.182   9.849   0.375 -1.2568  0.2097  1.1496
  528MOL0     C72782   7.095   9.757   0.307  0.5294 -0.1346 -0.6156
  528MOL0     C72783   7.022   9.658   0.376 -0.4798  0.3959  0.4947
  528MOL0     C72784   7.027   9.655   0.514  0.4529 -0.2839 -0.8343
  528MOL0     O72785   6.957   9.556   0.586  0.2908 -1.0883  0.6560
  528MOL0     C72786   6.832   9.600   0.633  1.0594  0.5323 -0.2433
  528MOL0     C72787   6.739   9.633   0.517 -0.1447 -1.0919  0.6976
  528MOL0     C72788   6.597   9.647   0.547  0.6309  0.3199 -1.0389
  528MOL0     C72789   6.548   9.777   0.604 -0.6249  0.2916  0.6028
  528MOL0     C72790   6.401   9.764   0.611  0.2309 -0.4398  0.1268
  528MOL0     C72791   6.275   9.757   0.615 -0.6761  0.3762 -0.6686
  528MOL0     C72792   7.107   9.744   0.578 -0.2303 -0.4466  0.0320
  528MOL0     C72793   7.181   9.841   0.515  0.3870 -0.5998 -0.2993
  528MOL0     C72794   7.262   9.938   0.603 -0.1129  0.2135  0.5859
  528MOL0     H72795   7.095  10.126  -0.015 -0.9501  1.7820 -2.3625
  528MOL0     H72796   7.206  10.252  -0.190 -2.2184 -0.6525  1.5033
  528MOL0     H72797   7.627  10.168  -0.282  1.0511  1.3597 -0.4671
  528MOL0     H72798   7.640  10.294  -0.149 -1.6479 -0.7554  1.2461
  528MOL0     H72799   7.634  10.304  -0.452  0.1321 -0.4603  0.7369
  528MOL0     H72800   7.579  10.450  -0.363  0.5203  1.1286  0.0093
  528MOL0     H72801   7.800  10.513  -0.398 -3.5934  1.0623  2.1492
  528MOL0     H72802   7.817  10.427  -0.249 -1.6412  0.6006  0.8124
  528MOL0     H72803   7.906  10.236  -0.377  2.0385 -0.4425 -1.6953
  528MOL0     H72804   7.858  10.308  -0.530  0.8388  0.7777  0.5033
  528MOL0     H72805   8.060  10.399  -0.329  2.0241 -0.4070 -0.7902
  528MOL0     H72806   8.036  10.486  -0.495  0.0946 -1.1788 -1.5885
  528MOL0     H72807   8.242  10.358  -0.492 -0.4078  0.4698  2.2527
  528MOL0     H72808   8.179  10.214  -0.413  0.1574 -3.9632 -3.2770
  528MOL0     H72809   8.089  10.302  -0.691  3.1020 -0.4214 -0.5822
  528MOL0     H72810   8.044  10.150  -0.608  2.0526 -2.5425  0.6140
  528MOL0     H72811   8.233  10.052  -0.653 -1.1343  0.2160 -0.0297
  528MOL0     H72812   8.210  10.159  -0.799  0.4082  2.4760 -0.5634
  528MOL0     H72813   8.534  10.085  -0.636  2.8012  0.2270 -1.3329
  528MOL0     H72814   8.741  10.389  -0.608  1.4272 -0.3040  0.7817
  528MOL0     H72815   8.752  10.353  -0.781  1.8817  1.5404  0.5875
  528MOL0     H72816   8.759  10.167  -0.535 -1.6699  1.9419 -1.2195
  528MOL0     H72817   8.760  10.098  -0.691 -1.7404  0.9408 -1.2259
  528MOL0     H72818   8.966  10.290  -0.568 -1.2582  0.1216 -0.1542
  528MOL0     H72819   8.994  10.112  -0.595  0.9571 -0.0242 -0.6691
  528MOL0     H72820   9.024  10.139  -0.830 -0.0513 -1.0442  1.9691
  528MOL0     H72821   8.949  10.292  -0.839  1.5992  1.0072 -0.5813
  528MOL0     H72822   9.348  10.307  -0.584  0.8155 -1.2944  1.2623
  528MOL0     H72823   9.559  10.281  -0.501  1.8627  0.1990 -0.3760
  528MOL0     H72824   9.676  10.213  -0.604  0.0424 -0.0671  0.3820
  528MOL0     H72825   9.576  10.106  -0.494 -0.6758 -2.5729 -2.0889
  528MOL0     H72826   9.886  10.056  -0.718  1.0763 -0.2430 -2.2183
  528MOL0     H72827  10.100   9.923  -0.674  0.7926 -2.2650  0.5392
  528MOL0     H72828  10.248   9.830  -0.513  1.0929  0.5037 -1.4364
  528MOL0     H72829  10.302   9.670  -0.473  0.8161  1.4644  0.6928
  528MOL0     H72830  10.233   9.744  -0.762 -1.4268 -0.4626  0.6832
  528MOL0     H72831  10.399   9.778  -0.687  0.3902 -0.0440  0.7753
  528MOL0     H72832  10.297   9.536  -0.816  0.9799 -2.6528  0.7524
  528MOL0     H72833  10.368   9.510  -0.647 -2.6214  1.0176  0.9554
  528MOL0     H72834  10.527   9.450  -0.826 -1.6774 -1.2631  2.2709
  528MOL0     H72835  10.574   9.596  -0.736 -1.7920  1.8511  2.6665
  528MOL0     H72836  10.410   9.579  -0.994  0.3792  1.7054 -1.7417
  528MOL0     H72837  10.500   9.725  -0.936 -1.1784 -0.3121  0.3203
  528MOL0     H72838  10.595   9.582  -1.128  0.7416  2.0838 -0.8012
  528MOL0     H72839  10.658   9.476  -0.996  0.7110 -1.1611 -2.5736
  528MOL0     H72840  10.772   9.673  -0.898 -0.8651  1.4537 -0.0123
  528MOL0     H72841  10.730   9.752  -1.063 -1.7723  0.0426  0.3067
  528MOL0     H72842  10.856   9.546  -1.157  0.5071 -0.2149 -0.3347
  528MOL0     H72843  10.917   9.538  -0.987  4.1599 -0.1112 -1.6149
  528MOL0     H72844   9.879   9.608  -0.513  0.7734  0.4319 -0.3912
  528MOL0     H72845   9.663   9.723  -0.555  0.0523  0.6877  2.2181
  528MOL0     H72846   9.420   9.987  -0.945 -0.9749 -0.0125 -0.8692
  528MOL0     H72847   9.205  10.121  -0.945 -0.0249 -1.4856  0.0050
  528MOL0     H72848   7.590  10.107  -0.056  0.9580  0.2795  0.7817
  528MOL0     H72849   7.487   9.978   0.120  1.7136 -0.0316 -2.1106
  528MOL0     H72850   7.090   9.756   0.199 -2.1449  0.8260 -0.5770
  528MOL0     H72851   6.968   9.578   0.327 -2.1902  0.9776  1.3459
  528MOL0     H72852   6.801   9.515   0.695  0.9849  2.5990  2.7488
  528MOL0     H72853   6.844   9.687   0.699  1.7032  1.0473 -1.0200
  528MOL0     H72854   6.751   9.557   0.439  2.7279 -2.3790  2.2340
  528MOL0     H72855   6.771   9.730   0.477 -0.9881 -0.2622  1.9514
  528MOL0     H72856   6.541   9.629   0.454 -1.3720 -1.2728  0.3873
  528MOL0     H72857   6.566   9.563   0.609  2.0590  1.3579  1.1947
  528MOL0     H72858   6.581   9.860   0.541 -2.5984  1.2519  0.7571
  528MOL0     H72859   6.574   9.800   0.708 -1.7160  0.7659  0.7777
  528MOL0     H72860   6.168   9.764   0.619 -0.9032  0.3053 -3.7812
  528MOL0     H72861   7.112   9.746   0.687 -0.6828  0.2663  0.0481
  528MOL0     H72862   7.367   9.906   0.605 -0.5220 -1.3117 -0.8127
  528MOL0     H72863   7.250  10.040   0.566  1.9460  1.4485  2.9890
  528MOL0     H72864   7.226   9.925   0.706  0.7800 -1.0344  0.7667
  529MOL0     O72865   3.952   2.612   9.024 -0.0709  0.6700 -0.3335
  529MOL0     C72866   3.893   2.643   8.919 -0.1451  0.3780  0.3640
  529MOL0     O72867   3.925   2.598   8.795 -0.3775  0.2080  0.4982
  529MOL0     C72868   4.021   2.502   8.793  0.9117  0.5581 -0.0964
  529MOL0     C72869   4.154   2.524   8.733  0.3415  0.0296  0.3930
  529MOL0     C72870   4.243   2.424   8.737 -1.0405  0.6202 -0.6143
  529MOL0     C72871   4.217   2.291   8.793 -0.4457  0.1413  0.5973
  529MOL0     O72872   4.313   2.195   8.812 -0.1548  0.3993 -0.0998
  529MOL0     C72873   4.419   2.186   8.716  0.1038  0.3676  0.2813
  529MOL0     C72874   4.466   2.038   8.691 -0.4274 -1.0783  0.1949
  529MOL0     C72875   4.568   1.988   8.803 -0.5192  0.2852  0.7314
  529MOL0     C72876   4.711   2.009   8.760  0.1810  0.0978 -0.1954
  529MOL0     C72877   4.804   1.970   8.874 -0.5241 -0.6114  0.4372
  529MOL0     C72878   4.950   2.011   8.850 -0.1336 -0.0456 -0.2627
  529MOL0     C72879   5.040   1.971   8.965  0.7024  0.8646  0.0349
  529MOL0     C72880   5.179   2.038   8.958  0.8236 -0.2830 -0.4287
  529MOL0     N72881   5.265   1.991   9.068 -0.5653 -0.9529 -0.7511
  529MOL0     C72882   5.306   2.075   9.171  0.0323 -0.1527 -0.1475
  529MOL0     C72883   5.402   2.008   9.231 -0.0175 -0.4497 -0.8208
  529MOL0     C72884   5.461   2.065   9.366  0.1982  0.6046  1.3332
  529MOL0     C72885   5.575   1.973   9.420  0.2437 -0.4446 -0.2359
  529MOL0     C72886   5.654   2.063   9.515  0.4254  0.1453  0.4624
  529MOL0     C72887   5.740   1.976   9.610 -0.9570  0.1192 -0.6178
  529MOL0     O72888   5.817   2.061   9.701 -0.4229 -0.0056 -0.0165
  529MOL0     C72889   5.953   2.060   9.683 -0.7590  0.1217 -0.0086
  529MOL0     C72890   6.027   2.002   9.778 -0.0500  0.4327 -0.3292
  529MOL0     C72891   6.162   1.986   9.778  0.2808 -0.3405 -0.4586
  529MOL0     C72892   6.224   1.924   9.913  0.0198 -0.5791  0.3782
  529MOL0     C72893   6.246   2.021   9.664  0.7143 -0.4456  0.3587
  529MOL0     C72894   6.394   2.003   9.648 -0.3180  0.6057 -0.0281
  529MOL0     O72895   6.451   2.070   9.548 -0.0463  0.7193 -0.9857
  529MOL0     C72896   6.583   2.097   9.557 -0.7385  0.4046  0.1637
  529MOL0     C72897   6.618   2.226   9.587  1.2543  0.2626 -0.3133
  529MOL0     C72898   6.754   2.265   9.597 -0.5797  1.0132  0.6423
  529MOL0     C72899   6.859   2.175   9.563 -0.0876 -0.1725 -0.1266
  529MOL0     O72900   6.991   2.220   9.554  0.1582  0.0905  0.3485
  529MOL0     C72901   7.097   2.123   9.553  0.7113 -1.4405  0.8523
  529MOL0     C72902   7.226   2.200   9.545  0.0342  0.0261  0.2634
  529MOL0     C72903   7.346   2.119   9.563  0.4821  0.4988  0.0592
  529MOL0     C72904   7.482   2.190   9.556 -0.5456 -0.5527  0.5053
  529MOL0     C72905   7.501   2.324   9.631 -0.1848  0.4653 -0.8998
  529MOL0     C72906   7.651   2.362   9.637  0.5287  0.2653  0.4612
  529MOL0     C72907   7.661   2.494   9.718  0.3497  0.2785  0.4565
  529MOL0     C72908   7.796   2.557   9.694  0.0180  0.1538 -0.4286
  529MOL0    Cl72909   7.922   2.462   9.763  0.0202  0.3365  0.1142
  529MOL0     C72910   6.814   2.038   9.535 -0.7426  0.1526 -0.8082
  529MOL0     C72911   6.678   2.001   9.524  0.2340 -0.2105 -0.8764
  529MOL0     O72912   6.448   1.911   9.710  0.1143  0.5657  0.2199
  529MOL0     C72913   6.166   2.092   9.570  0.4359  0.3847  0.5072
  529MOL0     C72914   6.024   2.108   9.574  1.2093 -0.5079  0.5377
  529MOL0     N72915   5.413   1.883   9.168 -0.6444  0.3254 -0.3898
  529MOL0     N72916   5.341   1.883   9.059 -0.7243  0.4260 -0.5752
  529MOL0     C72917   4.090   2.275   8.858 -1.0038 -0.1717  1.0066
  529MOL0     C72918   3.994   2.380   8.855  0.3324  0.4991  0.3440
  529MOL0     C72919   3.791   2.749   8.926 -0.6456  0.5244 -0.1792
  529MOL0     C72920   3.729   2.769   9.058 -0.8087 -0.2477  0.4762
  529MOL0     C72921   3.632   2.856   9.078  0.6891 -0.3214  0.2835
  529MOL0     C72922   3.584   2.932   8.971 -0.8355  0.2941 -0.2435
  529MOL0     O72923   3.493   3.025   8.999 -0.6758  0.1250  0.0621
  529MOL0     C72924   3.376   3.050   8.920 -0.2030  0.3922 -0.7993
  529MOL0     C72925   3.299   3.170   8.977  0.5071 -0.2560 -0.1085
  529MOL0     C72926   3.219   3.127   9.095 -0.5937  0.4805 -0.1959
  529MOL0     C72927   3.183   3.233   9.188  0.1668  0.0710  0.5879
  529MOL0     C72928   3.119   3.355   9.134 -0.0600  0.3851  0.0678
  529MOL0     C72929   3.060   3.453   9.095  0.2430  0.5629  0.4570
  529MOL0     C72930   3.641   2.920   8.843 -0.0294 -0.3258  0.0142
  529MOL0     C72931   3.752   2.834   8.817  0.2190  0.0051 -0.5398
  529MOL0     C72932   3.806   2.848   8.680 -0.3177  0.6321  0.0334
  529MOL0     H72933   4.191   2.622   8.702  1.2917 -0.2577  0.5921
  529MOL0     H72934   4.336   2.446   8.685 -1.0852 -0.2977 -1.1190
  529MOL0     H72935   4.507   2.242   8.750  0.1258 -0.0415  0.8981
  529MOL0     H72936   4.374   2.223   8.623 -2.8137 -1.3433  0.9005
  529MOL0     H72937   4.377   1.975   8.704  0.8049 -2.4475  2.5648
  529MOL0     H72938   4.504   2.034   8.589 -0.0043  1.5486  0.1765
  529MOL0     H72939   4.547   2.038   8.898 -1.9011  2.4189 -0.5936
  529MOL0     H72940   4.550   1.884   8.830 -0.6022  0.3092  0.7685
  529MOL0     H72941   4.736   1.947   8.673  1.2656 -0.1661  0.2869
  529MOL0     H72942   4.718   2.116   8.736  0.1431  0.6981  2.2230
  529MOL0     H72943   4.799   1.865   8.903  1.0145 -0.7943  0.1153
  529MOL0     H72944   4.773   2.025   8.963 -1.5669 -1.0752  0.3748
  529MOL0     H72945   4.985   1.963   8.758 -1.3398  3.1859 -2.5846
  529MOL0     H72946   4.958   2.119   8.837  1.0762 -0.3629 -2.7932
  529MOL0     H72947   5.050   1.862   8.968 -1.2689  0.6670  0.5008
  529MOL0     H72948   4.995   2.003   9.059  0.6897  0.2896  0.2306
  529MOL0     H72949   5.229   2.016   8.863  0.2120 -0.7917 -0.6514
  529MOL0     H72950   5.175   2.146   8.969  0.2801 -0.5212  2.2722
  529MOL0     H72951   5.262   2.169   9.206  0.5040  0.6287 -1.5783
  529MOL0     H72952   5.389   2.081   9.446  0.9497 -0.9430  2.3513
  529MOL0     H72953   5.496   2.163   9.331  1.1968  0.7951  2.7904
  529MOL0     H72954   5.530   1.885   9.465  1.0626 -0.6050  0.2687
  529MOL0     H72955   5.633   1.927   9.339 -1.9579 -3.5616 -0.2215
  529MOL0     H72956   5.733   2.115   9.459 -0.0838 -1.1931 -1.6165
  529MOL0     H72957   5.588   2.134   9.565 -1.6441 -1.4392  0.1211
  529MOL0     H72958   5.682   1.907   9.672  0.6255  0.2268  1.0886
  529MOL0     H72959   5.802   1.916   9.543  0.2857 -1.3150  1.6860
  529MOL0     H72960   5.967   1.959   9.858  0.0897 -0.9802 -0.9681
  529MOL0     H72961   6.332   1.941   9.920 -0.3164  0.8832  3.2962
  529MOL0     H72962   6.189   1.820   9.920 -2.6222  0.1613 -0.7370
  529MOL0     H72963   6.185   1.985   9.994 -0.7899  0.7699 -0.9625
  529MOL0     H72964   6.536   2.296   9.602  0.1278 -0.8515 -0.9799
  529MOL0     H72965   6.787   2.366   9.615 -0.3205  0.8415  1.1519
  529MOL0     H72966   7.103   2.050   9.634  2.0093 -4.2162 -1.5529
  529MOL0     H72967   7.085   2.067   9.460  1.0009 -0.7644  0.3945
  529MOL0     H72968   7.227   2.245   9.445  1.9440  0.9362  0.6482
  529MOL0     H72969   7.228   2.289   9.609  1.2917 -1.1982  2.0212
  529MOL0     H72970   7.343   2.048   9.480 -2.8713  0.1168  0.3617
  529MOL0     H72971   7.334   2.071   9.660 -0.2299 -0.7450 -0.6265
  529MOL0     H72972   7.518   2.224   9.459  3.1273  1.8663  2.4730
  529MOL0     H72973   7.562   2.126   9.593  1.2975 -0.7690 -3.4398
  529MOL0     H72974   7.439   2.391   9.571 -2.0730 -1.7951 -1.6149
  529MOL0     H72975   7.458   2.329   9.731 -0.5512 -1.3018 -0.9333
  529MOL0     H72976   7.683   2.379   9.534  0.3412  1.6316  0.6073
  529MOL0     H72977   7.720   2.288   9.678  1.5647  1.0504  0.1502
  529MOL0     H72978   7.655   2.471   9.825  2.2350 -1.9232  0.1525
  529MOL0     H72979   7.583   2.562   9.683  0.1000  0.6820  1.7339
  529MOL0     H72980   7.801   2.656   9.741 -0.7207  1.3701 -2.7592
  529MOL0     H72981   7.815   2.574   9.587 -0.5674  1.8350 -0.3002
  529MOL0     H72982   6.888   1.967   9.501  1.0845  1.3666  0.4607
  529MOL0     H72983   6.640   1.907   9.485 -0.8635  0.3947 -1.3139
  529MOL0     H72984   6.224   2.137   9.490  0.5127 -3.1691 -1.6727
  529MOL0     H72985   5.980   2.170   9.496  0.4819  2.2468  2.9696
  529MOL0     H72986   4.076   2.173   8.891  0.2955 -0.4806  0.6572
  529MOL0     H72987   3.898   2.360   8.902  0.6077 -0.3453  0.5616
  529MOL0     H72988   3.762   2.711   9.145 -0.1846 -0.0852  0.3543
  529MOL0     H72989   3.589   2.880   9.175  1.0683  0.8580  0.1754
  529MOL0     H72990   3.409   3.078   8.819 -2.6150 -0.7675 -1.9941
  529MOL0     H72991   3.319   2.957   8.921 -0.7421  0.7198  0.0892
  529MOL0     H72992   3.236   3.210   8.897 -0.9431 -1.8833  0.1621
  529MOL0     H72993   3.378   3.238   9.011  0.9490 -1.1323  0.6431
  529MOL0     H72994   3.125   3.079   9.065 -0.4244 -1.6937  2.3843
  529MOL0     H72995   3.271   3.047   9.147 -2.3766  0.6581  1.9866
  529MOL0     H72996   3.280   3.257   9.233  1.2399  1.2136 -2.1308
  529MOL0     H72997   3.109   3.186   9.254  3.3405 -3.6704  1.8819
  529MOL0     H72998   3.006   3.537   9.057 -0.7032  0.8173  2.2706
  529MOL0     H72999   3.599   2.989   8.770  0.9693  0.7012  0.3990
  529MOL0     H73000   3.736   2.812   8.604  0.4302  1.5656 -1.1484
  529MOL0     H73001   3.834   2.954   8.668  0.9460  0.3715  0.5891
  529MOL0     H73002   3.903   2.799   8.673  1.0546  3.3827 -3.2808
  530MOL0     O73003   3.436   9.491   2.791 -0.1357 -0.7316 -0.4559
  530MOL0     C73004   3.554   9.518   2.796  0.3534 -0.0509 -0.3469
  530MOL0     O73005   3.651   9.421   2.787  0.1945 -0.3322  0.1261
  530MOL0     C73006   3.773   9.422   2.854 -0.0391  0.1085  0.0782
  530MOL0     C73007   3.796   9.502   2.969 -0.2143 -0.4052  0.5126
  530MOL0     C73008   3.916   9.491   3.038  0.6874 -0.1404  0.8319
  530MOL0     C73009   4.020   9.408   2.992 -0.0361  0.1102 -0.4526
  530MOL0     O73010   4.119   9.399   3.082  0.4311 -0.5598 -0.3621
  530MOL0     C73011   4.235   9.325   3.039  0.1120 -0.0065  0.1672
  530MOL0     C73012   4.356   9.329   3.124 -0.1175 -0.3092  0.6649
  530MOL0     C73013   4.472   9.234   3.097  0.0209  0.5136 -0.1497
  530MOL0     C73014   4.581   9.261   3.190 -0.8203  0.6661  0.0215
  530MOL0     C73015   4.708   9.166   3.196  0.1743  0.3795 -0.0170
  530MOL0     C73016   4.838   9.223   3.263  1.0493  0.1184  0.2070
  530MOL0     C73017   4.943   9.112   3.282 -0.0261  0.5707  0.4804
  530MOL0     C73018   5.085   9.171   3.287 -0.2244  0.6480 -0.8768
  530MOL0     N73019   5.178   9.094   3.372 -0.0114  0.2190  0.5737
  530MOL0     C73020   5.229   9.120   3.496  0.7124  0.2151 -0.3032
  530MOL0     C73021   5.328   9.024   3.512 -0.1395 -0.0991  0.5278
  530MOL0     C73022   5.437   9.024   3.616  0.3106  0.0169  0.7620
  530MOL0     C73023   5.571   9.032   3.555  0.0489 -0.0287  0.3584
  530MOL0     C73024   5.684   9.059   3.659  0.4027 -0.2313  0.5494
  530MOL0     C73025   5.822   9.065   3.598  0.5591  0.0389 -0.7718
  530MOL0     O73026   5.915   9.069   3.711 -0.2262 -1.2212 -0.2041
  530MOL0     C73027   6.053   9.095   3.695  0.2031 -0.5068 -0.2649
  530MOL0     C73028   6.127   9.104   3.814  0.2870  0.0480  0.2434
  530MOL0     C73029   6.269   9.126   3.820 -0.2631  0.4044 -0.0317
  530MOL0     C73030   6.331   9.125   3.950  0.6243 -0.2795 -0.0606
  530MOL0     C73031   6.340   9.134   3.693  0.1508  0.7592 -0.2510
  530MOL0     C73032   6.483   9.150   3.692  0.2464  0.2144 -0.1208
  530MOL0     O73033   6.536   9.134   3.560  0.4073 -0.1854 -0.0109
  530MOL0     C73034   6.675   9.106   3.536  0.2808 -0.3517  0.7802
  530MOL0     C73035   6.758   9.203   3.495  0.2279 -0.8405  0.6586
  530MOL0     C73036   6.892   9.170   3.487 -0.0752 -0.3454 -0.5484
  530MOL0     C73037   6.942   9.044   3.499 -0.0314 -0.1725 -0.5975
  530MOL0     O73038   7.068   9.007   3.461 -0.2347 -0.8373 -0.4415
  530MOL0     C73039   7.176   9.087   3.520 -1.3742  0.2802 -0.7213
  530MOL0     C73040   7.188   9.075   3.676  0.0382  0.3784  0.8819
  530MOL0     C73041   7.231   8.932   3.722  0.0228 -0.2051 -0.5227
  530MOL0     C73042   7.294   8.940   3.864  0.0712  0.0722 -1.4549
  530MOL0     C73043   7.314   8.796   3.924 -0.5736  0.7296 -0.6867
  530MOL0     C73044   7.337   8.791   4.075  0.2102 -0.5452  0.9968
  530MOL0     C73045   7.467   8.853   4.110  0.0872  0.2346 -0.8112
  530MOL0     C73046   7.474   8.861   4.264 -0.1485  0.7828  0.3043
  530MOL0    Cl73047   7.474   8.692   4.341  0.0598  0.1096 -0.1745
  530MOL0     C73048   6.853   8.941   3.535  1.0821 -0.1270  0.1066
  530MOL0     C73049   6.718   8.973   3.548  0.3527 -0.5981  0.0898
  530MOL0     O73050   6.549   9.175   3.794  0.3244 -0.0036  0.4714
  530MOL0     C73051   6.263   9.128   3.573  0.3319  0.4516 -0.4334
  530MOL0     C73052   6.128   9.109   3.580  0.3425  0.1382  0.9126
  530MOL0     N73053   5.325   8.949   3.393  0.4206 -0.0020 -0.9545
  530MOL0     N73054   5.241   8.989   3.312 -0.2072 -0.1633  0.0310
  530MOL0     C73055   3.998   9.330   2.871 -0.7227 -0.7868  0.3089
  530MOL0     C73056   3.874   9.336   2.809 -0.2887  0.2010 -0.9329
  530MOL0     C73057   3.581   9.668   2.793 -0.1281  0.7693 -0.3331
  530MOL0     C73058   3.693   9.708   2.719  0.0732 -0.9517 -0.2953
  530MOL0     C73059   3.717   9.843   2.706  0.0587  0.0671  0.0966
  530MOL0     C73060   3.635   9.940   2.757  0.3568  0.5291 -0.5463
  530MOL0     O73061   3.655  10.073   2.753  0.6186  0.1072 -0.2052
  530MOL0     C73062   3.774  10.127   2.689  0.3216  0.3155 -0.0077
  530MOL0     C73063   3.750  10.281   2.672  0.4349  0.4229 -0.1655
  530MOL0     C73064   3.732  10.368   2.795  0.2105  0.0105 -0.6567
  530MOL0     C73065   3.716  10.519   2.768 -0.6021  0.5981 -0.5132
  530MOL0     C73066   3.835  10.569   2.695 -0.4931 -0.0988 -0.2868
  530MOL0     C73067   3.944  10.597   2.646  0.4079 -0.3934  0.6255
  530MOL0     C73068   3.519   9.896   2.831 -0.6200 -0.3377  0.8881
  530MOL0     C73069   3.494   9.763   2.849  0.0944  0.3463 -0.1012
  530MOL0     C73070   3.370   9.725   2.924 -0.2022 -0.1394 -1.0179
  530MOL0     H73071   3.716   9.564   3.007 -0.5870  0.9499 -2.2474
  530MOL0     H73072   3.911   9.556   3.124 -0.1789  1.1597 -0.1664
  530MOL0     H73073   4.260   9.345   2.934 -2.6849 -0.9531 -0.7610
  530MOL0     H73074   4.201   9.221   3.040 -2.0204  0.6447  1.3821
  530MOL0     H73075   4.393   9.431   3.112 -0.9573 -0.3212 -3.7761
  530MOL0     H73076   4.325   9.323   3.229  0.8609  0.3222  1.0000
  530MOL0     H73077   4.434   9.135   3.123  0.8269 -0.2776 -1.7735
  530MOL0     H73078   4.493   9.229   2.990  0.5819  0.4070 -0.0359
  530MOL0     H73079   4.613   9.365   3.178 -3.9149  1.6497 -0.4490
  530MOL0     H73080   4.542   9.252   3.292 -2.3911  2.7050 -0.3502
  530MOL0     H73081   4.733   9.135   3.095 -0.9528  0.2820 -0.2814
  530MOL0     H73082   4.676   9.074   3.246  0.1179  1.4438  2.0171
  530MOL0     H73083   4.883   9.312   3.217 -2.0278  0.7594 -1.8214
  530MOL0     H73084   4.806   9.259   3.361  1.4984 -0.7702  0.6893
  530MOL0     H73085   4.938   9.037   3.203  0.3664 -0.2962  1.2495
  530MOL0     H73086   4.917   9.051   3.369  1.2374  1.6771  1.6768
  530MOL0     H73087   5.137   9.182   3.192  2.7833 -1.5245  0.3368
  530MOL0     H73088   5.078   9.266   3.341  0.0684 -1.3849  3.1569
  530MOL0     H73089   5.206   9.202   3.564 -1.8103 -0.6380  0.0104
  530MOL0     H73090   5.443   8.931   3.673 -0.9801 -1.2343 -1.0063
  530MOL0     H73091   5.428   9.108   3.685 -0.1267 -0.3736  1.1901
  530MOL0     H73092   5.604   8.938   3.509 -0.8802 -0.2071  0.0388
  530MOL0     H73093   5.568   9.105   3.474 -0.3258 -3.1810 -2.7534
  530MOL0     H73094   5.669   9.161   3.697  1.3830 -0.0299  0.4111
  530MOL0     H73095   5.675   8.990   3.744 -2.5648 -1.1138 -0.3576
  530MOL0     H73096   5.855   8.987   3.529 -0.8510 -0.6617 -0.6739
  530MOL0     H73097   5.825   9.162   3.547 -5.5697 -0.3209 -2.5974
  530MOL0     H73098   6.070   9.094   3.906 -3.4561  2.7807 -1.4986
  530MOL0     H73099   6.405   9.045   3.962 -0.3451 -1.4378 -1.5580
  530MOL0     H73100   6.265   9.127   4.037 -0.1137 -0.6871 -0.6037
  530MOL0     H73101   6.386   9.219   3.964 -0.1258  0.6520 -2.8403
  530MOL0     H73102   6.724   9.305   3.477  3.3960  0.1570 -0.3409
  530MOL0     H73103   6.962   9.249   3.461 -2.7800  2.6570  0.5528
  530MOL0     H73104   7.267   9.063   3.465 -0.4656 -0.7366  1.1037
  530MOL0     H73105   7.160   9.194   3.506  1.3652  0.7695 -0.7367
  530MOL0     H73106   7.265   9.146   3.707 -1.0481  1.7109  0.6162
  530MOL0     H73107   7.101   9.106   3.735  0.8512  2.6489  0.9575
  530MOL0     H73108   7.294   8.886   3.646 -0.3972 -1.2932 -0.2239
  530MOL0     H73109   7.141   8.871   3.732 -0.5134  0.8447  1.9305
  530MOL0     H73110   7.230   8.996   3.932 -0.2535 -3.0272  1.0456
  530MOL0     H73111   7.389   8.994   3.868  0.3866 -0.5444  0.1860
  530MOL0     H73112   7.238   8.724   3.891  1.8813 -0.5972 -3.9240
  530MOL0     H73113   7.406   8.757   3.880 -0.9574  1.1138 -1.8491
  530MOL0     H73114   7.340   8.686   4.105  1.8901 -0.7970  0.0762
  530MOL0     H73115   7.251   8.839   4.123 -0.0529  0.3608 -0.3087
  530MOL0     H73116   7.499   8.948   4.065  0.6847 -0.4932 -1.9582
  530MOL0     H73117   7.541   8.783   4.071 -1.5191 -1.9159 -0.2032
  530MOL0     H73118   7.391   8.927   4.292 -0.7902  1.4964 -2.9078
  530MOL0     H73119   7.574   8.897   4.290  0.6969 -0.4667 -1.0260
  530MOL0     H73120   6.887   8.839   3.543 -0.6719 -0.7630  0.0468
  530MOL0     H73121   6.646   8.898   3.579  0.0476  0.4015  1.9556
  530MOL0     H73122   6.316   9.143   3.480  1.8633  1.8852  0.6120
  530MOL0     H73123   6.073   9.113   3.487  1.4460  2.6111  0.2845
  530MOL0     H73124   4.080   9.264   2.843  0.2308  0.0430  1.0720
  530MOL0     H73125   3.841   9.272   2.728 -0.7649 -1.7653  0.7134
  530MOL0     H73126   3.765   9.642   2.673 -0.8501 -1.6483 -0.7729
  530MOL0     H73127   3.805   9.868   2.648 -0.1451  2.3681  0.6626
  530MOL0     H73128   3.867  10.106   2.743  2.3165  3.3391 -1.9617
  530MOL0     H73129   3.788  10.081   2.591  3.6249 -0.9307  0.9090
  530MOL0     H73130   3.653  10.284   2.623 -0.3396 -2.2117  1.0098
  530MOL0     H73131   3.830  10.318   2.608  1.1320 -1.7316 -0.6501
  530MOL0     H73132   3.640  10.346   2.849  0.1716  1.7205  0.0561
  530MOL0     H73133   3.813  10.348   2.867  0.5042 -1.7977 -1.4449
  530MOL0     H73134   3.708  10.570   2.865 -0.7197 -2.1595  1.0240
  530MOL0     H73135   3.631  10.546   2.704 -0.8672  0.7897 -0.0843
  530MOL0     H73136   4.038  10.626   2.603 -1.2167  3.7057 -0.6840
  530MOL0     H73137   3.445   9.968   2.864  1.0830  2.4684 -1.0205
  530MOL0     H73138   3.326   9.819   2.958  1.8819  0.1522  1.0673
  530MOL0     H73139   3.306   9.673   2.852  1.5399 -0.4325 -2.4293
  530MOL0     H73140   3.386   9.657   3.008  2.3706  1.4926 -0.1000
  531MOL0     O73141   6.005   0.508   9.119  0.4999 -1.0297 -0.3954
  531MOL0     C73142   6.007   0.623   9.069  0.0713 -0.1336  0.8195
  531MOL0     O73143   6.124   0.684   9.027 -0.3131 -1.1804  0.7381
  531MOL0     C73144   6.245   0.615   9.004  0.6072  0.1131 -0.2470
  531MOL0     C73145   6.272   0.474   9.002  0.5474 -0.0789 -0.2741
  531MOL0     C73146   6.404   0.426   8.987 -0.2650  0.1699 -0.5236
  531MOL0     C73147   6.514   0.509   8.972  0.0163 -0.7329 -0.5428
  531MOL0     O73148   6.632   0.459   8.938 -0.4688 -0.7587 -0.5658
  531MOL0     C73149   6.753   0.536   8.970 -0.3265  0.0314  0.8107
  531MOL0     C73150   6.873   0.445   8.938 -0.2943  0.4435  0.6360
  531MOL0     C73151   6.986   0.534   8.900 -0.1197 -0.1579 -0.3063
  531MOL0     C73152   7.113   0.450   8.881 -0.4767  0.1258  0.2634
  531MOL0     C73153   7.245   0.532   8.875  0.8667 -0.3510  0.2227
  531MOL0     C73154   7.255   0.626   8.750  0.2314 -0.6992  0.0134
  531MOL0     C73155   7.370   0.724   8.763  0.1104  0.8888 -0.3767
  531MOL0     C73156   7.503   0.650   8.745  0.0483 -0.0168 -0.1413
  531MOL0     N73157   7.613   0.746   8.746 -0.4914  0.6488  0.7557
  531MOL0     C73158   7.708   0.765   8.646  0.0525  0.2318 -0.9297
  531MOL0     C73159   7.791   0.855   8.696  0.7497 -0.0736  0.5204
  531MOL0     C73160   7.894   0.927   8.602 -0.6937 -0.5068 -0.1080
  531MOL0     C73161   7.874   1.075   8.616 -0.4836  0.4019 -0.5868
  531MOL0     C73162   7.986   1.152   8.532 -0.8376  0.4036  0.7354
  531MOL0     C73163   8.006   1.292   8.587  0.1353  0.0191 -0.6078
  531MOL0     O73164   8.070   1.297   8.717  0.4612 -0.7055  0.0438
  531MOL0     C73165   8.087   1.415   8.778  0.0638  1.0844  0.1739
  531MOL0     C73166   8.040   1.538   8.737  0.4676 -0.1043 -0.3325
  531MOL0     C73167   8.063   1.652   8.809  0.1161 -0.5711 -0.1857
  531MOL0     C73168   8.001   1.775   8.751  0.2948 -0.4001 -0.0450
  531MOL0     C73169   8.147   1.651   8.924  0.0071  0.2776  0.3089
  531MOL0     C73170   8.172   1.767   9.010 -0.0279 -0.5039 -0.2021
  531MOL0     O73171   8.243   1.747   9.126  0.8165  0.2044 -0.0371
  531MOL0     C73172   8.272   1.854   9.214  0.5191 -0.5532 -0.0642
  531MOL0     C73173   8.169   1.898   9.294  0.3126  1.3469 -0.1819
  531MOL0     C73174   8.184   1.997   9.388 -0.9240  0.5018  0.2836
  531MOL0     C73175   8.305   2.056   9.400 -0.6658 -0.2552 -0.8299
  531MOL0     O73176   8.336   2.157   9.495 -0.2399  0.0258 -0.0843
  531MOL0     C73177   8.242   2.195   9.595 -0.3982  1.0350  0.4760
  531MOL0     C73178   8.296   2.313   9.676 -0.3513  0.4381  1.2270
  531MOL0     C73179   8.278   2.439   9.593  0.6224 -0.1354 -0.3983
  531MOL0     C73180   8.344   2.558   9.669  0.8123  0.5850 -0.1871
  531MOL0     C73181   8.359   2.685   9.582  0.5656  0.3587  0.2418
  531MOL0     C73182   8.433   2.797   9.653 -0.2683 -0.9750  0.6254
  531MOL0     C73183   8.561   2.772   9.738  0.2094 -0.0209  0.7312
  531MOL0     C73184   8.678   2.723   9.650  0.2906  0.2950 -0.4022
  531MOL0    Cl73185   8.821   2.691   9.746 -0.2183 -0.0633 -0.0006
  531MOL0     C73186   8.413   2.011   9.325 -0.1928 -0.7307  0.1031
  531MOL0     C73187   8.395   1.911   9.230 -0.7087 -0.1499  0.4652
  531MOL0     O73188   8.131   1.879   8.976  0.2425 -0.3148 -0.0512
  531MOL0     C73189   8.195   1.524   8.966 -0.3968  0.4311  0.3472
  531MOL0     C73190   8.163   1.401   8.897 -0.0025 -0.3276 -0.6461
  531MOL0     N73191   7.759   0.892   8.822 -0.5551 -0.1482 -0.9586
  531MOL0     N73192   7.660   0.812   8.859 -0.0978 -0.6753  0.1965
  531MOL0     C73193   6.485   0.647   8.985 -0.0650 -0.0463  0.6351
  531MOL0     C73194   6.356   0.695   8.989  0.2754 -0.5854 -0.8075
  531MOL0     C73195   5.878   0.688   9.049 -0.5212  0.0364 -0.3032
  531MOL0     C73196   5.872   0.786   8.947 -0.4637 -0.4422 -0.3169
  531MOL0     C73197   5.769   0.857   8.912 -0.5788  0.3761  0.5265
  531MOL0     C73198   5.661   0.848   8.985 -0.3607 -0.1161  0.1735
  531MOL0     O73199   5.550   0.928   8.964 -0.2478  0.6243 -0.3424
  531MOL0     C73200   5.520   0.972   8.836 -0.5301 -0.1076 -0.4738
  531MOL0     C73201   5.414   0.876   8.786 -0.1224  0.0662  0.4991
  531MOL0     C73202   5.284   0.879   8.881  0.0898 -0.2435 -0.0213
  531MOL0     C73203   5.186   0.779   8.829 -0.2487 -0.0286 -0.2826
  531MOL0     C73204   5.065   0.791   8.910  0.2704  0.0747 -1.0308
  531MOL0     C73205   4.958   0.816   8.974 -0.7269  0.4949  0.1019
  531MOL0     C73206   5.653   0.758   9.093  0.3530 -0.5413 -0.0049
  531MOL0     C73207   5.760   0.678   9.130  0.2296  0.6922  0.1211
  531MOL0     C73208   5.745   0.583   9.251  0.4606 -0.5966 -0.2990
  531MOL0     H73209   6.190   0.409   9.032 -1.4750  2.9383  1.1909
  531MOL0     H73210   6.419   0.320   9.003 -1.2201 -0.0555 -0.9809
  531MOL0     H73211   6.764   0.564   9.075  0.0488 -0.7998  1.0038
  531MOL0     H73212   6.769   0.625   8.909 -1.7573 -1.9400 -2.7468
  531MOL0     H73213   6.898   0.394   9.031 -0.1208  2.5875  1.8062
  531MOL0     H73214   6.833   0.367   8.871 -1.2275  0.2176  1.4287
  531MOL0     H73215   6.962   0.592   8.811 -1.0739 -0.5382 -0.3063
  531MOL0     H73216   6.994   0.603   8.984 -4.0185  2.7314 -1.9941
  531MOL0     H73217   7.126   0.389   8.971 -1.6489 -0.9851 -0.2993
  531MOL0     H73218   7.104   0.379   8.799 -0.0317 -0.3640  0.6366
  531MOL0     H73219   7.332   0.465   8.871  1.5116  0.4074  1.1480
  531MOL0     H73220   7.256   0.592   8.966  0.1739  2.4413 -1.4278
  531MOL0     H73221   7.269   0.569   8.658 -0.2508  1.1041 -1.2232
  531MOL0     H73222   7.164   0.683   8.729  0.8735  0.2054 -0.3529
  531MOL0     H73223   7.364   0.769   8.863  2.9124  1.0231 -0.1823
  531MOL0     H73224   7.365   0.797   8.683  1.4076 -0.4407 -1.7323
  531MOL0     H73225   7.522   0.581   8.827  0.4009  1.6732  1.2686
  531MOL0     H73226   7.506   0.587   8.656 -0.8882 -0.7553  0.3409
  531MOL0     H73227   7.712   0.722   8.546 -0.4290  2.3077 -1.8930
  531MOL0     H73228   7.887   0.912   8.493  1.5598  5.8329 -1.5425
  531MOL0     H73229   7.994   0.896   8.634 -0.1015  0.9360 -0.5009
  531MOL0     H73230   7.774   1.095   8.575 -3.7732 -1.0592  5.4947
  531MOL0     H73231   7.872   1.111   8.720  0.7124  2.1661 -1.1301
  531MOL0     H73232   8.082   1.103   8.552 -1.1303  0.0821  1.3375
  531MOL0     H73233   7.970   1.151   8.423 -1.0605 -0.0587  0.7727
  531MOL0     H73234   8.067   1.346   8.514  3.1248 -1.4151  0.6279
  531MOL0     H73235   7.904   1.329   8.595 -0.3040 -1.2438  0.0572
  531MOL0     H73236   7.974   1.541   8.652 -1.2343 -0.1946  0.9285
  531MOL0     H73237   7.961   1.748   8.653  0.6272  1.2489 -0.6743
  531MOL0     H73238   8.072   1.857   8.733 -1.6475  1.0406 -1.5350
  531MOL0     H73239   7.928   1.819   8.819 -0.0479  0.3005 -0.8425
  531MOL0     H73240   8.072   1.851   9.283  0.4869  1.0440 -0.4537
  531MOL0     H73241   8.105   2.022   9.458 -0.3634 -0.4171  1.2619
  531MOL0     H73242   8.162   2.238   9.533 -0.5009 -0.3384 -0.3743
  531MOL0     H73243   8.210   2.115   9.662 -1.4413  1.5296  0.5970
  531MOL0     H73244   8.255   2.319   9.778 -1.3640 -4.5826  1.4095
  531MOL0     H73245   8.404   2.301   9.682  0.0226  3.7546  3.7800
  531MOL0     H73246   8.175   2.468   9.572  0.8260 -1.2415 -3.4459
  531MOL0     H73247   8.331   2.415   9.500  0.2465 -1.5023 -0.2811
  531MOL0     H73248   8.441   2.529   9.711 -0.1575  0.5073  2.1876
  531MOL0     H73249   8.275   2.577   9.751 -2.3878  0.5899 -2.6897
  531MOL0     H73250   8.415   2.666   9.490 -0.7387  1.4942 -0.8089
  531MOL0     H73251   8.264   2.726   9.548  0.9655  0.9693 -0.1646
  531MOL0     H73252   8.362   2.837   9.725 -1.0565 -1.4567  0.1350
  531MOL0     H73253   8.453   2.879   9.583 -1.6637 -1.1606 -0.0237
  531MOL0     H73254   8.539   2.694   9.811  0.9528  0.2895  1.2985
  531MOL0     H73255   8.592   2.863   9.790 -0.2715  0.8552 -0.4678
  531MOL0     H73256   8.700   2.795   9.571 -0.6114 -0.8618 -1.7721
  531MOL0     H73257   8.652   2.627   9.604 -1.8348 -1.2605  3.5675
  531MOL0     H73258   8.509   2.050   9.357 -2.5121  4.0045  2.3286
  531MOL0     H73259   8.481   1.885   9.169  0.9361  2.0125  1.7422
  531MOL0     H73260   8.254   1.516   9.057  0.4563  3.7196  0.2038
  531MOL0     H73261   8.204   1.305   8.924 -0.8439 -0.2735  0.9830
  531MOL0     H73262   6.566   0.718   8.974 -0.1892  0.2974  1.7655
  531MOL0     H73263   6.335   0.801   8.999 -2.5438 -1.2775  2.1912
  531MOL0     H73264   5.961   0.799   8.886 -1.2173  0.2390 -1.2768
  531MOL0     H73265   5.768   0.916   8.821  1.3125  0.1616  0.3248
  531MOL0     H73266   5.478   1.073   8.839 -0.8025 -0.2391  0.2424
  531MOL0     H73267   5.603   0.984   8.766 -0.2867 -0.3277 -0.2264
  531MOL0     H73268   5.449   0.772   8.783 -2.4789 -0.7926  0.7831
  531MOL0     H73269   5.383   0.886   8.682  2.0754 -2.3053 -0.5111
  531MOL0     H73270   5.306   0.847   8.983  0.8203 -1.5176 -0.5603
  531MOL0     H73271   5.232   0.974   8.866 -0.6906 -0.6982 -0.3049
  531MOL0     H73272   5.226   0.678   8.833  0.9805  0.4408 -0.2482
  531MOL0     H73273   5.154   0.799   8.726  2.0247 -0.8249 -1.1940
  531MOL0     H73274   4.869   0.814   9.033 -0.0436 -1.2512  1.1582
  531MOL0     H73275   5.556   0.758   9.140  0.0892 -0.8995 -0.5387
  531MOL0     H73276   5.826   0.594   9.323  1.7415 -0.2896 -1.7237
  531MOL0     H73277   5.655   0.614   9.304  2.8121 -1.1496  4.5300
  531MOL0     H73278   5.742   0.478   9.220 -0.4476 -0.7278  0.2290
  532MOL0     O73279  10.634  11.056   1.260  0.3734  0.8113 -0.0620
  532MOL0     C73280  10.601  11.007   1.370 -0.1254 -0.4701 -0.7567
  532MOL0     O73281  10.670  10.994   1.487 -0.2393 -0.0423  0.2037
  532MOL0     C73282  10.802  11.037   1.497 -0.0419  0.5516  0.0788
  532MOL0     C73283  10.876  10.968   1.595  0.0859 -0.1157 -0.0560
  532MOL0     C73284  11.014  10.999   1.610 -0.2501  0.6362  0.2720
  532MOL0     C73285  11.081  11.094   1.531 -0.3074  0.0925  0.6140
  532MOL0     O73286  11.208  11.109   1.572 -0.1610 -0.3343 -0.0225
  532MOL0     C73287  11.298  11.203   1.499  0.3942  0.1833 -0.3440
  532MOL0     C73288  11.437  11.200   1.574  0.2486 -0.1577 -0.0896
  532MOL0     C73289  11.548  11.247   1.481 -0.0440  0.4072  1.0674
  532MOL0     C73290  11.685  11.255   1.547  0.7789 -0.0136 -0.5741
  532MOL0     C73291  11.810  11.281   1.455  0.1143  0.3979  0.1606
  532MOL0     C73292  11.816  11.427   1.442 -0.0812  0.3636  0.8041
  532MOL0     C73293  11.927  11.487   1.350  0.0343  0.7408  0.1261
  532MOL0     C73294  12.068  11.475   1.411  0.4451  0.5592  0.3913
  532MOL0     N73295  12.168  11.543   1.333 -0.2249 -0.4732 -0.5515
  532MOL0     C73296  12.226  11.667   1.353  0.4577  0.2760  0.2388
  532MOL0     C73297  12.328  11.662   1.274 -0.2981  0.2835 -0.0650
  532MOL0     C73298  12.437  11.767   1.276 -0.5912  0.1352  0.1342
  532MOL0     C73299  12.572  11.700   1.303  0.5780  0.0877 -0.4554
  532MOL0     C73300  12.689  11.797   1.298 -0.2968  0.4205  0.2623
  532MOL0     C73301  12.827  11.732   1.293 -0.1946 -0.1782 -0.0551
  532MOL0     O73302  12.849  11.643   1.404  0.3029 -0.6005  0.3946
  532MOL0     C73303  12.966  11.581   1.430  0.8408  0.0190 -0.0227
  532MOL0     C73304  12.978  11.496   1.542 -1.3450  0.4507 -0.0348
  532MOL0     C73305  13.091  11.426   1.574 -0.0061  0.7743  0.5169
  532MOL0     C73306  13.077  11.308   1.666 -0.1970  0.9672 -0.1667
  532MOL0     C73307  13.207  11.449   1.494 -0.2858  0.5238  0.3565
  532MOL0     C73308  13.330  11.366   1.510 -0.7080 -0.5198 -0.1066
  532MOL0     O73309  13.413  11.369   1.409 -0.0251  0.2767  0.5559
  532MOL0     C73310  13.533  11.305   1.418 -0.5441  0.6992  1.3988
  532MOL0     C73311  13.643  11.372   1.367 -1.1435  0.3784  0.4552
  532MOL0     C73312  13.771  11.327   1.388 -0.4339  0.6767 -0.7017
  532MOL0     C73313  13.796  11.194   1.443 -0.8923 -0.6698 -0.8542
  532MOL0     O73314  13.925  11.140   1.463  0.0103 -0.1583 -0.8318
  532MOL0     C73315  14.029  11.232   1.465 -0.4538 -0.5483  0.4075
  532MOL0     C73316  14.150  11.148   1.508 -0.4086 -0.5660 -0.0907
  532MOL0     C73317  14.273  11.244   1.531  0.5520  0.4838  0.0012
  532MOL0     C73318  14.295  11.277   1.680  0.0783 -0.1579  0.4829
  532MOL0     C73319  14.415  11.371   1.689 -0.0840 -0.0960  0.1106
  532MOL0     C73320  14.555  11.327   1.644  0.4708 -0.4902 -0.4905
  532MOL0     C73321  14.594  11.217   1.731 -0.5325  0.1472 -0.3107
  532MOL0     C73322  14.723  11.152   1.687 -0.4883 -0.8514  0.3260
  532MOL0    Cl73323  14.840  11.285   1.663  0.0625  0.4506 -1.2129
  532MOL0     C73324  13.685  11.119   1.464 -0.5518  0.0474  0.2518
  532MOL0     C73325  13.559  11.170   1.465 -0.5864 -0.0919  1.0277
  532MOL0     O73326  13.354  11.316   1.618 -0.6415  0.4486  0.0342
  532MOL0     C73327  13.191  11.526   1.376  0.5184 -0.2854  0.6105
  532MOL0     C73328  13.073  11.589   1.346 -0.6901 -0.6104 -0.2039
  532MOL0     N73329  12.339  11.537   1.204  0.1528  0.3279 -0.4117
  532MOL0     N73330  12.245  11.467   1.244 -0.7502 -0.8445  0.4582
  532MOL0     C73331  11.007  11.172   1.443  0.8252  0.1852 -0.2418
  532MOL0     C73332  10.866  11.141   1.424 -0.2105 -0.4218 -0.3182
  532MOL0     C73333  10.462  10.957   1.366 -0.0313 -0.7318  0.1363
  532MOL0     C73334  10.354  11.031   1.311 -1.0300  0.2547 -1.0733
  532MOL0     C73335  10.225  10.994   1.329  1.3671 -0.3587 -0.4336
  532MOL0     C73336  10.193  10.877   1.391  0.7038 -0.4378 -0.1305
  532MOL0     O73337  10.061  10.834   1.408  0.0661 -0.4239 -0.3133
  532MOL0     C73338   9.968  10.936   1.465 -0.0793  0.3077  0.0135
  532MOL0     C73339  10.013  10.970   1.607 -0.7593  0.5099 -0.1036
  532MOL0     C73340   9.998  10.853   1.708 -0.0539  0.3397 -0.5673
  532MOL0     C73341  10.054  10.893   1.841  0.1439  0.9122 -0.6122
  532MOL0     C73342  10.206  10.898   1.828 -0.2237 -0.3421 -0.7087
  532MOL0     C73343  10.321  10.899   1.809 -0.5824  0.5943 -0.4365
  532MOL0     C73344  10.293  10.796   1.437  0.5793  0.7226  0.2608
  532MOL0     C73345  10.428  10.830   1.419  0.0435  0.1650 -0.5233
  532MOL0     C73346  10.534  10.743   1.481  0.5684 -0.3424 -0.1353
  532MOL0     H73347  10.828  10.903   1.667  0.0418  1.0033  0.9524
  532MOL0     H73348  11.078  10.962   1.689  2.4776  1.2975 -1.4879
  532MOL0     H73349  11.259  11.305   1.506  1.1728  0.7485 -2.9844
  532MOL0     H73350  11.305  11.167   1.396 -2.3258 -1.5231 -0.0236
  532MOL0     H73351  11.441  11.279   1.649 -0.8350 -0.0248 -0.1656
  532MOL0     H73352  11.471  11.101   1.607  1.5852  0.9937  2.2198
  532MOL0     H73353  11.564  11.172   1.403  0.7169 -0.5951  2.1407
  532MOL0     H73354  11.516  11.337   1.428 -2.5333 -2.1375 -2.2177
  532MOL0     H73355  11.672  11.338   1.616  0.2642  0.6422 -1.4489
  532MOL0     H73356  11.691  11.163   1.606 -1.8519 -0.0010 -0.1802
  532MOL0     H73357  11.798  11.248   1.352 -0.3795  0.8977  0.0528
  532MOL0     H73358  11.896  11.239   1.510 -1.4638  1.0420  3.4031
  532MOL0     H73359  11.720  11.463   1.404  0.5550  1.3960  0.1245
  532MOL0     H73360  11.818  11.478   1.539  4.7211  0.6888  0.7802
  532MOL0     H73361  11.911  11.595   1.337  1.3640  1.0664  0.9644
  532MOL0     H73362  11.930  11.444   1.250  0.3537  2.0918 -0.4789
  532MOL0     H73363  12.056  11.520   1.510 -5.2013  0.3442  0.1542
  532MOL0     H73364  12.091  11.370   1.429 -2.1607 -0.2506 -0.5246
  532MOL0     H73365  12.205  11.740   1.430 -0.5932 -2.3581  2.5977
  532MOL0     H73366  12.422  11.856   1.339  0.6933  0.5760 -0.1506
  532MOL0     H73367  12.437  11.804   1.173 -1.9407  0.5260  0.2510
  532MOL0     H73368  12.556  11.675   1.409  1.9780  1.1653  0.0428
  532MOL0     H73369  12.584  11.612   1.239 -0.7496 -0.8816  0.5739
  532MOL0     H73370  12.673  11.861   1.211 -0.6394  0.6954  0.5246
  532MOL0     H73371  12.685  11.858   1.388 -1.5059 -0.1566  0.6141
  532MOL0     H73372  12.844  11.676   1.200 -0.7392  0.5343 -0.5986
  532MOL0     H73373  12.906  11.807   1.302  2.8395 -2.8966 -1.8847
  532MOL0     H73374  12.894  11.489   1.610  1.2950  0.0519  3.4284
  532MOL0     H73375  13.116  11.214   1.624 -3.1472 -0.5911  0.3134
  532MOL0     H73376  12.970  11.285   1.673 -0.1374  0.0335 -1.7814
  532MOL0     H73377  13.107  11.336   1.767 -2.5769  0.6340  0.7081
  532MOL0     H73378  13.618  11.463   1.312 -0.2767  0.4913  0.2396
  532MOL0     H73379  13.855  11.395   1.381  1.4676 -1.2662  1.5734
  532MOL0     H73380  14.063  11.268   1.367  2.3512 -1.1443  1.0889
  532MOL0     H73381  14.000  11.319   1.525  0.2787  0.4875 -0.6919
  532MOL0     H73382  14.131  11.101   1.604  0.7149  0.8302  0.8662
  532MOL0     H73383  14.178  11.078   1.429 -1.7604 -0.1365 -0.9784
  532MOL0     H73384  14.260  11.333   1.468  0.8782 -1.7436 -3.4891
  532MOL0     H73385  14.354  11.186   1.486  0.4607  1.1730 -1.0887
  532MOL0     H73386  14.310  11.184   1.735  0.5356 -0.4003 -0.0435
  532MOL0     H73387  14.208  11.319   1.730 -1.0868 -1.4241 -0.3952
  532MOL0     H73388  14.378  11.460   1.637 -0.7907 -0.0135  0.7360
  532MOL0     H73389  14.424  11.415   1.789 -1.3505  3.9786 -1.3444
  532MOL0     H73390  14.620  11.415   1.640  0.0123  0.0143  1.9458
  532MOL0     H73391  14.559  11.281   1.545  1.0099  1.0061 -1.2030
  532MOL0     H73392  14.516  11.141   1.722 -1.3320  0.8867  0.1134
  532MOL0     H73393  14.600  11.249   1.836  1.2998  0.8117 -0.5733
  532MOL0     H73394  14.711  11.105   1.589  0.4926 -1.4280  0.4710
  532MOL0     H73395  14.763  11.075   1.754  0.9197 -3.1522 -2.8879
  532MOL0     H73396  13.701  11.015   1.492 -0.2659  0.0167 -0.0251
  532MOL0     H73397  13.480  11.103   1.497  0.7978 -0.6864  3.4838
  532MOL0     H73398  13.274  11.555   1.312 -0.2292 -2.1196 -1.3211
  532MOL0     H73399  13.066  11.652   1.258 -3.1687 -3.2101 -2.0482
  532MOL0     H73400  11.059  11.253   1.391 -1.1653  1.9123  0.3260
  532MOL0     H73401  10.808  11.211   1.365  1.6240  1.9516  0.5375
  532MOL0     H73402  10.389  11.118   1.256 -0.0534 -0.4556 -1.6058
  532MOL0     H73403  10.164  11.063   1.272  0.7621 -0.9734 -0.5364
  532MOL0     H73404   9.975  11.028   1.406 -0.6400  1.8293  2.1915
  532MOL0     H73405   9.864  10.904   1.465 -0.2513  0.8571 -0.1117
  532MOL0     H73406   9.930  11.032   1.642 -3.5530 -2.4886 -0.9132
  532MOL0     H73407  10.109  11.023   1.611  0.3436 -1.4619  0.6371
  532MOL0     H73408   9.892  10.834   1.728  0.2321 -5.2850 -2.6614
  532MOL0     H73409  10.034  10.753   1.683 -2.5211 -1.6844  3.0275
  532MOL0     H73410  10.043  10.816   1.917  2.8006 -0.9316 -1.9244
  532MOL0     H73411  10.023  10.988   1.886 -2.8830 -1.1806  2.0818
  532MOL0     H73412  10.426  10.899   1.790 -0.6778  0.0096 -1.0072
  532MOL0     H73413  10.269  10.710   1.498 -1.9164  2.2322  1.5731
  532MOL0     H73414  10.627  10.747   1.424  1.1417 -0.5326  0.7547
  532MOL0     H73415  10.557  10.778   1.582 -1.1783 -1.0120  0.5231
  532MOL0     H73416  10.499  10.639   1.481  0.4342 -0.3364  1.9557
  533MOL0     O73417   3.028   8.416   4.070 -0.4461  0.0817 -0.0882
  533MOL0     C73418   3.014   8.479   3.966  0.6840  0.1224 -0.4105
  533MOL0     O73419   3.116   8.530   3.891 -0.6418 -0.7666 -0.9903
  533MOL0     C73420   3.239   8.518   3.958  0.0425  0.2094 -0.1874
  533MOL0     C73421   3.349   8.439   3.917 -0.0537 -0.1594 -0.3289
  533MOL0     C73422   3.470   8.467   3.990 -0.1490  0.4438  0.6278
  533MOL0     C73423   3.490   8.564   4.092 -0.0610  0.6190  1.1152
  533MOL0     O73424   3.616   8.586   4.144  0.3015 -0.1244  0.5279
  533MOL0     C73425   3.648   8.690   4.238 -0.0951 -0.5549  0.0527
  533MOL0     C73426   3.804   8.707   4.215  0.7290  0.3384 -0.1240
  533MOL0     C73427   3.880   8.590   4.271  0.9747 -0.1525  0.0321
  533MOL0     C73428   4.025   8.586   4.206 -0.4762 -0.0341  0.0128
  533MOL0     C73429   4.116   8.714   4.244  0.7013  0.7725  0.2570
  533MOL0     C73430   4.256   8.689   4.188  0.6266 -0.2269 -0.6241
  533MOL0     C73431   4.358   8.776   4.264  0.1785  0.6384  0.0152
  533MOL0     C73432   4.357   8.924   4.213 -0.2584  0.0555 -0.7101
  533MOL0     N73433   4.469   9.004   4.269 -0.0025 -0.6011 -0.4723
  533MOL0     C73434   4.496   9.013   4.405  0.6811 -0.2333 -0.5506
  533MOL0     C73435   4.626   9.047   4.412 -0.4710  0.2717 -0.6702
  533MOL0     C73436   4.700   9.068   4.544 -0.3325  0.6183  0.4997
  533MOL0     C73437   4.745   8.930   4.593 -0.7029 -0.0167 -0.5770
  533MOL0     C73438   4.848   8.961   4.706  0.4732  0.2396 -0.2533
  533MOL0     C73439   4.903   8.824   4.755 -0.2375 -0.1096 -0.1961
  533MOL0     O73440   4.994   8.863   4.864 -0.0185 -0.3735 -0.3134
  533MOL0     C73441   5.119   8.812   4.833  0.8883  0.5439 -0.7424
  533MOL0     C73442   5.143   8.675   4.802  0.2857 -0.4997 -0.0918
  533MOL0     C73443   5.270   8.626   4.753  0.0474  0.1807 -0.3954
  533MOL0     C73444   5.279   8.485   4.702  0.4500 -0.3610 -0.0607
  533MOL0     C73445   5.382   8.718   4.758  1.0806 -0.7207 -0.3207
  533MOL0     C73446   5.522   8.689   4.714  0.8927 -0.6060 -0.3967
  533MOL0     O73447   5.621   8.779   4.754  0.8132 -0.0596  0.1843
  533MOL0     C73448   5.723   8.798   4.663 -0.0382 -0.8992 -0.1000
  533MOL0     C73449   5.713   8.870   4.546  0.0429  0.3146 -0.3473
  533MOL0     C73450   5.829   8.888   4.472 -1.0192  0.1849  1.1076
  533MOL0     C73451   5.949   8.826   4.500 -0.3927  0.3316 -0.5158
  533MOL0     O73452   6.055   8.868   4.423 -0.1745  0.6824  0.3114
  533MOL0     C73453   6.164   8.771   4.420 -0.4642  0.3883  0.1741
  533MOL0     C73454   6.259   8.801   4.304 -0.1829  0.2984  0.0457
  533MOL0     C73455   6.193   8.815   4.168 -0.1353  0.0208  1.1392
  533MOL0     C73456   6.103   8.697   4.134 -0.1338 -0.1503 -0.5056
  533MOL0     C73457   6.038   8.712   3.996  0.0775  0.9444  1.0916
  533MOL0     C73458   5.987   8.572   3.954 -0.1103  1.0497 -0.0157
  533MOL0     C73459   6.085   8.458   3.938  0.1992 -0.4653  0.5795
  533MOL0     C73460   6.012   8.334   3.878  0.2140 -0.6645 -1.0061
  533MOL0    Cl73461   5.957   8.371   3.708 -0.4930 -0.3102 -0.3088
  533MOL0     C73462   5.960   8.763   4.627 -0.5163  0.0115 -0.0181
  533MOL0     C73463   5.851   8.754   4.713  0.2621  0.2181 -0.1749
  533MOL0     O73464   5.539   8.607   4.624  0.2386  0.3483  0.0160
  533MOL0     C73465   5.358   8.852   4.796 -0.2314 -0.3608  1.1243
  533MOL0     C73466   5.231   8.898   4.832  0.4081 -0.0746  0.5815
  533MOL0     N73467   4.681   9.042   4.287 -0.4204  0.0643 -0.2750
  533MOL0     N73468   4.583   9.031   4.204  0.2786 -0.4507  0.4118
  533MOL0     C73469   3.373   8.631   4.127 -0.8782 -0.3866  0.4883
  533MOL0     C73470   3.248   8.615   4.062 -0.3138  0.4704 -0.4530
  533MOL0     C73471   2.874   8.491   3.921  0.2945  0.0077 -0.3070
  533MOL0     C73472   2.804   8.614   3.939  0.4880 -0.1008 -1.0454
  533MOL0     C73473   2.673   8.632   3.888 -0.0891  0.3573  0.4494
  533MOL0     C73474   2.617   8.531   3.812 -0.4391  0.7023  0.3637
  533MOL0     O73475   2.487   8.533   3.769 -0.0698  1.1310 -0.4102
  533MOL0     C73476   2.445   8.654   3.709  0.4256 -0.3663  0.2572
  533MOL0     C73477   2.343   8.728   3.801  0.2523  0.4393 -0.1781
  533MOL0     C73478   2.209   8.653   3.827  0.2899  0.4031 -0.7579
  533MOL0     C73479   2.139   8.591   3.704  0.1791  1.3301 -0.0908
  533MOL0     C73480   2.176   8.452   3.685 -1.4951  0.1100 -0.1172
  533MOL0     C73481   2.208   8.342   3.658  0.0047 -0.5815  0.3464
  533MOL0     C73482   2.684   8.410   3.798  0.0199  0.7748 -0.7216
  533MOL0     C73483   2.813   8.385   3.854  0.9211  0.3687 -1.2700
  533MOL0     C73484   2.881   8.252   3.839 -0.0994 -0.5772  0.1171
  533MOL0     H73485   3.361   8.367   3.838  2.9688 -1.0589  0.8228
  533MOL0     H73486   3.564   8.416   3.970 -0.7533 -0.8338  0.9826
  533MOL0     H73487   3.625   8.672   4.344 -2.4767 -0.1249 -0.3280
  533MOL0     H73488   3.599   8.786   4.217  0.9309  0.4865  2.0441
  533MOL0     H73489   3.829   8.714   4.109  0.2954 -1.3987 -0.3638
  533MOL0     H73490   3.839   8.792   4.274  2.5434 -0.1812 -0.3867
  533MOL0     H73491   3.881   8.601   4.379  0.1234 -2.8755  0.3995
  533MOL0     H73492   3.841   8.490   4.246 -0.2948  0.7578 -1.9227
  533MOL0     H73493   4.080   8.498   4.239  0.6744  0.1873 -1.2325
  533MOL0     H73494   4.022   8.586   4.097  0.1239 -1.0797 -0.0108
  533MOL0     H73495   4.120   8.706   4.353  1.1074 -1.4379  0.1209
  533MOL0     H73496   4.063   8.805   4.213 -0.2610 -0.1543 -0.9579
  533MOL0     H73497   4.283   8.583   4.191 -1.9435 -1.0125 -2.1946
  533MOL0     H73498   4.256   8.712   4.081  0.0716  0.3701 -0.5041
  533MOL0     H73499   4.461   8.743   4.249  0.1283  0.6501 -0.3694
  533MOL0     H73500   4.350   8.763   4.373  1.4170 -2.1006 -0.1331
  533MOL0     H73501   4.368   8.918   4.105 -1.7962  0.7617 -0.9304
  533MOL0     H73502   4.264   8.981   4.211  0.5362  1.3647 -2.4113
  533MOL0     H73503   4.428   9.002   4.489  0.4053  0.0020 -0.7433
  533MOL0     H73504   4.635   9.109   4.621 -1.1078 -0.2233  0.3127
  533MOL0     H73505   4.787   9.133   4.533 -0.4083  0.6429  0.0201
  533MOL0     H73506   4.669   8.856   4.619  1.2842 -2.6988 -1.9756
  533MOL0     H73507   4.799   8.879   4.513  0.7087  0.0318  0.3119
  533MOL0     H73508   4.936   9.018   4.675 -0.5707  2.5306  0.8034
  533MOL0     H73509   4.789   9.009   4.784 -1.6133 -0.1912 -1.4942
  533MOL0     H73510   4.831   8.761   4.808 -3.1273  1.9629 -1.3942
  533MOL0     H73511   4.941   8.768   4.670 -2.9705 -0.6688 -1.1578
  533MOL0     H73512   5.068   8.598   4.812  0.7049 -0.6481  2.5035
  533MOL0     H73513   5.327   8.467   4.606  0.2409 -1.4619  0.0338
  533MOL0     H73514   5.177   8.446   4.691  0.8900 -1.2846 -0.9631
  533MOL0     H73515   5.322   8.419   4.778 -0.5420 -1.3481 -0.3300
  533MOL0     H73516   5.621   8.909   4.504  0.3089  0.1989 -1.0658
  533MOL0     H73517   5.818   8.957   4.389  0.7992 -0.7222  0.0568
  533MOL0     H73518   6.217   8.774   4.516 -2.1742 -3.6217  1.4311
  533MOL0     H73519   6.134   8.666   4.414  0.8754 -0.1982  2.4083
  533MOL0     H73520   6.322   8.885   4.335 -0.5432 -0.3983  3.0351
  533MOL0     H73521   6.337   8.727   4.286 -1.2318 -0.4323 -1.7580
  533MOL0     H73522   6.269   8.831   4.091  1.5707  1.5497  3.0099
  533MOL0     H73523   6.135   8.907   4.156 -2.1208 -1.4828 -2.0163
  533MOL0     H73524   6.028   8.695   4.214  0.9420  1.5086  0.6221
  533MOL0     H73525   6.167   8.609   4.138 -1.2335 -0.9811 -0.8006
  533MOL0     H73526   5.950   8.776   4.007 -1.1613 -0.3004 -0.8580
  533MOL0     H73527   6.110   8.751   3.924 -0.0722  1.3516  1.1595
  533MOL0     H73528   5.934   8.581   3.858 -1.8108 -3.0021  0.3446
  533MOL0     H73529   5.913   8.531   4.023 -0.7459 -0.2379 -1.4079
  533MOL0     H73530   6.111   8.423   4.038 -0.1337 -1.6815  0.2640
  533MOL0     H73531   6.173   8.490   3.881  0.2027  0.0447  0.8679
  533MOL0     H73532   5.929   8.298   3.940  0.8149 -0.9995 -0.3907
  533MOL0     H73533   6.087   8.255   3.871  2.7082  1.6014 -1.4808
  533MOL0     H73534   6.057   8.719   4.650 -0.8265 -0.9229 -0.4694
  533MOL0     H73535   5.859   8.700   4.807  1.1004 -2.5633 -1.7252
  533MOL0     H73536   5.436   8.927   4.792  2.0626 -2.6390 -2.1316
  533MOL0     H73537   5.220   9.005   4.845 -1.2053  0.2065 -2.2321
  533MOL0     H73538   3.377   8.705   4.206 -0.3660 -1.7399  1.7664
  533MOL0     H73539   3.173   8.686   4.094  2.0206  2.8846  0.0301
  533MOL0     H73540   2.848   8.693   4.000  0.7726  0.3069 -1.7690
  533MOL0     H73541   2.620   8.723   3.914  0.1827  0.3060  1.2058
  533MOL0     H73542   2.528   8.720   3.685  1.0577 -0.5648  1.7590
  533MOL0     H73543   2.394   8.626   3.616 -0.5194 -0.5277  0.8049
  533MOL0     H73544   2.321   8.823   3.752  0.1042 -0.1447 -1.2875
  533MOL0     H73545   2.393   8.751   3.895  0.7780  2.8503 -0.9780
  533MOL0     H73546   2.224   8.578   3.905  0.2068  1.1665  0.0124
  533MOL0     H73547   2.146   8.735   3.862  3.9321  2.6652  1.0361
  533MOL0     H73548   2.163   8.639   3.609  0.2637  1.1255 -0.1745
  533MOL0     H73549   2.031   8.597   3.724 -0.4657 -2.0182 -1.8769
  533MOL0     H73550   2.231   8.240   3.635  2.0059 -0.1285  0.1728
  533MOL0     H73551   2.628   8.326   3.757  0.9053 -0.0568 -0.2576
  533MOL0     H73552   2.979   8.276   3.795 -0.3179 -0.0665 -0.1014
  533MOL0     H73553   2.890   8.199   3.934 -0.5462 -2.6722 -0.9638
  533MOL0     H73554   2.830   8.183   3.772 -1.3236 -1.0358  1.4775
  534MOL0     O73555   4.882   3.956   6.715  0.0573  0.2408  0.6253
  534MOL0     C73556   4.824   4.019   6.624 -0.1397 -0.6105  0.1546
  534MOL0     O73557   4.862   4.037   6.492  0.5395 -0.2045  0.4484
  534MOL0     C73558   4.976   3.964   6.448  0.3202  0.1136  0.0489
  534MOL0     C73559   4.991   3.829   6.479 -0.8902 -0.0683 -0.0112
  534MOL0     C73560   5.106   3.765   6.439  0.0925  0.6140 -0.1987
  534MOL0     C73561   5.210   3.835   6.371 -0.9115 -0.5110 -0.6068
  534MOL0     O73562   5.332   3.773   6.325  0.3922  0.7440  0.4468
  534MOL0     C73563   5.339   3.633   6.340 -0.3115 -0.1274  0.1099
  534MOL0     C73564   5.459   3.591   6.261 -0.9705 -0.6209  0.1592
  534MOL0     C73565   5.582   3.666   6.298 -0.0966  0.2447  0.3182
  534MOL0     C73566   5.701   3.640   6.204  0.9742  0.4933  1.0834
  534MOL0     C73567   5.803   3.745   6.228 -0.2636 -1.0398  0.1976
  534MOL0     C73568   5.917   3.736   6.124  0.7839 -0.2633 -0.0552
  534MOL0     C73569   6.016   3.621   6.155 -0.7328  1.6248 -1.1720
  534MOL0     C73570   6.105   3.657   6.278  0.1791 -0.4280 -0.1836
  534MOL0     N73571   6.212   3.562   6.281  0.3692  0.3361 -0.2159
  534MOL0     C73572   6.192   3.425   6.274 -0.1943 -0.4488  0.1386
  534MOL0     C73573   6.306   3.367   6.292 -1.1693  0.5549  0.1645
  534MOL0     C73574   6.345   3.222   6.301 -0.1022 -0.4464 -0.2811
  534MOL0     C73575   6.499   3.196   6.290 -0.0789 -0.4918  0.5593
  534MOL0     C73576   6.537   3.057   6.340  1.1741  0.3456 -0.2435
  534MOL0     C73577   6.667   3.005   6.284 -0.4660  0.4183  0.7322
  534MOL0     O73578   6.753   2.973   6.391 -0.4088 -0.1984  0.0634
  534MOL0     C73579   6.880   2.929   6.361 -0.1155 -0.1216  0.3329
  534MOL0     C73580   6.966   2.967   6.453 -0.8502 -0.7199 -0.7660
  534MOL0     C73581   7.102   2.946   6.444 -0.3121  0.5729  0.4348
  534MOL0     C73582   7.187   2.998   6.557  0.4907  0.1363 -0.1390
  534MOL0     C73583   7.160   2.888   6.329  0.1373  0.4527 -0.2888
  534MOL0     C73584   7.301   2.852   6.299 -0.0889  0.7465  0.2855
  534MOL0     O73585   7.389   2.846   6.408  0.7238 -0.5687  0.6419
  534MOL0     C73586   7.517   2.867   6.375  0.2542  0.1515 -0.7218
  534MOL0     C73587   7.606   2.762   6.402  0.1450  0.8644 -0.0344
  534MOL0     C73588   7.751   2.763   6.385  0.3999 -0.6234 -0.4870
  534MOL0     C73589   7.803   2.885   6.344 -0.5986 -0.8121 -0.3042
  534MOL0     O73590   7.939   2.899   6.335  0.2534 -0.5307 -0.0793
  534MOL0     C73591   8.007   2.809   6.247  0.2517  0.0605  0.6509
  534MOL0     C73592   8.156   2.818   6.265 -0.4277 -0.0281 -0.2840
  534MOL0     C73593   8.253   2.761   6.156  0.4270 -0.1011  0.1434
  534MOL0     C73594   8.400   2.816   6.189  0.2536  0.7860 -0.4593
  534MOL0     C73595   8.462   2.771   6.331 -0.0049  0.3642  0.6372
  534MOL0     C73596   8.608   2.752   6.329 -0.0458  0.1197 -0.3884
  534MOL0     C73597   8.668   2.681   6.452 -0.4506  0.1709  0.4584
  534MOL0     C73598   8.809   2.730   6.466  0.4415  0.1348  0.4458
  534MOL0    Cl73599   8.809   2.886   6.545  0.1788 -0.4687  0.2016
  534MOL0     C73600   7.722   2.989   6.296 -0.3238  0.1875  0.7390
  534MOL0     C73601   7.578   2.981   6.314  0.3857  0.6549  0.6398
  534MOL0     O73602   7.335   2.830   6.180  0.2601 -0.3890 -0.2277
  534MOL0     C73603   7.068   2.849   6.231  0.0952  0.5835  0.1732
  534MOL0     C73604   6.925   2.866   6.248  0.1623  0.4837 -0.0204
  534MOL0     N73605   6.394   3.469   6.316  0.7446 -0.1193  0.3964
  534MOL0     N73606   6.342   3.586   6.297  0.4159 -0.2553  0.2048
  534MOL0     C73607   5.191   3.972   6.340  0.1655  0.1297  0.4219
  534MOL0     C73608   5.074   4.041   6.384  0.8102  0.1023  0.2053
  534MOL0     C73609   4.694   4.083   6.676 -0.2930 -0.6580 -0.7685
  534MOL0     C73610   4.657   4.201   6.615 -0.2540 -0.1715  0.8485
  534MOL0     C73611   4.529   4.251   6.643 -0.9962  0.3570  0.2711
  534MOL0     C73612   4.441   4.185   6.730 -0.2106  0.6222 -0.2047
  534MOL0     O73613   4.317   4.234   6.756 -0.5487  0.4974 -0.3701
  534MOL0     C73614   4.310   4.380   6.786 -0.1846  0.2175 -0.7125
  534MOL0     C73615   4.210   4.437   6.685 -0.5936 -0.0407 -0.3147
  534MOL0     C73616   4.078   4.363   6.671  0.5397  0.1474  0.3989
  534MOL0     C73617   3.966   4.445   6.601  0.3352 -0.3854  0.3172
  534MOL0     C73618   3.887   4.537   6.682 -0.0651 -0.0504 -0.0541
  534MOL0     C73619   3.817   4.610   6.746  0.9165 -0.4327 -1.1376
  534MOL0     C73620   4.489   4.081   6.807  0.2354 -0.5347 -0.3141
  534MOL0     C73621   4.615   4.024   6.783  0.4134 -0.8085 -0.2246
  534MOL0     C73622   4.655   3.906   6.862  0.3907 -0.8209  0.8356
  534MOL0     H73623   4.907   3.774   6.521 -1.4202  0.3955 -0.4473
  534MOL0     H73624   5.114   3.658   6.454  1.1900  0.8455  1.0597
  534MOL0     H73625   5.257   3.582   6.290  0.3103 -3.2589  2.0283
  534MOL0     H73626   5.332   3.595   6.442 -1.2886  2.1775  0.9763
  534MOL0     H73627   5.484   3.485   6.275  0.6571 -0.4149 -0.8651
  534MOL0     H73628   5.450   3.608   6.153 -0.6213 -1.1192  0.0430
  534MOL0     H73629   5.558   3.773   6.305 -0.3265  0.1727  0.6231
  534MOL0     H73630   5.608   3.648   6.402 -1.1471 -0.0548  0.5390
  534MOL0     H73631   5.732   3.538   6.228 -1.0476  0.4370  3.9044
  534MOL0     H73632   5.664   3.639   6.101  0.0262  1.3771  1.3897
  534MOL0     H73633   5.831   3.754   6.333 -0.9694 -2.3735  0.5271
  534MOL0     H73634   5.756   3.841   6.205  1.0434  0.4450  3.1487
  534MOL0     H73635   5.876   3.745   6.023 -0.1908 -2.0066  0.1492
  534MOL0     H73636   5.969   3.832   6.125  0.7506 -0.1979  2.1814
  534MOL0     H73637   6.085   3.615   6.071  0.0516  1.1291 -0.5098
  534MOL0     H73638   5.966   3.525   6.172  1.0496  1.2230  3.2404
  534MOL0     H73639   6.147   3.757   6.267 -2.6237  1.2958  2.9650
  534MOL0     H73640   6.045   3.670   6.368 -2.8235  0.1910 -2.1402
  534MOL0     H73641   6.100   3.368   6.260 -0.5544  0.3744 -1.0186
  534MOL0     H73642   6.285   3.176   6.222 -3.0133  1.0321  0.9295
  534MOL0     H73643   6.314   3.178   6.396 -0.4705  1.5238  0.5769
  534MOL0     H73644   6.522   3.196   6.183 -1.0886 -1.5726  0.3167
  534MOL0     H73645   6.559   3.270   6.344 -0.8328 -0.5362  1.4844
  534MOL0     H73646   6.531   3.060   6.450 -2.5242 -2.7416 -0.1283
  534MOL0     H73647   6.456   2.996   6.300  0.1579  2.1496 -1.0897
  534MOL0     H73648   6.659   2.917   6.220 -1.4560  0.6041  0.5822
  534MOL0     H73649   6.719   3.081   6.226 -1.5446  1.6661  1.3515
  534MOL0     H73650   6.925   3.010   6.544  1.3363 -0.6016  0.2235
  534MOL0     H73651   7.128   3.066   6.619 -1.0913 -1.0730 -0.2594
  534MOL0     H73652   7.280   3.043   6.520  0.3834 -1.8129 -3.1193
  534MOL0     H73653   7.217   2.910   6.615  0.7449 -1.0798 -2.0202
  534MOL0     H73654   7.566   2.663   6.425  0.5698  0.8732  0.7619
  534MOL0     H73655   7.817   2.680   6.403  1.0204 -0.0835 -0.2371
  534MOL0     H73656   7.984   2.705   6.268 -2.2956  0.8568  2.1836
  534MOL0     H73657   7.974   2.837   6.147 -3.0463  1.9670  2.1211
  534MOL0     H73658   8.170   2.923   6.291  1.8203 -0.1143 -0.9375
  534MOL0     H73659   8.174   2.755   6.353  1.5427  0.8818  0.0018
  534MOL0     H73660   8.223   2.792   6.056 -2.4039  1.3638  1.3143
  534MOL0     H73661   8.251   2.652   6.167  0.9029 -0.0041  1.3629
  534MOL0     H73662   8.407   2.925   6.185  1.6990  0.9266  2.6910
  534MOL0     H73663   8.458   2.777   6.104  0.1515 -0.7346  0.1471
  534MOL0     H73664   8.435   2.840   6.411  0.5973 -0.7465  1.8202
  534MOL0     H73665   8.419   2.675   6.358 -1.8278  0.4001 -1.7401
  534MOL0     H73666   8.656   2.850   6.319 -1.6926  1.1724  1.4663
  534MOL0     H73667   8.636   2.688   6.245  1.9164  0.6697 -0.2048
  534MOL0     H73668   8.663   2.573   6.435 -2.4553  0.3460 -0.2801
  534MOL0     H73669   8.603   2.702   6.538 -2.8325  0.4359 -1.2941
  534MOL0     H73670   8.861   2.729   6.370 -0.9160 -0.3608 -0.3024
  534MOL0     H73671   8.861   2.658   6.530 -1.8239 -3.0266 -0.9738
  534MOL0     H73672   7.761   3.078   6.247 -0.6245 -1.2542 -2.3267
  534MOL0     H73673   7.513   3.053   6.265  0.4045 -0.5291 -1.1848
  534MOL0     H73674   7.088   2.803   6.135 -0.4809 -1.5493  1.0201
  534MOL0     H73675   6.860   2.824   6.172 -0.0983  1.2860 -0.2498
  534MOL0     H73676   5.254   4.047   6.294  0.1922  0.7744  1.4674
  534MOL0     H73677   5.063   4.149   6.378 -1.3687 -0.1062 -0.3906
  534MOL0     H73678   4.713   4.252   6.537 -1.0235  1.3423  1.2420
  534MOL0     H73679   4.483   4.330   6.584 -1.5808 -0.8478 -0.9114
  534MOL0     H73680   4.296   4.394   6.893 -1.4123 -1.1676 -0.6687
  534MOL0     H73681   4.404   4.429   6.759  0.3405  0.7797  1.9089
  534MOL0     H73682   4.260   4.432   6.588  3.1630 -0.4088  1.4918
  534MOL0     H73683   4.189   4.538   6.723 -0.5993  1.0839 -3.1110
  534MOL0     H73684   4.088   4.272   6.611 -3.0339  0.2324 -0.5489
  534MOL0     H73685   4.040   4.329   6.767 -1.1978 -0.4862 -0.4662
  534MOL0     H73686   3.902   4.370   6.554  0.3933  0.6089 -1.4267
  534MOL0     H73687   4.002   4.502   6.515 -2.0480 -0.7839 -1.0036
  534MOL0     H73688   3.747   4.672   6.799  2.6323 -0.0953  0.8210
  534MOL0     H73689   4.442   4.049   6.900  2.5985 -1.2957  0.6926
  534MOL0     H73690   4.680   3.817   6.803 -1.4414  0.6481 -2.4013
  534MOL0     H73691   4.735   3.935   6.930 -0.3744 -0.9574  1.8349
  534MOL0     H73692   4.577   3.869   6.930 -1.2408  0.5403 -0.2187
  535MOL0     O73693   3.606   9.011   3.711 -0.7760  0.2821 -0.1151
  535MOL0     C73694   3.517   8.991   3.791  0.4725  0.4576 -0.9057
  535MOL0     O73695   3.527   9.020   3.930 -0.0327 -0.3613 -0.7659
  535MOL0     C73696   3.642   9.086   3.969 -0.1044  0.6300 -0.2607
  535MOL0     C73697   3.637   9.216   3.999  0.2813  0.6714 -0.1491
  535MOL0     C73698   3.753   9.283   4.047  0.9416  0.1839  0.4903
  535MOL0     C73699   3.873   9.220   4.065 -0.0646 -0.1161  0.1304
  535MOL0     O73700   3.970   9.268   4.147 -0.0511 -0.2423  0.0351
  535MOL0     C73701   4.099   9.203   4.147  0.5148  0.2535 -1.1561
  535MOL0     C73702   4.204   9.313   4.166 -0.0484 -1.0642  0.3613
  535MOL0     C73703   4.234   9.395   4.037 -0.3226  0.5577 -0.4781
  535MOL0     C73704   4.330   9.321   3.941 -0.0106  0.0268 -0.9842
  535MOL0     C73705   4.343   9.377   3.803 -0.0332  0.2415  0.7015
  535MOL0     C73706   4.429   9.296   3.709 -0.5182 -0.5295  0.1124
  535MOL0     C73707   4.574   9.335   3.726 -0.6749 -0.1297  0.3893
  535MOL0     C73708   4.667   9.251   3.645  0.2285 -0.2779 -0.3569
  535MOL0     N73709   4.804   9.278   3.692  0.5617  0.6687  0.0632
  535MOL0     C73710   4.857   9.232   3.809 -0.2365 -0.7565  0.2227
  535MOL0     C73711   4.983   9.279   3.812 -0.1629 -0.2555  0.3587
  535MOL0     C73712   5.074   9.274   3.921 -0.4471 -0.5936  0.1430
  535MOL0     C73713   5.223   9.271   3.871  0.7399 -0.4492  0.4154
  535MOL0     C73714   5.286   9.317   4.005  0.0663 -0.0482  0.3943
  535MOL0     C73715   5.438   9.294   3.990  0.3566  0.8391  0.0068
  535MOL0     O73716   5.482   9.404   3.908  0.0567  0.0642 -0.6961
  535MOL0     C73717   5.615   9.429   3.916 -0.9086  1.4626  0.4040
  535MOL0     C73718   5.664   9.501   4.021  0.6186 -0.1457  0.1246
  535MOL0     C73719   5.799   9.533   4.030 -0.7030 -0.1699  0.8452
  535MOL0     C73720   5.858   9.594   4.159  0.1097 -0.1658  0.6620
  535MOL0     C73721   5.880   9.520   3.913  0.3769  1.0142  1.3742
  535MOL0     C73722   6.019   9.582   3.888  0.1659  0.8150 -0.0701
  535MOL0     O73723   6.052   9.610   3.758 -0.3740 -0.5495 -0.0682
  535MOL0     C73724   6.167   9.678   3.729 -0.1028 -0.1902  0.3389
  535MOL0     C73725   6.168   9.781   3.640  0.4542  0.2711  0.0912
  535MOL0     C73726   6.289   9.842   3.614  0.7934 -0.2664 -0.1317
  535MOL0     C73727   6.410   9.803   3.683 -0.2723  0.2889  0.2299
  535MOL0     O73728   6.527   9.873   3.670  0.2042  0.5844  0.4790
  535MOL0     C73729   6.528  10.001   3.732 -0.5803 -0.1833 -0.6880
  535MOL0     C73730   6.650  10.082   3.683 -0.0633 -0.9238 -0.4086
  535MOL0     C73731   6.670  10.203   3.759 -0.6952 -0.3466  0.1323
  535MOL0     C73732   6.781  10.292   3.694  0.3591  0.2358  0.2513
  535MOL0     C73733   6.793  10.418   3.782  0.7392  0.5429 -0.9966
  535MOL0     C73734   6.906  10.518   3.756 -0.0997 -0.1124 -0.4262
  535MOL0     C73735   7.043  10.463   3.762  0.1402 -0.5808  0.5069
  535MOL0     C73736   7.151  10.569   3.744  0.3379  0.3250  0.2921
  535MOL0    Cl73737   7.300  10.476   3.775  0.1409 -0.0932  0.0532
  535MOL0     C73738   6.410   9.692   3.766 -0.3971  0.3344  0.6028
  535MOL0     C73739   6.290   9.631   3.786  0.5969 -0.2402  0.2661
  535MOL0     O73740   6.082   9.622   3.986 -1.2055  0.4159 -0.5116
  535MOL0     C73741   5.820   9.445   3.802 -0.5597  0.4069  0.3143
  535MOL0     C73742   5.692   9.411   3.799 -0.3420  0.1659 -0.1047
  535MOL0     N73743   5.005   9.351   3.698  0.6591  0.1466 -0.4704
  535MOL0     N73744   4.897   9.352   3.624 -0.2838  0.0215 -0.3049
  535MOL0     C73745   3.867   9.079   4.045 -0.7667  0.4218 -0.7556
  535MOL0     C73746   3.758   9.010   3.999 -0.2469 -0.4764  0.4489
  535MOL0     C73747   3.382   8.937   3.753  0.0807 -0.2504  0.0503
  535MOL0     C73748   3.286   8.910   3.860 -0.0588 -0.3561  0.2389
  535MOL0     C73749   3.156   8.885   3.827  0.0865  0.9888  0.3219
  535MOL0     C73750   3.109   8.879   3.701 -0.2154 -0.0709  0.1475
  535MOL0     O73751   2.978   8.857   3.671 -0.0358  0.2385 -0.1461
  535MOL0     C73752   2.867   8.907   3.750 -0.4867 -0.0072 -0.5986
  535MOL0     C73753   2.806   9.026   3.672  0.3311 -0.2464 -0.3352
  535MOL0     C73754   2.686   9.091   3.742 -0.0652  1.0940  0.2441
  535MOL0     C73755   2.562   9.069   3.660 -0.5436  0.1274 -0.1932
  535MOL0     C73756   2.437   9.095   3.729 -0.6831  0.1826  0.9466
  535MOL0     C73757   2.334   9.121   3.778  0.6163 -0.5019 -0.3682
  535MOL0     C73758   3.205   8.887   3.594 -0.2952 -0.6372  0.0867
  535MOL0     C73759   3.339   8.911   3.616 -0.6908  0.8591 -0.5075
  535MOL0     C73760   3.429   8.906   3.490 -0.3071 -0.1160 -0.0799
  535MOL0     H73761   3.545   9.271   3.979  1.1516  2.8537  1.4091
  535MOL0     H73762   3.759   9.390   4.068  2.5196  0.1812  0.1497
  535MOL0     H73763   4.119   9.145   4.056  1.3109  1.0897 -1.5352
  535MOL0     H73764   4.110   9.131   4.229  3.0088  2.4792  0.6445
  535MOL0     H73765   4.166   9.371   4.250 -0.6106 -1.5597  0.4634
  535MOL0     H73766   4.298   9.265   4.195 -0.3778 -1.0306  1.5186
  535MOL0     H73767   4.133   9.405   3.994 -0.4123  4.3980  0.3292
  535MOL0     H73768   4.268   9.496   4.057 -1.6277  1.0301 -0.5500
  535MOL0     H73769   4.428   9.317   3.988  0.1617  1.0900 -1.2339
  535MOL0     H73770   4.306   9.216   3.925 -2.3377  0.3178  0.1347
  535MOL0     H73771   4.387   9.476   3.817 -1.8839  1.4850 -1.4631
  535MOL0     H73772   4.241   9.393   3.766 -1.5011 -0.5753  4.0994
  535MOL0     H73773   4.410   9.190   3.730  1.7350 -0.8070  1.0627
  535MOL0     H73774   4.389   9.323   3.611  0.6372  1.2127  0.0711
  535MOL0     H73775   4.602   9.316   3.830  0.2268  1.2063  0.4224
  535MOL0     H73776   4.599   9.441   3.712  0.3282 -0.1569  1.7813
  535MOL0     H73777   4.634   9.149   3.664  0.6633 -0.3957 -0.2268
  535MOL0     H73778   4.659   9.266   3.537 -0.7962 -0.2521 -0.2880
  535MOL0     H73779   4.805   9.170   3.881  0.8179 -2.9976 -0.8631
  535MOL0     H73780   5.053   9.188   3.985 -1.5276 -1.0571 -0.7903
  535MOL0     H73781   5.059   9.371   3.970 -0.1695 -1.4355  1.9954
  535MOL0     H73782   5.244   9.168   3.842 -0.8163 -1.2407  1.9489
  535MOL0     H73783   5.250   9.343   3.793 -0.9981 -0.8666 -0.6394
  535MOL0     H73784   5.263   9.423   4.020  0.2662  0.1080 -0.3589
  535MOL0     H73785   5.258   9.261   4.095  0.5005 -2.6328 -0.9653
  535MOL0     H73786   5.486   9.286   4.088 -1.0547  1.8248  0.8048
  535MOL0     H73787   5.455   9.198   3.940 -1.8808  0.2301  0.2784
  535MOL0     H73788   5.603   9.542   4.100  1.6751  0.7772  0.4824
  535MOL0     H73789   5.857   9.704   4.162 -1.7068 -0.1588  1.0781
  535MOL0     H73790   5.959   9.562   4.184  0.4171 -0.4634 -0.8916
  535MOL0     H73791   5.791   9.589   4.246  0.4228  1.8075  1.0703
  535MOL0     H73792   6.072   9.796   3.591 -1.5538 -1.4534  3.2090
  535MOL0     H73793   6.300   9.928   3.549  1.3036 -0.9037 -0.9105
  535MOL0     H73794   6.442  10.066   3.711 -1.9793 -0.9065  2.3587
  535MOL0     H73795   6.536   9.998   3.841 -1.4529 -1.2524 -0.6453
  535MOL0     H73796   6.741  10.021   3.685 -0.0745 -0.9770  3.0803
  535MOL0     H73797   6.624  10.119   3.583 -1.2693  0.2504  0.3126
  535MOL0     H73798   6.700  10.168   3.858 -0.3034 -3.6051 -1.0432
  535MOL0     H73799   6.577  10.261   3.765  1.1708  2.7636  1.4804
  535MOL0     H73800   6.757  10.325   3.592  0.2702  0.6022  0.3873
  535MOL0     H73801   6.877  10.240   3.694  1.2440  1.7368 -1.1048
  535MOL0     H73802   6.696  10.469   3.778 -0.2446 -0.9192  1.7409
  535MOL0     H73803   6.806  10.386   3.886 -2.1516  2.9552  0.2411
  535MOL0     H73804   6.899  10.605   3.823 -1.4614  0.2918 -1.0554
  535MOL0     H73805   6.902  10.552   3.653 -1.1397 -1.5008 -0.8643
  535MOL0     H73806   7.053  10.382   3.689 -2.2676 -1.4723  1.0604
  535MOL0     H73807   7.042  10.408   3.857  2.1123 -2.5926 -0.5356
  535MOL0     H73808   7.147  10.657   3.809 -0.7583 -0.8430  1.9146
  535MOL0     H73809   7.131  10.613   3.646 -2.7290  0.0164  0.6693
  535MOL0     H73810   6.505   9.653   3.802  1.2987  2.8901 -0.8229
  535MOL0     H73811   6.284   9.548   3.856  0.8287 -0.2327  0.2965
  535MOL0     H73812   5.878   9.420   3.714 -0.4080 -4.4046  1.4836
  535MOL0     H73813   5.651   9.379   3.703 -1.6463  0.5771  0.2927
  535MOL0     H73814   3.955   9.017   4.060 -1.7305 -1.3542 -2.0627
  535MOL0     H73815   3.748   8.906   3.969 -2.6045  0.5322 -2.7640
  535MOL0     H73816   3.309   8.923   3.965 -1.2688  2.5022  0.2524
  535MOL0     H73817   3.082   8.871   3.906  2.3662 -0.7073  2.3061
  535MOL0     H73818   2.801   8.820   3.748 -0.2506 -0.1777 -0.9213
  535MOL0     H73819   2.876   8.941   3.854  1.2868  1.6211 -1.2405
  535MOL0     H73820   2.791   9.009   3.565 -3.1177  0.0092 -0.0054
  535MOL0     H73821   2.891   9.094   3.680  0.0096  0.1810 -0.4833
  535MOL0     H73822   2.670   9.052   3.843  1.5944  1.8213  0.8223
  535MOL0     H73823   2.703   9.198   3.758 -2.6034  1.2213  2.9747
  535MOL0     H73824   2.543   8.963   3.640 -0.0290 -0.3173  1.5396
  535MOL0     H73825   2.566   9.138   3.575 -0.4996 -0.4287 -0.6505
  535MOL0     H73826   2.250   9.146   3.839 -1.4624 -1.9797 -2.4211
  535MOL0     H73827   3.176   8.859   3.493  3.6317  0.2174 -1.4478
  535MOL0     H73828   3.485   8.998   3.475  1.7473 -1.3944 -0.7604
  535MOL0     H73829   3.501   8.824   3.495  0.9346  1.0148  2.5961
  535MOL0     H73830   3.372   8.885   3.399  0.3006 -0.7352 -0.3318
  536MOL0     O73831   2.821   4.619   4.658  0.4859  0.1810  0.4494
  536MOL0     C73832   2.798   4.674   4.554 -0.0488 -0.5153  1.0755
  536MOL0     O73833   2.854   4.640   4.437 -0.0744  0.7733  0.4789
  536MOL0     C73834   2.933   4.529   4.433 -0.4117  0.4426  0.0094
  536MOL0     C73835   3.074   4.533   4.448 -0.2354 -0.4209 -0.3343
  536MOL0     C73836   3.152   4.419   4.431 -0.5712 -0.6054 -0.1956
  536MOL0     C73837   3.100   4.299   4.396 -0.6337  0.1727 -0.1764
  536MOL0     O73838   3.189   4.197   4.374  0.4434  0.4221  0.5874
  536MOL0     C73839   3.130   4.067   4.382  0.1154  0.2727  0.3271
  536MOL0     C73840   3.246   3.961   4.424  0.6784 -0.1507 -0.3159
  536MOL0     C73841   3.321   3.925   4.295 -0.1437 -0.0314  0.2963
  536MOL0     C73842   3.429   3.817   4.340 -0.5370  0.1383  0.0174
  536MOL0     C73843   3.531   3.782   4.234 -0.3997  0.3614  0.4384
  536MOL0     C73844   3.606   3.909   4.193 -1.4613  0.4368  0.6331
  536MOL0     C73845   3.721   3.869   4.106 -0.2422  0.6740 -0.6538
  536MOL0     C73846   3.824   3.764   4.172 -0.3938  1.1279 -0.0832
  536MOL0     N73847   3.947   3.747   4.088 -0.2721 -0.1449  0.7501
  536MOL0     C73848   4.064   3.822   4.102 -0.6486 -0.9324  0.6359
  536MOL0     C73849   4.143   3.761   4.020  0.3363  1.2244 -0.0475
  536MOL0     C73850   4.286   3.804   4.007  0.9761 -0.4300  0.3386
  536MOL0     C73851   4.356   3.742   4.125 -0.4251  0.4311  0.2439
  536MOL0     C73852   4.504   3.749   4.110  0.0289  0.2288 -0.2799
  536MOL0     C73853   4.556   3.653   4.004 -0.6498  0.6022 -1.1395
  536MOL0     O73854   4.701   3.672   4.012 -0.5155 -0.0378  0.6301
  536MOL0     C73855   4.780   3.640   3.904  0.5982 -0.0326  0.1448
  536MOL0     C73856   4.760   3.524   3.832 -0.2635  0.1201 -0.3554
  536MOL0     C73857   4.856   3.483   3.737  0.5924  0.3012 -0.0776
  536MOL0     C73858   4.838   3.342   3.680  0.7088 -0.0249 -0.1193
  536MOL0     C73859   4.977   3.556   3.717  0.1136  0.4544  0.6276
  536MOL0     C73860   5.091   3.512   3.631  0.1837 -0.4264  0.2351
  536MOL0     O73861   5.188   3.607   3.616 -0.4537  0.2014 -0.2162
  536MOL0     C73862   5.313   3.568   3.560  1.0078  0.4397  0.5106
  536MOL0     C73863   5.377   3.661   3.479 -0.6782 -0.1096 -0.8140
  536MOL0     C73864   5.482   3.614   3.402 -0.1781 -0.1083  0.0751
  536MOL0     C73865   5.541   3.479   3.417  0.6036  0.1678 -0.2702
  536MOL0     O73866   5.644   3.435   3.337 -0.7699  0.9439  0.3904
  536MOL0     C73867   5.729   3.533   3.268  0.0795 -0.3324 -0.6652
  536MOL0     C73868   5.864   3.478   3.250  0.0674 -0.4582  0.1667
  536MOL0     C73869   5.972   3.577   3.202 -0.2475  0.1570 -0.1154
  536MOL0     C73870   6.092   3.561   3.301 -0.5881 -1.0323  0.2152
  536MOL0     C73871   6.208   3.659   3.270  0.3533 -0.2800  0.1716
  536MOL0     C73872   6.340   3.616   3.328  0.5485  0.2244 -0.5590
  536MOL0     C73873   6.323   3.599   3.486 -0.4172  0.0478  0.0316
  536MOL0     C73874   6.468   3.601   3.539 -0.0346 -0.2421  0.2352
  536MOL0    Cl73875   6.608   3.534   3.444  0.3297 -0.1909  0.0247
  536MOL0     C73876   5.480   3.400   3.507 -0.5024  0.4162 -0.0387
  536MOL0     C73877   5.370   3.442   3.577 -0.3988 -0.0904  0.3595
  536MOL0     O73878   5.084   3.403   3.578 -0.5868  0.2658  0.1352
  536MOL0     C73879   4.989   3.668   3.795 -0.1250  0.7498  0.4607
  536MOL0     C73880   4.894   3.715   3.882  0.6346 -0.1665 -0.7359
  536MOL0     N73881   4.083   3.643   3.971 -1.2628  0.0421 -0.4566
  536MOL0     N73882   3.968   3.640   4.018 -0.0003 -0.2909  0.0571
  536MOL0     C73883   2.961   4.291   4.381  0.5656 -0.1993 -0.5019
  536MOL0     C73884   2.875   4.404   4.408 -0.7777 -0.5377 -0.0670
  536MOL0     C73885   2.706   4.784   4.551 -0.7241  0.4532  0.1701
  536MOL0     C73886   2.724   4.890   4.457 -0.5730  0.1431  0.0159
  536MOL0     C73887   2.635   4.994   4.450  0.5916  0.1150  0.1346
  536MOL0     C73888   2.527   5.005   4.537 -0.4098  0.0656  0.5242
  536MOL0     O73889   2.450   5.119   4.517 -0.7602 -0.3550  0.4337
  536MOL0     C73890   2.321   5.118   4.563  0.3840 -0.4966 -0.7715
  536MOL0     C73891   2.244   5.243   4.503 -0.6912  0.2376 -0.5528
  536MOL0     C73892   2.196   5.205   4.358  0.0642 -0.1600  0.5880
  536MOL0     C73893   2.184   5.333   4.270  0.2370  0.4639  0.6079
  536MOL0     C73894   2.311   5.376   4.209 -0.5972 -1.0532 -0.0063
  536MOL0     C73895   2.416   5.419   4.154  0.1276  0.0436 -0.4374
  536MOL0     C73896   2.506   4.901   4.634 -0.2013 -0.3453  0.1211
  536MOL0     C73897   2.597   4.792   4.643 -0.0040 -0.7811  0.2060
  536MOL0     C73898   2.560   4.694   4.753  0.3594  0.0631  0.9650
  536MOL0     H73899   3.118   4.630   4.470 -0.1808 -0.4018 -0.5271
  536MOL0     H73900   3.256   4.441   4.448 -1.4531  4.0324  0.4589
  536MOL0     H73901   3.097   4.043   4.280  1.1428  0.7570 -0.1313
  536MOL0     H73902   3.047   4.081   4.451  1.3350  6.6803  1.1324
  536MOL0     H73903   3.307   4.017   4.496 -2.4048  1.0016  1.6184
  536MOL0     H73904   3.195   3.875   4.468 -4.4461  2.4286 -0.4317
  536MOL0     H73905   3.261   3.885   4.213  3.1010  1.2524 -3.0188
  536MOL0     H73906   3.372   4.012   4.252  0.2000 -0.1732  0.4128
  536MOL0     H73907   3.495   3.853   4.420  1.2501 -2.0844 -0.3475
  536MOL0     H73908   3.385   3.724   4.377  0.1045  0.4615  1.6888
  536MOL0     H73909   3.479   3.726   4.156  0.0537  1.4855 -0.7012
  536MOL0     H73910   3.603   3.724   4.292 -2.0794 -0.5149  1.7784
  536MOL0     H73911   3.531   3.970   4.143 -0.5110 -0.3112 -1.8607
  536MOL0     H73912   3.642   3.962   4.282 -4.1091  0.4507  1.7927
  536MOL0     H73913   3.772   3.963   4.080  1.4434  0.8109  2.6295
  536MOL0     H73914   3.675   3.820   4.020 -0.8585 -1.9054  1.0654
  536MOL0     H73915   3.849   3.818   4.264  0.3289  0.9006 -0.1427
  536MOL0     H73916   3.778   3.666   4.186 -1.8320  1.7908 -0.0524
  536MOL0     H73917   4.099   3.912   4.152 -1.5352  1.0375 -2.0339
  536MOL0     H73918   4.289   3.914   4.007 -0.4271 -0.3738 -0.0198
  536MOL0     H73919   4.337   3.771   3.915  2.4185 -0.6811  1.1946
  536MOL0     H73920   4.328   3.797   4.215  2.5253 -0.9585  2.1647
  536MOL0     H73921   4.324   3.638   4.135 -0.6998  0.4587 -0.3145
  536MOL0     H73922   4.531   3.852   4.085  0.7556  0.0367 -0.3126
  536MOL0     H73923   4.556   3.717   4.201 -0.0428  0.7683 -0.0437
  536MOL0     H73924   4.526   3.549   4.022  1.2173  0.0559 -0.9910
  536MOL0     H73925   4.521   3.685   3.905  0.7935  0.0459 -1.8517
  536MOL0     H73926   4.680   3.456   3.857  0.7937 -1.2085 -0.4759
  536MOL0     H73927   4.919   3.273   3.707 -0.0086 -0.3677  1.2997
  536MOL0     H73928   4.837   3.359   3.572  0.9089 -3.1518 -0.6987
  536MOL0     H73929   4.747   3.291   3.714  2.5136 -2.2190  1.7798
  536MOL0     H73930   5.359   3.768   3.469  3.0240  0.6456 -0.9920
  536MOL0     H73931   5.532   3.684   3.335  1.3433 -3.4009 -2.5879
  536MOL0     H73932   5.694   3.567   3.171  0.6183  0.4656 -0.5880
  536MOL0     H73933   5.740   3.615   3.339 -0.3610 -2.0741  1.5462
  536MOL0     H73934   5.898   3.444   3.348  0.7651  2.6019  1.1108
  536MOL0     H73935   5.874   3.396   3.179 -0.8321 -2.7474  2.5287
  536MOL0     H73936   5.943   3.682   3.202 -1.2167  0.0734  4.1576
  536MOL0     H73937   6.008   3.554   3.101 -1.6253  0.9494 -0.8138
  536MOL0     H73938   6.130   3.460   3.284 -0.3908 -0.7434 -1.1972
  536MOL0     H73939   6.064   3.562   3.406  0.7227 -1.4685  0.5805
  536MOL0     H73940   6.214   3.664   3.160 -2.3040  0.0414 -0.0252
  536MOL0     H73941   6.176   3.761   3.294  0.4256  0.6409 -3.0839
  536MOL0     H73942   6.415   3.691   3.305 -0.8653  1.4930 -1.1579
  536MOL0     H73943   6.372   3.519   3.288 -0.0029 -0.3730  0.4076
  536MOL0     H73944   6.271   3.505   3.506 -2.0708 -0.1136 -4.0044
  536MOL0     H73945   6.264   3.672   3.542  0.1123 -0.3822  1.1666
  536MOL0     H73946   6.469   3.558   3.640  1.4153 -2.9601 -0.8539
  536MOL0     H73947   6.485   3.709   3.544 -1.5019  0.0105  0.4063
  536MOL0     H73948   5.534   3.308   3.530  1.4720  1.7900  1.1283
  536MOL0     H73949   5.339   3.362   3.643  1.9207 -0.2342  1.3999
  536MOL0     H73950   5.067   3.742   3.776 -0.6366  0.5404 -3.0444
  536MOL0     H73951   4.908   3.798   3.950 -1.9686  1.4075 -1.9408
  536MOL0     H73952   2.903   4.202   4.362  1.2293 -0.6007 -0.6491
  536MOL0     H73953   2.769   4.399   4.385 -0.7290 -0.9177 -0.2213
  536MOL0     H73954   2.814   4.885   4.396 -1.1120 -1.4538 -0.6791
  536MOL0     H73955   2.666   5.064   4.373  1.2467 -1.3472 -0.9674
  536MOL0     H73956   2.267   5.026   4.537  1.5373 -0.9655 -1.5868
  536MOL0     H73957   2.325   5.121   4.673  2.5957  0.3542 -0.8275
  536MOL0     H73958   2.301   5.335   4.490  0.9236 -0.7987 -1.1304
  536MOL0     H73959   2.151   5.259   4.558 -0.8757  0.0282 -0.8055
  536MOL0     H73960   2.262   5.132   4.310 -0.2516 -0.2687  0.3133
  536MOL0     H73961   2.095   5.163   4.356 -0.2936  0.6932  0.3470
  536MOL0     H73962   2.148   5.404   4.345  0.4395  0.3201  0.8444
  536MOL0     H73963   2.104   5.326   4.196  0.3139 -0.1500  0.5748
  536MOL0     H73964   2.513   5.460   4.135  0.4479  0.0930  1.1356
  536MOL0     H73965   2.428   4.915   4.709 -0.4738 -1.9186  0.1594
  536MOL0     H73966   2.525   4.605   4.699 -1.1698  0.4923  1.1973
  536MOL0     H73967   2.646   4.671   4.817  0.3624 -1.0467  0.5710
  536MOL0     H73968   2.475   4.714   4.819  0.7477 -2.3863  2.3133
  537MOL0     O73969   3.629   6.226   1.068  0.6984  0.1515 -0.1448
  537MOL0     C73970   3.598   6.343   1.045 -0.2610 -0.2410 -0.1023
  537MOL0     O73971   3.687   6.444   1.059 -0.1167  0.1493 -0.4542
  537MOL0     C73972   3.803   6.422   1.120 -0.3176  1.1568  0.2289
  537MOL0     C73973   3.820   6.350   1.244 -0.2725 -1.2694 -0.8290
  537MOL0     C73974   3.939   6.366   1.316 -0.4453  0.1933 -0.0130
  537MOL0     C73975   4.052   6.432   1.260 -0.8265 -0.6131  0.3268
  537MOL0     O73976   4.175   6.419   1.329 -0.0042  0.5667 -0.7303
  537MOL0     C73977   4.308   6.453   1.270  0.5304  0.4456 -0.8218
  537MOL0     C73978   4.392   6.332   1.293  0.2237 -0.6073 -0.6252
  537MOL0     C73979   4.534   6.339   1.238  0.4284 -0.2805  0.6731
  537MOL0     C73980   4.598   6.210   1.283 -0.1554  0.2198  0.1017
  537MOL0     C73981   4.746   6.190   1.230  0.4106  0.3816  0.4367
  537MOL0     C73982   4.810   6.062   1.296 -0.2620 -0.9238 -0.4481
  537MOL0     C73983   4.922   5.995   1.216  0.0301  0.6008 -0.0819
  537MOL0     C73984   4.980   5.862   1.272  0.1582 -0.0155 -0.1721
  537MOL0     N73985   5.117   5.879   1.326 -0.6767  0.0545  0.4405
  537MOL0     C73986   5.233   5.912   1.255  0.1147 -0.0189 -0.3906
  537MOL0     C73987   5.332   5.889   1.342  0.1792 -0.3385 -0.1662
  537MOL0     C73988   5.477   5.894   1.305 -0.2061 -0.5136  0.2299
  537MOL0     C73989   5.524   6.042   1.286  0.3902 -0.3604 -0.2216
  537MOL0     C73990   5.664   6.036   1.241  0.0580  0.3873  0.2890
  537MOL0     C73991   5.736   6.177   1.253 -0.6239  0.8206 -0.4851
  537MOL0     O73992   5.764   6.199   1.393  0.2499 -0.4077  0.1267
  537MOL0     C73993   5.894   6.187   1.440 -0.4077  0.5127  0.1445
  537MOL0     C73994   5.994   6.109   1.379 -0.4878 -0.1327 -0.0132
  537MOL0     C73995   6.127   6.102   1.432 -0.5291  0.8609 -0.1786
  537MOL0     C73996   6.205   5.992   1.373 -0.5314  0.1836 -0.3069
  537MOL0     C73997   6.158   6.184   1.542 -0.1965 -0.5373  0.0238
  537MOL0     C73998   6.291   6.186   1.619  0.3969  0.1031  0.5696
  537MOL0     O73999   6.371   6.084   1.600 -0.3236 -0.1841  0.2549
  537MOL0     C74000   6.502   6.093   1.649 -0.2848 -0.8108 -1.8398
  537MOL0     C74001   6.561   5.972   1.684 -0.4012  0.2530  0.1996
  537MOL0     C74002   6.691   5.964   1.735 -0.6547 -0.7543  1.0294
  537MOL0     C74003   6.761   6.080   1.760  0.1565 -0.1548  0.3462
  537MOL0     O74004   6.892   6.054   1.805  0.3368 -0.0608 -0.7469
  537MOL0     C74005   6.988   6.155   1.768 -0.7168  0.6402 -0.3859
  537MOL0     C74006   7.117   6.119   1.842 -0.5457 -0.1979  0.4367
  537MOL0     C74007   7.237   6.204   1.790 -0.0790 -0.3339  0.5631
  537MOL0     C74008   7.369   6.144   1.832 -0.7910 -0.4962  0.4259
  537MOL0     C74009   7.482   6.238   1.800 -1.0490  0.2642  0.5257
  537MOL0     C74010   7.623   6.182   1.835 -0.8408 -0.0694  0.4418
  537MOL0     C74011   7.726   6.281   1.785 -0.6628  0.8640  0.4110
  537MOL0     C74012   7.866   6.232   1.815  0.0410  0.6539  0.2623
  537MOL0    Cl74013   7.976   6.357   1.781 -0.3563  0.1168  0.4000
  537MOL0     C74014   6.707   6.204   1.729  0.3491 -0.2729 -0.1782
  537MOL0     C74015   6.579   6.205   1.668  0.3023  0.1003  0.2894
  537MOL0     O74016   6.304   6.279   1.704 -0.0437  0.4098 -0.1711
  537MOL0     C74017   6.055   6.257   1.602  0.4070 -1.3538  0.0636
  537MOL0     C74018   5.928   6.249   1.555  1.1026 -0.2101  0.1166
  537MOL0     N74019   5.281   5.874   1.466 -0.6369  0.4749  0.5784
  537MOL0     N74020   5.158   5.860   1.451  0.4735 -0.0507 -0.2374
  537MOL0     C74021   4.039   6.491   1.130 -1.3076  0.0225  0.5468
  537MOL0     C74022   3.914   6.489   1.063 -0.1204 -0.6253 -0.8030
  537MOL0     C74023   3.465   6.377   0.987  0.1018 -0.1551 -0.2944
  537MOL0     C74024   3.440   6.508   0.949 -0.3609 -0.0347  0.0710
  537MOL0     C74025   3.306   6.544   0.918  0.1163 -0.0927 -0.0625
  537MOL0     C74026   3.195   6.463   0.929 -0.3797 -0.2012  0.3992
  537MOL0     O74027   3.071   6.518   0.909 -0.1852 -0.3696  0.5724
  537MOL0     C74028   2.955   6.439   0.941 -0.8269  0.1363  0.4051
  537MOL0     C74029   2.898   6.371   0.813 -0.2509  0.3386 -0.4429
  537MOL0     C74030   2.855   6.470   0.702 -0.8719 -0.1118  0.2950
  537MOL0     C74031   2.764   6.418   0.594 -0.5638 -0.0233 -0.6595
  537MOL0     C74032   2.623   6.446   0.621 -0.0441 -0.1250 -0.4406
  537MOL0     C74033   2.505   6.464   0.644 -0.1777  0.4731 -0.9832
  537MOL0     C74034   3.218   6.327   0.967 -0.0763  0.2977 -0.3579
  537MOL0     C74035   3.347   6.284   1.004 -0.1207 -0.1554  0.2577
  537MOL0     C74036   3.359   6.142   1.035  0.5699  0.6932 -0.5129
  537MOL0     H74037   3.745   6.302   1.305  1.6888 -1.5737  1.5110
  537MOL0     H74038   3.938   6.310   1.408 -1.0944  0.5779  0.2220
  537MOL0     H74039   4.347   6.545   1.316  2.1800 -0.8734  0.5588
  537MOL0     H74040   4.294   6.466   1.163 -0.8035 -1.7852 -0.9830
  537MOL0     H74041   4.402   6.325   1.402 -1.8666 -2.0623 -0.4568
  537MOL0     H74042   4.337   6.247   1.251  0.8977 -0.3564 -2.0475
  537MOL0     H74043   4.537   6.345   1.129 -1.2185 -0.3922  0.6067
  537MOL0     H74044   4.586   6.422   1.287 -0.3950  1.1917 -0.8539
  537MOL0     H74045   4.606   6.204   1.392  2.3995  0.0664 -0.0221
  537MOL0     H74046   4.538   6.130   1.240 -0.7881  0.8170 -0.1479
  537MOL0     H74047   4.819   6.269   1.248  4.3655 -2.7194 -0.7261
  537MOL0     H74048   4.759   6.176   1.122  2.0859  2.2829  0.3278
  537MOL0     H74049   4.848   6.086   1.396  0.5613  0.9996 -1.1847
  537MOL0     H74050   4.735   5.982   1.302 -1.7172  0.4355  0.1967
  537MOL0     H74051   5.004   6.067   1.207  1.1748 -0.8350 -1.6525
  537MOL0     H74052   4.872   5.977   1.120  0.3260 -2.5821  0.2792
  537MOL0     H74053   4.916   5.826   1.352  0.7108 -0.0265  0.2742
  537MOL0     H74054   4.989   5.795   1.187 -0.8663  1.4307 -1.4748
  537MOL0     H74055   5.236   5.921   1.147 -0.8721 -1.4509 -0.5642
  537MOL0     H74056   5.497   5.834   1.216 -1.3881  0.3610 -0.6547
  537MOL0     H74057   5.531   5.845   1.387 -1.4572  0.4526  1.6936
  537MOL0     H74058   5.457   6.096   1.218 -1.2766 -1.0448  0.7994
  537MOL0     H74059   5.507   6.079   1.388 -1.1341  0.4620 -0.7385
  537MOL0     H74060   5.725   5.965   1.297 -0.9206 -1.2767 -0.6967
  537MOL0     H74061   5.663   6.006   1.136 -0.0463  2.4606 -0.3513
  537MOL0     H74062   5.829   6.180   1.194  0.2737  0.8415  0.8739
  537MOL0     H74063   5.672   6.261   1.225 -1.1853  1.4592  2.4384
  537MOL0     H74064   5.960   6.038   1.304  0.4157  0.2258 -0.7799
  537MOL0     H74065   6.184   5.899   1.426  3.1270  0.3118  1.6483
  537MOL0     H74066   6.312   6.006   1.388 -0.9940  0.2653  4.2539
  537MOL0     H74067   6.178   5.986   1.267 -1.5891  0.9765 -0.1022
  537MOL0     H74068   6.519   5.882   1.640 -0.0939  0.0641  0.2951
  537MOL0     H74069   6.738   5.867   1.737 -0.6845 -0.7798  0.5379
  537MOL0     H74070   6.998   6.148   1.659  0.6390 -0.4081 -0.2272
  537MOL0     H74071   6.969   6.257   1.803 -1.0207  0.6249 -0.5073
  537MOL0     H74072   7.109   6.131   1.950 -0.8201  1.1906  0.2836
  537MOL0     H74073   7.142   6.019   1.806 -0.7526 -0.0897 -0.0187
  537MOL0     H74074   7.222   6.306   1.827 -1.1545 -0.9283  1.8373
  537MOL0     H74075   7.229   6.204   1.681  1.3911  2.4090  0.3529
  537MOL0     H74076   7.390   6.048   1.785 -0.3233  0.5398 -1.5742
  537MOL0     H74077   7.362   6.135   1.941  0.7402  1.0873  0.7097
  537MOL0     H74078   7.488   6.253   1.691 -0.3657 -0.0040  0.5218
  537MOL0     H74079   7.465   6.331   1.854  0.0691  0.0061  1.3431
  537MOL0     H74080   7.638   6.089   1.779 -1.9248 -0.1124  0.2001
  537MOL0     H74081   7.614   6.160   1.941 -0.5119 -1.2606  0.2378
  537MOL0     H74082   7.707   6.382   1.824 -0.5340  0.6934  0.9235
  537MOL0     H74083   7.720   6.294   1.676  0.7144 -0.3514  0.1617
  537MOL0     H74084   7.900   6.137   1.772 -2.4817 -0.1167 -0.1496
  537MOL0     H74085   7.858   6.220   1.924 -1.4294  1.9075  0.3201
  537MOL0     H74086   6.770   6.291   1.741  0.8870 -1.0106  3.1049
  537MOL0     H74087   6.548   6.306   1.643  2.4821  0.5850 -0.7539
  537MOL0     H74088   6.082   6.330   1.677  1.1322  0.5544 -1.9342
  537MOL0     H74089   5.845   6.301   1.602 -1.9932 -3.8764 -0.7736
  537MOL0     H74090   4.124   6.539   1.083 -2.5188  0.5157 -1.2670
  537MOL0     H74091   3.913   6.549   0.973  3.1255  0.5766 -0.1717
  537MOL0     H74092   3.512   6.589   0.960 -1.8419  1.0956  2.3678
  537MOL0     H74093   3.295   6.648   0.889 -0.8190 -0.4025 -0.8959
  537MOL0     H74094   2.975   6.363   1.016 -0.8244 -1.3473 -1.0383
  537MOL0     H74095   2.887   6.518   0.973 -1.7353 -0.1569 -0.7166
  537MOL0     H74096   2.818   6.308   0.854  0.5753 -1.1362 -1.0170
  537MOL0     H74097   2.983   6.312   0.776  0.7825  1.1732  0.5290
  537MOL0     H74098   2.807   6.556   0.750  0.6341 -0.6052  2.8411
  537MOL0     H74099   2.948   6.508   0.658 -0.1706 -2.9911 -0.9521
  537MOL0     H74100   2.780   6.314   0.562  2.4058  0.4478 -0.9886
  537MOL0     H74101   2.786   6.476   0.504 -0.8535 -2.1748 -2.2086
  537MOL0     H74102   2.406   6.489   0.677  0.2384 -1.7163  2.3554
  537MOL0     H74103   3.145   6.247   0.967  0.7560 -0.4832 -0.5321
  537MOL0     H74104   3.418   6.134   1.127  1.1013  0.7266 -0.8457
  537MOL0     H74105   3.263   6.096   1.059  1.7449 -1.3085  0.6446
  537MOL0     H74106   3.408   6.089   0.953 -2.8671 -0.0482 -2.3042
  538MOL0     O74107  11.161   4.070   2.393  0.4306  0.3688 -0.1666
  538MOL0     C74108  11.085   4.172   2.406 -0.4634  0.3738 -0.3301
  538MOL0     O74109  11.104   4.275   2.506  0.1182 -0.3136  0.0500
  538MOL0     C74110  11.218   4.274   2.582 -0.5161  0.9484 -0.2087
  538MOL0     C74111  11.233   4.176   2.681  1.3953 -1.0724 -0.6343
  538MOL0     C74112  11.343   4.183   2.763  0.8830 -0.0824  1.5331
  538MOL0     C74113  11.442   4.283   2.737 -0.6034 -0.0868 -0.6825
  538MOL0     O74114  11.557   4.259   2.802 -0.1428  0.2308  0.3635
  538MOL0     C74115  11.629   4.368   2.858 -0.9813 -0.2376  0.1451
  538MOL0     C74116  11.776   4.325   2.868  0.2092 -0.1574  0.2458
  538MOL0     C74117  11.889   4.428   2.846  0.1834 -0.2484 -0.2862
  538MOL0     C74118  11.848   4.558   2.922  0.4483  1.4255  0.1786
  538MOL0     C74119  11.962   4.657   2.943 -0.7278 -0.2933  0.5981
  538MOL0     C74120  12.052   4.624   3.065 -0.0651 -0.1747  0.1375
  538MOL0     C74121  12.129   4.746   3.111 -0.3338 -0.0427 -0.2192
  538MOL0     C74122  12.264   4.758   3.045 -0.0564  0.3218 -0.0507
  538MOL0     N74123  12.338   4.867   3.105  0.7013 -0.6097  0.2711
  538MOL0     C74124  12.453   4.845   3.163 -0.7041  0.3612 -0.6015
  538MOL0     C74125  12.486   4.969   3.222  0.0060 -0.0381  0.2925
  538MOL0     C74126  12.592   5.007   3.320  0.1088 -0.6837 -0.6325
  538MOL0     C74127  12.727   5.031   3.258 -1.2560  0.4929  0.7365
  538MOL0     C74128  12.815   5.105   3.343 -0.8627 -1.0171 -0.2733
  538MOL0     C74129  12.961   5.057   3.342  0.0084 -0.2632 -1.3594
  538MOL0     O74130  13.021   5.059   3.216  0.4362 -0.5274  0.0240
  538MOL0     C74131  13.152   5.080   3.222 -0.0238  0.5489  0.9004
  538MOL0     C74132  13.236   5.042   3.328  0.3418 -0.1397  0.3503
  538MOL0     C74133  13.372   5.087   3.334  0.4099  0.0736  0.0648
  538MOL0     C74134  13.447   5.062   3.461 -0.1297 -0.4715  0.4288
  538MOL0     C74135  13.413   5.169   3.227 -0.0080  1.1460 -0.5499
  538MOL0     C74136  13.555   5.217   3.216 -0.9970  0.9443  0.0381
  538MOL0     O74137  13.577   5.318   3.128  0.4637 -0.3031  0.0485
  538MOL0     C74138  13.699   5.361   3.129 -0.4043 -0.2341  0.1354
  538MOL0     C74139  13.772   5.314   3.022 -0.0092  0.5853  0.1231
  538MOL0     C74140  13.903   5.356   3.000  0.5418  1.1944 -0.1718
  538MOL0     C74141  13.960   5.461   3.062  0.2386 -0.5326  0.0034
  538MOL0     O74142  14.088   5.496   3.031 -0.1690 -0.3720  0.0901
  538MOL0     C74143  14.127   5.627   3.075 -1.1559 -0.1950  0.4417
  538MOL0     C74144  14.282   5.634   3.038 -0.4293  0.1395  0.0534
  538MOL0     C74145  14.342   5.749   3.098  0.2420 -0.9894  1.2692
  538MOL0     C74146  14.496   5.753   3.062  0.3824 -0.2338  0.3220
  538MOL0     C74147  14.577   5.870   3.124  0.7954 -0.4939 -0.1711
  538MOL0     C74148  14.722   5.873   3.105  0.1836  0.4045  0.3858
  538MOL0     C74149  14.775   6.014   3.112  0.4760  0.4991 -0.6173
  538MOL0     C74150  14.920   6.019   3.060  0.5559 -0.2004 -0.0170
  538MOL0    Cl74151  15.030   5.931   3.176 -0.4955  0.1895  0.1154
  538MOL0     C74152  13.875   5.527   3.156 -0.7386 -1.1087  0.4743
  538MOL0     C74153  13.749   5.479   3.188  0.3407  0.1881 -0.0141
  538MOL0     O74154  13.644   5.152   3.270 -0.4049 -0.5100 -0.0421
  538MOL0     C74155  13.325   5.205   3.128  0.1858 -0.2367 -0.4919
  538MOL0     C74156  13.202   5.163   3.126  0.2295 -0.4979 -0.0042
  538MOL0     N74157  12.381   5.053   3.188  0.4135 -0.6140  0.2394
  538MOL0     N74158  12.295   4.996   3.120  0.4548 -0.1416  0.3559
  538MOL0     C74159  11.420   4.381   2.644  0.2430  0.9544 -1.0075
  538MOL0     C74160  11.300   4.380   2.566  0.3009 -0.0767 -0.4232
  538MOL0     C74161  10.969   4.182   2.322 -0.2547  0.1547 -0.7925
  538MOL0     C74162  10.874   4.272   2.375  0.3027  0.5376 -0.7266
  538MOL0     C74163  10.752   4.296   2.318 -0.2665 -0.4249  0.1381
  538MOL0     C74164  10.711   4.234   2.201 -0.8273 -0.2360 -0.1143
  538MOL0     O74165  10.585   4.260   2.161 -0.0838 -0.4411  0.7630
  538MOL0     C74166  10.565   4.268   2.022 -0.4144 -0.9760 -0.2764
  538MOL0     C74167  10.410   4.317   2.016  0.6250  0.9807  0.0233
  538MOL0     C74168  10.306   4.216   2.079 -0.0761  0.1011 -0.6055
  538MOL0     C74169  10.155   4.260   2.070 -0.7433  0.5176  0.0057
  538MOL0     C74170  10.061   4.149   2.095  0.5756  0.6484 -1.4919
  538MOL0     C74171   9.983   4.069   2.147 -0.1668  0.2203  0.2929
  538MOL0     C74172  10.809   4.152   2.147 -0.4522  0.2996  0.2656
  538MOL0     C74173  10.930   4.119   2.205  0.6474 -0.1234 -0.1240
  538MOL0     C74174  11.031   4.035   2.132  0.7612 -0.0693 -0.3834
  538MOL0     H74175  11.161   4.095   2.690  1.1061 -0.8365 -0.7762
  538MOL0     H74176  11.365   4.114   2.844  1.1260 -1.7190  0.1157
  538MOL0     H74177  11.588   4.395   2.956 -1.4037  1.5234 -0.4753
  538MOL0     H74178  11.616   4.457   2.796  1.3051  0.0592  0.0113
  538MOL0     H74179  11.783   4.290   2.972  0.4568  2.0555  1.0231
  538MOL0     H74180  11.788   4.244   2.796  1.1383  1.9210 -2.0753
  538MOL0     H74181  11.988   4.390   2.873  0.0251 -2.9368 -2.9334
  538MOL0     H74182  11.902   4.455   2.740 -0.0484  1.0544 -0.0104
  538MOL0     H74183  11.761   4.606   2.876 -1.5580  0.6912  2.9323
  538MOL0     H74184  11.817   4.530   3.023  2.6183 -1.2152  0.2317
  538MOL0     H74185  11.908   4.752   2.953  1.3490  1.1294 -0.9088
  538MOL0     H74186  12.014   4.673   2.848  0.2764 -0.3031  1.1393
  538MOL0     H74187  11.989   4.597   3.150  0.1880  2.4065  1.2348
  538MOL0     H74188  12.123   4.543   3.044  1.1740  1.0954 -0.7800
  538MOL0     H74189  12.139   4.744   3.219  0.4670  0.1764 -0.2818
  538MOL0     H74190  12.070   4.837   3.096 -0.3670  0.9542  4.5805
  538MOL0     H74191  12.319   4.665   3.064  0.4701  0.4207 -1.0350
  538MOL0     H74192  12.250   4.761   2.937  0.2342 -1.8614 -0.1912
  538MOL0     H74193  12.499   4.746   3.165 -2.0891 -0.3525 -1.9970
  538MOL0     H74194  12.601   4.928   3.395  3.1664  0.3443  0.2543
  538MOL0     H74195  12.553   5.094   3.372 -0.3328 -1.3704  0.1934
  538MOL0     H74196  12.770   4.939   3.218 -2.6549 -0.2084  0.7813
  538MOL0     H74197  12.715   5.100   3.175 -0.2960 -1.0615 -0.7618
  538MOL0     H74198  12.816   5.209   3.310  0.4435 -1.6385 -2.3735
  538MOL0     H74199  12.784   5.097   3.448  2.2728  0.1453  0.8513
  538MOL0     H74200  13.012   5.133   3.402 -1.0998 -0.9500  0.5601
  538MOL0     H74201  12.977   4.962   3.395 -2.7991 -1.2558 -2.0966
  538MOL0     H74202  13.202   4.978   3.409 -2.6217  1.2534  0.3628
  538MOL0     H74203  13.491   5.159   3.488 -1.0187 -0.1595  0.7643
  538MOL0     H74204  13.523   4.985   3.443 -0.2602 -0.4753 -0.1258
  538MOL0     H74205  13.396   5.006   3.540  3.0621 -4.1057  0.2434
  538MOL0     H74206  13.724   5.237   2.963 -2.8612 -0.1385  3.0488
  538MOL0     H74207  13.958   5.305   2.921 -0.4648 -0.7593  0.3253
  538MOL0     H74208  14.082   5.707   3.016  1.4690 -0.2607 -1.8536
  538MOL0     H74209  14.125   5.637   3.184  1.2905  0.8605  0.4556
  538MOL0     H74210  14.330   5.546   3.081 -1.8449 -1.0267 -0.6588
  538MOL0     H74211  14.298   5.628   2.930 -0.0429  0.1250  0.1083
  538MOL0     H74212  14.337   5.730   3.206  1.1187 -2.7799  1.0324
  538MOL0     H74213  14.294   5.844   3.074 -1.0031 -1.5960  1.3013
  538MOL0     H74214  14.510   5.754   2.954  0.7073 -0.3536  0.3622
  538MOL0     H74215  14.536   5.656   3.094 -0.4522  0.3843  3.6841
  538MOL0     H74216  14.541   5.963   3.081  1.6418  1.2207  2.5819
  538MOL0     H74217  14.544   5.884   3.227  1.0798  0.8795 -0.2595
  538MOL0     H74218  14.740   5.849   3.000 -2.4439  2.2675 -0.5871
  538MOL0     H74219  14.773   5.794   3.162  0.1511 -0.7650 -1.1218
  538MOL0     H74220  14.777   6.051   3.215  1.3938  1.1357 -0.8574
  538MOL0     H74221  14.717   6.078   3.044  0.6339  0.0467 -1.1843
  538MOL0     H74222  14.954   6.123   3.052 -2.5295  0.8523 -0.6965
  538MOL0     H74223  14.930   5.983   2.957 -4.4074 -2.1797 -0.0467
  538MOL0     H74224  13.905   5.627   3.186  1.1584 -0.6780 -2.3966
  538MOL0     H74225  13.693   5.521   3.271  2.4520  0.2204  1.4774
  538MOL0     H74226  13.347   5.260   3.037  0.8986  1.6645  0.7781
  538MOL0     H74227  13.148   5.204   3.041  2.7268  4.2708  0.3403
  538MOL0     H74228  11.494   4.456   2.621 -1.0130  2.7352  0.4821
  538MOL0     H74229  11.283   4.461   2.496 -0.9831 -0.4808 -0.6043
  538MOL0     H74230  10.892   4.318   2.471 -1.9121  1.3327 -0.6394
  538MOL0     H74231  10.689   4.372   2.365 -1.5260 -0.6756 -1.0870
  538MOL0     H74232  10.626   4.338   1.963  0.6127 -1.8912 -0.3276
  538MOL0     H74233  10.570   4.171   1.972  0.3444 -1.3767  0.5547
  538MOL0     H74234  10.390   4.309   1.908  2.0754 -1.8517 -0.1392
  538MOL0     H74235  10.406   4.418   2.057  3.6747  0.4764  1.8327
  538MOL0     H74236  10.325   4.119   2.033  0.7173 -0.0202 -0.0381
  538MOL0     H74237  10.320   4.207   2.187 -2.5603  0.2143 -0.2112
  538MOL0     H74238  10.141   4.299   1.969 -0.2172  3.5026  0.9670
  538MOL0     H74239  10.125   4.338   2.141 -0.6354 -0.1474  0.7926
  538MOL0     H74240   9.919   4.001   2.200 -1.6181  1.2126 -0.1417
  538MOL0     H74241  10.785   4.099   2.055  2.7161 -1.2549  0.2225
  538MOL0     H74242  11.135   4.066   2.146  0.5177  0.3276  0.6363
  538MOL0     H74243  11.027   3.937   2.180  2.3335  0.3702  0.6950
  538MOL0     H74244  11.003   4.018   2.027 -1.2559  2.4101 -0.3468
  539MOL0     O74245   5.285   6.402   8.405 -0.1920 -0.2161  0.4042
  539MOL0     C74246   5.199   6.464   8.470  0.8859  0.9654 -0.4482
  539MOL0     O74247   5.160   6.439   8.602 -0.4182 -0.1669 -0.4774
  539MOL0     C74248   5.254   6.371   8.682  0.9566 -0.2142  0.0611
  539MOL0     C74249   5.210   6.264   8.760 -0.4829 -0.2211  0.6830
  539MOL0     C74250   5.301   6.192   8.842  0.2664  0.0402  0.3410
  539MOL0     C74251   5.438   6.227   8.855  0.2853 -0.0034 -0.1319
  539MOL0     O74252   5.525   6.154   8.933  0.1784  0.1011 -0.3485
  539MOL0     C74253   5.583   6.043   8.862 -0.4202 -0.1350  0.5958
  539MOL0     C74254   5.664   5.943   8.963 -0.1640 -0.7016  0.4496
  539MOL0     C74255   5.815   5.986   8.968  0.3601  1.0202 -0.4775
  539MOL0     C74256   5.913   5.889   9.057  1.0592 -1.0926  0.6997
  539MOL0     C74257   6.055   5.930   9.079  0.0712  0.2411  0.6047
  539MOL0     C74258   6.140   5.916   8.956 -0.1613 -0.1517  0.4205
  539MOL0     C74259   6.287   5.893   8.999 -0.3764  0.6666  0.9247
  539MOL0     C74260   6.353   6.031   9.009 -0.0049  0.3883 -0.3669
  539MOL0     N74261   6.497   6.009   9.045 -0.1363 -0.8865  0.4104
  539MOL0     C74262   6.599   6.045   8.958 -0.9251  0.2111  0.7626
  539MOL0     C74263   6.708   5.979   9.009  0.4243  0.5576 -0.6972
  539MOL0     C74264   6.846   5.974   8.954  0.5688 -0.6270 -0.1501
  539MOL0     C74265   6.951   6.039   9.051 -0.2807 -0.4932 -0.5832
  539MOL0     C74266   7.028   5.926   9.129  0.2004  0.0847  1.0093
  539MOL0     C74267   7.085   5.972   9.259  0.2096  0.1275  0.2885
  539MOL0     O74268   7.194   6.064   9.238  0.2362 -0.1095 -0.5664
  539MOL0     C74269   7.326   6.024   9.247 -0.1750 -0.3803 -0.0184
  539MOL0     C74270   7.382   5.901   9.268 -0.3020  0.1187 -0.5836
  539MOL0     C74271   7.518   5.872   9.263 -0.2879  0.0469 -0.2233
  539MOL0     C74272   7.558   5.725   9.257  0.0867 -0.6828  0.3000
  539MOL0     C74273   7.614   5.983   9.238  0.2660  0.3657  0.7557
  539MOL0     C74274   7.763   5.968   9.233 -0.0374  0.2816  0.0223
  539MOL0     O74275   7.819   6.088   9.225 -0.0872 -0.7970 -0.2011
  539MOL0     C74276   7.950   6.100   9.259 -0.8806  0.1070  0.1645
  539MOL0     C74277   8.008   6.044   9.377  0.0355 -0.1560 -0.4051
  539MOL0     C74278   8.143   6.046   9.403 -0.3196 -0.2979 -0.0991
  539MOL0     C74279   8.234   6.102   9.311 -0.0309 -0.3545  0.4834
  539MOL0     O74280   8.370   6.103   9.340 -0.2008  0.7668  0.1036
  539MOL0     C74281   8.451   6.192   9.253 -0.6384 -0.0682  0.8974
  539MOL0     C74282   8.605   6.184   9.291 -0.2272  0.6915  0.3785
  539MOL0     C74283   8.651   6.041   9.304 -0.2930  0.5206  0.1758
  539MOL0     C74284   8.801   6.028   9.339  0.0736  0.8117 -0.1842
  539MOL0     C74285   8.846   6.085   9.484  0.1161  0.4060  0.6727
  539MOL0     C74286   8.792   6.014   9.609 -0.1825  0.2194 -0.5944
  539MOL0     C74287   8.861   6.085   9.728 -0.0501  0.0989 -0.5383
  539MOL0     C74288   8.834   6.001   9.852 -0.6396  0.9869  0.2451
  539MOL0    Cl74289   8.926   5.840   9.838  0.0537 -0.6998  0.1618
  539MOL0     C74290   8.176   6.166   9.199  0.1698  0.1931  0.7227
  539MOL0     C74291   8.041   6.157   9.169  0.0543 -0.4274  0.3288
  539MOL0     O74292   7.823   5.858   9.244  0.1329 -0.3909  0.5056
  539MOL0     C74293   7.556   6.109   9.213 -0.0245 -0.3126 -0.9382
  539MOL0     C74294   7.413   6.121   9.215  1.1697 -0.1647 -0.5984
  539MOL0     N74295   6.670   5.935   9.132  0.5094 -0.1808  0.0135
  539MOL0     N74296   6.545   5.938   9.152 -0.5518 -0.0023  0.8244
  539MOL0     C74297   5.483   6.333   8.774  0.3494  0.0216  0.0128
  539MOL0     C74298   5.395   6.398   8.683 -1.0195  0.8163  0.5166
  539MOL0     C74299   5.120   6.570   8.402  0.8921  0.0590  0.0015
  539MOL0     C74300   4.980   6.576   8.429  0.4421 -0.5895  0.7956
  539MOL0     C74301   4.895   6.677   8.375  0.5930 -0.0953 -0.0144
  539MOL0     C74302   4.950   6.772   8.284  0.5348 -0.0360  0.1929
  539MOL0     O74303   4.853   6.847   8.230  0.7873  0.1327  0.3152
  539MOL0     C74304   4.875   6.919   8.109  0.5358 -0.1764  0.6208
  539MOL0     C74305   4.834   6.838   7.982 -0.7221 -0.5286 -0.8841
  539MOL0     C74306   4.718   6.909   7.914  0.3109  0.3451  0.3712
  539MOL0     C74307   4.745   7.043   7.863  0.0147 -0.1970  0.3962
  539MOL0     C74308   4.621   7.099   7.799 -0.2975 -0.3744  0.2878
  539MOL0     C74309   4.513   7.138   7.767  0.8275  0.0033 -0.1547
  539MOL0     C74310   5.086   6.769   8.254 -1.2495 -0.2361  0.2476
  539MOL0     C74311   5.170   6.669   8.315  0.2262 -0.7046 -0.3200
  539MOL0     C74312   5.326   6.670   8.280  0.5731 -0.9586  0.1135
  539MOL0     H74313   5.107   6.236   8.741 -0.1693  0.0772 -1.8529
  539MOL0     H74314   5.256   6.122   8.911  1.0611  1.0584  1.9703
  539MOL0     H74315   5.655   6.073   8.785  2.1917 -3.3249  1.5970
  539MOL0     H74316   5.505   5.982   8.815 -0.1429  1.6295 -2.4354
  539MOL0     H74317   5.635   5.956   9.068  3.2252 -0.5284  1.4936
  539MOL0     H74318   5.666   5.836   8.939  1.5748 -0.8707  1.1971
  539MOL0     H74319   5.867   6.000   8.873 -0.2905  0.9962 -0.8438
  539MOL0     H74320   5.807   6.083   9.018 -3.5142  1.5484 -1.7888
  539MOL0     H74321   5.862   5.886   9.154 -2.3126  5.7171 -0.2350
  539MOL0     H74322   5.911   5.791   9.008  0.3568 -0.7772  0.0705
  539MOL0     H74323   6.088   5.863   9.159  1.4696 -1.2395 -1.1036
  539MOL0     H74324   6.065   6.036   9.105  0.8149  1.3780 -3.5169
  539MOL0     H74325   6.109   5.825   8.905  1.6070  0.6788 -2.3499
  539MOL0     H74326   6.122   5.999   8.887 -0.9449  0.6460  1.5454
  539MOL0     H74327   6.335   5.842   8.915 -2.4347 -0.0398  0.1229
  539MOL0     H74328   6.293   5.837   9.093  0.4352  1.9869  1.7016
  539MOL0     H74329   6.336   6.081   8.914 -4.2440  0.6670  0.3371
  539MOL0     H74330   6.305   6.085   9.092  0.4582 -0.1012  0.2355
  539MOL0     H74331   6.587   6.090   8.860 -1.3170 -0.9102  0.2723
  539MOL0     H74332   6.858   6.031   8.862  2.8816  1.4250  1.2885
  539MOL0     H74333   6.864   5.871   8.922 -0.3468 -0.9016  0.1998
  539MOL0     H74334   7.028   6.098   9.000 -0.4980 -1.5126 -2.1543
  539MOL0     H74335   6.898   6.106   9.119 -1.6805 -0.0355 -2.0680
  539MOL0     H74336   6.950   5.855   9.160  2.1867 -2.9434 -0.4093
  539MOL0     H74337   7.099   5.867   9.070  0.7815  1.0581  0.7163
  539MOL0     H74338   7.010   6.028   9.316  0.0166  0.0913  0.0704
  539MOL0     H74339   7.120   5.886   9.316  0.1333 -1.1941 -1.5960
  539MOL0     H74340   7.315   5.820   9.294 -1.9992  2.0632  1.4960
  539MOL0     H74341   7.636   5.709   9.182  0.0413 -1.1169  0.3411
  539MOL0     H74342   7.479   5.657   9.224  1.2361 -1.5650 -0.7645
  539MOL0     H74343   7.592   5.701   9.358  0.7737 -0.2803  0.1735
  539MOL0     H74344   7.953   5.994   9.455  3.3244 -0.2132  2.1079
  539MOL0     H74345   8.184   6.011   9.497 -1.4004 -0.5798  0.2871
  539MOL0     H74346   8.444   6.153   9.152  3.8665  0.1604  0.3003
  539MOL0     H74347   8.419   6.297   9.261 -1.3719 -0.3579  2.1388
  539MOL0     H74348   8.660   6.242   9.217 -0.9199 -0.6558 -1.2575
  539MOL0     H74349   8.616   6.244   9.381  0.2248  1.3520 -0.1127
  539MOL0     H74350   8.626   5.994   9.208 -0.0526  0.5180  0.1138
  539MOL0     H74351   8.593   5.992   9.383 -0.1940  1.8465  1.0959
  539MOL0     H74352   8.857   6.086   9.265 -2.2354  0.5320 -2.2541
  539MOL0     H74353   8.835   5.925   9.325 -1.4554 -0.0091  1.6408
  539MOL0     H74354   8.955   6.094   9.480  0.1864 -0.4878  0.4304
  539MOL0     H74355   8.808   6.188   9.481  0.1968  0.4142 -0.6117
  539MOL0     H74356   8.828   5.911   9.605 -1.9862 -0.7353  3.1741
  539MOL0     H74357   8.684   6.024   9.623 -0.0703 -0.3971  0.9164
  539MOL0     H74358   8.801   6.176   9.737  0.1692  0.0410  3.2908
  539MOL0     H74359   8.967   6.102   9.710  0.1460  1.2554  1.4207
  539MOL0     H74360   8.730   5.974   9.869 -0.4915  0.6217  0.5859
  539MOL0     H74361   8.864   6.053   9.944 -4.7936  2.3809  1.0137
  539MOL0     H74362   8.232   6.223   9.125  1.2379 -0.7600  0.7572
  539MOL0     H74363   8.005   6.193   9.073  0.4216 -3.6691 -1.1804
  539MOL0     H74364   7.618   6.192   9.182  1.3153 -1.6819 -2.1204
  539MOL0     H74365   7.369   6.215   9.183 -0.2466 -1.0339 -1.3086
  539MOL0     H74366   5.586   6.367   8.778  0.8619 -1.5406  0.8122
  539MOL0     H74367   5.437   6.472   8.616 -0.6669  1.1986  1.1458
  539MOL0     H74368   4.942   6.506   8.503 -1.0162 -0.0705  0.5594
  539MOL0     H74369   4.789   6.670   8.397  0.8453 -0.0878  1.2890
  539MOL0     H74370   4.817   7.009   8.126  2.0504  0.5295  2.3945
  539MOL0     H74371   4.980   6.950   8.100  0.3526  0.5591  0.9423
  539MOL0     H74372   4.819   6.732   8.007  3.3936 -0.9091  0.7645
  539MOL0     H74373   4.917   6.843   7.910 -1.0431  2.8414 -1.1680
  539MOL0     H74374   4.686   6.845   7.831  0.2239  2.2619 -1.1500
  539MOL0     H74375   4.632   6.913   7.982  2.0352  0.9611  2.6203
  539MOL0     H74376   4.828   7.029   7.792  0.6947 -0.2173  1.1845
  539MOL0     H74377   4.772   7.110   7.945  0.1563  0.0388  0.1585
  539MOL0     H74378   4.415   7.174   7.748  0.6375 -1.3250 -1.9324
  539MOL0     H74379   5.132   6.844   8.190 -0.7825  1.6051  2.6208
  539MOL0     H74380   5.338   6.749   8.206 -0.0377 -0.1130  0.8925
  539MOL0     H74381   5.386   6.694   8.368 -1.6630  4.1667  0.6170
  539MOL0     H74382   5.359   6.579   8.229 -1.9759 -1.6222 -0.4967
  540MOL0     O74383   9.393   0.967   7.591 -0.2261  0.2131 -0.0971
  540MOL0     C74384   9.380   1.067   7.663 -0.5599  0.9202  0.0470
  540MOL0     O74385   9.491   1.133   7.703  0.3193 -0.0210  0.4510
  540MOL0     C74386   9.615   1.085   7.696  0.6159 -0.2556 -0.4650
  540MOL0     C74387   9.672   1.039   7.575  1.3768 -0.8261  0.0043
  540MOL0     C74388   9.805   0.978   7.581  0.3898  0.2628  1.1494
  540MOL0     C74389   9.879   0.994   7.702  0.2414 -0.0730  0.1151
  540MOL0     O74390  10.005   0.940   7.702  0.0150 -0.0826  0.2397
  540MOL0     C74391  10.086   0.967   7.820 -0.5389  0.3211  0.9589
  540MOL0     C74392  10.242   0.946   7.789  0.4078  0.3961 -0.1278
  540MOL0     C74393  10.323   1.011   7.905  0.3489 -0.3131  0.0478
  540MOL0     C74394  10.476   1.003   7.901  0.5636  0.6181  0.1369
  540MOL0     C74395  10.542   1.071   8.019 -0.5305 -0.0545  0.0511
  540MOL0     C74396  10.690   1.072   7.994 -1.0349  0.1760  0.4279
  540MOL0     C74397  10.758   1.094   8.126  0.6056 -0.1834  0.0564
  540MOL0     C74398  10.905   1.084   8.107 -0.0476 -0.5241  0.4224
  540MOL0     N74399  10.981   1.142   8.215  0.4402  0.0793  0.4017
  540MOL0     C74400  10.942   1.135   8.346  0.6378 -0.8583  0.5404
  540MOL0     C74401  11.051   1.168   8.416  0.5574  0.2445 -0.0366
  540MOL0     C74402  11.047   1.168   8.568 -1.3130 -0.1566  0.5170
  540MOL0     C74403  11.112   1.294   8.618  0.3661 -0.2057 -1.1907
  540MOL0     C74404  11.149   1.289   8.776 -0.2811  0.7436 -0.4851
  540MOL0     C74405  11.225   1.414   8.819 -0.5081 -0.3405  0.5960
  540MOL0     O74406  11.357   1.433   8.764 -0.0783 -0.6905 -0.2631
  540MOL0     C74407  11.442   1.526   8.818  0.0318  0.1961  0.4400
  540MOL0     C74408  11.410   1.618   8.909 -0.1951 -0.9313  0.3312
  540MOL0     C74409  11.510   1.700   8.972  0.7054 -0.5237 -0.4614
  540MOL0     C74410  11.477   1.779   9.092  0.6131 -0.1065 -0.1683
  540MOL0     C74411  11.648   1.693   8.934 -0.2067  0.2729  0.5637
  540MOL0     C74412  11.768   1.754   9.001 -0.9350 -0.3932 -0.3218
  540MOL0     O74413  11.892   1.692   8.980  0.8293 -0.0774  0.1954
  540MOL0     C74414  12.007   1.728   9.028  0.3417  0.6333 -0.5732
  540MOL0     C74415  12.126   1.696   8.963 -0.1378  1.3206  0.3849
  540MOL0     C74416  12.247   1.735   9.019 -0.4487 -0.4166  0.6129
  540MOL0     C74417  12.252   1.794   9.145  0.0647 -0.3650  0.2026
  540MOL0     O74418  12.367   1.833   9.207 -0.0405 -0.1855 -0.3211
  540MOL0     C74419  12.490   1.848   9.132  0.2493 -0.1943 -0.6958
  540MOL0     C74420  12.598   1.906   9.230  1.1120  0.4817 -0.4115
  540MOL0     C74421  12.744   1.863   9.192  0.2136 -0.1428  0.1023
  540MOL0     C74422  12.851   1.881   9.300 -0.4023 -0.0917  0.4881
  540MOL0     C74423  12.968   1.797   9.246 -0.5165  0.2496 -0.4535
  540MOL0     C74424  13.100   1.814   9.336 -0.1255 -0.2549 -0.0154
  540MOL0     C74425  13.163   1.949   9.340  0.0352 -0.5577  0.4777
  540MOL0     C74426  13.208   1.995   9.206 -0.3909 -0.2964  0.4845
  540MOL0    Cl74427  13.252   2.170   9.237 -0.1479  0.2847  0.0623
  540MOL0     C74428  12.139   1.821   9.214 -0.9003 -0.1275  0.8628
  540MOL0     C74429  12.021   1.791   9.153  0.0979 -0.5461 -0.3388
  540MOL0     O74430  11.750   1.859   9.062 -0.1718 -0.4661  0.5601
  540MOL0     C74431  11.672   1.604   8.827  0.2173 -0.1441  0.4826
  540MOL0     C74432  11.574   1.523   8.769  0.5299  0.5489  0.2356
  540MOL0     N74433  11.158   1.193   8.326 -0.1917 -0.3619  0.3223
  540MOL0     N74434  11.109   1.178   8.206 -0.2261 -0.1974  0.3782
  540MOL0     C74435   9.818   1.052   7.817 -0.5134 -0.1392 -0.1083
  540MOL0     C74436   9.693   1.106   7.812  0.3192 -0.2577  0.6676
  540MOL0     C74437   9.239   1.120   7.685 -0.3559 -0.1706  0.0965
  540MOL0     C74438   9.144   1.038   7.753  0.4289 -0.3373  0.3183
  540MOL0     C74439   9.016   1.087   7.777  0.2622 -1.0394 -0.0497
  540MOL0     C74440   8.979   1.212   7.733  0.3497 -0.5107 -0.0647
  540MOL0     O74441   8.842   1.241   7.742  0.2033 -0.5822 -0.0833
  540MOL0     C74442   8.810   1.382   7.758 -0.4846  0.1094  0.3084
  540MOL0     C74443   8.655   1.379   7.787  0.0610  0.9893  0.1059
  540MOL0     C74444   8.594   1.506   7.772  0.1560 -0.2319  0.6221
  540MOL0     C74445   8.445   1.515   7.795  0.2559  0.6448  0.0698
  540MOL0     C74446   8.373   1.629   7.737 -0.5003 -0.2129  0.5183
  540MOL0     C74447   8.322   1.728   7.688 -1.1898  0.3866 -0.6923
  540MOL0     C74448   9.069   1.294   7.664 -0.0395 -0.5925  0.3292
  540MOL0     C74449   9.198   1.246   7.646 -0.9502 -0.9143  0.4440
  540MOL0     C74450   9.294   1.340   7.576  0.5669 -1.5702  0.3129
  540MOL0     H74451   9.609   1.031   7.487  0.5167 -0.1792  0.5566
  540MOL0     H74452   9.861   0.915   7.512  0.4109  0.3991  1.0429
  540MOL0     H74453  10.055   0.914   7.910  0.4593 -1.6518  0.1919
  540MOL0     H74454  10.084   1.073   7.846  0.2777  0.5160  0.2828
  540MOL0     H74455  10.259   0.838   7.784  0.8788  0.3770  1.4151
  540MOL0     H74456  10.256   0.987   7.689 -0.4023 -2.8194 -1.6877
  540MOL0     H74457  10.285   1.113   7.905  1.8814  0.2993  0.4453
  540MOL0     H74458  10.300   0.967   8.002 -1.0419  1.7785  0.7330
  540MOL0     H74459  10.520   0.904   7.884  0.3090  0.6979 -1.1354
  540MOL0     H74460  10.510   1.058   7.812 -1.9385  1.9904 -0.0597
  540MOL0     H74461  10.520   1.018   8.112 -0.0795 -2.7095 -1.2548
  540MOL0     H74462  10.502   1.173   8.027  0.0890  0.0995  1.7121
  540MOL0     H74463  10.721   0.978   7.947  0.5888  0.3991  0.9945
  540MOL0     H74464  10.723   1.153   7.929  0.0101  0.5354  1.3751
  540MOL0     H74465  10.727   1.025   8.205 -0.6910  1.1908  0.7944
  540MOL0     H74466  10.737   1.200   8.147 -2.5139 -0.7644  0.2653
  540MOL0     H74467  10.930   0.980   8.081 -1.3872 -1.5578  2.8761
  540MOL0     H74468  10.924   1.141   8.016 -0.2651 -1.3520 -0.1575
  540MOL0     H74469  10.849   1.104   8.392  0.0494  1.5342  1.0879
  540MOL0     H74470  11.098   1.080   8.607 -0.7779 -0.4088 -0.7081
  540MOL0     H74471  10.941   1.173   8.596 -1.8872  0.8115 -1.5977
  540MOL0     H74472  11.206   1.320   8.568  0.4301  3.5824  0.4946
  540MOL0     H74473  11.053   1.382   8.591 -0.2450 -0.9671 -2.3766
  540MOL0     H74474  11.052   1.289   8.827  0.8195 -1.2075  1.8089
  540MOL0     H74475  11.216   1.210   8.809 -0.6915  0.1011 -1.1752
  540MOL0     H74476  11.170   1.502   8.784  0.7026 -0.6329 -2.3034
  540MOL0     H74477  11.223   1.416   8.928 -0.5570 -1.6560  0.6425
  540MOL0     H74478  11.307   1.622   8.941 -0.4709 -0.1539 -0.6177
  540MOL0     H74479  11.369   1.765   9.109  0.5796 -1.2631 -1.1969
  540MOL0     H74480  11.499   1.886   9.079  0.5310  0.3468  2.7814
  540MOL0     H74481  11.533   1.744   9.179 -0.3886  2.3988  1.6018
  540MOL0     H74482  12.122   1.628   8.879 -0.6938  2.1541 -0.2894
  540MOL0     H74483  12.329   1.707   8.954 -1.0598 -0.9047  0.0344
  540MOL0     H74484  12.524   1.746   9.109  1.4268  0.3680 -1.5135
  540MOL0     H74485  12.473   1.916   9.048  3.2680  0.0775 -1.1988
  540MOL0     H74486  12.598   2.014   9.248  0.5326  0.4528 -0.1916
  540MOL0     H74487  12.590   1.857   9.328  2.3658 -0.3780 -0.7210
  540MOL0     H74488  12.775   1.913   9.100 -1.6117  0.9163  0.0260
  540MOL0     H74489  12.730   1.759   9.160 -0.9642  0.4178 -1.3092
  540MOL0     H74490  12.810   1.848   9.396 -2.4595  0.6124 -0.0894
  540MOL0     H74491  12.879   1.984   9.327  0.7906 -0.1225 -0.5491
  540MOL0     H74492  12.941   1.691   9.252 -0.1482  0.2291  1.8695
  540MOL0     H74493  12.982   1.825   9.142 -1.0522  1.3599 -0.2513
  540MOL0     H74494  13.175   1.735   9.326  0.1357  0.0490 -0.5263
  540MOL0     H74495  13.072   1.793   9.439  1.6710 -0.5292  0.4523
  540MOL0     H74496  13.244   1.956   9.414  2.0547 -1.3944 -1.5197
  540MOL0     H74497  13.092   2.024   9.374  0.2724 -0.5487  0.9585
  540MOL0     H74498  13.131   1.999   9.129  1.1386  0.2258 -1.0973
  540MOL0     H74499  13.296   1.946   9.162 -1.5478 -0.8889 -1.2983
  540MOL0     H74500  12.149   1.870   9.311 -1.0748  1.6679  0.0194
  540MOL0     H74501  11.931   1.817   9.207  0.7592  1.8099 -0.2430
  540MOL0     H74502  11.773   1.598   8.788 -0.2040 -0.3758 -0.6093
  540MOL0     H74503  11.593   1.452   8.689  2.1375  2.1132 -0.8398
  540MOL0     H74504   9.873   1.073   7.908  0.4694 -1.3710 -0.3770
  540MOL0     H74505   9.659   1.154   7.903  2.3648  1.0706  0.7949
  540MOL0     H74506   9.167   0.935   7.779  1.8651 -0.4868 -1.3892
  540MOL0     H74507   8.933   1.023   7.807 -1.6466 -0.2975 -3.3410
  540MOL0     H74508   8.874   1.425   7.835  1.5259 -0.6532 -0.8585
  540MOL0     H74509   8.823   1.436   7.663  0.7499 -3.8998 -2.0318
  540MOL0     H74510   8.651   1.358   7.894  3.9750  1.0379  0.4250
  540MOL0     H74511   8.595   1.300   7.742 -1.6740  2.0152  0.5234
  540MOL0     H74512   8.634   1.577   7.845  1.8606 -2.1025  1.6068
  540MOL0     H74513   8.617   1.544   7.672  1.8611 -0.8039  0.7563
  540MOL0     H74514   8.431   1.512   7.903  1.3232 -0.1472  0.2058
  540MOL0     H74515   8.406   1.418   7.763  0.0146  0.8449 -0.2508
  540MOL0     H74516   8.287   1.817   7.639  0.9293  0.6486 -1.8412
  540MOL0     H74517   9.038   1.383   7.612  2.5180 -0.1028 -0.4907
  540MOL0     H74518   9.320   1.427   7.639  0.5333 -1.0553 -0.3755
  540MOL0     H74519   9.389   1.308   7.532  1.3303  2.1787 -1.1984
  540MOL0     H74520   9.234   1.379   7.494 -0.0572 -0.8655  1.0761
  541MOL0     O74521   5.853   2.079   6.109  0.1784  1.1871  0.8665
  541MOL0     C74522   5.825   2.183   6.166 -0.0096 -0.0184 -0.7512
  541MOL0     O74523   5.923   2.277   6.211 -0.6652  0.0600 -1.0412
  541MOL0     C74524   6.049   2.279   6.150  0.0251 -0.8490 -0.5101
  541MOL0     C74525   6.091   2.387   6.066  0.4980 -0.1997  0.3698
  541MOL0     C74526   6.226   2.393   6.020  0.1051 -0.3532  0.8655
  541MOL0     C74527   6.317   2.286   6.055  0.2678  0.0924 -0.0860
  541MOL0     O74528   6.449   2.301   6.017 -0.6720 -0.1163 -0.6397
  541MOL0     C74529   6.547   2.244   6.106 -0.5590  0.2079 -0.5226
  541MOL0     C74530   6.669   2.326   6.113 -0.7361  0.5943 -0.2634
  541MOL0     C74531   6.744   2.332   5.975 -0.3874  0.3540  0.5602
  541MOL0     C74532   6.853   2.437   5.984  0.0278  0.3599  0.1363
  541MOL0     C74533   6.978   2.398   6.069 -0.2282  0.3737  0.4747
  541MOL0     C74534   7.090   2.503   6.064 -0.1749  0.2135 -0.2537
  541MOL0     C74535   7.141   2.540   5.924 -0.5549  1.1213 -0.2909
  541MOL0     C74536   7.238   2.658   5.928 -0.6133 -0.1850  0.1324
  541MOL0     N74537   7.312   2.653   5.803 -0.1158 -0.8164  0.2450
  541MOL0     C74538   7.379   2.548   5.741 -0.0080  0.5999 -0.5103
  541MOL0     C74539   7.438   2.606   5.636 -0.7831 -0.4419  1.0412
  541MOL0     C74540   7.525   2.533   5.539 -0.3705 -0.4106 -0.3451
  541MOL0     C74541   7.675   2.562   5.579  0.2601  0.6224 -0.1479
  541MOL0     C74542   7.752   2.503   5.455  0.9451  0.6831 -0.5829
  541MOL0     C74543   7.902   2.507   5.462 -0.1319  0.0611 -0.2039
  541MOL0     O74544   7.951   2.467   5.597  0.1655  0.1664  0.6609
  541MOL0     C74545   8.081   2.466   5.638  0.7950 -0.2259 -1.0526
  541MOL0     C74546   8.103   2.429   5.772  0.2899  0.0981 -0.2725
  541MOL0     C74547   8.224   2.442   5.834 -0.1306  0.0149 -0.8819
  541MOL0     C74548   8.219   2.391   5.980 -0.5508 -0.2602  0.3578
  541MOL0     C74549   8.334   2.497   5.761 -0.5962  0.1662 -0.5781
  541MOL0     C74550   8.468   2.539   5.814 -0.1452  0.3448 -0.3405
  541MOL0     O74551   8.530   2.643   5.753  0.0497 -0.2026 -0.8510
  541MOL0     C74552   8.644   2.699   5.820 -0.4796  0.2491 -0.3940
  541MOL0     C74553   8.632   2.814   5.881  0.5043  0.3053 -0.3047
  541MOL0     C74554   8.737   2.873   5.952  0.8338  0.8204 -0.4064
  541MOL0     C74555   8.866   2.814   5.958  1.1526 -0.7964 -0.2129
  541MOL0     O74556   8.979   2.865   6.025 -0.5427 -0.7905 -0.1510
  541MOL0     C74557   8.965   2.959   6.136  0.3981  0.0636  0.0028
  541MOL0     C74558   9.086   3.027   6.189 -0.0394  0.3602  0.1834
  541MOL0     C74559   9.043   3.117   6.309 -0.2798  0.0466 -0.0081
  541MOL0     C74560   9.159   3.180   6.366 -0.0995 -0.4484 -0.2265
  541MOL0     C74561   9.123   3.294   6.458  0.6945  0.8193 -0.1353
  541MOL0     C74562   9.253   3.344   6.516 -0.3085  0.4495  0.0143
  541MOL0     C74563   9.235   3.485   6.568  1.4226  0.9468 -0.0175
  541MOL0     C74564   9.372   3.549   6.575 -0.3945 -0.2774  0.0574
  541MOL0    Cl74565   9.447   3.577   6.414  0.2509 -0.0703  0.0613
  541MOL0     C74566   8.884   2.706   5.878 -0.5014  0.4453 -0.1001
  541MOL0     C74567   8.772   2.640   5.812 -0.7601 -0.8965  0.0520
  541MOL0     O74568   8.502   2.487   5.919 -0.5644  0.4779  0.7418
  541MOL0     C74569   8.309   2.528   5.629 -1.0034 -0.6716 -0.0093
  541MOL0     C74570   8.187   2.519   5.569 -0.5594 -0.2847  0.1320
  541MOL0     N74571   7.404   2.742   5.637 -0.6045  0.4365  0.3461
  541MOL0     N74572   7.332   2.770   5.734 -0.1911  0.0130 -0.2245
  541MOL0     C74573   6.268   2.179   6.133  0.2166 -0.2899  0.9582
  541MOL0     C74574   6.134   2.174   6.176  1.0450 -0.2036 -0.0498
  541MOL0     C74575   5.690   2.222   6.200 -0.0022  0.8827  1.0437
  541MOL0     C74576   5.677   2.331   6.304  0.6304  0.1438  0.3466
  541MOL0     C74577   5.552   2.376   6.349 -0.0984  0.7330  0.2919
  541MOL0     C74578   5.436   2.326   6.287  0.6004  0.2246 -0.7884
  541MOL0     O74579   5.310   2.364   6.307  0.1780  0.4500 -0.6352
  541MOL0     C74580   5.278   2.460   6.411  0.1931 -0.4232 -0.6851
  541MOL0     C74581   5.155   2.532   6.376  0.6287 -0.1953  1.0269
  541MOL0     C74582   5.106   2.621   6.489 -0.6122  0.0148 -0.2205
  541MOL0     C74583   4.978   2.696   6.455 -0.4742 -0.0618 -0.4382
  541MOL0     C74584   4.996   2.797   6.345  0.1029 -0.3163  0.6317
  541MOL0     C74585   5.008   2.866   6.245  0.7113 -0.2560  0.0981
  541MOL0     C74586   5.453   2.227   6.186  0.1070 -0.3202  0.1710
  541MOL0     C74587   5.575   2.169   6.149 -0.3079  0.2766 -0.1503
  541MOL0     C74588   5.560   2.051   6.045 -0.2003  0.2757 -0.2934
  541MOL0     H74589   6.026   2.471   6.046  0.2243 -0.4225  0.3206
  541MOL0     H74590   6.267   2.474   5.961  0.8019 -1.7099 -0.6098
  541MOL0     H74591   6.571   2.142   6.075  0.5037 -0.4716  2.3001
  541MOL0     H74592   6.516   2.232   6.210  0.1729  0.8663 -0.2200
  541MOL0     H74593   6.641   2.429   6.137  0.8400  1.0066 -0.0459
  541MOL0     H74594   6.740   2.284   6.185 -0.7469 -2.3004 -1.8135
  541MOL0     H74595   6.794   2.240   5.945  1.2780  1.1375  0.8167
  541MOL0     H74596   6.670   2.362   5.901 -0.4693 -2.0245 -0.4044
  541MOL0     H74597   6.893   2.453   5.884 -1.0420 -2.1728 -0.7690
  541MOL0     H74598   6.806   2.530   6.018 -1.0314 -0.3146  0.5922
  541MOL0     H74599   7.012   2.300   6.033 -1.1720  0.9503 -2.2639
  541MOL0     H74600   6.939   2.384   6.170  0.7611  0.7743  0.9227
  541MOL0     H74601   7.066   2.591   6.124 -0.9117 -0.9878  1.3073
  541MOL0     H74602   7.168   2.454   6.123  0.3734  3.3422  1.8752
  541MOL0     H74603   7.062   2.567   5.854  2.1443  2.2591 -3.1371
  541MOL0     H74604   7.194   2.454   5.881 -1.1559  0.1956  0.7463
  541MOL0     H74605   7.190   2.755   5.939  3.0631  1.8969 -0.4342
  541MOL0     H74606   7.309   2.650   6.011 -1.7994  0.7059  1.2647
  541MOL0     H74607   7.372   2.443   5.766 -2.2832  0.8685  0.2245
  541MOL0     H74608   7.510   2.555   5.433  3.3150 -0.0705 -0.9230
  541MOL0     H74609   7.509   2.426   5.550  0.6081 -0.4912  0.4562
  541MOL0     H74610   7.686   2.670   5.591 -0.6399  0.5407  1.8077
  541MOL0     H74611   7.701   2.524   5.678  0.9733  3.6278  0.9322
  541MOL0     H74612   7.719   2.401   5.436 -0.4628  0.9070  0.4894
  541MOL0     H74613   7.726   2.564   5.367  2.9625 -1.2070 -2.6429
  541MOL0     H74614   7.951   2.429   5.402 -1.1328 -0.4474 -0.3754
  541MOL0     H74615   7.949   2.601   5.431  0.5430  0.6171  2.2945
  541MOL0     H74616   8.013   2.386   5.816 -1.2592  1.9069 -1.4784
  541MOL0     H74617   8.124   2.342   6.005 -1.3317  0.4099 -1.1580
  541MOL0     H74618   8.247   2.469   6.050 -1.5059  0.4867 -0.0692
  541MOL0     H74619   8.286   2.305   5.991 -0.5936 -0.4129 -0.4919
  541MOL0     H74620   8.537   2.866   5.885 -0.4304 -1.3164 -0.5460
  541MOL0     H74621   8.721   2.968   6.002  1.0757  2.6203 -3.4653
  541MOL0     H74622   8.883   3.031   6.125 -0.9467 -1.0264  2.0593
  541MOL0     H74623   8.931   2.896   6.219 -0.1288 -1.7030 -1.4836
  541MOL0     H74624   9.155   2.951   6.229 -1.6311 -0.7940  0.8600
  541MOL0     H74625   9.131   3.074   6.101 -1.8449  0.7315 -0.5826
  541MOL0     H74626   8.987   3.062   6.385 -2.5527  1.3185 -0.6677
  541MOL0     H74627   8.974   3.193   6.270 -0.6051 -0.4628 -0.4379
  541MOL0     H74628   9.214   3.234   6.289  0.6318 -0.2643  0.4074
  541MOL0     H74629   9.223   3.107   6.416 -1.3363  0.0343  2.2490
  541MOL0     H74630   9.066   3.366   6.399 -2.3367  1.3811  3.1364
  541MOL0     H74631   9.062   3.265   6.544  1.3190  0.9598  0.3672
  541MOL0     H74632   9.333   3.359   6.442 -0.4202 -1.9954 -0.6767
  541MOL0     H74633   9.292   3.280   6.595  0.5216  0.4800 -0.3640
  541MOL0     H74634   9.187   3.476   6.666  2.7225 -0.2986  0.5472
  541MOL0     H74635   9.155   3.543   6.521  1.6639  1.7515  0.5338
  541MOL0     H74636   9.435   3.488   6.640  1.7598  1.0703 -0.6513
  541MOL0     H74637   9.357   3.651   6.611  0.7062  0.4335 -1.3513
  541MOL0     H74638   8.987   2.673   5.863 -0.0711  1.4546  0.5519
  541MOL0     H74639   8.790   2.560   5.741 -1.9506  0.3132 -1.6910
  541MOL0     H74640   8.384   2.579   5.569 -1.3782  0.5967  0.5669
  541MOL0     H74641   8.180   2.537   5.462  0.6541  1.0332  0.2411
  541MOL0     H74642   6.337   2.101   6.164  1.1170  0.6003  1.2321
  541MOL0     H74643   6.107   2.097   6.248 -0.1656  2.9097  3.1277
  541MOL0     H74644   5.769   2.375   6.342  1.3068  0.6144 -1.6570
  541MOL0     H74645   5.554   2.440   6.436  3.0687 -1.7112  2.2245
  541MOL0     H74646   5.265   2.406   6.505 -0.3523  0.6155 -0.1521
  541MOL0     H74647   5.360   2.531   6.426 -0.7769  0.3946  0.9363
  541MOL0     H74648   5.074   2.459   6.359 -0.9346  1.2953  1.7816
  541MOL0     H74649   5.173   2.587   6.283  3.7995  0.5381  1.9567
  541MOL0     H74650   5.091   2.554   6.574  2.1182 -0.8682 -0.3400
  541MOL0     H74651   5.174   2.692   6.537 -1.7784  0.9247  0.1569
  541MOL0     H74652   4.934   2.741   6.544  1.0729  1.2034 -0.2697
  541MOL0     H74653   4.899   2.628   6.423 -0.7299 -0.2747  0.6365
  541MOL0     H74654   4.997   2.916   6.151 -5.2511 -4.0665 -1.7894
  541MOL0     H74655   5.365   2.179   6.145 -0.4998 -0.3289  1.4657
  541MOL0     H74656   5.600   1.961   6.092  1.3568  2.0675  2.0414
  541MOL0     H74657   5.453   2.035   6.026 -0.2317  0.7035 -0.4718
  541MOL0     H74658   5.621   2.055   5.955  1.5828 -1.1234  0.7674
  542MOL0     O74659   8.711   0.302   6.140 -0.5052 -0.5259  0.7018
  542MOL0     C74660   8.765   0.414   6.138  0.0311  0.2608 -0.5349
  542MOL0     O74661   8.899   0.438   6.165  0.0676 -0.2060 -0.0965
  542MOL0     C74662   8.991   0.345   6.197  0.5553  0.4079 -0.5256
  542MOL0     C74663   9.108   0.405   6.244 -0.4796  0.2767 -0.4719
  542MOL0     C74664   9.213   0.316   6.291 -0.1840 -0.0541  0.1038
  542MOL0     C74665   9.200   0.179   6.307 -0.4780 -0.7561  0.5305
  542MOL0     O74666   9.306   0.103   6.349  0.3192  0.2660  0.3652
  542MOL0     C74667   9.257   0.007   6.453  0.1500  0.1396  0.5148
  542MOL0     C74668   9.382  -0.063   6.518 -0.2746 -0.1480  0.5118
  542MOL0     C74669   9.475   0.041   6.574  0.3426 -0.5704  0.8077
  542MOL0     C74670   9.594  -0.010   6.655 -0.0523 -0.9485  0.1991
  542MOL0     C74671   9.681   0.107   6.692 -0.2889 -0.4850 -1.4999
  542MOL0     C74672   9.805   0.067   6.768  0.0964  0.0448 -0.2642
  542MOL0     C74673   9.888   0.184   6.829  1.0966 -0.6230  1.0101
  542MOL0     C74674  10.021   0.134   6.879  0.1163 -0.6158  0.1314
  542MOL0     N74675  10.112   0.253   6.899  0.4159  0.1712 -0.2539
  542MOL0     C74676  10.209   0.292   6.809 -0.8988 -0.0241 -0.3251
  542MOL0     C74677  10.261   0.409   6.868 -0.9804 -0.2713  0.0588
  542MOL0     C74678  10.382   0.488   6.818  0.0165  0.1173  0.2626
  542MOL0     C74679  10.508   0.447   6.893  0.2887  0.5934 -0.1301
  542MOL0     C74680  10.549   0.532   7.020  1.0273 -0.2607 -0.2354
  542MOL0     C74681  10.668   0.476   7.090 -0.6695  0.1597 -0.1658
  542MOL0     O74682  10.789   0.519   7.032 -0.2234  0.0188 -0.0102
  542MOL0     C74683  10.898   0.431   7.020 -0.4338  1.0957 -0.3289
  542MOL0     C74684  11.007   0.500   6.975 -1.9888  0.6172  0.7273
  542MOL0     C74685  11.127   0.435   6.948  0.4613 -0.6848 -0.2226
  542MOL0     C74686  11.248   0.520   6.913  0.3252 -1.2044  0.3708
  542MOL0     C74687  11.128   0.291   6.955  0.4024 -0.5619 -0.0764
  542MOL0     C74688  11.253   0.213   6.924 -0.0743  0.4600 -0.4674
  542MOL0     O74689  11.329   0.188   7.030 -0.2683 -0.1728 -0.4451
  542MOL0     C74690  11.397   0.075   7.044  0.7033  0.4746 -0.1114
  542MOL0     C74691  11.393  -0.033   6.950  0.7640 -0.0371 -0.0833
  542MOL0     C74692  11.464  -0.153   6.970  0.4258 -0.5232 -0.3951
  542MOL0     C74693  11.540  -0.163   7.087 -0.9977  0.2069 -0.3716
  542MOL0     O74694  11.613  -0.279   7.099 -0.1530  0.0947  0.6570
  542MOL0     C74695  11.632  -0.345   7.226 -0.5522 -0.9468  0.0003
  542MOL0     C74696  11.779  -0.391   7.239 -0.1549 -0.6663  0.0924
  542MOL0     C74697  11.886  -0.276   7.256 -0.0812 -0.4592 -0.6291
  542MOL0     C74698  12.028  -0.341   7.250  0.1289 -0.3752  0.8022
  542MOL0     C74699  12.131  -0.240   7.209 -0.0157  0.5420  0.0782
  542MOL0     C74700  12.197  -0.174   7.333  0.2688  0.0879  0.2194
  542MOL0     C74701  12.308  -0.269   7.389  0.1787  0.0326 -0.5016
  542MOL0     C74702  12.425  -0.257   7.304  0.0533  0.5397  0.4303
  542MOL0    Cl74703  12.570  -0.289   7.409  0.2642  0.1056 -0.0583
  542MOL0     C74704  11.551  -0.055   7.176  0.3858 -0.0892 -0.1449
  542MOL0     C74705  11.466   0.056   7.160 -0.1300 -0.2635  0.1204
  542MOL0     O74706  11.293   0.213   6.807  0.0299 -0.3264 -0.1402
  542MOL0     C74707  11.017   0.222   7.017 -0.6625 -0.1089  0.2700
  542MOL0     C74708  10.901   0.293   7.043  0.2830 -0.2258 -1.2562
  542MOL0     N74709  10.189   0.435   6.982 -0.1830  0.4668  0.1598
  542MOL0     N74710  10.099   0.346   6.994 -0.1855  0.3290 -0.0153
  542MOL0     C74711   9.080   0.125   6.259  0.3540 -0.3190 -0.1990
  542MOL0     C74712   8.979   0.204   6.199  0.6196 -0.1920  0.5683
  542MOL0     C74713   8.669   0.530   6.137  0.3442  0.6267  0.3952
  542MOL0     C74714   8.689   0.629   6.234 -0.0365  0.4827 -0.2216
  542MOL0     C74715   8.607   0.731   6.247  0.2299 -0.8338  0.7729
  542MOL0     C74716   8.480   0.742   6.169 -1.1051 -0.1661 -0.2823
  542MOL0     O74717   8.393   0.842   6.191 -0.0775 -0.0359  0.0571
  542MOL0     C74718   8.447   0.973   6.223  0.0523  0.1812 -0.8277
  542MOL0     C74719   8.352   1.082   6.167 -0.0902 -0.3795  0.9006
  542MOL0     C74720   8.206   1.064   6.216  0.1990  1.0816  0.3075
  542MOL0     C74721   8.110   1.160   6.155 -0.3047 -0.1339 -0.5081
  542MOL0     C74722   7.972   1.140   6.204 -0.2431  0.0489 -0.5742
  542MOL0     C74723   7.864   1.103   6.234 -0.4713  0.3750 -0.3480
  542MOL0     C74724   8.456   0.640   6.069 -0.1229 -1.5106  0.3076
  542MOL0     C74725   8.555   0.542   6.056 -0.4335 -0.5471 -0.4602
  542MOL0     C74726   8.518   0.443   5.953  0.5546  0.5319 -0.2456
  542MOL0     H74727   9.109   0.513   6.247 -1.6925  0.3439 -1.8123
  542MOL0     H74728   9.302   0.369   6.326  1.4058 -1.9972 -0.8236
  542MOL0     H74729   9.191  -0.069   6.410 -0.8869  0.9217  0.6879
  542MOL0     H74730   9.199   0.059   6.529  1.9210  1.7490  0.8392
  542MOL0     H74731   9.341  -0.118   6.602 -1.6041 -2.9980 -1.8105
  542MOL0     H74732   9.435  -0.127   6.447  2.0011  1.5748  0.5117
  542MOL0     H74733   9.504   0.090   6.481 -3.0214 -1.3958 -0.8318
  542MOL0     H74734   9.422   0.116   6.634  0.8816  1.4823 -1.1728
  542MOL0     H74735   9.569  -0.057   6.750  1.6181  1.3107  1.8673
  542MOL0     H74736   9.648  -0.083   6.594  1.4498  0.3823 -0.1331
  542MOL0     H74737   9.627   0.168   6.765  1.2701 -0.5977 -0.1730
  542MOL0     H74738   9.709   0.172   6.609 -1.2323  0.7585 -0.8674
  542MOL0     H74739   9.780  -0.004   6.847  0.4911 -0.8327 -0.9153
  542MOL0     H74740   9.862   0.022   6.687  1.0573 -0.4198  0.6545
  542MOL0     H74741   9.834   0.223   6.916  0.0547 -1.1246  0.6179
  542MOL0     H74742   9.909   0.255   6.748 -0.4043 -0.1385  1.0056
  542MOL0     H74743   9.998   0.083   6.972 -1.6262 -0.1575 -0.0114
  542MOL0     H74744  10.065   0.067   6.805  2.6508  0.2828  0.7129
  542MOL0     H74745  10.238   0.248   6.715  2.4362  3.3753 -1.1155
  542MOL0     H74746  10.371   0.595   6.838 -2.0253 -0.3110  1.8156
  542MOL0     H74747  10.403   0.470   6.712  1.9093 -1.1336  0.8120
  542MOL0     H74748  10.487   0.348   6.934 -1.3327  0.3320 -1.4786
  542MOL0     H74749  10.597   0.437   6.831  0.6563  0.4683  0.4106
  542MOL0     H74750  10.565   0.639   7.004  3.4193 -0.2917  1.3629
  542MOL0     H74751  10.465   0.533   7.090  0.4484 -5.5534 -0.4516
  542MOL0     H74752  10.678   0.503   7.196  0.8308 -3.4936  0.7983
  542MOL0     H74753  10.652   0.367   7.097 -2.2194  0.3790  0.2403
  542MOL0     H74754  11.004   0.607   6.954 -1.9584  0.8026  1.6517
  542MOL0     H74755  11.317   0.534   6.997 -1.4040  1.7357  1.4215
  542MOL0     H74756  11.217   0.619   6.879  1.9966 -0.1233  1.8298
  542MOL0     H74757  11.300   0.479   6.826 -0.5449  0.2289 -0.8762
  542MOL0     H74758  11.332  -0.027   6.860  1.9815 -2.7510 -1.2005
  542MOL0     H74759  11.468  -0.225   6.888 -0.3058 -1.1945  0.1437
  542MOL0     H74760  11.607  -0.282   7.312 -1.2132 -1.2792  0.0577
  542MOL0     H74761  11.566  -0.432   7.226 -0.6827 -1.1265 -4.9155
  542MOL0     H74762  11.780  -0.463   7.321 -1.5990  0.8686  1.5293
  542MOL0     H74763  11.796  -0.438   7.142  1.1123 -0.5740  0.2508
  542MOL0     H74764  11.877  -0.226   7.352 -3.3177  0.3627 -1.2132
  542MOL0     H74765  11.868  -0.195   7.185  1.3338  1.3370  0.9906
  542MOL0     H74766  12.034  -0.417   7.171  1.5325 -0.0766  0.6072
  542MOL0     H74767  12.042  -0.385   7.350  2.4886  1.0409  1.1454
  542MOL0     H74768  12.199  -0.283   7.135 -0.9563  0.5082 -0.7993
  542MOL0     H74769  12.089  -0.155   7.154  3.6554  2.4757  0.0046
  542MOL0     H74770  12.128  -0.145   7.412  2.7742  0.7539  2.3191
  542MOL0     H74771  12.234  -0.078   7.295 -0.4328  0.0017 -0.7140
  542MOL0     H74772  12.270  -0.371   7.397  1.9348 -0.7310 -1.2332
  542MOL0     H74773  12.333  -0.236   7.491  0.7217  1.2974 -1.0242
  542MOL0     H74774  12.443  -0.157   7.264  1.8370 -1.1309 -3.5157
  542MOL0     H74775  12.416  -0.319   7.214 -1.7514  0.4403  0.6555
  542MOL0     H74776  11.623  -0.056   7.257  0.3905  1.6997 -0.0946
  542MOL0     H74777  11.478   0.132   7.236  0.1853 -0.5785  0.3898
  542MOL0     H74778  11.023   0.114   7.015 -0.1324 -0.1469 -3.9520
  542MOL0     H74779  10.809   0.244   7.076 -0.7664  2.3861 -0.0282
  542MOL0     H74780   9.058   0.019   6.263  2.3897 -0.8198 -1.0969
  542MOL0     H74781   8.900   0.145   6.153 -0.5997  0.2509  2.0325
  542MOL0     H74782   8.776   0.607   6.296  0.1468  0.4240 -0.4997
  542MOL0     H74783   8.623   0.804   6.326  1.0071  0.2182 -0.3231
  542MOL0     H74784   8.453   0.987   6.332 -2.4687 -2.4211 -0.2124
  542MOL0     H74785   8.548   0.990   6.186  0.2172 -0.4392 -0.6780
  542MOL0     H74786   8.356   1.085   6.058 -1.4088  0.2867  0.8541
  542MOL0     H74787   8.376   1.181   6.207  2.1404  0.2081 -1.6104
  542MOL0     H74788   8.166   0.965   6.192  1.1435  0.7563  0.0323
  542MOL0     H74789   8.210   1.091   6.322 -2.9688  2.1863  0.2602
  542MOL0     H74790   8.112   1.162   6.045 -0.4930  1.7075 -0.5054
  542MOL0     H74791   8.149   1.254   6.195  0.9562 -1.1196  0.6457
  542MOL0     H74792   7.766   1.071   6.265  0.7927 -1.4082  2.2180
  542MOL0     H74793   8.371   0.647   6.002 -0.6762  0.2208  1.1322
  542MOL0     H74794   8.513   0.499   5.859  0.1901  1.3730  0.2603
  542MOL0     H74795   8.593   0.365   5.940  1.5678  1.2248  1.1482
  542MOL0     H74796   8.424   0.392   5.976  1.3425  0.3222  3.0341
  543MOL0     O74797   5.600   1.637   3.207  0.1480 -0.0458 -0.2579
  543MOL0     C74798   5.515   1.665   3.119 -0.0833 -0.5848 -0.0449
  543MOL0     O74799   5.536   1.737   3.006 -1.2879  0.6241 -0.1794
  543MOL0     C74800   5.670   1.745   2.966  0.4341 -0.0800 -0.2965
  543MOL0     C74801   5.724   1.640   2.889 -0.4862  0.0425  0.2944
  543MOL0     C74802   5.855   1.656   2.850  0.1833  0.8786  0.5878
  543MOL0     C74803   5.925   1.778   2.883 -0.1378  0.7028  0.2509
  543MOL0     O74804   6.052   1.808   2.851 -0.0680  0.0133  0.1467
  543MOL0     C74805   6.120   1.751   2.743  0.0218  0.8224 -0.6787
  543MOL0     C74806   6.229   1.845   2.682 -0.5803 -0.8193 -0.0723
  543MOL0     C74807   6.354   1.863   2.763 -0.0335 -0.5446  0.6370
  543MOL0     C74808   6.463   1.749   2.744  0.2181  0.1858  0.1431
  543MOL0     C74809   6.587   1.787   2.829  1.1093 -0.2888  0.5998
  543MOL0     C74810   6.718   1.730   2.788  0.2696  0.7882  0.1958
  543MOL0     C74811   6.834   1.791   2.869 -0.2608 -1.2377 -0.4426
  543MOL0     C74812   6.977   1.724   2.838  0.8391  1.6494 -0.8595
  543MOL0     N74813   6.966   1.571   2.829  0.0553  1.0804 -0.1792
  543MOL0     C74814   6.905   1.488   2.916  0.2163  0.3514  0.3651
  543MOL0     C74815   6.888   1.371   2.861 -1.2073  0.6556  0.3549
  543MOL0     C74816   6.841   1.242   2.924 -0.2881 -0.1870  1.0131
  543MOL0     C74817   6.688   1.227   2.913 -0.6163 -0.1894  0.4588
  543MOL0     C74818   6.641   1.094   2.985  0.0453 -0.6193 -0.6398
  543MOL0     C74819   6.488   1.074   3.003 -0.0970  0.5353 -0.8253
  543MOL0     O74820   6.443   0.935   3.004  0.1585  0.3131  0.5000
  543MOL0     C74821   6.434   0.860   3.114 -0.2137  0.4943  0.9455
  543MOL0     C74822   6.498   0.882   3.235 -0.4452 -0.4136 -0.5537
  543MOL0     C74823   6.494   0.801   3.342  0.1594 -0.0603  0.0801
  543MOL0     C74824   6.563   0.839   3.468  0.5962  0.6852 -0.1912
  543MOL0     C74825   6.410   0.683   3.334  0.0529 -0.3845 -0.4828
  543MOL0     C74826   6.379   0.599   3.453 -0.1626  0.0989  0.6886
  543MOL0     O74827   6.350   0.471   3.427 -0.4342 -0.2369  0.6734
  543MOL0     C74828   6.337   0.382   3.530 -0.2321 -0.6305  0.3478
  543MOL0     C74829   6.408   0.390   3.648  0.6012  0.2930 -0.5300
  543MOL0     C74830   6.400   0.279   3.737 -0.6563 -0.8195 -0.3846
  543MOL0     C74831   6.342   0.163   3.702  0.5402 -0.2114  0.1894
  543MOL0     O74832   6.365   0.051   3.772 -0.0486 -0.0417  0.0419
  543MOL0     C74833   6.358   0.049   3.913  0.1198 -0.2879 -1.2457
  543MOL0     C74834   6.447  -0.064   3.987  0.5515 -0.1757  0.1473
  543MOL0     C74835   6.596  -0.051   3.953  1.0895  0.4045 -0.5561
  543MOL0     C74836   6.675  -0.125   4.064 -0.2887 -0.2040 -0.9752
  543MOL0     C74837   6.819  -0.080   4.059 -0.4342  0.6508  0.0104
  543MOL0     C74838   6.903  -0.157   4.164 -0.4537 -0.1223 -0.0963
  543MOL0     C74839   6.989  -0.069   4.262  0.0857  0.8201  0.1075
  543MOL0     C74840   7.043  -0.164   4.373  1.0795 -1.2495 -0.0347
  543MOL0    Cl74841   7.143  -0.073   4.488  0.1877 -0.5888  0.0349
  543MOL0     C74842   6.261   0.170   3.591 -0.0084 -0.2353  0.7593
  543MOL0     C74843   6.255   0.276   3.500  0.6069  0.3087 -0.3767
  543MOL0     O74844   6.360   0.657   3.562  0.1312  0.6988 -0.0013
  543MOL0     C74845   6.351   0.656   3.206  0.9743  0.0976 -0.4266
  543MOL0     C74846   6.353   0.746   3.103  0.1755 -0.2800 -0.5727
  543MOL0     N74847   6.944   1.371   2.727 -0.2841  0.0406 -0.0178
  543MOL0     N74848   6.994   1.492   2.717 -0.2374  0.0245 -0.0635
  543MOL0     C74849   5.866   1.874   2.960  0.1158 -1.1970  0.6670
  543MOL0     C74850   5.734   1.858   3.004 -0.4536 -0.7534 -0.2418
  543MOL0     C74851   5.378   1.624   3.148 -0.1400  0.1405 -0.4335
  543MOL0     C74852   5.360   1.492   3.197  0.0012  0.2786  0.2362
  543MOL0     C74853   5.238   1.431   3.211  0.1699 -0.4019  0.2790
  543MOL0     C74854   5.123   1.502   3.186  0.0909  0.0370 -0.6635
  543MOL0     O74855   4.993   1.465   3.214 -0.5772 -0.1923  0.7167
  543MOL0     C74856   4.953   1.330   3.227 -0.7308 -0.0706  0.0423
  543MOL0     C74857   4.969   1.295   3.373 -0.1318  0.6053 -0.1130
  543MOL0     C74858   4.896   1.168   3.408 -0.4816  0.6321 -0.2104
  543MOL0     C74859   4.934   1.026   3.351  0.3453  0.0695  0.8367
  543MOL0     C74860   5.076   0.993   3.369 -0.1840  0.3623 -0.7882
  543MOL0     C74861   5.198   0.968   3.375  0.3426 -0.4111 -0.4015
  543MOL0     C74862   5.131   1.626   3.119 -0.0090  0.2760 -0.3345
  543MOL0     C74863   5.254   1.697   3.112 -0.1758 -0.3896 -0.1530
  543MOL0     C74864   5.260   1.834   3.054 -0.3526 -0.1689  0.3287
  543MOL0     H74865   5.674   1.552   2.850  0.0673 -0.0582 -0.2070
  543MOL0     H74866   5.907   1.578   2.796 -2.6164 -1.4151  1.0063
  543MOL0     H74867   6.047   1.730   2.664  0.1938 -0.0784 -0.6044
  543MOL0     H74868   6.167   1.654   2.761 -1.6472 -0.0009 -0.5735
  543MOL0     H74869   6.257   1.795   2.589 -1.4394  1.1567 -1.4582
  543MOL0     H74870   6.189   1.944   2.655 -0.4785  0.0973  2.7426
  543MOL0     H74871   6.393   1.961   2.736 -0.6389 -0.9725 -2.0748
  543MOL0     H74872   6.323   1.866   2.868 -0.8613 -0.1398  0.3857
  543MOL0     H74873   6.422   1.653   2.777  2.1090 -0.9562 -0.6574
  543MOL0     H74874   6.491   1.764   2.639  0.6127  3.9012  0.6250
  543MOL0     H74875   6.559   1.738   2.923  1.3731  0.0639  0.8620
  543MOL0     H74876   6.596   1.896   2.836 -0.1095  0.1234 -2.6433
  543MOL0     H74877   6.713   1.621   2.801 -2.1298  1.0234  1.8331
  543MOL0     H74878   6.743   1.748   2.683  3.6063 -1.5012  0.4170
  543MOL0     H74879   6.818   1.784   2.977  2.2140 -1.1117 -0.0179
  543MOL0     H74880   6.837   1.897   2.841 -1.1253 -0.6162  1.6283
  543MOL0     H74881   7.017   1.757   2.742 -0.1063  2.7707 -0.8789
  543MOL0     H74882   7.050   1.753   2.915  1.9024 -0.0980 -1.1535
  543MOL0     H74883   6.888   1.509   3.021 -1.2541  2.1164 -0.1673
  543MOL0     H74884   6.883   1.232   3.024  0.7581  2.2456  0.8926
  543MOL0     H74885   6.878   1.155   2.869  0.0301  0.4358  0.2230
  543MOL0     H74886   6.636   1.317   2.948  1.1161  0.6848  0.8899
  543MOL0     H74887   6.660   1.205   2.810  1.7693  0.1941 -0.3182
  543MOL0     H74888   6.678   1.009   2.928  1.6025 -0.4744  0.0977
  543MOL0     H74889   6.695   1.092   3.080 -0.3276  1.3430 -0.3474
  543MOL0     H74890   6.456   1.117   3.098 -0.5078  1.4674 -1.3651
  543MOL0     H74891   6.434   1.122   2.921 -0.1829 -1.4851 -2.0246
  543MOL0     H74892   6.559   0.972   3.238  1.4224 -1.5195 -2.5679
  543MOL0     H74893   6.630   0.756   3.489  2.0317  1.2162 -2.3455
  543MOL0     H74894   6.496   0.856   3.553 -1.5845 -1.1292 -1.4452
  543MOL0     H74895   6.629   0.926   3.459  1.3449  0.0475 -0.9678
  543MOL0     H74896   6.471   0.472   3.680 -0.0629  0.1795  1.1930
  543MOL0     H74897   6.450   0.291   3.833 -0.4846  1.3393 -0.6994
  543MOL0     H74898   6.408   0.136   3.956  1.0482 -1.4055  0.0376
  543MOL0     H74899   6.255   0.041   3.948  0.5228 -3.3136 -0.4737
  543MOL0     H74900   6.438  -0.048   4.095  4.2330  0.8920  0.4153
  543MOL0     H74901   6.412  -0.165   3.962 -1.8751  0.3689  0.9899
  543MOL0     H74902   6.617   0.057   3.948 -2.3556  1.1502 -1.9684
  543MOL0     H74903   6.616  -0.102   3.859 -0.0806 -4.1741  1.4230
  543MOL0     H74904   6.660  -0.231   4.040 -4.4414  0.8747 -4.3781
  543MOL0     H74905   6.644  -0.109   4.167  0.9585  1.9538 -0.8715
  543MOL0     H74906   6.851  -0.085   3.955  0.5036  3.9113  0.0625
  543MOL0     H74907   6.832   0.022   4.097  2.0072 -0.3482  2.2083
  543MOL0     H74908   6.975  -0.214   4.104 -2.0524 -1.2406 -1.0387
  543MOL0     H74909   6.841  -0.230   4.216  1.8437 -0.8332  1.8226
  543MOL0     H74910   6.934   0.018   4.299 -1.8153  0.4723 -1.7625
  543MOL0     H74911   7.074  -0.039   4.200  1.8405 -2.0289  0.9495
  543MOL0     H74912   7.102  -0.243   4.325 -0.3425 -1.4801 -1.4911
  543MOL0     H74913   6.964  -0.201   4.440  0.7149  1.7386  1.3427
  543MOL0     H74914   6.203   0.086   3.554  0.2413  0.5456 -1.5984
  543MOL0     H74915   6.203   0.263   3.405  0.0801 -1.8735  0.1528
  543MOL0     H74916   6.281   0.573   3.200 -2.0612  2.3853  0.2929
  543MOL0     H74917   6.301   0.735   3.008  0.7283  0.8166 -1.0146
  543MOL0     H74918   5.929   1.959   2.986 -0.3861  0.3123 -2.5187
  543MOL0     H74919   5.685   1.943   3.051 -0.1238 -1.1890  0.9335
  543MOL0     H74920   5.440   1.427   3.231  0.5802  0.8532  0.0081
  543MOL0     H74921   5.243   1.333   3.257  5.2305 -0.2317  0.6364
  543MOL0     H74922   4.849   1.325   3.196  0.0759  0.0489 -2.9815
  543MOL0     H74923   5.010   1.268   3.158 -0.1948 -0.0895  0.4841
  543MOL0     H74924   4.939   1.378   3.437  1.5676  0.9361  0.2927
  543MOL0     H74925   5.077   1.280   3.386  0.2652  2.1954 -1.2673
  543MOL0     H74926   4.914   1.157   3.516  1.9063 -3.4834 -0.8261
  543MOL0     H74927   4.792   1.179   3.379 -1.9717 -4.0610  2.3811
  543MOL0     H74928   4.898   1.032   3.248 -3.2875  1.9342  2.0736
  543MOL0     H74929   4.875   0.948   3.400  2.6244 -0.6254  2.6635
  543MOL0     H74930   5.304   0.959   3.384  0.6189  0.9593 -1.8495
  543MOL0     H74931   5.041   1.684   3.102  0.7446  0.9705 -2.1969
  543MOL0     H74932   5.186   1.892   3.110  2.8438 -0.2865  5.2408
  543MOL0     H74933   5.347   1.888   3.091 -1.1946  1.0947  0.5283
  543MOL0     H74934   5.254   1.834   2.945 -1.0948  1.6507  0.3226
  544MOL0     O74935   8.526   3.006  11.055 -0.3732  0.9128  0.2687
  544MOL0     C74936   8.481   3.104  10.989 -0.4514  0.8616 -0.0717
  544MOL0     O74937   8.559   3.209  10.947  0.4130  0.4119  0.0113
  544MOL0     C74938   8.691   3.198  10.982 -0.0065 -0.6112 -0.3380
  544MOL0     C74939   8.777   3.115  10.909 -0.7633 -0.4427 -0.0082
  544MOL0     C74940   8.919   3.117  10.938  0.1365  0.3891  0.2036
  544MOL0     C74941   8.974   3.191  11.046  0.6471  0.6353 -0.4756
  544MOL0     O74942   9.106   3.187  11.086  0.6392 -0.3393  0.0886
  544MOL0     C74943   9.213   3.160  10.989  0.9037 -0.2203 -0.5693
  544MOL0     C74944   9.341   3.173  11.066  0.0904  1.1515  0.2484
  544MOL0     C74945   9.447   3.228  10.969 -0.2089 -0.8162  0.1393
  544MOL0     C74946   9.567   3.282  11.048 -0.3787  1.3909  0.5918
  544MOL0     C74947   9.698   3.287  10.967 -0.3420  0.4226  0.6729
  544MOL0     C74948   9.809   3.356  11.045  0.0518 -0.1517 -0.6359
  544MOL0     C74949   9.931   3.385  10.952  0.3615 -0.2752  0.0902
  544MOL0     C74950  10.038   3.459  11.028 -1.0882 -0.3191  0.5858
  544MOL0     N74951  10.155   3.471  10.933  0.5000  0.2013 -0.1400
  544MOL0     C74952  10.176   3.581  10.849  0.2491 -0.2499 -0.5823
  544MOL0     C74953  10.285   3.551  10.778  0.4972  0.2884 -0.0343
  544MOL0     C74954  10.331   3.650  10.673 -0.5369  0.3980  0.8909
  544MOL0     C74955  10.469   3.706  10.700  0.6459  0.0774 -0.4684
  544MOL0     C74956  10.517   3.794  10.589 -0.0588 -0.2244 -0.1262
  544MOL0     C74957  10.643   3.874  10.636  0.4192 -0.2866 -0.9940
  544MOL0     O74958  10.708   3.928  10.517 -0.4199 -0.0307 -0.9252
  544MOL0     C74959  10.841   3.914  10.490 -0.2682  0.7070 -0.3205
  544MOL0     C74960  10.903   4.003  10.402  0.0761  0.4381  0.7500
  544MOL0     C74961  11.037   3.985  10.358 -0.5665 -0.3115 -0.2119
  544MOL0     C74962  11.091   4.080  10.258  1.2742  0.3978 -0.1523
  544MOL0     C74963  11.114   3.875  10.403  0.2750  1.1135  0.6281
  544MOL0     C74964  11.261   3.849  10.371  0.1030  0.1362  0.1559
  544MOL0     O74965  11.319   3.729  10.411  0.1256 -0.1736  0.3470
  544MOL0     C74966  11.452   3.714  10.382 -0.0014 -0.5119  0.4424
  544MOL0     C74967  11.498   3.653  10.271  0.6558 -0.7633  0.2401
  544MOL0     C74968  11.637   3.632  10.258  0.4256  0.6998  0.1702
  544MOL0     C74969  11.726   3.695  10.359 -0.1226  0.8777  0.8426
  544MOL0     O74970  11.857   3.679  10.329  0.1974 -0.0891  0.6661
  544MOL0     C74971  11.956   3.765  10.394  0.8066  0.0550  0.3468
  544MOL0     C74972  12.094   3.733  10.324  0.5056 -0.4037 -0.6299
  544MOL0     C74973  12.200   3.807  10.408  0.3314  0.1118  0.4262
  544MOL0     C74974  12.340   3.769  10.353 -0.1535  0.7023  0.7301
  544MOL0     C74975  12.444   3.848  10.427  0.2439  0.2797  0.0096
  544MOL0     C74976  12.587   3.808  10.375  0.3338  0.0847 -0.0496
  544MOL0     C74977  12.683   3.929  10.361 -0.2380  0.9107 -0.3254
  544MOL0     C74978  12.721   3.989  10.498 -0.0589  0.4341 -0.4002
  544MOL0    Cl74979  12.812   3.876  10.606  0.1021 -0.0119  0.3763
  544MOL0     C74980  11.674   3.760  10.470 -0.1489  0.3369  0.3847
  544MOL0     C74981  11.538   3.776  10.483 -0.0441  0.4617  0.0948
  544MOL0     O74982  11.327   3.942  10.324  0.7164  0.2660 -0.1664
  544MOL0     C74983  11.045   3.785  10.481 -0.3343  0.0564  0.2785
  544MOL0     C74984  10.913   3.800  10.522  0.0126 -0.3749  0.4635
  544MOL0     N74985  10.337   3.426  10.814 -0.4405  0.5737 -0.9501
  544MOL0     N74986  10.258   3.383  10.914 -0.9566  0.4268  0.7823
  544MOL0     C74987   8.875   3.273  11.118  0.3934 -0.4780  0.7576
  544MOL0     C74988   8.743   3.273  11.087  1.0990  0.3460  0.4667
  544MOL0     C74989   8.329   3.109  10.975 -0.5215 -0.7514  0.8667
  544MOL0     C74990   8.268   3.236  10.956 -0.8135  0.0405 -0.4212
  544MOL0     C74991   8.130   3.243  10.957  0.8822 -0.0497 -0.3404
  544MOL0     C74992   8.049   3.138  10.969 -0.9586 -0.1466  0.3229
  544MOL0     O74993   7.916   3.166  10.970  0.2578 -0.1595  1.1718
  544MOL0     C74994   7.826   3.062  10.974  1.5038 -0.8520  0.5174
  544MOL0     C74995   7.699   3.122  10.911  0.3280 -0.0539  1.2098
  544MOL0     C74996   7.591   3.014  10.878  0.0732 -0.1714  0.1314
  544MOL0     C74997   7.477   3.079  10.800  0.3095 -0.2379  0.2432
  544MOL0     C74998   7.411   3.182  10.872 -0.2921  0.5464 -0.3041
  544MOL0     C74999   7.368   3.284  10.928 -0.5530 -0.8924 -0.3041
  544MOL0     C75000   8.109   3.014  10.963 -0.2202 -0.1106 -0.8353
  544MOL0     C75001   8.249   3.003  10.966  0.6975  1.2370  0.5683
  544MOL0     C75002   8.310   2.857  10.973  0.7167 -0.6867  0.0661
  544MOL0     H75003   8.740   3.058  10.824  0.3180  2.2020 -2.4227
  544MOL0     H75004   8.979   3.050  10.876 -4.9612 -3.5605 -1.2255
  544MOL0     H75005   9.201   3.240  10.916 -1.5823 -0.8767 -0.9651
  544MOL0     H75006   9.206   3.063  10.939  3.6826 -2.3132  2.6221
  544MOL0     H75007   9.350   3.231  11.158  1.6288  2.3442 -0.6041
  544MOL0     H75008   9.368   3.069  11.082  1.0187  1.2682 -0.4439
  544MOL0     H75009   9.468   3.157  10.888 -1.1865 -1.6660  0.6167
  544MOL0     H75010   9.417   3.319  10.917  0.1272  0.1992  1.6407
  544MOL0     H75011   9.548   3.387  11.075 -1.1382  1.5917 -0.6761
  544MOL0     H75012   9.594   3.221  11.135 -0.4559  1.2700  0.5309
  544MOL0     H75013   9.678   3.342  10.874  0.1308  2.3517  1.6632
  544MOL0     H75014   9.730   3.182  10.955  3.6815  1.6423 -1.4357
  544MOL0     H75015   9.768   3.450  11.082 -2.5821 -0.9907 -1.2642
  544MOL0     H75016   9.838   3.297  11.132  2.0233 -0.1522 -1.2230
  544MOL0     H75017   9.885   3.443  10.871  1.5041  1.1936  0.4693
  544MOL0     H75018   9.970   3.295  10.902  0.4393  0.3508 -1.0094
  544MOL0     H75019  10.019   3.560  11.067 -1.1012  0.2196 -0.7561
  544MOL0     H75020  10.061   3.399  11.116 -2.4466 -1.4210  0.2181
  544MOL0     H75021  10.107   3.663  10.830  1.4831  1.3884  1.5690
  544MOL0     H75022  10.257   3.730  10.660  0.0825  0.6438 -1.6500
  544MOL0     H75023  10.350   3.588  10.586  1.7238 -0.1904  1.7477
  544MOL0     H75024  10.460   3.770  10.789 -1.8701  1.0307 -1.3315
  544MOL0     H75025  10.527   3.616  10.722 -2.4194 -1.6333  1.2858
  544MOL0     H75026  10.534   3.725  10.506 -2.6755 -1.0911 -0.0475
  544MOL0     H75027  10.445   3.867  10.550 -0.0690  0.5942  1.3528
  544MOL0     H75028  10.615   3.955  10.703 -4.9592 -2.8936  0.4084
  544MOL0     H75029  10.696   3.799  10.695 -1.3118  2.0980  4.0777
  544MOL0     H75030  10.850   4.089  10.362  3.4366  2.4147  0.1246
  544MOL0     H75031  11.005   4.132  10.215  0.0755 -0.3095  1.2822
  544MOL0     H75032  11.147   4.031  10.178 -0.4747  1.9864 -2.4911
  544MOL0     H75033  11.150   4.160  10.304  1.4796  0.8248 -1.1302
  544MOL0     H75034  11.433   3.611  10.194  0.5136  1.4896 -0.9677
  544MOL0     H75035  11.675   3.571  10.176 -0.4441 -3.4821  2.6066
  544MOL0     H75036  11.928   3.871  10.393  0.7784  0.0603 -1.2646
  544MOL0     H75037  11.961   3.732  10.498  1.8060 -1.3865 -0.1238
  544MOL0     H75038  12.118   3.626  10.330  1.9080 -0.0610  2.8039
  544MOL0     H75039  12.106   3.779  10.226 -1.2950  3.6964  0.8467
  544MOL0     H75040  12.189   3.765  10.508  2.5283 -1.6148  0.0234
  544MOL0     H75041  12.163   3.910  10.407 -0.6941 -0.2462  0.4979
  544MOL0     H75042  12.360   3.788  10.247  4.4034  1.3088  1.4768
  544MOL0     H75043  12.344   3.660  10.366  0.2230  0.6623  0.2915
  544MOL0     H75044  12.417   3.952  10.409  0.8428  0.6763  1.2844
  544MOL0     H75045  12.438   3.836  10.535  0.7391 -1.0400 -0.0952
  544MOL0     H75046  12.573   3.749  10.284 -0.9017  0.8020 -0.3517
  544MOL0     H75047  12.622   3.734  10.448  0.0747 -2.5256 -2.4176
  544MOL0     H75048  12.629   4.007  10.307 -2.8212 -1.3372 -1.2480
  544MOL0     H75049  12.771   3.892  10.308 -1.4177  0.5650 -2.1309
  544MOL0     H75050  12.631   4.022  10.550  1.1102  3.9827 -0.4188
  544MOL0     H75051  12.788   4.075  10.490  0.5599 -0.0923 -1.0668
  544MOL0     H75052  11.738   3.795  10.550 -0.8533 -0.7576  1.4540
  544MOL0     H75053  11.497   3.824  10.572 -0.5243  2.1136 -0.9696
  544MOL0     H75054  11.089   3.688  10.503 -3.7758 -1.8621 -0.6532
  544MOL0     H75055  10.872   3.711  10.568  1.2840 -2.1762 -1.7074
  544MOL0     H75056   8.894   3.338  11.203 -1.5247  0.3885  0.5846
  544MOL0     H75057   8.667   3.319  11.151 -3.0534 -3.7071 -0.9857
  544MOL0     H75058   8.326   3.327  10.956 -1.3739  0.4180  0.5477
  544MOL0     H75059   8.072   3.334  10.962 -1.9836 -1.7111 -1.0937
  544MOL0     H75060   7.845   2.972  10.915 -1.4708 -1.0911 -0.2716
  544MOL0     H75061   7.799   3.030  11.074 -1.8120  1.0980  0.4186
  544MOL0     H75062   7.727   3.176  10.819  2.7309 -3.0598 -0.0143
  544MOL0     H75063   7.662   3.199  10.979  1.3778  1.3701  0.2234
  544MOL0     H75064   7.621   2.926  10.819 -1.3115  0.5051 -1.6719
  544MOL0     H75065   7.556   2.967  10.970  0.1376 -3.5181 -1.4084
  544MOL0     H75066   7.405   3.005  10.763  1.4015 -1.8570  1.2515
  544MOL0     H75067   7.514   3.116  10.704 -0.2251 -0.9928 -0.2650
  544MOL0     H75068   7.329   3.375  10.970 -2.4129 -1.1982 -1.2568
  544MOL0     H75069   8.055   2.921  10.976  1.6695 -1.4132 -1.7334
  544MOL0     H75070   8.342   2.827  11.073 -0.8762 -3.7488 -0.2073
  544MOL0     H75071   8.229   2.787  10.948 -1.4491  1.7415 -0.0758
  544MOL0     H75072   8.387   2.849  10.896  1.3854  2.4273  0.3109
  545MOL0     O75073   9.945   0.041   3.474  0.1444  0.0761 -0.0294
  545MOL0     C75074   9.886   0.098   3.380 -0.5052  0.1423  0.0863
  545MOL0     O75075   9.939   0.209   3.309  0.4002 -0.1613 -0.3444
  545MOL0     C75076  10.073   0.235   3.319  0.1668 -0.2016  0.3900
  545MOL0     C75077  10.112   0.318   3.419 -0.6341  0.1294  0.3127
  545MOL0     C75078  10.239   0.358   3.433 -0.3686  0.4041 -0.2244
  545MOL0     C75079  10.330   0.334   3.323 -0.4836 -0.4110  0.2764
  545MOL0     O75080  10.453   0.392   3.319 -0.6130  0.5055 -0.5954
  545MOL0     C75081  10.544   0.363   3.212 -0.6740  0.0334  0.3529
  545MOL0     C75082  10.672   0.442   3.242  1.6589  0.3003 -0.1129
  545MOL0     C75083  10.780   0.427   3.142  0.1694  0.5693 -0.1155
  545MOL0     C75084  10.807   0.563   3.057 -0.6805  1.3523 -0.6465
  545MOL0     C75085  10.863   0.540   2.917  0.0069  0.0333  0.2330
  545MOL0     C75086  11.005   0.476   2.910 -0.0900  0.5730 -0.7111
  545MOL0     C75087  11.069   0.428   2.774 -0.6773 -0.0258 -0.2942
  545MOL0     C75088  11.212   0.379   2.787 -0.1489  0.1877  0.5902
  545MOL0     N75089  11.222   0.257   2.874  0.4681  0.2600  0.4826
  545MOL0     C75090  11.281   0.249   2.994  0.5659 -0.0630 -0.4475
  545MOL0     C75091  11.270   0.118   3.033 -0.1335  0.3003  1.0776
  545MOL0     C75092  11.313   0.077   3.169 -0.3122  0.5999  0.1692
  545MOL0     C75093  11.424  -0.031   3.175 -0.5126  0.2716  0.4245
  545MOL0     C75094  11.555   0.030   3.119 -0.1398  0.0878 -0.4529
  545MOL0     C75095  11.667  -0.061   3.165  0.0068  0.0949 -0.0809
  545MOL0     O75096  11.662  -0.185   3.093 -1.2745  0.3348  0.0732
  545MOL0     C75097  11.770  -0.271   3.106 -0.3461 -0.9548  0.0058
  545MOL0     C75098  11.772  -0.396   3.042  0.6110  0.1249  0.0107
  545MOL0     C75099  11.873  -0.491   3.076 -0.0323  0.2748 -0.1187
  545MOL0     C75100  11.836  -0.622   3.031  0.2286  0.5743  0.2494
  545MOL0     C75101  11.984  -0.451   3.148  0.2100  0.1900  0.5860
  545MOL0     C75102  12.104  -0.536   3.164 -0.4284  0.3986  0.2830
  545MOL0     O75103  12.212  -0.463   3.221  0.5614  0.0805  0.2055
  545MOL0     C75104  12.323  -0.538   3.254  0.0035  0.1697  0.6488
  545MOL0     C75105  12.317  -0.659   3.323 -0.1494 -0.2321 -0.0423
  545MOL0     C75106  12.435  -0.731   3.363 -0.1078 -0.3380  0.1517
  545MOL0     C75107  12.561  -0.682   3.338 -0.1875 -0.4842 -0.5113
  545MOL0     O75108  12.673  -0.759   3.377  0.2804  0.2958  0.4402
  545MOL0     C75109  12.805  -0.712   3.351  0.1406 -0.0523  0.0418
  545MOL0     C75110  12.902  -0.795   3.424  0.2286  0.8047 -0.8573
  545MOL0     C75111  13.040  -0.773   3.367 -0.1639 -0.3178  0.5892
  545MOL0     C75112  13.146  -0.812   3.464  1.2692  0.1358 -0.6888
  545MOL0     C75113  13.172  -0.729   3.592 -0.2484  0.3860 -0.5863
  545MOL0     C75114  13.178  -0.576   3.574  0.5097  0.4648  0.6084
  545MOL0     C75115  13.277  -0.532   3.464 -0.5663 -0.1729  0.1768
  545MOL0     C75116  13.416  -0.589   3.478  1.0894  0.1931 -0.7474
  545MOL0    Cl75117  13.506  -0.549   3.326  0.0218  0.2957 -0.1653
  545MOL0     C75118  12.561  -0.559   3.278 -0.2976  0.0942  0.6828
  545MOL0     C75119  12.444  -0.493   3.235  0.7734 -0.5802  0.1831
  545MOL0     O75120  12.106  -0.653   3.122 -0.2081 -0.0318 -0.4870
  545MOL0     C75121  11.992  -0.316   3.195 -0.4432  0.6315 -0.0310
  545MOL0     C75122  11.882  -0.239   3.187  0.4637  0.1797 -0.4700
  545MOL0     N75123  11.204   0.045   2.931  0.4538 -1.1104 -0.1392
  545MOL0     N75124  11.168   0.136   2.841 -0.2671 -0.8285  0.2458
  545MOL0     C75125  10.299   0.238   3.223 -0.0221  0.0993 -0.0125
  545MOL0     C75126  10.167   0.189   3.220  0.5715  0.3398 -0.2390
  545MOL0     C75127   9.744   0.055   3.341 -0.1149 -0.3610  0.7084
  545MOL0     C75128   9.692   0.087   3.219 -1.1260 -0.0661 -0.1773
  545MOL0     C75129   9.566   0.048   3.174 -0.1435  0.1637  0.0439
  545MOL0     C75130   9.482  -0.029   3.251  0.9619  0.1065 -0.6230
  545MOL0     O75131   9.364  -0.075   3.203  0.6945 -0.4323 -0.4527
  545MOL0     C75132   9.261  -0.104   3.292 -0.3709  0.1592 -0.0611
  545MOL0     C75133   9.133  -0.076   3.216 -0.0972  0.0145 -0.2102
  545MOL0     C75134   9.125   0.065   3.156  0.3749  0.1699  0.6739
  545MOL0     C75135   9.033   0.063   3.028  0.5653  0.3773  0.3766
  545MOL0     C75136   8.898   0.016   3.060 -0.4440  0.2043  1.0348
  545MOL0     C75137   8.803  -0.028   3.114 -0.1557  0.2344 -0.0835
  545MOL0     C75138   9.533  -0.066   3.382  0.0130  0.5630  0.0880
  545MOL0     C75139   9.663  -0.027   3.424  1.1637  1.2244  0.1925
  545MOL0     C75140   9.708  -0.061   3.562  0.1453  0.1059 -0.7510
  545MOL0     H75141  10.044   0.342   3.500  1.2662  0.2930  1.9347
  545MOL0     H75142  10.270   0.438   3.501  0.9662  1.0622 -1.5456
  545MOL0     H75143  10.497   0.396   3.120 -0.3116  1.4552  0.6585
  545MOL0     H75144  10.572   0.257   3.202  2.6609  0.6405  1.7313
  545MOL0     H75145  10.637   0.545   3.254 -1.3328 -0.5909 -0.3440
  545MOL0     H75146  10.711   0.415   3.340 -1.1016  2.5704  1.7872
  545MOL0     H75147  10.869   0.402   3.200 -0.6046 -0.3926  0.6959
  545MOL0     H75148  10.771   0.346   3.068 -0.4939  0.1853  0.3769
  545MOL0     H75149  10.708   0.607   3.046 -1.1834  0.0231 -1.7831
  545MOL0     H75150  10.875   0.637   3.101  0.3456 -0.4318  0.9530
  545MOL0     H75151  10.856   0.640   2.873 -2.2455  1.2269  3.0163
  545MOL0     H75152  10.793   0.481   2.858  0.4784 -0.5438  0.2360
  545MOL0     H75153  11.075   0.541   2.962 -0.7313 -0.2128  1.2290
  545MOL0     H75154  10.996   0.385   2.971 -3.2834  0.1623 -1.6095
  545MOL0     H75155  11.070   0.511   2.703 -0.0772 -0.0142 -0.2766
  545MOL0     H75156  11.013   0.347   2.725  0.2935  0.5655 -2.5055
  545MOL0     H75157  11.250   0.351   2.688 -3.6221  0.4907 -0.9713
  545MOL0     H75158  11.277   0.457   2.828 -0.7278  0.0899  1.7253
  545MOL0     H75159  11.331   0.331   3.045  0.8315 -0.7702  0.4549
  545MOL0     H75160  11.225   0.027   3.210  0.7532 -2.3388 -0.8696
  545MOL0     H75161  11.354   0.161   3.225  4.3280 -0.9462 -0.4551
  545MOL0     H75162  11.445  -0.064   3.277 -1.1485 -2.2355 -0.1799
  545MOL0     H75163  11.408  -0.123   3.117  5.6528 -2.2763  2.0050
  545MOL0     H75164  11.546   0.035   3.010 -0.3935 -2.9319 -0.6347
  545MOL0     H75165  11.565   0.131   3.160 -1.9777  0.7345 -1.4754
  545MOL0     H75166  11.762  -0.006   3.160 -0.4595  0.8119 -1.4442
  545MOL0     H75167  11.661  -0.081   3.273  2.4126  0.4448  0.1851
  545MOL0     H75168  11.683  -0.426   2.987 -0.8433  0.8483  1.8399
  545MOL0     H75169  11.874  -0.696   3.102  0.9144 -1.1053 -1.7792
  545MOL0     H75170  11.880  -0.642   2.933 -4.0352 -0.9950 -1.6009
  545MOL0     H75171  11.729  -0.644   3.027  0.8379 -2.7950 -0.4203
  545MOL0     H75172  12.227  -0.715   3.343  0.8460 -0.5595  4.6688
  545MOL0     H75173  12.422  -0.833   3.399  3.2331 -0.5654  0.9664
  545MOL0     H75174  12.814  -0.721   3.242 -3.5951 -1.4807 -0.3326
  545MOL0     H75175  12.826  -0.613   3.390  0.0049 -0.7421  1.9806
  545MOL0     H75176  12.902  -0.770   3.530  1.5524 -0.6539 -0.4829
  545MOL0     H75177  12.890  -0.903   3.409  1.8439  0.3527  0.7861
  545MOL0     H75178  13.061  -0.668   3.343 -0.5061 -0.6748 -1.4136
  545MOL0     H75179  13.055  -0.823   3.271  2.0307  2.1248 -0.4849
  545MOL0     H75180  13.241  -0.808   3.410  2.0304 -0.6391  0.5562
  545MOL0     H75181  13.121  -0.915   3.490  1.0240  0.5890  1.0217
  545MOL0     H75182  13.087  -0.738   3.660 -0.1899  2.3924 -0.1840
  545MOL0     H75183  13.264  -0.762   3.642 -1.1982  1.3008  1.9187
  545MOL0     H75184  13.206  -0.536   3.672  0.7255 -0.9925  1.1701
  545MOL0     H75185  13.082  -0.528   3.555  1.1187  1.9844  1.2224
  545MOL0     H75186  13.283  -0.424   3.478 -2.0665 -0.0327 -0.0611
  545MOL0     H75187  13.234  -0.537   3.363 -0.9220  1.4276  0.2265
  545MOL0     H75188  13.409  -0.698   3.471 -2.9777  0.0790  1.7364
  545MOL0     H75189  13.458  -0.560   3.574 -3.2417  1.0726  1.1324
  545MOL0     H75190  12.656  -0.517   3.246 -0.6441  0.3482 -0.0468
  545MOL0     H75191  12.452  -0.402   3.176 -1.1239 -0.5982 -0.1409
  545MOL0     H75192  12.076  -0.275   3.250 -0.2962  1.6841 -1.0078
  545MOL0     H75193  11.888  -0.143   3.238 -0.1983 -0.7803  1.5109
  545MOL0     H75194  10.366   0.209   3.144  0.0044  1.2995 -0.4473
  545MOL0     H75195  10.131   0.121   3.144 -0.3639 -1.0748  1.3874
  545MOL0     H75196   9.754   0.145   3.151  0.2674 -2.1093 -0.7331
  545MOL0     H75197   9.537   0.066   3.071  0.3269 -2.8414 -0.7132
  545MOL0     H75198   9.265  -0.207   3.328 -1.9174 -0.3509 -1.2070
  545MOL0     H75199   9.261  -0.039   3.380  2.3791 -2.9579  2.5146
  545MOL0     H75200   9.054  -0.081   3.292  0.4794  0.0048  0.3946
  545MOL0     H75201   9.121  -0.158   3.144 -1.1136 -0.6862  0.7104
  545MOL0     H75202   9.080   0.125   3.236  0.3747  1.0487  0.0309
  545MOL0     H75203   9.223   0.105   3.128  0.3473 -0.8733 -1.0385
  545MOL0     H75204   9.088  -0.003   2.960 -1.2493  0.8458 -1.6488
  545MOL0     H75205   9.026   0.165   2.988  0.7899  1.5330  3.0494
  545MOL0     H75206   8.708  -0.070   3.141 -0.8433  2.0476  0.4466
  545MOL0     H75207   9.466  -0.122   3.447 -2.0856  0.1669 -2.2442
  545MOL0     H75208   9.743   0.033   3.606 -0.6588  0.9438 -1.8489
  545MOL0     H75209   9.628  -0.102   3.624  1.0249 -1.7198 -0.7545
  545MOL0     H75210   9.786  -0.138   3.567 -0.6467 -0.6330  1.8981
  546MOL0     O75211   4.146   0.330   0.652 -0.0388  0.1963 -0.0757
  546MOL0     C75212   4.238   0.337   0.732  0.3796  0.7931 -0.1943
  546MOL0     O75213   4.253   0.437   0.831 -0.0627 -0.0353 -0.0992
  546MOL0     C75214   4.174   0.548   0.822 -0.8643 -0.4546  0.1209
  546MOL0     C75215   4.084   0.578   0.926  0.1121 -1.0538 -0.0540
  546MOL0     C75216   3.991   0.681   0.912 -0.9535  0.0089 -0.6537
  546MOL0     C75217   3.990   0.748   0.792  0.1937  0.8978  0.3699
  546MOL0     O75218   3.880   0.833   0.773  0.2901  0.0947  0.5104
  546MOL0     C75219   3.810   0.818   0.641 -0.0726 -0.0385 -0.8161
  546MOL0     C75220   3.674   0.873   0.672  0.0813  0.5452  0.0677
  546MOL0     C75221   3.614   0.782   0.792  1.0199  0.7972  0.4566
  546MOL0     C75222   3.466   0.813   0.809  0.6201 -0.4096 -0.5865
  546MOL0     C75223   3.407   0.677   0.846  0.4711  0.6108 -0.2387
  546MOL0     C75224   3.277   0.699   0.906 -1.1880 -0.1888 -0.8773
  546MOL0     C75225   3.200   0.572   0.937 -0.3850 -0.5431  0.6742
  546MOL0     C75226   3.217   0.452   0.839  0.1321  0.2170  0.3692
  546MOL0     N75227   3.156   0.477   0.705 -0.3665 -0.4665  1.2994
  546MOL0     C75228   3.227   0.493   0.581  0.0051  0.2705 -0.1660
  546MOL0     C75229   3.127   0.498   0.491 -0.3186  0.5855 -1.0444
  546MOL0     C75230   3.145   0.517   0.344  0.3365 -1.1334 -0.6125
  546MOL0     C75231   3.130   0.399   0.247 -0.0723 -1.0206 -0.9709
  546MOL0     C75232   3.221   0.391   0.130 -0.5443 -0.0368  0.6133
  546MOL0     C75233   3.220   0.504   0.028  0.0798  0.2537  0.1020
  546MOL0     O75234   3.325   0.487  -0.072 -0.2759  0.6051 -0.8412
  546MOL0     C75235   3.387   0.596  -0.118  0.9544 -0.1136  0.3029
  546MOL0     C75236   3.329   0.726  -0.109  0.6139  0.1952  0.0772
  546MOL0     C75237   3.390   0.844  -0.151 -1.2106 -0.3637 -0.4835
  546MOL0     C75238   3.315   0.972  -0.144 -0.2881  0.9809 -1.1224
  546MOL0     C75239   3.529   0.840  -0.205  0.3865  0.1920  0.0971
  546MOL0     C75240   3.614   0.954  -0.227 -0.2342 -0.0722 -0.3579
  546MOL0     O75241   3.739   0.935  -0.279  0.0420  0.3700  0.4455
  546MOL0     C75242   3.822   1.042  -0.294 -0.5302  0.1893  0.3141
  546MOL0     C75243   3.782   1.161  -0.359 -0.4861  0.5999  0.5262
  546MOL0     C75244   3.877   1.265  -0.370  0.0845 -0.0715 -0.5764
  546MOL0     C75245   4.003   1.250  -0.305 -0.4899  0.1580 -0.1011
  546MOL0     O75246   4.087   1.361  -0.320 -0.5652  0.0299  0.0421
  546MOL0     C75247   4.221   1.339  -0.365 -0.2347  0.5411 -0.6070
  546MOL0     C75248   4.228   1.265  -0.497  0.3384 -0.1262 -0.6724
  546MOL0     C75249   4.188   1.366  -0.611 -0.9069  0.0086 -0.9461
  546MOL0     C75250   4.304   1.465  -0.628 -0.8560  0.2813  0.5085
  546MOL0     C75251   4.333   1.473  -0.775 -0.2636 -0.6720  1.1236
  546MOL0     C75252   4.448   1.566  -0.827 -0.5445  0.0850 -0.5180
  546MOL0     C75253   4.436   1.570  -0.981 -0.4437 -0.2852  0.1614
  546MOL0     C75254   4.537   1.659  -1.060  0.2883  0.0339 -0.0591
  546MOL0    Cl75255   4.527   1.833  -1.022 -0.4290  0.1044  0.3948
  546MOL0     C75256   4.033   1.138  -0.231  0.6488  0.4434 -0.1039
  546MOL0     C75257   3.945   1.029  -0.226 -0.8793 -0.5528  0.4927
  546MOL0     O75258   3.569   1.068  -0.195 -0.4786  0.8420 -0.3032
  546MOL0     C75259   3.575   0.703  -0.225 -0.5258 -1.6726  0.2762
  546MOL0     C75260   3.510   0.590  -0.190  0.4083  1.3431 -0.3073
  546MOL0     N75261   3.006   0.501   0.553  0.5671 -0.6574  0.1054
  546MOL0     N75262   3.018   0.487   0.682  0.1201  0.3177  0.0461
  546MOL0     C75263   4.077   0.719   0.692 -0.1077 -0.6058 -0.5827
  546MOL0     C75264   4.177   0.625   0.703  0.6651  0.3808  0.8103
  546MOL0     C75265   4.346   0.232   0.709  1.0098 -0.6136  0.1884
  546MOL0     C75266   4.324   0.132   0.613  0.1549  0.2927 -0.1138
  546MOL0     C75267   4.414   0.030   0.571 -0.0263  0.4075 -0.1382
  546MOL0     C75268   4.538   0.024   0.637  0.7615  0.3206 -0.2202
  546MOL0     O75269   4.643  -0.056   0.606  0.0299  0.3895 -0.2859
  546MOL0     C75270   4.634  -0.162   0.503 -0.0463 -0.1493 -1.2683
  546MOL0     C75271   4.548  -0.278   0.554  0.2588 -0.1433  0.3584
  546MOL0     C75272   4.533  -0.279   0.707  0.7942 -0.0100  0.2939
  546MOL0     C75273   4.509  -0.418   0.764  0.1682 -1.1398  0.0372
  546MOL0     C75274   4.530  -0.427   0.907 -0.1711 -0.2411 -0.1121
  546MOL0     C75275   4.550  -0.438   1.026  0.5099  0.0582 -0.0559
  546MOL0     C75276   4.560   0.119   0.741  0.9483 -0.2490  0.2761
  546MOL0     C75277   4.468   0.217   0.777  0.4064  0.1013 -0.2201
  546MOL0     C75278   4.518   0.328   0.867 -0.3293  0.2506  0.4739
  546MOL0     H75279   4.078   0.524   1.020 -0.2838 -0.2521  0.3948
  546MOL0     H75280   3.924   0.709   0.993 -2.4643  1.7781 -2.4178
  546MOL0     H75281   3.801   0.712   0.617  0.4148 -1.2577  3.5531
  546MOL0     H75282   3.865   0.880   0.569  0.5002  2.2215  1.4198
  546MOL0     H75283   3.672   0.978   0.703 -1.6247  0.9157 -1.1786
  546MOL0     H75284   3.627   0.864   0.574  0.4919  1.9819 -0.2766
  546MOL0     H75285   3.625   0.677   0.766  0.7197  1.4097 -2.5167
  546MOL0     H75286   3.664   0.819   0.882  4.5359  0.0706 -1.0174
  546MOL0     H75287   3.450   0.896   0.879  2.5542  0.2121 -0.8334
  546MOL0     H75288   3.429   0.845   0.711  0.6368  0.3930 -0.3447
  546MOL0     H75289   3.470   0.618   0.914  0.3311 -1.3432 -1.7353
  546MOL0     H75290   3.396   0.624   0.751 -1.9927 -0.9547  0.8290
  546MOL0     H75291   3.303   0.744   1.003  0.2153 -2.6861  0.0134
  546MOL0     H75292   3.219   0.780   0.862 -0.6323  2.8417  3.3247
  546MOL0     H75293   3.095   0.599   0.951  0.3506  2.8870  0.3451
  546MOL0     H75294   3.242   0.534   1.030 -1.8763 -1.5883  0.9740
  546MOL0     H75295   3.322   0.422   0.837  0.4164  1.0062  2.1533
  546MOL0     H75296   3.174   0.360   0.879 -2.9204  0.9763 -0.7954
  546MOL0     H75297   3.329   0.507   0.546 -0.4953  1.0174 -1.3858
  546MOL0     H75298   3.247   0.550   0.323  0.4733 -1.6387 -0.7612
  546MOL0     H75299   3.074   0.595   0.314  1.5263  0.3467  0.2892
  546MOL0     H75300   3.147   0.305   0.300  1.1835  0.0918  0.7130
  546MOL0     H75301   3.025   0.396   0.214  0.4339 -0.8459 -2.6740
  546MOL0     H75302   3.325   0.398   0.163  0.5084  1.3455 -2.5959
  546MOL0     H75303   3.216   0.296   0.076  0.9185  0.2435 -0.0628
  546MOL0     H75304   3.124   0.497  -0.023 -0.8974  1.1189  1.7401
  546MOL0     H75305   3.229   0.597   0.084  2.5825 -0.5897  1.2498
  546MOL0     H75306   3.231   0.736  -0.063  0.7720 -0.0342  0.4729
  546MOL0     H75307   3.318   1.018  -0.243 -0.3257 -1.1525 -2.1846
  546MOL0     H75308   3.362   1.031  -0.065 -0.1031  0.3443 -0.7442
  546MOL0     H75309   3.212   0.956  -0.109  0.2166  0.0224  0.0281
  546MOL0     H75310   3.680   1.174  -0.393 -0.8530 -2.4361  0.2027
  546MOL0     H75311   3.855   1.359  -0.419 -0.9194  0.5582  1.0011
  546MOL0     H75312   4.272   1.436  -0.368  0.2070  0.3704  0.6145
  546MOL0     H75313   4.288   1.282  -0.299  2.6586  3.6046 -0.6382
  546MOL0     H75314   4.331   1.229  -0.499  1.1154  1.9884 -0.4288
  546MOL0     H75315   4.152   1.188  -0.479 -0.7235  1.7503  5.1534
  546MOL0     H75316   4.100   1.421  -0.577 -0.2938 -0.7728  2.2499
  546MOL0     H75317   4.173   1.314  -0.706 -0.2762 -1.8725 -0.0466
  546MOL0     H75318   4.394   1.442  -0.571 -0.7079  0.2080  0.2467
  546MOL0     H75319   4.269   1.566  -0.606 -2.0006  0.1254 -0.4641
  546MOL0     H75320   4.363   1.372  -0.804  1.2657 -0.7273  2.7214
  546MOL0     H75321   4.245   1.507  -0.829  2.0668  1.7283 -1.4888
  546MOL0     H75322   4.543   1.528  -0.789  2.0164  4.0120 -2.3504
  546MOL0     H75323   4.426   1.664  -0.784 -0.3630  1.1448 -2.7273
  546MOL0     H75324   4.335   1.611  -0.983 -0.2453  0.8202  4.1923
  546MOL0     H75325   4.430   1.466  -1.016 -0.1090  0.3375 -1.8318
  546MOL0     H75326   4.539   1.638  -1.168  1.8118 -2.6544  0.4047
  546MOL0     H75327   4.634   1.622  -1.025  0.1653 -1.0067 -0.7329
  546MOL0     H75328   4.125   1.132  -0.173  0.3116  1.3790  0.5595
  546MOL0     H75329   3.983   0.941  -0.175  4.0894  0.5856 -0.7158
  546MOL0     H75330   3.673   0.684  -0.270 -0.9038  0.8319 -1.8118
  546MOL0     H75331   3.560   0.494  -0.187  1.2873  1.8315  2.2813
  546MOL0     H75332   4.087   0.787   0.608  0.4281  0.8893  0.6380
  546MOL0     H75333   4.239   0.605   0.616  0.1730  1.3588  0.2102
  546MOL0     H75334   4.225   0.123   0.568  0.6660  0.2300 -1.2538
  546MOL0     H75335   4.374  -0.033   0.492 -3.1583  3.7429 -1.5204
  546MOL0     H75336   4.610  -0.111   0.409  2.8200  1.8915 -1.0513
  546MOL0     H75337   4.740  -0.188   0.488  1.3007  2.7448  1.8241
  546MOL0     H75338   4.608  -0.365   0.525  0.2468 -0.1799  0.4439
  546MOL0     H75339   4.448  -0.287   0.509 -0.7535 -2.4190  2.7866
  546MOL0     H75340   4.619  -0.233   0.759  1.4111 -0.8496  0.0427
  546MOL0     H75341   4.446  -0.223   0.741  0.6802 -1.0045  1.7561
  546MOL0     H75342   4.583  -0.490   0.731  1.9655 -0.5125  2.4601
  546MOL0     H75343   4.409  -0.454   0.737  0.1075 -2.5163  1.9750
  546MOL0     H75344   4.541  -0.438   1.133  0.6827  2.6414  0.0389
  546MOL0     H75345   4.658   0.115   0.786  1.4570 -1.3969 -0.8653
  546MOL0     H75346   4.447   0.347   0.948 -0.0667 -0.2844  0.8277
  546MOL0     H75347   4.617   0.302   0.906 -1.4938  0.2591  3.7049
  546MOL0     H75348   4.523   0.418   0.805 -4.5417 -0.1691 -0.7702
  547MOL0     O75349   7.323   0.751   7.302  0.4806  0.9307  0.0324
  547MOL0     C75350   7.316   0.874   7.302 -0.0568  0.8136 -0.1863
  547MOL0     O75351   7.350   0.959   7.193 -0.6514 -0.7593 -0.0057
  547MOL0     C75352   7.389   0.889   7.083  0.5440 -0.2443 -0.2391
  547MOL0     C75353   7.522   0.842   7.069 -0.8359  0.9952 -0.3614
  547MOL0     C75354   7.556   0.760   6.956 -0.6117 -0.1082  0.4906
  547MOL0     C75355   7.462   0.728   6.863 -0.0157 -1.8264  0.0525
  547MOL0     O75356   7.512   0.659   6.756  0.1781  0.3939  0.2744
  547MOL0     C75357   7.425   0.649   6.642  0.3644 -0.2546  0.1304
  547MOL0     C75358   7.486   0.552   6.536  0.2038 -0.3733 -0.1219
  547MOL0     C75359   7.500   0.406   6.602 -0.1266 -0.6641 -0.5342
  547MOL0     C75360   7.621   0.324   6.544 -0.0738  0.4910  0.1568
  547MOL0     C75361   7.595   0.270   6.404  0.1382 -0.4045  0.5116
  547MOL0     C75362   7.716   0.185   6.366  0.7484 -0.9347 -0.2305
  547MOL0     C75363   7.670   0.102   6.246 -0.6991 -0.2300  0.6986
  547MOL0     C75364   7.774   0.008   6.167 -0.3881  0.7741 -0.8670
  547MOL0     N75365   7.831  -0.099   6.259 -0.0159 -0.1388 -0.0387
  547MOL0     C75366   7.919  -0.067   6.363 -0.9260 -0.6295  0.3280
  547MOL0     C75367   7.954  -0.179   6.423 -0.5140 -0.0153  0.0750
  547MOL0     C75368   8.088  -0.210   6.493  1.3849  0.1147  0.9254
  547MOL0     C75369   8.182  -0.276   6.393  0.1202 -0.6709 -0.6425
  547MOL0     C75370   8.136  -0.412   6.338  0.1469  0.4325 -0.1048
  547MOL0     C75371   8.110  -0.525   6.442 -1.3371  0.0557 -0.3678
  547MOL0     O75372   8.151  -0.486   6.574 -0.4185  0.1565  0.2471
  547MOL0     C75373   8.279  -0.504   6.614 -0.4102  0.5351  0.2551
  547MOL0     C75374   8.281  -0.538   6.747 -0.0787  0.2371 -0.6160
  547MOL0     C75375   8.400  -0.565   6.820  0.9604 -0.3542  0.3893
  547MOL0     C75376   8.397  -0.592   6.970 -0.1087  0.1689  0.0112
  547MOL0     C75377   8.521  -0.570   6.747  0.2196 -0.4517 -0.0026
  547MOL0     C75378   8.654  -0.609   6.802  1.0142 -0.1119  0.2391
  547MOL0     O75379   8.653  -0.699   6.906  0.2855  0.3311 -0.5421
  547MOL0     C75380   8.774  -0.728   6.967 -0.6354  0.3131 -0.4514
  547MOL0     C75381   8.827  -0.649   7.070 -0.6087 -0.5095  0.5156
  547MOL0     C75382   8.958  -0.685   7.127  0.8295 -0.3389 -0.6398
  547MOL0     C75383   9.033  -0.789   7.074  0.4276 -0.0423 -0.0094
  547MOL0     O75384   9.157  -0.820   7.128  0.0605  0.5658 -0.2544
  547MOL0     C75385   9.228  -0.925   7.058 -0.2206 -0.3265 -0.5862
  547MOL0     C75386   9.359  -0.962   7.139  0.0922  0.5607  0.3706
  547MOL0     C75387   9.472  -0.852   7.144 -0.4019  0.3872 -0.4986
  547MOL0     C75388   9.591  -0.896   7.225 -0.1088  0.8033  0.4236
  547MOL0     C75389   9.679  -0.786   7.263 -0.5769  0.9429  1.3713
  547MOL0     C75390   9.789  -0.851   7.356 -1.0086 -0.5032  0.5382
  547MOL0     C75391   9.886  -0.747   7.400 -0.4426  0.4488  0.3005
  547MOL0     C75392   9.956  -0.680   7.284 -0.1220 -0.4810  0.1533
  547MOL0    Cl75393  10.073  -0.786   7.206  0.4520  0.1960  0.3318
  547MOL0     C75394   8.980  -0.861   6.968  1.1659 -0.9235  0.5217
  547MOL0     C75395   8.846  -0.834   6.906  0.6379 -0.4843 -0.7546
  547MOL0     O75396   8.751  -0.551   6.757 -0.3786  0.4837 -0.3789
  547MOL0     C75397   8.514  -0.538   6.608  0.6586 -1.0740 -0.3759
  547MOL0     C75398   8.399  -0.498   6.546  0.6275  0.4839  0.9341
  547MOL0     N75399   7.868  -0.272   6.364  0.8917 -0.4356  0.1197
  547MOL0     N75400   7.789  -0.228   6.269  0.3567 -0.7195  0.7886
  547MOL0     C75401   7.331   0.779   6.876 -0.1901 -0.2332  0.7916
  547MOL0     C75402   7.297   0.861   6.981  0.0957  0.1573  0.2763
  547MOL0     C75403   7.291   0.939   7.430 -0.1272  0.1059  0.6193
  547MOL0     C75404   7.292   1.079   7.439  0.9909  0.7985 -0.1775
  547MOL0     C75405   7.258   1.142   7.559 -0.2665 -0.1211 -0.1297
  547MOL0     C75406   7.213   1.077   7.670 -0.6097 -0.1608 -0.7654
  547MOL0     O75407   7.184   1.158   7.778 -0.0282  0.4753 -0.3837
  547MOL0     C75408   7.273   1.139   7.893  1.0079  0.4216 -0.5852
  547MOL0     C75409   7.297   1.279   7.951 -0.3633  0.2458 -0.3428
  547MOL0     C75410   7.386   1.366   7.865  0.3792 -0.5835  0.2938
  547MOL0     C75411   7.527   1.326   7.812  0.7879  0.1260 -0.5858
  547MOL0     C75412   7.615   1.293   7.921 -0.4476 -0.3144 -0.1645
  547MOL0     C75413   7.688   1.255   8.013  0.1586 -0.2942  0.0000
  547MOL0     C75414   7.216   0.942   7.667  0.6483 -0.3914 -0.6414
  547MOL0     C75415   7.243   0.874   7.549  0.6300  0.2100  0.0354
  547MOL0     C75416   7.211   0.725   7.557  0.3810 -0.1611 -0.1414
  547MOL0     H75417   7.595   0.868   7.146  0.6358 -4.3925  0.5671
  547MOL0     H75418   7.656   0.720   6.939  1.0972  2.1899  4.0142
  547MOL0     H75419   7.411   0.752   6.609  0.3162 -1.1380 -2.9274
  547MOL0     H75420   7.332   0.596   6.667  0.0214  0.7464  1.0719
  547MOL0     H75421   7.424   0.559   6.447  3.1493 -0.2092 -2.3043
  547MOL0     H75422   7.589   0.580   6.511 -0.2295 -0.4947 -2.2442
  547MOL0     H75423   7.510   0.425   6.710  1.8110  2.9099 -1.1785
  547MOL0     H75424   7.411   0.344   6.586 -0.5145  0.2288 -1.9807
  547MOL0     H75425   7.706   0.393   6.542  1.8715 -1.6927 -3.3619
  547MOL0     H75426   7.643   0.238   6.609  0.1349  0.2475 -0.2276
  547MOL0     H75427   7.579   0.346   6.326 -2.4438 -0.3087  1.0235
  547MOL0     H75428   7.503   0.210   6.402 -1.0563  1.3052  1.0421
  547MOL0     H75429   7.806   0.245   6.353 -0.8203  1.6239 -0.1104
  547MOL0     H75430   7.739   0.109   6.441 -1.6717 -2.4955 -0.9249
  547MOL0     H75431   7.627   0.171   6.172  2.6760  0.7873 -0.4918
  547MOL0     H75432   7.592   0.047   6.299 -2.9306  3.1378  1.2331
  547MOL0     H75433   7.730  -0.046   6.083  1.4465  3.0892 -3.4865
  547MOL0     H75434   7.848   0.075   6.122  0.1443 -0.2492 -1.5465
  547MOL0     H75435   7.969   0.028   6.378 -0.1715 -1.0028  0.2363
  547MOL0     H75436   8.079  -0.278   6.578 -0.0346 -2.2786 -1.0130
  547MOL0     H75437   8.122  -0.114   6.534 -0.0811  0.3282  1.7285
  547MOL0     H75438   8.191  -0.207   6.309 -0.1594  1.3805  0.9283
  547MOL0     H75439   8.282  -0.283   6.435 -0.1804  0.4069  0.3338
  547MOL0     H75440   8.047  -0.391   6.278 -1.0166  0.9588  1.7249
  547MOL0     H75441   8.216  -0.453   6.276  0.5024  2.0497 -0.7512
  547MOL0     H75442   8.006  -0.558   6.447 -0.7272 -1.8920  4.7980
  547MOL0     H75443   8.185  -0.603   6.425  1.9412  2.4526  1.7772
  547MOL0     H75444   8.182  -0.525   6.790  0.1894  2.2539 -0.5023
  547MOL0     H75445   8.315  -0.535   7.015 -0.7631 -0.4903 -0.3159
  547MOL0     H75446   8.488  -0.554   7.017  0.0689  1.8110 -1.5305
  547MOL0     H75447   8.385  -0.698   6.992  1.5546 -0.3807 -1.5055
  547MOL0     H75448   8.760  -0.569   7.101 -3.2714 -2.3103 -0.2998
  547MOL0     H75449   9.000  -0.621   7.205 -3.2468  1.3839  0.3699
  547MOL0     H75450   9.169  -1.016   7.042  0.1704 -1.1688  2.1912
  547MOL0     H75451   9.263  -0.883   6.964  2.5052 -1.5955 -0.2263
  547MOL0     H75452   9.337  -0.984   7.244  2.0341  1.2086  0.9589
  547MOL0     H75453   9.399  -1.048   7.085  1.5973  1.4244  0.0522
  547MOL0     H75454   9.435  -0.754   7.176  0.3877  1.3290 -2.3076
  547MOL0     H75455   9.502  -0.828   7.042  1.9836  1.3294  0.3363
  547MOL0     H75456   9.638  -0.980   7.174 -1.4302 -0.2589  0.9043
  547MOL0     H75457   9.561  -0.937   7.322  3.6920  0.4639  1.6102
  547MOL0     H75458   9.721  -0.749   7.169 -3.4791 -2.3588 -1.5045
  547MOL0     H75459   9.627  -0.714   7.327 -0.7550  3.6055 -1.5340
  547MOL0     H75460   9.853  -0.928   7.313  0.6572  0.4365  1.2579
  547MOL0     H75461   9.754  -0.904   7.445  2.1634 -1.5555  1.2598
  547MOL0     H75462   9.960  -0.786   7.470  0.1290 -3.7523 -2.2834
  547MOL0     H75463   9.819  -0.678   7.452  0.7816  0.1059  2.4404
  547MOL0     H75464  10.011  -0.591   7.315  1.2321  0.5033 -4.3271
  547MOL0     H75465   9.883  -0.627   7.222  1.7404  0.7107 -1.1326
  547MOL0     H75466   9.024  -0.948   6.920 -2.5458 -1.3891 -2.5495
  547MOL0     H75467   8.808  -0.888   6.820 -1.2633  0.1732 -0.3735
  547MOL0     H75468   8.595  -0.533   6.536 -0.6614 -0.2100 -1.8485
  547MOL0     H75469   8.396  -0.459   6.444 -1.5210 -1.9867 -0.0763
  547MOL0     H75470   7.253   0.756   6.804 -0.3796 -0.4418  1.0581
  547MOL0     H75471   7.201   0.911   6.985  0.5193  0.9565  0.8811
  547MOL0     H75472   7.335   1.136   7.358  3.5959  5.0568  3.6834
  547MOL0     H75473   7.259   1.250   7.564 -0.7601 -0.0119 -1.6975
  547MOL0     H75474   7.214   1.076   7.960  1.2604  0.9175  0.1150
  547MOL0     H75475   7.364   1.080   7.877  1.1569  0.0695  1.3155
  547MOL0     H75476   7.340   1.270   8.051 -0.7373  2.7807  0.0924
  547MOL0     H75477   7.202   1.330   7.965 -1.2303 -1.5233  0.6240
  547MOL0     H75478   7.328   1.394   7.776 -0.2393  0.4997  1.0169
  547MOL0     H75479   7.398   1.462   7.917 -1.6312  0.2052 -0.5779
  547MOL0     H75480   7.573   1.410   7.760 -0.6201  0.0520 -2.0268
  547MOL0     H75481   7.528   1.239   7.746  2.1881 -0.6545  0.4005
  547MOL0     H75482   7.743   1.230   8.102  1.3007  1.1761 -0.2612
  547MOL0     H75483   7.170   0.889   7.750  2.6279  0.4245  1.0722
  547MOL0     H75484   7.166   0.677   7.470 -2.0312  0.8859  0.4649
  547MOL0     H75485   7.305   0.677   7.589  1.0187  0.9460 -0.3171
  547MOL0     H75486   7.142   0.711   7.640 -0.6942  1.7356 -0.6664
  548MOL0     O75487   5.707   1.697   3.528 -0.0228  0.1055  0.0921
  548MOL0     C75488   5.650   1.803   3.495  0.3896  0.2330 -0.6085
  548MOL0     O75489   5.709   1.918   3.448 -0.2418 -0.2501  0.3226
  548MOL0     C75490   5.842   1.933   3.422 -0.0073 -0.1384 -0.2045
  548MOL0     C75491   5.885   1.887   3.298  0.7517  0.2312  0.0651
  548MOL0     C75492   6.015   1.906   3.256 -0.6596 -0.3755  0.6763
  548MOL0     C75493   6.106   1.974   3.346 -0.3209 -0.5865  0.6756
  548MOL0     O75494   6.238   1.988   3.312  0.4005  0.5122 -0.4748
  548MOL0     C75495   6.286   1.928   3.189 -0.0563 -0.5733 -0.1692
  548MOL0     C75496   6.435   1.949   3.163  0.0237  0.1572  0.9396
  548MOL0     C75497   6.533   1.907   3.278  1.1104 -0.5447  0.5606
  548MOL0     C75498   6.669   1.919   3.215 -0.5485  0.2709  0.7615
  548MOL0     C75499   6.778   1.901   3.318 -0.4475 -0.2079 -0.3560
  548MOL0     C75500   6.906   1.848   3.269 -0.3238  0.8506  1.6067
  548MOL0     C75501   7.015   1.840   3.379  0.9109  0.1301 -0.2679
  548MOL0     C75502   7.049   1.972   3.442 -0.9775 -0.2142  0.5141
  548MOL0     N75503   7.190   1.973   3.497  0.0725  0.0837 -0.3245
  548MOL0     C75504   7.241   1.901   3.597  0.8408  0.2191  0.0549
  548MOL0     C75505   7.369   1.936   3.611  1.2372  0.0321 -0.3541
  548MOL0     C75506   7.450   1.891   3.728 -0.3213 -0.0653 -0.9975
  548MOL0     C75507   7.558   2.002   3.773  0.6220  0.4653  0.1601
  548MOL0     C75508   7.640   1.948   3.884  0.6182  0.0394  0.4507
  548MOL0     C75509   7.760   2.051   3.918  0.2013  0.9289 -0.4521
  548MOL0     O75510   7.822   1.991   4.032  0.1693  0.5568  0.7132
  548MOL0     C75511   7.915   2.065   4.099  0.4932 -0.0217 -0.3242
  548MOL0     C75512   7.976   2.002   4.209 -0.2662  0.0499  0.5705
  548MOL0     C75513   8.077   2.072   4.275 -1.2951 -0.3960  0.2590
  548MOL0     C75514   8.124   1.994   4.394  0.3659  0.3877  0.5275
  548MOL0     C75515   8.110   2.209   4.253 -0.4713  0.1665  0.1796
  548MOL0     C75516   8.210   2.291   4.330  0.4706 -0.8439  0.3178
  548MOL0     O75517   8.286   2.225   4.422 -0.2987  0.1745 -0.1116
  548MOL0     C75518   8.378   2.279   4.509 -0.2950  0.1457 -0.2262
  548MOL0     C75519   8.413   2.413   4.526  0.3438 -0.5980 -0.6789
  548MOL0     C75520   8.508   2.446   4.629 -0.1888 -0.0451  0.8622
  548MOL0     C75521   8.575   2.348   4.706 -0.3095 -0.7726  0.6084
  548MOL0     O75522   8.657   2.389   4.811  0.3067  0.4443  0.4531
  548MOL0     C75523   8.671   2.532   4.846 -0.5790 -0.9750 -0.1046
  548MOL0     C75524   8.776   2.603   4.766  0.5169 -0.2724  0.5557
  548MOL0     C75525   8.928   2.557   4.768  0.0093  0.2713 -0.5818
  548MOL0     C75526   8.982   2.611   4.907 -1.4515  0.1794 -0.2196
  548MOL0     C75527   9.111   2.527   4.956 -0.1927  0.3391  0.4231
  548MOL0     C75528   9.104   2.527   5.111 -0.2193 -0.4813 -0.4057
  548MOL0     C75529   9.221   2.445   5.163  0.3113 -0.9712 -0.3148
  548MOL0     C75530   9.360   2.532   5.162 -0.5989 -0.5001  0.4139
  548MOL0    Cl75531   9.350   2.699   5.214 -0.3523  0.5763 -0.1021
  548MOL0     C75532   8.532   2.218   4.692 -0.1899 -0.3173  0.4780
  548MOL0     C75533   8.436   2.184   4.594 -0.0295  0.0156  0.1961
  548MOL0     O75534   8.227   2.409   4.296  0.3374  0.3590 -0.0191
  548MOL0     C75535   8.051   2.264   4.134 -0.2244  0.4588  0.4413
  548MOL0     C75536   7.954   2.198   4.066  0.0295  0.2368 -0.0130
  548MOL0     N75537   7.394   2.036   3.517 -0.4183  0.5180  0.1670
  548MOL0     N75538   7.285   2.061   3.457  0.0921  0.9833 -0.3126
  548MOL0     C75539   6.056   2.018   3.472  1.0664  0.7736 -0.1973
  548MOL0     C75540   5.924   1.997   3.516 -0.0394  0.1461  0.8165
  548MOL0     C75541   5.500   1.816   3.510 -0.0060  0.3639 -0.2586
  548MOL0     C75542   5.413   1.721   3.464 -0.9977 -0.0378  0.0721
  548MOL0     C75543   5.275   1.726   3.493 -0.3201 -0.1770 -0.2382
  548MOL0     C75544   5.223   1.831   3.575 -0.0539  0.1864  0.0228
  548MOL0     O75545   5.089   1.854   3.612 -0.7291 -0.3800  0.4666
  548MOL0     C75546   5.000   1.777   3.537 -0.1019  0.6888  0.5104
  548MOL0     C75547   4.864   1.836   3.567  0.1288  0.4062 -0.2661
  548MOL0     C75548   4.818   1.798   3.706  0.4819  0.2352  0.4265
  548MOL0     C75549   4.673   1.831   3.733 -0.4358  0.6450 -0.5621
  548MOL0     C75550   4.662   1.808   3.874  1.3433 -0.3101  0.0757
  548MOL0     C75551   4.650   1.782   3.990 -0.2211  0.0274  0.0998
  548MOL0     C75552   5.308   1.918   3.622  0.2538  0.3027 -0.2914
  548MOL0     C75553   5.444   1.918   3.603 -0.4680  0.7761  0.0306
  548MOL0     C75554   5.528   2.009   3.676  0.0077  0.1621  0.3376
  548MOL0     H75555   5.818   1.826   3.240 -1.4467  2.4184  0.1124
  548MOL0     H75556   6.037   1.866   3.158 -1.7693 -0.7557  0.5609
  548MOL0     H75557   6.232   1.977   3.107 -1.3467  0.6470  1.3469
  548MOL0     H75558   6.274   1.820   3.197  1.3309 -0.8120 -1.0844
  548MOL0     H75559   6.461   1.891   3.075 -0.1138 -0.9969  1.6391
  548MOL0     H75560   6.460   2.054   3.143 -1.7017  0.6208  1.0438
  548MOL0     H75561   6.528   1.979   3.360 -0.3743  1.1262 -0.9121
  548MOL0     H75562   6.521   1.802   3.309 -1.7612 -0.9798 -1.6269
  548MOL0     H75563   6.676   1.836   3.144 -0.8807  1.1783 -0.3576
  548MOL0     H75564   6.673   2.017   3.166 -0.1034  2.2738  4.4762
  548MOL0     H75565   6.737   1.838   3.398 -2.5538 -0.6580 -1.7098
  548MOL0     H75566   6.813   1.999   3.352  1.3180 -0.9071 -0.0234
  548MOL0     H75567   6.883   1.753   3.221  4.2988 -0.0274  0.7134
  548MOL0     H75568   6.937   1.915   3.188  0.4724 -1.7079 -0.2953
  548MOL0     H75569   7.099   1.796   3.324 -0.1974 -2.9401  0.2702
  548MOL0     H75570   6.986   1.767   3.455 -2.7802  0.5246 -1.1040
  548MOL0     H75571   7.054   2.044   3.360 -1.7982 -1.1204 -0.3632
  548MOL0     H75572   6.965   1.999   3.507 -2.3524  0.0609 -1.2887
  548MOL0     H75573   7.194   1.827   3.661  1.9547  0.8544  1.7079
  548MOL0     H75574   7.497   1.802   3.686  0.1965  0.4403 -1.4951
  548MOL0     H75575   7.391   1.857   3.814  1.3070 -0.1188  0.1402
  548MOL0     H75576   7.629   2.029   3.694  1.6322  3.3057  1.9016
  548MOL0     H75577   7.508   2.091   3.813  0.7833  0.3907  0.5235
  548MOL0     H75578   7.572   1.946   3.969  1.7833  0.2752  1.4048
  548MOL0     H75579   7.689   1.852   3.867  0.0409 -0.0588 -0.7862
  548MOL0     H75580   7.842   2.051   3.846  0.9770  3.2749  0.3500
  548MOL0     H75581   7.728   2.155   3.930 -0.4438  1.1896 -3.7466
  548MOL0     H75582   7.964   1.897   4.235 -4.2199  0.7364  2.2492
  548MOL0     H75583   8.057   1.910   4.413 -2.9223  2.6539 -0.1660
  548MOL0     H75584   8.124   2.052   4.486 -2.3077  0.1272  0.7677
  548MOL0     H75585   8.223   1.951   4.376  0.8997  1.2714  1.3101
  548MOL0     H75586   8.366   2.497   4.476  0.8972  2.1137  2.9673
  548MOL0     H75587   8.545   2.548   4.629  0.8332 -0.4004  1.0324
  548MOL0     H75588   8.581   2.592   4.834  1.5225  2.5620  0.3192
  548MOL0     H75589   8.702   2.555   4.948  0.8956  2.7804 -1.2283
  548MOL0     H75590   8.747   2.601   4.661  1.3732 -0.0532  0.3023
  548MOL0     H75591   8.764   2.706   4.803 -0.8036 -0.1403 -0.1743
  548MOL0     H75592   8.985   2.600   4.686 -1.6295  0.7941 -1.4989
  548MOL0     H75593   8.934   2.448   4.758 -0.0309 -0.1155  2.5734
  548MOL0     H75594   8.895   2.604   4.973 -2.8525  1.5703 -1.8330
  548MOL0     H75595   9.012   2.715   4.890  2.0822 -0.8851 -1.3210
  548MOL0     H75596   9.114   2.425   4.917 -0.3896 -0.0217  1.3513
  548MOL0     H75597   9.199   2.581   4.918 -0.3449 -0.8669 -1.8253
  548MOL0     H75598   9.012   2.477   5.142  0.9913 -1.2920  2.0939
  548MOL0     H75599   9.103   2.634   5.133 -2.3121  0.0094 -2.4330
  548MOL0     H75600   9.233   2.350   5.108  1.6656 -0.7529 -0.4504
  548MOL0     H75601   9.192   2.419   5.265  0.1991 -2.8485 -0.7813
  548MOL0     H75602   9.409   2.534   5.065  1.3769  0.1572  1.3689
  548MOL0     H75603   9.432   2.477   5.225  4.6540  3.5789 -1.2679
  548MOL0     H75604   8.569   2.147   4.766  0.4641 -1.2861 -0.7533
  548MOL0     H75605   8.407   2.079   4.591  0.5828 -0.1293 -1.6869
  548MOL0     H75606   8.069   2.364   4.096 -1.6516 -0.0703 -1.7843
  548MOL0     H75607   7.914   2.259   3.985 -0.6816  3.1627  2.3464
  548MOL0     H75608   6.127   2.064   3.539 -0.3404  0.5798  1.4757
  548MOL0     H75609   5.886   2.030   3.613 -3.1212 -1.9788  0.4628
  548MOL0     H75610   5.450   1.647   3.394  0.2347  0.6849 -0.0648
  548MOL0     H75611   5.209   1.653   3.447 -0.6463 -0.7428  1.0843
  548MOL0     H75612   5.017   1.783   3.429 -1.6692 -1.4095  0.0829
  548MOL0     H75613   5.008   1.674   3.571  0.9953  0.3920 -0.5555
  548MOL0     H75614   4.799   1.796   3.489 -0.2722 -0.7229  0.6264
  548MOL0     H75615   4.858   1.945   3.561  0.9163  0.5139  0.5545
  548MOL0     H75616   4.827   1.690   3.720  1.5870  0.3407  0.6542
  548MOL0     H75617   4.890   1.846   3.773 -0.6825  1.3170  0.9359
  548MOL0     H75618   4.597   1.782   3.671  0.2121  1.9248 -2.4520
  548MOL0     H75619   4.660   1.935   3.703  0.0034  0.6820 -0.6273
  548MOL0     H75620   4.655   1.748   4.091  2.0005 -1.4690 -0.4272
  548MOL0     H75621   5.262   1.995   3.683 -0.7742 -1.7483  1.6788
  548MOL0     H75622   5.558   2.087   3.605 -0.7180  0.3733  0.2549
  548MOL0     H75623   5.467   2.052   3.757  1.7222 -0.4921  2.0576
  548MOL0     H75624   5.618   1.971   3.724  0.1021  1.2694  1.0846
  549MOL0     O75625   1.537  10.023   2.926  0.7529 -0.1315  0.1783
  549MOL0     C75626   1.517   9.902   2.911 -0.3481 -0.1916  0.5818
  549MOL0     O75627   1.616   9.811   2.901  0.6460 -0.3483  0.2805
  549MOL0     C75628   1.751   9.843   2.929 -0.3982 -0.3675  0.2447
  549MOL0     C75629   1.813   9.832   3.053  0.6175  0.1468  0.9574
  549MOL0     C75630   1.943   9.871   3.067  0.2141 -0.3924  0.6822
  549MOL0     C75631   2.018   9.907   2.949  0.0407 -0.2607 -0.4353
  549MOL0     O75632   2.159   9.931   2.961  0.9357 -0.0018 -0.0869
  549MOL0     C75633   2.196  10.028   3.060 -0.4124  0.0091  0.1880
  549MOL0     C75634   2.327   9.982   3.131 -0.5096 -0.0293  0.2262
  549MOL0     C75635   2.357  10.084   3.244  0.2718  0.4163  0.6752
  549MOL0     C75636   2.469  10.029   3.323 -0.2901 -0.6583 -0.8596
  549MOL0     C75637   2.525  10.138   3.411  0.2439  0.6514 -0.5046
  549MOL0     C75638   2.624  10.074   3.514  0.0543 -0.0690  0.0073
  549MOL0     C75639   2.670  10.170   3.634  0.8421 -0.2531  1.2002
  549MOL0     C75640   2.581  10.153   3.757 -0.4208  0.2075 -0.7346
  549MOL0     N75641   2.591  10.258   3.863 -0.2749  0.1143 -0.9183
  549MOL0     C75642   2.692  10.258   3.958 -0.5844  0.0754  1.1333
  549MOL0     C75643   2.672  10.363   4.042  0.1809 -0.0448 -0.0885
  549MOL0     C75644   2.758  10.412   4.161 -0.4021  0.6740  0.5915
  549MOL0     C75645   2.903  10.362   4.149 -0.0807 -0.6665 -0.4348
  549MOL0     C75646   2.935  10.226   4.208 -0.8505 -0.2895 -0.0186
  549MOL0     C75647   3.044  10.151   4.139  0.4732 -0.2955  0.0216
  549MOL0     O75648   3.003  10.140   4.003 -0.3992 -0.3967 -0.1016
  549MOL0     C75649   3.106  10.123   3.911  0.1357  0.5454  0.2858
  549MOL0     C75650   3.108  10.203   3.803  1.1487 -0.1197  0.0883
  549MOL0     C75651   3.212  10.203   3.707 -0.3058  0.8725 -1.1379
  549MOL0     C75652   3.209  10.306   3.609 -0.1835  0.1807  0.2953
  549MOL0     C75653   3.312  10.099   3.725 -0.6513  0.4277  0.4504
  549MOL0     C75654   3.438  10.092   3.642  0.3978 -0.2419 -0.1907
  549MOL0     O75655   3.534   9.999   3.670 -0.1269 -0.5045  0.1397
  549MOL0     C75656   3.659  10.008   3.620  0.1553 -0.0017 -0.6207
  549MOL0     C75657   3.721   9.891   3.560  0.7250  0.0860  0.6555
  549MOL0     C75658   3.849   9.895   3.510 -0.7869 -0.0635  0.7372
  549MOL0     C75659   3.926  10.016   3.526  0.1403  0.0160 -0.2740
  549MOL0     O75660   4.054  10.005   3.487 -0.2346  0.2603  0.8258
  549MOL0     C75661   4.159  10.100   3.516  0.2255  0.5571 -0.2469
  549MOL0     C75662   4.278  10.062   3.422 -0.8154 -0.0677 -0.5640
  549MOL0     C75663   4.412  10.122   3.476  0.8288 -0.4242 -0.3516
  549MOL0     C75664   4.525  10.109   3.365  0.2801  0.7653 -0.4521
  549MOL0     C75665   4.658  10.169   3.415  0.2985 -0.3384  0.5207
  549MOL0     C75666   4.758  10.138   3.312  0.6507  0.6191  0.1454
  549MOL0     C75667   4.900  10.174   3.353 -0.5751  0.1654  0.1461
  549MOL0     C75668   5.006  10.138   3.246 -0.0703 -0.3082 -0.2560
  549MOL0    Cl75669   5.172  10.160   3.321 -0.0218 -0.5326 -0.0016
  549MOL0     C75670   3.868  10.127   3.593 -0.5337  0.4757 -0.1617
  549MOL0     C75671   3.741  10.126   3.640  0.4814 -0.1604  0.6206
  549MOL0     O75672   3.447  10.180   3.561 -0.0698 -0.2894  0.4377
  549MOL0     C75673   3.310  10.014   3.834 -0.6212 -0.0879  0.2419
  549MOL0     C75674   3.199  10.027   3.916 -0.4067  0.4119 -0.0171
  549MOL0     N75675   2.544  10.407   4.008  0.0499 -0.0589 -0.2004
  549MOL0     N75676   2.498  10.347   3.904 -0.0838 -0.6525 -0.4864
  549MOL0     C75677   1.955   9.926   2.830 -0.0381  0.5529  0.0625
  549MOL0     C75678   1.820   9.884   2.815  0.0671 -0.0294  0.3359
  549MOL0     C75679   1.375   9.861   2.922 -0.3488 -0.2518  0.4024
  549MOL0     C75680   1.286   9.939   2.852  0.2991 -1.0515 -0.1819
  549MOL0     C75681   1.158   9.890   2.811 -0.5265  0.3145 -0.2093
  549MOL0     C75682   1.120   9.760   2.840  0.1932  0.2750  0.2479
  549MOL0     O75683   1.002   9.694   2.802  0.2059  0.2774 -0.1923
  549MOL0     C75684   0.900   9.777   2.743 -0.5634  0.5326 -0.1054
  549MOL0     C75685   0.805   9.836   2.851  0.4977  0.3194  1.1552
  549MOL0     C75686   0.735   9.964   2.798 -0.2474 -0.2728 -0.8587
  549MOL0     C75687   0.624  10.011   2.886  0.2278  0.1648  0.0691
  549MOL0     C75688   0.505   9.929   2.867 -0.2876 -0.6780  0.8556
  549MOL0     C75689   0.417   9.847   2.845  0.2229 -0.0755  0.0038
  549MOL0     C75690   1.207   9.691   2.931 -0.0119  0.4161 -0.4276
  549MOL0     C75691   1.324   9.751   2.979 -0.0149  0.0424 -0.4484
  549MOL0     C75692   1.399   9.683   3.097  0.3123 -1.0288  0.1581
  549MOL0     H75693   1.754   9.808   3.140 -4.5565 -0.2738 -2.2414
  549MOL0     H75694   1.995   9.857   3.161  0.4033  2.2405  1.0377
  549MOL0     H75695   2.123  10.040   3.142  0.2669  1.6603  0.5908
  549MOL0     H75696   2.205  10.121   3.004  0.8053 -1.2810 -1.8759
  549MOL0     H75697   2.319   9.878   3.163 -2.5747  0.1616  0.4674
  549MOL0     H75698   2.414   9.991   3.065  0.3177  1.3182  1.4332
  549MOL0     H75699   2.376  10.184   3.201  1.2530  1.0136  2.3937
  549MOL0     H75700   2.269  10.088   3.308 -1.3879 -1.4399 -1.3217
  549MOL0     H75701   2.447   9.943   3.387  0.4470 -1.1514 -1.2459
  549MOL0     H75702   2.548   9.987   3.259  0.1281 -1.3407  0.0795
  549MOL0     H75703   2.444  10.174   3.476  0.2050 -1.0577  0.4611
  549MOL0     H75704   2.569  10.227   3.366  0.6525  0.7707  0.1154
  549MOL0     H75705   2.563   9.997   3.562 -1.0087  0.5893 -0.2397
  549MOL0     H75706   2.704  10.023   3.460  3.5629  3.0750  1.7843
  549MOL0     H75707   2.665  10.275   3.603  1.1818 -0.1097  1.6300
  549MOL0     H75708   2.774  10.146   3.656  0.3330 -3.4986  0.5581
  549MOL0     H75709   2.481  10.140   3.714  0.0933 -1.3870 -1.5005
  549MOL0     H75710   2.618  10.058   3.796  1.3568  0.4874 -1.6149
  549MOL0     H75711   2.772  10.185   3.970 -0.5128  0.0943  0.7529
  549MOL0     H75712   2.714  10.380   4.256  0.0309 -1.6700  0.0556
  549MOL0     H75713   2.755  10.521   4.152 -1.0813  0.6147 -0.0352
  549MOL0     H75714   2.929  10.369   4.043  1.8787 -1.0339 -0.0138
  549MOL0     H75715   2.977  10.430   4.192 -1.3738 -0.0588  0.8947
  549MOL0     H75716   2.967  10.249   4.310  0.9115  0.1819 -0.6350
  549MOL0     H75717   2.841  10.171   4.206 -1.1521 -0.0061  2.7576
  549MOL0     H75718   3.144  10.195   4.144  0.8984 -1.3712  2.9392
  549MOL0     H75719   3.063  10.051   4.179  0.1174 -0.0591  0.8105
  549MOL0     H75720   3.027  10.276   3.809 -0.7646 -2.1936  0.7533
  549MOL0     H75721   3.118  10.367   3.602  0.9993  2.0475  0.5366
  549MOL0     H75722   3.220  10.274   3.505 -4.4116  4.1221 -1.7358
  549MOL0     H75723   3.285  10.381   3.633  0.4003 -0.4204  0.3485
  549MOL0     H75724   3.669   9.796   3.569 -0.8017  0.1683 -4.2973
  549MOL0     H75725   3.896   9.807   3.466 -1.0230  0.2352 -0.1291
  549MOL0     H75726   4.121  10.201   3.496  0.1027  0.8382  1.3083
  549MOL0     H75727   4.189  10.087   3.620 -2.3659 -1.0100  0.3887
  549MOL0     H75728   4.285   9.953   3.422  2.0479  0.0126  1.1159
  549MOL0     H75729   4.253  10.090   3.320 -1.3888  0.0905 -0.3831
  549MOL0     H75730   4.436  10.068   3.569 -0.6245  3.6805  2.7307
  549MOL0     H75731   4.391  10.226   3.501 -1.9019 -1.7896  4.4503
  549MOL0     H75732   4.485  10.146   3.270 -0.8881  0.6655 -0.0268
  549MOL0     H75733   4.535  10.004   3.334 -1.6767  0.3455  0.1362
  549MOL0     H75734   4.648  10.278   3.417  1.1940 -0.2633  1.0432
  549MOL0     H75735   4.686  10.134   3.514 -1.6738 -0.6943  1.0060
  549MOL0     H75736   4.722  10.182   3.219  0.8756 -0.6875 -0.5807
  549MOL0     H75737   4.764  10.029   3.304 -2.1946  0.4151 -0.0685
  549MOL0     H75738   4.920  10.112   3.441 -2.3063  1.5991  1.6391
  549MOL0     H75739   4.907  10.280   3.377  0.7911  0.9855 -3.3917
  549MOL0     H75740   5.004  10.206   3.161  5.0703  2.6745  1.5261
  549MOL0     H75741   4.986  10.038   3.206 -1.7472 -0.7907  1.6306
  549MOL0     H75742   3.927  10.217   3.609 -1.1926  1.1379 -1.2838
  549MOL0     H75743   3.700  10.210   3.696 -0.5359 -0.1372 -0.1293
  549MOL0     H75744   3.386   9.937   3.848  0.9981  1.3494 -0.2955
  549MOL0     H75745   3.189   9.965   4.005  1.3757  0.5511  0.3186
  549MOL0     H75746   2.007   9.962   2.742  0.2307  2.9755  1.1319
  549MOL0     H75747   1.772   9.872   2.719  0.4938 -2.3568  0.3624
  549MOL0     H75748   1.322  10.033   2.810 -1.1406 -1.2273 -1.9593
  549MOL0     H75749   1.104   9.946   2.736  0.9547  0.7116 -1.0105
  549MOL0     H75750   0.930   9.858   2.677  2.4843  2.1301  2.9222
  549MOL0     H75751   0.837   9.716   2.678 -0.5162  0.4254 -0.0516
  549MOL0     H75752   0.860   9.864   2.941  1.8486 -0.4883  0.6237
  549MOL0     H75753   0.733   9.754   2.860  1.1865 -0.4741 -0.0762
  549MOL0     H75754   0.805  10.047   2.792 -1.1685  0.5911 -0.1284
  549MOL0     H75755   0.701   9.947   2.696 -1.4597  1.1765 -0.7192
  549MOL0     H75756   0.591  10.114   2.870 -0.2422  0.6629  3.5392
  549MOL0     H75757   0.661  10.018   2.988 -0.8230  2.3745  0.3585
  549MOL0     H75758   0.336   9.783   2.817 -1.3617  1.3209  1.1028
  549MOL0     H75759   1.182   9.597   2.980  1.1568 -0.0082 -0.6147
  549MOL0     H75760   1.484   9.736   3.141  1.0557 -1.4632 -0.7191
  549MOL0     H75761   1.333   9.686   3.185 -0.2056 -0.4180 -0.2359
  549MOL0     H75762   1.430   9.584   3.063 -0.0277 -0.1793 -2.9183
  550MOL0     O75763   6.389  10.763   7.632  0.1376 -0.8434 -0.8172
  550MOL0     C75764   6.328  10.695   7.553 -0.5723 -1.0855  0.3552
  550MOL0     O75765   6.390  10.609   7.472  0.6417 -0.2041  0.3520
  550MOL0     C75766   6.525  10.616   7.463 -0.3013  0.4798  0.1137
  550MOL0     C75767   6.590  10.723   7.393  0.4811 -1.0863  0.6044
  550MOL0     C75768   6.729  10.725   7.373  0.3681 -0.5296 -0.7916
  550MOL0     C75769   6.804  10.624   7.426  0.1386  1.2227  0.7686
  550MOL0     O75770   6.945  10.622   7.414 -0.4524  0.1907 -0.4040
  550MOL0     C75771   7.015  10.747   7.384  0.5028  0.2345 -0.0326
  550MOL0     C75772   7.166  10.740   7.419  0.0634 -0.3782  0.2821
  550MOL0     C75773   7.237  10.625   7.338  0.5930  0.3507 -0.5490
  550MOL0     C75774   7.375  10.667   7.284  1.0052 -0.8700  0.0086
  550MOL0     C75775   7.439  10.565   7.186 -1.2651 -0.1736  0.8563
  550MOL0     C75776   7.592  10.608   7.168  0.0473 -0.2809  0.2174
  550MOL0     C75777   7.659  10.519   7.064 -0.0817  0.2466  0.5066
  550MOL0     C75778   7.665  10.373   7.100  0.4298 -0.1808 -0.3831
  550MOL0     N75779   7.724  10.296   6.989 -0.4394  0.4072 -0.5193
  550MOL0     C75780   7.677  10.286   6.860 -0.1347 -0.3109 -0.8761
  550MOL0     C75781   7.764  10.193   6.801  0.5143  0.0878 -0.2970
  550MOL0     C75782   7.773  10.150   6.665  0.2738 -0.4612 -0.3312
  550MOL0     C75783   7.629  10.103   6.622  0.6949 -0.1332 -0.7317
  550MOL0     C75784   7.592   9.986   6.713  0.1391  0.3446 -0.7948
  550MOL0     C75785   7.435   9.983   6.737 -0.2707 -0.0265 -0.4889
  550MOL0     O75786   7.377  10.099   6.797  0.5425  0.1891  0.5181
  550MOL0     C75787   7.244  10.096   6.831  0.5042  0.2888  0.8019
  550MOL0     C75788   7.200  10.204   6.905 -0.2008 -0.8918 -0.1853
  550MOL0     C75789   7.072  10.213   6.959  0.0275 -0.0343  0.1295
  550MOL0     C75790   7.040  10.329   7.061  0.2575 -0.3982  1.1391
  550MOL0     C75791   6.970  10.109   6.927 -0.0278 -0.3946 -0.1582
  550MOL0     C75792   6.831  10.109   6.968 -0.1016 -0.0099 -0.5370
  550MOL0     O75793   6.788  10.218   7.037 -0.0493  0.7885  0.0633
  550MOL0     C75794   6.657  10.242   7.068  0.0621 -0.2707 -0.0059
  550MOL0     C75795   6.548  10.188   6.997 -0.2183 -0.7395  0.1049
  550MOL0     C75796   6.416  10.219   7.022 -0.4530 -0.3429  0.1457
  550MOL0     C75797   6.394  10.298   7.136  0.8309 -0.4327  0.6655
  550MOL0     O75798   6.264  10.314   7.165  0.3837  0.0014 -0.7939
  550MOL0     C75799   6.158  10.298   7.073 -0.7795  0.6977  0.6395
  550MOL0     C75800   6.041  10.379   7.122 -0.1916 -0.0078  0.2424
  550MOL0     C75801   5.908  10.345   7.053 -0.2067 -0.4357  0.3783
  550MOL0     C75802   5.893  10.410   6.922  1.2064 -0.1083  0.1580
  550MOL0     C75803   5.765  10.343   6.851  0.1648  0.3118  0.2621
  550MOL0     C75804   5.706  10.412   6.732  1.3053  0.3001 -1.0918
  550MOL0     C75805   5.623  10.317   6.639  0.1416  0.8107 -0.6332
  550MOL0     C75806   5.532  10.392   6.550 -0.2261 -0.3847  0.0697
  550MOL0    Cl75807   5.427  10.472   6.668 -0.1626 -0.1025  0.4292
  550MOL0     C75808   6.494  10.353   7.203 -0.2479 -0.2904  0.5113
  550MOL0     C75809   6.628  10.328   7.174  0.2037  0.4364 -0.0218
  550MOL0     O75810   6.761  10.010   6.941  0.0078  0.2241 -0.3102
  550MOL0     C75811   7.022  10.000   6.841  0.8863 -1.0949 -0.7323
  550MOL0     C75812   7.156   9.994   6.794 -0.3908  0.7381 -0.7177
  550MOL0     N75813   7.845  10.142   6.900 -0.3218  0.2096 -0.3409
  550MOL0     N75814   7.819  10.201   7.014  0.5053  0.3506  0.7682
  550MOL0     C75815   6.734  10.511   7.478 -0.2772 -0.5907 -0.6542
  550MOL0     C75816   6.603  10.508   7.511  0.6190  0.3656 -0.8316
  550MOL0     C75817   6.179  10.708   7.560  0.2235 -0.1695  1.3712
  550MOL0     C75818   6.119  10.734   7.683  0.4824  0.0764  0.0797
  550MOL0     C75819   5.981  10.762   7.700  0.4564 -0.3889 -0.0270
  550MOL0     C75820   5.891  10.749   7.589 -0.3797 -0.3449 -0.9785
  550MOL0     O75821   5.754  10.767   7.607  0.2036 -0.1247  0.2767
  550MOL0     C75822   5.672  10.767   7.483  0.1680  0.1207  0.2054
  550MOL0     C75823   5.527  10.812   7.502  0.3666 -0.2758 -0.2984
  550MOL0     C75824   5.508  10.965   7.512 -0.5691  0.1402 -0.8266
  550MOL0     C75825   5.518  11.009   7.653  0.1346  0.4646 -0.7776
  550MOL0     C75826   5.401  10.986   7.738  0.8549 -0.2671  0.1296
  550MOL0     C75827   5.302  10.988   7.816  0.0620  0.5422 -0.0922
  550MOL0     C75828   5.953  10.710   7.469  0.1808 -0.3730 -0.2954
  550MOL0     C75829   6.090  10.695   7.448 -0.1052 -0.4612 -0.5036
  550MOL0     C75830   6.143  10.661   7.312 -0.2942 -0.3191 -0.5363
  550MOL0     H75831   6.526  10.803   7.357 -0.4552 -3.0200 -2.4017
  550MOL0     H75832   6.770  10.807   7.315 -1.6389 -0.8321 -2.7487
  550MOL0     H75833   6.975  10.835   7.434  1.0765  0.6218 -0.2432
  550MOL0     H75834   7.011  10.779   7.279  1.2315  4.1473  0.9683
  550MOL0     H75835   7.211  10.830   7.377  0.7884 -0.1503  1.5163
  550MOL0     H75836   7.193  10.721   7.523  0.8397  0.0266  0.1601
  550MOL0     H75837   7.249  10.544   7.410 -1.0960  2.0935  1.8407
  550MOL0     H75838   7.187  10.578   7.252  4.2811 -4.0836 -0.6673
  550MOL0     H75839   7.369  10.763   7.233 -0.7042 -1.1844 -0.4439
  550MOL0     H75840   7.447  10.688   7.364  0.2371  0.4518  0.3944
  550MOL0     H75841   7.390  10.571   7.088 -0.8249  0.3105  0.6621
  550MOL0     H75842   7.422  10.465   7.228  3.0403  0.1932  4.1049
  550MOL0     H75843   7.601  10.715   7.147 -2.0757 -0.2247 -0.6589
  550MOL0     H75844   7.636  10.587   7.266  1.2732 -0.4314 -0.3575
  550MOL0     H75845   7.762  10.551   7.046  0.7494 -1.7890  1.2890
  550MOL0     H75846   7.608  10.528   6.968  0.2307 -2.1337  0.0383
  550MOL0     H75847   7.731  10.373   7.186 -0.9000  1.5655  0.7028
  550MOL0     H75848   7.564  10.338   7.125  1.1252 -1.9528  0.0290
  550MOL0     H75849   7.600  10.355   6.828  2.4811  2.3517 -1.8473
  550MOL0     H75850   7.847  10.073   6.644  1.3012 -0.2398  2.1821
  550MOL0     H75851   7.805  10.237   6.608  1.3447  1.6543  3.1719
  550MOL0     H75852   7.555  10.184   6.618  2.0740  1.2375  0.2211
  550MOL0     H75853   7.650  10.052   6.528  0.5301 -1.2493 -0.1760
  550MOL0     H75854   7.622   9.891   6.669 -0.8220 -0.8116  0.9363
  550MOL0     H75855   7.629   9.980   6.816  0.7641 -1.0484 -1.0799
  550MOL0     H75856   7.395   9.979   6.636 -0.2474  0.1532 -0.5045
  550MOL0     H75857   7.407   9.898   6.801  0.1030  0.8045  0.8339
  550MOL0     H75858   7.277  10.279   6.922 -0.3374 -0.7452 -0.2097
  550MOL0     H75859   7.130  10.385   7.090  0.3679 -0.3960  0.8017
  550MOL0     H75860   6.998  10.298   7.157 -2.7368 -1.2199 -0.3087
  550MOL0     H75861   6.982  10.410   7.015  3.0862  3.3799  3.5966
  550MOL0     H75862   6.554  10.130   6.905 -0.8274 -2.4371  1.0754
  550MOL0     H75863   6.345  10.172   6.954 -1.2330  0.0797  0.6487
  550MOL0     H75864   6.183  10.331   6.972 -1.4697  0.7157  0.4645
  550MOL0     H75865   6.120  10.196   7.072 -0.7882  0.7047 -0.7966
  550MOL0     H75866   6.037  10.363   7.230 -0.1258  4.4079  1.1089
  550MOL0     H75867   6.072  10.483   7.105 -1.9860  0.3147 -1.4736
  550MOL0     H75868   5.830  10.390   7.115 -0.3521 -1.1029  0.6860
  550MOL0     H75869   5.885  10.238   7.058 -0.7937 -0.3042  0.5498
  550MOL0     H75870   5.967  10.384   6.846  0.9403  1.3060 -0.6356
  550MOL0     H75871   5.875  10.517   6.938 -0.0453  0.1394 -2.3589
  550MOL0     H75872   5.805  10.246   6.820  2.7267  0.8678  1.5577
  550MOL0     H75873   5.698  10.329   6.937 -0.3572  3.3231  0.4738
  550MOL0     H75874   5.786  10.451   6.668  1.0934 -1.2185 -2.3126
  550MOL0     H75875   5.658  10.503   6.770  1.8118  0.3512 -0.5518
  550MOL0     H75876   5.564  10.244   6.695 -0.0763  0.1636 -1.6616
  550MOL0     H75877   5.693  10.257   6.579 -2.4567 -1.8034 -1.3045
  550MOL0     H75878   5.464  10.338   6.484 -0.3799  1.2615 -1.1892
  550MOL0     H75879   5.592  10.461   6.490 -1.2060 -0.5303 -1.0968
  550MOL0     H75880   6.479  10.427   7.282  0.3828 -0.6035  0.9332
  550MOL0     H75881   6.704  10.372   7.238 -1.7611  0.3090  2.5476
  550MOL0     H75882   6.953   9.921   6.813  0.8225 -1.3307  0.0785
  550MOL0     H75883   7.188   9.914   6.729  1.1550  2.6477 -2.4666
  550MOL0     H75884   6.795  10.427   7.509  1.3778  1.2812  1.5168
  550MOL0     H75885   6.567  10.423   7.568  1.2943  1.0343  0.6298
  550MOL0     H75886   6.190  10.733   7.765  1.5480 -4.2579 -0.6250
  550MOL0     H75887   5.949  10.774   7.803  1.3639 -0.6045  0.2815
  550MOL0     H75888   5.728  10.823   7.407  1.7186  1.4404  2.2063
  550MOL0     H75889   5.672  10.660   7.464 -2.4230 -0.3419  2.3533
  550MOL0     H75890   5.488  10.759   7.589 -0.6153  0.1731 -0.4513
  550MOL0     H75891   5.472  10.768   7.419  2.4101  0.0901 -1.9353
  550MOL0     H75892   5.580  11.021   7.452  0.2851 -0.2505 -0.1754
  550MOL0     H75893   5.412  10.996   7.469 -0.9640  0.6830  0.4275
  550MOL0     H75894   5.531  11.117   7.647  1.2139  0.3692 -0.3328
  550MOL0     H75895   5.612  10.970   7.694 -0.7089 -3.2615 -1.9896
  550MOL0     H75896   5.223  10.989   7.888 -2.6281  3.7179 -2.7049
  550MOL0     H75897   5.893  10.667   7.389  0.1142 -0.3128 -0.2767
  550MOL0     H75898   6.067  10.680   7.236  0.4763  1.7757 -0.8675
  550MOL0     H75899   6.222  10.730   7.281 -1.5085 -0.0696 -3.4540
  550MOL0     H75900   6.166  10.554   7.313 -0.1375 -0.2990  0.9243
  551MOL0     O75901   4.710   5.728   4.515  0.7485 -0.2233 -0.9405
  551MOL0     C75902   4.649   5.707   4.411  0.0726 -0.4215  0.4221
  551MOL0     O75903   4.704   5.669   4.300 -0.4796 -0.4164  0.7215
  551MOL0     C75904   4.816   5.595   4.293 -1.8156 -0.0694 -0.2159
  551MOL0     C75905   4.927   5.655   4.229 -0.4595  0.0275 -0.7578
  551MOL0     C75906   5.061   5.612   4.253 -0.1884  0.1411  0.1775
  551MOL0     C75907   5.091   5.494   4.326 -0.0972 -0.0104  0.4576
  551MOL0     O75908   5.216   5.429   4.325  0.2058 -0.0606  0.2028
  551MOL0     C75909   5.325   5.498   4.256  0.1901 -0.4350  0.3909
  551MOL0     C75910   5.444   5.402   4.277  0.5068  0.6406  0.6086
  551MOL0     C75911   5.492   5.369   4.419 -0.1619 -0.1608  0.1673
  551MOL0     C75912   5.576   5.491   4.465  1.1890 -0.3596  0.6783
  551MOL0     C75913   5.654   5.449   4.597 -0.1036  0.2917  0.2689
  551MOL0     C75914   5.557   5.408   4.719 -0.3585 -0.1234  0.0150
  551MOL0     C75915   5.612   5.297   4.797 -0.2681  0.5165 -0.4096
  551MOL0     C75916   5.687   5.342   4.927  0.1231 -0.7415  0.1632
  551MOL0     N75917   5.769   5.242   4.979  0.0630 -0.0656  0.6170
  551MOL0     C75918   5.891   5.195   4.941 -0.6325  0.4613 -0.1005
  551MOL0     C75919   5.930   5.113   5.049 -0.2806 -0.2040  0.4743
  551MOL0     C75920   6.057   5.032   5.069  0.6670 -0.2326 -0.3741
  551MOL0     C75921   6.125   5.042   5.202 -0.4481  0.4365 -0.2409
  551MOL0     C75922   6.257   4.961   5.211 -0.3174 -0.3469  0.2105
  551MOL0     C75923   6.241   4.807   5.193  0.3526 -0.9522 -0.4226
  551MOL0     O75924   6.362   4.740   5.161  0.4977 -0.2362 -0.8253
  551MOL0     C75925   6.432   4.778   5.052 -0.0398 -0.1865 -0.4949
  551MOL0     C75926   6.382   4.824   4.931 -0.5256 -0.0580  0.1390
  551MOL0     C75927   6.462   4.840   4.815  0.5044 -0.5453  0.5754
  551MOL0     C75928   6.403   4.885   4.678  0.8096  0.2265 -0.0528
  551MOL0     C75929   6.604   4.818   4.825 -0.4130  0.9083  0.4669
  551MOL0     C75930   6.703   4.817   4.711  0.5601 -0.4738 -0.5371
  551MOL0     O75931   6.806   4.731   4.720 -0.3435 -0.3736 -0.1073
  551MOL0     C75932   6.898   4.716   4.613 -0.3717  0.0026 -0.4120
  551MOL0     C75933   6.882   4.741   4.478 -0.1877  0.2178  0.7488
  551MOL0     C75934   6.989   4.708   4.395  0.0414  0.1139  0.5666
  551MOL0     C75935   7.106   4.637   4.438  0.1716 -0.2473 -0.8900
  551MOL0     O75936   7.206   4.584   4.361  0.3047  0.0108  0.2996
  551MOL0     C75937   7.194   4.584   4.218  0.1361 -0.4813  0.6039
  551MOL0     C75938   7.294   4.482   4.154 -0.2521 -0.8730  0.3030
  551MOL0     C75939   7.441   4.515   4.187  0.6539  0.1516 -0.0250
  551MOL0     C75940   7.522   4.529   4.065 -0.0367 -0.0004  0.8630
  551MOL0     C75941   7.658   4.591   4.111 -0.4108  0.6329 -0.5373
  551MOL0     C75942   7.759   4.630   3.993  0.2949 -0.0844 -0.1403
  551MOL0     C75943   7.895   4.694   4.048 -0.1470 -0.0625  0.4665
  551MOL0     C75944   7.991   4.588   4.099 -0.0363  0.3451 -0.2466
  551MOL0    Cl75945   8.114   4.677   4.190 -0.5955  0.4018  0.2185
  551MOL0     C75946   7.109   4.607   4.573  0.2397  0.6223  0.4078
  551MOL0     C75947   7.010   4.647   4.660  0.8010  0.5376 -0.0453
  551MOL0     O75948   6.685   4.900   4.618  0.1182 -0.2083 -0.4849
  551MOL0     C75949   6.654   4.775   4.947 -0.0478  0.2592  0.3200
  551MOL0     C75950   6.572   4.754   5.061  0.4469 -1.1008  0.3473
  551MOL0     N75951   5.834   5.114   5.151 -0.7518 -0.4991 -0.1659
  551MOL0     N75952   5.741   5.191   5.109  0.8640 -0.4289  0.3166
  551MOL0     C75953   4.976   5.429   4.382  0.3832  0.0129  0.9871
  551MOL0     C75954   4.843   5.482   4.364  0.5261  0.6044  0.0812
  551MOL0     C75955   4.500   5.717   4.404  0.1215  0.0781  0.8571
  551MOL0     C75956   4.434   5.661   4.292  0.1076  0.0751 -0.2114
  551MOL0     C75957   4.305   5.678   4.267  0.1836 -0.3034  0.0769
  551MOL0     C75958   4.223   5.744   4.361 -0.2567 -0.3027  0.8119
  551MOL0     O75959   4.091   5.762   4.325 -0.1996  0.0051 -0.4492
  551MOL0     C75960   4.007   5.840   4.415  0.1990  0.0450 -0.0062
  551MOL0     C75961   3.865   5.868   4.363 -0.0054 -0.2720 -0.5332
  551MOL0     C75962   3.773   5.755   4.400 -0.8037 -0.5074  0.0510
  551MOL0     C75963   3.801   5.613   4.353  0.1527  0.3240  0.0669
  551MOL0     C75964   3.799   5.594   4.207 -0.2794 -0.3175  0.2588
  551MOL0     C75965   3.825   5.572   4.090  0.6721  0.2007  0.8059
  551MOL0     C75966   4.285   5.787   4.481  0.2272 -0.0843 -0.8188
  551MOL0     C75967   4.417   5.767   4.513 -0.8812  0.1709  0.1139
  551MOL0     C75968   4.463   5.810   4.649 -0.1709 -0.0595 -0.4315
  551MOL0     H75969   4.912   5.745   4.170 -1.2373  1.6589  1.8001
  551MOL0     H75970   5.148   5.672   4.228 -0.5268  1.5496  2.1370
  551MOL0     H75971   5.340   5.599   4.295 -0.7656  0.8182 -2.2534
  551MOL0     H75972   5.299   5.504   4.150  1.4958 -0.4147  0.0533
  551MOL0     H75973   5.412   5.307   4.234 -0.7381  1.7000 -0.8880
  551MOL0     H75974   5.531   5.431   4.218  1.8759 -1.6395  1.3669
  551MOL0     H75975   5.406   5.345   4.482 -0.4135  1.0891  0.3235
  551MOL0     H75976   5.555   5.280   4.413  1.7087  1.0978  0.5086
  551MOL0     H75977   5.660   5.516   4.399  1.0295 -0.4300  0.4462
  551MOL0     H75978   5.511   5.577   4.482 -1.7669 -2.4282  0.6296
  551MOL0     H75979   5.718   5.531   4.628 -1.2749  1.9657 -1.4704
  551MOL0     H75980   5.733   5.379   4.568 -2.0538 -1.0616 -2.1885
  551MOL0     H75981   5.529   5.488   4.787 -4.3499  1.8134 -3.4585
  551MOL0     H75982   5.462   5.384   4.671 -0.6210  1.7361 -0.4441
  551MOL0     H75983   5.681   5.243   4.731  1.0374 -2.5237  3.0780
  551MOL0     H75984   5.536   5.222   4.822  0.4505 -0.5798 -1.4017
  551MOL0     H75985   5.744   5.434   4.906 -2.4437  0.7566 -0.6845
  551MOL0     H75986   5.615   5.380   5.000  1.5465  0.0395  1.1982
  551MOL0     H75987   5.946   5.219   4.851 -1.5497  0.3166 -0.7216
  551MOL0     H75988   6.130   5.059   4.993  0.8414 -2.3376 -1.0362
  551MOL0     H75989   6.030   4.927   5.051  0.1331 -0.3456  0.9482
  551MOL0     H75990   6.151   5.146   5.219 -3.9246  1.6493 -1.3944
  551MOL0     H75991   6.053   5.005   5.276  1.2463 -0.8756  0.8359
  551MOL0     H75992   6.318   4.994   5.126  1.0536 -1.7197  0.6159
  551MOL0     H75993   6.307   4.982   5.306 -2.4388  2.9287  0.7756
  551MOL0     H75994   6.196   4.772   5.287  0.0302  1.2971  0.3240
  551MOL0     H75995   6.159   4.775   5.128 -1.2189 -2.3757  2.0959
  551MOL0     H75996   6.277   4.847   4.919 -0.5025 -0.3253 -0.6070
  551MOL0     H75997   6.432   4.810   4.603  1.1655 -0.5946  0.8884
  551MOL0     H75998   6.440   4.984   4.650  0.7759  0.6033  1.2039
  551MOL0     H75999   6.294   4.887   4.681  0.8326  2.9764  2.7771
  551MOL0     H76000   6.794   4.791   4.440  0.0655 -0.3998 -0.7236
  551MOL0     H76001   6.960   4.730   4.293 -3.1654  2.6142  1.8499
  551MOL0     H76002   7.090   4.563   4.189 -1.0149  1.8031  2.6773
  551MOL0     H76003   7.209   4.683   4.174  3.7281 -1.6661 -1.1974
  551MOL0     H76004   7.277   4.382   4.193  4.5935 -1.4813  1.3730
  551MOL0     H76005   7.280   4.480   4.045 -4.2429  2.2432  0.5141
  551MOL0     H76006   7.483   4.428   4.238  1.5625  0.8254  0.4062
  551MOL0     H76007   7.443   4.602   4.253  0.4255 -0.1368  0.3674
  551MOL0     H76008   7.470   4.604   4.004 -0.1231  0.3269  1.3306
  551MOL0     H76009   7.534   4.437   4.007 -4.9765  1.2692 -2.8815
  551MOL0     H76010   7.646   4.676   4.179 -0.1671  0.9147 -0.8422
  551MOL0     H76011   7.709   4.514   4.170  0.7071  1.6767 -0.1032
  551MOL0     H76012   7.716   4.708   3.929  1.1780  0.7671  0.2667
  551MOL0     H76013   7.786   4.553   3.920 -1.1129  0.3772 -1.2018
  551MOL0     H76014   7.862   4.763   4.126 -0.0571  1.7290 -1.0069
  551MOL0     H76015   7.948   4.745   3.966  1.9824 -0.4964  1.5097
  551MOL0     H76016   8.025   4.516   4.024 -2.5639 -1.9222  0.6159
  551MOL0     H76017   7.943   4.529   4.178  3.0489 -1.1587  0.6484
  551MOL0     H76018   7.193   4.556   4.619  2.2473  2.7111 -0.7333
  551MOL0     H76019   7.008   4.609   4.761 -0.7916  1.3526  0.2687
  551MOL0     H76020   6.762   4.764   4.949 -0.0400 -0.8507 -2.4810
  551MOL0     H76021   6.606   4.732   5.161 -0.8296 -0.5219  0.9354
  551MOL0     H76022   4.982   5.332   4.431  1.5296 -0.3037  0.2760
  551MOL0     H76023   4.756   5.437   4.410 -0.8017  0.1969 -2.6375
  551MOL0     H76024   4.488   5.609   4.214  1.0503 -0.2305  0.6181
  551MOL0     H76025   4.260   5.640   4.176 -0.8372 -1.5014  1.0509
  551MOL0     H76026   3.998   5.785   4.509 -0.0088  1.7217  0.9924
  551MOL0     H76027   4.051   5.938   4.436  1.8830  0.0238 -2.9025
  551MOL0     H76028   3.861   5.887   4.256 -2.5168  3.1668 -0.0345
  551MOL0     H76029   3.825   5.957   4.414  0.4437  0.0812 -0.7994
  551MOL0     H76030   3.770   5.752   4.510  1.0984 -3.0299  0.1416
  551MOL0     H76031   3.676   5.796   4.372  0.0965  3.0398  1.5512
  551MOL0     H76032   3.723   5.549   4.395 -1.3635  1.7491 -0.4632
  551MOL0     H76033   3.894   5.579   4.399 -0.4761  1.3302  2.2089
  551MOL0     H76034   3.845   5.561   3.986  3.4767  2.7865  0.9301
  551MOL0     H76035   4.225   5.816   4.567  1.2153  1.3281 -0.5689
  551MOL0     H76036   4.498   5.913   4.639 -2.3250  1.0879  2.4905
  551MOL0     H76037   4.374   5.816   4.713 -1.2523 -1.5978 -1.6851
  551MOL0     H76038   4.528   5.733   4.691 -1.0766 -2.0678 -2.4824
  552MOL0     O76039   5.468   3.131   6.414 -0.7219  0.4265  0.0526
  552MOL0     C76040   5.480   3.202   6.312  0.0099 -0.5556  0.2202
  552MOL0     O76041   5.599   3.249   6.256 -0.5811 -0.5951 -0.9487
  552MOL0     C76042   5.718   3.206   6.312  0.9251 -0.2247 -0.2902
  552MOL0     C76043   5.766   3.284   6.418  0.2007  0.0624 -0.3401
  552MOL0     C76044   5.886   3.255   6.485  1.1786 -0.3555  1.1148
  552MOL0     C76045   5.955   3.142   6.462 -0.4082  0.5383 -0.1273
  552MOL0     O76046   6.057   3.115   6.550 -0.2306 -0.3787  0.5072
  552MOL0     C76047   6.132   2.998   6.513  1.0884 -0.3905  0.3770
  552MOL0     C76048   6.240   2.999   6.618  0.0327 -0.2310 -0.4820
  552MOL0     C76049   6.344   2.884   6.598  0.4646  0.3973  0.9236
  552MOL0     C76050   6.457   2.875   6.705 -0.6044 -0.1672 -0.6448
  552MOL0     C76051   6.497   2.730   6.730 -0.5223  0.6308  0.0587
  552MOL0     C76052   6.607   2.722   6.832 -0.4678  0.2450 -0.1344
  552MOL0     C76053   6.689   2.596   6.816 -0.2631  0.3202  1.1131
  552MOL0     C76054   6.608   2.474   6.844 -0.0412 -0.5644 -0.6066
  552MOL0     N76055   6.687   2.348   6.837  0.0358 -0.6876 -0.0986
  552MOL0     C76056   6.808   2.314   6.904  0.1669 -0.4565  0.2681
  552MOL0     C76057   6.827   2.189   6.865 -0.7756  0.6587 -0.3802
  552MOL0     C76058   6.922   2.085   6.908  0.8863 -0.4340 -0.1199
  552MOL0     C76059   7.059   2.114   6.842  0.3625 -0.1150  0.2023
  552MOL0     C76060   7.145   2.205   6.920 -0.7057  0.9069 -0.3631
  552MOL0     C76061   7.273   2.203   6.837 -0.1639 -0.6756  0.1902
  552MOL0     O76062   7.357   2.290   6.913  0.0072 -0.5287 -0.1251
  552MOL0     C76063   7.489   2.260   6.912 -0.0081 -0.0908 -0.4590
  552MOL0     C76064   7.553   2.298   7.033  0.0529 -0.2575  0.1091
  552MOL0     C76065   7.694   2.282   7.034 -0.1830 -0.1628  1.2726
  552MOL0     C76066   7.754   2.333   7.161 -0.1148 -0.0599  1.3463
  552MOL0     C76067   7.765   2.250   6.920 -0.2660  0.5088  0.4278
  552MOL0     C76068   7.910   2.249   6.912 -0.5416 -0.3727  0.3035
  552MOL0     O76069   7.983   2.341   6.986  0.5360 -0.2044  0.1761
  552MOL0     C76070   8.124   2.321   7.005  0.0071 -1.0971  0.9498
  552MOL0     C76071   8.189   2.196   6.998 -0.1441 -0.8806 -0.3163
  552MOL0     C76072   8.330   2.189   7.014 -0.4321  0.4453 -0.1799
  552MOL0     C76073   8.407   2.310   7.021  0.4129  0.1894  0.1949
  552MOL0     O76074   8.545   2.299   7.052 -0.3228  0.0559 -0.1325
  552MOL0     C76075   8.626   2.411   7.079 -0.1816 -0.0843  0.4587
  552MOL0     C76076   8.762   2.362   7.117  0.1840  0.6946  0.8400
  552MOL0     C76077   8.833   2.465   7.198  0.0372  0.0835  0.4990
  552MOL0     C76078   8.983   2.420   7.211  0.8343  0.1033 -0.4906
  552MOL0     C76079   9.049   2.515   7.312  0.6768  0.0183  0.9569
  552MOL0     C76080   9.196   2.547   7.272  0.0067  0.6016  0.2045
  552MOL0     C76081   9.241   2.680   7.348 -0.5393 -0.5522 -0.5038
  552MOL0     C76082   9.316   2.776   7.256 -0.2315  0.2580  0.6979
  552MOL0    Cl76083   9.465   2.846   7.331  0.1913  0.1744 -0.1374
  552MOL0     C76084   8.329   2.429   7.034  0.0685 -0.4300 -0.9347
  552MOL0     C76085   8.194   2.437   7.025  0.0312  0.2820 -0.5856
  552MOL0     O76086   7.961   2.168   6.836  0.1248  0.4100 -0.3868
  552MOL0     C76087   7.695   2.196   6.812  0.2613  0.3604  0.5948
  552MOL0     C76088   7.554   2.205   6.809  0.3240  0.1124 -0.0699
  552MOL0     N76089   6.726   2.158   6.777  0.1775  0.3585 -0.3689
  552MOL0     N76090   6.643   2.256   6.756 -0.3717  0.6346  0.5095
  552MOL0     C76091   5.910   3.064   6.352  0.1395 -0.4364  0.0268
  552MOL0     C76092   5.785   3.084   6.281 -0.3800 -0.1691 -0.5179
  552MOL0     C76093   5.361   3.233   6.226  0.0523 -0.7405  0.6690
  552MOL0     C76094   5.384   3.220   6.089 -0.3372 -0.2441  0.5007
  552MOL0     C76095   5.288   3.238   5.991  0.5227 -0.0691 -0.3316
  552MOL0     C76096   5.153   3.259   6.026 -0.3256 -0.0232  1.2331
  552MOL0     O76097   5.060   3.276   5.925 -0.6689  0.0421  0.3173
  552MOL0     C76098   4.976   3.174   5.901 -0.4106  0.8997 -0.4608
  552MOL0     C76099   4.907   3.192   5.764  0.0553 -0.1512 -0.1684
  552MOL0     C76100   4.995   3.245   5.655  0.6728 -0.7342  1.5116
  552MOL0     C76101   4.911   3.258   5.525  0.6943 -0.3212  0.3471
  552MOL0     C76102   4.985   3.324   5.414 -0.3526  0.6273  0.3513
  552MOL0     C76103   5.051   3.362   5.313  0.3611  0.9856 -0.1303
  552MOL0     C76104   5.131   3.274   6.168  0.9325 -1.3933  0.2948
  552MOL0     C76105   5.234   3.270   6.261  1.1840  0.7139 -0.9326
  552MOL0     C76106   5.193   3.298   6.409  0.3629  0.2907  0.6070
  552MOL0     H76107   5.715   3.372   6.457 -0.4006 -0.4484  0.0495
  552MOL0     H76108   5.917   3.327   6.560  0.4672  2.5376 -1.1844
  552MOL0     H76109   6.170   3.013   6.412 -0.3258  0.7683 -0.0201
  552MOL0     H76110   6.078   2.903   6.522 -1.4593  0.8871 -0.2664
  552MOL0     H76111   6.298   3.092   6.610  0.0598 -0.4081 -3.1127
  552MOL0     H76112   6.197   2.998   6.719  1.3918 -0.3976  0.1121
  552MOL0     H76113   6.292   2.789   6.616  0.5586  0.0629 -0.4491
  552MOL0     H76114   6.376   2.878   6.494 -0.2577 -1.1630  0.7596
  552MOL0     H76115   6.533   2.947   6.675 -1.2835  0.2910 -1.3257
  552MOL0     H76116   6.414   2.909   6.799 -0.5959  0.9165 -1.0236
  552MOL0     H76117   6.536   2.683   6.640  0.2613  0.2796  0.5711
  552MOL0     H76118   6.413   2.672   6.769  0.7352 -0.5906  1.0407
  552MOL0     H76119   6.679   2.802   6.811 -0.5624 -0.1339 -2.0924
  552MOL0     H76120   6.575   2.731   6.936  1.1919  1.3636  0.3148
  552MOL0     H76121   6.769   2.598   6.891 -0.6400 -3.3631  1.8301
  552MOL0     H76122   6.728   2.581   6.715 -3.3934  1.5424 -0.3918
  552MOL0     H76123   6.581   2.473   6.950  2.1352 -3.6516  0.0532
  552MOL0     H76124   6.516   2.470   6.785  0.2260  0.3844 -1.1153
  552MOL0     H76125   6.863   2.367   6.982 -0.5657 -1.5168  1.5527
  552MOL0     H76126   6.881   1.987   6.883 -2.4743  0.3718  1.5470
  552MOL0     H76127   6.942   2.094   7.015  0.2633 -0.9758  0.0440
  552MOL0     H76128   7.113   2.019   6.843  0.7474  0.1042  0.7082
  552MOL0     H76129   7.051   2.151   6.740 -0.6444  2.3880  1.1148
  552MOL0     H76130   7.101   2.303   6.939  0.5368  1.0651  2.2118
  552MOL0     H76131   7.168   2.168   7.021  0.2549 -2.0517 -1.5456
  552MOL0     H76132   7.321   2.105   6.840  1.1728 -0.3173 -3.6353
  552MOL0     H76133   7.259   2.238   6.734 -1.4783  0.7954  0.8411
  552MOL0     H76134   7.508   2.351   7.116  0.6388  1.5065 -0.6642
  552MOL0     H76135   7.798   2.250   7.216  0.1293 -0.2987  0.7921
  552MOL0     H76136   7.690   2.405   7.214  1.1931  1.5163  0.8677
  552MOL0     H76137   7.838   2.402   7.148 -1.2506  1.2195  0.4693
  552MOL0     H76138   8.130   2.105   6.996 -2.0646  0.2237  1.9464
  552MOL0     H76139   8.364   2.087   7.034 -3.8580 -0.5325  1.4234
  552MOL0     H76140   8.618   2.487   7.000 -1.7971  1.5553  2.1085
  552MOL0     H76141   8.577   2.456   7.166 -3.3705  0.9821 -1.7033
  552MOL0     H76142   8.760   2.265   7.168  1.5380  0.6922  0.9095
  552MOL0     H76143   8.807   2.342   7.020 -3.4368 -0.9126 -0.6802
  552MOL0     H76144   8.776   2.477   7.290 -3.5498  0.6106 -1.6248
  552MOL0     H76145   8.835   2.564   7.151 -1.9335  0.5576  1.3399
  552MOL0     H76146   9.040   2.433   7.118 -1.0121  1.9080 -1.4518
  552MOL0     H76147   8.989   2.319   7.252  0.6545  0.2774 -0.0318
  552MOL0     H76148   8.996   2.610   7.313  0.6715  0.0518 -0.4965
  552MOL0     H76149   9.056   2.468   7.410 -1.0119 -2.6367 -0.0729
  552MOL0     H76150   9.197   2.564   7.164 -0.3643  2.3528  0.4385
  552MOL0     H76151   9.268   2.470   7.298  2.1301  1.1332 -3.4644
  552MOL0     H76152   9.311   2.656   7.428 -0.0651  1.2170 -0.3508
  552MOL0     H76153   9.159   2.735   7.394  0.3198  0.2143  0.1509
  552MOL0     H76154   9.255   2.856   7.214 -0.8602  0.2064  1.4700
  552MOL0     H76155   9.363   2.714   7.178  1.3551 -0.9121  2.4768
  552MOL0     H76156   8.361   2.531   7.055 -0.8739 -0.4372  0.6613
  552MOL0     H76157   8.140   2.530   7.031  0.5816  0.6497 -1.1573
  552MOL0     H76158   7.745   2.159   6.724 -0.6736  2.2373 -0.7840
  552MOL0     H76159   7.506   2.156   6.725 -1.7202  0.8896  0.6024
  552MOL0     H76160   5.971   2.981   6.318  1.5576  0.4068  0.4605
  552MOL0     H76161   5.750   3.034   6.191  0.5491 -0.7425 -0.5739
  552MOL0     H76162   5.480   3.181   6.057 -0.9826 -1.3626 -0.1355
  552MOL0     H76163   5.314   3.219   5.887 -0.3653  0.6692 -0.7104
  552MOL0     H76164   5.031   3.079   5.902  0.7270  1.5310 -1.0358
  552MOL0     H76165   4.906   3.171   5.985  0.4707 -0.8727  0.2648
  552MOL0     H76166   4.831   3.267   5.787 -2.0951 -2.1247 -0.4254
  552MOL0     H76167   4.866   3.097   5.727 -0.2754 -0.2834  0.5179
  552MOL0     H76168   5.038   3.344   5.674  0.4414 -0.2992 -0.1003
  552MOL0     H76169   5.075   3.173   5.636  1.6365  0.5300  0.6063
  552MOL0     H76170   4.820   3.316   5.547  1.0183  1.4088 -2.4137
  552MOL0     H76171   4.886   3.154   5.502  1.3027 -1.2447  3.4420
  552MOL0     H76172   5.102   3.387   5.222  0.0561 -0.2380 -0.6503
  552MOL0     H76173   5.029   3.294   6.201  0.8732 -1.6015  0.2393
  552MOL0     H76174   5.240   3.218   6.467  0.1409 -1.2961 -1.2863
  552MOL0     H76175   5.223   3.395   6.451  3.3509  0.1949 -1.0069
  552MOL0     H76176   5.084   3.288   6.414  0.2973 -0.3865 -1.4416
  553MOL0     O76177   8.610  10.745   1.579  0.4730  0.6675 -0.2953
  553MOL0     C76178   8.586  10.650   1.500  0.4396 -0.2383 -0.3079
  553MOL0     O76179   8.684  10.585   1.431  0.3173  0.0312  0.6167
  553MOL0     C76180   8.805  10.589   1.486 -0.2093 -0.1395 -0.0640
  553MOL0     C76181   8.896  10.685   1.448  1.0937 -0.1310 -0.0792
  553MOL0     C76182   9.025  10.680   1.498 -0.3995 -0.3498  0.0816
  553MOL0     C76183   9.064  10.587   1.596 -0.4216 -0.1250  1.0641
  553MOL0     O76184   9.187  10.601   1.655 -0.2345 -0.6249 -0.2933
  553MOL0     C76185   9.268  10.483   1.701 -0.3844 -0.2280 -0.0721
  553MOL0     C76186   9.396  10.533   1.785 -0.1114 -0.3647  0.6431
  553MOL0     C76187   9.478  10.418   1.843  0.0510  0.3356 -0.1389
  553MOL0     C76188   9.550  10.481   1.963  0.4978 -0.2369 -0.2175
  553MOL0     C76189   9.667  10.400   2.026 -0.5635  0.0717  0.7607
  553MOL0     C76190   9.806  10.414   1.957 -0.1025 -0.1024 -0.9701
  553MOL0     C76191   9.913  10.393   2.067  0.4490  0.4161  0.0828
  553MOL0     C76192  10.043  10.340   2.009 -0.2953  0.0778  0.3820
  553MOL0     N76193  10.153  10.375   2.103  0.0713  0.2623 -0.5083
  553MOL0     C76194  10.211  10.499   2.107  0.1441 -0.6327  0.1808
  553MOL0     C76195  10.271  10.496   2.219  0.1728  0.4714  0.1446
  553MOL0     C76196  10.336  10.617   2.281  0.8461  0.4531 -1.0377
  553MOL0     C76197  10.464  10.670   2.213  0.0540 -0.0138  0.0700
  553MOL0     C76198  10.570  10.563   2.238 -0.8067 -0.7281 -0.0212
  553MOL0     C76199  10.650  10.607   2.362  0.1731 -0.5661 -0.4040
  553MOL0     O76200  10.730  10.719   2.329  0.5205 -0.0528  0.3538
  553MOL0     C76201  10.866  10.721   2.362 -0.4237  0.5858 -1.3414
  553MOL0     C76202  10.900  10.722   2.496  0.5966 -0.3728 -0.3980
  553MOL0     C76203  11.035  10.735   2.539  0.3362  0.4966  0.4370
  553MOL0     C76204  11.060  10.750   2.684 -0.0064 -0.5199  0.7337
  553MOL0     C76205  11.131  10.755   2.438 -0.4530  0.6408 -0.3193
  553MOL0     C76206  11.271  10.770   2.451  0.1792  0.6712 -0.2741
  553MOL0     O76207  11.320  10.748   2.575  0.2521 -0.7308  0.5759
  553MOL0     C76208  11.449  10.721   2.602 -0.1465 -0.3694  0.6924
  553MOL0     C76209  11.534  10.831   2.639 -0.6431  0.2224  0.3138
  553MOL0     C76210  11.673  10.806   2.653  0.1233 -0.7624  0.2860
  553MOL0     C76211  11.719  10.670   2.623 -0.3418 -0.1649 -0.0372
  553MOL0     O76212  11.851  10.635   2.642 -0.2309  0.3442 -0.8203
  553MOL0     C76213  11.953  10.722   2.606  0.3658 -0.1773 -0.1493
  553MOL0     C76214  12.090  10.662   2.647  0.7295  0.0911 -0.3159
  553MOL0     C76215  12.197  10.777   2.650 -0.1250  0.0737  0.8320
  553MOL0     C76216  12.324  10.732   2.722  0.1611  0.8726  0.2229
  553MOL0     C76217  12.438  10.833   2.726  0.0647 -0.5969  0.4068
  553MOL0     C76218  12.534  10.822   2.830  1.1207  0.6933  0.0833
  553MOL0     C76219  12.608  10.951   2.876  0.2639  0.0844 -0.1139
  553MOL0     C76220  12.721  10.930   2.978 -0.0530  0.2473 -0.0121
  553MOL0    Cl76221  12.742  11.065   3.081 -0.0995 -0.2509 -0.4586
  553MOL0     C76222  11.629  10.568   2.597  0.7093 -0.1574 -0.9408
  553MOL0     C76223  11.492  10.590   2.593 -0.1407  0.1383 -0.3684
  553MOL0     O76224  11.346  10.797   2.353  0.7702  0.1147  0.3455
  553MOL0     C76225  11.086  10.736   2.310  0.1864  0.1543  0.5232
  553MOL0     C76226  10.959  10.724   2.262  0.1269 -0.3422  0.7073
  553MOL0     N76227  10.260  10.370   2.284  0.0508 -1.4833  0.2838
  553MOL0     N76228  10.184  10.301   2.210 -0.6553 -1.0072 -0.2189
  553MOL0     C76229   8.970  10.495   1.633  0.6426  0.1959 -0.7298
  553MOL0     C76230   8.847  10.490   1.578  0.0381 -0.9035 -0.4219
  553MOL0     C76231   8.441  10.636   1.470  0.0545  0.2018 -0.3019
  553MOL0     C76232   8.355  10.730   1.522  0.0547  0.3531  0.8107
  553MOL0     C76233   8.218  10.724   1.507  0.3018  0.3600 -0.6398
  553MOL0     C76234   8.161  10.608   1.441  0.1007 -0.3728  0.0266
  553MOL0     O76235   8.026  10.603   1.432 -0.0643  0.3710  0.1334
  553MOL0     C76236   7.964  10.481   1.387  0.2967 -0.7047  0.8597
  553MOL0     C76237   7.810  10.481   1.413 -0.0814 -0.1711 -0.4014
  553MOL0     C76238   7.725  10.562   1.324  0.5818  0.7100  0.2213
  553MOL0     C76239   7.710  10.488   1.183  0.8185 -0.5988  0.1609
  553MOL0     C76240   7.650  10.597   1.095  0.7177 -0.5230  0.2535
  553MOL0     C76241   7.607  10.682   1.026 -0.6345  0.5001  1.0340
  553MOL0     C76242   8.254  10.520   1.376  0.9084 -0.8834 -0.5543
  553MOL0     C76243   8.391  10.528   1.396  0.2902 -0.1159 -0.1718
  553MOL0     C76244   8.468  10.420   1.338 -0.3205  1.0405  0.5411
  553MOL0     H76245   8.872  10.770   1.385  0.6461  0.6745  1.1414
  553MOL0     H76246   9.088  10.764   1.471 -1.8669  1.2169  1.2601
  553MOL0     H76247   9.305  10.430   1.613 -1.8159 -1.0171 -0.2332
  553MOL0     H76248   9.210  10.412   1.761 -2.6996  1.7354  0.1327
  553MOL0     H76249   9.465  10.588   1.720  0.2765  0.7956  1.9966
  553MOL0     H76250   9.364  10.606   1.859 -1.7053 -0.5255  0.1385
  553MOL0     H76251   9.409  10.337   1.869  1.9051 -1.5841 -0.8565
  553MOL0     H76252   9.544  10.377   1.766  1.6081  1.5271  0.4970
  553MOL0     H76253   9.586  10.580   1.937 -0.1532 -0.1678 -0.8745
  553MOL0     H76254   9.476  10.506   2.039  0.3297  0.8208 -0.7123
  553MOL0     H76255   9.645  10.293   2.022 -0.3624  0.0598 -0.4188
  553MOL0     H76256   9.680  10.445   2.124 -0.1863  0.1393  0.6819
  553MOL0     H76257   9.811  10.339   1.878 -1.9909  0.7175 -1.9426
  553MOL0     H76258   9.821  10.513   1.914 -0.9954  0.0125 -1.0507
  553MOL0     H76259   9.881  10.314   2.136  1.5376 -1.0500 -1.0346
  553MOL0     H76260   9.931  10.489   2.116  1.2161 -0.2674  1.1786
  553MOL0     H76261  10.046  10.231   1.996  1.8104  0.4503 -3.6590
  553MOL0     H76262  10.061  10.383   1.910  1.6291 -1.4257  0.0254
  553MOL0     H76263  10.196  10.574   2.030 -1.0995 -2.0634 -1.0116
  553MOL0     H76264  10.354  10.604   2.388  0.6396 -1.9563 -1.2529
  553MOL0     H76265  10.259  10.694   2.274  1.1675  1.2780  2.6401
  553MOL0     H76266  10.451  10.672   2.105  1.9974 -4.4686 -0.4674
  553MOL0     H76267  10.486  10.771   2.248 -2.4982  1.4164 -2.1049
  553MOL0     H76268  10.533  10.460   2.245 -0.0215 -0.9757  0.6591
  553MOL0     H76269  10.647  10.567   2.160  1.4007 -1.8492  1.9777
  553MOL0     H76270  10.580  10.642   2.438  0.9160  0.0575  0.0103
  553MOL0     H76271  10.705  10.519   2.395  0.9461  0.8621  2.4822
  553MOL0     H76272  10.823  10.709   2.572  0.8982 -0.6052 -0.1262
  553MOL0     H76273  11.097  10.850   2.710  1.8701 -1.1763  0.7411
  553MOL0     H76274  11.129  10.673   2.719 -1.5501 -2.0059  0.6328
  553MOL0     H76275  10.967  10.731   2.737 -1.5210  0.5282 -1.3824
  553MOL0     H76276  11.491  10.930   2.634 -0.2946  0.3250 -1.8573
  553MOL0     H76277  11.734  10.890   2.684  1.1786 -0.1701 -3.0094
  553MOL0     H76278  11.945  10.748   2.500  1.9080  2.8091  0.3392
  553MOL0     H76279  11.935  10.814   2.663 -0.0354 -1.3838  1.7620
  553MOL0     H76280  12.069  10.647   2.754 -3.0831  1.5814 -0.6698
  553MOL0     H76281  12.112  10.569   2.595 -0.3886  0.6683 -1.9077
  553MOL0     H76282  12.168  10.870   2.700  2.1250  1.8930 -1.0445
  553MOL0     H76283  12.225  10.806   2.549 -1.7135  0.5543  0.5177
  553MOL0     H76284  12.374  10.640   2.691 -1.7368 -0.0186 -0.3791
  553MOL0     H76285  12.283  10.706   2.820 -0.0026  0.6228  0.0892
  553MOL0     H76286  12.485  10.833   2.627 -0.9042 -2.0724 -0.0859
  553MOL0     H76287  12.403  10.935   2.744  2.1167  0.2015  0.2088
  553MOL0     H76288  12.604  10.748   2.791 -0.8215 -1.3132  0.2085
  553MOL0     H76289  12.473  10.789   2.915  1.4278  1.5633  0.6511
  553MOL0     H76290  12.538  11.024   2.916  0.1445 -1.1286  2.0609
  553MOL0     H76291  12.656  10.991   2.786  2.1466  0.8548  1.1745
  553MOL0     H76292  12.814  10.916   2.923  0.0810 -0.3030  0.3432
  553MOL0     H76293  12.691  10.839   3.032 -0.3762 -0.8193 -1.8945
  553MOL0     H76294  11.673  10.469   2.593 -1.1247 -1.0787  0.2826
  553MOL0     H76295  11.425  10.504   2.587  1.7308 -1.4728  0.4289
  553MOL0     H76296  11.159  10.731   2.230  1.9202  1.4771  1.9598
  553MOL0     H76297  10.936  10.716   2.157 -1.3795  3.8650  0.5068
  553MOL0     H76298   8.997  10.419   1.706 -2.6021  0.6090  1.0719
  553MOL0     H76299   8.774  10.410   1.586 -0.5917 -0.6441 -2.8496
  553MOL0     H76300   8.381  10.823   1.571 -2.1671  1.8169 -0.6027
  553MOL0     H76301   8.152  10.792   1.560 -0.9308 -2.3858  1.6023
  553MOL0     H76302   7.973  10.466   1.279 -2.5497 -0.3234  0.5012
  553MOL0     H76303   8.000  10.390   1.435 -1.5803 -2.5601 -1.0167
  553MOL0     H76304   7.794  10.507   1.518  1.6923  0.5654 -0.2749
  553MOL0     H76305   7.776  10.378   1.401  3.4670 -1.3846 -1.3679
  553MOL0     H76306   7.623  10.584   1.359 -0.1146  2.1909 -2.4884
  553MOL0     H76307   7.776  10.658   1.315  0.3598  1.3520  3.9625
  553MOL0     H76308   7.640  10.404   1.189 -1.8467  1.1960 -2.4517
  553MOL0     H76309   7.805  10.454   1.141  2.2255  2.6516  0.4387
  553MOL0     H76310   7.572  10.747   0.948 -0.3907 -0.6105 -0.0377
  553MOL0     H76311   8.213  10.444   1.311  0.6491 -2.7142  1.6164
  553MOL0     H76312   8.412  10.347   1.279  3.5838 -0.4842 -1.6541
  553MOL0     H76313   8.542  10.457   1.267 -2.2129  0.4826 -1.8380
  553MOL0     H76314   8.511  10.356   1.416 -0.1779 -1.2447 -1.2912
  554MOL0     O76315  10.333   8.207  10.764  0.2328 -0.5612 -0.7738
  554MOL0     C76316  10.318   8.308  10.698 -0.8098 -0.5527  0.1055
  554MOL0     O76317  10.407   8.407  10.672  0.4024 -0.2387 -0.3783
  554MOL0     C76318  10.542   8.390  10.705  0.0707 -0.1219  0.8573
  554MOL0     C76319  10.607   8.489  10.769  0.5010  0.4994  0.2453
  554MOL0     C76320  10.748   8.483  10.773 -0.2134  0.6833 -0.5513
  554MOL0     C76321  10.822   8.379  10.706 -0.5697  0.4880  0.0207
  554MOL0     O76322  10.963   8.383  10.711  0.2894  0.1106 -0.4334
  554MOL0     C76323  11.029   8.362  10.595 -0.5624  0.1579  0.1968
  554MOL0     C76324  11.159   8.444  10.622 -0.4104  0.0457 -0.0714
  554MOL0     C76325  11.267   8.431  10.514 -0.3805  0.1371 -0.5833
  554MOL0     C76326  11.370   8.534  10.512  1.2034 -0.6818 -0.4580
  554MOL0     C76327  11.494   8.498  10.437 -1.2654  0.3563 -0.2794
  554MOL0     C76328  11.589   8.618  10.431 -0.3231 -0.3844  0.2329
  554MOL0     C76329  11.731   8.587  10.380  0.5924 -0.3239  0.0234
  554MOL0     C76330  11.782   8.716  10.312  0.2700 -0.2844 -0.6760
  554MOL0     N76331  11.922   8.695  10.275  0.5422 -0.3229 -1.0273
  554MOL0     C76332  12.023   8.701  10.375  0.1307 -0.0022  1.1273
  554MOL0     C76333  12.128   8.671  10.299  0.1157  0.8110  0.2938
  554MOL0     C76334  12.269   8.659  10.363 -0.0882 -0.2182  0.0300
  554MOL0     C76335  12.376   8.580  10.285 -0.1638 -0.1925  0.1967
  554MOL0     C76336  12.512   8.608  10.363  0.6034  0.6300  0.0109
  554MOL0     C76337  12.628   8.527  10.297  0.6395  0.8820  0.8132
  554MOL0     O76338  12.748   8.572  10.361  0.7872 -0.6297 -0.2554
  554MOL0     C76339  12.856   8.485  10.353 -1.2982  1.0459 -0.1692
  554MOL0     C76340  12.962   8.489  10.444  0.0496 -1.0004 -0.0142
  554MOL0     C76341  13.085   8.424  10.424 -0.5535  0.4944  0.0544
  554MOL0     C76342  13.195   8.450  10.528 -0.0814 -0.9546 -0.0108
  554MOL0     C76343  13.102   8.328  10.319  0.0547 -0.3145 -0.7455
  554MOL0     C76344  13.216   8.233  10.305  0.4930  0.1065 -1.0566
  554MOL0     O76345  13.321   8.241  10.394  0.0804  0.6174 -0.2199
  554MOL0     C76346  13.429   8.150  10.389  0.2703  0.4687  0.5132
  554MOL0     C76347  13.502   8.131  10.507 -0.5691  0.5338  0.7769
  554MOL0     C76348  13.600   8.037  10.523  0.1766  0.1515 -0.3097
  554MOL0     C76349  13.640   7.964  10.411  0.1136 -0.2280  0.3473
  554MOL0     O76350  13.745   7.876  10.398 -0.2926  0.0267 -0.8468
  554MOL0     C76351  13.848   7.891  10.492  0.5798 -0.1151  0.3476
  554MOL0     C76352  13.955   7.788  10.472 -0.2253 -0.7083  0.1242
  554MOL0     C76353  14.040   7.828  10.350  0.3719 -0.7124 -0.6786
  554MOL0     C76354  14.172   7.759  10.355 -0.0591 -0.5862  0.6804
  554MOL0     C76355  14.275   7.798  10.251  0.5434  0.3407  0.3341
  554MOL0     C76356  14.394   7.700  10.237  0.1011  0.1683 -0.5065
  554MOL0     C76357  14.366   7.575  10.155  0.9023 -0.1487  0.1301
  554MOL0     C76358  14.467   7.466  10.172 -0.3903  0.6268 -0.3746
  554MOL0    Cl76359  14.430   7.352  10.041 -0.2528 -0.0248  0.2993
  554MOL0     C76360  13.575   7.984  10.293  0.2071  0.2007 -0.2696
  554MOL0     C76361  13.469   8.074  10.275  0.2630 -0.2609  0.4919
  554MOL0     O76362  13.207   8.153  10.208  0.2152 -0.0721 -0.4955
  554MOL0     C76363  12.997   8.319  10.226 -0.0487 -0.4385  0.1144
  554MOL0     C76364  12.881   8.399  10.238  0.1121  0.0863  0.9766
  554MOL0     N76365  12.094   8.661  10.160 -0.3305 -0.9857 -0.6259
  554MOL0     N76366  11.970   8.676  10.149 -0.8828  0.0544  0.3634
  554MOL0     C76367  10.755   8.277  10.643  0.1051  0.0601  0.4018
  554MOL0     C76368  10.620   8.288  10.642  0.3320  0.6782 -0.3754
  554MOL0     C76369  10.181   8.331  10.659  0.4672  0.9391  0.0761
  554MOL0     C76370  10.156   8.383  10.529 -0.1587  0.2272 -1.5468
  554MOL0     C76371  10.026   8.408  10.494  0.6591 -0.3944 -0.3887
  554MOL0     C76372   9.926   8.403  10.594 -0.3285 -0.2987  0.6918
  554MOL0     O76373   9.807   8.442  10.559  0.2284 -0.5545 -0.4405
  554MOL0     C76374   9.787   8.575  10.514  0.1477 -0.7404 -0.2621
  554MOL0     C76375   9.674   8.557  10.404  0.1393  0.4084  0.0163
  554MOL0     C76376   9.632   8.696  10.335  1.0077  0.1925 -0.0547
  554MOL0     C76377   9.749   8.745  10.249  0.0397  0.4359 -0.3760
  554MOL0     C76378   9.724   8.868  10.167 -0.2485 -0.9622  0.5605
  554MOL0     C76379   9.704   8.977  10.114  0.3914  0.6055  0.3263
  554MOL0     C76380   9.955   8.361  10.720 -0.5807 -0.4228  0.2911
  554MOL0     C76381  10.080   8.319  10.757  0.6087 -0.0763 -0.8773
  554MOL0     C76382  10.108   8.290  10.902  0.1762 -0.3790  0.2405
  554MOL0     H76383  10.543   8.570  10.802  2.0939  2.2766 -0.8031
  554MOL0     H76384  10.804   8.566  10.814 -1.7329  1.4211  0.0856
  554MOL0     H76385  10.970   8.407  10.515 -0.3965  1.7024  0.9089
  554MOL0     H76386  11.054   8.256  10.581  2.7063  0.3303  3.1332
  554MOL0     H76387  11.122   8.547  10.624 -0.8784 -0.1162 -0.2686
  554MOL0     H76388  11.188   8.408  10.721 -0.7076  0.0554  0.0209
  554MOL0     H76389  11.317   8.334  10.526 -3.2719 -1.6385 -1.7893
  554MOL0     H76390  11.223   8.431  10.415 -0.4453 -0.5265 -0.5620
  554MOL0     H76391  11.333   8.628  10.471  1.8369 -0.6253 -0.9304
  554MOL0     H76392  11.397   8.551  10.617 -1.3781  2.2527 -0.1424
  554MOL0     H76393  11.462   8.471  10.336  3.3391  2.6654 -2.6498
  554MOL0     H76394  11.548   8.416  10.485 -1.3092 -1.2893 -2.8804
  554MOL0     H76395  11.548   8.691  10.361  0.5696 -1.2807 -1.2689
  554MOL0     H76396  11.600   8.653  10.534 -1.6827 -3.3545  1.5082
  554MOL0     H76397  11.740   8.502  10.312  1.6639 -0.9394  0.8960
  554MOL0     H76398  11.801   8.574  10.464  0.8553  1.5226  0.1346
  554MOL0     H76399  11.716   8.738  10.228 -1.6075 -0.4816  0.6949
  554MOL0     H76400  11.790   8.801  10.380 -1.2182 -0.6307 -0.0452
  554MOL0     H76401  12.018   8.705  10.483  2.2982  2.9116  1.2476
  554MOL0     H76402  12.247   8.598  10.451  0.8921  1.4474  1.5064
  554MOL0     H76403  12.304   8.757  10.396 -1.0200  0.8591 -2.0130
  554MOL0     H76404  12.372   8.470  10.287  1.8516 -0.3575 -1.4667
  554MOL0     H76405  12.393   8.615  10.183  0.8502  0.7854  0.6826
  554MOL0     H76406  12.525   8.716  10.376 -0.9527  0.6217  2.0816
  554MOL0     H76407  12.521   8.567  10.464  0.4478 -3.5915 -1.4893
  554MOL0     H76408  12.615   8.418  10.299  2.3318  0.6007 -0.8907
  554MOL0     H76409  12.629   8.565  10.195 -0.1405 -4.6624 -1.6174
  554MOL0     H76410  12.950   8.560  10.525  3.6788  0.8411 -0.8661
  554MOL0     H76411  13.207   8.382  10.613 -1.8356 -2.2992 -0.7816
  554MOL0     H76412  13.175   8.551  10.566 -1.4867 -0.7861 -1.1123
  554MOL0     H76413  13.285   8.457  10.467 -0.8218 -0.4327 -1.0715
  554MOL0     H76414  13.466   8.182  10.596 -1.1754  1.6476 -0.0729
  554MOL0     H76415  13.641   8.035  10.623 -2.6343 -0.2949  0.9306
  554MOL0     H76416  13.884   7.994  10.493 -2.0372  0.8664  0.2349
  554MOL0     H76417  13.815   7.869  10.594 -0.0264 -0.9976 -0.0287
  554MOL0     H76418  14.026   7.783  10.555 -1.0227 -4.5530  0.7661
  554MOL0     H76419  13.918   7.686  10.456  1.5550 -1.5111  0.8090
  554MOL0     H76420  14.072   7.932  10.359 -0.2214 -0.5164 -0.8076
  554MOL0     H76421  13.983   7.813  10.258  0.7444  1.2122 -1.2643
  554MOL0     H76422  14.150   7.655  10.330  0.4945 -0.1876 -1.6640
  554MOL0     H76423  14.228   7.772  10.448  1.2397  1.4582 -0.3072
  554MOL0     H76424  14.227   7.808  10.153  1.0936 -0.2989 -0.0085
  554MOL0     H76425  14.308   7.896  10.286 -1.9880  0.3386  3.1444
  554MOL0     H76426  14.424   7.675  10.339  0.7958  2.1033 -0.1975
  554MOL0     H76427  14.477   7.757  10.194 -2.8330  0.8003 -6.3916
  554MOL0     H76428  14.344   7.592  10.049  2.2875 -2.1750 -0.5458
  554MOL0     H76429  14.273   7.532  10.193 -0.4934  1.5368 -1.1533
  554MOL0     H76430  14.456   7.413  10.266 -0.4377 -0.9960 -1.2619
  554MOL0     H76431  14.569   7.500  10.151  0.5058 -2.8084 -2.4075
  554MOL0     H76432  13.610   7.919  10.213  1.0452 -1.2819  1.2638
  554MOL0     H76433  13.419   8.083  10.180  0.7214  3.1256  0.4681
  554MOL0     H76434  13.001   8.257  10.137 -0.9345 -1.5320  0.7962
  554MOL0     H76435  12.809   8.395  10.157  0.0919 -0.7783  1.0278
  554MOL0     H76436  10.814   8.208  10.583  2.2696  0.4707  1.9456
  554MOL0     H76437  10.568   8.216  10.579  0.0160  2.6494 -2.5183
  554MOL0     H76438  10.232   8.411  10.458  0.5392 -2.2180 -1.8735
  554MOL0     H76439  10.005   8.443  10.393  3.1325 -1.0418 -1.2046
  554MOL0     H76440   9.756   8.638  10.598  0.9240  2.3530 -2.1241
  554MOL0     H76441   9.872   8.619  10.461 -1.3673  2.1572 -0.5093
  554MOL0     H76442   9.591   8.504  10.452  0.8653 -0.0609  0.8114
  554MOL0     H76443   9.710   8.482  10.333 -0.5939 -0.5953  0.6750
  554MOL0     H76444   9.550   8.664  10.271  2.2586 -0.1522 -1.5538
  554MOL0     H76445   9.613   8.770  10.414  0.8732 -0.0652  0.1549
  554MOL0     H76446   9.785   8.660  10.191 -0.7418 -2.4307  3.0429
  554MOL0     H76447   9.825   8.775  10.322 -1.2938 -0.3967  1.4366
  554MOL0     H76448   9.675   9.073  10.076 -1.9503 -0.5294 -1.0214
  554MOL0     H76449   9.878   8.356  10.797 -0.8887  0.7382  0.0736
  554MOL0     H76450  10.029   8.307  10.976  0.9734 -1.9646  1.5203
  554MOL0     H76451  10.129   8.183  10.911 -2.6279 -1.0295 -0.1169
  554MOL0     H76452  10.192   8.355  10.929 -1.5001  2.0163  0.0061
  555MOL0     O76453  10.674   7.186   5.181 -0.9903  0.1653  0.1674
  555MOL0     C76454  10.636   7.071   5.187 -0.1661 -0.4345  0.8819
  555MOL0     O76455  10.721   6.963   5.199  0.2082 -0.1388 -0.2860
  555MOL0     C76456  10.852   6.987   5.201  0.0156  0.1966  0.4163
  555MOL0     C76457  10.915   7.068   5.300 -0.5381 -0.6878  0.0165
  555MOL0     C76458  11.055   7.076   5.301  0.3239  0.4018  0.6737
  555MOL0     C76459  11.130   7.023   5.193 -0.1312 -0.6799 -0.2037
  555MOL0     O76460  11.262   7.054   5.198 -0.4022  0.0196 -0.7141
  555MOL0     C76461  11.341   6.935   5.178 -0.2368 -0.0663 -0.2570
  555MOL0     C76462  11.496   6.962   5.184  0.3111  0.3496 -0.0303
  555MOL0     C76463  11.540   7.075   5.090 -0.2471  0.1725  0.4337
  555MOL0     C76464  11.694   7.102   5.090 -0.3244  0.5670 -0.4400
  555MOL0     C76465  11.777   6.990   5.026 -0.2159  0.2124  0.0255
  555MOL0     C76466  11.733   6.960   4.884  0.3172  0.2430 -0.4541
  555MOL0     C76467  11.818   6.861   4.810 -0.6430 -0.1273 -0.3452
  555MOL0     C76468  11.946   6.911   4.767 -1.0612 -0.3605  0.7322
  555MOL0     N76469  12.029   6.813   4.695  0.0034  0.3041  0.8157
  555MOL0     C76470  12.093   6.710   4.759  1.3295 -0.2106  0.0322
  555MOL0     C76471  12.151   6.637   4.661 -0.0809 -0.6132 -0.2793
  555MOL0     C76472  12.241   6.517   4.694  0.3647  0.5290  0.3197
  555MOL0     C76473  12.383   6.554   4.690 -0.4237 -0.3927 -0.8162
  555MOL0     C76474  12.425   6.546   4.544  1.0535 -0.0776 -0.5081
  555MOL0     C76475  12.567   6.589   4.535 -0.0997  0.5731 -0.1035
  555MOL0     O76476  12.602   6.536   4.402 -0.1983 -0.7072  0.5467
  555MOL0     C76477  12.733   6.527   4.356 -0.1029  0.6785 -0.2056
  555MOL0     C76478  12.837   6.526   4.450  0.3940 -0.3291  0.7424
  555MOL0     C76479  12.970   6.532   4.413  0.0469  0.4170 -0.1099
  555MOL0     C76480  13.063   6.534   4.524  0.1460  0.1299 -0.3040
  555MOL0     C76481  13.013   6.533   4.272 -0.0779  0.2907 -0.4871
  555MOL0     C76482  13.151   6.532   4.225 -0.5019  0.1847  0.2586
  555MOL0     O76483  13.165   6.503   4.096 -0.3418  0.0341 -0.3309
  555MOL0     C76484  13.287   6.452   4.049  0.4587  0.1530 -0.5639
  555MOL0     C76485  13.409   6.525   4.060  1.2366 -0.5310 -0.1689
  555MOL0     C76486  13.531   6.474   4.012  0.1407  0.7590 -0.4473
  555MOL0     C76487  13.532   6.347   3.953  0.2234  0.4156  0.4808
  555MOL0     O76488  13.655   6.304   3.910 -0.2435 -0.5264 -0.5271
  555MOL0     C76489  13.653   6.177   3.835  0.9010 -0.4002  0.2611
  555MOL0     C76490  13.783   6.161   3.760  0.4112 -0.0193  0.6312
  555MOL0     C76491  13.888   6.100   3.851  0.9225 -0.0988  0.4146
  555MOL0     C76492  13.997   6.044   3.756  0.5799 -0.8737 -0.4353
  555MOL0     C76493  14.107   5.975   3.831  0.0379  0.4025 -0.1847
  555MOL0     C76494  14.214   5.923   3.726  0.3546  0.2400 -0.3504
  555MOL0     C76495  14.309   5.819   3.780  0.3622  0.0393 -0.3908
  555MOL0     C76496  14.411   5.786   3.673 -0.5701 -0.0352 -0.2755
  555MOL0    Cl76497  14.344   5.667   3.553 -0.1176 -0.0460  0.0858
  555MOL0     C76498  13.411   6.267   3.952 -0.1717  0.1204 -0.0502
  555MOL0     C76499  13.295   6.320   4.011 -0.1573  0.7052 -0.1929
  555MOL0     O76500  13.246   6.527   4.303 -0.6115 -0.0470  0.4769
  555MOL0     C76501  12.902   6.531   4.181  0.3415 -0.3755  0.5045
  555MOL0     C76502  12.769   6.518   4.218  0.6459  0.3267 -0.0241
  555MOL0     N76503  12.128   6.705   4.541 -0.0254 -0.5149  0.8561
  555MOL0     N76504  12.048   6.810   4.566  0.3144 -0.1362  0.0107
  555MOL0     C76505  11.068   6.949   5.098  0.2747  0.2343 -0.0348
  555MOL0     C76506  10.934   6.933   5.100  1.1456 -0.1491  0.1395
  555MOL0     C76507  10.490   7.043   5.189  0.1685 -0.6879  0.0840
  555MOL0     C76508  10.441   6.923   5.131  0.5969 -0.0422  0.2670
  555MOL0     C76509  10.306   6.886   5.142  0.2302 -0.6971  0.8452
  555MOL0     C76510  10.213   6.964   5.204 -0.5646  0.0581 -0.1289
  555MOL0     O76511  10.078   6.935   5.205 -0.1059  0.6329  0.3585
  555MOL0     C76512  10.029   6.884   5.333 -0.3767 -0.0121  0.2304
  555MOL0     C76513   9.880   6.925   5.335  0.3490  0.4202 -0.2189
  555MOL0     C76514   9.865   7.073   5.338 -0.2331 -1.1700 -1.2874
  555MOL0     C76515   9.722   7.113   5.349 -0.5505 -0.6006  0.2214
  555MOL0     C76516   9.708   7.253   5.396  0.2631 -0.2982 -0.2291
  555MOL0     C76517   9.686   7.373   5.399  0.0877 -0.2012  0.3096
  555MOL0     C76518  10.258   7.089   5.267  0.2345  0.0584  0.7160
  555MOL0     C76519  10.393   7.130   5.251 -0.1787 -0.1604 -0.3023
  555MOL0     C76520  10.437   7.256   5.337  0.5394  0.3110 -0.5211
  555MOL0     H76521  10.864   7.125   5.376  1.8579  2.1913 -0.3522
  555MOL0     H76522  11.111   7.131   5.375  2.1390  2.2147 -1.8803
  555MOL0     H76523  11.335   6.890   5.079  0.3326  0.2458 -0.4357
  555MOL0     H76524  11.320   6.855   5.250 -1.1011  1.4586  1.2492
  555MOL0     H76525  11.518   6.983   5.289  1.7654  0.1830 -0.2780
  555MOL0     H76526  11.555   6.875   5.153 -4.6016 -2.9490 -1.2180
  555MOL0     H76527  11.505   7.049   4.989 -0.5288 -0.9209  0.7938
  555MOL0     H76528  11.488   7.163   5.128 -1.0777 -0.2229  0.2420
  555MOL0     H76529  11.704   7.193   5.030 -3.4433  1.0207 -0.4649
  555MOL0     H76530  11.728   7.114   5.194  0.2735  1.2585 -0.7019
  555MOL0     H76531  11.781   6.901   5.091 -0.1982  4.1254  6.2005
  555MOL0     H76532  11.879   7.026   5.014 -0.4976  0.8765 -0.4121
  555MOL0     H76533  11.633   6.918   4.879 -1.8262  4.4348  1.6930
  555MOL0     H76534  11.747   7.054   4.829  0.2022  0.3786 -0.2533
  555MOL0     H76535  11.764   6.816   4.726 -0.9434  1.6325 -1.1253
  555MOL0     H76536  11.819   6.774   4.877 -3.0129  0.5006  0.5727
  555MOL0     H76537  11.928   6.996   4.700  0.6910 -0.3954  0.1752
  555MOL0     H76538  12.007   6.955   4.846  3.2287 -1.4397 -1.6791
  555MOL0     H76539  12.101   6.698   4.866  0.0028  2.2205  0.4932
  555MOL0     H76540  12.218   6.436   4.624 -2.9858  0.9623  0.7723
  555MOL0     H76541  12.216   6.476   4.792 -0.0364 -0.8860 -0.3563
  555MOL0     H76542  12.388   6.662   4.709 -2.2013  0.0852 -2.7196
  555MOL0     H76543  12.458   6.494   4.742  1.4986  1.5826 -1.1485
  555MOL0     H76544  12.416   6.442   4.510  2.9396 -0.6935  0.7243
  555MOL0     H76545  12.364   6.599   4.471  1.9222 -0.1595 -1.3059
  555MOL0     H76546  12.578   6.697   4.548 -0.9153  0.8159 -1.2814
  555MOL0     H76547  12.622   6.542   4.617  0.6879  1.8928  0.1534
  555MOL0     H76548  12.813   6.534   4.556  2.6842  3.7829  1.1532
  555MOL0     H76549  13.137   6.614   4.512  1.2266 -0.4294  2.1230
  555MOL0     H76550  13.113   6.437   4.512  1.8934  1.3096 -4.2077
  555MOL0     H76551  13.018   6.544   4.623  2.9904 -2.0630  1.3852
  555MOL0     H76552  13.411   6.630   4.087  4.6320 -0.3308 -0.7553
  555MOL0     H76553  13.624   6.528   3.998 -0.0874  0.5647 -3.2346
  555MOL0     H76554  13.647   6.093   3.904  4.7980 -0.9401  0.1965
  555MOL0     H76555  13.572   6.182   3.762  2.8184 -1.3684 -2.0854
  555MOL0     H76556  13.758   6.092   3.679  1.1935  0.7602 -0.3022
  555MOL0     H76557  13.812   6.258   3.718 -0.0987  0.0551  0.4524
  555MOL0     H76558  13.850   6.014   3.908  1.3406 -1.9285 -1.9263
  555MOL0     H76559  13.937   6.178   3.910  2.8215 -0.6229 -0.4135
  555MOL0     H76560  14.041   6.130   3.705  0.0503 -0.4868 -0.2501
  555MOL0     H76561  13.944   5.972   3.694 -2.0577  0.8810 -0.3739
  555MOL0     H76562  14.149   6.054   3.894 -1.0269  0.9220 -0.1012
  555MOL0     H76563  14.060   5.894   3.887 -1.7711  1.0955 -0.6348
  555MOL0     H76564  14.270   6.005   3.680  2.2151 -0.8325 -0.0949
  555MOL0     H76565  14.169   5.867   3.643 -0.0230 -1.4429  0.9350
  555MOL0     H76566  14.260   5.732   3.825 -2.2617  1.0610 -1.1208
  555MOL0     H76567  14.359   5.864   3.866 -2.5761 -0.6962  1.8596
  555MOL0     H76568  14.497   5.743   3.726 -3.2882 -2.3851  2.6282
  555MOL0     H76569  14.448   5.880   3.630  0.7336 -1.3564 -2.1617
  555MOL0     H76570  13.422   6.163   3.925 -0.9238 -0.4927  1.7974
  555MOL0     H76571  13.212   6.250   4.014  1.7477 -1.6796  2.2100
  555MOL0     H76572  12.918   6.526   4.074 -1.6105  0.2304  0.1616
  555MOL0     H76573  12.709   6.508   4.128 -0.1946  2.5478  0.2368
  555MOL0     H76574  11.126   6.907   5.016  0.3568 -0.2207  0.2533
  555MOL0     H76575  10.884   6.863   5.034  1.3594 -0.0632 -0.1165
  555MOL0     H76576  10.508   6.862   5.071  1.3582  0.4136  0.6275
  555MOL0     H76577  10.282   6.799   5.082  2.6864  0.0415 -1.4085
  555MOL0     H76578  10.038   6.775   5.337 -0.7402 -0.2017 -2.6517
  555MOL0     H76579  10.084   6.921   5.421  2.0119 -2.2996 -0.1833
  555MOL0     H76580   9.835   6.883   5.425 -1.6066  1.4780 -0.6360
  555MOL0     H76581   9.835   6.880   5.246  1.2831 -0.6861 -0.1489
  555MOL0     H76582   9.918   7.120   5.421 -0.2866 -1.0765 -1.3053
  555MOL0     H76583   9.905   7.119   5.247 -1.8969  0.4395 -1.2701
  555MOL0     H76584   9.669   7.050   5.421 -0.1252  1.3377  2.3977
  555MOL0     H76585   9.682   7.107   5.247 -2.9271  0.5680  0.9999
  555MOL0     H76586   9.674   7.479   5.392  1.5857 -0.0854 -1.2845
  555MOL0     H76587  10.191   7.143   5.333 -1.1259 -1.7695  0.9174
  555MOL0     H76588  10.525   7.227   5.394  0.3465  1.4799  0.3946
  555MOL0     H76589  10.459   7.349   5.284  0.3143  1.2727  1.0239
  555MOL0     H76590  10.361   7.274   5.413 -1.5959 -1.4542 -2.0702
  556MOL0     O76591   9.922  11.065   6.268  0.0652  0.3480 -0.6286
  556MOL0     C76592   9.940  11.158   6.344  1.0267  0.4256  0.8382
  556MOL0     O76593  10.038  11.152   6.439 -0.0972 -0.2643  0.2608
  556MOL0     C76594  10.097  11.031   6.476  0.6406 -0.7020 -0.4892
  556MOL0     C76595  10.010  10.935   6.531  0.4014  1.0355  0.9340
  556MOL0     C76596  10.053  10.803   6.551 -0.3119  0.2831 -0.6728
  556MOL0     C76597  10.184  10.772   6.525 -0.5670 -0.5628 -0.6287
  556MOL0     O76598  10.232  10.646   6.561 -0.4656 -0.3361 -0.7309
  556MOL0     C76599  10.279  10.572   6.445 -0.3667 -0.0672 -0.2353
  556MOL0     C76600  10.310  10.426   6.472  0.5648  0.8935  0.5131
  556MOL0     C76601  10.439  10.415   6.545 -0.0678  0.7599 -0.5188
  556MOL0     C76602  10.560  10.411   6.449  0.1193  0.0012  0.5219
  556MOL0     C76603  10.691  10.404   6.529  0.5291 -0.2382  0.2133
  556MOL0     C76604  10.815  10.373   6.448  0.4781 -0.2899  0.1945
  556MOL0     C76605  10.953  10.379   6.529 -0.2555 -0.1268 -0.7814
  556MOL0     C76606  11.052  10.456   6.445  0.7746  0.1466  0.3738
  556MOL0     N76607  11.176  10.470   6.516 -0.2692 -0.0420 -0.7538
  556MOL0     C76608  11.182  10.540   6.639  0.2322  0.0486  0.5463
  556MOL0     C76609  11.317  10.538   6.661 -0.2886 -0.1575 -0.9748
  556MOL0     C76610  11.370  10.570   6.796 -0.0145  0.1921  1.2239
  556MOL0     C76611  11.320  10.482   6.902 -0.5488  0.3578  0.8245
  556MOL0     C76612  11.388  10.346   6.886 -0.5782  0.1327 -0.1032
  556MOL0     C76613  11.547  10.354   6.857 -0.4532 -0.1289  0.2448
  556MOL0     O76614  11.602  10.224   6.886 -0.4649 -0.1447  0.4023
  556MOL0     C76615  11.736  10.214   6.915 -0.0105  0.0143  0.3389
  556MOL0     C76616  11.774  10.112   6.999 -0.3202 -0.0733 -0.1482
  556MOL0     C76617  11.905  10.097   7.047  0.0535  0.3843  0.1855
  556MOL0     C76618  11.945   9.971   7.134  0.9350 -0.8615 -0.0567
  556MOL0     C76619  12.000  10.200   7.010 -0.3397 -0.8282  0.4890
  556MOL0     C76620  12.141  10.207   7.051 -0.7250  0.3267 -0.5198
  556MOL0     O76621  12.236  10.224   6.957 -0.0151 -0.6741  0.5858
  556MOL0     C76622  12.365  10.240   6.998  0.1069  0.4259  0.2468
  556MOL0     C76623  12.445  10.130   6.978 -0.4461 -0.4064 -0.0289
  556MOL0     C76624  12.578  10.130   7.028 -0.6625 -0.7104  0.3849
  556MOL0     C76625  12.634  10.251   7.073  0.7937 -0.1303 -0.0232
  556MOL0     O76626  12.755  10.264   7.132  0.1676  0.1975 -0.3634
  556MOL0     C76627  12.797  10.150   7.210 -0.2818 -0.1332  0.0124
  556MOL0     C76628  12.884  10.198   7.320 -0.0690 -0.1588  0.9005
  556MOL0     C76629  13.017  10.239   7.249  0.0761  0.0882 -0.1591
  556MOL0     C76630  13.117  10.255   7.359 -1.0755  0.0918  0.0591
  556MOL0     C76631  13.256  10.279   7.301 -0.5946  0.7631  0.0933
  556MOL0     C76632  13.371  10.307   7.405 -0.1200  0.4291  0.0798
  556MOL0     C76633  13.359  10.438   7.485  0.2788 -0.4611  0.6342
  556MOL0     C76634  13.378  10.562   7.397  0.3623  0.4227  0.3969
  556MOL0    Cl76635  13.516  10.554   7.278 -0.0875  0.1942  0.0222
  556MOL0     C76636  12.560  10.362   7.076  0.0440 -0.5060  0.7558
  556MOL0     C76637  12.421  10.359   7.041  0.1581  0.5161  0.2867
  556MOL0     O76638  12.164  10.191   7.173 -0.5902 -0.4416  0.1552
  556MOL0     C76639  11.964  10.298   6.915 -0.4197  0.4513  0.2789
  556MOL0     C76640  11.832  10.296   6.862  0.6880  0.7451 -0.3001
  556MOL0     N76641  11.384  10.479   6.552  0.1037  0.9438  0.6811
  556MOL0     N76642  11.297  10.442   6.465  0.3469 -0.5336 -0.2590
  556MOL0     C76643  10.277  10.868   6.485  1.4746  0.1021 -0.5451
  556MOL0     C76644  10.235  10.999   6.451  0.0894 -0.3229  0.2551
  556MOL0     C76645   9.869  11.292   6.321  0.0221  0.6142 -0.3378
  556MOL0     C76646   9.937  11.411   6.352 -0.1850 -0.7489  0.6535
  556MOL0     C76647   9.887  11.543   6.329 -0.3546  0.3019  0.2539
  556MOL0     C76648   9.762  11.558   6.273 -0.3981  1.0488 -0.4108
  556MOL0     O76649   9.722  11.686   6.255 -0.2159  0.2042  0.9534
  556MOL0     C76650   9.597  11.715   6.195  0.4312  0.7575  1.2203
  556MOL0     C76651   9.567  11.864   6.188  0.2260 -0.8127  0.5794
  556MOL0     C76652   9.555  11.939   6.329 -0.4508  0.0711  0.2123
  556MOL0     C76653   9.539  12.101   6.307  1.0312  0.1045  0.5824
  556MOL0     C76654   9.399  12.146   6.293 -0.6669  0.1781  0.5198
  556MOL0     C76655   9.285  12.181   6.265 -0.1334 -0.0345  0.0495
  556MOL0     C76656   9.696  11.442   6.237 -0.1075  0.3834  0.9366
  556MOL0     C76657   9.737  11.308   6.267 -0.7867 -0.5691 -0.5442
  556MOL0     C76658   9.653  11.189   6.231  0.4615  0.2446  1.0386
  556MOL0     H76659   9.902  10.943   6.538 -0.1943 -4.0826  1.1427
  556MOL0     H76660   9.981  10.729   6.583 -0.1973  1.1850  1.9357
  556MOL0     H76661  10.359  10.623   6.389 -1.3166  1.3660 -0.3483
  556MOL0     H76662  10.202  10.573   6.368  1.7494 -2.4770 -2.5756
  556MOL0     H76663  10.227  10.385   6.530 -0.2180  1.5716 -0.1118
  556MOL0     H76664  10.314  10.384   6.371  0.4165 -0.4530  1.0447
  556MOL0     H76665  10.452  10.506   6.604  3.0007  0.7301 -0.9654
  556MOL0     H76666  10.433  10.321   6.601 -0.1596 -0.2186 -2.1016
  556MOL0     H76667  10.558  10.316   6.395  0.5488  0.6407 -0.6635
  556MOL0     H76668  10.564  10.498   6.383 -0.4994  0.8757  1.6057
  556MOL0     H76669  10.684  10.339   6.616 -2.1556 -0.1515  0.1317
  556MOL0     H76670  10.695  10.509   6.560 -2.8502 -0.1975  0.9093
  556MOL0     H76671  10.804  10.275   6.400 -2.8052 -0.7313  1.5909
  556MOL0     H76672  10.823  10.442   6.364  3.3107 -0.0419  0.5663
  556MOL0     H76673  10.997  10.279   6.536  2.0446  0.8838  0.1748
  556MOL0     H76674  10.934  10.426   6.625 -1.4404  0.7106 -1.4044
  556MOL0     H76675  11.069  10.412   6.347 -1.5859  0.0533 -0.0641
  556MOL0     H76676  11.008  10.553   6.422  0.6480  0.1886  0.7885
  556MOL0     H76677  11.099  10.579   6.697  0.2450  1.0191 -0.0682
  556MOL0     H76678  11.332  10.667   6.829 -0.2568  1.1905 -1.7546
  556MOL0     H76679  11.479  10.573   6.784  0.0313  0.8792  1.7428
  556MOL0     H76680  11.354  10.521   6.999 -2.3146 -0.5035  1.8339
  556MOL0     H76681  11.212  10.468   6.910 -0.2749 -2.1239  0.7609
  556MOL0     H76682  11.384  10.287   6.978 -0.3596 -2.0874 -1.4338
  556MOL0     H76683  11.339  10.277   6.817  0.7412  0.0589 -1.0140
  556MOL0     H76684  11.564  10.364   6.749 -1.7063 -0.2859  0.0175
  556MOL0     H76685  11.601  10.441   6.895  0.2972 -0.5735  0.2073
  556MOL0     H76686  11.698  10.053   7.050 -0.4540  2.5693  3.0636
  556MOL0     H76687  11.971   9.991   7.238 -0.2261 -0.2293  0.1296
  556MOL0     H76688  12.034   9.933   7.084  0.2111  1.0045 -3.0158
  556MOL0     H76689  11.867   9.894   7.142  0.7967 -0.8196 -0.9316
  556MOL0     H76690  12.413  10.043   6.921  0.1555 -0.3404 -0.4876
  556MOL0     H76691  12.636  10.039   7.024  0.4407 -0.0344 -3.0604
  556MOL0     H76692  12.710  10.097   7.250 -0.2534 -1.0811 -1.1161
  556MOL0     H76693  12.848  10.076   7.146  2.5350  2.6951 -1.2695
  556MOL0     H76694  12.841  10.285   7.372  0.0947 -0.8483  2.2394
  556MOL0     H76695  12.894  10.121   7.397 -1.4943  0.1854  1.4670
  556MOL0     H76696  13.012  10.332   7.192  1.5155  0.5090  0.3526
  556MOL0     H76697  13.054  10.168   7.175 -0.2447 -1.3958  1.0473
  556MOL0     H76698  13.119  10.166   7.424  0.2627 -0.0315 -0.1166
  556MOL0     H76699  13.098  10.349   7.411 -0.2231 -0.0096  0.5890
  556MOL0     H76700  13.290  10.195   7.240 -1.9183 -1.0076  1.6685
  556MOL0     H76701  13.246  10.357   7.226 -3.6493 -1.5785 -2.1918
  556MOL0     H76702  13.460  10.309   7.342  1.3528  1.5933  2.0948
  556MOL0     H76703  13.372  10.226   7.478  1.1022  2.3336  2.3067
  556MOL0     H76704  13.439  10.427   7.559  0.3944  1.0199  0.7451
  556MOL0     H76705  13.259  10.451   7.527 -1.7088 -2.3090 -2.9733
  556MOL0     H76706  13.388  10.642   7.471  1.3258  0.7114 -0.0368
  556MOL0     H76707  13.287  10.588   7.342  0.0284  2.4724  1.7831
  556MOL0     H76708  12.619  10.434   7.131  1.8444 -1.6818  0.4372
  556MOL0     H76709  12.353  10.442   7.053 -1.6502 -0.9026  0.3912
  556MOL0     H76710  12.042  10.366   6.882  3.5955 -2.9947  1.7819
  556MOL0     H76711  11.801  10.367   6.786 -1.4612  0.2097  0.0075
  556MOL0     H76712  10.380  10.839   6.467  1.1536 -0.3499 -1.7917
  556MOL0     H76713  10.282  11.072   6.386 -0.7220  1.5326  1.6748
  556MOL0     H76714  10.042  11.398   6.377  0.6484  1.0781 -1.5172
  556MOL0     H76715   9.948  11.629   6.354  0.4918 -0.4435  0.8498
  556MOL0     H76716   9.594  11.671   6.095  2.3339  0.8136  1.0978
  556MOL0     H76717   9.521  11.665   6.255  1.3572  0.5341  2.2265
  556MOL0     H76718   9.474  11.875   6.131  1.9860  2.2355 -2.0678
  556MOL0     H76719   9.640  11.914   6.124 -1.7733 -1.5195 -2.4691
  556MOL0     H76720   9.478  11.901   6.396  0.9053 -3.1805  0.1014
  556MOL0     H76721   9.645  11.919   6.389 -2.1579 -1.1710  2.5157
  556MOL0     H76722   9.576  12.132   6.209 -3.5782  1.6651 -0.9558
  556MOL0     H76723   9.594  12.171   6.371  0.9976  3.4089 -2.6905
  556MOL0     H76724   9.185  12.220   6.262  0.4590  1.4810 -1.8263
  556MOL0     H76725   9.601  11.455   6.186  1.4255  0.5059 -2.1371
  556MOL0     H76726   9.605  11.137   6.314  1.7396 -1.7892  0.5766
  556MOL0     H76727   9.582  11.221   6.155 -0.6072 -1.4284  1.3037
  556MOL0     H76728   9.707  11.113   6.175 -0.6052 -1.1994  1.9136
  557MOL0     O76729   3.263   8.325   8.562  0.2768  0.9739 -0.2390
  557MOL0     C76730   3.307   8.414   8.487  0.1106  0.4630 -0.2978
  557MOL0     O76731   3.436   8.455   8.472 -0.3001  0.6611 -0.2812
  557MOL0     C76732   3.522   8.436   8.576  0.3216  0.0698 -0.6294
  557MOL0     C76733   3.484   8.451   8.710  0.4613  0.5308  0.8892
  557MOL0     C76734   3.579   8.437   8.816 -0.0727 -1.0228  0.1349
  557MOL0     C76735   3.715   8.421   8.788 -0.5841 -0.3085 -0.1318
  557MOL0     O76736   3.823   8.407   8.874 -0.6022  0.1103 -0.5101
  557MOL0     C76737   3.794   8.416   9.014 -0.6657  0.1490  0.0780
  557MOL0     C76738   3.887   8.333   9.100 -0.1780  0.2868 -0.8416
  557MOL0     C76739   4.032   8.343   9.054  0.6570  0.6656 -0.6189
  557MOL0     C76740   4.085   8.480   9.059  0.6247  0.5039 -0.2051
  557MOL0     C76741   4.231   8.477   9.025  0.4866 -0.0511 -0.5230
  557MOL0     C76742   4.290   8.619   9.029  0.2192  0.8259 -0.0119
  557MOL0     C76743   4.443   8.625   9.038 -0.1576  0.6045 -0.6192
  557MOL0     C76744   4.520   8.561   8.925 -0.7873 -0.4710  0.6384
  557MOL0     N76745   4.665   8.570   8.942 -0.7728 -0.3370 -0.9047
  557MOL0     C76746   4.741   8.685   8.932 -0.6547  0.8167  0.1071
  557MOL0     C76747   4.864   8.644   8.984 -0.6954 -0.3551 -0.4106
  557MOL0     C76748   4.985   8.730   8.978 -0.0393 -0.3325 -0.1286
  557MOL0     C76749   5.038   8.747   8.836  0.3531  0.3236 -0.0505
  557MOL0     C76750   5.178   8.812   8.833 -0.4832  0.0607  0.3675
  557MOL0     C76751   5.212   8.848   8.686 -1.0173 -0.2033 -0.2951
  557MOL0     O76752   5.350   8.891   8.672  0.8073 -0.6710  0.4452
  557MOL0     C76753   5.461   8.822   8.709 -0.0677  0.0181 -0.3976
  557MOL0     C76754   5.463   8.684   8.740  0.0060  0.4165  0.9606
  557MOL0     C76755   5.587   8.620   8.755 -0.2341 -0.5496  0.8720
  557MOL0     C76756   5.601   8.466   8.780  0.4711  0.3791 -0.7672
  557MOL0     C76757   5.711   8.701   8.768 -0.2753  0.4208 -0.2489
  557MOL0     C76758   5.847   8.655   8.797  0.8436 -0.1472 -0.8727
  557MOL0     O76759   5.947   8.743   8.821 -0.1744 -0.6671 -0.1661
  557MOL0     C76760   6.070   8.690   8.808  0.8693  0.2898  0.9650
  557MOL0     C76761   6.143   8.628   8.908  0.3348  1.3274  0.2706
  557MOL0     C76762   6.258   8.556   8.871  0.6551 -0.7344 -0.7579
  557MOL0     C76763   6.304   8.533   8.736  0.1648  0.3120 -0.2566
  557MOL0     O76764   6.417   8.457   8.709 -0.5655  0.0735 -0.2998
  557MOL0     C76765   6.489   8.478   8.588 -0.6555 -1.4397 -0.0490
  557MOL0     C76766   6.631   8.435   8.596 -0.6122 -0.5274 -0.7055
  557MOL0     C76767   6.660   8.326   8.693  0.0038  0.9151  1.2195
  557MOL0     C76768   6.605   8.192   8.656 -0.1967  0.0903  0.0432
  557MOL0     C76769   6.663   8.083   8.749  0.1915 -0.2052  0.3138
  557MOL0     C76770   6.806   8.033   8.720 -0.0692 -0.1902  0.0381
  557MOL0     C76771   6.824   7.892   8.786 -0.0542 -0.2766 -0.1903
  557MOL0     C76772   6.968   7.845   8.802  0.8380  0.5162  0.2475
  557MOL0    Cl76773   7.070   7.939   8.920  0.5239 -0.0074  0.1723
  557MOL0     C76774   6.232   8.595   8.635 -0.0430 -1.0171 -0.4706
  557MOL0     C76775   6.111   8.676   8.674  0.1415  0.4600 -0.8744
  557MOL0     O76776   5.862   8.531   8.812 -0.3311  0.3586  0.5806
  557MOL0     C76777   5.701   8.843   8.749  0.1382  0.4007 -1.2939
  557MOL0     C76778   5.579   8.899   8.716  0.3985 -0.4299 -0.7269
  557MOL0     N76779   4.853   8.519   9.031  0.0222 -0.3138 -0.6197
  557MOL0     N76780   4.729   8.483   9.031 -0.5583 -0.6923 -0.2217
  557MOL0     C76781   3.756   8.411   8.657 -0.0048 -0.0644  0.3415
  557MOL0     C76782   3.663   8.422   8.554  0.6876  0.9656  0.3332
  557MOL0     C76783   3.209   8.497   8.406  0.4231  0.9218  0.1078
  557MOL0     C76784   3.250   8.625   8.385 -0.1879 -1.4256 -0.6804
  557MOL0     C76785   3.162   8.716   8.320  0.3581 -0.6066  0.1214
  557MOL0     C76786   3.043   8.669   8.257  0.2672 -0.6500 -0.4295
  557MOL0     O76787   2.981   8.763   8.174 -0.1708  0.5721 -0.3527
  557MOL0     C76788   2.868   8.715   8.100  0.6176 -0.2433 -0.3968
  557MOL0     C76789   2.790   8.823   8.026 -0.2147  0.2362 -0.2977
  557MOL0     C76790   2.861   8.864   7.898 -0.4626  0.1612 -0.0600
  557MOL0     C76791   2.779   8.961   7.806 -0.6516  0.7868  1.0841
  557MOL0     C76792   2.860   9.033   7.705  0.1138 -0.3412 -0.1668
  557MOL0     C76793   2.919   9.100   7.620  0.4125  0.0130  0.1443
  557MOL0     C76794   3.000   8.545   8.295  0.4691  0.6483  0.4642
  557MOL0     C76795   3.084   8.448   8.350 -0.5309  0.3581  1.1935
  557MOL0     C76796   3.050   8.301   8.351 -0.7836  0.1145 -0.3922
  557MOL0     H76797   3.379   8.464   8.732 -0.0096  0.0953 -0.8987
  557MOL0     H76798   3.540   8.445   8.917 -0.9899  0.7621 -0.3130
  557MOL0     H76799   3.697   8.374   9.040 -0.7207 -2.3985 -3.4210
  557MOL0     H76800   3.797   8.522   9.039 -0.0666  0.6515 -1.9098
  557MOL0     H76801   3.874   8.363   9.204  1.5251  0.4013 -0.6464
  557MOL0     H76802   3.859   8.229   9.080  1.7495 -0.2439 -0.9932
  557MOL0     H76803   4.088   8.266   9.109 -0.0371  0.8199  0.3229
  557MOL0     H76804   4.036   8.318   8.948 -1.1164 -0.0247 -0.5416
  557MOL0     H76805   4.030   8.547   8.992 -0.1568  0.1048  0.0229
  557MOL0     H76806   4.074   8.522   9.160 -0.4412 -1.2895  0.4720
  557MOL0     H76807   4.254   8.423   8.932  1.1966 -0.3259 -0.1951
  557MOL0     H76808   4.275   8.412   9.101 -0.5970  0.0113  0.1642
  557MOL0     H76809   4.262   8.664   8.933  2.5463  1.0905 -0.6270
  557MOL0     H76810   4.239   8.671   9.110 -2.1835 -1.8081  0.3167
  557MOL0     H76811   4.467   8.572   9.131 -3.6730 -1.7096 -0.8279
  557MOL0     H76812   4.467   8.731   9.049  1.1074  0.1082  2.9738
  557MOL0     H76813   4.495   8.457   8.905  0.7949 -0.6808 -0.4643
  557MOL0     H76814   4.491   8.610   8.831 -0.8366  0.2221  1.0089
  557MOL0     H76815   4.729   8.776   8.875 -0.8874  0.7447  0.0421
  557MOL0     H76816   5.061   8.682   9.040 -1.0264  0.5973  1.9282
  557MOL0     H76817   4.956   8.827   9.019  1.2973  1.2071 -2.5923
  557MOL0     H76818   5.035   8.648   8.789  0.5211 -0.0109  0.6298
  557MOL0     H76819   4.963   8.809   8.785 -1.8979 -0.9396  1.5226
  557MOL0     H76820   5.191   8.902   8.894  0.8486  0.5656 -0.6429
  557MOL0     H76821   5.256   8.749   8.876 -0.2264 -0.9655 -1.5395
  557MOL0     H76822   5.190   8.764   8.620 -0.9801  1.0069 -1.9162
  557MOL0     H76823   5.137   8.921   8.656 -2.6618 -0.9881  1.7375
  557MOL0     H76824   5.371   8.627   8.734  1.6747 -2.5439  1.7330
  557MOL0     H76825   5.658   8.423   8.697  1.2369  0.7895 -0.4675
  557MOL0     H76826   5.506   8.413   8.775  1.3696 -1.3873  0.1726
  557MOL0     H76827   5.654   8.459   8.875  0.3542  3.5247 -0.3601
  557MOL0     H76828   6.117   8.624   9.013  1.2203 -2.3196  0.4924
  557MOL0     H76829   6.317   8.508   8.949  1.7765  1.2386 -0.3269
  557MOL0     H76830   6.445   8.418   8.508 -0.8387  2.4162 -3.1659
  557MOL0     H76831   6.487   8.581   8.550  0.7874 -2.1249 -2.1838
  557MOL0     H76832   6.683   8.416   8.502  1.5829  0.4717  0.2209
  557MOL0     H76833   6.678   8.528   8.628 -1.5093 -0.2216 -0.2476
  557MOL0     H76834   6.612   8.358   8.786  0.4049 -2.4809  2.7811
  557MOL0     H76835   6.768   8.315   8.704  0.0013 -0.5655  0.1063
  557MOL0     H76836   6.628   8.157   8.555 -0.3915 -0.6614  0.2533
  557MOL0     H76837   6.496   8.197   8.663 -0.4226 -0.2703 -2.4480
  557MOL0     H76838   6.654   8.114   8.854  2.1275  5.2201 -0.7726
  557MOL0     H76839   6.595   7.999   8.734  1.6535 -1.2677 -0.6171
  557MOL0     H76840   6.880   8.105   8.757  1.2997 -2.2278  1.4674
  557MOL0     H76841   6.827   8.029   8.612  2.2685  1.1356  0.3601
  557MOL0     H76842   6.760   7.818   8.737  0.1891  0.4203 -1.5923
  557MOL0     H76843   6.783   7.901   8.887  0.5410  0.9114 -0.0420
  557MOL0     H76844   7.011   7.863   8.703 -1.2496  4.3728 -0.1477
  557MOL0     H76845   6.961   7.738   8.822  3.8024 -0.0216 -1.1247
  557MOL0     H76846   6.262   8.578   8.532  2.5374 -0.8764  0.2004
  557MOL0     H76847   6.055   8.723   8.594 -1.6223  1.2496  0.7494
  557MOL0     H76848   5.784   8.912   8.757  1.6142 -1.4915  1.6237
  557MOL0     H76849   5.580   9.008   8.714  0.7140 -0.2615  2.5199
  557MOL0     H76850   3.863   8.404   8.637 -0.3639 -0.0463 -1.8803
  557MOL0     H76851   3.685   8.404   8.449 -0.5532 -1.0376  0.3526
  557MOL0     H76852   3.348   8.655   8.420  0.1729 -2.2966 -0.9198
  557MOL0     H76853   3.191   8.816   8.291  2.1050 -1.0783  0.1557
  557MOL0     H76854   2.894   8.640   8.024 -2.2940 -0.0072 -1.7715
  557MOL0     H76855   2.800   8.667   8.170 -2.0871  2.1736 -1.1623
  557MOL0     H76856   2.794   8.905   8.099  2.4798  0.3093 -0.4314
  557MOL0     H76857   2.687   8.786   8.018  0.0324 -0.3670 -0.8173
  557MOL0     H76858   2.949   8.925   7.918 -1.2865  2.0022 -1.7646
  557MOL0     H76859   2.886   8.773   7.841 -0.5319  1.4277 -2.2162
  557MOL0     H76860   2.726   9.043   7.853 -2.1404  3.2557 -4.1485
  557MOL0     H76861   2.696   8.913   7.753  0.3592  1.0054 -0.7916
  557MOL0     H76862   2.987   9.162   7.566 -0.3166 -1.1354 -2.2390
  557MOL0     H76863   2.910   8.498   8.259 -0.1161  0.1529  2.4323
  557MOL0     H76864   2.990   8.280   8.440 -0.2843 -0.0718 -0.1007
  557MOL0     H76865   2.988   8.280   8.263 -3.1379  2.1370  0.6204
  557MOL0     H76866   3.144   8.247   8.343 -0.7239  0.4028 -1.9851
  558MOL0     O76867   7.691   7.190   1.775 -0.9794  0.8949 -0.5627
  558MOL0     C76868   7.599   7.267   1.767  0.2204  0.0420  0.0550
  558MOL0     O76869   7.590   7.384   1.826  0.1753 -0.1270 -0.2939
  558MOL0     C76870   7.696   7.443   1.894  0.7604  0.1834  0.4833
  558MOL0     C76871   7.796   7.374   1.967 -0.7956  0.4092  0.0369
  558MOL0     C76872   7.878   7.448   2.056 -0.7614 -0.5884  0.0939
  558MOL0     C76873   7.878   7.586   2.049  0.0241 -0.7543  0.1855
  558MOL0     O76874   7.963   7.656   2.133 -0.5657  0.1404  0.3275
  558MOL0     C76875   8.056   7.756   2.072 -0.5519 -0.1807  1.1581
  558MOL0     C76876   8.016   7.887   2.111  0.1720  0.2369 -0.0892
  558MOL0     C76877   8.088   8.001   2.037 -0.6325  0.0698  0.2642
  558MOL0     C76878   8.203   8.060   2.112 -0.9746 -0.6080  0.2505
  558MOL0     C76879   8.269   8.184   2.042  0.0939 -0.3420  0.0973
  558MOL0     C76880   8.315   8.158   1.891 -0.8971  0.5627 -0.8133
  558MOL0     C76881   8.381   8.281   1.831  0.5689 -1.1242 -0.0735
  558MOL0     C76882   8.536   8.276   1.821 -0.5705  0.4910  0.1187
  558MOL0     N76883   8.606   8.390   1.764  0.1835 -0.0438  0.4843
  558MOL0     C76884   8.638   8.502   1.840 -0.7211  0.2702 -0.4340
  558MOL0     C76885   8.693   8.596   1.757 -0.1463 -0.1431 -0.4013
  558MOL0     C76886   8.732   8.741   1.789 -0.3540  0.3546  0.2775
  558MOL0     C76887   8.863   8.734   1.867 -0.0414 -0.3181 -0.4162
  558MOL0     C76888   8.930   8.873   1.868 -0.5543  0.0117 -0.8974
  558MOL0     C76889   9.078   8.870   1.890  0.1053  0.1555 -0.7977
  558MOL0     O76890   9.144   8.832   1.768  0.8267 -0.0788 -0.1459
  558MOL0     C76891   9.279   8.806   1.769 -0.2507 -0.2013 -0.4090
  558MOL0     C76892   9.336   8.747   1.658  0.6763 -0.2790  0.1847
  558MOL0     C76893   9.474   8.723   1.645  0.6560  0.0365  0.8723
  558MOL0     C76894   9.526   8.635   1.533  0.5053 -0.3087 -0.5813
  558MOL0     C76895   9.563   8.772   1.750  0.7245 -0.6135 -0.3107
  558MOL0     C76896   9.712   8.764   1.745 -0.2433  0.2025  0.1780
  558MOL0     O76897   9.776   8.687   1.652  0.0646 -0.4980  0.1490
  558MOL0     C76898   9.910   8.683   1.661  0.8880 -0.0797  0.2422
  558MOL0     C76899   9.988   8.786   1.611 -0.2948  0.6082 -1.2808
  558MOL0     C76900  10.127   8.780   1.624  0.3378 -0.0954  0.2148
  558MOL0     C76901  10.198   8.670   1.677 -0.7452  0.7685  0.4951
  558MOL0     O76902  10.332   8.687   1.700  0.0932 -0.0109  0.8932
  558MOL0     C76903  10.408   8.567   1.726 -0.7090  0.5669 -0.2480
  558MOL0     C76904  10.558   8.600   1.753 -0.0768 -0.2157 -0.0573
  558MOL0     C76905  10.623   8.659   1.634  0.1338 -0.1353  0.2148
  558MOL0     C76906  10.767   8.681   1.657  0.5891  0.2626  0.6395
  558MOL0     C76907  10.861   8.686   1.529 -0.5134 -0.1717 -0.1549
  558MOL0     C76908  11.003   8.692   1.564 -0.3688 -0.0226  0.1780
  558MOL0     C76909  11.069   8.823   1.616  0.6183  0.2062  0.4571
  558MOL0     C76910  11.213   8.791   1.654 -1.1972  0.6379 -0.3701
  558MOL0    Cl76911  11.314   8.938   1.658  0.3797 -0.3000 -0.0109
  558MOL0     C76912  10.120   8.554   1.707 -0.5321 -0.2475 -0.3712
  558MOL0     C76913   9.982   8.562   1.699  0.5108  0.0656 -0.1714
  558MOL0     O76914   9.771   8.844   1.820 -0.3006  0.9829 -0.7503
  558MOL0     C76915   9.502   8.844   1.861  0.3106 -0.2974  0.5109
  558MOL0     C76916   9.364   8.859   1.873 -0.1064  1.5771  0.2601
  558MOL0     N76917   8.695   8.532   1.639  0.5529  0.6999  0.3021
  558MOL0     N76918   8.637   8.411   1.636  0.6135  0.2033  0.7250
  558MOL0     C76919   7.793   7.651   1.962  0.2830 -0.3478 -0.1869
  558MOL0     C76920   7.696   7.581   1.887 -0.4835 -0.6549  0.1478
  558MOL0     C76921   7.470   7.216   1.709  0.3302  0.1796  0.1137
  558MOL0     C76922   7.348   7.283   1.723  0.2327  0.2499  0.3858
  558MOL0     C76923   7.221   7.240   1.663 -0.8536 -0.0187  0.2677
  558MOL0     C76924   7.226   7.125   1.582  0.1136 -0.1325  0.1675
  558MOL0     O76925   7.106   7.068   1.528 -0.5289 -0.5893  0.1890
  558MOL0     C76926   7.078   7.121   1.397  0.3121  0.5356  0.1202
  558MOL0     C76927   6.995   7.238   1.403 -0.5217 -0.1202  0.5759
  558MOL0     C76928   6.854   7.189   1.426  0.0118 -0.2707 -0.0001
  558MOL0     C76929   6.744   7.302   1.430 -0.5076  0.3957 -0.0495
  558MOL0     C76930   6.614   7.243   1.400 -0.0198 -0.4424  0.1908
  558MOL0     C76931   6.504   7.215   1.376  0.8315  0.5918  0.2505
  558MOL0     C76932   7.348   7.065   1.555 -0.6701  0.2452  0.1974
  558MOL0     C76933   7.470   7.102   1.615  0.2822 -0.2267 -0.9892
  558MOL0     C76934   7.596   7.032   1.567  0.1707  0.5008 -0.0016
  558MOL0     H76935   7.796   7.266   1.976 -1.3786  0.3968 -0.0443
  558MOL0     H76936   7.947   7.397   2.123  0.4035  1.6427  0.7104
  558MOL0     H76937   8.045   7.745   1.964 -2.2637  2.3292  1.0057
  558MOL0     H76938   8.156   7.738   2.113 -0.0565 -0.4268 -0.0963
  558MOL0     H76939   7.910   7.895   2.082  0.5633 -1.3784 -2.1857
  558MOL0     H76940   8.026   7.888   2.220 -2.5329 -2.9663  0.3583
  558MOL0     H76941   8.124   7.973   1.937 -0.6237 -3.2033  1.0764
  558MOL0     H76942   8.016   8.079   2.013  0.2119  0.2909 -1.7757
  558MOL0     H76943   8.156   8.097   2.204 -2.7735 -0.5499 -0.6448
  558MOL0     H76944   8.279   7.983   2.124  0.4573  0.7373  0.0772
  558MOL0     H76945   8.350   8.218   2.108 -2.2551  1.6782  2.1244
  558MOL0     H76946   8.194   8.263   2.043 -1.9186 -2.1734  0.7909
  558MOL0     H76947   8.382   8.072   1.885 -1.4649  0.0316  0.1915
  558MOL0     H76948   8.225   8.136   1.833 -1.5566  2.2048 -0.4621
  558MOL0     H76949   8.362   8.368   1.895  1.0589 -1.0172 -0.0720
  558MOL0     H76950   8.346   8.305   1.730 -1.5108  2.2356  1.2571
  558MOL0     H76951   8.570   8.265   1.924 -2.2323 -2.5254  0.4620
  558MOL0     H76952   8.551   8.180   1.771 -0.4935 -0.1999  1.4328
  558MOL0     H76953   8.629   8.506   1.948 -0.2925  1.7824 -0.4243
  558MOL0     H76954   8.653   8.790   1.847 -0.8760  0.3199 -0.3944
  558MOL0     H76955   8.744   8.793   1.693  1.5054 -0.0702  0.2401
  558MOL0     H76956   8.851   8.691   1.967 -1.9583 -2.2667 -1.3942
  558MOL0     H76957   8.937   8.666   1.824  3.6156  2.5117  0.9028
  558MOL0     H76958   8.917   8.917   1.768 -2.4819  0.0618 -0.6651
  558MOL0     H76959   8.888   8.945   1.939 -1.3365  0.3048 -1.6411
  558MOL0     H76960   9.105   8.971   1.920 -0.9091  0.3316 -0.4331
  558MOL0     H76961   9.100   8.804   1.974 -4.5923  2.0934  2.3642
  558MOL0     H76962   9.270   8.715   1.578  0.6561 -0.6360  0.3455
  558MOL0     H76963   9.449   8.605   1.462 -1.3915  0.8146  0.9250
  558MOL0     H76964   9.576   8.547   1.575  0.0782  0.4023  1.5343
  558MOL0     H76965   9.602   8.676   1.465 -1.0405 -1.1882 -2.9599
  558MOL0     H76966   9.945   8.880   1.577  0.3674  0.7786 -1.6577
  558MOL0     H76967  10.183   8.868   1.592 -1.2369  0.4004 -1.3874
  558MOL0     H76968  10.377   8.503   1.809 -0.2687 -0.0342 -0.5471
  558MOL0     H76969  10.401   8.495   1.644 -0.3991 -0.7999  0.8848
  558MOL0     H76970  10.564   8.671   1.835 -0.2860 -0.7910  0.4630
  558MOL0     H76971  10.616   8.511   1.780  0.2020 -0.3010 -0.8858
  558MOL0     H76972  10.576   8.753   1.605  0.3464 -0.0359  0.1955
  558MOL0     H76973  10.613   8.586   1.552 -0.3403 -0.3691  0.4737
  558MOL0     H76974  10.813   8.598   1.713  0.5166 -0.5468 -0.4728
  558MOL0     H76975  10.773   8.774   1.714 -2.7942  1.6433 -0.9663
  558MOL0     H76976  10.843   8.601   1.463 -2.7759  0.9481 -1.1216
  558MOL0     H76977  10.834   8.759   1.452  0.3499  0.6713  0.3237
  558MOL0     H76978  11.058   8.646   1.481 -1.0490 -3.6941  1.5487
  558MOL0     H76979  11.017   8.614   1.640  1.7787  1.3732  1.3194
  558MOL0     H76980  11.011   8.853   1.704  2.8261  1.8933  1.4353
  558MOL0     H76981  11.070   8.903   1.541 -0.6287  1.0996  1.3477
  558MOL0     H76982  11.257   8.714   1.590  0.1103 -2.2498  3.5576
  558MOL0     H76983  11.207   8.754   1.757 -1.1007  2.5549  0.3727
  558MOL0     H76984  10.168   8.460   1.734 -0.7951 -0.2932 -0.0631
  558MOL0     H76985   9.923   8.471   1.716 -0.9327  0.8553 -0.7487
  558MOL0     H76986   9.562   8.880   1.944  2.6379 -2.1189 -0.2495
  558MOL0     H76987   9.318   8.910   1.957 -0.8775  0.3627  0.6091
  558MOL0     H76988   7.804   7.758   1.953  0.8518 -0.3971 -0.1159
  558MOL0     H76989   7.626   7.622   1.814 -1.8690 -2.2844  0.4842
  558MOL0     H76990   7.342   7.362   1.798  2.0565 -0.6740  1.5726
  558MOL0     H76991   7.124   7.288   1.679 -2.3258 -3.4559  2.9722
  558MOL0     H76992   7.173   7.144   1.348  0.3746  2.0158  0.8676
  558MOL0     H76993   7.025   7.051   1.332 -2.7033  2.5674  0.2085
  558MOL0     H76994   7.001   7.288   1.306  2.8106  0.2033  0.8589
  558MOL0     H76995   7.035   7.308   1.476  2.7371 -2.3391  1.1213
  558MOL0     H76996   6.836   7.112   1.350  0.5497 -1.1493  0.7377
  558MOL0     H76997   6.850   7.134   1.521  0.0093 -2.6480 -1.2869
  558MOL0     H76998   6.760   7.383   1.358  0.5716  1.9270  1.8157
  558MOL0     H76999   6.754   7.340   1.532  1.5833  1.7901 -0.7028
  558MOL0     H77000   6.404   7.177   1.374  1.0754 -0.0509  0.1778
  558MOL0     H77001   7.333   6.988   1.481  0.7851  0.5545 -0.4659
  558MOL0     H77002   7.671   7.107   1.538 -1.1087  2.5196  1.6302
  558MOL0     H77003   7.639   6.969   1.645  0.6737  1.6066  0.6501
  558MOL0     H77004   7.584   6.965   1.482 -0.1324 -0.8352  1.0674
  559MOL0     O77005   0.180   2.411   0.829 -0.5065  0.3450 -0.1317
  559MOL0     C77006   0.195   2.392   0.709  0.5477  0.0347 -0.2465
  559MOL0     O77007   0.313   2.413   0.639  0.2358 -0.0750 -0.2338
  559MOL0     C77008   0.415   2.481   0.702 -0.8515  0.9388 -0.5137
  559MOL0     C77009   0.542   2.418   0.708 -0.0301  0.1018  0.4622
  559MOL0     C77010   0.648   2.488   0.763  0.4465  0.1333 -0.3654
  559MOL0     C77011   0.633   2.619   0.810  0.3909 -0.3634 -0.5685
  559MOL0     O77012   0.746   2.682   0.866 -0.2465 -0.4081  0.2002
  559MOL0     C77013   0.772   2.814   0.816  0.0592  0.0171  0.4190
  559MOL0     C77014   0.928   2.841   0.775  0.1995  0.7828  0.0055
  559MOL0     C77015   0.937   2.989   0.720 -0.7337 -0.1622  0.8247
  559MOL0     C77016   1.090   3.022   0.731 -0.5614  0.5265 -1.0807
  559MOL0     C77017   1.137   3.040   0.880 -1.0903 -0.0353  0.3494
  559MOL0     C77018   1.272   3.122   0.869  0.4515 -0.5548 -0.0142
  559MOL0     C77019   1.334   3.147   1.004  0.3264  0.7160 -0.3119
  559MOL0     C77020   1.418   3.282   1.021 -0.3258 -0.2256 -0.3841
  559MOL0     N77021   1.547   3.271   0.954 -0.5611  0.1505  0.0105
  559MOL0     C77022   1.650   3.176   0.976  0.7221  0.0685  0.4917
  559MOL0     C77023   1.745   3.206   0.880  0.1039  0.0148 -0.4941
  559MOL0     C77024   1.866   3.116   0.875  0.5684  0.1937 -0.0124
  559MOL0     C77025   1.968   3.170   0.779  0.5951 -0.1259  0.1290
  559MOL0     C77026   2.091   3.076   0.780  0.4698  0.4130  0.0181
  559MOL0     C77027   2.216   3.121   0.701 -0.0367 -0.2868 -1.3828
  559MOL0     O77028   2.171   3.130   0.558  0.7350 -0.7272 -1.0919
  559MOL0     C77029   2.248   3.179   0.461 -0.0950  0.7090  0.1157
  559MOL0     C77030   2.366   3.246   0.494 -1.0053  0.3501 -0.2554
  559MOL0     C77031   2.442   3.314   0.407  0.0243  0.9973 -0.1793
  559MOL0     C77032   2.567   3.384   0.455  0.6836 -0.5100 -0.0255
  559MOL0     C77033   2.397   3.313   0.275 -0.6129 -0.1824  0.4494
  559MOL0     C77034   2.478   3.369   0.167 -0.7832 -0.0559  0.5806
  559MOL0     O77035   2.413   3.429   0.072 -0.5169 -0.6710 -0.3163
  559MOL0     C77036   2.465   3.458  -0.047  0.0772  0.3838 -0.4498
  559MOL0     C77037   2.438   3.392  -0.163 -0.2266  0.3155 -0.8826
  559MOL0     C77038   2.518   3.417  -0.277 -0.2438  0.0483 -0.5331
  559MOL0     C77039   2.608   3.524  -0.271 -1.5467 -0.4265  0.6572
  559MOL0     O77040   2.687   3.563  -0.378  0.5486  0.0529  0.6064
  559MOL0     C77041   2.674   3.489  -0.496  0.0511 -0.2452  0.4050
  559MOL0     C77042   2.788   3.535  -0.587 -1.3797  0.3027 -0.2916
  559MOL0     C77043   2.799   3.473  -0.738 -0.7377  0.5186  0.3660
  559MOL0     C77044   2.947   3.475  -0.794  1.5206 -0.0101  0.3700
  559MOL0     C77045   2.941   3.460  -0.949  1.0883 -0.0103  0.4756
  559MOL0     C77046   2.848   3.352  -1.001  0.0353  0.0637  0.1460
  559MOL0     C77047   2.891   3.318  -1.145 -1.1576  0.5011 -0.6129
  559MOL0     C77048   2.940   3.172  -1.153  0.1873 -0.2333  0.0804
  559MOL0    Cl77049   2.797   3.062  -1.122 -0.1104 -0.0895 -0.0324
  559MOL0     C77050   2.626   3.601  -0.162  0.3407 -0.4705  0.8565
  559MOL0     C77051   2.558   3.563  -0.052 -0.3498  0.2677 -0.3442
  559MOL0     O77052   2.602   3.351   0.174 -0.2795 -0.1629 -0.6136
  559MOL0     C77053   2.279   3.248   0.229 -0.3628 -0.5983 -0.8332
  559MOL0     C77054   2.201   3.183   0.325  0.3033 -0.4311 -0.5545
  559MOL0     N77055   1.695   3.312   0.802 -0.3928  0.2430 -0.0527
  559MOL0     N77056   1.583   3.348   0.844  0.3283 -0.8939 -0.2986
  559MOL0     C77057   0.508   2.667   0.817  0.7241 -0.2140 -0.9175
  559MOL0     C77058   0.400   2.595   0.774 -0.3423 -1.0844  0.1932
  559MOL0     C77059   0.079   2.339   0.644 -0.0239  0.0073 -0.2563
  559MOL0     C77060   0.102   2.222   0.569  0.1411 -0.2808 -0.0060
  559MOL0     C77061  -0.004   2.161   0.501  0.1617 -0.0694  0.2159
  559MOL0     C77062  -0.137   2.203   0.499  0.2476  0.2697  0.4469
  559MOL0     O77063  -0.240   2.140   0.439  0.4206  0.0619  0.5201
  559MOL0     C77064  -0.221   2.013   0.372  0.3621  0.0686  0.4376
  559MOL0     C77065  -0.358   1.948   0.339  0.1601  0.4392 -1.2363
  559MOL0     C77066  -0.363   1.922   0.187  0.4033 -0.5253  0.0732
  559MOL0     C77067  -0.492   1.849   0.138 -0.7160 -0.0158 -0.2967
  559MOL0     C77068  -0.614   1.899   0.197 -0.0244  0.3594  0.0476
  559MOL0     C77069  -0.724   1.926   0.248 -0.4671  0.6076  0.3756
  559MOL0     C77070  -0.164   2.312   0.577  0.0794 -1.1764  0.5045
  559MOL0     C77071  -0.062   2.383   0.648 -0.2159  0.2513 -0.1874
  559MOL0     C77072  -0.114   2.508   0.723 -0.3598 -0.0359  0.4618
  559MOL0     H77073   0.538   2.317   0.669 -2.1965  0.7666 -1.2420
  559MOL0     H77074   0.746   2.441   0.762  0.8333  0.7919 -3.5544
  559MOL0     H77075   0.744   2.897   0.881  1.2182 -0.1405  1.1477
  559MOL0     H77076   0.712   2.830   0.726  0.4157 -0.4253  0.0970
  559MOL0     H77077   0.999   2.820   0.856 -1.4138  0.6537  1.4329
  559MOL0     H77078   0.961   2.769   0.699  0.9972  2.1593 -1.0002
  559MOL0     H77079   0.911   2.981   0.614 -1.3675 -1.0970  1.0382
  559MOL0     H77080   0.874   3.057   0.779 -0.1710 -1.6378  3.2520
  559MOL0     H77081   1.151   2.942   0.687  0.8936  0.9717  0.0404
  559MOL0     H77082   1.108   3.114   0.675  1.1550  0.3366 -0.8887
  559MOL0     H77083   1.160   2.945   0.929 -1.4123 -1.5975 -2.3124
  559MOL0     H77084   1.060   3.090   0.939 -2.3180  0.9485 -1.9470
  559MOL0     H77085   1.338   3.065   0.803 -0.8578 -4.5859  1.8520
  559MOL0     H77086   1.241   3.218   0.826  0.5150 -0.2768  0.5599
  559MOL0     H77087   1.403   3.065   1.024  1.8156  2.1343  0.5838
  559MOL0     H77088   1.265   3.138   1.089  0.4225 -1.1526 -0.3911
  559MOL0     H77089   1.358   3.364   0.980  0.9295  0.1897 -1.4515
  559MOL0     H77090   1.426   3.310   1.127 -3.3405  0.3111 -0.2080
  559MOL0     H77091   1.658   3.087   1.036  1.4810 -0.0170  0.2683
  559MOL0     H77092   1.846   3.015   0.838  0.2611 -0.1385  1.0054
  559MOL0     H77093   1.915   3.114   0.973  0.6095 -0.4372 -0.0448
  559MOL0     H77094   1.908   3.182   0.688 -1.9652  1.3051  1.8502
  559MOL0     H77095   2.006   3.271   0.796  1.4639 -0.2417 -0.9898
  559MOL0     H77096   2.117   3.059   0.885  0.1520  2.9879  0.5883
  559MOL0     H77097   2.066   2.975   0.747  1.0502  0.2249  0.1256
  559MOL0     H77098   2.255   3.213   0.744 -1.3984 -0.4443  0.3121
  559MOL0     H77099   2.304   3.056   0.708  0.2251  0.2620  2.3131
  559MOL0     H77100   2.406   3.235   0.595 -1.4892 -4.0090 -0.3468
  559MOL0     H77101   2.568   3.489   0.425 -1.2033 -0.1830  0.9389
  559MOL0     H77102   2.652   3.331   0.410  0.4025 -0.9061 -0.0922
  559MOL0     H77103   2.580   3.371   0.563 -0.3765 -4.7589 -0.2376
  559MOL0     H77104   2.374   3.304  -0.162  0.7793 -0.4221 -0.3708
  559MOL0     H77105   2.506   3.363  -0.370  1.2441  0.6561 -1.0972
  559MOL0     H77106   2.689   3.381  -0.488  0.9470 -0.1964 -0.4296
  559MOL0     H77107   2.577   3.511  -0.541 -0.0612 -1.7176 -0.1055
  559MOL0     H77108   2.792   3.644  -0.601  3.4633  0.1954 -1.4704
  559MOL0     H77109   2.877   3.500  -0.535 -2.8748 -1.8939  0.9462
  559MOL0     H77110   2.739   3.529  -0.810 -0.3776 -1.0614 -1.2384
  559MOL0     H77111   2.773   3.367  -0.731 -0.0353  0.2878 -0.2664
  559MOL0     H77112   3.019   3.400  -0.759  3.6394  0.0644 -3.2785
  559MOL0     H77113   2.995   3.573  -0.787  1.7567 -0.2648  3.3516
  559MOL0     H77114   2.922   3.547  -1.012  3.6518 -1.7614 -3.0474
  559MOL0     H77115   3.042   3.431  -0.977  1.0090  1.3338 -1.4099
  559MOL0     H77116   2.743   3.381  -1.000  0.1129  0.3444  0.1697
  559MOL0     H77117   2.858   3.264  -0.936 -3.0950 -0.9298 -0.5098
  559MOL0     H77118   2.973   3.383  -1.177 -0.2820 -1.4014 -2.3961
  559MOL0     H77119   2.803   3.336  -1.207 -1.0986  1.3730 -0.4593
  559MOL0     H77120   3.022   3.165  -1.081  0.3459  1.2533  0.0801
  559MOL0     H77121   2.969   3.146  -1.255  0.2095  2.2584 -0.6107
  559MOL0     H77122   2.695   3.685  -0.160  0.3574 -0.4945  1.3129
  559MOL0     H77123   2.569   3.625   0.037  1.9411  1.3174 -1.2649
  559MOL0     H77124   2.254   3.244   0.123 -0.3184  1.4096 -0.9617
  559MOL0     H77125   2.113   3.125   0.299  0.5278 -1.5870  1.0688
  559MOL0     H77126   0.491   2.766   0.857  4.7934 -0.3228  1.5678
  559MOL0     H77127   0.303   2.636   0.799 -0.4902  0.0840 -1.9756
  559MOL0     H77128   0.198   2.172   0.564  0.6341  0.5456  0.8202
  559MOL0     H77129   0.027   2.077   0.440  1.3843  1.5738 -1.5681
  559MOL0     H77130  -0.164   2.042   0.283 -0.8138  0.5813 -0.1859
  559MOL0     H77131  -0.161   1.949   0.437 -1.0261 -0.1462  1.5641
  559MOL0     H77132  -0.448   2.003   0.368 -1.4252 -1.9740 -1.2552
  559MOL0     H77133  -0.378   1.856   0.395 -0.6256  1.9272  1.0791
  559MOL0     H77134  -0.358   2.021   0.140  0.3625 -0.5371  0.0446
  559MOL0     H77135  -0.276   1.866   0.150  0.1511  0.3134 -1.9274
  559MOL0     H77136  -0.479   1.743   0.161  1.7884  0.5072  1.0804
  559MOL0     H77137  -0.498   1.863   0.029 -1.6679  0.8508 -0.1403
  559MOL0     H77138  -0.819   1.965   0.276 -0.0710  2.8027 -1.0241
  559MOL0     H77139  -0.265   2.348   0.563 -0.5120 -1.0979  3.9715
  559MOL0     H77140  -0.220   2.501   0.752  0.0421 -2.7024  1.5985
  559MOL0     H77141  -0.070   2.511   0.823 -1.2040 -0.4832  0.8610
  559MOL0     H77142  -0.096   2.603   0.672  3.0541 -0.6237  0.3583
  560MOL0     O77143   9.737   5.206   9.901  0.9038  0.8233 -0.8019
  560MOL0     C77144   9.760   5.082   9.910  0.1111  0.2745 -0.7307
  560MOL0     O77145   9.882   5.034   9.918  0.4911 -0.0638  0.0669
  560MOL0     C77146   9.996   5.104   9.937  0.3554 -0.1658 -0.6217
  560MOL0     C77147  10.011   5.231   9.999 -0.0224  0.0914  0.5796
  560MOL0     C77148  10.129   5.288  10.024 -0.3865 -0.2395  0.5868
  560MOL0     C77149  10.246   5.217   9.991  0.1105 -0.8221 -0.0435
  560MOL0     O77150  10.374   5.271  10.011  0.2617  0.4067  0.0563
  560MOL0     C77151  10.379   5.408  10.067  0.2196  0.2499  0.4519
  560MOL0     C77152  10.525   5.454  10.064  0.1254 -0.0197 -0.2485
  560MOL0     C77153  10.612   5.348  10.135 -0.2369 -0.1313 -0.0289
  560MOL0     C77154  10.758   5.407  10.147 -0.3964 -0.4659  0.3936
  560MOL0     C77155  10.876   5.305  10.181  0.4199 -1.0694 -0.4197
  560MOL0     C77156  10.854   5.259  10.331  0.4543  0.3058  0.3166
  560MOL0     C77157  10.973   5.181  10.394 -0.2169 -0.1861 -1.4477
  560MOL0     C77158  11.006   5.051  10.308  0.0159 -1.0578  0.4536
  560MOL0     N77159  11.081   4.948  10.376  0.7655  0.8137 -0.6523
  560MOL0     C77160  11.175   4.861  10.326 -0.5426  0.0747 -0.1071
  560MOL0     C77161  11.234   4.795  10.429 -0.6014 -0.0967 -0.6191
  560MOL0     C77162  11.356   4.708  10.416 -0.1937  0.1794 -0.1518
  560MOL0     C77163  11.451   4.693  10.537  0.9196 -0.8728 -0.3891
  560MOL0     C77164  11.557   4.597  10.494  1.2238 -0.4461  0.1744
  560MOL0     C77165  11.687   4.600  10.578  0.3773 -0.1407 -0.4566
  560MOL0     O77166  11.784   4.532  10.491  0.1615 -0.2262 -0.7808
  560MOL0     C77167  11.910   4.525  10.548 -0.3134 -0.2199 -0.3367
  560MOL0     C77168  12.020   4.532  10.462 -0.3361  0.2718 -0.1877
  560MOL0     C77169  12.151   4.529  10.505  0.5183 -0.1617 -0.5581
  560MOL0     C77170  12.264   4.548  10.400  0.2125 -0.3363 -0.5743
  560MOL0     C77171  12.172   4.522  10.647  0.7394 -0.1755 -0.0371
  560MOL0     C77172  12.302   4.518  10.720  0.0197 -0.3385 -0.0569
  560MOL0     O77173  12.401   4.503  10.640 -0.2868 -0.6952  0.2747
  560MOL0     C77174  12.530   4.483  10.668  0.1361  0.2630 -0.0352
  560MOL0     C77175  12.612   4.584  10.707 -0.5187 -0.3191  0.4204
  560MOL0     C77176  12.753   4.564  10.721 -0.1907 -0.3401  0.7813
  560MOL0     C77177  12.812   4.441  10.693 -0.1883 -1.4128 -0.1742
  560MOL0     O77178  12.945   4.434  10.692 -0.2402  0.3332 -0.0673
  560MOL0     C77179  13.027   4.518  10.610 -0.2975 -0.1169 -0.7134
  560MOL0     C77180  13.143   4.588  10.686  0.2579 -0.1635  0.2024
  560MOL0     C77181  13.224   4.666  10.583  0.4933  1.2527  0.7746
  560MOL0     C77182  13.343   4.724  10.645 -0.0748 -0.4587  0.5291
  560MOL0     C77183  13.479   4.649  10.633 -0.9767  0.5558  0.2478
  560MOL0     C77184  13.605   4.722  10.686 -0.1729 -0.1171  0.2291
  560MOL0     C77185  13.612   4.788  10.832  0.2636  0.0458 -0.3177
  560MOL0     C77186  13.732   4.867  10.877 -0.9380  0.2242  0.3632
  560MOL0    Cl77187  13.739   5.017  10.776 -0.0869  0.2344  0.5656
  560MOL0     C77188  12.727   4.336  10.665 -1.1014  0.1990  0.5645
  560MOL0     C77189  12.592   4.360  10.652  0.6004  0.0426  0.3843
  560MOL0     O77190  12.315   4.526  10.841  0.8329  0.0257 -0.2700
  560MOL0     C77191  12.066   4.507  10.729 -0.3966 -0.1777  0.2016
  560MOL0     C77192  11.932   4.502  10.684  0.0923  0.0659  0.7375
  560MOL0     N77193  11.171   4.843  10.546 -0.2761  0.2825  0.7957
  560MOL0     N77194  11.075   4.928  10.513 -0.5896  0.1749  0.2788
  560MOL0     C77195  10.233   5.088   9.937 -0.0946  0.5299 -0.1067
  560MOL0     C77196  10.111   5.026   9.913  0.8776 -0.9039 -0.2127
  560MOL0     C77197   9.639   4.994   9.912 -0.6007  0.6645  0.6420
  560MOL0     C77198   9.507   5.047   9.905  0.1236  0.5347 -0.1742
  560MOL0     C77199   9.402   4.968   9.873  0.6415  0.4576  0.3010
  560MOL0     C77200   9.407   4.827   9.878 -0.8981 -0.1232  0.1754
  560MOL0     O77201   9.297   4.751   9.846  0.0323  0.8616 -0.1325
  560MOL0     C77202   9.176   4.767   9.923  1.0273 -1.0362  0.2660
  560MOL0     C77203   9.084   4.654   9.876  0.9793  0.3491  0.1678
  560MOL0     C77204   8.938   4.686   9.929 -1.2327  0.1980 -0.1034
  560MOL0     C77205   8.837   4.582   9.876  0.8704  0.5566 -0.1558
  560MOL0     C77206   8.798   4.608   9.738  0.1400  0.6699 -0.1696
  560MOL0     C77207   8.774   4.632   9.626  0.5248 -0.4352  0.3611
  560MOL0     C77208   9.529   4.774   9.896 -0.3595 -0.7571  0.2856
  560MOL0     C77209   9.647   4.851   9.907 -0.5609  0.3087  0.4508
  560MOL0     C77210   9.777   4.774   9.897 -0.7754 -0.0338  0.1114
  560MOL0     H77211   9.929   5.287  10.042  2.2932  0.7419  4.6681
  560MOL0     H77212  10.117   5.392  10.055  1.5040  0.4113 -0.6786
  560MOL0     H77213  10.333   5.400  10.166  0.5150 -0.1168  0.5627
  560MOL0     H77214  10.321   5.485  10.014 -2.1579 -0.1214  2.3113
  560MOL0     H77215  10.562   5.463   9.962 -0.5186 -1.1345 -0.5949
  560MOL0     H77216  10.541   5.557  10.097  0.9089 -0.7534  1.8567
  560MOL0     H77217  10.569   5.351  10.236 -0.4369  0.2603 -0.1266
  560MOL0     H77218  10.608   5.249  10.088  2.5178 -0.0338 -0.6531
  560MOL0     H77219  10.777   5.442  10.045  0.0081  1.8136  1.2062
  560MOL0     H77220  10.754   5.492  10.216 -2.9281  1.8949 -2.3584
  560MOL0     H77221  10.975   5.352  10.176 -0.1490  0.1246 -1.0718
  560MOL0     H77222  10.873   5.219  10.114 -3.9491  0.2314 -2.1968
  560MOL0     H77223  10.838   5.338  10.405  2.1195  0.3690  0.6542
  560MOL0     H77224  10.771   5.188  10.338  2.0549 -1.5218  2.4992
  560MOL0     H77225  10.952   5.134  10.490  2.9404 -0.5803 -0.8288
  560MOL0     H77226  11.058   5.250  10.400 -2.0438  2.2210 -1.8747
  560MOL0     H77227  10.919   5.007  10.258  0.1743 -0.7732 -0.0862
  560MOL0     H77228  11.074   5.090  10.231  1.9530 -5.1788 -0.1842
  560MOL0     H77229  11.209   4.865  10.223 -1.1851  0.5333 -0.3126
  560MOL0     H77230  11.410   4.742  10.328 -1.4673 -0.3328 -1.1618
  560MOL0     H77231  11.314   4.609  10.396 -0.9545  0.0338  1.8543
  560MOL0     H77232  11.495   4.790  10.559 -2.2526  0.7898 -0.8879
  560MOL0     H77233  11.406   4.654  10.629  1.6630  2.0442  1.3355
  560MOL0     H77234  11.523   4.494  10.487  0.1878 -0.0608 -0.6625
  560MOL0     H77235  11.598   4.618  10.394 -1.9736  0.1787 -1.1409
  560MOL0     H77236  11.716   4.704  10.595  1.3723 -0.6327  1.0051
  560MOL0     H77237  11.662   4.558  10.676 -0.6505 -2.6753 -1.7072
  560MOL0     H77238  11.983   4.549  10.362 -1.8488 -3.0416 -0.3440
  560MOL0     H77239  12.235   4.519  10.298  2.3512 -1.9469 -0.8071
  560MOL0     H77240  12.337   4.468  10.413  1.2967  0.7318  0.0301
  560MOL0     H77241  12.300   4.651  10.398 -2.0095  0.5587 -4.0599
  560MOL0     H77242  12.578   4.687  10.719 -2.9321 -1.1412  1.2931
  560MOL0     H77243  12.821   4.648  10.733  3.2620 -2.8675  0.4603
  560MOL0     H77244  13.072   4.456  10.531  1.6089 -1.0647  0.9995
  560MOL0     H77245  12.962   4.590  10.560  1.2448  1.3421 -0.7168
  560MOL0     H77246  13.106   4.653  10.765 -0.5715 -1.7280  1.1435
  560MOL0     H77247  13.204   4.509  10.732 -0.4230 -1.0431 -0.3568
  560MOL0     H77248  13.164   4.751  10.551  0.0542  0.1712 -1.4280
  560MOL0     H77249  13.254   4.602  10.500 -1.0725 -0.3964  1.4222
  560MOL0     H77250  13.333   4.749  10.751  0.0383  1.0966  0.1873
  560MOL0     H77251  13.350   4.817  10.589 -2.5061 -0.3684  0.2464
  560MOL0     H77252  13.465   4.553  10.682  0.0622 -0.2087 -0.8879
  560MOL0     H77253  13.501   4.626  10.528 -0.2442  1.1879  0.2540
  560MOL0     H77254  13.625   4.803  10.616 -0.1797  1.8910  2.4152
  560MOL0     H77255  13.684   4.647  10.672 -1.1678 -1.2212  0.3367
  560MOL0     H77256  13.609   4.702  10.900  0.6242  0.0833 -0.2490
  560MOL0     H77257  13.522   4.842  10.860 -2.2627 -4.0775  0.3876
  560MOL0     H77258  13.820   4.806  10.860 -0.2243  1.1870  0.5270
  560MOL0     H77259  13.727   4.897  10.983  1.5393  0.1314  0.5669
  560MOL0     H77260  12.760   4.233  10.654 -3.4361 -0.6086  0.6353
  560MOL0     H77261  12.517   4.282  10.638  0.2939  0.1003  1.6163
  560MOL0     H77262  12.077   4.499  10.837 -3.2838 -1.1940  0.5192
  560MOL0     H77263  11.856   4.458  10.749  1.6561 -3.5941  0.3161
  560MOL0     H77264  10.321   5.029   9.915  0.4275  1.4618 -0.5889
  560MOL0     H77265  10.104   4.931   9.861 -0.1160 -0.6752 -0.5276
  560MOL0     H77266   9.498   5.154   9.914  0.2295  0.6412 -1.1802
  560MOL0     H77267   9.304   5.007   9.845 -0.2366 -1.4709  0.5277
  560MOL0     H77268   9.193   4.772  10.031  1.8843  1.5920  0.0822
  560MOL0     H77269   9.134   4.865   9.898  4.2822 -0.4423 -3.9429
  560MOL0     H77270   9.135   4.571   9.926  2.8389  1.1935 -0.2300
  560MOL0     H77271   9.073   4.636   9.769 -3.0700 -0.0992  0.4871
  560MOL0     H77272   8.940   4.681  10.038 -0.7389  0.4739 -0.0967
  560MOL0     H77273   8.912   4.787   9.895  1.5670  1.0641  0.0432
  560MOL0     H77274   8.748   4.578   9.939  1.4476  0.0360  0.6313
  560MOL0     H77275   8.884   4.484   9.881  0.1284 -0.0695 -3.2098
  560MOL0     H77276   8.751   4.654   9.524  2.3054 -2.1762 -0.4695
  560MOL0     H77277   9.539   4.666   9.900  1.5762 -0.6222 -0.0196
  560MOL0     H77278   9.743   4.676   9.863 -2.2233  0.5405 -0.1922
  560MOL0     H77279   9.822   4.816   9.806 -1.7261 -2.1723 -1.4396
  560MOL0     H77280   9.847   4.768   9.981  0.3911  2.4196 -0.5810
  561MOL0     O77281  10.141   1.837   1.325 -0.6808 -0.3423  0.1282
  561MOL0     C77282  10.067   1.934   1.317  0.2931 -0.0247 -0.0057
  561MOL0     O77283  10.110   2.061   1.301  0.4929 -0.5102 -0.1362
  561MOL0     C77284  10.239   2.083   1.323  0.1414 -0.1545  0.3683
  561MOL0     C77285  10.301   2.085   1.450  0.1696 -0.8026  0.4080
  561MOL0     C77286  10.425   2.156   1.473  1.3093  0.8990 -0.4454
  561MOL0     C77287  10.501   2.195   1.369 -0.6832  0.7145  0.4692
  561MOL0     O77288  10.625   2.257   1.376 -0.1364  0.1698  0.4112
  561MOL0     C77289  10.675   2.297   1.504 -0.4683 -0.2646 -0.4091
  561MOL0     C77290  10.813   2.367   1.492  0.5816 -0.7791  0.5946
  561MOL0     C77291  10.851   2.455   1.617  0.0432 -0.3143 -0.0981
  561MOL0     C77292  10.882   2.594   1.571 -0.2289 -0.7527  0.7163
  561MOL0     C77293  11.008   2.643   1.644 -0.8762  0.0254  0.0831
  561MOL0     C77294  11.139   2.584   1.596  0.0618 -0.4579 -0.3331
  561MOL0     C77295  11.259   2.656   1.656 -0.1261 -0.8763 -0.0100
  561MOL0     C77296  11.393   2.583   1.632 -0.5699  0.0193  0.3882
  561MOL0     N77297  11.519   2.655   1.670 -0.6245 -0.3977  0.1702
  561MOL0     C77298  11.639   2.658   1.604 -0.3606  0.3184 -0.2604
  561MOL0     C77299  11.717   2.732   1.681  0.4961  0.0183 -0.6038
  561MOL0     C77300  11.855   2.777   1.640 -0.0003 -0.4567 -0.3416
  561MOL0     C77301  11.967   2.718   1.723 -0.6387 -0.2097  0.3793
  561MOL0     C77302  12.100   2.792   1.702  0.5663 -0.4373  0.6103
  561MOL0     C77303  12.228   2.708   1.736 -0.5550 -0.2132 -0.7299
  561MOL0     O77304  12.345   2.767   1.683 -0.2566  0.3019  0.0577
  561MOL0     C77305  12.474   2.749   1.714  0.3632  0.9266  0.3214
  561MOL0     C77306  12.572   2.809   1.631  0.1233  0.4424  1.2368
  561MOL0     C77307  12.701   2.816   1.656  0.6010 -0.9109 -1.1646
  561MOL0     C77308  12.775   2.918   1.569  0.1277 -0.4219  0.0426
  561MOL0     C77309  12.757   2.742   1.763 -0.2217  0.0724  1.2842
  561MOL0     C77310  12.905   2.732   1.770  0.2171  0.4320 -0.4744
  561MOL0     O77311  12.990   2.763   1.668  0.0977 -0.7409  0.4573
  561MOL0     C77312  13.125   2.765   1.705 -0.0931 -0.4444  0.4038
  561MOL0     C77313  13.201   2.653   1.750 -0.2240 -0.5622  0.5361
  561MOL0     C77314  13.331   2.676   1.797 -0.4584 -0.6850 -0.3010
  561MOL0     C77315  13.389   2.801   1.794 -0.2134  0.1322  0.4057
  561MOL0     O77316  13.505   2.812   1.858 -0.4408 -0.1384  0.2799
  561MOL0     C77317  13.613   2.867   1.772  0.6201  0.7079 -0.5788
  561MOL0     C77318  13.751   2.797   1.813 -0.1629  0.3815  0.0799
  561MOL0     C77319  13.874   2.881   1.772  0.4569 -0.2581 -0.0545
  561MOL0     C77320  14.002   2.800   1.800  0.1264  0.5053 -0.8213
  561MOL0     C77321  14.119   2.874   1.725 -0.2353  0.7157 -0.3626
  561MOL0     C77322  14.249   2.794   1.736 -0.5849  1.3829  0.3341
  561MOL0     C77323  14.373   2.884   1.706  0.7011  0.4340 -0.2630
  561MOL0     C77324  14.501   2.804   1.676 -0.8050 -0.3166  0.3776
  561MOL0    Cl77325  14.568   2.767   1.841  0.0032 -0.0905  0.3311
  561MOL0     C77326  13.317   2.918   1.745  0.5549 -0.1579 -0.9213
  561MOL0     C77327  13.182   2.899   1.702 -0.2055  0.0347 -0.6553
  561MOL0     O77328  12.938   2.690   1.878  0.7281 -0.0819 -0.0686
  561MOL0     C77329  12.666   2.684   1.851  0.1774  0.0754  0.1138
  561MOL0     C77330  12.529   2.678   1.824 -0.2655 -0.0609  0.4524
  561MOL0     N77331  11.660   2.761   1.806  0.8929 -0.3157  0.5909
  561MOL0     N77332  11.531   2.724   1.789 -0.5917 -0.0199 -0.0431
  561MOL0     C77333  10.444   2.182   1.240 -0.1345  0.7187 -0.5164
  561MOL0     C77334  10.314   2.138   1.218  0.4325 -0.5992 -0.5757
  561MOL0     C77335   9.924   1.917   1.304 -0.3046  0.1378  0.6054
  561MOL0     C77336   9.844   2.027   1.283 -0.1372 -0.3550 -0.0948
  561MOL0     C77337   9.709   2.027   1.264 -0.5973  0.3543  0.3210
  561MOL0     C77338   9.647   1.900   1.275  0.4614  0.7980  0.2758
  561MOL0     O77339   9.512   1.903   1.265 -0.1988 -0.8136 -0.0553
  561MOL0     C77340   9.438   1.792   1.309 -0.3035 -0.8412  0.1418
  561MOL0     C77341   9.291   1.829   1.300  0.2155  0.2847  0.7012
  561MOL0     C77342   9.194   1.715   1.273  0.2467 -0.5015  0.4666
  561MOL0     C77343   9.051   1.770   1.262 -0.2010  0.6767  0.7086
  561MOL0     C77344   8.962   1.656   1.267 -0.2808  0.0124 -0.2907
  561MOL0     C77345   8.894   1.558   1.266 -0.0643 -0.1700  0.4789
  561MOL0     C77346   9.725   1.787   1.291  0.4704  0.3089 -0.7362
  561MOL0     C77347   9.859   1.786   1.307 -0.0706  0.0138  0.1056
  561MOL0     C77348   9.925   1.649   1.328 -0.5999 -0.4041 -0.4548
  561MOL0     H77349  10.241   2.051   1.534  1.6756  0.0956  1.9146
  561MOL0     H77350  10.467   2.182   1.570 -0.0978  0.5808  0.2747
  561MOL0     H77351  10.673   2.214   1.575 -0.8049  0.9860  1.0995
  561MOL0     H77352  10.605   2.374   1.539 -0.3966  0.3171 -1.4944
  561MOL0     H77353  10.892   2.293   1.478  0.4013 -0.6657 -1.2551
  561MOL0     H77354  10.820   2.421   1.397 -1.3189 -2.6990 -0.7000
  561MOL0     H77355  10.768   2.471   1.687  0.0417  2.2109 -0.5701
  561MOL0     H77356  10.933   2.411   1.674 -0.1703 -0.8672 -0.2115
  561MOL0     H77357  10.900   2.614   1.465 -3.0331  4.8882  0.9012
  561MOL0     H77358  10.788   2.649   1.585 -0.7100 -1.1990 -0.5950
  561MOL0     H77359  11.005   2.621   1.751 -0.9597  1.5820  0.4238
  561MOL0     H77360  11.001   2.752   1.638  0.1998  0.0341 -3.4778
  561MOL0     H77361  11.132   2.478   1.622  3.0634 -0.7758 -0.5513
  561MOL0     H77362  11.135   2.603   1.488  0.9951 -2.7051 -0.8090
  561MOL0     H77363  11.240   2.668   1.763 -0.5674  0.3249 -0.1975
  561MOL0     H77364  11.258   2.756   1.610  2.4812 -1.6725 -2.0054
  561MOL0     H77365  11.393   2.488   1.687 -3.4647 -0.3457 -0.0948
  561MOL0     H77366  11.404   2.563   1.525 -1.6773  0.2460  0.2166
  561MOL0     H77367  11.659   2.621   1.504  0.1408  3.3991 -1.4165
  561MOL0     H77368  11.845   2.886   1.644 -0.6930 -0.5322  0.2275
  561MOL0     H77369  11.858   2.750   1.535 -1.4463 -0.2376 -0.4542
  561MOL0     H77370  11.938   2.706   1.828 -0.2024 -1.1933  0.4089
  561MOL0     H77371  11.997   2.618   1.689  1.0447  0.4578 -0.2179
  561MOL0     H77372  12.106   2.803   1.594 -2.9587 -0.8387  0.2635
  561MOL0     H77373  12.106   2.889   1.751  2.7470 -0.0057 -0.3888
  561MOL0     H77374  12.231   2.690   1.844 -2.0540 -0.7924 -0.7635
  561MOL0     H77375  12.210   2.607   1.697  0.4571  0.1434 -2.2156
  561MOL0     H77376  12.541   2.879   1.554 -0.2501  2.9129  3.4864
  561MOL0     H77377  12.830   2.987   1.634  0.2462 -0.2429 -0.2452
  561MOL0     H77378  12.715   2.992   1.515 -1.5029 -0.9722  1.0104
  561MOL0     H77379  12.845   2.867   1.502 -0.1485 -0.0656 -0.5274
  561MOL0     H77380  13.154   2.561   1.784 -1.0393  1.1421  4.5899
  561MOL0     H77381  13.381   2.592   1.845 -0.0201 -1.3992 -1.9250
  561MOL0     H77382  13.600   2.860   1.664  3.6253 -3.7365 -0.9229
  561MOL0     H77383  13.617   2.971   1.806 -0.2538  0.1305  1.4693
  561MOL0     H77384  13.749   2.767   1.918  1.5561 -0.5973 -0.1173
  561MOL0     H77385  13.760   2.703   1.757 -0.7189 -0.7693  1.8522
  561MOL0     H77386  13.873   2.979   1.819 -3.5788 -0.5793  0.9277
  561MOL0     H77387  13.863   2.903   1.665  1.1571  3.2888  0.4797
  561MOL0     H77388  13.988   2.707   1.745 -1.7728  1.0310 -1.2789
  561MOL0     H77389  14.012   2.790   1.909 -5.3705 -0.7044 -0.1425
  561MOL0     H77390  14.094   2.880   1.619  0.1641  3.5135 -0.3739
  561MOL0     H77391  14.136   2.974   1.764 -0.9111  0.7799 -0.2141
  561MOL0     H77392  14.246   2.725   1.650 -1.3727  0.6151  0.9584
  561MOL0     H77393  14.260   2.741   1.831  2.7416 -1.4587 -1.4003
  561MOL0     H77394  14.398   2.950   1.790  1.3558  1.2011 -1.0508
  561MOL0     H77395  14.344   2.947   1.622  1.3174 -2.0533 -2.4511
  561MOL0     H77396  14.573   2.865   1.622 -1.3049 -1.2560 -1.4511
  561MOL0     H77397  14.465   2.714   1.624 -1.9991 -1.5857  3.1676
  561MOL0     H77398  13.353   3.020   1.749 -3.7764  1.6531 -2.3067
  561MOL0     H77399  13.108   2.970   1.666  0.3727  2.0357  1.8270
  561MOL0     H77400  12.701   2.636   1.942 -1.8408  2.1669  2.1363
  561MOL0     H77401  12.463   2.626   1.894 -1.8698  0.9161 -0.2732
  561MOL0     H77402  10.499   2.214   1.152 -0.5989 -0.8028 -1.3959
  561MOL0     H77403  10.275   2.146   1.117  2.2216  2.1843 -1.1441
  561MOL0     H77404   9.881   2.129   1.276  1.3250 -0.8052  0.6609
  561MOL0     H77405   9.651   2.116   1.245  0.8878  1.5418  1.1210
  561MOL0     H77406   9.457   1.720   1.229 -0.2453 -0.7464  0.0711
  561MOL0     H77407   9.462   1.751   1.408 -1.1410 -1.4655  0.1018
  561MOL0     H77408   9.274   1.909   1.227 -2.6153 -0.9343 -0.1178
  561MOL0     H77409   9.267   1.868   1.399  1.8895  0.1314  1.1920
  561MOL0     H77410   9.221   1.658   1.184  1.4385  0.8594 -0.0781
  561MOL0     H77411   9.198   1.642   1.355 -1.7572 -1.2053  0.0086
  561MOL0     H77412   9.043   1.827   1.169  1.2247 -2.1323 -1.3097
  561MOL0     H77413   9.025   1.834   1.346  2.1311  0.6597  1.5348
  561MOL0     H77414   8.834   1.470   1.254 -3.6754  2.4103 -2.8094
  561MOL0     H77415   9.673   1.693   1.273 -0.7373  0.6451  0.8274
  561MOL0     H77416   9.987   1.626   1.241  0.4408 -2.7347  0.8149
  561MOL0     H77417   9.984   1.638   1.419 -4.1139 -1.8324  1.8823
  561MOL0     H77418   9.846   1.573   1.333 -2.3271  1.1609 -2.3086
  562MOL0     O77419   5.469   9.333   5.101 -0.0910 -0.2791 -0.2259
  562MOL0     C77420   5.356   9.367   5.139 -0.0885  0.2144 -0.3527
  562MOL0     O77421   5.327   9.422   5.261 -0.4137  0.5878 -0.3667
  562MOL0     C77422   5.427   9.441   5.354 -0.5714  0.4576  1.0280
  562MOL0     C77423   5.530   9.345   5.390  0.6919  0.3656  0.1182
  562MOL0     C77424   5.623   9.377   5.494 -0.1247 -0.1461 -0.0181
  562MOL0     C77425   5.623   9.502   5.565 -0.1812 -0.9046  0.3909
  562MOL0     O77426   5.709   9.528   5.673  0.4177  0.0989 -0.5213
  562MOL0     C77427   5.845   9.484   5.646  0.6906 -0.6028 -0.4479
  562MOL0     C77428   5.951   9.538   5.752  0.4926 -0.3984  0.0735
  562MOL0     C77429   6.086   9.532   5.690  0.1182  0.0894  0.4569
  562MOL0     C77430   6.199   9.568   5.787  0.5879 -0.2742  0.1646
  562MOL0     C77431   6.340   9.543   5.731  0.0083  0.1293  0.3421
  562MOL0     C77432   6.463   9.573   5.819 -0.1466  0.7487 -0.3549
  562MOL0     C77433   6.481   9.720   5.860  0.9603 -0.2431 -0.9896
  562MOL0     C77434   6.473   9.738   6.017 -0.2184  0.2802 -0.7083
  562MOL0     N77435   6.485   9.877   6.062  0.4349 -0.0107  0.7505
  562MOL0     C77436   6.559   9.977   5.991  0.2075  0.2240 -0.7497
  562MOL0     C77437   6.509  10.086   6.026 -0.2320 -1.2442  0.6695
  562MOL0     C77438   6.570  10.220   5.984  0.7926  0.6049 -0.5756
  562MOL0     C77439   6.679  10.266   6.086  0.0560 -0.3021  0.1423
  562MOL0     C77440   6.727  10.412   6.065 -0.9367 -0.5125  0.4098
  562MOL0     C77441   6.868  10.423   6.143  0.5598  0.0010  0.1537
  562MOL0     O77442   6.969  10.337   6.089  0.7329 -0.3632  0.0626
  562MOL0     C77443   7.079  10.381   6.018 -0.3649  0.1285 -0.6009
  562MOL0     C77444   7.096  10.506   5.958  0.0870 -0.2633 -0.7202
  562MOL0     C77445   7.211  10.544   5.901  0.2801 -0.2201 -0.0371
  562MOL0     C77446   7.218  10.689   5.859 -0.9422  0.4796 -0.9494
  562MOL0     C77447   7.324  10.459   5.904 -0.2532  0.4188 -0.1203
  562MOL0     C77448   7.453  10.491   5.852  0.3479  1.1982 -0.1056
  562MOL0     O77449   7.526  10.379   5.833  0.0631 -0.9758 -0.0633
  562MOL0     C77450   7.658  10.400   5.804 -0.2482  0.5656  0.0064
  562MOL0     C77451   7.761  10.346   5.888  0.3645  0.1545  0.5303
  562MOL0     C77452   7.896  10.362   5.848 -0.2837  0.8403  0.0825
  562MOL0     C77453   7.930  10.446   5.744  0.4098  0.6746 -0.5224
  562MOL0     O77454   8.062  10.475   5.718  0.7377  0.4843 -0.4899
  562MOL0     C77455   8.091  10.619   5.715  0.1818  0.2537  0.8302
  562MOL0     C77456   8.234  10.621   5.647 -0.6492  0.1262 -0.0979
  562MOL0     C77457   8.246  10.560   5.509 -0.0673  0.1692 -0.1045
  562MOL0     C77458   8.389  10.570   5.459  1.0927  0.0728  0.3551
  562MOL0     C77459   8.410  10.485   5.331  1.0020 -0.7377  0.1413
  562MOL0     C77460   8.316  10.529   5.215  0.3251 -0.5176 -0.5701
  562MOL0     C77461   8.322  10.679   5.189 -0.6303 -0.5754 -0.3098
  562MOL0     C77462   8.260  10.729   5.058 -0.0060 -0.1089 -0.8795
  562MOL0    Cl77463   8.087  10.693   5.062  0.3142 -0.3057 -0.0781
  562MOL0     C77464   7.826  10.487   5.658 -1.4434 -0.0335 -0.4561
  562MOL0     C77465   7.700  10.466   5.689  0.0774  0.3490 -0.4638
  562MOL0     O77466   7.492  10.606   5.846  0.0033 -0.3906 -0.0536
  562MOL0     C77467   7.308  10.335   5.961  0.6306 -0.0507  0.4998
  562MOL0     C77468   7.186  10.287   6.014  0.3077 -0.5738 -0.0477
  562MOL0     N77469   6.411  10.072   6.117  0.9081  0.6577 -0.1628
  562MOL0     N77470   6.393   9.944   6.132 -0.4972  0.1977 -0.2117
  562MOL0     C77471   5.526   9.597   5.517 -0.4600  0.6839  0.2619
  562MOL0     C77472   5.424   9.570   5.421  1.1607 -0.1704  0.0308
  562MOL0     C77473   5.236   9.326   5.063 -0.0470  0.3524 -0.3611
  562MOL0     C77474   5.112   9.337   5.133 -0.2666 -0.7363  0.2770
  562MOL0     C77475   4.996   9.305   5.070 -0.3296  0.7828  0.0834
  562MOL0     C77476   4.993   9.269   4.935 -0.0519  0.8367  0.1819
  562MOL0     O77477   4.878   9.248   4.860  0.1720 -0.7316  0.2997
  562MOL0     C77478   4.828   9.351   4.776 -0.4158 -0.4872 -0.8595
  562MOL0     C77479   4.790   9.481   4.856  0.5455 -0.5470 -0.5940
  562MOL0     C77480   4.673   9.559   4.799  0.6953 -0.3377  0.0630
  562MOL0     C77481   4.542   9.496   4.854  0.1096  0.0888  0.3595
  562MOL0     C77482   4.436   9.556   4.778  0.2324 -0.3799  0.3129
  562MOL0     C77483   4.354   9.618   4.716 -0.1399 -0.7588  0.6843
  562MOL0     C77484   5.120   9.263   4.868  0.4628 -0.3434 -0.3257
  562MOL0     C77485   5.236   9.290   4.929  0.6334 -0.7793  0.2891
  562MOL0     C77486   5.353   9.283   4.839 -0.0571  0.5445  0.6626
  562MOL0     H77487   5.545   9.251   5.338  1.6412 -0.9642  2.5979
  562MOL0     H77488   5.695   9.301   5.526  0.1147 -0.0976 -0.4292
  562MOL0     H77489   5.866   9.518   5.545  0.3596  0.6392 -0.1073
  562MOL0     H77490   5.850   9.374   5.643  0.5147 -0.7019  1.5113
  562MOL0     H77491   5.921   9.641   5.772  0.6045 -0.7241  2.1790
  562MOL0     H77492   5.950   9.482   5.846 -0.2975 -2.0589 -0.8632
  562MOL0     H77493   6.102   9.427   5.663 -3.0183 -1.1795  2.8455
  562MOL0     H77494   6.088   9.589   5.597  1.2518 -1.8534 -0.7733
  562MOL0     H77495   6.201   9.674   5.813 -0.2422 -0.2393  0.1253
  562MOL0     H77496   6.181   9.513   5.880 -2.4098  1.2443  0.6185
  562MOL0     H77497   6.338   9.600   5.637 -1.5281  1.2153  0.9902
  562MOL0     H77498   6.346   9.437   5.708  2.8044 -0.3571  2.6961
  562MOL0     H77499   6.457   9.510   5.908  1.5543  3.4615  1.8478
  562MOL0     H77500   6.552   9.529   5.774 -0.4305 -1.5927  1.1839
  562MOL0     H77501   6.395   9.774   5.819  0.6876  0.0486 -0.0569
  562MOL0     H77502   6.572   9.751   5.809  1.8050  0.6581  0.9483
  562MOL0     H77503   6.378   9.700   6.057  0.2594 -1.0519 -0.7894
  562MOL0     H77504   6.547   9.670   6.062  0.8147 -1.5731 -4.7442
  562MOL0     H77505   6.647   9.964   5.929  1.2892  2.0551  0.2889
  562MOL0     H77506   6.494  10.298   5.993 -1.9585 -2.1579  3.5358
  562MOL0     H77507   6.603  10.204   5.881  0.0863 -0.8492 -0.6033
  562MOL0     H77508   6.630  10.256   6.184  0.7900  1.2559  0.7032
  562MOL0     H77509   6.764  10.197   6.080  0.4050  0.1419 -0.0206
  562MOL0     H77510   6.746  10.425   5.958  2.5270 -1.4509  0.8064
  562MOL0     H77511   6.647  10.483   6.089 -1.2506 -0.0017 -1.9467
  562MOL0     H77512   6.906  10.525   6.139 -0.0470  0.2075 -0.7643
  562MOL0     H77513   6.859  10.396   6.249  2.1075  2.3887  0.9739
  562MOL0     H77514   7.017  10.581   5.963  1.3626  1.0992 -0.3992
  562MOL0     H77515   7.301  10.734   5.915  1.3948 -1.8702 -2.3088
  562MOL0     H77516   7.128  10.750   5.870 -0.5472  1.1714 -1.4761
  562MOL0     H77517   7.243  10.691   5.752 -2.6400 -0.2496 -1.3913
  562MOL0     H77518   7.731  10.289   5.975 -4.1527  2.0634  0.4752
  562MOL0     H77519   7.977  10.327   5.913 -2.0920 -2.3663  0.8607
  562MOL0     H77520   8.021  10.672   5.651  0.4233 -0.8222 -0.3766
  562MOL0     H77521   8.100  10.662   5.815  0.0578  1.5286  0.3168
  562MOL0     H77522   8.273  10.722   5.632  1.7184 -0.8588 -1.1405
  562MOL0     H77523   8.312  10.575   5.708 -0.5082  1.6077  0.8902
  562MOL0     H77524   8.180  10.600   5.431 -0.4904  0.9673  0.6548
  562MOL0     H77525   8.218  10.455   5.519 -1.9397  0.6151 -0.2794
  562MOL0     H77526   8.457  10.523   5.531  2.3173 -0.3962 -1.0513
  562MOL0     H77527   8.415  10.673   5.435 -0.3309  0.2430 -0.5371
  562MOL0     H77528   8.515  10.495   5.303  0.9108 -3.2877 -1.3713
  562MOL0     H77529   8.391  10.379   5.347  1.2283 -0.3668  3.5282
  562MOL0     H77530   8.212  10.495   5.229 -0.6793  1.9438 -1.4750
  562MOL0     H77531   8.345  10.472   5.126  1.3108 -1.9283  0.6178
  562MOL0     H77532   8.422  10.720   5.202 -0.3374 -1.0323 -1.0872
  562MOL0     H77533   8.273  10.729   5.274 -1.2991 -0.5153 -0.7200
  562MOL0     H77534   8.311  10.674   4.978  3.0092  0.0238  0.7696
  562MOL0     H77535   8.281  10.836   5.053  0.8133 -0.1960  0.1794
  562MOL0     H77536   7.848  10.534   5.563  0.1523 -1.9817 -1.1290
  562MOL0     H77537   7.624  10.508   5.623  1.1332 -1.0650 -2.7213
  562MOL0     H77538   7.390  10.265   5.970 -0.5467 -1.3250  1.7712
  562MOL0     H77539   7.166  10.183   6.034 -3.2250 -0.5671 -2.5935
  562MOL0     H77540   5.526   9.692   5.569  1.7833  0.3802  0.9031
  562MOL0     H77541   5.354   9.648   5.396  0.5587 -0.8713 -0.5248
  562MOL0     H77542   5.101   9.356   5.239  0.3018  0.2228  0.1773
  562MOL0     H77543   4.900   9.321   5.117 -0.3842  5.0599 -1.0430
  562MOL0     H77544   4.913   9.376   4.712  0.7281 -0.5755  0.5880
  562MOL0     H77545   4.738   9.321   4.721 -0.6016  1.7638 -1.9026
  562MOL0     H77546   4.872   9.553   4.852 -0.9593  1.3063 -0.0070
  562MOL0     H77547   4.769   9.466   4.962 -3.3602  0.7344 -1.0302
  562MOL0     H77548   4.686   9.666   4.817 -0.7437 -0.1899  0.3577
  562MOL0     H77549   4.673   9.549   4.690  1.6054 -2.1425  0.1837
  562MOL0     H77550   4.528   9.519   4.960  1.5606 -0.5617  0.7152
  562MOL0     H77551   4.540   9.387   4.840 -0.8427  0.0836  0.4603
  562MOL0     H77552   4.294   9.686   4.659  0.3171 -0.1010  0.9754
  562MOL0     H77553   5.120   9.245   4.761 -1.6460  0.5373 -0.5269
  562MOL0     H77554   5.419   9.199   4.865 -0.8631  0.0094  1.0286
  562MOL0     H77555   5.319   9.272   4.736  0.1420 -2.3184  0.8151
  562MOL0     H77556   5.414   9.374   4.845  1.8739 -0.7562  2.6155
  563MOL0     O77557   6.685  10.110   2.620  0.1654  0.4406  0.6519
  563MOL0     C77558   6.697  10.018   2.537  1.0324  0.0020 -0.3179
  563MOL0     O77559   6.796  10.010   2.437 -0.1045  0.2310 -0.1569
  563MOL0     C77560   6.905  10.092   2.459  0.1842  0.5117 -0.2196
  563MOL0     C77561   6.925  10.222   2.398  0.4445 -0.6153 -0.5155
  563MOL0     C77562   7.041  10.296   2.434  0.5606  0.2757 -0.7194
  563MOL0     C77563   7.138  10.246   2.522 -0.1742 -0.1593 -0.3863
  563MOL0     O77564   7.256  10.324   2.543  0.5389  0.1843  0.3985
  563MOL0     C77565   7.348  10.285   2.649  0.5807  0.1837 -0.5980
  563MOL0     C77566   7.474  10.373   2.647 -0.1761 -0.1106  0.0789
  563MOL0     C77567   7.542  10.341   2.516 -0.0056 -0.1090  0.3399
  563MOL0     C77568   7.604  10.203   2.514 -0.4882 -0.5017  0.0142
  563MOL0     C77569   7.689  10.178   2.393  0.0128  0.0546  1.0047
  563MOL0     C77570   7.750  10.039   2.391 -0.6008 -0.3932 -0.3073
  563MOL0     C77571   7.852  10.027   2.282  0.8019  0.5566 -0.7043
  563MOL0     C77572   7.891   9.877   2.268 -0.7246  0.5929  0.1469
  563MOL0     N77573   8.000   9.846   2.357 -0.7589 -0.8366 -0.5124
  563MOL0     C77574   8.108   9.922   2.374 -0.6355  0.5835  1.2686
  563MOL0     C77575   8.178   9.865   2.472  0.1941 -0.2575 -1.2138
  563MOL0     C77576   8.318   9.901   2.510 -0.3774  0.0235 -0.5604
  563MOL0     C77577   8.415   9.785   2.491  0.5972 -0.3745  0.7637
  563MOL0     C77578   8.474   9.802   2.344  0.5527  0.4373  0.0203
  563MOL0     C77579   8.593   9.703   2.335  0.4874 -0.5051  0.1291
  563MOL0     O77580   8.722   9.768   2.371 -0.4553 -0.1940  0.1002
  563MOL0     C77581   8.844   9.700   2.364  0.0795  0.0596  0.6617
  563MOL0     C77582   8.953   9.787   2.379 -0.4010  0.1009  0.0460
  563MOL0     C77583   9.083   9.747   2.351 -0.1289 -0.2303 -1.1332
  563MOL0     C77584   9.186   9.845   2.379 -0.6843  0.6917 -0.5297
  563MOL0     C77585   9.105   9.613   2.307 -0.3000 -0.4490 -1.2072
  563MOL0     C77586   9.239   9.552   2.272 -0.5528  0.0760 -0.5307
  563MOL0     O77587   9.240   9.426   2.212  0.0650 -0.2305 -0.4600
  563MOL0     C77588   9.365   9.366   2.191  0.3735  0.0550  0.1715
  563MOL0     C77589   9.466   9.368   2.286  0.3707 -0.2225  0.7428
  563MOL0     C77590   9.591   9.305   2.256  0.3083  0.0692 -0.3334
  563MOL0     C77591   9.611   9.242   2.128  0.9006 -0.7960 -0.4652
  563MOL0     O77592   9.737   9.207   2.103  0.2828  0.0938  0.6456
  563MOL0     C77593   9.749   9.070   2.063 -0.0220  0.1810 -0.2274
  563MOL0     C77594   9.874   9.015   2.122 -0.5432  0.5291  0.7868
  563MOL0     C77595   9.995   9.090   2.081 -0.7860 -0.2805  0.6340
  563MOL0     C77596  10.123   9.044   2.157  0.2684 -0.3762  0.0694
  563MOL0     C77597  10.256   9.118   2.127  0.3947  0.7674  0.5512
  563MOL0     C77598  10.374   9.034   2.177  0.5047  0.3099  0.1560
  563MOL0     C77599  10.499   9.106   2.187 -0.4027 -0.3186  0.3864
  563MOL0     C77600  10.602   9.039   2.281 -0.0355  0.4040 -0.4075
  563MOL0    Cl77601  10.630   8.863   2.219 -0.4866 -0.1508  0.0883
  563MOL0     C77602   9.499   9.234   2.033 -1.0502  0.3405  0.3481
  563MOL0     C77603   9.377   9.299   2.075 -0.4346  0.4040  0.2097
  563MOL0     O77604   9.342   9.618   2.298 -0.5100  0.1649 -0.5411
  563MOL0     C77605   8.999   9.521   2.301  0.7542  0.9623 -0.7742
  563MOL0     C77606   8.870   9.571   2.318 -0.7027  0.3926  0.5691
  563MOL0     N77607   8.106   9.750   2.506  0.0460  0.7603  0.6033
  563MOL0     N77608   8.001   9.741   2.438  0.2619 -0.1314 -0.3160
  563MOL0     C77609   7.120  10.110   2.567 -0.3150 -0.0794 -0.5269
  563MOL0     C77610   6.999  10.046   2.544  0.7272 -0.0958 -0.6056
  563MOL0     C77611   6.589   9.915   2.536  0.2752  0.1057 -0.2986
  563MOL0     C77612   6.598   9.822   2.423 -1.0971 -0.7387 -0.3074
  563MOL0     C77613   6.500   9.727   2.415  0.5253  0.7704 -0.8880
  563MOL0     C77614   6.386   9.716   2.508 -0.0927 -0.4570 -0.0675
  563MOL0     O77615   6.298   9.616   2.509  0.8993 -0.2839 -0.7107
  563MOL0     C77616   6.314   9.498   2.429  0.1578  0.0688  0.0483
  563MOL0     C77617   6.217   9.404   2.496 -1.5691 -0.4508 -0.1599
  563MOL0     C77618   6.072   9.442   2.462  0.3531 -0.1973 -0.1820
  563MOL0     C77619   5.983   9.333   2.513 -0.3234  0.4620 -0.7010
  563MOL0     C77620   5.937   9.369   2.649 -0.4391  0.5782 -1.5240
  563MOL0     C77621   5.907   9.396   2.767  0.5814 -0.5953  0.5737
  563MOL0     C77622   6.390   9.804   2.613 -1.0376  1.2129  0.4066
  563MOL0     C77623   6.488   9.907   2.625  0.5873 -0.4866 -0.1009
  563MOL0     C77624   6.469  10.005   2.735 -0.4308 -0.3764 -1.5446
  563MOL0     H77625   6.843  10.261   2.339 -1.1219 -0.6635  1.5232
  563MOL0     H77626   7.055  10.393   2.387 -1.1386  0.9123  0.0049
  563MOL0     H77627   7.379  10.180   2.643  0.9561  0.0828  2.0967
  563MOL0     H77628   7.304  10.308   2.746  2.5898  5.1027 -0.5915
  563MOL0     H77629   7.455  10.480   2.641  2.2563  0.3123 -2.0351
  563MOL0     H77630   7.540  10.348   2.731 -0.3835  1.6781  0.8072
  563MOL0     H77631   7.466  10.363   2.441  0.1729  1.2134  0.5263
  563MOL0     H77632   7.631  10.405   2.510 -0.8474  0.9215 -2.5085
  563MOL0     H77633   7.675  10.199   2.597 -0.3074  2.5351  0.1426
  563MOL0     H77634   7.537  10.117   2.522  1.7082 -2.4303 -1.3498
  563MOL0     H77635   7.766  10.256   2.397 -1.5732  1.9645 -1.8912
  563MOL0     H77636   7.640  10.195   2.297  2.4425 -1.4624 -0.6233
  563MOL0     H77637   7.803  10.030   2.486 -0.3980  0.5587 -0.3147
  563MOL0     H77638   7.665   9.971   2.380  0.3027 -1.2492 -2.8962
  563MOL0     H77639   7.935  10.095   2.302  0.8698  0.1208  0.5334
  563MOL0     H77640   7.802  10.055   2.189  3.9203 -0.8937 -3.0152
  563MOL0     H77641   7.808   9.810   2.292 -1.2278  1.1273 -0.0778
  563MOL0     H77642   7.927   9.860   2.166  1.1143  0.8883  0.7140
  563MOL0     H77643   8.133  10.011   2.319  1.2415  0.2802  1.5554
  563MOL0     H77644   8.323   9.926   2.617  0.5955  0.6917 -0.7522
  563MOL0     H77645   8.352   9.985   2.449  1.8665 -0.9077 -0.6842
  563MOL0     H77646   8.493   9.797   2.567  3.5652  2.0624 -2.3350
  563MOL0     H77647   8.364   9.689   2.498 -2.0616  0.8436 -0.4018
  563MOL0     H77648   8.398   9.772   2.271 -1.8092  3.5170  1.0331
  563MOL0     H77649   8.497   9.902   2.308 -0.4539  0.6990  0.0878
  563MOL0     H77650   8.585   9.620   2.407  5.5990  0.7191  2.5961
  563MOL0     H77651   8.609   9.671   2.232  0.7585  0.9878 -0.3183
  563MOL0     H77652   8.922   9.890   2.399 -1.7884  0.3667 -3.0152
  563MOL0     H77653   9.261   9.849   2.299 -1.4913 -1.5770 -1.4794
  563MOL0     H77654   9.234   9.799   2.466 -1.8425 -0.1704 -0.3328
  563MOL0     H77655   9.159   9.947   2.408  0.5610  1.4210 -1.7873
  563MOL0     H77656   9.450   9.407   2.386 -0.7939 -3.1123  1.8098
  563MOL0     H77657   9.667   9.319   2.331 -2.9043  0.6316  3.1435
  563MOL0     H77658   9.668   9.006   2.098  2.4975 -1.1874  3.8770
  563MOL0     H77659   9.740   9.073   1.954 -2.7380 -1.0824 -0.1169
  563MOL0     H77660   9.867   9.020   2.231  1.3622  0.6136  0.9435
  563MOL0     H77661   9.884   8.909   2.095  3.1943  0.3872  2.0906
  563MOL0     H77662   9.979   9.197   2.099 -0.8386  0.0061 -0.9847
  563MOL0     H77663  10.011   9.082   1.973 -0.1405  1.0466  0.6130
  563MOL0     H77664  10.126   8.937   2.135 -4.1987 -1.1845  2.1276
  563MOL0     H77665  10.107   9.049   2.265  4.1949  1.6652  0.7293
  563MOL0     H77666  10.272   9.142   2.021  0.2330  4.3076  1.1840
  563MOL0     H77667  10.248   9.215   2.179 -0.2143  1.9286 -1.5979
  563MOL0     H77668  10.382   8.952   2.105 -2.2662  0.6427 -0.6790
  563MOL0     H77669  10.344   8.992   2.274 -2.0989  0.9252 -0.2847
  563MOL0     H77670  10.472   9.197   2.241 -2.6424 -1.1264  0.7448
  563MOL0     H77671  10.543   9.132   2.090 -0.5979  2.2470  0.9091
  563MOL0     H77672  10.566   9.045   2.384  0.1379  0.8943 -0.3751
  563MOL0     H77673  10.700   9.087   2.285 -0.0866  0.4821 -0.0388
  563MOL0     H77674   9.510   9.206   1.929 -1.2228  1.0944  0.1199
  563MOL0     H77675   9.295   9.294   2.004  1.2929 -0.5793 -1.7881
  563MOL0     H77676   9.006   9.414   2.282 -1.4727  0.2932  1.5968
  563MOL0     H77677   8.782   9.512   2.299 -0.1083 -0.4978  0.5201
  563MOL0     H77678   7.197  10.056   2.620  1.1440  1.0670 -1.4144
  563MOL0     H77679   6.987   9.951   2.594  1.5572  0.2742  0.3286
  563MOL0     H77680   6.674   9.841   2.347 -0.1225 -0.5273  0.6925
  563MOL0     H77681   6.506   9.668   2.324  0.0232 -2.2258  0.8961
  563MOL0     H77682   6.304   9.521   2.323  1.4222  1.8923  0.2800
  563MOL0     H77683   6.417   9.463   2.432  1.3229  3.1208 -1.0182
  563MOL0     H77684   6.237   9.408   2.603  1.7241 -0.4695 -0.6708
  563MOL0     H77685   6.253   9.304   2.472 -0.0850  0.0783 -0.2914
  563MOL0     H77686   6.047   9.536   2.513  1.7635  1.1211 -1.7720
  563MOL0     H77687   6.058   9.455   2.355  0.5301 -1.5019 -0.3761
  563MOL0     H77688   6.042   9.241   2.506  1.2513  1.5054 -1.6811
  563MOL0     H77689   5.893   9.326   2.450 -0.9434  0.7166  0.1394
  563MOL0     H77690   5.888   9.420   2.870  1.5648  2.1262  0.2170
  563MOL0     H77691   6.297   9.784   2.666  0.5741 -3.9448  1.8044
  563MOL0     H77692   6.392   9.968   2.804  0.5650 -0.8152 -0.6228
  563MOL0     H77693   6.555  10.023   2.801 -0.5015 -1.9896 -0.9645
  563MOL0     H77694   6.434  10.096   2.687  2.3407  1.7425  0.1290
  564MOL0     O77695   1.241   2.675   4.021 -1.1434 -0.4433  0.3697
  564MOL0     C77696   1.150   2.735   3.963  0.2013  0.2395 -0.0543
  564MOL0     O77697   1.163   2.849   3.892  0.1030 -0.1903  0.1450
  564MOL0     C77698   1.288   2.905   3.886 -0.3464  0.7796 -0.5436
  564MOL0     C77699   1.398   2.862   3.806  0.2573  0.2464 -1.0550
  564MOL0     C77700   1.514   2.931   3.803 -0.1148  0.4639 -0.2941
  564MOL0     C77701   1.538   3.047   3.885  0.1925  1.1957  0.4871
  564MOL0     O77702   1.651   3.119   3.865 -0.4840  0.5752 -0.3359
  564MOL0     C77703   1.659   3.186   3.740  0.3465  0.1832  0.5847
  564MOL0     C77704   1.796   3.236   3.723 -0.4864  0.0049  0.0424
  564MOL0     C77705   1.810   3.346   3.617 -0.5142  0.1434  0.5182
  564MOL0     C77706   1.960   3.380   3.605 -0.0896  0.1541 -0.8664
  564MOL0     C77707   1.990   3.502   3.518  0.1612  0.2214 -0.3332
  564MOL0     C77708   2.136   3.544   3.505  0.9998 -0.1921 -0.2260
  564MOL0     C77709   2.135   3.672   3.422  0.3140  0.1143  0.0382
  564MOL0     C77710   2.271   3.741   3.427 -0.8328  0.3118 -0.2231
  564MOL0     N77711   2.262   3.876   3.382 -0.4527 -0.3212  0.3255
  564MOL0     C77712   2.322   3.929   3.262  0.3338  0.3830  0.3756
  564MOL0     C77713   2.294   4.058   3.255  0.2718  0.0586  0.3065
  564MOL0     C77714   2.328   4.148   3.136  0.7461  0.2022  0.0064
  564MOL0     C77715   2.442   4.239   3.175 -0.0124  0.1909  0.4909
  564MOL0     C77716   2.478   4.324   3.050  0.5098  0.4644 -0.3534
  564MOL0     C77717   2.571   4.432   3.096 -0.1034  0.0622  0.4021
  564MOL0     O77718   2.632   4.505   2.993  0.0386  0.0055  1.3625
  564MOL0     C77719   2.736   4.584   3.030 -0.3667 -0.6047  0.8330
  564MOL0     C77720   2.780   4.624   3.160  0.3212  0.2226 -0.0917
  564MOL0     C77721   2.879   4.715   3.191  0.5910  0.0195  0.0013
  564MOL0     C77722   2.923   4.722   3.333  0.1416  0.6594 -0.0360
  564MOL0     C77723   2.930   4.798   3.080 -0.2790 -0.7318 -0.1417
  564MOL0     C77724   3.021   4.915   3.097 -1.1053 -1.1656  0.0327
  564MOL0     O77725   3.070   4.972   2.983  0.4884 -1.0899 -0.1027
  564MOL0     C77726   3.177   5.064   2.998  0.6695  0.1779  0.4065
  564MOL0     C77727   3.162   5.197   3.043 -0.5216  0.3911  0.5346
  564MOL0     C77728   3.277   5.285   3.040  0.9564 -0.0095 -0.3081
  564MOL0     C77729   3.399   5.243   2.981 -0.3461 -0.1929  0.5291
  564MOL0     O77730   3.518   5.318   2.967 -0.2833 -0.6779  0.0300
  564MOL0     C77731   3.529   5.433   3.053  0.4670 -0.0719 -0.6894
  564MOL0     C77732   3.648   5.510   3.016  0.4557 -0.7430 -0.6355
  564MOL0     C77733   3.775   5.432   3.043 -0.4642 -0.2148 -0.1085
  564MOL0     C77734   3.825   5.352   2.924 -0.7271  0.2513 -0.1721
  564MOL0     C77735   3.976   5.318   2.924  0.1955 -0.1956 -0.6947
  564MOL0     C77736   4.013   5.228   3.042 -0.1486 -0.1285 -0.3139
  564MOL0     C77737   4.158   5.184   3.071 -0.6373  0.2628  0.3880
  564MOL0     C77738   4.207   5.114   2.941 -0.5049 -0.4279 -0.1063
  564MOL0    Cl77739   4.373   5.063   2.961 -0.2500 -0.0699 -0.0763
  564MOL0     C77740   3.405   5.112   2.927  0.7104  0.4417  0.1995
  564MOL0     C77741   3.298   5.025   2.933  0.5256 -0.4008 -0.6325
  564MOL0     O77742   3.069   4.939   3.208  1.3533  0.8086  0.4803
  564MOL0     C77743   2.890   4.763   2.950  0.3472 -0.0531  0.6447
  564MOL0     C77744   2.800   4.656   2.925  0.4867  0.1505 -0.4665
  564MOL0     N77745   2.240   4.098   3.372 -0.2961  0.7565  0.4676
  564MOL0     N77746   2.213   3.987   3.444  0.5668 -0.2025 -0.1647
  564MOL0     C77747   1.436   3.086   3.972  0.6438 -0.7254  1.4220
  564MOL0     C77748   1.314   3.018   3.964 -0.0771  0.3290 -0.6205
  564MOL0     C77749   1.004   2.689   3.968  0.1150 -0.2337  0.0696
  564MOL0     C77750   0.912   2.721   3.865 -0.3056  0.3010  0.0658
  564MOL0     C77751   0.788   2.658   3.861 -0.2491  0.0750  0.5186
  564MOL0     C77752   0.742   2.581   3.966 -0.0112  0.0802 -0.5795
  564MOL0     O77753   0.616   2.535   3.978 -0.7599  0.4445 -0.0435
  564MOL0     C77754   0.528   2.547   3.871  0.8358  0.5162 -0.6868
  564MOL0     C77755   0.547   2.437   3.764  0.4580 -0.1381  0.6441
  564MOL0     C77756   0.534   2.298   3.832  0.0850 -0.3894 -0.1903
  564MOL0     C77757   0.395   2.288   3.903 -1.0754  0.4602 -0.5848
  564MOL0     C77758   0.367   2.147   3.941 -0.6897  0.1874  0.3931
  564MOL0     C77759   0.334   2.037   3.973 -0.0731  1.1065 -0.3386
  564MOL0     C77760   0.832   2.555   4.070 -0.1603 -0.4248 -0.2920
  564MOL0     C77761   0.964   2.601   4.070 -0.1520  0.0607 -0.4284
  564MOL0     C77762   1.055   2.559   4.185 -0.2306  0.1575  0.1456
  564MOL0     H77763   1.385   2.771   3.747  3.4195  0.5422 -2.4161
  564MOL0     H77764   1.590   2.889   3.739  0.4139 -0.3970  0.8608
  564MOL0     H77765   1.581   3.263   3.736 -1.1096 -1.2845 -0.7239
  564MOL0     H77766   1.625   3.122   3.658 -2.4002  2.1643  0.0220
  564MOL0     H77767   1.805   3.289   3.818 -3.6203 -0.3383  0.6604
  564MOL0     H77768   1.867   3.154   3.723  0.2187  0.5416 -1.8621
  564MOL0     H77769   1.776   3.299   3.525  1.2710 -1.1482  0.4532
  564MOL0     H77770   1.761   3.443   3.624 -0.4699  0.4438 -2.3141
  564MOL0     H77771   1.996   3.413   3.703 -0.0439  0.1108 -0.8683
  564MOL0     H77772   2.014   3.292   3.570 -0.6726  0.1514 -1.8066
  564MOL0     H77773   1.936   3.582   3.569  2.6830  0.1536  2.7586
  564MOL0     H77774   1.952   3.500   3.415  0.6499 -2.5503 -0.5297
  564MOL0     H77775   2.176   3.569   3.604 -1.6823 -1.4217  1.2630
  564MOL0     H77776   2.191   3.456   3.469  1.0569 -0.2190 -0.0733
  564MOL0     H77777   2.056   3.734   3.464 -0.4441  0.0175 -1.2047
  564MOL0     H77778   2.104   3.637   3.324  1.0183 -0.8826  0.1520
  564MOL0     H77779   2.308   3.729   3.529  1.1463 -5.4275 -1.2588
  564MOL0     H77780   2.345   3.684   3.370 -1.3696 -0.0313 -0.5910
  564MOL0     H77781   2.366   3.869   3.182 -1.9422 -0.3436 -0.4306
  564MOL0     H77782   2.241   4.209   3.110 -1.1273 -1.5667  1.7608
  564MOL0     H77783   2.351   4.089   3.046 -0.1735  0.0687 -0.1582
  564MOL0     H77784   2.407   4.308   3.252  1.5278  3.6256 -1.6437
  564MOL0     H77785   2.530   4.179   3.202  0.1969 -0.2540 -1.1070
  564MOL0     H77786   2.527   4.261   2.975  2.7634  0.6064  0.9392
  564MOL0     H77787   2.385   4.363   3.006  0.8992 -0.1846 -1.8329
  564MOL0     H77788   2.531   4.497   3.175  1.8557 -1.2017  2.5633
  564MOL0     H77789   2.651   4.374   3.143  2.1556  1.7539 -1.1838
  564MOL0     H77790   2.739   4.561   3.239  0.2086 -2.3868 -2.0773
  564MOL0     H77791   3.032   4.725   3.340  0.3779 -0.7580 -2.2062
  564MOL0     H77792   2.880   4.655   3.408  0.0713  0.7687  0.0203
  564MOL0     H77793   2.902   4.821   3.375 -1.5358  1.1764 -1.9643
  564MOL0     H77794   3.071   5.230   3.093  0.7569  2.6186  1.5739
  564MOL0     H77795   3.256   5.384   3.080  1.2879 -0.3460  0.7311
  564MOL0     H77796   3.435   5.490   3.043  0.4061  0.0899  0.5633
  564MOL0     H77797   3.542   5.396   3.155  1.1795  0.0594 -0.7291
  564MOL0     H77798   3.649   5.551   2.914  1.5282  1.1451  0.0764
  564MOL0     H77799   3.647   5.598   3.081 -0.8400  0.1789 -1.8392
  564MOL0     H77800   3.764   5.370   3.132  1.5189  2.6219  2.3081
  564MOL0     H77801   3.846   5.510   3.071 -0.3635 -1.2746  2.9950
  564MOL0     H77802   3.800   5.414   2.838 -0.5987 -0.4396 -0.7200
  564MOL0     H77803   3.779   5.253   2.913  0.6642 -0.1769 -2.9371
  564MOL0     H77804   4.003   5.270   2.830 -0.7018 -2.7119  0.2308
  564MOL0     H77805   4.026   5.414   2.941 -0.3692 -0.2856  1.9448
  564MOL0     H77806   3.953   5.136   3.032  0.8708 -0.9546  0.8174
  564MOL0     H77807   3.979   5.277   3.134 -0.6111 -2.5918  0.9113
  564MOL0     H77808   4.162   5.107   3.148 -0.2484  0.2942  0.4000
  564MOL0     H77809   4.218   5.274   3.086  0.7481 -0.5837  0.0779
  564MOL0     H77810   4.203   5.179   2.854 -0.7848 -1.2218 -0.6975
  564MOL0     H77811   4.156   5.024   2.905 -0.3024  0.2925 -2.3255
  564MOL0     H77812   3.489   5.079   2.866 -1.7522 -2.5364 -1.8607
  564MOL0     H77813   3.319   4.929   2.886  0.6870 -0.6690 -0.0256
  564MOL0     H77814   2.939   4.806   2.864 -0.5053  1.1147  0.7118
  564MOL0     H77815   2.772   4.628   2.824 -2.5924  2.1761 -0.3267
  564MOL0     H77816   1.453   3.172   4.036 -1.5802  1.4973 -0.7395
  564MOL0     H77817   1.245   3.059   4.037 -2.6693 -0.0882 -2.6932
  564MOL0     H77818   0.954   2.780   3.783  2.1239  1.0533  1.7357
  564MOL0     H77819   0.724   2.682   3.776 -1.7178  2.8135  2.2489
  564MOL0     H77820   0.426   2.552   3.909  1.2098  1.4347  0.2721
  564MOL0     H77821   0.530   2.644   3.819 -2.0712  0.3762 -1.2183
  564MOL0     H77822   0.645   2.448   3.716 -0.2954  1.2204 -0.6774
  564MOL0     H77823   0.477   2.450   3.680 -0.4830  2.6451  1.7649
  564MOL0     H77824   0.550   2.216   3.760  0.6730  0.7831 -1.4300
  564MOL0     H77825   0.611   2.276   3.906  0.4821 -1.1408 -0.8154
  564MOL0     H77826   0.317   2.323   3.835 -1.4038  0.8363 -0.0225
  564MOL0     H77827   0.390   2.346   3.996 -1.6608  0.9694 -0.9267
  564MOL0     H77828   0.295   1.942   4.003 -1.0547  1.3816 -0.7074
  564MOL0     H77829   0.796   2.491   4.149  0.4414  0.2840  0.5807
  564MOL0     H77830   1.012   2.480   4.248  0.2897 -1.2890 -1.2573
  564MOL0     H77831   1.145   2.506   4.156 -1.8501 -1.8436 -1.5407
  564MOL0     H77832   1.074   2.644   4.252  0.7510 -1.6235  2.2389
  565MOL0     O77833   4.564   7.581   8.118  0.2006  0.1523  0.2061
  565MOL0     C77834   4.465   7.529   8.058  0.2569 -0.6732  0.2424
  565MOL0     O77835   4.461   7.501   7.924  0.1053 -0.7373 -0.0680
  565MOL0     C77836   4.573   7.540   7.855 -0.5062  0.1046  0.3527
  565MOL0     C77837   4.575   7.647   7.764 -0.3813 -0.9193 -0.0750
  565MOL0     C77838   4.693   7.691   7.706  0.1390 -0.2292  0.0633
  565MOL0     C77839   4.805   7.612   7.710 -0.5070  0.5048  0.3513
  565MOL0     O77840   4.908   7.662   7.638  0.2585  0.1782 -0.1850
  565MOL0     C77841   5.017   7.569   7.621 -0.3013  0.3565 -0.2060
  565MOL0     C77842   5.116   7.627   7.517 -0.5929  0.2517 -0.5610
  565MOL0     C77843   5.082   7.598   7.370 -0.2657  0.2776 -0.2522
  565MOL0     C77844   5.195   7.636   7.278 -0.4332  0.0113  0.0233
  565MOL0     C77845   5.163   7.607   7.131  0.6478 -0.1977  0.1745
  565MOL0     C77846   5.177   7.459   7.097  0.4785 -0.2672  0.6825
  565MOL0     C77847   5.075   7.439   6.990  0.0388  0.7407 -0.1156
  565MOL0     C77848   5.049   7.283   6.946  0.0073 -0.4396 -0.3692
  565MOL0     N77849   5.176   7.218   6.910 -0.0491  0.0182  0.1088
  565MOL0     C77850   5.231   7.215   6.789  0.0248  0.0108 -0.5384
  565MOL0     C77851   5.355   7.153   6.803  0.3167 -0.0176 -0.1742
  565MOL0     C77852   5.446   7.111   6.693 -0.1210  0.7603 -0.3307
  565MOL0     C77853   5.582   7.179   6.712  0.2436  0.3865  1.0365
  565MOL0     C77854   5.674   7.156   6.587  0.2556  0.1607 -0.5814
  565MOL0     C77855   5.815   7.206   6.618  0.5992  0.1547  0.4563
  565MOL0     O77856   5.845   7.346   6.661 -0.7038  0.5464  0.5298
  565MOL0     C77857   5.973   7.387   6.669 -0.6082 -0.3649 -0.2300
  565MOL0     C77858   6.001   7.519   6.707  0.0277  0.4720 -0.2580
  565MOL0     C77859   6.138   7.578   6.709 -0.0781  0.5020 -0.4819
  565MOL0     C77860   6.146   7.718   6.753 -0.0690  0.1937  0.1288
  565MOL0     C77861   6.245   7.494   6.663 -0.0867  0.8617 -0.3206
  565MOL0     C77862   6.387   7.528   6.675  0.3059 -0.2952 -0.6835
  565MOL0     O77863   6.473   7.463   6.592  1.0354  0.1698  0.2778
  565MOL0     C77864   6.601   7.477   6.612  0.5037 -0.6797 -0.7640
  565MOL0     C77865   6.675   7.396   6.707 -0.1115  0.6090  0.1007
  565MOL0     C77866   6.805   7.432   6.732 -0.2700 -0.4462 -0.0895
  565MOL0     C77867   6.868   7.535   6.660  0.3751 -0.1975 -0.2437
  565MOL0     O77868   7.004   7.557   6.648  0.5120  0.5335 -0.3569
  565MOL0     C77869   7.081   7.518   6.761 -0.1712  0.5898 -0.1189
  565MOL0     C77870   7.211   7.601   6.783  0.1911 -0.1783  0.2984
  565MOL0     C77871   7.327   7.557   6.683 -0.2014 -0.2226 -0.3410
  565MOL0     C77872   7.329   7.618   6.546 -0.1672 -0.1315 -0.0846
  565MOL0     C77873   7.465   7.588   6.473  0.4642 -0.3603 -1.0867
  565MOL0     C77874   7.492   7.442   6.463 -0.7337 -0.3747 -0.2954
  565MOL0     C77875   7.599   7.416   6.358  0.2501  0.0033  1.1805
  565MOL0     C77876   7.639   7.267   6.362  0.1080 -0.0998 -0.2547
  565MOL0    Cl77877   7.506   7.136   6.366  0.3183  0.1973  0.1300
  565MOL0     C77878   6.792   7.611   6.566 -0.4005  0.7956 -0.3712
  565MOL0     C77879   6.654   7.584   6.545  0.1374 -0.1188  0.2827
  565MOL0     O77880   6.419   7.601   6.768  0.0787  0.3736  0.2574
  565MOL0     C77881   6.212   7.364   6.625 -0.7025 -0.8139  0.1921
  565MOL0     C77882   6.084   7.312   6.624 -0.3976  0.5449 -0.2247
  565MOL0     N77883   5.365   7.118   6.934  0.1535  0.5014  0.3397
  565MOL0     N77884   5.262   7.163   6.996  0.3819  0.2561  0.3273
  565MOL0     C77885   4.816   7.505   7.794  0.2076  0.1732  0.8434
  565MOL0     C77886   4.701   7.471   7.869  0.2001  0.3983  0.5798
  565MOL0     C77887   4.342   7.502   8.140 -0.7633 -0.4954 -0.8005
  565MOL0     C77888   4.369   7.473   8.281  0.1325 -0.4854  0.1263
  565MOL0     C77889   4.260   7.437   8.352 -0.3033 -0.2500 -0.1132
  565MOL0     C77890   4.130   7.421   8.300  0.2410  0.1005 -0.4828
  565MOL0     O77891   4.038   7.395   8.392  0.6701 -0.3476 -0.4782
  565MOL0     C77892   3.891   7.405   8.373  0.4958  0.1436  0.5489
  565MOL0     C77893   3.870   7.549   8.404  0.3096  0.0389 -0.0416
  565MOL0     C77894   3.720   7.581   8.418  0.0898 -0.5028  0.1119
  565MOL0     C77895   3.638   7.504   8.529 -0.6486 -0.3917  0.6779
  565MOL0     C77896   3.585   7.594   8.638 -0.3470  0.0099 -0.4874
  565MOL0     C77897   3.522   7.665   8.719 -1.0235  0.2950 -0.3455
  565MOL0     C77898   4.104   7.453   8.169 -0.1235 -0.8496  0.5162
  565MOL0     C77899   4.205   7.494   8.085 -0.1974 -0.8076 -0.3448
  565MOL0     C77900   4.172   7.528   7.945 -0.6116  1.1790  0.1080
  565MOL0     H77901   4.476   7.691   7.763  0.5175  1.2231  0.5499
  565MOL0     H77902   4.701   7.782   7.649 -0.8029  1.7636  2.8780
  565MOL0     H77903   4.990   7.471   7.583 -0.5154  0.7489 -1.0959
  565MOL0     H77904   5.072   7.554   7.714  2.6394 -0.1069 -1.9216
  565MOL0     H77905   5.129   7.733   7.537  1.0874 -0.3486  1.9505
  565MOL0     H77906   5.210   7.580   7.546 -1.2142 -0.0784  1.0226
  565MOL0     H77907   5.067   7.491   7.357  1.2057 -0.3471  2.4957
  565MOL0     H77908   4.994   7.656   7.339 -0.7636 -0.0692  0.4920
  565MOL0     H77909   5.222   7.741   7.294  0.5102 -0.1775 -0.2340
  565MOL0     H77910   5.277   7.577   7.323 -0.1433  2.7227  3.5670
  565MOL0     H77911   5.243   7.658   7.077  0.2888  0.0028 -0.1796
  565MOL0     H77912   5.071   7.659   7.101  0.5704 -0.6290 -0.3560
  565MOL0     H77913   5.276   7.436   7.056  0.0187 -0.2191 -0.4824
  565MOL0     H77914   5.166   7.398   7.187 -0.9289 -0.7386  0.2194
  565MOL0     H77915   5.114   7.500   6.909  2.5924 -1.7372 -0.9202
  565MOL0     H77916   4.977   7.469   7.030 -0.4166 -3.4464  2.5223
  565MOL0     H77917   4.999   7.229   7.027 -1.6493  2.8102  0.9202
  565MOL0     H77918   4.976   7.284   6.864 -0.5687 -0.9441  0.1325
  565MOL0     H77919   5.182   7.230   6.693 -1.3958 -0.0063  0.1439
  565MOL0     H77920   5.396   7.120   6.597  0.4200  0.5839 -0.6321
  565MOL0     H77921   5.463   7.003   6.702 -1.2681  0.4703 -1.3673
  565MOL0     H77922   5.570   7.287   6.712  0.5960  0.4320  2.3036
  565MOL0     H77923   5.629   7.150   6.806  0.2130 -1.3397  0.5561
  565MOL0     H77924   5.683   7.048   6.576 -1.5840 -0.0578 -0.2607
  565MOL0     H77925   5.624   7.208   6.505 -0.8781  0.9320  0.5376
  565MOL0     H77926   5.852   7.139   6.696  1.0840  0.6681  0.6741
  565MOL0     H77927   5.876   7.187   6.529  1.3039  0.2536  0.9062
  565MOL0     H77928   5.907   7.569   6.729 -0.5153 -0.5897 -0.0726
  565MOL0     H77929   6.070   7.746   6.827 -0.5198  1.2468 -0.6920
  565MOL0     H77930   6.135   7.780   6.664 -0.4132  1.8322  1.2745
  565MOL0     H77931   6.241   7.743   6.799  0.3577 -1.9681  0.5052
  565MOL0     H77932   6.632   7.312   6.760 -1.9851 -0.5805 -3.0635
  565MOL0     H77933   6.857   7.364   6.799 -1.8489 -2.1296 -0.4882
  565MOL0     H77934   7.017   7.536   6.848 -0.5052  1.7385 -0.5765
  565MOL0     H77935   7.099   7.412   6.743  1.0425  0.4363  1.7447
  565MOL0     H77936   7.180   7.706   6.771 -4.6346 -1.3347  0.7934
  565MOL0     H77937   7.245   7.579   6.885  0.1569 -2.1940 -0.0930
  565MOL0     H77938   7.324   7.449   6.672 -3.5495 -0.1630 -1.2311
  565MOL0     H77939   7.421   7.586   6.731  0.0093 -1.5087  0.0509
  565MOL0     H77940   7.322   7.727   6.551 -2.0079  0.0858 -3.8512
  565MOL0     H77941   7.252   7.577   6.481 -0.1073  0.8479 -0.7876
  565MOL0     H77942   7.457   7.628   6.371 -0.0259  0.8892 -0.5734
  565MOL0     H77943   7.544   7.645   6.523 -1.1744  0.7139  0.3750
  565MOL0     H77944   7.398   7.397   6.429 -0.9879 -3.0540  3.3506
  565MOL0     H77945   7.518   7.398   6.559  1.5230 -1.6831 -1.4168
  565MOL0     H77946   7.685   7.482   6.372 -1.0627  1.6166  2.0195
  565MOL0     H77947   7.557   7.441   6.260  0.3019  1.9086  1.6059
  565MOL0     H77948   7.686   7.255   6.460 -1.1774 -2.9103  0.1317
  565MOL0     H77949   7.706   7.243   6.278  0.3338 -0.9135  0.1424
  565MOL0     H77950   6.851   7.679   6.506  1.1818  3.1885  3.5619
  565MOL0     H77951   6.597   7.635   6.468  0.1506 -1.3915 -0.6132
  565MOL0     H77952   6.286   7.298   6.581 -0.1868 -0.0793 -0.0766
  565MOL0     H77953   6.071   7.208   6.596  1.1260 -0.2403  1.7638
  565MOL0     H77954   4.913   7.480   7.837  0.8075  2.9529  1.3016
  565MOL0     H77955   4.705   7.387   7.937  0.7917  0.1224  0.2102
  565MOL0     H77956   4.469   7.477   8.324  1.6126  0.0209 -3.0661
  565MOL0     H77957   4.275   7.423   8.459 -1.6466 -3.0884 -0.2247
  565MOL0     H77958   3.864   7.367   8.274 -1.3618 -0.3336  1.1990
  565MOL0     H77959   3.841   7.340   8.446 -0.9212  3.5249  2.8271
  565MOL0     H77960   3.897   7.608   8.316  0.5680 -0.3474 -0.2285
  565MOL0     H77961   3.923   7.581   8.494 -1.9350  1.5218  0.8185
  565MOL0     H77962   3.705   7.689   8.416  1.7800 -0.2173  1.2043
  565MOL0     H77963   3.676   7.549   8.323 -3.0998  1.6389  0.7165
  565MOL0     H77964   3.703   7.432   8.579 -0.0071 -0.7419 -0.6412
  565MOL0     H77965   3.547   7.455   8.492  0.3534 -1.0560 -1.0117
  565MOL0     H77966   3.472   7.737   8.781  1.5900 -0.1733  2.5941
  565MOL0     H77967   4.002   7.452   8.131  0.0387  1.5224 -0.0878
  565MOL0     H77968   4.203   7.626   7.907 -0.6612  0.3447 -2.2300
  565MOL0     H77969   4.230   7.462   7.879  0.7363  1.0986  1.3342
  565MOL0     H77970   4.063   7.518   7.934 -0.8018 -0.6064  2.8432
  566MOL0     O77971   6.238  10.169  10.641 -0.6629  0.5684  0.0312
  566MOL0     C77972   6.168  10.224  10.553  0.1122 -0.1304  0.3568
  566MOL0     O77973   6.209  10.296  10.439 -0.0751  0.1576  0.6800
  566MOL0     C77974   6.344  10.307  10.429  0.2283 -0.2477 -0.5130
  566MOL0     C77975   6.416  10.380  10.523 -0.2387  0.6045  0.9561
  566MOL0     C77976   6.549  10.390  10.502  0.0355  0.3172  0.3651
  566MOL0     C77977   6.622  10.323  10.407 -0.4806  0.6163  0.3289
  566MOL0     O77978   6.760  10.340  10.418  0.2374  0.9795  0.3032
  566MOL0     C77979   6.828  10.229  10.367  0.1247  0.9111 -0.4601
  566MOL0     C77980   6.975  10.268  10.369  0.3535  0.1411  0.2580
  566MOL0     C77981   7.059  10.146  10.331 -0.3798  0.4145 -0.2403
  566MOL0     C77982   7.205  10.183  10.334  0.5221 -1.0151  0.1546
  566MOL0     C77983   7.306  10.080  10.394  0.8967 -0.2745 -0.0493
  566MOL0     C77984   7.329   9.970  10.299  0.3999  0.2095 -0.4554
  566MOL0     C77985   7.457   9.879  10.321  0.8593 -0.2491 -0.1993
  566MOL0     C77986   7.448   9.796  10.451  0.8630 -0.0094 -0.4502
  566MOL0     N77987   7.547   9.692  10.464 -0.1173 -0.5937  0.3427
  566MOL0     C77988   7.601   9.616  10.365 -0.1428  0.0586 -0.0760
  566MOL0     C77989   7.659   9.512  10.426 -0.7358 -0.3439  0.2963
  566MOL0     C77990   7.744   9.397  10.370  0.8352 -0.0638 -0.1274
  566MOL0     C77991   7.890   9.450  10.354 -0.5731  0.1631 -0.2301
  566MOL0     C77992   7.973   9.464  10.482  0.3672  0.1131  0.5015
  566MOL0     C77993   8.122   9.486  10.454  0.2419  0.0398 -0.2310
  566MOL0     O77994   8.195   9.531  10.574  0.4677 -0.2413  0.2027
  566MOL0     C77995   8.338   9.506  10.583  0.0698 -0.4090  0.3738
  566MOL0     C77996   8.423   9.500  10.473 -0.3832 -0.2297  0.3285
  566MOL0     C77997   8.561   9.485  10.481  0.3324  0.2450 -0.6437
  566MOL0     C77998   8.637   9.466  10.350  0.3174 -0.1733  0.7583
  566MOL0     C77999   8.617   9.475  10.614  0.4834  0.4772 -0.4118
  566MOL0     C78000   8.761   9.431  10.645  0.6370 -0.5196 -0.5861
  566MOL0     O78001   8.791   9.429  10.783 -0.1967  0.3468  1.5294
  566MOL0     C78002   8.922   9.416  10.819 -0.0549  0.8267 -1.2318
  566MOL0     C78003   9.027   9.472  10.760  0.4384  0.1270 -0.0016
  566MOL0     C78004   9.164   9.465  10.806 -0.7655 -0.4731  0.2398
  566MOL0     C78005   9.192   9.388  10.923 -1.1560  0.2241  0.1455
  566MOL0     O78006   9.317   9.378  10.968  0.2908  0.3271 -0.4647
  566MOL0     C78007   9.414   9.329  10.876 -0.1264 -0.2571 -0.4388
  566MOL0     C78008   9.508   9.230  10.962  0.4067 -0.0191 -0.7735
  566MOL0     C78009   9.627   9.290  11.040 -0.2856 -0.1663  0.6004
  566MOL0     C78010   9.746   9.318  10.949  0.6209 -0.9775 -0.0499
  566MOL0     C78011   9.855   9.212  10.957  0.3825 -1.1818  0.0503
  566MOL0     C78012   9.954   9.236  10.842 -0.9815  0.5209  0.7867
  566MOL0     C78013  10.065   9.330  10.879 -0.3053 -0.2502 -0.6144
  566MOL0     C78014  10.203   9.264  10.897  0.4250  0.5134 -0.4694
  566MOL0    Cl78015  10.258   9.198  10.745  0.0697 -0.8568  0.0874
  566MOL0     C78016   9.083   9.340  10.987  0.0453 -0.7133 -0.0300
  566MOL0     C78017   8.951   9.352  10.936 -0.2487  0.4528 -0.3103
  566MOL0     O78018   8.836   9.407  10.552  0.0558 -0.5080  0.2051
  566MOL0     C78019   8.523   9.496  10.724  0.3013  0.3158  0.1257
  566MOL0     C78020   8.388   9.501  10.708  0.2312  0.7248 -0.2648
  566MOL0     N78021   7.634   9.518  10.561 -0.5740  0.0137 -0.6241
  566MOL0     N78022   7.554   9.621  10.581 -0.3911 -0.1902 -0.0293
  566MOL0     C78023   6.547  10.250  10.314 -0.6979  0.3510  0.4936
  566MOL0     C78024   6.413  10.260  10.318  0.8518 -0.5662  0.1254
  566MOL0     C78025   6.020  10.191  10.559 -1.2278 -0.1562 -1.1217
  566MOL0     C78026   5.965  10.113  10.459  0.7038  0.4924 -0.6738
  566MOL0     C78027   5.831  10.087  10.467  0.4348  0.6976 -0.5737
  566MOL0     C78028   5.747  10.134  10.567 -0.3337 -1.0583  0.3941
  566MOL0     O78029   5.611  10.116  10.577  0.5484  0.0086 -0.3294
  566MOL0     C78030   5.546  10.057  10.461  0.4012 -0.1319  0.1436
  566MOL0     C78031   5.399  10.092  10.488  0.1466 -0.1872 -0.2569
  566MOL0     C78032   5.375  10.242  10.466  0.9193  0.0600 -0.7561
  566MOL0     C78033   5.260  10.295  10.553 -0.0373  0.6494  0.0016
  566MOL0     C78034   5.133  10.248  10.489 -0.7703  0.2444  0.1828
  566MOL0     C78035   5.033  10.214  10.429  0.6208 -0.2463  0.6775
  566MOL0     C78036   5.812  10.193  10.680  0.1460 -0.3859  0.0868
  566MOL0     C78037   5.950  10.220  10.678 -0.6520 -0.1245  0.2619
  566MOL0     C78038   6.002  10.287  10.798 -0.1069  0.7313 -0.3921
  566MOL0     H78039   6.374  10.432  10.608  1.2011  0.8966  1.5080
  566MOL0     H78040   6.608  10.450  10.571  0.5409 -1.0541  1.1703
  566MOL0     H78041   6.806  10.212  10.261  5.1096  0.4409 -1.6853
  566MOL0     H78042   6.813  10.139  10.427  1.0905 -0.2126 -1.8486
  566MOL0     H78043   6.979  10.345  10.291 -1.1444 -1.4439 -1.4860
  566MOL0     H78044   7.001  10.290  10.472 -1.7373 -4.1841  1.9558
  566MOL0     H78045   7.023  10.052  10.373  1.7072 -0.5958 -0.5577
  566MOL0     H78046   7.032  10.117  10.230 -2.2513 -1.0315  0.6090
  566MOL0     H78047   7.229  10.206  10.230  0.1397  1.1829  0.4936
  566MOL0     H78048   7.222  10.279  10.384 -0.3158 -0.3766 -0.7468
  566MOL0     H78049   7.279  10.055  10.497  2.9388 -1.2382  0.3139
  566MOL0     H78050   7.405  10.127  10.393  0.9881 -0.4363 -2.0359
  566MOL0     H78051   7.238   9.910  10.300  0.2445  0.3809 -1.9380
  566MOL0     H78052   7.336  10.004  10.195  0.0509  0.8488 -0.2711
  566MOL0     H78053   7.550   9.935  10.309  0.8072  0.3079  1.6135
  566MOL0     H78054   7.451   9.815  10.233  1.6352  1.1053 -1.2815
  566MOL0     H78055   7.449   9.863  10.538 -1.0514 -1.1306  0.4959
  566MOL0     H78056   7.350   9.747  10.452  1.5044 -1.3181 -0.4067
  566MOL0     H78057   7.609   9.629  10.258  0.1788 -1.1232 -0.2037
  566MOL0     H78058   7.712   9.372  10.268 -1.8490  0.1842  0.5810
  566MOL0     H78059   7.735   9.307  10.432 -0.2370 -1.2776 -1.9317
  566MOL0     H78060   7.948   9.369  10.308  0.0963  0.6407 -0.2366
  566MOL0     H78061   7.889   9.539  10.290 -1.0719  1.7324  1.8463
  566MOL0     H78062   7.930   9.550  10.535  1.3668  1.8046 -1.2711
  566MOL0     H78063   7.959   9.374  10.541 -0.0258  0.1902  0.5258
  566MOL0     H78064   8.170   9.396  10.415  0.8012 -0.4377  1.4646
  566MOL0     H78065   8.135   9.561  10.376 -3.4621  0.5505 -0.5484
  566MOL0     H78066   8.390   9.518  10.371  3.6907  3.3507 -0.6924
  566MOL0     H78067   8.580   9.486  10.259  3.6179  0.9939 -1.2328
  566MOL0     H78068   8.668   9.361  10.352 -2.3619 -1.0305  0.9712
  566MOL0     H78069   8.720   9.537  10.345 -0.8658  1.2202  0.2233
  566MOL0     H78070   9.014   9.535  10.672  0.9674  2.1083  1.2841
  566MOL0     H78071   9.245   9.505  10.746 -0.2028 -1.0678  0.5875
  566MOL0     H78072   9.369   9.287  10.785  0.4603  2.3516 -2.0544
  566MOL0     H78073   9.483   9.405  10.838 -2.1491  0.9779 -1.8584
  566MOL0     H78074   9.442   9.177  11.033 -1.3181  0.3266 -2.0586
  566MOL0     H78075   9.545   9.156  10.891  3.3136  1.0873 -0.5268
  566MOL0     H78076   9.660   9.228  11.124  0.8775  0.1351  0.3754
  566MOL0     H78077   9.594   9.384  11.084 -1.4643  0.3036 -1.1712
  566MOL0     H78078   9.794   9.416  10.960  2.6263 -1.9380  0.2937
  566MOL0     H78079   9.714   9.326  10.845 -0.1863 -0.3024  0.2375
  566MOL0     H78080   9.907   9.223  11.053  3.4295 -0.9137 -1.5076
  566MOL0     H78081   9.798   9.118  10.957 -1.6484 -0.0353  1.3678
  566MOL0     H78082   9.908   9.283  10.754  0.2728  0.1426 -0.0901
  566MOL0     H78083   9.995   9.137  10.822  0.0022  0.0842  4.2253
  566MOL0     H78084  10.048   9.378  10.976 -0.7574 -1.9521  0.1886
  566MOL0     H78085  10.076   9.402  10.798  1.9165 -0.5976 -0.6864
  566MOL0     H78086  10.186   9.185  10.972  2.0228  0.8336  0.2572
  566MOL0     H78087  10.265   9.341  10.942  0.4873 -0.1288  0.5862
  566MOL0     H78088   9.099   9.290  11.082 -0.3533 -0.9285 -0.0727
  566MOL0     H78089   8.861   9.316  10.984 -2.1037  2.3782 -2.1489
  566MOL0     H78090   8.565   9.489  10.824  1.9463  2.6257 -0.3366
  566MOL0     H78091   8.321   9.515  10.793 -0.4324  0.8964 -0.8034
  566MOL0     H78092   6.597  10.199  10.232  4.2341  1.9052  2.1740
  566MOL0     H78093   6.359  10.209  10.239  3.3265 -0.5361 -1.7213
  566MOL0     H78094   6.018  10.076  10.372 -1.5238  1.0807 -2.3906
  566MOL0     H78095   5.792  10.040  10.377 -1.0490 -2.9179  1.7765
  566MOL0     H78096   5.571  10.112  10.370  2.8694  0.3658  1.0562
  566MOL0     H78097   5.555   9.948  10.451 -0.2000 -0.1075 -0.8983
  566MOL0     H78098   5.372  10.056  10.588  2.4533 -0.0288  0.4786
  566MOL0     H78099   5.332  10.033  10.424  1.5406 -0.6993 -1.3071
  566MOL0     H78100   5.465  10.297  10.493 -0.5187  1.9083  0.6111
  566MOL0     H78101   5.348  10.260  10.362  1.6903  0.5887 -0.8728
  566MOL0     H78102   5.268  10.404  10.547  0.9637  0.5908  0.1660
  566MOL0     H78103   5.261  10.253  10.654 -2.0329 -0.2386 -0.2975
  566MOL0     H78104   4.944  10.175  10.384 -0.0285  1.6437  0.2233
  566MOL0     H78105   5.752  10.201  10.770  1.2686 -1.1296  0.9319
  566MOL0     H78106   5.918  10.291  10.869 -2.9499 -0.7382 -3.3954
  566MOL0     H78107   6.074  10.218  10.842 -1.8042 -3.5695 -3.6923
  566MOL0     H78108   6.044  10.386  10.779  0.3705  0.2494 -1.9370
  567MOL0     O78109  10.782   7.747   7.699  0.4090  0.1712  0.1153
  567MOL0     C78110  10.774   7.726   7.578  0.3888 -0.1085 -0.0978
  567MOL0     O78111  10.878   7.733   7.491 -0.3507 -0.4092 -0.3187
  567MOL0     C78112  10.995   7.800   7.529  0.1551 -0.6084 -0.2712
  567MOL0     C78113  10.996   7.926   7.594  0.0303 -0.7789  0.4152
  567MOL0     C78114  11.120   7.990   7.618  0.1232  0.3684  0.3688
  567MOL0     C78115  11.247   7.930   7.584  0.5223  0.2288  0.2468
  567MOL0     O78116  11.371   7.989   7.581 -0.2648 -0.1194  0.1785
  567MOL0     C78117  11.383   8.132   7.594 -0.4073  0.1545 -0.2647
  567MOL0     C78118  11.476   8.188   7.471  0.0858  0.7878  0.2293
  567MOL0     C78119  11.626   8.199   7.506 -0.6153 -0.1075  0.3054
  567MOL0     C78120  11.694   8.062   7.518  0.3353 -1.4507 -0.6832
  567MOL0     C78121  11.844   8.073   7.525  0.6468 -0.0684  1.0198
  567MOL0     C78122  11.899   7.943   7.586 -0.2205 -0.4408 -0.1120
  567MOL0     C78123  12.047   7.943   7.573  0.0439  0.0338 -0.2492
  567MOL0     C78124  12.106   7.927   7.427  0.4776  0.4582  0.0037
  567MOL0     N78125  12.253   7.930   7.424  1.2257 -0.2977 -0.1907
  567MOL0     C78126  12.336   7.862   7.506  0.4438 -0.3428 -0.0628
  567MOL0     C78127  12.465   7.906   7.482 -0.4477  0.0027  0.2518
  567MOL0     C78128  12.586   7.877   7.566  0.5099 -0.4181 -0.7662
  567MOL0     C78129  12.708   7.962   7.523 -0.7147  0.2870 -0.4867
  567MOL0     C78130  12.806   7.977   7.641  0.0107 -0.3201  0.7170
  567MOL0     C78131  12.771   8.098   7.726 -0.3324  0.0290  0.7985
  567MOL0     O78132  12.735   8.218   7.652 -0.4112 -0.1545 -0.2145
  567MOL0     C78133  12.836   8.291   7.595 -0.3830  0.6740  0.6305
  567MOL0     C78134  12.789   8.398   7.523  0.0502  0.5851  0.2058
  567MOL0     C78135  12.865   8.497   7.458  0.3525 -0.3883 -0.7022
  567MOL0     C78136  12.791   8.610   7.391 -0.3508  0.3741 -0.0531
  567MOL0     C78137  13.005   8.468   7.445 -0.2098  0.5337 -0.3207
  567MOL0     C78138  13.105   8.531   7.363  0.4390  0.1795 -0.5836
  567MOL0     O78139  13.239   8.491   7.386  0.2305  0.0907  0.8073
  567MOL0     C78140  13.338   8.546   7.308  0.2974 -0.1582 -0.2531
  567MOL0     C78141  13.363   8.681   7.300  0.1007  0.2497 -0.8543
  567MOL0     C78142  13.472   8.726   7.229  0.3717  0.1821 -0.1121
  567MOL0     C78143  13.556   8.637   7.161 -1.1410  1.0603 -0.0533
  567MOL0     O78144  13.667   8.676   7.080 -0.6130  0.6950 -0.6110
  567MOL0     C78145  13.676   8.806   7.031 -0.1143  0.0872 -0.1001
  567MOL0     C78146  13.753   8.898   7.133  0.4748  0.1757 -0.0119
  567MOL0     C78147  13.778   9.035   7.077  0.8237 -0.0998  0.7722
  567MOL0     C78148  13.851   9.118   7.178  0.1328 -1.1009 -0.6496
  567MOL0     C78149  13.876   9.259   7.124 -0.4228 -0.2380  0.7801
  567MOL0     C78150  13.967   9.334   7.216  0.6624 -0.1814  0.4770
  567MOL0     C78151  13.991   9.485   7.162  0.2120  0.6611 -0.4356
  567MOL0     C78152  14.106   9.554   7.233 -0.2488  0.0051 -0.6149
  567MOL0    Cl78153  14.195   9.668   7.110  0.1185  0.3313  0.3686
  567MOL0     C78154  13.528   8.494   7.171 -0.3738  0.2686  1.3058
  567MOL0     C78155  13.423   8.452   7.255 -0.3369  0.0598 -0.9126
  567MOL0     O78156  13.071   8.611   7.281 -0.1316 -0.0175 -0.5786
  567MOL0     C78157  13.051   8.354   7.514 -0.5258 -0.3270  0.3322
  567MOL0     C78158  12.967   8.282   7.599  0.0049  0.7969  0.3857
  567MOL0     N78159  12.456   7.987   7.365 -1.1605  0.2709 -0.7961
  567MOL0     N78160  12.326   8.007   7.333 -0.1533 -0.6807 -0.2918
  567MOL0     C78161  11.236   7.805   7.516  0.7574 -0.3764  1.3002
  567MOL0     C78162  11.111   7.734   7.490  0.4533 -0.2980 -0.4854
  567MOL0     C78163  10.645   7.671   7.528 -0.0108  0.2835  0.1711
  567MOL0     C78164  10.559   7.610   7.619  1.0263  0.5672 -0.0048
  567MOL0     C78165  10.433   7.571   7.568 -0.1800  0.0081 -0.3539
  567MOL0     C78166  10.398   7.579   7.436  0.9277  0.0444 -1.0050
  567MOL0     O78167  10.283   7.508   7.392 -0.1208 -0.1161 -0.1303
  567MOL0     C78168  10.164   7.522   7.474  0.2825  0.0092 -1.3486
  567MOL0     C78169  10.068   7.581   7.388 -0.0651 -0.7131  1.0843
  567MOL0     C78170   9.970   7.495   7.312 -0.7050  0.3261 -0.0050
  567MOL0     C78171  10.037   7.391   7.211  0.3808 -0.6462  0.7473
  567MOL0     C78172  10.063   7.454   7.089  0.0331  0.1681  0.0639
  567MOL0     C78173  10.081   7.508   6.989 -0.2568  0.6688  0.7932
  567MOL0     C78174  10.478   7.637   7.343 -0.3469  0.1068 -0.5815
  567MOL0     C78175  10.605   7.688   7.389 -0.4899  0.3228 -0.5564
  567MOL0     C78176  10.696   7.751   7.287 -0.1359 -1.3056  0.1977
  567MOL0     H78177  10.907   7.977   7.628 -0.7145 -0.2293 -2.1539
  567MOL0     H78178  11.120   8.089   7.663 -0.8866  0.7010 -0.3245
  567MOL0     H78179  11.429   8.153   7.691 -2.5724  0.2201  0.8026
  567MOL0     H78180  11.285   8.180   7.592 -0.0382  0.9104 -0.8438
  567MOL0     H78181  11.463   8.135   7.376  0.3705  1.8520 -0.4131
  567MOL0     H78182  11.436   8.289   7.457  1.3534  1.2205 -0.3248
  567MOL0     H78183  11.671   8.264   7.431 -1.7052 -1.7268 -1.8315
  567MOL0     H78184  11.637   8.245   7.605 -3.1651  0.4871  0.3808
  567MOL0     H78185  11.653   8.017   7.608  0.5520 -2.0716 -0.8916
  567MOL0     H78186  11.669   7.999   7.432  0.1164  1.2507 -2.7663
  567MOL0     H78187  11.877   8.158   7.587  1.4028  0.0080  0.5284
  567MOL0     H78188  11.880   8.078   7.422 -0.9667 -3.5703  0.1501
  567MOL0     H78189  11.881   7.936   7.694 -1.6469  0.3002 -0.2770
  567MOL0     H78190  11.865   7.853   7.534  2.9962 -0.4236 -2.5683
  567MOL0     H78191  12.082   7.866   7.643 -1.0394  0.8596  1.2571
  567MOL0     H78192  12.077   8.037   7.619 -2.1918  0.4487  0.4635
  567MOL0     H78193  12.070   7.836   7.379 -1.1500  1.2971 -0.4453
  567MOL0     H78194  12.082   8.008   7.358  1.1353 -0.5117 -1.4136
  567MOL0     H78195  12.304   7.796   7.586 -1.2116  0.0505 -0.3527
  567MOL0     H78196  12.617   7.773   7.581  2.1433  0.2951  1.4039
  567MOL0     H78197  12.563   7.917   7.665  1.3380  3.6023 -2.0417
  567MOL0     H78198  12.763   7.913   7.442 -2.9625 -2.9706 -0.2330
  567MOL0     H78199  12.668   8.060   7.496  0.1991  0.4918 -1.1729
  567MOL0     H78200  12.804   7.886   7.702 -0.7737  0.3548  1.7347
  567MOL0     H78201  12.909   8.003   7.614  0.5372 -1.6932  1.3220
  567MOL0     H78202  12.679   8.082   7.784  0.4394  1.3853  2.4827
  567MOL0     H78203  12.847   8.121   7.801 -0.1519  2.4507 -0.0518
  567MOL0     H78204  12.681   8.405   7.512 -0.0950 -1.0636  0.4142
  567MOL0     H78205  12.818   8.698   7.451 -0.8799  1.6047 -1.5658
  567MOL0     H78206  12.683   8.599   7.401 -0.6034  2.5201  0.1023
  567MOL0     H78207  12.830   8.629   7.291  0.6531  0.3022  0.3149
  567MOL0     H78208  13.289   8.755   7.329 -0.0373  0.4511 -1.6859
  567MOL0     H78209  13.493   8.833   7.228  2.5681 -0.0923 -3.8459
  567MOL0     H78210  13.732   8.806   6.937  0.0263  1.0064 -0.0251
  567MOL0     H78211  13.577   8.852   7.017  1.6590  4.8708  0.9572
  567MOL0     H78212  13.695   8.914   7.224  1.5643  0.3190  0.6691
  567MOL0     H78213  13.843   8.842   7.161 -0.4673 -1.5221 -0.2360
  567MOL0     H78214  13.682   9.083   7.058  0.9744 -0.7741 -2.3838
  567MOL0     H78215  13.837   9.033   6.984  2.0458  0.5899  1.5034
  567MOL0     H78216  13.948   9.073   7.201 -0.7703 -2.0320  1.6199
  567MOL0     H78217  13.786   9.125   7.266 -2.2550  0.9204 -2.4021
  567MOL0     H78218  13.923   9.246   7.026 -0.8634 -0.7383  0.6293
  567MOL0     H78219  13.786   9.320   7.116  1.7581  3.6311  2.6478
  567MOL0     H78220  14.057   9.275   7.237  0.7312  0.1810  1.1987
  567MOL0     H78221  13.910   9.342   7.308 -2.0309  0.7020 -1.1654
  567MOL0     H78222  13.899   9.543   7.170  0.6473  1.1379  1.8107
  567MOL0     H78223  14.028   9.471   7.060  1.1814 -2.8698  0.2658
  567MOL0     H78224  14.183   9.483   7.265  1.7704  1.6313 -1.5902
  567MOL0     H78225  14.063   9.606   7.319 -0.6682  0.1251 -0.8931
  567MOL0     H78226  13.586   8.419   7.119 -2.2561 -0.9856  0.8929
  567MOL0     H78227  13.408   8.346   7.272 -3.2844  0.5528  0.1744
  567MOL0     H78228  13.157   8.331   7.527 -0.4020 -1.1308 -1.7934
  567MOL0     H78229  13.017   8.206   7.658  2.4491 -0.3733 -2.8920
  567MOL0     H78230  11.323   7.766   7.465  0.5520  1.0820 -0.2492
  567MOL0     H78231  11.109   7.638   7.441 -0.0190 -0.8574  0.6015
  567MOL0     H78232  10.584   7.589   7.723  0.6822 -1.5118 -0.3012
  567MOL0     H78233  10.374   7.518   7.642  0.6204  2.4717  2.2501
  567MOL0     H78234  10.128   7.444   7.542  1.9768  2.5093  2.8569
  567MOL0     H78235  10.183   7.604   7.545  1.1124 -1.4564  0.2123
  567MOL0     H78236  10.118   7.637   7.308  0.8148  1.4345  3.0291
  567MOL0     H78237  10.008   7.654   7.442 -1.9318 -1.3240 -0.0941
  567MOL0     H78238   9.929   7.426   7.387 -0.6088 -0.8842 -1.0302
  567MOL0     H78239   9.899   7.563   7.263  1.3152  1.5238 -1.3861
  567MOL0     H78240   9.980   7.298   7.202 -3.0034  1.3377 -0.5766
  567MOL0     H78241  10.133   7.360   7.252  1.6341  1.3618 -0.5385
  567MOL0     H78242  10.105   7.559   6.898  0.0955 -0.0105  0.5035
  567MOL0     H78243  10.439   7.636   7.242 -0.6476 -1.0468 -0.4666
  567MOL0     H78244  10.764   7.673   7.252  1.2098 -0.2356  0.3353
  567MOL0     H78245  10.644   7.789   7.198 -0.8209  0.5174  1.3284
  567MOL0     H78246  10.747   7.838   7.330 -1.4915  0.3998 -1.4299
  568MOL0     O78247   8.970   7.088   6.572 -0.4861 -0.6981 -0.3258
  568MOL0     C78248   8.928   6.994   6.505  0.1083 -0.0359 -0.2753
  568MOL0     O78249   9.005   6.921   6.420  0.9110  0.0940 -0.2854
  568MOL0     C78250   9.142   6.945   6.417  0.2428 -0.6680 -0.4332
  568MOL0     C78251   9.229   6.930   6.531 -0.4006  0.1466  0.2913
  568MOL0     C78252   9.366   6.934   6.509  0.4840 -1.2508 -0.8919
  568MOL0     C78253   9.423   6.976   6.386  0.3997  0.3739 -0.1599
  568MOL0     O78254   9.559   7.001   6.394  0.6660 -0.0400 -0.2596
  568MOL0     C78255   9.616   7.071   6.284 -0.1064 -0.3957 -0.0777
  568MOL0     C78256   9.762   7.094   6.324 -0.0853 -0.8567  0.6015
  568MOL0     C78257   9.832   7.174   6.214  0.1512 -0.1627  0.5002
  568MOL0     C78258   9.966   7.220   6.276  0.4887 -0.5619  0.0202
  568MOL0     C78259  10.042   7.307   6.175  0.0046 -0.7498  0.5298
  568MOL0     C78260  10.187   7.289   6.189 -0.7972 -0.9092  0.6997
  568MOL0     C78261  10.285   7.385   6.124 -0.4887 -0.2607  0.2160
  568MOL0     C78262  10.436   7.351   6.144 -0.8158 -0.0495  0.3942
  568MOL0     N78263  10.514   7.409   6.254  0.0942 -0.3093 -0.4638
  568MOL0     C78264  10.483   7.379   6.384  0.4726 -0.2544  0.3389
  568MOL0     C78265  10.572   7.442   6.465  0.6409 -0.7326 -0.1283
  568MOL0     C78266  10.566   7.457   6.615  1.0885 -1.0758 -0.9326
  568MOL0     C78267  10.424   7.518   6.657  0.0963 -0.1095  0.3430
  568MOL0     C78268  10.392   7.508   6.801  0.3774  0.6882  0.2788
  568MOL0     C78269  10.335   7.362   6.822 -0.3904 -0.1356 -0.1591
  568MOL0     O78270  10.223   7.345   6.740  0.0164 -0.3369  0.1049
  568MOL0     C78271  10.167   7.221   6.735 -0.0399 -0.7290 -0.6475
  568MOL0     C78272  10.222   7.095   6.777 -0.1838 -1.3582  0.0632
  568MOL0     C78273  10.166   6.966   6.757 -0.8000  0.4835  0.2116
  568MOL0     C78274  10.238   6.840   6.793 -0.0652  0.3827 -0.1595
  568MOL0     C78275  10.038   6.958   6.685 -0.1544 -0.4205 -0.4801
  568MOL0     C78276   9.967   6.832   6.642 -0.8057  0.2589 -0.4350
  568MOL0     O78277   9.896   6.835   6.524  0.9776  0.4642  0.1032
  568MOL0     C78278   9.814   6.724   6.492 -0.8340  0.2230 -0.0686
  568MOL0     C78279   9.671   6.720   6.510  0.3393  0.1400  0.5837
  568MOL0     C78280   9.590   6.615   6.465  0.2762 -0.6105  0.2929
  568MOL0     C78281   9.644   6.498   6.409 -0.9015 -0.4735  0.1705
  568MOL0     O78282   9.555   6.398   6.371  0.3740  0.3487  0.8302
  568MOL0     C78283   9.581   6.313   6.262  0.5060 -0.2804  0.2786
  568MOL0     C78284   9.570   6.392   6.129  0.3629 -0.2894 -0.1309
  568MOL0     C78285   9.545   6.322   5.996  0.7197 -0.5666 -0.5562
  568MOL0     C78286   9.417   6.241   5.996 -0.5944 -0.8042  1.1113
  568MOL0     C78287   9.378   6.186   5.857 -0.3518  0.0187  0.5351
  568MOL0     C78288   9.384   6.284   5.734  0.4360 -0.2914 -0.6800
  568MOL0     C78289   9.303   6.420   5.744 -1.1073  0.4934 -0.2161
  568MOL0     C78290   9.289   6.484   5.609 -0.4532  0.6598  0.1968
  568MOL0    Cl78291   9.227   6.655   5.629 -0.2597 -0.3616 -0.1826
  568MOL0     C78292   9.785   6.493   6.410  0.1390  0.1764  0.2426
  568MOL0     C78293   9.868   6.601   6.440  0.0053  0.1412 -0.0182
  568MOL0     O78294   9.993   6.725   6.702 -0.7492 -0.5553 -0.2467
  568MOL0     C78295   9.985   7.080   6.647 -0.1990 -0.5025  0.7882
  568MOL0     C78296  10.050   7.206   6.658 -0.2147  0.3184  0.0730
  568MOL0     N78297  10.648   7.513   6.385 -0.4202 -0.5867  0.4823
  568MOL0     N78298  10.614   7.499   6.262 -0.5449  0.8290  0.0890
  568MOL0     C78299   9.333   6.984   6.275  0.5156  0.0207  0.3508
  568MOL0     C78300   9.195   6.961   6.287 -0.5142  0.1221  0.3151
  568MOL0     C78301   8.781   6.968   6.512  0.3043  0.6066  0.3617
  568MOL0     C78302   8.731   6.857   6.444  1.0078  0.2822  0.5826
  568MOL0     C78303   8.599   6.811   6.448 -0.2491 -0.6768 -0.4973
  568MOL0     C78304   8.502   6.882   6.521 -0.0446 -0.2022  0.8113
  568MOL0     O78305   8.369   6.835   6.543  0.2519 -0.2390 -0.6309
  568MOL0     C78306   8.349   6.699   6.593  0.3754 -0.1923 -0.0161
  568MOL0     C78307   8.276   6.698   6.715  0.2449  0.1817 -0.3984
  568MOL0     C78308   8.237   6.557   6.769  0.1727  0.9896 -0.3614
  568MOL0     C78309   8.182   6.569   6.912 -0.0744 -0.4174  0.0232
  568MOL0     C78310   8.284   6.600   7.015  0.0239 -0.3119  0.0390
  568MOL0     C78311   8.352   6.610   7.116  0.1111  0.1573 -0.0237
  568MOL0     C78312   8.547   6.994   6.583  0.2772 -0.1384 -0.5920
  568MOL0     C78313   8.681   7.042   6.581 -0.0365  0.5243 -1.0372
  568MOL0     C78314   8.707   7.165   6.655 -0.0231 -0.2905 -0.5711
  568MOL0     H78315   9.198   6.890   6.627 -0.3321  0.6114  0.5052
  568MOL0     H78316   9.433   6.919   6.592 -1.9441  0.2731  1.5249
  568MOL0     H78317   9.565   7.160   6.246 -0.1732 -1.0598 -1.6102
  568MOL0     H78318   9.627   7.006   6.197  4.6753 -2.8125  1.9512
  568MOL0     H78319   9.760   7.148   6.419  1.6244 -2.2310  1.4672
  568MOL0     H78320   9.824   7.005   6.336  2.2244  0.4229 -1.0133
  568MOL0     H78321   9.848   7.113   6.126  1.2783 -0.3341  0.8075
  568MOL0     H78322   9.767   7.256   6.182  0.0180 -0.4820 -0.0372
  568MOL0     H78323   9.962   7.291   6.359  0.0318  0.9867 -1.2621
  568MOL0     H78324  10.021   7.133   6.313  1.0679 -0.8058 -1.3606
  568MOL0     H78325  10.022   7.414   6.186  1.3106 -0.5919  1.6882
  568MOL0     H78326  10.007   7.280   6.075  0.0115  3.3366 -0.7638
  568MOL0     H78327  10.207   7.301   6.296  0.1445  0.6427  0.3802
  568MOL0     H78328  10.201   7.184   6.159  1.8597  0.2590 -2.8927
  568MOL0     H78329  10.275   7.488   6.159 -0.3820 -0.5796  1.2235
  568MOL0     H78330  10.270   7.370   6.017  1.5943 -1.5398  0.0704
  568MOL0     H78331  10.447   7.243   6.158 -4.0905 -0.2039  3.0216
  568MOL0     H78332  10.495   7.371   6.054 -2.3150  0.8864 -0.4220
  568MOL0     H78333  10.404   7.311   6.414  0.0462  0.6576  1.3554
  568MOL0     H78334  10.640   7.516   6.669  0.2678 -1.3259  0.5036
  568MOL0     H78335  10.580   7.363   6.668  1.5814  0.0057  0.9318
  568MOL0     H78336  10.434   7.622   6.627 -0.1193 -0.1637  0.0661
  568MOL0     H78337  10.338   7.493   6.593  1.5229 -0.7763 -1.3895
  568MOL0     H78338  10.478   7.529   6.864  0.2980 -0.4816  0.8008
  568MOL0     H78339  10.306   7.569   6.829  0.2420  0.1771  1.0259
  568MOL0     H78340  10.416   7.289   6.821  2.2892  2.6140  0.2885
  568MOL0     H78341  10.303   7.345   6.926 -1.2868  1.4392 -0.1433
  568MOL0     H78342  10.317   7.117   6.824  0.0960 -1.3595 -0.4903
  568MOL0     H78343  10.183   6.775   6.861 -1.1442  2.3588  0.9641
  568MOL0     H78344  10.329   6.864   6.850 -1.2044 -0.4969  2.1358
  568MOL0     H78345  10.273   6.787   6.704 -1.5800  1.0047 -1.1687
  568MOL0     H78346   9.632   6.817   6.542 -1.2877  0.5945 -2.3784
  568MOL0     H78347   9.482   6.627   6.463  0.2173 -1.0976  0.5049
  568MOL0     H78348   9.683   6.276   6.273  0.6400  0.3247  1.1532
  568MOL0     H78349   9.508   6.232   6.264 -0.6919  0.7741  2.5454
  568MOL0     H78350   9.489   6.464   6.145  2.3839  2.1267 -0.1261
  568MOL0     H78351   9.663   6.447   6.111  0.6291 -0.5367  0.4674
  568MOL0     H78352   9.630   6.257   5.975  0.8752 -0.5864  0.1155
  568MOL0     H78353   9.547   6.389   5.909  1.4084 -1.7157 -1.4624
  568MOL0     H78354   9.348   6.319   6.030  0.5208  1.7852 -2.0489
  568MOL0     H78355   9.416   6.162   6.071 -0.7627  1.2426  3.3928
  568MOL0     H78356   9.446   6.102   5.840  1.2747  1.8560 -2.9439
  568MOL0     H78357   9.277   6.143   5.855 -1.1666  1.8623 -0.8982
  568MOL0     H78358   9.320   6.236   5.660 -1.0756  1.9736 -0.9242
  568MOL0     H78359   9.487   6.292   5.699  0.4843  2.6254 -0.0935
  568MOL0     H78360   9.356   6.490   5.810  1.3982 -0.9015 -0.6109
  568MOL0     H78361   9.205   6.406   5.790 -1.5261  0.9221 -0.9509
  568MOL0     H78362   9.231   6.421   5.541  1.0504 -0.3550 -0.1877
  568MOL0     H78363   9.391   6.488   5.570  0.0419 -3.5128  0.6588
  568MOL0     H78364   9.828   6.399   6.376 -1.1725 -0.0780 -0.7738
  568MOL0     H78365   9.976   6.598   6.439  0.0425  1.1834 -0.2147
  568MOL0     H78366   9.886   7.086   6.602  0.8667  1.2871 -1.5912
  568MOL0     H78367  10.004   7.299   6.626 -1.6131  0.1851  1.5666
  568MOL0     H78368   9.380   7.012   6.181  1.4616  1.1602  1.1320
  568MOL0     H78369   9.128   6.965   6.201  0.7074 -2.0061 -0.8236
  568MOL0     H78370   8.798   6.793   6.387  1.9674  0.9929  0.8797
  568MOL0     H78371   8.569   6.719   6.399 -3.7666 -0.6868  1.3627
  568MOL0     H78372   8.293   6.641   6.519 -0.4963 -0.8672  1.1283
  568MOL0     H78373   8.444   6.646   6.608  0.6672 -0.2315 -1.8287
  568MOL0     H78374   8.185   6.757   6.704  0.0795  0.2181  0.9472
  568MOL0     H78375   8.348   6.752   6.778  1.9657  0.5910 -2.6093
  568MOL0     H78376   8.163   6.504   6.708 -0.9981 -0.2689  2.0194
  568MOL0     H78377   8.328   6.498   6.783 -0.6906  0.3058  3.6401
  568MOL0     H78378   8.151   6.469   6.945  5.0661 -1.9198  1.1888
  568MOL0     H78379   8.102   6.644   6.914  1.4682  1.2943 -0.0896
  568MOL0     H78380   8.397   6.608   7.213 -0.4663  0.2458  0.2501
  568MOL0     H78381   8.470   7.044   6.641 -0.5708  0.0226 -1.8113
  568MOL0     H78382   8.750   7.236   6.584  2.9328  0.9631  2.1903
  568MOL0     H78383   8.617   7.208   6.700 -0.6138  0.0999 -2.0714
  568MOL0     H78384   8.786   7.146   6.728  0.0650  1.0678 -0.2874
  569MOL0     O78385   5.475   2.766   9.303 -0.0925 -0.3874  0.5198
  569MOL0     C78386   5.467   2.665   9.232  1.1770  0.4048  0.2984
  569MOL0     O78387   5.559   2.563   9.224  0.4367 -0.1501 -0.1537
  569MOL0     C78388   5.685   2.579   9.278  0.6757 -0.4438 -0.2705
  569MOL0     C78389   5.781   2.669   9.233 -0.8547 -0.3982  0.1027
  569MOL0     C78390   5.908   2.665   9.297 -0.4801 -0.2507 -0.6195
  569MOL0     C78391   5.935   2.569   9.401 -0.0331  1.6860  0.4829
  569MOL0     O78392   6.055   2.565   9.465  0.4641  0.2283  0.2751
  569MOL0     C78393   6.166   2.511   9.392  0.1723  0.4579  0.9484
  569MOL0     C78394   6.290   2.551   9.455 -0.1069 -0.7887 -0.4168
  569MOL0     C78395   6.419   2.527   9.376  0.6277 -0.1983 -0.1832
  569MOL0     C78396   6.540   2.581   9.439 -0.9620 -0.2975  1.1728
  569MOL0     C78397   6.656   2.546   9.351  0.4486  0.0072  0.2844
  569MOL0     C78398   6.665   2.623   9.219 -0.0102  0.9446 -0.0957
  569MOL0     C78399   6.812   2.605   9.168 -0.3856  0.7668 -0.1989
  569MOL0     C78400   6.828   2.661   9.028 -0.7616  0.4243  0.3823
  569MOL0     N78401   6.931   2.595   8.942 -0.1430 -0.3721 -0.0567
  569MOL0     C78402   7.061   2.592   8.988 -0.0130 -0.1711  0.6871
  569MOL0     C78403   7.119   2.508   8.903 -0.3497  0.0521 -0.5781
  569MOL0     C78404   7.258   2.469   8.922  0.9229  0.1134 -0.2326
  569MOL0     C78405   7.358   2.582   8.911 -1.0181  0.3967 -0.1173
  569MOL0     C78406   7.369   2.650   8.782 -0.2703 -0.2316 -0.0438
  569MOL0     C78407   7.494   2.742   8.774  0.0264  0.3313 -0.0284
  569MOL0     O78408   7.504   2.791   8.636 -0.5335  1.0248  0.0111
  569MOL0     C78409   7.612   2.864   8.604  0.2878  0.3614  0.4803
  569MOL0     C78410   7.609   2.919   8.480  0.9243 -0.8415  0.6288
  569MOL0     C78411   7.708   3.000   8.423  0.5228  0.9086  1.3325
  569MOL0     C78412   7.682   3.058   8.290  0.0628 -0.5998 -0.3922
  569MOL0     C78413   7.825   3.020   8.504 -0.6275 -0.7569  0.0549
  569MOL0     C78414   7.952   3.078   8.449  1.1413  1.1223 -0.1521
  569MOL0     O78415   7.975   3.055   8.319 -0.3974 -0.6143  0.0767
  569MOL0     C78416   8.075   3.127   8.256  0.4292 -0.1593  0.5949
  569MOL0     C78417   8.045   3.210   8.147 -0.0795  0.5151 -0.5468
  569MOL0     C78418   8.146   3.277   8.079 -0.2800  0.2853  0.8572
  569MOL0     C78419   8.279   3.272   8.119 -0.0777 -0.0966  0.4018
  569MOL0     O78420   8.373   3.351   8.057  0.4770 -0.2381 -0.1147
  569MOL0     C78421   8.380   3.320   7.921 -0.7256 -1.2967 -0.2578
  569MOL0     C78422   8.492   3.399   7.853 -0.3216  0.5151 -0.7349
  569MOL0     C78423   8.632   3.363   7.910 -0.3256 -0.4661 -0.1871
  569MOL0     C78424   8.741   3.431   7.846  0.1628 -0.8532 -0.4419
  569MOL0     C78425   8.886   3.389   7.892 -0.2661  0.0707 -0.1987
  569MOL0     C78426   9.003   3.465   7.823  0.1834  0.1815  0.2864
  569MOL0     C78427   9.132   3.388   7.824  0.2034 -0.5298  0.0645
  569MOL0     C78428   9.245   3.485   7.791 -0.0071  0.4132 -0.1123
  569MOL0    Cl78429   9.279   3.599   7.921 -0.7348  0.1061  0.0382
  569MOL0     C78430   8.308   3.196   8.225  0.0877  0.1388  0.2677
  569MOL0     C78431   8.216   3.111   8.289  0.2849  0.6274 -0.2595
  569MOL0     O78432   8.030   3.129   8.523 -0.1605  0.8504  0.0759
  569MOL0     C78433   7.821   2.966   8.631  0.6866  0.9664  0.1490
  569MOL0     C78434   7.721   2.886   8.684  0.5967  0.2705  0.9041
  569MOL0     N78435   7.033   2.473   8.803  1.2730 -0.1608  0.3977
  569MOL0     N78436   6.914   2.505   8.835  0.7333 -0.5057  0.4720
  569MOL0     C78437   5.838   2.490   9.444  0.0022  0.4735 -0.2502
  569MOL0     C78438   5.717   2.495   9.382  0.0127  0.1404  0.8277
  569MOL0     C78439   5.339   2.644   9.151  0.7999 -0.0700 -0.4300
  569MOL0     C78440   5.273   2.523   9.159  0.3485 -0.5149 -0.0231
  569MOL0     C78441   5.159   2.494   9.083 -0.0819  0.5408 -0.5543
  569MOL0     C78442   5.102   2.598   9.005  0.5688 -0.0891  0.8032
  569MOL0     O78443   4.980   2.573   8.956  0.5318  0.1903  0.0113
  569MOL0     C78444   4.926   2.637   8.853  0.1201 -1.0764  0.4970
  569MOL0     C78445   4.790   2.570   8.815 -0.2035 -0.0821 -0.2251
  569MOL0     C78446   4.679   2.606   8.909 -0.0025  0.1563  0.0915
  569MOL0     C78447   4.552   2.536   8.862 -0.2651  0.1296 -0.3833
  569MOL0     C78448   4.442   2.595   8.936  0.6410  0.1413  0.2556
  569MOL0     C78449   4.339   2.647   8.988 -0.1872 -0.6402  0.3480
  569MOL0     C78450   5.173   2.714   8.981  0.9893 -0.2923  0.6977
  569MOL0     C78451   5.291   2.729   9.044 -0.3077 -0.3629 -0.3165
  569MOL0     C78452   5.361   2.869   9.028 -0.5187  0.0811  0.0323
  569MOL0     H78453   5.765   2.734   9.148 -1.9231 -1.2095 -0.3318
  569MOL0     H78454   5.983   2.741   9.279 -0.1718 -0.5987 -0.8236
  569MOL0     H78455   6.156   2.534   9.286 -3.6543 -1.4832  0.7346
  569MOL0     H78456   6.173   2.403   9.403 -0.3989  0.3528  0.3503
  569MOL0     H78457   6.279   2.660   9.460  0.7399 -0.7395  1.0933
  569MOL0     H78458   6.303   2.517   9.558 -0.6747  0.8550  0.2312
  569MOL0     H78459   6.433   2.420   9.356 -1.3110 -0.3989 -0.7098
  569MOL0     H78460   6.408   2.572   9.277 -0.2818  0.2256  0.0938
  569MOL0     H78461   6.543   2.689   9.453 -0.0371 -0.4364  2.2614
  569MOL0     H78462   6.551   2.539   9.540 -1.1218  0.2820  1.4337
  569MOL0     H78463   6.653   2.441   9.322  0.0863 -0.6847  2.6319
  569MOL0     H78464   6.745   2.564   9.412  0.7018 -1.7334  0.4708
  569MOL0     H78465   6.606   2.574   9.141  0.1269  2.9455 -1.5186
  569MOL0     H78466   6.642   2.729   9.232  1.7540  1.1204  2.1417
  569MOL0     H78467   6.828   2.497   9.157  3.2854  0.9318  2.0803
  569MOL0     H78468   6.876   2.653   9.242 -0.1543 -1.3145  1.0372
  569MOL0     H78469   6.735   2.640   8.975 -0.6651  0.7881  0.0660
  569MOL0     H78470   6.852   2.768   9.031  1.0861  0.0399  0.5387
  569MOL0     H78471   7.109   2.639   9.073  1.4594  0.8397 -0.6566
  569MOL0     H78472   7.289   2.393   8.850 -1.5686 -2.8092  1.5546
  569MOL0     H78473   7.256   2.429   9.023 -1.2014 -1.6247 -0.8752
  569MOL0     H78474   7.348   2.655   8.992  2.6245 -0.1022  0.9472
  569MOL0     H78475   7.460   2.544   8.922 -2.0162 -2.3287  0.5578
  569MOL0     H78476   7.377   2.580   8.698  0.6683  3.2513 -3.1280
  569MOL0     H78477   7.283   2.710   8.751 -1.4816 -2.1810 -0.6536
  569MOL0     H78478   7.485   2.823   8.846  2.4618  2.6114 -2.0818
  569MOL0     H78479   7.579   2.679   8.802 -0.0437  0.5550  0.6967
  569MOL0     H78480   7.512   2.910   8.432  0.9025 -0.6064  0.6291
  569MOL0     H78481   7.709   3.164   8.286 -0.4490 -0.4624 -0.3472
  569MOL0     H78482   7.577   3.043   8.264 -0.9237 -1.2818  3.3511
  569MOL0     H78483   7.749   3.009   8.219  1.4811 -1.7710  1.6158
  569MOL0     H78484   7.940   3.219   8.120 -0.3020  0.8714  0.3988
  569MOL0     H78485   8.118   3.341   7.996  0.2031 -1.3103 -0.6020
  569MOL0     H78486   8.413   3.215   7.918  2.6463 -0.3522 -1.5023
  569MOL0     H78487   8.288   3.338   7.866  1.1637  0.0887 -3.2578
  569MOL0     H78488   8.488   3.380   7.746  1.0331  0.6620 -0.8326
  569MOL0     H78489   8.473   3.507   7.849 -0.0836  0.5376 -4.0736
  569MOL0     H78490   8.632   3.254   7.916 -2.1355 -0.8463 -4.1027
  569MOL0     H78491   8.625   3.396   8.014 -3.9898 -2.8327  0.4734
  569MOL0     H78492   8.728   3.537   7.869 -0.2906 -1.1573  0.7414
  569MOL0     H78493   8.737   3.418   7.737  0.2829 -0.1250 -0.5414
  569MOL0     H78494   8.893   3.394   8.001  2.6615 -1.5737 -0.2063
  569MOL0     H78495   8.899   3.289   7.849  0.0072 -0.5284  1.2254
  569MOL0     H78496   9.005   3.559   7.879  1.5091  0.0134  0.5451
  569MOL0     H78497   8.981   3.481   7.717 -1.2968 -2.6131  0.0803
  569MOL0     H78498   9.134   3.320   7.738 -0.5735 -0.2579 -0.1746
  569MOL0     H78499   9.154   3.335   7.917  2.1845  1.1875  0.6615
  569MOL0     H78500   9.222   3.549   7.706  0.1079  1.0890  0.3554
  569MOL0     H78501   9.338   3.430   7.771 -0.0009  0.0625  0.8178
  569MOL0     H78502   8.411   3.181   8.255 -0.2378  1.5812  2.2969
  569MOL0     H78503   8.257   3.038   8.358 -0.8181  2.2317  2.2332
  569MOL0     H78504   7.893   2.991   8.708  0.3625  0.1447  0.7366
  569MOL0     H78505   7.715   2.853   8.787 -2.1166 -0.4863  0.5956
  569MOL0     H78506   5.854   2.415   9.521 -2.7835 -2.1470 -1.9913
  569MOL0     H78507   5.645   2.422   9.416 -1.1775  0.0468 -1.6288
  569MOL0     H78508   5.312   2.442   9.221  0.8831  1.5250  2.4546
  569MOL0     H78509   5.115   2.395   9.091  0.9404 -0.0435 -1.7960
  569MOL0     H78510   4.909   2.741   8.883  0.8826 -0.3969 -1.2948
  569MOL0     H78511   4.997   2.628   8.770  1.1910  0.6108  1.1691
  569MOL0     H78512   4.802   2.461   8.816  0.1578 -0.0466  1.7859
  569MOL0     H78513   4.759   2.622   8.724 -1.9138  1.2094  1.0339
  569MOL0     H78514   4.703   2.574   9.010  2.2866  0.6473 -0.2560
  569MOL0     H78515   4.655   2.711   8.924 -0.8526  0.1094 -0.8022
  569MOL0     H78516   4.564   2.430   8.887  2.0310  0.9383  2.6107
  569MOL0     H78517   4.531   2.546   8.755 -0.9149 -1.0624 -0.3879
  569MOL0     H78518   4.266   2.692   9.052  0.5887  0.6277  0.3796
  569MOL0     H78519   5.144   2.804   8.928  0.2699 -0.2745  1.1142
  569MOL0     H78520   5.331   2.935   9.110  1.7528  0.1617  0.8497
  569MOL0     H78521   5.470   2.864   9.029 -0.4988  0.5475  0.3783
  569MOL0     H78522   5.335   2.915   8.932 -1.4634 -0.8073 -0.1540
  570MOL0     O78523   5.753   6.976   1.721 -0.6663 -0.1522 -0.2026
  570MOL0     C78524   5.665   7.038   1.782  0.1633  0.5974  0.9730
  570MOL0     O78525   5.659   7.169   1.802  0.3753 -0.6669  0.1276
  570MOL0     C78526   5.746   7.250   1.730 -0.6153 -0.2648  0.1453
  570MOL0     C78527   5.878   7.289   1.777  0.0956 -0.8177 -0.5818
  570MOL0     C78528   5.961   7.373   1.702 -0.1295  0.4264  0.0663
  570MOL0     C78529   5.927   7.416   1.573  0.4496  0.1831  0.3451
  570MOL0     O78530   6.003   7.483   1.482  0.6706 -0.0367  1.1488
  570MOL0     C78531   6.142   7.469   1.471  0.2627  0.3265  0.7577
  570MOL0     C78532   6.213   7.578   1.556 -0.7059  0.0118 -0.4131
  570MOL0     C78533   6.194   7.721   1.499 -0.3265 -0.8002  0.1960
  570MOL0     C78534   6.282   7.820   1.585 -0.2333  0.2937  0.6151
  570MOL0     C78535   6.242   7.968   1.583  0.6325 -0.8276 -0.0050
  570MOL0     C78536   6.273   8.029   1.445  0.2391  0.6549  0.2615
  570MOL0     C78537   6.191   8.149   1.418  0.2420  0.1262 -0.0540
  570MOL0     C78538   6.035   8.134   1.425 -0.4394  0.8079 -0.1455
  570MOL0     N78539   5.974   8.246   1.353 -0.1171 -0.3470 -0.0937
  570MOL0     C78540   5.917   8.222   1.223  0.3622 -0.0295 -0.1641
  570MOL0     C78541   5.868   8.347   1.184  0.0952 -0.2710  0.2821
  570MOL0     C78542   5.799   8.399   1.061 -0.4176  1.0800  0.0310
  570MOL0     C78543   5.891   8.420   0.935  0.7648  0.2443 -0.4306
  570MOL0     C78544   5.993   8.305   0.915 -0.5852 -0.1514  0.5736
  570MOL0     C78545   6.061   8.306   0.781  0.1580  0.1458 -0.3112
  570MOL0     O78546   6.152   8.205   0.749  0.0566 -0.5527 -0.6919
  570MOL0     C78547   6.110   8.111   0.662 -0.5802 -0.1355  0.6804
  570MOL0     C78548   6.135   7.978   0.703  0.7869 -0.1607  0.3470
  570MOL0     C78549   6.099   7.866   0.621 -0.3627  0.9111 -0.6161
  570MOL0     C78550   6.147   7.728   0.666 -0.2596 -0.7743  0.5223
  570MOL0     C78551   6.028   7.887   0.503 -0.0561  0.1194 -0.0271
  570MOL0     C78552   5.954   7.786   0.418 -0.1321 -0.2849 -0.6499
  570MOL0     O78553   5.885   7.847   0.318 -0.1402 -0.1305  0.1777
  570MOL0     C78554   5.835   7.767   0.217  0.1465 -0.5931 -0.4778
  570MOL0     C78555   5.914   7.715   0.119  0.5680 -0.0996 -0.2750
  570MOL0     C78556   5.854   7.650   0.009 -0.3582  0.2019 -0.2619
  570MOL0     C78557   5.721   7.639  -0.001  0.1471  1.0901 -0.6090
  570MOL0     O78558   5.674   7.573  -0.112  0.8262  0.2610  0.0970
  570MOL0     C78559   5.560   7.479  -0.097 -0.2913  0.0094 -0.4107
  570MOL0     C78560   5.601   7.345  -0.032  0.0547 -0.5222  0.0718
  570MOL0     C78561   5.715   7.278  -0.113 -0.1024 -0.5187  0.0789
  570MOL0     C78562   5.760   7.151  -0.048 -0.5933 -0.3747  0.8128
  570MOL0     C78563   5.794   7.153   0.094 -0.0971 -0.4916  0.4187
  570MOL0     C78564   5.842   7.016   0.128  0.3771 -0.3207 -0.5021
  570MOL0     C78565   5.984   6.987   0.079  0.4587 -0.1713  0.4297
  570MOL0     C78566   6.043   6.862   0.144 -0.7145 -0.4293 -0.3570
  570MOL0    Cl78567   6.144   6.768   0.042  0.2853 -0.1622  0.1006
  570MOL0     C78568   5.636   7.670   0.108 -0.3876 -0.7272  0.6713
  570MOL0     C78569   5.698   7.735   0.213  0.1568  0.0627 -0.4142
  570MOL0     O78570   5.981   7.667   0.425 -0.2178 -0.2890 -0.3542
  570MOL0     C78571   5.991   8.028   0.476 -0.0648 -1.1129  0.2681
  570MOL0     C78572   6.038   8.137   0.550 -0.6006  0.3052 -0.5962
  570MOL0     N78573   5.889   8.433   1.292  0.0563 -0.3513  1.0283
  570MOL0     N78574   5.956   8.376   1.385 -0.5714  0.4706  0.4525
  570MOL0     C78575   5.802   7.375   1.523  0.5385 -0.3947  0.1965
  570MOL0     C78576   5.712   7.297   1.603 -0.2179  0.4989  0.0370
  570MOL0     C78577   5.545   6.956   1.827 -0.0760  0.4910  0.2529
  570MOL0     C78578   5.556   6.816   1.808  0.1671  0.4089  0.6860
  570MOL0     C78579   5.451   6.726   1.856  0.0943  0.3515  0.5534
  570MOL0     C78580   5.342   6.786   1.921  0.0878  0.1831 -0.7720
  570MOL0     O78581   5.246   6.714   1.982  0.4477  0.2412 -0.0890
  570MOL0     C78582   5.238   6.567   1.957  0.2857  0.3653  0.0588
  570MOL0     C78583   5.107   6.518   2.022  0.3053  0.8128  0.4343
  570MOL0     C78584   4.983   6.566   1.938  0.5648  0.4707 -0.0329
  570MOL0     C78585   4.844   6.563   2.006 -0.3666  0.7733  0.5373
  570MOL0     C78586   4.740   6.624   1.924  0.9727  0.3501 -0.6148
  570MOL0     C78587   4.663   6.672   1.840 -0.8068  0.2260 -0.0278
  570MOL0     C78588   5.333   6.926   1.934  0.5438 -0.7912 -0.5068
  570MOL0     C78589   5.429   7.017   1.882 -0.1302 -0.2646 -0.4978
  570MOL0     C78590   5.387   7.160   1.883 -0.7703 -0.6258  0.0463
  570MOL0     H78591   5.891   7.239   1.872  2.2851 -0.1133 -0.4670
  570MOL0     H78592   6.064   7.388   1.735  0.0123  0.8841 -0.5764
  570MOL0     H78593   6.180   7.478   1.369 -0.6090 -0.7020  0.3254
  570MOL0     H78594   6.166   7.368   1.505  1.8832  0.1681 -0.7036
  570MOL0     H78595   6.172   7.578   1.657  1.9342 -1.9832  0.7782
  570MOL0     H78596   6.317   7.544   1.554 -1.3480 -2.1588  0.5060
  570MOL0     H78597   6.228   7.722   1.396  0.7900 -0.5937  0.5602
  570MOL0     H78598   6.087   7.746   1.499 -0.4884 -1.4464  1.0073
  570MOL0     H78599   6.289   7.782   1.687  1.1073 -0.4080  0.2906
  570MOL0     H78600   6.387   7.814   1.556 -0.1307 -0.7710  1.1655
  570MOL0     H78601   6.288   8.018   1.669  0.7121 -0.5422 -0.2120
  570MOL0     H78602   6.134   7.971   1.597  0.7372 -0.6820  0.8693
  570MOL0     H78603   6.381   8.051   1.443  0.4557 -0.3237 -2.4473
  570MOL0     H78604   6.260   7.953   1.368 -1.2199  0.5861  0.5560
  570MOL0     H78605   6.218   8.172   1.315  2.5168 -0.8687  0.2785
  570MOL0     H78606   6.209   8.238   1.479  0.2357 -1.5173  2.4875
  570MOL0     H78607   6.014   8.031   1.394  1.8884 -0.8871  3.2771
  570MOL0     H78608   5.985   8.140   1.522  0.7637 -0.1392  0.5764
  570MOL0     H78609   5.915   8.124   1.177 -0.7701  0.2942 -0.8399
  570MOL0     H78610   5.737   8.486   1.088 -1.0933 -0.1295  2.6657
  570MOL0     H78611   5.723   8.328   1.027 -0.3296  1.7185 -1.6093
  570MOL0     H78612   5.825   8.419   0.847 -0.6609 -0.9955  0.5987
  570MOL0     H78613   5.949   8.512   0.939  4.0545 -1.7066 -0.0367
  570MOL0     H78614   6.072   8.310   0.990 -0.8488 -2.4758  1.0956
  570MOL0     H78615   5.940   8.210   0.924 -1.9056  0.5040  0.0828
  570MOL0     H78616   5.986   8.326   0.704  0.4571 -1.4723 -1.0791
  570MOL0     H78617   6.123   8.396   0.777  1.5408 -0.7518  0.2077
  570MOL0     H78618   6.190   7.960   0.794  0.2860  0.5764  0.8066
  570MOL0     H78619   6.241   7.725   0.722  0.3668 -1.6548 -0.5466
  570MOL0     H78620   6.166   7.676   0.572 -0.0660  0.6994 -0.2762
  570MOL0     H78621   6.070   7.682   0.729 -0.7001 -0.2539  0.3647
  570MOL0     H78622   6.019   7.740   0.103 -0.0020  2.5551 -0.3490
  570MOL0     H78623   5.921   7.618  -0.070 -0.8636  0.4692 -0.8082
  570MOL0     H78624   5.475   7.531  -0.051 -1.6244  0.1144 -2.8483
  570MOL0     H78625   5.523   7.456  -0.197 -1.8244 -0.6110  0.2602
  570MOL0     H78626   5.630   7.363   0.072  1.5365 -2.4858  0.0682
  570MOL0     H78627   5.511   7.284  -0.027 -1.1454  1.1285 -0.6276
  570MOL0     H78628   5.792   7.353  -0.133 -1.2269  0.6301 -0.0379
  570MOL0     H78629   5.681   7.261  -0.215  3.1145  3.8878 -2.0578
  570MOL0     H78630   5.850   7.108  -0.093 -0.9934 -1.5026  1.0533
  570MOL0     H78631   5.685   7.075  -0.072  0.1284 -0.3948 -1.7401
  570MOL0     H78632   5.867   7.230   0.121 -0.9810 -0.0908  1.7827
  570MOL0     H78633   5.704   7.170   0.155  1.2383  0.0281  2.3387
  570MOL0     H78634   5.774   6.939   0.090 -0.1671  0.5652 -1.4051
  570MOL0     H78635   5.848   7.007   0.236 -0.2898 -0.7482 -0.4969
  570MOL0     H78636   6.049   7.074   0.094  2.4115 -1.7751  1.9193
  570MOL0     H78637   5.978   6.956  -0.025 -0.0480  2.5762 -0.4362
  570MOL0     H78638   5.958   6.794   0.157  0.0934 -1.6205 -1.1852
  570MOL0     H78639   6.090   6.894   0.238 -0.2656  1.8876 -1.2853
  570MOL0     H78640   5.531   7.643   0.111 -0.1675 -1.5964  0.6970
  570MOL0     H78641   5.647   7.764   0.305  1.1293 -3.2064  1.3339
  570MOL0     H78642   5.934   8.063   0.390  2.4197 -3.5718 -2.6076
  570MOL0     H78643   6.017   8.235   0.509 -4.9252 -0.5954 -1.0107
  570MOL0     H78644   5.782   7.387   1.417  0.5875  0.7939  0.3002
  570MOL0     H78645   5.617   7.269   1.558  0.0471 -0.8188  0.2336
  570MOL0     H78646   5.646   6.777   1.762  0.3127  0.9693  0.4928
  570MOL0     H78647   5.478   6.621   1.847 -1.0012  0.0203  0.9759
  570MOL0     H78648   5.231   6.531   1.854  0.2009  0.1001  0.1566
  570MOL0     H78649   5.325   6.522   2.005 -0.3510  1.7738  2.7627
  570MOL0     H78650   5.103   6.568   2.119  0.5780  2.6752 -0.4674
  570MOL0     H78651   5.101   6.409   2.033 -0.5353  0.9629  1.6405
  570MOL0     H78652   5.005   6.669   1.910 -0.2598  0.5246 -0.5107
  570MOL0     H78653   4.975   6.513   1.843  1.5548  0.8302 -0.3332
  570MOL0     H78654   4.863   6.607   2.104  0.2189  0.4480  0.5795
  570MOL0     H78655   4.815   6.458   2.020  2.0418 -0.2575 -1.3064
  570MOL0     H78656   4.598   6.679   1.755  0.5052  1.3672 -0.9821
  570MOL0     H78657   5.237   6.960   1.972 -0.0676 -0.9513 -1.8477
  570MOL0     H78658   5.387   7.186   1.777  1.2050 -0.2719  0.1057
  570MOL0     H78659   5.281   7.176   1.904 -0.6026  1.3609 -0.4055
  570MOL0     H78660   5.458   7.220   1.940 -2.1107  1.4202 -0.3648
  571MOL0     O78661   8.875   7.432   4.153  0.6095 -0.6535 -0.6435
  571MOL0     C78662   8.939   7.525   4.105 -0.4546  0.3496  0.5904
  571MOL0     O78663   8.887   7.635   4.028 -0.1564  0.8871 -0.1802
  571MOL0     C78664   8.749   7.632   4.023  0.5521  0.0271  0.3846
  571MOL0     C78665   8.679   7.528   3.957 -0.2616  0.4622  0.2863
  571MOL0     C78666   8.541   7.524   3.941  0.2358  0.5445 -0.3827
  571MOL0     C78667   8.469   7.624   4.002  0.1480  0.4203  0.4788
  571MOL0     O78668   8.330   7.608   3.988 -0.5962 -0.1900  0.1343
  571MOL0     C78669   8.256   7.726   4.002 -0.5926  0.4743  0.4072
  571MOL0     C78670   8.111   7.698   3.970 -0.0996  0.5085 -0.5190
  571MOL0     C78671   8.044   7.619   4.085 -0.5628  0.3613  0.4222
  571MOL0     C78672   7.907   7.564   4.043  0.5252 -0.2334 -0.6262
  571MOL0     C78673   7.830   7.514   4.173 -0.2646 -0.9129 -0.4787
  571MOL0     C78674   7.695   7.452   4.146  0.0426 -0.2391 -0.5555
  571MOL0     C78675   7.606   7.421   4.277  0.3422 -0.0354  0.6817
  571MOL0     C78676   7.488   7.334   4.247  0.2940  0.0393  0.1198
  571MOL0     N78677   7.369   7.396   4.196  0.0970  0.2966  0.0691
  571MOL0     C78678   7.251   7.434   4.270 -0.5809  0.5778  0.6203
  571MOL0     C78679   7.176   7.492   4.172 -0.3970  0.2594 -0.2759
  571MOL0     C78680   7.030   7.542   4.202 -0.1048 -0.4501  0.7801
  571MOL0     C78681   7.034   7.697   4.192 -0.4262  0.2073  0.7717
  571MOL0     C78682   7.073   7.754   4.054  0.0532 -0.6698 -0.3021
  571MOL0     C78683   7.018   7.688   3.933 -0.0766  0.4444  0.1270
  571MOL0     O78684   7.028   7.789   3.828  0.7448 -0.1147  0.0118
  571MOL0     C78685   7.136   7.786   3.748 -0.0546  0.3447  0.3106
  571MOL0     C78686   7.142   7.881   3.648 -0.2346  0.1475 -0.3688
  571MOL0     C78687   7.244   7.897   3.558  0.2789  0.9700  0.2296
  571MOL0     C78688   7.237   8.015   3.461 -0.1006  0.1564 -0.0430
  571MOL0     C78689   7.355   7.802   3.559  0.7081 -1.1253 -0.3599
  571MOL0     C78690   7.456   7.803   3.455 -0.0683 -1.3096  0.2195
  571MOL0     O78691   7.558   7.714   3.464 -0.7295  0.5437  0.0743
  571MOL0     C78692   7.638   7.709   3.352  0.0851 -0.6449 -0.3614
  571MOL0     C78693   7.749   7.802   3.343  0.0641  0.4731  0.4519
  571MOL0     C78694   7.846   7.788   3.243  1.1067 -0.1812  0.0873
  571MOL0     C78695   7.833   7.685   3.154  0.0981 -0.7064  0.3251
  571MOL0     O78696   7.940   7.672   3.062  0.6425  0.2921  0.8451
  571MOL0     C78697   7.965   7.544   3.007 -0.0662  0.2990 -0.5143
  571MOL0     C78698   7.890   7.542   2.873  0.8362 -0.0388  0.2519
  571MOL0     C78699   7.901   7.399   2.809  0.9754  0.1621 -0.0909
  571MOL0     C78700   7.834   7.384   2.670  0.5688 -0.1829  0.3110
  571MOL0     C78701   7.835   7.239   2.633 -1.2019 -0.0417 -0.2602
  571MOL0     C78702   7.962   7.191   2.554  0.4884  0.9830  0.3496
  571MOL0     C78703   7.975   7.255   2.414 -0.9535  0.2167 -1.0139
  571MOL0     C78704   8.059   7.164   2.325  0.6470  0.1759 -0.3982
  571MOL0    Cl78705   8.214   7.141   2.407  0.0818 -0.1726  0.2176
  571MOL0     C78706   7.720   7.602   3.152 -0.6904  0.6297  0.1610
  571MOL0     C78707   7.625   7.609   3.256 -0.9448 -0.1922  0.1706
  571MOL0     O78708   7.437   7.871   3.351  0.1723  0.1219  0.0146
  571MOL0     C78709   7.350   7.701   3.656 -0.4239 -0.4331  0.6467
  571MOL0     C78710   7.244   7.697   3.754 -0.3387 -0.3042 -0.5778
  571MOL0     N78711   7.234   7.477   4.048 -0.3738  0.1010 -0.5314
  571MOL0     N78712   7.342   7.410   4.069 -0.0158 -0.6489  0.1012
  571MOL0     C78713   8.530   7.728   4.080 -0.3844 -0.0380 -0.7718
  571MOL0     C78714   8.673   7.724   4.090  0.4993 -0.2562  0.0340
  571MOL0     C78715   9.082   7.524   4.112  0.5240  0.0813  0.3488
  571MOL0     C78716   9.154   7.607   4.025 -0.5522  0.3564  0.2423
  571MOL0     C78717   9.291   7.610   4.023  0.8614 -0.4860  0.4490
  571MOL0     C78718   9.361   7.512   4.094 -0.2209  0.4238  0.2464
  571MOL0     O78719   9.496   7.497   4.071  0.6420  0.3267  0.1080
  571MOL0     C78720   9.567   7.594   3.993  0.1422 -0.0134 -0.1235
  571MOL0     C78721   9.720   7.564   3.991 -0.2139  0.2616 -0.9875
  571MOL0     C78722   9.787   7.549   4.134 -0.0153 -0.4603 -0.4603
  571MOL0     C78723   9.921   7.477   4.133  0.4975  0.5903 -0.3661
  571MOL0     C78724  10.013   7.532   4.023 -0.2160 -0.5732  0.1811
  571MOL0     C78725  10.079   7.581   3.932 -0.0635 -0.1977 -0.2926
  571MOL0     C78726   9.292   7.429   4.179  0.2593  0.1614  0.5235
  571MOL0     C78727   9.152   7.438   4.196 -0.5439  0.2521 -0.0992
  571MOL0     C78728   9.095   7.353   4.307  0.3193 -0.0852 -0.4720
  571MOL0     H78729   8.742   7.453   3.911 -1.1681  0.2361 -0.6420
  571MOL0     H78730   8.499   7.441   3.886 -2.0608  1.4872 -0.1415
  571MOL0     H78731   8.290   7.793   3.923 -2.0414  0.9209  0.1406
  571MOL0     H78732   8.270   7.780   4.096 -1.0922  0.2634  0.6109
  571MOL0     H78733   8.060   7.794   3.966  0.9031  1.1814  1.4723
  571MOL0     H78734   8.103   7.662   3.867 -2.0591  0.3136 -0.3376
  571MOL0     H78735   8.112   7.544   4.125  1.1705  3.3428  3.6280
  571MOL0     H78736   8.019   7.684   4.170  3.0477  2.2626  0.2247
  571MOL0     H78737   7.863   7.649   3.990  0.7049 -1.0398 -2.1327
  571MOL0     H78738   7.913   7.480   3.973  1.1910 -3.9312  3.4202
  571MOL0     H78739   7.816   7.599   4.241 -2.8171 -1.7122  0.1041
  571MOL0     H78740   7.893   7.444   4.228  2.3969  0.5682 -1.5043
  571MOL0     H78741   7.641   7.519   4.079  0.0735  1.9648  1.4791
  571MOL0     H78742   7.716   7.359   4.092 -2.2262  0.1467 -2.2741
  571MOL0     H78743   7.569   7.512   4.324  1.3485  0.9488 -0.3698
  571MOL0     H78744   7.679   7.368   4.339  1.0072 -1.4480 -1.2148
  571MOL0     H78745   7.515   7.259   4.172  0.9547  1.0479 -0.6914
  571MOL0     H78746   7.471   7.284   4.342 -0.3491 -2.1728 -1.0935
  571MOL0     H78747   7.226   7.418   4.375  0.3835 -0.4934  0.7039
  571MOL0     H78748   6.990   7.515   4.301 -0.7441 -0.6933  0.4618
  571MOL0     H78749   6.960   7.500   4.129  0.2319  0.5448 -0.1438
  571MOL0     H78750   6.936   7.741   4.212  0.2616  0.3472  4.9484
  571MOL0     H78751   7.097   7.734   4.274  0.9962 -3.4976  1.5399
  571MOL0     H78752   7.041   7.859   4.049  1.2669 -0.3384 -2.0507
  571MOL0     H78753   7.181   7.746   4.038 -0.2012  0.1701 -2.8096
  571MOL0     H78754   7.075   7.598   3.908 -0.5078  0.2251 -0.0885
  571MOL0     H78755   6.913   7.671   3.959 -0.3157 -0.6769 -1.4358
  571MOL0     H78756   7.057   7.949   3.654  0.2755  0.6558  2.4448
  571MOL0     H78757   7.212   7.984   3.359  0.6524  3.5591 -1.3761
  571MOL0     H78758   7.331   8.070   3.454 -0.0789  0.1643  0.2976
  571MOL0     H78759   7.158   8.082   3.494  2.2246  2.9006  0.3355
  571MOL0     H78760   7.765   7.875   3.422 -0.1198  1.0187 -0.0046
  571MOL0     H78761   7.935   7.850   3.233  0.0145  1.5674  0.7475
  571MOL0     H78762   8.072   7.532   2.987  0.4994  1.1770  1.6864
  571MOL0     H78763   7.934   7.459   3.070 -0.4515  0.4981 -0.4353
  571MOL0     H78764   7.783   7.562   2.875  1.3213  2.9254  1.6350
  571MOL0     H78765   7.925   7.621   2.805  0.4723 -1.8068 -2.1435
  571MOL0     H78766   7.843   7.338   2.879 -1.8036  1.5026 -1.0604
  571MOL0     H78767   8.008   7.375   2.803  1.9381  4.1861 -2.7274
  571MOL0     H78768   7.893   7.447   2.603 -1.5600  2.1434  0.5085
  571MOL0     H78769   7.729   7.416   2.671 -1.3752 -5.5214  2.0251
  571MOL0     H78770   7.815   7.181   2.723  0.0210 -1.3969 -0.8144
  571MOL0     H78771   7.748   7.218   2.570 -0.7967  3.8564 -2.4361
  571MOL0     H78772   7.962   7.082   2.538  2.5627  1.1288 -1.0113
  571MOL0     H78773   8.052   7.216   2.610  0.1998  1.3348  0.6569
  571MOL0     H78774   8.022   7.353   2.421  1.4412 -0.8748 -1.0026
  571MOL0     H78775   7.876   7.265   2.368 -0.3444 -0.3938 -2.5270
  571MOL0     H78776   8.083   7.203   2.226  2.2930  1.2418  0.3744
  571MOL0     H78777   8.016   7.066   2.303 -1.9286  1.6076 -2.3265
  571MOL0     H78778   7.706   7.527   3.075  0.2392  2.0462 -1.4745
  571MOL0     H78779   7.535   7.548   3.262 -2.4809  1.5395 -2.5321
  571MOL0     H78780   7.429   7.626   3.658 -0.3369 -0.3803 -0.2379
  571MOL0     H78781   7.242   7.603   3.807  0.6559  0.6502  1.2366
  571MOL0     H78782   8.484   7.801   4.145 -1.1978 -1.1519 -0.0642
  571MOL0     H78783   8.730   7.797   4.147 -0.7261  0.3658  0.4926
  571MOL0     H78784   9.097   7.669   3.957  2.3149  2.2813 -0.6021
  571MOL0     H78785   9.333   7.672   3.944 -0.3688 -0.1665  0.0160
  571MOL0     H78786   9.542   7.597   3.886  4.1989 -0.0441 -1.2445
  571MOL0     H78787   9.539   7.692   4.033  0.3461  1.0282 -2.3443
  571MOL0     H78788   9.769   7.629   3.918  0.8518  0.4292 -0.1537
  571MOL0     H78789   9.725   7.463   3.952 -0.9163 -0.1283 -0.1172
  571MOL0     H78790   9.791   7.648   4.182  0.5047  0.1849 -1.7670
  571MOL0     H78791   9.728   7.484   4.199 -1.6394  0.9624 -0.4479
  571MOL0     H78792   9.902   7.371   4.116  0.9491  0.5184 -0.4185
  571MOL0     H78793   9.978   7.489   4.226  0.9405 -1.0354 -0.3905
  571MOL0     H78794  10.145   7.606   3.851 -0.6390  1.9338 -0.1554
  571MOL0     H78795   9.347   7.353   4.233 -0.6190 -1.7901 -1.2095
  571MOL0     H78796   9.029   7.274   4.271 -0.7714  0.3398  0.5343
  571MOL0     H78797   9.173   7.312   4.371  1.7539  0.2380 -1.9583
  571MOL0     H78798   9.037   7.424   4.367  3.8871  1.8423  0.9883
  572MOL0     O78799   1.405   5.921   3.669  0.1470  1.0422  0.3264
  572MOL0     C78800   1.353   5.982   3.576  0.6553  0.7708 -0.0732
  572MOL0     O78801   1.421   6.033   3.468 -0.0368 -0.0049 -0.6261
  572MOL0     C78802   1.561   6.015   3.468  0.2804  0.1361 -0.9371
  572MOL0     C78803   1.642   6.128   3.467 -0.0339 -0.1993 -0.1213
  572MOL0     C78804   1.780   6.116   3.469 -0.4500 -0.6310  0.6091
  572MOL0     C78805   1.851   5.989   3.478  0.4366 -0.4771  0.0333
  572MOL0     O78806   1.983   5.974   3.486 -0.3425  0.0157 -0.8030
  572MOL0     C78807   2.036   5.913   3.362  0.2162  0.6004 -0.6203
  572MOL0     C78808   2.188   5.879   3.382  0.3824 -0.4276 -0.4375
  572MOL0     C78809   2.272   6.005   3.359 -0.1717  0.4181 -0.4820
  572MOL0     C78810   2.416   5.977   3.401 -0.2128  0.9680 -0.3915
  572MOL0     C78811   2.508   6.098   3.396 -0.0268 -0.4804  0.6616
  572MOL0     C78812   2.650   6.075   3.427 -0.0281  0.9524 -0.9417
  572MOL0     C78813   2.738   6.086   3.303 -0.3380 -0.5715  0.0710
  572MOL0     C78814   2.879   6.047   3.317  0.0832 -0.6578  0.3999
  572MOL0     N78815   2.970   6.148   3.385  0.1471  0.0283  0.1873
  572MOL0     C78816   2.951   6.284   3.387  0.9549  0.5445 -0.3138
  572MOL0     C78817   3.045   6.323   3.475  0.7462  0.3628 -0.1180
  572MOL0     C78818   3.069   6.468   3.497  0.3475 -0.5210 -0.8363
  572MOL0     C78819   3.133   6.510   3.629  0.3616 -0.3555  0.0088
  572MOL0     C78820   3.274   6.456   3.668  0.8420  0.5596 -0.2934
  572MOL0     C78821   3.323   6.510   3.809  0.6436 -0.2577 -0.3671
  572MOL0     O78822   3.376   6.646   3.796 -0.3976  0.6179  0.2268
  572MOL0     C78823   3.501   6.664   3.732  0.3149 -0.0445 -1.1924
  572MOL0     C78824   3.536   6.797   3.721  0.4169  0.1441 -0.1331
  572MOL0     C78825   3.652   6.833   3.644 -0.4829 -0.0814 -0.0425
  572MOL0     C78826   3.696   6.980   3.654  0.3599 -0.0386  0.8522
  572MOL0     C78827   3.737   6.734   3.590  0.5913  0.2696  0.6235
  572MOL0     C78828   3.868   6.764   3.528 -0.5977 -0.7488 -0.4023
  572MOL0     O78829   3.928   6.659   3.470  0.3336 -0.1814  0.7293
  572MOL0     C78830   4.056   6.672   3.431 -0.4193  0.2316  0.1042
  572MOL0     C78831   4.159   6.683   3.520 -0.6890  0.0434 -0.2862
  572MOL0     C78832   4.295   6.699   3.484  0.0008 -0.2733  0.0916
  572MOL0     C78833   4.329   6.712   3.348  1.2706  0.8267  0.5810
  572MOL0     O78834   4.451   6.735   3.307  0.5931  0.5828 -0.3532
  572MOL0     C78835   4.486   6.754   3.170  0.2703 -0.4173 -0.2446
  572MOL0     C78836   4.634   6.782   3.131 -0.1876  0.1852 -0.8991
  572MOL0     C78837   4.720   6.658   3.165 -0.7456  0.0297 -0.0705
  572MOL0     C78838   4.665   6.522   3.163  0.9154  0.2517  1.0172
  572MOL0     C78839   4.773   6.412   3.163  0.2255 -0.4266  0.4579
  572MOL0     C78840   4.821   6.389   3.304  0.2468 -0.3973  0.8558
  572MOL0     C78841   4.937   6.287   3.298 -0.0649 -0.0372  0.3481
  572MOL0     C78842   4.956   6.230   3.438 -0.0513 -0.3806  0.4811
  572MOL0    Cl78843   5.096   6.129   3.412  0.1984 -0.6036  0.0084
  572MOL0     C78844   4.217   6.712   3.257 -0.0022 -0.0585  0.4334
  572MOL0     C78845   4.086   6.690   3.296 -0.0824 -0.1499 -1.0368
  572MOL0     O78846   3.910   6.883   3.524 -0.1884  0.4529  0.1533
  572MOL0     C78847   3.690   6.601   3.607  0.1008 -0.4665 -0.4699
  572MOL0     C78848   3.580   6.565   3.680  0.5087 -0.2831 -0.2080
  572MOL0     N78849   3.105   6.210   3.527 -0.4647 -1.0072 -0.5961
  572MOL0     N78850   3.062   6.103   3.470 -1.4677  0.0944  0.5041
  572MOL0     C78851   1.767   5.876   3.490 -0.4169  0.6821 -0.9570
  572MOL0     C78852   1.627   5.887   3.483 -0.5803  0.2491 -0.5784
  572MOL0     C78853   1.205   5.978   3.572 -1.0623  0.0006  0.0249
  572MOL0     C78854   1.132   5.919   3.682 -0.7122  0.7181  0.0752
  572MOL0     C78855   0.998   5.897   3.684 -0.0935  0.0468  0.6341
  572MOL0     C78856   0.918   5.947   3.581  0.9695 -0.6156  0.1848
  572MOL0     O78857   0.788   5.922   3.569 -0.5725 -0.0508  0.2831
  572MOL0     C78858   0.732   5.884   3.441  0.7056 -0.0572  0.3081
  572MOL0     C78859   0.783   5.767   3.362  0.5067  0.6438 -0.0521
  572MOL0     C78860   0.793   5.638   3.439  0.4528  0.3386  0.0377
  572MOL0     C78861   0.661   5.595   3.511  0.5172 -0.4035 -0.1123
  572MOL0     C78862   0.558   5.553   3.419  0.4231 -0.3478  0.3038
  572MOL0     C78863   0.483   5.503   3.340 -0.0665 -0.6018  0.0035
  572MOL0     C78864   0.982   6.033   3.487 -0.2869 -0.1549  0.1742
  572MOL0     C78865   1.124   6.043   3.474 -0.7927 -0.7093 -0.2124
  572MOL0     C78866   1.176   6.118   3.360 -0.3786 -0.2734  0.0138
  572MOL0     H78867   1.600   6.228   3.463  1.9768  0.6683 -1.2045
  572MOL0     H78868   1.846   6.202   3.464  0.6988 -1.5097  0.0808
  572MOL0     H78869   2.027   5.978   3.275  0.0600  1.5236  0.0669
  572MOL0     H78870   1.982   5.820   3.341 -1.5253  1.5317 -0.4136
  572MOL0     H78871   2.213   5.831   3.477  2.5887 -2.4521 -1.9208
  572MOL0     H78872   2.208   5.807   3.302  1.5181  1.4704 -1.9554
  572MOL0     H78873   2.275   6.028   3.252 -0.8900 -2.3806 -1.1859
  572MOL0     H78874   2.236   6.099   3.403  0.1942  1.3133 -2.0029
  572MOL0     H78875   2.407   5.959   3.509 -0.4555  2.1075 -0.2107
  572MOL0     H78876   2.451   5.892   3.342  0.2954  2.0207 -1.6482
  572MOL0     H78877   2.473   6.181   3.458  3.4673  1.1947  0.6181
  572MOL0     H78878   2.499   6.139   3.295 -1.9692 -1.7301  0.2654
  572MOL0     H78879   2.677   6.149   3.503 -1.7066  2.6840 -1.9752
  572MOL0     H78880   2.671   5.975   3.468  1.8113  1.5940 -0.2006
  572MOL0     H78881   2.740   6.189   3.267 -1.7965 -0.1642  1.0266
  572MOL0     H78882   2.684   6.031   3.225  1.1569 -0.7973 -0.8365
  572MOL0     H78883   2.887   5.953   3.374  1.2309 -0.5669  0.4139
  572MOL0     H78884   2.917   6.026   3.216  2.6461  2.6700  0.4910
  572MOL0     H78885   2.879   6.353   3.343  2.2211  1.7791 -0.5142
  572MOL0     H78886   2.976   6.522   3.481  1.2735  1.4288  0.0490
  572MOL0     H78887   3.135   6.500   3.416  1.4500 -3.3127 -1.1625
  572MOL0     H78888   3.143   6.618   3.638  3.4852 -0.5801  0.5194
  572MOL0     H78889   3.054   6.486   3.701  0.1203  2.1654  0.6721
  572MOL0     H78890   3.269   6.348   3.686  1.9614  0.6722  0.8194
  572MOL0     H78891   3.351   6.464   3.592  2.1590  1.8343  1.1065
  572MOL0     H78892   3.240   6.515   3.880  0.3547 -0.2032 -0.7034
  572MOL0     H78893   3.396   6.439   3.848  1.6178  1.1465  0.4846
  572MOL0     H78894   3.478   6.879   3.760  2.3689  1.4562  0.1599
  572MOL0     H78895   3.766   6.978   3.737  1.0279 -2.0908  0.2926
  572MOL0     H78896   3.609   7.035   3.691 -0.1796 -1.0806  1.1627
  572MOL0     H78897   3.731   7.022   3.559 -2.7414 -2.5982 -1.6545
  572MOL0     H78898   4.135   6.684   3.626  4.3757  4.1965  1.2520
  572MOL0     H78899   4.379   6.706   3.553  1.5272 -0.2720 -1.6742
  572MOL0     H78900   4.462   6.669   3.106  1.6301  0.2633 -1.7149
  572MOL0     H78901   4.425   6.837   3.137 -1.0562 -1.1697  0.2390
  572MOL0     H78902   4.638   6.795   3.022  0.1943  0.5298 -0.8471
  572MOL0     H78903   4.669   6.870   3.185 -0.4219 -1.1202  1.5525
  572MOL0     H78904   4.747   6.671   3.270 -1.2999  0.1326  0.0638
  572MOL0     H78905   4.816   6.670   3.114 -1.0236  2.2696 -0.1642
  572MOL0     H78906   4.616   6.521   3.065  0.4502 -0.3178  1.2525
  572MOL0     H78907   4.592   6.506   3.243 -2.8999 -3.9025 -2.6709
  572MOL0     H78908   4.729   6.323   3.119 -0.0436  0.3226 -0.8367
  572MOL0     H78909   4.855   6.456   3.105  0.7040 -0.0385  1.3921
  572MOL0     H78910   4.735   6.356   3.363  0.6386 -0.0684  1.6297
  572MOL0     H78911   4.862   6.483   3.343  0.4902 -0.8515  1.7172
  572MOL0     H78912   5.033   6.332   3.272  1.0258 -1.5651  1.5834
  572MOL0     H78913   4.924   6.204   3.228 -0.9030 -1.1140  1.7390
  572MOL0     H78914   4.872   6.164   3.462 -0.3067  0.8018  3.2742
  572MOL0     H78915   4.970   6.306   3.516 -0.0832  0.2643 -0.1337
  572MOL0     H78916   4.236   6.714   3.151 -0.5028  0.9582  0.3505
  572MOL0     H78917   4.001   6.680   3.228  0.4526  0.8171 -1.8700
  572MOL0     H78918   3.765   6.527   3.580 -0.2940 -0.8518 -0.5209
  572MOL0     H78919   3.550   6.461   3.684  0.1047 -0.1409  1.7603
  572MOL0     H78920   1.813   5.781   3.513  1.3564  1.5433 -0.8112
  572MOL0     H78921   1.572   5.793   3.489 -0.2820  0.0882 -0.3786
  572MOL0     H78922   1.192   5.889   3.768 -0.4863  4.3431  1.3619
  572MOL0     H78923   0.953   5.835   3.761  1.5792 -1.1669  0.6985
  572MOL0     H78924   0.628   5.872   3.470 -0.2679  1.1660 -2.2699
  572MOL0     H78925   0.717   5.966   3.370 -3.6462 -1.0049 -0.1047
  572MOL0     H78926   0.883   5.796   3.330  0.9956 -1.2372 -0.3148
  572MOL0     H78927   0.730   5.745   3.269 -0.6655 -0.4935  0.8376
  572MOL0     H78928   0.836   5.554   3.384 -0.2984 -0.2327  0.3018
  572MOL0     H78929   0.872   5.659   3.512  0.9165 -0.6379 -0.1712
  572MOL0     H78930   0.622   5.678   3.571 -1.9363 -0.3933 -1.5966
  572MOL0     H78931   0.687   5.508   3.572 -0.2497  0.2219  1.1561
  572MOL0     H78932   0.421   5.474   3.257  1.0408  0.4157 -1.2335
  572MOL0     H78933   0.921   6.098   3.425 -2.7291 -0.7066  1.8654
  572MOL0     H78934   1.105   6.179   3.305  1.1566  3.5672  1.8586
  572MOL0     H78935   1.242   6.198   3.395 -0.1663 -0.6355  0.4611
  572MOL0     H78936   1.221   6.043   3.295 -0.9144 -1.2883  0.7738
  573MOL0     O78937   6.505   3.803   8.810 -0.0009 -0.1109  0.3723
  573MOL0     C78938   6.578   3.723   8.756  1.2543 -0.8433 -0.3407
  573MOL0     O78939   6.681   3.758   8.664  0.1720  0.3669  0.1372
  573MOL0     C78940   6.719   3.891   8.653  0.7671 -0.5055 -1.2230
  573MOL0     C78941   6.843   3.944   8.705  0.1741  0.3736  0.1533
  573MOL0     C78942   6.875   4.084   8.692 -0.8043 -0.1395 -0.1678
  573MOL0     C78943   6.785   4.177   8.632 -0.9588  0.6809  0.3212
  573MOL0     O78944   6.822   4.309   8.636 -0.0587 -0.0697 -0.4253
  573MOL0     C78945   6.719   4.410   8.663  0.0866  1.3824 -0.5509
  573MOL0     C78946   6.765   4.530   8.584 -0.5512 -0.5626 -0.2728
  573MOL0     C78947   6.667   4.644   8.595  0.4671 -0.8481 -0.5016
  573MOL0     C78948   6.704   4.771   8.517 -0.2742  0.1416  0.1925
  573MOL0     C78949   6.616   4.894   8.565 -0.6956  1.1556 -0.2016
  573MOL0     C78950   6.636   5.018   8.478 -1.0921  0.2981  0.0608
  573MOL0     C78951   6.525   5.129   8.491  0.2314 -0.4028  0.0445
  573MOL0     C78952   6.533   5.202   8.628  0.4289 -0.1082  0.1893
  573MOL0     N78953   6.664   5.281   8.635  0.2727 -0.3376 -0.7448
  573MOL0     C78954   6.743   5.295   8.744 -0.2658 -0.5530  0.4362
  573MOL0     C78955   6.853   5.362   8.701 -0.2453 -0.8118 -0.2915
  573MOL0     C78956   6.967   5.388   8.788  0.0155  0.7183  0.1297
  573MOL0     C78957   7.092   5.375   8.709  0.2285 -0.2465  0.7407
  573MOL0     C78958   7.209   5.462   8.763  0.6515 -0.2503 -0.1317
  573MOL0     C78959   7.266   5.420   8.902 -0.0115 -0.0971  0.0669
  573MOL0     O78960   7.397   5.479   8.897  0.2147 -0.0366  0.3596
  573MOL0     C78961   7.490   5.449   8.983 -0.2342  0.8541  0.8039
  573MOL0     C78962   7.473   5.354   9.084 -0.7792  0.8410 -0.0677
  573MOL0     C78963   7.584   5.314   9.167  0.9291  0.1166 -0.3436
  573MOL0     C78964   7.557   5.219   9.275 -0.5881 -0.3606  0.6877
  573MOL0     C78965   7.709   5.383   9.149  0.4365  0.3603  1.0841
  573MOL0     C78966   7.835   5.340   9.217 -0.7935  0.4946 -0.1999
  573MOL0     O78967   7.930   5.438   9.248 -0.2705 -0.0782  0.4344
  573MOL0     C78968   8.028   5.417   9.335 -1.1177  0.1057  0.3285
  573MOL0     C78969   7.999   5.370   9.466  0.4982 -0.3352  0.6340
  573MOL0     C78970   8.095   5.331   9.552 -0.8182  0.4808  0.2851
  573MOL0     C78971   8.232   5.338   9.521 -0.2045  0.1865 -1.1038
  573MOL0     O78972   8.340   5.293   9.599  0.3107 -0.1336  0.0206
  573MOL0     C78973   8.298   5.185   9.685  0.0575  0.7380  0.4130
  573MOL0     C78974   8.423   5.144   9.774 -0.0378 -0.4827 -0.3866
  573MOL0     C78975   8.391   5.023   9.856 -0.6891 -1.5827 -0.6184
  573MOL0     C78976   8.510   4.947   9.928  0.1963 -0.1415  0.1777
  573MOL0     C78977   8.611   5.042   9.964 -0.6723 -0.0203 -0.3054
  573MOL0     C78978   8.708   4.987  10.075  0.7157  0.2589  0.0943
  573MOL0     C78979   8.844   5.053  10.071 -0.7662  1.1142  0.0822
  573MOL0     C78980   8.935   4.969  10.170  1.0614  0.0659  0.3992
  573MOL0    Cl78981   9.100   5.032  10.196 -0.0978  0.0775 -0.0604
  573MOL0     C78982   8.268   5.389   9.397  0.0275 -0.7480  0.5585
  573MOL0     C78983   8.169   5.431   9.306  0.4511 -0.3165  0.4775
  573MOL0     O78984   7.846   5.221   9.243 -0.8223  0.3332 -0.2194
  573MOL0     C78985   7.713   5.480   9.052 -0.8186  1.2046  0.2326
  573MOL0     C78986   7.612   5.504   8.959 -0.5994 -0.2021 -0.6128
  573MOL0     N78987   6.831   5.401   8.575  0.6059  0.0150  0.0477
  573MOL0     N78988   6.724   5.348   8.535 -0.5367  0.1075  0.4592
  573MOL0     C78989   6.661   4.117   8.589 -1.2674  0.2021  0.1423
  573MOL0     C78990   6.626   3.979   8.598  0.4264 -1.0198  0.4286
  573MOL0     C78991   6.553   3.578   8.773  0.4251 -0.2828 -0.3793
  573MOL0     C78992   6.602   3.494   8.675 -0.3005  0.4968  0.2552
  573MOL0     C78993   6.578   3.358   8.687  0.0959 -0.1083 -0.1267
  573MOL0     C78994   6.514   3.300   8.792 -1.0093 -0.4505 -0.2331
  573MOL0     O78995   6.519   3.163   8.798 -0.3916  0.3342 -0.2687
  573MOL0     C78996   6.472   3.087   8.911  0.1076 -0.0931 -0.2834
  573MOL0     C78997   6.507   2.944   8.883 -0.7570  0.0665  0.4573
  573MOL0     C78998   6.421   2.896   8.778  0.4046 -0.1052  0.2960
  573MOL0     C78999   6.478   2.764   8.716 -0.6667  0.9764  0.7381
  573MOL0     C79000   6.395   2.704   8.613  0.2620  0.1013  0.4427
  573MOL0     C79001   6.319   2.664   8.527 -0.9081  0.5422 -0.0168
  573MOL0     C79002   6.450   3.387   8.885 -0.3027 -0.4467 -0.7390
  573MOL0     C79003   6.473   3.528   8.883  0.2877  0.9374  0.9600
  573MOL0     C79004   6.426   3.614   8.994  0.0461 -0.3083  0.3690
  573MOL0     H79005   6.914   3.878   8.755 -0.9139 -1.6061 -0.7989
  573MOL0     H79006   6.970   4.120   8.731 -0.1980  0.1205 -1.7904
  573MOL0     H79007   6.710   4.439   8.768  3.3238 -0.3379  0.3305
  573MOL0     H79008   6.620   4.377   8.631  1.4024 -2.6409 -0.9783
  573MOL0     H79009   6.864   4.564   8.615 -1.5251  2.2896  0.0048
  573MOL0     H79010   6.769   4.505   8.478  0.5924 -0.4684 -0.2652
  573MOL0     H79011   6.570   4.606   8.562  0.0995 -0.0489 -0.3612
  573MOL0     H79012   6.650   4.668   8.701  1.0399 -1.5645 -0.2357
  573MOL0     H79013   6.810   4.790   8.535 -0.1161 -2.1730  2.2940
  573MOL0     H79014   6.690   4.737   8.414 -0.4872 -4.2931  1.4705
  573MOL0     H79015   6.631   4.917   8.671 -0.8831 -0.3819  0.1818
  573MOL0     H79016   6.508   4.878   8.562 -0.8135  1.2984  1.7486
  573MOL0     H79017   6.732   5.068   8.492 -1.8936  2.0380 -0.4348
  573MOL0     H79018   6.642   4.983   8.375  0.3101 -2.9877  1.1041
  573MOL0     H79019   6.429   5.076   8.490 -0.1619  0.2456  1.0910
  573MOL0     H79020   6.532   5.200   8.408  2.2092  0.2391  0.6927
  573MOL0     H79021   6.447   5.268   8.641  0.6754  0.1973  0.2977
  573MOL0     H79022   6.529   5.130   8.710  1.8773 -1.6405 -1.0235
  573MOL0     H79023   6.726   5.257   8.844 -1.2103 -1.5379 -0.0821
  573MOL0     H79024   6.971   5.322   8.875  1.0302  0.2312 -0.2718
  573MOL0     H79025   6.960   5.494   8.816 -0.7066  0.5282  0.7002
  573MOL0     H79026   7.123   5.270   8.698  1.1868  0.0014  0.9458
  573MOL0     H79027   7.087   5.424   8.612  0.6685 -0.1854  0.7436
  573MOL0     H79028   7.280   5.455   8.680 -0.8372  1.8612 -1.6991
  573MOL0     H79029   7.196   5.571   8.767  0.3383 -0.1121 -2.9433
  573MOL0     H79030   7.207   5.468   8.981 -0.7002  1.1155 -1.1278
  573MOL0     H79031   7.265   5.314   8.929 -0.5919  1.0547  5.7590
  573MOL0     H79032   7.379   5.309   9.114 -1.9320  1.9072 -1.9293
  573MOL0     H79033   7.590   5.120   9.243  2.5842  0.5822  0.7010
  573MOL0     H79034   7.450   5.217   9.296 -0.1051 -2.0567  3.6567
  573MOL0     H79035   7.607   5.243   9.369 -1.6188 -1.1969  1.4751
  573MOL0     H79036   7.892   5.370   9.486  0.5936 -0.3091  1.1470
  573MOL0     H79037   8.055   5.291   9.645  0.4748 -2.0039 -0.1344
  573MOL0     H79038   8.216   5.209   9.753 -1.3077 -2.6425  0.1124
  573MOL0     H79039   8.274   5.100   9.621  0.1607 -0.7436  2.2830
  573MOL0     H79040   8.512   5.123   9.713  0.9022 -1.9278  1.3638
  573MOL0     H79041   8.456   5.232   9.829 -0.9495 -0.3235 -0.0728
  573MOL0     H79042   8.332   4.963   9.786 -4.8849  0.6101  0.7112
  573MOL0     H79043   8.313   5.058   9.923  1.9426  0.5139  1.5913
  573MOL0     H79044   8.560   4.885   9.852 -0.1136 -0.2429  0.0580
  573MOL0     H79045   8.480   4.882  10.011  0.8006  2.5936  2.6775
  573MOL0     H79046   8.676   5.073   9.881  0.4043 -0.1566  0.4641
  573MOL0     H79047   8.558   5.127  10.008 -0.1780  0.3848 -0.4855
  573MOL0     H79048   8.721   4.879  10.062 -1.9378 -0.0214 -0.7912
  573MOL0     H79049   8.660   5.008  10.171 -2.2423  0.7218 -1.3780
  573MOL0     H79050   8.852   5.156  10.104 -1.6482  0.6566  1.8429
  573MOL0     H79051   8.876   5.058   9.966  0.3283  3.0494  0.4681
  573MOL0     H79052   8.947   4.865  10.136  0.8421 -0.1831  1.0760
  573MOL0     H79053   8.882   4.967  10.265  0.2175 -2.0929 -0.0549
  573MOL0     H79054   8.374   5.395   9.372 -0.7281 -0.0018 -3.1545
  573MOL0     H79055   8.195   5.455   9.204 -0.3273  2.6772  0.8642
  573MOL0     H79056   7.813   5.519   9.035 -0.3685 -0.3198 -0.8961
  573MOL0     H79057   7.623   5.576   8.878  0.5156 -0.3610 -0.6156
  573MOL0     H79058   6.589   4.187   8.548 -1.6918 -1.8037 -2.8551
  573MOL0     H79059   6.528   3.953   8.560  0.8709 -0.6122 -1.0602
  573MOL0     H79060   6.659   3.530   8.589  1.0448 -0.4200  0.7275
  573MOL0     H79061   6.621   3.285   8.619  1.5581  0.7728 -0.2068
  573MOL0     H79062   6.526   3.111   9.003  0.9358  0.4216 -0.8853
  573MOL0     H79063   6.365   3.094   8.933  0.4975 -1.3512  2.3280
  573MOL0     H79064   6.483   2.875   8.965  0.6379  0.7007  1.4504
  573MOL0     H79065   6.615   2.936   8.868 -0.7913 -1.1424  0.8133
  573MOL0     H79066   6.316   2.885   8.806  0.9397 -0.5818  2.3086
  573MOL0     H79067   6.424   2.967   8.695 -0.1446 -1.5998 -1.0564
  573MOL0     H79068   6.493   2.698   8.802  2.2671 -0.0128 -0.4057
  573MOL0     H79069   6.578   2.783   8.675 -1.2401  2.5869  0.0024
  573MOL0     H79070   6.249   2.627   8.455 -0.7319 -0.9569  0.5564
  573MOL0     H79071   6.403   3.349   8.975  0.1959  0.1605 -0.2109
  573MOL0     H79072   6.354   3.691   8.965  2.1848  1.6785  0.0143
  573MOL0     H79073   6.357   3.558   9.057 -0.1165 -0.9046 -0.3229
  573MOL0     H79074   6.505   3.666   9.050 -0.8753  0.7324  0.7441
  574MOL0     O79075   6.661   7.415   2.141  0.0878  0.5862 -0.1061
  574MOL0     C79076   6.685   7.488   2.241 -0.3035 -0.0397 -0.7441
  574MOL0     O79077   6.590   7.566   2.290  0.5587  0.5658 -0.3273
  574MOL0     C79078   6.474   7.574   2.224 -0.0164  0.0745  0.4742
  574MOL0     C79079   6.470   7.654   2.105  0.6974  0.0051  0.2756
  574MOL0     C79080   6.347   7.672   2.041 -0.1604  0.4350  0.4761
  574MOL0     C79081   6.226   7.611   2.078  0.5586  0.4315  0.3963
  574MOL0     O79082   6.096   7.637   2.020  0.6002  0.2626  0.4044
  574MOL0     C79083   6.079   7.737   1.918  0.7460 -0.1717 -0.2086
  574MOL0     C79084   5.930   7.738   1.876 -0.5053  0.3342  0.3117
  574MOL0     C79085   5.904   7.845   1.781 -0.1491 -0.1003 -0.1887
  574MOL0     C79086   5.761   7.880   1.752  0.2488  0.6521 -0.5676
  574MOL0     C79087   5.740   7.985   1.635  0.5392 -0.4280  0.3504
  574MOL0     C79088   5.593   8.017   1.602 -0.3453 -0.0555 -0.0848
  574MOL0     C79089   5.579   8.105   1.464 -0.0369 -0.1199 -0.4581
  574MOL0     C79090   5.482   8.215   1.486  0.8491 -0.6155 -0.5760
  574MOL0     N79091   5.516   8.315   1.583  0.5059  0.0266 -0.1446
  574MOL0     C79092   5.624   8.402   1.575  0.7370  0.3084 -0.1862
  574MOL0     C79093   5.640   8.458   1.696 -0.0089  0.9483 -0.4746
  574MOL0     C79094   5.740   8.552   1.752 -0.5219  0.1217 -0.1639
  574MOL0     C79095   5.884   8.518   1.722  0.4689  0.1824 -0.5822
  574MOL0     C79096   5.928   8.375   1.763 -0.3924  0.6014 -0.3386
  574MOL0     C79097   6.074   8.368   1.767  0.1498  0.0621  0.3232
  574MOL0     O79098   6.101   8.229   1.810 -0.0833  0.3916  0.8348
  574MOL0     C79099   6.221   8.202   1.870  0.7718  0.8724 -0.1950
  574MOL0     C79100   6.339   8.273   1.846 -0.4018  0.4619  1.1369
  574MOL0     C79101   6.455   8.243   1.913 -0.1274  1.1122 -0.4931
  574MOL0     C79102   6.578   8.318   1.886 -0.2753 -0.9616  0.1132
  574MOL0     C79103   6.457   8.127   1.999 -0.7072  0.3359  0.2274
  574MOL0     C79104   6.591   8.085   2.057  1.3340 -0.8168 -0.6223
  574MOL0     O79105   6.612   8.114   2.188  0.2542  0.1121 -0.7291
  574MOL0     C79106   6.732   8.091   2.252 -0.3254 -0.8603 -0.4541
  574MOL0     C79107   6.797   7.972   2.262  0.0653 -0.2123 -0.0410
  574MOL0     C79108   6.900   7.951   2.350  0.0158  0.0893  0.1559
  574MOL0     C79109   6.950   8.050   2.441  0.3860 -0.2158 -0.9559
  574MOL0     O79110   7.052   8.020   2.534  0.2103  0.5356  0.4094
  574MOL0     C79111   7.129   8.132   2.576  0.9125 -0.0468 -0.0017
  574MOL0     C79112   7.239   8.062   2.652  0.7307 -0.0135 -0.4589
  574MOL0     C79113   7.371   8.143   2.652  0.2176  0.5118 -0.0062
  574MOL0     C79114   7.380   8.231   2.771 -0.4992  0.4448 -0.3873
  574MOL0     C79115   7.405   8.152   2.899  0.9588  0.9322  0.2540
  574MOL0     C79116   7.337   8.233   3.018 -0.3044  1.0358  0.3569
  574MOL0     C79117   7.373   8.172   3.160  0.7064  0.1672  0.6495
  574MOL0     C79118   7.507   8.211   3.214  0.4409 -0.0166  0.4626
  574MOL0    Cl79119   7.498   8.380   3.268  0.1254 -0.1237 -0.0017
  574MOL0     C79120   6.886   8.176   2.426  0.1536 -0.5685 -0.2096
  574MOL0     C79121   6.778   8.194   2.338 -0.6097  0.1606 -0.0631
  574MOL0     O79122   6.665   8.023   1.984  0.3464  0.4378 -0.4894
  574MOL0     C79123   6.343   8.052   2.026  0.0665 -0.1260  0.2642
  574MOL0     C79124   6.223   8.093   1.958  0.4420  0.6136 -0.3582
  574MOL0     N79125   5.535   8.412   1.773  0.9723  0.7087  0.2335
  574MOL0     N79126   5.462   8.326   1.705 -0.0831  0.5687  0.3855
  574MOL0     C79127   6.234   7.520   2.186 -0.0682 -0.5558 -0.5306
  574MOL0     C79128   6.357   7.496   2.258 -0.3772 -0.9277  0.5591
  574MOL0     C79129   6.810   7.475   2.321 -0.9647 -0.3898 -0.3411
  574MOL0     C79130   6.865   7.592   2.367  0.0296  0.3361  0.7470
  574MOL0     C79131   6.964   7.590   2.460  0.3748  0.5436 -0.2425
  574MOL0     C79132   7.031   7.468   2.492  0.0344 -0.2435 -0.8144
  574MOL0     O79133   7.133   7.472   2.587  0.9198 -0.2244 -0.4512
  574MOL0     C79134   7.112   7.418   2.717 -0.1251  0.2292 -0.4762
  574MOL0     C79135   7.246   7.369   2.774 -0.0966 -0.0639  0.1006
  574MOL0     C79136   7.311   7.261   2.687  0.1279 -0.0772 -0.3509
  574MOL0     C79137   7.465   7.263   2.711 -0.1263  0.0587  0.5614
  574MOL0     C79138   7.510   7.222   2.841 -0.8058  0.0902  0.1289
  574MOL0     C79139   7.546   7.175   2.948  0.3232  0.2311  0.0536
  574MOL0     C79140   7.004   7.350   2.420 -0.0201 -0.5945  0.3242
  574MOL0     C79141   6.889   7.352   2.333  1.0661 -0.4746 -0.5483
  574MOL0     C79142   6.857   7.229   2.251 -0.1926 -0.2023  0.0994
  574MOL0     H79143   6.555   7.709   2.066 -0.9297  3.5555  1.3194
  574MOL0     H79144   6.334   7.740   1.958 -2.0749  1.8422  1.8482
  574MOL0     H79145   6.153   7.714   1.840  1.4004 -2.0862  0.9017
  574MOL0     H79146   6.118   7.823   1.973 -0.0340 -1.0189  1.7283
  574MOL0     H79147   5.905   7.640   1.835 -0.1698  0.7472 -0.9141
  574MOL0     H79148   5.867   7.764   1.962 -1.8600  2.1291 -1.1509
  574MOL0     H79149   5.955   7.932   1.823 -0.4946  1.4328 -2.7333
  574MOL0     H79150   5.954   7.810   1.690 -2.9415 -1.8760 -1.1738
  574MOL0     H79151   5.715   7.788   1.717  4.0974 -1.0864 -1.6180
  574MOL0     H79152   5.700   7.910   1.838 -2.7854 -2.8472 -1.2809
  574MOL0     H79153   5.772   7.944   1.538 -2.5071  3.6158 -2.6962
  574MOL0     H79154   5.798   8.071   1.670  2.0289 -1.1839 -0.1243
  574MOL0     H79155   5.538   7.924   1.590  1.0489 -0.8347 -0.6536
  574MOL0     H79156   5.552   8.070   1.688 -0.1880  1.7382 -1.0601
  574MOL0     H79157   5.549   8.055   1.372 -1.6402 -0.1703  0.0585
  574MOL0     H79158   5.675   8.153   1.440  0.6632 -1.0921  0.2773
  574MOL0     H79159   5.479   8.255   1.384 -1.6495 -1.5607 -0.9408
  574MOL0     H79160   5.385   8.165   1.497  0.4525  0.0290 -1.0881
  574MOL0     H79161   5.686   8.411   1.487  1.0708 -2.4249 -0.3036
  574MOL0     H79162   5.728   8.560   1.860  1.3634  2.4730 -0.0554
  574MOL0     H79163   5.722   8.656   1.721  0.8191  1.1030  2.1298
  574MOL0     H79164   5.895   8.521   1.613  0.9608  0.0666 -0.5378
  574MOL0     H79165   5.950   8.581   1.782  0.8543  0.7155 -1.5385
  574MOL0     H79166   5.884   8.345   1.859 -6.2572 -2.7287 -3.5309
  574MOL0     H79167   5.900   8.300   1.689 -1.3316 -1.9384  2.3905
  574MOL0     H79168   6.132   8.389   1.677  0.4000 -1.1832  0.1657
  574MOL0     H79169   6.112   8.443   1.837  0.4282 -1.5198  1.9388
  574MOL0     H79170   6.324   8.353   1.774 -3.4636 -1.1962 -0.2874
  574MOL0     H79171   6.645   8.322   1.972 -2.2949 -0.7360  1.7592
  574MOL0     H79172   6.560   8.421   1.852 -0.2562 -1.1236 -0.3887
  574MOL0     H79173   6.626   8.266   1.803  0.3768  0.4524 -0.4319
  574MOL0     H79174   6.769   7.880   2.211  2.3662 -0.4779 -0.9264
  574MOL0     H79175   6.943   7.852   2.356  2.1034  0.9446 -0.0815
  574MOL0     H79176   7.162   8.184   2.486 -0.1830 -0.9711 -0.9736
  574MOL0     H79177   7.077   8.201   2.643  0.1182 -0.6768  0.0387
  574MOL0     H79178   7.198   8.045   2.752 -1.7824  0.2052 -1.3911
  574MOL0     H79179   7.251   7.964   2.606 -3.6974  0.1727 -2.5050
  574MOL0     H79180   7.370   8.210   2.566 -1.0625  1.7842  0.9618
  574MOL0     H79181   7.463   8.084   2.650 -0.1268 -0.1694  2.1650
  574MOL0     H79182   7.281   8.277   2.781 -0.5867  0.3079 -0.5946
  574MOL0     H79183   7.460   8.303   2.756  0.1408 -0.3006 -0.6089
  574MOL0     H79184   7.366   8.049   2.903  0.2404  1.1121 -1.4440
  574MOL0     H79185   7.512   8.142   2.919  1.0356 -0.7652 -0.7335
  574MOL0     H79186   7.229   8.234   3.003 -0.2703  2.9796 -0.0301
  574MOL0     H79187   7.357   8.340   3.007 -0.6782  1.0150 -0.7141
  574MOL0     H79188   7.376   8.063   3.153  1.1231  0.2749 -3.7306
  574MOL0     H79189   7.304   8.201   3.240 -1.6252  1.8755 -1.8094
  574MOL0     H79190   7.585   8.203   3.139  0.5434 -1.0915  0.6741
  574MOL0     H79191   7.534   8.155   3.304 -0.1259  2.3979  2.2407
  574MOL0     H79192   6.885   8.250   2.505 -2.2391 -1.0776  0.3071
  574MOL0     H79193   6.718   8.285   2.336 -1.6136 -0.2976  2.9048
  574MOL0     H79194   6.347   7.972   2.099 -0.6240  1.4084  2.0680
  574MOL0     H79195   6.129   8.044   1.982  0.8547 -0.1044 -0.1697
  574MOL0     H79196   6.149   7.478   2.238 -0.4763 -0.0046 -0.7429
  574MOL0     H79197   6.345   7.422   2.336  1.1972  0.0584  1.7914
  574MOL0     H79198   6.818   7.686   2.342  0.0310 -0.1327 -1.1890
  574MOL0     H79199   6.990   7.687   2.501 -0.2879  0.2956  0.8154
  574MOL0     H79200   7.061   7.484   2.788 -0.3311 -1.0451  0.6016
  574MOL0     H79201   7.053   7.328   2.697  0.7339 -1.1189  2.4617
  574MOL0     H79202   7.230   7.333   2.877 -1.8037  2.2832  0.7553
  574MOL0     H79203   7.301   7.463   2.787 -3.3597  2.3020 -1.6810
  574MOL0     H79204   7.276   7.158   2.697  0.2227 -0.1897 -1.0902
  574MOL0     H79205   7.293   7.293   2.584 -0.7545  0.5404 -0.0176
  574MOL0     H79206   7.513   7.355   2.677  1.0493 -1.2112 -1.4904
  574MOL0     H79207   7.512   7.187   2.647 -0.0720 -1.8925  2.7766
  574MOL0     H79208   7.576   7.148   3.047 -0.3482  0.7313  0.4052
  574MOL0     H79209   7.067   7.261   2.423 -1.6679 -1.7826  1.1275
  574MOL0     H79210   6.748   7.216   2.250  0.0467 -2.6337 -0.8699
  574MOL0     H79211   6.894   7.235   2.148 -0.7603 -1.5946 -0.2144
  574MOL0     H79212   6.899   7.140   2.300 -1.7401 -1.1121 -0.1570
  575MOL0     O79213  11.219   2.594   3.151 -0.9623 -0.1438 -0.6501
  575MOL0     C79214  11.283   2.643   3.245 -0.2167  0.3792  0.5198
  575MOL0     O79215  11.264   2.768   3.292 -0.3452 -0.3067 -0.5130
  575MOL0     C79216  11.206   2.862   3.214  0.6287  0.5387 -0.9316
  575MOL0     C79217  11.261   2.989   3.237 -1.5605 -0.2770  0.3644
  575MOL0     C79218  11.205   3.098   3.168  0.0874  0.9612 -0.4417
  575MOL0     C79219  11.080   3.084   3.094 -0.4827 -0.4105 -0.6060
  575MOL0     O79220  11.003   3.182   3.037  0.9181 -0.2921  0.2533
  575MOL0     C79221  11.031   3.321   3.048  0.0777  0.3542  0.3469
  575MOL0     C79222  11.091   3.380   2.911  0.1229 -0.0588 -0.2694
  575MOL0     C79223  11.232   3.345   2.876  0.2224  0.4774  0.1368
  575MOL0     C79224  11.252   3.346   2.720  0.5212  0.1138 -0.4846
  575MOL0     C79225  11.399   3.330   2.698 -0.6112  0.6598 -1.0091
  575MOL0     C79226  11.434   3.321   2.555  0.4392 -0.5560 -0.3977
  575MOL0     C79227  11.585   3.282   2.561 -0.9123 -0.2342 -0.1497
  575MOL0     C79228  11.643   3.281   2.420 -0.2700 -0.4264  0.4333
  575MOL0     N79229  11.785   3.256   2.435 -0.4783 -0.3674 -0.1287
  575MOL0     C79230  11.850   3.154   2.499  0.3345 -0.2047 -0.1779
  575MOL0     C79231  11.987   3.181   2.470 -0.1571  0.7394  0.8257
  575MOL0     C79232  12.101   3.083   2.491 -0.0184 -0.0258 -0.3953
  575MOL0     C79233  12.127   3.072   2.645  0.0656  0.4585 -0.4129
  575MOL0     C79234  12.259   2.993   2.656  0.3469 -0.0944 -0.5123
  575MOL0     C79235  12.295   2.970   2.803 -0.3671  0.6142 -0.5953
  575MOL0     O79236  12.350   3.086   2.865  0.3453 -0.4218  0.4666
  575MOL0     C79237  12.485   3.113   2.854  0.1713 -0.0620 -0.0122
  575MOL0     C79238  12.523   3.198   2.948 -0.3213 -0.9408 -0.0182
  575MOL0     C79239  12.650   3.235   2.967 -0.4109 -0.7762  0.2844
  575MOL0     C79240  12.682   3.328   3.080  0.1147  0.0646 -0.2623
  575MOL0     C79241  12.757   3.169   2.887 -0.8405  0.3315 -0.5080
  575MOL0     C79242  12.905   3.203   2.904 -0.7175  0.6398  0.7787
  575MOL0     O79243  12.989   3.139   2.809  0.4371 -0.8571  0.7113
  575MOL0     C79244  13.116   3.106   2.850 -0.4335  0.5938 -0.2588
  575MOL0     C79245  13.146   2.973   2.850 -0.0927  1.0997  0.2907
  575MOL0     C79246  13.274   2.924   2.864 -0.1795  0.1223  0.1343
  575MOL0     C79247  13.375   3.007   2.901  0.1447 -0.9673  0.2963
  575MOL0     O79248  13.509   2.982   2.920 -0.0572 -0.7496  0.6142
  575MOL0     C79249  13.532   2.845   2.934 -0.7022  0.2572 -1.0247
  575MOL0     C79250  13.674   2.812   2.950 -0.3013 -0.4659  0.0693
  575MOL0     C79251  13.757   2.855   2.825 -0.1592  0.5095 -0.2693
  575MOL0     C79252  13.886   2.921   2.877  1.0222 -0.8971  0.0861
  575MOL0     C79253  13.981   2.949   2.758  0.2943 -0.0989  0.4676
  575MOL0     C79254  13.948   3.080   2.681 -0.1067  0.3918  0.4635
  575MOL0     C79255  14.057   3.110   2.579  0.3693 -0.3744 -0.0275
  575MOL0     C79256  14.038   3.249   2.506  1.0235 -1.3404 -0.1955
  575MOL0    Cl79257  14.061   3.392   2.622 -0.3309 -0.3052  0.0083
  575MOL0     C79258  13.341   3.152   2.912  0.0784 -0.3422 -0.8790
  575MOL0     C79259  13.212   3.203   2.872  0.3045  0.0172 -0.6914
  575MOL0     O79260  12.949   3.255   3.007 -0.6542 -0.4508 -0.5414
  575MOL0     C79261  12.716   3.071   2.793  0.0785  1.0112  0.6397
  575MOL0     C79262  12.581   3.052   2.772  0.3435  0.0350  0.5545
  575MOL0     N79263  11.996   3.293   2.394 -1.0746 -0.9841 -0.3012
  575MOL0     N79264  11.875   3.349   2.391 -0.0075  0.1623 -0.8466
  575MOL0     C79265  11.012   2.964   3.100 -0.1502 -0.8439  0.0206
  575MOL0     C79266  11.071   2.852   3.157  0.2022 -0.0431  0.0856
  575MOL0     C79267  11.380   2.562   3.315 -1.0883  0.6303  0.4647
  575MOL0     C79268  11.384   2.423   3.284  0.9556 -0.1036 -0.3114
  575MOL0     C79269  11.461   2.328   3.346  0.0256 -0.9541 -0.1093
  575MOL0     C79270  11.546   2.372   3.454  0.2200 -0.4436  0.1149
  575MOL0     O79271  11.617   2.294   3.536  0.1495 -0.3389  0.2732
  575MOL0     C79272  11.589   2.155   3.556 -0.6879 -0.0670 -0.7758
  575MOL0     C79273  11.477   2.121   3.653  0.5000 -0.7738  0.2017
  575MOL0     C79274  11.458   1.980   3.677  0.3881 -0.1695  0.1358
  575MOL0     C79275  11.351   1.920   3.590  0.6901 -0.4700 -0.6324
  575MOL0     C79276  11.368   1.936   3.448  0.3878 -0.2862  0.3117
  575MOL0     C79277  11.367   1.943   3.319 -0.3202  0.2438  0.0665
  575MOL0     C79278  11.557   2.508   3.475  0.1069 -0.0259  1.0062
  575MOL0     C79279  11.478   2.600   3.402 -0.3996  0.7476 -0.0760
  575MOL0     C79280  11.510   2.741   3.431  0.2394 -0.1830 -0.2291
  575MOL0     H79281  11.349   3.011   3.297 -0.9628  0.7981 -0.8447
  575MOL0     H79282  11.251   3.197   3.167 -0.2103  1.1936  1.8174
  575MOL0     H79283  11.088   3.358   3.134  1.4105 -0.0107 -0.3710
  575MOL0     H79284  10.936   3.375   3.053  1.0283  2.1788 -0.4784
  575MOL0     H79285  11.028   3.364   2.823 -0.6790  2.2552 -0.1809
  575MOL0     H79286  11.098   3.489   2.921  2.7059 -0.2072  0.0378
  575MOL0     H79287  11.298   3.422   2.918  1.6758  0.9012 -2.6898
  575MOL0     H79288  11.263   3.249   2.920 -1.4660 -0.4859 -0.6864
  575MOL0     H79289  11.198   3.266   2.670 -3.0396  1.5985  0.6979
  575MOL0     H79290  11.214   3.438   2.675 -0.1389  1.3911  2.4545
  575MOL0     H79291  11.413   3.238   2.755  0.7427  2.6170  2.1092
  575MOL0     H79292  11.456   3.400   2.761 -0.4790 -1.6579  1.6469
  575MOL0     H79293  11.384   3.237   2.507 -0.0732 -0.1485 -0.5907
  575MOL0     H79294  11.405   3.413   2.503 -0.8972  0.3987  1.8433
  575MOL0     H79295  11.608   3.180   2.593  1.7656  0.3240 -0.0929
  575MOL0     H79296  11.633   3.354   2.628 -0.7547 -0.7136  0.2637
  575MOL0     H79297  11.589   3.204   2.365  0.3596 -1.1282  0.7772
  575MOL0     H79298  11.636   3.375   2.365 -0.0257 -0.4267  0.3992
  575MOL0     H79299  11.807   3.067   2.546  0.5872  0.9941  2.4771
  575MOL0     H79300  12.192   3.123   2.446  0.4141 -0.0975  0.4010
  575MOL0     H79301  12.083   2.989   2.439  1.1986  0.6418 -2.1555
  575MOL0     H79302  12.134   3.171   2.689  0.2090  0.5391 -0.6137
  575MOL0     H79303  12.041   3.025   2.694  0.1609 -2.7089 -2.9235
  575MOL0     H79304  12.244   2.896   2.606 -1.8915 -0.6260  1.0304
  575MOL0     H79305  12.343   3.036   2.601  1.2410 -0.8755  0.2055
  575MOL0     H79306  12.203   2.964   2.862 -1.0722  2.6060 -1.4096
  575MOL0     H79307  12.358   2.883   2.822 -0.9188  1.0244  4.4004
  575MOL0     H79308  12.447   3.249   3.006  0.9061 -2.3405  3.0588
  575MOL0     H79309  12.590   3.357   3.132 -0.7284 -0.3875 -1.4605
  575MOL0     H79310  12.746   3.408   3.043  0.0171 -0.9312 -2.7750
  575MOL0     H79311  12.733   3.254   3.141  0.1252 -0.3336 -0.7502
  575MOL0     H79312  13.068   2.898   2.838  1.1910 -0.5058  1.5165
  575MOL0     H79313  13.290   2.818   2.847  0.3831 -0.0174  1.3871
  575MOL0     H79314  13.474   2.807   3.019  2.4034 -1.9833  0.2498
  575MOL0     H79315  13.501   2.790   2.845 -1.6240 -0.8090 -0.0971
  575MOL0     H79316  13.721   2.848   3.042  4.1348 -2.4337 -1.1750
  575MOL0     H79317  13.674   2.703   2.952 -1.2199 -0.5762 -2.6143
  575MOL0     H79318  13.688   2.917   2.766 -1.8944  1.0637  2.1399
  575MOL0     H79319  13.786   2.771   2.762 -0.1717  1.5290 -1.6764
  575MOL0     H79320  13.938   2.859   2.950  1.8620 -1.0453 -0.6121
  575MOL0     H79321  13.862   3.019   2.920 -0.8822 -1.5257  0.5728
  575MOL0     H79322  14.080   2.952   2.803  0.3272  2.0485  0.3196
  575MOL0     H79323  13.986   2.873   2.680 -0.0728 -1.1816  1.4487
  575MOL0     H79324  13.957   3.163   2.751  1.0938  1.0729 -0.4478
  575MOL0     H79325  13.843   3.076   2.651 -0.2847 -4.4393  0.9423
  575MOL0     H79326  14.065   3.034   2.500 -0.1114 -0.0709 -0.3778
  575MOL0     H79327  14.154   3.118   2.628 -0.2806  0.6618  1.1551
  575MOL0     H79328  13.943   3.262   2.454  0.7776  0.9838  0.7501
  575MOL0     H79329  14.115   3.261   2.429  0.1260  0.1785 -0.8920
  575MOL0     H79330  13.415   3.225   2.944  0.4534  0.0513 -2.5229
  575MOL0     H79331  13.181   3.306   2.859 -0.4149 -0.1048 -0.0048
  575MOL0     H79332  12.798   3.013   2.751 -0.6002 -1.3403  2.3454
  575MOL0     H79333  12.549   2.978   2.699 -0.4704 -0.2289  1.1746
  575MOL0     H79334  10.914   2.957   3.054 -0.9079  0.0324  1.4024
  575MOL0     H79335  11.022   2.757   3.174 -1.6963  1.0225  0.9222
  575MOL0     H79336  11.309   2.390   3.212  0.8124  1.1391 -0.7508
  575MOL0     H79337  11.461   2.222   3.324  2.1778 -1.3789  1.5698
  575MOL0     H79338  11.576   2.110   3.457 -0.5307 -1.9403  0.0094
  575MOL0     H79339  11.678   2.102   3.591 -1.2363  1.0102  2.5627
  575MOL0     H79340  11.382   2.159   3.615  0.8615 -3.0316 -3.4698
  575MOL0     H79341  11.500   2.182   3.741  0.9522 -0.5327 -0.0778
  575MOL0     H79342  11.548   1.919   3.663 -1.0674 -2.0626 -1.7792
  575MOL0     H79343  11.429   1.966   3.781  0.6401 -2.6808 -0.0680
  575MOL0     H79344  11.257   1.961   3.629  0.5210 -0.5977 -0.8987
  575MOL0     H79345  11.341   1.812   3.601  0.0175 -0.2250  1.5031
  575MOL0     H79346  11.360   1.949   3.213 -1.6247  0.0816  0.1229
  575MOL0     H79347  11.628   2.540   3.551  1.5810 -2.9433  1.0124
  575MOL0     H79348  11.452   2.778   3.516 -2.8969 -0.8694 -1.8871
  575MOL0     H79349  11.616   2.752   3.455 -0.4042  4.1992  1.3453
  575MOL0     H79350  11.493   2.815   3.352  1.8107  3.5255  2.6064
  576MOL0     O79351  10.272  10.275   4.428 -0.1405 -0.0889  0.4551
  576MOL0     C79352  10.234  10.354   4.341 -0.4453 -0.3676 -0.2837
  576MOL0     O79353  10.312  10.454   4.297  0.2772 -0.5296  0.6929
  576MOL0     C79354  10.441  10.471   4.336 -0.6259 -0.3236  0.2187
  576MOL0     C79355  10.522  10.547   4.248  0.3528  0.2481 -0.4671
  576MOL0     C79356  10.656  10.578   4.274 -0.0588  0.1157 -0.2365
  576MOL0     C79357  10.709  10.539   4.392  0.1530 -0.2938  0.3893
  576MOL0     O79358  10.842  10.561   4.416 -1.5675  0.7194  0.3747
  576MOL0     C79359  10.930  10.453   4.467 -1.3449  0.1194  0.1147
  576MOL0     C79360  11.061  10.476   4.397  1.0466  0.9439 -0.5714
  576MOL0     C79361  11.126  10.601   4.461 -0.6783 -0.2043  0.0434
  576MOL0     C79362  11.284  10.582   4.478  0.1783 -0.7972 -0.2427
  576MOL0     C79363  11.353  10.709   4.524 -0.3163  0.3064 -0.1925
  576MOL0     C79364  11.500  10.698   4.486 -0.4404 -0.0060 -0.5678
  576MOL0     C79365  11.589  10.800   4.561 -0.1136 -0.5553  0.2666
  576MOL0     C79366  11.739  10.763   4.536  0.4307 -0.2779  0.6046
  576MOL0     N79367  11.829  10.875   4.576 -0.7402 -0.4332 -0.2779
  576MOL0     C79368  11.809  10.958   4.686 -0.1647 -0.5969 -0.1650
  576MOL0     C79369  11.898  11.053   4.670  0.4463 -0.1760  0.3844
  576MOL0     C79370  11.911  11.158   4.775 -0.0541  0.3990  0.7387
  576MOL0     C79371  11.788  11.251   4.796  0.0250  0.5152 -0.1009
  576MOL0     C79372  11.818  11.386   4.729  0.8275  0.0703 -0.9322
  576MOL0     C79373  11.681  11.456   4.705 -0.0844  0.1904 -0.3397
  576MOL0     O79374  11.602  11.461   4.821 -0.0105 -0.2632 -0.6152
  576MOL0     C79375  11.466  11.487   4.801 -0.2350 -0.4773 -0.1262
  576MOL0     C79376  11.416  11.587   4.711 -1.0155 -0.6704 -0.1417
  576MOL0     C79377  11.279  11.605   4.691  0.3388 -0.5514 -0.1436
  576MOL0     C79378  11.246  11.692   4.566 -0.5240  0.9134  1.3995
  576MOL0     C79379  11.185  11.533   4.763 -0.0410 -0.2894 -0.2566
  576MOL0     C79380  11.034  11.547   4.751  0.0777  0.7717  0.6921
  576MOL0     O79381  10.957  11.450   4.821 -0.2689 -0.4515  0.8518
  576MOL0     C79382  10.818  11.459   4.792 -0.2122  0.2237 -0.4108
  576MOL0     C79383  10.759  11.393   4.684 -0.2061 -0.1473  0.2555
  576MOL0     C79384  10.620  11.395   4.671 -0.3224 -0.1631  0.4270
  576MOL0     C79385  10.537  11.457   4.761 -0.4079 -0.2009 -0.9244
  576MOL0     O79386  10.398  11.444   4.745 -0.6476  0.3868 -0.1944
  576MOL0     C79387  10.327  11.480   4.864 -0.1688 -0.7417 -0.7938
  576MOL0     C79388  10.175  11.448   4.847 -0.0090 -0.6149 -0.4060
  576MOL0     C79389  10.099  11.571   4.809 -0.3942 -0.2809  0.3179
  576MOL0     C79390   9.946  11.557   4.811 -0.2249  0.2302 -0.2122
  576MOL0     C79391   9.880  11.695   4.783 -0.3499 -0.3077 -0.6704
  576MOL0     C79392   9.739  11.710   4.830  0.3955 -0.4392 -0.0296
  576MOL0     C79393   9.676  11.851   4.801  0.0809 -0.0145  0.0935
  576MOL0     C79394   9.546  11.884   4.874  0.4219  0.1334 -0.3595
  576MOL0    Cl79395   9.439  11.756   4.886  0.1611  0.1779  0.0325
  576MOL0     C79396  10.604  11.536   4.866  0.2904  0.3766 -0.0855
  576MOL0     C79397  10.751  11.538   4.886  0.6398 -0.3564 -0.2309
  576MOL0     O79398  10.986  11.639   4.691 -0.1596  0.5435 -0.4534
  576MOL0     C79399  11.238  11.433   4.855 -0.5686 -0.4669  0.1875
  576MOL0     C79400  11.373  11.409   4.867  0.8450  0.1254  0.8206
  576MOL0     N79401  11.958  11.043   4.548 -0.1676 -0.4236  0.8769
  576MOL0     N79402  11.908  10.939   4.484 -0.5787 -0.3924 -0.4748
  576MOL0     C79403  10.627  10.466   4.485 -1.7587 -0.4902 -0.5680
  576MOL0     C79404  10.501  10.441   4.460  0.1094 -0.2703  0.2135
  576MOL0     C79405  10.109  10.313   4.267  0.0827  0.0317 -0.0269
  576MOL0     C79406  10.056  10.180   4.291  0.1064 -0.4524  0.0801
  576MOL0     C79407   9.935  10.133   4.227 -0.2980 -0.4839 -0.4283
  576MOL0     C79408   9.859  10.221   4.150 -0.1091 -1.0350  0.4265
  576MOL0     O79409   9.733  10.189   4.105 -0.2621 -0.1071 -0.0344
  576MOL0     C79410   9.705  10.064   4.052 -0.0591  1.3240  0.1547
  576MOL0     C79411   9.562  10.010   4.081  0.0027  0.0293 -0.1078
  576MOL0     C79412   9.534  10.018   4.233 -0.1232  0.2483 -0.5416
  576MOL0     C79413   9.380  10.036   4.257  0.0391  0.1275  0.3241
  576MOL0     C79414   9.351  10.014   4.398 -0.8238  0.0774  0.0435
  576MOL0     C79415   9.331   9.995   4.516 -0.0961  0.6801  0.0755
  576MOL0     C79416   9.915  10.348   4.125  0.0958 -0.0576 -0.1588
  576MOL0     C79417  10.039  10.395   4.179  0.0412  0.5572 -0.1534
  576MOL0     C79418  10.094  10.525   4.115  0.1140  0.1549  0.1557
  576MOL0     H79419  10.490  10.581   4.150 -1.3897 -0.2178 -0.0931
  576MOL0     H79420  10.711  10.623   4.192  3.6662 -3.1970  0.1659
  576MOL0     H79421  10.895  10.355   4.432  0.2891 -0.4332 -0.0781
  576MOL0     H79422  10.949  10.458   4.574  1.0841 -2.4547 -0.0778
  576MOL0     H79423  11.118  10.382   4.399  0.0459  0.3232  0.3650
  576MOL0     H79424  11.045  10.501   4.292  0.1925  0.4410 -0.5756
  576MOL0     H79425  11.104  10.687   4.396 -2.4015  1.0729  2.1691
  576MOL0     H79426  11.086  10.625   4.560 -0.2530 -1.6069  0.5740
  576MOL0     H79427  11.312  10.496   4.539  2.1774 -2.0574 -2.7605
  576MOL0     H79428  11.321  10.549   4.380  2.0214 -0.3872  0.2649
  576MOL0     H79429  11.342  10.712   4.633 -1.6581 -2.3191 -0.1842
  576MOL0     H79430  11.311  10.802   4.485  1.1870  0.9997 -0.2092
  576MOL0     H79431  11.525  10.596   4.515  1.8986  0.5770 -0.3112
  576MOL0     H79432  11.511  10.707   4.377  1.3356 -1.4985 -0.5734
  576MOL0     H79433  11.565  10.796   4.667 -1.2584  2.6419  0.2174
  576MOL0     H79434  11.559  10.898   4.524 -0.5564 -0.5887  0.5324
  576MOL0     H79435  11.773  10.674   4.589 -0.1228  0.3838  2.1331
  576MOL0     H79436  11.771  10.741   4.434  0.2335  0.8874  0.2780
  576MOL0     H79437  11.739  10.953   4.769 -0.5428 -3.2628 -0.5758
  576MOL0     H79438  11.991  11.226   4.744 -0.6577 -0.1871 -2.4014
  576MOL0     H79439  11.936  11.114   4.872 -0.2033 -0.7078  0.2853
  576MOL0     H79440  11.703  11.191   4.760 -1.3171 -0.3314  3.9309
  576MOL0     H79441  11.770  11.269   4.902  1.1496  1.0673  0.0124
  576MOL0     H79442  11.883  11.452   4.786  0.8687 -1.1151  0.4390
  576MOL0     H79443  11.852  11.377   4.625  0.2383  0.7131 -1.1891
  576MOL0     H79444  11.687  11.557   4.664 -2.3446 -0.8916 -3.7947
  576MOL0     H79445  11.638  11.398   4.623  2.1704 -0.9924 -0.7588
  576MOL0     H79446  11.483  11.648   4.653  0.3744 -0.9519  1.1056
  576MOL0     H79447  11.171  11.769   4.586 -1.8521  0.1060 -0.2275
  576MOL0     H79448  11.216  11.625   4.485  1.1333  0.4384  1.1441
  576MOL0     H79449  11.333  11.740   4.520 -1.4649  1.9046  0.6065
  576MOL0     H79450  10.820  11.331   4.620 -1.6903 -0.1772 -1.1946
  576MOL0     H79451  10.563  11.327   4.608  1.3234 -0.3242 -0.9613
  576MOL0     H79452  10.361  11.421   4.950 -1.3604 -2.0547 -1.1894
  576MOL0     H79453  10.336  11.589   4.858  1.2738 -0.7925  0.1554
  576MOL0     H79454  10.143  11.376   4.770 -1.8787  0.4217 -0.6700
  576MOL0     H79455  10.129  11.407   4.938  0.2492 -0.8014 -0.3577
  576MOL0     H79456  10.125  11.613   4.711 -1.1093 -1.0868 -0.2382
  576MOL0     H79457  10.118  11.642   4.889 -3.3055 -1.1128  1.8763
  576MOL0     H79458   9.923  11.517   4.910 -1.1901 -2.9200 -1.5516
  576MOL0     H79459   9.919  11.485   4.733  0.3338  1.2089 -1.3442
  576MOL0     H79460   9.928  11.777   4.837  0.9571 -1.5915  0.2097
  576MOL0     H79461   9.887  11.713   4.675 -0.7021 -4.6957 -1.6388
  576MOL0     H79462   9.722  11.694   4.936  0.1527  3.1179  0.6194
  576MOL0     H79463   9.671  11.647   4.772  1.6782 -0.6007 -1.4074
  576MOL0     H79464   9.651  11.853   4.695 -0.5199  1.0088  0.2437
  576MOL0     H79465   9.746  11.926   4.839  0.5359 -1.6901  2.8497
  576MOL0     H79466   9.507  11.975   4.828 -1.0571 -1.0993 -1.6777
  576MOL0     H79467   9.572  11.901   4.979 -1.2341 -2.0505  0.5024
  576MOL0     H79468  10.551  11.608   4.928  1.0335  2.3128 -1.5760
  576MOL0     H79469  10.803  11.584   4.969  0.8667  0.1949 -0.6757
  576MOL0     H79470  11.186  11.359   4.915  0.0558 -0.2379  1.0229
  576MOL0     H79471  11.414  11.326   4.923  0.2892 -0.9014 -0.2513
  576MOL0     H79472  10.661  10.454   4.588 -0.3700  2.3383 -0.5777
  576MOL0     H79473  10.441  10.392   4.537 -0.0399 -0.9994 -0.3507
  576MOL0     H79474  10.109  10.110   4.356  1.5863  1.9901  1.6775
  576MOL0     H79475   9.894  10.042   4.272 -1.3726  0.0492 -0.2933
  576MOL0     H79476   9.713  10.072   3.943 -0.3951  0.6173  0.0677
  576MOL0     H79477   9.776   9.985   4.080 -1.1215 -0.6573 -2.3536
  576MOL0     H79478   9.539   9.909   4.046 -1.4225  0.4834 -0.5608
  576MOL0     H79479   9.488  10.071   4.028 -1.2349 -3.0114 -2.1570
  576MOL0     H79480   9.569   9.919   4.263  0.2268  1.1681  2.2946
  576MOL0     H79481   9.596  10.089   4.288 -1.0898  0.2927  0.5163
  576MOL0     H79482   9.317   9.971   4.197  1.2205 -0.7291 -0.0317
  576MOL0     H79483   9.358  10.142   4.241  0.7702  0.4531  1.3487
  576MOL0     H79484   9.309   9.997   4.621  4.4393 -1.0958  1.2742
  576MOL0     H79485   9.847  10.414   4.072 -1.8002  0.8071  3.0798
  576MOL0     H79486  10.023  10.575   4.049  0.8000  3.8949  1.9920
  576MOL0     H79487  10.117  10.603   4.188  2.2993  0.7162 -1.0304
  576MOL0     H79488  10.179  10.495   4.053  0.1680  1.0086 -0.1989
  577MOL0     O79489   7.762   2.978   0.068  0.3242 -0.2090  0.1592
  577MOL0     C79490   7.736   3.069  -0.005 -0.7151  0.2531 -0.6371
  577MOL0     O79491   7.813   3.179  -0.025 -0.7737  0.2303  0.0724
  577MOL0     C79492   7.942   3.182   0.026  0.0755 -0.3892 -0.1343
  577MOL0     C79493   7.974   3.193   0.167 -0.0686  0.6281 -0.4287
  577MOL0     C79494   8.107   3.186   0.213 -1.8134  0.1965  0.4634
  577MOL0     C79495   8.212   3.184   0.119  1.3763  0.1134  0.4355
  577MOL0     O79496   8.333   3.155   0.176 -0.6265 -0.5839  0.0083
  577MOL0     C79497   8.452   3.198   0.104 -0.4587  0.0358  0.3362
  577MOL0     C79498   8.573   3.161   0.186 -0.6955  0.2959  0.5522
  577MOL0     C79499   8.698   3.233   0.128  0.1103 -0.3791 -0.0389
  577MOL0     C79500   8.823   3.181   0.200 -0.4879 -0.2423  0.1235
  577MOL0     C79501   8.955   3.268   0.181 -0.0194 -0.1314  0.6094
  577MOL0     C79502   8.939   3.394   0.270 -0.1759  0.9093  0.1163
  577MOL0     C79503   9.013   3.512   0.206  1.0229  0.6265 -0.1600
  577MOL0     C79504   9.034   3.620   0.317  0.6034  0.2553  0.6827
  577MOL0     N79505   9.139   3.711   0.263 -0.5723  0.6660  0.3425
  577MOL0     C79506   9.105   3.816   0.182  0.4854 -0.2134 -0.4595
  577MOL0     C79507   9.224   3.885   0.170  1.5116 -0.2184 -0.7468
  577MOL0     C79508   9.244   4.012   0.090  0.0291  0.2272  0.2848
  577MOL0     C79509   9.393   4.009   0.028  0.1781 -0.5675 -0.1007
  577MOL0     C79510   9.434   4.136  -0.049 -1.1811 -0.0714 -0.7470
  577MOL0     C79511   9.379   4.136  -0.192 -0.2874 -0.1700 -0.0260
  577MOL0     O79512   9.406   4.014  -0.263  0.2315 -0.7300 -0.2772
  577MOL0     C79513   9.544   3.983  -0.288  0.2026 -0.7858 -0.1333
  577MOL0     C79514   9.643   4.081  -0.285  0.6319  0.4350  0.1756
  577MOL0     C79515   9.781   4.053  -0.292 -0.3685 -0.6392 -0.5539
  577MOL0     C79516   9.876   4.173  -0.265 -0.6046 -0.3074 -0.7130
  577MOL0     C79517   9.820   3.918  -0.312 -1.5621 -0.3004 -0.9218
  577MOL0     C79518   9.958   3.878  -0.314 -1.0834 -0.0691 -0.0543
  577MOL0     O79519  10.034   3.926  -0.209 -0.2045  0.5827  0.4090
  577MOL0     C79520  10.144   3.843  -0.175 -0.2931  0.4766 -0.6077
  577MOL0     C79521  10.263   3.848  -0.244  0.5297 -0.4414  0.5752
  577MOL0     C79522  10.369   3.759  -0.226  0.2189 -1.2322 -0.1899
  577MOL0     C79523  10.358   3.670  -0.125  0.4223 -0.6146 -0.3954
  577MOL0     O79524  10.467   3.590  -0.100  0.1550  0.5134 -0.6917
  577MOL0     C79525  10.450   3.455  -0.040  0.3418  0.1930 -0.0771
  577MOL0     C79526  10.576   3.379  -0.094 -0.3362  0.2299 -0.3657
  577MOL0     C79527  10.602   3.385  -0.247 -0.5488  0.1476  0.2782
  577MOL0     C79528  10.722   3.303  -0.291  0.3804  0.0636 -0.6279
  577MOL0     C79529  10.768   3.300  -0.443  0.1331  0.6249 -0.4154
  577MOL0     C79530  10.658   3.251  -0.532  0.5685 -0.7267  0.4172
  577MOL0     C79531  10.707   3.263  -0.677 -0.1674  1.1418  0.6221
  577MOL0     C79532  10.584   3.232  -0.781 -0.5296 -0.1948  0.3064
  577MOL0    Cl79533  10.654   3.236  -0.947  0.0694 -0.0376  0.1754
  577MOL0     C79534  10.243   3.665  -0.044 -0.8647  0.5207  0.3379
  577MOL0     C79535  10.129   3.742  -0.077 -0.2979  0.1084  1.1203
  577MOL0     O79536   9.982   3.788  -0.389 -0.6315  0.0341 -0.2901
  577MOL0     C79537   9.723   3.822  -0.322  0.5934 -0.2586  0.1594
  577MOL0     C79538   9.587   3.855  -0.313 -0.4140  0.3642  0.2987
  577MOL0     N79539   9.321   3.816   0.253 -0.1140 -0.0993 -0.1280
  577MOL0     N79540   9.260   3.715   0.320  0.3212 -0.4573  0.1746
  577MOL0     C79541   8.191   3.184  -0.022 -0.5117  0.6513 -0.6989
  577MOL0     C79542   8.052   3.177  -0.059  1.4920  0.8544  0.8630
  577MOL0     C79543   7.600   3.056  -0.075 -0.5530 -0.5740 -0.0223
  577MOL0     C79544   7.525   3.179  -0.092  0.7334 -0.3878  0.3488
  577MOL0     C79545   7.393   3.178  -0.143  0.1946  0.3117  0.7079
  577MOL0     C79546   7.336   3.053  -0.172  0.8324 -1.6904  0.0852
  577MOL0     O79547   7.201   3.060  -0.209 -0.3471 -0.0197 -0.5912
  577MOL0     C79548   7.119   2.941  -0.213  0.2203 -0.2835  0.0377
  577MOL0     C79549   6.973   2.978  -0.264  0.1850 -0.2023  0.4160
  577MOL0     C79550   6.919   3.097  -0.185 -0.0969  0.0747  0.7454
  577MOL0     C79551   6.773   3.127  -0.230 -0.8282  0.6238 -0.4381
  577MOL0     C79552   6.707   3.215  -0.127  0.1931  0.5258  0.2822
  577MOL0     C79553   6.664   3.291  -0.050 -0.5863  0.0122  0.9186
  577MOL0     C79554   7.404   2.933  -0.156 -0.3508 -0.0906 -0.4607
  577MOL0     C79555   7.532   2.933  -0.109 -0.0467 -0.3072  0.0034
  577MOL0     C79556   7.613   2.809  -0.128  0.0558  0.2898  0.3265
  577MOL0     H79557   7.889   3.180   0.235  0.4169  1.4366  0.3487
  577MOL0     H79558   8.132   3.176   0.318 -2.0822  2.8993  0.8391
  577MOL0     H79559   8.459   3.307   0.102  1.2201 -0.0539 -1.0148
  577MOL0     H79560   8.464   3.154   0.005  0.0821 -0.7840  0.7607
  577MOL0     H79561   8.554   3.214   0.280 -0.8053  0.0828  0.6495
  577MOL0     H79562   8.578   3.053   0.200  0.6893 -0.0213 -1.8309
  577MOL0     H79563   8.709   3.210   0.021  2.2546  1.7522 -0.3648
  577MOL0     H79564   8.684   3.341   0.131 -0.3086 -0.4227  3.6132
  577MOL0     H79565   8.798   3.182   0.306 -1.8012  2.1208 -0.1495
  577MOL0     H79566   8.847   3.077   0.176  2.5342  0.4008 -0.0715
  577MOL0     H79567   8.987   3.287   0.078  0.7823  1.9992  1.2153
  577MOL0     H79568   9.037   3.213   0.227 -0.1467  0.1079  1.1244
  577MOL0     H79569   8.832   3.411   0.286 -0.5576 -2.6363  2.3626
  577MOL0     H79570   8.970   3.365   0.370 -1.8302 -1.0085  0.1392
  577MOL0     H79571   8.958   3.554   0.122 -1.7217 -2.2131  0.0390
  577MOL0     H79572   9.105   3.470   0.163  0.3809 -1.1557  0.1046
  577MOL0     H79573   8.939   3.675   0.319 -1.2135 -2.6701  1.1521
  577MOL0     H79574   9.043   3.580   0.418  2.1771 -0.5187  0.2658
  577MOL0     H79575   9.014   3.849   0.133  0.6819 -0.1947 -0.8152
  577MOL0     H79576   9.225   4.094   0.160  1.3664 -0.7223  1.8279
  577MOL0     H79577   9.165   4.014   0.015 -2.0114 -0.7206  2.2857
  577MOL0     H79578   9.456   4.021   0.116  0.1206  0.5864 -0.2084
  577MOL0     H79579   9.413   3.917  -0.028  1.7128 -0.6410  0.5235
  577MOL0     H79580   9.400   4.223   0.008 -0.7574 -1.1979  1.3180
  577MOL0     H79581   9.542   4.150  -0.061 -1.2168 -0.4498 -1.5006
  577MOL0     H79582   9.270   4.138  -0.190 -0.4439 -2.4175 -1.9049
  577MOL0     H79583   9.418   4.223  -0.245  3.1949 -2.0322 -0.7972
  577MOL0     H79584   9.617   4.186  -0.282  3.0951  1.2003 -1.7882
  577MOL0     H79585   9.870   4.202  -0.159  3.0791 -3.0076  0.4406
  577MOL0     H79586   9.856   4.258  -0.331 -0.7047  1.7449  1.7715
  577MOL0     H79587   9.981   4.147  -0.281 -0.6735 -0.6876 -0.5551
  577MOL0     H79588  10.258   3.921  -0.325  0.5106 -0.1174  0.8645
  577MOL0     H79589  10.457   3.766  -0.289 -1.5548  2.4935 -2.6699
  577MOL0     H79590  10.457   3.450   0.069  1.0373 -1.5107 -0.1780
  577MOL0     H79591  10.354   3.418  -0.079 -0.5644  2.8321 -0.5724
  577MOL0     H79592  10.664   3.434  -0.058 -2.5658  2.6681  1.8139
  577MOL0     H79593  10.579   3.279  -0.050 -1.0951  1.2653  2.2458
  577MOL0     H79594  10.622   3.487  -0.279  1.2693  0.0899  1.0853
  577MOL0     H79595  10.508   3.361  -0.297 -0.6496 -0.1943  0.6276
  577MOL0     H79596  10.700   3.199  -0.266 -1.2773  0.1605 -1.5569
  577MOL0     H79597  10.808   3.342  -0.235 -0.8523  0.3949  1.1283
  577MOL0     H79598  10.789   3.404  -0.472 -0.9866  0.8140 -0.5637
  577MOL0     H79599  10.849   3.231  -0.469 -0.7980  0.5611 -3.4231
  577MOL0     H79600  10.577   3.323  -0.519  1.5457  1.0200 -2.2623
  577MOL0     H79601  10.635   3.146  -0.516  1.9248 -1.7478 -3.4123
  577MOL0     H79602  10.784   3.189  -0.702 -0.2450  0.2963  2.6297
  577MOL0     H79603  10.739   3.364  -0.703 -2.7722  1.3156 -2.5507
  577MOL0     H79604  10.512   3.314  -0.775 -0.4361  0.2379 -2.6792
  577MOL0     H79605  10.543   3.133  -0.760 -0.4512 -0.5308 -1.0161
  577MOL0     H79606  10.233   3.594   0.038 -0.4083 -2.3053 -1.8785
  577MOL0     H79607  10.033   3.721  -0.031  0.3964 -3.0966  1.3165
  577MOL0     H79608   9.735   3.714  -0.326 -1.4709 -0.6973  2.7916
  577MOL0     H79609   9.514   3.775  -0.309 -1.3225  0.8220 -3.3556
  577MOL0     H79610   8.271   3.175  -0.095  0.5228  0.6783  0.4091
  577MOL0     H79611   8.034   3.174  -0.166  0.8452 -3.6881  0.8848
  577MOL0     H79612   7.576   3.272  -0.070 -1.2930  1.1641 -1.0684
  577MOL0     H79613   7.333   3.267  -0.158 -0.4884 -0.0100  1.4454
  577MOL0     H79614   7.163   2.863  -0.276  0.9432 -0.9597  1.3378
  577MOL0     H79615   7.116   2.898  -0.112 -0.4297  0.3954  0.3156
  577MOL0     H79616   6.903   2.895  -0.248 -1.5733  1.2567  0.5955
  577MOL0     H79617   6.977   2.993  -0.372  0.8820 -0.4486  0.4013
  577MOL0     H79618   6.906   3.059  -0.083 -2.2856 -0.9569  0.1443
  577MOL0     H79619   6.997   3.173  -0.190  0.7604 -0.7597  1.0295
  577MOL0     H79620   6.718   3.032  -0.234  1.9076 -1.5409  4.2738
  577MOL0     H79621   6.771   3.191  -0.318 -2.6187 -0.0928 -0.9838
  577MOL0     H79622   6.637   3.377   0.008  0.5320  1.0540 -0.0437
  577MOL0     H79623   7.352   2.845  -0.192 -1.4606  1.4076 -2.7665
  577MOL0     H79624   7.620   2.742  -0.041  2.2353  1.4297  1.1094
  577MOL0     H79625   7.570   2.749  -0.209  1.9267 -1.6056  0.6546
  577MOL0     H79626   7.715   2.831  -0.158 -0.9652  0.6266 -3.4271
  578MOL0     O79627  11.074   9.598   7.655  0.0455  0.5600 -0.3026
  578MOL0     C79628  11.043   9.489   7.694 -0.1604  0.1373 -0.3144
  578MOL0     O79629  11.126   9.374   7.679 -0.0242  0.0096 -0.0675
  578MOL0     C79630  11.252   9.387   7.622  0.1118 -0.9952  0.0883
  578MOL0     C79631  11.348   9.290   7.659 -0.1552  0.2488 -0.7190
  578MOL0     C79632  11.477   9.282   7.602 -0.2679 -0.2177  0.6172
  578MOL0     C79633  11.520   9.386   7.511 -0.2309 -0.4637 -0.3659
  578MOL0     O79634  11.654   9.392   7.473 -0.2137  0.1568 -0.0966
  578MOL0     C79635  11.687   9.419   7.332 -0.4586  0.3060  0.1049
  578MOL0     C79636  11.839   9.470   7.328  1.2103  0.2893  0.3031
  578MOL0     C79637  11.869   9.533   7.187 -0.1242  0.2795  1.1393
  578MOL0     C79638  12.016   9.524   7.153 -0.4533 -0.0370 -0.4273
  578MOL0     C79639  12.109   9.597   7.251 -0.5343  0.1535 -0.3314
  578MOL0     C79640  12.225   9.655   7.168  0.3179  1.2969  0.4615
  578MOL0     C79641  12.304   9.738   7.262  0.3541  0.2315 -0.4121
  578MOL0     C79642  12.395   9.839   7.187  0.4664  0.5134  0.4777
  578MOL0     N79643  12.466   9.912   7.295 -0.0914  0.6460  0.0994
  578MOL0     C79644  12.420  10.007   7.376  0.5555 -0.2909  0.3837
  578MOL0     C79645  12.513  10.030   7.467 -0.4905  0.0159  0.3099
  578MOL0     C79646  12.514  10.156   7.548  0.5838  0.9264 -0.2764
  578MOL0     C79647  12.614  10.152   7.660  0.3592 -0.1841  0.2177
  578MOL0     C79648  12.634  10.283   7.736 -1.1025  0.7090  0.1409
  578MOL0     C79649  12.732  10.388   7.683  1.0798 -0.1065 -0.3791
  578MOL0     O79650  12.808  10.460   7.785  0.0347  0.4436 -0.2198
  578MOL0     C79651  12.942  10.429   7.809  0.0485  1.0607 -0.1396
  578MOL0     C79652  13.007  10.305   7.781 -0.3865 -0.8287 -0.5542
  578MOL0     C79653  13.146  10.290   7.797  0.2479  0.3459  0.0465
  578MOL0     C79654  13.200  10.151   7.763  0.2048  0.2122 -1.1471
  578MOL0     C79655  13.217  10.403   7.855 -0.2572  0.8544  0.2286
  578MOL0     C79656  13.361  10.416   7.875 -1.0295 -0.6136  1.4612
  578MOL0     O79657  13.410  10.543   7.873  0.6191 -0.5209 -0.3916
  578MOL0     C79658  13.545  10.566   7.883  0.0921 -0.9200 -0.0871
  578MOL0     C79659  13.616  10.625   7.775 -0.6345  0.7414 -0.1546
  578MOL0     C79660  13.753  10.670   7.790  0.4189  0.7595 -0.2117
  578MOL0     C79661  13.815  10.651   7.915  0.8588 -0.0364 -0.8661
  578MOL0     O79662  13.945  10.690   7.936  0.0232  0.3354 -0.3605
  578MOL0     C79663  14.045  10.594   7.955 -0.4746 -0.9375 -0.0711
  578MOL0     C79664  14.178  10.664   7.992  0.6124  0.1521  0.5853
  578MOL0     C79665  14.200  10.667   8.145 -0.0190  0.4759 -0.3716
  578MOL0     C79666  14.323  10.737   8.194  0.1809  0.6056 -0.3380
  578MOL0     C79667  14.316  10.761   8.345 -0.0957  0.8986  0.3422
  578MOL0     C79668  14.444  10.824   8.408  0.8612  0.1296  0.1248
  578MOL0     C79669  14.445  10.869   8.556 -0.4986 -0.5856  0.2642
  578MOL0     C79670  14.334  10.967   8.591 -0.1273  0.9009  0.0710
  578MOL0    Cl79671  14.388  11.043   8.759 -0.6234 -0.0186  0.1340
  578MOL0     C79672  13.747  10.587   8.020  0.0971 -0.1283 -0.2072
  578MOL0     C79673  13.614  10.546   8.002  0.6136  0.9820 -0.3768
  578MOL0     O79674  13.434  10.313   7.875  0.5039 -0.8327 -0.2441
  578MOL0     C79675  13.147  10.521   7.880  0.2597 -0.3292 -0.4128
  578MOL0     C79676  13.006  10.529   7.870  0.2274 -0.2550 -0.5373
  578MOL0     N79677  12.620   9.943   7.448 -0.3553  0.5792  0.0373
  578MOL0     N79678  12.587   9.879   7.343 -0.2012 -0.3410 -0.1526
  578MOL0     C79679  11.427   9.477   7.464  0.1917  0.7329 -0.5694
  578MOL0     C79680  11.294   9.482   7.520 -0.1924  1.3007 -0.3055
  578MOL0     C79681  10.910   9.454   7.745 -0.0847 -0.8543 -0.8077
  578MOL0     C79682  10.874   9.317   7.752 -0.2556 -0.4464 -0.0224
  578MOL0     C79683  10.751   9.274   7.799 -0.3124 -0.1974  0.3065
  578MOL0     C79684  10.658   9.368   7.839  0.2829  1.0782  0.8677
  578MOL0     O79685  10.533   9.317   7.861 -0.4249 -0.4742  0.1655
  578MOL0     C79686  10.428   9.377   7.787 -0.4973  0.5633 -0.6108
  578MOL0     C79687  10.292   9.329   7.845 -0.5028  0.0827 -0.5359
  578MOL0     C79688  10.172   9.365   7.755  0.0920 -0.2671 -0.2608
  578MOL0     C79689  10.035   9.321   7.801 -0.4873  0.6339 -0.2580
  578MOL0     C79690   9.951   9.388   7.698  0.2548  0.0971  0.3658
  578MOL0     C79691   9.880   9.434   7.606 -0.2976 -0.2881  0.3474
  578MOL0     C79692  10.690   9.505   7.831  0.7510 -0.1500  0.0884
  578MOL0     C79693  10.813   9.555   7.792  1.0039 -0.0857  0.3984
  578MOL0     C79694  10.822   9.703   7.782  0.0058  0.5445 -0.0777
  578MOL0     H79695  11.314   9.208   7.722  3.2318  1.3225  2.9468
  578MOL0     H79696  11.547   9.202   7.624  0.3504  0.5887  1.7103
  578MOL0     H79697  11.639   9.505   7.286 -1.2993 -1.5892 -2.8386
  578MOL0     H79698  11.683   9.328   7.271  2.8296 -0.5089  0.8978
  578MOL0     H79699  11.858   9.550   7.401  1.6103 -1.1847  1.8717
  578MOL0     H79700  11.910   9.390   7.347  0.5629 -0.9743 -2.2057
  578MOL0     H79701  11.812   9.474   7.114 -1.5046  2.2079  0.5749
  578MOL0     H79702  11.851   9.640   7.169  2.6870  0.5728 -0.5268
  578MOL0     H79703  12.047   9.419   7.160 -2.2708 -0.6142 -0.4452
  578MOL0     H79704  12.036   9.557   7.051 -1.2599  0.6513 -0.3763
  578MOL0     H79705  12.132   9.521   7.326  0.7335 -0.2372 -1.0892
  578MOL0     H79706  12.049   9.680   7.289 -1.0063  0.2813 -1.3148
  578MOL0     H79707  12.277   9.575   7.115 -2.5936 -0.5488  0.1451
  578MOL0     H79708  12.177   9.713   7.088  0.1906 -0.5793 -0.8951
  578MOL0     H79709  12.363   9.676   7.329 -1.8356  1.7216  3.1774
  578MOL0     H79710  12.233   9.806   7.310  0.2060  1.3641 -2.1163
  578MOL0     H79711  12.464   9.786   7.120  0.5864  1.2880 -0.0268
  578MOL0     H79712  12.336   9.912   7.131  0.4471  0.1354  0.0024
  578MOL0     H79713  12.322  10.051   7.363 -0.2869 -2.2777 -0.3896
  578MOL0     H79714  12.409  10.166   7.577  0.4031  1.7809 -1.2170
  578MOL0     H79715  12.541  10.246   7.492  4.3634  0.1712  0.0091
  578MOL0     H79716  12.584  10.073   7.731  1.3262 -1.4308 -0.7061
  578MOL0     H79717  12.715  10.127   7.627  1.4011  2.2974  1.2969
  578MOL0     H79718  12.546  10.336   7.772 -1.4482  0.5399 -0.4351
  578MOL0     H79719  12.686  10.250   7.827  1.3842  0.3596 -1.3047
  578MOL0     H79720  12.801  10.339   7.613 -0.7893 -0.6276 -1.9244
  578MOL0     H79721  12.664  10.454   7.629 -0.6584 -1.1900  0.3922
  578MOL0     H79722  12.948  10.226   7.735  0.7272 -0.8527 -1.9874
  578MOL0     H79723  13.128  10.071   7.744 -1.9063  1.4706  0.9555
  578MOL0     H79724  13.241  10.120   7.859 -0.3754  4.5530  0.7240
  578MOL0     H79725  13.273  10.156   7.682 -1.4293  0.4812 -2.6807
  578MOL0     H79726  13.556  10.624   7.684 -0.8275 -1.6999 -0.0632
  578MOL0     H79727  13.809  10.711   7.706 -1.7714  1.6097 -1.3250
  578MOL0     H79728  14.019  10.523   8.035 -0.0082 -1.5639 -0.4593
  578MOL0     H79729  14.052  10.549   7.855 -2.2124  2.0199 -1.6416
  578MOL0     H79730  14.263  10.605   7.956 -0.0774  0.2731 -1.3692
  578MOL0     H79731  14.189  10.762   7.944  2.5674 -1.2327 -2.0446
  578MOL0     H79732  14.205  10.564   8.182  0.8730  0.4436 -0.5448
  578MOL0     H79733  14.111  10.717   8.185  0.8466  2.2541 -0.5479
  578MOL0     H79734  14.340  10.827   8.134 -1.0606 -0.1632 -1.9207
  578MOL0     H79735  14.408  10.672   8.173  0.3926  0.3830  1.0677
  578MOL0     H79736  14.229  10.826   8.358  1.2677  2.9198 -0.1481
  578MOL0     H79737  14.299  10.664   8.391 -2.9238  0.9629 -0.3956
  578MOL0     H79738  14.477  10.909   8.347  1.8438 -1.4243 -1.6328
  578MOL0     H79739  14.524  10.750   8.398  0.2258 -0.8634  1.9566
  578MOL0     H79740  14.546  10.910   8.566  0.3652 -2.3875 -0.6446
  578MOL0     H79741  14.434  10.780   8.620  0.8153 -0.6648  0.4064
  578MOL0     H79742  14.245  10.905   8.601  1.1223 -0.9505  0.1764
  578MOL0     H79743  14.321  11.047   8.518  2.2613 -0.7529 -2.3157
  578MOL0     H79744  13.787  10.591   8.121 -0.2372  0.3552 -0.0922
  578MOL0     H79745  13.548  10.502   8.076 -1.3422 -0.4626 -2.8226
  578MOL0     H79746  13.195  10.612   7.916  1.0909 -0.9098 -0.0095
  578MOL0     H79747  12.952  10.610   7.918 -1.1129 -1.8860  0.8295
  578MOL0     H79748  11.462   9.549   7.390  1.7385  0.3560 -0.2544
  578MOL0     H79749  11.221   9.548   7.474 -2.3345 -0.8143 -0.1587
  578MOL0     H79750  10.946   9.247   7.711  1.7531  2.2533 -1.4167
  578MOL0     H79751  10.742   9.166   7.807  1.2963 -0.2673  1.8312
  578MOL0     H79752  10.425   9.487   7.787  0.4110  0.6076 -1.4932
  578MOL0     H79753  10.435   9.353   7.681  1.8623 -1.3951 -0.1071
  578MOL0     H79754  10.269   9.370   7.944 -2.0240  0.0536 -0.8469
  578MOL0     H79755  10.298   9.220   7.846 -0.9682  0.0298  1.6018
  578MOL0     H79756  10.163   9.471   7.728 -1.2349 -0.4629 -0.6595
  578MOL0     H79757  10.184   9.318   7.657  0.0354 -1.8368  0.4531
  578MOL0     H79758  10.010   9.350   7.903 -3.8887 -0.7345 -0.5901
  578MOL0     H79759  10.026   9.213   7.784 -0.3140  0.4325  0.8666
  578MOL0     H79760   9.820   9.464   7.522  1.1350 -1.6492 -1.2515
  578MOL0     H79761  10.620   9.584   7.857  0.8518  1.0813 -2.9444
  578MOL0     H79762  10.774   9.744   7.872 -1.2892 -0.7830 -0.1177
  578MOL0     H79763  10.925   9.739   7.782  1.1333 -2.3552  1.4729
  578MOL0     H79764  10.766   9.741   7.696 -1.9965 -1.5730  0.1825
  579MOL0     O79765   5.301   5.341   3.716  0.2947 -0.4699  0.3304
  579MOL0     C79766   5.259   5.345   3.828  0.6690 -0.0380  0.2257
  579MOL0     O79767   5.335   5.364   3.934  0.0176  0.7065 -0.4684
  579MOL0     C79768   5.472   5.363   3.920  0.6943 -0.3450 -0.4974
  579MOL0     C79769   5.551   5.485   3.920 -0.3379 -0.3873 -0.4252
  579MOL0     C79770   5.686   5.482   3.908  0.2549  0.5787 -0.0197
  579MOL0     C79771   5.757   5.351   3.903 -0.4236 -0.7309  0.4467
  579MOL0     O79772   5.889   5.326   3.901  0.4658 -0.5247  1.0664
  579MOL0     C79773   5.979   5.429   3.938  0.5028  0.0606  0.0531
  579MOL0     C79774   5.989   5.419   4.087 -1.1544  0.0245 -0.0742
  579MOL0     C79775   6.104   5.496   4.170 -0.0949 -0.2736 -0.1548
  579MOL0     C79776   6.081   5.474   4.322 -0.1042  0.4597 -0.7569
  579MOL0     C79777   6.199   5.523   4.409  1.0993  0.6780 -0.2644
  579MOL0     C79778   6.196   5.490   4.564 -1.0314  0.2494 -0.1147
  579MOL0     C79779   6.068   5.484   4.642 -0.0590 -0.1537 -0.4055
  579MOL0     C79780   6.084   5.460   4.788  0.0701 -0.2291 -0.5668
  579MOL0     N79781   6.171   5.349   4.816  0.2435  0.3960  0.9121
  579MOL0     C79782   6.289   5.368   4.881 -0.9552 -0.1661  0.5544
  579MOL0     C79783   6.353   5.244   4.884 -0.0935  0.1167 -0.7553
  579MOL0     C79784   6.499   5.225   4.906  0.4266  0.0011 -0.7734
  579MOL0     C79785   6.587   5.317   4.817  0.0866 -0.3397  0.1628
  579MOL0     C79786   6.578   5.268   4.666 -0.1788 -1.2706  1.1318
  579MOL0     C79787   6.599   5.386   4.570  0.0022 -0.1947  0.0513
  579MOL0     O79788   6.738   5.423   4.558  0.6235 -0.3139  0.0432
  579MOL0     C79789   6.814   5.354   4.471 -0.0872  0.4872 -0.2822
  579MOL0     C79790   6.940   5.394   4.446 -0.0317  0.9582 -1.0945
  579MOL0     C79791   7.037   5.335   4.367 -0.5403  0.1598  0.2954
  579MOL0     C79792   7.171   5.411   4.360 -0.0083  0.9974  1.2363
  579MOL0     C79793   7.005   5.209   4.310  0.9734  0.5071  0.4248
  579MOL0     C79794   7.086   5.137   4.212  0.0501  0.1055 -0.7889
  579MOL0     O79795   7.193   5.201   4.158 -0.1590 -0.2896 -0.2263
  579MOL0     C79796   7.253   5.141   4.056 -0.0914 -0.7841  0.0852
  579MOL0     C79797   7.189   5.159   3.926  0.1849 -0.5306 -1.2188
  579MOL0     C79798   7.259   5.101   3.813  0.3036 -1.0145  0.2914
  579MOL0     C79799   7.381   5.049   3.823  0.3721  0.3365  0.0237
  579MOL0     O79800   7.434   5.012   3.703  0.0020  0.5422  0.6076
  579MOL0     C79801   7.444   4.875   3.672  0.2135  0.4776  0.6489
  579MOL0     C79802   7.444   4.857   3.520  0.0405  0.5203 -0.2753
  579MOL0     C79803   7.326   4.904   3.437  0.1044  0.5976  0.4808
  579MOL0     C79804   7.193   4.852   3.487  0.3602  0.3910 -0.2676
  579MOL0     C79805   7.083   4.908   3.395  0.3227 -0.2961  0.0443
  579MOL0     C79806   6.947   4.846   3.433  0.0703  0.1770 -0.6627
  579MOL0     C79807   6.831   4.882   3.345  0.0754 -0.5676 -0.4914
  579MOL0     C79808   6.703   4.800   3.384  0.3887 -0.7612  0.6880
  579MOL0    Cl79809   6.674   4.811   3.565 -0.0109 -0.3302 -0.0308
  579MOL0     C79810   7.438   5.025   3.942 -0.1079  0.0775 -0.3779
  579MOL0     C79811   7.376   5.069   4.061  0.4942  0.2216  0.1022
  579MOL0     O79812   7.058   5.020   4.189  0.3216 -0.3394  0.1260
  579MOL0     C79813   6.876   5.164   4.334  0.0741 -0.0453  0.3488
  579MOL0     C79814   6.776   5.228   4.405  0.5147 -1.0785 -0.2911
  579MOL0     N79815   6.272   5.149   4.821  0.2952  0.1888 -0.3271
  579MOL0     N79816   6.163   5.214   4.779  0.2068  0.4009 -0.4017
  579MOL0     C79817   5.676   5.237   3.890 -0.8275  0.5910 -0.1457
  579MOL0     C79818   5.538   5.243   3.911  0.5772  0.8579 -0.4984
  579MOL0     C79819   5.112   5.336   3.851 -0.3015  0.4169  0.4943
  579MOL0     C79820   5.030   5.434   3.778 -0.3227 -0.6712 -0.4922
  579MOL0     C79821   4.892   5.433   3.786 -0.5274 -0.2207 -0.2062
  579MOL0     C79822   4.834   5.352   3.881  0.3126  0.0601 -1.1024
  579MOL0     O79823   4.699   5.372   3.892 -0.2416 -0.2876 -0.1077
  579MOL0     C79824   4.624   5.327   3.999 -0.7100  0.4385 -0.1626
  579MOL0     C79825   4.481   5.312   3.962 -0.3200 -0.1266  0.5422
  579MOL0     C79826   4.418   5.181   4.017 -0.5056  0.7977  0.2582
  579MOL0     C79827   4.263   5.179   4.016 -0.8694  0.1094 -0.5089
  579MOL0     C79828   4.187   5.287   4.079 -0.2789 -0.4828 -0.6654
  579MOL0     C79829   4.130   5.377   4.128  0.1613 -0.8475  0.7754
  579MOL0     C79830   4.904   5.264   3.964 -0.1605 -0.2028 -0.4394
  579MOL0     C79831   5.049   5.258   3.954  0.3543 -0.1563  0.4421
  579MOL0     C79832   5.118   5.163   4.045 -0.6865  0.8658  0.0447
  579MOL0     H79833   5.499   5.579   3.938  1.7321  0.7360  0.0168
  579MOL0     H79834   5.727   5.582   3.912  0.3488  0.5673 -0.5365
  579MOL0     H79835   5.957   5.528   3.899  2.4288 -0.3704 -2.3881
  579MOL0     H79836   6.073   5.409   3.885 -0.0920  0.5463 -1.2217
  579MOL0     H79837   5.900   5.458   4.136 -1.3714  0.7378 -1.0265
  579MOL0     H79838   6.016   5.315   4.110 -0.7334 -0.7406 -3.4609
  579MOL0     H79839   6.201   5.455   4.141  0.8166  1.6970 -0.0726
  579MOL0     H79840   6.117   5.605   4.167  1.6075 -0.4366 -3.3201
  579MOL0     H79841   5.987   5.519   4.354 -0.3580  0.2029 -1.1322
  579MOL0     H79842   6.073   5.366   4.343  1.7575  0.0243 -2.0329
  579MOL0     H79843   6.200   5.630   4.389  0.8632 -0.0015 -5.1206
  579MOL0     H79844   6.295   5.483   4.376  1.3734  1.0792  0.0384
  579MOL0     H79845   6.239   5.391   4.581  0.2571  0.9833  1.1516
  579MOL0     H79846   6.275   5.552   4.607  1.6352 -2.1056 -1.2666
  579MOL0     H79847   6.001   5.406   4.604 -1.0866  0.2892  0.4592
  579MOL0     H79848   6.008   5.575   4.639 -0.2847 -0.0056  3.5119
  579MOL0     H79849   6.131   5.546   4.839 -0.8237 -0.1263  0.1038
  579MOL0     H79850   5.987   5.445   4.835  0.8828 -2.5274  0.5044
  579MOL0     H79851   6.334   5.462   4.910  2.9625 -1.6021 -0.2197
  579MOL0     H79852   6.530   5.121   4.888  0.6966 -0.0514 -0.0387
  579MOL0     H79853   6.514   5.246   5.012  0.2559 -1.4707 -0.4368
  579MOL0     H79854   6.556   5.421   4.833  0.2760 -0.4424  1.3454
  579MOL0     H79855   6.692   5.318   4.848  0.8431  0.3809 -2.2441
  579MOL0     H79856   6.651   5.188   4.650 -0.6141 -1.3460 -0.7279
  579MOL0     H79857   6.481   5.223   4.645 -0.9323 -0.1482  2.0692
  579MOL0     H79858   6.551   5.377   4.472  0.6561  2.0956 -0.5593
  579MOL0     H79859   6.546   5.469   4.619  1.4267 -0.6685  2.5721
  579MOL0     H79860   6.979   5.484   4.490  0.4109 -0.5661  1.8480
  579MOL0     H79861   7.181   5.486   4.439 -0.7446  2.2396  0.2028
  579MOL0     H79862   7.178   5.469   4.268  1.3307  1.4665  1.6112
  579MOL0     H79863   7.253   5.339   4.365 -1.5709 -1.2995 -2.2360
  579MOL0     H79864   7.099   5.213   3.898 -0.9229 -1.4933  0.3107
  579MOL0     H79865   7.224   5.117   3.712 -1.3148  0.2420  0.9972
  579MOL0     H79866   7.533   4.831   3.717 -0.9986  1.5657  4.5155
  579MOL0     H79867   7.358   4.817   3.706 -0.5601 -1.0243 -3.3484
  579MOL0     H79868   7.537   4.911   3.498  0.7535  0.0067  1.3079
  579MOL0     H79869   7.466   4.752   3.498  0.2032  0.8631 -1.8353
  579MOL0     H79870   7.340   4.865   3.336  3.5621 -0.8945  1.4007
  579MOL0     H79871   7.327   5.012   3.452  2.5990  0.3270  3.0991
  579MOL0     H79872   7.177   4.883   3.591 -2.6663 -0.1611 -0.4633
  579MOL0     H79873   7.202   4.743   3.496  1.2829  0.2538 -2.2754
  579MOL0     H79874   7.083   5.018   3.393  0.3559 -0.2350  1.8606
  579MOL0     H79875   7.116   4.881   3.294 -0.4958 -1.4484  0.0625
  579MOL0     H79876   6.919   4.857   3.539 -2.0985 -3.0646 -0.7645
  579MOL0     H79877   6.960   4.739   3.417 -0.5318 -0.0004 -0.0525
  579MOL0     H79878   6.838   4.870   3.237  0.8958  1.2458 -0.6711
  579MOL0     H79879   6.817   4.988   3.368 -1.0911 -0.5899 -1.0049
  579MOL0     H79880   6.711   4.696   3.349 -4.5040 -1.0823 -0.0789
  579MOL0     H79881   6.627   4.849   3.323  1.1303 -0.4727 -0.0413
  579MOL0     H79882   7.542   4.992   3.950  0.1024  0.7446 -0.3316
  579MOL0     H79883   7.427   5.053   4.155 -1.8835  0.4679  1.5235
  579MOL0     H79884   6.849   5.066   4.295 -4.5746  0.3635  1.8455
  579MOL0     H79885   6.686   5.182   4.444  0.1141  1.4010  1.9981
  579MOL0     H79886   5.725   5.140   3.885 -0.4063  0.8077 -0.2540
  579MOL0     H79887   5.476   5.153   3.904 -3.3834  3.2901 -0.0133
  579MOL0     H79888   5.068   5.508   3.707  2.6032  0.9127  2.4250
  579MOL0     H79889   4.832   5.507   3.735  1.2066  0.0645 -1.9408
  579MOL0     H79890   4.655   5.223   4.015 -0.7344  0.7394  2.2657
  579MOL0     H79891   4.639   5.383   4.092  1.1303 -2.5933  1.5609
  579MOL0     H79892   4.467   5.312   3.853 -0.0467 -0.2814  0.5059
  579MOL0     H79893   4.425   5.402   3.991 -0.5698 -0.0064 -0.2642
  579MOL0     H79894   4.461   5.106   3.951 -0.4142  1.2090 -0.1563
  579MOL0     H79895   4.447   5.153   4.118  1.6820 -1.7457 -0.9597
  579MOL0     H79896   4.229   5.083   4.057 -0.3602  0.3426  0.5071
  579MOL0     H79897   4.236   5.169   3.911  0.9267 -2.2604 -0.8370
  579MOL0     H79898   4.094   5.456   4.191  0.0157  1.1157 -1.6353
  579MOL0     H79899   4.851   5.207   4.040  0.3003  0.1688  0.1684
  579MOL0     H79900   5.172   5.088   3.986  0.6097  0.2856  1.8831
  579MOL0     H79901   5.184   5.223   4.109 -0.4623  0.9737 -0.2831
  579MOL0     H79902   5.040   5.115   4.105 -0.9670  2.1373  0.7488
  580MOL0     O79903   9.855   8.428   5.533  0.3664  0.4661 -0.0810
  580MOL0     C79904   9.914   8.384   5.637 -0.5623  0.2958 -0.3466
  580MOL0     O79905  10.014   8.290   5.642 -0.1554 -0.1174  0.2024
  580MOL0     C79906  10.104   8.295   5.536  0.0940  0.7594 -0.0873
  580MOL0     C79907  10.090   8.204   5.423 -0.2135 -0.1512 -0.2738
  580MOL0     C79908  10.189   8.213   5.331 -0.8208 -0.6464 -0.4452
  580MOL0     C79909  10.290   8.308   5.328 -0.5595  0.1586  0.2127
  580MOL0     O79910  10.379   8.323   5.223  0.7438  0.1644  0.0444
  580MOL0     C79911  10.316   8.344   5.091  0.0090  0.8398 -0.2526
  580MOL0     C79912  10.375   8.460   5.016 -0.7192 -0.5906  0.2022
  580MOL0     C79913  10.516   8.431   4.969  0.6450  0.8681  0.0798
  580MOL0     C79914  10.520   8.381   4.820  0.0505  0.2244 -0.6261
  580MOL0     C79915  10.668   8.364   4.773 -0.8756  0.5657 -0.2801
  580MOL0     C79916  10.688   8.328   4.622  0.0140  0.0709 -0.3683
  580MOL0     C79917  10.803   8.403   4.557  0.3962  0.0801 -0.0957
  580MOL0     C79918  10.942   8.334   4.562  0.2209  0.0005  0.1254
  580MOL0     N79919  11.025   8.419   4.480  0.0928 -0.1920 -0.2239
  580MOL0     C79920  11.128   8.490   4.541  0.0609  0.7956  1.0636
  580MOL0     C79921  11.215   8.513   4.436  0.2136 -0.1353  0.1206
  580MOL0     C79922  11.346   8.581   4.457  0.0473  0.0305  0.9369
  580MOL0     C79923  11.460   8.492   4.488 -0.5903  0.2847  0.8013
  580MOL0     C79924  11.496   8.407   4.363  0.3073 -0.1921 -1.0224
  580MOL0     C79925  11.583   8.289   4.387 -0.1460  0.7933 -0.0803
  580MOL0     O79926  11.705   8.338   4.450  0.1156 -0.6649 -0.3240
  580MOL0     C79927  11.819   8.264   4.455  0.2043  0.2799 -0.0330
  580MOL0     C79928  11.939   8.320   4.483 -0.4964 -0.2605  0.6366
  580MOL0     C79929  12.063   8.258   4.470  0.2374  0.2490 -0.2754
  580MOL0     C79930  12.192   8.342   4.500 -0.2125  0.8588  0.1229
  580MOL0     C79931  12.063   8.114   4.450 -0.1061 -0.1415  0.6596
  580MOL0     C79932  12.181   8.031   4.439  0.1052  0.1407 -0.0161
  580MOL0     O79933  12.171   7.912   4.368 -0.6295  0.8571  0.0683
  580MOL0     C79934  12.287   7.859   4.307  0.6721 -0.3082  0.3343
  580MOL0     C79935  12.278   7.730   4.251  1.2281 -0.9363 -0.3033
  580MOL0     C79936  12.380   7.666   4.176 -0.3264 -0.1327  0.4262
  580MOL0     C79937  12.492   7.744   4.143 -1.1730 -0.9308 -0.6686
  580MOL0     O79938  12.594   7.666   4.088 -0.4736 -0.8008  0.5796
  580MOL0     C79939  12.711   7.729   4.033 -0.5552 -0.3750 -0.6619
  580MOL0     C79940  12.763   7.629   3.927  0.1766  0.9533  0.1285
  580MOL0     C79941  12.884   7.702   3.857 -0.8125 -0.1970  0.7561
  580MOL0     C79942  12.921   7.599   3.747 -0.2764 -0.0790  0.1105
  580MOL0     C79943  13.062   7.622   3.690  0.0113 -0.1177 -0.9670
  580MOL0     C79944  13.176   7.539   3.754  0.4259 -0.1002  0.1294
  580MOL0     C79945  13.314   7.583   3.704 -1.2372 -0.6751  0.9650
  580MOL0     C79946  13.414   7.487   3.766 -0.0512  0.4651 -0.2317
  580MOL0    Cl79947  13.571   7.550   3.737  0.0698  0.1979 -0.0920
  580MOL0     C79948  12.504   7.872   4.200 -0.2313  0.5467  0.3959
  580MOL0     C79949  12.404   7.930   4.267  0.6600  0.0890  0.1725
  580MOL0     O79950  12.277   8.068   4.501 -0.2108  0.5667 -0.4523
  580MOL0     C79951  11.938   8.058   4.426 -0.4583 -0.2585 -0.5845
  580MOL0     C79952  11.825   8.132   4.430 -0.5924 -0.0389  0.6130
  580MOL0     N79953  11.164   8.482   4.316  0.4355  0.3478  0.0482
  580MOL0     N79954  11.045   8.434   4.341  0.3813 -0.0802 -0.2003
  580MOL0     C79955  10.299   8.398   5.430  0.2240  0.2182  0.8593
  580MOL0     C79956  10.200   8.390   5.534 -0.2708 -0.3918  0.9073
  580MOL0     C79957   9.849   8.403   5.760  0.2693 -0.8795  0.2771
  580MOL0     C79958   9.709   8.401   5.768  0.4820 -0.7326  0.4197
  580MOL0     C79959   9.633   8.425   5.885 -0.1476  0.0513 -0.2014
  580MOL0     C79960   9.702   8.422   6.006  0.2929 -0.2095 -0.2965
  580MOL0     O79961   9.642   8.415   6.135  0.4031  0.3031  0.4449
  580MOL0     C79962   9.513   8.354   6.136  0.0401  0.4951  0.1522
  580MOL0     C79963   9.482   8.326   6.287 -0.1489 -0.1529  0.1256
  580MOL0     C79964   9.565   8.215   6.348  0.0505 -0.3030 -0.6550
  580MOL0     C79965   9.690   8.267   6.431  0.6147 -0.1993 -0.1834
  580MOL0     C79966   9.650   8.302   6.568  0.2156  0.3414  0.6570
  580MOL0     C79967   9.615   8.358   6.664 -0.1175  0.3480  0.1789
  580MOL0     C79968   9.844   8.436   6.004 -0.3620 -0.5657  0.4343
  580MOL0     C79969   9.918   8.426   5.881  0.0833  0.8644 -0.8835
  580MOL0     C79970  10.068   8.456   5.889 -0.2887 -0.2048 -0.6772
  580MOL0     H79971  10.007   8.135   5.419 -0.2676 -0.4499  3.1118
  580MOL0     H79972  10.188   8.148   5.245  2.4470 -1.1674 -0.2261
  580MOL0     H79973  10.213   8.376   5.111  0.0753  2.7897 -2.5921
  580MOL0     H79974  10.309   8.250   5.036 -0.5082 -0.0673  1.3022
  580MOL0     H79975  10.317   8.487   4.928  1.6421 -1.9055 -1.9015
  580MOL0     H79976  10.390   8.545   5.084  2.1140 -1.8048  1.2721
  580MOL0     H79977  10.564   8.529   4.980 -0.3659  1.2259  1.6152
  580MOL0     H79978  10.558   8.361   5.041  0.6795  0.3248 -0.4690
  580MOL0     H79979  10.463   8.287   4.818 -1.7094  1.1932  0.8120
  580MOL0     H79980  10.464   8.449   4.755  0.1027  0.9565  0.0745
  580MOL0     H79981  10.719   8.288   4.833  0.6511  3.7438  2.7524
  580MOL0     H79982  10.718   8.458   4.797  2.2366 -0.5498 -1.8892
  580MOL0     H79983  10.698   8.220   4.613  1.3638  0.2572 -1.5547
  580MOL0     H79984  10.597   8.368   4.576  0.5827  3.2543  0.9698
  580MOL0     H79985  10.802   8.505   4.597 -2.9323  0.0500  0.1930
  580MOL0     H79986  10.780   8.402   4.450  0.9277 -0.2385 -0.2091
  580MOL0     H79987  10.977   8.331   4.665  0.5691  2.3013  0.1229
  580MOL0     H79988  10.935   8.237   4.512  0.4991 -0.3854  0.8225
  580MOL0     H79989  11.131   8.523   4.645 -0.2679  5.2616 -0.1070
  580MOL0     H79990  11.330   8.662   4.529  0.1231  0.8019  0.0999
  580MOL0     H79991  11.367   8.630   4.362 -1.3042 -0.2695  0.4504
  580MOL0     H79992  11.548   8.554   4.507 -0.2462  0.3644 -0.8995
  580MOL0     H79993  11.433   8.426   4.571  1.5349  0.2106  1.5055
  580MOL0     H79994  11.404   8.376   4.313 -0.8461 -1.7152  1.7674
  580MOL0     H79995  11.553   8.462   4.288  3.5623 -1.7940  0.0947
  580MOL0     H79996  11.547   8.205   4.446  0.8205 -0.2753 -0.9590
  580MOL0     H79997  11.611   8.253   4.287 -0.3035  1.5175 -0.3933
  580MOL0     H79998  11.925   8.421   4.519 -1.5634 -0.9493  2.2371
  580MOL0     H79999  12.210   8.362   4.606 -2.1293  1.5873  0.3672
  580MOL0     H80000  12.186   8.434   4.441 -1.5030 -0.0522 -1.2429
  580MOL0     H80001  12.279   8.289   4.461 -0.9417 -1.8910  1.9509
  580MOL0     H80002  12.187   7.675   4.273  0.0247  1.5383  1.4438
  580MOL0     H80003  12.369   7.561   4.151  1.0095 -0.5111  1.3008
  580MOL0     H80004  12.690   7.830   3.999 -1.0524 -0.4260 -0.5127
  580MOL0     H80005  12.792   7.737   4.106 -2.5439 -0.8061  1.7290
  580MOL0     H80006  12.787   7.531   3.969 -0.3128  0.5743 -0.4597
  580MOL0     H80007  12.683   7.611   3.855 -0.1625 -1.5324  1.0250
  580MOL0     H80008  12.970   7.718   3.923 -0.6870  4.0305 -0.1422
  580MOL0     H80009  12.866   7.806   3.830  1.8400  0.4129  1.0713
  580MOL0     H80010  12.852   7.617   3.665  2.2568 -0.9390 -2.3613
  580MOL0     H80011  12.902   7.501   3.792  1.1700 -0.9493 -1.0737
  580MOL0     H80012  13.048   7.608   3.582 -4.0353 -1.2105 -0.4720
  580MOL0     H80013  13.091   7.727   3.700  2.5041 -0.8093 -0.3577
  580MOL0     H80014  13.165   7.435   3.724  0.9570 -0.1012 -0.0553
  580MOL0     H80015  13.179   7.544   3.863  0.2881  1.3680  0.0925
  580MOL0     H80016  13.348   7.684   3.733 -0.5028  0.0143 -1.9804
  580MOL0     H80017  13.323   7.569   3.596 -3.0979 -0.9125  0.8103
  580MOL0     H80018  13.410   7.385   3.725  5.2274 -0.2235  0.1830
  580MOL0     H80019  13.387   7.485   3.872 -0.3874  2.7017 -0.2362
  580MOL0     H80020  12.597   7.921   4.173  0.8961 -1.9828 -0.6371
  580MOL0     H80021  12.405   8.035   4.295  4.7572 -0.1084  1.5480
  580MOL0     H80022  11.920   7.955   4.397 -1.5602 -0.0238 -0.7928
  580MOL0     H80023  11.740   8.077   4.390  1.2456 -0.2699 -3.4640
  580MOL0     H80024  10.377   8.472   5.414  1.1221 -1.1015 -1.2655
  580MOL0     H80025  10.219   8.457   5.617  0.2059  0.9946 -0.2609
  580MOL0     H80026   9.653   8.375   5.679  1.0204  0.2044 -0.2105
  580MOL0     H80027   9.525   8.419   5.876 -0.5459  1.1717  2.7536
  580MOL0     H80028   9.438   8.412   6.080  0.8793  1.0438 -0.4314
  580MOL0     H80029   9.514   8.254   6.092 -1.4562  0.1019  0.9471
  580MOL0     H80030   9.379   8.290   6.295  0.4716 -2.7056 -1.9780
  580MOL0     H80031   9.486   8.421   6.341 -4.7008  0.2103  0.1879
  580MOL0     H80032   9.502   8.159   6.418 -1.3117 -0.3442 -1.8761
  580MOL0     H80033   9.588   8.143   6.268 -0.6470 -0.6782 -0.5240
  580MOL0     H80034   9.721   8.361   6.384  0.7704 -0.7522 -1.1960
  580MOL0     H80035   9.770   8.193   6.441 -0.0732 -0.6167  3.9062
  580MOL0     H80036   9.583   8.404   6.756 -0.2019 -1.0664  0.8719
  580MOL0     H80037   9.896   8.457   6.097  0.4437 -0.9825  0.0906
  580MOL0     H80038  10.127   8.366   5.874 -0.7322 -1.1602  2.6713
  580MOL0     H80039  10.100   8.533   5.817  2.1924 -0.8498 -0.3549
  580MOL0     H80040  10.099   8.485   5.989 -0.7575  0.0284 -0.5963
  581MOL0     O80041  10.252   7.954   5.057  0.1587  0.2923  0.4045
  581MOL0     C80042  10.338   7.886   5.113 -0.5466 -0.6784 -0.8083
  581MOL0     O80043  10.447   7.825   5.060  0.0003  0.0746  0.0738
  581MOL0     C80044  10.501   7.869   4.943  0.3030  0.3324 -0.2572
  581MOL0     C80045  10.589   7.781   4.881 -0.3844  0.2114  0.0241
  581MOL0     C80046  10.658   7.804   4.760  0.4774 -0.3397  1.0270
  581MOL0     C80047  10.637   7.931   4.703  0.1199 -1.0608 -0.5180
  581MOL0     O80048  10.691   7.978   4.586  0.4921  0.0283  0.2697
  581MOL0     C80049  10.716   7.869   4.492  0.6263  0.9482 -0.5465
  581MOL0     C80050  10.869   7.824   4.503  0.0207  0.3553 -0.3257
  581MOL0     C80051  10.953   7.922   4.420 -0.3878 -0.1193  0.0430
  581MOL0     C80052  11.109   7.928   4.448  0.4641  0.6150 -0.1390
  581MOL0     C80053  11.129   7.985   4.591 -0.4561  0.9497 -0.1587
  581MOL0     C80054  11.272   8.036   4.608 -0.0774 -0.3866  0.2781
  581MOL0     C80055  11.366   7.914   4.624 -0.6945  0.1418 -0.6020
  581MOL0     C80056  11.510   7.959   4.664  0.5831  0.8696 -0.4327
  581MOL0     N80057  11.602   7.856   4.618 -0.2091  0.2098 -0.1414
  581MOL0     C80058  11.691   7.782   4.700 -0.2148  0.7857 -0.5257
  581MOL0     C80059  11.774   7.734   4.607 -0.6126 -0.5686 -0.3803
  581MOL0     C80060  11.897   7.658   4.648  1.4534  0.4096 -0.3821
  581MOL0     C80061  12.014   7.753   4.666 -0.9855 -1.0558  0.1045
  581MOL0     C80062  12.144   7.686   4.620  0.3894  0.3448  0.0842
  581MOL0     C80063  12.277   7.733   4.677  0.2246  0.5003  0.3633
  581MOL0     O80064  12.356   7.617   4.721 -0.1434  0.1831 -0.2035
  581MOL0     C80065  12.456   7.568   4.642 -0.2727  0.5750 -0.1154
  581MOL0     C80066  12.526   7.460   4.693  0.0894  0.6932 -0.2620
  581MOL0     C80067  12.620   7.388   4.623  0.1334 -0.4017 -0.4576
  581MOL0     C80068  12.668   7.261   4.674  0.2682  0.7005  0.2089
  581MOL0     C80069  12.650   7.434   4.494 -0.7547 -0.3794  0.0983
  581MOL0     C80070  12.745   7.369   4.401  0.5133 -0.0545 -0.2229
  581MOL0     O80071  12.734   7.395   4.260 -0.0281  0.4616  0.9155
  581MOL0     C80072  12.832   7.343   4.179 -0.3074 -0.3496  0.6705
  581MOL0     C80073  12.940   7.429   4.164 -0.8999  0.1472 -0.1586
  581MOL0     C80074  13.046   7.392   4.084  0.7623  0.2509  0.7317
  581MOL0     C80075  13.050   7.275   4.011  0.5226  0.6961  0.0058
  581MOL0     O80076  13.163   7.237   3.946  0.2513  0.3208  0.4503
  581MOL0     C80077  13.205   7.102   3.961 -0.1579  0.5467  1.1140
  581MOL0     C80078  13.343   7.113   4.037  0.9965  0.3524  0.0644
  581MOL0     C80079  13.383   6.980   4.088  0.0168  0.5150 -0.4746
  581MOL0     C80080  13.525   6.989   4.140  0.0564  0.1283  0.4449
  581MOL0     C80081  13.565   6.869   4.221  0.8225 -0.6995  0.5556
  581MOL0     C80082  13.714   6.856   4.252  0.1427 -0.3815 -0.5801
  581MOL0     C80083  13.767   6.715   4.280 -0.1119 -0.1923  0.5636
  581MOL0     C80084  13.681   6.620   4.364  0.5643 -0.3860  0.8141
  581MOL0    Cl80085  13.772   6.480   4.399 -0.1317  0.0199 -0.1992
  581MOL0     C80086  12.928   7.205   3.995 -0.7120 -0.5896 -0.1918
  581MOL0     C80087  12.822   7.239   4.088  1.0376  0.1014 -0.1532
  581MOL0     O80088  12.847   7.330   4.458 -0.8892  0.4096 -0.2645
  581MOL0     C80089  12.584   7.543   4.442 -0.2494 -0.7157  0.6914
  581MOL0     C80090  12.484   7.603   4.515 -0.0462  0.0159 -0.5152
  581MOL0     N80091  11.737   7.757   4.477 -0.1963  0.2873 -0.7238
  581MOL0     N80092  11.641   7.838   4.492 -0.6608  0.3267  0.6186
  581MOL0     C80093  10.547   8.016   4.756  0.4211 -0.4720 -0.3251
  581MOL0     C80094  10.490   7.996   4.884  0.2997 -0.7922 -0.4901
  581MOL0     C80095  10.329   7.892   5.260  0.2253  0.0490 -0.2987
  581MOL0     C80096  10.451   7.926   5.334 -0.3209 -0.0185  0.6285
  581MOL0     C80097  10.456   7.946   5.469 -1.1577 -0.0800 -0.3468
  581MOL0     C80098  10.340   7.936   5.548  0.8550 -0.6792 -0.1832
  581MOL0     O80099  10.346   7.964   5.680  0.3527  1.0034  0.3574
  581MOL0     C80100  10.220   7.973   5.757  0.0351  0.6271 -0.4795
  581MOL0     C80101  10.228   7.975   5.908 -0.4715 -0.7452  0.4492
  581MOL0     C80102  10.358   7.910   5.976  1.0197 -0.3003  0.6913
  581MOL0     C80103  10.361   7.762   6.003 -0.1702  0.7647 -0.7636
  581MOL0     C80104  10.339   7.680   5.879 -0.1910 -0.3482 -0.0519
  581MOL0     C80105  10.332   7.618   5.770  0.2923  0.1188 -0.4093
  581MOL0     C80106  10.219   7.904   5.475  0.1294  0.5947 -0.2877
  581MOL0     C80107  10.215   7.876   5.337  1.4662  0.4049  0.5413
  581MOL0     C80108  10.082   7.837   5.275  0.5421  0.2191  0.5846
  581MOL0     H80109  10.603   7.690   4.938 -1.4386  0.3306  0.5030
  581MOL0     H80110  10.728   7.731   4.721 -0.1385 -1.0071  1.1349
  581MOL0     H80111  10.706   7.910   4.392  2.0941 -1.4605 -1.7873
  581MOL0     H80112  10.657   7.778   4.503 -0.0802  1.2060 -1.9847
  581MOL0     H80113  10.895   7.833   4.608 -2.3890 -1.2076  0.4901
  581MOL0     H80114  10.893   7.724   4.466 -0.6615  1.0530 -2.9255
  581MOL0     H80115  10.939   7.887   4.317  0.2777 -2.4123  0.6630
  581MOL0     H80116  10.909   8.022   4.432 -1.1071 -0.4082 -0.1001
  581MOL0     H80117  11.162   7.834   4.431 -0.3533  0.5052 -2.5028
  581MOL0     H80118  11.148   8.003   4.378  1.3109 -0.0710 -0.4140
  581MOL0     H80119  11.101   7.909   4.665 -0.1505 -0.9303 -1.8729
  581MOL0     H80120  11.063   8.071   4.604 -1.9548 -0.2602  0.5940
  581MOL0     H80121  11.301   8.105   4.529  1.1438 -2.7285 -1.4376
  581MOL0     H80122  11.290   8.079   4.707  0.7373 -0.9383  0.3896
  581MOL0     H80123  11.369   7.863   4.527 -0.0336  2.3251 -1.8038
  581MOL0     H80124  11.329   7.841   4.695  0.9781  0.7783  1.0101
  581MOL0     H80125  11.533   8.063   4.637 -1.0032  1.4774  0.4300
  581MOL0     H80126  11.520   7.968   4.772  0.3086 -0.6875 -0.2566
  581MOL0     H80127  11.698   7.777   4.808 -1.7095  0.1161 -0.4373
  581MOL0     H80128  11.911   7.591   4.563  1.0197  0.3666 -0.4233
  581MOL0     H80129  11.881   7.591   4.733  0.2943 -1.8258 -2.2659
  581MOL0     H80130  11.997   7.843   4.605 -0.8580 -0.5281  0.8370
  581MOL0     H80131  12.021   7.781   4.771  0.8038  1.6134 -0.6371
  581MOL0     H80132  12.143   7.582   4.652  3.7428  0.4358  0.9089
  581MOL0     H80133  12.140   7.681   4.510 -1.0191  2.5008 -0.0132
  581MOL0     H80134  12.337   7.794   4.608  2.8272 -1.0343  1.1041
  581MOL0     H80135  12.267   7.799   4.763 -0.8625  0.1121  0.5476
  581MOL0     H80136  12.512   7.416   4.791 -1.1047  0.9664 -0.3043
  581MOL0     H80137  12.603   7.227   4.754 -0.0893  1.6686  0.3455
  581MOL0     H80138  12.772   7.262   4.709  1.2279 -1.4384 -2.2550
  581MOL0     H80139  12.670   7.186   4.594  4.4642  0.9960 -0.1941
  581MOL0     H80140  12.948   7.518   4.226  1.8170  0.3400 -0.6856
  581MOL0     H80141  13.137   7.451   4.079  1.3939 -0.7647 -0.0559
  581MOL0     H80142  13.128   7.047   4.017 -0.0719  0.1062  0.8094
  581MOL0     H80143  13.223   7.047   3.867 -0.6554 -0.4749  1.5922
  581MOL0     H80144  13.413   7.150   3.961 -0.4478 -1.4062 -2.2795
  581MOL0     H80145  13.326   7.187   4.116  0.1961  0.9923 -0.6850
  581MOL0     H80146  13.373   6.911   4.003 -2.2329 -0.0413  0.1710
  581MOL0     H80147  13.321   6.952   4.173  2.7626  0.0771  1.5104
  581MOL0     H80148  13.533   7.076   4.205 -0.4326  0.3278  0.2399
  581MOL0     H80149  13.602   6.996   4.063 -1.5626 -1.9139 -1.5012
  581MOL0     H80150  13.510   6.872   4.316 -1.3314  3.1185 -0.5940
  581MOL0     H80151  13.545   6.780   4.160 -0.2153  1.2311 -2.0849
  581MOL0     H80152  13.736   6.926   4.332  0.4982 -2.0157  0.8092
  581MOL0     H80153  13.766   6.884   4.160 -0.4870  1.6861 -0.3528
  581MOL0     H80154  13.868   6.712   4.322  1.8886  1.1125 -3.6150
  581MOL0     H80155  13.781   6.669   4.181 -0.4137 -1.6904  1.2011
  581MOL0     H80156  13.590   6.601   4.306  1.6179  0.8149 -1.3534
  581MOL0     H80157  13.660   6.665   4.461  1.0204 -0.3167  0.8832
  581MOL0     H80158  12.933   7.122   3.926 -1.5308 -1.3608  0.6405
  581MOL0     H80159  12.728   7.184   4.091  0.1796  1.5441  0.6329
  581MOL0     H80160  12.619   7.592   4.351 -1.4238  1.6084  1.4136
  581MOL0     H80161  12.435   7.690   4.472  0.7402 -0.2637 -2.0124
  581MOL0     H80162  10.517   8.103   4.700 -0.3906 -0.0612  0.7022
  581MOL0     H80163  10.432   8.079   4.923  1.2868 -1.2102  2.0274
  581MOL0     H80164  10.545   7.943   5.283 -0.6091  0.3304  0.1974
  581MOL0     H80165  10.546   7.985   5.515 -0.9190 -0.1217 -0.7688
  581MOL0     H80166  10.161   8.055   5.715  0.8399  2.1641  1.2405
  581MOL0     H80167  10.167   7.879   5.743 -1.1540  1.3840 -1.2304
  581MOL0     H80168  10.135   7.939   5.954 -1.7996  2.2344  0.3622
  581MOL0     H80169  10.224   8.081   5.939 -1.5648 -0.8062  0.5599
  581MOL0     H80170  10.445   7.930   5.912  2.5364 -1.3388  2.3254
  581MOL0     H80171  10.376   7.971   6.065  2.8175  1.6644 -0.9069
  581MOL0     H80172  10.281   7.737   6.073 -0.4282  1.0203 -0.9669
  581MOL0     H80173  10.457   7.734   6.047 -0.8630  2.7326  2.2679
  581MOL0     H80174  10.336   7.565   5.677  1.6842 -0.9154  0.2055
  581MOL0     H80175  10.126   7.903   5.531  0.6472 -2.3736  0.7236
  581MOL0     H80176  10.087   7.794   5.174 -2.0777 -1.6501  1.1502
  581MOL0     H80177  10.027   7.765   5.336 -0.1405  0.6446  0.4840
  581MOL0     H80178  10.018   7.925   5.269 -2.2276 -1.7492 -1.1980
  582MOL0     O80179   4.761   1.637  10.818 -0.8148 -0.3607 -0.7697
  582MOL0     C80180   4.707   1.600  10.920 -0.3817  0.2027  1.3129
  582MOL0     O80181   4.758   1.502  10.998 -1.1085 -0.0335  0.1117
  582MOL0     C80182   4.862   1.439  10.939  0.5636  0.5823 -0.2594
  582MOL0     C80183   4.993   1.491  10.951  0.1776  0.8343 -0.7204
  582MOL0     C80184   5.103   1.428  10.897 -0.4243 -0.6112 -0.0386
  582MOL0     C80185   5.085   1.317  10.821  0.6615  0.4202 -0.5120
  582MOL0     O80186   5.183   1.231  10.768 -0.3253 -0.4430  0.3924
  582MOL0     C80187   5.305   1.302  10.741 -0.4857 -0.7545 -0.1449
  582MOL0     C80188   5.368   1.233  10.622  0.3848 -0.4116 -0.1611
  582MOL0     C80189   5.511   1.282  10.597 -1.0761  0.7088 -0.6269
  582MOL0     C80190   5.559   1.217  10.464 -0.3803 -0.4125 -0.4299
  582MOL0     C80191   5.705   1.245  10.461 -0.7410  0.0063  0.4604
  582MOL0     C80192   5.763   1.189  10.336 -0.7570 -0.0941  0.3961
  582MOL0     C80193   5.906   1.240  10.307  0.6972  0.2077  0.1719
  582MOL0     C80194   5.995   1.290  10.428 -0.4651  0.6721  0.0059
  582MOL0     N80195   6.123   1.344  10.387 -0.7747  0.1249  0.2505
  582MOL0     C80196   6.172   1.475  10.395  0.8638 -0.4561  0.7165
  582MOL0     C80197   6.297   1.472  10.343  0.0433 -0.1573 -0.8938
  582MOL0     C80198   6.377   1.597  10.313 -0.0078  0.3969 -0.6046
  582MOL0     C80199   6.402   1.606  10.163 -1.0379  0.0469 -0.4126
  582MOL0     C80200   6.489   1.724  10.112 -0.8097 -0.4017  0.2304
  582MOL0     C80201   6.627   1.746  10.186  0.8563 -0.3068  0.0003
  582MOL0     O80202   6.691   1.620  10.201  0.4433  0.8495 -0.6284
  582MOL0     C80203   6.831   1.614  10.201 -0.3805  0.6693  0.3680
  582MOL0     C80204   6.914   1.725  10.231  0.7532 -0.8677 -0.8016
  582MOL0     C80205   7.055   1.706  10.252 -0.0898 -0.3430  0.2910
  582MOL0     C80206   7.134   1.843  10.269  0.9620 -0.7356  0.0097
  582MOL0     C80207   7.112   1.585  10.204 -0.5088 -0.3573  0.8331
  582MOL0     C80208   7.259   1.572  10.172 -0.3518  0.2132 -0.4885
  582MOL0     O80209   7.294   1.454  10.113  0.0490  0.3714  0.0246
  582MOL0     C80210   7.424   1.412  10.124  0.4116 -0.2607  0.1927
  582MOL0     C80211   7.493   1.420  10.008  0.4040  0.2634  0.2255
  582MOL0     C80212   7.635   1.388  10.007  0.2107  0.9736 -0.0870
  582MOL0     C80213   7.704   1.338  10.115  0.1803 -0.3657  0.3275
  582MOL0     O80214   7.824   1.292  10.105 -1.2503  0.2493  0.4731
  582MOL0     C80215   7.868   1.180  10.186  0.4356 -0.0094 -0.1165
  582MOL0     C80216   7.982   1.107  10.116  0.3663 -0.0703 -0.1542
  582MOL0     C80217   8.111   1.195  10.088  0.2240 -0.7566 -0.0973
  582MOL0     C80218   8.216   1.093  10.046 -0.2991  0.0204 -0.1529
  582MOL0     C80219   8.343   1.170  10.008 -0.0198  0.6419  0.1679
  582MOL0     C80220   8.462   1.075   9.973 -0.2344  0.7145  0.4852
  582MOL0     C80221   8.599   1.139   9.950  0.1296 -0.7412  0.3394
  582MOL0     C80222   8.706   1.047   9.895 -0.4003  0.0872 -0.2481
  582MOL0    Cl80223   8.718   0.885   9.988 -0.0497 -0.0446  0.0606
  582MOL0     C80224   7.623   1.320  10.236 -0.0129  0.0465  0.2006
  582MOL0     C80225   7.490   1.368  10.238  0.0141  0.3863  0.1719
  582MOL0     O80226   7.340   1.647  10.210 -0.6654 -0.1280 -0.0784
  582MOL0     C80227   7.025   1.484  10.169  0.2528 -0.6693 -0.1145
  582MOL0     C80228   6.887   1.491  10.177 -0.1431  0.3846  0.0305
  582MOL0     N80229   6.332   1.343  10.326  0.4593  0.1642 -0.3201
  582MOL0     N80230   6.231   1.268  10.354  0.2433 -0.0363 -0.5643
  582MOL0     C80231   4.950   1.271  10.797  0.3449 -0.0498 -0.8771
  582MOL0     C80232   4.834   1.329  10.854 -0.0294  0.2411 -0.2752
  582MOL0     C80233   4.589   1.678  10.945  0.4682 -0.1177 -0.3194
  582MOL0     C80234   4.584   1.803  10.883  0.6250 -0.0159  0.0535
  582MOL0     C80235   4.482   1.889  10.905  0.9107 -0.0554 -0.3475
  582MOL0     C80236   4.378   1.861  10.993  0.1406 -0.4528 -0.2297
  582MOL0     O80237   4.276   1.956  11.009  0.0208  0.5216  0.2373
  582MOL0     C80238   4.275   2.031  11.136  0.1223  0.0297  0.1662
  582MOL0     C80239   4.375   2.138  11.140  0.0087 -0.9501 -0.2900
  582MOL0     C80240   4.518   2.082  11.195  1.0179 -0.3206  0.0073
  582MOL0     C80241   4.591   2.177  11.294 -0.1626 -0.3153  0.0335
  582MOL0     C80242   4.626   2.306  11.216  0.3478 -0.5739 -0.7629
  582MOL0     C80243   4.644   2.409  11.157 -0.6822 -0.8137 -0.2726
  582MOL0     C80244   4.380   1.736  11.062  0.4736  0.3225 -0.0928
  582MOL0     C80245   4.480   1.641  11.040 -0.1216 -0.8668 -0.2045
  582MOL0     C80246   4.489   1.517  11.128  0.3664  0.3518  0.1724
  582MOL0     H80247   5.009   1.579  11.013 -0.4373  0.0543  0.5846
  582MOL0     H80248   5.197   1.472  10.928 -1.0101  0.6286  0.0218
  582MOL0     H80249   5.384   1.307  10.816 -1.1231  1.1131  0.4608
  582MOL0     H80250   5.279   1.406  10.720 -3.0529 -1.6496 -2.1484
  582MOL0     H80251   5.373   1.125  10.641  0.8050  0.2180  4.5261
  582MOL0     H80252   5.313   1.264  10.533  0.1614 -3.8761 -1.3899
  582MOL0     H80253   5.515   1.391  10.596 -0.2446  0.7290 -3.2013
  582MOL0     H80254   5.569   1.243  10.682 -0.8430 -1.3662 -1.6657
  582MOL0     H80255   5.540   1.109  10.462 -0.1978 -0.4563 -2.8177
  582MOL0     H80256   5.509   1.270  10.382  1.2997  4.8353  1.5289
  582MOL0     H80257   5.751   1.205  10.552  0.1124 -0.0591  0.0115
  582MOL0     H80258   5.714   1.354  10.459  0.2367 -0.0569  0.8958
  582MOL0     H80259   5.764   1.080  10.342 -0.4987 -0.0849  0.5341
  582MOL0     H80260   5.705   1.222  10.250  1.9572  1.0051 -1.1291
  582MOL0     H80261   5.903   1.327  10.241  0.8089  0.7149  0.8224
  582MOL0     H80262   5.956   1.165  10.245 -2.7533 -4.1857  2.1157
  582MOL0     H80263   5.935   1.372  10.469 -1.1051  1.2364 -1.9525
  582MOL0     H80264   5.999   1.210  10.503 -2.9128  1.4970  1.1159
  582MOL0     H80265   6.116   1.563  10.422 -0.6209 -0.9903 -0.4909
  582MOL0     H80266   6.472   1.586  10.366  0.5740  0.8897 -1.5059
  582MOL0     H80267   6.314   1.677  10.354  0.8813  0.5608  0.4680
  582MOL0     H80268   6.456   1.517  10.128 -0.6347 -1.1312  2.8613
  582MOL0     H80269   6.309   1.603  10.106 -2.4997  2.1665  1.6834
  582MOL0     H80270   6.502   1.703  10.005 -2.0180  0.6765 -0.1528
  582MOL0     H80271   6.447   1.824  10.121 -0.9621 -0.4304 -0.1533
  582MOL0     H80272   6.679   1.818  10.122  0.8223  0.7593  1.1323
  582MOL0     H80273   6.613   1.792  10.284  2.9358  1.0298 -0.2744
  582MOL0     H80274   6.856   1.815  10.249 -4.9653 -3.8851 -1.8956
  582MOL0     H80275   7.165   1.882  10.172 -2.4726 -1.1796 -1.3930
  582MOL0     H80276   7.224   1.832  10.331 -0.0980  1.0561  1.9838
  582MOL0     H80277   7.066   1.918  10.310  2.4012  0.1331  0.9069
  582MOL0     H80278   7.442   1.455   9.919 -1.6296 -1.3609  0.6695
  582MOL0     H80279   7.681   1.389   9.908 -2.7786 -2.6283 -1.7589
  582MOL0     H80280   7.909   1.210  10.282  3.3359 -0.4047 -1.1500
  582MOL0     H80281   7.789   1.106  10.205  1.6332 -0.4302  4.1495
  582MOL0     H80282   8.005   1.021  10.180 -0.4205 -0.9621 -1.0095
  582MOL0     H80283   7.941   1.070  10.021 -2.1846  2.0441 -0.0028
  582MOL0     H80284   8.147   1.247  10.177  1.5460 -0.6253 -0.6789
  582MOL0     H80285   8.094   1.270  10.010 -1.2839  2.3387  2.9548
  582MOL0     H80286   8.176   1.035   9.963 -0.9627 -3.0092  2.0888
  582MOL0     H80287   8.235   1.016  10.121  0.7376  0.0418 -0.3774
  582MOL0     H80288   8.312   1.238   9.928 -0.4852 -0.5607 -0.7049
  582MOL0     H80289   8.385   1.226  10.092  2.8762 -2.7676  1.2805
  582MOL0     H80290   8.437   1.019   9.882 -0.1101 -1.5502  1.7662
  582MOL0     H80291   8.473   1.000  10.051  0.9104  0.4959  0.1417
  582MOL0     H80292   8.632   1.178  10.047  0.8247  1.1954 -0.6146
  582MOL0     H80293   8.593   1.229   9.888  1.1503 -0.8569  0.0557
  582MOL0     H80294   8.799   1.103   9.879  0.4161 -1.7800 -2.8139
  582MOL0     H80295   8.678   1.013   9.795  2.9259 -1.7417 -0.7046
  582MOL0     H80296   7.673   1.277  10.322 -0.8482 -1.0095  0.1799
  582MOL0     H80297   7.436   1.371  10.333 -1.4890 -0.5444 -0.6102
  582MOL0     H80298   7.059   1.395  10.118 -1.0254 -0.8705 -0.6610
  582MOL0     H80299   6.828   1.403  10.154  1.0210 -0.8779  1.6884
  582MOL0     H80300   4.924   1.180  10.743  1.1310  1.4265 -3.9860
  582MOL0     H80301   4.736   1.286  10.837  0.9723 -1.4181 -2.4128
  582MOL0     H80302   4.658   1.835  10.810  0.8273 -3.1372 -1.2620
  582MOL0     H80303   4.475   1.988  10.862 -0.1513  0.8871  1.8198
  582MOL0     H80304   4.181   2.085  11.138 -1.1693 -2.0896 -0.0511
  582MOL0     H80305   4.281   1.970  11.227 -1.8883  1.5432  1.4029
  582MOL0     H80306   4.342   2.222  11.203 -0.2505 -2.4980  1.7516
  582MOL0     H80307   4.368   2.173  11.037 -2.4811 -0.9691 -0.1938
  582MOL0     H80308   4.503   1.987  11.247  1.1264  0.2237  1.0394
  582MOL0     H80309   4.580   2.069  11.106  3.8667  0.2985  1.7975
  582MOL0     H80310   4.682   2.136  11.338  0.7157  1.7110  0.2166
  582MOL0     H80311   4.522   2.190  11.378 -2.8722  1.0354 -2.2284
  582MOL0     H80312   4.658   2.507  11.116 -1.3080  0.1324  1.6785
  582MOL0     H80313   4.301   1.707  11.130  0.7049 -0.3594 -0.1074
  582MOL0     H80314   4.569   1.526  11.203 -1.0743 -0.9024  1.9751
  582MOL0     H80315   4.402   1.504  11.194 -0.9779 -0.6063 -1.7159
  582MOL0     H80316   4.504   1.426  11.069  0.5634  0.4852  0.0182
  583MOL0     O80317   0.528  10.827   3.426 -0.3429 -0.0396 -0.0601
  583MOL0     C80318   0.457  10.791   3.517  0.7072  0.7909 -0.9671
  583MOL0     O80319   0.485  10.699   3.609  0.7723 -0.0564  0.8409
  583MOL0     C80320   0.605  10.634   3.604  0.0425  0.0467  0.5055
  583MOL0     C80321   0.690  10.668   3.709 -0.1633  0.5969  0.0409
  583MOL0     C80322   0.811  10.603   3.717  0.8332 -1.3908 -0.0914
  583MOL0     C80323   0.847  10.505   3.624  1.0219  0.6707 -0.3618
  583MOL0     O80324   0.966  10.439   3.626  0.1765 -0.2869 -0.0272
  583MOL0     C80325   1.056  10.454   3.731  0.0248  0.0378  0.3198
  583MOL0     C80326   1.165  10.361   3.696  0.6116  0.5476  0.4572
  583MOL0     C80327   1.274  10.382   3.799  0.4934  0.4979 -0.1561
  583MOL0     C80328   1.383  10.268   3.769 -0.0913 -0.4795  0.1427
  583MOL0     C80329   1.482  10.252   3.878  0.0033  0.0293  0.0576
  583MOL0     C80330   1.572  10.377   3.902  0.4807  0.7056  0.1400
  583MOL0     C80331   1.692  10.401   3.805 -0.6359 -0.5010  0.1066
  583MOL0     C80332   1.797  10.285   3.794  0.2733  0.5233  0.4670
  583MOL0     N80333   1.864  10.263   3.916  0.6163 -1.0264  0.1682
  583MOL0     C80334   1.995  10.284   3.946  0.1081 -0.0687  0.1552
  583MOL0     C80335   2.014  10.240   4.074  0.9386 -0.1147 -0.1246
  583MOL0     C80336   2.130  10.276   4.156 -0.6001 -0.8954 -0.4462
  583MOL0     C80337   2.247  10.192   4.122  0.2095  0.4590 -0.1539
  583MOL0     C80338   2.242  10.040   4.164  0.4021 -0.3662 -1.1571
  583MOL0     C80339   2.362   9.960   4.109 -0.2326 -0.7126 -0.5948
  583MOL0     O80340   2.473   9.976   4.204 -0.1813 -0.5965  0.5976
  583MOL0     C80341   2.586   9.916   4.145 -0.7370 -1.2097  0.6491
  583MOL0     C80342   2.614   9.865   4.013 -0.1271  0.6501 -1.3982
  583MOL0     C80343   2.742   9.807   3.991  0.3423 -0.2374 -0.3779
  583MOL0     C80344   2.768   9.771   3.840 -0.5239  0.8738  0.1850
  583MOL0     C80345   2.835   9.799   4.096  0.4971  0.4551  0.1528
  583MOL0     C80346   2.971   9.744   4.070 -0.2656  0.1709  0.2572
  583MOL0     O80347   3.053   9.773   4.171 -0.2579  0.6256  0.8390
  583MOL0     C80348   3.152   9.674   4.177 -0.0400  0.7757  0.2812
  583MOL0     C80349   3.121   9.541   4.224 -0.1693  0.0826 -0.1960
  583MOL0     C80350   3.221   9.445   4.242 -0.6700 -0.7516  0.3045
  583MOL0     C80351   3.348   9.474   4.215  0.7722 -0.1511  0.0948
  583MOL0     O80352   3.441   9.369   4.234 -0.2028 -0.2204 -0.3137
  583MOL0     C80353   3.534   9.392   4.341 -0.1131  0.2712 -0.7772
  583MOL0     C80354   3.573   9.255   4.403  1.3468 -0.6503  0.1569
  583MOL0     C80355   3.657   9.282   4.520  0.3947 -0.2005 -0.0218
  583MOL0     C80356   3.687   9.156   4.594 -0.1630 -0.1333  0.0273
  583MOL0     C80357   3.770   9.054   4.514  0.7515  0.6972  0.6263
  583MOL0     C80358   3.833   8.922   4.585 -0.5242 -0.0484  0.4776
  583MOL0     C80359   3.894   8.964   4.716 -0.5607  0.4200 -0.2283
  583MOL0     C80360   4.019   8.880   4.754  0.2328 -0.2511  1.0434
  583MOL0    Cl80361   4.149   8.876   4.644  0.0973 -0.3153  0.3431
  583MOL0     C80362   3.386   9.601   4.179 -0.9904 -0.5157 -1.2501
  583MOL0     C80363   3.286   9.695   4.151 -0.5621 -0.6710  0.2703
  583MOL0     O80364   3.003   9.682   3.964  0.2814  0.2591 -0.8319
  583MOL0     C80365   2.803   9.859   4.219  0.9172  0.1858  0.0780
  583MOL0     C80366   2.687   9.923   4.239  0.6037  0.1692 -0.4643
  583MOL0     N80367   1.890  10.196   4.119 -0.4789 -0.0299 -1.1827
  583MOL0     N80368   1.803  10.211   4.025  0.5863  0.3373 -0.1834
  583MOL0     C80369   0.755  10.479   3.519  0.8082  0.2403 -0.3340
  583MOL0     C80370   0.632  10.542   3.507  0.3335  0.3279  0.5526
  583MOL0     C80371   0.309  10.854   3.523  0.1145  0.4194 -0.3683
  583MOL0     C80372   0.269  10.936   3.425  0.0388 -0.6958 -0.0027
  583MOL0     C80373   0.140  10.984   3.395 -0.3334 -0.0921 -0.1290
  583MOL0     C80374   0.039  10.953   3.485 -0.3623 -0.0724  0.3881
  583MOL0     O80375  -0.082  11.008   3.457  0.0165  0.3130 -0.3507
  583MOL0     C80376  -0.185  10.952   3.533  0.7581 -1.3242  0.2459
  583MOL0     C80377  -0.311  11.038   3.510 -0.0465 -0.7965  0.1699
  583MOL0     C80378  -0.332  11.074   3.359  0.1127  0.5482 -0.2396
  583MOL0     C80379  -0.471  11.116   3.315  0.1944  0.1642  0.6744
  583MOL0     C80380  -0.556  11.003   3.303 -0.3118  1.0775  0.2095
  583MOL0     C80381  -0.622  10.899   3.295  0.3089  1.0850 -0.2518
  583MOL0     C80382   0.080  10.879   3.603  0.8764  0.4741  0.4336
  583MOL0     C80383   0.204  10.816   3.615  0.2448 -0.1884 -0.1362
  583MOL0     C80384   0.232  10.741   3.736 -0.3517  0.6985 -0.3418
  583MOL0     H80385   0.666  10.750   3.776  0.5157  1.1949 -0.4429
  583MOL0     H80386   0.883  10.629   3.795 -1.0322 -1.7090  1.8538
  583MOL0     H80387   1.009  10.426   3.826 -2.9184 -0.7397 -1.2390
  583MOL0     H80388   1.084  10.560   3.739 -2.0743  0.7395 -0.7075
  583MOL0     H80389   1.125  10.261   3.714  3.8496 -1.1694 -0.9866
  583MOL0     H80390   1.192  10.365   3.590  0.3439  1.0456  0.4076
  583MOL0     H80391   1.310  10.485   3.806 -0.3867  0.6995  2.6864
  583MOL0     H80392   1.229  10.360   3.896  0.8326  1.5820  0.2511
  583MOL0     H80393   1.319  10.180   3.758 -0.4038 -0.4957  1.8576
  583MOL0     H80394   1.438  10.306   3.683 -1.0510  1.5447  0.3797
  583MOL0     H80395   1.536  10.159   3.856  1.0217  0.5562  0.3151
  583MOL0     H80396   1.416  10.234   3.963 -0.5954  0.0989 -0.3840
  583MOL0     H80397   1.508  10.465   3.908 -0.4300 -0.0184  1.5859
  583MOL0     H80398   1.612  10.376   4.004 -0.8780  0.4862  0.6948
  583MOL0     H80399   1.744  10.491   3.838 -3.1563  0.6341  1.3022
  583MOL0     H80400   1.643  10.428   3.710  3.9850  0.3481 -2.3191
  583MOL0     H80401   1.738  10.194   3.778  2.1022 -0.5599 -0.4188
  583MOL0     H80402   1.853  10.287   3.700 -0.5170 -1.6524 -0.1030
  583MOL0     H80403   2.075  10.333   3.892 -0.2167 -1.4331 -1.6550
  583MOL0     H80404   2.106  10.276   4.263  1.6756  1.2230  0.1610
  583MOL0     H80405   2.156  10.378   4.125 -2.5057 -0.9918 -2.5899
  583MOL0     H80406   2.262  10.194   4.014 -1.7243 -0.8980 -0.5178
  583MOL0     H80407   2.333  10.230   4.179  0.7255  2.2423 -2.0219
  583MOL0     H80408   2.230  10.025   4.272 -1.1872  4.6669 -0.3557
  583MOL0     H80409   2.145  10.007   4.126  0.1303 -1.2648  0.2599
  583MOL0     H80410   2.331   9.857   4.092 -2.0338 -0.7780  2.3773
  583MOL0     H80411   2.396  10.008   4.017  0.2003  2.3143  1.0089
  583MOL0     H80412   2.548   9.869   3.927  1.4555  0.3690 -2.6780
  583MOL0     H80413   2.776   9.662   3.837  1.5347  1.0058 -1.3737
  583MOL0     H80414   2.863   9.801   3.795  0.9017 -2.9347  0.2688
  583MOL0     H80415   2.689   9.795   3.768  1.5390  3.4431 -1.4548
  583MOL0     H80416   3.021   9.512   4.256 -0.0935  1.8031  1.9017
  583MOL0     H80417   3.189   9.349   4.281 -0.2101 -2.3080 -2.8536
  583MOL0     H80418   3.626   9.441   4.309 -0.3633  2.2299  1.2202
  583MOL0     H80419   3.483   9.454   4.416 -1.7757 -0.7649 -0.9930
  583MOL0     H80420   3.483   9.201   4.435  0.8649 -0.8237 -1.4208
  583MOL0     H80421   3.622   9.205   4.319  2.7220  2.6919 -1.2183
  583MOL0     H80422   3.602   9.348   4.587 -0.5268 -1.6353  0.6770
  583MOL0     H80423   3.752   9.331   4.498 -0.7225  2.4883  0.6969
  583MOL0     H80424   3.598   9.105   4.633  0.9728 -2.2262  0.0470
  583MOL0     H80425   3.748   9.184   4.680 -1.5000 -1.4685  1.4894
  583MOL0     H80426   3.713   9.015   4.430  3.5569 -1.2558 -0.5453
  583MOL0     H80427   3.853   9.104   4.463 -0.6536  1.2497 -1.2065
  583MOL0     H80428   3.912   8.883   4.520  0.4737 -1.0993  2.2423
  583MOL0     H80429   3.766   8.840   4.613 -1.0840  0.5829  1.0058
  583MOL0     H80430   3.818   8.942   4.791 -0.1055 -0.8101 -0.0955
  583MOL0     H80431   3.928   9.068   4.724  2.3760 -0.4879  0.7748
  583MOL0     H80432   3.988   8.776   4.767 -0.3251 -0.2417 -0.0643
  583MOL0     H80433   4.055   8.924   4.847 -0.5676 -0.4624  1.4623
  583MOL0     H80434   3.493   9.619   4.169 -0.7674 -1.0341  0.0227
  583MOL0     H80435   3.329   9.789   4.120  1.2647 -1.3751  0.5754
  583MOL0     H80436   2.873   9.861   4.301 -1.1313 -1.6749  2.0260
  583MOL0     H80437   2.663   9.952   4.340  0.0158  0.3201 -0.6442
  583MOL0     H80438   0.790  10.403   3.449 -1.8818 -0.8702 -0.5893
  583MOL0     H80439   0.562  10.524   3.426  1.8261 -1.6547 -0.3948
  583MOL0     H80440   0.349  10.980   3.367  0.2920  3.3566  2.9842
  583MOL0     H80441   0.124  11.047   3.308 -3.1400  0.9835  1.0664
  583MOL0     H80442  -0.192  10.844   3.519  0.9048 -2.1579  4.8794
  583MOL0     H80443  -0.171  10.961   3.641 -0.2753  1.3691  0.2383
  583MOL0     H80444  -0.304  11.135   3.560 -3.9064 -1.7417  2.9507
  583MOL0     H80445  -0.402  10.991   3.548 -1.6079  0.9288 -1.2125
  583MOL0     H80446  -0.259  11.153   3.338  0.5798  0.2707  0.3147
  583MOL0     H80447  -0.296  10.992   3.295  1.6527  0.8231  0.2323
  583MOL0     H80448  -0.457  11.152   3.213  2.0076 -1.8217  0.1518
  583MOL0     H80449  -0.504  11.187   3.392  1.9420 -0.2691  1.8817
  583MOL0     H80450  -0.677  10.808   3.287  2.3499 -0.3991  1.3055
  583MOL0     H80451   0.009  10.844   3.678 -0.8147 -1.3622 -1.8596
  583MOL0     H80452   0.244  10.634   3.716  0.8553  0.8660 -0.5295
  583MOL0     H80453   0.320  10.761   3.797 -0.8847  0.6024  0.4733
  583MOL0     H80454   0.149  10.749   3.807 -1.5408  0.1436 -1.6253
  584MOL0     O80455   1.094   4.104  10.113  0.2006  0.1436  0.7133
  584MOL0     C80456   1.041   4.217  10.127 -0.3325  0.2166 -0.1546
  584MOL0     O80457   1.107   4.330  10.174 -0.3993  0.7283  0.1380
  584MOL0     C80458   1.244   4.324  10.190  0.8111 -0.0252  1.2660
  584MOL0     C80459   1.340   4.252  10.112  0.0533 -0.7158  0.2614
  584MOL0     C80460   1.469   4.249  10.146 -0.6869 -0.5492  0.5934
  584MOL0     C80461   1.515   4.327  10.256  1.6010  0.5913 -0.3540
  584MOL0     O80462   1.646   4.347  10.288  0.5064  0.0973 -0.2732
  584MOL0     C80463   1.741   4.269  10.213 -0.0869 -0.0885  0.5438
  584MOL0     C80464   1.879   4.278  10.280  0.7685  0.6684 -0.0056
  584MOL0     C80465   1.993   4.205  10.208 -0.0324 -0.4307 -0.0377
  584MOL0     C80466   1.971   4.055  10.207 -0.6643 -1.0596 -0.7005
  584MOL0     C80467   2.096   3.977  10.176 -1.4933  0.8560  0.9849
  584MOL0     C80468   2.077   3.820  10.159  0.1013 -0.2294  0.1438
  584MOL0     C80469   1.991   3.772  10.041  0.0989 -0.0176 -0.1358
  584MOL0     C80470   2.057   3.802   9.902 -0.9691  0.8826 -0.0127
  584MOL0     N80471   2.198   3.767   9.890 -0.3768 -0.0450 -0.3174
  584MOL0     C80472   2.255   3.644   9.911 -0.1068  0.0566 -0.2953
  584MOL0     C80473   2.388   3.660   9.892  0.1690  0.2220 -0.2523
  584MOL0     C80474   2.490   3.548   9.912  0.6948  0.3551  0.2653
  584MOL0     C80475   2.527   3.516  10.057  0.0525 -0.4101  0.5021
  584MOL0     C80476   2.599   3.640  10.128  0.4813 -0.6211 -0.4393
  584MOL0     C80477   2.739   3.678  10.065  0.2926 -0.2459 -0.3305
  584MOL0     O80478   2.846   3.678  10.162  0.2240 -0.5719 -0.5045
  584MOL0     C80479   2.970   3.644  10.118 -0.1015  0.1637 -0.1370
  584MOL0     C80480   2.995   3.532  10.027  0.9648 -0.3084 -0.0207
  584MOL0     C80481   3.127   3.507   9.981 -0.1840  0.0275  0.6772
  584MOL0     C80482   3.143   3.384   9.896  0.0726 -1.0030  0.3202
  584MOL0     C80483   3.229   3.577  10.039  0.1452 -0.2963  0.4121
  584MOL0     C80484   3.380   3.563  10.014  0.8713 -0.3984  0.5667
  584MOL0     O80485   3.423   3.546   9.890 -0.2834  0.6810 -0.2266
  584MOL0     C80486   3.555   3.523   9.857 -0.2287 -0.2149 -0.5981
  584MOL0     C80487   3.580   3.400   9.796  0.0478 -0.3177  0.2698
  584MOL0     C80488   3.711   3.351   9.777 -0.3037 -0.5980  0.2596
  584MOL0     C80489   3.820   3.436   9.807 -0.0404 -0.5280 -0.3385
  584MOL0     O80490   3.947   3.398   9.801  0.2484  0.1865 -0.7297
  584MOL0     C80491   3.986   3.322   9.685 -0.3810  0.2984  0.1283
  584MOL0     C80492   4.106   3.385   9.625 -0.4159  0.2089  0.1446
  584MOL0     C80493   4.229   3.362   9.708  0.8327 -0.3758 -0.1724
  584MOL0     C80494   4.370   3.395   9.656  0.0853 -0.7515  1.0681
  584MOL0     C80495   4.407   3.313   9.523  0.3012 -0.2237 -0.9853
  584MOL0     C80496   4.556   3.332   9.488 -0.2209  0.9924  0.6613
  584MOL0     C80497   4.661   3.270   9.575 -0.6905 -0.6469  0.2742
  584MOL0     C80498   4.768   3.191   9.493  0.9882 -0.1007  0.0511
  584MOL0    Cl80499   4.835   3.286   9.353  0.1283  0.2730  0.0631
  584MOL0     C80500   3.787   3.573   9.851 -0.4879  0.8670 -0.4723
  584MOL0     C80501   3.660   3.619   9.875  0.5076 -0.1175 -0.0511
  584MOL0     O80502   3.451   3.578  10.113  0.1527  0.0916  0.1805
  584MOL0     C80503   3.203   3.693  10.118  0.9164  1.3364  0.1870
  584MOL0     C80504   3.073   3.728  10.152 -0.4991 -0.4316 -0.5174
  584MOL0     N80505   2.409   3.788   9.856 -0.2986  0.5297  0.6828
  584MOL0     N80506   2.301   3.849   9.847  0.4255  0.8387  0.0171
  584MOL0     C80507   1.416   4.392  10.338  0.4705 -0.6192  0.4763
  584MOL0     C80508   1.285   4.391  10.305  0.4790 -0.5743 -0.1955
  584MOL0     C80509   0.903   4.234  10.068 -0.1931 -0.3844  1.0741
  584MOL0     C80510   0.851   4.363  10.076  0.2581 -0.2770  0.3444
  584MOL0     C80511   0.718   4.397  10.045 -0.8380  0.3911 -0.3156
  584MOL0     C80512   0.637   4.295   9.999  0.5072 -0.0866  1.2275
  584MOL0     O80513   0.514   4.308   9.944  0.4408  0.6212  0.4045
  584MOL0     C80514   0.464   4.435   9.917 -0.6082 -0.3603 -0.2987
  584MOL0     C80515   0.519   4.487   9.779 -0.8394 -0.1541  0.2742
  584MOL0     C80516   0.500   4.638   9.755 -0.2013 -0.3674 -0.6690
  584MOL0     C80517   0.367   4.676   9.678  0.2677 -0.0488 -0.5453
  584MOL0     C80518   0.347   4.599   9.557 -0.7474  0.0658  0.3807
  584MOL0     C80519   0.320   4.533   9.460 -0.0823 -0.2053 -0.0747
  584MOL0     C80520   0.678   4.165   9.978  0.8776 -0.3687 -0.9151
  584MOL0     C80521   0.805   4.126  10.028 -0.2152  0.0649 -1.0023
  584MOL0     C80522   0.828   3.984  10.041 -0.5978 -0.0298  0.3314
  584MOL0     H80523   1.315   4.212  10.015 -0.0574 -1.2891  0.5179
  584MOL0     H80524   1.545   4.199  10.086  2.6690  1.7090  2.6302
  584MOL0     H80525   1.751   4.317  10.115 -3.4346 -0.2661  0.0128
  584MOL0     H80526   1.710   4.166  10.190 -1.8580  0.8014 -1.3641
  584MOL0     H80527   1.907   4.384  10.289  1.4558  0.8491 -3.1371
  584MOL0     H80528   1.891   4.235  10.380  2.0184  2.7287  0.7970
  584MOL0     H80529   2.014   4.239  10.106  1.1740  1.2214  0.7159
  584MOL0     H80530   2.079   4.230  10.271 -1.7612  2.8218  1.2618
  584MOL0     H80531   1.947   4.024  10.309  0.2273 -0.0370 -0.1516
  584MOL0     H80532   1.888   4.029  10.141 -0.5740  1.0834 -1.7288
  584MOL0     H80533   2.173   3.986  10.253  3.1856 -1.7422 -2.8081
  584MOL0     H80534   2.132   4.029  10.087 -2.7773  2.2372  1.2356
  584MOL0     H80535   2.166   3.756  10.159  0.3210 -0.1044 -3.4718
  584MOL0     H80536   2.035   3.784  10.254  0.7079 -3.0561 -0.5571
  584MOL0     H80537   1.890   3.812  10.049 -0.2279  0.1751 -3.8075
  584MOL0     H80538   1.994   3.663  10.050  1.6616  0.1301  1.9951
  584MOL0     H80539   2.013   3.745   9.820 -3.3604  0.3955  1.4985
  584MOL0     H80540   2.041   3.907   9.876 -0.4836  0.9148 -0.2022
  584MOL0     H80541   2.219   3.553   9.957  2.7747 -1.6324 -1.1383
  584MOL0     H80542   2.573   3.583   9.850 -1.8298  2.6120 -2.1385
  584MOL0     H80543   2.447   3.461   9.861 -3.2752  3.1798 -1.7733
  584MOL0     H80544   2.439   3.482  10.112  0.8455 -0.5705  1.6986
  584MOL0     H80545   2.592   3.429  10.070  1.4340  0.5893  0.4013
  584MOL0     H80546   2.533   3.727  10.140  1.3360 -0.0885  0.6336
  584MOL0     H80547   2.610   3.594  10.227 -1.7509 -0.2712  0.0339
  584MOL0     H80548   2.748   3.603   9.986 -0.4383 -0.2467 -0.4241
  584MOL0     H80549   2.729   3.777  10.019 -3.1578 -0.0971  0.4025
  584MOL0     H80550   2.908   3.473  10.000  1.1445 -0.0353 -1.2469
  584MOL0     H80551   3.211   3.394   9.812  0.3625  0.0641  0.6658
  584MOL0     H80552   3.047   3.350   9.857 -0.5618  0.5668  0.4480
  584MOL0     H80553   3.191   3.305   9.955  0.2841 -1.7323 -0.8176
  584MOL0     H80554   3.495   3.337   9.770  0.6743  0.1016 -3.4089
  584MOL0     H80555   3.728   3.246   9.755 -2.5865 -1.3628  1.8414
  584MOL0     H80556   4.020   3.219   9.702 -0.7543  0.0751 -0.4559
  584MOL0     H80557   3.907   3.328   9.610 -1.8258  2.1270  1.6947
  584MOL0     H80558   4.113   3.354   9.521 -3.1910  0.0498 -0.0832
  584MOL0     H80559   4.082   3.491   9.613  0.9143  0.4089 -0.9913
  584MOL0     H80560   4.238   3.255   9.733 -1.2804 -0.3253  0.9990
  584MOL0     H80561   4.218   3.419   9.800  1.7876  1.6525 -1.2662
  584MOL0     H80562   4.441   3.364   9.733  0.3751  0.0717  1.1323
  584MOL0     H80563   4.391   3.501   9.644  0.1348 -1.0341 -2.9653
  584MOL0     H80564   4.388   3.206   9.540 -1.6299  0.1868 -0.3342
  584MOL0     H80565   4.339   3.357   9.450 -0.0475  1.7731  0.4621
  584MOL0     H80566   4.576   3.439   9.478 -0.3524  1.0325  0.8155
  584MOL0     H80567   4.576   3.281   9.393  2.7892  0.9564  1.2293
  584MOL0     H80568   4.624   3.199   9.649 -0.3362 -0.4231  0.6697
  584MOL0     H80569   4.705   3.354   9.628  0.0217 -0.7891 -0.0732
  584MOL0     H80570   4.722   3.096   9.464 -1.4720  0.4189  1.9368
  584MOL0     H80571   4.853   3.161   9.555  2.0712  2.9118  0.1485
  584MOL0     H80572   3.870   3.637   9.879 -1.9858  2.8212 -0.2969
  584MOL0     H80573   3.630   3.714   9.918 -4.1278 -1.1042 -0.5482
  584MOL0     H80574   3.289   3.751  10.151  2.1988 -0.6174  0.3900
  584MOL0     H80575   3.066   3.816  10.215  0.6063  1.0333 -2.3219
  584MOL0     H80576   1.433   4.458  10.422 -1.1555  1.9294 -1.0326
  584MOL0     H80577   1.217   4.456  10.359 -2.2045 -0.1616 -3.7193
  584MOL0     H80578   0.919   4.441  10.107  1.0962 -0.2833 -1.3879
  584MOL0     H80579   0.685   4.500  10.054  1.6208  1.2610 -0.5726
  584MOL0     H80580   0.355   4.431   9.907 -1.0463  2.7492  1.6220
  584MOL0     H80581   0.487   4.512   9.991  2.4376 -1.1606 -0.3081
  584MOL0     H80582   0.484   4.425   9.696 -0.6636  0.7596 -0.5042
  584MOL0     H80583   0.625   4.461   9.776 -1.0897 -1.2916  0.7940
  584MOL0     H80584   0.507   4.698   9.846  0.8542 -0.0210 -0.9636
  584MOL0     H80585   0.590   4.674   9.704 -1.2912  4.3266  0.2190
  584MOL0     H80586   0.345   4.782   9.664  0.1744  0.4622  2.6108
  584MOL0     H80587   0.300   4.627   9.750 -0.0449 -0.5073 -1.1392
  584MOL0     H80588   0.292   4.474   9.375  0.3420 -2.4800  1.2773
  584MOL0     H80589   0.609   4.088   9.944 -0.3188  0.7825 -1.1650
  584MOL0     H80590   0.731   3.933  10.049 -0.0274 -1.1258  0.4663
  584MOL0     H80591   0.880   3.958   9.949 -1.1907 -0.1054  0.0134
  584MOL0     H80592   0.885   3.951  10.128 -1.6115 -1.0353  0.6440
  585MOL0     O80593  11.347   0.595   4.383 -0.4487  0.8021  0.0764
  585MOL0     C80594  11.269   0.625   4.468 -0.4978  0.2324  0.5596
  585MOL0     O80595  11.285   0.620   4.601  0.0339  0.4325  0.5770
  585MOL0     C80596  11.405   0.602   4.660 -0.0779 -0.6347 -0.2916
  585MOL0     C80597  11.524   0.642   4.597 -0.3513  0.4096 -0.0234
  585MOL0     C80598  11.651   0.610   4.651 -0.4283  1.1452 -0.8101
  585MOL0     C80599  11.659   0.538   4.774  0.1341  1.6304 -0.7730
  585MOL0     O80600  11.781   0.518   4.841 -0.6046  0.6124  0.4418
  585MOL0     C80601  11.811   0.420   4.934  0.5234 -0.1261  0.5748
  585MOL0     C80602  11.964   0.432   4.948 -0.0150 -0.3614  0.1889
  585MOL0     C80603  12.016   0.343   5.062 -0.6170  0.0107 -0.1478
  585MOL0     C80604  12.167   0.361   5.071 -0.5742 -0.3737  0.6438
  585MOL0     C80605  12.245   0.272   5.175  0.3008 -0.1572 -0.3977
  585MOL0     C80606  12.205   0.126   5.179 -0.3026 -0.0333  0.1291
  585MOL0     C80607  12.270   0.046   5.298 -0.0428  0.2231  0.4466
  585MOL0     C80608  12.235  -0.098   5.317  0.0869  0.4117  0.4614
  585MOL0     N80609  12.250  -0.169   5.192 -0.4063  0.2687 -0.2923
  585MOL0     C80610  12.371  -0.170   5.129 -0.3960  0.3921 -0.3480
  585MOL0     C80611  12.344  -0.257   5.027 -0.5216 -0.1373  0.5402
  585MOL0     C80612  12.441  -0.296   4.926 -0.9884 -0.1034 -0.1527
  585MOL0     C80613  12.438  -0.445   4.905 -0.3050  0.2553  0.0544
  585MOL0     C80614  12.547  -0.495   4.808 -0.2966 -0.1640 -0.7983
  585MOL0     C80615  12.687  -0.450   4.850 -0.0249  1.6118  0.0518
  585MOL0     O80616  12.778  -0.517   4.773 -0.0891  0.6000  0.5239
  585MOL0     C80617  12.910  -0.472   4.763 -0.0689  0.5321  0.1229
  585MOL0     C80618  13.001  -0.518   4.669  0.4205 -0.7501  0.5466
  585MOL0     C80619  13.133  -0.465   4.657 -0.3322  0.3182  0.5229
  585MOL0     C80620  13.218  -0.516   4.542 -0.4113 -0.6977 -1.0485
  585MOL0     C80621  13.177  -0.363   4.743  0.3608  0.3370 -0.0809
  585MOL0     C80622  13.313  -0.307   4.725  0.6501  0.5607 -0.4529
  585MOL0     O80623  13.414  -0.394   4.730  0.0003 -0.1886 -0.1886
  585MOL0     C80624  13.544  -0.367   4.705 -1.1086 -0.5780 -0.0738
  585MOL0     C80625  13.612  -0.263   4.771  0.5585  0.8514  0.6113
  585MOL0     C80626  13.750  -0.241   4.740  0.6921 -0.1333 -0.7201
  585MOL0     C80627  13.815  -0.325   4.648  0.5660  0.7806  0.0070
  585MOL0     O80628  13.937  -0.306   4.597 -0.3235 -0.1840 -0.3110
  585MOL0     C80629  14.037  -0.260   4.688 -1.4778 -0.3407  0.0875
  585MOL0     C80630  14.082  -0.372   4.784 -0.1152  0.3825 -0.1837
  585MOL0     C80631  14.178  -0.329   4.899 -0.0391 -0.0914  0.3171
  585MOL0     C80632  14.244  -0.450   4.972 -0.5089 -0.2987  0.7174
  585MOL0     C80633  14.379  -0.430   5.032 -0.1743 -1.0573 -0.2555
  585MOL0     C80634  14.440  -0.559   5.090  0.3998 -0.5902 -0.5831
  585MOL0     C80635  14.584  -0.530   5.149 -0.2041  0.0662 -1.4968
  585MOL0     C80636  14.679  -0.536   5.027  0.9574  0.0020  0.0791
  585MOL0    Cl80637  14.838  -0.540   5.097  0.1054 -0.0351  0.4685
  585MOL0     C80638  13.747  -0.434   4.591 -0.2306  0.8018  0.8008
  585MOL0     C80639  13.617  -0.443   4.609  0.6672 -0.0566 -0.9029
  585MOL0     O80640  13.334  -0.181   4.720 -0.0571  0.4959 -0.3579
  585MOL0     C80641  13.085  -0.313   4.837 -0.3327 -0.4174 -0.6969
  585MOL0     C80642  12.955  -0.363   4.850  0.2655  0.2447  1.0029
  585MOL0     N80643  12.217  -0.294   5.032 -0.1826 -0.5682 -0.2793
  585MOL0     N80644  12.158  -0.245   5.133  0.9662 -0.8805 -0.8756
  585MOL0     C80645  11.539   0.479   4.828  0.4460 -0.3247  0.9967
  585MOL0     C80646  11.411   0.511   4.767 -0.5851  0.8602  0.2828
  585MOL0     C80647  11.142   0.690   4.423 -0.0337  1.3180 -0.8179
  585MOL0     C80648  11.093   0.802   4.498  0.5241  0.1316  0.0486
  585MOL0     C80649  10.967   0.862   4.465  0.2863  0.8063 -1.1813
  585MOL0     C80650  10.893   0.818   4.356  0.0664  0.2761  0.3034
  585MOL0     O80651  10.779   0.883   4.320  0.0215 -0.6847  0.8216
  585MOL0     C80652  10.719   0.990   4.398  0.1174 -0.1933  0.7452
  585MOL0     C80653  10.606   1.057   4.315 -0.0408  0.0681 -0.8305
  585MOL0     C80654  10.656   1.129   4.183  0.6426 -0.2517 -0.0420
  585MOL0     C80655  10.540   1.208   4.116  0.0615  0.0781  0.2810
  585MOL0     C80656  10.462   1.112   4.035 -1.1189 -0.6607 -0.0552
  585MOL0     C80657  10.393   1.032   3.983  0.0956  0.4568  0.2249
  585MOL0     C80658  10.940   0.718   4.283 -0.3590  0.5489 -0.0067
  585MOL0     C80659  11.061   0.640   4.315 -1.0169 -0.0620 -0.1649
  585MOL0     C80660  11.098   0.518   4.237 -0.0277 -0.9873 -0.3068
  585MOL0     H80661  11.508   0.719   4.521 -1.0336  1.0431  0.7422
  585MOL0     H80662  11.746   0.648   4.614  0.6691 -1.3053 -0.6427
  585MOL0     H80663  11.776   0.320   4.907 -0.2683 -0.3989  2.4971
  585MOL0     H80664  11.754   0.453   5.021 -1.8160  2.8759 -1.8181
  585MOL0     H80665  12.008   0.406   4.851  0.2638 -3.0022  0.9459
  585MOL0     H80666  12.004   0.530   4.977 -0.9929  0.9653 -2.6083
  585MOL0     H80667  11.977   0.378   5.158 -0.1593  0.7231 -0.2135
  585MOL0     H80668  11.986   0.242   5.032  1.4199 -0.4129 -0.9311
  585MOL0     H80669  12.201   0.333   4.971 -2.6314  0.8673 -0.4848
  585MOL0     H80670  12.198   0.465   5.084 -0.7172 -0.3443  0.7522
  585MOL0     H80671  12.214   0.301   5.276 -0.4356  0.0736 -0.6800
  585MOL0     H80672  12.352   0.294   5.178  0.6800 -1.8198 -0.5103
  585MOL0     H80673  12.097   0.126   5.199 -0.7747 -0.2599 -2.1249
  585MOL0     H80674  12.223   0.078   5.082 -2.6332 -1.0139  0.1076
  585MOL0     H80675  12.242   0.105   5.386 -0.0154  1.0953 -0.1134
  585MOL0     H80676  12.380   0.044   5.300 -0.0475 -1.6589  1.9907
  585MOL0     H80677  12.297  -0.134   5.400  0.4673  0.6273  0.2763
  585MOL0     H80678  12.132  -0.106   5.353 -0.4679  0.9719 -0.9416
  585MOL0     H80679  12.469  -0.131   5.156  0.6553 -1.0746 -1.8489
  585MOL0     H80680  12.537  -0.267   4.969 -2.0265 -0.5023  2.6120
  585MOL0     H80681  12.424  -0.242   4.832 -0.1667  1.4048  0.5199
  585MOL0     H80682  12.463  -0.499   4.997  0.1508  0.6768  0.1827
  585MOL0     H80683  12.334  -0.465   4.878  0.1114 -0.8031 -0.8395
  585MOL0     H80684  12.548  -0.604   4.795  1.5125 -0.1779 -0.8510
  585MOL0     H80685  12.527  -0.456   4.708 -0.0272  2.2382  0.0143
  585MOL0     H80686  12.703  -0.341   4.843  0.6434  1.4719 -0.8524
  585MOL0     H80687  12.711  -0.475   4.953  0.5205  0.4238 -0.3566
  585MOL0     H80688  12.973  -0.584   4.587  0.0873  0.4319 -0.3123
  585MOL0     H80689  13.241  -0.435   4.473  0.6910  1.7119  1.9298
  585MOL0     H80690  13.163  -0.587   4.479 -0.6551 -0.3923 -1.1824
  585MOL0     H80691  13.309  -0.563   4.581  1.1034  2.3618 -0.6270
  585MOL0     H80692  13.560  -0.209   4.849  1.0418 -2.1069  3.1592
  585MOL0     H80693  13.795  -0.150   4.778 -0.2256  0.4060 -0.8880
  585MOL0     H80694  14.127  -0.230   4.634 -0.0941  0.5290  2.6641
  585MOL0     H80695  13.999  -0.176   4.747 -3.7040 -1.3258  0.1808
  585MOL0     H80696  13.994  -0.425   4.824 -1.5496  0.2055 -3.2665
  585MOL0     H80697  14.124  -0.453   4.723 -1.3260  0.4323 -1.1270
  585MOL0     H80698  14.135  -0.266   4.978  0.4576  1.1801 -0.3963
  585MOL0     H80699  14.256  -0.269   4.852 -0.1106  0.5069  0.9454
  585MOL0     H80700  14.263  -0.534   4.905  1.8263 -0.4696  1.5083
  585MOL0     H80701  14.182  -0.490   5.053  1.0176 -1.3852  1.3953
  585MOL0     H80702  14.456  -0.398   4.961  2.8687 -1.0153  2.7623
  585MOL0     H80703  14.375  -0.361   5.117  0.0038 -1.7955  0.3718
  585MOL0     H80704  14.432  -0.631   5.008 -1.5691  0.4754 -1.3964
  585MOL0     H80705  14.372  -0.597   5.166 -0.9241  3.7285  0.6924
  585MOL0     H80706  14.607  -0.608   5.222  0.6613 -1.2412 -3.1121
  585MOL0     H80707  14.589  -0.431   5.194  1.3748  0.9728 -3.5262
  585MOL0     H80708  14.664  -0.457   4.953  1.5418  0.6185  0.6060
  585MOL0     H80709  14.659  -0.633   4.980  1.7939 -2.0243  3.5655
  585MOL0     H80710  13.797  -0.493   4.515 -1.5541 -0.3785  0.8121
  585MOL0     H80711  13.581  -0.530   4.555  0.7197 -0.1458 -0.7948
  585MOL0     H80712  13.128  -0.237   4.902  1.7883 -0.4104 -1.9920
  585MOL0     H80713  12.891  -0.335   4.933 -2.1797 -3.3614  0.5846
  585MOL0     H80714  11.530   0.416   4.916  3.0208  0.6586  2.0882
  585MOL0     H80715  11.323   0.466   4.811 -0.8924  0.8326 -0.3533
  585MOL0     H80716  11.150   0.832   4.586 -0.6058  0.1114  0.8052
  585MOL0     H80717  10.931   0.933   4.539  2.0826  2.6901 -2.0097
  585MOL0     H80718  10.675   0.965   4.495 -0.6490  0.0204  0.4528
  585MOL0     H80719  10.793   1.068   4.415 -0.2263  0.2394  0.2682
  585MOL0     H80720  10.555   1.138   4.369 -0.9324  1.1106 -3.0593
  585MOL0     H80721  10.525   0.990   4.285 -0.0013 -0.3861  0.0557
  585MOL0     H80722  10.732   1.200   4.218  0.8576 -0.9418  0.9626
  585MOL0     H80723  10.692   1.058   4.109 -0.6427 -3.4605  2.1752
  585MOL0     H80724  10.581   1.285   4.049 -1.4422 -1.4674 -2.5766
  585MOL0     H80725  10.471   1.253   4.188 -1.1607  0.1467 -0.8856
  585MOL0     H80726  10.340   0.956   3.930  0.2264  2.2837 -2.7579
  585MOL0     H80727  10.876   0.672   4.209 -0.6317  0.9602 -0.0325
  585MOL0     H80728  11.098   0.423   4.292  1.6574 -2.9794 -3.4572
  585MOL0     H80729  11.037   0.496   4.149 -2.7419 -1.7257  1.6301
  585MOL0     H80730  11.203   0.527   4.207  0.2641 -1.5782  0.5029
  586MOL0     O80731   6.536   5.988   7.333  0.1348 -0.3482  0.4806
  586MOL0     C80732   6.503   6.093   7.385 -0.3031  0.4879 -0.3143
  586MOL0     O80733   6.584   6.162   7.470 -0.0504 -0.3863  0.4405
  586MOL0     C80734   6.726   6.157   7.488  0.6738  0.7026  0.0019
  586MOL0     C80735   6.806   6.133   7.378 -0.2604 -0.0985 -0.3071
  586MOL0     C80736   6.946   6.138   7.383  0.4209  0.2155 -0.1166
  586MOL0     C80737   7.005   6.160   7.507 -0.2604  0.2686 -0.2914
  586MOL0     O80738   7.144   6.147   7.507  0.6393 -0.5484 -0.5776
  586MOL0     C80739   7.215   6.236   7.590  0.6812  0.6589  0.7754
  586MOL0     C80740   7.358   6.261   7.557  0.3231  0.2934  0.1403
  586MOL0     C80741   7.441   6.130   7.590 -0.0992 -0.1402 -0.1407
  586MOL0     C80742   7.447   6.028   7.469  0.4974 -0.4731 -0.0423
  586MOL0     C80743   7.564   5.927   7.472 -0.3377 -0.4621 -0.4108
  586MOL0     C80744   7.699   5.993   7.445 -0.4202  0.2536  0.4786
  586MOL0     C80745   7.818   5.889   7.420 -0.0473 -0.8844 -0.1496
  586MOL0     C80746   7.951   5.950   7.406 -0.5265 -0.0817 -0.4072
  586MOL0     N80747   8.053   5.854   7.358  0.0366  0.5571  0.5182
  586MOL0     C80748   8.156   5.800   7.426  0.2079 -0.6970  0.5312
  586MOL0     C80749   8.242   5.736   7.342 -0.5597 -0.2899  0.0515
  586MOL0     C80750   8.373   5.665   7.355  0.5857 -0.6058  0.0837
  586MOL0     C80751   8.471   5.676   7.232 -1.0022  0.5714  0.4250
  586MOL0     C80752   8.600   5.584   7.263  0.5329 -0.2661  0.5575
  586MOL0     C80753   8.683   5.565   7.127  1.8552  0.0023 -0.0410
  586MOL0     O80754   8.719   5.691   7.066 -0.3917 -0.0205 -0.2792
  586MOL0     C80755   8.828   5.714   6.988 -0.5838 -0.3489 -0.3262
  586MOL0     C80756   8.845   5.848   6.954  0.7964  0.3440  0.9909
  586MOL0     C80757   8.956   5.882   6.873  0.4903 -0.1466  0.3737
  586MOL0     C80758   8.971   6.034   6.836  0.8083 -0.4803 -0.2380
  586MOL0     C80759   9.043   5.779   6.831 -0.1075  0.2942 -0.2901
  586MOL0     C80760   9.167   5.804   6.748 -0.4341  0.6731 -0.3145
  586MOL0     O80761   9.292   5.756   6.796  0.3476  0.1350  0.7073
  586MOL0     C80762   9.400   5.757   6.711 -0.6421  0.2924  0.0865
  586MOL0     C80763   9.476   5.876   6.693 -0.3574  0.1075  1.8255
  586MOL0     C80764   9.594   5.876   6.615 -0.4695 -0.5537 -0.5871
  586MOL0     C80765   9.646   5.757   6.562  0.4730 -0.2092  0.2899
  586MOL0     O80766   9.753   5.757   6.474 -0.6145 -0.1721 -0.9418
  586MOL0     C80767   9.734   5.799   6.342 -0.3075 -0.3952  0.2601
  586MOL0     C80768   9.806   5.934   6.336 -0.2421  0.4612 -0.5425
  586MOL0     C80769   9.816   5.978   6.194  0.3298  0.3445 -0.1996
  586MOL0     C80770   9.898   6.109   6.188 -0.0213 -0.1544  0.4706
  586MOL0     C80771   9.922   6.142   6.041 -0.2469  0.8804 -0.0587
  586MOL0     C80772  10.010   6.268   6.038  0.0644  0.4915 -0.1168
  586MOL0     C80773  10.016   6.322   5.897  0.0707  0.1402 -0.3630
  586MOL0     C80774  10.133   6.417   5.886 -0.0396  1.6213 -0.1383
  586MOL0    Cl80775  10.148   6.522   5.742  0.0725  0.1985 -0.0114
  586MOL0     C80776   9.574   5.646   6.573  0.1148  0.2442  0.0273
  586MOL0     C80777   9.452   5.648   6.644  0.4115  0.7106  0.4835
  586MOL0     O80778   9.152   5.860   6.638 -0.8273  1.5676 -0.3263
  586MOL0     C80779   9.026   5.646   6.879 -1.5563 -0.0321  1.1321
  586MOL0     C80780   8.919   5.621   6.960 -0.5925  0.0986 -0.3296
  586MOL0     N80781   8.180   5.753   7.214  0.1474 -0.2080 -0.5027
  586MOL0     N80782   8.072   5.818   7.224 -0.0784  0.0224 -0.6395
  586MOL0     C80783   6.922   6.178   7.626  0.2373 -0.3764 -0.0400
  586MOL0     C80784   6.790   6.173   7.615  0.9624  0.4742  0.4035
  586MOL0     C80785   6.361   6.146   7.371 -0.0081 -0.1031  0.6565
  586MOL0     C80786   6.348   6.279   7.333  0.2855 -0.1555  0.6013
  586MOL0     C80787   6.219   6.321   7.301  0.2646  0.1721  0.5767
  586MOL0     C80788   6.109   6.242   7.307 -0.8261  0.1198  0.5178
  586MOL0     O80789   5.978   6.283   7.267  0.4670  0.8535 -0.2549
  586MOL0     C80790   5.958   6.409   7.195  0.0380  0.1627 -0.0967
  586MOL0     C80791   5.842   6.395   7.096  0.8571  0.2159  0.3141
  586MOL0     C80792   5.840   6.262   7.028 -0.2954 -0.1599  0.5534
  586MOL0     C80793   5.720   6.251   6.934  0.3781 -0.2220  0.2852
  586MOL0     C80794   5.593   6.242   7.009 -0.6963  0.4997  0.2154
  586MOL0     C80795   5.491   6.230   7.074  0.1652 -0.7842  0.2201
  586MOL0     C80796   6.123   6.110   7.350  0.8043 -0.3495 -1.2425
  586MOL0     C80797   6.250   6.056   7.378  0.3201 -0.2262  0.2111
  586MOL0     C80798   6.256   5.903   7.411 -1.2292 -0.0620 -0.3177
  586MOL0     H80799   6.767   6.130   7.277  0.3568  1.6856 -0.6209
  586MOL0     H80800   7.008   6.118   7.296  0.9329 -0.0867  0.3045
  586MOL0     H80801   7.216   6.208   7.696 -0.2308  0.8915  0.8549
  586MOL0     H80802   7.163   6.332   7.587 -0.1367  0.1955 -0.6106
  586MOL0     H80803   7.367   6.285   7.450  2.6560  0.5560  0.3379
  586MOL0     H80804   7.395   6.344   7.618  0.1235  0.5699 -0.1101
  586MOL0     H80805   7.538   6.170   7.619 -0.0930  0.8341 -1.4360
  586MOL0     H80806   7.405   6.078   7.679  3.3707  2.1457  2.8590
  586MOL0     H80807   7.355   5.969   7.473  0.4361 -0.3746  0.0108
  586MOL0     H80808   7.442   6.083   7.374 -1.1841  1.8122  1.2708
  586MOL0     H80809   7.545   5.840   7.409  1.5518 -1.6258  0.5300
  586MOL0     H80810   7.571   5.886   7.573  0.2443  2.1987  0.7165
  586MOL0     H80811   7.687   6.058   7.358 -4.2647 -1.4428 -0.4494
  586MOL0     H80812   7.723   6.059   7.529  1.7990  0.6698 -0.4181
  586MOL0     H80813   7.790   5.832   7.331  0.8638 -0.5065 -0.6817
  586MOL0     H80814   7.823   5.819   7.505  2.2644  1.7515  2.0883
  586MOL0     H80815   7.954   6.034   7.336  1.5948 -0.1694 -0.4849
  586MOL0     H80816   7.985   5.988   7.503 -1.9336 -0.1815  0.1428
  586MOL0     H80817   8.170   5.812   7.533 -0.5063 -0.4704  0.6047
  586MOL0     H80818   8.359   5.558   7.371 -1.1786 -0.5000 -0.5380
  586MOL0     H80819   8.430   5.708   7.438  1.0361  0.1564 -0.6099
  586MOL0     H80820   8.416   5.633   7.148 -2.4425 -0.5764  1.8881
  586MOL0     H80821   8.502   5.777   7.202 -2.6665  1.0129  0.0923
  586MOL0     H80822   8.670   5.627   7.334  3.4009 -2.0647 -0.9727
  586MOL0     H80823   8.565   5.487   7.300 -0.2464  1.0043  3.4039
  586MOL0     H80824   8.775   5.509   7.148  2.1222  0.9877  1.6680
  586MOL0     H80825   8.621   5.516   7.052  0.8580 -0.0168  0.7820
  586MOL0     H80826   8.769   5.917   6.988  0.7062 -0.8743  3.4770
  586MOL0     H80827   8.932   6.083   6.926 -3.0833 -0.9687 -1.4482
  586MOL0     H80828   8.900   6.063   6.758  0.6215  2.1306  0.7977
  586MOL0     H80829   9.069   6.076   6.810  0.9756  0.0223  1.1218
  586MOL0     H80830   9.440   5.970   6.733 -0.8477  0.3323  0.8937
  586MOL0     H80831   9.641   5.970   6.589  1.4656 -1.3314 -0.0708
  586MOL0     H80832   9.783   5.730   6.272  0.0707  0.9027 -0.7908
  586MOL0     H80833   9.627   5.808   6.318  0.1418 -0.3960 -1.9760
  586MOL0     H80834   9.741   6.009   6.382 -2.7048 -1.2583 -1.0418
  586MOL0     H80835   9.906   5.926   6.381  0.3123 -0.5983 -1.8873
  586MOL0     H80836   9.720   5.999   6.146  0.4629 -0.3109 -0.7611
  586MOL0     H80837   9.874   5.902   6.141  0.8910  0.3478  0.3943
  586MOL0     H80838   9.995   6.083   6.232 -1.4951 -1.6539  3.0351
  586MOL0     H80839   9.858   6.194   6.245  1.4744  0.3707  0.7937
  586MOL0     H80840   9.976   6.063   5.986 -1.9613 -0.4904  0.1482
  586MOL0     H80841   9.827   6.154   5.989 -0.0161 -0.6784 -0.9196
  586MOL0     H80842  10.111   6.246   6.074  0.2275  1.2646 -0.0786
  586MOL0     H80843   9.978   6.346   6.108  0.2659 -0.4074  0.9979
  586MOL0     H80844   9.921   6.375   5.885  0.9620  1.7915 -0.3828
  586MOL0     H80845  10.038   6.246   5.822  3.1952  0.7253 -0.1705
  586MOL0     H80846  10.219   6.351   5.900  2.1201  4.4942  1.0085
  586MOL0     H80847  10.122   6.485   5.971 -0.5493  0.6214  0.6372
  586MOL0     H80848   9.609   5.555   6.526 -0.3680 -0.0369  0.2125
  586MOL0     H80849   9.389   5.559   6.643 -0.5297  1.3424 -2.0570
  586MOL0     H80850   9.107   5.574   6.875 -0.6016  1.0660 -0.0524
  586MOL0     H80851   8.920   5.521   7.001  1.3377 -0.3925 -1.4622
  586MOL0     H80852   6.971   6.180   7.723  0.6543 -1.0082 -0.2345
  586MOL0     H80853   6.736   6.184   7.708  3.1327 -1.2489  1.9823
  586MOL0     H80854   6.424   6.357   7.328 -1.2467  1.4179  0.8855
  586MOL0     H80855   6.211   6.426   7.274  1.2078  0.1524  0.1915
  586MOL0     H80856   5.939   6.491   7.265  1.7222 -0.7176  1.4657
  586MOL0     H80857   6.035   6.429   7.119 -0.9845  1.0714 -0.9337
  586MOL0     H80858   5.864   6.474   7.024  1.3192  0.6262  0.8914
  586MOL0     H80859   5.750   6.410   7.153  1.3485  0.7643  0.9832
  586MOL0     H80860   5.930   6.244   6.968  0.7598 -1.6856  2.4660
  586MOL0     H80861   5.825   6.188   7.108 -0.3595 -0.8940 -0.1183
  586MOL0     H80862   5.719   6.170   6.861 -2.1766  1.6006 -1.8847
  586MOL0     H80863   5.725   6.345   6.877  2.6748 -1.0191 -0.9480
  586MOL0     H80864   5.409   6.217   7.142  0.7101  0.7233  1.2190
  586MOL0     H80865   6.032   6.050   7.346  1.4680 -1.7868  2.0215
  586MOL0     H80866   6.158   5.865   7.443 -0.2263 -0.4821  2.5424
  586MOL0     H80867   6.287   5.845   7.323 -0.4606 -4.6126  2.5899
  586MOL0     H80868   6.333   5.881   7.485 -1.4347 -0.7964 -0.3099
  587MOL0     O80869   4.244   1.882   5.992 -0.1630  0.5021  0.8565
  587MOL0     C80870   4.162   1.816   5.921 -0.0541  0.8171 -0.3884
  587MOL0     O80871   4.187   1.698   5.865 -0.4765  0.1844  0.3811
  587MOL0     C80872   4.326   1.670   5.870 -0.1976  0.3446  0.4644
  587MOL0     C80873   4.407   1.698   5.758  1.2297  0.7195 -0.3934
  587MOL0     C80874   4.544   1.687   5.769  0.1060  0.0216  0.4273
  587MOL0     C80875   4.608   1.628   5.881  0.3912  0.1024  0.1523
  587MOL0     O80876   4.740   1.601   5.896 -0.3637  0.1373  0.0311
  587MOL0     C80877   4.812   1.544   5.788  0.4165  0.2294  0.9064
  587MOL0     C80878   4.761   1.406   5.746 -0.3463  0.1244 -0.2456
  587MOL0     C80879   4.856   1.337   5.654 -0.0717  0.5815 -0.5765
  587MOL0     C80880   4.809   1.194   5.604  0.1422 -0.0298 -0.2354
  587MOL0     C80881   4.907   1.134   5.510  0.1736 -0.7746  0.7214
  587MOL0     C80882   4.871   0.995   5.453 -0.0214  0.4034  0.3942
  587MOL0     C80883   5.002   0.932   5.398  0.9158 -0.0102 -0.1117
  587MOL0     C80884   4.969   0.795   5.330  0.2483  0.0200 -1.1335
  587MOL0     N80885   5.096   0.730   5.298  0.4634  0.2087 -0.2166
  587MOL0     C80886   5.174   0.770   5.186  0.0520  0.1200  0.5493
  587MOL0     C80887   5.266   0.672   5.165  0.0911  0.6798 -0.5349
  587MOL0     C80888   5.363   0.683   5.055  0.2554  0.2915 -0.0333
  587MOL0     C80889   5.481   0.583   5.067  0.4049 -0.0598  0.1379
  587MOL0     C80890   5.584   0.627   5.170 -0.3080  0.1057 -0.2944
  587MOL0     C80891   5.708   0.533   5.169 -0.3133  0.3044 -0.3174
  587MOL0     O80892   5.767   0.565   5.038 -0.1665  0.0709  0.5519
  587MOL0     C80893   5.901   0.587   5.042  0.8937  0.2101  1.0601
  587MOL0     C80894   5.979   0.498   5.118 -0.6255  0.5215  0.6294
  587MOL0     C80895   6.116   0.532   5.144  0.2409  0.0885 -0.4109
  587MOL0     C80896   6.203   0.425   5.214  0.1619  0.6211  0.7973
  587MOL0     C80897   6.168   0.657   5.090 -0.7533 -0.5438 -0.7153
  587MOL0     C80898   6.314   0.697   5.106 -0.5624  1.1020  1.1487
  587MOL0     O80899   6.349   0.818   5.057  0.1549  0.2875 -0.9336
  587MOL0     C80900   6.472   0.859   5.019  0.1759  0.4229  0.6140
  587MOL0     C80901   6.580   0.781   4.983 -0.1704  0.1161  0.4313
  587MOL0     C80902   6.698   0.836   4.944  0.4779  0.6123  0.3831
  587MOL0     C80903   6.709   0.973   4.934  0.4420 -0.3824 -0.8618
  587MOL0     O80904   6.836   1.017   4.901  0.6478 -0.4187 -0.0783
  587MOL0     C80905   6.875   1.152   4.883  0.1409 -0.2601  1.0988
  587MOL0     C80906   6.888   1.186   4.730 -0.2109  0.7479  0.0956
  587MOL0     C80907   7.023   1.128   4.674  0.0692  0.2706 -0.1085
  587MOL0     C80908   7.140   1.235   4.647  1.0754  0.7101  0.2627
  587MOL0     C80909   7.270   1.148   4.654 -0.0149 -1.4222 -0.1070
  587MOL0     C80910   7.395   1.231   4.626  0.2124  0.4651  0.0490
  587MOL0     C80911   7.504   1.130   4.603 -0.3177  0.1783  0.4625
  587MOL0     C80912   7.642   1.208   4.601  0.1073 -0.0575 -0.0953
  587MOL0    Cl80913   7.783   1.104   4.556  0.4313 -0.2822  0.3466
  587MOL0     C80914   6.595   1.052   4.968 -0.1807  0.1826 -0.3059
  587MOL0     C80915   6.480   0.994   5.010 -0.1084 -0.6794  0.3152
  587MOL0     O80916   6.399   0.623   5.155  1.2274  0.5729  0.7022
  587MOL0     C80917   6.082   0.738   5.008 -0.3449 -0.1632 -0.3990
  587MOL0     C80918   5.951   0.696   4.981 -0.0378  0.6791  0.4491
  587MOL0     N80919   5.253   0.578   5.271  0.1917  0.0349 -0.6929
  587MOL0     N80920   5.150   0.616   5.353  0.7841 -0.5819  0.1477
  587MOL0     C80921   4.529   1.594   5.989 -0.3854  0.0809  0.1407
  587MOL0     C80922   4.390   1.612   5.982 -0.2470 -0.5461  0.4697
  587MOL0     C80923   4.024   1.867   5.888  0.9804  0.2812 -0.2271
  587MOL0     C80924   3.936   1.784   5.817 -0.0519 -0.3670 -0.5909
  587MOL0     C80925   3.808   1.827   5.776  0.8539 -0.1885 -0.0128
  587MOL0     C80926   3.759   1.951   5.821  0.1464  0.2399 -0.0530
  587MOL0     O80927   3.645   1.994   5.761 -0.4289 -0.2950  0.7409
  587MOL0     C80928   3.579   2.111   5.799  0.0406 -0.2381 -0.1646
  587MOL0     C80929   3.492   2.159   5.696  0.3603 -0.3546  0.6179
  587MOL0     C80930   3.552   2.164   5.557  0.2061  0.2192 -0.3585
  587MOL0     C80931   3.454   2.236   5.466  0.9039  0.3590 -0.1396
  587MOL0     C80932   3.501   2.241   5.324 -1.0304  0.3221  0.7067
  587MOL0     C80933   3.543   2.238   5.207 -0.8435  0.1892 -0.3678
  587MOL0     C80934   3.838   2.026   5.912 -0.2193 -0.4753 -0.9065
  587MOL0     C80935   3.970   1.991   5.939  0.5730  0.3026  0.5083
  587MOL0     C80936   4.053   2.080   6.033  0.1107  0.1196 -0.0877
  587MOL0     H80937   4.354   1.739   5.672 -1.8882  2.9130  2.3375
  587MOL0     H80938   4.602   1.724   5.685  1.1971 -1.1886  0.6020
  587MOL0     H80939   4.916   1.549   5.822  1.3784  0.7675 -1.8287
  587MOL0     H80940   4.808   1.617   5.706  5.0219  0.0322  0.2090
  587MOL0     H80941   4.744   1.343   5.833 -0.3376 -2.2111 -1.8311
  587MOL0     H80942   4.666   1.413   5.693  0.4402 -2.4235 -2.1894
  587MOL0     H80943   4.869   1.398   5.564  0.5750  2.5358  0.7706
  587MOL0     H80944   4.952   1.313   5.702 -1.1455  0.3848  1.5406
  587MOL0     H80945   4.797   1.123   5.686 -0.1288 -0.7896 -0.9205
  587MOL0     H80946   4.712   1.206   5.554  0.8841 -0.5668 -1.8849
  587MOL0     H80947   5.000   1.125   5.567  1.1264 -0.5293 -0.7562
  587MOL0     H80948   4.928   1.205   5.430  4.0643  1.3648  3.3043
  587MOL0     H80949   4.839   0.929   5.535 -0.6295 -1.5666 -1.3291
  587MOL0     H80950   4.801   0.986   5.370  1.3265 -0.9088 -0.6602
  587MOL0     H80951   5.071   0.917   5.482  1.9360  3.9069 -0.0366
  587MOL0     H80952   5.058   0.987   5.322  4.5674 -0.9559  1.6870
  587MOL0     H80953   4.913   0.739   5.406 -0.0446  0.3891 -1.0723
  587MOL0     H80954   4.902   0.801   5.244 -2.5114 -1.0709  0.8004
  587MOL0     H80955   5.156   0.857   5.124  1.8558 -0.2089 -0.5144
  587MOL0     H80956   5.395   0.784   5.030 -6.2775  2.2691 -2.4484
  587MOL0     H80957   5.312   0.637   4.969 -2.4253 -0.1526  1.6966
  587MOL0     H80958   5.443   0.482   5.088 -1.0237  0.2469 -0.9007
  587MOL0     H80959   5.521   0.572   4.966 -1.5516 -1.6400 -0.5297
  587MOL0     H80960   5.619   0.728   5.151 -0.0415  0.1315  0.3226
  587MOL0     H80961   5.545   0.622   5.272 -3.4121  1.5900 -1.2757
  587MOL0     H80962   5.776   0.564   5.249 -0.9099 -0.3657  0.4765
  587MOL0     H80963   5.679   0.428   5.178 -1.0754  0.4373 -1.0167
  587MOL0     H80964   5.952   0.400   5.157 -0.3720 -0.3469 -1.2636
  587MOL0     H80965   6.226   0.463   5.314 -0.9648  3.1580  0.1917
  587MOL0     H80966   6.292   0.411   5.153 -0.1706  2.6954 -0.2736
  587MOL0     H80967   6.156   0.326   5.213  0.7113  0.2620 -2.8951
  587MOL0     H80968   6.571   0.673   4.976  1.0100  0.1165 -3.3303
  587MOL0     H80969   6.780   0.773   4.911 -0.9349 -2.5160  2.3705
  587MOL0     H80970   6.808   1.231   4.919 -0.8456  0.2190 -1.5482
  587MOL0     H80971   6.976   1.161   4.924  0.0766  0.9717  1.0398
  587MOL0     H80972   6.802   1.150   4.672 -0.6857  0.4674  0.9532
  587MOL0     H80973   6.900   1.293   4.711  1.8687  0.2517 -1.7942
  587MOL0     H80974   7.005   1.053   4.596 -0.1130 -0.7048  0.8530
  587MOL0     H80975   7.071   1.067   4.751 -0.7506 -0.0548  0.1499
  587MOL0     H80976   7.129   1.310   4.726  0.2788 -0.7274  1.5616
  587MOL0     H80977   7.131   1.290   4.553  0.5777  0.4717  0.1672
  587MOL0     H80978   7.279   1.116   4.759  1.0274 -1.0402 -0.0708
  587MOL0     H80979   7.258   1.057   4.595 -0.8392 -1.3872  0.0005
  587MOL0     H80980   7.419   1.298   4.709 -1.8301  1.8293 -0.4016
  587MOL0     H80981   7.380   1.290   4.536  4.2947 -0.9498 -1.7719
  587MOL0     H80982   7.490   1.082   4.506 -0.4076  2.8580 -0.9294
  587MOL0     H80983   7.516   1.049   4.676  0.0528 -1.0412 -0.9103
  587MOL0     H80984   7.647   1.252   4.701 -0.7977  0.9186 -0.4550
  587MOL0     H80985   7.646   1.295   4.534  0.3078  1.9423  2.3780
  587MOL0     H80986   6.600   1.158   4.943 -2.0364 -0.1795 -2.5918
  587MOL0     H80987   6.394   1.056   5.032  1.2800  0.7211  2.0975
  587MOL0     H80988   6.124   0.829   4.967 -0.1412  0.1325  0.4387
  587MOL0     H80989   5.882   0.755   4.920 -2.4791 -2.8658 -0.5198
  587MOL0     H80990   4.573   1.547   6.076  2.1650 -2.6558 -2.4082
  587MOL0     H80991   4.337   1.593   6.075  0.8172  0.5393  1.3215
  587MOL0     H80992   3.968   1.684   5.787 -1.6771 -0.4919 -2.0363
  587MOL0     H80993   3.742   1.769   5.712  0.2389 -0.8490  1.1792
  587MOL0     H80994   3.529   2.111   5.896  2.2490 -0.8339  1.0326
  587MOL0     H80995   3.661   2.183   5.809  1.7231 -1.9847 -0.8291
  587MOL0     H80996   3.472   2.262   5.727  2.5300  0.8659 -1.7068
  587MOL0     H80997   3.396   2.106   5.694 -0.8364  1.5937  2.5924
  587MOL0     H80998   3.649   2.213   5.551  0.0961  0.9011  2.1694
  587MOL0     H80999   3.550   2.061   5.519 -0.2095  0.2276 -0.3721
  587MOL0     H81000   3.431   2.339   5.495 -0.3677  0.5566 -1.6664
  587MOL0     H81001   3.356   2.187   5.463  1.7808 -1.4427 -1.4823
  587MOL0     H81002   3.595   2.222   5.114  0.3083  2.1119 -0.1189
  587MOL0     H81003   3.807   2.119   5.958  2.2195  0.7190 -1.5428
  587MOL0     H81004   4.141   2.125   5.984  0.3892 -1.0045 -0.6583
  587MOL0     H81005   3.994   2.166   6.066  0.9579 -0.4620  3.2712
  587MOL0     H81006   4.089   2.028   6.122  1.7003 -0.7521 -1.1771
  588MOL0     O81007   9.361  11.098   2.047 -0.3933 -0.1554  0.5199
  588MOL0     C81008   9.303  11.162   1.954  0.3526  0.2667 -0.1973
  588MOL0     O81009   9.365  11.259   1.874 -0.6390  0.6572  0.3591
  588MOL0     C81010   9.510  11.264   1.872 -0.0010 -0.2673 -0.6703
  588MOL0     C81011   9.579  11.172   1.802 -0.5287 -0.2405 -0.2540
  588MOL0     C81012   9.720  11.188   1.802  0.1964  0.0165 -0.1084
  588MOL0     C81013   9.784  11.295   1.875  0.7955  0.1566  0.5086
  588MOL0     O81014   9.924  11.297   1.886  0.3067 -0.5989 -0.5106
  588MOL0     C81015   9.983  11.377   1.983  0.3231  0.9249  1.3826
  588MOL0     C81016  10.136  11.369   1.972 -0.6195 -0.4008 -0.9641
  588MOL0     C81017  10.200  11.230   1.996  0.5065 -0.4489 -0.0455
  588MOL0     C81018  10.351  11.214   2.001 -0.5143 -1.1700  0.1559
  588MOL0     C81019  10.407  11.272   2.138 -0.4447  0.6326  0.2002
  588MOL0     C81020  10.570  11.287   2.141 -0.7196  0.0245 -0.0045
  588MOL0     C81021  10.648  11.160   2.108  0.1437  0.1092 -0.1570
  588MOL0     C81022  10.636  11.059   2.217 -0.5548  0.4716  0.3980
  588MOL0     N81023  10.740  11.070   2.320 -0.3936 -0.0635  0.9149
  588MOL0     C81024  10.875  11.061   2.296  0.1801 -0.3988 -0.0386
  588MOL0     C81025  10.940  11.109   2.402  0.0678  0.6262 -0.3359
  588MOL0     C81026  11.093  11.120   2.401 -0.3071 -0.2864 -0.1257
  588MOL0     C81027  11.149  11.160   2.545  0.7612  0.0701 -0.0241
  588MOL0     C81028  11.294  11.190   2.529  0.4943 -0.4338 -0.1656
  588MOL0     C81029  11.356  11.250   2.656 -0.1634 -0.3032  0.3566
  588MOL0     O81030  11.501  11.230   2.646  0.0429 -0.1549  1.5230
  588MOL0     C81031  11.578  11.341   2.691  1.2614  0.4971  0.6866
  588MOL0     C81032  11.541  11.483   2.679 -0.9875 -0.3213 -1.3239
  588MOL0     C81033  11.628  11.580   2.748  0.5561 -0.3864  0.3056
  588MOL0     C81034  11.578  11.725   2.732  0.2158 -0.5895  0.4271
  588MOL0     C81035  11.739  11.537   2.819 -0.2076  0.0506 -1.0655
  588MOL0     C81036  11.820  11.630   2.909 -0.8992 -0.7321  0.9763
  588MOL0     O81037  11.922  11.581   2.995 -0.0635  0.5921  0.1732
  588MOL0     C81038  11.985  11.661   3.085 -0.5749 -0.6864 -0.0848
  588MOL0     C81039  11.987  11.644   3.229  1.0699 -0.3971  0.1454
  588MOL0     C81040  12.057  11.735   3.313  0.1260  0.6563  0.8273
  588MOL0     C81041  12.146  11.826   3.257  0.5005 -0.3341  0.5812
  588MOL0     O81042  12.216  11.910   3.331 -0.4506  0.0572 -0.2673
  588MOL0     C81043  12.312  11.851   3.416 -0.0413 -0.4444  0.5045
  588MOL0     C81044  12.443  11.871   3.339 -0.0177  0.9549 -0.3056
  588MOL0     C81045  12.493  12.016   3.359 -0.2207 -1.1058  0.5666
  588MOL0     C81046  12.613  12.059   3.270  1.0709  0.3003 -0.2311
  588MOL0     C81047  12.602  12.205   3.230  0.0190 -0.2135  0.6765
  588MOL0     C81048  12.735  12.272   3.191  0.4470  0.1147  0.0134
  588MOL0     C81049  12.711  12.410   3.139 -0.1203 -0.0299 -0.1476
  588MOL0     C81050  12.839  12.490   3.158 -0.5447 -0.0478  0.5038
  588MOL0    Cl81051  12.862  12.522   3.332  0.0443  0.0738 -0.0995
  588MOL0     C81052  12.146  11.839   3.118 -0.9404  0.3994  0.8617
  588MOL0     C81053  12.074  11.754   3.034  0.3967 -0.6608 -0.3469
  588MOL0     O81054  11.785  11.748   2.905  0.4658  0.2142 -0.5079
  588MOL0     C81055  11.776  11.403   2.815 -0.0747  0.0814 -1.1038
  588MOL0     C81056  11.692  11.305   2.759 -0.7235  0.0436  0.0637
  588MOL0     N81057  10.841  11.137   2.498  0.3057  0.0783 -0.6174
  588MOL0     N81058  10.730  11.113   2.444 -0.2679  0.6213 -0.3220
  588MOL0     C81059   9.705  11.385   1.939 -0.4661  0.7190  0.4031
  588MOL0     C81060   9.570  11.378   1.931 -0.0149  1.3189 -0.7828
  588MOL0     C81061   9.166  11.116   1.911 -0.0254 -0.7612  0.4610
  588MOL0     C81062   9.134  10.984   1.944  0.3581 -0.3051 -0.1790
  588MOL0     C81063   9.004  10.935   1.913 -0.0220 -0.0471  1.1906
  588MOL0     C81064   8.904  11.014   1.858 -0.3268 -0.7912 -0.5404
  588MOL0     O81065   8.780  10.960   1.862 -0.4011  0.0741  0.0332
  588MOL0     C81066   8.678  11.050   1.852  1.2821 -0.9697  0.2419
  588MOL0     C81067   8.550  10.963   1.864 -0.2780 -0.9137 -0.5810
  588MOL0     C81068   8.418  11.047   1.894 -0.8815  0.4290 -0.0366
  588MOL0     C81069   8.375  11.118   1.764 -0.2234  0.0248 -0.1290
  588MOL0     C81070   8.255  11.184   1.792  0.5139 -0.7190  0.1337
  588MOL0     C81071   8.149  11.239   1.817  0.1426 -0.6605 -0.5055
  588MOL0     C81072   8.933  11.144   1.826  0.3231 -0.5593  0.0772
  588MOL0     C81073   9.070  11.195   1.839 -0.2223 -0.2927 -0.1607
  588MOL0     C81074   9.089  11.338   1.796 -0.0959 -0.9350  0.7787
  588MOL0     H81075   9.514  11.093   1.764 -3.0403  2.2167 -1.4442
  588MOL0     H81076   9.778  11.120   1.741  0.4452 -0.3097  0.4804
  588MOL0     H81077   9.966  11.342   2.086  2.9163  0.8206  1.8494
  588MOL0     H81078   9.946  11.479   1.979 -2.1382  0.1170  1.6966
  588MOL0     H81079  10.149  11.399   1.868 -0.9585 -0.3735 -0.9994
  588MOL0     H81080  10.183  11.442   2.038 -1.7242 -2.1655  1.9791
  588MOL0     H81081  10.167  11.200   2.096  0.5523 -0.7471 -0.1197
  588MOL0     H81082  10.156  11.161   1.923 -1.1951  1.5590 -1.0218
  588MOL0     H81083  10.390  11.112   1.992  0.8802 -0.9145  2.3151
  588MOL0     H81084  10.396  11.275   1.922  0.4868 -0.9940  0.8386
  588MOL0     H81085  10.372  11.203   2.215  0.6396 -0.0655  0.0776
  588MOL0     H81086  10.357  11.370   2.144 -1.2037  0.3816 -1.5090
  588MOL0     H81087  10.604  11.358   2.065  2.9218 -1.2738  0.2352
  588MOL0     H81088  10.608  11.328   2.235 -0.4024 -3.3625  1.5020
  588MOL0     H81089  10.752  11.191   2.095  0.5066 -0.9548  0.1708
  588MOL0     H81090  10.605  11.113   2.019 -0.5881  1.2641 -0.4448
  588MOL0     H81091  10.534  11.066   2.256 -1.5216  2.2560 -2.1837
  588MOL0     H81092  10.635  10.959   2.174 -2.7411  0.2630  0.7968
  588MOL0     H81093  10.923  11.029   2.205  3.1324 -1.0665  1.6222
  588MOL0     H81094  11.130  11.196   2.331  0.4456 -0.1162  0.4405
  588MOL0     H81095  11.141  11.024   2.377  0.2017 -0.4290  1.3280
  588MOL0     H81096  11.095  11.243   2.592  0.8525  0.1251 -0.0160
  588MOL0     H81097  11.126  11.073   2.606 -2.8132  0.3972 -0.6508
  588MOL0     H81098  11.345  11.097   2.502  2.2026  0.5832 -0.5685
  588MOL0     H81099  11.315  11.267   2.455  0.1830  0.8471  1.0433
  588MOL0     H81100  11.326  11.355   2.664 -1.7253 -0.7677  0.9524
  588MOL0     H81101  11.329  11.197   2.748 -1.9526 -1.0107 -0.5162
  588MOL0     H81102  11.454  11.521   2.626 -1.9040  2.0893  1.6374
  588MOL0     H81103  11.493  11.733   2.665 -0.1528  1.8250  1.1021
  588MOL0     H81104  11.656  11.796   2.702 -1.7259  1.9458  1.0700
  588MOL0     H81105  11.533  11.758   2.826  0.7217  0.6270  0.2601
  588MOL0     H81106  11.927  11.573   3.286 -0.1057  1.0223  0.7441
  588MOL0     H81107  12.034  11.731   3.419  0.5165  0.5904  0.9129
  588MOL0     H81108  12.327  11.906   3.509  2.3977 -0.2007  0.0318
  588MOL0     H81109  12.293  11.747   3.446  1.2133 -0.7063  0.4458
  588MOL0     H81110  12.512  11.793   3.373 -1.5987  1.0235  3.6411
  588MOL0     H81111  12.439  11.843   3.234  2.3896 -0.2208 -0.1471
  588MOL0     H81112  12.523  12.025   3.464 -0.6107  1.4473  0.5334
  588MOL0     H81113  12.420  12.096   3.342  0.5072 -0.7239 -0.9751
  588MOL0     H81114  12.611  11.993   3.183 -2.7241  0.0895 -0.1587
  588MOL0     H81115  12.704  12.050   3.329  1.2534 -0.8295 -0.6647
  588MOL0     H81116  12.529  12.221   3.150 -1.5881 -0.2152  2.1039
  588MOL0     H81117  12.568  12.251   3.323  4.1331 -3.0513  3.9370
  588MOL0     H81118  12.758  12.219   3.098 -0.7804  0.4119 -0.4757
  588MOL0     H81119  12.817  12.269   3.264  0.5541 -1.6760 -0.1417
  588MOL0     H81120  12.639  12.473   3.193  1.1704  1.0509  0.3853
  588MOL0     H81121  12.676  12.410   3.036 -0.3730 -1.6691 -0.0831
  588MOL0     H81122  12.837  12.582   3.099  3.4764 -1.7370 -2.8368
  588MOL0     H81123  12.927  12.429   3.133  0.0523  1.0786 -0.2115
  588MOL0     H81124  12.212  11.920   3.089  0.9778  0.3930  4.6938
  588MOL0     H81125  12.066  11.771   2.927  2.5897 -4.9787 -1.4169
  588MOL0     H81126  11.860  11.365   2.873  0.2731  1.4285 -0.6861
  588MOL0     H81127  11.732  11.204   2.771  0.5452  0.3076 -1.5413
  588MOL0     H81128   9.740  11.477   1.985 -0.6079 -0.1026  2.2589
  588MOL0     H81129   9.511  11.452   1.984 -1.4334  0.8806 -1.7063
  588MOL0     H81130   9.208  10.920   1.992 -1.3313 -1.2468  1.3186
  588MOL0     H81131   8.979  10.831   1.932  1.4906 -1.0317 -1.6645
  588MOL0     H81132   8.675  11.131   1.927 -0.8844 -0.0766 -0.7278
  588MOL0     H81133   8.673  11.103   1.757 -0.5199 -0.9519  0.3064
  588MOL0     H81134   8.561  10.905   1.956 -3.3961  0.6222  0.9385
  588MOL0     H81135   8.546  10.898   1.776  2.0365  0.0412 -1.4700
  588MOL0     H81136   8.340  10.973   1.915  1.5855 -1.9335  1.5350
  588MOL0     H81137   8.447  11.118   1.971  2.5879 -0.0528 -0.7212
  588MOL0     H81138   8.363  11.041   1.688 -1.7334 -0.1988  0.3071
  588MOL0     H81139   8.447  11.195   1.734  0.2485 -1.1123 -2.0719
  588MOL0     H81140   8.056  11.287   1.841  0.7373  1.4495 -2.0806
  588MOL0     H81141   8.859  11.203   1.774 -0.9496  2.1841  4.4101
  588MOL0     H81142   9.165  11.391   1.855 -0.2111  0.3514 -0.1682
  588MOL0     H81143   9.112  11.349   1.690 -0.0583 -0.3198  0.8459
  588MOL0     H81144   9.000  11.400   1.811  2.1168  2.5319  0.7570
  589MOL0     O81145   4.357   2.984   2.641 -0.1690 -0.5560  0.4472
  589MOL0     C81146   4.404   2.880   2.699  0.2157 -0.8548 -0.1138
  589MOL0     O81147   4.536   2.830   2.681 -0.4523  0.1410 -0.0771
  589MOL0     C81148   4.629   2.889   2.603 -0.2118  0.4510  0.4552
  589MOL0     C81149   4.751   2.916   2.653 -0.5661  0.3756  0.4127
  589MOL0     C81150   4.837   3.000   2.586 -0.0407 -0.3648  0.1364
  589MOL0     C81151   4.808   3.052   2.461 -0.2314  0.2481 -0.2180
  589MOL0     O81152   4.907   3.121   2.406  0.2040  0.3221 -0.6598
  589MOL0     C81153   4.882   3.191   2.285 -0.3531  0.2004 -0.2606
  589MOL0     C81154   5.005   3.258   2.246  0.3205  0.0436  0.0691
  589MOL0     C81155   4.994   3.296   2.088  0.5082 -0.7515  0.3930
  589MOL0     C81156   5.109   3.398   2.061  0.0046  0.0334  0.1186
  589MOL0     C81157   5.148   3.422   1.917  0.3742 -0.8250  0.3987
  589MOL0     C81158   5.235   3.311   1.854  0.2541 -0.7510 -0.7069
  589MOL0     C81159   5.363   3.292   1.928 -0.6984  0.1666  0.8405
  589MOL0     C81160   5.461   3.204   1.852  0.7339 -0.2010 -0.2419
  589MOL0     N81161   5.589   3.188   1.926 -0.2575  0.4573  0.9329
  589MOL0     C81162   5.684   3.096   1.888 -0.1086  0.2238  0.1027
  589MOL0     C81163   5.784   3.113   1.983 -0.4991 -0.7328 -0.8044
  589MOL0     C81164   5.911   3.035   1.986 -0.1512 -0.1146 -0.1281
  589MOL0     C81165   6.011   3.055   1.877  0.2509  0.9031 -0.5762
  589MOL0     C81166   6.134   2.962   1.909  0.6657  0.4775 -0.3748
  589MOL0     C81167   6.223   2.954   1.793  0.5790  0.4269  0.2346
  589MOL0     O81168   6.343   2.889   1.821 -0.0809 -0.1712 -0.7184
  589MOL0     C81169   6.446   2.920   1.746 -0.4074 -0.4612  0.6648
  589MOL0     C81170   6.436   2.970   1.614 -1.1801 -0.5752  0.8936
  589MOL0     C81171   6.552   3.000   1.542  0.7667  0.7092 -0.2329
  589MOL0     C81172   6.520   3.048   1.395 -0.0352  0.5054  0.6338
  589MOL0     C81173   6.680   2.996   1.603 -0.1337 -0.3499 -1.1234
  589MOL0     C81174   6.807   3.031   1.531  0.1307  0.2102 -1.0294
  589MOL0     O81175   6.915   3.026   1.615  0.4446 -1.2713  0.4041
  589MOL0     C81176   7.038   3.071   1.584  0.4734 -0.1252 -0.2666
  589MOL0     C81177   7.153   2.998   1.603 -0.5753  0.2976  1.3098
  589MOL0     C81178   7.281   3.056   1.588 -0.9920 -0.2101  0.9534
  589MOL0     C81179   7.293   3.189   1.546 -0.0145  0.1081 -0.6607
  589MOL0     O81180   7.416   3.245   1.512 -0.2452  1.2068  0.7374
  589MOL0     C81181   7.505   3.170   1.420  0.1079 -0.1039 -0.9857
  589MOL0     C81182   7.647   3.224   1.448 -0.3862 -0.8598 -0.1671
  589MOL0     C81183   7.743   3.206   1.325 -0.0821  0.2235 -0.0006
  589MOL0     C81184   7.883   3.262   1.348  0.1858  0.3138 -0.9718
  589MOL0     C81185   7.985   3.255   1.233 -0.2760 -0.5833 -0.1464
  589MOL0     C81186   8.008   3.112   1.172 -0.0552 -0.5494 -0.1189
  589MOL0     C81187   8.154   3.093   1.109 -0.0139 -0.4306  0.0370
  589MOL0     C81188   8.156   3.185   0.985 -0.3571 -0.5773 -0.9079
  589MOL0    Cl81189   8.297   3.169   0.899  0.4428  0.0108  0.0578
  589MOL0     C81190   7.179   3.266   1.523 -0.7926 -0.7628  0.8131
  589MOL0     C81191   7.052   3.203   1.535  0.3833 -0.1162 -0.0188
  589MOL0     O81192   6.804   3.075   1.420 -0.0964 -0.4676  0.4079
  589MOL0     C81193   6.687   2.962   1.741 -0.4539 -0.0984 -0.1045
  589MOL0     C81194   6.575   2.909   1.807  0.2338  0.1616 -0.7549
  589MOL0     N81195   5.752   3.224   2.058  0.3868  0.4413 -0.7433
  589MOL0     N81196   5.635   3.268   2.028  0.1534  0.1872 -0.0288
  589MOL0     C81197   4.689   3.005   2.395 -1.5002 -0.2581  0.3874
  589MOL0     C81198   4.603   2.927   2.474  1.0303 -0.3234 -0.3279
  589MOL0     C81199   4.323   2.808   2.804 -0.2528 -0.6248 -0.1615
  589MOL0     C81200   4.383   2.726   2.904  0.0249 -0.5297  0.2425
  589MOL0     C81201   4.307   2.670   3.002 -0.5747 -0.1519 -0.6442
  589MOL0     C81202   4.166   2.685   2.999  0.0731 -0.2075 -0.7968
  589MOL0     O81203   4.086   2.603   3.077 -0.2837  0.2550  0.1683
  589MOL0     C81204   4.101   2.603   3.218  0.7287 -0.1287 -0.6231
  589MOL0     C81205   4.057   2.737   3.282 -0.3997  0.3774 -0.9535
  589MOL0     C81206   3.915   2.771   3.224 -0.8668 -0.8844 -0.4643
  589MOL0     C81207   3.798   2.692   3.280 -0.2978 -0.2555  0.3324
  589MOL0     C81208   3.769   2.736   3.418  0.8986  0.3197  0.0838
  589MOL0     C81209   3.746   2.773   3.533 -0.0352 -0.3036 -0.0409
  589MOL0     C81210   4.103   2.750   2.893 -0.4552 -0.5637  0.5341
  589MOL0     C81211   4.179   2.819   2.803  0.5736 -0.3258  0.0917
  589MOL0     C81212   4.089   2.898   2.709  0.2856  0.4502  0.6974
  589MOL0     H81213   4.780   2.877   2.750 -2.4007 -1.7198  0.1976
  589MOL0     H81214   4.925   3.042   2.634  2.5202 -3.5872 -1.3180
  589MOL0     H81215   4.799   3.263   2.284 -1.9094 -1.4562 -3.5319
  589MOL0     H81216   4.845   3.131   2.202 -0.0263 -1.7654  0.9586
  589MOL0     H81217   5.035   3.341   2.311  1.1777 -1.1104  1.1783
  589MOL0     H81218   5.087   3.187   2.251  0.9936  0.6172 -1.9220
  589MOL0     H81219   5.010   3.211   2.020  0.4624 -0.6512  0.2572
  589MOL0     H81220   4.898   3.346   2.078  0.7002 -0.0483  1.8540
  589MOL0     H81221   5.066   3.491   2.099 -0.8402  0.5301 -1.9733
  589MOL0     H81222   5.194   3.371   2.125  1.7885  1.3480 -1.5954
  589MOL0     H81223   5.201   3.518   1.912  0.9440 -1.1665 -0.3455
  589MOL0     H81224   5.055   3.443   1.864  1.6905  2.4629 -0.9073
  589MOL0     H81225   5.193   3.212   1.875 -0.5334 -0.1290  0.8385
  589MOL0     H81226   5.245   3.332   1.748  2.2766  1.0919 -0.2239
  589MOL0     H81227   5.349   3.235   2.020  0.5994 -0.9144  0.3981
  589MOL0     H81228   5.403   3.392   1.943 -1.4124  1.3295 -3.6172
  589MOL0     H81229   5.421   3.106   1.822 -3.6706  1.1712  0.4645
  589MOL0     H81230   5.484   3.259   1.760  0.5349  0.2099 -0.0473
  589MOL0     H81231   5.694   3.025   1.806  2.9163 -2.1944  2.3107
  589MOL0     H81232   5.885   2.929   1.977 -0.4432 -0.0888  0.3566
  589MOL0     H81233   5.959   3.041   2.084  1.7486 -2.0005 -0.8734
  589MOL0     H81234   5.963   3.023   1.783  1.7984 -0.6877 -0.8771
  589MOL0     H81235   6.039   3.160   1.866  1.0017  0.9551  1.5033
  589MOL0     H81236   6.185   3.009   1.994 -1.8123  0.9852  0.9356
  589MOL0     H81237   6.101   2.862   1.940 -1.2768  0.3431 -2.5970
  589MOL0     H81238   6.175   2.890   1.718 -1.0905 -1.3994  2.6955
  589MOL0     H81239   6.244   3.055   1.757  0.7053  0.5593  0.6726
  589MOL0     H81240   6.337   2.983   1.572 -0.9902  1.7460  1.0106
  589MOL0     H81241   6.555   2.985   1.313 -2.5668  1.0644 -0.9729
  589MOL0     H81242   6.551   3.149   1.368 -0.7313 -0.1996 -3.4038
  589MOL0     H81243   6.414   3.044   1.369  0.3259  3.6625 -1.9646
  589MOL0     H81244   7.154   2.896   1.641  0.0745  0.4656  1.7604
  589MOL0     H81245   7.366   2.990   1.603 -1.3148 -1.1442 -0.9917
  589MOL0     H81246   7.502   3.064   1.444 -0.7634  0.0995 -0.1519
  589MOL0     H81247   7.467   3.186   1.318  0.3763 -1.6167 -1.3441
  589MOL0     H81248   7.644   3.332   1.461 -0.0668 -0.9105  0.3416
  589MOL0     H81249   7.695   3.188   1.540  2.7552 -0.0122 -1.3450
  589MOL0     H81250   7.692   3.241   1.234  0.2020  1.6696  0.3636
  589MOL0     H81251   7.745   3.098   1.310  0.9452  0.0856  0.9873
  589MOL0     H81252   7.921   3.195   1.426  0.0595 -0.9853 -1.9758
  589MOL0     H81253   7.870   3.363   1.386 -2.9931 -0.1744 -0.4607
  589MOL0     H81254   7.965   3.335   1.161 -1.7104 -0.2762  0.5674
  589MOL0     H81255   8.083   3.284   1.274  0.2664  1.2524 -2.5145
  589MOL0     H81256   7.934   3.088   1.095 -0.5447 -0.2766  0.2608
  589MOL0     H81257   7.997   3.038   1.252  0.6567 -0.6083 -0.0645
  589MOL0     H81258   8.173   2.987   1.090 -2.2591 -0.8451 -0.0889
  589MOL0     H81259   8.231   3.130   1.178 -0.0184  2.8961 -1.5087
  589MOL0     H81260   8.153   3.291   1.011 -1.9567 -0.9468  0.6280
  589MOL0     H81261   8.067   3.172   0.922  0.3350  3.6744 -3.1022
  589MOL0     H81262   7.188   3.365   1.479 -0.7459 -1.2923 -0.4004
  589MOL0     H81263   6.971   3.266   1.501  1.2980  1.0692 -0.0767
  589MOL0     H81264   6.784   2.952   1.789 -0.0718 -2.4571 -1.2150
  589MOL0     H81265   6.590   2.868   1.906  0.8850  0.4739 -0.7159
  589MOL0     H81266   4.659   3.037   2.296 -2.9229 -0.6063  0.6818
  589MOL0     H81267   4.503   2.915   2.433  1.1654  1.5229 -1.3479
  589MOL0     H81268   4.488   2.701   2.915 -0.4076 -1.3303  4.5105
  589MOL0     H81269   4.363   2.610   3.073 -2.3030 -1.2769 -0.1792
  589MOL0     H81270   4.046   2.518   3.259  3.5124 -0.9061  1.7978
  589MOL0     H81271   4.204   2.584   3.247  1.3489 -1.6217 -3.4558
  589MOL0     H81272   4.118   2.823   3.254  0.1703  1.1522  2.2066
  589MOL0     H81273   4.067   2.724   3.391 -0.3974  0.4407 -0.9460
  589MOL0     H81274   3.893   2.873   3.256 -2.6482 -1.7922  1.4523
  589MOL0     H81275   3.917   2.765   3.115 -1.6384  0.4198 -0.5765
  589MOL0     H81276   3.829   2.588   3.283  1.3301  0.2195  1.2693
  589MOL0     H81277   3.704   2.704   3.224  0.4190  6.0419 -0.2930
  589MOL0     H81278   3.713   2.798   3.631 -3.4710  0.5219 -1.2651
  589MOL0     H81279   3.995   2.747   2.883 -0.6910 -0.7162  2.6015
  589MOL0     H81280   4.070   2.995   2.756 -0.0975  0.7810 -0.1302
  589MOL0     H81281   4.136   2.893   2.611  0.7679 -1.2192  0.9762
  589MOL0     H81282   3.990   2.854   2.699 -0.4147  1.4768  2.6002
  590MOL0     O81283  10.849   7.548   6.834 -0.4238  0.4135 -0.2207
  590MOL0     C81284  10.781   7.563   6.933 -0.1848 -0.6770  0.0182
  590MOL0     O81285  10.740   7.689   6.973  0.0950 -0.0913  0.5803
  590MOL0     C81286  10.793   7.805   6.915 -0.3222 -0.5342  0.7313
  590MOL0     C81287  10.870   7.895   6.996 -0.5071  0.1380 -0.2731
  590MOL0     C81288  10.946   7.991   6.928 -0.6097 -0.1359 -0.1696
  590MOL0     C81289  10.938   8.009   6.788  0.3033  0.4539 -0.5625
  590MOL0     O81290  11.021   8.095   6.724 -0.4523 -0.1182 -0.5466
  590MOL0     C81291  11.013   8.235   6.755 -0.9325 -0.2677  0.5015
  590MOL0     C81292  11.133   8.294   6.673  0.2193  0.3609  0.6660
  590MOL0     C81293  11.162   8.224   6.535  0.2987  0.3992 -0.1692
  590MOL0     C81294  11.280   8.292   6.470 -0.3125 -0.9554  0.1114
  590MOL0     C81295  11.337   8.203   6.359  0.9684 -0.1939 -0.5697
  590MOL0     C81296  11.234   8.176   6.253  0.6171  0.1224  0.1358
  590MOL0     C81297  11.299   8.109   6.131  0.6499 -0.4562 -0.6171
  590MOL0     C81298  11.176   8.061   6.049 -0.5999 -0.6053 -0.1998
  590MOL0     N81299  11.233   8.002   5.923 -0.4329 -0.1220 -0.5508
  590MOL0     C81300  11.296   7.872   5.922 -0.3542 -0.3739  0.3718
  590MOL0     C81301  11.321   7.858   5.790 -0.3958 -0.2062  0.4470
  590MOL0     C81302  11.392   7.736   5.742 -0.5203 -0.4549 -0.4025
  590MOL0     C81303  11.544   7.758   5.732 -0.5283  0.4457  0.6589
  590MOL0     C81304  11.614   7.621   5.691  0.9025  1.0795 -0.3473
  590MOL0     C81305  11.766   7.628   5.684 -0.4165 -0.0641  0.1832
  590MOL0     O81306  11.801   7.718   5.573  0.5683  0.0985 -1.1119
  590MOL0     C81307  11.929   7.722   5.531 -0.8658 -0.2933 -0.2876
  590MOL0     C81308  11.952   7.804   5.427  0.6564 -1.1043  0.6276
  590MOL0     C81309  12.075   7.842   5.376 -0.8750  0.0607  0.3594
  590MOL0     C81310  12.070   7.937   5.259  0.0884  0.2494  0.4899
  590MOL0     C81311  12.192   7.764   5.415 -0.0379 -0.5783  0.2174
  590MOL0     C81312  12.326   7.779   5.354 -0.5328 -0.0987 -0.5854
  590MOL0     O81313  12.425   7.712   5.414 -0.0684 -0.2144 -0.1493
  590MOL0     C81314  12.548   7.766   5.407 -0.5558 -1.2724 -0.9613
  590MOL0     C81315  12.642   7.674   5.370 -0.1622 -0.5817 -0.4558
  590MOL0     C81316  12.778   7.720   5.335  0.7701  0.5167 -0.1118
  590MOL0     C81317  12.808   7.853   5.350  0.1250  0.9077 -0.2331
  590MOL0     O81318  12.931   7.897   5.311  0.2628 -0.3210 -0.6135
  590MOL0     C81319  13.025   7.799   5.256 -0.4829 -0.5701 -0.1094
  590MOL0     C81320  13.147   7.868   5.188 -0.1760  0.5846 -0.4921
  590MOL0     C81321  13.098   7.950   5.064  0.2540  0.3403 -0.2997
  590MOL0     C81322  13.195   8.045   5.000 -0.3996 -0.9906 -0.5017
  590MOL0     C81323  13.100   8.138   4.914 -0.0269 -0.1565 -0.5938
  590MOL0     C81324  13.055   8.072   4.782  0.3698 -0.4626 -0.5598
  590MOL0     C81325  13.159   8.104   4.682 -0.2379 -0.3802 -0.5801
  590MOL0     C81326  13.123   8.032   4.546  0.2744 -0.6908 -0.0724
  590MOL0    Cl81327  13.228   8.073   4.415  0.3237  0.4881  0.1781
  590MOL0     C81328  12.722   7.942   5.420  0.0492 -0.7589  0.5095
  590MOL0     C81329  12.591   7.905   5.443  0.2517  0.3038  0.5763
  590MOL0     O81330  12.347   7.846   5.257  0.0233 -0.4040 -0.3089
  590MOL0     C81331  12.171   7.679   5.531 -0.1334  0.0447 -0.3569
  590MOL0     C81332  12.037   7.658   5.580 -0.4257  0.3879  0.3210
  590MOL0     N81333  11.288   7.970   5.714  1.1423  0.7752 -0.6682
  590MOL0     N81334  11.237   8.056   5.799 -0.3252  0.7273 -0.9686
  590MOL0     C81335  10.838   7.932   6.719  0.5820 -0.0617 -0.1152
  590MOL0     C81336  10.768   7.828   6.783 -0.3022  0.3057  0.1582
  590MOL0     C81337  10.702   7.451   6.997  0.1196 -0.0563 -0.0185
  590MOL0     C81338  10.595   7.488   7.077  0.4552  1.0820 -0.7509
  590MOL0     C81339  10.508   7.390   7.133 -0.2218 -0.5682  0.0759
  590MOL0     C81340  10.534   7.253   7.108  0.0050 -0.3710 -0.9196
  590MOL0     O81341  10.432   7.173   7.141  0.4995  0.1180 -0.5330
  590MOL0     C81342  10.472   7.048   7.212 -0.6636  0.1251  0.2857
  590MOL0     C81343  10.519   7.074   7.356  0.3855  1.1235  0.6245
  590MOL0     C81344  10.398   7.117   7.437 -0.6741  0.3480  0.1467
  590MOL0     C81345  10.429   7.177   7.568 -0.5571  0.2992  0.2166
  590MOL0     C81346  10.320   7.213   7.654  0.4847  0.2803  0.5530
  590MOL0     C81347  10.221   7.230   7.728  0.3123 -0.1969  0.3570
  590MOL0     C81348  10.647   7.215   7.027  0.0457  0.5218 -0.2454
  590MOL0     C81349  10.726   7.316   6.965 -0.3412 -0.0633  0.2772
  590MOL0     C81350  10.856   7.273   6.898 -0.2434 -0.1098  0.1037
  590MOL0     H81351  10.882   7.871   7.101  1.9803  3.2698  0.3147
  590MOL0     H81352  11.013   8.056   6.983 -2.6074  0.3311  1.8916
  590MOL0     H81353  11.021   8.253   6.863 -2.0042 -1.6775  0.8495
  590MOL0     H81354  10.916   8.272   6.720 -1.0428 -1.7166 -0.8371
  590MOL0     H81355  11.116   8.401   6.658 -1.6594 -0.2696 -2.5502
  590MOL0     H81356  11.213   8.279   6.746  1.3423 -0.9684 -0.7546
  590MOL0     H81357  11.179   8.119   6.559  0.7619  0.4949 -0.0608
  590MOL0     H81358  11.075   8.225   6.469 -0.9001  1.0637  1.3653
  590MOL0     H81359  11.249   8.390   6.435 -0.1305 -0.2411  1.8758
  590MOL0     H81360  11.347   8.310   6.554  1.3277 -1.7430 -0.9663
  590MOL0     H81361  11.365   8.109   6.408 -1.9494  0.2797  2.3485
  590MOL0     H81362  11.423   8.248   6.309  1.6343 -0.9018 -0.0894
  590MOL0     H81363  11.156   8.115   6.298  3.5973 -1.1664  4.1759
  590MOL0     H81364  11.198   8.275   6.224  0.7349 -0.3760 -1.8581
  590MOL0     H81365  11.379   8.039   6.157  0.5765 -0.4566 -0.3892
  590MOL0     H81366  11.340   8.191   6.071 -0.0669  0.9930  0.8007
  590MOL0     H81367  11.111   7.988   6.098 -3.5353  1.4372 -0.8234
  590MOL0     H81368  11.103   8.140   6.030 -0.4895 -0.2871  0.6280
  590MOL0     H81369  11.301   7.798   6.001  2.0406  1.5710  2.2436
  590MOL0     H81370  11.357   7.711   5.641  0.5842 -0.6244 -0.7551
  590MOL0     H81371  11.382   7.655   5.815  0.5709  0.5790  0.9387
  590MOL0     H81372  11.567   7.833   5.656 -0.7109  1.5117  1.6228
  590MOL0     H81373  11.594   7.795   5.823 -1.0045  1.9054  0.3536
  590MOL0     H81374  11.593   7.548   5.770  1.4159  0.4959 -0.7386
  590MOL0     H81375  11.574   7.583   5.597 -0.3358  0.2072  0.4993
  590MOL0     H81376  11.816   7.657   5.777 -1.1763 -0.8708  0.8489
  590MOL0     H81377  11.797   7.524   5.672 -1.4298 -0.3014 -0.5088
  590MOL0     H81378  11.862   7.856   5.395 -0.9318 -2.8382  2.0747
  590MOL0     H81379  12.096   7.883   5.168 -0.5233  0.5089  0.1516
  590MOL0     H81380  12.141   8.020   5.272 -0.3978  1.2320 -2.4279
  590MOL0     H81381  11.966   7.967   5.243 -1.0033 -4.3431 -3.2129
  590MOL0     H81382  12.616   7.569   5.360  0.1739 -0.6713 -0.3961
  590MOL0     H81383  12.831   7.640   5.284 -1.6635 -0.7957 -0.7658
  590MOL0     H81384  13.060   7.737   5.340 -1.3915 -2.6171 -1.1778
  590MOL0     H81385  12.987   7.726   5.184  0.1492 -2.2119  1.1366
  590MOL0     H81386  13.195   7.936   5.260  1.8905 -1.5856  0.3330
  590MOL0     H81387  13.227   7.797   5.168  0.3514  0.8251  0.6368
  590MOL0     H81388  13.013   8.007   5.103 -1.2015 -0.6675 -1.8577
  590MOL0     H81389  13.059   7.881   4.988  0.0158 -0.5337  0.5938
  590MOL0     H81390  13.271   7.990   4.945  0.5800  0.5544 -0.7546
  590MOL0     H81391  13.245   8.113   5.069 -2.5908  1.3619 -1.0599
  590MOL0     H81392  13.017   8.168   4.979  2.8747 -0.0851  3.4513
  590MOL0     H81393  13.141   8.239   4.901 -0.3939  0.5918  3.0754
  590MOL0     H81394  12.954   8.104   4.755  0.3553 -0.6768 -0.7701
  590MOL0     H81395  13.049   7.963   4.793 -0.3127 -0.3734  0.0014
  590MOL0     H81396  13.256   8.063   4.712  1.3530  1.4651 -2.8442
  590MOL0     H81397  13.177   8.211   4.671 -1.3564 -0.2760 -1.4714
  590MOL0     H81398  13.021   8.065   4.522  0.4018 -0.2583 -0.0246
  590MOL0     H81399  13.121   7.923   4.554 -2.5791 -0.9292 -2.2346
  590MOL0     H81400  12.766   8.039   5.438 -2.9380  0.8573 -0.2503
  590MOL0     H81401  12.514   7.969   5.485 -0.3860 -0.3800  0.4736
  590MOL0     H81402  12.243   7.619   5.586 -1.2528 -0.6876  0.3347
  590MOL0     H81403  12.019   7.596   5.667 -2.8231 -0.2581 -0.5624
  590MOL0     H81404  10.816   7.965   6.618 -3.3674 -1.0041  0.2902
  590MOL0     H81405  10.697   7.770   6.726  2.3628 -0.1746 -2.9764
  590MOL0     H81406  10.568   7.593   7.088  1.2255  1.2545 -0.4385
  590MOL0     H81407  10.423   7.411   7.198 -0.4809 -0.7296 -0.2097
  590MOL0     H81408  10.387   6.979   7.213  0.6350 -1.5584 -0.8214
  590MOL0     H81409  10.553   6.991   7.166 -2.2612 -2.1540  0.1656
  590MOL0     H81410  10.598   7.151   7.354  1.3721  0.1573 -1.4354
  590MOL0     H81411  10.556   6.982   7.402 -0.1454  0.7004  0.2161
  590MOL0     H81412  10.344   7.191   7.376 -0.4244 -1.7621 -2.8369
  590MOL0     H81413  10.318   7.045   7.457  0.0177 -0.0098  1.7080
  590MOL0     H81414  10.485   7.271   7.556 -1.6558  1.2887  2.2532
  590MOL0     H81415  10.497   7.114   7.625 -0.3412 -0.2328 -0.6093
  590MOL0     H81416  10.134   7.228   7.791  0.7202 -1.3023  0.9157
  590MOL0     H81417  10.665   7.109   7.010 -1.9627 -0.0072  0.6071
  590MOL0     H81418  10.936   7.333   6.943 -0.1868 -0.6312  0.7192
  590MOL0     H81419  10.882   7.169   6.919 -1.3610 -0.3868  0.1715
  590MOL0     H81420  10.851   7.296   6.792 -0.1484 -0.2288  0.0725
  591MOL0     O81421   4.962   8.086   4.956  0.1311  0.2778 -0.2024
  591MOL0     C81422   4.918   8.185   5.019  0.0469  1.1464  0.0598
  591MOL0     O81423   4.960   8.221   5.141 -0.1535 -0.1961  0.4724
  591MOL0     C81424   5.063   8.142   5.185  0.2094 -0.5691  0.0298
  591MOL0     C81425   5.058   8.029   5.275 -0.7811  0.6970 -0.6351
  591MOL0     C81426   5.179   7.958   5.304 -1.0441  0.0467  0.2233
  591MOL0     C81427   5.303   7.998   5.254  1.2337  0.0738 -0.0748
  591MOL0     O81428   5.409   7.911   5.284  0.4095  0.1298 -0.2264
  591MOL0     C81429   5.532   7.974   5.279  0.3036 -0.3462  0.3147
  591MOL0     C81430   5.650   7.894   5.343 -0.3346 -0.2365 -0.1856
  591MOL0     C81431   5.768   7.990   5.364  0.5884 -0.4946  0.3580
  591MOL0     C81432   5.887   7.915   5.427 -0.0773  0.2165 -0.5262
  591MOL0     C81433   6.010   7.991   5.400 -0.1603 -0.6575 -0.6770
  591MOL0     C81434   6.133   7.954   5.488  0.3329 -0.1584 -0.1156
  591MOL0     C81435   6.265   8.001   5.422  0.0166 -0.0382 -0.2890
  591MOL0     C81436   6.265   8.149   5.408 -0.3293 -0.2894 -0.4429
  591MOL0     N81437   6.405   8.182   5.374 -0.3691 -0.5082  0.9239
  591MOL0     C81438   6.485   8.110   5.290  0.0997 -0.3780 -0.0962
  591MOL0     C81439   6.609   8.170   5.298  0.2822 -0.1166  0.2395
  591MOL0     C81440   6.729   8.120   5.232  0.1796  0.6221 -0.3082
  591MOL0     C81441   6.732   8.202   5.098 -0.2960  0.3726  0.3801
  591MOL0     C81442   6.644   8.155   4.975  0.1172  0.0196 -0.3132
  591MOL0     C81443   6.693   8.222   4.843  0.6825 -0.0747 -0.7197
  591MOL0     O81444   6.665   8.362   4.843  0.5411 -0.0806  0.0433
  591MOL0     C81445   6.757   8.455   4.862  0.5062  0.1301  0.3527
  591MOL0     C81446   6.701   8.578   4.875 -0.9701  0.6354 -0.1365
  591MOL0     C81447   6.779   8.695   4.895  0.7502  0.5160  0.7686
  591MOL0     C81448   6.701   8.830   4.901 -0.4410  0.4770  0.3294
  591MOL0     C81449   6.913   8.676   4.911 -1.1450 -0.1106 -0.2344
  591MOL0     C81450   7.005   8.793   4.941 -0.3121 -0.0714 -0.3428
  591MOL0     O81451   7.120   8.764   4.999  0.1064  0.2485  0.5751
  591MOL0     C81452   7.233   8.841   5.024 -0.1457  0.0294  0.6805
  591MOL0     C81453   7.352   8.828   4.948 -0.2970  0.1641 -1.2835
  591MOL0     C81454   7.466   8.898   4.996 -0.1006 -0.6673  0.3208
  591MOL0     C81455   7.457   9.008   5.090 -0.0218  0.4414 -1.3423
  591MOL0     O81456   7.551   9.104   5.111 -0.1118 -0.6149 -0.1092
  591MOL0     C81457   7.678   9.073   5.054 -0.0561 -0.0860  0.0377
  591MOL0     C81458   7.784   9.175   5.086  0.4239  0.1937  0.8446
  591MOL0     C81459   7.925   9.118   5.084  1.3293 -0.2001  1.2235
  591MOL0     C81460   8.034   9.215   5.123 -0.5309  0.1439 -0.5463
  591MOL0     C81461   8.172   9.135   5.124  0.4587 -0.4049  0.4521
  591MOL0     C81462   8.292   9.219   5.128  0.0670 -0.5307 -0.2592
  591MOL0     C81463   8.409   9.148   5.182 -1.0411 -0.0801  0.5206
  591MOL0     C81464   8.443   9.014   5.113 -0.0593 -0.6390  0.0872
  591MOL0    Cl81465   8.370   8.884   5.208 -0.0061  0.5919  0.1115
  591MOL0     C81466   7.329   9.018   5.149 -0.2840  0.7903 -0.2104
  591MOL0     C81467   7.230   8.928   5.124  0.4709  0.5995  0.5468
  591MOL0     O81468   6.974   8.907   4.915 -0.7285 -0.5231  0.4191
  591MOL0     C81469   6.974   8.547   4.902 -0.8149 -0.5657 -0.0774
  591MOL0     C81470   6.891   8.438   4.866  0.8897  0.3050  0.2007
  591MOL0     N81471   6.599   8.266   5.392 -0.8303 -0.3735  0.0006
  591MOL0     N81472   6.483   8.276   5.435  0.7543  0.2059  0.4437
  591MOL0     C81473   5.301   8.113   5.171 -0.0980 -0.4693  0.5055
  591MOL0     C81474   5.186   8.179   5.132 -0.2210 -0.0091  0.5305
  591MOL0     C81475   4.836   8.290   4.949  0.1315 -0.1808 -0.2372
  591MOL0     C81476   4.845   8.288   4.802  1.4116  0.2395 -0.8648
  591MOL0     C81477   4.779   8.386   4.721  0.3004  0.6383 -0.4310
  591MOL0     C81478   4.717   8.492   4.783  0.0471  0.1567 -0.4373
  591MOL0     O81479   4.634   8.583   4.718  0.2516 -0.3943 -0.1371
  591MOL0     C81480   4.579   8.561   4.583  0.2160  0.5906  0.0450
  591MOL0     C81481   4.502   8.423   4.570 -0.8553 -0.2083 -0.4106
  591MOL0     C81482   4.404   8.411   4.688 -0.5146  0.9560 -0.3330
  591MOL0     C81483   4.321   8.537   4.728 -0.2748 -0.1893 -0.5487
  591MOL0     C81484   4.212   8.546   4.639  0.0556  0.0686 -0.7787
  591MOL0     C81485   4.135   8.549   4.551  0.0388  0.2849  0.3278
  591MOL0     C81486   4.712   8.510   4.923 -0.3658  0.1441  0.6887
  591MOL0     C81487   4.761   8.406   5.004 -0.2870 -0.2063  0.0092
  591MOL0     C81488   4.725   8.414   5.158 -0.3403 -0.6196 -0.0062
  591MOL0     H81489   4.969   7.979   5.314  0.8158 -0.6190  1.5463
  591MOL0     H81490   5.167   7.865   5.358  1.0190  0.2071  1.0577
  591MOL0     H81491   5.522   8.071   5.327  1.1628  0.5549 -1.2520
  591MOL0     H81492   5.559   7.999   5.176 -2.6732  0.0915 -0.4371
  591MOL0     H81493   5.612   7.851   5.437 -0.3555 -2.4487 -1.1513
  591MOL0     H81494   5.687   7.814   5.278 -0.1221  0.6348 -1.1623
  591MOL0     H81495   5.800   8.039   5.271 -0.7494  1.3818  0.8363
  591MOL0     H81496   5.754   8.075   5.431  0.0742  0.3742 -0.8302
  591MOL0     H81497   5.871   7.894   5.533 -1.9787 -1.5981 -1.1014
  591MOL0     H81498   5.899   7.817   5.380 -0.1094 -0.5031  0.9157
  591MOL0     H81499   5.982   8.095   5.419 -0.0707 -0.6575 -0.5457
  591MOL0     H81500   6.032   7.977   5.293  1.9682  1.0559 -0.5493
  591MOL0     H81501   6.127   7.994   5.590 -0.4292  2.7530 -1.1998
  591MOL0     H81502   6.150   7.847   5.498  0.0765  0.0063  3.2400
  591MOL0     H81503   6.267   7.952   5.324 -4.0263 -1.4492  0.1503
  591MOL0     H81504   6.347   7.973   5.489 -1.2825  2.5049  2.6581
  591MOL0     H81505   6.182   8.181   5.345  0.7719  3.1979 -0.3056
  591MOL0     H81506   6.239   8.184   5.508  0.6312 -0.9847  0.0677
  591MOL0     H81507   6.463   8.021   5.232 -4.1935 -0.0417  0.6611
  591MOL0     H81508   6.734   8.011   5.223 -2.7423  0.4999 -1.8142
  591MOL0     H81509   6.817   8.139   5.293 -0.0707  2.1867 -0.3917
  591MOL0     H81510   6.710   8.308   5.113 -0.4131  0.2135  1.4199
  591MOL0     H81511   6.834   8.199   5.060  0.2758  2.3089  1.6206
  591MOL0     H81512   6.642   8.047   4.956 -1.0272  0.4623 -3.2315
  591MOL0     H81513   6.540   8.185   4.994 -0.3129 -1.2050 -0.6201
  591MOL0     H81514   6.797   8.193   4.825  0.3302 -1.4542 -0.7052
  591MOL0     H81515   6.640   8.170   4.762  3.2181 -4.2122 -0.0145
  591MOL0     H81516   6.594   8.573   4.860 -1.3216 -2.2361  2.2892
  591MOL0     H81517   6.736   8.905   4.830 -1.0801  2.5941  2.1593
  591MOL0     H81518   6.715   8.870   5.002  1.2213 -1.3651  0.8978
  591MOL0     H81519   6.594   8.820   4.881 -0.1319 -0.5940 -0.9395
  591MOL0     H81520   7.362   8.757   4.866  1.2427 -0.4370 -0.6048
  591MOL0     H81521   7.553   8.882   4.932  0.4482 -1.7837  1.2972
  591MOL0     H81522   7.709   8.974   5.088 -1.8780  0.0603  2.3813
  591MOL0     H81523   7.678   9.071   4.944 -2.9032  0.0807 -0.0424
  591MOL0     H81524   7.789   9.261   5.018  2.5157 -0.3456  0.2316
  591MOL0     H81525   7.776   9.202   5.192 -0.3490  2.0477  0.3474
  591MOL0     H81526   7.947   9.078   4.984  0.9454  1.7896  0.3027
  591MOL0     H81527   7.921   9.028   5.146 -0.0843  0.9555  2.9082
  591MOL0     H81528   8.022   9.262   5.221  0.2868 -0.7676  0.0119
  591MOL0     H81529   8.035   9.299   5.053 -1.2447 -0.8442 -1.7741
  591MOL0     H81530   8.170   9.060   5.204  1.6881 -0.7888  0.1547
  591MOL0     H81531   8.177   9.078   5.030  1.1273  0.2848  0.0655
  591MOL0     H81532   8.271   9.300   5.198 -1.6374 -1.7314  0.6655
  591MOL0     H81533   8.297   9.280   5.037 -1.5847  2.3994  1.4507
  591MOL0     H81534   8.389   9.131   5.288 -1.7909  0.1199  0.4142
  591MOL0     H81535   8.502   9.203   5.164  0.1263 -2.4123 -1.1100
  591MOL0     H81536   8.549   8.996   5.091 -0.1262  0.8612 -1.6767
  591MOL0     H81537   8.398   9.011   5.014  0.3732 -0.3071 -0.1233
  591MOL0     H81538   7.307   9.082   5.234 -1.0211  0.2088  0.0427
  591MOL0     H81539   7.143   8.936   5.189 -1.3758 -3.4276 -1.0667
  591MOL0     H81540   7.082   8.534   4.909 -0.7131  0.9045  1.9441
  591MOL0     H81541   6.946   8.344   4.860  1.7808  0.7877  0.5430
  591MOL0     H81542   5.392   8.154   5.128 -0.1338 -0.7512  0.1580
  591MOL0     H81543   5.183   8.257   5.056 -1.8768 -1.0015 -0.4665
  591MOL0     H81544   4.894   8.204   4.754  2.6938  0.4707 -0.0328
  591MOL0     H81545   4.800   8.378   4.615  1.5454 -0.6499 -0.1222
  591MOL0     H81546   4.508   8.638   4.552 -2.2345 -1.3977  0.4380
  591MOL0     H81547   4.650   8.574   4.501 -1.9907  1.4492 -1.8499
  591MOL0     H81548   4.576   8.342   4.574  0.1760  0.7105 -0.3372
  591MOL0     H81549   4.449   8.416   4.475 -0.8626  0.0898 -0.4318
  591MOL0     H81550   4.338   8.325   4.671  3.2842 -2.2676 -0.2558
  591MOL0     H81551   4.469   8.381   4.771  0.2892  0.5240 -1.0900
  591MOL0     H81552   4.380   8.630   4.729  2.5857 -1.8287 -2.4741
  591MOL0     H81553   4.279   8.518   4.827 -1.4571  1.0430 -0.7888
  591MOL0     H81554   4.072   8.528   4.467 -3.1998  3.2236  1.8006
  591MOL0     H81555   4.662   8.597   4.962 -1.3870  0.3410 -0.9661
  591MOL0     H81556   4.742   8.313   5.197  3.2523  1.2559  4.0617
  591MOL0     H81557   4.793   8.482   5.210 -1.3789  0.5375 -0.1092
  591MOL0     H81558   4.620   8.443   5.171 -0.0696  0.3926 -0.0108
  592MOL0     O81559   5.324   6.552   0.120  0.3757 -0.1483  0.2329
  592MOL0     C81560   5.322   6.559  -0.003 -0.3558  0.4555  0.1624
  592MOL0     O81561   5.432   6.542  -0.084  0.5639 -0.5333  0.1301
  592MOL0     C81562   5.538   6.468  -0.040 -0.0080 -0.3992  0.2499
  592MOL0     C81563   5.564   6.337  -0.079  0.2230  0.3513 -0.8467
  592MOL0     C81564   5.683   6.269  -0.040  0.3840 -0.1682  0.2939
  592MOL0     C81565   5.778   6.338   0.034 -0.4875  0.3637 -0.3844
  592MOL0     O81566   5.900   6.281   0.052  0.1473  0.5279 -0.4223
  592MOL0     C81567   6.012   6.363   0.055  0.1213  0.5985 -0.4306
  592MOL0     C81568   6.129   6.264   0.029 -0.4480  0.6635 -0.3075
  592MOL0     C81569   6.269   6.333   0.032 -0.3522 -0.1144  0.0657
  592MOL0     C81570   6.378   6.227   0.057  0.4550 -0.2624  0.1338
  592MOL0     C81571   6.508   6.273   0.117  0.4476 -0.5437  0.2643
  592MOL0     C81572   6.599   6.165   0.174  0.9102  1.0285  0.0615
  592MOL0     C81573   6.745   6.208   0.204  0.0562  0.3955  0.7133
  592MOL0     C81574   6.820   6.207   0.060 -0.1403 -0.3662 -0.4891
  592MOL0     N81575   6.869   6.076   0.018  0.3222  0.6410  1.0169
  592MOL0     C81576   6.961   6.003   0.088  0.4547 -0.1268 -0.5815
  592MOL0     C81577   7.006   5.914  -0.002 -0.0970  0.1233 -0.7185
  592MOL0     C81578   7.118   5.817   0.033  1.0090 -0.4459 -0.8814
  592MOL0     C81579   7.084   5.720   0.149  0.4443 -0.0790 -0.4761
  592MOL0     C81580   7.179   5.594   0.148  1.2408 -0.1887  0.2579
  592MOL0     C81581   7.316   5.639   0.202 -0.0808 -0.5577 -0.7049
  592MOL0     O81582   7.393   5.520   0.177  0.5703 -0.6458 -0.3969
  592MOL0     C81583   7.524   5.502   0.214 -0.3581 -0.0022 -0.0334
  592MOL0     C81584   7.584   5.382   0.176  0.5174 -0.9444 -0.1934
  592MOL0     C81585   7.710   5.343   0.207  0.7554  1.1094  0.1764
  592MOL0     C81586   7.746   5.195   0.181 -0.0388 -1.2264 -0.6696
  592MOL0     C81587   7.798   5.444   0.268  0.0151  0.4674 -0.7208
  592MOL0     C81588   7.945   5.415   0.283 -1.0951 -0.5355 -0.2716
  592MOL0     O81589   8.009   5.318   0.215 -0.5023  0.3459 -0.1742
  592MOL0     C81590   8.137   5.275   0.245  0.8311  0.7303  0.2017
  592MOL0     C81591   8.199   5.292   0.372 -0.1844  0.2899 -0.0829
  592MOL0     C81592   8.331   5.252   0.380 -0.0218 -0.1111  0.3689
  592MOL0     C81593   8.409   5.202   0.268 -0.3998  0.7478  0.5514
  592MOL0     O81594   8.536   5.161   0.299  0.3284 -0.0756  0.0570
  592MOL0     C81595   8.624   5.118   0.182  0.2919 -0.7933 -0.0304
  592MOL0     C81596   8.775   5.106   0.234 -0.3792 -0.3932 -0.9454
  592MOL0     C81597   8.846   5.243   0.236  0.6845  0.2331 -0.7747
  592MOL0     C81598   8.965   5.243   0.330 -0.4831 -0.0852  0.5224
  592MOL0     C81599   9.067   5.359   0.302  0.1024 -0.8686  0.5477
  592MOL0     C81600   9.161   5.338   0.182  0.5904 -0.4181 -0.2805
  592MOL0     C81601   9.255   5.218   0.211 -0.9145  0.0527  0.9728
  592MOL0     C81602   9.362   5.202   0.099  0.1412  0.2772 -0.2335
  592MOL0    Cl81603   9.287   5.160  -0.067  0.3735  0.1224  0.0955
  592MOL0     C81604   8.339   5.174   0.150 -0.1539 -1.2079  0.5606
  592MOL0     C81605   8.203   5.205   0.138  0.5433  0.2982 -0.2969
  592MOL0     O81606   8.006   5.512   0.331 -0.4918  0.2747  0.5212
  592MOL0     C81607   7.737   5.562   0.321  0.2186  0.7526 -0.7762
  592MOL0     C81608   7.601   5.583   0.298 -0.5502 -0.2357 -0.2980
  592MOL0     N81609   6.947   5.931  -0.123  0.4552 -0.6575 -0.1995
  592MOL0     N81610   6.858   6.032  -0.107 -0.4702  0.7105  0.1461
  592MOL0     C81611   5.756   6.475   0.074  0.2427  0.3193  0.1291
  592MOL0     C81612   5.635   6.532   0.034 -1.3605  0.7078 -0.0681
  592MOL0     C81613   5.192   6.585  -0.075 -0.5199 -0.0710 -0.0737
  592MOL0     C81614   5.199   6.608  -0.216  0.3494 -0.4632  0.1980
  592MOL0     C81615   5.085   6.635  -0.298 -0.2799 -0.0832 -0.6128
  592MOL0     C81616   4.961   6.650  -0.242  0.3949  0.0265 -0.6238
  592MOL0     O81617   4.862   6.691  -0.327 -0.0099  0.8622  0.5232
  592MOL0     C81618   4.720   6.675  -0.284 -0.1179  0.2713  0.3493
  592MOL0     C81619   4.632   6.677  -0.408 -0.3890  0.1173  0.0611
  592MOL0     C81620   4.684   6.568  -0.501  0.0068 -0.2181  0.0551
  592MOL0     C81621   4.609   6.569  -0.634  0.3298 -0.1799  0.3298
  592MOL0     C81622   4.621   6.701  -0.694  0.2263 -0.0376  0.8178
  592MOL0     C81623   4.655   6.812  -0.747 -0.1447 -0.2151  0.2853
  592MOL0     C81624   4.946   6.642  -0.101 -0.2422 -0.9999  0.6085
  592MOL0     C81625   5.061   6.611  -0.021 -0.1267  0.1449 -0.0560
  592MOL0     C81626   5.052   6.637   0.125 -0.4041  0.1091  0.0007
  592MOL0     H81627   5.484   6.296  -0.140  0.3153  0.8566 -1.3166
  592MOL0     H81628   5.695   6.164  -0.066 -1.7561 -1.0399  2.4179
  592MOL0     H81629   6.019   6.402   0.158  1.8934  1.5797 -0.8825
  592MOL0     H81630   6.012   6.440  -0.022 -1.6545 -0.4595 -1.5645
  592MOL0     H81631   6.116   6.198   0.115  0.9536  1.2388  0.3745
  592MOL0     H81632   6.104   6.209  -0.063  2.3601 -2.4929  0.6024
  592MOL0     H81633   6.278   6.377  -0.067 -3.5228  0.6912  0.0194
  592MOL0     H81634   6.261   6.408   0.111 -0.7981 -0.8514  0.7388
  592MOL0     H81635   6.340   6.147   0.121  1.4748 -0.5808  0.3614
  592MOL0     H81636   6.397   6.181  -0.041  0.8593  0.5446 -0.1777
  592MOL0     H81637   6.469   6.346   0.189 -1.7001 -1.3538 -0.0088
  592MOL0     H81638   6.564   6.330   0.042  0.0330 -1.5423 -0.8448
  592MOL0     H81639   6.572   6.123   0.271  2.4067 -0.2681 -0.0345
  592MOL0     H81640   6.609   6.082   0.103  1.1754  1.4586 -0.4045
  592MOL0     H81641   6.787   6.123   0.259  2.1492 -0.8125 -2.4842
  592MOL0     H81642   6.764   6.298   0.263  2.0693 -0.0466  0.8200
  592MOL0     H81643   6.755   6.244  -0.020 -1.2041  0.0346  0.5448
  592MOL0     H81644   6.897   6.284   0.069 -0.8693  0.5968 -2.0038
  592MOL0     H81645   7.003   6.017   0.187 -0.5203 -1.0227 -0.0150
  592MOL0     H81646   7.198   5.883   0.068 -2.1561  2.1982  2.0112
  592MOL0     H81647   7.154   5.760  -0.054  1.3454 -1.6192  0.0122
  592MOL0     H81648   7.110   5.768   0.243  2.3259 -0.2825 -0.8610
  592MOL0     H81649   6.984   5.674   0.148 -1.2719  3.3216 -0.2613
  592MOL0     H81650   7.142   5.510   0.208  0.1180  0.5909  0.6881
  592MOL0     H81651   7.187   5.561   0.044  2.2498  0.5821  0.0761
  592MOL0     H81652   7.351   5.732   0.156 -3.7649  0.3553 -2.1002
  592MOL0     H81653   7.313   5.650   0.311  2.9908 -1.3122 -0.4706
  592MOL0     H81654   7.532   5.311   0.112  0.2713 -2.5411  1.6889
  592MOL0     H81655   7.810   5.154   0.259  1.3881  1.7119 -0.1359
  592MOL0     H81656   7.809   5.180   0.093  0.8731 -3.3788  0.2754
  592MOL0     H81657   7.655   5.135   0.180  0.3117 -1.9944  2.5957
  592MOL0     H81658   8.167   5.344   0.462 -0.7385 -1.5972  0.8492
  592MOL0     H81659   8.385   5.252   0.474  0.0852  0.6630  0.3168
  592MOL0     H81660   8.584   5.024   0.142 -0.4865 -1.0854  1.3627
  592MOL0     H81661   8.620   5.197   0.107 -1.5639 -1.9342 -1.2031
  592MOL0     H81662   8.763   5.070   0.337  0.2915 -0.1984 -0.8007
  592MOL0     H81663   8.833   5.033   0.176  0.0514 -1.5357  0.8460
  592MOL0     H81664   8.765   5.307   0.271  2.5452  2.5980 -0.5511
  592MOL0     H81665   8.863   5.280   0.134 -4.6388  1.3896 -1.5392
  592MOL0     H81666   9.016   5.148   0.317  1.0812  0.5830  1.4359
  592MOL0     H81667   8.936   5.248   0.436 -0.6206 -2.0829  0.6148
  592MOL0     H81668   9.013   5.454   0.297  0.4814 -0.4812  2.8194
  592MOL0     H81669   9.125   5.361   0.395 -1.3605  0.6668  1.4756
  592MOL0     H81670   9.209   5.435   0.163 -1.8620  0.9989  0.3475
  592MOL0     H81671   9.095   5.319   0.097  0.7269  1.4569 -0.8552
  592MOL0     H81672   9.190   5.130   0.212 -1.7850  0.6883  1.4879
  592MOL0     H81673   9.302   5.227   0.309  0.0578 -0.2614  0.5493
  592MOL0     H81674   9.424   5.116   0.124 -0.5848 -0.2358 -0.1526
  592MOL0     H81675   9.419   5.296   0.104 -0.2107  0.4469  3.2519
  592MOL0     H81676   8.404   5.146   0.067  2.1497 -1.3306  2.3036
  592MOL0     H81677   8.160   5.190   0.039  1.2116 -1.0466 -0.4087
  592MOL0     H81678   7.798   5.624   0.386 -1.2115  1.8087 -0.3977
  592MOL0     H81679   7.555   5.674   0.335  1.1285  1.0898 -1.3408
  592MOL0     H81680   5.835   6.532   0.122  0.3148  1.0498 -0.8297
  592MOL0     H81681   5.637   6.639   0.056  0.2416  1.3247 -2.7737
  592MOL0     H81682   5.295   6.606  -0.267 -1.2196 -0.7336 -2.9727
  592MOL0     H81683   5.096   6.647  -0.405 -0.0561 -2.4763 -0.9209
  592MOL0     H81684   4.703   6.579  -0.233  0.4315  0.2663  0.5285
  592MOL0     H81685   4.688   6.750  -0.211 -3.0302  0.1275 -0.6794
  592MOL0     H81686   4.648   6.775  -0.455  1.0581 -0.0073  0.2520
  592MOL0     H81687   4.526   6.664  -0.385  0.2048 -1.3256  2.2236
  592MOL0     H81688   4.791   6.584  -0.518 -0.0933  0.6504  0.2126
  592MOL0     H81689   4.678   6.473  -0.446 -1.6723  0.8984  1.9596
  592MOL0     H81690   4.507   6.537  -0.612  0.8725 -2.1992  0.1239
  592MOL0     H81691   4.640   6.484  -0.696 -1.7787 -1.1245  0.4831
  592MOL0     H81692   4.685   6.905  -0.792  0.0331 -0.2909  0.2469
  592MOL0     H81693   4.854   6.666  -0.049 -1.3960 -3.2467 -0.2587
  592MOL0     H81694   5.046   6.535   0.165 -0.9488 -1.0789 -2.8839
  592MOL0     H81695   5.136   6.686   0.174 -1.7443  1.0007  1.5029
  592MOL0     H81696   4.958   6.692   0.135 -1.6216 -1.8266 -0.0832
  593MOL0     O81697  11.216   6.449  10.847 -0.2298  0.0484 -0.0262
  593MOL0     C81698  11.159   6.545  10.799  0.2720  0.0072  0.3354
  593MOL0     O81699  11.123   6.654  10.871  0.2784  0.4053 -0.6768
  593MOL0     C81700  11.125   6.650  11.007 -0.0351  0.2278 -0.9367
  593MOL0     C81701  11.248   6.632  11.078 -0.6007 -0.8946  0.0795
  593MOL0     C81702  11.242   6.623  11.218 -0.6028  0.2967 -0.0839
  593MOL0     C81703  11.125   6.633  11.290  1.3524 -0.1452 -0.8541
  593MOL0     O81704  11.142   6.616  11.422 -0.1766 -0.8398 -0.4126
  593MOL0     C81705  11.020   6.604  11.495 -0.4522  0.0776  0.1890
  593MOL0     C81706  10.953   6.732  11.535 -0.2890  0.1387  0.1518
  593MOL0     C81707  11.017   6.811  11.643 -0.1239  0.5003  0.3464
  593MOL0     C81708  10.947   6.940  11.668 -0.1895 -0.4031 -0.0721
  593MOL0     C81709  10.976   7.014  11.803  0.2252  0.5352 -0.2397
  593MOL0     C81710  11.117   7.063  11.820 -0.2332  0.7609 -0.2792
  593MOL0     C81711  11.174   7.139  11.707 -0.8038 -0.7401  0.4369
  593MOL0     C81712  11.303   7.212  11.767  0.2000  0.2671  0.5612
  593MOL0     N81713  11.368   7.300  11.670  0.6670  0.1114 -0.1589
  593MOL0     C81714  11.496   7.275  11.612  0.4024 -0.5281 -0.4229
  593MOL0     C81715  11.531   7.390  11.549 -0.1108  0.2094 -0.0442
  593MOL0     C81716  11.653   7.410  11.469 -0.6590  0.7539 -0.9426
  593MOL0     C81717  11.717   7.554  11.494 -0.3472 -0.7177 -0.0792
  593MOL0     C81718  11.857   7.567  11.423  0.5000  0.2735 -0.5681
  593MOL0     C81719  11.921   7.701  11.452 -0.1291  0.3516  0.0898
  593MOL0     O81720  11.963   7.708  11.588 -0.2416 -0.3805 -0.4421
  593MOL0     C81721  12.025   7.829  11.622  0.2060  0.4089 -0.1119
  593MOL0     C81722  12.066   7.845  11.756 -0.3678  1.5560  0.6828
  593MOL0     C81723  12.153   7.955  11.801  0.3702  0.0445  0.2149
  593MOL0     C81724  12.200   7.961  11.943 -0.3469 -0.6652  0.6105
  593MOL0     C81725  12.170   8.064  11.710  0.6010 -0.1761  0.1548
  593MOL0     C81726  12.266   8.180  11.739 -0.2358  0.4292 -0.6906
  593MOL0     O81727  12.234   8.292  11.683  0.2300 -0.1686  0.3912
  593MOL0     C81728  12.295   8.407  11.718  0.0401  0.3959 -0.5676
  593MOL0     C81729  12.274   8.502  11.620  0.4132 -0.6234 -0.0064
  593MOL0     C81730  12.323   8.636  11.629  0.7778  0.3837 -0.2194
  593MOL0     C81731  12.400   8.671  11.747  0.4255 -1.2856  0.8776
  593MOL0     O81732  12.452   8.797  11.747 -0.1081 -0.3579 -0.2382
  593MOL0     C81733  12.427   8.873  11.862  0.1800 -1.0651  0.3526
  593MOL0     C81734  12.495   9.014  11.844  0.5245  0.8992  0.2727
  593MOL0     C81735  12.476   9.069  11.699  0.2474  0.1852 -0.0622
  593MOL0     C81736  12.575   9.030  11.586 -0.1109  0.8406  0.9006
  593MOL0     C81737  12.700   9.115  11.604  0.1252  0.1841 -0.7751
  593MOL0     C81738  12.806   9.118  11.493  0.5420 -0.7152  0.0793
  593MOL0     C81739  12.893   8.992  11.480  0.0306 -0.1748  0.3565
  593MOL0     C81740  13.022   8.994  11.388  0.6282 -0.5453  0.3208
  593MOL0    Cl81741  13.160   9.091  11.471 -0.1601  0.1167  0.1025
  593MOL0     C81742  12.434   8.574  11.837  0.8400 -0.3480 -0.4858
  593MOL0     C81743  12.379   8.441  11.831 -1.0892 -0.5957 -0.3469
  593MOL0     O81744  12.368   8.169  11.813  0.3669  0.2617  0.8901
  593MOL0     C81745  12.134   8.045  11.572  0.7610 -0.1158  0.4923
  593MOL0     C81746  12.058   7.933  11.534  0.1822 -0.0774 -0.5994
  593MOL0     N81747  11.427   7.484  11.569  1.1323 -0.0756 -0.0832
  593MOL0     N81748  11.333   7.430  11.642 -0.5929  0.4622 -0.5099
  593MOL0     C81749  11.004   6.657  11.219 -0.2527  0.0880 -0.5977
  593MOL0     C81750  11.008   6.662  11.078  0.3061  0.6803 -0.6038
  593MOL0     C81751  11.154   6.563  10.649  0.4656 -0.8863 -0.6434
  593MOL0     C81752  11.056   6.653  10.598  0.8201 -0.9507 -0.3521
  593MOL0     C81753  11.031   6.662  10.460  0.3149 -0.0490 -0.1509
  593MOL0     C81754  11.101   6.584  10.367 -0.6897 -0.0654 -0.7763
  593MOL0     O81755  11.104   6.589  10.229 -1.0655  0.2211  0.7859
  593MOL0     C81756  11.014   6.688  10.179  1.1035  0.0907 -0.4694
  593MOL0     C81757  11.002   6.674  10.024  1.0862  0.0664  0.2147
  593MOL0     C81758  11.079   6.783   9.943 -0.6922 -0.2699  0.0404
  593MOL0     C81759  11.233   6.792   9.980 -0.2402  0.2772 -0.1065
  593MOL0     C81760  11.303   6.859   9.867  0.1721 -0.2734 -0.1098
  593MOL0     C81761  11.334   6.923   9.769 -0.3616  0.5481  0.4065
  593MOL0     C81762  11.204   6.505  10.424  0.0370 -0.7503 -0.2646
  593MOL0     C81763  11.222   6.491  10.555  0.0804  0.0337 -0.1378
  593MOL0     C81764  11.337   6.393  10.592 -0.9015 -0.3618 -0.7705
  593MOL0     H81765  11.343   6.614  11.029 -0.4920 -1.5380  0.5143
  593MOL0     H81766  11.335   6.603  11.268 -0.2635  1.7961 -0.0629
  593MOL0     H81767  11.039   6.550  11.588 -0.8081  1.8551  1.3453
  593MOL0     H81768  10.948   6.547  11.435 -0.6219 -2.5671  2.7020
  593MOL0     H81769  10.955   6.808  11.456 -2.0526  3.3043  2.9019
  593MOL0     H81770  10.845   6.715  11.541 -0.3946 -0.1496 -1.9149
  593MOL0     H81771  11.012   6.759  11.739  0.1330  1.5855  0.9687
  593MOL0     H81772  11.123   6.829  11.624  0.0493 -0.2728  0.5578
  593MOL0     H81773  10.959   7.013  11.587 -1.7596  1.4661  1.2803
  593MOL0     H81774  10.840   6.920  11.662  0.1011 -2.0413 -0.2631
  593MOL0     H81775  10.966   6.935  11.878  0.9354  0.1344 -0.5640
  593MOL0     H81776  10.905   7.097  11.817  1.5426  1.7764 -0.6211
  593MOL0     H81777  11.119   7.128  11.908 -2.1178  0.3082  0.1422
  593MOL0     H81778  11.174   6.973  11.844 -3.9192 -1.3181  1.6514
  593MOL0     H81779  11.099   7.208  11.669  1.2432  2.5286  1.8986
  593MOL0     H81780  11.197   7.065  11.630 -1.3721 -0.9200  0.4330
  593MOL0     H81781  11.274   7.287  11.840  0.5274 -0.3309  1.3134
  593MOL0     H81782  11.378   7.149  11.814  1.7799  0.3870 -1.6056
  593MOL0     H81783  11.557   7.188  11.634  3.6946  1.1110 -2.2942
  593MOL0     H81784  11.632   7.401  11.362 -3.4578  0.9045 -0.4849
  593MOL0     H81785  11.728   7.338  11.502  0.5680  1.8539 -1.2651
  593MOL0     H81786  11.652   7.628  11.448 -1.0350 -3.7597 -4.6780
  593MOL0     H81787  11.731   7.566  11.602  0.8090 -1.6350 -0.1101
  593MOL0     H81788  11.929   7.497  11.467 -0.0539  0.0559  0.0288
  593MOL0     H81789  11.839   7.548  11.317 -0.8213 -0.9805 -0.1595
  593MOL0     H81790  12.005   7.712  11.384  0.2187 -0.8560  0.2895
  593MOL0     H81791  11.855   7.785  11.428  1.5232  1.8002  0.3665
  593MOL0     H81792  12.050   7.754  11.813 -0.5076 -0.6899 -2.6159
  593MOL0     H81793  12.199   7.863  11.991 -0.2119  0.1293  2.2824
  593MOL0     H81794  12.123   8.019  11.994 -1.1503 -0.8310 -0.3767
  593MOL0     H81795  12.305   7.990  11.952 -0.3276 -1.1175  2.1110
  593MOL0     H81796  12.205   8.492  11.537 -0.2637  1.1532  0.3131
  593MOL0     H81797  12.304   8.701  11.545  1.4765  0.7712 -0.0867
  593MOL0     H81798  12.320   8.890  11.877  0.3890  0.5137  0.1811
  593MOL0     H81799  12.462   8.816  11.949 -3.7065 -1.3260  1.9466
  593MOL0     H81800  12.441   9.080  11.912 -0.5562 -1.1409  1.5120
  593MOL0     H81801  12.602   9.019  11.868  0.8532  3.6208 -1.4197
  593MOL0     H81802  12.478   9.178  11.705 -1.6058  0.1603  2.2795
  593MOL0     H81803  12.373   9.043  11.671 -0.2298  1.3870  0.5287
  593MOL0     H81804  12.528   9.049  11.489  2.0533  0.7542 -0.2256
  593MOL0     H81805  12.589   8.922  11.591 -1.7232  0.6668  2.7629
  593MOL0     H81806  12.668   9.219  11.617  0.0995  0.1369 -0.4564
  593MOL0     H81807  12.751   9.082  11.694 -0.9076 -1.0242 -0.6017
  593MOL0     H81808  12.874   9.193  11.533 -0.3331 -0.4200  1.0589
  593MOL0     H81809  12.745   9.137  11.404 -1.5987 -0.7386  1.4718
  593MOL0     H81810  12.832   8.908  11.445  1.5805 -1.8580  1.5162
  593MOL0     H81811  12.925   8.965  11.581  1.2490 -1.8880 -0.4440
  593MOL0     H81812  12.989   9.035  11.292  1.8022 -2.0029 -0.7488
  593MOL0     H81813  13.056   8.890  11.380  0.4117 -0.5642 -0.3894
  593MOL0     H81814  12.484   8.601  11.930 -3.0421 -2.9869  2.6624
  593MOL0     H81815  12.397   8.367  11.908  1.5136 -0.1740 -0.4561
  593MOL0     H81816  12.158   8.120  11.497 -0.0961 -0.8478 -0.5433
  593MOL0     H81817  12.031   7.922  11.430 -1.1431 -2.2903 -0.0931
  593MOL0     H81818  10.907   6.677  11.263 -0.4684 -1.5900 -0.2291
  593MOL0     H81819  10.909   6.672  11.036 -1.2803 -2.4296  1.9860
  593MOL0     H81820  10.996   6.720  10.659  2.6085 -0.1229  0.5799
  593MOL0     H81821  10.950   6.725  10.423 -1.0510 -0.9208  1.1947
  593MOL0     H81822  10.915   6.666  10.221  0.4662  3.4922  0.1301
  593MOL0     H81823  11.046   6.787  10.214  0.0126  0.6816 -1.0856
  593MOL0     H81824  10.897   6.681   9.995  0.7746  0.3613  1.3939
  593MOL0     H81825  11.038   6.574   9.996 -1.4515 -1.1580  1.0795
  593MOL0     H81826  11.078   6.765   9.836  2.5708  1.1086 -0.3412
  593MOL0     H81827  11.019   6.873   9.959 -0.2186 -0.1830  1.5273
  593MOL0     H81828  11.262   6.687   9.981  1.1152  0.5434 -2.3446
  593MOL0     H81829  11.264   6.848  10.068  1.3796 -0.8991  0.1349
  593MOL0     H81830  11.361   6.978   9.682 -5.7058  0.5834 -1.5739
  593MOL0     H81831  11.266   6.453  10.351 -1.4759 -0.7343 -1.6216
  593MOL0     H81832  11.411   6.454  10.645  0.0539 -2.3955  0.3340
  593MOL0     H81833  11.307   6.311  10.658 -0.5362 -0.9113 -1.2817
  593MOL0     H81834  11.382   6.351  10.502 -2.1554 -2.7535 -0.3545
  594MOL0     O81835   5.343   1.098   1.638 -0.2523 -0.0848  0.9074
  594MOL0     C81836   5.245   1.165   1.671  0.6480 -0.7002  0.0809
  594MOL0     O81837   5.211   1.286   1.630 -0.3023  0.0932 -0.0165
  594MOL0     C81838   5.301   1.355   1.558 -0.2741  0.0193 -0.3496
  594MOL0     C81839   5.419   1.409   1.608 -0.4556 -0.0257 -1.0413
  594MOL0     C81840   5.521   1.450   1.523  0.2169 -0.6736 -0.0264
  594MOL0     C81841   5.504   1.444   1.383 -0.5481 -0.4000 -1.2745
  594MOL0     O81842   5.585   1.481   1.280 -0.3561 -0.0035  0.3767
  594MOL0     C81843   5.704   1.557   1.313  0.2603 -0.5698 -0.0873
  594MOL0     C81844   5.797   1.579   1.192 -0.3495  0.7307  0.0933
  594MOL0     C81845   5.936   1.617   1.244 -0.9325  0.0222  0.4853
  594MOL0     C81846   6.016   1.703   1.143 -0.4308 -0.0094 -0.3620
  594MOL0     C81847   6.155   1.740   1.188  0.0702  0.0345  0.3378
  594MOL0     C81848   6.219   1.806   1.064 -0.5437 -0.1311 -0.7944
  594MOL0     C81849   6.367   1.839   1.085 -0.2596 -0.0850  0.3553
  594MOL0     C81850   6.451   1.716   1.085 -0.7095 -0.4193 -0.1132
  594MOL0     N81851   6.595   1.745   1.069  0.9483  0.4527 -0.5055
  594MOL0     C81852   6.654   1.761   0.946 -0.2386  0.0641 -0.3734
  594MOL0     C81853   6.775   1.798   0.979  0.4685 -0.4377  0.6723
  594MOL0     C81854   6.886   1.819   0.877  0.0060 -0.7292 -0.0984
  594MOL0     C81855   7.024   1.772   0.923  0.0674  0.2850  0.4513
  594MOL0     C81856   7.046   1.620   0.887 -0.4696 -0.4257 -1.0091
  594MOL0     C81857   7.196   1.576   0.915  0.7666  0.5915  0.0755
  594MOL0     O81858   7.282   1.587   0.804  0.0694  0.2511  0.5848
  594MOL0     C81859   7.418   1.595   0.811 -0.3664  0.0492 -0.1878
  594MOL0     C81860   7.487   1.531   0.915  0.7029 -0.6417 -0.0874
  594MOL0     C81861   7.629   1.538   0.922  0.0311  0.1106  0.1171
  594MOL0     C81862   7.690   1.466   1.036  0.1106  0.7439  0.7885
  594MOL0     C81863   7.700   1.603   0.819 -0.1251 -0.2059  0.1276
  594MOL0     C81864   7.853   1.609   0.818 -0.0867  0.6912  1.3023
  594MOL0     O81865   7.925   1.607   0.933 -0.1879 -0.2123 -0.1685
  594MOL0     C81866   8.063   1.592   0.924 -0.3566 -0.5370 -0.2205
  594MOL0     C81867   8.123   1.482   0.984  0.5509  0.2338  0.0314
  594MOL0     C81868   8.260   1.477   1.001  0.7487 -0.0115 -0.7917
  594MOL0     C81869   8.337   1.581   0.949 -0.6000 -0.5381 -0.3446
  594MOL0     O81870   8.473   1.563   0.972  0.0385  0.3667  0.4504
  594MOL0     C81871   8.568   1.661   0.919  0.5061 -0.0069 -0.0927
  594MOL0     C81872   8.702   1.598   0.906  0.4143 -0.2129 -0.4465
  594MOL0     C81873   8.820   1.697   0.901 -0.2597 -0.1569  0.1400
  594MOL0     C81874   8.956   1.632   0.891  0.1937 -0.1516  0.7003
  594MOL0     C81875   9.070   1.729   0.874 -0.8328  0.7150 -0.2382
  594MOL0     C81876   9.205   1.645   0.874 -0.5080 -0.1873 -0.1253
  594MOL0     C81877   9.321   1.743   0.859 -0.1300 -0.3672 -0.3949
  594MOL0     C81878   9.458   1.678   0.882  0.1621  0.5266 -0.5610
  594MOL0    Cl81879   9.517   1.534   0.778  0.1023  0.1557  0.1704
  594MOL0     C81880   8.282   1.688   0.881 -0.5863 -0.2390 -0.0215
  594MOL0     C81881   8.143   1.697   0.866 -0.4716  0.3253  0.3871
  594MOL0     O81882   7.905   1.595   0.705 -0.2695  0.1434  0.6969
  594MOL0     C81883   7.625   1.660   0.721  0.0277 -0.1982 -0.2271
  594MOL0     C81884   7.487   1.659   0.715  0.0535 -0.4937 -0.3237
  594MOL0     N81885   6.787   1.800   1.114  0.6977  0.1958  0.3250
  594MOL0     N81886   6.679   1.759   1.172 -0.0081  0.2583  0.8012
  594MOL0     C81887   5.388   1.397   1.334 -0.3904  0.1658 -0.2573
  594MOL0     C81888   5.286   1.346   1.412 -0.4561  0.9634  0.1276
  594MOL0     C81889   5.146   1.095   1.764  0.2741 -0.4620 -0.5489
  594MOL0     C81890   5.055   1.162   1.857  0.0477  0.9816  0.3157
  594MOL0     C81891   4.965   1.098   1.935  0.1703  0.2415  0.1106
  594MOL0     C81892   4.952   0.961   1.936  0.4530 -1.1395 -0.4193
  594MOL0     O81893   4.840   0.911   2.014 -0.7097 -0.3465  0.2939
  594MOL0     C81894   4.717   0.934   1.958  0.0664 -1.0826  0.6096
  594MOL0     C81895   4.616   0.838   2.018  0.7984  0.5836  0.4077
  594MOL0     C81896   4.638   0.685   2.015  0.2819 -0.2011  0.2210
  594MOL0     C81897   4.538   0.612   2.101 -0.1445  0.3010 -0.1689
  594MOL0     C81898   4.568   0.467   2.116 -0.3335 -0.4937 -0.8703
  594MOL0     C81899   4.576   0.351   2.117  0.8150 -0.5377  1.4162
  594MOL0     C81900   5.043   0.891   1.857 -0.4442 -0.5163 -0.1512
  594MOL0     C81901   5.141   0.955   1.775 -0.6942  0.1504  0.1572
  594MOL0     C81902   5.218   0.859   1.684  0.6387  0.6141  0.0379
  594MOL0     H81903   5.434   1.406   1.716 -0.7774 -5.1137 -0.8969
  594MOL0     H81904   5.616   1.488   1.560  0.6999 -1.4395 -0.4707
  594MOL0     H81905   5.757   1.501   1.390  0.9817 -0.5464 -0.5591
  594MOL0     H81906   5.679   1.658   1.346  0.8184 -0.2944 -0.4799
  594MOL0     H81907   5.801   1.486   1.135 -2.6185 -0.3781  1.6004
  594MOL0     H81908   5.755   1.659   1.129 -0.2053  1.3547  0.7722
  594MOL0     H81909   5.931   1.666   1.342  4.7057 -0.9017  1.5746
  594MOL0     H81910   5.991   1.527   1.273  2.5007  2.2099  1.3974
  594MOL0     H81911   6.021   1.650   1.047 -0.2480 -1.1424  0.2627
  594MOL0     H81912   5.960   1.795   1.123  1.4578  1.3578  0.4214
  594MOL0     H81913   6.217   1.653   1.209 -0.9923 -1.3656 -1.9771
  594MOL0     H81914   6.146   1.803   1.277  0.4539  0.5220  0.0356
  594MOL0     H81915   6.208   1.742   0.976  2.2791 -0.0982 -1.2615
  594MOL0     H81916   6.170   1.899   1.035 -0.9290 -0.1351 -0.1854
  594MOL0     H81917   6.383   1.889   1.181  0.6797 -1.2155  0.8165
  594MOL0     H81918   6.408   1.900   1.004  0.2309  0.2449  0.8480
  594MOL0     H81919   6.436   1.665   1.180 -1.0468 -3.6189 -1.7593
  594MOL0     H81920   6.416   1.651   1.005 -2.9299 -1.3715  1.5357
  594MOL0     H81921   6.622   1.739   0.844  2.7505 -2.6920 -0.9189
  594MOL0     H81922   6.895   1.926   0.858 -1.7941 -0.4636  0.3335
  594MOL0     H81923   6.859   1.780   0.779  1.8166 -0.2231 -0.8344
  594MOL0     H81924   7.097   1.835   0.871  1.1370  0.1950  1.8109
  594MOL0     H81925   7.040   1.775   1.031 -1.4187 -1.1680  0.7589
  594MOL0     H81926   6.978   1.564   0.953  2.0362  0.0056  2.1835
  594MOL0     H81927   7.014   1.603   0.784 -0.9861  0.3748 -0.9931
  594MOL0     H81928   7.226   1.632   1.005 -0.2363 -0.7988  1.3183
  594MOL0     H81929   7.200   1.473   0.951  2.8361  1.0535  1.3512
  594MOL0     H81930   7.433   1.476   0.991 -0.2030  0.3066 -0.0172
  594MOL0     H81931   7.644   1.378   1.081  0.6747  0.1120  0.1461
  594MOL0     H81932   7.701   1.540   1.116 -1.7027 -1.4607  3.2361
  594MOL0     H81933   7.785   1.433   0.995 -0.5654 -0.7384  0.3494
  594MOL0     H81934   8.053   1.405   1.016 -2.0289  2.0683 -0.8534
  594MOL0     H81935   8.321   1.403   1.053  2.9043  1.6882 -0.7424
  594MOL0     H81936   8.541   1.694   0.818  1.7990 -4.1847 -2.0543
  594MOL0     H81937   8.569   1.748   0.985 -1.8739  0.7330 -0.9291
  594MOL0     H81938   8.719   1.531   0.991  0.4287  0.1364 -0.1735
  594MOL0     H81939   8.699   1.523   0.827  1.4135 -0.1876 -0.5216
  594MOL0     H81940   8.821   1.764   0.987 -2.2552  3.2044 -2.2206
  594MOL0     H81941   8.826   1.759   0.812 -0.7975 -0.8915 -0.4200
  594MOL0     H81942   8.958   1.566   0.804  0.4096 -0.4708  0.9454
  594MOL0     H81943   8.974   1.558   0.969 -0.4501  0.1759  1.1685
  594MOL0     H81944   9.062   1.777   0.777  0.7962 -0.3405 -0.9313
  594MOL0     H81945   9.070   1.805   0.953 -0.2047  3.5969 -2.8556
  594MOL0     H81946   9.196   1.569   0.796  1.4970  0.3651 -0.9712
  594MOL0     H81947   9.222   1.588   0.966  1.2983  0.7257  0.1511
  594MOL0     H81948   9.307   1.826   0.927  1.4106 -0.6837  0.3490
  594MOL0     H81949   9.307   1.780   0.757  1.5003 -2.1216 -1.3288
  594MOL0     H81950   9.460   1.649   0.988 -2.1857 -0.7339 -0.7903
  594MOL0     H81951   9.538   1.752   0.872 -1.2558  2.6231  2.0832
  594MOL0     H81952   8.344   1.765   0.835  2.7049 -2.2581  0.7216
  594MOL0     H81953   8.099   1.784   0.819  1.8550  0.3522 -1.9852
  594MOL0     H81954   7.682   1.702   0.638 -1.4424 -0.7444 -1.5773
  594MOL0     H81955   7.429   1.713   0.640  2.5535 -0.2482 -2.1949
  594MOL0     H81956   5.390   1.390   1.226  0.6386  1.9769 -0.4003
  594MOL0     H81957   5.205   1.291   1.366  1.3476 -3.3895  1.6663
  594MOL0     H81958   5.058   1.271   1.856 -0.6256  1.0088  0.6932
  594MOL0     H81959   4.908   1.159   2.004  0.0173  2.3395 -1.7690
  594MOL0     H81960   4.672   1.034   1.968 -1.5772 -1.7663  0.4315
  594MOL0     H81961   4.724   0.928   1.849 -1.3290  3.4368  0.0468
  594MOL0     H81962   4.530   0.844   1.951  1.3942  0.6819 -0.3644
  594MOL0     H81963   4.601   0.883   2.116 -0.2744  1.5906 -0.1926
  594MOL0     H81964   4.639   0.636   1.918 -0.4146 -0.4411  0.3339
  594MOL0     H81965   4.740   0.671   2.052  1.4575 -3.0068 -3.5095
  594MOL0     H81966   4.450   0.614   2.036 -1.0792  0.0568  1.0649
  594MOL0     H81967   4.513   0.662   2.195 -1.1390  0.6777 -0.6135
  594MOL0     H81968   4.563   0.245   2.130  0.3906 -0.4142  2.0364
  594MOL0     H81969   5.021   0.785   1.861 -0.6449 -0.4432  1.5596
  594MOL0     H81970   5.268   0.891   1.593  0.2261  0.1711 -0.3466
  594MOL0     H81971   5.284   0.798   1.747  0.6659 -1.0796 -1.5518
  594MOL0     H81972   5.152   0.779   1.649 -1.6292  2.5748 -0.3912
  595MOL0     O81973   8.371   1.075  10.843 -0.5795 -0.0719  0.2551
  595MOL0     C81974   8.312   0.969  10.861  0.5387  0.1519 -0.0353
  595MOL0     O81975   8.365   0.862  10.923  0.3159  0.3845  0.0222
  595MOL0     C81976   8.501   0.869  10.957 -0.2129 -0.8942 -0.6476
  595MOL0     C81977   8.534   0.828  11.084 -0.2692 -0.1937  0.2747
  595MOL0     C81978   8.665   0.833  11.135 -1.0636 -0.6019  0.3866
  595MOL0     C81979   8.773   0.847  11.045 -0.0386  1.1195  0.6160
  595MOL0     O81980   8.897   0.815  11.093 -0.6799 -0.0576  0.3129
  595MOL0     C81981   9.021   0.849  11.010  0.7483 -0.5069 -0.0320
  595MOL0     C81982   9.158   0.819  11.087  0.4278 -0.1060  0.4795
  595MOL0     C81983   9.287   0.834  10.999 -0.5659  0.1639  0.6762
  595MOL0     C81984   9.416   0.872  11.069 -0.5898  0.2149  0.4158
  595MOL0     C81985   9.518   0.913  10.961  0.0611 -0.5400  0.9330
  595MOL0     C81986   9.662   0.922  11.023  1.2056 -0.3291  0.1232
  595MOL0     C81987   9.758   0.933  10.913 -0.7983 -0.5200  0.1028
  595MOL0     C81988   9.900   0.901  10.969  0.1848  0.7151  0.0579
  595MOL0     N81989  10.003   0.930  10.864 -0.1035 -0.2104 -0.3866
  595MOL0     C81990  10.059   1.057  10.844 -0.1586 -0.1348 -0.1018
  595MOL0     C81991  10.162   1.048  10.759 -0.0425  0.8123  0.1855
  595MOL0     C81992  10.242   1.163  10.708  0.0756  0.6808 -0.1458
  595MOL0     C81993  10.214   1.205  10.570  0.5302 -0.4321 -0.3669
  595MOL0     C81994  10.271   1.101  10.468 -0.1715 -0.7370  1.1072
  595MOL0     C81995  10.215   1.119  10.328  0.4842 -0.7819 -0.6675
  595MOL0     O81996  10.254   1.255  10.287 -0.4799 -0.5668 -0.3211
  595MOL0     C81997  10.371   1.258  10.224 -0.3280  0.2329  0.4263
  595MOL0     C81998  10.403   1.385  10.170 -0.0153 -0.0850 -0.1384
  595MOL0     C81999  10.534   1.417  10.118  0.0339 -0.0979  0.0995
  595MOL0     C82000  10.548   1.553  10.055 -0.1864 -0.7376  0.1088
  595MOL0     C82001  10.641   1.322  10.143 -0.6687  0.3696  1.0393
  595MOL0     C82002  10.785   1.349  10.122 -0.6144 -0.2772  0.1728
  595MOL0     O82003  10.830   1.444  10.044  0.6844  0.1430  0.6916
  595MOL0     C82004  10.969   1.470  10.040  0.2558  0.4609 -0.0024
  595MOL0     C82005  11.043   1.533  10.146  0.7846 -0.2088 -0.4315
  595MOL0     C82006  11.182   1.543  10.136 -0.4771 -0.9876  0.6720
  595MOL0     C82007  11.248   1.494  10.024  0.8651 -0.4374  0.0482
  595MOL0     O82008  11.383   1.509  10.037 -0.1170  0.6758 -0.0404
  595MOL0     C82009  11.474   1.491   9.921  1.3328 -0.4892 -0.1041
  595MOL0     C82010  11.630   1.520   9.959  1.2518 -0.1029 -0.3737
  595MOL0     C82011  11.682   1.401  10.044  0.1208 -0.0644 -0.6246
  595MOL0     C82012  11.729   1.292   9.956  1.0346 -0.5750  0.2836
  595MOL0     C82013  11.776   1.156  10.006  0.1837  1.0964 -1.0882
  595MOL0     C82014  11.749   1.056   9.901  0.3985 -0.4258  0.3706
  595MOL0     C82015  11.856   0.940   9.918 -0.7538  0.1545  0.4487
  595MOL0     C82016  11.981   0.966   9.849 -0.8454  0.2035  0.3052
  595MOL0    Cl82017  12.099   0.846   9.902  0.1546 -0.1156 -0.0732
  595MOL0     C82018  11.178   1.436   9.920  0.3017 -1.0887  0.5202
  595MOL0     C82019  11.040   1.438   9.928 -0.0348  0.4228  0.5899
  595MOL0     O82020  10.859   1.269  10.176 -0.2782  0.5153 -0.5526
  595MOL0     C82021  10.610   1.199  10.199  0.1706  0.0813 -0.6992
  595MOL0     C82022  10.479   1.164  10.234  0.7218  0.0495 -0.1103
  595MOL0     N82023  10.196   0.915  10.755  0.7940 -0.3675 -0.1744
  595MOL0     N82024  10.099   0.841  10.817  1.0107  0.7691  0.1882
  595MOL0     C82025   8.739   0.861  10.912 -0.6306 -0.6173  0.4821
  595MOL0     C82026   8.608   0.877  10.863  0.0549  0.1804 -0.2946
  595MOL0     C82027   8.170   0.960  10.825 -0.4120  0.5070  0.6582
  595MOL0     C82028   8.085   0.879  10.916 -0.0997  0.3865  0.5895
  595MOL0     C82029   7.946   0.873  10.900  0.2772  0.9519  1.1968
  595MOL0     C82030   7.890   0.935  10.791  0.0022  0.2581  0.1351
  595MOL0     O82031   7.758   0.925  10.775  0.6063  0.6832 -0.5594
  595MOL0     C82032   7.684   1.043  10.786  0.6427 -0.0193  0.5014
  595MOL0     C82033   7.563   1.031  10.688  0.3552 -0.0414 -0.1470
  595MOL0     C82034   7.620   1.058  10.545 -0.4794 -0.0455 -0.4934
  595MOL0     C82035   7.519   1.036  10.433  0.3923 -0.0791 -0.1352
  595MOL0     C82036   7.385   1.105  10.446 -0.9693 -0.3420  0.5731
  595MOL0     C82037   7.276   1.147  10.458 -0.6632 -0.1678  0.3661
  595MOL0     C82038   7.963   1.014  10.705  0.2902  0.0100  0.3353
  595MOL0     C82039   8.104   1.029  10.715 -0.4601  0.5127 -0.2462
  595MOL0     C82040   8.172   1.130  10.628  0.4432 -1.1674  0.3024
  595MOL0     H82041   8.458   0.777  11.143 -0.5254 -0.5959 -0.3862
  595MOL0     H82042   8.697   0.812  11.237 -0.2354 -0.9620  0.0658
  595MOL0     H82043   9.015   0.951  10.972 -1.1433 -1.1648 -1.6264
  595MOL0     H82044   9.023   0.788  10.919  0.1601 -1.5105  0.6199
  595MOL0     H82045   9.161   0.886  11.173 -3.0393  0.9157 -0.0595
  595MOL0     H82046   9.162   0.720  11.132  0.6321  0.2634  1.2845
  595MOL0     H82047   9.302   0.741  10.944  1.1411 -0.1544  1.5915
  595MOL0     H82048   9.260   0.908  10.924  2.5340  0.0453 -0.6998
  595MOL0     H82049   9.395   0.947  11.145  0.7415  1.2382 -0.1955
  595MOL0     H82050   9.456   0.785  11.122 -1.8298 -1.9953 -2.0439
  595MOL0     H82051   9.495   1.008  10.912  1.5569  0.2549  1.7086
  595MOL0     H82052   9.517   0.838  10.882 -2.5464 -0.6408  0.9468
  595MOL0     H82053   9.666   1.007  11.091 -0.4932 -1.5154  1.8300
  595MOL0     H82054   9.681   0.833  11.084  0.6446 -1.2030 -0.9315
  595MOL0     H82055   9.751   1.036  10.877 -0.6873 -0.1762  1.0236
  595MOL0     H82056   9.748   0.858  10.835  1.8831 -1.5717  0.6741
  595MOL0     H82057   9.928   0.956  11.060  0.7625  2.3119 -1.0333
  595MOL0     H82058   9.905   0.794  10.990 -1.8137  0.8090  1.3116
  595MOL0     H82059  10.023   1.151  10.885 -2.3172 -0.9686  0.0537
  595MOL0     H82060  10.347   1.136  10.717 -0.3319 -0.2473  3.0351
  595MOL0     H82061  10.237   1.251  10.773  0.5900 -0.6841  1.8220
  595MOL0     H82062  10.105   1.206  10.567  0.2686 -1.9019  3.3271
  595MOL0     H82063  10.261   1.304  10.557 -0.2985  0.3278  2.0137
  595MOL0     H82064  10.379   1.118  10.478 -0.8469  3.2583  4.4358
  595MOL0     H82065  10.246   1.002  10.507 -0.8198 -0.0536  2.4903
  595MOL0     H82066  10.251   1.043  10.259  1.2248  1.6601 -3.1453
  595MOL0     H82067  10.106   1.120  10.337  0.3934 -0.9405 -1.6418
  595MOL0     H82068  10.332   1.467  10.170  0.1531  0.0723  1.0999
  595MOL0     H82069  10.596   1.562   9.958 -1.1457  3.6114 -0.1812
  595MOL0     H82070  10.605   1.617  10.123 -1.4715 -1.1012  1.6067
  595MOL0     H82071  10.455   1.609  10.038  1.0643  2.2761  2.2152
  595MOL0     H82072  10.988   1.576  10.229  0.9410  2.8887 -1.7988
  595MOL0     H82073  11.238   1.597  10.212 -0.8117 -2.2445  1.8661
  595MOL0     H82074  11.462   1.390   9.881 -1.2740 -1.0674  1.8557
  595MOL0     H82075  11.438   1.564   9.848  1.5577 -0.1250  0.1472
  595MOL0     H82076  11.687   1.533   9.866  0.9783 -0.3142 -0.5724
  595MOL0     H82077  11.630   1.614  10.016  1.8306  0.2140 -0.8920
  595MOL0     H82078  11.609   1.376  10.121 -1.3459  0.3380 -1.8246
  595MOL0     H82079  11.764   1.432  10.109 -0.1975  0.3560 -0.4207
  595MOL0     H82080  11.797   1.339   9.885  1.5300  0.2511  1.2668
  595MOL0     H82081  11.636   1.267   9.904 -0.0314 -0.7561  2.1828
  595MOL0     H82082  11.882   1.168  10.029 -0.4021  0.4545  2.5047
  595MOL0     H82083  11.719   1.133  10.097  0.6165  3.0900 -0.2555
  595MOL0     H82084  11.751   1.100   9.801  1.0619  0.5011  0.7726
  595MOL0     H82085  11.651   1.008   9.916 -1.3482  2.9245  0.7390
  595MOL0     H82086  11.826   0.850   9.864  1.3255  0.1129 -0.7465
  595MOL0     H82087  11.860   0.906  10.022 -2.0708 -0.0866  0.4346
  595MOL0     H82088  12.018   1.067   9.871  0.4298 -0.6402  2.3290
  595MOL0     H82089  11.968   0.943   9.743 -0.9069  0.4543  0.2580
  595MOL0     H82090  11.228   1.397   9.832 -3.5273  1.3519 -3.1561
  595MOL0     H82091  10.977   1.396   9.850  0.1636  1.2234 -0.0206
  595MOL0     H82092  10.685   1.126  10.227 -0.8360 -0.4432  0.7271
  595MOL0     H82093  10.463   1.066  10.276  3.4775  0.5145  2.3178
  595MOL0     H82094   8.814   0.840  10.836 -1.0662  0.5518 -0.3044
  595MOL0     H82095   8.590   0.892  10.757 -1.7493  0.2862 -0.0021
  595MOL0     H82096   8.122   0.811  10.992  2.3721  0.2219 -0.6667
  595MOL0     H82097   7.871   0.823  10.961  1.5587  1.5309  3.3276
  595MOL0     H82098   7.642   1.048  10.887 -1.5240  4.3079 -0.3849
  595MOL0     H82099   7.744   1.132  10.769  0.5566  0.0316  0.4593
  595MOL0     H82100   7.495   1.110  10.720 -0.1515 -0.8258  0.7463
  595MOL0     H82101   7.519   0.931  10.692 -0.5653  0.3953  1.4985
  595MOL0     H82102   7.665   1.156  10.529 -1.2956  0.4140  0.0107
  595MOL0     H82103   7.691   0.976  10.527 -0.4409  0.0604 -0.8330
  595MOL0     H82104   7.495   0.932  10.408  1.0773  0.3573 -3.0257
  595MOL0     H82105   7.571   1.067  10.341  3.4296  0.8503  1.7371
  595MOL0     H82106   7.178   1.191  10.463  0.6493  2.8269  2.2105
  595MOL0     H82107   7.914   1.060  10.620 -0.7356  1.9017  1.8799
  595MOL0     H82108   8.194   1.213  10.695 -0.2474 -0.8335  0.1236
  595MOL0     H82109   8.271   1.104  10.589 -0.0012 -0.7151 -1.1931
  595MOL0     H82110   8.112   1.153  10.540  0.9414  0.5858  0.3749
  596MOL0     O82111   8.418   9.532   7.961 -0.4138  0.4518 -0.7774
  596MOL0     C82112   8.467   9.568   8.068 -0.0219 -0.0386  0.3546
  596MOL0     O82113   8.416   9.667   8.146  0.2423  1.0253 -0.3826
  596MOL0     C82114   8.312   9.733   8.094 -0.2395 -0.0863 -0.2200
  596MOL0     C82115   8.185   9.723   8.152 -0.6929  0.1113 -0.3691
  596MOL0     C82116   8.070   9.786   8.099  1.0688  0.9150  0.0390
  596MOL0     C82117   8.076   9.851   7.975 -0.1987 -0.2144 -0.6395
  596MOL0     O82118   7.967   9.897   7.902 -0.3762  0.5717  0.2567
  596MOL0     C82119   7.840   9.894   7.960  0.2863  0.0530  0.0247
  596MOL0     C82120   7.731   9.950   7.854  0.5593  0.2625 -0.0890
  596MOL0     C82121   7.710   9.850   7.740  0.4973  0.4036  0.2945
  596MOL0     C82122   7.654   9.710   7.777 -0.5581 -0.8524  0.1505
  596MOL0     C82123   7.578   9.638   7.671  0.0836  0.0984 -0.2363
  596MOL0     C82124   7.656   9.576   7.555  0.5262 -0.1427  0.3746
  596MOL0     C82125   7.560   9.474   7.493  0.5326  0.4540 -0.2164
  596MOL0     C82126   7.615   9.375   7.400 -0.0493  0.4617  0.1382
  596MOL0     N82127   7.527   9.268   7.364  0.4608 -0.1947  0.9886
  596MOL0     C82128   7.557   9.136   7.373 -0.3298  0.6101  0.1658
  596MOL0     C82129   7.440   9.072   7.345  0.1420  0.1117 -0.4067
  596MOL0     C82130   7.428   8.921   7.358  0.0469 -0.1383  0.3179
  596MOL0     C82131   7.365   8.869   7.235  0.0211  0.7603  0.0748
  596MOL0     C82132   7.470   8.896   7.121  0.4830 -0.0980  0.0142
  596MOL0     C82133   7.430   8.833   6.991 -0.1009 -0.2733  0.3570
  596MOL0     O82134   7.534   8.876   6.901 -0.6818 -0.2175 -0.6071
  596MOL0     C82135   7.650   8.807   6.862  0.1907  0.4203 -0.2259
  596MOL0     C82136   7.673   8.671   6.882 -0.5955  0.0367 -0.1896
  596MOL0     C82137   7.796   8.610   6.843 -1.1244  0.1679 -0.3679
  596MOL0     C82138   7.811   8.458   6.865 -0.6621  0.0361 -0.0365
  596MOL0     C82139   7.892   8.691   6.770 -0.0543  0.5763 -0.9366
  596MOL0     C82140   8.028   8.637   6.707 -0.1885  0.2943 -0.4957
  596MOL0     O82141   8.098   8.715   6.617 -0.5857  0.7259  0.1415
  596MOL0     C82142   8.222   8.685   6.568 -0.5754  0.4365 -0.1826
  596MOL0     C82143   8.259   8.555   6.542  0.5560  0.3514 -0.0051
  596MOL0     C82144   8.378   8.520   6.491  0.3147  0.0659 -0.5820
  596MOL0     C82145   8.469   8.621   6.446  0.3360  0.8343 -0.3719
  596MOL0     O82146   8.592   8.583   6.394  0.2533  0.4026 -0.2716
  596MOL0     C82147   8.710   8.647   6.442 -0.1064  0.0973  0.7597
  596MOL0     C82148   8.829   8.554   6.410  0.5829  0.0251 -0.2945
  596MOL0     C82149   8.813   8.421   6.486 -1.1147  0.1003  1.2449
  596MOL0     C82150   8.809   8.436   6.638 -0.6781  0.0584 -0.5251
  596MOL0     C82151   8.926   8.498   6.712  0.3528 -1.0214  0.1463
  596MOL0     C82152   9.064   8.424   6.706  0.7448  0.5251  0.2687
  596MOL0     C82153   9.162   8.494   6.792 -0.1030  0.5279  0.2818
  596MOL0     C82154   9.301   8.464   6.742 -0.5881  0.0870  0.7739
  596MOL0    Cl82155   9.413   8.571   6.833  0.1543 -0.0504 -0.1873
  596MOL0     C82156   8.435   8.756   6.486  0.8631 -0.4173  0.5117
  596MOL0     C82157   8.311   8.782   6.547  0.0519 -0.1187 -0.1831
  596MOL0     O82158   8.077   8.550   6.778 -0.2659 -0.8885  0.3370
  596MOL0     C82159   7.858   8.824   6.745 -0.5515 -0.3013  0.0136
  596MOL0     C82160   7.743   8.881   6.794  0.0036 -0.9106  0.2718
  596MOL0     N82161   7.342   9.165   7.322  0.1624  0.4425 -0.3078
  596MOL0     N82162   7.389   9.280   7.336  0.0428 -0.2500  0.6057
  596MOL0     C82163   8.196   9.864   7.915 -0.5452  0.1673 -0.2927
  596MOL0     C82164   8.313   9.809   7.975 -0.5798  0.4157 -0.0632
  596MOL0     C82165   8.589   9.496   8.110 -0.4427  0.3383  0.0715
  596MOL0     C82166   8.628   9.515   8.241  0.0713  0.0501 -0.0680
  596MOL0     C82167   8.738   9.453   8.289  0.0714  0.0107  0.6318
  596MOL0     C82168   8.814   9.358   8.222  0.5356  0.5047 -0.2622
  596MOL0     O82169   8.926   9.298   8.280  0.3655  0.6305  0.2953
  596MOL0     C82170   9.042   9.383   8.287 -0.7912 -0.9910  0.2283
  596MOL0     C82171   9.157   9.322   8.377 -0.4019  0.5557  0.5312
  596MOL0     C82172   9.299   9.364   8.326  1.0148 -0.4036  0.0392
  596MOL0     C82173   9.405   9.281   8.398 -0.5743 -0.5790  0.6989
  596MOL0     C82174   9.429   9.331   8.533  0.9926 -0.0987 -0.0680
  596MOL0     C82175   9.459   9.363   8.646 -0.3798 -0.5619  0.3939
  596MOL0     C82176   8.772   9.333   8.095 -0.6166 -0.0637  0.3343
  596MOL0     C82177   8.668   9.406   8.033  0.4304  0.2790  0.3304
  596MOL0     C82178   8.661   9.405   7.880 -0.4395  0.7937 -0.5638
  596MOL0     H82179   8.168   9.665   8.242 -0.7828 -0.9428 -1.0326
  596MOL0     H82180   7.978   9.775   8.155  0.9764 -1.8705 -0.4816
  596MOL0     H82181   7.854   9.946   8.055  2.9375  1.0590 -0.8345
  596MOL0     H82182   7.820   9.789   7.982  2.6757 -1.1039 -2.5958
  596MOL0     H82183   7.635   9.962   7.907 -0.4565  1.2951 -2.0605
  596MOL0     H82184   7.758  10.049   7.818  1.5577  0.3365  0.8028
  596MOL0     H82185   7.636   9.898   7.674  1.8725 -1.9932 -3.3088
  596MOL0     H82186   7.804   9.847   7.684  1.4340  2.7212  1.5815
  596MOL0     H82187   7.729   9.644   7.821 -2.4302 -2.3085  1.3322
  596MOL0     H82188   7.589   9.713   7.865 -0.0539  0.6759  0.4934
  596MOL0     H82189   7.506   9.710   7.629 -0.9892 -0.8000  0.0128
  596MOL0     H82190   7.520   9.562   7.724 -0.6150  0.7823 -0.0071
  596MOL0     H82191   7.689   9.646   7.478 -1.2294 -1.7602 -1.9879
  596MOL0     H82192   7.746   9.521   7.584  0.0018 -1.4390 -0.3422
  596MOL0     H82193   7.478   9.522   7.440  0.6180  0.0912 -0.6856
  596MOL0     H82194   7.527   9.414   7.579  0.9668  0.3857 -0.0922
  596MOL0     H82195   7.643   9.429   7.309 -0.5508  0.5704  0.0423
  596MOL0     H82196   7.708   9.332   7.435 -0.6457  0.1806  1.4285
  596MOL0     H82197   7.643   9.082   7.411  0.0200  1.7328  1.0430
  596MOL0     H82198   7.365   8.903   7.446  0.0405  1.2518  0.6370
  596MOL0     H82199   7.526   8.876   7.376  0.3810  0.7907  0.9163
  596MOL0     H82200   7.348   8.761   7.245  0.8698  0.8304  3.2834
  596MOL0     H82201   7.279   8.928   7.203  2.0227  3.8489  0.0462
  596MOL0     H82202   7.486   9.004   7.124 -2.7643  0.4879  0.3367
  596MOL0     H82203   7.569   8.862   7.152  0.5054 -1.0738 -1.0388
  596MOL0     H82204   7.440   8.724   6.999  3.1348 -0.0051  1.5047
  596MOL0     H82205   7.328   8.860   6.962 -0.7228 -1.8964  0.8741
  596MOL0     H82206   7.610   8.610   6.947 -0.2616 -1.7050 -1.4239
  596MOL0     H82207   7.860   8.409   6.780 -1.3298  0.3810 -0.6302
  596MOL0     H82208   7.711   8.415   6.867 -0.4028 -0.5570  1.4252
  596MOL0     H82209   7.862   8.433   6.958  0.8673  1.9429 -0.2994
  596MOL0     H82210   8.185   8.476   6.555  0.0903  0.8889  0.6524
  596MOL0     H82211   8.393   8.414   6.473 -2.0251 -0.0945 -2.0289
  596MOL0     H82212   8.725   8.736   6.380 -0.2814 -0.4397 -0.0710
  596MOL0     H82213   8.698   8.671   6.548  1.5242 -0.9354  1.2196
  596MOL0     H82214   8.835   8.540   6.302  1.0090  0.4453 -0.3246
  596MOL0     H82215   8.923   8.601   6.438  1.4610 -1.7516 -0.1538
  596MOL0     H82216   8.900   8.357   6.467  1.0560  2.8404  1.3833
  596MOL0     H82217   8.718   8.377   6.454 -1.6811  2.0145  0.1708
  596MOL0     H82218   8.798   8.333   6.673 -2.3684  0.0040 -1.1027
  596MOL0     H82219   8.716   8.486   6.668 -1.1264 -0.6732 -0.6675
  596MOL0     H82220   8.935   8.604   6.688  1.8985 -0.3802  3.1574
  596MOL0     H82221   8.895   8.494   6.817 -0.5840  1.1194  0.0041
  596MOL0     H82222   9.099   8.423   6.602  1.6321  2.0055  0.5268
  596MOL0     H82223   9.052   8.319   6.735 -1.7311  0.3002 -1.3103
  596MOL0     H82224   9.154   8.440   6.886  0.6718 -0.8153 -0.3892
  596MOL0     H82225   9.147   8.602   6.796  5.4592  1.5879  0.8652
  596MOL0     H82226   9.301   8.483   6.634 -3.5334  0.2694  0.7151
  596MOL0     H82227   9.338   8.362   6.744 -1.1112 -0.1454 -0.4889
  596MOL0     H82228   8.509   8.835   6.485 -0.9265  1.4702  3.0410
  596MOL0     H82229   8.287   8.884   6.573 -2.4702  0.0050 -2.5426
  596MOL0     H82230   7.922   8.893   6.690 -2.4976  0.8379 -0.9069
  596MOL0     H82231   7.715   8.984   6.771 -0.9886 -1.7511 -2.7701
  596MOL0     H82232   8.209   9.917   7.821 -2.4053 -0.4597 -0.9399
  596MOL0     H82233   8.405   9.820   7.919 -0.0121 -1.1547  0.5057
  596MOL0     H82234   8.575   9.584   8.305  1.3156  1.8802 -0.9190
  596MOL0     H82235   8.771   9.475   8.390  2.2916 -4.0520  0.9970
  596MOL0     H82236   9.083   9.411   8.190  1.5920 -0.0869  1.4221
  596MOL0     H82237   9.014   9.481   8.328  0.6755 -0.5458  0.1987
  596MOL0     H82238   9.135   9.215   8.381 -1.3586  0.5801 -2.0080
  596MOL0     H82239   9.163   9.359   8.480  2.7383 -0.4829  0.8131
  596MOL0     H82240   9.312   9.330   8.223  0.5427 -1.5927  0.3545
  596MOL0     H82241   9.311   9.472   8.336 -0.2412  0.0633 -2.5103
  596MOL0     H82242   9.500   9.297   8.345 -1.8547  2.7286 -0.8660
  596MOL0     H82243   9.386   9.173   8.397  0.5008 -0.7878 -0.8859
  596MOL0     H82244   9.489   9.364   8.749  2.2723 -1.1066 -0.3003
  596MOL0     H82245   8.835   9.272   8.031 -1.3633 -0.2496 -0.2390
  596MOL0     H82246   8.754   9.368   7.837  0.6218 -0.1763  2.2913
  596MOL0     H82247   8.568   9.356   7.849 -0.0884  0.1150 -0.5382
  596MOL0     H82248   8.648   9.511   7.856 -1.1233  1.2024  1.4103
  597MOL0     O82249   0.276   3.602   4.224  0.7284  0.4768  0.4059
  597MOL0     C82250   0.286   3.482   4.264  1.0899 -1.1002 -0.0294
  597MOL0     O82251   0.408   3.420   4.296  0.2043  0.7091 -0.6378
  597MOL0     C82252   0.522   3.496   4.275  0.1068 -0.3289  0.4694
  597MOL0     C82253   0.550   3.601   4.364 -0.6044 -0.9224 -0.1858
  597MOL0     C82254   0.652   3.695   4.341 -1.1826 -0.1018  0.1394
  597MOL0     C82255   0.724   3.676   4.224  0.0388 -0.3967 -0.4679
  597MOL0     O82256   0.816   3.774   4.195  0.0979  0.5429 -0.4428
  597MOL0     C82257   0.894   3.762   4.075 -0.6005  0.6716 -0.0256
  597MOL0     C82258   1.012   3.872   4.070  0.2947 -0.8224 -0.1148
  597MOL0     C82259   1.099   3.859   4.188 -0.5335  0.8416 -0.3154
  597MOL0     C82260   1.222   3.953   4.173 -0.0659 -0.0416  0.1066
  597MOL0     C82261   1.180   4.103   4.189  0.1838  0.0478 -0.0816
  597MOL0     C82262   1.311   4.172   4.223  0.1899  0.0831  0.3613
  597MOL0     C82263   1.309   4.318   4.178  0.4007  0.3660  0.0119
  597MOL0     C82264   1.452   4.353   4.155 -0.2660  0.2225  0.8898
  597MOL0     N82265   1.478   4.502   4.177  0.4470  0.2177 -0.3722
  597MOL0     C82266   1.547   4.557   4.279 -0.5752 -0.0183  1.2036
  597MOL0     C82267   1.564   4.685   4.248 -0.0487 -0.0513  0.2862
  597MOL0     C82268   1.626   4.795   4.333 -0.2327  0.2207  0.1111
  597MOL0     C82269   1.776   4.805   4.330  0.9355  0.4896  0.3282
  597MOL0     C82270   1.845   4.681   4.394  0.1923  0.2947  0.4221
  597MOL0     C82271   1.998   4.700   4.390 -0.2169  0.9384  0.7966
  597MOL0     O82272   2.039   4.832   4.439  0.3424 -0.1138  0.0471
  597MOL0     C82273   2.043   4.855   4.576  0.7228  0.6446 -0.1037
  597MOL0     C82274   1.992   4.977   4.627 -0.1485 -0.4243  0.7997
  597MOL0     C82275   2.019   5.025   4.755 -0.3944  0.4455 -0.0143
  597MOL0     C82276   1.963   5.162   4.789  0.1491  0.4232  0.4626
  597MOL0     C82277   2.099   4.941   4.840  0.5186 -1.0525  0.5714
  597MOL0     C82278   2.131   4.985   4.983 -0.3909  1.3085  0.6201
  597MOL0     O82279   2.073   5.106   5.035  0.3161 -0.2167 -0.3553
  597MOL0     C82280   2.100   5.160   5.159  0.2325 -0.2382  0.1378
  597MOL0     C82281   2.205   5.116   5.244 -0.3416 -0.3471  0.5376
  597MOL0     C82282   2.231   5.186   5.361  0.7981  1.2937  0.2734
  597MOL0     C82283   2.130   5.276   5.413  0.5494  0.5522  0.3859
  597MOL0     O82284   2.139   5.310   5.537 -0.2174  0.0774 -0.7451
  597MOL0     C82285   2.163   5.451   5.561  0.0372 -0.4171 -0.6335
  597MOL0     C82286   2.193   5.480   5.712  0.4999 -0.0288 -0.6399
  597MOL0     C82287   2.318   5.420   5.768  0.2914 -0.0961 -0.2620
  597MOL0     C82288   2.315   5.467   5.924 -0.6280 -0.5574  0.4491
  597MOL0     C82289   2.417   5.388   6.010 -0.1371 -0.4484 -0.0944
  597MOL0     C82290   2.412   5.232   6.002  0.2894  0.1959 -0.1941
  597MOL0     C82291   2.537   5.184   6.076 -0.8624  0.3590 -0.1774
  597MOL0     C82292   2.528   5.045   6.130 -0.0951  0.1804  0.5890
  597MOL0    Cl82293   2.525   4.929   5.995  0.1881 -0.2424  0.0477
  597MOL0     C82294   2.015   5.308   5.333  0.3711 -0.5852 -0.2068
  597MOL0     C82295   2.011   5.262   5.203  0.4953 -0.5030 -0.6161
  597MOL0     O82296   2.198   4.899   5.053 -0.0133  0.1218  0.9035
  597MOL0     C82297   2.152   4.820   4.794 -0.3439 -0.1823  0.7194
  597MOL0     C82298   2.124   4.776   4.664  0.0858  0.4294 -0.5694
  597MOL0     N82299   1.527   4.705   4.119  0.0959 -0.2704  0.6086
  597MOL0     N82300   1.474   4.596   4.079 -0.1515  0.3578  0.0782
  597MOL0     C82301   0.706   3.565   4.134  0.6722  0.4287  0.1337
  597MOL0     C82302   0.599   3.473   4.164  0.3138  0.0369 -0.3928
  597MOL0     C82303   0.169   3.388   4.283  0.0445 -0.7715  0.0725
  597MOL0     C82304   0.196   3.253   4.290  0.4685 -0.4796 -0.3402
  597MOL0     C82305   0.101   3.156   4.290 -0.5490  0.3664  0.8330
  597MOL0     C82306  -0.033   3.189   4.295  0.4484 -0.1055 -0.2733
  597MOL0     O82307  -0.140   3.100   4.293 -0.2091  0.0283  0.6781
  597MOL0     C82308  -0.106   2.965   4.305  0.4838  0.3826  0.3417
  597MOL0     C82309  -0.231   2.876   4.338 -0.2846 -0.2585  0.2605
  597MOL0     C82310  -0.314   2.936   4.448 -0.3617 -0.5079 -0.3469
  597MOL0     C82311  -0.443   2.869   4.484  0.0490  0.8171 -0.3363
  597MOL0     C82312  -0.538   2.898   4.378  0.2538  0.5878  0.2855
  597MOL0     C82313  -0.614   2.919   4.285  0.1710  0.0653  1.0183
  597MOL0     C82314  -0.071   3.328   4.295 -0.0187  0.2549 -0.8435
  597MOL0     C82315   0.034   3.421   4.294  0.2479  0.2993 -0.3944
  597MOL0     C82316  -0.007   3.565   4.309 -0.2773  0.2296  0.1178
  597MOL0     H82317   0.490   3.613   4.453 -0.5255  1.0657 -0.3675
  597MOL0     H82318   0.667   3.789   4.393 -2.6784  0.7961 -0.9817
  597MOL0     H82319   0.825   3.772   3.991 -2.5121  1.9223  1.6075
  597MOL0     H82320   0.950   3.667   4.073 -1.6230 -0.0458 -3.9144
  597MOL0     H82321   1.065   3.860   3.975  2.1667  1.4606  0.5594
  597MOL0     H82322   0.965   3.970   4.061  0.0683 -0.8479  0.6757
  597MOL0     H82323   1.058   3.879   4.287  0.1985  0.0188  0.1624
  597MOL0     H82324   1.136   3.758   4.203  2.4482  1.9771  0.5892
  597MOL0     H82325   1.293   3.925   4.252 -0.7778 -1.5591  0.2518
  597MOL0     H82326   1.272   3.942   4.076 -0.4029  1.0338 -0.1902
  597MOL0     H82327   1.102   4.123   4.263 -0.9604  0.3704 -1.3459
  597MOL0     H82328   1.148   4.136   4.090  2.2976  1.8206 -0.2648
  597MOL0     H82329   1.325   4.161   4.331  3.5198 -0.2800 -0.0083
  597MOL0     H82330   1.398   4.120   4.184 -0.4756 -0.3631 -0.5499
  597MOL0     H82331   1.260   4.381   4.253 -1.7038  0.5514 -1.4327
  597MOL0     H82332   1.254   4.322   4.083 -2.1455 -1.2088  1.2933
  597MOL0     H82333   1.512   4.301   4.230 -1.1242 -1.6095  0.3687
  597MOL0     H82334   1.473   4.321   4.052 -2.3891  1.3971  0.0347
  597MOL0     H82335   1.595   4.497   4.357  0.1604 -0.8368  0.1459
  597MOL0     H82336   1.590   4.787   4.436  1.2842 -0.6498  0.6066
  597MOL0     H82337   1.596   4.894   4.296 -1.3100  0.4070  1.4143
  597MOL0     H82338   1.812   4.824   4.228  0.2014 -1.4091 -0.3400
  597MOL0     H82339   1.804   4.885   4.399  0.9813  0.4936  0.3053
  597MOL0     H82340   1.823   4.676   4.501  0.8597  2.8062  0.7449
  597MOL0     H82341   1.811   4.591   4.341 -0.4066 -0.5091  2.0995
  597MOL0     H82342   2.038   4.611   4.440  0.7323  0.3401 -0.9303
  597MOL0     H82343   2.025   4.686   4.285  0.1811 -0.6696  1.0829
  597MOL0     H82344   1.939   5.048   4.563 -0.3796  0.5712  2.0528
  597MOL0     H82345   1.923   5.211   4.700  0.6049  2.4273  1.3145
  597MOL0     H82346   2.034   5.238   4.822 -1.5021  3.0858 -1.6584
  597MOL0     H82347   1.893   5.152   4.872  0.9758 -0.9463  1.0289
  597MOL0     H82348   2.269   5.033   5.218 -1.3462 -0.7261 -0.8270
  597MOL0     H82349   2.308   5.140   5.422 -0.3051  0.0911  0.8130
  597MOL0     H82350   2.229   5.503   5.491 -0.2477  2.3573  0.9776
  597MOL0     H82351   2.062   5.489   5.546 -0.3495 -1.9505 -2.2567
  597MOL0     H82352   2.190   5.588   5.730  1.8445  0.1530 -1.3036
  597MOL0     H82353   2.109   5.434   5.764  1.6281 -0.6499  0.7169
  597MOL0     H82354   2.407   5.462   5.719  0.5437  2.0930  1.8741
  597MOL0     H82355   2.312   5.312   5.750  0.9087  0.2429 -2.8743
  597MOL0     H82356   2.218   5.435   5.964 -0.1334 -0.0955  2.0936
  597MOL0     H82357   2.332   5.574   5.937 -0.0757 -0.5223 -0.5253
  597MOL0     H82358   2.520   5.417   5.988  0.9600 -1.2670  3.4036
  597MOL0     H82359   2.405   5.418   6.114  3.9030  1.3410  0.0460
  597MOL0     H82360   2.423   5.207   5.897 -0.4836 -0.0646 -0.2140
  597MOL0     H82361   2.319   5.192   6.043  0.4197  1.1221  1.0672
  597MOL0     H82362   2.553   5.248   6.163 -1.4249  0.1920  0.0561
  597MOL0     H82363   2.626   5.186   6.013  0.8074 -2.1801  1.8653
  597MOL0     H82364   2.443   5.038   6.199 -0.0900  0.1753  0.5946
  597MOL0     H82365   2.612   5.022   6.195 -0.8614 -1.3859  1.0854
  597MOL0     H82366   1.934   5.364   5.376 -3.6073 -4.0467 -2.4107
  597MOL0     H82367   1.925   5.287   5.142  0.6749 -0.1338 -0.7182
  597MOL0     H82368   2.215   4.763   4.860  0.9593  0.3498 -0.0218
  597MOL0     H82369   2.178   4.686   4.638  0.4907  0.1886  1.0242
  597MOL0     H82370   0.759   3.537   4.044  0.7185 -0.3977  0.4110
  597MOL0     H82371   0.587   3.394   4.091  1.7744 -0.3668 -0.2168
  597MOL0     H82372   0.300   3.222   4.281  0.9978  1.5334 -2.2810
  597MOL0     H82373   0.148   3.058   4.287  0.7516  0.9819  0.4561
  597MOL0     H82374  -0.045   2.944   4.216  1.0651  2.6555  0.1476
  597MOL0     H82375  -0.037   2.961   4.390  1.5158 -1.3278 -0.5160
  597MOL0     H82376  -0.199   2.779   4.378 -1.3478  0.2660  2.5574
  597MOL0     H82377  -0.291   2.868   4.247 -1.8794 -4.8490  1.4088
  597MOL0     H82378  -0.250   2.936   4.536  1.0630 -1.8677 -1.3360
  597MOL0     H82379  -0.333   3.043   4.434 -2.2926 -0.9144 -1.3083
  597MOL0     H82380  -0.478   2.920   4.574  0.8312  3.1410 -1.2902
  597MOL0     H82381  -0.428   2.761   4.497  1.9152  0.8522 -1.7886
  597MOL0     H82382  -0.677   2.949   4.204  1.4216 -1.2964 -0.5481
  597MOL0     H82383  -0.172   3.366   4.302 -1.5440 -3.4333 -1.0107
  597MOL0     H82384  -0.050   3.601   4.215 -2.1518  0.1084  0.8781
  597MOL0     H82385  -0.085   3.584   4.383 -0.9350  0.4018 -0.6061
  597MOL0     H82386   0.073   3.633   4.341  0.9610  0.3373 -2.9322
  598MOL0     O82387   0.502   0.779   0.168  0.2494  0.3826  0.3502
  598MOL0     C82388   0.474   0.837   0.056 -0.1149 -0.6547 -0.5833
  598MOL0     O82389   0.558   0.836  -0.051  0.2383  0.7360  0.7696
  598MOL0     C82390   0.689   0.824  -0.026 -0.0195  0.5808 -0.0937
  598MOL0     C82391   0.762   0.871   0.088 -0.3721  0.3204  0.1879
  598MOL0     C82392   0.898   0.832   0.095  0.6051  0.0141 -0.0564
  598MOL0     C82393   0.969   0.768  -0.006  0.2115  0.4449  0.6394
  598MOL0     O82394   1.099   0.730   0.008  0.2156  0.2818 -0.6010
  598MOL0     C82395   1.195   0.736  -0.095 -0.2970  0.5631  0.6885
  598MOL0     C82396   1.323   0.768  -0.022  0.0353 -0.0355 -0.8119
  598MOL0     C82397   1.436   0.783  -0.119  0.0911  0.0961 -0.1473
  598MOL0     C82398   1.571   0.805  -0.044  0.0378 -0.2459  0.1958
  598MOL0     C82399   1.616   0.699   0.063  0.4583  0.1255  0.2908
  598MOL0     C82400   1.768   0.665   0.062 -0.3673 -0.0220 -0.0405
  598MOL0     C82401   1.849   0.794   0.076  0.0757 -0.8257 -0.5866
  598MOL0     C82402   1.986   0.758   0.116  0.5242 -0.2016  0.4342
  598MOL0     N82403   2.052   0.651   0.040 -0.2469 -0.1719 -0.2899
  598MOL0     C82404   2.090   0.649  -0.092  0.2487 -0.1079  0.0653
  598MOL0     C82405   2.145   0.526  -0.109  0.1717 -0.0770  0.0419
  598MOL0     C82406   2.194   0.464  -0.236 -0.8798 -0.4439  0.2610
  598MOL0     C82407   2.346   0.498  -0.253 -0.2793 -1.1815  0.0041
  598MOL0     C82408   2.441   0.483  -0.125  0.0639  0.3320 -0.1267
  598MOL0     C82409   2.451   0.326  -0.100 -0.1948  0.5324 -0.0153
  598MOL0     O82410   2.479   0.244  -0.219 -0.1764  0.9393  0.4190
  598MOL0     C82411   2.615   0.212  -0.244  0.7323 -0.5448 -0.5277
  598MOL0     C82412   2.723   0.278  -0.183 -0.2400 -0.6116 -0.1744
  598MOL0     C82413   2.860   0.241  -0.197  0.1985 -0.0748 -0.0346
  598MOL0     C82414   2.963   0.329  -0.118 -0.3180 -0.1264 -0.6586
  598MOL0     C82415   2.887   0.133  -0.279 -0.2793  0.0988 -0.1353
  598MOL0     C82416   3.031   0.085  -0.290  0.5227  0.0967 -0.3282
  598MOL0     O82417   3.115   0.099  -0.184 -0.1107  0.1565 -0.0814
  598MOL0     C82418   3.247   0.058  -0.192 -0.7095 -0.1825 -0.1064
  598MOL0     C82419   3.277  -0.070  -0.240  0.0615  0.1714  0.3704
  598MOL0     C82420   3.411  -0.112  -0.262 -0.6613  0.3107  0.0724
  598MOL0     C82421   3.513  -0.016  -0.234  0.0409  0.0375 -0.4811
  598MOL0     O82422   3.645  -0.049  -0.263 -0.0391  0.3053 -0.1260
  598MOL0     C82423   3.719   0.051  -0.325  0.5391 -0.3200  0.0965
  598MOL0     C82424   3.869   0.039  -0.262  0.9012 -0.3919  0.6178
  598MOL0     C82425   3.979   0.109  -0.349  0.5317 -0.7342 -0.3110
  598MOL0     C82426   4.105   0.031  -0.381  0.7279  0.5779 -0.2288
  598MOL0     C82427   4.207   0.112  -0.469  0.4406  0.5898 -0.1396
  598MOL0     C82428   4.305   0.198  -0.373 -0.8397  0.7671  0.2718
  598MOL0     C82429   4.413   0.253  -0.463 -0.0601 -0.0646 -0.2211
  598MOL0     C82430   4.541   0.287  -0.387 -0.5483  1.0289 -0.0672
  598MOL0    Cl82431   4.631   0.139  -0.354 -0.5500  0.1152 -0.0798
  598MOL0     C82432   3.483   0.103  -0.168  0.4537 -0.0181 -0.1576
  598MOL0     C82433   3.351   0.143  -0.159  0.3491  0.3062 -0.6892
  598MOL0     O82434   3.045   0.016  -0.391  0.3905  0.4740 -0.0824
  598MOL0     C82435   2.774   0.073  -0.347 -0.6096  0.3526  0.4608
  598MOL0     C82436   2.645   0.110  -0.329 -0.5057 -0.4380  0.6207
  598MOL0     N82437   2.141   0.457   0.004  0.3127 -0.2385 -0.3569
  598MOL0     N82438   2.081   0.533   0.096 -0.4478  0.6005  0.7604
  598MOL0     C82439   0.898   0.739  -0.122 -0.6468  0.4191 -0.6795
  598MOL0     C82440   0.762   0.750  -0.120  0.3165  0.5681  0.1780
  598MOL0     C82441   0.336   0.888   0.038 -0.1540  0.1858 -0.8144
  598MOL0     C82442   0.256   0.882   0.146  0.0638  0.3051  0.9346
  598MOL0     C82443   0.119   0.910   0.133 -0.1928  0.4852 -0.8066
  598MOL0     C82444   0.062   0.968   0.020 -0.1039 -0.1671  0.1697
  598MOL0     O82445  -0.049   1.043   0.008  0.2139  0.6291 -0.4311
  598MOL0     C82446  -0.152   1.036   0.105  0.1217  0.2544 -0.1152
  598MOL0     C82447  -0.121   1.120   0.228 -0.4284 -0.4894  0.3303
  598MOL0     C82448  -0.036   1.247   0.194  0.5528  0.5552 -0.6861
  598MOL0     C82449  -0.045   1.354   0.311  0.4170  0.2389  0.6569
  598MOL0     C82450   0.007   1.482   0.263 -0.4183  0.7690  0.7091
  598MOL0     C82451   0.053   1.589   0.224  0.2676  0.4153 -0.5915
  598MOL0     C82452   0.156   0.981  -0.085 -0.3531  0.8758  0.2000
  598MOL0     C82453   0.288   0.936  -0.085  0.6891 -0.1425 -0.1740
  598MOL0     C82454   0.379   0.976  -0.200 -0.2601  0.4430  0.0798
  598MOL0     H82455   0.722   0.934   0.166 -0.0202  1.3058 -0.4045
  598MOL0     H82456   0.946   0.862   0.187 -1.2552  2.8274  0.1276
  598MOL0     H82457   1.175   0.799  -0.182 -0.8311 -1.0472 -0.3931
  598MOL0     H82458   1.192   0.635  -0.135 -0.5486  0.3406  1.2541
  598MOL0     H82459   1.303   0.848   0.050 -1.7812 -2.4253  1.5072
  598MOL0     H82460   1.344   0.682   0.041 -4.7671 -1.0699 -0.2164
  598MOL0     H82461   1.450   0.696  -0.183  2.0946 -0.8185  1.4010
  598MOL0     H82462   1.421   0.875  -0.177  2.0203  0.0004 -0.8819
  598MOL0     H82463   1.653   0.812  -0.116  0.0785  0.7539  0.3238
  598MOL0     H82464   1.567   0.906  -0.002 -0.7814  0.2447 -1.0009
  598MOL0     H82465   1.557   0.607   0.055  0.7087  0.0711 -1.1186
  598MOL0     H82466   1.584   0.721   0.165 -3.3318 -2.0684 -0.2008
  598MOL0     H82467   1.796   0.601   0.146  0.4216 -2.6918 -2.2193
  598MOL0     H82468   1.787   0.610  -0.031 -1.4888  0.4903 -0.5954
  598MOL0     H82469   1.806   0.864   0.148  1.1405 -0.0238 -0.7100
  598MOL0     H82470   1.848   0.849  -0.019  1.8015  1.0088  0.3965
  598MOL0     H82471   2.046   0.845   0.087 -0.2149 -0.2819 -1.4767
  598MOL0     H82472   1.992   0.739   0.223 -0.7885 -4.8109 -0.1094
  598MOL0     H82473   2.080   0.730  -0.164  0.7465 -0.5613 -0.5163
  598MOL0     H82474   2.127   0.508  -0.311 -0.1519 -2.5646 -1.7687
  598MOL0     H82475   2.171   0.357  -0.227 -2.1000 -0.0524  2.3283
  598MOL0     H82476   2.389   0.447  -0.340 -1.8981 -0.3872 -1.3110
  598MOL0     H82477   2.350   0.604  -0.278 -3.5596 -1.2706 -1.3675
  598MOL0     H82478   2.542   0.517  -0.149 -0.7168  1.5066 -1.9700
  598MOL0     H82479   2.405   0.531  -0.033 -3.3540  1.1192 -1.6940
  598MOL0     H82480   2.527   0.303  -0.025  0.6476 -0.6395 -1.1919
  598MOL0     H82481   2.358   0.292  -0.055 -0.0124 -0.0258 -0.0513
  598MOL0     H82482   2.704   0.354  -0.107  1.2431 -2.0568  1.7662
  598MOL0     H82483   2.976   0.299  -0.014  0.1667 -1.6945 -1.1429
  598MOL0     H82484   2.932   0.434  -0.113 -2.2030 -0.5950 -1.6195
  598MOL0     H82485   3.063   0.329  -0.163  1.4439 -1.5995  2.8301
  598MOL0     H82486   3.190  -0.134  -0.247  1.2177 -1.2859 -1.6676
  598MOL0     H82487   3.421  -0.212  -0.304  0.3906  0.4357  0.0189
  598MOL0     H82488   3.719   0.042  -0.434 -1.6862 -0.9693  0.0891
  598MOL0     H82489   3.682   0.152  -0.308 -1.1928 -0.9025  0.0164
  598MOL0     H82490   3.875   0.076  -0.159  1.3375  2.7024 -0.4190
  598MOL0     H82491   3.898  -0.066  -0.252  1.3582 -0.0986  2.9800
  598MOL0     H82492   4.013   0.199  -0.296 -0.5438 -0.8128  0.5589
  598MOL0     H82493   3.926   0.132  -0.442  2.5250  0.0646 -1.3030
  598MOL0     H82494   4.075  -0.046  -0.452 -1.8154  2.0286 -0.8566
  598MOL0     H82495   4.151   0.001  -0.286 -0.9819 -1.4416  0.0214
  598MOL0     H82496   4.256   0.036  -0.530 -1.2170  0.3318 -1.2248
  598MOL0     H82497   4.163   0.170  -0.550  0.6944  0.4989 -0.3420
  598MOL0     H82498   4.353   0.137  -0.297  0.0196  0.3138 -0.6100
  598MOL0     H82499   4.246   0.280  -0.331 -0.9896 -1.1624  4.1916
  598MOL0     H82500   4.360   0.330  -0.519  1.1467  0.0487 -1.2636
  598MOL0     H82501   4.435   0.173  -0.535 -1.4109 -1.7325  1.1219
  598MOL0     H82502   4.517   0.345  -0.297  2.1506 -0.1822  1.5287
  598MOL0     H82503   4.605   0.355  -0.445  3.0599 -0.8633  1.4151
  598MOL0     H82504   3.566   0.171  -0.149 -0.5542  1.7729 -1.8472
  598MOL0     H82505   3.327   0.234  -0.105  0.3542 -0.5340  0.7742
  598MOL0     H82506   2.793  -0.023  -0.395 -1.1765 -2.0580  4.5202
  598MOL0     H82507   2.567   0.071  -0.395  2.5014 -3.2260 -1.6075
  598MOL0     H82508   0.946   0.679  -0.199 -0.5780  1.5115 -1.5241
  598MOL0     H82509   0.710   0.705  -0.204  1.0170  1.2514 -0.6482
  598MOL0     H82510   0.295   0.848   0.242  1.4877 -1.6577 -0.2610
  598MOL0     H82511   0.062   0.919   0.225 -0.2967  0.4258 -0.8644
  598MOL0     H82512  -0.237   1.096   0.068 -0.1796  1.4933  2.3501
  598MOL0     H82513  -0.183   0.935   0.134 -0.6802  0.2339 -0.9655
  598MOL0     H82514  -0.065   1.065   0.303  0.8868  1.3014  0.7410
  598MOL0     H82515  -0.214   1.149   0.279 -0.8222  1.7192 -1.4602
  598MOL0     H82516   0.066   1.210   0.177  0.9901  1.4314 -0.0452
  598MOL0     H82517  -0.074   1.279   0.097 -0.8784  3.4501  0.7073
  598MOL0     H82518   0.005   1.318   0.401 -0.6206  0.0656  1.1836
  598MOL0     H82519  -0.146   1.373   0.350  0.8850 -0.6621  2.3982
  598MOL0     H82520   0.102   1.682   0.204 -0.8551  0.9467 -0.9166
  598MOL0     H82521   0.123   1.024  -0.179 -1.7591  0.7656  0.6147
  598MOL0     H82522   0.317   1.032  -0.271  0.1152 -0.6647 -1.1534
  598MOL0     H82523   0.457   1.044  -0.164 -0.7601  0.8842  0.3446
  598MOL0     H82524   0.415   0.885  -0.248 -0.1711  0.5125  0.0147
  599MOL0     O82525   6.036   6.675   6.705  0.0411  0.4519 -0.2332
  599MOL0     C82526   5.965   6.773   6.729  0.6066 -0.5977 -0.2510
  599MOL0     O82527   6.003   6.905   6.731 -0.0441 -0.2563  0.0414
  599MOL0     C82528   6.131   6.950   6.745  0.3998  0.3445  0.2017
  599MOL0     C82529   6.237   6.887   6.681 -0.3377  0.3945  0.2189
  599MOL0     C82530   6.369   6.937   6.710  0.5432 -0.1922  0.1316
  599MOL0     C82531   6.392   7.038   6.803  0.0597  0.7697 -0.5260
  599MOL0     O82532   6.514   7.082   6.833 -0.1549 -0.0936 -0.2255
  599MOL0     C82533   6.551   7.021   6.959  0.6901 -0.0331 -0.6235
  599MOL0     C82534   6.644   6.905   6.950 -0.9926  0.7933 -0.2458
  599MOL0     C82535   6.794   6.940   6.912 -0.5802  1.2419  0.4674
  599MOL0     C82536   6.886   6.818   6.958 -0.0405  0.1998  0.1450
  599MOL0     C82537   7.026   6.825   6.903 -0.1775 -0.2320 -0.4359
  599MOL0     C82538   7.109   6.703   6.956 -0.8636  0.6411 -0.4482
  599MOL0     C82539   7.257   6.719   6.915  0.0910 -0.3048 -0.3697
  599MOL0     C82540   7.330   6.582   6.939 -0.6932 -0.4045 -0.0923
  599MOL0     N82541   7.470   6.620   6.903 -0.9883  0.0288  0.1242
  599MOL0     C82542   7.536   6.627   6.775  0.3351  0.0609  0.2571
  599MOL0     C82543   7.658   6.666   6.797 -0.1209  0.1921  0.3091
  599MOL0     C82544   7.750   6.706   6.685 -0.3487  1.0059 -0.1576
  599MOL0     C82545   7.871   6.599   6.658 -0.2409  0.3448  0.1478
  599MOL0     C82546   7.820   6.460   6.615 -1.1646  0.1308 -0.5105
  599MOL0     C82547   7.937   6.351   6.611 -0.0157 -0.2012 -0.8065
  599MOL0     O82548   8.022   6.384   6.502  0.2050  0.3319 -0.6937
  599MOL0     C82549   8.121   6.299   6.460  0.2150 -0.2072 -0.9902
  599MOL0     C82550   8.188   6.344   6.349  0.6092  0.2309 -0.1698
  599MOL0     C82551   8.281   6.259   6.278  0.6683  0.6377 -0.6489
  599MOL0     C82552   8.345   6.310   6.154 -0.2650 -0.2183  0.0773
  599MOL0     C82553   8.304   6.128   6.328  1.0594 -0.0578 -0.5661
  599MOL0     C82554   8.388   6.027   6.262  0.4701  0.0472 -0.2585
  599MOL0     O82555   8.385   6.016   6.122 -0.3806 -0.4963 -0.0188
  599MOL0     C82556   8.420   5.905   6.058  0.5231 -1.2715  0.4213
  599MOL0     C82557   8.335   5.877   5.950 -0.7891 -0.5685  0.3106
  599MOL0     C82558   8.338   5.768   5.865 -0.4445 -0.6145 -0.5714
  599MOL0     C82559   8.440   5.675   5.890 -0.7666  0.1152 -1.0610
  599MOL0     O82560   8.456   5.561   5.822 -0.6460  0.0250  0.2981
  599MOL0     C82561   8.340   5.500   5.743 -0.1373 -0.3436 -0.0994
  599MOL0     C82562   8.381   5.360   5.704 -0.2406  0.2251  0.7462
  599MOL0     C82563   8.414   5.265   5.825 -0.1004 -0.3507  0.7438
  599MOL0     C82564   8.453   5.129   5.767  0.1905 -0.0271 -0.5255
  599MOL0     C82565   8.501   5.042   5.881  0.5554 -0.0096 -1.7045
  599MOL0     C82566   8.388   4.991   5.982 -0.3998  0.1121 -0.0594
  599MOL0     C82567   8.433   4.880   6.080 -0.0667  0.0658 -0.0176
  599MOL0     C82568   8.331   4.845   6.186 -0.1191  0.5344 -0.0582
  599MOL0    Cl82569   8.165   4.861   6.127  0.3616 -0.1290  0.4542
  599MOL0     C82570   8.532   5.697   5.996 -0.2864  0.1076  0.6112
  599MOL0     C82571   8.521   5.814   6.076 -0.2590 -0.0457  0.2283
  599MOL0     O82572   8.463   5.965   6.339 -0.2253 -0.1356 -0.6180
  599MOL0     C82573   8.235   6.089   6.452  0.6687 -1.0883  0.4580
  599MOL0     C82574   8.141   6.176   6.515  0.8974  0.4046  0.2119
  599MOL0     N82575   7.681   6.691   6.930  0.2268  0.8702 -1.1054
  599MOL0     N82576   7.570   6.654   6.994 -0.6735  0.2852  0.0335
  599MOL0     C82577   6.278   7.105   6.858  0.2892  0.1522  0.2581
  599MOL0     C82578   6.145   7.066   6.822 -0.3697  0.3648  0.1187
  599MOL0     C82579   5.825   6.747   6.775  0.0454 -0.0206 -0.6054
  599MOL0     C82580   5.753   6.844   6.852 -0.3476 -0.1807 -0.0365
  599MOL0     C82581   5.619   6.825   6.880  0.1169 -0.1696  0.1895
  599MOL0     C82582   5.559   6.698   6.863  1.3162  1.1228  1.2175
  599MOL0     O82583   5.430   6.672   6.892  0.1742  0.5041 -0.3264
  599MOL0     C82584   5.343   6.784   6.912 -0.0906  0.5077  0.1926
  599MOL0     C82585   5.205   6.721   6.941  0.7648  0.7845 -0.5465
  599MOL0     C82586   5.095   6.822   6.926  0.7071 -0.2480 -0.5308
  599MOL0     C82587   5.054   6.848   6.779 -0.0162  1.0325  0.4837
  599MOL0     C82588   5.010   6.727   6.718 -0.3434 -0.3796 -0.5497
  599MOL0     C82589   4.971   6.616   6.677 -0.9125 -1.1644  0.5050
  599MOL0     C82590   5.630   6.597   6.793 -0.5444 -0.4939  0.0017
  599MOL0     C82591   5.761   6.625   6.746  0.2206 -0.1452  0.2364
  599MOL0     C82592   5.822   6.516   6.660  0.4885  0.1168  0.4940
  599MOL0     H82593   6.233   6.796   6.622 -2.6667  0.0743  0.8012
  599MOL0     H82594   6.458   6.895   6.664 -0.2555  0.7141 -2.4417
  599MOL0     H82595   6.463   6.982   7.010  2.7777 -1.9073  1.8294
  599MOL0     H82596   6.595   7.096   7.025  4.0303 -3.8454  1.9646
  599MOL0     H82597   6.639   6.856   7.047 -0.4825  0.2540 -0.4844
  599MOL0     H82598   6.591   6.830   6.890  1.2505 -2.1666  1.1804
  599MOL0     H82599   6.799   6.949   6.803 -1.0928 -4.3154 -0.3252
  599MOL0     H82600   6.821   7.040   6.947  0.8145  0.8754  0.5439
  599MOL0     H82601   6.895   6.815   7.067 -1.0196  1.5410  0.2873
  599MOL0     H82602   6.844   6.724   6.923 -1.5927  1.1858 -0.7689
  599MOL0     H82603   7.070   6.921   6.933  0.2442 -0.9203  1.2607
  599MOL0     H82604   7.024   6.828   6.793 -0.9243  1.8236 -0.4172
  599MOL0     H82605   7.110   6.688   7.064  1.9502  0.3353 -0.4256
  599MOL0     H82606   7.069   6.609   6.917 -0.3023 -0.5477  1.6776
  599MOL0     H82607   7.310   6.802   6.963  1.0142 -2.5428  2.8435
  599MOL0     H82608   7.255   6.740   6.807 -2.0928  0.0365 -0.3101
  599MOL0     H82609   7.323   6.562   7.046  0.1570  0.9691  0.2376
  599MOL0     H82610   7.279   6.499   6.888 -0.1142  0.2869 -1.8640
  599MOL0     H82611   7.484   6.612   6.681  1.4352  1.7787 -0.6582
  599MOL0     H82612   7.809   6.795   6.709  5.4914 -2.3261 -0.0813
  599MOL0     H82613   7.697   6.731   6.593 -1.5390  0.3601  0.3400
  599MOL0     H82614   7.944   6.630   6.582 -1.5773  1.6566 -0.6691
  599MOL0     H82615   7.935   6.588   6.746 -0.4411  0.0329  0.2568
  599MOL0     H82616   7.741   6.430   6.685  0.0828 -2.6760 -0.1927
  599MOL0     H82617   7.776   6.467   6.515 -0.1640  1.4677 -0.8775
  599MOL0     H82618   8.002   6.356   6.699  2.6645 -2.7597 -2.4360
  599MOL0     H82619   7.889   6.254   6.596 -2.3393  0.6915  0.2699
  599MOL0     H82620   8.152   6.439   6.310  0.6130 -0.3896 -1.7849
  599MOL0     H82621   8.451   6.300   6.176  0.1445  2.3372 -0.4558
  599MOL0     H82622   8.319   6.413   6.130  0.4197 -0.2543 -0.8800
  599MOL0     H82623   8.321   6.256   6.061  1.8310  0.4627 -0.9196
  599MOL0     H82624   8.254   5.946   5.930 -1.7725 -1.8589 -0.2950
  599MOL0     H82625   8.258   5.756   5.793 -0.8090 -0.0800 -0.2659
  599MOL0     H82626   8.247   5.486   5.799 -1.4528 -0.0834 -2.1203
  599MOL0     H82627   8.325   5.558   5.651 -0.3684  2.9919  1.8664
  599MOL0     H82628   8.292   5.327   5.650 -1.3097  2.1997  1.2017
  599MOL0     H82629   8.467   5.360   5.637  1.3099 -0.2539  2.6196
  599MOL0     H82630   8.324   5.260   5.888 -0.6151  1.1291  0.1743
  599MOL0     H82631   8.497   5.300   5.888 -0.3580 -0.4145  1.1266
  599MOL0     H82632   8.540   5.132   5.700  1.8071  0.3206  1.4594
  599MOL0     H82633   8.367   5.084   5.718 -1.1981  0.7450  1.0985
  599MOL0     H82634   8.553   4.958   5.834  0.9720  0.6665 -2.4768
  599MOL0     H82635   8.568   5.095   5.950 -1.8999 -0.3485  1.1791
  599MOL0     H82636   8.309   4.955   5.917  1.1984  0.6269 -2.4059
  599MOL0     H82637   8.353   5.080   6.036 -0.5219 -0.0942  0.2055
  599MOL0     H82638   8.520   4.913   6.137 -0.6565  0.3936  0.7164
  599MOL0     H82639   8.453   4.788   6.025 -2.6482 -0.5448 -0.0675
  599MOL0     H82640   8.351   4.918   6.264 -3.0636  0.3924  0.9260
  599MOL0     H82641   8.354   4.754   6.243 -1.9615  1.0717  1.6540
  599MOL0     H82642   8.605   5.619   6.015 -0.4706 -0.3634 -0.4921
  599MOL0     H82643   8.604   5.818   6.146  1.3805  1.4200 -1.6677
  599MOL0     H82644   8.256   5.988   6.487  1.4226 -1.7981 -1.8518
  599MOL0     H82645   8.087   6.136   6.601 -0.3923  2.4020  0.4009
  599MOL0     H82646   6.291   7.186   6.928 -4.0416  0.7114  0.7047
  599MOL0     H82647   6.050   7.114   6.844 -1.7750 -2.3662  0.4023
  599MOL0     H82648   5.801   6.938   6.874  2.4438 -0.4104 -4.0634
  599MOL0     H82649   5.569   6.910   6.926  0.3606 -0.5741  1.2220
  599MOL0     H82650   5.369   6.854   6.992  3.8106 -1.2899  0.7290
  599MOL0     H82651   5.337   6.839   6.817 -0.5572 -0.8777 -0.6047
  599MOL0     H82652   5.198   6.676   7.040  1.4350 -2.8479 -2.0093
  599MOL0     H82653   5.187   6.635   6.876  0.7385  1.7146 -1.8059
  599MOL0     H82654   5.011   6.789   6.989  0.7994 -0.0995 -0.3284
  599MOL0     H82655   5.144   6.907   6.975  1.4777 -1.2793  0.5300
  599MOL0     H82656   5.129   6.888   6.710  1.0591 -3.9398 -1.6363
  599MOL0     H82657   4.961   6.905   6.791 -0.0449  0.8682  1.0541
  599MOL0     H82658   4.941   6.519   6.643 -1.3212 -0.7378 -0.3896
  599MOL0     H82659   5.576   6.503   6.788  0.0589 -0.9063  0.9075
  599MOL0     H82660   5.755   6.435   6.630 -0.7583  1.0072  0.7925
  599MOL0     H82661   5.855   6.558   6.565 -1.1442 -0.8689 -0.5586
  599MOL0     H82662   5.905   6.477   6.719  3.5352  2.0947 -2.1575
  600MOL0     O82663   7.452   1.954   8.823  0.2052  0.1168  0.2788
  600MOL0     C82664   7.435   2.011   8.930 -0.6096  0.6140  0.3529
  600MOL0     O82665   7.467   2.140   8.963 -0.6136  0.4721 -0.7267
  600MOL0     C82666   7.539   2.219   8.875 -0.8943 -0.0914 -0.0255
  600MOL0     C82667   7.649   2.284   8.928  0.2113 -0.0211  0.0708
  600MOL0     C82668   7.708   2.380   8.846 -0.1301  1.1296 -0.9888
  600MOL0     C82669   7.658   2.408   8.719 -0.1139 -0.0016  0.8061
  600MOL0     O82670   7.717   2.517   8.646  1.0270 -0.0262 -0.4241
  600MOL0     C82671   7.838   2.468   8.580  0.5944 -0.2846  0.1453
  600MOL0     C82672   7.924   2.593   8.561  0.2278  0.4026 -0.0852
  600MOL0     C82673   7.977   2.626   8.694 -0.1008 -0.3853 -0.5741
  600MOL0     C82674   8.091   2.730   8.674 -0.3856 -0.0650 -1.3223
  600MOL0     C82675   8.121   2.795   8.811  1.0086  0.2040  0.7783
  600MOL0     C82676   8.237   2.889   8.804 -0.7759  0.0934 -0.2297
  600MOL0     C82677   8.261   2.954   8.942 -1.1557 -0.8468  0.0598
  600MOL0     C82678   8.225   3.104   8.946 -0.4892 -0.2486 -0.5445
  600MOL0     N82679   8.321   3.190   8.870 -0.7377 -0.1503  0.7890
  600MOL0     C82680   8.341   3.200   8.726 -0.0839  0.6549 -0.6076
  600MOL0     C82681   8.442   3.285   8.711 -0.6655  0.1166 -0.3098
  600MOL0     C82682   8.469   3.348   8.579 -0.0837 -0.5561  0.1803
  600MOL0     C82683   8.609   3.317   8.532 -0.4657  0.5030  0.8317
  600MOL0     C82684   8.640   3.392   8.400 -0.0420 -0.0451 -0.1799
  600MOL0     C82685   8.753   3.327   8.323  0.0530 -0.0985  0.4235
  600MOL0     O82686   8.882   3.324   8.381 -0.0881  0.3424  0.9325
  600MOL0     C82687   8.981   3.267   8.302 -0.6251 -0.4057 -0.0583
  600MOL0     C82688   8.961   3.191   8.185 -0.6474 -0.5023  0.0707
  600MOL0     C82689   9.070   3.125   8.118  0.5294 -0.4625  0.2104
  600MOL0     C82690   9.036   3.030   8.000  1.3695  0.7327  0.0761
  600MOL0     C82691   9.198   3.145   8.171 -0.4491 -0.3292  0.0435
  600MOL0     C82692   9.318   3.065   8.128 -0.6445 -0.0008 -0.4116
  600MOL0     O82693   9.442   3.086   8.195 -0.5605  0.7319 -0.4474
  600MOL0     C82694   9.547   3.005   8.151 -0.1805  0.7708 -0.7769
  600MOL0     C82695   9.568   2.886   8.224  0.4601 -0.4671 -0.2488
  600MOL0     C82696   9.666   2.799   8.180  0.2251  0.1187  0.0084
  600MOL0     C82697   9.755   2.828   8.075  0.8325  0.8528  0.7349
  600MOL0     O82698   9.853   2.742   8.058  0.2979 -0.5569  1.2470
  600MOL0     C82699   9.916   2.743   7.922  0.6556 -0.0907 -0.5238
  600MOL0     C82700  10.018   2.636   7.910 -0.1275 -0.6573 -0.4659
  600MOL0     C82701  10.136   2.667   8.010 -0.2406  0.6606 -0.3370
  600MOL0     C82702  10.243   2.553   8.004  0.2307  0.4080  0.7387
  600MOL0     C82703  10.379   2.583   8.079 -0.0280  0.7753  0.1468
  600MOL0     C82704  10.457   2.702   8.037  0.6006  0.4863  0.0846
  600MOL0     C82705  10.584   2.724   8.133  0.7207 -0.1592 -0.9613
  600MOL0     C82706  10.655   2.847   8.083  0.6662  0.9022 -0.1194
  600MOL0    Cl82707  10.764   2.925   8.212 -0.0116 -0.2859  0.2685
  600MOL0     C82708   9.738   2.948   8.009 -0.1107  0.0286 -0.5829
  600MOL0     C82709   9.631   3.032   8.047 -0.1175 -0.4186 -0.2142
  600MOL0     O82710   9.305   2.983   8.038 -0.2116  0.4421  0.0573
  600MOL0     C82711   9.226   3.247   8.268  0.3862 -0.5466 -0.5465
  600MOL0     C82712   9.117   3.298   8.337  1.0591 -0.0535  0.4728
  600MOL0     N82713   8.494   3.328   8.832  0.3228  0.4015 -0.0964
  600MOL0     N82714   8.430   3.259   8.925  0.4277  0.6473  0.4169
  600MOL0     C82715   7.552   2.335   8.666 -0.3483 -0.2102  0.2290
  600MOL0     C82716   7.495   2.237   8.745 -0.1079  0.1150  0.2611
  600MOL0     C82717   7.386   1.932   9.035  0.0064 -0.6692 -0.9080
  600MOL0     C82718   7.443   1.804   9.048  0.2968  0.3924  0.0046
  600MOL0     C82719   7.386   1.710   9.139 -0.8912 -0.2179 -0.0660
  600MOL0     C82720   7.289   1.751   9.236 -0.9768 -0.7070  0.3205
  600MOL0     O82721   7.239   1.677   9.337  0.3133  0.5658 -0.0954
  600MOL0     C82722   7.293   1.543   9.354  0.2802  0.1578 -0.1106
  600MOL0     C82723   7.303   1.511   9.502 -1.1299  0.4835 -0.5564
  600MOL0     C82724   7.383   1.378   9.521  0.3259  0.1793  0.3962
  600MOL0     C82725   7.528   1.373   9.500 -0.8842 -0.0631 -0.7713
  600MOL0     C82726   7.598   1.474   9.584 -0.0107 -0.2449 -0.1160
  600MOL0     C82727   7.652   1.551   9.666 -0.5489  0.6277  0.0813
  600MOL0     C82728   7.248   1.887   9.237 -0.4119  0.7471  0.5314
  600MOL0     C82729   7.295   1.975   9.140 -0.4135 -0.5659 -0.0107
  600MOL0     C82730   7.224   2.106   9.134  0.2164 -1.1801 -0.3615
  600MOL0     H82731   7.688   2.265   9.028  0.8171  2.2320  0.3114
  600MOL0     H82732   7.785   2.452   8.870  2.8951 -1.8073 -1.1296
  600MOL0     H82733   7.824   2.428   8.479  0.3524 -0.2581  0.1682
  600MOL0     H82734   7.893   2.390   8.634  1.2941  0.7697  1.0008
  600MOL0     H82735   8.007   2.580   8.490 -0.3679 -0.6592 -0.6065
  600MOL0     H82736   7.863   2.678   8.530 -2.2182 -0.0216  3.0705
  600MOL0     H82737   7.898   2.656   8.765 -1.0229 -2.6306 -0.5783
  600MOL0     H82738   8.021   2.538   8.741 -0.1163  0.3355  0.8775
  600MOL0     H82739   8.182   2.678   8.645 -0.8818 -1.9288  0.2639
  600MOL0     H82740   8.063   2.809   8.603  2.2687  2.6831  0.4498
  600MOL0     H82741   8.136   2.719   8.888 -3.1315  0.8401  2.4801
  600MOL0     H82742   8.033   2.846   8.852 -0.3561  0.2007 -1.9474
  600MOL0     H82743   8.333   2.851   8.766  0.4093  1.3835  1.3159
  600MOL0     H82744   8.214   2.967   8.730 -1.5157  1.1184  1.0242
  600MOL0     H82745   8.367   2.946   8.967 -0.3258  0.3460 -2.7029
  600MOL0     H82746   8.198   2.914   9.022  0.1761 -0.8425  1.1662
  600MOL0     H82747   8.124   3.110   8.907 -0.6766 -0.1659 -0.0553
  600MOL0     H82748   8.217   3.133   9.051  0.3991 -1.5791 -0.0862
  600MOL0     H82749   8.276   3.151   8.654 -0.5744 -1.2924  1.0912
  600MOL0     H82750   8.436   3.453   8.580  0.3548 -0.4153  0.3647
  600MOL0     H82751   8.392   3.312   8.511 -0.0038  2.2760 -1.5877
  600MOL0     H82752   8.679   3.361   8.604  1.5065  2.4619 -2.0322
  600MOL0     H82753   8.628   3.210   8.525 -2.9628  0.1069 -1.9648
  600MOL0     H82754   8.551   3.389   8.337  0.2682 -0.1999 -0.6220
  600MOL0     H82755   8.670   3.497   8.409  3.1619 -0.7567 -1.0181
  600MOL0     H82756   8.710   3.229   8.301 -1.0292 -0.0215  2.0176
  600MOL0     H82757   8.770   3.380   8.229 -0.9763  1.2645  0.9789
  600MOL0     H82758   8.862   3.157   8.155  0.1194 -1.1745 -1.8846
  600MOL0     H82759   9.057   2.927   8.032 -0.9130 -0.6495 -2.5035
  600MOL0     H82760   9.093   3.058   7.911 -1.8983  2.4925 -1.6487
  600MOL0     H82761   8.931   3.047   7.976  1.3092  0.4433  0.1401
  600MOL0     H82762   9.503   2.875   8.311  0.7257 -0.6479 -0.0730
  600MOL0     H82763   9.674   2.708   8.239  0.6134 -1.3293 -2.1436
  600MOL0     H82764   9.839   2.723   7.847  1.0949  1.4784 -1.4304
  600MOL0     H82765   9.960   2.841   7.905  0.1183  0.8785  2.8169
  600MOL0     H82766   9.980   2.536   7.933  0.4249 -0.8081 -0.1968
  600MOL0     H82767  10.058   2.641   7.809  1.3309  1.4093  0.1363
  600MOL0     H82768  10.102   2.670   8.113  2.4090  0.1185  0.6449
  600MOL0     H82769  10.187   2.760   7.985 -1.4437  0.7466 -2.8134
  600MOL0     H82770  10.266   2.522   7.902  1.8207 -2.7144  1.9247
  600MOL0     H82771  10.198   2.474   8.064 -2.0293  2.4112  1.8721
  600MOL0     H82772  10.344   2.602   8.181 -3.0362 -0.4974 -0.5347
  600MOL0     H82773  10.451   2.501   8.082 -1.2395 -0.3370 -0.2551
  600MOL0     H82774  10.392   2.790   8.032  0.6688  0.4471 -2.2798
  600MOL0     H82775  10.483   2.690   7.932  3.9024  4.1157  0.2655
  600MOL0     H82776  10.648   2.636   8.143  0.5010 -0.2107  0.0935
  600MOL0     H82777  10.546   2.746   8.233  0.6776  1.7865 -1.3668
  600MOL0     H82778  10.578   2.916   8.047 -0.0944  0.5054  0.6973
  600MOL0     H82779  10.707   2.813   7.993  3.5379  0.6597  1.5338
  600MOL0     H82780   9.805   2.998   7.939 -1.0329  3.2610  0.6279
  600MOL0     H82781   9.608   3.127   8.000 -1.7424  0.7980  2.7394
  600MOL0     H82782   9.326   3.267   8.304  1.1218 -2.9249 -1.1341
  600MOL0     H82783   9.130   3.358   8.426  2.0732 -1.0030  0.9850
  600MOL0     H82784   7.518   2.357   8.565 -1.0326 -0.5877  0.3724
  600MOL0     H82785   7.401   2.193   8.714 -1.1704  2.9180 -0.8956
  600MOL0     H82786   7.515   1.760   8.981  0.6915 -3.9005  2.8484
  600MOL0     H82787   7.423   1.609   9.126 -0.3586  0.1379 -1.5045
  600MOL0     H82788   7.235   1.463   9.308 -0.5461 -0.5238  1.9646
  600MOL0     H82789   7.399   1.543   9.326  0.9761 -2.3116  2.0836
  600MOL0     H82790   7.206   1.492   9.549  1.2292 -0.6727  4.5631
  600MOL0     H82791   7.348   1.592   9.562 -0.9821  0.3196 -0.4448
  600MOL0     H82792   7.365   1.341   9.623  2.1780 -1.6918  0.1185
  600MOL0     H82793   7.341   1.300   9.457  0.2465  2.2164 -2.1966
  600MOL0     H82794   7.554   1.380   9.394  0.7218 -1.3953 -0.5012
  600MOL0     H82795   7.569   1.277   9.533  0.3791 -0.0423 -2.1948
  600MOL0     H82796   7.709   1.615   9.730 -1.6252  2.2386 -0.5153
  600MOL0     H82797   7.171   1.913   9.309 -0.8383  1.5745 -0.2052
  600MOL0     H82798   7.126   2.104   9.184 -0.2608  1.9925 -0.9696
  600MOL0     H82799   7.279   2.181   9.192  0.0173 -1.7153  0.5433
  600MOL0     H82800   7.217   2.151   9.035  1.1906 -1.3020 -0.4932
  601MOL0     O82801   5.648   3.489   6.766  0.6282 -0.3536 -0.4149
  601MOL0     C82802   5.581   3.593   6.739  0.3574  0.4914  0.0822
  601MOL0     O82803   5.627   3.718   6.713  0.1115  0.0410  0.3894
  601MOL0     C82804   5.763   3.740   6.715 -0.1682  0.1909  0.6737
  601MOL0     C82805   5.843   3.670   6.615 -0.1761  0.2610  0.4769
  601MOL0     C82806   5.981   3.681   6.614 -0.1986 -1.0612  0.3654
  601MOL0     C82807   6.042   3.754   6.708  0.2514 -0.3153 -0.7540
  601MOL0     O82808   6.174   3.786   6.694  0.1092  0.4476 -0.2000
  601MOL0     C82809   6.265   3.681   6.737 -0.1039  0.5725 -0.2910
  601MOL0     C82810   6.396   3.736   6.787  0.5243 -0.2430 -0.3150
  601MOL0     C82811   6.447   3.846   6.686  0.0456  0.2971 -0.3790
  601MOL0     C82812   6.465   3.796   6.542  0.1884 -0.0649  0.2311
  601MOL0     C82813   6.543   3.894   6.460  0.5521 -0.1063  0.3396
  601MOL0     C82814   6.535   3.860   6.308  0.3002  0.6022  0.0412
  601MOL0     C82815   6.611   3.946   6.226 -0.3207 -0.0710 -0.0186
  601MOL0     C82816   6.603   3.902   6.082  0.0348 -0.7097  0.7164
  601MOL0     N82817   6.467   3.932   6.020  0.3103  0.0813 -0.4899
  601MOL0     C82818   6.401   4.050   6.012 -0.1147 -0.1428 -0.5167
  601MOL0     C82819   6.283   4.015   5.953 -0.1812  0.6375 -1.1198
  601MOL0     C82820   6.176   4.122   5.918  0.6029  0.7146 -0.3913
  601MOL0     C82821   6.111   4.113   5.783 -0.6805  0.5086  0.3266
  601MOL0     C82822   6.210   4.134   5.678 -0.4651  0.5206 -0.1522
  601MOL0     C82823   6.202   4.029   5.567 -0.1616  0.5493 -0.9093
  601MOL0     O82824   6.322   4.032   5.491 -0.3047  0.3573  0.1149
  601MOL0     C82825   6.438   3.956   5.523 -0.4867  0.8120 -0.1260
  601MOL0     C82826   6.461   3.871   5.634 -0.2650  0.3909  0.9233
  601MOL0     C82827   6.594   3.815   5.646  0.1605 -0.4511 -0.2741
  601MOL0     C82828   6.611   3.708   5.763  0.2681 -0.2748 -0.2692
  601MOL0     C82829   6.700   3.845   5.557 -0.0892 -0.3875  0.6511
  601MOL0     C82830   6.837   3.775   5.563  0.9111 -0.5815  0.4023
  601MOL0     O82831   6.903   3.778   5.685 -0.0374  0.2609  0.4345
  601MOL0     C82832   6.997   3.684   5.686  0.1767 -0.6251 -0.4003
  601MOL0     C82833   6.962   3.551   5.671 -0.5874 -0.8578 -0.4564
  601MOL0     C82834   7.066   3.457   5.681  0.8098 -0.0952  0.5451
  601MOL0     C82835   7.202   3.495   5.692  0.1117  0.5667  0.4564
  601MOL0     O82836   7.287   3.381   5.678  0.0110  0.4234  0.0238
  601MOL0     C82837   7.422   3.414   5.713 -0.3861 -0.2507 -0.2573
  601MOL0     C82838   7.484   3.273   5.708 -0.3737 -0.2137 -0.3011
  601MOL0     C82839   7.633   3.274   5.725 -0.3812 -0.0070  0.1438
  601MOL0     C82840   7.697   3.129   5.731  0.2735 -0.6601  0.4034
  601MOL0     C82841   7.675   3.047   5.855  0.8926  0.8222 -1.1233
  601MOL0     C82842   7.723   2.897   5.859  0.0908  0.0830  0.5515
  601MOL0     C82843   7.677   2.826   5.980  0.1000  1.0055  0.4524
  601MOL0     C82844   7.741   2.684   5.985 -0.4306 -0.0712 -1.0060
  601MOL0    Cl82845   7.633   2.550   5.955  0.2539  0.1780  0.0225
  601MOL0     C82846   7.238   3.630   5.701 -0.7278 -0.7914  0.4204
  601MOL0     C82847   7.133   3.725   5.695  0.0852 -0.1992 -1.3415
  601MOL0     O82848   6.880   3.732   5.454 -0.6991 -0.2075  1.2851
  601MOL0     C82849   6.672   3.937   5.455 -0.9572  0.8002  0.7989
  601MOL0     C82850   6.546   3.981   5.435  0.9360 -0.5122  0.0470
  601MOL0     N82851   6.266   3.880   5.930 -0.1673 -0.7441 -0.5131
  601MOL0     N82852   6.382   3.841   5.978  0.4222 -0.0551 -0.2341
  601MOL0     C82853   5.966   3.837   6.804 -0.0124  0.0336 -0.3215
  601MOL0     C82854   5.829   3.835   6.797 -0.2690  1.2265  0.3880
  601MOL0     C82855   5.434   3.566   6.744 -0.0860  0.0880  0.2179
  601MOL0     C82856   5.383   3.427   6.750  0.7816 -0.4644  0.7842
  601MOL0     C82857   5.248   3.403   6.761  0.7183  0.0221 -0.5238
  601MOL0     C82858   5.147   3.498   6.767 -0.6664 -0.1380  0.3606
  601MOL0     O82859   5.016   3.453   6.773 -0.1142 -0.0439  1.0436
  601MOL0     C82860   4.902   3.537   6.725 -0.3997  0.2806  0.1018
  601MOL0     C82861   4.806   3.463   6.631 -1.0896  0.6155 -0.3883
  601MOL0     C82862   4.757   3.321   6.679 -0.8533  0.4355  0.8233
  601MOL0     C82863   4.852   3.214   6.624 -0.0641  0.2010 -0.9952
  601MOL0     C82864   4.827   3.091   6.700 -0.6120 -0.7908  0.3114
  601MOL0     C82865   4.785   2.997   6.766  0.4040  0.3285 -0.3282
  601MOL0     C82866   5.196   3.628   6.751 -0.4773  0.0589 -0.2245
  601MOL0     C82867   5.334   3.667   6.742  0.2285 -0.5094 -0.1996
  601MOL0     C82868   5.357   3.811   6.707  0.0973 -1.0780 -0.5959
  601MOL0     H82869   5.798   3.595   6.551 -0.1678 -0.3138  1.1234
  601MOL0     H82870   6.056   3.625   6.560  2.0042 -0.5016  2.6047
  601MOL0     H82871   6.284   3.614   6.653 -0.0979 -1.4951  1.2797
  601MOL0     H82872   6.209   3.638   6.821 -1.0641  3.6404  0.7793
  601MOL0     H82873   6.378   3.790   6.881 -1.8356 -0.8285 -0.3638
  601MOL0     H82874   6.468   3.656   6.802 -2.1863 -2.6126  1.1630
  601MOL0     H82875   6.378   3.928   6.663 -1.6548 -1.1583 -0.7932
  601MOL0     H82876   6.549   3.867   6.719 -0.8702 -1.1548  4.0105
  601MOL0     H82877   6.511   3.697   6.545  4.8624  1.8213 -0.4254
  601MOL0     H82878   6.364   3.788   6.502 -0.5886 -0.4584  2.1357
  601MOL0     H82879   6.644   3.897   6.501  0.4790 -0.4836  0.5536
  601MOL0     H82880   6.506   3.996   6.471  2.3090  0.7718 -1.3764
  601MOL0     H82881   6.570   3.757   6.294 -0.8121  0.1015  0.7895
  601MOL0     H82882   6.434   3.858   6.267  0.9238  0.6472 -1.5811
  601MOL0     H82883   6.713   3.940   6.266 -0.6748 -3.5624  0.7147
  601MOL0     H82884   6.584   4.052   6.229  0.4904  0.1361  0.1859
  601MOL0     H82885   6.687   3.954   6.035 -1.0119 -0.0382 -0.4523
  601MOL0     H82886   6.619   3.794   6.073  0.5165 -0.4340 -2.9973
  601MOL0     H82887   6.444   4.147   6.036 -2.6575  1.0218 -0.3712
  601MOL0     H82888   6.214   4.223   5.932  2.0230  0.4931 -2.2746
  601MOL0     H82889   6.092   4.111   5.987 -1.2653 -1.3515 -2.7992
  601MOL0     H82890   6.054   4.020   5.772 -1.2358  0.8509  0.2556
  601MOL0     H82891   6.030   4.187   5.788  0.0121  1.3754 -0.7416
  601MOL0     H82892   6.199   4.236   5.640 -1.8771 -0.2975 -2.1099
  601MOL0     H82893   6.313   4.118   5.711 -0.2866  0.4894 -0.7070
  601MOL0     H82894   6.191   3.935   5.622 -1.4921  1.4715  0.4713
  601MOL0     H82895   6.109   4.039   5.511 -2.5930 -0.8338  2.5180
  601MOL0     H82896   6.387   3.855   5.711  1.2022 -0.2912  2.2408
  601MOL0     H82897   6.511   3.683   5.799  0.4665 -1.2311 -0.3513
  601MOL0     H82898   6.651   3.756   5.853 -2.0274  1.3379 -0.0162
  601MOL0     H82899   6.674   3.623   5.735  2.8405  1.2168  0.6072
  601MOL0     H82900   6.864   3.508   5.652 -1.6711  0.3081  2.0228
  601MOL0     H82901   7.044   3.352   5.663  0.9624  0.0325 -0.4408
  601MOL0     H82902   7.462   3.483   5.638 -0.8311 -0.4692 -0.6996
  601MOL0     H82903   7.438   3.467   5.807 -1.8857  0.8575 -0.5778
  601MOL0     H82904   7.445   3.219   5.794  3.8122  1.0058  2.6966
  601MOL0     H82905   7.458   3.242   5.607  1.1330  0.1537 -0.8288
  601MOL0     H82906   7.658   3.335   5.812 -0.2648 -0.5502  0.4923
  601MOL0     H82907   7.679   3.334   5.646  1.9229  0.7828  1.9641
  601MOL0     H82908   7.805   3.141   5.721  0.1978  1.3850  1.6952
  601MOL0     H82909   7.658   3.072   5.646 -1.6050 -1.7973  1.9419
  601MOL0     H82910   7.708   3.109   5.939 -0.9677 -0.6111  0.7657
  601MOL0     H82911   7.567   3.046   5.869  0.7023  3.1329 -1.9205
  601MOL0     H82912   7.832   2.891   5.864  0.0673 -1.6912 -0.2037
  601MOL0     H82913   7.696   2.842   5.768 -0.0349  0.8110  0.1387
  601MOL0     H82914   7.569   2.815   5.967 -0.2836  0.9319  3.1076
  601MOL0     H82915   7.682   2.884   6.073 -0.8120 -0.0306  1.1816
  601MOL0     H82916   7.784   2.673   6.086  0.7944  1.0764 -1.3626
  601MOL0     H82917   7.830   2.668   5.924  0.2529 -1.4604  0.2899
  601MOL0     H82918   7.336   3.675   5.719 -1.6598  0.7039  2.0840
  601MOL0     H82919   7.150   3.832   5.700 -1.8422  0.0913 -0.1801
  601MOL0     H82920   6.752   3.973   5.391 -1.8067 -2.1767 -2.2375
  601MOL0     H82921   6.529   4.050   5.353 -0.8135 -0.5214  0.3695
  601MOL0     H82922   6.016   3.909   6.868 -3.0230  1.0688  1.0560
  601MOL0     H82923   5.762   3.901   6.851 -1.3997 -1.0758  1.9613
  601MOL0     H82924   5.448   3.341   6.765  0.3805 -0.8906  0.1472
  601MOL0     H82925   5.217   3.299   6.756  3.5601 -0.8952 -1.3319
  601MOL0     H82926   4.845   3.564   6.814 -2.6255 -1.3001 -0.7573
  601MOL0     H82927   4.924   3.636   6.684 -2.0454  1.2665  1.4933
  601MOL0     H82928   4.846   3.459   6.530 -1.2120 -0.1645 -0.4151
  601MOL0     H82929   4.713   3.520   6.627 -2.8148 -2.1066 -1.6829
  601MOL0     H82930   4.756   3.322   6.789 -0.7032 -2.0722  0.9127
  601MOL0     H82931   4.655   3.294   6.649 -0.9889  2.4284 -0.7058
  601MOL0     H82932   4.957   3.239   6.643 -0.5607 -0.2913  3.4739
  601MOL0     H82933   4.837   3.209   6.516  3.0283 -0.0844 -1.4957
  601MOL0     H82934   4.744   2.911   6.815 -0.6320  1.2335  0.4396
  601MOL0     H82935   5.125   3.709   6.762 -1.4768 -0.6379 -1.3289
  601MOL0     H82936   5.440   3.850   6.767  1.1295 -1.3377 -1.8153
  601MOL0     H82937   5.375   3.822   6.599  3.1911 -1.8724 -0.2776
  601MOL0     H82938   5.266   3.867   6.730  0.3320  0.7660 -3.6467
  602MOL0     O82939   1.150   5.339   0.778 -0.2289 -0.5585  0.4235
  602MOL0     C82940   1.118   5.295   0.664 -1.0745  0.2022  0.2727
  602MOL0     O82941   1.185   5.319   0.554 -0.0700 -0.5898 -0.1637
  602MOL0     C82942   1.311   5.388   0.559 -0.0131 -0.4132 -0.2323
  602MOL0     C82943   1.338   5.486   0.460  0.6787  0.0604 -0.0292
  602MOL0     C82944   1.456   5.547   0.449  0.5350 -0.1184 -0.3062
  602MOL0     C82945   1.561   5.526   0.541 -0.8530 -0.1537  0.1279
  602MOL0     O82946   1.685   5.585   0.523 -0.1950 -0.2171  0.2961
  602MOL0     C82947   1.672   5.725   0.470 -0.4031  0.3345 -0.1334
  602MOL0     C82948   1.808   5.797   0.504 -0.3051  0.7711  0.2407
  602MOL0     C82949   1.818   5.950   0.467  0.5977 -0.4282  0.5879
  602MOL0     C82950   1.735   5.988   0.340 -0.0303  0.3799 -0.1506
  602MOL0     C82951   1.755   6.132   0.301 -0.1738  0.0665 -0.0569
  602MOL0     C82952   1.663   6.182   0.190  0.3772  0.1782  0.7106
  602MOL0     C82953   1.694   6.326   0.151  0.4190 -0.3234  0.4219
  602MOL0     C82954   1.636   6.349   0.017  0.5994 -0.2571 -0.0170
  602MOL0     N82955   1.667   6.479  -0.042  0.8299 -0.0522  0.0855
  602MOL0     C82956   1.792   6.526  -0.061 -0.0825  0.1412 -0.1655
  602MOL0     C82957   1.781   6.647  -0.119  0.1191 -0.6594 -0.6363
  602MOL0     C82958   1.897   6.743  -0.155  0.4037  0.4060  0.2732
  602MOL0     C82959   1.895   6.866  -0.063 -0.5561  0.3597  0.8432
  602MOL0     C82960   2.001   6.979  -0.095  0.5700  1.2778 -0.4991
  602MOL0     C82961   2.140   6.933  -0.066  0.1231 -0.0412  0.3787
  602MOL0     O82962   2.239   7.039  -0.092 -0.3253  0.2975  0.5414
  602MOL0     C82963   2.288   7.084   0.028  0.1924  0.2570 -0.0420
  602MOL0     C82964   2.361   7.005   0.121  0.0563  0.5142  0.5467
  602MOL0     C82965   2.411   7.073   0.236  0.2940  0.0172 -0.7139
  602MOL0     C82966   2.483   6.980   0.333  0.5579 -0.3763  0.5438
  602MOL0     C82967   2.381   7.207   0.273 -0.8463  0.9882 -0.2229
  602MOL0     C82968   2.444   7.286   0.376 -0.1285  0.9164  0.5852
  602MOL0     O82969   2.393   7.293   0.507 -0.2740 -0.1264 -0.1949
  602MOL0     C82970   2.477   7.346   0.599  0.5793  0.3469 -0.0647
  602MOL0     C82971   2.418   7.432   0.689  0.0696 -0.4222  0.2970
  602MOL0     C82972   2.496   7.498   0.785  0.1220 -0.0866 -0.0015
  602MOL0     C82973   2.628   7.466   0.807 -0.0318  0.7234 -0.0591
  602MOL0     O82974   2.698   7.517   0.906  0.8873  0.7005 -1.2708
  602MOL0     C82975   2.663   7.461   1.038 -0.3437 -0.9394  0.9676
  602MOL0     C82976   2.754   7.342   1.079 -0.1575 -0.0060 -0.6852
  602MOL0     C82977   2.908   7.389   1.097  0.1761  0.1928  0.8119
  602MOL0     C82978   3.006   7.277   1.135 -0.3968 -0.2921  0.5057
  602MOL0     C82979   3.129   7.305   1.229  0.0078 -0.1665 -1.1157
  602MOL0     C82980   3.200   7.435   1.196  0.1644 -0.6275 -0.6178
  602MOL0     C82981   3.325   7.446   1.288  0.7764 -0.4986  0.1131
  602MOL0     C82982   3.425   7.544   1.224  0.2968 -0.5786 -0.1388
  602MOL0    Cl82983   3.578   7.551   1.316  0.0345 -0.0824 -0.3043
  602MOL0     C82984   2.694   7.377   0.721 -0.0756  0.1912 -0.3049
  602MOL0     C82985   2.616   7.318   0.619  0.7009 -0.4376  0.2736
  602MOL0     O82986   2.532   7.365   0.330  0.0658  0.2239  0.1255
  602MOL0     C82987   2.310   7.279   0.179 -0.1257 -0.4565 -0.1772
  602MOL0     C82988   2.259   7.213   0.065  0.1638  0.0972  0.3377
  602MOL0     N82989   1.646   6.670  -0.141  1.0875  0.0122  0.1777
  602MOL0     N82990   1.575   6.571  -0.088 -0.5565 -0.2562 -0.3583
  602MOL0     C82991   1.541   5.427   0.636 -0.6495 -0.5054  0.9702
  602MOL0     C82992   1.419   5.356   0.647 -0.1689 -0.1349 -0.8609
  602MOL0     C82993   0.996   5.205   0.653 -0.3607 -0.3025 -0.1914
  602MOL0     C82994   0.910   5.197   0.770 -0.2096  0.5834 -0.4035
  602MOL0     C82995   0.814   5.100   0.775 -0.1562 -0.2763 -0.6991
  602MOL0     C82996   0.786   5.021   0.669  0.1349  0.0584 -0.0116
  602MOL0     O82997   0.677   4.941   0.657  0.0922  0.1756  0.2048
  602MOL0     C82998   0.553   5.016   0.654  0.2188 -0.0712  0.4519
  602MOL0     C82999   0.467   4.970   0.538  0.2645  0.1043 -0.1744
  602MOL0     C83000   0.328   5.034   0.523 -0.6512 -0.3454 -0.3234
  602MOL0     C83001   0.244   4.996   0.644 -0.1906  0.6407  0.3445
  602MOL0     C83002   0.264   5.097   0.739 -0.1161 -0.2430 -0.9333
  602MOL0     C83003   0.303   5.196   0.799  0.0366  0.6404 -0.6900
  602MOL0     C83004   0.855   5.032   0.555  0.5825  0.4142  0.2886
  602MOL0     C83005   0.962   5.120   0.544 -0.3510 -0.4851 -0.1197
  602MOL0     C83006   1.023   5.142   0.407  0.1563  0.9486 -0.1824
  602MOL0     H83007   1.250   5.499   0.397  1.0347  1.1792 -0.3055
  602MOL0     H83008   1.463   5.624   0.373 -1.3527 -2.0915 -2.7020
  602MOL0     H83009   1.586   5.772   0.520 -0.4982 -0.5004  0.5151
  602MOL0     H83010   1.659   5.722   0.361  2.0201 -0.6273 -0.4497
  602MOL0     H83011   1.840   5.794   0.609  3.1124  0.7114 -0.6830
  602MOL0     H83012   1.878   5.734   0.450  0.0686 -1.5589  3.1512
  602MOL0     H83013   1.789   6.008   0.555  3.3170 -2.2105  2.8179
  602MOL0     H83014   1.922   5.980   0.447 -0.5832  2.3865 -2.3298
  602MOL0     H83015   1.769   5.924   0.257 -2.3578  1.0159 -1.6789
  602MOL0     H83016   1.628   5.973   0.356 -0.1559 -0.9094 -1.8377
  602MOL0     H83017   1.854   6.126   0.255 -0.0954  0.5778  0.0415
  602MOL0     H83018   1.742   6.203   0.383  0.4747  0.8535 -0.6156
  602MOL0     H83019   1.688   6.108   0.114  1.9144 -2.7426  3.7782
  602MOL0     H83020   1.556   6.179   0.213  0.6836  0.2391  2.2354
  602MOL0     H83021   1.802   6.342   0.161  0.4250 -1.6146  3.5177
  602MOL0     H83022   1.644   6.392   0.222  2.0435 -1.1722  2.4532
  602MOL0     H83023   1.676   6.269  -0.045  1.5221 -0.2392  0.5205
  602MOL0     H83024   1.528   6.336   0.019  0.4025  0.4841 -2.4972
  602MOL0     H83025   1.888   6.478  -0.048 -0.3598 -1.2842 -2.7105
  602MOL0     H83026   1.893   6.768  -0.262  2.3716  0.7186  0.2330
  602MOL0     H83027   1.998   6.702  -0.141  0.9591  0.9015 -1.9061
  602MOL0     H83028   1.792   6.902  -0.074 -0.3274  0.2798 -2.3724
  602MOL0     H83029   1.922   6.830   0.037  0.6212 -0.6425  0.1753
  602MOL0     H83030   1.987   7.014  -0.197 -2.2570 -1.8798 -1.3799
  602MOL0     H83031   1.978   7.063  -0.029  0.0848 -0.1338  1.2291
  602MOL0     H83032   2.151   6.884   0.031 -0.4696 -3.3748 -1.1048
  602MOL0     H83033   2.174   6.863  -0.142 -2.2043 -2.2360  1.1843
  602MOL0     H83034   2.383   6.900   0.103  1.7403  0.2163  3.6071
  602MOL0     H83035   2.413   6.897   0.351  1.3200 -1.5763 -1.6396
  602MOL0     H83036   2.528   7.028   0.421  0.6141 -3.0017  2.0645
  602MOL0     H83037   2.562   6.927   0.279 -1.6146 -1.6286 -1.6152
  602MOL0     H83038   2.318   7.470   0.675  0.4431  0.3202 -0.4196
  602MOL0     H83039   2.445   7.573   0.845  0.2481  0.5899 -0.7263
  602MOL0     H83040   2.676   7.545   1.108  4.5374  1.0561 -1.7604
  602MOL0     H83041   2.556   7.441   1.040 -1.3757  3.1440 -1.0799
  602MOL0     H83042   2.721   7.293   1.171 -1.0096 -1.6458 -1.7999
  602MOL0     H83043   2.732   7.262   1.006  0.2046 -1.1476  0.4157
  602MOL0     H83044   2.909   7.456   1.183 -1.0522 -3.7668  4.2489
  602MOL0     H83045   2.939   7.446   1.009  1.5054 -2.9461 -0.9210
  602MOL0     H83046   3.033   7.236   1.037  0.5426 -0.8254  0.9753
  602MOL0     H83047   2.938   7.205   1.183 -1.5722  0.7944  0.5356
  602MOL0     H83048   3.099   7.298   1.334  0.8023  0.4430 -0.8375
  602MOL0     H83049   3.200   7.223   1.213  1.2704  0.0162  2.6060
  602MOL0     H83050   3.132   7.519   1.212 -0.8275 -1.1686 -1.8162
  602MOL0     H83051   3.222   7.441   1.089  0.7671 -0.7873 -0.5050
  602MOL0     H83052   3.371   7.347   1.299  0.4308 -1.1242 -3.0140
  602MOL0     H83053   3.282   7.475   1.384 -2.0663 -1.5124 -0.7269
  602MOL0     H83054   3.388   7.647   1.216  1.1689 -0.2324  0.0969
  602MOL0     H83055   3.449   7.508   1.124 -2.8013 -1.1483 -0.7747
  602MOL0     H83056   2.800   7.357   0.730 -0.3143 -0.8270  0.4621
  602MOL0     H83057   2.673   7.261   0.546  0.4913 -0.7937  0.3919
  602MOL0     H83058   2.284   7.384   0.190  0.3739 -0.2342 -1.0427
  602MOL0     H83059   2.205   7.275  -0.006  0.8839 -1.7940 -2.0105
  602MOL0     H83060   1.634   5.400   0.685  0.9489 -0.7878 -2.0399
  602MOL0     H83061   1.407   5.280   0.724  2.1615  0.6893  0.4289
  602MOL0     H83062   0.927   5.253   0.861 -0.7960  0.5654 -0.2812
  602MOL0     H83063   0.754   5.089   0.864 -1.0290  1.4728 -1.0282
  602MOL0     H83064   0.495   4.993   0.744 -1.4711  3.2591  0.3467
  602MOL0     H83065   0.573   5.123   0.662  3.2768 -0.6935  4.3289
  602MOL0     H83066   0.458   4.861   0.539 -0.8232  0.1301 -2.1961
  602MOL0     H83067   0.519   4.986   0.443 -0.6831 -2.0724 -1.1403
  602MOL0     H83068   0.333   5.143   0.519  1.2269 -0.2385  2.1058
  602MOL0     H83069   0.281   5.008   0.428 -2.4006 -5.2620  1.5715
  602MOL0     H83070   0.272   4.895   0.673  0.4788  0.1295 -1.8730
  602MOL0     H83071   0.141   4.982   0.608  0.0817 -0.0417 -0.1863
  602MOL0     H83072   0.337   5.284   0.848 -0.1622  1.2547 -1.6293
  602MOL0     H83073   0.828   4.958   0.481  0.4400  1.5439 -0.8234
  602MOL0     H83074   1.132   5.141   0.413  0.1975  1.2014 -0.8548
  602MOL0     H83075   1.001   5.059   0.340  1.7572  0.5682 -0.2891
  602MOL0     H83076   0.986   5.231   0.357 -1.5316  0.9267  0.9228
  603MOL0     O83077   4.585   6.764   5.090 -0.3558 -0.3927  0.9561
  603MOL0     C83078   4.485   6.813   5.044  0.0271 -0.0570  0.5091
  603MOL0     O83079   4.456   6.949   5.050  0.4025  0.0486 -0.9395
  603MOL0     C83080   4.539   7.015   5.137 -0.0307 -0.6010  0.1058
  603MOL0     C83081   4.533   7.031   5.273  0.0034 -0.1596  0.6922
  603MOL0     C83082   4.628   7.101   5.343 -0.4952 -0.2466 -0.6913
  603MOL0     C83083   4.728   7.162   5.277  0.4413 -1.0002  0.5260
  603MOL0     O83084   4.805   7.249   5.346 -0.3748  0.0930 -0.5638
  603MOL0     C83085   4.846   7.372   5.286 -0.0835 -0.1221  0.2994
  603MOL0     C83086   4.920   7.462   5.391  0.6060 -0.4215  0.5185
  603MOL0     C83087   5.064   7.438   5.402 -0.2966  0.5788  0.3034
  603MOL0     C83088   5.115   7.495   5.530  0.7490 -0.9721 -0.1606
  603MOL0     C83089   5.069   7.408   5.651 -0.6045 -0.0664 -0.2736
  603MOL0     C83090   5.131   7.452   5.783 -0.7395 -0.1311 -0.0539
  603MOL0     C83091   5.093   7.362   5.894 -0.3053 -0.3807  0.0892
  603MOL0     C83092   5.163   7.400   6.024  0.2041 -0.2810 -0.3217
  603MOL0     N83093   5.142   7.541   6.073  0.5383  0.8474  0.1731
  603MOL0     C83094   5.029   7.588   6.146  0.4092  0.5435  0.3003
  603MOL0     C83095   5.070   7.710   6.187  0.3299 -0.1871  0.2172
  603MOL0     C83096   4.991   7.804   6.271  0.8152  0.0920 -0.3838
  603MOL0     C83097   5.054   7.814   6.408 -0.4596  0.3347 -0.0438
  603MOL0     C83098   4.992   7.927   6.483 -0.0020  0.3294  0.5035
  603MOL0     C83099   5.048   7.959   6.620 -0.3559  0.7608  0.1223
  603MOL0     O83100   4.992   8.079   6.675  0.6429  0.5422  0.1735
  603MOL0     C83101   4.999   8.084   6.808  0.2972 -0.4226 -0.2717
  603MOL0     C83102   5.122   8.068   6.874 -0.0835 -0.0564  0.2689
  603MOL0     C83103   5.128   8.079   7.010 -0.7615  0.6337  0.6573
  603MOL0     C83104   5.261   8.049   7.057  0.0440 -0.2639  0.6943
  603MOL0     C83105   5.020   8.110   7.088 -0.0924  0.6338 -0.5983
  603MOL0     C83106   5.032   8.145   7.228  0.2533  0.2544  0.1734
  603MOL0     O83107   4.912   8.192   7.278  0.2040 -0.3821  0.5310
  603MOL0     C83108   4.895   8.254   7.397 -0.7757 -0.6989  0.7963
  603MOL0     C83109   4.896   8.392   7.421  0.3343  0.1951  0.4026
  603MOL0     C83110   4.861   8.442   7.546 -0.2029 -0.0180  0.3764
  603MOL0     C83111   4.804   8.356   7.643  0.1337  1.2771  0.3619
  603MOL0     O83112   4.755   8.404   7.760  0.4358  0.1886  0.2104
  603MOL0     C83113   4.842   8.503   7.822  0.2236 -0.7388 -0.2832
  603MOL0     C83114   4.771   8.634   7.834  0.2665 -1.0754 -0.3098
  603MOL0     C83115   4.822   8.728   7.949 -0.7458  0.5798 -0.0809
  603MOL0     C83116   4.735   8.848   7.962 -0.7521 -0.4855 -0.0728
  603MOL0     C83117   4.753   8.921   8.103 -0.1653 -1.2541 -0.2075
  603MOL0     C83118   4.645   9.036   8.113  0.0277 -0.1267 -0.4424
  603MOL0     C83119   4.685   9.121   8.228  0.0159  0.0251 -0.4657
  603MOL0     C83120   4.591   9.233   8.264 -0.1376 -0.3111  0.1174
  603MOL0    Cl83121   4.617   9.299   8.422 -0.0157  0.0787  0.3143
  603MOL0     C83122   4.812   8.217   7.625 -1.4121 -0.3158 -1.1675
  603MOL0     C83123   4.864   8.168   7.504 -0.3707 -0.0275 -0.1212
  603MOL0     O83124   5.130   8.121   7.295 -0.4233 -0.3398  0.7621
  603MOL0     C83125   4.891   8.121   7.020  0.4369 -0.5631 -0.7140
  603MOL0     C83126   4.885   8.108   6.880  0.1340  0.2112 -0.4193
  603MOL0     N83127   5.188   7.743   6.127 -0.8068 -0.0122 -0.8995
  603MOL0     N83128   5.239   7.639   6.066  0.8696 -0.0454 -0.8095
  603MOL0     C83129   4.747   7.152   5.137  0.5440  0.8370  0.4678
  603MOL0     C83130   4.646   7.081   5.070 -0.4207  0.1380 -0.1953
  603MOL0     C83131   4.379   6.737   4.970  0.4788 -0.5082 -0.3379
  603MOL0     C83132   4.316   6.806   4.867 -0.0003 -0.3898 -0.3493
  603MOL0     C83133   4.212   6.745   4.790 -1.0464  0.0273  0.2700
  603MOL0     C83134   4.177   6.611   4.820  0.2561  0.3291 -0.2965
  603MOL0     O83135   4.085   6.560   4.731 -0.4769  0.1919 -0.3141
  603MOL0     C83136   4.038   6.425   4.755  1.4188 -0.0839  0.4150
  603MOL0     C83137   3.927   6.418   4.870 -0.4266  1.3797  0.4896
  603MOL0     C83138   3.813   6.516   4.839 -0.0165 -0.2129 -0.0605
  603MOL0     C83139   3.700   6.505   4.944 -0.5856 -0.4575  0.2516
  603MOL0     C83140   3.593   6.585   4.895 -0.4912  0.1381 -0.3170
  603MOL0     C83141   3.496   6.643   4.866  0.6444 -0.4121 -0.7184
  603MOL0     C83142   4.247   6.545   4.918  0.5395 -0.0526 -0.5258
  603MOL0     C83143   4.342   6.604   5.006  0.5336 -0.8718 -0.1382
  603MOL0     C83144   4.386   6.539   5.139  0.1934  0.5643  0.6133
  603MOL0     H83145   4.457   6.971   5.322 -1.4920  0.7889 -0.3811
  603MOL0     H83146   4.620   7.108   5.451 -0.7329 -0.0076 -0.7237
  603MOL0     H83147   4.764   7.424   5.235 -0.8695 -0.8787  0.7770
  603MOL0     H83148   4.929   7.364   5.215 -0.7910 -0.4655 -0.4972
  603MOL0     H83149   4.899   7.566   5.364 -2.3045 -1.4064 -1.5727
  603MOL0     H83150   4.869   7.438   5.485  0.8991 -2.0816  0.2978
  603MOL0     H83151   5.076   7.329   5.406 -0.3138  0.5460 -0.4085
  603MOL0     H83152   5.105   7.482   5.311  0.1124 -0.7177 -0.1681
  603MOL0     H83153   5.223   7.503   5.520  0.6319  0.8700 -0.4037
  603MOL0     H83154   5.078   7.597   5.543 -0.2993 -1.3005 -0.4561
  603MOL0     H83155   5.098   7.305   5.632 -1.4247 -0.0214 -1.9052
  603MOL0     H83156   4.963   7.397   5.675 -0.9323 -0.1914 -1.6857
  603MOL0     H83157   5.239   7.445   5.771 -0.5464  0.6719  1.1141
  603MOL0     H83158   5.107   7.556   5.807 -0.6722 -0.3395  0.9789
  603MOL0     H83159   5.109   7.256   5.872  0.5317  0.0468 -1.5058
  603MOL0     H83160   4.986   7.375   5.913  0.1498  0.6674  2.1893
  603MOL0     H83161   5.145   7.328   6.105  0.7909  0.6419  0.6505
  603MOL0     H83162   5.269   7.388   6.002  0.8051  4.4183 -1.1275
  603MOL0     H83163   4.940   7.532   6.172  0.3901  0.2323 -0.4027
  603MOL0     H83164   4.886   7.774   6.267  0.7976  0.2691 -1.7615
  603MOL0     H83165   4.999   7.901   6.220  3.1434  0.7061  0.9910
  603MOL0     H83166   5.042   7.724   6.468  1.0502  1.2263  1.7285
  603MOL0     H83167   5.163   7.823   6.407 -0.4680  0.8217 -2.3401
  603MOL0     H83168   5.010   8.017   6.424  0.6849 -0.6441 -0.8311
  603MOL0     H83169   4.882   7.924   6.483 -0.0070  0.4818  0.2964
  603MOL0     H83170   5.014   7.878   6.686 -0.9130 -0.2043 -1.3169
  603MOL0     H83171   5.157   7.970   6.625  0.0003 -0.5786 -2.7211
  603MOL0     H83172   5.215   8.060   6.819  0.7132 -0.2520  1.6035
  603MOL0     H83173   5.314   7.991   6.981 -0.6006  0.1968 -0.1277
  603MOL0     H83174   5.254   7.971   7.133 -2.4219 -1.9876 -1.1326
  603MOL0     H83175   5.304   8.148   7.073  1.1794 -0.5884 -0.2242
  603MOL0     H83176   4.909   8.470   7.346  0.7743 -0.0881  0.1817
  603MOL0     H83177   4.852   8.549   7.559 -0.4738 -0.4381  5.6194
  603MOL0     H83178   4.862   8.462   7.921  3.6144 -1.9312 -1.3368
  603MOL0     H83179   4.942   8.520   7.781  1.3529 -0.0235  2.5670
  603MOL0     H83180   4.785   8.685   7.738 -0.7698 -0.4219 -0.1262
  603MOL0     H83181   4.665   8.620   7.858  0.1241 -2.4917 -1.5984
  603MOL0     H83182   4.924   8.751   7.917 -1.2855 -1.1128 -3.5733
  603MOL0     H83183   4.826   8.674   8.044  1.1070  0.1415 -0.3561
  603MOL0     H83184   4.629   8.822   7.961 -1.5350  1.9906  2.8923
  603MOL0     H83185   4.763   8.913   7.879  0.0509 -0.6942  0.0248
  603MOL0     H83186   4.739   8.852   8.186 -0.9983 -0.2714  0.4870
  603MOL0     H83187   4.856   8.955   8.116 -0.3154 -0.8748 -0.0116
  603MOL0     H83188   4.550   8.992   8.144 -0.4991  1.3127  0.0614
  603MOL0     H83189   4.630   9.101   8.026  1.2663  1.0036  0.1370
  603MOL0     H83190   4.774   9.183   8.208 -0.8862  2.6691  2.8280
  603MOL0     H83191   4.700   9.057   8.315 -1.4815  1.4263  0.9039
  603MOL0     H83192   4.487   9.200   8.263  0.4350 -2.1920 -0.5325
  603MOL0     H83193   4.605   9.315   8.192  4.6003 -0.3672  0.6382
  603MOL0     H83194   4.782   8.160   7.712  0.7522  0.3586  0.1107
  603MOL0     H83195   4.882   8.062   7.493 -1.6990 -0.2761 -0.0093
  603MOL0     H83196   4.798   8.151   7.068  2.0651  0.2698  2.1539
  603MOL0     H83197   4.795   8.115   6.820  2.1632 -1.6195 -4.0614
  603MOL0     H83198   4.837   7.185   5.088 -0.4275  1.3661 -1.0304
  603MOL0     H83199   4.651   7.066   4.962  0.6146 -0.4476 -0.0719
  603MOL0     H83200   4.346   6.907   4.841 -0.2137 -0.4697 -0.9195
  603MOL0     H83201   4.164   6.797   4.708  1.2284  2.1755  0.1621
  603MOL0     H83202   4.000   6.392   4.658  2.0035  2.3109 -0.7223
  603MOL0     H83203   4.117   6.352   4.775  2.8820  1.5526  0.8467
  603MOL0     H83204   3.973   6.439   4.967  2.2224 -0.1778 -0.3131
  603MOL0     H83205   3.894   6.313   4.872  1.0034  0.8455 -1.2670
  603MOL0     H83206   3.866   6.610   4.859  1.5467 -1.1280  0.3184
  603MOL0     H83207   3.787   6.506   4.733 -1.4837  0.5595  0.2052
  603MOL0     H83208   3.746   6.539   5.037  0.8530 -2.2742  0.2658
  603MOL0     H83209   3.667   6.401   4.960 -2.5950  0.3084  1.5440
  603MOL0     H83210   3.404   6.697   4.853  0.3589 -0.4531  1.0172
  603MOL0     H83211   4.222   6.443   4.944  2.6921 -0.8761 -1.4441
  603MOL0     H83212   4.319   6.582   5.214  0.6400  1.2425  0.6350
  603MOL0     H83213   4.379   6.430   5.140  2.5838  0.3574  1.1166
  603MOL0     H83214   4.489   6.558   5.173  1.1428 -1.8269 -0.6930
  604MOL0     O83215   2.858   1.155   7.169  0.3341  0.5556 -0.0351
  604MOL0     C83216   2.784   1.228   7.107 -0.4755 -1.0177  0.3744
  604MOL0     O83217   2.772   1.247   6.972 -0.1273  0.3427 -0.0822
  604MOL0     C83218   2.839   1.148   6.896  0.7707  0.0412  0.1999
  604MOL0     C83219   2.762   1.044   6.839 -0.0877 -0.1718  0.0791
  604MOL0     C83220   2.813   0.946   6.756  0.1543  0.0011  0.3273
  604MOL0     C83221   2.952   0.947   6.724 -0.0959 -0.5877  0.0969
  604MOL0     O83222   2.997   0.854   6.644  0.5781  0.5374  0.1750
  604MOL0     C83223   3.114   0.780   6.698  0.4420 -0.6704  0.5517
  604MOL0     C83224   3.163   0.679   6.596 -0.0388  0.1434  0.5269
  604MOL0     C83225   3.289   0.615   6.669  0.2944  0.1252  0.2100
  604MOL0     C83226   3.410   0.705   6.681  0.0470 -0.8014  0.2835
  604MOL0     C83227   3.524   0.625   6.747 -0.2353 -0.0489  0.0004
  604MOL0     C83228   3.637   0.710   6.797  0.5417  0.0953 -0.5124
  604MOL0     C83229   3.761   0.628   6.829  0.0768  0.1678  0.3884
  604MOL0     C83230   3.880   0.723   6.846  0.4711  0.2453 -0.2053
  604MOL0     N83231   3.924   0.782   6.724 -0.1690  0.0091 -0.6315
  604MOL0     C83232   3.875   0.901   6.667 -1.0673  0.4045  0.2639
  604MOL0     C83233   3.933   0.905   6.543 -0.0096 -0.5847  0.0487
  604MOL0     C83234   3.906   1.008   6.440 -0.0725 -0.1481  0.1596
  604MOL0     C83235   4.018   1.102   6.445 -0.6713  0.1940  0.2072
  604MOL0     C83236   4.029   1.211   6.555 -0.2236 -0.5886 -0.8388
  604MOL0     C83237   4.170   1.286   6.545 -0.5293 -0.4375  0.5657
  604MOL0     O83238   4.281   1.195   6.537  0.4457  0.0068 -0.2627
  604MOL0     C83239   4.406   1.245   6.548  0.3990 -0.2980  1.0331
  604MOL0     C83240   4.458   1.342   6.636  0.3959  0.4431  0.4611
  604MOL0     C83241   4.594   1.379   6.635 -0.5797  0.3249 -0.4452
  604MOL0     C83242   4.627   1.492   6.732 -0.1379  0.0335  0.3226
  604MOL0     C83243   4.691   1.314   6.548  0.5415  0.3564 -0.0043
  604MOL0     C83244   4.843   1.338   6.545 -0.4122  1.0131 -0.0790
  604MOL0     O83245   4.908   1.272   6.442  0.0759  0.0088 -0.1703
  604MOL0     C83246   5.044   1.258   6.442  0.6302 -0.3217 -0.1764
  604MOL0     C83247   5.113   1.229   6.559 -0.1158  0.9460  0.6867
  604MOL0     C83248   5.256   1.231   6.557  0.4164 -0.4469  0.2575
  604MOL0     C83249   5.314   1.290   6.441  0.2931 -0.4763 -0.5676
  604MOL0     O83250   5.448   1.329   6.435 -0.3774  0.7597 -0.2457
  604MOL0     C83251   5.549   1.262   6.522  0.0243  0.6203  0.5430
  604MOL0     C83252   5.685   1.275   6.454 -0.1491 -0.2670  0.5984
  604MOL0     C83253   5.805   1.218   6.532 -0.1517  0.2488 -0.7649
  604MOL0     C83254   5.923   1.215   6.443 -0.4221 -0.3401 -0.4255
  604MOL0     C83255   6.051   1.170   6.515 -0.2947  0.9626 -0.3734
  604MOL0     C83256   6.181   1.213   6.451 -0.4712  0.1154 -0.3702
  604MOL0     C83257   6.200   1.175   6.304  0.0115 -0.7400 -0.9560
  604MOL0     C83258   6.258   1.038   6.285  0.2643 -0.5044 -0.2742
  604MOL0    Cl83259   6.421   1.027   6.343 -0.0055  0.1785  0.0240
  604MOL0     C83260   5.239   1.316   6.327  0.0394 -0.2978  0.5471
  604MOL0     C83261   5.108   1.298   6.323 -0.1443 -0.4650 -0.8471
  604MOL0     O83262   4.892   1.413   6.622 -0.1393 -0.2387 -0.2581
  604MOL0     C83263   4.633   1.221   6.460  0.0761 -1.2893  0.3563
  604MOL0     C83264   4.499   1.192   6.452  0.2870 -0.2728 -0.5656
  604MOL0     N83265   4.010   0.797   6.523 -0.4329  0.2723  0.7962
  604MOL0     N83266   4.006   0.723   6.632 -0.5978  0.7799 -0.2295
  604MOL0     C83267   3.030   1.056   6.773  0.8641 -0.0648 -0.6541
  604MOL0     C83268   2.971   1.159   6.853 -0.0330 -0.8149 -0.3258
  604MOL0     C83269   2.715   1.335   7.188 -0.1092 -0.6390  0.3791
  604MOL0     C83270   2.703   1.467   7.133  0.1473  0.9032 -0.0073
  604MOL0     C83271   2.641   1.568   7.202 -0.2000 -0.9592 -0.0891
  604MOL0     C83272   2.587   1.536   7.327 -0.0835 -0.3077  0.3455
  604MOL0     O83273   2.519   1.641   7.387  0.1894  0.8040  0.5634
  604MOL0     C83274   2.438   1.610   7.505 -0.9112 -0.4263 -0.3586
  604MOL0     C83275   2.330   1.719   7.504 -0.2421  0.0062 -0.6332
  604MOL0     C83276   2.215   1.683   7.407 -0.5885  0.3819  0.0876
  604MOL0     C83277   2.096   1.789   7.417  0.2021  0.2864  0.0036
  604MOL0     C83278   2.005   1.742   7.521 -0.8593  0.5272 -0.3555
  604MOL0     C83279   1.913   1.723   7.592 -0.5058 -0.2627 -0.5180
  604MOL0     C83280   2.597   1.408   7.382 -0.0951 -0.2088  0.7391
  604MOL0     C83281   2.661   1.308   7.318 -0.3470  0.5428 -0.3361
  604MOL0     C83282   2.660   1.170   7.381  0.7485  0.1009  1.4289
  604MOL0     H83283   2.658   1.038   6.867  0.3005 -0.0316  1.6487
  604MOL0     H83284   2.747   0.866   6.722 -0.8982  0.8975  0.1914
  604MOL0     H83285   3.086   0.730   6.791  0.5852  2.3555  2.3500
  604MOL0     H83286   3.196   0.849   6.715  0.3857 -0.6724  0.8267
  604MOL0     H83287   3.094   0.598   6.570 -0.3868  0.2763  1.0285
  604MOL0     H83288   3.190   0.732   6.504  1.7039  0.6737  1.3044
  604MOL0     H83289   3.246   0.585   6.765 -1.4890 -0.2419 -0.6825
  604MOL0     H83290   3.327   0.523   6.625  0.4456 -0.1814  0.9680
  604MOL0     H83291   3.438   0.748   6.584 -0.9676 -0.9982 -0.1071
  604MOL0     H83292   3.389   0.790   6.745  1.5732 -0.8425  0.8891
  604MOL0     H83293   3.558   0.564   6.663  1.8205  4.0716 -2.4482
  604MOL0     H83294   3.488   0.567   6.832 -0.5297 -0.5558 -0.4587
  604MOL0     H83295   3.662   0.785   6.721  2.1691  0.4143  0.2861
  604MOL0     H83296   3.608   0.755   6.892 -1.6104 -2.5786  0.2282
  604MOL0     H83297   3.793   0.568   6.744  0.5379 -1.1235  1.4399
  604MOL0     H83298   3.747   0.567   6.919  3.3567 -0.4017  0.6347
  604MOL0     H83299   3.854   0.798   6.922 -1.9722 -0.1195 -0.6097
  604MOL0     H83300   3.960   0.660   6.886  1.4015  0.8178 -1.1215
  604MOL0     H83301   3.795   0.964   6.705 -1.2846  0.5863 -0.4820
  604MOL0     H83302   3.816   1.066   6.463  1.1218  1.2366  1.6853
  604MOL0     H83303   3.892   0.960   6.343 -1.0848  0.1412  0.1579
  604MOL0     H83304   4.111   1.045   6.442 -1.1197 -0.5512 -3.0537
  604MOL0     H83305   4.021   1.153   6.348 -0.7351 -0.8308 -0.3406
  604MOL0     H83306   3.948   1.285   6.550  0.3131  0.0353 -0.4074
  604MOL0     H83307   4.020   1.150   6.646 -1.8957 -1.3223 -1.4460
  604MOL0     H83308   4.163   1.352   6.459 -3.4072  0.6735  1.5388
  604MOL0     H83309   4.173   1.339   6.641  0.4006  1.0613 -0.2666
  604MOL0     H83310   4.393   1.403   6.699 -0.6626 -1.1523  0.9588
  604MOL0     H83311   4.551   1.513   6.807  0.3846 -1.2796  1.2638
  604MOL0     H83312   4.649   1.578   6.666 -0.4081  1.9635  2.6164
  604MOL0     H83313   4.718   1.459   6.783  1.4238 -0.3713 -2.5126
  604MOL0     H83314   5.056   1.198   6.646  1.2334 -3.4933  0.2463
  604MOL0     H83315   5.304   1.205   6.651 -0.2073 -2.1006  0.1435
  604MOL0     H83316   5.540   1.312   6.619 -1.4954 -2.1218  1.9228
  604MOL0     H83317   5.520   1.158   6.534  1.9208  0.2569  2.7894
  604MOL0     H83318   5.681   1.234   6.352 -0.0255  0.5297  0.2569
  604MOL0     H83319   5.697   1.382   6.433 -0.1642 -0.4129 -0.1842
  604MOL0     H83320   5.791   1.113   6.561  0.1155  0.7698  1.3957
  604MOL0     H83321   5.820   1.273   6.625 -1.0812 -0.8885  0.0887
  604MOL0     H83322   5.936   1.319   6.410 -0.2738  1.9964  5.6555
  604MOL0     H83323   5.908   1.151   6.356  1.6241  1.7897 -2.4907
  604MOL0     H83324   6.050   1.213   6.615 -1.9234  2.6789 -1.0711
  604MOL0     H83325   6.058   1.062   6.527  2.9460  1.3266  2.8218
  604MOL0     H83326   6.272   1.182   6.503 -0.1245 -0.8938 -1.5277
  604MOL0     H83327   6.183   1.322   6.462 -1.0192  0.1156 -0.2559
  604MOL0     H83328   6.259   1.255   6.258 -0.8466 -0.0868 -0.9599
  604MOL0     H83329   6.107   1.186   6.248  1.6984 -0.4814 -3.9358
  604MOL0     H83330   6.266   1.015   6.178  0.7930  2.2790 -0.9046
  604MOL0     H83331   6.197   0.955   6.323 -0.7339  0.4721  0.3288
  604MOL0     H83332   5.285   1.364   6.241 -1.3139 -2.3756 -1.4364
  604MOL0     H83333   5.054   1.300   6.229  0.1163  2.6806 -1.0542
  604MOL0     H83334   4.690   1.183   6.376 -0.3379 -0.3934 -0.3581
  604MOL0     H83335   4.472   1.129   6.368 -1.0361 -1.0078  0.3695
  604MOL0     H83336   3.137   1.064   6.756  1.5235 -2.3816  1.6984
  604MOL0     H83337   3.024   1.248   6.886  1.0228 -1.0595 -1.2768
  604MOL0     H83338   2.744   1.497   7.037 -1.8617 -0.1891 -1.2908
  604MOL0     H83339   2.642   1.670   7.167  0.3138 -0.6876  0.6925
  604MOL0     H83340   2.395   1.510   7.496  0.6432 -1.2955  1.2449
  604MOL0     H83341   2.499   1.612   7.595 -1.0346 -1.6892 -0.2387
  604MOL0     H83342   2.376   1.816   7.484 -0.9095  0.4205 -0.1986
  604MOL0     H83343   2.282   1.721   7.603 -3.2833  3.8294 -1.9387
  604MOL0     H83344   2.264   1.696   7.310  1.4699 -1.2391  0.8322
  604MOL0     H83345   2.189   1.577   7.413 -0.5824  0.2163 -2.0927
  604MOL0     H83346   2.051   1.793   7.317  0.8674  2.6479 -0.2801
  604MOL0     H83347   2.126   1.893   7.437 -1.4899  1.5173 -3.1251
  604MOL0     H83348   1.859   1.698   7.681  2.3245 -1.5088  1.0039
  604MOL0     H83349   2.555   1.392   7.481  0.0485 -2.6486  0.4630
  604MOL0     H83350   2.639   1.090   7.309  1.6505 -0.4614  1.7683
  604MOL0     H83351   2.762   1.150   7.417  0.1394 -1.4087  2.4274
  604MOL0     H83352   2.578   1.176   7.453 -0.6076  3.5297 -0.2039
  605MOL0     O83353   7.697   0.330   7.728 -0.1636 -0.0362 -0.4568
  605MOL0     C83354   7.632   0.418   7.675 -0.8052 -0.2377  1.0675
  605MOL0     O83355   7.678   0.528   7.613  0.9719 -0.4363  0.3331
  605MOL0     C83356   7.814   0.555   7.611  0.1691  0.2806 -0.7771
  605MOL0     C83357   7.881   0.575   7.728 -0.1933 -0.5054 -0.4710
  605MOL0     C83358   8.017   0.607   7.727 -0.1911  0.1625  0.4256
  605MOL0     C83359   8.088   0.606   7.606  0.0051 -1.6174 -0.1212
  605MOL0     O83360   8.227   0.616   7.627 -0.1110 -0.0216 -0.4442
  605MOL0     C83361   8.317   0.641   7.523 -0.1018 -0.3847  0.1715
  605MOL0     C83362   8.471   0.656   7.574  1.1187 -0.7149 -0.5811
  605MOL0     C83363   8.583   0.637   7.477 -0.2919 -0.0926  0.3447
  605MOL0     C83364   8.723   0.652   7.542  0.5980 -0.3550  0.8356
  605MOL0     C83365   8.757   0.558   7.660  0.4227  0.4248 -0.3898
  605MOL0     C83366   8.906   0.551   7.664 -0.2455  0.4206 -0.1857
  605MOL0     C83367   8.950   0.459   7.780 -0.3988  0.1685  0.4899
  605MOL0     C83368   9.099   0.431   7.774  0.2445 -0.4972 -0.1173
  605MOL0     N83369   9.199   0.527   7.821 -0.8430 -0.4770  0.5937
  605MOL0     C83370   9.334   0.530   7.788  0.0917 -0.3570 -0.1698
  605MOL0     C83371   9.378   0.655   7.828  0.3165  0.6211 -0.2149
  605MOL0     C83372   9.516   0.710   7.815  0.0603 -0.1378  0.5991
  605MOL0     C83373   9.573   0.730   7.951  0.2901 -0.2746 -0.1385
  605MOL0     C83374   9.599   0.614   8.041 -0.2507  0.6762  0.8345
  605MOL0     C83375   9.720   0.531   7.984 -0.0741  0.9983 -0.5409
  605MOL0     O83376   9.834   0.616   7.952  0.0057  0.1249 -0.2988
  605MOL0     C83377   9.948   0.635   8.027  0.1636 -0.6675 -0.6068
  605MOL0     C83378  10.077   0.628   7.973 -0.0985 -0.6467 -0.1099
  605MOL0     C83379  10.199   0.631   8.052 -0.4287  0.2215  1.4158
  605MOL0     C83380  10.331   0.618   7.977 -1.0912  0.6546  0.2082
  605MOL0     C83381  10.187   0.648   8.189  0.2084  0.4181 -0.1462
  605MOL0     C83382  10.306   0.676   8.282  0.2491  1.2339  0.4729
  605MOL0     O83383  10.415   0.709   8.232  0.4086  0.4195 -0.6088
  605MOL0     C83384  10.537   0.719   8.290 -0.1355  0.1680  0.2641
  605MOL0     C83385  10.583   0.683   8.418  0.4070  0.4923  0.1644
  605MOL0     C83386  10.717   0.663   8.452 -0.1602 -0.2844 -1.0233
  605MOL0     C83387  10.808   0.704   8.349 -0.4280  0.2516 -1.2192
  605MOL0     O83388  10.942   0.704   8.353  0.5286 -0.6080  0.1247
  605MOL0     C83389  10.995   0.647   8.468  0.2047 -0.8048  0.6536
  605MOL0     C83390  11.152   0.642   8.452 -0.9778 -0.3784 -0.3960
  605MOL0     C83391  11.229   0.775   8.407  0.1111 -0.3664 -0.2650
  605MOL0     C83392  11.373   0.746   8.410  0.4947  0.2595  0.2875
  605MOL0     C83393  11.449   0.873   8.352  0.2713  0.2568 -0.1734
  605MOL0     C83394  11.447   0.999   8.442  0.2134  0.3638 -1.2278
  605MOL0     C83395  11.539   0.990   8.564 -0.2034 -0.9656  0.1248
  605MOL0     C83396  11.542   1.116   8.644  0.4574 -0.4898 -0.6287
  605MOL0    Cl83397  11.631   1.230   8.542  0.5590 -0.0216 -0.2194
  605MOL0     C83398  10.769   0.744   8.222 -0.1759 -0.2938 -1.0847
  605MOL0     C83399  10.629   0.748   8.188 -0.0444  0.3525 -0.9620
  605MOL0     O83400  10.286   0.653   8.402 -0.3088  0.8136 -0.3259
  605MOL0     C83401  10.051   0.651   8.245  0.3378 -0.0317 -0.2370
  605MOL0     C83402   9.933   0.645   8.170 -0.4622  0.5719  0.7098
  605MOL0     N83403   9.276   0.718   7.898  0.6490 -0.3678  0.2199
  605MOL0     N83404   9.174   0.645   7.882 -0.3849  0.0228 -0.1956
  605MOL0     C83405   8.019   0.583   7.484  1.4219 -0.1012 -0.3944
  605MOL0     C83406   7.876   0.560   7.489 -0.4361 -0.3367  0.4182
  605MOL0     C83407   7.489   0.395   7.696 -0.0394 -0.4399  0.3946
  605MOL0     C83408   7.443   0.339   7.817  1.0871  0.4295 -0.0858
  605MOL0     C83409   7.310   0.290   7.828 -0.1920 -0.7487 -0.3558
  605MOL0     C83410   7.226   0.309   7.722 -0.5356 -0.4288  0.3667
  605MOL0     O83411   7.104   0.246   7.721 -0.3087 -0.3994  0.7885
  605MOL0     C83412   7.013   0.297   7.813 -0.6557 -0.0726 -0.1898
  605MOL0     C83413   6.889   0.370   7.753 -0.2410  0.2717 -0.7447
  605MOL0     C83414   6.940   0.490   7.667 -0.4433  0.0151 -0.1576
  605MOL0     C83415   6.818   0.564   7.618  0.1943  0.3417  0.1939
  605MOL0     C83416   6.863   0.687   7.552 -0.0681  0.0851  0.1171
  605MOL0     C83417   6.889   0.787   7.491 -0.5757 -0.8369 -0.0496
  605MOL0     C83418   7.269   0.367   7.601 -0.1412 -0.0609  0.1023
  605MOL0     C83419   7.397   0.414   7.589  0.0533 -0.5182 -0.3134
  605MOL0     C83420   7.428   0.467   7.455 -0.1367  0.1112 -0.0377
  605MOL0     H83421   7.840   0.559   7.828  2.2334 -0.1234  0.6579
  605MOL0     H83422   8.071   0.615   7.821 -0.1071  0.7393  0.3328
  605MOL0     H83423   8.289   0.732   7.470  3.2548  1.2697  0.9631
  605MOL0     H83424   8.321   0.562   7.448  4.7210  3.2324 -4.0650
  605MOL0     H83425   8.488   0.751   7.625 -4.4570  0.0801  0.4151
  605MOL0     H83426   8.473   0.570   7.642 -0.3706 -2.2741 -2.3654
  605MOL0     H83427   8.566   0.536   7.438 -1.8140 -0.5643  2.0745
  605MOL0     H83428   8.570   0.706   7.393 -0.0887 -1.2302 -0.6567
  605MOL0     H83429   8.805   0.658   7.469 -0.7838  0.6559 -0.6966
  605MOL0     H83430   8.715   0.750   7.589 -1.4211  1.3957 -2.6828
  605MOL0     H83431   8.718   0.458   7.638 -1.8286  1.1991 -0.1848
  605MOL0     H83432   8.727   0.595   7.758  1.4098  0.2049  0.0100
  605MOL0     H83433   8.948   0.523   7.567 -2.7390 -1.1781 -0.9037
  605MOL0     H83434   8.941   0.653   7.683  0.7766  0.9194 -3.8221
  605MOL0     H83435   8.892   0.367   7.784 -0.1684  0.0140  0.2550
  605MOL0     H83436   8.940   0.501   7.881  0.6505 -1.0061  1.1086
  605MOL0     H83437   9.109   0.353   7.850 -0.5958  0.0954  0.6148
  605MOL0     H83438   9.122   0.376   7.681 -0.9947 -0.8540 -0.2278
  605MOL0     H83439   9.397   0.453   7.744  1.0339 -0.2399  0.9081
  605MOL0     H83440   9.510   0.805   7.762 -0.0678 -0.4788  0.0025
  605MOL0     H83441   9.582   0.648   7.754 -0.6098  0.0913 -0.3729
  605MOL0     H83442   9.664   0.789   7.937 -0.1064  0.2197 -0.7242
  605MOL0     H83443   9.497   0.787   8.006 -1.8914 -0.0942 -3.0944
  605MOL0     H83444   9.628   0.668   8.131 -3.9529  3.8901  0.4013
  605MOL0     H83445   9.507   0.558   8.058 -0.6712  0.1527 -2.4084
  605MOL0     H83446   9.757   0.453   8.051 -0.2058  0.7903 -0.7070
  605MOL0     H83447   9.700   0.486   7.886  0.6385  2.9497 -1.6366
  605MOL0     H83448  10.083   0.627   7.865 -2.0136 -1.1938 -0.2587
  605MOL0     H83449  10.293   0.599   7.876  0.0798 -0.9713  0.0288
  605MOL0     H83450  10.391   0.535   8.015  0.3970  1.2560 -0.7352
  605MOL0     H83451  10.395   0.706   7.981 -2.3311  1.6762 -1.3673
  605MOL0     H83452  10.509   0.647   8.489 -1.4896  0.0676 -1.9023
  605MOL0     H83453  10.747   0.626   8.549 -0.0143  0.2499 -0.8584
  605MOL0     H83454  10.967   0.717   8.547 -0.2280  1.3329 -1.2733
  605MOL0     H83455  10.953   0.551   8.499 -0.2487 -0.9109 -0.2436
  605MOL0     H83456  11.193   0.623   8.551 -2.9698  0.4621  0.6407
  605MOL0     H83457  11.187   0.562   8.386  0.2986  0.5627 -0.9043
  605MOL0     H83458  11.194   0.849   8.479 -1.1685 -0.8432 -0.3668
  605MOL0     H83459  11.193   0.797   8.306  1.0799 -2.8933 -1.2365
  605MOL0     H83460  11.388   0.663   8.341 -0.4403  0.6400 -0.3878
  605MOL0     H83461  11.414   0.725   8.509  1.8981 -1.2672 -0.5591
  605MOL0     H83462  11.552   0.846   8.327 -0.7453 -2.2706 -1.9255
  605MOL0     H83463  11.405   0.894   8.254  1.8900 -2.0001 -1.4668
  605MOL0     H83464  11.346   1.013   8.480  0.0981 -0.0008 -1.3915
  605MOL0     H83465  11.468   1.089   8.384 -1.4335  0.0046 -2.4461
  605MOL0     H83466  11.640   0.966   8.530  0.2421  0.3209  0.4800
  605MOL0     H83467  11.498   0.913   8.630  4.0792 -1.7037  2.2088
  605MOL0     H83468  11.594   1.102   8.739  1.7734 -0.9759 -1.3802
  605MOL0     H83469  11.439   1.148   8.662  1.0436 -0.0713  2.5599
  605MOL0     H83470  10.847   0.775   8.152  1.6183 -1.6651  0.2138
  605MOL0     H83471  10.603   0.778   8.086 -1.4326  2.0809 -0.1607
  605MOL0     H83472  10.047   0.675   8.351  0.6319 -0.4554 -0.1246
  605MOL0     H83473   9.834   0.664   8.211 -0.9323 -3.2201  1.7432
  605MOL0     H83474   8.069   0.570   7.388 -0.2282  2.4425 -1.7012
  605MOL0     H83475   7.822   0.528   7.400 -2.1416 -0.0074  1.3030
  605MOL0     H83476   7.522   0.327   7.891 -0.5065  0.5322  1.7038
  605MOL0     H83477   7.284   0.235   7.918 -1.4313  0.7817  0.2580
  605MOL0     H83478   6.982   0.210   7.872 -0.0579  0.8338  1.5159
  605MOL0     H83479   7.056   0.365   7.887  0.7194  0.3412 -1.3334
  605MOL0     H83480   6.826   0.409   7.834  0.5064  1.4515 -0.7177
  605MOL0     H83481   6.830   0.300   7.693  0.5444  0.8111 -2.1987
  605MOL0     H83482   7.012   0.553   7.720 -0.1733 -0.4199  0.0034
  605MOL0     H83483   6.995   0.443   7.584  1.1567 -1.7856  1.8088
  605MOL0     H83484   6.756   0.588   7.706 -1.3360 -2.3646 -0.0300
  605MOL0     H83485   6.770   0.502   7.541  0.6277  2.5080 -1.9510
  605MOL0     H83486   6.918   0.875   7.437 -1.5037 -0.6704 -0.2861
  605MOL0     H83487   7.198   0.375   7.519  1.6104  0.8774 -1.3979
  605MOL0     H83488   7.339   0.500   7.401 -0.6968 -0.6799  0.3813
  605MOL0     H83489   7.494   0.554   7.463 -0.6486  0.5181 -0.2215
  605MOL0     H83490   7.476   0.393   7.391 -1.6096 -0.8745 -0.0551
  606MOL0     O83491  11.369   9.821   4.978  0.1091 -0.6358  0.4740
  606MOL0     C83492  11.408   9.899   4.889 -0.0605 -0.0305  0.2528
  606MOL0     O83493  11.337   9.957   4.788 -0.3150  0.3175 -0.2213
  606MOL0     C83494  11.226   9.886   4.749  0.2100 -0.0092 -0.0592
  606MOL0     C83495  11.095   9.923   4.781  0.4415  0.4961 -0.1144
  606MOL0     C83496  10.988   9.837   4.744 -0.1139 -0.3373  0.2535
  606MOL0     C83497  11.018   9.712   4.685 -0.0408  0.7705 -0.0604
  606MOL0     O83498  10.926   9.616   4.646 -0.1048  0.2700 -0.3913
  606MOL0     C83499  10.802   9.613   4.711  0.1248  0.2354 -0.4182
  606MOL0     C83500  10.728   9.487   4.676  0.2806 -0.2096 -0.0753
  606MOL0     C83501  10.585   9.500   4.742 -0.1791 -0.7445 -0.8940
  606MOL0     C83502  10.512   9.367   4.748  0.4500 -0.5395  0.5495
  606MOL0     C83503  10.381   9.378   4.817 -0.0648 -0.0397 -0.4610
  606MOL0     C83504  10.300   9.261   4.770 -0.1064 -0.6558 -0.0773
  606MOL0     C83505  10.166   9.259   4.830  0.7253  0.3325  0.3928
  606MOL0     C83506  10.081   9.138   4.793  0.2417  0.5135 -0.3030
  606MOL0     N83507   9.957   9.135   4.862 -0.5610 -0.0401  0.0987
  606MOL0     C83508   9.861   9.040   4.830 -0.9631 -0.8518  1.2329
  606MOL0     C83509   9.747   9.093   4.879  0.0537 -0.3361  0.4504
  606MOL0     C83510   9.611   9.030   4.879  0.0258  0.8859  0.4759
  606MOL0     C83511   9.547   9.002   4.751  0.1295  0.3043  0.3807
  606MOL0     C83512   9.520   9.136   4.671  0.5430  0.1714 -0.8108
  606MOL0     C83513   9.408   9.115   4.572  0.5374 -0.1672 -0.0771
  606MOL0     O83514   9.436   9.010   4.474 -0.0821 -0.5000  0.2234
  606MOL0     C83515   9.505   9.047   4.357  0.1597  0.1693 -0.2481
  606MOL0     C83516   9.529   9.165   4.298 -0.0894  0.1232  0.9378
  606MOL0     C83517   9.605   9.176   4.179 -0.2109 -0.6213  0.2864
  606MOL0     C83518   9.601   9.311   4.118 -0.7986  0.2417 -0.0831
  606MOL0     C83519   9.662   9.057   4.125  0.5161 -0.0257 -0.0044
  606MOL0     C83520   9.752   9.069   4.007  0.7618  0.9270 -0.3338
  606MOL0     O83521   9.785   8.949   3.950  0.3505 -0.6394  0.0917
  606MOL0     C83522   9.856   8.954   3.837  0.1849  0.0029  0.6292
  606MOL0     C83523   9.820   9.025   3.725  0.2608 -0.2201 -0.1766
  606MOL0     C83524   9.899   9.019   3.612  0.1363  0.2502  0.5494
  606MOL0     C83525  10.027   8.955   3.619  1.0047  0.2586 -0.1907
  606MOL0     O83526  10.100   8.966   3.507 -0.0932  0.3497  0.3143
  606MOL0     C83527  10.232   8.919   3.514 -0.3397  0.0765 -0.0588
  606MOL0     C83528  10.294   8.916   3.366  0.1402  0.3283 -1.1194
  606MOL0     C83529  10.446   8.885   3.347  0.1455 -0.2752 -0.2379
  606MOL0     C83530  10.467   8.737   3.301  0.0449 -0.3450 -0.1798
  606MOL0     C83531  10.611   8.695   3.299 -0.8371  0.5522  0.3665
  606MOL0     C83532  10.634   8.593   3.181 -0.0933  0.1656  0.7537
  606MOL0     C83533  10.525   8.480   3.181  0.4084  0.4032 -0.2192
  606MOL0     C83534  10.463   8.448   3.044  0.4859 -0.0887 -0.1570
  606MOL0    Cl83535  10.305   8.531   3.041 -0.1249 -0.1452  0.1608
  606MOL0     C83536  10.058   8.885   3.738  0.5084 -0.4637  0.2673
  606MOL0     C83537   9.973   8.883   3.847 -0.0023  0.4964  0.3363
  606MOL0     O83538   9.796   9.177   3.979 -0.7350  0.2576  0.1239
  606MOL0     C83539   9.629   8.932   4.187 -0.8541  0.0306 -1.1424
  606MOL0     C83540   9.556   8.934   4.301  0.2563 -0.1817  0.4388
  606MOL0     N83541   9.774   9.207   4.955  0.1911  0.1282  0.2287
  606MOL0     N83542   9.903   9.239   4.942  0.0326  0.0565  0.7006
  606MOL0     C83543  11.149   9.675   4.646  0.4571  0.1342  0.2332
  606MOL0     C83544  11.252   9.764   4.683  0.1856  0.1632  0.3588
  606MOL0     C83545  11.555   9.932   4.891 -0.3649  0.1501 -0.0192
  606MOL0     C83546  11.590  10.052   4.815 -0.9527 -0.4275 -0.0296
  606MOL0     C83547  11.723  10.088   4.803 -0.1170 -0.0612  0.4681
  606MOL0     C83548  11.826  10.018   4.860 -0.2243 -0.3689  0.7452
  606MOL0     O83549  11.964  10.040   4.850 -0.0592 -0.4903  0.4668
  606MOL0     C83550  12.004  10.161   4.784 -0.6484  0.8483  0.7742
  606MOL0     C83551  12.051  10.116   4.646  0.3147  0.6645 -0.0093
  606MOL0     C83552  12.096  10.231   4.553 -0.0446 -0.0709 -1.1690
  606MOL0     C83553  12.158  10.179   4.424 -0.3434 -0.3194 -0.0608
  606MOL0     C83554  12.061  10.141   4.320  0.2854 -0.7867  0.6923
  606MOL0     C83555  12.002  10.117   4.216  0.4732  0.0410 -0.4616
  606MOL0     C83556  11.790   9.917   4.936 -0.2595 -0.2387 -0.8990
  606MOL0     C83557  11.661   9.862   4.952  0.5070 -1.0499  0.2562
  606MOL0     C83558  11.640   9.747   5.045  0.3912 -0.1097 -0.2163
  606MOL0     H83559  11.078  10.017   4.833 -0.2762  0.2810  0.0511
  606MOL0     H83560  10.882   9.852   4.763 -0.5060 -1.2951 -1.0202
  606MOL0     H83561  10.745   9.703   4.686 -1.3702 -0.3471  0.7067
  606MOL0     H83562  10.802   9.638   4.818  0.1545  1.2403 -0.6480
  606MOL0     H83563  10.739   9.468   4.569  2.6982 -1.4307  0.3169
  606MOL0     H83564  10.790   9.408   4.719  0.8322 -0.3510 -1.0828
  606MOL0     H83565  10.605   9.528   4.845  1.6019 -1.7967 -0.9024
  606MOL0     H83566  10.522   9.579   4.700 -1.4520  0.0494  2.2803
  606MOL0     H83567  10.491   9.342   4.644  2.6528  0.7452 -0.2886
  606MOL0     H83568  10.567   9.287   4.798  0.7611  0.4088  1.7895
  606MOL0     H83569  10.318   9.460   4.783 -1.1509 -0.9758 -0.7633
  606MOL0     H83570  10.388   9.380   4.926 -0.3864  2.1526 -0.4365
  606MOL0     H83571  10.292   9.262   4.661 -0.7609 -0.3444 -0.0298
  606MOL0     H83572  10.348   9.173   4.814 -1.7314 -0.7870  1.5767
  606MOL0     H83573  10.108   9.350   4.811 -0.3825 -0.1470  1.3759
  606MOL0     H83574  10.191   9.269   4.936  2.2400 -0.5389  0.1466
  606MOL0     H83575  10.055   9.130   4.687  0.6634 -2.6072 -0.2859
  606MOL0     H83576  10.135   9.045   4.813  0.6968  0.9842  0.6639
  606MOL0     H83577   9.868   8.958   4.760  1.4045 -0.5888  1.1030
  606MOL0     H83578   9.551   9.084   4.953 -1.7509 -1.5386  0.9475
  606MOL0     H83579   9.630   8.930   4.921  1.1679  0.5812 -0.7144
  606MOL0     H83580   9.595   8.925   4.689 -2.0969 -1.2512  0.4381
  606MOL0     H83581   9.449   8.962   4.778 -1.0856  0.8387 -2.7923
  606MOL0     H83582   9.491   9.213   4.742 -2.1597 -1.8495  0.4750
  606MOL0     H83583   9.613   9.166   4.622  2.9386 -2.5328  1.6256
  606MOL0     H83584   9.318   9.082   4.626  0.4916  0.3537  0.1782
  606MOL0     H83585   9.371   9.212   4.538 -4.2670 -1.2043  1.3319
  606MOL0     H83586   9.484   9.256   4.336 -1.8295 -1.3818  2.6386
  606MOL0     H83587   9.508   9.366   4.132 -0.3207  0.5817  2.1650
  606MOL0     H83588   9.598   9.288   4.012  0.1626 -0.1310 -0.0363
  606MOL0     H83589   9.684   9.375   4.151 -1.0997 -1.0152  3.6503
  606MOL0     H83590   9.719   9.064   3.737  0.3113  0.1709 -0.9760
  606MOL0     H83591   9.859   9.059   3.519 -2.9235 -5.7539 -1.2360
  606MOL0     H83592  10.307   8.971   3.574  3.1981 -1.2121 -2.9854
  606MOL0     H83593  10.244   8.814   3.542 -0.4465 -0.5751 -2.2116
  606MOL0     H83594  10.232   8.845   3.311 -1.4640 -0.3868  1.4150
  606MOL0     H83595  10.282   9.018   3.329  0.3947  0.8699  0.2138
  606MOL0     H83596  10.497   8.905   3.441 -0.6319 -0.4554  0.2385
  606MOL0     H83597  10.483   8.944   3.263  0.4482 -0.5187 -0.2775
  606MOL0     H83598  10.434   8.732   3.197 -0.7715 -0.6784  0.0834
  606MOL0     H83599  10.398   8.673   3.358 -3.3431  0.4559 -3.0488
  606MOL0     H83600  10.678   8.780   3.289  0.2639 -0.0525  2.2786
  606MOL0     H83601  10.641   8.663   3.399  0.1886  1.2927  0.3010
  606MOL0     H83602  10.732   8.545   3.186 -0.5807 -0.9155  0.1957
  606MOL0     H83603  10.635   8.642   3.083 -2.5731 -2.8085 -0.9283
  606MOL0     H83604  10.444   8.494   3.253  1.1361  3.2555  0.1448
  606MOL0     H83605  10.583   8.394   3.217 -0.0677  0.0851 -0.2152
  606MOL0     H83606  10.451   8.340   3.031  2.0991 -0.4761  1.2459
  606MOL0     H83607  10.533   8.471   2.963  0.3118 -2.3363 -0.9988
  606MOL0     H83608  10.148   8.825   3.737  1.6219  1.0951  1.5440
  606MOL0     H83609   9.995   8.824   3.936  1.1715  2.6919  1.6139
  606MOL0     H83610   9.656   8.836   4.146 -0.2065 -0.2593 -0.0584
  606MOL0     H83611   9.530   8.841   4.350 -3.4085 -0.8635 -2.3637
  606MOL0     H83612  11.165   9.585   4.588 -1.4324 -0.2530  0.2600
  606MOL0     H83613  11.350   9.741   4.642 -0.8502 -1.7553 -1.1905
  606MOL0     H83614  11.511  10.108   4.767  0.6867  0.8826 -1.3456
  606MOL0     H83615  11.741  10.169   4.733  1.5469 -0.2247  0.6664
  606MOL0     H83616  11.932  10.243   4.775 -1.1063  0.2155 -2.4844
  606MOL0     H83617  12.096  10.192   4.833 -0.3482 -0.1257  0.8363
  606MOL0     H83618  11.969  10.077   4.585  2.7498 -1.4864 -2.1781
  606MOL0     H83619  12.129  10.040   4.648  1.1667  1.4972 -0.4814
  606MOL0     H83620  12.024  10.313   4.543 -1.1237 -0.7636  0.4449
  606MOL0     H83621  12.183  10.280   4.597 -1.6354  2.8394 -0.9813
  606MOL0     H83622  12.207  10.086   4.455  0.1931  0.6764  2.2537
  606MOL0     H83623  12.223  10.254   4.378  2.6742 -0.1733  3.8703
  606MOL0     H83624  11.945  10.072   4.137  1.4542 -3.3721  0.5906
  606MOL0     H83625  11.870   9.867   4.989  0.1983 -0.9932 -2.2670
  606MOL0     H83626  11.733   9.730   5.101  0.8316  1.2119 -0.5171
  606MOL0     H83627  11.560   9.767   5.117 -0.1399 -3.3985  0.2725
  606MOL0     H83628  11.612   9.651   5.001  0.8808 -0.7846  0.8782
  607MOL0     O83629  11.103  11.103   0.170  0.3143 -0.2464 -0.0915
  607MOL0     C83630  11.112  11.087   0.050  0.2327 -0.4782 -0.4160
  607MOL0     O83631  11.226  11.071  -0.023  0.0880 -0.0284 -0.0911
  607MOL0     C83632  11.354  11.093   0.035  0.4365  0.0262 -0.1551
  607MOL0     C83633  11.423  11.002   0.110 -0.3459  0.0996 -0.5279
  607MOL0     C83634  11.552  11.021   0.163 -0.0673 -0.2642 -0.0240
  607MOL0     C83635  11.611  11.146   0.122  0.1767  0.7365 -1.4358
  607MOL0     O83636  11.733  11.173   0.176  0.1188  0.4064 -0.9414
  607MOL0     C83637  11.829  11.255   0.107 -0.0775  0.4466 -0.0420
  607MOL0     C83638  11.965  11.270   0.187 -0.2683  0.3290  0.0474
  607MOL0     C83639  12.033  11.136   0.215 -0.2554  0.0783  0.0806
  607MOL0     C83640  12.158  11.135   0.298  0.6575  0.2139 -1.0971
  607MOL0     C83641  12.185  11.001   0.353 -0.7576  0.0417  0.0145
  607MOL0     C83642  12.298  10.989   0.460  0.4274 -0.5861  0.3760
  607MOL0     C83643  12.445  11.026   0.402  0.0141  0.5691 -0.5983
  607MOL0     C83644  12.568  11.005   0.484  0.7834  0.3803 -0.3758
  607MOL0     N83645  12.576  11.089   0.604 -0.2515  0.3612 -0.6047
  607MOL0     C83646  12.524  11.215   0.630 -0.4328  0.4222  0.4282
  607MOL0     C83647  12.599  11.262   0.739  0.2631  0.4892  0.6588
  607MOL0     C83648  12.574  11.400   0.786 -0.3814  0.4332 -0.6062
  607MOL0     C83649  12.634  11.508   0.692  0.1415  0.5014  1.0980
  607MOL0     C83650  12.664  11.633   0.768 -0.4784 -0.1064 -0.2585
  607MOL0     C83651  12.806  11.631   0.830 -0.3107  0.4251  0.0006
  607MOL0     O83652  12.840  11.759   0.886  0.4049 -0.8312  0.2174
  607MOL0     C83653  12.951  11.767   0.952 -0.1976  0.0124  0.3772
  607MOL0     C83654  12.987  11.888   1.015  0.3161 -0.1715  0.0429
  607MOL0     C83655  13.112  11.920   1.076 -0.0344 -0.3417 -0.6829
  607MOL0     C83656  13.106  12.045   1.160  0.8806 -0.0734  0.3984
  607MOL0     C83657  13.219  11.822   1.067  0.1951  0.4666 -0.3564
  607MOL0     C83658  13.353  11.843   1.129  1.1814  0.0396 -0.0603
  607MOL0     O83659  13.445  11.740   1.126 -0.2244  0.1156 -0.2909
  607MOL0     C83660  13.566  11.747   1.178 -0.1984  0.1386 -0.1944
  607MOL0     C83661  13.590  11.762   1.315 -0.1819  0.1284  0.1302
  607MOL0     C83662  13.722  11.746   1.362  0.2857  0.2775 -0.4473
  607MOL0     C83663  13.823  11.708   1.280 -1.1682  1.1796  0.8688
  607MOL0     O83664  13.955  11.667   1.317 -0.0792  0.0562  0.0802
  607MOL0     C83665  13.982  11.653   1.458  0.4810 -0.1283  0.6519
  607MOL0     C83666  14.130  11.605   1.465 -0.4690  0.0836 -0.1484
  607MOL0     C83667  14.225  11.715   1.411 -0.7198  1.0968  0.6102
  607MOL0     C83668  14.371  11.676   1.420  0.0921  0.1648 -0.4864
  607MOL0     C83669  14.464  11.795   1.388 -0.3601 -1.2010  0.3491
  607MOL0     C83670  14.604  11.758   1.394 -1.1020  0.5239  1.6450
  607MOL0     C83671  14.643  11.665   1.278 -0.1821 -0.1446  0.2671
  607MOL0     C83672  14.793  11.672   1.242  0.4670 -0.1279  0.2060
  607MOL0    Cl83673  14.814  11.670   1.058 -0.7386  0.0185 -0.3056
  607MOL0     C83674  13.795  11.687   1.144  0.8938 -0.5271 -0.0455
  607MOL0     C83675  13.669  11.702   1.094 -0.3321  0.5924 -0.0177
  607MOL0     O83676  13.374  11.954   1.184  0.2551  0.4021  0.8963
  607MOL0     C83677  13.179  11.700   1.006  0.3199  0.1235 -0.9246
  607MOL0     C83678  13.050  11.669   0.957  0.4310 -0.1633  1.0066
  607MOL0     N83679  12.699  11.172   0.772  0.6473 -1.0393 -0.1928
  607MOL0     N83680  12.677  11.062   0.702  0.1603 -0.4163 -0.2615
  607MOL0     C83681  11.540  11.235   0.044  0.5859 -0.9423 -0.4057
  607MOL0     C83682  11.416  11.217   0.005  0.2754  0.8340  0.2241
  607MOL0     C83683  10.987  11.075  -0.029 -0.1407  0.1133  0.6263
  607MOL0     C83684  10.927  10.950  -0.019  0.2398  0.5816 -0.0726
  607MOL0     C83685  10.798  10.923  -0.076  0.0074  0.1040 -0.3869
  607MOL0     C83686  10.717  11.020  -0.129  0.4817  0.1141  0.5361
  607MOL0     O83687  10.591  10.982  -0.157  0.0978  0.0650 -0.7019
  607MOL0     C83688  10.508  11.048  -0.264 -0.7834  0.0545 -0.1833
  607MOL0     C83689  10.358  11.041  -0.221 -0.1020  0.4665 -0.2716
  607MOL0     C83690  10.302  10.895  -0.238  1.1024 -0.0016 -0.0733
  607MOL0     C83691  10.194  10.869  -0.139 -0.2485  0.5667 -0.0680
  607MOL0     C83692  10.130  10.738  -0.172  0.0671  0.2973  0.1769
  607MOL0     C83693  10.077  10.633  -0.211 -0.8810 -0.6416  0.1492
  607MOL0     C83694  10.775  11.149  -0.135 -0.1356 -0.3909  0.9489
  607MOL0     C83695  10.909  11.176  -0.090  0.6524 -0.5746  1.0679
  607MOL0     C83696  10.944  11.321  -0.110 -0.3416 -0.2594 -0.6966
  607MOL0     H83697  11.394  10.902   0.141  1.1721  0.3014  1.8321
  607MOL0     H83698  11.616  10.962   0.229 -0.7728 -3.5157 -2.0309
  607MOL0     H83699  11.791  11.356   0.089 -0.0981  0.4546  0.0483
  607MOL0     H83700  11.846  11.212   0.008 -3.1796  2.0277 -1.3903
  607MOL0     H83701  12.024  11.332   0.119  1.3184 -1.4744 -0.2944
  607MOL0     H83702  11.941  11.321   0.281 -1.5662  1.1353 -0.6965
  607MOL0     H83703  11.963  11.073   0.270  0.1749 -3.6343 -3.1847
  607MOL0     H83704  12.061  11.084   0.123 -0.6396  0.0692 -0.0300
  607MOL0     H83705  12.246  11.164   0.239  1.7057 -2.6425 -1.0883
  607MOL0     H83706  12.127  11.191   0.386  1.5195 -3.1329  1.5530
  607MOL0     H83707  12.196  10.931   0.270  0.0391  0.1416  0.0252
  607MOL0     H83708  12.094  10.963   0.399  0.0797 -0.4871  1.2725
  607MOL0     H83709  12.275  11.056   0.543  0.4889  2.1606 -1.6933
  607MOL0     H83710  12.301  10.884   0.489  2.4437 -1.1981 -1.7412
  607MOL0     H83711  12.435  11.132   0.375 -1.4432  0.7370  0.4918
  607MOL0     H83712  12.450  10.961   0.314  1.8537 -3.1958  2.0292
  607MOL0     H83713  12.576  10.905   0.527  0.9627  1.0904  1.3405
  607MOL0     H83714  12.660  11.022   0.427  0.9615 -3.0568 -1.3081
  607MOL0     H83715  12.450  11.279   0.584  0.7903  1.8819  0.4068
  607MOL0     H83716  12.610  11.411   0.889 -1.7195  1.1956 -0.1839
  607MOL0     H83717  12.467  11.414   0.807 -0.2633 -2.2355  2.7372
  607MOL0     H83718  12.726  11.480   0.639  0.0394  2.3693 -0.1288
  607MOL0     H83719  12.551  11.518   0.622 -0.7481 -0.0130  2.0360
  607MOL0     H83720  12.656  11.723   0.706 -0.4893  0.9335  1.2088
  607MOL0     H83721  12.591  11.654   0.846  1.1193  1.5016  0.9060
  607MOL0     H83722  12.813  11.554   0.907  0.7570  1.3928  0.9049
  607MOL0     H83723  12.866  11.604   0.742 -1.0472 -1.4257  0.0205
  607MOL0     H83724  12.902  11.955   1.018  1.4771  1.4564 -1.2974
  607MOL0     H83725  13.000  12.062   1.177  0.4655 -0.3175 -1.6658
  607MOL0     H83726  13.141  12.130   1.101 -1.2251  0.1283 -0.6217
  607MOL0     H83727  13.168  12.036   1.250 -0.4617 -3.0741  1.1515
  607MOL0     H83728  13.514  11.785   1.390  1.3258  4.3261  0.6582
  607MOL0     H83729  13.739  11.759   1.468  0.0494  4.3841 -0.7496
  607MOL0     H83730  13.979  11.744   1.518  0.6063  1.4152 -1.6026
  607MOL0     H83731  13.918  11.580   1.509 -1.9149  2.8748  2.2596
  607MOL0     H83732  14.168  11.568   1.561 -1.2337 -0.9470 -0.2273
  607MOL0     H83733  14.141  11.516   1.404  0.5740 -1.2172  1.8406
  607MOL0     H83734  14.209  11.799   1.479 -1.7243 -1.6920  4.1502
  607MOL0     H83735  14.202  11.748   1.309  1.2276 -0.7456 -0.5046
  607MOL0     H83736  14.383  11.588   1.356 -1.7767 -0.4920  0.0074
  607MOL0     H83737  14.382  11.639   1.522 -3.2636 -1.8635 -0.7151
  607MOL0     H83738  14.438  11.842   1.293  2.1843 -0.2513  0.0375
  607MOL0     H83739  14.445  11.869   1.466 -4.8778 -0.6887 -0.9358
  607MOL0     H83740  14.622  11.714   1.493 -0.8656 -0.5345  1.1528
  607MOL0     H83741  14.660  11.850   1.379  1.1955 -0.9971  0.1101
  607MOL0     H83742  14.597  11.699   1.185  2.7235  0.5219 -1.0415
  607MOL0     H83743  14.604  11.564   1.292 -1.3217  0.1711 -0.5162
  607MOL0     H83744  14.847  11.582   1.272  0.3121 -0.5981 -0.9045
  607MOL0     H83745  14.840  11.765   1.276 -2.0651  1.4935 -0.3964
  607MOL0     H83746  13.883  11.653   1.091  1.7735  1.1728  0.2498
  607MOL0     H83747  13.648  11.677   0.991  0.7001  1.2383 -0.4052
  607MOL0     H83748  13.261  11.629   1.004  1.2640  1.1849 -0.9592
  607MOL0     H83749  13.033  11.578   0.901 -0.7800 -1.0573  2.7325
  607MOL0     H83750  11.595  11.318   0.001  1.4508 -2.0837 -1.5616
  607MOL0     H83751  11.374  11.296  -0.057 -0.3935  0.8995  0.7458
  607MOL0     H83752  10.987  10.869   0.023  0.5991  0.8974  0.0252
  607MOL0     H83753  10.751  10.825  -0.072 -0.9735  0.6100  1.8056
  607MOL0     H83754  10.536  11.151  -0.283 -0.2894  0.0804  0.6162
  607MOL0     H83755  10.534  10.993  -0.355 -0.3287 -0.4446  0.2382
  607MOL0     H83756  10.299  11.110  -0.283 -0.3837  1.4108  1.0096
  607MOL0     H83757  10.362  11.062  -0.114  1.8809 -1.7806  0.1613
  607MOL0     H83758  10.259  10.891  -0.338 -2.3911  0.1083  1.2959
  607MOL0     H83759  10.378  10.817  -0.220  3.8178  2.4103 -0.3760
  607MOL0     H83760  10.120  10.949  -0.150 -0.8396  0.3025  1.5884
  607MOL0     H83761  10.229  10.871  -0.035 -1.8933  1.1828  0.5080
  607MOL0     H83762  10.034  10.540  -0.242 -1.2026 -0.7995  1.0229
  607MOL0     H83763  10.708  11.225  -0.174 -1.8343 -1.2646  2.0230
  607MOL0     H83764  10.983  11.367  -0.019  1.2947  1.5164 -2.2253
  607MOL0     H83765  11.020  11.341  -0.185 -1.8963  0.5768 -2.0942
  607MOL0     H83766  10.860  11.379  -0.148 -3.1122 -4.1093 -1.0712
  608MOL0     O83767   4.614   4.078   7.453 -0.2231 -0.4613 -0.1545
  608MOL0     C83768   4.537   3.983   7.433 -0.0909 -0.3250  0.4595
  608MOL0     O83769   4.573   3.861   7.380  0.5376 -0.0293 -0.1542
  608MOL0     C83770   4.703   3.847   7.326  0.5928  0.2593 -0.4624
  608MOL0     C83771   4.711   3.811   7.188  0.2792 -0.2188  0.1546
  608MOL0     C83772   4.833   3.793   7.127 -1.0098 -0.3521  0.1666
  608MOL0     C83773   4.953   3.819   7.199  0.6419  0.5966  0.4376
  608MOL0     O83774   5.070   3.804   7.132 -0.8191 -0.2725  0.2876
  608MOL0     C83775   5.185   3.876   7.191 -0.5580 -0.9330 -0.0066
  608MOL0     C83776   5.287   3.900   7.080  0.0276 -0.1280 -0.0249
  608MOL0     C83777   5.430   3.871   7.093  0.3506  0.0782 -0.0801
  608MOL0     C83778   5.462   3.724   7.116 -0.4181  0.3669  0.3043
  608MOL0     C83779   5.582   3.699   7.204  0.7350 -0.0934  0.1512
  608MOL0     C83780   5.718   3.701   7.137  0.4208 -0.0349  0.3132
  608MOL0     C83781   5.832   3.676   7.232  0.2238 -0.1205 -0.7637
  608MOL0     C83782   5.963   3.670   7.159 -0.0445 -0.1332 -0.2380
  608MOL0     N83783   6.079   3.645   7.249  1.2166  0.1514  0.5981
  608MOL0     C83784   6.171   3.543   7.222  0.5294  0.9235  0.1299
  608MOL0     C83785   6.251   3.530   7.329 -0.2528 -0.4616 -0.1654
  608MOL0     C83786   6.366   3.431   7.345 -0.3256 -0.0573 -0.6711
  608MOL0     C83787   6.492   3.486   7.278  0.1791  0.2591  0.1199
  608MOL0     C83788   6.467   3.493   7.129 -0.3248  0.2417  0.6843
  608MOL0     C83789   6.595   3.497   7.042  0.2795  0.5648  0.2900
  608MOL0     O83790   6.663   3.633   7.043  0.2060 -0.4003 -0.2924
  608MOL0     C83791   6.802   3.635   7.030  0.8984 -0.7650 -0.2704
  608MOL0     C83792   6.881   3.519   7.014  0.2479  0.3070  0.2349
  608MOL0     C83793   7.024   3.524   7.004  0.6041 -0.5102 -0.1093
  608MOL0     C83794   7.104   3.394   6.990  0.1964  0.0842  0.0278
  608MOL0     C83795   7.080   3.660   7.002 -0.6776  0.5525  0.8100
  608MOL0     C83796   7.230   3.686   6.991 -0.0602 -1.1020 -0.0412
  608MOL0     O83797   7.316   3.600   7.060 -0.3684 -0.0922  0.1469
  608MOL0     C83798   7.452   3.592   7.054 -0.4084 -0.4852  0.9860
  608MOL0     C83799   7.524   3.618   6.942  0.3574  0.6456 -0.1684
  608MOL0     C83800   7.670   3.611   6.950  0.3854  0.1639 -0.3998
  608MOL0     C83801   7.741   3.594   7.068 -0.2987 -0.4415  0.4186
  608MOL0     O83802   7.883   3.590   7.078  0.5929 -0.7705  0.2956
  608MOL0     C83803   7.942   3.481   7.146 -0.5250 -0.1603  0.0550
  608MOL0     C83804   8.078   3.462   7.091  0.2778  0.4123 -0.1523
  608MOL0     C83805   8.165   3.581   7.131  0.2221 -0.1902 -0.1784
  608MOL0     C83806   8.314   3.538   7.138 -0.0805  0.5412 -0.4388
  608MOL0     C83807   8.403   3.558   7.016  0.3365 -0.0914  0.2988
  608MOL0     C83808   8.549   3.558   7.058 -0.2181 -0.6539 -0.6301
  608MOL0     C83809   8.638   3.541   6.935 -0.3048  0.2708 -0.4069
  608MOL0     C83810   8.786   3.531   6.980 -0.1190  0.1609  0.5088
  608MOL0    Cl83811   8.874   3.523   6.824 -0.1099 -0.3933  0.3037
  608MOL0     C83812   7.663   3.570   7.179  0.5214  0.1725 -0.4620
  608MOL0     C83813   7.524   3.557   7.176 -0.8177 -0.2728 -0.1962
  608MOL0     O83814   7.265   3.783   6.922 -0.6970  0.5797 -0.2281
  608MOL0     C83815   6.999   3.770   7.026  0.3991 -0.0351  0.3545
  608MOL0     C83816   6.860   3.759   7.043 -0.0496 -0.0721 -0.0459
  608MOL0     N83817   6.201   3.632   7.417  0.6833 -0.0975 -0.5831
  608MOL0     N83818   6.100   3.699   7.368 -0.0081  0.6856  0.5957
  608MOL0     C83819   4.946   3.839   7.336 -0.7558  0.0028 -0.6864
  608MOL0     C83820   4.826   3.856   7.402 -0.3146  0.6595 -0.5388
  608MOL0     C83821   4.395   4.002   7.463  0.5019 -0.4338 -0.1947
  608MOL0     C83822   4.302   3.930   7.384 -0.1344 -0.1694  0.1414
  608MOL0     C83823   4.165   3.944   7.402  0.3380 -0.0160  0.2563
  608MOL0     C83824   4.120   4.033   7.508  0.4240  0.3933  0.6711
  608MOL0     O83825   3.986   4.048   7.526 -0.0747 -0.5052  0.1985
  608MOL0     C83826   3.938   4.013   7.654 -0.1517 -0.4246  0.1017
  608MOL0     C83827   3.881   3.873   7.659 -0.5380 -0.0313 -0.3792
  608MOL0     C83828   3.985   3.767   7.669 -0.1455 -0.0014 -0.7522
  608MOL0     C83829   4.075   3.774   7.793  0.4237  0.0299  0.1813
  608MOL0     C83830   4.150   3.650   7.811 -0.3485 -0.3558 -0.3638
  608MOL0     C83831   4.232   3.567   7.826 -0.2323  0.2543 -0.2378
  608MOL0     C83832   4.213   4.110   7.572 -0.2663  0.0329 -0.0964
  608MOL0     C83833   4.352   4.102   7.553  0.0613 -0.4419 -0.6698
  608MOL0     C83834   4.428   4.180   7.658 -0.2841  0.1981  0.3066
  608MOL0     H83835   4.627   3.788   7.124  0.4304  0.0103 -0.1252
  608MOL0     H83836   4.829   3.765   7.023  0.5116 -1.1414  0.2982
  608MOL0     H83837   5.232   3.813   7.267  0.6539  0.5757  0.5491
  608MOL0     H83838   5.152   3.964   7.247 -2.9150 -1.7641  0.0161
  608MOL0     H83839   5.254   3.851   6.988  2.2441 -1.8635  0.0249
  608MOL0     H83840   5.281   4.003   7.042  1.8027 -1.1538 -3.4453
  608MOL0     H83841   5.472   3.905   6.998 -1.4796  2.1109 -0.2527
  608MOL0     H83842   5.475   3.935   7.170 -1.3242 -0.3551  1.3357
  608MOL0     H83843   5.378   3.683   7.173  0.1674 -0.5842  0.5238
  608MOL0     H83844   5.476   3.664   7.026  5.1400 -0.9248  1.6339
  608MOL0     H83845   5.573   3.601   7.250  1.7877 -1.9564 -3.2620
  608MOL0     H83846   5.584   3.780   7.278 -0.1111  0.3241 -0.2724
  608MOL0     H83847   5.712   3.630   7.054 -0.1415  1.5747 -1.0754
  608MOL0     H83848   5.737   3.794   7.084 -1.6121 -0.1006 -0.6233
  608MOL0     H83849   5.810   3.583   7.285 -1.5269  0.2425 -0.7747
  608MOL0     H83850   5.831   3.757   7.305 -2.3513  1.4671 -2.3761
  608MOL0     H83851   5.955   3.585   7.091 -1.0416 -0.8680  0.7575
  608MOL0     H83852   5.975   3.768   7.113 -3.1013 -0.4570 -1.9767
  608MOL0     H83853   6.151   3.482   7.135 -1.8668 -0.8363  1.7942
  608MOL0     H83854   6.334   3.329   7.318 -0.7356 -0.4490  1.1926
  608MOL0     H83855   6.382   3.424   7.453  3.6909 -2.9598 -1.2394
  608MOL0     H83856   6.532   3.577   7.323 -0.6561  0.4338  0.5367
  608MOL0     H83857   6.571   3.414   7.298  0.7623  0.4186 -1.4611
  608MOL0     H83858   6.422   3.395   7.113 -1.8469  0.9381  0.5400
  608MOL0     H83859   6.395   3.569   7.097 -3.6320 -2.8161  0.3236
  608MOL0     H83860   6.655   3.418   7.089  0.9663  1.5631  1.1585
  608MOL0     H83861   6.576   3.463   6.940  1.9446  1.5690 -0.3988
  608MOL0     H83862   6.833   3.422   7.002  0.4045  0.4265 -1.6660
  608MOL0     H83863   7.144   3.378   6.889 -1.5433  1.5497 -0.9626
  608MOL0     H83864   7.049   3.304   7.020 -0.1057  0.5794  0.9961
  608MOL0     H83865   7.190   3.405   7.057  1.8662 -0.1587 -1.9787
  608MOL0     H83866   7.486   3.643   6.843  1.5109  0.7323 -0.5960
  608MOL0     H83867   7.734   3.618   6.863 -0.7999 -0.7520 -1.3769
  608MOL0     H83868   7.942   3.496   7.255  2.2030 -0.9862  0.2608
  608MOL0     H83869   7.884   3.393   7.116 -1.7505  1.3851 -2.4507
  608MOL0     H83870   8.123   3.375   7.139  0.3049  1.5716  2.0338
  608MOL0     H83871   8.078   3.457   6.982  1.9549  2.1074 -0.2974
  608MOL0     H83872   8.137   3.611   7.232 -1.7787  0.6406 -0.9379
  608MOL0     H83873   8.140   3.656   7.056  1.1951 -2.4428 -2.9366
  608MOL0     H83874   8.318   3.435   7.174  1.8040  0.5679 -0.4702
  608MOL0     H83875   8.349   3.602   7.219  1.3322  3.3421 -3.0667
  608MOL0     H83876   8.365   3.483   6.946 -1.7813 -1.4972  2.7820
  608MOL0     H83877   8.381   3.645   6.954 -0.6053 -1.6056 -1.5854
  608MOL0     H83878   8.559   3.470   7.121 -0.9482 -0.6826 -0.5495
  608MOL0     H83879   8.567   3.651   7.112  1.8691  0.0162 -2.3414
  608MOL0     H83880   8.624   3.631   6.874 -2.2018  0.8703  0.8004
  608MOL0     H83881   8.607   3.447   6.887  2.2312 -0.5633 -0.5452
  608MOL0     H83882   8.820   3.441   7.032  1.5729  1.1711  1.2660
  608MOL0     H83883   8.816   3.613   7.045 -0.7545  2.2591 -1.6766
  608MOL0     H83884   7.721   3.556   7.270  0.8234  2.4037 -0.2691
  608MOL0     H83885   7.462   3.536   7.263 -2.6588 -0.8595 -1.5968
  608MOL0     H83886   7.041   3.870   7.022 -1.1495  0.6230 -0.8325
  608MOL0     H83887   6.799   3.849   7.046  2.5497  1.8505 -1.3547
  608MOL0     H83888   5.032   3.835   7.401 -1.8361  2.1894  0.9869
  608MOL0     H83889   4.817   3.884   7.507 -0.7318 -2.7186  0.4447
  608MOL0     H83890   4.336   3.846   7.324 -0.4865 -0.3894  0.2497
  608MOL0     H83891   4.097   3.889   7.338  0.9922  1.1856 -1.5755
  608MOL0     H83892   4.011   4.026   7.734  1.6181 -1.3400 -1.2920
  608MOL0     H83893   3.855   4.079   7.682  1.5548  0.6914  2.9823
  608MOL0     H83894   3.828   3.855   7.565  0.4972  1.5332 -1.3253
  608MOL0     H83895   3.824   3.853   7.750  2.0668 -2.7434  0.8457
  608MOL0     H83896   3.946   3.666   7.673 -3.4225  1.0389 -3.0611
  608MOL0     H83897   4.060   3.771   7.589 -0.6778  0.8552 -1.2215
  608MOL0     H83898   4.017   3.809   7.879  1.7731  0.9342  0.7630
  608MOL0     H83899   4.152   3.849   7.772  2.8722 -2.5388 -0.6546
  608MOL0     H83900   4.279   3.475   7.856 -2.8520 -0.2873  2.7937
  608MOL0     H83901   4.173   4.175   7.649  1.5852  0.6128  0.4257
  608MOL0     H83902   4.467   4.121   7.741 -5.1568 -2.2206  1.2521
  608MOL0     H83903   4.514   4.224   7.606 -1.3011 -0.0487 -1.7183
  608MOL0     H83904   4.373   4.260   7.709  0.1093 -0.6467  2.0910
  609MOL0     O83905   1.716  11.133   2.308  0.0954  0.2444 -0.4772
  609MOL0     C83906   1.676  11.066   2.210 -0.4665 -0.0400 -0.2767
  609MOL0     O83907   1.738  11.052   2.091  0.5862 -0.3332  0.5016
  609MOL0     C83908   1.866  11.081   2.069  0.4398 -1.0995  0.1721
  609MOL0     C83909   1.903  11.107   1.934  0.5899  0.1442  0.4300
  609MOL0     C83910   2.031  11.154   1.904 -0.1423 -0.2118  0.5059
  609MOL0     C83911   2.128  11.166   2.003  0.2917 -0.1193  0.1988
  609MOL0     O83912   2.251  11.221   1.984 -1.0681 -0.4079  0.5691
  609MOL0     C83913   2.306  11.236   1.847  0.5101  0.6338  0.0422
  609MOL0     C83914   2.441  11.317   1.867  0.3043  0.6490 -0.2220
  609MOL0     C83915   2.552  11.219   1.885 -0.1474 -0.5070  0.2140
  609MOL0     C83916   2.533  11.129   2.009  0.6505 -1.2391  0.5567
  609MOL0     C83917   2.670  11.067   2.035  0.1630 -0.4223 -0.1225
  609MOL0     C83918   2.663  10.988   2.165  0.0606  0.2126  0.3545
  609MOL0     C83919   2.785  10.891   2.172  0.0291  0.4041  0.2609
  609MOL0     C83920   2.919  10.962   2.191 -0.2644  0.1229 -0.5404
  609MOL0     N83921   3.031  10.873   2.155  0.3501 -0.0723 -1.2165
  609MOL0     C83922   3.072  10.838   2.038  0.0424 -1.2795  0.4138
  609MOL0     C83923   3.197  10.781   2.056  0.1339 -0.5598  0.3448
  609MOL0     C83924   3.274  10.716   1.945  0.1910  0.5733 -0.1946
  609MOL0     C83925   3.426  10.733   1.973  0.2528 -0.0891  0.2192
  609MOL0     C83926   3.493  10.725   1.830  0.4637  0.5195  0.2610
  609MOL0     C83927   3.636  10.772   1.843 -0.4435 -0.3224 -0.6449
  609MOL0     O83928   3.650  10.921   1.849 -0.1688 -0.0334 -0.0076
  609MOL0     C83929   3.770  10.988   1.843 -0.5103  0.1176  0.1011
  609MOL0     C83930   3.763  11.115   1.807  0.3533  0.0374 -0.3758
  609MOL0     C83931   3.879  11.193   1.782 -0.4573 -0.0048 -0.0528
  609MOL0     C83932   3.863  11.339   1.751 -0.6837 -0.3169  0.5635
  609MOL0     C83933   4.006  11.137   1.804  0.4487 -0.3266 -0.3663
  609MOL0     C83934   4.136  11.200   1.767  0.2177 -0.1732  0.2462
  609MOL0     O83935   4.225  11.118   1.702 -0.3654 -0.2326  1.2381
  609MOL0     C83936   4.341  11.171   1.662  0.1105  0.1920 -0.3171
  609MOL0     C83937   4.443  11.205   1.753 -0.7117  0.9002 -1.3190
  609MOL0     C83938   4.575  11.219   1.713 -1.6085 -0.2090 -0.2532
  609MOL0     C83939   4.612  11.204   1.575 -0.2666  0.1691  0.3224
  609MOL0     O83940   4.739  11.219   1.519  0.3485 -0.5584 -0.3297
  609MOL0     C83941   4.824  11.114   1.559  0.1687  0.6241 -0.0732
  609MOL0     C83942   4.966  11.134   1.502  0.1243  0.1595 -0.2143
  609MOL0     C83943   5.065  11.034   1.559  0.0326 -0.3675  0.5874
  609MOL0     C83944   5.198  11.076   1.544 -0.2765  1.2917  0.3593
  609MOL0     C83945   5.301  10.967   1.584 -0.3655  0.1335  0.7403
  609MOL0     C83946   5.441  11.014   1.596  0.4181 -0.6547 -0.0562
  609MOL0     C83947   5.497  11.075   1.459 -0.6687  0.7251 -0.1357
  609MOL0     C83948   5.647  11.072   1.472  0.0698  0.1965 -0.3132
  609MOL0    Cl83949   5.739  10.911   1.489 -0.4835  0.4100 -0.0803
  609MOL0     C83950   4.514  11.176   1.485 -0.6231 -0.4830 -0.3338
  609MOL0     C83951   4.379  11.155   1.528 -0.2004  0.4496 -0.3146
  609MOL0     O83952   4.157  11.311   1.814 -0.1006 -0.7703 -0.2058
  609MOL0     C83953   4.009  11.001   1.848  0.2437  0.4401  0.1777
  609MOL0     C83954   3.888  10.927   1.868  0.3737  0.2189 -0.4280
  609MOL0     N83955   3.226  10.805   2.183 -0.2178  0.5137  0.5268
  609MOL0     N83956   3.139  10.873   2.238 -0.1810 -0.2708 -0.6871
  609MOL0     C83957   2.090  11.133   2.133 -0.0346 -0.3059 -0.0324
  609MOL0     C83958   1.965  11.088   2.161 -0.1160 -0.6174 -0.2271
  609MOL0     C83959   1.554  10.984   2.233  0.4200  0.1924  0.1736
  609MOL0     C83960   1.473  10.950   2.124 -0.0563  0.1924  0.1000
  609MOL0     C83961   1.362  10.860   2.136  0.5660 -0.3268 -0.3463
  609MOL0     C83962   1.330  10.808   2.257 -0.3844  0.2061 -1.2348
  609MOL0     O83963   1.226  10.718   2.262  0.0147  0.1797  0.4435
  609MOL0     C83964   1.137  10.676   2.160  0.1599 -0.0437  0.7647
  609MOL0     C83965   1.195  10.556   2.082 -0.0665  0.2990  0.0526
  609MOL0     C83966   1.086  10.483   2.002 -0.3140 -0.2673 -0.6310
  609MOL0     C83967   1.115  10.340   1.960 -0.7167 -0.2918  0.5474
  609MOL0     C83968   1.181  10.252   2.057  0.3825 -0.3651 -0.1466
  609MOL0     C83969   1.235  10.177   2.141  0.5860  0.3711  0.0791
  609MOL0     C83970   1.403  10.844   2.370  0.1852  0.7426  0.1820
  609MOL0     C83971   1.514  10.928   2.365 -0.7425 -0.5630  0.0864
  609MOL0     C83972   1.589  10.957   2.492 -0.7326 -0.6268 -0.4470
  609MOL0     H83973   1.821  11.096   1.864 -0.5120  2.1902  1.3277
  609MOL0     H83974   2.050  11.184   1.802 -0.1091  1.8886  1.0739
  609MOL0     H83975   2.242  11.300   1.787  1.5787  0.9842 -0.7539
  609MOL0     H83976   2.318  11.138   1.798  1.8229  0.0248  1.4865
  609MOL0     H83977   2.465  11.372   1.776  0.6783  1.0769  0.1284
  609MOL0     H83978   2.438  11.389   1.950  0.8225 -0.4015  0.7346
  609MOL0     H83979   2.564  11.166   1.790 -2.6505  2.6363 -2.0873
  609MOL0     H83980   2.639  11.283   1.906 -1.5510  0.8469  2.2545
  609MOL0     H83981   2.498  11.194   2.090  0.5395  1.6891 -1.6600
  609MOL0     H83982   2.457  11.054   1.983  0.3360 -0.6601 -0.2608
  609MOL0     H83983   2.745  11.146   2.044  2.4146 -2.4338 -0.1316
  609MOL0     H83984   2.706  11.001   1.956  0.8420 -1.3033  0.9014
  609MOL0     H83985   2.658  11.054   2.252 -0.1083 -2.1151  2.2455
  609MOL0     H83986   2.569  10.932   2.166 -1.0747  2.0344  0.4082
  609MOL0     H83987   2.797  10.838   2.078  0.6102 -0.5681  0.8658
  609MOL0     H83988   2.783  10.812   2.247 -0.4769 -1.4332 -1.6210
  609MOL0     H83989   2.931  11.047   2.123 -1.9181  1.6737  1.0004
  609MOL0     H83990   2.924  10.995   2.295  0.8973 -1.3191 -0.0999
  609MOL0     H83991   3.010  10.836   1.949  1.5064 -2.0359 -0.6274
  609MOL0     H83992   3.244  10.762   1.851  0.0417 -1.2340 -1.0790
  609MOL0     H83993   3.249  10.609   1.947 -1.5564  0.9475 -0.7598
  609MOL0     H83994   3.454  10.830   2.014  0.6755 -0.5483  1.0603
  609MOL0     H83995   3.466  10.658   2.043  1.1238  0.7217  0.6104
  609MOL0     H83996   3.499  10.624   1.788  1.6602 -0.0360  1.6675
  609MOL0     H83997   3.444  10.793   1.759 -1.1113  0.8044  1.5552
  609MOL0     H83998   3.676  10.727   1.934  1.8678 -0.8772 -1.8501
  609MOL0     H83999   3.700  10.742   1.759  2.1723  1.9962  0.3360
  609MOL0     H84000   3.663  11.156   1.793 -0.6001 -2.7934 -2.8216
  609MOL0     H84001   3.944  11.379   1.689 -2.0988 -0.1100 -1.2455
  609MOL0     H84002   3.864  11.408   1.836  0.4012  0.8848 -0.3882
  609MOL0     H84003   3.771  11.361   1.696 -0.1068  2.3104  0.5190
  609MOL0     H84004   4.434  11.199   1.861  1.6476 -1.3110 -1.1569
  609MOL0     H84005   4.656  11.227   1.784  0.6033  0.2703 -2.7166
  609MOL0     H84006   4.836  11.109   1.667  0.0181  3.3935  0.1241
  609MOL0     H84007   4.785  11.018   1.524  1.0056  0.5769 -0.9179
  609MOL0     H84008   4.965  11.119   1.394 -0.2268 -1.4733 -0.0173
  609MOL0     H84009   5.002  11.236   1.516  2.7965 -0.9160  1.7670
  609MOL0     H84010   5.049  10.942   1.502 -0.6722 -0.7949  1.4478
  609MOL0     H84011   5.041  11.020   1.665 -0.8725 -0.7202  0.3477
  609MOL0     H84012   5.219  11.171   1.594  2.3678 -0.4828  2.9309
  609MOL0     H84013   5.219  11.096   1.438 -2.1707 -2.0967 -0.8352
  609MOL0     H84014   5.270  10.932   1.683 -0.2858  0.1110  0.7568
  609MOL0     H84015   5.301  10.878   1.521  3.4902  0.5034 -0.0015
  609MOL0     H84016   5.504  10.925   1.607 -1.4830 -1.7784  3.1579
  609MOL0     H84017   5.448  11.094   1.670  0.4864 -0.5376 -0.1885
  609MOL0     H84018   5.455  11.175   1.445 -0.3365  0.6328 -2.1307
  609MOL0     H84019   5.454  11.010   1.382  1.4413 -0.4938 -0.3654
  609MOL0     H84020   5.677  11.135   1.556  0.0087  0.1117 -0.2266
  609MOL0     H84021   5.692  11.124   1.386  2.4786  1.4850  1.5953
  609MOL0     H84022   4.541  11.166   1.380 -0.7332  0.2531 -0.4350
  609MOL0     H84023   4.303  11.116   1.461 -0.0021 -1.4345  0.4901
  609MOL0     H84024   4.107  10.956   1.858 -0.3140 -0.6574  1.0461
  609MOL0     H84025   3.890  10.822   1.895  1.6530  0.5309  0.8269
  609MOL0     H84026   2.166  11.144   2.210 -0.2510 -0.4639  0.2061
  609MOL0     H84027   1.934  11.065   2.262 -3.4210 -0.9742 -1.1990
  609MOL0     H84028   1.488  10.994   2.026  1.0237  0.2273  0.2687
  609MOL0     H84029   1.287  10.860   2.057 -0.5556 -0.2079  0.6753
  609MOL0     H84030   1.048  10.642   2.213 -1.4230 -0.6610 -2.0903
  609MOL0     H84031   1.106  10.755   2.090 -0.7288 -2.8365 -2.2469
  609MOL0     H84032   1.236  10.490   2.159 -0.7965 -1.3366 -0.9021
  609MOL0     H84033   1.279  10.586   2.019  0.9023 -2.5376 -0.1589
  609MOL0     H84034   0.994  10.485   2.061  0.9843  2.4343  1.5370
  609MOL0     H84035   1.061  10.550   1.920  0.5898  1.8857  0.7609
  609MOL0     H84036   1.185  10.340   1.876 -1.3619 -3.6533 -0.1003
  609MOL0     H84037   1.027  10.290   1.918 -2.0374  1.1885  1.4361
  609MOL0     H84038   1.289  10.107   2.201  1.2672 -2.4430 -3.4673
  609MOL0     H84039   1.368  10.795   2.460 -1.1699  0.6129 -0.4016
  609MOL0     H84040   1.557  10.899   2.579 -0.0239  1.6983  1.4673
  609MOL0     H84041   1.694  10.935   2.471 -0.6757 -1.8082  0.9485
  609MOL0     H84042   1.569  11.060   2.522 -2.0883 -0.5399 -1.5808
  610MOL0     O84043   7.582   8.371   8.726  0.1361 -0.1109 -0.3756
  610MOL0     C84044   7.470   8.326   8.738  0.3173  0.4126 -0.5902
  610MOL0     O84045   7.433   8.201   8.702  0.6372 -0.4618  0.0651
  610MOL0     C84046   7.520   8.101   8.741  0.4348 -1.3012  0.3555
  610MOL0     C84047   7.504   8.015   8.848  0.8459 -0.3890 -0.4754
  610MOL0     C84048   7.592   7.907   8.882  0.4841 -0.4013 -0.1677
  610MOL0     C84049   7.710   7.896   8.808 -0.2736  0.6080  1.0320
  610MOL0     O84050   7.822   7.813   8.825  0.1495  0.2021  0.8375
  610MOL0     C84051   7.826   7.740   8.953  0.3017 -0.0023 -0.4122
  610MOL0     C84052   7.962   7.668   8.965 -0.1429  0.2912 -0.3420
  610MOL0     C84053   7.976   7.607   9.108  0.2929  0.3297 -0.4997
  610MOL0     C84054   8.110   7.549   9.138 -0.0857 -0.5450 -0.4282
  610MOL0     C84055   8.139   7.431   9.052 -0.1476  0.2337 -0.1356
  610MOL0     C84056   8.294   7.417   9.038 -0.0922 -0.3591 -0.8817
  610MOL0     C84057   8.364   7.408   9.171  0.3434 -0.0213  0.2511
  610MOL0     C84058   8.507   7.389   9.155 -0.7383  0.8287  0.1510
  610MOL0     N84059   8.584   7.391   9.278 -0.0995  0.2783 -0.0847
  610MOL0     C84060   8.607   7.280   9.361 -0.1224  0.6765 -0.4816
  610MOL0     C84061   8.672   7.329   9.466 -0.3796 -0.5441 -0.2160
  610MOL0     C84062   8.735   7.263   9.586  0.4255  0.3862  0.3063
  610MOL0     C84063   8.741   7.358   9.707 -0.6731  0.1787 -0.3953
  610MOL0     C84064   8.771   7.281   9.842  0.1245  0.8425 -0.3382
  610MOL0     C84065   8.886   7.182   9.835 -0.9125 -0.7638  0.1308
  610MOL0     O84066   9.000   7.245   9.766 -0.7234  0.3720 -0.5269
  610MOL0     C84067   9.103   7.172   9.727  0.2568 -0.1491 -0.4143
  610MOL0     C84068   9.122   7.036   9.766 -0.4626  0.4368 -0.6504
  610MOL0     C84069   9.234   6.962   9.719  1.5151 -0.2571 -0.2290
  610MOL0     C84070   9.237   6.815   9.769 -0.0134  0.6307  1.2010
  610MOL0     C84071   9.326   7.023   9.632 -0.4889 -0.6189  0.7910
  610MOL0     C84072   9.442   6.945   9.577 -0.8290 -1.3972  0.3264
  610MOL0     O84073   9.514   6.866   9.655  0.2303  0.2455 -0.3628
  610MOL0     C84074   9.629   6.814   9.607 -0.1370  0.2336  0.0755
  610MOL0     C84075   9.637   6.746   9.482 -0.6954 -0.5709 -0.8102
  610MOL0     C84076   9.759   6.694   9.444  0.1809 -1.3525  0.5887
  610MOL0     C84077   9.876   6.715   9.515  0.1413  0.9927 -0.5166
  610MOL0     O84078   9.990   6.658   9.461 -0.4209  0.5283 -0.0033
  610MOL0     C84079  10.080   6.587   9.544  0.4563  0.4484 -0.1671
  610MOL0     C84080  10.188   6.541   9.456  0.1209 -0.1856  0.4324
  610MOL0     C84081  10.272   6.422   9.520  0.1563 -0.4995  0.3004
  610MOL0     C84082  10.410   6.469   9.563  0.0560 -0.5869 -0.1601
  610MOL0     C84083  10.473   6.363   9.657 -0.5916  0.5053  0.4374
  610MOL0     C84084  10.616   6.411   9.695  0.8524  0.0095 -0.5444
  610MOL0     C84085  10.699   6.317   9.782 -0.6555  0.4540  0.8054
  610MOL0     C84086  10.821   6.394   9.833  0.1055  0.3035 -0.3986
  610MOL0    Cl84087  10.953   6.276   9.870 -0.8994 -0.1400 -0.2640
  610MOL0     C84088   9.864   6.784   9.639 -0.2581  0.5019 -0.6933
  610MOL0     C84089   9.736   6.825   9.689 -0.6035  0.1972 -0.7019
  610MOL0     O84090   9.464   6.972   9.457 -0.6223 -0.4343 -0.2083
  610MOL0     C84091   9.306   7.156   9.593 -0.0816  0.4163 -0.2826
  610MOL0     C84092   9.195   7.227   9.640 -0.0063 -0.1414 -0.6270
  610MOL0     N84093   8.679   7.467   9.451  0.5566  0.1030  0.0297
  610MOL0     N84094   8.641   7.502   9.338  0.4395  0.6941  1.1991
  610MOL0     C84095   7.719   7.979   8.702 -0.2959 -0.6477 -0.3131
  610MOL0     C84096   7.636   8.085   8.673  0.4537 -0.4866  0.8713
  610MOL0     C84097   7.361   8.418   8.778 -1.2461  0.2022 -0.3576
  610MOL0     C84098   7.396   8.526   8.860 -0.3068 -0.2586  0.2962
  610MOL0     C84099   7.300   8.621   8.885 -0.2073 -0.7596  0.3849
  610MOL0     C84100   7.177   8.619   8.824  0.7302  0.2996 -0.0886
  610MOL0     O84101   7.084   8.719   8.851  0.4096 -0.7853  0.2397
  610MOL0     C84102   6.946   8.690   8.815 -0.1183 -0.1673  0.3840
  610MOL0     C84103   6.852   8.795   8.885 -0.3551  0.4031  0.4207
  610MOL0     C84104   6.711   8.791   8.813 -0.7922 -0.8492 -0.4856
  610MOL0     C84105   6.628   8.905   8.874  0.3399  0.4567 -0.1110
  610MOL0     C84106   6.493   8.890   8.813 -0.2404  0.3165 -0.3688
  610MOL0     C84107   6.380   8.889   8.759  0.8478  0.7281 -0.2909
  610MOL0     C84108   7.143   8.507   8.740  0.0226 -0.1549 -0.4155
  610MOL0     C84109   7.235   8.411   8.713 -1.0570  0.3037 -0.2657
  610MOL0     C84110   7.194   8.308   8.604  0.0328 -0.0060 -0.9024
  610MOL0     H84111   7.405   8.014   8.892  1.3679  0.0054  0.7579
  610MOL0     H84112   7.563   7.834   8.957  1.4851 -0.5147  0.1338
  610MOL0     H84113   7.745   7.668   8.966  0.1685 -0.0409 -1.3843
  610MOL0     H84114   7.817   7.815   9.032  1.5721  1.0136 -1.1829
  610MOL0     H84115   7.974   7.601   8.879 -0.8804  2.9982 -2.7294
  610MOL0     H84116   8.036   7.749   8.964 -0.2895  0.5816  2.8003
  610MOL0     H84117   7.972   7.692   9.178  0.3330  0.6748 -0.9146
  610MOL0     H84118   7.893   7.537   9.121  1.6864 -1.2798  0.0590
  610MOL0     H84119   8.186   7.625   9.122  0.4641 -1.4481 -2.4238
  610MOL0     H84120   8.106   7.509   9.240 -0.0862 -1.5850 -0.8208
  610MOL0     H84121   8.101   7.440   8.949 -1.5389 -1.8249  0.1462
  610MOL0     H84122   8.099   7.349   9.111  1.0147  0.6204  1.2381
  610MOL0     H84123   8.301   7.323   8.982 -0.8900  0.1476 -1.8523
  610MOL0     H84124   8.346   7.492   8.979 -0.0264 -0.1166 -0.5216
  610MOL0     H84125   8.338   7.331   9.244  0.6331 -0.3620 -0.0016
  610MOL0     H84126   8.341   7.504   9.218  2.4924  0.2915  0.7665
  610MOL0     H84127   8.514   7.295   9.100 -0.4176  1.1557 -0.3820
  610MOL0     H84128   8.534   7.480   9.100 -2.1410  4.3758  4.7483
  610MOL0     H84129   8.583   7.176   9.342 -0.1683  0.4212  0.8581
  610MOL0     H84130   8.833   7.224   9.557 -0.1239 -2.5169  2.0119
  610MOL0     H84131   8.686   7.170   9.614 -1.4778  1.1316 -0.3873
  610MOL0     H84132   8.815   7.434   9.683 -1.3198  0.4167 -1.7372
  610MOL0     H84133   8.647   7.412   9.708 -0.5780  0.3354  0.3972
  610MOL0     H84134   8.779   7.357   9.920  0.2769  1.0574 -0.5608
  610MOL0     H84135   8.684   7.223   9.876  0.1345 -0.0445 -1.7355
  610MOL0     H84136   8.903   7.151   9.939  0.0839 -0.0446  0.1981
  610MOL0     H84137   8.858   7.091   9.780  2.0884 -0.2763 -2.5010
  610MOL0     H84138   9.063   6.983   9.839 -0.1156  0.2414 -0.5082
  610MOL0     H84139   9.146   6.782   9.819  0.8931 -2.4372  0.9985
  610MOL0     H84140   9.324   6.794   9.832  0.3926 -0.6455  0.2612
  610MOL0     H84141   9.240   6.753   9.679 -0.8455 -3.3290  3.6570
  610MOL0     H84142   9.540   6.728   9.437 -2.3430  1.1911  1.8055
  610MOL0     H84143   9.773   6.639   9.351  1.2120 -0.9689  0.4979
  610MOL0     H84144  10.127   6.653   9.617  2.7068 -0.8656 -0.3505
  610MOL0     H84145  10.031   6.497   9.584 -0.1622  0.5070 -0.7740
  610MOL0     H84146  10.139   6.506   9.365 -1.4394  1.0004  0.7642
  610MOL0     H84147  10.256   6.623   9.431 -0.7106  0.8065  1.2609
  610MOL0     H84148  10.279   6.352   9.436 -0.2878 -1.6720  1.2162
  610MOL0     H84149  10.220   6.373   9.603  1.1514  0.3648  1.4724
  610MOL0     H84150  10.407   6.568   9.609 -1.6661 -0.7422  0.1610
  610MOL0     H84151  10.467   6.481   9.470 -3.0053  0.6848 -2.0462
  610MOL0     H84152  10.398   6.357   9.738 -0.3145  2.7226  0.9176
  610MOL0     H84153  10.486   6.266   9.608  0.2539 -0.4363  2.3950
  610MOL0     H84154  10.602   6.507   9.745 -0.4223 -0.5467  0.2202
  610MOL0     H84155  10.669   6.427   9.600 -0.4541  1.0491 -1.1245
  610MOL0     H84156  10.734   6.226   9.733  0.1660 -0.6842  3.3632
  610MOL0     H84157  10.648   6.279   9.871 -1.5720  0.1053  0.1479
  610MOL0     H84158  10.792   6.448   9.923  1.3664 -0.3793  0.4404
  610MOL0     H84159  10.867   6.458   9.757  1.9016 -2.1119 -1.4974
  610MOL0     H84160   9.949   6.789   9.706 -1.3726  0.8552  0.7364
  610MOL0     H84161   9.724   6.884   9.779  1.3737  0.1904 -0.3909
  610MOL0     H84162   9.377   7.207   9.529  2.1809 -2.1239  0.0655
  610MOL0     H84163   9.169   7.328   9.611 -2.2891 -0.4318  0.2021
  610MOL0     H84164   7.814   7.969   8.649 -0.1319 -1.1584  0.0640
  610MOL0     H84165   7.669   8.147   8.590 -2.7103  0.2427 -0.0184
  610MOL0     H84166   7.497   8.533   8.900 -0.3725 -0.7212  0.5498
  610MOL0     H84167   7.327   8.709   8.943  2.2007 -0.2410 -1.3260
  610MOL0     H84168   6.929   8.703   8.707 -0.2637 -1.7337  0.1991
  610MOL0     H84169   6.911   8.588   8.833  0.2816 -0.3488  0.1354
  610MOL0     H84170   6.885   8.899   8.882 -2.5188  1.1374 -1.9792
  610MOL0     H84171   6.842   8.779   8.993  0.3354 -1.3538  0.2728
  610MOL0     H84172   6.717   8.808   8.705  0.5325 -1.4461 -0.5245
  610MOL0     H84173   6.674   8.691   8.837  0.9912 -1.1173  1.3981
  610MOL0     H84174   6.667   9.004   8.849  0.6736  1.3153  3.3782
  610MOL0     H84175   6.625   8.906   8.983  1.5484  1.2470 -0.0657
  610MOL0     H84176   6.286   8.892   8.708  0.4642  0.0133  0.3475
  610MOL0     H84177   7.046   8.488   8.694  0.7136 -2.4094 -1.0987
  610MOL0     H84178   7.280   8.267   8.550  1.2755 -0.3661  1.2308
  610MOL0     H84179   7.139   8.224   8.647  0.4122 -0.4411 -1.2512
  610MOL0     H84180   7.130   8.362   8.534 -0.2666 -0.0996 -0.7006
  611MOL0     O84181   5.752   2.663   1.289 -0.9675 -0.0479  0.3556
  611MOL0     C84182   5.733   2.551   1.344 -0.4097 -0.0502  0.3305
  611MOL0     O84183   5.829   2.470   1.395 -0.2698  0.5185 -0.6200
  611MOL0     C84184   5.962   2.502   1.386  0.5388  0.9313  0.4785
  611MOL0     C84185   6.050   2.481   1.495  0.5538 -0.3588  0.0444
  611MOL0     C84186   6.181   2.495   1.484 -0.2414  0.0438 -0.9840
  611MOL0     C84187   6.236   2.545   1.367  0.0107 -0.4669  0.6249
  611MOL0     O84188   6.368   2.568   1.344 -0.7153 -0.2193  0.0966
  611MOL0     C84189   6.425   2.646   1.444 -0.8869 -0.0038  0.6735
  611MOL0     C84190   6.577   2.640   1.424  0.7066 -0.3474  0.1003
  611MOL0     C84191   6.616   2.673   1.276 -0.2262 -0.6225  0.1706
  611MOL0     C84192   6.761   2.720   1.275 -0.2332 -0.2825 -0.1682
  611MOL0     C84193   6.803   2.772   1.134 -0.1186  0.3675 -0.2329
  611MOL0     C84194   6.926   2.859   1.134 -0.4082  0.2954 -0.4449
  611MOL0     C84195   7.052   2.782   1.150 -0.9304  0.0146 -0.0559
  611MOL0     C84196   7.081   2.670   1.053  0.4144 -0.7397 -0.1453
  611MOL0     N84197   7.223   2.648   1.037  0.2910  0.0873  0.5472
  611MOL0     C84198   7.302   2.568   1.113  0.1066 -0.7157  0.2867
  611MOL0     C84199   7.416   2.550   1.045 -0.7432  0.3921 -0.5972
  611MOL0     C84200   7.535   2.464   1.085 -0.4067  1.3123  0.4890
  611MOL0     C84201   7.654   2.548   1.139 -0.1739  0.2947  0.4668
  611MOL0     C84202   7.782   2.464   1.137 -0.3995 -0.5603  0.9472
  611MOL0     C84203   7.901   2.546   1.190 -0.1996  1.1322  0.0126
  611MOL0     O84204   8.026   2.481   1.179 -0.2986  0.0686 -0.1159
  611MOL0     C84205   8.140   2.544   1.234  0.5515 -0.2481 -0.3381
  611MOL0     C84206   8.160   2.675   1.251 -0.3875  0.2178 -1.2476
  611MOL0     C84207   8.284   2.726   1.289 -0.4006 -0.0816 -0.2069
  611MOL0     C84208   8.283   2.870   1.330 -0.0183  0.2873  0.1995
  611MOL0     C84209   8.394   2.641   1.310 -0.0601 -1.0462 -0.2592
  611MOL0     C84210   8.529   2.685   1.333 -0.0932 -0.0105 -0.4160
  611MOL0     O84211   8.626   2.590   1.355 -0.2548 -0.8198 -0.0251
  611MOL0     C84212   8.756   2.618   1.393  0.0686  0.3406 -0.1087
  611MOL0     C84213   8.856   2.516   1.373  0.8225 -0.3272 -0.4157
  611MOL0     C84214   8.996   2.533   1.388  0.7685  0.6582 -0.6805
  611MOL0     C84215   9.043   2.649   1.448  0.2708  0.3918  0.7535
  611MOL0     O84216   9.174   2.681   1.475  0.3563  0.2964  0.6525
  611MOL0     C84217   9.274   2.586   1.460 -0.2667 -0.4815 -0.5794
  611MOL0     C84218   9.383   2.619   1.563  0.2220 -0.2002 -0.1816
  611MOL0     C84219   9.514   2.524   1.565 -0.6308 -0.4394 -0.5530
  611MOL0     C84220   9.592   2.527   1.437 -0.0711  0.9095 -0.6961
  611MOL0     C84221   9.735   2.467   1.449  0.6433 -0.0698  0.0227
  611MOL0     C84222   9.812   2.464   1.316 -0.8718 -0.2666 -0.9688
  611MOL0     C84223   9.953   2.421   1.346  0.2719 -0.4354  0.2183
  611MOL0     C84224  10.035   2.408   1.211  0.6285 -0.0190  0.5603
  611MOL0    Cl84225  10.039   2.565   1.115  0.3348 -0.3556  0.3700
  611MOL0     C84226   8.951   2.748   1.475 -0.0482  0.3515 -0.2955
  611MOL0     C84227   8.816   2.733   1.455  0.7013  0.2974  0.2387
  611MOL0     O84228   8.553   2.806   1.313  0.9548 -0.1023  0.0304
  611MOL0     C84229   8.377   2.510   1.281  0.0520  0.4212  0.0775
  611MOL0     C84230   8.250   2.468   1.249 -0.1646  0.8649  0.2453
  611MOL0     N84231   7.408   2.615   0.927 -0.8681  0.8027 -0.2990
  611MOL0     N84232   7.295   2.678   0.928  0.0018 -0.6698 -0.8163
  611MOL0     C84233   6.153   2.563   1.258  0.5919  0.0708  0.1839
  611MOL0     C84234   6.015   2.536   1.262 -1.1146 -0.5128  0.6075
  611MOL0     C84235   5.590   2.514   1.345  0.3142 -0.4407 -0.8737
  611MOL0     C84236   5.557   2.405   1.422  0.2144 -0.0222  0.6547
  611MOL0     C84237   5.423   2.368   1.440 -1.0334 -0.0399 -0.7050
  611MOL0     C84238   5.315   2.427   1.372 -0.6155  0.4825 -0.6304
  611MOL0     O84239   5.190   2.373   1.395 -0.3371 -0.1652 -0.3860
  611MOL0     C84240   5.073   2.459   1.378 -0.0285 -0.7789 -0.2013
  611MOL0     C84241   4.935   2.378   1.397  0.1008  0.6747  0.7391
  611MOL0     C84242   4.943   2.286   1.524  0.5974  0.6223 -0.5153
  611MOL0     C84243   4.805   2.212   1.540 -0.4651  0.1683  0.0436
  611MOL0     C84244   4.796   2.116   1.651  0.7877 -0.2387  0.0487
  611MOL0     C84245   4.791   2.036   1.744 -0.2690 -0.6787  0.5444
  611MOL0     C84246   5.347   2.530   1.289 -0.0627 -0.0446  0.2668
  611MOL0     C84247   5.476   2.577   1.277 -0.2407  0.1147  0.1036
  611MOL0     C84248   5.492   2.692   1.188 -0.4739 -0.5998  0.3664
  611MOL0     H84249   6.004   2.437   1.583  1.3110 -0.8407  0.2007
  611MOL0     H84250   6.244   2.471   1.569 -1.7833 -0.4816  0.0656
  611MOL0     H84251   6.401   2.601   1.540  0.3029 -1.2778  0.4178
  611MOL0     H84252   6.376   2.744   1.441 -1.5833 -0.3661 -0.1298
  611MOL0     H84253   6.628   2.712   1.489 -0.0206  1.4086 -1.1701
  611MOL0     H84254   6.618   2.543   1.454  1.5636  0.6721  2.4574
  611MOL0     H84255   6.611   2.583   1.215 -0.9279 -1.5840  1.5878
  611MOL0     H84256   6.561   2.761   1.242 -2.7889 -2.4499 -0.6608
  611MOL0     H84257   6.768   2.800   1.349  1.9484 -1.3069  0.8347
  611MOL0     H84258   6.836   2.646   1.305  0.2481 -0.0173 -0.6951
  611MOL0     H84259   6.722   2.822   1.081  1.0911  0.3075 -2.2644
  611MOL0     H84260   6.823   2.678   1.082 -0.0007 -0.7164  1.7149
  611MOL0     H84261   6.931   2.902   1.033 -0.3252  1.2480 -0.0434
  611MOL0     H84262   6.918   2.935   1.212 -1.6734  1.2560 -1.4424
  611MOL0     H84263   7.051   2.735   1.249 -0.2481 -2.3736 -1.0991
  611MOL0     H84264   7.130   2.857   1.160  0.9066 -1.4985 -1.9386
  611MOL0     H84265   7.034   2.576   1.082 -2.0028  0.1899 -0.8129
  611MOL0     H84266   7.031   2.692   0.958 -1.5729 -1.6716  0.6254
  611MOL0     H84267   7.264   2.527   1.206  1.9545 -3.6294 -0.1191
  611MOL0     H84268   7.568   2.404   0.999 -1.9945 -0.3140  0.9610
  611MOL0     H84269   7.499   2.396   1.163 -1.3735 -0.4039 -1.3385
  611MOL0     H84270   7.664   2.641   1.082 -0.9390  0.8748  1.2393
  611MOL0     H84271   7.625   2.562   1.244 -0.5406 -1.4863  0.6211
  611MOL0     H84272   7.771   2.381   1.207  4.8685 -1.1641  1.4278
  611MOL0     H84273   7.804   2.421   1.039 -0.3993 -1.5180  1.3594
  611MOL0     H84274   7.899   2.635   1.126  2.3726  1.7070  0.6296
  611MOL0     H84275   7.891   2.582   1.293 -0.4188  4.9727 -1.1774
  611MOL0     H84276   8.071   2.737   1.239  1.0076  3.1517  1.8582
  611MOL0     H84277   8.341   2.933   1.262 -1.9068  1.9899  0.0468
  611MOL0     H84278   8.325   2.886   1.429  1.9183  0.7463 -0.6475
  611MOL0     H84279   8.180   2.907   1.335 -0.0087  0.3289  0.0963
  611MOL0     H84280   8.824   2.420   1.332  0.3576 -0.0943 -0.5945
  611MOL0     H84281   9.066   2.458   1.353 -0.4392  0.4226 -2.7503
  611MOL0     H84282   9.239   2.484   1.480 -0.2249 -0.5590 -0.8942
  611MOL0     H84283   9.321   2.596   1.362 -0.1428 -2.2305 -0.7393
  611MOL0     H84284   9.403   2.726   1.569 -2.6265  0.3703  0.5225
  611MOL0     H84285   9.343   2.593   1.662  0.1403 -0.4748 -0.2845
  611MOL0     H84286   9.501   2.422   1.602 -1.9012  0.1242  0.6283
  611MOL0     H84287   9.587   2.564   1.636  0.3720 -2.2199 -0.5270
  611MOL0     H84288   9.609   2.628   1.400 -0.1325  1.4500  0.6698
  611MOL0     H84289   9.537   2.476   1.358 -3.9803  2.1157  0.9752
  611MOL0     H84290   9.792   2.521   1.525  0.8361 -0.4963  0.1806
  611MOL0     H84291   9.732   2.363   1.481  1.6309  0.6283  2.6350
  611MOL0     H84292   9.817   2.568   1.280 -3.7518 -0.0470 -0.9038
  611MOL0     H84293   9.775   2.399   1.237  0.3532 -0.7487 -1.1793
  611MOL0     H84294   9.944   2.328   1.403 -0.9930 -2.4829 -3.0497
  611MOL0     H84295  10.006   2.492   1.410 -2.4051  0.7301  1.2846
  611MOL0     H84296   9.980   2.348   1.138  0.4963 -1.8863  2.0950
  611MOL0     H84297  10.134   2.366   1.230 -0.1087 -3.5709 -2.3854
  611MOL0     H84298   8.989   2.836   1.526 -0.8158 -0.9494  2.7635
  611MOL0     H84299   8.749   2.816   1.477  0.7733  0.3118  0.4036
  611MOL0     H84300   8.451   2.438   1.312  0.9120  1.3377  0.2248
  611MOL0     H84301   8.239   2.361   1.260  1.0112  0.7978  1.0151
  611MOL0     H84302   6.204   2.605   1.171  0.6176  1.0826  0.6769
  611MOL0     H84303   5.948   2.531   1.177  0.9561 -1.8718 -1.0449
  611MOL0     H84304   5.636   2.345   1.466  0.2334 -3.0068 -3.0042
  611MOL0     H84305   5.398   2.283   1.503 -3.0348 -0.8611 -2.4849
  611MOL0     H84306   5.087   2.547   1.441  2.9872 -1.0016 -0.4460
  611MOL0     H84307   5.078   2.487   1.272  1.8247  1.4112  0.3849
  611MOL0     H84308   4.926   2.325   1.302  1.9912 -0.7318  1.2713
  611MOL0     H84309   4.852   2.445   1.422 -0.6847  0.3424 -0.8894
  611MOL0     H84310   5.026   2.216   1.530 -1.2337 -1.6002  0.2037
  611MOL0     H84311   4.959   2.358   1.605 -3.9343 -0.3608  1.5564
  611MOL0     H84312   4.791   2.147   1.453  0.8014 -0.4328  0.2566
  611MOL0     H84313   4.729   2.290   1.547 -0.8538 -0.0627 -1.3501
  611MOL0     H84314   4.788   1.971   1.829  0.6454  1.9181  2.6942
  611MOL0     H84315   5.264   2.575   1.236 -0.0967 -0.8452 -0.3674
  611MOL0     H84316   5.404   2.740   1.143  1.4393  1.3713 -1.4933
  611MOL0     H84317   5.540   2.775   1.239  3.2702 -2.0426 -0.5088
  611MOL0     H84318   5.556   2.660   1.105  2.6713  2.3756  1.4590
  612MOL0     O84319   2.296   3.845   4.833  0.4203  0.1166  0.1769
  612MOL0     C84320   2.229   3.742   4.848  0.7876 -0.1265 -0.2634
  612MOL0     O84321   2.147   3.706   4.752 -0.7457  0.0037 -0.6456
  612MOL0     C84322   2.112   3.797   4.655 -0.3666 -0.6562  0.4098
  612MOL0     C84323   2.036   3.915   4.679  0.2786 -0.7584 -0.3146
  612MOL0     C84324   1.999   4.002   4.578  1.0012  0.5311 -0.3212
  612MOL0     C84325   2.027   3.966   4.441  0.1241  0.5387 -0.1946
  612MOL0     O84326   1.987   4.030   4.329  0.3793 -0.2295 -0.8923
  612MOL0     C84327   1.888   4.130   4.359  0.5462 -0.6262  0.6298
  612MOL0     C84328   1.841   4.203   4.234  0.8331 -0.4769 -0.0595
  612MOL0     C84329   1.939   4.318   4.183 -0.1984 -0.2036  0.0403
  612MOL0     C84330   1.878   4.395   4.069  0.3682 -0.2636 -0.3438
  612MOL0     C84331   1.955   4.518   4.023 -0.3449 -0.2049  0.8817
  612MOL0     C84332   1.874   4.611   3.934 -0.9717 -0.5557 -0.1626
  612MOL0     C84333   1.966   4.725   3.896  0.0134 -0.2620  0.9948
  612MOL0     C84334   1.884   4.845   3.877 -0.1038 -0.8863  0.0712
  612MOL0     N84335   1.763   4.851   3.794  0.5678  0.1088  0.4051
  612MOL0     C84336   1.645   4.767   3.791  0.6395 -0.4988 -0.8640
  612MOL0     C84337   1.559   4.834   3.710 -0.9131 -0.0164 -1.0003
  612MOL0     C84338   1.421   4.787   3.689 -0.0523  0.3283  0.2128
  612MOL0     C84339   1.315   4.899   3.717  0.4672 -0.1173  0.0282
  612MOL0     C84340   1.269   4.903   3.865 -0.0584  0.3421 -0.3116
  612MOL0     C84341   1.386   4.963   3.951  0.7190  0.2882 -0.1980
  612MOL0     O84342   1.429   5.090   3.918  0.0022 -0.5898  0.3984
  612MOL0     C84343   1.514   5.156   4.005 -0.2372  0.0987 -0.6014
  612MOL0     C84344   1.535   5.289   3.992  0.5608 -0.0909  0.0049
  612MOL0     C84345   1.638   5.356   4.062  1.0238  0.0520 -0.3893
  612MOL0     C84346   1.673   5.492   4.013  0.7824  0.4281 -0.4858
  612MOL0     C84347   1.711   5.286   4.168  0.3412  0.7045  0.3556
  612MOL0     C84348   1.810   5.347   4.257 -0.1704 -0.2013  0.6262
  612MOL0     O84349   1.795   5.483   4.261  0.7756 -0.2168 -0.0127
  612MOL0     C84350   1.860   5.555   4.358  1.1287 -0.1460 -0.2719
  612MOL0     C84351   1.986   5.612   4.338  0.3392 -0.5011  0.1083
  612MOL0     C84352   2.060   5.682   4.433 -0.3298  0.4713 -0.4574
  612MOL0     C84353   2.004   5.691   4.565  0.0945 -0.2722  0.3318
  612MOL0     O84354   2.070   5.762   4.659  0.2683  0.7725 -0.2218
  612MOL0     C84355   2.114   5.895   4.639 -0.7822 -0.0188 -0.2367
  612MOL0     C84356   2.059   5.963   4.766 -0.2211  0.4926 -0.5908
  612MOL0     C84357   2.058   6.122   4.756  0.3204  0.1206  0.5242
  612MOL0     C84358   2.208   6.165   4.746  0.4044 -0.3921 -0.2989
  612MOL0     C84359   2.230   6.309   4.799 -0.2984 -0.8825  0.2919
  612MOL0     C84360   2.375   6.360   4.761 -0.3461 -0.4960 -0.2133
  612MOL0     C84361   2.408   6.500   4.805  0.2177 -0.3614  0.1162
  612MOL0     C84362   2.546   6.543   4.771  0.2111 -0.5250 -0.0286
  612MOL0    Cl84363   2.667   6.440   4.838 -0.2577 -0.0946  0.3692
  612MOL0     C84364   1.879   5.622   4.586 -0.5375  0.3775 -1.8250
  612MOL0     C84365   1.821   5.549   4.491 -0.1000  0.1094 -0.1139
  612MOL0     O84366   1.870   5.276   4.337 -0.4499  0.2149  0.1234
  612MOL0     C84367   1.689   5.146   4.181 -0.2989 -0.1074  0.1143
  612MOL0     C84368   1.598   5.083   4.093  0.1133  0.4555 -0.6402
  612MOL0     N84369   1.619   4.946   3.661  0.6855 -0.1350 -0.1139
  612MOL0     N84370   1.740   4.953   3.708  0.2066 -0.1547  0.3399
  612MOL0     C84371   2.107   3.854   4.420 -0.4685  0.1579  0.2967
  612MOL0     C84372   2.148   3.775   4.524  0.2563 -0.0462  0.2861
  612MOL0     C84373   2.261   3.652   4.954  0.4710 -0.4128  0.3124
  612MOL0     C84374   2.158   3.569   5.010 -0.3852  0.1603  0.5408
  612MOL0     C84375   2.177   3.481   5.112 -0.1963  0.3186 -0.3968
  612MOL0     C84376   2.312   3.477   5.171 -0.6409  0.6527 -0.1184
  612MOL0     O84377   2.324   3.392   5.271 -0.4752  0.1599  0.1546
  612MOL0     C84378   2.452   3.331   5.294  0.5806 -0.4938 -0.4694
  612MOL0     C84379   2.455   3.180   5.293 -0.3069 -0.1469 -0.2658
  612MOL0     C84380   2.309   3.119   5.283  0.5449  0.2118 -0.8903
  612MOL0     C84381   2.229   3.136   5.414  0.1933  0.5807  0.3653
  612MOL0     C84382   2.277   3.044   5.527  1.3554 -0.5107  0.7155
  612MOL0     C84383   2.312   2.970   5.620 -0.1101  0.0002 -0.1090
  612MOL0     C84384   2.414   3.555   5.111 -0.5371 -0.3985  0.5073
  612MOL0     C84385   2.389   3.646   5.006  0.0016 -0.7809 -0.0286
  612MOL0     C84386   2.515   3.722   4.953  0.1817 -0.4484  0.3626
  612MOL0     H84387   1.991   3.928   4.777 -1.5981 -0.3956 -1.1664
  612MOL0     H84388   1.931   4.084   4.600  0.0129 -0.4063  0.2464
  612MOL0     H84389   1.918   4.212   4.425  0.0619  0.3173 -0.2916
  612MOL0     H84390   1.803   4.083   4.409  0.1545  0.8992  1.4842
  612MOL0     H84391   1.822   4.127   4.158  0.9078 -1.6236  1.0294
  612MOL0     H84392   1.744   4.249   4.254  0.4825 -1.9275  1.9780
  612MOL0     H84393   1.936   4.385   4.269 -2.6281 -0.9223  0.6049
  612MOL0     H84394   2.034   4.276   4.149 -0.1252 -0.9049  1.0641
  612MOL0     H84395   1.872   4.343   3.973  0.7062  2.1639 -1.7866
  612MOL0     H84396   1.780   4.431   4.101  0.0579 -1.9006  0.6201
  612MOL0     H84397   2.041   4.494   3.960  1.6088  0.7610  3.0642
  612MOL0     H84398   1.984   4.573   4.113 -1.5519  2.3461 -0.1663
  612MOL0     H84399   1.845   4.559   3.842  2.1161 -0.6788 -1.1846
  612MOL0     H84400   1.788   4.640   3.995  0.1311  0.8233  0.8126
  612MOL0     H84401   2.022   4.712   3.803  3.3486 -1.9926  3.0560
  612MOL0     H84402   2.043   4.751   3.969  1.4021 -0.0967 -0.4894
  612MOL0     H84403   1.861   4.887   3.975 -1.2875  0.4100 -0.7264
  612MOL0     H84404   1.950   4.918   3.829 -3.7904  2.4060 -0.4471
  612MOL0     H84405   1.635   4.679   3.852 -0.8429  0.8202  0.9148
  612MOL0     H84406   1.398   4.696   3.745 -2.0894  0.0438 -0.9931
  612MOL0     H84407   1.421   4.763   3.582 -1.4826 -3.7417  0.9659
  612MOL0     H84408   1.360   4.992   3.683 -2.0954  0.7780 -1.1236
  612MOL0     H84409   1.223   4.876   3.662 -0.6709  1.9185  0.9614
  612MOL0     H84410   1.195   4.983   3.857 -0.6319 -0.2654 -1.1818
  612MOL0     H84411   1.215   4.816   3.901 -0.5188 -1.0233 -3.9445
  612MOL0     H84412   1.349   4.971   4.054  0.2592  0.3505 -0.3644
  612MOL0     H84413   1.467   4.890   3.957 -0.4796 -0.9672  2.9277
  612MOL0     H84414   1.475   5.348   3.923  2.8909  0.9922 -1.1908
  612MOL0     H84415   1.625   5.565   4.078  2.3090 -0.9822  2.4142
  612MOL0     H84416   1.659   5.488   3.904  1.9242 -3.9356 -0.6626
  612MOL0     H84417   1.781   5.503   4.021  0.8362 -0.4105 -0.0040
  612MOL0     H84418   2.022   5.605   4.236  2.6168  1.7581  0.6490
  612MOL0     H84419   2.155   5.726   4.402 -0.1942  1.6101  1.4392
  612MOL0     H84420   2.222   5.909   4.651 -1.2710  2.3294  2.4748
  612MOL0     H84421   2.077   5.948   4.551 -0.6292  3.2156  1.4655
  612MOL0     H84422   1.951   5.947   4.771 -0.1904 -0.0152 -1.3788
  612MOL0     H84423   2.118   5.940   4.855 -0.1312  2.9258  0.0525
  612MOL0     H84424   2.018   6.165   4.848 -0.4420  1.2254 -0.2902
  612MOL0     H84425   2.002   6.163   4.671 -1.4020  0.6828  1.8641
  612MOL0     H84426   2.235   6.160   4.640 -1.8333  0.2215 -0.9650
  612MOL0     H84427   2.273   6.098   4.803  2.6666  1.9776  0.1093
  612MOL0     H84428   2.149   6.371   4.759 -2.2785 -3.8738 -0.7006
  612MOL0     H84429   2.218   6.313   4.908 -1.0846 -1.8958  0.2680
  612MOL0     H84430   2.388   6.342   4.654 -2.9547 -2.9495 -0.2672
  612MOL0     H84431   2.442   6.287   4.807 -0.8068 -1.0027 -0.3267
  612MOL0     H84432   2.401   6.502   4.914  1.1661  1.3306  0.1806
  612MOL0     H84433   2.333   6.564   4.756  0.4141 -0.9219 -0.9306
  612MOL0     H84434   2.556   6.651   4.788  0.7777 -0.4861 -0.5670
  612MOL0     H84435   2.564   6.527   4.665  0.7115  1.0709 -0.2006
  612MOL0     H84436   1.828   5.635   4.681 -0.8968  0.6697 -2.0555
  612MOL0     H84437   1.723   5.506   4.507 -0.9533  1.8543 -0.4198
  612MOL0     H84438   1.753   5.083   4.241  2.0229 -0.7293 -2.7990
  612MOL0     H84439   1.583   4.976   4.095  1.4487  0.2254 -1.4422
  612MOL0     H84440   2.147   3.824   4.324 -0.2291 -2.0448  1.0062
  612MOL0     H84441   2.218   3.698   4.493  4.3119  2.9273  1.2172
  612MOL0     H84442   2.064   3.577   4.957 -0.3612 -0.3452  0.4173
  612MOL0     H84443   2.095   3.420   5.150 -2.9674  3.1040 -1.3916
  612MOL0     H84444   2.533   3.366   5.229  1.7636  0.6678  1.5283
  612MOL0     H84445   2.480   3.354   5.397 -1.5783 -3.5342  0.9777
  612MOL0     H84446   2.502   3.149   5.386 -1.1653  1.2707  0.6894
  612MOL0     H84447   2.518   3.150   5.209 -0.1584  2.8495 -1.3553
  612MOL0     H84448   2.258   3.153   5.192  1.8273  1.3242 -1.2374
  612MOL0     H84449   2.324   3.011   5.285  0.2971  0.1500  2.1997
  612MOL0     H84450   2.125   3.112   5.391  0.6273 -1.4604  0.2737
  612MOL0     H84451   2.245   3.235   5.456 -0.0079 -0.3549  2.8018
  612MOL0     H84452   2.346   2.912   5.703  1.4189  2.1448  0.8572
  612MOL0     H84453   2.513   3.563   5.155  0.1157 -1.0512 -0.7957
  612MOL0     H84454   2.608   3.688   4.999 -0.2354  1.4978  2.9335
  612MOL0     H84455   2.522   3.715   4.844 -4.1767 -0.8592 -0.0719
  612MOL0     H84456   2.510   3.830   4.973  1.3216  0.5189 -3.5463
  613MOL0     O84457   2.558  10.838   5.814  0.6907 -0.5953 -0.1685
  613MOL0     C84458   2.530  10.919   5.722 -0.3460 -0.2805  0.2963
  613MOL0     O84459   2.613  10.966   5.625 -0.1871  0.3549 -0.4545
  613MOL0     C84460   2.739  10.920   5.619 -0.1089  0.4214  0.0765
  613MOL0     C84461   2.844  11.008   5.619 -0.2871 -0.3716 -0.0833
  613MOL0     C84462   2.974  10.959   5.605 -0.2679 -0.6864 -0.4040
  613MOL0     C84463   3.006  10.821   5.585  0.4571  0.3528 -0.7750
  613MOL0     O84464   3.137  10.777   5.568 -0.1517  0.7902 -0.5604
  613MOL0     C84465   3.247  10.855   5.610  0.1775  0.0980  0.5348
  613MOL0     C84466   3.374  10.779   5.560  0.1440  0.0048 -0.4941
  613MOL0     C84467   3.487  10.879   5.527  0.2495 -0.7649 -0.1989
  613MOL0     C84468   3.593  10.813   5.460  0.1683 -0.0398  0.6948
  613MOL0     C84469   3.703  10.924   5.408  0.3635  0.6195 -0.6112
  613MOL0     C84470   3.814  10.851   5.338 -1.2809  1.2317 -0.5277
  613MOL0     C84471   3.906  10.788   5.441 -0.2737 -0.2388 -0.8826
  613MOL0     C84472   4.013  10.690   5.386 -0.5419  0.0376 -0.3514
  613MOL0     N84473   4.151  10.744   5.420 -0.2714 -0.8451  0.2391
  613MOL0     C84474   4.212  10.855   5.367 -0.4400 -1.3937  0.4947
  613MOL0     C84475   4.326  10.865   5.440 -0.2114 -0.6293 -0.5393
  613MOL0     C84476   4.423  10.970   5.411  0.4999  0.2224 -0.7496
  613MOL0     C84477   4.454  11.037   5.540 -0.4738 -1.0525  0.4254
  613MOL0     C84478   4.552  11.159   5.514  0.4871 -0.4238 -0.0949
  613MOL0     C84479   4.621  11.220   5.642  0.8866 -0.5370 -0.0225
  613MOL0     O84480   4.687  11.335   5.621 -0.3025 -0.3142  0.3741
  613MOL0     C84481   4.816  11.344   5.583  0.6907  0.3901 -0.4014
  613MOL0     C84482   4.877  11.467   5.596 -0.7088 -0.8122 -0.0925
  613MOL0     C84483   5.015  11.487   5.571  0.6142 -0.0625 -0.1282
  613MOL0     C84484   5.057  11.639   5.576  0.9232  0.5822  0.5429
  613MOL0     C84485   5.093  11.388   5.528 -0.6319  1.3140 -0.0329
  613MOL0     C84486   5.234  11.404   5.487  0.1076  0.4367 -0.7369
  613MOL0     O84487   5.280  11.326   5.380 -0.5455 -0.4331 -0.4078
  613MOL0     C84488   5.401  11.360   5.331 -0.5292 -0.5226 -0.3405
  613MOL0     C84489   5.525  11.337   5.394 -0.1242 -0.1892  0.2903
  613MOL0     C84490   5.639  11.362   5.317 -0.2008  0.4685  0.4388
  613MOL0     C84491   5.636  11.414   5.191 -0.0815 -1.0065 -0.4271
  613MOL0     O84492   5.742  11.457   5.114 -0.3581 -0.4696 -0.3451
  613MOL0     C84493   5.863  11.380   5.121  0.1298 -0.6325  0.0300
  613MOL0     C84494   5.967  11.436   5.029 -0.0130 -0.6739 -1.5509
  613MOL0     C84495   6.097  11.353   5.020  0.4646 -0.2852 -0.3476
  613MOL0     C84496   6.172  11.415   4.903  0.0972  0.0373  0.7037
  613MOL0     C84497   6.315  11.355   4.890  0.6816 -0.0907  0.1259
  613MOL0     C84498   6.373  11.404   4.757 -0.0656 -0.0414  0.3616
  613MOL0     C84499   6.520  11.373   4.746 -0.1403  0.2012  0.0885
  613MOL0     C84500   6.615  11.485   4.775  0.1555 -0.3602 -0.6105
  613MOL0    Cl84501   6.630  11.507   4.957 -0.4387  0.4917  0.8173
  613MOL0     C84502   5.513  11.423   5.125  0.5805 -0.0508  0.3864
  613MOL0     C84503   5.401  11.392   5.197  0.8178  1.1322 -0.5192
  613MOL0     O84504   5.298  11.486   5.547 -0.0538 -0.3887 -0.1854
  613MOL0     C84505   5.032  11.263   5.497 -0.5037  0.2245  0.9814
  613MOL0     C84506   4.896  11.246   5.529  0.3757  0.0275  0.1637
  613MOL0     N84507   4.325  10.770   5.543  0.3866 -0.5757 -0.2264
  613MOL0     N84508   4.220  10.700   5.526 -0.0233 -0.1078 -0.3197
  613MOL0     C84509   2.896  10.736   5.568  0.3554  0.8290 -0.2019
  613MOL0     C84510   2.763  10.783   5.584  0.3460 -0.1518 -0.6964
  613MOL0     C84511   2.404  10.993   5.726  0.0562  0.1842  0.0595
  613MOL0     C84512   2.356  11.056   5.606  0.4468  0.7328 -0.2096
  613MOL0     C84513   2.232  11.112   5.600 -0.1024  1.1340 -0.5786
  613MOL0     C84514   2.149  11.115   5.711  0.8037  0.1554  0.5031
  613MOL0     O84515   2.029  11.182   5.702 -0.2658 -0.1685 -0.8976
  613MOL0     C84516   1.912  11.096   5.686 -0.6632 -0.6580 -0.3009
  613MOL0     C84517   1.807  11.172   5.619  0.3039  0.0922 -0.0656
  613MOL0     C84518   1.657  11.137   5.650 -0.7686 -0.5821 -0.8018
  613MOL0     C84519   1.620  10.993   5.609 -0.2830 -0.3283  0.4900
  613MOL0     C84520   1.499  10.944   5.681 -0.6120  0.1908 -0.0310
  613MOL0     C84521   1.409  10.886   5.742  0.8395  0.0192 -0.3229
  613MOL0     C84522   2.190  11.050   5.825  0.2775  0.1038  0.0341
  613MOL0     C84523   2.316  10.990   5.835 -0.1562  0.1127 -0.5263
  613MOL0     C84524   2.358  10.950   5.970 -0.1083  0.4321 -0.5774
  613MOL0     H84525   2.827  11.115   5.625 -0.5638  0.2064 -5.8153
  613MOL0     H84526   3.050  11.035   5.618  1.9221 -2.4004 -2.4373
  613MOL0     H84527   3.247  10.873   5.718  0.5886 -2.1449  0.9575
  613MOL0     H84528   3.235  10.946   5.550 -2.5111 -1.0185 -0.7754
  613MOL0     H84529   3.406  10.712   5.640 -0.2198  0.4595  0.0470
  613MOL0     H84530   3.352  10.717   5.473  1.8491 -1.1061 -0.1672
  613MOL0     H84531   3.448  10.967   5.475  2.0025 -0.1667 -0.5647
  613MOL0     H84532   3.524  10.926   5.618 -1.4650  1.1508 -0.4248
  613MOL0     H84533   3.630  10.724   5.513 -1.1025 -0.7220  0.4775
  613MOL0     H84534   3.561  10.768   5.365  2.3190  0.7874 -0.5080
  613MOL0     H84535   3.747  10.972   5.496  0.4821 -1.5914  0.6115
  613MOL0     H84536   3.645  10.996   5.350 -1.0905 -1.5589 -2.0153
  613MOL0     H84537   3.776  10.779   5.265 -1.6774 -2.5474  3.0620
  613MOL0     H84538   3.877  10.922   5.283 -0.2018  0.8769  0.2200
  613MOL0     H84539   3.843  10.743   5.518 -0.7034  1.0031 -0.4802
  613MOL0     H84540   3.966  10.867   5.489 -1.1372 -1.2136  2.0167
  613MOL0     H84541   3.998  10.590   5.428  4.4229 -0.0868  1.7584
  613MOL0     H84542   4.014  10.675   5.278  0.4808  0.7290 -0.4455
  613MOL0     H84543   4.178  10.913   5.282  0.8369  2.1090  2.1495
  613MOL0     H84544   4.386  11.048   5.343 -2.3688  0.0117  0.4576
  613MOL0     H84545   4.506  10.922   5.358 -1.8778 -2.9469 -1.8882
  613MOL0     H84546   4.361  11.073   5.585 -0.6252  2.5093 -2.3221
  613MOL0     H84547   4.493  10.962   5.610 -1.1134 -2.8236 -1.0496
  613MOL0     H84548   4.625  11.136   5.436  1.4645  1.3775  0.2398
  613MOL0     H84549   4.492  11.238   5.467 -3.1464 -3.6009 -1.3957
  613MOL0     H84550   4.544  11.240   5.717 -1.1297  2.6407 -2.6715
  613MOL0     H84551   4.683  11.141   5.685  1.4296  0.1914  0.5364
  613MOL0     H84552   4.815  11.552   5.625 -0.9403 -0.4030 -1.6662
  613MOL0     H84553   5.103  11.674   5.669  5.1607 -0.6614 -0.8659
  613MOL0     H84554   4.977  11.708   5.547  0.2827 -0.2377  0.2981
  613MOL0     H84555   5.130  11.649   5.495  1.7801 -0.6244  1.1348
  613MOL0     H84556   5.533  11.289   5.491  1.1918 -1.8085 -0.5668
  613MOL0     H84557   5.734  11.329   5.357 -0.0060 -2.0851 -1.8694
  613MOL0     H84558   5.909  11.373   5.220 -0.5488 -3.7061  0.2427
  613MOL0     H84559   5.842  11.277   5.088  2.3807 -1.2696  0.4008
  613MOL0     H84560   5.919  11.447   4.931 -3.2736  0.2102 -0.0158
  613MOL0     H84561   5.984  11.535   5.071  0.0026 -1.4741  0.3906
  613MOL0     H84562   6.090  11.244   5.011 -2.3225 -0.1480 -0.8233
  613MOL0     H84563   6.150  11.377   5.112  1.4165 -0.5559 -0.8183
  613MOL0     H84564   6.183  11.523   4.916 -0.3932  0.2160 -0.2802
  613MOL0     H84565   6.115  11.403   4.810 -0.0308 -1.6147  0.9639
  613MOL0     H84566   6.361  11.403   4.977 -2.2159  0.6770  1.3624
  613MOL0     H84567   6.318  11.246   4.900  0.8944 -0.1314 -0.3847
  613MOL0     H84568   6.349  11.510   4.741 -0.6829 -0.0378  1.2023
  613MOL0     H84569   6.323  11.349   4.677 -0.9360  1.3155 -0.0658
  613MOL0     H84570   6.537  11.338   4.643  0.9726  2.3039 -0.5133
  613MOL0     H84571   6.540  11.279   4.799 -0.4640 -1.4511 -2.5411
  613MOL0     H84572   6.570  11.575   4.732 -0.1978 -1.8547 -3.6259
  613MOL0     H84573   6.712  11.463   4.729 -0.1160 -1.8786 -0.4902
  613MOL0     H84574   5.509  11.461   5.023 -2.8862  2.3349  1.2490
  613MOL0     H84575   5.307  11.397   5.142  0.3616 -0.0651  0.1236
  613MOL0     H84576   5.088  11.181   5.454  1.6521  0.9061  2.3341
  613MOL0     H84577   4.860  11.148   5.500  1.1058  0.3578 -2.0180
  613MOL0     H84578   2.910  10.634   5.535  0.9718  0.8932 -0.1364
  613MOL0     H84579   2.681  10.711   5.581  0.8096 -0.6589 -1.9193
  613MOL0     H84580   2.418  11.079   5.520  0.7666  3.4184  0.6620
  613MOL0     H84581   2.196  11.159   5.509 -1.3944  1.7831  0.2342
  613MOL0     H84582   1.929  11.008   5.623 -1.0190  0.7467 -2.4612
  613MOL0     H84583   1.870  11.061   5.781 -1.6387  0.1142 -0.4362
  613MOL0     H84584   1.824  11.163   5.511 -0.6722 -1.0124 -0.1532
  613MOL0     H84585   1.824  11.278   5.641 -2.4063  0.7021 -0.5494
  613MOL0     H84586   1.640  11.148   5.757  2.5893 -2.5538  0.0685
  613MOL0     H84587   1.601  11.212   5.593  0.9404  2.0264  0.7760
  613MOL0     H84588   1.699  10.917   5.616 -0.9299 -0.9681  1.1389
  613MOL0     H84589   1.591  10.997   5.504  1.3145 -0.9639  0.0000
  613MOL0     H84590   1.341  10.828   5.801 -1.4540  1.9915 -0.8667
  613MOL0     H84591   2.127  11.046   5.913 -1.6073 -0.9200 -1.3066
  613MOL0     H84592   2.431  11.019   6.014 -0.4088  0.2247  0.2678
  613MOL0     H84593   2.281  10.948   6.047  0.8109 -1.5193  0.3423
  613MOL0     H84594   2.401  10.850   5.971  1.0922  0.9220 -1.5522
  614MOL0     O84595   4.388   5.766   3.445 -0.0710 -0.0120 -1.3694
  614MOL0     C84596   4.445   5.660   3.439  0.0190  0.8271  0.1063
  614MOL0     O84597   4.384   5.539   3.415 -0.8836  0.0762 -0.5423
  614MOL0     C84598   4.246   5.533   3.403 -0.9742 -0.2366  0.7222
  614MOL0     C84599   4.172   5.586   3.295  0.3558 -0.3217 -0.2635
  614MOL0     C84600   4.030   5.568   3.295 -0.4621  0.1389 -0.4204
  614MOL0     C84601   3.963   5.512   3.397 -0.0695 -0.5110 -0.3920
  614MOL0     O84602   3.828   5.484   3.386  0.3549 -0.3066 -0.6337
  614MOL0     C84603   3.745   5.592   3.427  0.0687  0.9070 -0.7340
  614MOL0     C84604   3.608   5.541   3.462 -0.3083  0.4004 -0.7165
  614MOL0     C84605   3.550   5.649   3.539 -0.9292 -0.9827  0.1024
  614MOL0     C84606   3.405   5.637   3.586 -0.1262  0.4089 -0.6640
  614MOL0     C84607   3.389   5.718   3.713  0.8256  0.2851  0.5417
  614MOL0     C84608   3.444   5.864   3.718  0.3201  0.6745  0.2125
  614MOL0     C84609   3.389   5.947   3.604  0.5922  0.1059 -0.6930
  614MOL0     C84610   3.434   6.090   3.620 -0.2048 -0.9502  0.0975
  614MOL0     N84611   3.581   6.111   3.600  0.0770  0.6526  0.1775
  614MOL0     C84612   3.666   6.039   3.516 -0.3923 -0.2794  0.2608
  614MOL0     C84613   3.781   6.107   3.525  0.4999 -0.1013 -0.1777
  614MOL0     C84614   3.907   6.057   3.465  0.0291 -0.1984  0.5897
  614MOL0     C84615   4.027   6.121   3.535  0.0194 -0.2286  0.4059
  614MOL0     C84616   4.156   6.064   3.469 -0.2671 -0.4781  0.5091
  614MOL0     C84617   4.289   6.101   3.544 -0.0451  0.4960 -0.1692
  614MOL0     O84618   4.291   6.238   3.534 -0.0657 -0.9919  0.5595
  614MOL0     C84619   4.408   6.297   3.584 -0.4007  1.2571  0.5359
  614MOL0     C84620   4.485   6.253   3.699  0.4418  0.1947 -1.1701
  614MOL0     C84621   4.609   6.309   3.741  0.1558  0.3732  0.1748
  614MOL0     C84622   4.674   6.247   3.865  1.4761  0.5576  0.0283
  614MOL0     C84623   4.656   6.423   3.669  0.5325 -0.8287 -0.4278
  614MOL0     C84624   4.782   6.503   3.700  0.5079  0.0163  0.0004
  614MOL0     O84625   4.878   6.438   3.776 -0.8320 -0.1914  0.0655
  614MOL0     C84626   5.014   6.460   3.758 -0.0848 -0.7230 -0.2232
  614MOL0     C84627   5.069   6.529   3.650 -0.1013 -0.1930  0.1557
  614MOL0     C84628   5.213   6.541   3.652 -0.9433 -0.3888 -0.0111
  614MOL0     C84629   5.290   6.487   3.752  0.2911  0.7140  0.2448
  614MOL0     O84630   5.421   6.499   3.771 -0.5047 -0.4624  0.0887
  614MOL0     C84631   5.497   6.403   3.695  0.8009  0.4424  0.4488
  614MOL0     C84632   5.636   6.413   3.741  0.1930 -0.0951  0.1065
  614MOL0     C84633   5.730   6.309   3.678  0.0770 -0.3190 -0.1836
  614MOL0     C84634   5.875   6.328   3.732  0.0127 -0.8256  0.0277
  614MOL0     C84635   5.957   6.218   3.667  0.0903  0.1794  1.1353
  614MOL0     C84636   6.104   6.233   3.680 -1.2378  0.0006  0.7956
  614MOL0     C84637   6.148   6.248   3.828 -0.3961  0.6554 -0.0420
  614MOL0     C84638   6.290   6.194   3.848  0.7238 -0.5454 -0.1415
  614MOL0    Cl84639   6.417   6.270   3.755  0.0916 -0.0349  0.6541
  614MOL0     C84640   5.232   6.413   3.845  0.3142  0.1565 -0.1150
  614MOL0     C84641   5.088   6.405   3.853 -0.8099 -0.2963 -0.7366
  614MOL0     O84642   4.784   6.620   3.659  0.4253  0.9874  0.3472
  614MOL0     C84643   4.581   6.467   3.559  0.0440 -0.1978 -0.8327
  614MOL0     C84644   4.467   6.401   3.517  0.5142 -0.1957 -0.3327
  614MOL0     N84645   3.765   6.216   3.616  0.5855 -0.1548  0.0745
  614MOL0     N84646   3.644   6.211   3.662 -0.3167  0.4272 -0.5536
  614MOL0     C84647   4.039   5.457   3.502 -0.0391  0.7832  0.4039
  614MOL0     C84648   4.178   5.470   3.508  0.4136 -0.4649  0.5719
  614MOL0     C84649   4.598   5.660   3.441  0.2450  1.2575  0.4811
  614MOL0     C84650   4.658   5.530   3.425  1.2156 -0.0538  0.0231
  614MOL0     C84651   4.801   5.515   3.432  0.5370 -0.3004  0.1943
  614MOL0     C84652   4.884   5.624   3.449 -0.9276 -0.7812  0.2865
  614MOL0     O84653   5.018   5.620   3.470  0.1924 -0.8938  0.2716
  614MOL0     C84654   5.110   5.695   3.386  0.0073  0.1099 -0.5818
  614MOL0     C84655   5.257   5.712   3.438 -0.9177  0.1847  0.2706
  614MOL0     C84656   5.260   5.790   3.579 -0.9618 -0.3701  0.2568
  614MOL0     C84657   5.345   5.716   3.683  0.0449 -0.2854  0.8971
  614MOL0     C84658   5.285   5.716   3.814  0.0193 -0.3824  0.4699
  614MOL0     C84659   5.223   5.715   3.918 -0.2186  0.3622 -0.0284
  614MOL0     C84660   4.828   5.752   3.454 -0.7243 -0.5378 -0.0323
  614MOL0     C84661   4.689   5.768   3.443 -0.1836  0.0237  0.0852
  614MOL0     C84662   4.639   5.914   3.441 -0.3617  0.1758  0.6680
  614MOL0     H84663   4.219   5.642   3.215  1.2810 -1.4517 -0.5387
  614MOL0     H84664   3.968   5.589   3.208 -1.9883 -1.8895  0.0918
  614MOL0     H84665   3.736   5.671   3.353 -0.5515  0.9254 -0.6499
  614MOL0     H84666   3.797   5.629   3.516 -0.3482 -1.1632  0.4524
  614MOL0     H84667   3.542   5.522   3.377  1.1786 -0.7089 -1.6583
  614MOL0     H84668   3.605   5.446   3.515 -0.5041 -0.2069 -1.7956
  614MOL0     H84669   3.611   5.654   3.629 -2.6846 -2.9673  1.4878
  614MOL0     H84670   3.564   5.743   3.485 -0.4200 -0.9810  0.2344
  614MOL0     H84671   3.334   5.665   3.508  0.4637 -1.3664 -1.8834
  614MOL0     H84672   3.381   5.534   3.612  1.0632  0.0674 -0.8732
  614MOL0     H84673   3.450   5.668   3.789  1.0807 -3.7641 -2.0174
  614MOL0     H84674   3.286   5.711   3.750  1.8518  1.8174  4.1605
  614MOL0     H84675   3.412   5.915   3.810 -3.4264  1.6155 -1.4334
  614MOL0     H84676   3.552   5.852   3.702  0.0685 -2.8607  0.3869
  614MOL0     H84677   3.280   5.935   3.595  0.2488  0.8310  1.6368
  614MOL0     H84678   3.439   5.911   3.514  1.1294 -0.3251 -0.2261
  614MOL0     H84679   3.387   6.151   3.543  1.2147 -1.0767 -0.8961
  614MOL0     H84680   3.399   6.133   3.715 -0.9738  1.8971 -1.3654
  614MOL0     H84681   3.645   5.958   3.447 -0.2721 -0.5678  0.5601
  614MOL0     H84682   3.911   6.095   3.362 -3.1580 -0.5140  0.2277
  614MOL0     H84683   3.919   5.949   3.463 -1.3716 -0.4021  1.6924
  614MOL0     H84684   4.009   6.229   3.538 -1.0191 -0.4042  0.9746
  614MOL0     H84685   4.021   6.091   3.641 -1.9184  2.4520  1.1719
  614MOL0     H84686   4.154   5.954   3.470  0.8693 -0.5731 -1.5435
  614MOL0     H84687   4.168   6.096   3.365  0.7794 -3.0015 -0.2333
  614MOL0     H84688   4.284   6.061   3.646  2.2298  1.5776  0.4253
  614MOL0     H84689   4.374   6.056   3.492  1.1304  1.4904  0.8241
  614MOL0     H84690   4.436   6.174   3.755 -1.5241  2.1428  0.0296
  614MOL0     H84691   4.709   6.319   3.940  3.4634  1.5272 -1.7326
  614MOL0     H84692   4.747   6.171   3.836 -0.8674 -0.9388 -2.5211
  614MOL0     H84693   4.593   6.187   3.907  1.2716  0.6521 -0.2306
  614MOL0     H84694   5.016   6.559   3.561 -0.4059 -2.1084 -0.3269
  614MOL0     H84695   5.273   6.585   3.573 -0.2602 -0.7935  0.2659
  614MOL0     H84696   5.453   6.303   3.697  1.6116  0.0425 -0.6575
  614MOL0     H84697   5.497   6.437   3.591  0.3866  1.3280  0.7214
  614MOL0     H84698   5.668   6.513   3.712  0.2551 -0.6050 -1.6651
  614MOL0     H84699   5.651   6.412   3.850  1.1518  0.4160 -0.0145
  614MOL0     H84700   5.727   6.322   3.569  1.3612  2.4286  0.0117
  614MOL0     H84701   5.691   6.211   3.707 -0.6495  0.3159  1.0519
  614MOL0     H84702   5.866   6.300   3.837 -1.4345 -0.8559 -0.0792
  614MOL0     H84703   5.926   6.424   3.722  1.5206 -1.1010  3.7837
  614MOL0     H84704   5.926   6.128   3.721  2.2599  0.6952  3.4471
  614MOL0     H84705   5.923   6.218   3.563  1.3644 -1.1626  0.6908
  614MOL0     H84706   6.138   6.323   3.628  0.2765 -0.5354  0.8103
  614MOL0     H84707   6.140   6.149   3.620 -1.2302  0.5828 -0.0261
  614MOL0     H84708   6.077   6.188   3.885  0.9339 -3.0549 -1.9313
  614MOL0     H84709   6.144   6.353   3.859  0.6818 -0.0565  2.8547
  614MOL0     H84710   6.290   6.087   3.824 -2.2073 -0.8952  1.0633
  614MOL0     H84711   6.317   6.194   3.955 -2.6471  0.6949  0.8363
  614MOL0     H84712   5.286   6.360   3.923  1.0823  2.1642  0.7641
  614MOL0     H84713   5.039   6.328   3.911 -1.7812  0.9127  0.1013
  614MOL0     H84714   4.623   6.547   3.499 -0.0965  0.9345  0.5157
  614MOL0     H84715   4.423   6.432   3.423 -2.7706 -1.5864  0.6026
  614MOL0     H84716   4.003   5.397   3.584  2.6766 -2.1014 -0.3483
  614MOL0     H84717   4.236   5.443   3.595  0.8713 -0.0566  0.3929
  614MOL0     H84718   4.597   5.444   3.398 -1.1013  0.8287  2.0923
  614MOL0     H84719   4.842   5.414   3.431 -0.1900 -0.8362  4.5842
  614MOL0     H84720   5.114   5.639   3.292  0.9326 -1.6576  0.4625
  614MOL0     H84721   5.072   5.795   3.366  1.0037  0.5115 -0.5049
  614MOL0     H84722   5.305   5.766   3.356 -2.0722  2.7295  1.1644
  614MOL0     H84723   5.308   5.615   3.443  1.4323  1.3484  0.0759
  614MOL0     H84724   5.299   5.888   3.551  0.2948 -1.2256 -1.1808
  614MOL0     H84725   5.159   5.803   3.617 -1.0944 -1.9400  0.5434
  614MOL0     H84726   5.440   5.770   3.677  2.5584 -4.4222 -1.7292
  614MOL0     H84727   5.377   5.614   3.661  0.4936 -0.5897  2.7714
  614MOL0     H84728   5.166   5.722   4.008 -1.9045  0.0013 -1.0213
  614MOL0     H84729   4.887   5.842   3.450 -0.5574 -0.6869 -1.8871
  614MOL0     H84730   4.720   5.964   3.386 -2.0551 -0.1031 -2.3178
  614MOL0     H84731   4.547   5.931   3.385 -0.7964  4.7511  2.3722
  614MOL0     H84732   4.615   5.944   3.543  0.0355 -1.8316  1.4066
  615MOL0     O84733   5.729   4.708   3.872  0.4709 -0.1511 -0.3576
  615MOL0     C84734   5.635   4.759   3.823  0.4296  0.0707  0.3499
  615MOL0     O84735   5.645   4.835   3.703  0.0685 -0.3241  0.7198
  615MOL0     C84736   5.763   4.853   3.642  0.0386  0.5637 -0.1621
  615MOL0     C84737   5.858   4.744   3.615 -1.0690 -0.8265 -0.2110
  615MOL0     C84738   5.963   4.773   3.524 -0.6160 -0.1737 -0.0360
  615MOL0     C84739   5.986   4.908   3.477  0.3210  0.6762  1.1715
  615MOL0     O84740   6.095   4.930   3.392  0.6963 -0.0765  0.7546
  615MOL0     C84741   6.158   4.818   3.320  0.2568  0.5809 -0.2327
  615MOL0     C84742   6.261   4.873   3.220  0.0609  0.3259 -0.1547
  615MOL0     C84743   6.354   4.759   3.172  0.4999 -0.8111 -0.5530
  615MOL0     C84744   6.444   4.813   3.066 -0.6175  0.8765  0.5205
  615MOL0     C84745   6.570   4.719   3.038  0.0166  0.3104  0.5360
  615MOL0     C84746   6.675   4.781   2.949  0.5384  0.1933  0.9568
  615MOL0     C84747   6.793   4.685   2.944 -0.1616  0.7558 -0.4433
  615MOL0     C84748   6.897   4.721   2.837 -0.6174 -0.4306 -0.2023
  615MOL0     N84749   7.035   4.655   2.861  0.4876 -0.2223 -0.1781
  615MOL0     C84750   7.057   4.513   2.854 -0.4823 -0.3062 -0.0157
  615MOL0     C84751   7.185   4.496   2.907  0.3256  0.0373  0.2921
  615MOL0     C84752   7.257   4.369   2.931  0.5700  0.4254  0.2656
  615MOL0     C84753   7.346   4.340   2.811 -0.1714  0.0153  0.0056
  615MOL0     C84754   7.435   4.215   2.843  0.1883 -0.0052 -0.4651
  615MOL0     C84755   7.567   4.258   2.898  0.1323 -0.6591 -0.2916
  615MOL0     O84756   7.638   4.155   2.977  0.1370 -0.6687 -0.1612
  615MOL0     C84757   7.771   4.194   3.020 -0.0162 -0.2648 -0.5144
  615MOL0     C84758   7.834   4.106   3.111  0.7169  0.2859 -0.3573
  615MOL0     C84759   7.970   4.122   3.150  0.9221  0.3853 -0.1948
  615MOL0     C84760   8.031   4.016   3.242 -0.6927 -1.0593  0.6366
  615MOL0     C84761   8.038   4.236   3.112 -0.7453  0.2716 -0.5260
  615MOL0     C84762   8.170   4.274   3.171 -0.3482 -0.8037  0.1490
  615MOL0     O84763   8.247   4.353   3.095  0.2100  0.5275  0.2276
  615MOL0     C84764   8.380   4.355   3.133  0.2865  0.4417 -0.5335
  615MOL0     C84765   8.421   4.455   3.223  0.1448 -0.1345 -0.0690
  615MOL0     C84766   8.555   4.474   3.256 -0.6200  0.2420 -0.5718
  615MOL0     C84767   8.652   4.394   3.193 -0.1117  0.1735 -0.2998
  615MOL0     O84768   8.781   4.407   3.240 -0.5187  0.2383 -0.8508
  615MOL0     C84769   8.890   4.438   3.152  0.1192 -0.5996 -1.2306
  615MOL0     C84770   9.002   4.514   3.213 -0.1021  0.0180 -0.8575
  615MOL0     C84771   9.120   4.552   3.114 -0.1489  0.2636 -0.0383
  615MOL0     C84772   9.243   4.625   3.183  0.5299 -0.3734 -0.1154
  615MOL0     C84773   9.351   4.672   3.083 -0.0226  0.1785 -0.1930
  615MOL0     C84774   9.428   4.547   3.029  0.3418  1.1027  0.3631
  615MOL0     C84775   9.547   4.576   2.944 -0.8603  0.8435  0.8523
  615MOL0     C84776   9.610   4.450   2.884  0.9632 -1.1727 -0.4356
  615MOL0    Cl84777   9.769   4.498   2.795  0.5038  0.4107  0.5090
  615MOL0     C84778   8.613   4.296   3.100  0.5417  0.2685  0.2896
  615MOL0     C84779   8.471   4.275   3.071 -0.0905 -0.4796 -0.3746
  615MOL0     O84780   8.192   4.248   3.288  0.1557 -0.2927 -0.4871
  615MOL0     C84781   7.973   4.325   3.031 -0.4886  1.1425 -0.1700
  615MOL0     C84782   7.842   4.306   2.985 -1.1596 -1.0676 -0.4287
  615MOL0     N84783   7.222   4.620   2.970 -0.3980 -0.0460 -0.1247
  615MOL0     N84784   7.135   4.707   2.938  0.1290  0.7913 -0.3688
  615MOL0     C84785   5.901   5.009   3.519 -0.4216  0.1982  0.1045
  615MOL0     C84786   5.787   4.980   3.600 -0.1927  0.7612  0.2206
  615MOL0     C84787   5.496   4.738   3.876  0.0558  0.3033  1.0788
  615MOL0     C84788   5.394   4.808   3.804  0.5197  0.3514  0.3188
  615MOL0     C84789   5.266   4.812   3.854 -0.8802 -0.3110 -0.6746
  615MOL0     C84790   5.234   4.731   3.965 -0.0402 -0.6350 -0.2906
  615MOL0     O84791   5.107   4.708   4.015  0.1783 -0.2187  0.0721
  615MOL0     C84792   5.000   4.790   3.961 -0.1389 -0.7407  0.3353
  615MOL0     C84793   4.867   4.709   3.983 -0.1734  0.2178 -0.8971
  615MOL0     C84794   4.762   4.779   3.910 -0.6211 -0.3506 -0.2623
  615MOL0     C84795   4.636   4.698   3.913 -0.6573  0.0388  0.0328
  615MOL0     C84796   4.520   4.780   3.868 -0.1530  0.5894 -0.4176
  615MOL0     C84797   4.413   4.832   3.831  0.4248  0.2555  0.8836
  615MOL0     C84798   5.334   4.651   4.021 -0.1455 -0.2932 -0.2963
  615MOL0     C84799   5.465   4.663   3.986 -0.0100 -0.0853  0.8646
  615MOL0     C84800   5.556   4.580   4.077 -0.7910  0.2859 -0.4202
  615MOL0     H84801   5.851   4.643   3.656  1.8041 -1.7604 -1.6754
  615MOL0     H84802   6.023   4.688   3.494  2.0662  1.1358  1.2798
  615MOL0     H84803   6.088   4.748   3.274  0.6628  0.5833 -0.8641
  615MOL0     H84804   6.215   4.762   3.395  0.6734  0.3835 -0.6971
  615MOL0     H84805   6.205   4.910   3.134 -0.4583 -1.5334 -0.6601
  615MOL0     H84806   6.316   4.951   3.273 -1.2508  1.3023 -0.1628
  615MOL0     H84807   6.415   4.728   3.257 -0.7276  1.3240  1.2060
  615MOL0     H84808   6.301   4.677   3.122 -1.1735 -1.2430  1.7680
  615MOL0     H84809   6.385   4.834   2.977 -0.0919  3.7012  0.7504
  615MOL0     H84810   6.483   4.909   3.100  4.5562 -0.6853 -0.1314
  615MOL0     H84811   6.530   4.624   2.999 -1.8192  0.1079  2.7368
  615MOL0     H84812   6.607   4.694   3.138  0.1099 -0.3294  0.3494
  615MOL0     H84813   6.637   4.795   2.847 -0.4227  0.0385  1.2888
  615MOL0     H84814   6.699   4.883   2.981 -5.3593  3.1898 -2.4919
  615MOL0     H84815   6.757   4.582   2.939  3.0336 -0.5477  0.6890
  615MOL0     H84816   6.839   4.691   3.043  0.8608 -1.3147 -0.7477
  615MOL0     H84817   6.872   4.697   2.734  1.1133  0.6627 -0.9178
  615MOL0     H84818   6.911   4.829   2.827  1.2801 -0.7990 -2.4332
  615MOL0     H84819   6.988   4.434   2.825 -0.6131 -0.1869 -0.0336
  615MOL0     H84820   7.183   4.289   2.937  0.9323  0.1586  1.4838
  615MOL0     H84821   7.308   4.371   3.028 -1.5734  1.0932  1.4479
  615MOL0     H84822   7.287   4.320   2.720  2.2513  0.3583 -1.7537
  615MOL0     H84823   7.413   4.424   2.789 -1.0379  0.6946 -0.0621
  615MOL0     H84824   7.386   4.154   2.920  0.4376  1.3442  0.8158
  615MOL0     H84825   7.449   4.150   2.756 -0.5366 -0.7662 -0.0318
  615MOL0     H84826   7.634   4.294   2.819  2.0721  0.6033  1.7873
  615MOL0     H84827   7.548   4.341   2.966  0.8930  0.5164 -1.4700
  615MOL0     H84828   7.787   4.009   3.124  0.2126  0.4529 -0.8734
  615MOL0     H84829   8.004   4.018   3.348 -1.2325  2.4026  0.5420
  615MOL0     H84830   8.139   4.027   3.231 -0.6044  0.7709  2.7394
  615MOL0     H84831   8.001   3.921   3.197  1.2083 -1.4484  0.1135
  615MOL0     H84832   8.348   4.510   3.280  0.3305 -1.2562  1.2877
  615MOL0     H84833   8.590   4.556   3.317  3.3516 -0.5119 -1.5706
  615MOL0     H84834   8.928   4.347   3.106  0.0097 -1.5400  0.4852
  615MOL0     H84835   8.848   4.492   3.067 -2.8920  0.5663  0.8237
  615MOL0     H84836   8.961   4.607   3.256 -0.8007 -0.4990 -0.3766
  615MOL0     H84837   9.054   4.455   3.289  2.1782  0.6285 -1.8645
  615MOL0     H84838   9.078   4.620   3.039 -0.4044  0.3101  0.1422
  615MOL0     H84839   9.148   4.460   3.063  1.0187  1.0953 -0.9450
  615MOL0     H84840   9.295   4.556   3.250  0.1058 -0.9720 -0.3991
  615MOL0     H84841   9.200   4.707   3.242  1.4229  1.5111 -1.9647
  615MOL0     H84842   9.307   4.734   3.005 -1.1027  1.4095  1.3211
  615MOL0     H84843   9.422   4.740   3.130  0.5360 -1.8801  2.1471
  615MOL0     H84844   9.348   4.502   2.969  2.1487  0.7837 -1.9361
  615MOL0     H84845   9.460   4.482   3.112 -0.2458  0.8961  0.4377
  615MOL0     H84846   9.618   4.629   3.008 -0.3954  1.0311  0.1999
  615MOL0     H84847   9.524   4.646   2.863 -1.4615  1.5133  1.5842
  615MOL0     H84848   9.525   4.411   2.828 -0.5416  0.8029  0.3590
  615MOL0     H84849   9.626   4.383   2.969 -0.8051 -1.3730 -0.2300
  615MOL0     H84850   8.683   4.240   3.038  1.0217  0.8365  0.3139
  615MOL0     H84851   8.436   4.212   2.989 -0.9017 -0.5284  0.0085
  615MOL0     H84852   8.018   4.417   2.995 -2.9844  1.2502 -3.4580
  615MOL0     H84853   7.797   4.382   2.922 -2.1883 -0.1118  1.3941
  615MOL0     H84854   5.909   5.113   3.489 -1.2042 -0.1761 -1.4804
  615MOL0     H84855   5.710   5.050   3.632 -0.5134 -0.1420  1.5553
  615MOL0     H84856   5.419   4.866   3.716  0.0448 -1.0556 -0.7848
  615MOL0     H84857   5.187   4.872   3.809 -0.2481 -0.0631 -1.4713
  615MOL0     H84858   5.000   4.893   3.997  1.6556 -0.4391 -0.4133
  615MOL0     H84859   5.001   4.787   3.851 -2.2108 -0.9251  0.2884
  615MOL0     H84860   4.843   4.695   4.089  2.3094  0.5763 -0.2066
  615MOL0     H84861   4.881   4.607   3.946  2.6519  1.3111 -3.3246
  615MOL0     H84862   4.749   4.884   3.936  2.0559  0.1739 -0.7012
  615MOL0     H84863   4.797   4.795   3.807  1.1394 -0.6921  0.2467
  615MOL0     H84864   4.627   4.650   4.011 -1.2259  0.8103  0.3670
  615MOL0     H84865   4.651   4.620   3.838 -0.0501  0.6067 -0.4541
  615MOL0     H84866   4.330   4.891   3.797  1.6481  0.1994 -2.5214
  615MOL0     H84867   5.302   4.597   4.110  0.2374 -0.2051 -0.1011
  615MOL0     H84868   5.632   4.649   4.114  1.6101 -1.6961 -1.4481
  615MOL0     H84869   5.507   4.523   4.156  0.8369  0.1872  0.5474
  615MOL0     H84870   5.603   4.508   4.010  1.5348 -1.0855  2.4859
  616MOL0     O84871   7.127   5.304   7.315 -0.5317  0.0413  0.6003
  616MOL0     C84872   7.073   5.206   7.350 -0.5218  0.9520  0.9398
  616MOL0     O84873   7.144   5.090   7.389 -0.3752  0.0138  0.0834
  616MOL0     C84874   7.280   5.082   7.365 -0.0096 -0.7811 -0.5976
  616MOL0     C84875   7.347   5.093   7.246 -0.3198  0.6432 -0.4322
  616MOL0     C84876   7.489   5.075   7.238  0.9031 -0.2435  0.1860
  616MOL0     C84877   7.564   5.047   7.351  0.0715  0.0621 -0.7377
  616MOL0     O84878   7.702   5.029   7.354 -0.4975  0.3902  0.6881
  616MOL0     C84879   7.769   5.008   7.232 -0.6592  0.2989  0.0960
  616MOL0     C84880   7.891   4.913   7.259 -0.0877 -0.3966 -0.3665
  616MOL0     C84881   7.999   4.935   7.152  0.1616  1.2179  1.3756
  616MOL0     C84882   8.121   4.853   7.184 -0.3073 -0.1642  0.4303
  616MOL0     C84883   8.230   4.866   7.081  0.0974 -0.2208  0.2861
  616MOL0     C84884   8.359   4.787   7.118 -0.1232 -0.0173 -0.0551
  616MOL0     C84885   8.444   4.807   7.002 -0.2643 -0.2516  0.4260
  616MOL0     C84886   8.595   4.784   7.027  0.5877 -0.4298  0.4870
  616MOL0     N84887   8.671   4.824   6.901 -0.3725 -0.3449  0.3874
  616MOL0     C84888   8.750   4.731   6.838 -0.5429 -0.8744  0.5412
  616MOL0     C84889   8.815   4.796   6.742 -0.1808  0.5903 -0.6082
  616MOL0     C84890   8.895   4.730   6.636  0.0608  0.4867  0.2719
  616MOL0     C84891   9.050   4.739   6.651  0.2247  0.3603  0.2097
  616MOL0     C84892   9.093   4.887   6.667  1.2729  0.6543 -0.6247
  616MOL0     C84893   9.240   4.901   6.624 -0.2771  0.4301  0.2010
  616MOL0     O84894   9.293   5.028   6.651 -0.4118  0.6125 -0.7123
  616MOL0     C84895   9.432   5.050   6.642  0.1289 -0.3260  0.4156
  616MOL0     C84896   9.537   4.964   6.591 -0.1362 -0.3658 -0.0951
  616MOL0     C84897   9.667   5.014   6.569 -0.2122  0.3576 -0.0381
  616MOL0     C84898   9.769   4.921   6.495  0.0591  0.3015 -1.1188
  616MOL0     C84899   9.692   5.148   6.607 -1.3569  0.5178  0.3065
  616MOL0     C84900   9.831   5.208   6.596 -0.5421 -0.4943  0.1591
  616MOL0     O84901   9.844   5.337   6.643 -0.1699  0.0252  0.4407
  616MOL0     C84902   9.974   5.397   6.616  0.0032 -0.2668 -0.0618
  616MOL0     C84903  10.100   5.349   6.668 -0.0178 -0.2680 -0.2697
  616MOL0     C84904  10.217   5.398   6.637 -0.8534 -0.4005  0.3218
  616MOL0     C84905  10.239   5.498   6.548  0.6289 -0.2019 -0.0024
  616MOL0     O84906  10.370   5.536   6.522 -0.6857  0.3251 -0.5904
  616MOL0     C84907  10.395   5.647   6.438  0.1152  0.8037  0.1705
  616MOL0     C84908  10.547   5.681   6.431  1.0157 -0.1211 -0.0804
  616MOL0     C84909  10.631   5.664   6.556  0.1003 -0.9290  0.6089
  616MOL0     C84910  10.755   5.751   6.534 -0.3125  0.4528 -0.1375
  616MOL0     C84911  10.844   5.738   6.663  0.0734  1.4607 -0.2051
  616MOL0     C84912  10.948   5.846   6.669 -0.1760 -0.8321  0.2981
  616MOL0     C84913  11.012   5.853   6.813 -0.3653 -1.0355  0.3529
  616MOL0     C84914  11.098   5.987   6.838  0.2791  0.0835  0.8291
  616MOL0    Cl84915  11.225   5.992   6.721 -0.0703  0.2443 -0.3492
  616MOL0     C84916  10.119   5.557   6.505 -0.0099  0.0815 -0.3180
  616MOL0     C84917   9.988   5.513   6.540  0.3821 -0.4513 -0.0722
  616MOL0     O84918   9.923   5.148   6.539  0.3226 -0.1535  0.2589
  616MOL0     C84919   9.596   5.226   6.660 -0.5134 -0.2452  0.7232
  616MOL0     C84920   9.466   5.183   6.670 -0.2892  1.0123 -0.0978
  616MOL0     N84921   8.760   4.924   6.739  0.1292  0.6663 -0.2655
  616MOL0     N84922   8.669   4.939   6.834 -0.0895  0.0402 -0.2075
  616MOL0     C84923   7.495   5.046   7.473  0.3773 -0.1542 -1.1809
  616MOL0     C84924   7.355   5.053   7.484  0.0481  0.5041  0.1167
  616MOL0     C84925   6.926   5.200   7.355 -0.9182  0.4076 -0.5891
  616MOL0     C84926   6.871   5.079   7.409  0.0687  0.0623  0.7553
  616MOL0     C84927   6.731   5.065   7.417  0.3337  0.3473 -0.5002
  616MOL0     C84928   6.651   5.176   7.385 -0.0811  1.1648  0.3669
  616MOL0     O84929   6.516   5.173   7.395  0.0862 -0.1039  0.7393
  616MOL0     C84930   6.442   5.066   7.444 -0.3642  0.2267  0.1581
  616MOL0     C84931   6.453   5.051   7.596 -0.8142 -0.6766  0.3555
  616MOL0     C84932   6.366   5.155   7.666 -0.3228  0.8868 -0.6095
  616MOL0     C84933   6.388   5.163   7.820 -0.8881  0.2524 -0.2935
  616MOL0     C84934   6.273   5.226   7.888  0.3865  0.1053  0.2981
  616MOL0     C84935   6.172   5.281   7.932 -0.3559  0.4361 -0.1217
  616MOL0     C84936   6.705   5.294   7.341 -0.0595 -0.4336  0.1839
  616MOL0     C84937   6.842   5.308   7.317 -0.2094 -0.0482  0.1776
  616MOL0     C84938   6.892   5.435   7.260  0.4228 -0.5736  0.5119
  616MOL0     H84939   7.285   5.114   7.160  1.6021 -2.0434 -2.6485
  616MOL0     H84940   7.532   5.093   7.140 -0.4998 -0.0523 -0.4293
  616MOL0     H84941   7.801   5.106   7.195  1.3905 -0.8037 -1.2447
  616MOL0     H84942   7.714   4.958   7.152  1.2409 -1.2235 -0.3417
  616MOL0     H84943   7.918   4.942   7.361 -5.0658  0.9139  0.8647
  616MOL0     H84944   7.860   4.809   7.268  2.3374 -1.1036  0.3699
  616MOL0     H84945   7.961   4.890   7.060 -1.5437  3.0909  1.1066
  616MOL0     H84946   8.038   5.034   7.128  0.7383  0.7620  0.3884
  616MOL0     H84947   8.141   4.893   7.283 -1.6266  3.0250 -0.4644
  616MOL0     H84948   8.091   4.748   7.191  2.2653 -0.9151  1.6584
  616MOL0     H84949   8.255   4.971   7.064  2.3750 -0.9379 -1.2183
  616MOL0     H84950   8.184   4.823   6.991 -0.1501  0.6684 -0.0218
  616MOL0     H84951   8.397   4.847   7.202 -1.1538  1.7490 -0.7961
  616MOL0     H84952   8.342   4.684   7.151 -1.9890 -0.3904 -1.9668
  616MOL0     H84953   8.427   4.907   6.961 -0.1320 -1.6708 -3.5485
  616MOL0     H84954   8.408   4.739   6.925  3.7385 -0.4288 -1.5351
  616MOL0     H84955   8.629   4.846   7.110 -1.8045  0.7836  0.6573
  616MOL0     H84956   8.598   4.676   7.044 -2.6102 -0.8736 -1.0404
  616MOL0     H84957   8.761   4.628   6.870 -1.6927 -1.3908 -0.6236
  616MOL0     H84958   8.874   4.772   6.537 -2.0305 -0.2816  0.3437
  616MOL0     H84959   8.871   4.624   6.637  2.1860 -0.0335 -0.0679
  616MOL0     H84960   9.076   4.680   6.740 -2.4937  1.5294  1.9259
  616MOL0     H84961   9.100   4.700   6.562 -1.4920 -0.9175 -0.2624
  616MOL0     H84962   9.026   4.950   6.608 -0.8337  1.0857  2.0181
  616MOL0     H84963   9.093   4.917   6.772  0.1767  1.9776 -0.9722
  616MOL0     H84964   9.301   4.831   6.682  0.1601  0.5087 -0.1623
  616MOL0     H84965   9.261   4.881   6.519  1.6625 -2.3661  1.0090
  616MOL0     H84966   9.505   4.867   6.552 -0.9413  0.8402 -2.7196
  616MOL0     H84967   9.817   4.972   6.411  1.2618  0.3225 -0.4509
  616MOL0     H84968   9.723   4.831   6.454 -0.9947 -0.4100  1.4475
  616MOL0     H84969   9.852   4.902   6.565 -1.0172 -0.5855 -0.0552
  616MOL0     H84970  10.097   5.263   6.734 -1.1262  0.2352  0.3749
  616MOL0     H84971  10.293   5.340   6.688  1.0324 -0.4084 -2.3121
  616MOL0     H84972  10.369   5.635   6.333 -3.2460  2.6446  0.6691
  616MOL0     H84973  10.355   5.737   6.485 -1.7449 -0.3312  0.8280
  616MOL0     H84974  10.586   5.614   6.354 -0.1887 -1.4326  0.4191
  616MOL0     H84975  10.547   5.783   6.391 -3.7267 -0.8994 -2.6534
  616MOL0     H84976  10.653   5.557   6.570  0.3031 -0.5811  3.7934
  616MOL0     H84977  10.570   5.703   6.638  1.1394  2.3820 -0.0568
  616MOL0     H84978  10.728   5.853   6.506  2.1406  0.9529 -0.9703
  616MOL0     H84979  10.812   5.714   6.448 -0.1501  0.3085  0.0298
  616MOL0     H84980  10.782   5.747   6.752  0.2641  0.6425  0.0264
  616MOL0     H84981  10.890   5.638   6.660  0.4788  1.5803  1.2021
  616MOL0     H84982  10.895   5.938   6.647 -0.8119 -0.9232  1.4003
  616MOL0     H84983  11.024   5.824   6.592  1.6555 -2.1950  2.3611
  616MOL0     H84984  11.078   5.767   6.824 -0.0885 -1.3860 -3.0712
  616MOL0     H84985  10.928   5.846   6.883  0.9533 -1.7696  1.9392
  616MOL0     H84986  11.135   5.982   6.941 -1.7617 -0.9967  1.5708
  616MOL0     H84987  11.037   6.078   6.836  2.2174  1.4166 -1.1983
  616MOL0     H84988  10.128   5.643   6.438  0.5236 -0.8746 -1.5067
  616MOL0     H84989   9.911   5.583   6.510  0.4369  1.2376  3.2198
  616MOL0     H84990   9.610   5.333   6.675  1.4192 -0.0987 -1.5398
  616MOL0     H84991   9.379   5.241   6.698 -0.5537  0.5772 -0.0149
  616MOL0     H84992   7.559   5.038   7.560 -0.3894  2.3674 -0.2914
  616MOL0     H84993   7.311   5.029   7.580  1.2101 -2.0150  0.0943
  616MOL0     H84994   6.931   4.996   7.444 -1.0881 -1.0268  0.2639
  616MOL0     H84995   6.694   4.972   7.457 -0.5164  0.4636 -0.9982
  616MOL0     H84996   6.339   5.065   7.409  0.7311 -2.3738 -3.6302
  616MOL0     H84997   6.481   4.973   7.402 -2.0929 -0.4182 -0.1022
  616MOL0     H84998   6.555   5.055   7.635 -0.5983 -0.8034 -0.1902
  616MOL0     H84999   6.425   4.948   7.618  4.2155 -2.1123  1.2557
  616MOL0     H85000   6.380   5.248   7.611 -3.7223  0.5090 -2.4005
  616MOL0     H85001   6.260   5.135   7.647 -1.1685 -0.6301  4.1874
  616MOL0     H85002   6.474   5.227   7.840  1.3025 -2.3273 -0.9440
  616MOL0     H85003   6.405   5.064   7.863  0.0217 -0.7263 -2.7327
  616MOL0     H85004   6.085   5.329   7.974  0.8109  1.5859  1.1045
  616MOL0     H85005   6.642   5.382   7.329  1.5511  0.8981  1.1165
  616MOL0     H85006   6.949   5.412   7.170 -1.9951 -1.9615 -0.7767
  616MOL0     H85007   6.803   5.495   7.238 -0.2703 -1.5521  0.5611
  616MOL0     H85008   6.961   5.490   7.324 -0.4173  0.4604  0.5574
  617MOL0     O85009   1.314   0.675   5.137  0.0629  0.1131 -0.0982
  617MOL0     C85010   1.232   0.696   5.049 -0.6517  0.5469 -0.2343
  617MOL0     O85011   1.242   0.667   4.910 -0.3030 -0.1584  0.0585
  617MOL0     C85012   1.344   0.582   4.858  0.5755  0.9708  0.2018
  617MOL0     C85013   1.306   0.479   4.771 -0.2467 -0.3319  0.1740
  617MOL0     C85014   1.394   0.388   4.714  1.5057 -0.0404  0.9189
  617MOL0     C85015   1.528   0.393   4.754  0.0289  0.7747  0.5330
  617MOL0     O85016   1.617   0.309   4.691  0.3510 -0.7897  0.0716
  617MOL0     C85017   1.755   0.348   4.692  0.7804  0.3537 -0.1109
  617MOL0     C85018   1.829   0.247   4.603 -0.1196  0.4327 -0.4790
  617MOL0     C85019   1.980   0.286   4.599  0.7237  0.9585  0.7072
  617MOL0     C85020   2.064   0.166   4.545 -0.7151 -0.3072  0.5311
  617MOL0     C85021   2.216   0.181   4.558  0.5092  1.0191  0.5906
  617MOL0     C85022   2.297   0.057   4.523 -1.0755  0.1046  0.4924
  617MOL0     C85023   2.455   0.080   4.530  0.5777 -0.0225  0.1112
  617MOL0     C85024   2.491   0.132   4.675 -0.5753 -0.1355  0.2673
  617MOL0     N85025   2.630   0.130   4.725  0.2974  0.3032  0.0441
  617MOL0     C85026   2.661   0.081   4.849  1.0258  0.1050  0.3394
  617MOL0     C85027   2.794   0.063   4.840  0.2630 -0.4586  0.6740
  617MOL0     C85028   2.878  -0.017   4.943 -0.5511 -0.3607 -1.2591
  617MOL0     C85029   2.945   0.069   5.049 -0.4473  0.5772  0.6585
  617MOL0     C85030   3.049  -0.018   5.121  0.8323 -0.4054 -0.5852
  617MOL0     C85031   3.150  -0.077   5.016 -0.6088 -0.0164  0.1490
  617MOL0     O85032   3.267  -0.144   5.077  0.0731 -0.3520  0.2540
  617MOL0     C85033   3.387  -0.144   5.007 -0.1515  0.6832  0.2138
  617MOL0     C85034   3.502  -0.147   5.086 -0.6682 -0.3443  0.4649
  617MOL0     C85035   3.631  -0.134   5.018  0.6935  0.3682  0.2201
  617MOL0     C85036   3.756  -0.141   5.105  0.2696  0.4636  1.2158
  617MOL0     C85037   3.629  -0.138   4.875  0.0592 -0.8102  0.5634
  617MOL0     C85038   3.748  -0.118   4.790 -0.4686  0.4387  0.1879
  617MOL0     O85039   3.764  -0.201   4.683 -1.0495  0.6111 -0.1389
  617MOL0     C85040   3.870  -0.184   4.604 -0.8319 -0.4092 -0.2326
  617MOL0     C85041   3.964  -0.288   4.593  0.6527  0.5750  0.5671
  617MOL0     C85042   4.084  -0.262   4.524  0.1021 -1.0771 -0.0845
  617MOL0     C85043   4.114  -0.132   4.478 -0.2219  0.4932 -0.0412
  617MOL0     O85044   4.236  -0.094   4.420  0.3227  0.1515 -0.4028
  617MOL0     C85045   4.346  -0.159   4.478  0.1168 -0.0125  0.3334
  617MOL0     C85046   4.469  -0.090   4.437 -0.3202 -0.3478  0.7945
  617MOL0     C85047   4.486   0.060   4.475 -0.3242 -0.4054 -0.8791
  617MOL0     C85048   4.583   0.142   4.400 -0.0553 -0.8299  0.3233
  617MOL0     C85049   4.528   0.282   4.377 -0.4640  0.0015 -0.3857
  617MOL0     C85050   4.643   0.354   4.313 -0.3088  0.4503  0.7674
  617MOL0     C85051   4.627   0.506   4.316 -0.2286 -0.5880  0.1938
  617MOL0     C85052   4.764   0.575   4.302 -0.2736 -0.6535 -0.0769
  617MOL0    Cl85053   4.864   0.566   4.150  0.0326 -0.1652 -0.4806
  617MOL0     C85054   4.015  -0.035   4.476  0.1631 -0.1095 -0.4796
  617MOL0     C85055   3.889  -0.059   4.532 -0.4255 -0.7617  0.4876
  617MOL0     O85056   3.816  -0.015   4.811  0.0001  0.3729 -0.5771
  617MOL0     C85057   3.507  -0.170   4.799 -0.1035  0.6211 -0.3595
  617MOL0     C85058   3.391  -0.165   4.870 -0.1468  0.5320 -0.0957
  617MOL0     N85059   2.837   0.084   4.705  0.2517 -0.7474 -0.2963
  617MOL0     N85060   2.739   0.132   4.645 -0.1730 -0.8848  0.5339
  617MOL0     C85061   1.562   0.479   4.860  0.6761  0.1508 -0.5558
  617MOL0     C85062   1.479   0.578   4.900  0.6790  0.1313 -0.2078
  617MOL0     C85063   1.105   0.751   5.100 -0.3122 -0.5206 -0.2244
  617MOL0     C85064   1.103   0.822   5.222  0.6061 -0.5977 -0.1464
  617MOL0     C85065   0.983   0.877   5.279  0.1964  0.3177  0.1986
  617MOL0     C85066   0.867   0.849   5.207 -0.2446  1.0699  0.7345
  617MOL0     O85067   0.751   0.895   5.264  0.1505 -0.3825 -0.3885
  617MOL0     C85068   0.626   0.870   5.202  0.3343  0.1982  0.4115
  617MOL0     C85069   0.504   0.931   5.268 -0.0883  0.1553 -0.2242
  617MOL0     C85070   0.385   0.932   5.171 -0.4410  0.3020 -0.4107
  617MOL0     C85071   0.328   0.794   5.127  0.2502  0.1170  0.6085
  617MOL0     C85072   0.227   0.811   5.023  0.1538 -0.0291  0.7959
  617MOL0     C85073   0.133   0.832   4.941 -0.3228 -0.2158 -0.1419
  617MOL0     C85074   0.864   0.782   5.079 -0.5151 -0.4568  0.4383
  617MOL0     C85075   0.987   0.721   5.030  0.1940 -1.0976  0.1882
  617MOL0     C85076   0.968   0.654   4.896  0.2614  0.7340 -0.3782
  617MOL0     H85077   1.200   0.487   4.748 -0.2590  2.2890  0.7789
  617MOL0     H85078   1.350   0.326   4.636 -0.1136  1.3101  0.7027
  617MOL0     H85079   1.789   0.344   4.796 -0.3922  0.0739  0.2730
  617MOL0     H85080   1.762   0.451   4.655  1.0696  0.5941  0.5975
  617MOL0     H85081   1.816   0.142   4.631  1.6970  0.7970  2.0751
  617MOL0     H85082   1.787   0.267   4.504 -0.4780  1.0838 -0.2011
  617MOL0     H85083   1.989   0.367   4.525 -1.1624 -0.2313 -0.9296
  617MOL0     H85084   2.016   0.324   4.695  2.6722  4.7964 -1.3139
  617MOL0     H85085   2.030   0.082   4.606 -0.8008 -1.1375 -0.6229
  617MOL0     H85086   2.041   0.142   4.441  1.5433 -0.4686  0.0149
  617MOL0     H85087   2.236   0.208   4.662  1.7225  0.3701  0.5557
  617MOL0     H85088   2.251   0.266   4.499 -1.6014  1.2034 -0.4677
  617MOL0     H85089   2.277  -0.027   4.591  3.0050 -0.2375  1.5348
  617MOL0     H85090   2.273   0.034   4.419  1.0838  0.7563 -0.2101
  617MOL0     H85091   2.484   0.152   4.453 -0.8951  0.6200  0.1118
  617MOL0     H85092   2.492  -0.016   4.493  0.1512  0.2705 -1.1325
  617MOL0     H85093   2.469   0.240   4.677  2.1317  0.4866  0.5793
  617MOL0     H85094   2.426   0.084   4.749 -0.8637  2.0682  1.5362
  617MOL0     H85095   2.600   0.063   4.936  0.4872 -0.4075 -0.1374
  617MOL0     H85096   2.942  -0.083   4.883 -0.3120  0.5452 -2.0173
  617MOL0     H85097   2.803  -0.080   4.991 -1.6884  1.1913 -0.9182
  617MOL0     H85098   2.992   0.159   5.008  1.4266  0.0509  1.5565
  617MOL0     H85099   2.869   0.107   5.119 -1.6263 -1.3081  0.4610
  617MOL0     H85100   3.096   0.038   5.203  1.6194 -2.1622  0.2105
  617MOL0     H85101   2.995  -0.100   5.170  0.4276  0.1463 -0.0836
  617MOL0     H85102   3.108  -0.152   4.949 -0.6952  1.6414 -1.7133
  617MOL0     H85103   3.182   0.001   4.947 -1.2137 -1.7706 -2.2478
  617MOL0     H85104   3.499  -0.155   5.195  1.7854 -0.7153  0.5696
  617MOL0     H85105   3.781  -0.041   5.140  2.7061  1.5475 -2.9071
  617MOL0     H85106   3.842  -0.173   5.045  0.8355  0.9879  1.7293
  617MOL0     H85107   3.746  -0.219   5.182 -1.3310  0.6867  1.2653
  617MOL0     H85108   3.953  -0.384   4.643  5.5598 -1.0730 -0.8869
  617MOL0     H85109   4.157  -0.340   4.508 -0.0086 -1.1344 -0.3131
  617MOL0     H85110   4.347  -0.148   4.587 -0.8500  0.8028  0.2756
  617MOL0     H85111   4.351  -0.262   4.441  0.5348  0.0200  0.2935
  617MOL0     H85112   4.554  -0.146   4.476  0.7958  0.8226  0.1613
  617MOL0     H85113   4.474  -0.092   4.328  1.2843  2.9091  0.6633
  617MOL0     H85114   4.520   0.058   4.579 -0.2064  2.7773 -0.7427
  617MOL0     H85115   4.387   0.107   4.478 -0.6549 -0.6912 -3.9524
  617MOL0     H85116   4.613   0.100   4.303 -1.0201 -1.4124  0.2628
  617MOL0     H85117   4.674   0.142   4.461 -0.4052 -0.2082  0.8432
  617MOL0     H85118   4.449   0.289   4.302  0.1158 -0.1307 -1.0179
  617MOL0     H85119   4.507   0.323   4.476  0.1018 -2.4458  0.8276
  617MOL0     H85120   4.675   0.316   4.215 -2.2255 -0.8520  0.5732
  617MOL0     H85121   4.725   0.328   4.381  0.7202  2.2550  0.2645
  617MOL0     H85122   4.584   0.534   4.412 -1.4769 -1.9064  0.0583
  617MOL0     H85123   4.568   0.536   4.229 -2.5977 -2.0205  1.2171
  617MOL0     H85124   4.821   0.546   4.391 -0.4022 -0.9179 -0.0812
  617MOL0     H85125   4.751   0.682   4.323 -1.4089 -0.8347  0.1958
  617MOL0     H85126   4.044   0.059   4.429  2.2425 -1.3266 -1.7783
  617MOL0     H85127   3.825   0.028   4.531 -1.5062 -1.5454 -0.9068
  617MOL0     H85128   3.501  -0.182   4.691  1.1900 -0.5700 -0.3171
  617MOL0     H85129   3.295  -0.164   4.820 -1.2379  3.2520  1.8387
  617MOL0     H85130   1.663   0.471   4.900 -0.0099  2.0270  1.8097
  617MOL0     H85131   1.509   0.638   4.985  0.8575 -0.2374 -0.0065
  617MOL0     H85132   1.194   0.824   5.282  1.7030 -0.8313 -1.7436
  617MOL0     H85133   0.989   0.928   5.374 -0.8405  2.7778 -0.9850
  617MOL0     H85134   0.622   0.920   5.104 -0.9950 -0.0008  0.3461
  617MOL0     H85135   0.614   0.762   5.194 -1.2126  0.4332 -0.8543
  617MOL0     H85136   0.527   1.036   5.288 -3.8250  1.3546 -1.3217
  617MOL0     H85137   0.484   0.886   5.366  2.8795  0.2163  0.4921
  617MOL0     H85138   0.306   0.987   5.224 -1.8727 -1.5563 -0.5116
  617MOL0     H85139   0.414   0.988   5.082 -3.0583 -1.2528 -2.3636
  617MOL0     H85140   0.293   0.726   5.205  0.8439 -1.5859 -0.5571
  617MOL0     H85141   0.405   0.732   5.081  0.0207 -1.7643  2.6135
  617MOL0     H85142   0.051   0.844   4.873 -2.7526  0.9669  2.7381
  617MOL0     H85143   0.775   0.770   5.018 -1.3906 -0.9457  1.7547
  617MOL0     H85144   1.015   0.556   4.888 -1.9683 -0.7495  2.7480
  617MOL0     H85145   0.865   0.628   4.872  0.2157  1.8655 -1.5661
  617MOL0     H85146   1.005   0.717   4.814  0.5110  0.4738 -0.4680
  618MOL0     O85147   6.715   7.102   7.272  0.6007  0.0710 -0.1628
  618MOL0     C85148   6.719   7.215   7.224 -0.3570  0.3868  0.2231
  618MOL0     O85149   6.831   7.281   7.189  1.0454 -0.3615 -0.3428
  618MOL0     C85150   6.958   7.233   7.190 -0.1367  0.3914 -0.1580
  618MOL0     C85151   7.006   7.139   7.289 -0.1774 -0.5402 -0.3572
  618MOL0     C85152   7.140   7.102   7.281 -0.2327 -0.5400  0.4663
  618MOL0     C85153   7.235   7.158   7.188  0.1373 -0.2336  0.6253
  618MOL0     O85154   7.367   7.126   7.181  0.4436  0.2952 -0.3021
  618MOL0     C85155   7.409   7.006   7.256  1.3033 -0.1552  0.8191
  618MOL0     C85156   7.540   6.952   7.197  0.4475 -0.0284  0.9608
  618MOL0     C85157   7.644   7.054   7.230  0.0601 -0.3677 -0.3033
  618MOL0     C85158   7.778   6.994   7.224  0.8718 -0.3327 -0.5295
  618MOL0     C85159   7.876   7.082   7.289 -0.7043  0.6685  0.7613
  618MOL0     C85160   7.999   7.095   7.192  0.6196  0.3065 -0.0969
  618MOL0     C85161   8.090   6.972   7.191  0.1924 -0.0491 -0.3902
  618MOL0     C85162   8.229   6.995   7.135  0.3749 -0.2607  0.7106
  618MOL0     N85163   8.220   7.053   7.004 -0.4397  0.3097  0.1092
  618MOL0     C85164   8.133   7.003   6.907 -0.5490 -0.0052 -0.2385
  618MOL0     C85165   8.153   7.080   6.791  0.4058  0.2649 -0.7728
  618MOL0     C85166   8.055   7.066   6.675  0.3943 -0.6009  0.6648
  618MOL0     C85167   8.080   7.168   6.566 -0.7947 -0.4520  0.3895
  618MOL0     C85168   7.973   7.159   6.454 -0.1751 -0.9157 -0.0245
  618MOL0     C85169   7.905   7.028   6.428  0.1295 -0.2482  0.0960
  618MOL0     O85170   8.013   6.938   6.387 -0.7387 -0.5935  0.5349
  618MOL0     C85171   7.996   6.826   6.306 -0.1363 -0.0660  0.1357
  618MOL0     C85172   7.871   6.764   6.311  0.6692 -0.3024 -1.4506
  618MOL0     C85173   7.835   6.652   6.242  0.7820  0.1508 -0.4279
  618MOL0     C85174   7.704   6.598   6.278 -0.1177 -0.4824 -0.0117
  618MOL0     C85175   7.928   6.594   6.153 -0.2954  0.4581 -0.1198
  618MOL0     C85176   7.901   6.478   6.060  0.4227 -0.0319 -0.1679
  618MOL0     O85177   8.003   6.458   5.981 -0.3485 -0.9189  0.2568
  618MOL0     C85178   8.010   6.353   5.896 -1.1735 -0.9082  0.2346
  618MOL0     C85179   8.027   6.362   5.758  0.0321  0.3947 -0.2803
  618MOL0     C85180   8.017   6.255   5.673 -0.3567  0.0678 -0.5326
  618MOL0     C85181   8.036   6.127   5.733 -0.4088  0.3056  0.0498
  618MOL0     O85182   8.066   6.018   5.673  0.8100 -0.5120 -0.3568
  618MOL0     C85183   8.050   6.016   5.526 -0.5339  0.4301  0.0861
  618MOL0     C85184   8.070   5.870   5.481  0.2918 -0.3380 -0.1388
  618MOL0     C85185   8.080   5.882   5.334  0.0178  0.7072 -0.2282
  618MOL0     C85186   8.098   5.742   5.277 -0.9215  0.2191  0.0119
  618MOL0     C85187   8.063   5.727   5.126 -0.0529  0.3659  0.0429
  618MOL0     C85188   8.111   5.595   5.068  0.2482 -0.4914  0.2748
  618MOL0     C85189   8.063   5.474   5.142  0.2592  0.0742 -0.1860
  618MOL0     C85190   8.065   5.350   5.042  0.0928 -0.7565  0.3709
  618MOL0    Cl85191   8.246   5.318   5.006 -0.4763 -0.4476 -0.4261
  618MOL0     C85192   8.044   6.115   5.872 -0.2572 -0.1703 -0.5395
  618MOL0     C85193   8.017   6.225   5.952  1.4601 -1.2238 -0.9011
  618MOL0     O85194   7.795   6.414   6.062 -0.5709  0.6281 -0.0967
  618MOL0     C85195   8.055   6.653   6.146  0.3986 -1.0856  0.3778
  618MOL0     C85196   8.090   6.768   6.225  0.4568  0.0575 -0.1761
  618MOL0     N85197   8.255   7.170   6.823  0.6702 -0.0543  0.0644
  618MOL0     N85198   8.297   7.153   6.948  0.0236  0.1360  0.8939
  618MOL0     C85199   7.184   7.261   7.108  0.7128  0.3190  0.8885
  618MOL0     C85200   7.046   7.292   7.108  0.7374 -0.7596  0.0699
  618MOL0     C85201   6.589   7.277   7.198 -0.2407 -0.5221  0.2941
  618MOL0     C85202   6.588   7.398   7.121 -0.7031 -0.0224 -0.1346
  618MOL0     C85203   6.468   7.462   7.085 -0.5445 -0.2358  0.5717
  618MOL0     C85204   6.346   7.421   7.142 -0.7755  0.3531 -0.1232
  618MOL0     O85205   6.244   7.509   7.123  1.1057 -0.3048  0.1959
  618MOL0     C85206   6.111   7.480   7.174 -0.2595 -0.1676 -1.0428
  618MOL0     C85207   6.042   7.386   7.077  0.0935  0.1375  0.0883
  618MOL0     C85208   5.907   7.353   7.125 -1.0550  0.3160  0.2434
  618MOL0     C85209   5.847   7.249   7.034  0.0578 -0.0230  0.6538
  618MOL0     C85210   5.715   7.209   7.080 -0.3571 -0.2871 -0.5199
  618MOL0     C85211   5.610   7.171   7.115  1.3477 -0.2912  0.2165
  618MOL0     C85212   6.343   7.303   7.221 -0.8122 -0.1689 -0.1531
  618MOL0     C85213   6.462   7.231   7.250 -0.1929  0.4357  0.3980
  618MOL0     C85214   6.441   7.112   7.342 -0.1384 -0.9295  0.2849
  618MOL0     H85215   6.944   7.093   7.364  3.1013 -2.1331  1.5768
  618MOL0     H85216   7.171   7.020   7.345 -0.0010 -0.2652  0.7103
  618MOL0     H85217   7.338   6.923   7.241 -0.1317  0.7427  2.3462
  618MOL0     H85218   7.400   7.037   7.360 -1.9124  0.2886  0.5224
  618MOL0     H85219   7.570   6.859   7.247 -1.4022  0.2409  2.7021
  618MOL0     H85220   7.528   6.929   7.090 -0.3003 -0.5672  1.1487
  618MOL0     H85221   7.642   7.144   7.167 -1.5564  0.0930  0.3390
  618MOL0     H85222   7.624   7.081   7.334 -2.0808  1.8086 -1.1745
  618MOL0     H85223   7.789   6.900   7.278  0.5872  1.4435  2.8672
  618MOL0     H85224   7.799   6.979   7.118  1.5813  1.3304 -0.6530
  618MOL0     H85225   7.911   7.051   7.388  1.4865  2.3169  0.5944
  618MOL0     H85226   7.843   7.186   7.301  2.1743  1.7043  0.6373
  618MOL0     H85227   7.969   7.128   7.093 -1.3117 -0.4247  0.1848
  618MOL0     H85228   8.062   7.175   7.231  1.5266 -1.0435  1.3506
  618MOL0     H85229   8.039   6.894   7.133 -1.7297  0.7100  0.1847
  618MOL0     H85230   8.088   6.927   7.291 -2.4567  1.4173  0.3158
  618MOL0     H85231   8.283   7.069   7.195 -1.3953  2.0997 -0.3915
  618MOL0     H85232   8.292   6.907   7.128  4.2877  2.4209 -2.4777
  618MOL0     H85233   8.057   6.925   6.913 -0.0903 -0.3480  1.5580
  618MOL0     H85234   7.959   7.088   6.723  1.1930  0.5349  1.8374
  618MOL0     H85235   8.063   6.964   6.636 -0.6962 -0.6716  0.5967
  618MOL0     H85236   8.087   7.270   6.604 -2.3056 -0.0889 -0.2430
  618MOL0     H85237   8.180   7.156   6.522 -0.2746  1.8747  0.8287
  618MOL0     H85238   7.905   7.244   6.468  2.1020  0.8815  0.7335
  618MOL0     H85239   8.012   7.195   6.358  4.2772  1.9404  2.4950
  618MOL0     H85240   7.862   6.986   6.519  0.8486 -0.5600  0.3051
  618MOL0     H85241   7.826   7.036   6.354  0.6689 -0.3003 -0.4973
  618MOL0     H85242   7.797   6.796   6.383 -1.0911 -1.3540 -2.7126
  618MOL0     H85243   7.670   6.627   6.378  0.2972 -0.0098 -0.0022
  618MOL0     H85244   7.711   6.489   6.281  2.9240 -0.5133 -2.7831
  618MOL0     H85245   7.644   6.620   6.189  0.9368 -0.4204 -0.7280
  618MOL0     H85246   8.022   6.461   5.713  1.8538  0.6539  0.0049
  618MOL0     H85247   8.010   6.274   5.567  2.5229 -1.1258 -1.0319
  618MOL0     H85248   7.950   6.041   5.490 -1.1507  1.2800  2.1997
  618MOL0     H85249   8.126   6.080   5.481 -1.6344  1.7301  0.0144
  618MOL0     H85250   8.156   5.826   5.531  0.1968 -0.9476 -0.5069
  618MOL0     H85251   7.976   5.818   5.503  0.8970 -1.2149  0.3834
  618MOL0     H85252   8.166   5.945   5.314  1.1350  0.5036  3.2854
  618MOL0     H85253   7.991   5.923   5.286 -1.2039 -0.9992  0.4517
  618MOL0     H85254   8.053   5.660   5.334  2.2180 -2.0096 -0.4716
  618MOL0     H85255   8.205   5.724   5.285 -0.5971  1.5232 -1.0586
  618MOL0     H85256   7.954   5.737   5.117  0.1154  2.0592 -0.4569
  618MOL0     H85257   8.108   5.810   5.071  0.4791  0.6834  0.9352
  618MOL0     H85258   8.221   5.590   5.063  0.3004  0.4430  0.4511
  618MOL0     H85259   8.084   5.594   4.962 -0.0955 -2.5703  0.3336
  618MOL0     H85260   7.956   5.488   5.162  0.2372 -1.0637  0.5792
  618MOL0     H85261   8.117   5.436   5.229  2.0491  0.8443 -0.9302
  618MOL0     H85262   8.011   5.365   4.948  1.1357 -1.3589 -0.3429
  618MOL0     H85263   8.025   5.262   5.093  0.4775 -1.8111 -1.0650
  618MOL0     H85264   8.052   6.015   5.913  0.7731  0.4747  0.9122
  618MOL0     H85265   7.993   6.200   6.055 -0.0860 -1.4085 -1.2800
  618MOL0     H85266   8.134   6.606   6.089 -0.2689 -1.4511 -0.2585
  618MOL0     H85267   8.185   6.822   6.223 -0.6937  2.3144  1.3678
  618MOL0     H85268   7.244   7.307   7.030 -0.0544  2.3345  1.4173
  618MOL0     H85269   7.012   7.372   7.043 -0.6503  0.9171  2.7335
  618MOL0     H85270   6.681   7.431   7.077 -1.9164  2.7826 -0.7900
  618MOL0     H85271   6.460   7.554   7.027 -1.0097  0.1850  1.2955
  618MOL0     H85272   6.119   7.443   7.277 -0.3482  1.4609 -0.4341
  618MOL0     H85273   6.057   7.574   7.182  0.7556  0.3600 -0.0790
  618MOL0     H85274   6.104   7.297   7.086  0.7987  0.3398 -2.2007
  618MOL0     H85275   6.039   7.427   6.976 -2.4967 -0.1226 -0.0187
  618MOL0     H85276   5.910   7.305   7.223 -2.3141 -2.5925 -1.0178
  618MOL0     H85277   5.840   7.440   7.128 -0.0799  1.0731  3.0945
  618MOL0     H85278   5.914   7.163   7.022  1.4163  0.8179  1.8166
  618MOL0     H85279   5.827   7.289   6.934 -1.6559  0.1805  1.0461
  618MOL0     H85280   5.512   7.133   7.135  1.8843 -1.7372  0.2008
  618MOL0     H85281   6.253   7.261   7.265  1.0029 -1.4583  2.6396
  618MOL0     H85282   6.496   7.125   7.435 -1.4120 -0.1086  0.9417
  618MOL0     H85283   6.335   7.093   7.360  0.7036 -3.8290  3.1183
  618MOL0     H85284   6.480   7.018   7.300  1.7735 -0.6152  1.2474
  619MOL0     O85285   6.489   8.190   1.199  0.2128  0.4610 -0.0001
  619MOL0     C85286   6.469   8.301   1.252 -1.1864 -0.1971 -0.7549
  619MOL0     O85287   6.504   8.319   1.380  0.0479 -0.3146 -0.2297
  619MOL0     C85288   6.599   8.245   1.438 -0.4368 -0.4976 -0.8348
  619MOL0     C85289   6.731   8.254   1.381  0.2748  0.7238 -0.5262
  619MOL0     C85290   6.827   8.184   1.443 -0.3566  0.2092  0.2754
  619MOL0     C85291   6.811   8.119   1.566  0.3438 -0.0644  0.7527
  619MOL0     O85292   6.920   8.072   1.623  0.3609 -0.1224 -0.7936
  619MOL0     C85293   6.929   8.064   1.767 -0.3063 -0.5958 -0.5338
  619MOL0     C85294   6.939   8.209   1.829  0.4052  0.4277 -0.9069
  619MOL0     C85295   7.079   8.270   1.809  0.0952  0.5129 -0.4660
  619MOL0     C85296   7.094   8.408   1.874  0.8057 -0.2849 -0.4355
  619MOL0     C85297   7.236   8.452   1.868 -0.0435  0.5903  0.0924
  619MOL0     C85298   7.261   8.597   1.933  0.4217  0.7830  0.2670
  619MOL0     C85299   7.408   8.622   1.951  0.2490 -1.1278  0.5869
  619MOL0     C85300   7.455   8.544   2.066  0.0698 -0.5145  0.0687
  619MOL0     N85301   7.599   8.527   2.087  0.7757  0.7331  0.0029
  619MOL0     C85302   7.668   8.548   2.200 -0.3172 -0.4784  0.0610
  619MOL0     C85303   7.795   8.513   2.165 -0.1935 -0.2170 -0.1730
  619MOL0     C85304   7.920   8.517   2.243  0.2732  0.8832 -0.2839
  619MOL0     C85305   7.980   8.379   2.263 -0.0967  0.5325  0.3680
  619MOL0     C85306   7.900   8.292   2.351  0.6209  0.5573 -0.1363
  619MOL0     C85307   7.894   8.333   2.495  0.7889 -1.2886  0.7764
  619MOL0     O85308   7.835   8.235   2.573  0.3307 -0.0647 -0.3887
  619MOL0     C85309   7.873   8.254   2.708 -0.1644  0.5330  0.2248
  619MOL0     C85310   7.880   8.136   2.777 -0.5247  0.6006  0.4284
  619MOL0     C85311   7.907   8.133   2.914  0.7120 -0.1452  0.8002
  619MOL0     C85312   7.912   7.990   2.971 -0.9218 -0.1935 -0.1653
  619MOL0     C85313   7.925   8.248   2.988  0.6071 -0.8993  0.1973
  619MOL0     C85314   7.942   8.247   3.142 -0.4443 -0.3199 -0.6830
  619MOL0     O85315   7.988   8.359   3.198 -0.1755 -0.5100 -0.6964
  619MOL0     C85316   7.964   8.389   3.328  0.7371 -0.4595 -0.1402
  619MOL0     C85317   7.859   8.345   3.409 -0.1045 -0.5745  0.2185
  619MOL0     C85318   7.834   8.390   3.544  0.0024 -0.2217  0.0992
  619MOL0     C85319   7.929   8.459   3.614  1.0312 -0.2336 -0.3394
  619MOL0     O85320   7.898   8.470   3.747  0.3094  0.7301  0.5276
  619MOL0     C85321   7.993   8.544   3.833 -0.8976  0.6981  0.0596
  619MOL0     C85322   8.125   8.464   3.860  0.0802  0.5909  0.2473
  619MOL0     C85323   8.094   8.323   3.923 -0.1000 -0.7257  0.3316
  619MOL0     C85324   8.191   8.265   4.025 -0.0509  0.3033  0.4408
  619MOL0     C85325   8.327   8.227   3.975 -0.2079 -0.9365  0.5590
  619MOL0     C85326   8.419   8.165   4.083 -0.6153 -1.1068 -0.2331
  619MOL0     C85327   8.433   8.240   4.221 -0.8171  0.7640  0.8997
  619MOL0     C85328   8.510   8.370   4.216 -0.5680  0.5185  0.6586
  619MOL0    Cl85329   8.424   8.488   4.123 -0.4980 -0.3656  0.3002
  619MOL0     C85330   8.038   8.496   3.539 -0.3625 -0.9252  1.3572
  619MOL0     C85331   8.048   8.476   3.398  0.0667 -0.0551 -0.7252
  619MOL0     O85332   7.905   8.151   3.208  0.7932  0.2716 -0.1577
  619MOL0     C85333   7.926   8.365   2.916 -0.1196 -0.2248  0.2337
  619MOL0     C85334   7.890   8.374   2.774  0.1494 -0.2360 -1.1175
  619MOL0     N85335   7.793   8.472   2.033  0.4237  0.0615  0.0836
  619MOL0     N85336   7.671   8.448   2.001 -0.3023  0.2397  0.0488
  619MOL0     C85337   6.681   8.116   1.616 -0.3818 -0.0869 -0.1354
  619MOL0     C85338   6.577   8.184   1.560 -0.1544  0.9585  0.1842
  619MOL0     C85339   6.393   8.404   1.185 -0.1032 -0.2984 -0.2061
  619MOL0     C85340   6.337   8.498   1.272 -0.8668 -0.9644  0.4299
  619MOL0     C85341   6.260   8.601   1.221 -0.0095 -0.0623  0.3780
  619MOL0     C85342   6.226   8.601   1.087 -0.0863  0.1525  0.4889
  619MOL0     O85343   6.160   8.702   1.035  0.4138 -0.4799  0.1050
  619MOL0     C85344   6.036   8.740   1.103 -0.1568  0.2561  0.0405
  619MOL0     C85345   5.944   8.814   1.011  0.3701  0.6362  1.3215
  619MOL0     C85346   5.845   8.912   1.088  0.1489  0.0951 -0.5550
  619MOL0     C85347   5.780   9.005   0.990  0.5434 -0.0246  0.3768
  619MOL0     C85348   5.699   9.110   1.061 -0.1284  0.0287  0.3080
  619MOL0     C85349   5.618   9.172   1.117  1.0203 -0.4005  0.0123
  619MOL0     C85350   6.275   8.500   1.006  0.1303  0.6825  0.6566
  619MOL0     C85351   6.353   8.392   1.054  0.4283 -0.7851  0.3635
  619MOL0     C85352   6.405   8.293   0.954 -0.0430 -0.0026 -0.1759
  619MOL0     H85353   6.757   8.314   1.294  2.4139  3.1738  1.6235
  619MOL0     H85354   6.925   8.186   1.396  0.1505 -0.8836  1.2414
  619MOL0     H85355   7.024   8.014   1.785  1.6168  2.6857 -0.8183
  619MOL0     H85356   6.852   8.001   1.813 -0.3742  1.6675  2.8603
  619MOL0     H85357   6.859   8.273   1.792 -1.2234 -0.7725  0.3905
  619MOL0     H85358   6.936   8.193   1.937 -1.3648  0.3809 -0.9348
  619MOL0     H85359   7.145   8.202   1.863  0.4590  2.6014  1.8993
  619MOL0     H85360   7.115   8.275   1.706  0.5264  1.8452 -0.2746
  619MOL0     H85361   7.023   8.479   1.830 -1.6780 -1.4645  1.3834
  619MOL0     H85362   7.063   8.396   1.979  1.1199 -3.5288 -0.6191
  619MOL0     H85363   7.271   8.451   1.764  2.3233 -3.4243  0.7155
  619MOL0     H85364   7.298   8.379   1.921  2.2970  2.6679  0.4271
  619MOL0     H85365   7.211   8.677   1.877 -1.9678 -1.7213 -1.4492
  619MOL0     H85366   7.206   8.586   2.027  0.2210  1.4546  0.2358
  619MOL0     H85367   7.432   8.728   1.961 -1.0984 -0.7477 -0.0190
  619MOL0     H85368   7.463   8.583   1.865  2.5440  3.2044 -0.1865
  619MOL0     H85369   7.402   8.585   2.152  2.4902 -0.0769  1.4298
  619MOL0     H85370   7.418   8.442   2.050 -2.5657  0.6296 -2.0452
  619MOL0     H85371   7.621   8.573   2.295 -4.8991 -1.4439 -1.7274
  619MOL0     H85372   7.905   8.556   2.343  0.1130  0.3645 -0.1016
  619MOL0     H85373   7.997   8.581   2.199  1.3701  1.5377  2.3991
  619MOL0     H85374   7.998   8.335   2.164 -0.2589 -2.0960  1.4087
  619MOL0     H85375   8.080   8.393   2.306 -0.2230 -1.5879  1.4819
  619MOL0     H85376   7.794   8.287   2.325 -0.2519  3.2843  2.3848
  619MOL0     H85377   7.938   8.189   2.354 -2.7125 -0.7822  0.9369
  619MOL0     H85378   7.997   8.347   2.527  0.7406 -0.4807  0.5908
  619MOL0     H85379   7.838   8.427   2.501 -1.4516 -2.0196 -3.8618
  619MOL0     H85380   7.857   8.045   2.722 -0.1316  1.4794 -1.2817
  619MOL0     H85381   8.005   7.976   3.026 -0.9218 -0.6939 -0.2916
  619MOL0     H85382   7.920   7.910   2.897  0.7888 -1.1097  0.9241
  619MOL0     H85383   7.832   7.967   3.042 -0.7768  0.5948  0.2766
  619MOL0     H85384   7.774   8.297   3.361 -2.7391  2.9871  0.9487
  619MOL0     H85385   7.748   8.347   3.594  0.6895  0.1063  1.5996
  619MOL0     H85386   8.018   8.644   3.797 -1.4060  1.5929  2.0478
  619MOL0     H85387   7.947   8.562   3.931  1.6655  2.9331  0.9979
  619MOL0     H85388   8.183   8.445   3.769  0.8078 -0.8585  0.9698
  619MOL0     H85389   8.187   8.519   3.932  0.9682 -1.2220  0.9372
  619MOL0     H85390   8.079   8.261   3.834  0.6488  0.1139 -0.4123
  619MOL0     H85391   7.995   8.329   3.969 -0.1211  1.3457  0.1359
  619MOL0     H85392   8.140   8.171   4.047  1.9502 -0.5824  1.5195
  619MOL0     H85393   8.193   8.329   4.114  2.8351  1.3979 -0.3184
  619MOL0     H85394   8.318   8.160   3.889 -2.3918  0.4943 -0.3948
  619MOL0     H85395   8.373   8.317   3.933 -3.0911 -0.2849 -1.4842
  619MOL0     H85396   8.518   8.151   4.040 -0.4659 -2.1075  0.4029
  619MOL0     H85397   8.387   8.062   4.104 -1.5535 -0.5221  1.3652
  619MOL0     H85398   8.496   8.180   4.287  1.1602  2.0733  0.2853
  619MOL0     H85399   8.344   8.252   4.284  0.4462  1.9931  2.5539
  619MOL0     H85400   8.612   8.351   4.182  0.6657  1.6024  3.4314
  619MOL0     H85401   8.533   8.400   4.319  1.2978  0.8176  0.1881
  619MOL0     H85402   8.122   8.556   3.572 -0.0306  0.8364 -2.1552
  619MOL0     H85403   8.138   8.502   3.343 -0.6070 -0.8629 -2.2951
  619MOL0     H85404   7.950   8.460   2.963 -0.7110 -0.8466  1.8541
  619MOL0     H85405   7.882   8.471   2.727  0.2750  0.1313 -0.4049
  619MOL0     H85406   6.653   8.076   1.713 -0.8301 -1.4204 -0.7916
  619MOL0     H85407   6.482   8.186   1.612  1.2039 -0.0118  2.9078
  619MOL0     H85408   6.351   8.504   1.380 -0.2981  0.9840  0.2742
  619MOL0     H85409   6.226   8.669   1.298 -2.4885  0.9395 -1.4454
  619MOL0     H85410   5.989   8.643   1.119 -0.2442 -0.2013 -2.5118
  619MOL0     H85411   6.057   8.791   1.197 -1.0737 -1.2467  1.0910
  619MOL0     H85412   5.882   8.746   0.952  2.0038 -1.1363  1.5453
  619MOL0     H85413   5.997   8.880   0.942 -2.3320 -0.2097 -1.8312
  619MOL0     H85414   5.772   8.845   1.134  1.4257 -1.5350 -0.8059
  619MOL0     H85415   5.885   8.978   1.165  0.0311 -1.6498  1.0815
  619MOL0     H85416   5.703   8.956   0.929 -1.5887 -1.7101  3.9984
  619MOL0     H85417   5.854   9.047   0.922  1.4086 -2.0615  0.0035
  619MOL0     H85418   5.528   9.210   1.162 -0.6749 -3.0610 -0.9131
  619MOL0     H85419   6.243   8.498   0.902  2.8136 -1.0316 -0.2461
  619MOL0     H85420   6.364   8.195   0.979 -2.2652  0.3195 -2.2632
  619MOL0     H85421   6.382   8.314   0.850  1.5674 -0.1305 -0.5936
  619MOL0     H85422   6.515   8.291   0.958  0.0074  1.6326  0.2793
  620MOL0     O85423   4.481   9.547  10.116  0.0496 -0.2378  0.4200
  620MOL0     C85424   4.459   9.608  10.011 -0.5167 -0.3731  0.3025
  620MOL0     O85425   4.551   9.657   9.916 -0.3824  0.3913 -0.1700
  620MOL0     C85426   4.685   9.633   9.928  0.7238 -0.2540 -0.7126
  620MOL0     C85427   4.756   9.641   9.807  0.3788  0.0099  0.0895
  620MOL0     C85428   4.900   9.619   9.804 -0.5112 -0.3725  0.3253
  620MOL0     C85429   4.970   9.616   9.924  0.2437 -0.1889 -0.0010
  620MOL0     O85430   5.107   9.598   9.922  0.1989 -0.0801  0.1607
  620MOL0     C85431   5.184   9.669  10.022 -0.8507  0.3301  0.2023
  620MOL0     C85432   5.324   9.614  10.040 -1.3221 -0.1697 -0.2630
  620MOL0     C85433   5.424   9.709  10.116  0.6164 -0.3137  0.7735
  620MOL0     C85434   5.536   9.624  10.164  0.3474 -0.2704  0.3071
  620MOL0     C85435   5.638   9.703  10.241 -0.4951 -0.6915 -0.4295
  620MOL0     C85436   5.767   9.626  10.255  0.2751  0.1155  0.2989
  620MOL0     C85437   5.759   9.507  10.351  0.1208 -0.3462  0.3744
  620MOL0     C85438   5.887   9.415  10.345 -0.2232  0.0974  0.4177
  620MOL0     N85439   6.007   9.491  10.335 -0.5662 -0.0595  0.4136
  620MOL0     C85440   6.085   9.536  10.439 -0.3508 -0.6127 -0.3947
  620MOL0     C85441   6.200   9.570  10.391 -1.0413 -0.5594  0.1359
  620MOL0     C85442   6.313   9.623  10.472 -0.4017 -0.0599  0.3832
  620MOL0     C85443   6.328   9.776  10.444  0.7626  0.8577  0.5539
  620MOL0     C85444   6.374   9.852  10.566  0.0519 -0.5027  0.9155
  620MOL0     C85445   6.483   9.943  10.536  0.5971 -0.1909  0.1754
  620MOL0     O85446   6.605   9.876  10.486 -0.3436 -0.3422 -0.3321
  620MOL0     C85447   6.694   9.820  10.578 -0.2588 -0.6057  0.5011
  620MOL0     C85448   6.803   9.743  10.533 -0.7227 -0.2134 -0.3097
  620MOL0     C85449   6.897   9.685  10.624 -0.8513 -0.7473 -0.2434
  620MOL0     C85450   7.010   9.601  10.569  0.4994 -1.2820  0.7796
  620MOL0     C85451   6.878   9.703  10.762 -0.4652  1.0497 -0.6453
  620MOL0     C85452   6.984   9.667  10.861  0.5100 -0.4894 -0.4343
  620MOL0     O85453   7.117   9.705  10.833  0.4108  0.6079  0.6225
  620MOL0     C85454   7.221   9.640  10.890 -0.5599 -0.2743  0.4311
  620MOL0     C85455   7.221   9.534  10.980 -0.3378  0.4353  0.4478
  620MOL0     C85456   7.340   9.462  11.007  0.3219  0.3978  0.2064
  620MOL0     C85457   7.465   9.515  10.972  0.2902  0.5249  0.7864
  620MOL0     O85458   7.572   9.463  11.035 -0.0492 -0.0946 -0.2562
  620MOL0     C85459   7.701   9.514  11.004 -0.4209 -0.1399 -0.3789
  620MOL0     C85460   7.788   9.474  11.121 -0.3801 -0.2970 -0.6133
  620MOL0     C85461   7.928   9.537  11.117 -0.5304 -0.3328 -0.6274
  620MOL0     C85462   8.031   9.428  11.067  0.7585 -0.3709 -0.6421
  620MOL0     C85463   8.174   9.470  11.082 -0.1007 -0.5953  0.6114
  620MOL0     C85464   8.211   9.535  11.220  0.9570  0.7146  0.3026
  620MOL0     C85465   8.368   9.550  11.242  0.2521 -0.2668  0.8757
  620MOL0     C85466   8.456   9.430  11.272 -0.1248  0.9271 -0.2564
  620MOL0    Cl85467   8.377   9.324  11.398 -0.1680 -0.6091  0.0284
  620MOL0     C85468   7.465   9.624  10.874  0.5225  0.3000  0.5060
  620MOL0     C85469   7.345   9.674  10.830  0.1742  0.2268  0.2544
  620MOL0     O85470   6.949   9.621  10.968  0.8416  0.3141 -0.0426
  620MOL0     C85471   6.762   9.762  10.815  0.4724 -0.6882 -0.5538
  620MOL0     C85472   6.672   9.819  10.719 -0.2008  0.9915 -0.0633
  620MOL0     N85473   6.200   9.539  10.255  0.2741 -0.3574  0.1041
  620MOL0     N85474   6.083   9.495  10.224 -0.1757 -0.1800  0.2437
  620MOL0     C85475   4.892   9.605  10.042  0.7195 -0.0678 -0.0611
  620MOL0     C85476   4.755   9.620  10.046  0.0580  0.0065  0.1878
  620MOL0     C85477   4.326   9.649   9.983  0.0612  0.2332 -0.6078
  620MOL0     C85478   4.296   9.772   9.921  0.4978 -0.9891 -0.2075
  620MOL0     C85479   4.168   9.821   9.906  0.1588  0.4552 -0.3818
  620MOL0     C85480   4.063   9.744   9.952  0.2010  0.0210  0.9167
  620MOL0     O85481   3.936   9.783   9.930  0.0761 -0.2925  0.2854
  620MOL0     C85482   3.898   9.911   9.878  0.1814 -1.1186  0.0079
  620MOL0     C85483   3.745   9.937   9.881 -0.5216  0.0796  0.6512
  620MOL0     C85484   3.670   9.836   9.784  0.7195 -0.1062  0.1436
  620MOL0     C85485   3.517   9.835   9.814  0.3233  0.2841 -0.0968
  620MOL0     C85486   3.462   9.735   9.720  0.5009  0.6146  0.5945
  620MOL0     C85487   3.427   9.656   9.634 -0.6632 -0.1612 -0.5706
  620MOL0     C85488   4.085   9.618   9.999 -0.2838 -0.4423  0.1774
  620MOL0     C85489   4.221   9.560  10.007 -0.6934 -0.1735  0.7227
  620MOL0     C85490   4.236   9.414  10.045  0.6737 -0.6202  0.0147
  620MOL0     H85491   4.701   9.648   9.714  1.2864 -0.2463 -0.4753
  620MOL0     H85492   4.952   9.626   9.709  0.7482  2.0234  1.1293
  620MOL0     H85493   5.137   9.670  10.120  0.0950 -0.5148  0.6842
  620MOL0     H85494   5.186   9.771   9.981  0.9767  0.3341  0.2187
  620MOL0     H85495   5.336   9.509  10.070  2.9430  0.7297  1.9957
  620MOL0     H85496   5.369   9.596   9.942 -1.6932 -0.1887 -0.4346
  620MOL0     H85497   5.466   9.786  10.051  0.2629 -0.9173 -0.1911
  620MOL0     H85498   5.373   9.754  10.202 -1.3582 -1.0486  0.0328
  620MOL0     H85499   5.502   9.539  10.224 -3.0709  0.7005 -0.0758
  620MOL0     H85500   5.588   9.575  10.080  1.3969 -3.3332  2.5599
  620MOL0     H85501   5.595   9.726  10.339  0.7503  1.8060 -0.4090
  620MOL0     H85502   5.657   9.800  10.194  0.3887  1.0024  3.0961
  620MOL0     H85503   5.787   9.577  10.159 -0.4225  0.9845 -0.3086
  620MOL0     H85504   5.852   9.691  10.278 -0.6432  1.0366  1.2154
  620MOL0     H85505   5.664   9.456  10.334  1.2097 -2.6983  0.8928
  620MOL0     H85506   5.754   9.551  10.451  4.3737  1.8723 -0.1521
  620MOL0     H85507   5.891   9.348  10.431 -2.2728 -0.0694  0.4426
  620MOL0     H85508   5.873   9.355  10.254  0.0581  2.2650 -1.1411
  620MOL0     H85509   6.055   9.537  10.543  1.5309  0.5406  0.1900
  620MOL0     H85510   6.412   9.585  10.447 -0.1454  0.8261 -0.0101
  620MOL0     H85511   6.289   9.596  10.575 -0.0349 -1.2598  0.1649
  620MOL0     H85512   6.404   9.796  10.368  3.0253  1.9063  2.9180
  620MOL0     H85513   6.232   9.819  10.415 -0.8668 -1.5491  2.0449
  620MOL0     H85514   6.289   9.910  10.604 -0.5252  0.1316 -1.2025
  620MOL0     H85515   6.407   9.781  10.642  2.0254 -0.8044 -0.1486
  620MOL0     H85516   6.448  10.012  10.459  1.1634  0.1343  0.2054
  620MOL0     H85517   6.520  10.009  10.615  1.6896  1.9087 -1.9643
  620MOL0     H85518   6.805   9.735  10.424 -0.8297  1.0216 -0.4124
  620MOL0     H85519   6.977   9.569  10.470 -1.4442 -0.2431  1.0364
  620MOL0     H85520   7.014   9.511  10.630 -0.6226 -1.3967  0.7097
  620MOL0     H85521   7.104   9.656  10.572  0.1271 -0.3122 -1.8372
  620MOL0     H85522   7.131   9.496  11.025 -0.2877  0.2899  0.4254
  620MOL0     H85523   7.351   9.372  11.066 -0.0093 -1.6758 -2.6980
  620MOL0     H85524   7.737   9.474  10.909 -1.1577 -0.6653 -0.4446
  620MOL0     H85525   7.713   9.623  10.999  3.0564 -0.3277  0.9261
  620MOL0     H85526   7.743   9.511  11.213  0.0613 -1.9281  0.3108
  620MOL0     H85527   7.785   9.365  11.137 -2.3137 -0.5084 -1.9714
  620MOL0     H85528   7.947   9.574  11.218  1.2762 -0.1540 -0.9947
  620MOL0     H85529   7.934   9.620  11.046  1.1835 -0.3549 -0.5576
  620MOL0     H85530   8.005   9.405  10.963 -0.9095  2.8921 -1.0535
  620MOL0     H85531   8.025   9.338  11.130  2.8665 -1.3938 -1.7619
  620MOL0     H85532   8.233   9.379  11.069 -0.0108 -0.2232 -2.1570
  620MOL0     H85533   8.202   9.535  10.999 -1.4213 -2.4290 -1.3932
  620MOL0     H85534   8.158   9.479  11.297  1.3553 -2.9868 -1.8694
  620MOL0     H85535   8.181   9.640  11.216 -0.9387  0.2062 -2.8248
  620MOL0     H85536   8.380   9.629  11.316  3.6861  0.2436 -0.0438
  620MOL0     H85537   8.415   9.599  11.156 -0.2140 -2.2321 -0.5710
  620MOL0     H85538   8.554   9.460  11.312 -0.0773  2.9564 -1.7660
  620MOL0     H85539   8.466   9.373  11.179 -0.7733  0.1267  0.1531
  620MOL0     H85540   7.553   9.661  10.823  0.8601  0.8249  1.4514
  620MOL0     H85541   7.361   9.740  10.745 -1.2394  1.0369  0.5799
  620MOL0     H85542   6.749   9.782  10.921  2.2863  0.6754 -0.5260
  620MOL0     H85543   6.590   9.868  10.770  0.2762  1.8733 -0.1315
  620MOL0     H85544   4.921   9.589  10.146 -3.7662 -3.1287  0.9955
  620MOL0     H85545   4.703   9.624  10.141 -2.0797 -0.5252 -0.9023
  620MOL0     H85546   4.381   9.820   9.874  1.6552 -2.2797  0.5243
  620MOL0     H85547   4.149   9.910   9.847 -1.6324 -1.2863 -2.6686
  620MOL0     H85548   3.944   9.989   9.940 -0.7311  0.6625 -1.4471
  620MOL0     H85549   3.927   9.939   9.776 -0.5653 -1.8867 -0.4221
  620MOL0     H85550   3.729  10.036   9.839  1.2375  0.2774  0.4079
  620MOL0     H85551   3.722   9.926   9.987  0.6813 -3.1995  0.7035
  620MOL0     H85552   3.685   9.848   9.677 -1.8346 -1.6760 -0.4973
  620MOL0     H85553   3.704   9.735   9.809 -1.3949 -1.4835 -2.0861
  620MOL0     H85554   3.479   9.934   9.786 -4.9149 -1.2499  0.5724
  620MOL0     H85555   3.495   9.818   9.920 -2.1483  3.9502  0.1650
  620MOL0     H85556   3.392   9.586   9.562 -0.8046 -0.2246 -0.4391
  620MOL0     H85557   3.999   9.559  10.029  0.1670  0.0736  2.6918
  620MOL0     H85558   4.305   9.357   9.982 -1.1411 -0.6186 -2.0709
  620MOL0     H85559   4.264   9.401  10.150  0.7944  2.5583  0.4637
  620MOL0     H85560   4.141   9.361  10.044 -0.3018  1.0452  1.0441
  621MOL0     O85561   4.480   7.465  10.752 -0.0883 -0.7934 -0.1193
  621MOL0     C85562   4.537   7.422  10.654 -0.7152  0.5961 -0.1632
  621MOL0     O85563   4.471   7.379  10.546 -0.0058 -0.4001 -0.0305
  621MOL0     C85564   4.333   7.347  10.541 -0.5286 -0.3682  0.1502
  621MOL0     C85565   4.286   7.337  10.414  0.2737  0.8084 -0.1182
  621MOL0     C85566   4.144   7.328  10.390  0.2807 -0.6637 -0.1599
  621MOL0     C85567   4.051   7.327  10.499  0.2184  0.0007  0.7053
  621MOL0     O85568   3.922   7.323  10.470 -0.0708  0.2408  0.2140
  621MOL0     C85569   3.828   7.419  10.527 -0.5512 -0.2904 -0.1961
  621MOL0     C85570   3.754   7.385  10.651  0.3194  0.0482 -0.5953
  621MOL0     C85571   3.689   7.245  10.635 -0.2012 -0.1865 -0.3236
  621MOL0     C85572   3.629   7.203  10.773 -0.3707 -0.1014  1.2012
  621MOL0     C85573   3.565   7.066  10.774  0.5726  0.5819 -0.4594
  621MOL0     C85574   3.496   7.041  10.906 -0.1301  0.4170 -0.2888
  621MOL0     C85575   3.443   6.907  10.920 -0.2746 -0.6811 -0.2262
  621MOL0     C85576   3.354   6.878  11.041 -0.0428  0.2132 -0.3259
  621MOL0     N85577   3.443   6.874  11.163 -0.0549  0.1921  0.0846
  621MOL0     C85578   3.518   6.778  11.228  0.2849  0.1111 -0.0623
  621MOL0     C85579   3.582   6.847  11.326 -0.8481  0.0367 -1.0543
  621MOL0     C85580   3.672   6.796  11.436 -0.5292  0.2642  0.8744
  621MOL0     C85581   3.727   6.892  11.544  0.3373 -0.6821  0.0982
  621MOL0     C85582   3.830   7.003  11.499  0.3407  0.5728  0.5696
  621MOL0     C85583   3.961   6.937  11.448  0.3274  0.2770 -0.0498
  621MOL0     O85584   4.031   6.894  11.565 -0.1187 -0.0515 -0.3379
  621MOL0     C85585   4.154   6.836  11.552 -0.5776 -0.0507 -0.1010
  621MOL0     C85586   4.232   6.827  11.665 -0.1202  0.4419 -0.0503
  621MOL0     C85587   4.361   6.774  11.667  0.7843 -0.1150  0.4436
  621MOL0     C85588   4.438   6.771  11.796 -0.7667 -0.6171  0.0972
  621MOL0     C85589   4.408   6.714  11.543  0.0045 -0.1038 -0.7455
  621MOL0     C85590   4.532   6.637  11.540  0.6409  0.1154 -0.2158
  621MOL0     O85591   4.534   6.522  11.608  0.3722 -0.0815  0.6527
  621MOL0     C85592   4.647   6.442  11.585  0.4681  0.0469 -0.9917
  621MOL0     C85593   4.658   6.360  11.476  0.0846 -0.2948  0.0098
  621MOL0     C85594   4.756   6.260  11.458  0.4418  0.4333 -0.0214
  621MOL0     C85595   4.850   6.244  11.565  0.2258 -0.6213 -0.1508
  621MOL0     O85596   4.930   6.140  11.551  0.3714 -0.2071 -0.2092
  621MOL0     C85597   5.067   6.167  11.583  0.0509  1.0183 -0.1882
  621MOL0     C85598   5.153   6.050  11.531 -0.0376 -0.4655  0.0306
  621MOL0     C85599   5.303   6.064  11.555 -0.4273  0.5975  0.3150
  621MOL0     C85600   5.380   5.945  11.487  0.7621 -0.0718 -0.8143
  621MOL0     C85601   5.527   5.957  11.518 -0.7087 -0.4630 -0.2882
  621MOL0     C85602   5.608   5.858  11.443 -0.7082  0.7653 -0.0723
  621MOL0     C85603   5.747   5.884  11.500 -0.3445 -0.0320 -0.4452
  621MOL0     C85604   5.867   5.810  11.441  0.0137 -0.3235 -0.3839
  621MOL0    Cl85605   6.021   5.883  11.497 -0.2454 -0.4184  0.0761
  621MOL0     C85606   4.843   6.327  11.682  0.4807  0.0646 -0.1930
  621MOL0     C85607   4.744   6.429  11.688 -0.0740 -0.2093  0.1980
  621MOL0     O85608   4.610   6.678  11.459  0.4800 -0.3956  0.0981
  621MOL0     C85609   4.340   6.739  11.423 -0.5838 -0.2381 -0.2708
  621MOL0     C85610   4.213   6.797  11.433 -0.7337 -0.3173 -0.1052
  621MOL0     N85611   3.533   6.974  11.335  0.4191 -0.4033 -0.6083
  621MOL0     N85612   3.449   6.993  11.237  0.1865 -0.1024  0.5133
  621MOL0     C85613   4.106   7.329  10.623  0.1466 -0.4915 -1.2275
  621MOL0     C85614   4.240   7.342  10.648 -0.4228  0.3758 -0.5337
  621MOL0     C85615   4.686   7.429  10.639 -1.5131  0.8135  0.8848
  621MOL0     C85616   4.753   7.523  10.718  0.5702 -0.3517  0.1400
  621MOL0     C85617   4.888   7.529  10.718  0.4677  0.3892  0.9624
  621MOL0     C85618   4.973   7.452  10.636  0.0428  0.1496  0.4322
  621MOL0     O85619   5.104   7.483  10.634 -0.5763  0.2121  0.2221
  621MOL0     C85620   5.187   7.429  10.524 -0.3091  0.0068  0.0727
  621MOL0     C85621   5.238   7.284  10.537  0.0097 -1.1226  0.4270
  621MOL0     C85622   5.367   7.274  10.623 -0.6079 -0.2837 -0.1963
  621MOL0     C85623   5.349   7.186  10.740 -0.7978  0.5753 -0.5011
  621MOL0     C85624   5.277   7.234  10.857  0.2728 -0.4483 -0.2996
  621MOL0     C85625   5.204   7.279  10.947 -0.4660  0.8366 -0.5050
  621MOL0     C85626   4.908   7.346  10.555 -0.1434 -0.9842  0.2149
  621MOL0     C85627   4.766   7.337  10.563 -0.1983  0.9661 -0.0641
  621MOL0     C85628   4.704   7.229  10.477  0.7524 -0.0501  0.6524
  621MOL0     H85629   4.351   7.341  10.327 -0.3294  0.5600 -0.5905
  621MOL0     H85630   4.116   7.338  10.285  2.2347  0.6464 -0.6095
  621MOL0     H85631   3.758   7.436  10.444  1.5533  0.4551 -1.9365
  621MOL0     H85632   3.881   7.514  10.542 -0.4404 -0.0485 -1.8286
  621MOL0     H85633   3.816   7.382  10.741 -1.6633 -1.3409  0.7761
  621MOL0     H85634   3.670   7.453  10.668 -0.0471 -1.2409  3.8668
  621MOL0     H85635   3.611   7.246  10.559 -1.2320  0.4081  0.7005
  621MOL0     H85636   3.764   7.171  10.607  1.2177  1.2231 -0.4012
  621MOL0     H85637   3.707   7.209  10.849  1.6121  2.1253 -0.8412
  621MOL0     H85638   3.550   7.276  10.792 -0.6748 -0.3478  0.9000
  621MOL0     H85639   3.639   6.989  10.749  0.0949 -0.4109  1.0328
  621MOL0     H85640   3.483   7.067  10.702 -0.4850 -0.0249  0.7082
  621MOL0     H85641   3.564   7.061  10.988 -0.6324  0.4639  0.1202
  621MOL0     H85642   3.411   7.107  10.922 -1.5430 -1.7045  1.6768
  621MOL0     H85643   3.520   6.829  10.919 -0.2370 -0.7472  2.2787
  621MOL0     H85644   3.385   6.874  10.833  0.9570 -1.0379 -0.9374
  621MOL0     H85645   3.280   6.955  11.060 -2.2395 -1.8118 -0.2549
  621MOL0     H85646   3.307   6.781  11.023 -1.7071  0.3458  2.6102
  621MOL0     H85647   3.535   6.673  11.206  0.8617  0.4224 -1.1335
  621MOL0     H85648   3.754   6.741  11.388 -0.4314  2.0727 -1.1595
  621MOL0     H85649   3.605   6.727  11.488  0.7785 -2.4191 -0.7725
  621MOL0     H85650   3.649   6.928  11.611  1.8982  1.8060  0.7187
  621MOL0     H85651   3.783   6.824  11.608 -2.5658 -3.7071 -0.3357
  621MOL0     H85652   3.779   7.053  11.415 -1.1914  1.1367  1.7833
  621MOL0     H85653   3.853   7.073  11.579  1.2339  1.0228 -0.0661
  621MOL0     H85654   3.943   6.857  11.375  2.7924  0.2285 -0.7206
  621MOL0     H85655   4.021   7.002  11.383  1.2556 -2.5557 -2.3089
  621MOL0     H85656   4.194   6.865  11.759  0.2095 -1.0900  0.7239
  621MOL0     H85657   4.505   6.684  11.800  0.0807 -0.0898 -1.6669
  621MOL0     H85658   4.372   6.751  11.881 -3.0502 -0.2870 -1.4941
  621MOL0     H85659   4.495   6.862  11.814  1.7755 -1.4120 -3.0678
  621MOL0     H85660   4.580   6.391  11.406 -1.5670  0.9767  2.2744
  621MOL0     H85661   4.756   6.189  11.377  1.7874  0.9586 -0.5088
  621MOL0     H85662   5.089   6.260  11.530  1.9003  0.3195 -0.7237
  621MOL0     H85663   5.078   6.178  11.691 -0.2370 -1.5169  0.1837
  621MOL0     H85664   5.110   5.960  11.577 -1.6330 -0.6331 -1.6734
  621MOL0     H85665   5.131   6.042  11.425  1.5697  0.0520 -0.3567
  621MOL0     H85666   5.330   6.081  11.659  0.1253  2.2946 -0.0709
  621MOL0     H85667   5.345   6.149  11.500 -2.2718 -0.1870 -2.5407
  621MOL0     H85668   5.367   5.956  11.379  3.6033  1.3191 -1.1041
  621MOL0     H85669   5.337   5.851  11.523  2.7878 -0.2883  1.3728
  621MOL0     H85670   5.557   6.059  11.490 -2.1056  0.6709  2.0244
  621MOL0     H85671   5.550   5.959  11.625  0.1083  5.2683 -0.2310
  621MOL0     H85672   5.621   5.861  11.334  1.4923 -2.1169 -0.0279
  621MOL0     H85673   5.566   5.761  11.471 -0.5812  0.5069 -0.7354
  621MOL0     H85674   5.742   5.859  11.606  2.4993 -0.9210 -0.4417
  621MOL0     H85675   5.774   5.990  11.496 -1.1296  0.2040  0.3253
  621MOL0     H85676   5.869   5.824  11.332 -0.2652 -1.3350 -0.5237
  621MOL0     H85677   5.857   5.702  11.456 -0.0032 -0.1843  0.7029
  621MOL0     H85678   4.914   6.319  11.763 -1.1918  2.0450  1.6013
  621MOL0     H85679   4.747   6.513  11.756 -0.8693  0.9001 -1.0759
  621MOL0     H85680   4.394   6.712  11.333  0.1423 -2.7587  0.8456
  621MOL0     H85681   4.151   6.816  11.346  0.2897  4.9922  0.0344
  621MOL0     H85682   4.036   7.322  10.706  0.9004  2.9229 -0.1245
  621MOL0     H85683   4.282   7.347  10.748 -0.9550 -0.4578 -0.2560
  621MOL0     H85684   4.689   7.581  10.782 -1.6957 -0.8505 -1.5411
  621MOL0     H85685   4.943   7.594  10.786 -0.7461  0.6765  1.6885
  621MOL0     H85686   5.130   7.435  10.431 -2.7421 -1.7670  1.3335
  621MOL0     H85687   5.277   7.491  10.518 -1.7933  2.3453  0.6016
  621MOL0     H85688   5.263   7.251  10.436 -1.7920  0.3795 -0.5822
  621MOL0     H85689   5.159   7.217  10.572 -0.6445 -1.0694 -0.8784
  621MOL0     H85690   5.449   7.229  10.565 -0.9893 -0.8590 -0.2980
  621MOL0     H85691   5.399   7.368  10.669 -0.2184 -0.8042  0.6032
  621MOL0     H85692   5.447   7.159  10.779  0.6222  3.3511 -1.8325
  621MOL0     H85693   5.305   7.094  10.700  1.8707 -0.8048 -0.5153
  621MOL0     H85694   5.138   7.322  11.019 -0.1712  0.3469  0.0655
  621MOL0     H85695   4.965   7.276  10.494 -0.0926 -0.3826 -0.4442
  621MOL0     H85696   4.645   7.150  10.526  1.8695 -3.0159 -2.4026
  621MOL0     H85697   4.644   7.285  10.405  3.1196  0.9431 -0.6451
  621MOL0     H85698   4.777   7.164  10.428 -0.1252 -0.9626  0.5182
  622MOL0     O85699   8.211   9.382   6.552  0.1323  0.3073 -0.2083
  622MOL0     C85700   8.207   9.287   6.469  0.3007 -0.5977 -0.9925
  622MOL0     O85701   8.094   9.215   6.446 -0.1100  0.1570  0.6732
  622MOL0     C85702   7.986   9.232   6.528 -1.3903  0.5787  0.3949
  622MOL0     C85703   7.865   9.277   6.469 -0.1261  0.0771 -0.1818
  622MOL0     C85704   7.756   9.297   6.549 -0.5104  0.0287  0.4235
  622MOL0     C85705   7.764   9.284   6.689 -0.2938 -0.2649  0.4124
  622MOL0     O85706   7.650   9.311   6.760 -0.3471  0.8336  0.2496
  622MOL0     C85707   7.644   9.285   6.907 -0.5322 -0.2413  0.7037
  622MOL0     C85708   7.695   9.413   6.985  0.0803 -0.5187 -0.6031
  622MOL0     C85709   7.622   9.544   6.935 -0.4343 -0.0029  0.0022
  622MOL0     C85710   7.720   9.632   6.848  0.0201 -0.1600 -0.5404
  622MOL0     C85711   7.825   9.713   6.925 -0.6212 -0.0139 -0.3024
  622MOL0     C85712   7.908   9.803   6.821 -0.0823 -0.0805 -0.5069
  622MOL0     C85713   8.037   9.870   6.879  0.5210 -0.2941  0.0959
  622MOL0     C85714   8.049   9.884   7.028 -0.7153  0.6868  0.4230
  622MOL0     N85715   8.171   9.960   7.074 -0.2980  0.1832 -0.0859
  622MOL0     C85716   8.187  10.093   7.069  1.0026 -0.8939 -0.7716
  622MOL0     C85717   8.313  10.109   7.113  0.4343 -0.0123  0.0522
  622MOL0     C85718   8.377  10.241   7.137  0.4747 -0.3249 -0.0113
  622MOL0     C85719   8.524  10.248   7.114  0.6671  0.1985  0.1317
  622MOL0     C85720   8.584  10.173   6.992 -1.0408 -0.1269 -0.8218
  622MOL0     C85721   8.734  10.175   6.986 -0.0352  0.1339  0.0075
  622MOL0     O85722   8.798  10.099   6.888  0.1123 -0.2789 -0.0394
  622MOL0     C85723   8.938  10.078   6.895  0.0795  0.1133  0.2748
  622MOL0     C85724   8.979   9.996   6.797 -0.0269 -0.2236 -0.5808
  622MOL0     C85725   9.110   9.960   6.786 -0.9801 -0.2129  0.8611
  622MOL0     C85726   9.141   9.863   6.675 -0.2506  1.1595 -0.3173
  622MOL0     C85727   9.214  10.007   6.878 -0.3451  0.5331 -0.4087
  622MOL0     C85728   9.349   9.968   6.874 -0.1779 -0.1955 -0.5844
  622MOL0     O85729   9.416   9.982   6.762  0.7897  0.4114  1.0487
  622MOL0     C85730   9.549   9.946   6.756  0.1307 -0.6783 -0.5815
  622MOL0     C85731   9.601   9.829   6.811 -0.4032  0.2152  0.5510
  622MOL0     C85732   9.737   9.811   6.814 -1.1938 -0.4773  0.3695
  622MOL0     C85733   9.824   9.892   6.747 -0.0557 -0.2468 -0.1645
  622MOL0     O85734   9.958   9.878   6.731 -0.4801  0.3321  0.0206
  622MOL0     C85735  10.036   9.788   6.804 -0.2232  0.7422  0.4076
  622MOL0     C85736  10.183   9.826   6.821 -0.5316  0.3886  0.2099
  622MOL0     C85737  10.209   9.955   6.900 -0.1220  0.4563  0.5667
  622MOL0     C85738  10.342  10.019   6.861  0.2636 -0.4877  0.0559
  622MOL0     C85739  10.473   9.938   6.881 -0.7447 -0.5470 -0.6240
  622MOL0     C85740  10.597  10.027   6.838  0.0425  0.7645 -0.2057
  622MOL0     C85741  10.717   9.934   6.827  0.8529  0.5753  0.2006
  622MOL0     C85742  10.853   9.994   6.802  0.2826  0.1648  0.3581
  622MOL0    Cl85743  10.917  10.128   6.909  0.2091  0.1983 -0.0296
  622MOL0     C85744   9.770   9.999   6.680  0.6284  0.3284  0.0244
  622MOL0     C85745   9.625  10.022   6.675 -0.0438  0.0481 -0.4618
  622MOL0     O85746   9.405   9.958   6.985  0.2872 -0.6035 -0.3349
  622MOL0     C85747   9.166  10.092   6.988 -0.5064 -0.0400  0.0414
  622MOL0     C85748   9.023  10.124   6.991 -0.5481 -0.8372 -0.4191
  622MOL0     N85749   8.372   9.984   7.156 -0.6776  0.2432  0.0697
  622MOL0     N85750   8.282   9.899   7.128 -0.4791  0.0323  0.5184
  622MOL0     C85751   7.881   9.240   6.743  0.4865  0.0269  0.2873
  622MOL0     C85752   7.995   9.202   6.664  0.1151  0.0883 -0.0198
  622MOL0     C85753   8.335   9.249   6.399 -0.2743  0.1597 -1.3691
  622MOL0     C85754   8.339   9.121   6.331  0.2959 -0.1635 -0.3779
  622MOL0     C85755   8.452   9.071   6.274 -0.2419  0.2358  0.1123
  622MOL0     C85756   8.571   9.144   6.274  0.6761  0.4541  0.1255
  622MOL0     O85757   8.680   9.085   6.214 -0.2081 -0.0278 -0.4663
  622MOL0     C85758   8.805   9.140   6.234 -0.1426  0.0508 -0.0700
  622MOL0     C85759   8.903   9.037   6.181  0.0824  0.1511  0.9295
  622MOL0     C85760   8.901   9.013   6.028 -0.5560 -0.5814 -0.4824
  622MOL0     C85761   8.871   8.869   6.008 -0.8257 -1.0297 -0.1146
  622MOL0     C85762   8.735   8.823   6.049 -0.0227 -0.0400 -0.3024
  622MOL0     C85763   8.626   8.777   6.079  0.4317 -1.1257  0.5246
  622MOL0     C85764   8.571   9.266   6.346  1.1006 -0.8605 -1.0950
  622MOL0     C85765   8.454   9.316   6.410 -0.0366  0.8259  0.6434
  622MOL0     C85766   8.472   9.457   6.469  0.2352 -0.5466 -0.6764
  622MOL0     H85767   7.861   9.279   6.360  0.6760 -2.2970 -0.3155
  622MOL0     H85768   7.662   9.322   6.501 -2.5937 -0.5929  3.8800
  622MOL0     H85769   7.707   9.201   6.937  0.6244  0.7367  1.0872
  622MOL0     H85770   7.540   9.267   6.938 -0.6567  1.6113  1.4767
  622MOL0     H85771   7.671   9.402   7.091  2.9250 -2.2963 -0.0483
  622MOL0     H85772   7.803   9.429   6.979 -0.2182  1.6819 -1.0428
  622MOL0     H85773   7.537   9.523   6.869 -2.2868 -0.1565  2.3041
  622MOL0     H85774   7.575   9.604   7.014 -2.9221  2.7377 -3.2329
  622MOL0     H85775   7.764   9.582   6.761  1.5592 -0.1258  0.1673
  622MOL0     H85776   7.659   9.713   6.809  0.1073  1.5647  2.5880
  622MOL0     H85777   7.892   9.641   6.972 -2.1549 -2.1611 -1.2526
  622MOL0     H85778   7.774   9.777   6.998 -0.5564  1.3121 -1.3730
  622MOL0     H85779   7.946   9.745   6.736  0.5308 -0.4353  0.0047
  622MOL0     H85780   7.838   9.881   6.788  3.1710  3.7258  0.7999
  622MOL0     H85781   8.056   9.965   6.829 -0.4201  0.6875  1.4993
  622MOL0     H85782   8.121   9.814   6.839  1.8758  2.1102 -0.6694
  622MOL0     H85783   7.957   9.937   7.055 -0.1045  2.8732 -1.4460
  622MOL0     H85784   8.055   9.784   7.071 -0.4754 -0.0395 -1.2433
  622MOL0     H85785   8.112  10.171   7.056 -0.2619 -1.0819  3.7148
  622MOL0     H85786   8.350  10.270   7.239 -1.0070  0.3131 -0.5599
  622MOL0     H85787   8.328  10.311   7.069 -0.0418 -0.2260  0.4534
  622MOL0     H85788   8.563  10.349   7.125  2.5360 -0.5121  0.4425
  622MOL0     H85789   8.572  10.194   7.196 -1.2799 -0.5578  0.8333
  622MOL0     H85790   8.568  10.065   6.998 -1.2484 -0.0728 -0.4194
  622MOL0     H85791   8.551  10.211   6.895 -0.2190  1.5230 -0.5008
  622MOL0     H85792   8.769  10.277   6.967  1.4071 -0.5365 -1.1722
  622MOL0     H85793   8.767  10.132   7.081 -2.4580  1.0828  1.3711
  622MOL0     H85794   8.919   9.963   6.713 -1.0050 -1.0673  0.4136
  622MOL0     H85795   9.146   9.762   6.716 -1.4739  2.5883  3.8589
  622MOL0     H85796   9.240   9.893   6.637  0.1778  0.9574  0.5952
  622MOL0     H85797   9.072   9.863   6.590 -4.4748  0.2753  2.7946
  622MOL0     H85798   9.528   9.761   6.853 -1.7061  0.2724 -1.4958
  622MOL0     H85799   9.780   9.728   6.869 -1.6830  0.3053  2.0078
  622MOL0     H85800   9.990   9.767   6.901 -1.9515 -2.0461 -0.8941
  622MOL0     H85801  10.033   9.695   6.747  0.7321  1.5334 -1.0017
  622MOL0     H85802  10.235   9.741   6.866 -1.8157 -0.0836  0.8618
  622MOL0     H85803  10.225   9.826   6.720 -2.2015 -0.9410 -0.5352
  622MOL0     H85804  10.216   9.929   7.006 -0.0246  0.0873  0.4695
  622MOL0     H85805  10.131  10.027   6.874 -0.3934  0.0349  0.2034
  622MOL0     H85806  10.355  10.106   6.925  0.0474  0.0212 -0.5865
  622MOL0     H85807  10.331  10.063   6.762 -1.9826  0.0511  0.4854
  622MOL0     H85808  10.484   9.903   6.984  1.7495  0.3688 -0.5006
  622MOL0     H85809  10.478   9.847   6.821  0.5829 -2.9231  2.7685
  622MOL0     H85810  10.616  10.103   6.914  3.6132 -0.5364  0.3945
  622MOL0     H85811  10.589  10.079   6.742  2.4724 -0.9958 -1.4837
  622MOL0     H85812  10.696   9.861   6.749  0.9588  1.4152 -0.6294
  622MOL0     H85813  10.720   9.897   6.930 -0.5297  2.3375  0.9306
  622MOL0     H85814  10.858  10.039   6.702  0.2030  2.0269  1.1461
  622MOL0     H85815  10.930   9.917   6.790  0.9270  1.2248 -3.6828
  622MOL0     H85816   9.843  10.061   6.629  1.8870 -0.0445  1.3269
  622MOL0     H85817   9.579  10.107   6.625 -0.9734 -1.1068 -1.6101
  622MOL0     H85818   9.231  10.118   7.071 -2.5463  1.5126  1.2540
  622MOL0     H85819   8.981  10.175   7.077  1.4863  1.6507 -0.7610
  622MOL0     H85820   7.905   9.243   6.849  2.1955 -1.6001  0.0107
  622MOL0     H85821   8.088   9.160   6.700  0.4942 -1.2343 -2.2974
  622MOL0     H85822   8.247   9.064   6.330 -0.1341  0.4938  0.5040
  622MOL0     H85823   8.435   8.973   6.229  0.4734 -0.6126  1.6186
  622MOL0     H85824   8.805   9.235   6.180 -4.0242  0.1986 -0.1266
  622MOL0     H85825   8.829   9.151   6.340  2.4391 -3.5320 -0.0910
  622MOL0     H85826   8.893   8.945   6.239 -0.2027 -1.8794 -2.1257
  622MOL0     H85827   8.995   9.094   6.204 -2.1470  3.6696  1.9554
  622MOL0     H85828   8.837   9.081   5.972  0.6895  0.6966 -0.4356
  622MOL0     H85829   9.007   9.030   6.003  0.0630 -1.4334  1.3357
  622MOL0     H85830   8.946   8.804   6.054 -0.0567 -0.7851 -0.9883
  622MOL0     H85831   8.886   8.850   5.901  2.3229  1.5283 -0.2737
  622MOL0     H85832   8.528   8.732   6.077 -1.2427  1.9476 -4.1393
  622MOL0     H85833   8.661   9.327   6.348  0.5397  0.0144 -1.6805
  622MOL0     H85834   8.386   9.524   6.460  1.5774  2.1857  3.7737
  622MOL0     H85835   8.508   9.445   6.571 -0.2226  2.0157 -0.1672
  622MOL0     H85836   8.551   9.503   6.410  1.0825 -1.0549  0.0412
  623MOL0     O85837   4.705   9.912   7.466 -0.2444 -0.0634 -0.0522
  623MOL0     C85838   4.687   9.951   7.355  1.3750  0.3720 -0.5856
  623MOL0     O85839   4.703   9.885   7.240  0.1352  0.2722  0.3995
  623MOL0     C85840   4.758   9.755   7.238  0.0468  0.2992  1.2303
  623MOL0     C85841   4.851   9.699   7.326  0.7032  0.2160  0.0733
  623MOL0     C85842   4.900   9.570   7.302  0.0065 -0.6139  0.2553
  623MOL0     C85843   4.852   9.488   7.204 -0.2993  0.6645 -0.1783
  623MOL0     O85844   4.889   9.353   7.181 -0.0667 -0.2313  0.6183
  623MOL0     C85845   4.962   9.291   7.279  0.1393  0.3645  0.7263
  623MOL0     C85846   4.968   9.142   7.240 -0.3238  0.4843  0.5979
  623MOL0     C85847   5.084   9.065   7.300  0.1800  0.6797  0.5928
  623MOL0     C85848   5.087   8.910   7.272  0.4311 -1.0020 -0.0944
  623MOL0     C85849   5.009   8.824   7.376 -0.4644  1.1638 -0.0742
  623MOL0     C85850   5.038   8.836   7.531 -0.0943  0.2678  1.0095
  623MOL0     C85851   5.176   8.846   7.556 -0.2089 -0.0305  0.4193
  623MOL0     C85852   5.205   8.858   7.709  0.5613  0.3849  0.1212
  623MOL0     N85853   5.144   8.974   7.769  0.0649 -0.6603  0.2699
  623MOL0     C85854   5.197   9.104   7.766 -0.7068 -0.3476 -0.2501
  623MOL0     C85855   5.091   9.182   7.815  0.7664  0.3258 -0.7062
  623MOL0     C85856   5.104   9.333   7.820  0.7590 -0.5876  0.6425
  623MOL0     C85857   4.991   9.419   7.766 -0.0843 -0.8511  0.3921
  623MOL0     C85858   4.847   9.414   7.829  0.4764  1.0019  0.2832
  623MOL0     C85859   4.839   9.448   7.982  0.3825 -0.9513 -0.2997
  623MOL0     O85860   4.714   9.476   8.042  0.1939 -0.0008  0.7408
  623MOL0     C85861   4.648   9.598   8.034  0.0991  0.0972 -0.2019
  623MOL0     C85862   4.702   9.719   7.974  0.9887  0.1863  0.2402
  623MOL0     C85863   4.630   9.842   7.976 -0.1304 -0.0044  0.4334
  623MOL0     C85864   4.698   9.955   7.895  0.4100 -0.0551  1.0547
  623MOL0     C85865   4.513   9.849   8.058 -0.1624  0.4058  0.9165
  623MOL0     C85866   4.438   9.976   8.076  0.2453 -1.0240 -0.2335
  623MOL0     O85867   4.305   9.965   8.122  0.4683 -0.4226  0.2576
  623MOL0     C85868   4.220  10.067   8.147  0.0235  0.5506 -0.8770
  623MOL0     C85869   4.180  10.083   8.277  0.2733  0.1628 -0.3853
  623MOL0     C85870   4.099  10.188   8.317  0.5586 -0.0135  0.2754
  623MOL0     C85871   4.047  10.270   8.216  0.1341 -0.1897 -0.8411
  623MOL0     O85872   3.977  10.386   8.241 -0.1275 -0.4550  0.5454
  623MOL0     C85873   3.844  10.384   8.179  0.0702 -0.1536 -0.2141
  623MOL0     C85874   3.782  10.515   8.227 -0.3102 -0.5323 -0.1162
  623MOL0     C85875   3.694  10.503   8.355  0.1549  0.2851 -0.3659
  623MOL0     C85876   3.625  10.625   8.421 -0.0654 -0.3464  0.6932
  623MOL0     C85877   3.514  10.572   8.511  0.1770 -0.5359 -0.4126
  623MOL0     C85878   3.393  10.521   8.436  0.0543  0.7331  0.6084
  623MOL0     C85879   3.280  10.488   8.540  0.9763  0.3164 -0.1570
  623MOL0     C85880   3.157  10.429   8.466  0.3293  1.1919 -0.2206
  623MOL0    Cl85881   3.019  10.441   8.573 -0.2664 -0.0067 -0.0773
  623MOL0     C85882   4.072  10.249   8.085  0.4841 -0.3475  0.6339
  623MOL0     C85883   4.159  10.146   8.048  0.5166 -0.1442  0.3846
  623MOL0     O85884   4.493  10.083   8.061  0.0823  0.0207 -0.0650
  623MOL0     C85885   4.453   9.729   8.107 -0.2933  0.1767  0.1593
  623MOL0     C85886   4.525   9.609   8.099 -0.8690  0.1305 -1.1318
  623MOL0     N85887   4.987   9.099   7.852  0.0920 -0.1660  0.8828
  623MOL0     N85888   5.022   8.977   7.823 -0.5629 -0.5199  0.3357
  623MOL0     C85889   4.753   9.531   7.122 -0.3982 -0.1504 -0.1557
  623MOL0     C85890   4.698   9.660   7.138 -0.0174 -0.5184 -0.1620
  623MOL0     C85891   4.611  10.084   7.347 -0.6049  0.1273 -1.0215
  623MOL0     C85892   4.547  10.120   7.236  0.0547 -0.3719 -0.1386
  623MOL0     C85893   4.466  10.236   7.216 -0.2132  0.2240  0.5971
  623MOL0     C85894   4.441  10.313   7.324  0.1883  0.0733 -0.5778
  623MOL0     O85895   4.350  10.416   7.334 -0.2795 -1.0535 -0.1993
  623MOL0     C85896   4.211  10.382   7.316  0.8385 -0.2336 -0.2194
  623MOL0     C85897   4.165  10.447   7.193 -0.6005 -0.0822  0.0373
  623MOL0     C85898   4.026  10.395   7.153  0.1719  0.0893 -0.2315
  623MOL0     C85899   3.964  10.486   7.034  0.2986 -0.1128 -0.6454
  623MOL0     C85900   3.831  10.439   7.009  1.0191 -0.4871  0.1846
  623MOL0     C85901   3.721  10.385   6.994 -0.3519  0.2052  0.0440
  623MOL0     C85902   4.513  10.287   7.444 -0.1076  0.2545  0.1039
  623MOL0     C85903   4.602  10.176   7.455 -0.3516 -0.2468 -0.2924
  623MOL0     C85904   4.675  10.167   7.595 -0.2575  0.0682  0.7533
  623MOL0     H85905   4.890   9.755   7.411 -1.8805  2.2639  0.0624
  623MOL0     H85906   4.963   9.528   7.379 -0.9525 -1.4455  0.6108
  623MOL0     H85907   4.901   9.289   7.371 -2.6730 -2.2266 -0.9825
  623MOL0     H85908   5.058   9.340   7.292 -0.0094  0.5600  1.1066
  623MOL0     H85909   4.874   9.091   7.265 -0.3570  0.2009 -0.0908
  623MOL0     H85910   4.972   9.133   7.131  0.0674 -2.2259  0.7882
  623MOL0     H85911   5.169   9.115   7.252 -0.4985 -0.1544 -1.6354
  623MOL0     H85912   5.082   9.077   7.408 -1.0074  0.9010  0.5588
  623MOL0     H85913   5.041   8.891   7.175 -2.4064  1.5027  0.5843
  623MOL0     H85914   5.190   8.875   7.266  1.1799  0.9224  0.7057
  623MOL0     H85915   5.030   8.721   7.348  0.2676  1.4056 -0.4504
  623MOL0     H85916   4.902   8.845   7.371 -0.5665  0.7205  0.2194
  623MOL0     H85917   4.998   8.932   7.565  0.4389  0.2618  1.6606
  623MOL0     H85918   5.004   8.742   7.574  0.8990 -2.4603 -3.4875
  623MOL0     H85919   5.216   8.931   7.500 -0.4388 -1.2734 -1.7455
  623MOL0     H85920   5.223   8.756   7.514  1.7496  0.3774  1.6158
  623MOL0     H85921   5.174   8.765   7.756  1.7277  0.1749  0.5091
  623MOL0     H85922   5.314   8.854   7.714  0.5936 -3.9388 -0.0560
  623MOL0     H85923   5.282   9.144   7.712 -0.1154 -0.7595  0.3605
  623MOL0     H85924   5.199   9.367   7.778  0.6798 -0.7458  0.3373
  623MOL0     H85925   5.101   9.356   7.927 -2.6168  0.4496  0.4508
  623MOL0     H85926   5.022   9.524   7.766 -0.1019 -0.8252  1.6954
  623MOL0     H85927   4.979   9.393   7.661  2.8883  1.4881 -0.6597
  623MOL0     H85928   4.780   9.478   7.772 -0.7742 -0.5104 -0.0011
  623MOL0     H85929   4.801   9.315   7.818  1.1029  0.6625  0.6536
  623MOL0     H85930   4.879   9.365   8.041 -1.0194 -1.1604  0.4013
  623MOL0     H85931   4.902   9.535   8.004 -0.7009 -0.7659  2.3649
  623MOL0     H85932   4.786   9.704   7.907 -0.6866 -3.6579 -1.3628
  623MOL0     H85933   4.626  10.031   7.864  0.8734  0.7603  1.9126
  623MOL0     H85934   4.748   9.923   7.804  0.9022  2.5854  0.3379
  623MOL0     H85935   4.763  10.016   7.958  0.9048 -0.4526  0.9297
  623MOL0     H85936   4.220  10.029   8.362  0.7556 -0.0837 -0.7624
  623MOL0     H85937   4.072  10.202   8.422  0.0569  0.6702  0.0631
  623MOL0     H85938   3.854  10.396   8.071  0.0154 -1.0715 -0.3248
  623MOL0     H85939   3.780  10.297   8.193  3.3242 -2.7592 -0.2620
  623MOL0     H85940   3.856  10.591   8.251  1.8729 -3.6087  4.0908
  623MOL0     H85941   3.705  10.553   8.158 -0.8795  1.9833  1.7444
  623MOL0     H85942   3.759  10.470   8.436 -0.0222  2.7720  0.8736
  623MOL0     H85943   3.634  10.414   8.335  1.1792 -0.2813 -1.0308
  623MOL0     H85944   3.589  10.702   8.352 -1.3768  1.9588  3.6805
  623MOL0     H85945   3.701  10.680   8.477  0.3616  0.3353 -0.5299
  623MOL0     H85946   3.552  10.494   8.578 -3.0872 -1.4955  0.5066
  623MOL0     H85947   3.475  10.647   8.580  1.9441 -1.9358  2.2818
  623MOL0     H85948   3.414  10.433   8.376 -1.3952  1.3714 -0.9141
  623MOL0     H85949   3.357  10.598   8.366 -1.3710  1.2618  1.8556
  623MOL0     H85950   3.241  10.578   8.589  1.6223  1.6031 -1.8994
  623MOL0     H85951   3.305  10.411   8.613 -0.4205 -0.0611 -0.0594
  623MOL0     H85952   3.178  10.325   8.438  0.7541  0.5101  2.3315
  623MOL0     H85953   3.135  10.490   8.379 -1.1692  3.5019  1.6458
  623MOL0     H85954   4.038  10.323   8.013  0.0015  1.0123  2.1910
  623MOL0     H85955   4.187  10.135   7.944 -1.8600  0.3786 -0.3631
  623MOL0     H85956   4.356   9.730   8.155 -2.5174 -0.0776 -3.9168
  623MOL0     H85957   4.480   9.522   8.145  0.7744 -0.0696  0.1760
  623MOL0     H85958   4.708   9.462   7.052 -0.0726 -1.0833  0.5339
  623MOL0     H85959   4.616   9.692   7.074  1.3816  2.9676 -0.4594
  623MOL0     H85960   4.550  10.047   7.155  0.4619 -0.0671 -0.3990
  623MOL0     H85961   4.409  10.249   7.125  1.2207 -1.5363 -0.6242
  623MOL0     H85962   4.204  10.273   7.303  2.9994 -0.5893  1.0514
  623MOL0     H85963   4.139  10.424   7.387 -1.1679  1.2865 -2.9615
  623MOL0     H85964   4.230  10.415   7.112 -0.4841 -2.1263  0.8803
  623MOL0     H85965   4.163  10.556   7.205 -0.7513 -0.2000  1.3124
  623MOL0     H85966   4.038  10.294   7.112 -2.3115 -1.6957  3.0327
  623MOL0     H85967   3.961  10.375   7.238  1.8799 -3.7532  0.3900
  623MOL0     H85968   4.031  10.473   6.949  1.9425 -1.9810  0.8282
  623MOL0     H85969   3.964  10.593   7.055 -0.1620  0.3038 -2.6222
  623MOL0     H85970   3.634  10.324   6.983 -0.6263  0.3071  1.5178
  623MOL0     H85971   4.499  10.362   7.521 -2.3517 -1.8654  1.9032
  623MOL0     H85972   4.712  10.265   7.627  1.2351 -0.7551  1.7065
  623MOL0     H85973   4.588  10.152   7.660 -1.8035  0.4957 -1.1422
  623MOL0     H85974   4.747  10.085   7.600 -3.6285 -3.2923 -1.3612
  624MOL0     O85975   3.795   5.759  10.206 -0.0276 -0.2765 -0.5744
  624MOL0     C85976   3.823   5.806  10.098  0.3190  0.5505 -0.3150
  624MOL0     O85977   3.940   5.790  10.031 -0.7060  0.2732  0.3660
  624MOL0     C85978   4.042   5.697  10.075 -0.3443 -1.5152  0.6534
  624MOL0     C85979   4.144   5.751  10.158 -0.9829 -0.0075  0.2361
  624MOL0     C85980   4.262   5.675  10.174 -0.7607 -0.3766 -0.4323
  624MOL0     C85981   4.270   5.547  10.119  1.3239  0.5824  0.1919
  624MOL0     O85982   4.398   5.488  10.133  0.0916 -1.0869  0.3169
  624MOL0     C85983   4.415   5.349  10.100  0.5007 -0.1246 -0.6488
  624MOL0     C85984   4.375   5.264  10.222 -0.4230  0.0232 -0.6208
  624MOL0     C85985   4.445   5.295  10.350  0.1884 -0.6316  0.2144
  624MOL0     C85986   4.602   5.295  10.337  0.5598  0.0481  0.3583
  624MOL0     C85987   4.672   5.302  10.479 -0.2939 -0.7408 -0.0365
  624MOL0     C85988   4.821   5.350  10.476 -0.3229 -0.6828  0.5249
  624MOL0     C85989   4.863   5.381  10.616  0.4876 -0.4305 -1.1222
  624MOL0     C85990   5.010   5.338  10.654 -0.8503  0.3898  0.2151
  624MOL0     N85991   5.119   5.379  10.559 -0.4968  0.7446 -0.6201
  624MOL0     C85992   5.106   5.489  10.482  0.1687 -0.4282 -0.3070
  624MOL0     C85993   5.202   5.473  10.394  0.8674  0.0817 -0.0288
  624MOL0     C85994   5.223   5.559  10.272 -0.7737 -0.5588 -0.1428
  624MOL0     C85995   5.215   5.489  10.140  0.6524 -0.3869  0.6733
  624MOL0     C85996   5.345   5.413  10.114  0.0490 -0.5365 -1.0780
  624MOL0     C85997   5.360   5.385   9.964  0.1965 -0.1220  0.0552
  624MOL0     O85998   5.477   5.300   9.931  0.4048 -0.5416 -0.4421
  624MOL0     C85999   5.475   5.275   9.785 -0.3284 -0.5615 -0.1267
  624MOL0     C86000   5.378   5.311   9.691  0.2896 -0.2740 -0.1446
  624MOL0     C86001   5.381   5.261   9.557 -1.0007 -0.3273  0.0489
  624MOL0     C86002   5.263   5.301   9.471  0.0291  0.9824  0.3117
  624MOL0     C86003   5.484   5.176   9.518 -0.5236 -0.0441  0.4931
  624MOL0     C86004   5.495   5.129   9.376 -0.3197 -0.2942  0.2876
  624MOL0     O86005   5.377   5.101   9.305  0.8272  0.3912  0.1957
  624MOL0     C86006   5.385   5.081   9.173 -0.4745 -0.0799  0.2230
  624MOL0     C86007   5.335   5.185   9.084 -1.0622 -0.1525  0.1467
  624MOL0     C86008   5.338   5.163   8.947 -0.3647  0.0556 -0.9653
  624MOL0     C86009   5.387   5.044   8.889 -0.6081 -0.4171 -0.5314
  624MOL0     O86010   5.393   5.022   8.755 -0.2517 -0.1751 -0.5290
  624MOL0     C86011   5.337   5.109   8.660 -0.0587 -0.5642  0.4025
  624MOL0     C86012   5.334   5.045   8.526  0.3341  0.2616 -0.1949
  624MOL0     C86013   5.473   5.014   8.468 -0.5221  0.5169  0.3009
  624MOL0     C86014   5.543   5.136   8.420 -0.0815 -0.3361 -0.1415
  624MOL0     C86015   5.677   5.155   8.490 -0.9744  0.1865  0.9022
  624MOL0     C86016   5.777   5.249   8.425 -0.1590  0.1806 -0.9163
  624MOL0     C86017   5.819   5.240   8.286 -0.8608 -0.1347 -0.5802
  624MOL0     C86018   5.717   5.304   8.196  0.1151 -0.0786 -0.0287
  624MOL0    Cl86019   5.773   5.279   8.027  0.0452 -0.3028  0.0177
  624MOL0     C86020   5.446   4.953   8.974 -0.2149  0.2121  0.2684
  624MOL0     C86021   5.441   4.962   9.113 -0.5280 -0.2613  0.3626
  624MOL0     O86022   5.605   5.127   9.326  0.3107  0.3350  0.2662
  624MOL0     C86023   5.582   5.139   9.606  0.3151 -0.1974 -0.1248
  624MOL0     C86024   5.576   5.184   9.741 -0.2308 -0.1739  0.3440
  624MOL0     N86025   5.265   5.350  10.416  0.1167  0.3701 -0.8245
  624MOL0     N86026   5.212   5.288  10.516  0.0333  0.4724  0.2591
  624MOL0     C86027   4.167   5.499  10.041  0.9593 -0.3891 -0.1293
  624MOL0     C86028   4.052   5.573  10.016  0.0721 -0.2782  0.6304
  624MOL0     C86029   3.718   5.870  10.024 -0.2615 -0.2420  0.5523
  624MOL0     C86030   3.749   5.921   9.897 -0.1376  0.3191  0.3772
  624MOL0     C86031   3.661   5.983   9.812 -0.2609  0.3396 -0.8649
  624MOL0     C86032   3.530   5.993   9.839 -0.2616 -0.5367  0.5022
  624MOL0     O86033   3.446   6.057   9.746 -0.3743  0.0708 -0.1143
  624MOL0     C86034   3.307   6.005   9.727 -0.1089  0.0855 -0.4153
  624MOL0     C86035   3.238   6.043   9.592 -0.0064 -0.5625  0.0487
  624MOL0     C86036   3.205   6.196   9.591  0.0110 -0.1051 -0.2992
  624MOL0     C86037   3.077   6.237   9.651 -1.0168 -0.2237  0.7288
  624MOL0     C86038   3.036   6.377   9.649  0.0938  0.0335  0.8444
  624MOL0     C86039   2.985   6.488   9.630 -0.5044 -0.1164  0.4375
  624MOL0     C86040   3.489   5.946   9.964  0.6052  0.1206 -0.2089
  624MOL0     C86041   3.581   5.884  10.062  0.0429  0.5420  0.2806
  624MOL0     C86042   3.534   5.871  10.202 -1.2334 -0.2583  0.1806
  624MOL0     H86043   4.130   5.847  10.208  1.6181 -0.0895  1.2507
  624MOL0     H86044   4.350   5.710  10.227 -0.4088 -1.5352 -0.2167
  624MOL0     H86045   4.513   5.331  10.054  1.0225 -0.8017  0.6614
  624MOL0     H86046   4.347   5.311  10.023 -0.7786 -1.8652  1.2168
  624MOL0     H86047   4.267   5.282  10.225 -0.3669  0.2582  1.0206
  624MOL0     H86048   4.383   5.157  10.201  2.2557  0.3853 -1.8827
  624MOL0     H86049   4.410   5.387  10.398 -1.2473 -1.1572  0.2067
  624MOL0     H86050   4.427   5.223  10.430 -1.5807  0.4782  0.8734
  624MOL0     H86051   4.623   5.202  10.284 -1.1934  0.1706 -0.6213
  624MOL0     H86052   4.635   5.371  10.265  2.3507 -0.7604  0.2665
  624MOL0     H86053   4.678   5.198  10.513  1.1985 -0.5606  0.3429
  624MOL0     H86054   4.619   5.370  10.546  2.6751  1.0006  0.7477
  624MOL0     H86055   4.875   5.267  10.431  1.1963  1.0398 -1.0171
  624MOL0     H86056   4.832   5.431  10.403 -1.6312 -2.0361 -1.2536
  624MOL0     H86057   4.802   5.325  10.688  1.3890  0.4392  0.3719
  624MOL0     H86058   4.839   5.484  10.644  0.8107 -0.8537  0.9061
  624MOL0     H86059   5.053   5.369  10.749  2.5954  1.2517 -1.4620
  624MOL0     H86060   5.011   5.229  10.663 -0.5748  0.5472  2.5138
  624MOL0     H86061   5.038   5.572  10.495  0.7962  0.2661 -1.2323
  624MOL0     H86062   5.321   5.606  10.283 -1.8959  2.0146 -0.4447
  624MOL0     H86063   5.143   5.634  10.281  0.0894  0.7152 -2.2100
  624MOL0     H86064   5.129   5.422  10.151 -1.2767  1.9156  0.6176
  624MOL0     H86065   5.206   5.562  10.059  1.9791 -2.2946 -1.2729
  624MOL0     H86066   5.428   5.482  10.126  0.4886 -1.1827 -0.3579
  624MOL0     H86067   5.359   5.328  10.181 -0.3816  1.0923  1.1779
  624MOL0     H86068   5.269   5.332   9.934 -0.3841 -0.2724  1.9304
  624MOL0     H86069   5.371   5.478   9.908 -0.0599  1.7077  2.8495
  624MOL0     H86070   5.291   5.372   9.713  0.0396 -0.2472 -1.1597
  624MOL0     H86071   5.293   5.355   9.381  0.6381 -0.5569 -0.4452
  624MOL0     H86072   5.191   5.369   9.518  1.2465  3.6758 -1.4416
  624MOL0     H86073   5.202   5.212   9.456  1.0661  0.4350 -0.8269
  624MOL0     H86074   5.298   5.279   9.123  0.1250 -0.1531  1.3666
  624MOL0     H86075   5.307   5.246   8.884  1.0164  0.4227 -1.1800
  624MOL0     H86076   5.238   5.138   8.696  0.0271  1.3612 -0.7578
  624MOL0     H86077   5.402   5.197   8.649 -0.9825 -0.1273 -2.8639
  624MOL0     H86078   5.275   4.954   8.537 -0.4061  0.6015 -1.2464
  624MOL0     H86079   5.271   5.091   8.449 -0.7920 -0.0045  0.5419
  624MOL0     H86080   5.462   4.945   8.384 -1.1653  1.7816 -0.6929
  624MOL0     H86081   5.534   4.956   8.537  2.0242  2.6574  0.0130
  624MOL0     H86082   5.480   5.224   8.406  0.7192  0.1007 -1.1276
  624MOL0     H86083   5.571   5.112   8.317  0.9488  0.3815 -0.0489
  624MOL0     H86084   5.657   5.202   8.587  3.1310  4.6632 -0.0278
  624MOL0     H86085   5.733   5.063   8.509  0.5892  0.5036 -1.7405
  624MOL0     H86086   5.874   5.233   8.473 -1.1277 -2.3287  0.3810
  624MOL0     H86087   5.740   5.352   8.429 -2.7363 -0.6842 -0.9412
  624MOL0     H86088   5.825   5.132   8.269  0.3099 -0.3001  0.6578
  624MOL0     H86089   5.917   5.280   8.259 -2.4402  3.3142 -1.8135
  624MOL0     H86090   5.705   5.409   8.226 -0.9529 -0.5719  1.3766
  624MOL0     H86091   5.614   5.267   8.206  0.4151 -1.1697 -0.8096
  624MOL0     H86092   5.473   4.859   8.927  1.0335  0.6389  0.0932
  624MOL0     H86093   5.471   4.874   9.168 -1.6393 -0.5701  0.4930
  624MOL0     H86094   5.655   5.072   9.563 -0.9017 -0.9471 -1.1079
  624MOL0     H86095   5.666   5.165   9.798  0.9467 -0.3142 -1.4577
  624MOL0     H86096   4.168   5.407   9.984 -1.3384 -1.0908  0.8779
  624MOL0     H86097   3.978   5.538   9.946 -0.5940 -1.6698  1.9879
  624MOL0     H86098   3.852   5.908   9.868 -0.2687 -4.4021  1.2182
  624MOL0     H86099   3.705   5.998   9.714 -1.6294 -1.7612 -1.8805
  624MOL0     H86100   3.311   5.895   9.735  0.0507  0.0654 -0.7495
  624MOL0     H86101   3.246   6.027   9.815  1.2599 -3.4342  1.6395
  624MOL0     H86102   3.160   5.974   9.557 -0.2467  1.9771 -5.4702
  624MOL0     H86103   3.315   6.025   9.516  2.4312 -1.8473  2.6199
  624MOL0     H86104   3.279   6.249   9.651 -3.0382 -0.2933  4.1278
  624MOL0     H86105   3.197   6.226   9.486  0.4804 -0.2760 -0.3859
  624MOL0     H86106   3.082   6.211   9.757 -3.4432 -0.0242  0.9444
  624MOL0     H86107   2.998   6.169   9.616 -3.7358  2.4776  1.2313
  624MOL0     H86108   2.952   6.590   9.631 -1.7694 -0.4997  0.1519
  624MOL0     H86109   3.387   5.963   9.996  0.0979  0.3963 -1.8673
  624MOL0     H86110   3.596   5.943  10.257 -0.2231  0.2928 -1.5854
  624MOL0     H86111   3.432   5.909  10.211 -1.3720 -1.1066  3.4915
  624MOL0     H86112   3.543   5.768  10.239 -3.3688 -0.4572  0.2541
  625MOL0     O86113   9.530   9.005   7.195  0.0881  0.9000 -0.3130
  625MOL0     C86114   9.503   9.101   7.262 -0.2017  0.3682 -0.2568
  625MOL0     O86115   9.598   9.184   7.327 -1.2155  1.1212  0.2550
  625MOL0     C86116   9.731   9.144   7.330  0.4418 -0.2920  0.7199
  625MOL0     C86117   9.785   9.140   7.462 -0.8716 -0.5350  0.3539
  625MOL0     C86118   9.921   9.121   7.482  0.0565 -0.2387 -0.2280
  625MOL0     C86119  10.006   9.106   7.371 -0.7073 -0.9038 -0.7430
  625MOL0     O86120  10.139   9.075   7.383 -0.2714 -0.5106  0.3970
  625MOL0     C86121  10.189   9.013   7.500  1.0924  0.7590 -0.8448
  625MOL0     C86122  10.311   8.920   7.478 -0.4124 -0.2354  0.1898
  625MOL0     C86123  10.351   8.847   7.609 -0.5374  0.1148  0.3826
  625MOL0     C86124  10.381   8.936   7.729  0.7731  0.3137  0.2612
  625MOL0     C86125  10.421   8.833   7.832  0.6801  0.0799  1.0086
  625MOL0     C86126  10.468   8.899   7.968 -0.2908  0.1509  0.1148
  625MOL0     C86127  10.610   8.953   7.957 -0.1613  0.4920 -0.3222
  625MOL0     C86128  10.726   8.854   7.958  0.1049  0.4108 -0.8807
  625MOL0     N86129  10.862   8.907   7.935  0.0240 -0.8663 -0.4188
  625MOL0     C86130  10.964   8.894   8.030 -0.1790 -0.4860  1.0369
  625MOL0     C86131  11.075   8.949   7.970  0.2382  0.1319 -0.4322
  625MOL0     C86132  11.211   8.971   8.026  0.4853 -0.6989  0.6062
  625MOL0     C86133  11.320   9.046   7.944  1.0846  0.7086 -0.7188
  625MOL0     C86134  11.458   9.027   8.005  0.5482  0.3302 -0.0323
  625MOL0     C86135  11.519   8.887   7.980 -0.3605 -0.6211  0.2201
  625MOL0     O86136  11.532   8.869   7.842  0.3013  0.3183 -1.0004
  625MOL0     C86137  11.641   8.928   7.773 -0.3778 -0.5348 -0.4136
  625MOL0     C86138  11.748   8.996   7.832  0.4462 -0.1438 -0.2595
  625MOL0     C86139  11.854   9.041   7.750 -0.3109  0.3400 -0.4012
  625MOL0     C86140  11.969   9.106   7.821  0.2345 -0.0093 -0.1703
  625MOL0     C86141  11.843   9.036   7.609 -0.0128 -0.0306 -0.7845
  625MOL0     C86142  11.956   9.086   7.525 -0.8080  0.7662  0.5333
  625MOL0     O86143  12.089   9.054   7.565  0.8531 -0.1486  0.5612
  625MOL0     C86144  12.200   9.108   7.499  1.2794  0.3442  0.0733
  625MOL0     C86145  12.219   9.245   7.490  0.0904 -0.1474  0.4501
  625MOL0     C86146  12.332   9.298   7.422  0.1766 -0.5014 -0.7445
  625MOL0     C86147  12.414   9.215   7.355 -0.2288 -0.2490  0.8580
  625MOL0     O86148  12.522   9.260   7.281 -0.0235  1.0370  0.1343
  625MOL0     C86149  12.539   9.403   7.271 -0.3981  0.1011 -0.6240
  625MOL0     C86150  12.666   9.423   7.200  0.2093 -0.5054  0.0740
  625MOL0     C86151  12.682   9.570   7.170 -0.4215 -0.0823  0.3968
  625MOL0     C86152  12.795   9.609   7.086 -0.1689 -0.6986 -0.3545
  625MOL0     C86153  12.809   9.763   7.089 -0.4425  0.3136 -0.9149
  625MOL0     C86154  12.930   9.816   7.016  0.6821  0.7007  0.0860
  625MOL0     C86155  13.063   9.770   7.074  0.4748  0.4707 -0.7229
  625MOL0     C86156  13.181   9.858   7.027 -0.2106  0.3911  0.2450
  625MOL0    Cl86157  13.192   9.840   6.855  0.0041  0.5722  0.4416
  625MOL0     C86158  12.391   9.072   7.357 -0.1988 -0.6577 -0.2632
  625MOL0     C86159  12.282   9.022   7.426  0.1470  0.9194 -0.2250
  625MOL0     O86160  11.931   9.125   7.409  0.3011  0.0973  0.1343
  625MOL0     C86161  11.733   8.973   7.557  0.7486 -0.0175 -0.3586
  625MOL0     C86162  11.629   8.923   7.637 -0.1582 -0.3508 -0.6208
  625MOL0     N86163  11.051   8.964   7.839  0.0992 -0.2533  0.8357
  625MOL0     N86164  10.925   8.943   7.815  0.2640  0.2609  0.2556
  625MOL0     C86165   9.952   9.111   7.243 -0.6420 -0.2167  0.5458
  625MOL0     C86166   9.815   9.130   7.218  0.6672 -0.8401 -0.3491
  625MOL0     C86167   9.363   9.146   7.270  0.3887 -0.1725 -0.0086
  625MOL0     C86168   9.338   9.275   7.330 -0.0495 -0.5592  0.6311
  625MOL0     C86169   9.212   9.335   7.339  0.1110 -0.5450  0.5269
  625MOL0     C86170   9.095   9.270   7.301  0.3316 -0.2285  0.6475
  625MOL0     O86171   8.970   9.329   7.329  0.3912  0.3156 -0.0317
  625MOL0     C86172   8.860   9.263   7.273  0.5690 -0.4413  0.0709
  625MOL0     C86173   8.736   9.309   7.346 -0.0106  0.3379  0.0476
  625MOL0     C86174   8.616   9.294   7.248  0.4625  0.1136  0.1068
  625MOL0     C86175   8.480   9.332   7.317  0.2451  0.2817 -0.2584
  625MOL0     C86176   8.366   9.277   7.250  0.1822 -0.3535  0.5857
  625MOL0     C86177   8.257   9.226   7.219  0.5849 -0.2500  1.1370
  625MOL0     C86178   9.121   9.140   7.247  0.1517 -0.0366 -0.0177
  625MOL0     C86179   9.242   9.077   7.240 -0.1870  0.1249  0.1081
  625MOL0     C86180   9.254   8.931   7.187 -0.0686 -0.9980 -0.3067
  625MOL0     H86181   9.721   9.161   7.547 -0.9613 -2.2400  0.7425
  625MOL0     H86182   9.960   9.157   7.576 -0.3935  2.2677 -0.9039
  625MOL0     H86183  10.116   8.942   7.540  0.6529  0.0902 -2.7547
  625MOL0     H86184  10.197   9.099   7.568 -2.0524  1.6731 -1.4555
  625MOL0     H86185  10.287   8.849   7.399  3.6258 -0.7629 -0.7720
  625MOL0     H86186  10.395   8.974   7.434  1.3705 -3.8091 -1.2397
  625MOL0     H86187  10.280   8.771   7.641 -0.4878 -0.4931 -0.8869
  625MOL0     H86188  10.444   8.792   7.590  0.2430  2.2579 -2.8203
  625MOL0     H86189  10.465   9.005   7.715  1.2063  0.0323  1.3439
  625MOL0     H86190  10.295   8.999   7.754 -1.8760 -1.4965 -3.4985
  625MOL0     H86191  10.500   8.766   7.799  0.7090  1.0598 -1.0902
  625MOL0     H86192  10.330   8.776   7.853  0.5281 -0.1696 -0.2642
  625MOL0     H86193  10.390   8.970   7.997 -2.3287 -1.6666 -0.6217
  625MOL0     H86194  10.467   8.835   8.057 -1.7966  0.3481  0.2663
  625MOL0     H86195  10.632   9.020   8.041  1.0798  0.8864 -0.9384
  625MOL0     H86196  10.636   9.007   7.866  1.7086  1.8666  0.9491
  625MOL0     H86197  10.728   8.792   8.048 -0.2576 -0.3989 -1.4227
  625MOL0     H86198  10.701   8.782   7.879 -2.5989  0.2632  0.0140
  625MOL0     H86199  10.955   8.863   8.134  0.2314  0.3585  1.3334
  625MOL0     H86200  11.251   8.877   8.063 -1.8188 -1.4876  1.2900
  625MOL0     H86201  11.196   9.033   8.115 -1.8764  1.9362 -1.4269
  625MOL0     H86202  11.303   9.005   7.843 -1.7401 -0.6373  0.1866
  625MOL0     H86203  11.289   9.151   7.939  2.1852  1.0074 -2.1314
  625MOL0     H86204  11.526   9.101   7.961 -1.3083  1.9911 -0.2753
  625MOL0     H86205  11.452   9.043   8.113 -1.2390  1.6333 -0.2777
  625MOL0     H86206  11.614   8.882   8.034 -0.6298 -0.2245  0.7426
  625MOL0     H86207  11.454   8.812   8.026  1.6646 -3.1086 -0.7547
  625MOL0     H86208  11.755   9.012   7.939 -1.0372  1.3454 -0.3435
  625MOL0     H86209  12.035   9.021   7.841  0.4594  0.7751  2.9136
  625MOL0     H86210  11.939   9.152   7.915 -1.3490 -0.7635 -0.2879
  625MOL0     H86211  12.022   9.184   7.764  0.4467  1.1106  1.4877
  625MOL0     H86212  12.148   9.310   7.541 -0.1340  0.3088 -0.4383
  625MOL0     H86213  12.339   9.406   7.421  4.7227 -0.6006 -0.6825
  625MOL0     H86214  12.460   9.461   7.223  0.9941  1.5059 -1.3146
  625MOL0     H86215  12.557   9.434   7.374 -2.8545 -0.1865 -0.0455
  625MOL0     H86216  12.751   9.380   7.254  1.0091  0.9867  0.0588
  625MOL0     H86217  12.660   9.372   7.103 -3.5264 -0.7355  0.2831
  625MOL0     H86218  12.681   9.628   7.262  1.5324  0.2332  0.2506
  625MOL0     H86219  12.599   9.598   7.104 -0.4929 -0.9631  0.0935
  625MOL0     H86220  12.784   9.575   6.983  0.0181  0.9280 -0.9477
  625MOL0     H86221  12.888   9.571   7.129 -0.4758 -2.7947 -1.4400
  625MOL0     H86222  12.725   9.801   7.030  0.4816 -1.9351 -3.9251
  625MOL0     H86223  12.807   9.803   7.191  3.8754  0.1234 -0.5920
  625MOL0     H86224  12.924   9.925   7.016 -0.3232  0.6789  2.0504
  625MOL0     H86225  12.932   9.783   6.911 -2.5554  0.8494 -0.0957
  625MOL0     H86226  13.086   9.666   7.051  0.9794 -0.8152  4.3378
  625MOL0     H86227  13.049   9.768   7.183 -1.2412 -0.2962 -0.9180
  625MOL0     H86228  13.280   9.829   7.064  0.3807  1.4860 -0.4422
  625MOL0     H86229  13.172   9.963   7.054 -0.3005  0.1939  1.0277
  625MOL0     H86230  12.464   9.013   7.303  0.0892 -0.8086  0.2881
  625MOL0     H86231  12.257   8.919   7.451 -1.5625  1.2329 -0.5494
  625MOL0     H86232  11.712   8.983   7.451  1.7030 -1.0940 -0.6638
  625MOL0     H86233  11.531   8.880   7.617 -1.2117  0.3610  2.4508
  625MOL0     H86234  10.024   9.113   7.162 -0.7242  2.0299  0.4711
  625MOL0     H86235   9.783   9.132   7.114  0.5169 -1.4278 -0.3177
  625MOL0     H86236   9.418   9.337   7.368 -1.1783 -0.1685  2.5311
  625MOL0     H86237   9.212   9.438   7.374 -5.1269 -0.1175  0.1071
  625MOL0     H86238   8.850   9.273   7.164  1.7338 -0.5896 -0.0663
  625MOL0     H86239   8.883   9.159   7.298  0.5806 -0.0973  1.5594
  625MOL0     H86240   8.753   9.417   7.357 -2.4431  0.8622 -0.7116
  625MOL0     H86241   8.726   9.244   7.433  0.1146 -2.3040 -1.7859
  625MOL0     H86242   8.624   9.368   7.168  1.7187 -0.8215 -0.6868
  625MOL0     H86243   8.612   9.191   7.210  0.2171  0.5297 -1.0077
  625MOL0     H86244   8.473   9.441   7.321  2.0705  0.3967  1.7237
  625MOL0     H86245   8.482   9.297   7.421  1.8230  2.2844  0.4501
  625MOL0     H86246   8.172   9.171   7.182  0.5648  1.4665 -1.6940
  625MOL0     H86247   9.041   9.084   7.200  1.3831 -0.7994 -1.2770
  625MOL0     H86248   9.154   8.887   7.181 -0.2834 -0.8429  1.7033
  625MOL0     H86249   9.305   8.914   7.091  3.7039  2.7019  0.7213
  625MOL0     H86250   9.313   8.870   7.256  0.9399 -0.4705 -0.6838
  626MOL0     O86251   4.814   6.157   9.361  0.5235  0.0590  0.2191
  626MOL0     C86252   4.746   6.223   9.437 -0.4396 -1.0255  0.1759
  626MOL0     O86253   4.777   6.273   9.563 -0.0181  0.4685 -0.0216
  626MOL0     C86254   4.896   6.237   9.611 -0.4684 -0.5614  0.1748
  626MOL0     C86255   4.902   6.163   9.725 -0.1782  0.7696 -0.8013
  626MOL0     C86256   5.019   6.142   9.797 -0.1329  0.0689  0.8293
  626MOL0     C86257   5.145   6.180   9.741  0.4076  0.1188 -0.4957
  626MOL0     O86258   5.253   6.166   9.827  0.0127  0.6203  0.0106
  626MOL0     C86259   5.382   6.244   9.803 -0.0123  0.7733 -0.3856
  626MOL0     C86260   5.473   6.236   9.929  0.1544 -0.3600 -0.1444
  626MOL0     C86261   5.428   6.321  10.043 -0.9356 -0.4050  0.1108
  626MOL0     C86262   5.544   6.321  10.149  0.1134  0.7003  0.3435
  626MOL0     C86263   5.525   6.413  10.273  0.6448  0.4384  0.5170
  626MOL0     C86264   5.560   6.565  10.249 -0.0287  0.8038  0.2296
  626MOL0     C86265   5.708   6.601  10.192 -0.6999 -0.4205 -0.1267
  626MOL0     C86266   5.818   6.626  10.305  0.2075  0.4167 -0.3430
  626MOL0     N86267   5.915   6.735  10.288 -0.6159  0.0821  0.0052
  626MOL0     C86268   6.050   6.734  10.292 -0.0885 -0.5227 -0.3601
  626MOL0     C86269   6.097   6.863  10.295  0.7067  0.4024  0.3741
  626MOL0     C86270   6.234   6.909  10.302  0.0266 -0.5811  0.1651
  626MOL0     C86271   6.297   6.921  10.160 -0.3465 -0.3916  0.8882
  626MOL0     C86272   6.449   6.932  10.172 -0.5930  0.0427  0.5790
  626MOL0     C86273   6.541   6.899  10.042 -0.0454  1.0095 -0.0028
  626MOL0     O86274   6.506   6.997   9.941 -0.1563 -1.0322 -0.7023
  626MOL0     C86275   6.556   6.989   9.819  0.1941  0.2811 -0.0965
  626MOL0     C86276   6.677   6.936   9.793  0.0396 -0.4083  1.0051
  626MOL0     C86277   6.715   6.918   9.662  1.0455 -0.3221  0.9111
  626MOL0     C86278   6.856   6.866   9.641  0.4714  0.0823  0.9440
  626MOL0     C86279   6.637   6.953   9.549 -0.2285 -0.7797 -0.9133
  626MOL0     C86280   6.677   6.957   9.401  0.2408  0.0090  0.3051
  626MOL0     O86281   6.567   6.946   9.312  0.2269  0.4542 -0.5872
  626MOL0     C86282   6.581   6.966   9.178  0.2219 -0.1115 -0.3675
  626MOL0     C86283   6.602   7.096   9.138 -0.3120 -0.4927 -0.5354
  626MOL0     C86284   6.581   7.135   9.004 -0.5048  0.3792 -0.6283
  626MOL0     C86285   6.540   7.043   8.908  0.5335 -0.2549  0.7569
  626MOL0     O86286   6.504   7.073   8.775 -1.1658 -0.3082 -0.8550
  626MOL0     C86287   6.552   7.198   8.717 -0.2651  0.5724 -0.6122
  626MOL0     C86288   6.501   7.230   8.572  0.0148 -0.3422 -0.7704
  626MOL0     C86289   6.541   7.120   8.478  0.5313  0.4302  0.6687
  626MOL0     C86290   6.491   7.149   8.333  0.0285  0.6987  0.1784
  626MOL0     C86291   6.590   7.133   8.215  0.2953  0.0605  0.5862
  626MOL0     C86292   6.619   6.984   8.197  0.0598  0.1771  0.6057
  626MOL0     C86293   6.739   6.958   8.112  0.0018 -0.2480  0.0428
  626MOL0     C86294   6.870   6.998   8.175 -0.0820  0.1539 -0.5395
  626MOL0    Cl86295   7.004   6.916   8.078  0.1773  0.4338 -0.3084
  626MOL0     C86296   6.535   6.911   8.945 -0.8426 -0.0961  0.1831
  626MOL0     C86297   6.547   6.878   9.080  0.2682  0.2628  0.8536
  626MOL0     O86298   6.794   6.964   9.367 -0.0961  0.0684  0.4525
  626MOL0     C86299   6.517   7.020   9.575 -1.1721  0.7300  0.6874
  626MOL0     C86300   6.479   7.035   9.708 -0.6061  1.0422  0.0339
  626MOL0     N86301   5.985   6.937  10.290  0.0959  0.0841  0.7736
  626MOL0     N86302   5.875   6.862  10.276  0.0240  0.3146  0.3755
  626MOL0     C86303   5.139   6.235   9.615 -0.4625 -0.6453  0.0602
  626MOL0     C86304   5.017   6.272   9.549  0.2253 -0.3105 -0.2834
  626MOL0     C86305   4.614   6.274   9.391 -0.2728  0.2593  0.4565
  626MOL0     C86306   4.568   6.400   9.424  0.3668  0.3834 -0.7808
  626MOL0     C86307   4.449   6.445   9.369  0.7861  0.2601 -0.3819
  626MOL0     C86308   4.366   6.358   9.295  0.1366 -0.3864 -0.1358
  626MOL0     O86309   4.248   6.423   9.255  0.1666  0.0591  0.1483
  626MOL0     C86310   4.142   6.340   9.202 -0.4326 -0.8980  0.2868
  626MOL0     C86311   4.032   6.427   9.137 -1.0821 -0.4954 -0.5228
  626MOL0     C86312   3.970   6.525   9.240 -0.2529  0.2142 -0.7729
  626MOL0     C86313   3.861   6.616   9.181  0.1896  0.2675 -0.0901
  626MOL0     C86314   3.914   6.706   9.082 -0.3501  0.6749  0.3547
  626MOL0     C86315   3.970   6.781   8.999 -0.0557  0.1710 -0.2664
  626MOL0     C86316   4.411   6.228   9.273 -0.6082  0.5574  0.1411
  626MOL0     C86317   4.530   6.186   9.326  0.7731  0.2748  0.0939
  626MOL0     C86318   4.546   6.035   9.307  0.4566 -0.5260  0.2362
  626MOL0     H86319   4.812   6.130   9.776  0.9164 -2.3692 -0.6995
  626MOL0     H86320   5.021   6.099   9.896  0.0237  1.8068  1.6084
  626MOL0     H86321   5.343   6.344   9.784  2.6151  1.4053 -3.1302
  626MOL0     H86322   5.442   6.221   9.715  2.5883 -1.4197  1.7799
  626MOL0     H86323   5.497   6.131   9.951 -0.4729 -1.3182 -3.5041
  626MOL0     H86324   5.567   6.280   9.895 -0.8545  2.8523  0.8472
  626MOL0     H86325   5.411   6.423  10.007  0.8741  0.1196  0.6597
  626MOL0     H86326   5.332   6.291  10.086 -1.9805  0.6007 -1.4197
  626MOL0     H86327   5.549   6.218  10.183  1.1021  0.3640 -0.7480
  626MOL0     H86328   5.641   6.332  10.101 -0.1184  0.9067 -0.0807
  626MOL0     H86329   5.594   6.385  10.353 -0.8919  0.5775  1.9528
  626MOL0     H86330   5.421   6.401  10.304  0.3486 -0.2519 -0.6788
  626MOL0     H86331   5.483   6.606  10.183 -1.9259 -1.1062  1.1209
  626MOL0     H86332   5.551   6.629  10.338 -1.0163  1.3578 -0.2547
  626MOL0     H86333   5.693   6.695  10.138  1.5374  0.1914  0.2277
  626MOL0     H86334   5.736   6.520  10.124  2.2704 -1.8772  2.5446
  626MOL0     H86335   5.761   6.650  10.395  0.8821  2.8439 -0.5102
  626MOL0     H86336   5.874   6.536  10.331 -0.6500 -0.0301  0.0321
  626MOL0     H86337   6.110   6.644  10.296  2.2425  0.9968  2.4319
  626MOL0     H86338   6.288   6.834  10.360  0.7537 -0.2712 -0.1021
  626MOL0     H86339   6.241   7.001  10.361  0.8046 -2.2212  2.8242
  626MOL0     H86340   6.262   6.830  10.109  0.4377 -2.4464  3.7301
  626MOL0     H86341   6.269   7.017  10.116  3.3513  0.4370  0.0306
  626MOL0     H86342   6.479   7.028  10.213  1.4882  0.9096 -2.5975
  626MOL0     H86343   6.483   6.857  10.245  0.3106  0.3021  0.4349
  626MOL0     H86344   6.647   6.904  10.069 -0.3582  1.9217  1.1475
  626MOL0     H86345   6.521   6.798  10.005  0.4909 -0.3678  3.0854
  626MOL0     H86346   6.735   6.893   9.874  1.5999 -0.1236  0.0956
  626MOL0     H86347   6.938   6.938   9.631 -0.0447  0.8883  2.2828
  626MOL0     H86348   6.860   6.798   9.556  0.7608  1.1994  0.0410
  626MOL0     H86349   6.875   6.810   9.734 -3.5488 -0.0796  1.8402
  626MOL0     H86350   6.615   7.166   9.220  1.2078 -2.1608  0.7375
  626MOL0     H86351   6.584   7.241   8.981 -0.2207  0.4341 -0.3513
  626MOL0     H86352   6.525   7.275   8.791 -2.4781 -1.5180  0.9111
  626MOL0     H86353   6.661   7.198   8.711 -0.2307 -1.7139 -0.6450
  626MOL0     H86354   6.392   7.238   8.573  0.0388  0.4432 -1.9362
  626MOL0     H86355   6.545   7.324   8.538  1.5349 -0.9592 -0.6126
  626MOL0     H86356   6.495   7.031   8.522 -1.2027  1.2438  0.5653
  626MOL0     H86357   6.650   7.104   8.478  0.5336  0.4373  0.8907
  626MOL0     H86358   6.469   7.256   8.335 -1.2852  0.4555 -0.3785
  626MOL0     H86359   6.405   7.087   8.307 -0.6793  1.6280  0.2404
  626MOL0     H86360   6.553   7.179   8.123  0.6902 -0.1595  0.3185
  626MOL0     H86361   6.683   7.181   8.247  0.6918 -0.3118  0.0098
  626MOL0     H86362   6.531   6.923   8.176  1.0885 -0.8849 -0.7972
  626MOL0     H86363   6.650   6.946   8.295 -0.0299 -0.1547  0.5079
  626MOL0     H86364   6.724   7.000   8.012  0.9061  1.0982  0.4441
  626MOL0     H86365   6.746   6.850   8.095  1.0332 -0.3464  1.0077
  626MOL0     H86366   6.876   6.959   8.277 -1.7901  1.0370 -0.0523
  626MOL0     H86367   6.868   7.108   8.182 -2.0752  0.1807 -0.8101
  626MOL0     H86368   6.509   6.830   8.878 -0.3922 -2.1935  2.3630
  626MOL0     H86369   6.526   6.779   9.119 -0.6865  0.0436 -0.1542
  626MOL0     H86370   6.451   7.055   9.496 -0.6172  2.6023  0.9921
  626MOL0     H86371   6.377   7.070   9.725  0.5662  4.0379  1.6225
  626MOL0     H86372   5.226   6.270   9.560 -2.1264  1.3220 -1.5155
  626MOL0     H86373   5.021   6.325   9.455 -1.7501  1.2489  0.4326
  626MOL0     H86374   4.626   6.462   9.492  1.9182  0.3705 -2.0473
  626MOL0     H86375   4.409   6.543   9.390  1.0650  0.6389 -1.5337
  626MOL0     H86376   4.192   6.291   9.118 -0.1858  2.0800 -1.4206
  626MOL0     H86377   4.096   6.269   9.271 -1.5026 -0.1562  0.3473
  626MOL0     H86378   3.946   6.366   9.109 -1.4183  1.1013 -3.3675
  626MOL0     H86379   4.079   6.478   9.052 -1.6684  1.7397  0.4174
  626MOL0     H86380   3.923   6.465   9.319 -0.1486  1.2906  0.1357
  626MOL0     H86381   4.048   6.588   9.284  0.9823 -0.7881 -1.4689
  626MOL0     H86382   3.802   6.660   9.263 -0.0826 -0.8163  0.3064
  626MOL0     H86383   3.785   6.556   9.131 -1.8740  2.3382  0.4043
  626MOL0     H86384   4.012   6.840   8.919 -2.0495  1.6752 -0.2780
  626MOL0     H86385   4.333   6.159   9.244 -2.9382  1.9329  2.6531
  626MOL0     H86386   4.548   5.986   9.405 -0.1684 -0.4272  0.3070
  626MOL0     H86387   4.471   5.979   9.250 -0.0100 -0.0131  0.3357
  626MOL0     H86388   4.641   6.009   9.260  1.4901  0.0465  1.9048
  627MOL0     O86389   0.799   1.944   4.097  0.0598 -0.2095 -0.0530
  627MOL0     C86390   0.772   1.960   3.979 -0.1255  0.2021  0.4446
  627MOL0     O86391   0.845   2.048   3.894 -0.3676  0.0420  0.3491
  627MOL0     C86392   0.964   2.096   3.944 -0.1690  0.6166  1.3393
  627MOL0     C86393   0.990   2.225   3.916  0.2316 -0.5398  0.1852
  627MOL0     C86394   1.094   2.298   3.973 -0.4097  0.1970 -0.6486
  627MOL0     C86395   1.179   2.235   4.060 -1.4674 -0.6956 -0.6800
  627MOL0     O86396   1.296   2.305   4.079  0.0214  0.1542 -0.9121
  627MOL0     C86397   1.417   2.236   4.109  0.6011 -0.0817 -0.0275
  627MOL0     C86398   1.494   2.210   3.980  1.0642  0.2297  0.8581
  627MOL0     C86399   1.633   2.155   3.991 -0.4227 -0.6173 -0.4356
  627MOL0     C86400   1.650   2.022   4.074 -0.1470  1.0022  0.5684
  627MOL0     C86401   1.799   1.970   4.067  0.2870  0.5829  0.0956
  627MOL0     C86402   1.891   2.046   4.167 -0.3528 -0.9155  0.3232
  627MOL0     C86403   2.035   1.989   4.158  0.0156  0.1887  0.9893
  627MOL0     C86404   2.128   2.053   4.257  0.6391  0.3667 -0.3800
  627MOL0     N86405   2.263   2.004   4.253  0.2933  0.6466 -0.0360
  627MOL0     C86406   2.325   1.882   4.257 -0.3264 -0.7437  0.1369
  627MOL0     C86407   2.457   1.898   4.245 -0.3335  0.3732  0.4478
  627MOL0     C86408   2.538   1.769   4.209 -0.7969 -0.4277  1.0453
  627MOL0     C86409   2.661   1.736   4.283  0.0253 -0.6722  0.3110
  627MOL0     C86410   2.787   1.800   4.226  0.2786 -0.5338 -0.3248
  627MOL0     C86411   2.910   1.753   4.278  0.4067  0.0434  0.8525
  627MOL0     O86412   3.016   1.821   4.202  0.1822  0.0920 -0.2378
  627MOL0     C86413   3.147   1.802   4.233 -0.5805  0.3173  0.4842
  627MOL0     C86414   3.194   1.703   4.324  0.4920 -0.0062 -0.0112
  627MOL0     C86415   3.329   1.679   4.350 -0.4164 -0.1895 -0.3888
  627MOL0     C86416   3.375   1.568   4.446  0.6436  0.0342 -0.6168
  627MOL0     C86417   3.422   1.756   4.287  0.2611 -1.0103 -1.2656
  627MOL0     C86418   3.567   1.753   4.313 -0.4882 -0.9102 -0.6538
  627MOL0     O86419   3.613   1.744   4.445  0.4007  1.0038 -0.0537
  627MOL0     C86420   3.747   1.751   4.476  0.9011 -1.2000  0.1905
  627MOL0     C86421   3.792   1.864   4.538  0.0169 -0.0941 -0.6634
  627MOL0     C86422   3.927   1.906   4.522  0.6126  0.5478 -0.3458
  627MOL0     C86423   4.014   1.810   4.467 -0.9911 -0.0388 -0.5340
  627MOL0     O86424   4.151   1.828   4.469 -0.0878  0.1184  0.1835
  627MOL0     C86425   4.213   1.916   4.565 -0.5657 -0.2252 -0.1869
  627MOL0     C86426   4.195   1.887   4.711  0.8665 -0.0601  0.5108
  627MOL0     C86427   4.192   2.017   4.794  0.5978  0.0504  0.0098
  627MOL0     C86428   4.100   2.001   4.916  0.1333  0.5972 -0.0338
  627MOL0     C86429   4.079   2.136   4.988  0.3331  0.0092 -0.0292
  627MOL0     C86430   3.968   2.136   5.096 -0.5388  0.9498  0.5181
  627MOL0     C86431   4.020   2.085   5.232  0.1436 -0.7838  0.1218
  627MOL0     C86432   3.913   2.090   5.338 -0.0370  0.2678  0.0581
  627MOL0    Cl86433   3.843   2.265   5.358 -0.1615 -0.0893 -0.2014
  627MOL0     C86434   3.976   1.683   4.424  0.2336 -0.3026  0.0108
  627MOL0     C86435   3.836   1.661   4.420  0.1566 -0.2551 -0.3831
  627MOL0     O86436   3.634   1.753   4.216  0.6569  0.5668  0.4662
  627MOL0     C86437   3.380   1.848   4.191  0.0209 -0.2800 -0.5142
  627MOL0     C86438   3.250   1.868   4.163 -0.4196  0.3087 -0.6494
  627MOL0     N86439   2.478   2.028   4.222 -0.3803  0.1247 -0.5275
  627MOL0     N86440   2.366   2.088   4.239 -0.1907 -0.5422  0.1179
  627MOL0     C86441   1.158   2.098   4.091 -0.4420  0.2846 -1.3025
  627MOL0     C86442   1.055   2.027   4.030  0.1496 -0.0429 -0.4463
  627MOL0     C86443   0.658   1.888   3.906 -0.4329  0.2469 -0.2621
  627MOL0     C86444   0.626   1.931   3.777  0.2307  0.0551  0.0446
  627MOL0     C86445   0.517   1.883   3.706  0.6116 -0.0612 -0.3956
  627MOL0     C86446   0.448   1.776   3.745 -0.9011 -0.1851 -1.1161
  627MOL0     O86447   0.342   1.708   3.689 -0.4501 -0.3725 -0.3496
  627MOL0     C86448   0.308   1.721   3.553  0.1492 -0.2412  0.6098
  627MOL0     C86449   0.407   1.653   3.457 -0.2712  0.1661 -1.0857
  627MOL0     C86450   0.433   1.504   3.506  0.5251  0.0945  0.3637
  627MOL0     C86451   0.521   1.422   3.405 -0.3007 -0.1623 -0.4254
  627MOL0     C86452   0.550   1.289   3.456  0.0167  0.7366  0.0885
  627MOL0     C86453   0.596   1.190   3.509  1.6724 -0.1851  0.9126
  627MOL0     C86454   0.484   1.723   3.871 -0.1812  0.4507 -0.4688
  627MOL0     C86455   0.587   1.778   3.955  0.2176  0.4087 -0.0769
  627MOL0     C86456   0.596   1.735   4.100  0.2510  0.2034  0.8486
  627MOL0     H86457   0.935   2.271   3.835  2.7642 -1.1234 -1.9915
  627MOL0     H86458   1.116   2.403   3.955  3.4118  0.0596  2.0843
  627MOL0     H86459   1.386   2.149   4.167 -0.7117  1.1381  1.1592
  627MOL0     H86460   1.474   2.306   4.170 -0.1547  0.9324 -0.4548
  627MOL0     H86461   1.423   2.153   3.920 -1.7266 -1.1231  4.9506
  627MOL0     H86462   1.510   2.311   3.940 -0.3253  1.0323  2.2029
  627MOL0     H86463   1.687   2.141   3.897  2.8788  2.9366  0.6584
  627MOL0     H86464   1.696   2.232   4.037 -0.5526 -1.6914  1.6402
  627MOL0     H86465   1.617   2.033   4.178  2.0895  1.0902  1.3259
  627MOL0     H86466   1.580   1.949   4.033  1.4594 -1.2890  1.6750
  627MOL0     H86467   1.847   1.971   3.968  0.5982  3.6116  0.1890
  627MOL0     H86468   1.800   1.864   4.094  0.9135  0.4201 -0.5054
  627MOL0     H86469   1.892   2.151   4.135 -0.9305 -1.0597 -0.1665
  627MOL0     H86470   1.862   2.028   4.271  0.4146  0.4336  0.8045
  627MOL0     H86471   2.072   2.009   4.057 -2.6300  1.3536  0.1734
  627MOL0     H86472   2.022   1.886   4.191 -2.9869  0.5634  1.2902
  627MOL0     H86473   2.136   2.162   4.244  1.1914  0.3111 -0.5071
  627MOL0     H86474   2.081   2.040   4.355  0.5233  1.8359 -0.2136
  627MOL0     H86475   2.278   1.786   4.274 -0.7191 -0.7911 -1.1508
  627MOL0     H86476   2.566   1.777   4.104 -2.2067 -1.6372  0.5383
  627MOL0     H86477   2.473   1.681   4.224 -1.2047 -0.3089  0.0398
  627MOL0     H86478   2.644   1.760   4.389  0.3490 -0.0072  0.2149
  627MOL0     H86479   2.685   1.629   4.281  1.6341 -0.3358 -1.7734
  627MOL0     H86480   2.778   1.779   4.119 -0.0422  0.0039 -0.4077
  627MOL0     H86481   2.783   1.908   4.242  2.4222 -0.5007  0.2796
  627MOL0     H86482   2.916   1.757   4.387  0.5026  1.6541  0.8111
  627MOL0     H86483   2.911   1.647   4.251  1.0139 -0.0052  1.0402
  627MOL0     H86484   3.122   1.640   4.374  3.2091 -1.8320  1.8689
  627MOL0     H86485   3.463   1.511   4.413  0.7667  0.0798 -0.3690
  627MOL0     H86486   3.296   1.497   4.469  2.8871 -1.6878  2.4874
  627MOL0     H86487   3.412   1.612   4.539 -0.0877 -0.9233  0.1432
  627MOL0     H86488   3.722   1.939   4.573 -0.2632  0.2277 -1.8892
  627MOL0     H86489   3.951   2.009   4.546 -0.1391  0.2839  1.6456
  627MOL0     H86490   4.321   1.910   4.550 -0.1638  0.8822  1.9086
  627MOL0     H86491   4.197   2.024   4.551  1.1445  0.2673  1.3392
  627MOL0     H86492   4.097   1.839   4.717 -0.3750  2.3135  0.5670
  627MOL0     H86493   4.276   1.825   4.749  1.1760 -2.0510 -2.9132
  627MOL0     H86494   4.166   2.101   4.729 -0.9152 -0.5565 -0.2079
  627MOL0     H86495   4.291   2.049   4.827 -0.4839  3.9028  0.0225
  627MOL0     H86496   4.140   1.921   4.979  0.4501 -1.2923 -2.4713
  627MOL0     H86497   3.999   1.966   4.889  0.5910 -1.3358  0.6112
  627MOL0     H86498   4.174   2.170   5.030  0.0921  0.5020  0.1176
  627MOL0     H86499   4.054   2.219   4.921 -1.8509 -0.3541  0.2837
  627MOL0     H86500   3.889   2.073   5.054  1.9391 -1.4735 -0.7782
  627MOL0     H86501   3.919   2.234   5.106  0.6242  1.3171  4.2823
  627MOL0     H86502   4.110   2.131   5.273 -0.1029 -2.1523  2.3436
  627MOL0     H86503   4.047   1.980   5.219  0.7058 -0.8045  1.3043
  627MOL0     H86504   3.948   2.047   5.433  1.4822 -2.3096 -1.5437
  627MOL0     H86505   3.835   2.027   5.294  0.0476  1.5126 -1.9990
  627MOL0     H86506   4.051   1.608   4.396  0.9969 -0.4918  2.3613
  627MOL0     H86507   3.799   1.571   4.371 -2.8375  0.5861  0.1290
  627MOL0     H86508   3.456   1.916   4.152  1.8494  1.0000  4.4752
  627MOL0     H86509   3.226   1.941   4.086 -0.4058  2.3666  1.1980
  627MOL0     H86510   1.227   2.051   4.161 -0.5832  0.7375 -0.8557
  627MOL0     H86511   1.041   1.924   4.063  1.4918  1.0442  4.2327
  627MOL0     H86512   0.671   2.020   3.734 -1.1636  0.5129 -0.5268
  627MOL0     H86513   0.491   1.922   3.608  1.7080  0.4811 -0.4863
  627MOL0     H86514   0.214   1.667   3.540  0.6445 -0.7508 -1.0287
  627MOL0     H86515   0.289   1.822   3.516 -0.2063 -1.6302 -3.4577
  627MOL0     H86516   0.497   1.715   3.453 -0.4616  0.3897 -3.0451
  627MOL0     H86517   0.367   1.647   3.355 -1.9799  0.0542 -0.4365
  627MOL0     H86518   0.497   1.510   3.595  1.4631  1.2006 -0.3673
  627MOL0     H86519   0.345   1.443   3.528  0.9741 -0.3615  0.9593
  627MOL0     H86520   0.613   1.482   3.404 -1.8101  2.3361  0.9860
  627MOL0     H86521   0.488   1.422   3.301  2.5539 -1.2758 -1.4450
  627MOL0     H86522   0.628   1.111   3.573 -0.8453 -2.0381  0.0168
  627MOL0     H86523   0.418   1.642   3.900  1.5633 -1.8528 -2.3818
  627MOL0     H86524   0.550   1.814   4.160 -1.5135 -2.0972  2.7078
  627MOL0     H86525   0.547   1.641   4.124  0.4224 -0.7430 -2.0869
  627MOL0     H86526   0.700   1.730   4.133  0.2569  2.0537  1.2029
  628MOL0     O86527   9.964   2.574   3.485  0.1408  0.1257  0.2198
  628MOL0     C86528  10.028   2.591   3.588  0.4773  0.3442  0.4671
  628MOL0     O86529  10.141   2.671   3.592 -0.5788  0.1892 -0.0201
  628MOL0     C86530  10.188   2.733   3.483 -0.0690 -1.0762  0.2725
  628MOL0     C86531  10.200   2.877   3.482 -0.2028  0.1371 -0.0596
  628MOL0     C86532  10.267   2.941   3.379 -0.5972  0.5747  0.4829
  628MOL0     C86533  10.323   2.871   3.270  0.7536  0.1165  0.3695
  628MOL0     O86534  10.373   2.919   3.155 -0.1791 -0.4874 -0.4345
  628MOL0     C86535  10.443   3.044   3.147  0.4280  0.0758 -0.7972
  628MOL0     C86536  10.561   3.027   3.051  0.1538  0.4358 -0.1963
  628MOL0     C86537  10.584   3.154   2.974 -0.2167 -0.0226  0.6149
  628MOL0     C86538  10.682   3.144   2.855  0.0118 -0.7746 -0.5795
  628MOL0     C86539  10.672   3.268   2.759 -0.6193 -0.2632 -0.9792
  628MOL0     C86540  10.727   3.235   2.618  1.0601 -0.3306  0.3601
  628MOL0     C86541  10.870   3.179   2.607 -0.3154 -0.5538  0.9009
  628MOL0     C86542  10.893   3.102   2.478 -0.5160  0.1347  0.8266
  628MOL0     N86543  10.993   3.159   2.384  0.3289  0.0486  0.3376
  628MOL0     C86544  10.971   3.285   2.318  0.0526 -0.3768 -1.2203
  628MOL0     C86545  11.095   3.319   2.274  0.1687 -0.4469  0.0644
  628MOL0     C86546  11.123   3.451   2.197  0.7509 -0.1077 -0.0774
  628MOL0     C86547  11.225   3.531   2.278  0.0950 -0.1472 -0.3179
  628MOL0     C86548  11.243   3.672   2.222  0.0592 -0.2977  0.2416
  628MOL0     C86549  11.342   3.768   2.291 -0.1463  0.6425  0.1797
  628MOL0     O86550  11.468   3.705   2.273  0.3641 -0.7871 -0.4738
  628MOL0     C86551  11.585   3.753   2.340 -0.1839  0.7759 -0.6546
  628MOL0     C86552  11.602   3.860   2.425  0.3706 -0.7202 -0.6120
  628MOL0     C86553  11.727   3.886   2.485 -0.2343  0.0821 -0.8211
  628MOL0     C86554  11.729   4.010   2.573 -0.2345 -0.0712  0.3269
  628MOL0     C86555  11.832   3.792   2.481 -0.9016 -1.3598 -0.2258
  628MOL0     C86556  11.971   3.818   2.542 -0.4359  0.5750  0.2608
  628MOL0     O86557  12.005   3.950   2.563  0.0586  0.4273 -0.0647
  628MOL0     C86558  12.129   3.997   2.608 -0.1527  0.0619  0.3526
  628MOL0     C86559  12.123   4.103   2.709  1.0186 -0.5485  0.8823
  628MOL0     C86560  12.243   4.166   2.752 -0.1666  0.1310  0.8594
  628MOL0     C86561  12.365   4.128   2.684  0.5445 -0.1735  0.0080
  628MOL0     O86562  12.483   4.183   2.729  0.3526 -0.4586  0.6151
  628MOL0     C86563  12.585   4.091   2.764 -0.0577  0.2469 -0.4276
  628MOL0     C86564  12.679   4.155   2.867 -0.1858 -0.2027  0.0992
  628MOL0     C86565  12.762   4.264   2.801 -0.6751  0.1078 -0.0172
  628MOL0     C86566  12.897   4.287   2.878  0.3396  0.2224 -0.1333
  628MOL0     C86567  12.957   4.422   2.858  0.4198 -0.5715  0.0521
  628MOL0     C86568  13.042   4.434   2.732  0.0078 -0.3402  0.1936
  628MOL0     C86569  13.075   4.590   2.716  0.0829  0.6529 -0.3516
  628MOL0     C86570  13.214   4.616   2.661  0.1408 -0.2510 -0.5131
  628MOL0    Cl86571  13.241   4.541   2.497  0.3217 -0.2259 -0.2993
  628MOL0     C86572  12.364   4.022   2.586 -0.2884  0.3325 -0.3218
  628MOL0     C86573  12.248   3.949   2.556 -0.1606 -0.8558  0.2335
  628MOL0     O86574  12.036   3.719   2.570  0.9650  0.0982  0.6163
  628MOL0     C86575  11.809   3.673   2.411 -0.0583 -0.3813  0.2943
  628MOL0     C86576  11.694   3.662   2.331  0.4410 -0.5148  0.3509
  628MOL0     N86577  11.187   3.225   2.315  0.2573  0.4254 -0.2650
  628MOL0     N86578  11.129   3.124   2.366  0.1218 -1.1886  0.3824
  628MOL0     C86579  10.297   2.728   3.264 -1.2062 -1.1928 -0.5551
  628MOL0     C86580  10.236   2.662   3.374 -0.1232  0.1994  0.1025
  628MOL0     C86581   9.989   2.506   3.702 -0.5930 -0.2613  0.1477
  628MOL0     C86582  10.087   2.490   3.806  0.5135 -0.2858  1.0195
  628MOL0     C86583  10.047   2.412   3.918  1.5331 -1.0566  0.2074
  628MOL0     C86584   9.921   2.344   3.919  0.2952 -1.1986  0.7293
  628MOL0     O86585   9.880   2.271   4.027 -0.2273  0.0325  0.3921
  628MOL0     C86586   9.896   2.129   4.020  0.0625  0.0732 -0.8998
  628MOL0     C86587  10.038   2.104   4.084  0.2237  1.5150  0.7997
  628MOL0     C86588  10.052   1.964   4.148  0.2760  0.0957  1.1302
  628MOL0     C86589  10.169   1.943   4.225 -0.1454 -0.1393 -0.0695
  628MOL0     C86590  10.179   1.799   4.259 -0.4994  0.4866 -0.6617
  628MOL0     C86591  10.195   1.673   4.270  0.0352 -0.0166 -0.1311
  628MOL0     C86592   9.835   2.354   3.814  0.2160 -1.0600  0.9034
  628MOL0     C86593   9.862   2.436   3.705  0.6585  0.1119  0.5875
  628MOL0     C86594   9.746   2.455   3.605  0.2486  0.5631  0.1177
  628MOL0     H86595  10.170   2.935   3.568 -0.1982 -1.7630  1.2871
  628MOL0     H86596  10.279   3.049   3.382  0.1061  0.4784  1.9678
  628MOL0     H86597  10.485   3.079   3.242 -1.7384  2.0685 -0.4822
  628MOL0     H86598  10.380   3.129   3.119  0.4285  0.3569  0.0289
  628MOL0     H86599  10.650   2.983   3.097  0.5608  1.1346 -0.2979
  628MOL0     H86600  10.519   2.964   2.973 -2.5786  3.0460 -1.0572
  628MOL0     H86601  10.488   3.178   2.927 -1.3776 -2.2845  1.6490
  628MOL0     H86602  10.598   3.239   3.041 -1.6730  0.0768  0.8222
  628MOL0     H86603  10.785   3.127   2.887  0.4902  0.0446 -1.6496
  628MOL0     H86604  10.651   3.051   2.807  0.7899 -1.0152 -0.6257
  628MOL0     H86605  10.722   3.358   2.794  0.3865 -0.5636 -1.6147
  628MOL0     H86606  10.570   3.305   2.742  0.0151  1.2796 -1.5422
  628MOL0     H86607  10.658   3.165   2.568  1.5768 -0.2909 -0.4299
  628MOL0     H86608  10.707   3.324   2.558 -0.1768  1.0791  2.7215
  628MOL0     H86609  10.899   3.117   2.692  1.6651 -1.7049 -0.5315
  628MOL0     H86610  10.934   3.268   2.608 -2.1728  0.8603  1.1593
  628MOL0     H86611  10.945   3.007   2.493 -1.4182 -0.3492  0.9845
  628MOL0     H86612  10.799   3.081   2.426  0.8692 -1.5287 -1.2059
  628MOL0     H86613  10.880   3.345   2.308  0.1547 -0.3302 -1.8601
  628MOL0     H86614  11.029   3.506   2.191  0.9252  0.0579 -1.7511
  628MOL0     H86615  11.169   3.421   2.102  2.8551  0.0938  0.8184
  628MOL0     H86616  11.193   3.536   2.382 -0.4465  1.9687 -0.5437
  628MOL0     H86617  11.320   3.477   2.275 -0.2733 -1.0591  2.2091
  628MOL0     H86618  11.260   3.656   2.116  2.2314  1.9037  0.1848
  628MOL0     H86619  11.148   3.724   2.238  0.7039  1.7011 -1.9273
  628MOL0     H86620  11.340   3.870   2.251  1.5482  1.1249  1.2212
  628MOL0     H86621  11.324   3.782   2.398  3.6965  1.1055  0.9043
  628MOL0     H86622  11.516   3.924   2.445  0.4244 -0.6976 -0.4484
  628MOL0     H86623  11.788   4.086   2.522 -0.6112 -0.6836 -1.0795
  628MOL0     H86624  11.770   3.984   2.671  2.2891  0.2201 -0.5922
  628MOL0     H86625  11.629   4.055   2.577  0.9100  3.0836 -2.0018
  628MOL0     H86626  12.031   4.144   2.748  2.3526  2.1212  1.4675
  628MOL0     H86627  12.248   4.242   2.829 -1.0849  1.2276 -0.1312
  628MOL0     H86628  12.544   4.004   2.815 -0.8904 -0.1019 -1.6351
  628MOL0     H86629  12.627   4.066   2.666  0.5256  0.5117 -0.2502
  628MOL0     H86630  12.618   4.188   2.951  2.0631 -1.1513  2.2421
  628MOL0     H86631  12.745   4.073   2.898  0.4869 -0.1692 -1.1680
  628MOL0     H86632  12.706   4.357   2.787  1.9032  1.3563 -4.3116
  628MOL0     H86633  12.795   4.234   2.701 -1.7378 -3.7979  0.6482
  628MOL0     H86634  12.971   4.215   2.842 -1.1199 -0.9251 -0.9524
  628MOL0     H86635  12.880   4.283   2.986 -1.7398 -0.2206 -0.4227
  628MOL0     H86636  12.876   4.496   2.861  1.7561  1.0798 -1.9201
  628MOL0     H86637  13.031   4.431   2.937 -0.9303  1.4223  1.1925
  628MOL0     H86638  12.988   4.399   2.643 -0.1848 -1.2311  0.6454
  628MOL0     H86639  13.134   4.375   2.742 -0.6665 -1.2214  1.4446
  628MOL0     H86640  13.082   4.620   2.821 -0.2890 -0.1373 -0.0873
  628MOL0     H86641  12.994   4.648   2.671  0.6380 -0.2955 -2.6644
  628MOL0     H86642  13.290   4.584   2.732  0.6768  0.4041 -0.7758
  628MOL0     H86643  13.214   4.725   2.650 -1.1458 -0.2452 -0.6426
  628MOL0     H86644  12.454   3.995   2.532  0.8041  1.7695  0.7068
  628MOL0     H86645  12.250   3.863   2.490  0.5120 -1.0623  0.5200
  628MOL0     H86646  11.895   3.608   2.408  0.9758  0.9756 -0.8406
  628MOL0     H86647  11.699   3.570   2.274 -0.3512  0.0385 -0.6391
  628MOL0     H86648  10.326   2.669   3.178 -0.8301 -0.7199 -0.7605
  628MOL0     H86649  10.220   2.556   3.354 -1.4270  0.5560 -0.9347
  628MOL0     H86650  10.178   2.549   3.812 -0.1830  0.7172  5.3849
  628MOL0     H86651  10.116   2.394   4.000  1.5066  1.1904  0.7747
  628MOL0     H86652   9.827   2.091   4.096  0.0999  2.4639  0.4315
  628MOL0     H86653   9.881   2.087   3.920 -0.3145  0.3197 -0.9450
  628MOL0     H86654  10.057   2.184   4.156  0.9353  1.3786  0.7741
  628MOL0     H86655  10.107   2.116   4.000  0.7573  0.5066  1.0817
  628MOL0     H86656   9.956   1.940   4.195 -2.2844  0.2696 -3.4086
  628MOL0     H86657  10.063   1.896   4.063  1.0910 -0.3203  1.5573
  628MOL0     H86658  10.167   1.999   4.319 -1.2447 -1.8086  0.9428
  628MOL0     H86659  10.250   1.964   4.154 -0.2532  0.1158 -0.1175
  628MOL0     H86660  10.210   1.567   4.271  0.6911  0.0632  1.4189
  628MOL0     H86661   9.741   2.299   3.811 -0.0982 -0.5003 -1.4861
  628MOL0     H86662   9.776   2.405   3.512 -0.0799 -0.0548  0.3352
  628MOL0     H86663   9.650   2.416   3.641  0.1169 -0.3372 -1.1476
  628MOL0     H86664   9.733   2.562   3.587  0.4228  0.1535 -2.8689
  629MOL0     O86665   9.152   3.713   5.125  0.1815 -0.7776  0.4517
  629MOL0     C86666   9.104   3.805   5.058  0.0285  0.2171 -0.2409
  629MOL0     O86667   9.157   3.864   4.952  0.1313  0.0946  0.4653
  629MOL0     C86668   9.292   3.845   4.935 -0.3116  0.2066  0.6555
  629MOL0     C86669   9.391   3.811   5.032 -1.1652  0.6463 -0.2580
  629MOL0     C86670   9.528   3.802   4.991  0.4376 -0.0231  0.5517
  629MOL0     C86671   9.569   3.838   4.856  0.7344  0.2465 -0.8424
  629MOL0     O86672   9.707   3.814   4.834  0.1374  0.1943  0.4605
  629MOL0     C86673   9.751   3.841   4.695  0.6552  0.0829  0.4937
  629MOL0     C86674   9.898   3.822   4.669  0.1845 -0.3618 -0.1573
  629MOL0     C86675   9.935   3.678   4.687 -0.3042 -0.1441  0.3759
  629MOL0     C86676  10.092   3.657   4.690 -0.8127 -0.4011  0.7546
  629MOL0     C86677  10.147   3.710   4.818 -0.5068 -0.4841  0.4167
  629MOL0     C86678  10.305   3.720   4.814 -0.2098  0.6977  0.1406
  629MOL0     C86679  10.372   3.591   4.765 -0.6390  0.4993 -0.2637
  629MOL0     C86680  10.359   3.476   4.868 -0.1351 -0.1915 -0.8997
  629MOL0     N86681  10.408   3.353   4.800 -0.4734 -0.2880 -0.1476
  629MOL0     C86682  10.541   3.332   4.762  0.3370 -0.1466 -0.9066
  629MOL0     C86683  10.533   3.207   4.711  0.3603 -0.0144 -0.3697
  629MOL0     C86684  10.642   3.121   4.663  0.2434  0.3428  0.3881
  629MOL0     C86685  10.781   3.156   4.723 -0.2928  0.6520  0.5279
  629MOL0     C86686  10.873   3.244   4.640  0.0040 -0.7498  0.7156
  629MOL0     C86687  11.009   3.279   4.704 -0.3187 -0.0071 -0.8738
  629MOL0     O86688  11.104   3.178   4.681 -1.1635  0.1043 -0.0468
  629MOL0     C86689  11.224   3.203   4.726 -1.5142 -0.4083  0.0894
  629MOL0     C86690  11.316   3.289   4.669 -0.1591 -0.1306  0.0750
  629MOL0     C86691  11.440   3.324   4.723 -0.8550  0.1272  0.4531
  629MOL0     C86692  11.523   3.437   4.661  0.4146  0.1420 -0.6794
  629MOL0     C86693  11.485   3.253   4.834  0.0338  0.4318 -0.6463
  629MOL0     C86694  11.618   3.265   4.904  0.0625 -0.1838 -0.2553
  629MOL0     O86695  11.645   3.185   5.011 -0.0944  0.5471 -0.6330
  629MOL0     C86696  11.759   3.210   5.077  0.2622  0.0952 -0.2620
  629MOL0     C86697  11.877   3.142   5.039 -0.2677  0.3459 -0.7751
  629MOL0     C86698  11.992   3.164   5.111 -0.2674  0.3425  0.3934
  629MOL0     C86699  11.992   3.256   5.219 -0.3590  0.1674 -1.3404
  629MOL0     O86700  12.115   3.286   5.276  1.3744 -0.5837 -0.8799
  629MOL0     C86701  12.118   3.326   5.409 -0.4357  0.2027  0.3926
  629MOL0     C86702  12.243   3.280   5.486 -0.3032  0.2301  0.4427
  629MOL0     C86703  12.380   3.329   5.432  0.3235 -0.4470  0.4472
  629MOL0     C86704  12.498   3.275   5.523  0.4859 -0.0243 -0.2870
  629MOL0     C86705  12.639   3.333   5.478  0.6988 -0.1578 -0.0975
  629MOL0     C86706  12.753   3.272   5.557  0.3316 -0.2612  0.0549
  629MOL0     C86707  12.889   3.302   5.482 -0.3639  0.0703 -0.3302
  629MOL0     C86708  12.999   3.246   5.575 -0.2184 -0.6580  0.4952
  629MOL0    Cl86709  13.027   3.348   5.716 -0.0391 -0.3833 -0.8545
  629MOL0     C86710  11.870   3.314   5.267  0.0247  0.3802 -0.1707
  629MOL0     C86711  11.752   3.294   5.193  0.3525  0.5157  0.1970
  629MOL0     O86712  11.693   3.351   4.862  0.1290  1.3221  0.1958
  629MOL0     C86713  11.387   3.164   4.895 -0.7663 -0.0996  0.5465
  629MOL0     C86714  11.263   3.147   4.845  1.3605 -0.3901 -0.6726
  629MOL0     N86715  10.410   3.153   4.712 -1.2791 -0.2943  0.1159
  629MOL0     N86716  10.335   3.240   4.767  0.7960 -0.0722  0.0759
  629MOL0     C86717   9.468   3.866   4.766 -0.5480 -0.2788  0.1561
  629MOL0     C86718   9.336   3.878   4.802  0.8008 -0.1284  0.9758
  629MOL0     C86719   8.967   3.845   5.099 -0.0427 -0.1933  0.1914
  629MOL0     C86720   8.922   3.820   5.233  0.5843 -0.8866  0.2942
  629MOL0     C86721   8.790   3.859   5.271 -0.2401  0.1943  0.2610
  629MOL0     C86722   8.704   3.937   5.192  0.5890  1.3933 -0.2118
  629MOL0     O86723   8.583   3.985   5.237  0.0860  0.4034 -1.0267
  629MOL0     C86724   8.535   3.959   5.376 -0.2352 -0.5406  0.0078
  629MOL0     C86725   8.399   4.019   5.403 -0.3053  0.5371  0.2824
  629MOL0     C86726   8.290   3.952   5.316  0.3295 -0.3589  0.8254
  629MOL0     C86727   8.156   4.018   5.337 -0.2173 -0.3844  0.5078
  629MOL0     C86728   8.143   4.160   5.376  0.5598 -0.1348 -0.8619
  629MOL0     C86729   8.134   4.275   5.409 -0.0951 -0.1786 -0.3037
  629MOL0     C86730   8.746   3.960   5.061  0.6472  0.3791 -0.7418
  629MOL0     C86731   8.874   3.916   5.009  0.2594  0.1125  0.5281
  629MOL0     C86732   8.906   3.952   4.866 -0.3841 -0.6500  0.9439
  629MOL0     H86733   9.370   3.802   5.138 -0.4555  1.3486 -0.0450
  629MOL0     H86734   9.603   3.767   5.061  0.7467 -2.4784 -0.8997
  629MOL0     H86735   9.718   3.945   4.681 -1.8235 -0.4587  1.7449
  629MOL0     H86736   9.693   3.781   4.625 -1.1558 -0.7456  2.5637
  629MOL0     H86737   9.922   3.857   4.568  1.8367 -1.0065 -0.0146
  629MOL0     H86738   9.948   3.888   4.740 -1.5027  1.0044 -0.1735
  629MOL0     H86739   9.908   3.647   4.789  0.5239  3.2250  1.7478
  629MOL0     H86740   9.891   3.616   4.608 -2.2408 -0.0938  1.3626
  629MOL0     H86741  10.107   3.551   4.665 -0.7500  0.2797 -2.5041
  629MOL0     H86742  10.137   3.702   4.601 -1.8177 -0.9441 -0.0568
  629MOL0     H86743  10.112   3.638   4.893 -1.7428 -0.5889 -0.2434
  629MOL0     H86744  10.112   3.809   4.848  1.5557  0.0739  1.2054
  629MOL0     H86745  10.342   3.795   4.744  3.8946 -2.5211 -1.6004
  629MOL0     H86746  10.351   3.743   4.911  3.0101 -0.2837 -0.9985
  629MOL0     H86747  10.475   3.615   4.739  1.0256 -4.3054  0.8043
  629MOL0     H86748  10.322   3.567   4.670 -2.1399  1.7298  0.1751
  629MOL0     H86749  10.424   3.505   4.951  2.5201 -0.9626 -2.5739
  629MOL0     H86750  10.254   3.463   4.896 -0.2551 -1.7846 -1.9981
  629MOL0     H86751  10.625   3.400   4.771  0.2027 -0.2420  1.9521
  629MOL0     H86752  10.643   3.143   4.556 -0.7351  0.1014  0.3176
  629MOL0     H86753  10.620   3.016   4.684 -2.0088  0.2211 -2.0680
  629MOL0     H86754  10.761   3.191   4.825  1.3286 -1.5304  1.6713
  629MOL0     H86755  10.835   3.063   4.740  2.6921  2.3539  1.1229
  629MOL0     H86756  10.880   3.218   4.534 -2.6714  0.4478  0.1405
  629MOL0     H86757  10.810   3.333   4.642  0.7501 -0.2170  0.4737
  629MOL0     H86758  11.056   3.366   4.656  0.5165 -1.2680 -2.4204
  629MOL0     H86759  10.991   3.294   4.811 -2.3060  1.4720 -1.3608
  629MOL0     H86760  11.273   3.327   4.576  0.8953 -0.0341 -0.3794
  629MOL0     H86761  11.568   3.502   4.737  2.5445 -1.7954 -0.1730
  629MOL0     H86762  11.467   3.499   4.589  0.4765 -0.4596 -1.2552
  629MOL0     H86763  11.602   3.397   4.597 -1.3364 -2.5841 -1.2646
  629MOL0     H86764  11.883   3.072   4.956  1.5900  2.4204 -2.5509
  629MOL0     H86765  12.087   3.126   5.075  0.5189  1.5005  1.1571
  629MOL0     H86766  12.100   3.432   5.429  3.4298  0.8374  1.2421
  629MOL0     H86767  12.036   3.278   5.462 -1.4357 -1.8557 -2.7085
  629MOL0     H86768  12.232   3.317   5.588 -1.5934  0.2789  0.2977
  629MOL0     H86769  12.245   3.171   5.490  0.7062  0.2629  1.3098
  629MOL0     H86770  12.385   3.438   5.428 -0.0439 -0.4543 -0.7528
  629MOL0     H86771  12.394   3.296   5.328  2.1960  1.5979 -0.0162
  629MOL0     H86772  12.504   3.166   5.526 -0.1949 -0.1263 -1.7324
  629MOL0     H86773  12.473   3.311   5.624  0.9761 -0.5915  0.0464
  629MOL0     H86774  12.648   3.309   5.372 -1.5327  1.1955 -0.6358
  629MOL0     H86775  12.645   3.441   5.496  1.3991 -0.2481  0.2509
  629MOL0     H86776  12.739   3.164   5.554  1.7379 -0.4917  0.8003
  629MOL0     H86777  12.767   3.315   5.656 -0.2230 -0.0462  0.0398
  629MOL0     H86778  12.901   3.411   5.481 -2.3237  0.3099 -0.2750
  629MOL0     H86779  12.892   3.251   5.385  2.0749 -0.3351 -0.1029
  629MOL0     H86780  13.091   3.253   5.516  0.2580  2.4011  1.4169
  629MOL0     H86781  12.986   3.143   5.610 -0.5355 -0.5124  0.8091
  629MOL0     H86782  11.864   3.372   5.358 -1.7508  1.2838 -0.8107
  629MOL0     H86783  11.655   3.342   5.207  0.2772 -0.0380  1.6825
  629MOL0     H86784  11.421   3.097   4.973 -0.2195 -0.6090 -0.1119
  629MOL0     H86785  11.194   3.081   4.897  1.6022 -0.7120 -0.7570
  629MOL0     H86786   9.493   3.879   4.661 -0.6647  0.9652  0.2648
  629MOL0     H86787   9.266   3.905   4.724  0.8150 -0.3568  0.8852
  629MOL0     H86788   8.980   3.769   5.309  1.2857  0.3887  0.6291
  629MOL0     H86789   8.755   3.838   5.372 -2.6555  1.5363 -0.2223
  629MOL0     H86790   8.529   3.851   5.387 -2.7076 -0.3131  1.7147
  629MOL0     H86791   8.612   3.989   5.447  0.9230 -2.3103 -0.4484
  629MOL0     H86792   8.407   4.125   5.380 -1.4177  0.6532  0.3469
  629MOL0     H86793   8.369   4.011   5.508 -0.9648 -0.2272  0.0513
  629MOL0     H86794   8.314   3.955   5.210 -0.0448 -3.5748  0.5515
  629MOL0     H86795   8.264   3.847   5.331 -3.3872  0.0439 -1.5374
  629MOL0     H86796   8.100   3.971   5.419 -1.8573  1.2766  0.4019
  629MOL0     H86797   8.105   4.004   5.242 -2.3363 -2.7873  1.8681
  629MOL0     H86798   8.118   4.378   5.436 -2.8543 -0.8887  1.0867
  629MOL0     H86799   8.680   4.017   4.997  1.1463  1.2348 -0.5143
  629MOL0     H86800   8.809   3.951   4.815 -0.0795 -1.9997  0.3463
  629MOL0     H86801   8.951   4.051   4.853  1.4409 -1.3448  1.6746
  629MOL0     H86802   8.963   3.878   4.809  0.1653  1.7948 -1.9181
  630MOL0     O86803   6.201   3.345   7.798 -0.2334 -0.3963 -0.1435
  630MOL0     C86804   6.203   3.446   7.730  0.0362 -0.1138 -0.3308
  630MOL0     O86805   6.294   3.550   7.745 -0.0850  0.5890 -0.5920
  630MOL0     C86806   6.419   3.522   7.796  0.1801  0.0660 -0.1595
  630MOL0     C86807   6.530   3.542   7.711 -0.5809  0.2254 -0.1886
  630MOL0     C86808   6.657   3.496   7.748  0.3559  0.2022  0.9138
  630MOL0     C86809   6.685   3.429   7.872  0.5518  0.9230  0.1351
  630MOL0     O86810   6.800   3.363   7.901 -0.7604 -0.1391 -0.7045
  630MOL0     C86811   6.912   3.443   7.882 -0.5588 -0.2013 -0.2213
  630MOL0     C86812   7.032   3.359   7.912  0.3406 -0.6388  0.7494
  630MOL0     C86813   7.148   3.461   7.898  0.7890  0.5629  0.3237
  630MOL0     C86814   7.286   3.409   7.942 -0.7924  0.4008  0.5603
  630MOL0     C86815   7.401   3.500   7.927 -0.0217 -1.1261  0.3414
  630MOL0     C86816   7.368   3.632   8.001  0.6700 -0.8002  0.6214
  630MOL0     C86817   7.483   3.733   8.022  0.0752 -0.9002  0.2869
  630MOL0     C86818   7.545   3.775   7.899 -0.4259 -0.1089  0.0158
  630MOL0     N86819   7.462   3.869   7.828 -0.1868  0.8609  0.5620
  630MOL0     C86820   7.479   4.003   7.836 -0.7094 -0.1283 -0.8465
  630MOL0     C86821   7.374   4.052   7.770  0.0330  0.3686  0.7237
  630MOL0     C86822   7.377   4.206   7.743  0.8100  0.3894 -0.4156
  630MOL0     C86823   7.323   4.239   7.609  0.1466 -0.1898  0.0333
  630MOL0     C86824   7.321   4.393   7.584 -0.3204 -0.2043 -0.0607
  630MOL0     C86825   7.341   4.439   7.446  0.7076 -0.1966 -0.2183
  630MOL0     O86826   7.476   4.417   7.381  0.1945 -0.2102 -0.7902
  630MOL0     C86827   7.581   4.493   7.426 -0.0094 -0.6429 -0.4924
  630MOL0     C86828   7.705   4.437   7.410 -0.5132 -0.0082  0.0014
  630MOL0     C86829   7.827   4.505   7.448  1.1315  0.2701  0.6411
  630MOL0     C86830   7.954   4.412   7.434  0.6628  0.2537  0.0433
  630MOL0     C86831   7.817   4.634   7.495 -0.4800  0.2581 -0.4146
  630MOL0     C86832   7.934   4.720   7.539  0.3527 -0.0571 -0.8431
  630MOL0     O86833   7.915   4.801   7.652  0.3377  0.3920  0.2899
  630MOL0     C86834   8.022   4.881   7.698  1.2892 -0.1382 -0.0685
  630MOL0     C86835   8.094   4.968   7.612 -0.1591 -0.0972 -0.0790
  630MOL0     C86836   8.176   5.058   7.673  0.0291  0.0498  0.2943
  630MOL0     C86837   8.197   5.055   7.810  0.7074  0.5371  1.1963
  630MOL0     O86838   8.301   5.135   7.864  0.4173  0.7634  0.0899
  630MOL0     C86839   8.335   5.120   8.006  0.6281  0.3227  0.5740
  630MOL0     C86840   8.443   5.208   8.054  0.1775 -0.4900  0.2322
  630MOL0     C86841   8.521   5.141   8.168 -0.3460 -0.3371  0.2059
  630MOL0     C86842   8.457   5.136   8.300 -0.5869  1.0492 -0.9256
  630MOL0     C86843   8.557   5.095   8.403  1.0428  0.0528 -0.1621
  630MOL0     C86844   8.661   5.197   8.444 -0.1012 -0.3322 -0.4429
  630MOL0     C86845   8.730   5.144   8.570 -0.6970  0.7833 -0.3698
  630MOL0     C86846   8.807   5.253   8.647 -0.2608  0.5373  0.8582
  630MOL0    Cl86847   8.917   5.333   8.534 -0.3450  0.5535  0.0702
  630MOL0     C86848   8.115   4.977   7.888  0.0648 -0.1860 -0.7004
  630MOL0     C86849   8.029   4.890   7.833  0.0328  0.6365  0.4994
  630MOL0     O86850   8.044   4.694   7.484  0.2014 -0.2818 -0.0677
  630MOL0     C86851   7.688   4.694   7.509  0.1154  0.6681 -0.3335
  630MOL0     C86852   7.568   4.619   7.481  0.0740 -0.0718  0.2950
  630MOL0     N86853   7.304   3.951   7.712 -0.0703  0.4157  0.8360
  630MOL0     N86854   7.353   3.838   7.746 -0.1531 -0.5465 -0.9661
  630MOL0     C86855   6.578   3.413   7.961  0.2153 -0.0467  0.1192
  630MOL0     C86856   6.447   3.454   7.919 -0.1140  0.3909  0.2786
  630MOL0     C86857   6.070   3.479   7.669  0.6268  0.1104 -0.3799
  630MOL0     C86858   6.015   3.607   7.697  0.1180  0.0355 -0.4903
  630MOL0     C86859   5.891   3.650   7.664  0.3726 -0.2651  0.6729
  630MOL0     C86860   5.803   3.560   7.598 -0.3820  0.2729  0.1892
  630MOL0     O86861   5.678   3.611   7.567 -0.1036 -0.5342 -0.6535
  630MOL0     C86862   5.572   3.538   7.616  0.2690  0.6875  0.0793
  630MOL0     C86863   5.449   3.621   7.622 -0.4765 -0.1682 -0.1826
  630MOL0     C86864   5.312   3.555   7.656  0.5328  0.8550  0.2032
  630MOL0     C86865   5.206   3.665   7.678  0.2417 -0.6713 -0.3872
  630MOL0     C86866   5.069   3.620   7.663  0.6836 -0.4729 -1.0787
  630MOL0     C86867   4.962   3.597   7.609 -0.3509  0.1899  0.6968
  630MOL0     C86868   5.851   3.431   7.557 -0.5866 -0.1904 -0.7012
  630MOL0     C86869   5.987   3.389   7.593 -0.1959  0.4884  0.6354
  630MOL0     C86870   6.046   3.261   7.530  0.3638 -0.0605  0.5171
  630MOL0     H86871   6.514   3.596   7.619 -1.5656 -1.2298 -0.9099
  630MOL0     H86872   6.718   3.522   7.662  0.4000 -3.2916 -0.2765
  630MOL0     H86873   6.918   3.530   7.948 -1.6071  0.9273 -1.5541
  630MOL0     H86874   6.913   3.467   7.775  1.7568  0.5686 -0.0946
  630MOL0     H86875   7.023   3.326   8.016 -3.6857  1.3697  1.2313
  630MOL0     H86876   7.049   3.270   7.850 -0.7820 -1.4794  1.6093
  630MOL0     H86877   7.151   3.499   7.796  0.4201  1.0759  0.5017
  630MOL0     H86878   7.120   3.539   7.969 -0.1516 -1.0070  1.7605
  630MOL0     H86879   7.283   3.380   8.047  0.3558  2.0707  1.0919
  630MOL0     H86880   7.302   3.313   7.890 -2.5782  0.3396  0.0712
  630MOL0     H86881   7.411   3.516   7.819 -0.1262  0.7039  0.5717
  630MOL0     H86882   7.491   3.461   7.975 -0.7727  0.4146  3.2267
  630MOL0     H86883   7.287   3.689   7.955  1.3828 -0.4708 -0.2533
  630MOL0     H86884   7.319   3.607   8.096 -1.1050 -1.9696 -0.5261
  630MOL0     H86885   7.564   3.687   8.079 -0.5750 -2.1129  0.2760
  630MOL0     H86886   7.447   3.824   8.071  0.9776  1.1972 -2.6066
  630MOL0     H86887   7.642   3.816   7.931  1.0751 -2.9857 -0.5527
  630MOL0     H86888   7.564   3.690   7.833  2.3421 -0.3746  0.9924
  630MOL0     H86889   7.567   4.052   7.877 -0.3142  0.8246 -2.7293
  630MOL0     H86890   7.480   4.242   7.742  0.9611  0.1008 -3.0113
  630MOL0     H86891   7.318   4.264   7.814  2.5525  2.2731 -0.3916
  630MOL0     H86892   7.393   4.192   7.539 -0.2854 -1.1840  0.2486
  630MOL0     H86893   7.230   4.189   7.583  0.1978  0.3780 -1.3857
  630MOL0     H86894   7.225   4.431   7.620 -1.1888  0.1720 -2.5866
  630MOL0     H86895   7.408   4.446   7.625 -1.5463  1.9902 -0.2029
  630MOL0     H86896   7.265   4.388   7.385  2.1121 -2.6768 -0.0130
  630MOL0     H86897   7.322   4.547   7.440 -1.6029 -0.2738  3.0539
  630MOL0     H86898   7.709   4.342   7.358  1.7493  0.6091 -1.0505
  630MOL0     H86899   7.987   4.430   7.331 -0.3685  0.6064 -0.2389
  630MOL0     H86900   7.922   4.308   7.435 -3.0476  1.2630  0.8882
  630MOL0     H86901   8.032   4.423   7.510  1.4813 -0.5909 -0.6533
  630MOL0     H86902   8.078   4.970   7.505  0.4385 -0.8251 -0.1937
  630MOL0     H86903   8.248   5.118   7.618  1.4721 -3.0601 -1.4416
  630MOL0     H86904   8.245   5.142   8.065 -0.7321 -2.3455 -0.3286
  630MOL0     H86905   8.371   5.017   8.019 -0.4054 -0.2870 -0.9942
  630MOL0     H86906   8.515   5.235   7.976 -1.3688  1.1606 -0.7039
  630MOL0     H86907   8.402   5.303   8.089 -0.9150 -0.8083 -0.1347
  630MOL0     H86908   8.612   5.200   8.175 -2.1055  2.4860  0.8820
  630MOL0     H86909   8.550   5.043   8.128  1.2972  1.6908 -4.2487
  630MOL0     H86910   8.379   5.060   8.293  0.5228 -0.0246 -2.2576
  630MOL0     H86911   8.415   5.231   8.334 -0.0690  0.4808  1.5201
  630MOL0     H86912   8.487   5.086   8.487  0.6350  1.3688 -0.3377
  630MOL0     H86913   8.592   4.993   8.386  0.2183 -0.3294  0.3468
  630MOL0     H86914   8.623   5.299   8.453  0.2048 -0.0210 -2.2733
  630MOL0     H86915   8.740   5.209   8.369 -1.7957  0.3711 -2.1962
  630MOL0     H86916   8.803   5.070   8.536 -0.1939  1.4505 -0.7799
  630MOL0     H86917   8.662   5.084   8.631 -0.4221  0.1800 -0.6532
  630MOL0     H86918   8.857   5.211   8.735 -0.5331  0.7047  1.0939
  630MOL0     H86919   8.737   5.331   8.679 -0.0949  1.6570 -1.3159
  630MOL0     H86920   8.112   4.995   7.995  2.8498 -1.5026 -0.2877
  630MOL0     H86921   7.967   4.832   7.901 -0.3330 -3.7154 -3.1172
  630MOL0     H86922   7.676   4.795   7.546 -1.1475 -0.1413  1.6341
  630MOL0     H86923   7.471   4.662   7.504  1.5467  3.7670  0.1151
  630MOL0     H86924   6.578   3.359   8.055 -3.8144  0.2023  0.4463
  630MOL0     H86925   6.364   3.448   7.988 -1.8466  1.0090 -1.6651
  630MOL0     H86926   6.090   3.672   7.741  0.2439 -0.1235 -0.4687
  630MOL0     H86927   5.858   3.752   7.678 -1.1529 -0.2066 -2.4694
  630MOL0     H86928   5.539   3.459   7.547  0.2053  0.3302  0.5190
  630MOL0     H86929   5.595   3.488   7.710  0.2199  0.3958 -0.0599
  630MOL0     H86930   5.448   3.678   7.529  1.0496 -0.1831 -0.2356
  630MOL0     H86931   5.478   3.683   7.707 -0.2465 -0.3757 -0.1102
  630MOL0     H86932   5.277   3.501   7.567  2.3595 -0.6867  0.3763
  630MOL0     H86933   5.325   3.493   7.745 -2.2509  0.0079  0.1101
  630MOL0     H86934   5.226   3.741   7.602  0.6423 -1.1391 -0.7585
  630MOL0     H86935   5.215   3.710   7.777 -0.6987 -1.6784  0.1778
  630MOL0     H86936   4.865   3.583   7.565 -0.7389 -1.3640  1.9877
  630MOL0     H86937   5.789   3.366   7.496 -0.8894  1.3709 -2.1534
  630MOL0     H86938   5.967   3.207   7.477 -0.6120  0.9759  0.8946
  630MOL0     H86939   6.117   3.298   7.455  2.7800 -0.7292  2.3256
  630MOL0     H86940   6.094   3.189   7.598 -1.2914  0.0301  1.8220
  631MOL0     O86941  11.265   2.878   8.637 -0.5916  0.4906  0.3331
  631MOL0     C86942  11.225   2.977   8.698  0.8990  0.6182 -0.1529
  631MOL0     O86943  11.293   3.089   8.729  0.0785 -0.2050 -0.2427
  631MOL0     C86944  11.414   3.109   8.667  0.0716 -0.0801 -0.3325
  631MOL0     C86945  11.416   3.223   8.586  0.2762  0.2325  0.1189
  631MOL0     C86946  11.527   3.228   8.504 -0.5936  0.1877  0.0962
  631MOL0     C86947  11.632   3.142   8.510 -0.4235 -0.1501  0.1152
  631MOL0     O86948  11.728   3.155   8.411  0.3486 -0.3741 -0.0816
  631MOL0     C86949  11.853   3.093   8.437 -0.3475  0.5573  0.3548
  631MOL0     C86950  11.949   3.110   8.320  0.3279 -0.9964 -0.2202
  631MOL0     C86951  12.089   3.060   8.343 -0.1575 -0.8431  0.2032
  631MOL0     C86952  12.169   3.099   8.216 -0.2202  0.0564 -0.0678
  631MOL0     C86953  12.267   2.987   8.185  0.7458  0.9181 -0.0534
  631MOL0     C86954  12.368   3.031   8.076  0.3966 -0.0675  1.0845
  631MOL0     C86955  12.300   3.066   7.935  0.4849  0.0398  0.4662
  631MOL0     C86956  12.402   3.121   7.842 -0.4056  0.3414 -0.1895
  631MOL0     N86957  12.341   3.141   7.708  1.2370 -0.5228  0.0862
  631MOL0     C86958  12.241   3.232   7.672 -0.6979 -0.3348 -0.3251
  631MOL0     C86959  12.215   3.212   7.543  0.1646 -0.5254  0.3365
  631MOL0     C86960  12.130   3.292   7.454  0.5831 -0.4122  0.5738
  631MOL0     C86961  12.168   3.445   7.473  0.6731  0.9553  0.6203
  631MOL0     C86962  12.314   3.474   7.432 -0.6390 -0.7521  0.3951
  631MOL0     C86963  12.339   3.599   7.354 -0.2999 -0.8300 -0.0492
  631MOL0     O86964  12.279   3.715   7.413 -0.0955  0.3070 -0.2540
  631MOL0     C86965  12.348   3.781   7.514 -0.3500  0.1974  0.2677
  631MOL0     C86966  12.476   3.835   7.497 -0.4962  0.3793  0.2017
  631MOL0     C86967  12.550   3.894   7.607  0.3426 -0.1980  0.2725
  631MOL0     C86968  12.691   3.925   7.588 -0.2848  0.1711 -0.5988
  631MOL0     C86969  12.476   3.911   7.738  0.3455 -1.0601  0.1022
  631MOL0     C86970  12.547   3.939   7.870  0.2461 -0.6039 -0.1837
  631MOL0     O86971  12.462   3.964   7.977  0.3841  0.1594  0.4123
  631MOL0     C86972  12.511   3.972   8.105 -0.2774 -0.3750 -0.8658
  631MOL0     C86973  12.603   4.064   8.149  0.0950 -0.8788 -0.2027
  631MOL0     C86974  12.634   4.072   8.282  0.5310  0.2185 -0.0077
  631MOL0     C86975  12.583   3.988   8.382  0.1742 -0.1112  0.9169
  631MOL0     O86976  12.621   4.007   8.511 -0.1308  0.4518  0.3158
  631MOL0     C86977  12.560   3.911   8.596  0.5370  0.8234 -0.0925
  631MOL0     C86978  12.598   3.933   8.742 -0.6920  0.3321  0.1384
  631MOL0     C86979  12.533   3.827   8.841 -0.1135  0.9458 -0.2236
  631MOL0     C86980  12.551   3.880   8.981  0.2713 -0.4439 -0.1304
  631MOL0     C86981  12.516   3.773   9.092  0.3253 -0.4718  0.2303
  631MOL0     C86982  12.370   3.705   9.078  0.0455  0.4674  0.0220
  631MOL0     C86983  12.264   3.812   9.082  0.2467  0.1080 -0.3678
  631MOL0     C86984  12.120   3.756   9.117  0.3957  0.0191 -1.6418
  631MOL0    Cl86985  12.128   3.678   9.282 -0.1281 -0.5158  0.4086
  631MOL0     C86986  12.499   3.889   8.330 -0.3530 -0.6812 -0.2336
  631MOL0     C86987  12.460   3.882   8.201  0.6511 -0.6618  0.1342
  631MOL0     O86988  12.667   3.952   7.872 -0.1450 -0.0807 -0.4923
  631MOL0     C86989  12.347   3.866   7.744 -0.5012  0.0043 -0.0022
  631MOL0     C86990  12.288   3.805   7.639 -0.6873 -0.2952 -0.1646
  631MOL0     N86991  12.280   3.089   7.506  0.4636 -0.6588  0.4053
  631MOL0     N86992  12.352   3.048   7.605 -0.1877 -0.1076  0.2402
  631MOL0     C86993  11.631   3.039   8.601  0.2831  0.0799  0.3625
  631MOL0     C86994  11.524   3.023   8.681 -0.7934  0.2061 -0.9220
  631MOL0     C86995  11.086   2.972   8.751 -0.1099 -0.4122 -0.3001
  631MOL0     C86996  11.062   3.022   8.884 -0.1595  0.7559 -0.2954
  631MOL0     C86997  10.936   2.999   8.947 -0.0718 -0.4624 -0.2880
  631MOL0     C86998  10.833   2.941   8.877 -0.1165 -0.8044 -0.1733
  631MOL0     O86999  10.706   2.917   8.928  0.0622  0.2347  0.4301
  631MOL0     C87000  10.658   3.006   9.025  0.5673 -0.2997  0.2151
  631MOL0     C87001  10.683   2.932   9.162 -0.6222  0.8574  0.7342
  631MOL0     C87002  10.657   3.024   9.283 -0.1821 -0.1439 -0.1608
  631MOL0     C87003  10.528   3.087   9.290  0.5246 -0.3319  0.8232
  631MOL0     C87004  10.512   3.154   9.419  1.1068 -0.0971 -0.8274
  631MOL0     C87005  10.506   3.216   9.524 -0.6934  0.0138 -0.4082
  631MOL0     C87006  10.856   2.915   8.740  0.2699  0.5779 -0.2963
  631MOL0     C87007  10.982   2.910   8.679 -1.0053  0.5234  0.5218
  631MOL0     C87008  10.990   2.848   8.537  0.5512 -0.5587 -0.8080
  631MOL0     H87009  11.327   3.285   8.580 -0.5292 -0.8067  0.8121
  631MOL0     H87010  11.526   3.297   8.420 -2.0266  2.9877  2.2443
  631MOL0     H87011  11.845   2.985   8.447  0.7772  0.4596  0.4003
  631MOL0     H87012  11.893   3.135   8.530 -0.9451  2.3354 -0.1548
  631MOL0     H87013  11.902   3.059   8.235 -1.6772  0.1251  0.1534
  631MOL0     H87014  11.951   3.216   8.294 -1.9780 -1.2171 -1.5718
  631MOL0     H87015  12.121   3.101   8.439  0.9482 -0.6183 -0.2463
  631MOL0     H87016  12.068   2.953   8.358 -2.7930 -0.4779 -0.2655
  631MOL0     H87017  12.105   3.108   8.128  0.8672 -2.4443 -1.2129
  631MOL0     H87018  12.232   3.187   8.235  0.8093 -0.8065  0.6915
  631MOL0     H87019  12.208   2.898   8.161 -0.8278  1.6239  1.0013
  631MOL0     H87020  12.331   2.965   8.271 -0.4042 -0.2728  0.5189
  631MOL0     H87021  12.417   3.120   8.116 -2.8235  1.9079  1.0405
  631MOL0     H87022  12.436   2.949   8.052 -1.4719 -1.1626 -0.8558
  631MOL0     H87023  12.216   3.136   7.942  0.9149  0.6096  0.0149
  631MOL0     H87024  12.271   2.975   7.882  0.6673 -1.2061  2.4008
  631MOL0     H87025  12.449   3.217   7.868 -1.6313  0.6854  0.8400
  631MOL0     H87026  12.484   3.050   7.831 -0.4225 -0.2110  2.5115
  631MOL0     H87027  12.203   3.313   7.733 -0.2293  1.3535 -2.1862
  631MOL0     H87028  12.026   3.270   7.479  0.6175  0.1962  1.3231
  631MOL0     H87029  12.153   3.260   7.352  0.8792 -0.6560  0.7127
  631MOL0     H87030  12.098   3.503   7.412  0.0011  1.0913  1.5016
  631MOL0     H87031  12.133   3.483   7.569 -1.9757  0.0300  0.1179
  631MOL0     H87032  12.381   3.485   7.518  0.7607  0.4842 -0.7903
  631MOL0     H87033  12.355   3.385   7.382  1.9148  1.3591 -1.6051
  631MOL0     H87034  12.447   3.614   7.346 -0.2154  0.2739  2.4207
  631MOL0     H87035  12.294   3.588   7.255  1.7926 -2.6125 -0.8916
  631MOL0     H87036  12.518   3.820   7.398 -1.7059  1.5551 -0.5254
  631MOL0     H87037  12.733   3.896   7.491 -1.8800 -1.7772 -0.7878
  631MOL0     H87038  12.750   3.865   7.659  0.0774  1.9313  0.6444
  631MOL0     H87039  12.710   4.032   7.601 -0.9608  0.0343  2.0019
  631MOL0     H87040  12.630   4.145   8.081  0.3706  0.2940  1.2582
  631MOL0     H87041  12.711   4.140   8.318 -0.2625  1.3274 -0.3255
  631MOL0     H87042  12.451   3.920   8.591  0.5392  0.4139 -3.0449
  631MOL0     H87043  12.590   3.807   8.582  0.3626  0.7241  0.2744
  631MOL0     H87044  12.707   3.936   8.746 -0.6301 -0.1442 -0.8783
  631MOL0     H87045  12.565   4.033   8.773  0.6727  0.6721  0.5841
  631MOL0     H87046  12.586   3.733   8.830 -0.3660  0.6841  0.7385
  631MOL0     H87047  12.430   3.808   8.810  0.6760 -0.0784 -2.4919
  631MOL0     H87048  12.492   3.971   8.997 -1.5198 -1.6253  0.3544
  631MOL0     H87049  12.656   3.906   8.999  0.9826 -3.0260 -0.1272
  631MOL0     H87050  12.588   3.693   9.077 -2.1902 -2.5884 -1.5279
  631MOL0     H87051  12.514   3.812   9.195 -2.3640  2.7947 -0.8478
  631MOL0     H87052  12.368   3.632   9.160 -0.7046  0.6297  0.1625
  631MOL0     H87053  12.364   3.651   8.983 -0.2343  0.7017 -0.0939
  631MOL0     H87054  12.255   3.868   8.988 -1.9449 -0.6726 -0.6814
  631MOL0     H87055  12.294   3.886   9.157 -0.1849 -0.2359  0.1489
  631MOL0     H87056  12.081   3.690   9.038  0.8296  0.2804 -2.0784
  631MOL0     H87057  12.041   3.832   9.126  0.3810 -0.2872  2.2726
  631MOL0     H87058  12.455   3.815   8.396 -0.4818 -0.1917  0.2377
  631MOL0     H87059  12.384   3.812   8.166  1.8560  0.0424 -4.6360
  631MOL0     H87060  12.291   3.881   7.836  0.3416  2.1725  0.2208
  631MOL0     H87061  12.184   3.777   7.648 -1.6391  2.7794 -0.5226
  631MOL0     H87062  11.707   2.962   8.612 -1.0209 -2.1786 -4.0270
  631MOL0     H87063  11.522   2.941   8.753 -1.4628 -0.5708 -1.8051
  631MOL0     H87064  11.146   3.065   8.938 -0.4519  0.2869  0.5586
  631MOL0     H87065  10.941   3.031   9.051  2.0413  0.5047 -0.6341
  631MOL0     H87066  10.719   3.096   9.032  1.1579 -0.7152  0.4632
  631MOL0     H87067  10.552   3.009   8.998  1.1464 -1.4674 -2.5466
  631MOL0     H87068  10.784   2.889   9.162 -0.6356  0.4082 -3.3692
  631MOL0     H87069  10.622   2.842   9.171  0.9825 -0.0945  2.9889
  631MOL0     H87070  10.671   2.957   9.369 -3.0548 -0.6137  0.0352
  631MOL0     H87071  10.733   3.103   9.284 -2.1159  1.8493  2.0021
  631MOL0     H87072  10.444   3.018   9.288  1.8236 -2.0466  2.1591
  631MOL0     H87073  10.521   3.155   9.204  0.0639 -0.9851  0.3302
  631MOL0     H87074  10.518   3.266   9.618  2.3630  0.7394 -1.1059
  631MOL0     H87075  10.763   2.886   8.691 -0.5963 -2.4960  2.8097
  631MOL0     H87076  11.002   2.925   8.460  2.0673 -0.6655 -0.7181
  631MOL0     H87077  11.070   2.774   8.522  1.0908  0.3136 -2.4658
  631MOL0     H87078  10.895   2.805   8.504  1.5668 -1.7078 -2.4304
  632MOL0     O87079   1.445   7.541   9.449 -0.2419  0.0374 -0.7798
  632MOL0     C87080   1.565   7.555   9.463 -0.3574  0.6218 -0.4468
  632MOL0     O87081   1.649   7.589   9.362  0.0218 -0.4842  0.5301
  632MOL0     C87082   1.604   7.652   9.246  0.0046  0.2092 -0.7676
  632MOL0     C87083   1.705   7.682   9.152 -0.1724 -0.0178 -0.0475
  632MOL0     C87084   1.681   7.722   9.019 -0.3155 -0.6043 -0.2906
  632MOL0     C87085   1.552   7.730   8.970 -0.1767 -0.8718  0.0465
  632MOL0     O87086   1.507   7.757   8.842 -0.2150  0.4414  0.1695
  632MOL0     C87087   1.613   7.749   8.740  0.1690 -0.0183 -0.2648
  632MOL0     C87088   1.572   7.791   8.597 -0.0648  0.9541  0.4905
  632MOL0     C87089   1.691   7.790   8.500 -0.1816 -0.0535 -0.6524
  632MOL0     C87090   1.691   7.672   8.398  0.4621 -0.1766  0.6168
  632MOL0     C87091   1.798   7.683   8.298  0.3295  0.3822 -0.1263
  632MOL0     C87092   1.939   7.652   8.349  1.2723  0.8836 -0.0873
  632MOL0     C87093   2.038   7.638   8.234  0.1533 -0.5146  0.6914
  632MOL0     C87094   2.174   7.585   8.285 -0.2844 -0.6277 -0.2727
  632MOL0     N87095   2.264   7.679   8.356  0.4531 -1.4050  0.1644
  632MOL0     C87096   2.328   7.792   8.294  0.8496  0.1348 -0.3609
  632MOL0     C87097   2.418   7.826   8.386 -0.7990 -0.5423  0.3470
  632MOL0     C87098   2.538   7.924   8.369  0.6861 -0.5426 -0.4301
  632MOL0     C87099   2.593   7.972   8.506  0.2857 -0.3841 -0.8291
  632MOL0     C87100   2.705   8.076   8.493  0.2346  0.7274  0.5201
  632MOL0     C87101   2.739   8.121   8.640  0.1243 -0.0337  0.4204
  632MOL0     O87102   2.796   8.255   8.645 -0.2824 -0.3033 -0.1980
  632MOL0     C87103   2.881   8.299   8.747  0.8338 -0.1450 -0.6656
  632MOL0     C87104   2.870   8.253   8.877 -0.2612  0.1122 -0.4260
  632MOL0     C87105   2.954   8.306   8.981  0.2875 -0.6149 -0.1458
  632MOL0     C87106   2.929   8.256   9.119  0.4420 -0.2945 -0.9129
  632MOL0     C87107   3.053   8.404   8.945  0.1925  0.1057 -0.7047
  632MOL0     C87108   3.157   8.459   9.042  0.2469 -0.0275 -0.1640
  632MOL0     O87109   3.258   8.534   8.983 -0.4062 -0.0110 -0.1651
  632MOL0     C87110   3.357   8.583   9.066  0.4528  0.1370 -0.7599
  632MOL0     C87111   3.451   8.494   9.125  0.1440 -0.0001 -0.4366
  632MOL0     C87112   3.527   8.537   9.237 -0.6343  0.0416  0.2332
  632MOL0     C87113   3.523   8.678   9.279 -0.3683  0.6432  0.3736
  632MOL0     O87114   3.603   8.726   9.376 -0.1397 -0.3761 -0.7003
  632MOL0     C87115   3.647   8.860   9.379 -0.0246  0.0085 -0.3426
  632MOL0     C87116   3.782   8.879   9.309 -0.4786 -0.1136 -0.3768
  632MOL0     C87117   3.899   8.857   9.403  0.4729  0.0375  0.3690
  632MOL0     C87118   4.030   8.858   9.322  0.5919  0.4024 -0.0925
  632MOL0     C87119   4.142   8.768   9.365 -0.0682 -0.3208 -0.6821
  632MOL0     C87120   4.199   8.800   9.498 -0.3533 -0.0066  0.0127
  632MOL0     C87121   4.289   8.930   9.490  0.1279 -0.5802  0.9311
  632MOL0     C87122   4.354   8.970   9.622 -0.5707 -0.2504  0.0044
  632MOL0    Cl87123   4.220   9.031   9.717  0.1041  0.1511 -0.1285
  632MOL0     C87124   3.436   8.758   9.210 -0.2438 -1.2889  0.5370
  632MOL0     C87125   3.353   8.710   9.109 -0.6214 -0.3342  0.1362
  632MOL0     O87126   3.143   8.449   9.163 -0.8674  0.1906 -0.3728
  632MOL0     C87127   3.060   8.441   8.814  0.8173 -0.3987  0.2800
  632MOL0     C87128   2.968   8.397   8.721  1.1308 -0.7542  0.1725
  632MOL0     N87129   2.403   7.744   8.494 -0.0753  0.3877  0.0105
  632MOL0     N87130   2.307   7.668   8.481 -0.3494 -0.6154 -0.2698
  632MOL0     C87131   1.449   7.713   9.064  0.8447  0.2388  0.5262
  632MOL0     C87132   1.472   7.668   9.193  0.0512  0.6941 -0.2809
  632MOL0     C87133   1.630   7.527   9.601  1.3392  0.6516 -0.0649
  632MOL0     C87134   1.547   7.471   9.698 -0.8662  0.3492  0.7820
  632MOL0     C87135   1.604   7.448   9.831 -0.3317 -0.5770  0.3186
  632MOL0     C87136   1.743   7.467   9.855 -0.6984  0.3846 -0.2167
  632MOL0     O87137   1.807   7.446   9.977  0.0853  0.1205  0.3555
  632MOL0     C87138   1.738   7.381  10.091 -0.4217 -0.1907 -0.2536
  632MOL0     C87139   1.678   7.478  10.203 -0.6484  0.3553  0.7533
  632MOL0     C87140   1.598   7.404  10.304  0.5773  0.4587 -0.4272
  632MOL0     C87141   1.509   7.498  10.391 -0.8765 -0.2009 -0.3092
  632MOL0     C87142   1.394   7.554  10.308 -0.6779 -0.7544 -0.3482
  632MOL0     C87143   1.312   7.606  10.235  0.4881 -0.1742  0.4462
  632MOL0     C87144   1.820   7.523   9.752  0.4976  0.2109 -0.3894
  632MOL0     C87145   1.765   7.545   9.630  0.5822  0.3182  0.6689
  632MOL0     C87146   1.866   7.609   9.531  0.2265 -1.3007 -0.5171
  632MOL0     H87147   1.809   7.667   9.179  0.7083  2.0240 -1.9787
  632MOL0     H87148   1.767   7.722   8.953  0.3149 -2.9573  0.4293
  632MOL0     H87149   1.637   7.643   8.726  2.8821  0.4155  0.5070
  632MOL0     H87150   1.705   7.804   8.766 -0.8501  1.6932 -0.1258
  632MOL0     H87151   1.501   7.713   8.569  1.9058 -1.0435  0.7702
  632MOL0     H87152   1.512   7.883   8.602 -1.3151  0.2482 -0.9062
  632MOL0     H87153   1.671   7.874   8.432 -2.2033  1.4158  1.5524
  632MOL0     H87154   1.787   7.800   8.551 -1.3681  0.3545  1.6534
  632MOL0     H87155   1.701   7.576   8.450  1.1717  0.6115  2.0020
  632MOL0     H87156   1.599   7.658   8.341  0.5580 -0.4121  0.5217
  632MOL0     H87157   1.791   7.778   8.244 -1.7345 -1.1309 -2.8349
  632MOL0     H87158   1.780   7.612   8.217  1.1752  1.8141 -1.6371
  632MOL0     H87159   1.964   7.726   8.426 -1.1387  0.5708  1.1021
  632MOL0     H87160   1.935   7.563   8.414 -0.3625 -0.1427 -1.5159
  632MOL0     H87161   2.052   7.732   8.179  0.2771 -1.3079 -0.6843
  632MOL0     H87162   2.001   7.556   8.172 -0.4589  0.7526 -0.6775
  632MOL0     H87163   2.172   7.506   8.361 -0.2156  0.8738  1.3556
  632MOL0     H87164   2.230   7.557   8.195 -0.6379  2.7488 -1.6883
  632MOL0     H87165   2.328   7.826   8.191  0.4170 -0.1965 -0.4736
  632MOL0     H87166   2.505   8.016   8.322 -2.9180  0.3924  3.3593
  632MOL0     H87167   2.618   7.876   8.312  0.1631  0.5659 -2.1639
  632MOL0     H87168   2.510   8.014   8.564  0.4273 -1.1060 -0.0725
  632MOL0     H87169   2.625   7.890   8.572 -1.5906 -0.1101  0.5216
  632MOL0     H87170   2.794   8.032   8.447 -0.7077  1.1832 -1.8473
  632MOL0     H87171   2.678   8.158   8.427 -0.1783 -0.8746 -1.4129
  632MOL0     H87172   2.650   8.108   8.702 -1.1565 -4.7058 -1.9094
  632MOL0     H87173   2.807   8.041   8.671  0.9939  0.1182 -1.0185
  632MOL0     H87174   2.793   8.180   8.901  0.0266 -0.1382 -0.2562
  632MOL0     H87175   2.912   8.343   9.184 -2.3430 -1.4605  0.0350
  632MOL0     H87176   3.012   8.194   9.154  0.1331  1.3061  3.2909
  632MOL0     H87177   2.831   8.208   9.121  0.1410  0.2186 -2.1737
  632MOL0     H87178   3.438   8.389   9.099 -2.8132  0.5222 -1.3954
  632MOL0     H87179   3.599   8.472   9.285  0.3768  0.5036 -0.6044
  632MOL0     H87180   3.575   8.928   9.333 -1.1298  1.2447  2.9133
  632MOL0     H87181   3.639   8.899   9.481  1.9566  1.0355 -0.5197
  632MOL0     H87182   3.793   8.810   9.225  0.7675  1.4795 -1.5766
  632MOL0     H87183   3.787   8.978   9.263  2.4809  0.0821  0.2172
  632MOL0     H87184   3.895   8.763   9.459  2.6618 -0.5534 -0.3386
  632MOL0     H87185   3.902   8.943   9.471 -0.2472 -0.2534  0.7793
  632MOL0     H87186   4.057   8.964   9.315  1.4770  0.2772  1.1327
  632MOL0     H87187   4.000   8.812   9.227 -0.2903 -1.1849  0.9128
  632MOL0     H87188   4.102   8.668   9.384  0.9347 -0.5370  0.3447
  632MOL0     H87189   4.227   8.776   9.297 -1.6436  1.0629 -2.5955
  632MOL0     H87190   4.269   8.722   9.528  0.4573  1.5088  2.3200
  632MOL0     H87191   4.123   8.806   9.576 -2.1651  3.9371 -1.7808
  632MOL0     H87192   4.233   9.017   9.452  0.8456 -0.6660 -0.3650
  632MOL0     H87193   4.367   8.914   9.415  0.1850  0.2998  0.7927
  632MOL0     H87194   4.422   9.052   9.597 -0.5367 -1.1448 -3.4079
  632MOL0     H87195   4.406   8.882   9.662  2.2366 -0.0982 -2.9274
  632MOL0     H87196   3.410   8.859   9.243 -3.5134 -1.4177 -1.2306
  632MOL0     H87197   3.276   8.776   9.071 -0.2418  1.5071  2.3396
  632MOL0     H87198   3.132   8.517   8.786  0.6109  1.0071  3.1378
  632MOL0     H87199   2.964   8.425   8.616 -0.8460  1.9910  0.8615
  632MOL0     H87200   1.348   7.734   9.029  1.7152  0.3847 -2.2014
  632MOL0     H87201   1.384   7.660   9.256  0.3019 -0.1560 -0.0163
  632MOL0     H87202   1.442   7.446   9.686 -0.5356 -1.1020  0.7577
  632MOL0     H87203   1.539   7.422   9.914 -0.6487  0.7606  0.5173
  632MOL0     H87204   1.659   7.309  10.070  0.8441 -2.2445  1.6648
  632MOL0     H87205   1.820   7.333  10.145  2.5378  4.6633  0.1645
  632MOL0     H87206   1.626   7.558  10.150 -1.8006 -0.5823  0.4254
  632MOL0     H87207   1.755   7.544  10.244  2.6120 -1.1100 -2.4183
  632MOL0     H87208   1.539   7.317  10.274  0.8680 -0.3899  1.3189
  632MOL0     H87209   1.675   7.361  10.368  1.5884  1.7998 -0.6921
  632MOL0     H87210   1.565   7.586  10.423  0.6664 -1.4860  0.6495
  632MOL0     H87211   1.468   7.439  10.474  2.1776 -0.2941  1.2843
  632MOL0     H87212   1.246   7.647  10.162  2.3931  3.0379  0.3170
  632MOL0     H87213   1.928   7.534   9.755  0.2885  2.5365  1.2217
  632MOL0     H87214   1.871   7.556   9.436 -0.2054  0.7078 -1.7028
  632MOL0     H87215   1.830   7.711   9.518 -3.4385 -2.4617 -0.4851
  632MOL0     H87216   1.970   7.612   9.565 -0.1884  0.5155  0.7575
  633MOL0     O87217  10.210   0.759   2.883  0.7433 -0.0914  0.2694
  633MOL0     C87218  10.144   0.794   2.977  0.6784  0.0736 -1.2267
  633MOL0     O87219  10.181   0.881   3.082 -0.2127  0.4265 -0.2943
  633MOL0     C87220  10.306   0.936   3.070 -0.7245 -0.1415  0.0732
  633MOL0     C87221  10.404   0.902   3.166 -0.2754  1.3204 -0.6023
  633MOL0     C87222  10.535   0.949   3.162 -1.2673  0.6062 -0.1547
  633MOL0     C87223  10.578   1.026   3.054  0.3927  0.0106 -0.3742
  633MOL0     O87224  10.700   1.064   3.031 -0.9243 -0.2784 -0.5940
  633MOL0     C87225  10.804   0.960   3.034 -0.2337 -0.7061  0.0449
  633MOL0     C87226  10.941   1.024   2.986  0.0467 -0.4816  0.1059
  633MOL0     C87227  11.046   0.911   2.980  0.0809  0.3326 -0.2491
  633MOL0     C87228  11.077   0.889   2.831  1.0198 -0.2339  0.7805
  633MOL0     C87229  11.211   0.809   2.812 -0.2102  0.1179  0.3744
  633MOL0     C87230  11.342   0.895   2.833  0.2121  0.4237  0.2892
  633MOL0     C87231  11.465   0.819   2.792  0.8284 -0.2316  0.0374
  633MOL0     C87232  11.588   0.896   2.837 -0.0318 -0.5806  0.2629
  633MOL0     N87233  11.706   0.840   2.772 -0.4024 -0.1197 -0.6879
  633MOL0     C87234  11.769   0.726   2.826  0.1989  0.3292 -0.1655
  633MOL0     C87235  11.878   0.708   2.746  0.7253  0.9186 -0.3629
  633MOL0     C87236  11.982   0.601   2.757  0.2225 -1.1192 -0.2095
  633MOL0     C87237  12.130   0.664   2.785  0.1193 -0.1360 -0.1122
  633MOL0     C87238  12.143   0.755   2.921 -0.3664 -0.6945  0.0572
  633MOL0     C87239  12.288   0.802   2.933  0.0869 -0.6624 -0.0132
  633MOL0     O87240  12.358   0.690   2.973  0.2247 -0.2106  0.3196
  633MOL0     C87241  12.475   0.656   2.908  0.1979 -0.8092 -0.2423
  633MOL0     C87242  12.505   0.521   2.906 -0.3873  0.1040  0.9510
  633MOL0     C87243  12.611   0.473   2.837 -0.1414  0.5120  0.6422
  633MOL0     C87244  12.624   0.325   2.826 -0.5147 -0.5494  0.5147
  633MOL0     C87245  12.706   0.562   2.782  0.3574  0.2068  0.0444
  633MOL0     C87246  12.835   0.524   2.723 -0.5380 -0.3468 -0.1442
  633MOL0     O87247  12.904   0.609   2.647 -1.1816 -0.0004  0.3133
  633MOL0     C87248  13.007   0.569   2.565 -0.3375 -1.1599 -0.2154
  633MOL0     C87249  13.035   0.442   2.521 -0.1747 -0.6123  0.6244
  633MOL0     C87250  13.144   0.435   2.430 -0.0832  0.2207  0.3717
  633MOL0     C87251  13.214   0.545   2.380 -0.6813  0.1061 -0.4526
  633MOL0     O87252  13.315   0.544   2.286  0.4780 -0.2196 -0.9534
  633MOL0     C87253  13.386   0.431   2.267 -0.0334  0.2316 -0.7537
  633MOL0     C87254  13.497   0.455   2.172 -0.3274 -0.0136 -0.2807
  633MOL0     C87255  13.628   0.477   2.257  0.7128  0.4747  0.5116
  633MOL0     C87256  13.759   0.496   2.179 -0.3488  0.6628  0.3777
  633MOL0     C87257  13.871   0.512   2.277  1.3735  0.8069  0.2850
  633MOL0     C87258  13.932   0.376   2.334  0.6248 -0.6938  0.3975
  633MOL0     C87259  14.042   0.414   2.432  0.0938 -0.1139  0.6017
  633MOL0     C87260  14.116   0.286   2.479  0.5250 -0.2113 -0.5807
  633MOL0    Cl87261  14.199   0.288   2.646  0.4020 -0.0356  0.1170
  633MOL0     C87262  13.187   0.671   2.432  0.1397  0.3777 -0.4365
  633MOL0     C87263  13.083   0.682   2.524 -0.1957  0.8484  1.1843
  633MOL0     O87264  12.881   0.415   2.763  0.5399 -0.1898  0.3082
  633MOL0     C87265  12.679   0.700   2.784  0.0392  0.3529  0.5571
  633MOL0     C87266  12.561   0.744   2.843 -0.4209 -0.4936 -0.0145
  633MOL0     N87267  11.878   0.803   2.648  0.4382 -0.2974 -0.2182
  633MOL0     N87268  11.775   0.884   2.660 -0.3415  1.0179 -0.5393
  633MOL0     C87269  10.477   1.060   2.960 -0.5450 -0.0965  0.4777
  633MOL0     C87270  10.347   1.028   2.964  0.0784  0.3380 -0.2447
  633MOL0     C87271   9.999   0.757   2.988 -0.0204 -0.4939 -0.6577
  633MOL0     C87272   9.917   0.869   2.996 -0.0809  0.5460  0.8963
  633MOL0     C87273   9.781   0.859   2.996  0.1822  0.5112  0.1635
  633MOL0     C87274   9.723   0.737   2.985 -0.5660  0.7867 -0.1088
  633MOL0     O87275   9.590   0.703   3.018  0.4345 -0.6656 -0.3154
  633MOL0     C87276   9.487   0.798   2.985  1.4100  0.1302 -0.0807
  633MOL0     C87277   9.349   0.727   2.954 -0.1850 -1.2088  0.4134
  633MOL0     C87278   9.269   0.664   3.071 -0.8193 -0.0475 -0.0301
  633MOL0     C87279   9.197   0.749   3.171  0.2277  0.2055 -0.6446
  633MOL0     C87280   9.273   0.788   3.286 -0.0296  0.2942 -0.4467
  633MOL0     C87281   9.349   0.823   3.375 -1.5700  0.0978 -0.1745
  633MOL0     C87282   9.800   0.621   2.977  0.3504  0.1180 -0.6623
  633MOL0     C87283   9.935   0.627   2.970  0.0420 -0.1408  0.6901
  633MOL0     C87284  10.010   0.501   2.958 -0.0852 -0.9126 -0.4047
  633MOL0     H87285  10.379   0.823   3.237  3.7680  1.5287  1.3737
  633MOL0     H87286  10.600   0.923   3.245  0.7889  0.0165 -1.8775
  633MOL0     H87287  10.786   0.872   2.972  1.7093 -0.4531 -0.9491
  633MOL0     H87288  10.819   0.922   3.136  1.7160 -1.7962 -0.6025
  633MOL0     H87289  10.926   1.069   2.887 -0.5529  1.1632  0.9118
  633MOL0     H87290  10.968   1.098   3.061 -1.8541 -0.5469  0.9148
  633MOL0     H87291  11.140   0.935   3.031 -0.4873  2.1563 -0.0031
  633MOL0     H87292  11.021   0.816   3.028 -0.7163  1.1480  0.9875
  633MOL0     H87293  10.990   0.843   2.783 -0.5893  2.7285  0.6428
  633MOL0     H87294  11.085   0.988   2.785 -3.0017  0.8127  1.9592
  633MOL0     H87295  11.217   0.772   2.709  1.9244  1.6383 -0.1134
  633MOL0     H87296  11.219   0.723   2.879  3.5766  0.7131  0.9259
  633MOL0     H87297  11.339   0.978   2.763 -0.1314 -0.9469 -1.3905
  633MOL0     H87298  11.353   0.931   2.936 -0.3617  2.4279 -0.3204
  633MOL0     H87299  11.454   0.812   2.683  1.6711 -1.4931  0.0224
  633MOL0     H87300  11.466   0.724   2.845  1.4184 -0.5034 -0.4467
  633MOL0     H87301  11.580   1.003   2.816  1.2908 -0.5349 -0.0850
  633MOL0     H87302  11.601   0.891   2.945  2.0605 -2.0329  0.0108
  633MOL0     H87303  11.749   0.670   2.917 -1.4654  0.1057 -0.6443
  633MOL0     H87304  11.981   0.543   2.664  2.4219 -1.8893  0.1855
  633MOL0     H87305  11.936   0.546   2.839 -2.3392 -0.2935 -0.9746
  633MOL0     H87306  12.199   0.580   2.794 -1.4159 -1.5595 -0.9746
  633MOL0     H87307  12.160   0.727   2.701  0.2629  0.4159  0.3413
  633MOL0     H87308  12.063   0.828   2.908  0.4009 -0.0016 -0.8660
  633MOL0     H87309  12.109   0.692   3.004 -0.6013  1.7997  1.9702
  633MOL0     H87310  12.316   0.844   2.836  0.4335  0.7687  0.6859
  633MOL0     H87311  12.296   0.886   3.003  0.8605  0.1788 -1.0831
  633MOL0     H87312  12.444   0.455   2.968 -1.6308  0.7661  0.4741
  633MOL0     H87313  12.687   0.283   2.904  2.2673  0.1643 -1.2255
  633MOL0     H87314  12.674   0.300   2.732 -1.7065 -0.8556 -0.0667
  633MOL0     H87315  12.526   0.275   2.823 -0.5823 -0.3901 -0.0435
  633MOL0     H87316  12.977   0.354   2.546 -3.2428  0.4669 -2.0244
  633MOL0     H87317  13.177   0.336   2.402 -0.2801  0.1890  0.2549
  633MOL0     H87318  13.421   0.388   2.361 -0.1843 -0.1310 -0.8606
  633MOL0     H87319  13.320   0.353   2.227 -0.1487  1.3680 -2.9494
  633MOL0     H87320  13.514   0.367   2.109  4.4243 -0.6518  1.4175
  633MOL0     H87321  13.480   0.539   2.105 -2.2269 -0.7688 -0.7864
  633MOL0     H87322  13.631   0.391   2.325 -0.3465 -0.6509 -0.8027
  633MOL0     H87323  13.609   0.568   2.314  0.4936 -0.4514  1.9631
  633MOL0     H87324  13.753   0.581   2.111  2.0289  0.6744  0.0865
  633MOL0     H87325  13.786   0.406   2.123  0.2389  1.2612 -0.3152
  633MOL0     H87326  13.951   0.562   2.221  1.2944  0.6256  0.0065
  633MOL0     H87327  13.842   0.574   2.362 -0.0908  1.7661 -0.8517
  633MOL0     H87328  13.979   0.311   2.259 -0.4445 -0.6922 -0.2828
  633MOL0     H87329  13.863   0.313   2.391  1.6541 -0.2990  2.1388
  633MOL0     H87330  14.001   0.464   2.520  1.8389 -0.0862  1.4460
  633MOL0     H87331  14.115   0.485   2.392  0.2698 -1.7094 -2.1377
  633MOL0     H87332  14.197   0.271   2.407  1.6656  0.0267  0.6165
  633MOL0     H87333  14.045   0.203   2.470 -2.6712  2.2268  0.5173
  633MOL0     H87334  13.235   0.765   2.410 -1.4081  1.8401  1.9650
  633MOL0     H87335  13.059   0.777   2.570 -0.8167  1.1027  0.3730
  633MOL0     H87336  12.752   0.768   2.740 -0.3932 -0.1989 -1.0793
  633MOL0     H87337  12.552   0.851   2.853 -0.4349 -0.6691  2.5114
  633MOL0     H87338  10.498   1.121   2.873 -3.6936  1.2437  0.5531
  633MOL0     H87339  10.276   1.056   2.887 -0.5019 -2.8462 -1.0210
  633MOL0     H87340   9.971   0.963   2.983 -1.0850  0.7700 -2.4592
  633MOL0     H87341   9.734   0.954   3.021  1.9589  0.7638  2.9250
  633MOL0     H87342   9.473   0.862   3.073  2.1135  0.7037 -0.3875
  633MOL0     H87343   9.527   0.863   2.908  1.6699  0.3718  0.2560
  633MOL0     H87344   9.369   0.658   2.872 -1.2709  1.2936 -2.1285
  633MOL0     H87345   9.281   0.809   2.928 -0.7170 -1.5873  0.5915
  633MOL0     H87346   9.197   0.598   3.021 -1.0929  2.2038 -2.9205
  633MOL0     H87347   9.340   0.606   3.131 -1.5581 -1.1241 -0.1638
  633MOL0     H87348   9.114   0.689   3.210  1.3360 -1.4049 -0.7069
  633MOL0     H87349   9.142   0.833   3.127  0.5905  0.3847 -0.7565
  633MOL0     H87350   9.419   0.865   3.444 -0.7822 -0.1053 -0.8374
  633MOL0     H87351   9.758   0.522   2.964 -1.1888  0.5403  0.7479
  633MOL0     H87352   9.974   0.413   3.013 -4.0693 -0.7913 -2.4709
  633MOL0     H87353  10.002   0.472   2.853  0.2685 -0.4934 -0.5455
  633MOL0     H87354  10.112   0.529   2.987 -0.4482  0.2598 -0.2170
  634MOL0     O87355   0.208   8.716   7.239  0.8562 -1.0637 -0.1785
  634MOL0     C87356   0.105   8.776   7.271 -0.6371  0.2402  0.0233
  634MOL0     O87357   0.073   8.902   7.222  0.1154  0.2954  0.0435
  634MOL0     C87358   0.143   8.960   7.120 -0.1973  0.4030 -0.3128
  634MOL0     C87359   0.149   8.910   6.992 -0.3843 -0.0501  0.8347
  634MOL0     C87360   0.233   8.972   6.898  0.4470 -0.3483  0.5555
  634MOL0     C87361   0.298   9.089   6.918 -0.8921 -0.3115  0.0341
  634MOL0     O87362   0.385   9.148   6.828  0.1474  0.5739 -0.3161
  634MOL0     C87363   0.444   9.048   6.740  0.2623 -0.1204 -0.3603
  634MOL0     C87364   0.555   9.120   6.666  0.2522 -0.8361  0.2687
  634MOL0     C87365   0.634   9.032   6.571 -0.4130  0.0745 -0.0838
  634MOL0     C87366   0.745   9.106   6.495  0.0857 -0.1658 -0.6266
  634MOL0     C87367   0.794   9.024   6.375 -0.5357 -0.8807 -0.3669
  634MOL0     C87368   0.856   8.893   6.397 -1.1822 -0.0004  0.3627
  634MOL0     C87369   0.925   8.839   6.269 -0.5527  0.7307 -0.2587
  634MOL0     C87370   0.988   8.693   6.265  0.1049 -1.1330  0.1235
  634MOL0     N87371   1.080   8.678   6.157 -0.4082 -0.6873  0.0624
  634MOL0     C87372   1.036   8.678   6.028 -0.4461 -0.5325  0.8754
  634MOL0     C87373   1.150   8.666   5.953  0.6021  0.7885  0.6413
  634MOL0     C87374   1.149   8.639   5.803  0.5063 -0.2001 -0.6998
  634MOL0     C87375   1.072   8.739   5.714 -1.0032 -0.2034 -0.2935
  634MOL0     C87376   0.922   8.687   5.701 -0.9340  0.5932 -1.0350
  634MOL0     C87377   0.846   8.768   5.606 -0.1284  0.9088  0.5075
  634MOL0     O87378   0.855   8.912   5.622  1.2142 -0.5747  0.0748
  634MOL0     C87379   0.777   9.002   5.553  0.6876 -0.0115 -0.5213
  634MOL0     C87380   0.790   9.136   5.596  0.0773 -0.2075  0.0173
  634MOL0     C87381   0.710   9.241   5.538 -0.2301 -0.3882 -0.2343
  634MOL0     C87382   0.718   9.374   5.619 -0.4147  0.1763  0.1594
  634MOL0     C87383   0.629   9.205   5.429  0.3636  0.2250  0.0587
  634MOL0     C87384   0.550   9.312   5.350 -0.1588  0.4197 -0.6430
  634MOL0     O87385   0.473   9.268   5.251  0.3719  0.1185 -0.5095
  634MOL0     C87386   0.352   9.313   5.205 -0.2168 -0.1159  0.1453
  634MOL0     C87387   0.291   9.230   5.107 -0.9193 -0.5997  0.3531
  634MOL0     C87388   0.171   9.272   5.043  0.5107 -0.0686 -0.0774
  634MOL0     C87389   0.096   9.382   5.104 -0.5088  0.0744 -0.4018
  634MOL0     O87390  -0.031   9.399   5.064 -0.3596  0.2704  0.8839
  634MOL0     C87391  -0.066   9.532   5.044 -0.8188  0.3713 -0.6259
  634MOL0     C87392  -0.190   9.542   4.964  0.4974  0.2478  0.1804
  634MOL0     C87393  -0.307   9.466   5.021  0.9055 -0.7253  0.7467
  634MOL0     C87394  -0.347   9.342   4.943  0.6504  0.5852 -0.1885
  634MOL0     C87395  -0.489   9.293   4.967  0.4425 -0.2915 -0.1181
  634MOL0     C87396  -0.517   9.155   4.908  0.0433  0.7982 -0.0049
  634MOL0     C87397  -0.644   9.093   4.968  0.3901  0.1407  0.3503
  634MOL0     C87398  -0.698   8.985   4.881 -1.6053  0.6405  0.3081
  634MOL0    Cl87399  -0.560   8.877   4.872 -0.6409 -0.6320 -0.3027
  634MOL0     C87400   0.159   9.457   5.196 -0.0300  0.0263  0.6014
  634MOL0     C87401   0.286   9.426   5.245  0.6107 -0.4385  0.0968
  634MOL0     O87402   0.564   9.425   5.387 -0.6218 -0.2662  1.0343
  634MOL0     C87403   0.600   9.068   5.394 -0.3083 -0.3804  0.3077
  634MOL0     C87404   0.676   8.965   5.454 -0.4376  0.2031  0.3223
  634MOL0     N87405   1.247   8.656   6.042 -0.1332 -0.5140  0.7676
  634MOL0     N87406   1.213   8.663   6.162  0.8969  0.6717  0.1353
  634MOL0     C87407   0.283   9.150   7.050 -0.3595  0.0566  0.6766
  634MOL0     C87408   0.210   9.072   7.147  0.4749  0.8628 -0.3443
  634MOL0     C87409   0.012   8.717   7.384 -0.4005 -0.2971  0.1006
  634MOL0     C87410  -0.105   8.787   7.415 -0.3730  0.5668  0.0302
  634MOL0     C87411  -0.189   8.752   7.519  0.4000  0.4658 -0.1980
  634MOL0     C87412  -0.158   8.641   7.601 -0.1334  0.2662 -0.5260
  634MOL0     O87413  -0.233   8.598   7.706 -0.4549 -0.8177 -0.3881
  634MOL0     C87414  -0.375   8.622   7.721 -0.1417 -0.5325 -0.1000
  634MOL0     C87415  -0.447   8.533   7.626  0.9597  0.0668  0.0613
  634MOL0     C87416  -0.570   8.607   7.571  0.1106  0.2025  0.5195
  634MOL0     C87417  -0.698   8.511   7.586 -0.6456  0.5685  1.3991
  634MOL0     C87418  -0.734   8.500   7.725 -0.6638  0.0952  1.0133
  634MOL0     C87419  -0.769   8.502   7.845  0.0759 -0.6196  0.7732
  634MOL0     C87420  -0.038   8.571   7.584  1.0360  0.1463 -0.0012
  634MOL0     C87421   0.054   8.623   7.484 -0.1323  0.1035  0.0100
  634MOL0     C87422   0.186   8.554   7.487 -0.0730 -0.1034  0.1757
  634MOL0     H87423   0.098   8.818   6.965  1.5405 -1.5213  2.0127
  634MOL0     H87424   0.242   8.916   6.805 -0.9832  2.0853 -1.1281
  634MOL0     H87425   0.371   9.004   6.671  0.8463 -1.1921 -0.3134
  634MOL0     H87426   0.475   8.967   6.806  1.4509  0.8212  0.2681
  634MOL0     H87427   0.508   9.200   6.608 -1.8359 -1.8241  0.5058
  634MOL0     H87428   0.620   9.162   6.743  0.2949 -1.4624  0.5828
  634MOL0     H87429   0.686   8.954   6.628 -0.3324  0.1765 -0.0155
  634MOL0     H87430   0.561   8.994   6.500  0.4552 -1.1292 -0.3655
  634MOL0     H87431   0.709   9.205   6.464  1.8567  0.3863 -1.0213
  634MOL0     H87432   0.828   9.121   6.565  0.1330  2.0250 -1.0744
  634MOL0     H87433   0.866   9.091   6.326 -1.3275  2.3667  2.4494
  634MOL0     H87434   0.712   9.011   6.305  1.0564 -0.2735 -2.4415
  634MOL0     H87435   0.923   8.896   6.484 -0.6475  1.5461 -0.0760
  634MOL0     H87436   0.779   8.823   6.431 -1.6345 -0.2277 -1.0449
  634MOL0     H87437   1.008   8.908   6.251  2.5513 -2.3970  0.9376
  634MOL0     H87438   0.852   8.856   6.189 -2.0054 -0.2197  0.7961
  634MOL0     H87439   1.042   8.684   6.360  0.6198 -0.3820 -0.0940
  634MOL0     H87440   0.905   8.623   6.270 -1.6392  0.8331 -0.1669
  634MOL0     H87441   0.936   8.680   5.988 -1.0634 -0.0745  2.3860
  634MOL0     H87442   1.105   8.540   5.792  0.4775 -0.4439  1.1568
  634MOL0     H87443   1.251   8.632   5.764  0.5598 -1.3286 -0.4037
  634MOL0     H87444   1.075   8.843   5.745 -3.3817 -0.5286  1.2569
  634MOL0     H87445   1.120   8.722   5.617  1.3940 -3.2876  1.2634
  634MOL0     H87446   0.923   8.586   5.660 -0.6276  0.0496  0.2653
  634MOL0     H87447   0.860   8.678   5.791 -1.0219 -0.4721 -1.1949
  634MOL0     H87448   0.893   8.745   5.510  3.4351  3.5250  1.4096
  634MOL0     H87449   0.746   8.725   5.605  0.7395 -1.5445 -3.2646
  634MOL0     H87450   0.865   9.146   5.674  1.7376 -2.7840 -1.0946
  634MOL0     H87451   0.787   9.376   5.704  0.5890  0.2809 -0.6368
  634MOL0     H87452   0.617   9.401   5.651 -0.2510  0.4249  0.4730
  634MOL0     H87453   0.753   9.451   5.550 -2.4604  0.6833 -0.3653
  634MOL0     H87454   0.343   9.151   5.053  3.1340  1.9431  0.1425
  634MOL0     H87455   0.128   9.220   4.958  0.6433  2.3590 -1.7410
  634MOL0     H87456  -0.095   9.583   5.137 -4.2861  0.7555 -1.7674
  634MOL0     H87457   0.004   9.602   4.997 -2.4522  4.5182  2.4345
  634MOL0     H87458  -0.218   9.648   4.971  0.1641  0.0521  2.5225
  634MOL0     H87459  -0.168   9.510   4.862  2.8219  1.2899  0.2758
  634MOL0     H87460  -0.392   9.535   5.013  0.2842 -1.6962 -1.9353
  634MOL0     H87461  -0.277   9.443   5.124 -2.6395 -2.0102  1.6162
  634MOL0     H87462  -0.278   9.265   4.978  1.2195  0.9849 -0.3960
  634MOL0     H87463  -0.329   9.361   4.837  1.4008 -1.2973 -0.4269
  634MOL0     H87464  -0.512   9.310   5.072  0.8439  0.0262 -0.0773
  634MOL0     H87465  -0.558   9.360   4.915  1.3036  1.9274  1.4527
  634MOL0     H87466  -0.428   9.092   4.918  1.3580  1.8166 -3.5686
  634MOL0     H87467  -0.536   9.167   4.801 -2.2395  1.0234  0.3842
  634MOL0     H87468  -0.718   9.173   4.976  1.5614  1.3253 -0.2564
  634MOL0     H87469  -0.631   9.059   5.072  0.1312 -1.0266  0.0174
  634MOL0     H87470  -0.719   9.021   4.780 -0.8889 -2.6585 -1.1600
  634MOL0     H87471  -0.787   8.944   4.929 -1.1872  1.0353  1.4392
  634MOL0     H87472   0.101   9.538   5.241 -1.3566  0.1157 -1.1952
  634MOL0     H87473   0.327   9.503   5.309 -0.5082  0.8694 -0.7249
  634MOL0     H87474   0.538   9.044   5.308  2.2013  1.3160 -2.1179
  634MOL0     H87475   0.669   8.865   5.412  3.3862  0.8291 -2.2871
  634MOL0     H87476   0.332   9.238   7.091 -1.2749  0.9162 -0.0145
  634MOL0     H87477   0.217   9.109   7.248  1.9024 -2.3781  0.9036
  634MOL0     H87478  -0.130   8.870   7.349  2.4663 -0.3814 -2.4837
  634MOL0     H87479  -0.271   8.821   7.530 -0.1026  0.0162 -0.9951
  634MOL0     H87480  -0.412   8.608   7.823 -0.1606  2.8264  0.4514
  634MOL0     H87481  -0.398   8.727   7.705 -0.9375 -0.6331  0.3182
  634MOL0     H87482  -0.470   8.441   7.681 -2.0362  1.8491  2.0729
  634MOL0     H87483  -0.388   8.505   7.538 -1.6105 -1.4859 -1.3024
  634MOL0     H87484  -0.591   8.700   7.625  0.4762  0.9303 -0.5610
  634MOL0     H87485  -0.561   8.626   7.464  0.3997 -1.8061  0.1375
  634MOL0     H87486  -0.673   8.415   7.539 -0.1542  1.9025 -1.2704
  634MOL0     H87487  -0.784   8.557   7.537  1.4870  3.0323 -0.2660
  634MOL0     H87488  -0.805   8.509   7.946 -1.3283  3.0908  0.1928
  634MOL0     H87489  -0.022   8.490   7.653  1.1960 -0.3242 -0.5776
  634MOL0     H87490   0.210   8.499   7.396  0.1937  0.4462 -0.0904
  634MOL0     H87491   0.261   8.632   7.503 -0.9989  0.5158  1.8163
  634MOL0     H87492   0.181   8.486   7.572 -0.3201 -1.0153 -0.5544
  635MOL0     O87493  10.113   8.875   4.596  0.4008  0.5933  0.7569
  635MOL0     C87494  10.108   8.760   4.641 -0.1437 -0.7913 -0.1317
  635MOL0     O87495  10.211   8.677   4.654 -0.3469 -0.1262 -0.4596
  635MOL0     C87496  10.318   8.699   4.569  0.3689  0.0321  0.3908
  635MOL0     C87497  10.307   8.721   4.431  0.3954 -0.1033  0.6718
  635MOL0     C87498  10.416   8.730   4.355 -0.0442  0.7703  0.0503
  635MOL0     C87499  10.546   8.700   4.408 -0.2439 -0.0419  0.3221
  635MOL0     O87500  10.665   8.723   4.338  0.9477 -0.3714 -0.3124
  635MOL0     C87501  10.675   8.666   4.202 -0.4637 -0.6688  0.0117
  635MOL0     C87502  10.816   8.706   4.146 -0.0907  0.1361  0.0939
  635MOL0     C87503  10.856   8.859   4.159 -0.3278 -1.3350  0.8735
  635MOL0     C87504  10.937   8.904   4.027  0.3327 -0.4189  0.4886
  635MOL0     C87505  11.084   8.852   4.025 -0.9238  0.0014 -0.1426
  635MOL0     C87506  11.162   8.929   4.121  0.0467  0.1806 -0.0991
  635MOL0     C87507  11.287   8.856   4.171 -0.3579  0.4923 -0.5815
  635MOL0     C87508  11.386   8.826   4.047  0.8564  0.5051  0.0534
  635MOL0     N87509  11.521   8.777   4.088  0.0307  0.5996 -0.0496
  635MOL0     C87510  11.571   8.772   4.219 -0.2032 -0.0039 -0.1748
  635MOL0     C87511  11.683   8.706   4.202 -0.3601  0.4762 -0.0162
  635MOL0     C87512  11.776   8.677   4.321 -0.5512 -0.1760  0.1606
  635MOL0     C87513  11.899   8.764   4.311 -0.5156  0.7575 -0.3729
  635MOL0     C87514  11.996   8.728   4.416  0.5591 -0.6883 -0.5576
  635MOL0     C87515  12.133   8.788   4.404 -0.3028  0.8694 -0.2889
  635MOL0     O87516  12.136   8.927   4.414 -0.0872  0.5328  1.0248
  635MOL0     C87517  12.186   8.969   4.535  0.8102 -0.2465 -0.1974
  635MOL0     C87518  12.106   8.971   4.650 -0.2638 -0.2692  0.2938
  635MOL0     C87519  12.142   9.014   4.773  0.2705  0.9931  0.2839
  635MOL0     C87520  12.034   9.037   4.879 -0.3392  0.2228 -0.4280
  635MOL0     C87521  12.276   9.052   4.786  0.7264 -0.5000 -0.8786
  635MOL0     C87522  12.329   9.096   4.914 -1.0462  0.4686  0.0854
  635MOL0     O87523  12.291   9.039   5.036 -0.2425  0.1881  0.8016
  635MOL0     C87524  12.354   9.088   5.143  0.2050 -0.0235  0.3501
  635MOL0     C87525  12.453   9.016   5.206  0.4746  0.1066 -0.5390
  635MOL0     C87526  12.517   9.055   5.326 -0.0971 -1.2712 -0.1832
  635MOL0     C87527  12.482   9.178   5.388 -0.2521 -0.6540  0.0133
  635MOL0     O87528  12.529   9.193   5.522  0.3444  0.2239 -0.5010
  635MOL0     C87529  12.515   9.324   5.565  0.1445 -0.3287 -0.0297
  635MOL0     C87530  12.588   9.326   5.701 -0.3756 -0.1176 -0.1942
  635MOL0     C87531  12.723   9.261   5.709  0.3323 -0.7938  0.1464
  635MOL0     C87532  12.821   9.307   5.601  0.0896 -0.9725 -0.5043
  635MOL0     C87533  12.960   9.272   5.643  0.7446 -0.4162 -0.5278
  635MOL0     C87534  13.060   9.276   5.523 -0.3210 -0.3122 -0.3963
  635MOL0     C87535  13.207   9.260   5.578 -0.2741  0.1610 -0.6707
  635MOL0     C87536  13.310   9.232   5.471 -0.2437  0.1254 -0.1537
  635MOL0    Cl87537  13.467   9.201   5.554  0.2191 -0.2391  0.1325
  635MOL0     C87538  12.372   9.252   5.324 -0.0519  0.2391 -0.5908
  635MOL0     C87539  12.319   9.202   5.209  0.5631 -0.3494 -0.2619
  635MOL0     O87540  12.408   9.191   4.901  0.2662 -0.6521 -0.5488
  635MOL0     C87541  12.358   9.052   4.679 -0.1389  0.2424  1.0408
  635MOL0     C87542  12.315   9.019   4.551 -0.1392 -0.5172  0.3851
  635MOL0     N87543  11.706   8.671   4.072 -0.0683 -0.1225 -0.2417
  635MOL0     N87544  11.607   8.712   4.000  0.0773 -0.1300  0.3387
  635MOL0     C87545  10.547   8.676   4.542  0.4437 -0.3203 -0.5503
  635MOL0     C87546  10.444   8.683   4.626  0.7671 -0.5666 -0.0690
  635MOL0     C87547   9.982   8.704   4.691 -0.2142 -0.5205 -0.3632
  635MOL0     C87548  10.000   8.628   4.802 -0.2980  0.5014 -0.7422
  635MOL0     C87549   9.896   8.555   4.858  0.5745  0.3646 -0.4705
  635MOL0     C87550   9.768   8.567   4.814  0.1111 -0.0793  0.2924
  635MOL0     O87551   9.674   8.483   4.875 -0.9384 -0.6899 -0.3639
  635MOL0     C87552   9.536   8.509   4.853 -0.1751 -0.0277 -0.0306
  635MOL0     C87553   9.454   8.456   4.964  0.8932 -0.7671  0.2802
  635MOL0     C87554   9.481   8.309   4.983 -0.3072 -0.0215 -0.3701
  635MOL0     C87555   9.380   8.247   5.072 -0.0648  0.2062 -0.0194
  635MOL0     C87556   9.420   8.271   5.215 -0.1053 -0.6253 -0.6719
  635MOL0     C87557   9.469   8.289   5.326 -0.3346  0.3424 -0.1847
  635MOL0     C87558   9.744   8.647   4.696 -0.0866 -0.2320 -0.5102
  635MOL0     C87559   9.849   8.719   4.640  0.8871  0.4387 -0.5065
  635MOL0     C87560   9.814   8.799   4.515 -0.1331 -0.0541 -0.7868
  635MOL0     H87561  10.212   8.760   4.395  1.3513  2.1289  0.4623
  635MOL0     H87562  10.412   8.772   4.255 -1.3940 -1.9971 -1.1769
  635MOL0     H87563  10.599   8.704   4.133  0.6800  0.3416 -0.7562
  635MOL0     H87564  10.656   8.559   4.201  2.6505 -1.3331 -1.0936
  635MOL0     H87565  10.897   8.644   4.186 -2.1216 -2.3098  0.6275
  635MOL0     H87566  10.830   8.678   4.041  0.9501 -0.1401  0.2941
  635MOL0     H87567  10.769   8.924   4.172 -0.0437 -1.1223  1.8062
  635MOL0     H87568  10.920   8.885   4.244  0.8420 -1.5664  0.0824
  635MOL0     H87569  10.874   8.865   3.946  0.0366  1.0899 -0.0442
  635MOL0     H87570  10.942   9.012   4.013  0.0434 -0.5437 -0.6865
  635MOL0     H87571  11.131   8.859   3.926 -0.1671  0.3207  0.2321
  635MOL0     H87572  11.076   8.745   4.045 -0.9290  0.0259 -0.0092
  635MOL0     H87573  11.188   9.027   4.080  1.4495  0.1579  0.7062
  635MOL0     H87574  11.102   8.956   4.208 -2.0166 -2.1092 -0.6848
  635MOL0     H87575  11.262   8.768   4.232  2.1709  0.9218  1.2407
  635MOL0     H87576  11.335   8.925   4.240  1.4435 -1.1620 -0.0851
  635MOL0     H87577  11.346   8.750   3.980 -0.3832  2.7040 -1.8237
  635MOL0     H87578  11.405   8.916   3.988  2.3107  0.4196  0.3498
  635MOL0     H87579  11.516   8.803   4.307 -1.9296 -0.4843 -1.0359
  635MOL0     H87580  11.806   8.573   4.308  1.1346  0.3636 -0.5509
  635MOL0     H87581  11.736   8.702   4.420 -0.1982  4.4771 -0.6315
  635MOL0     H87582  11.950   8.743   4.217  1.2009  0.5715  0.5502
  635MOL0     H87583  11.864   8.868   4.320 -0.9181  0.4980  1.7188
  635MOL0     H87584  11.958   8.771   4.509  0.7770  1.2573 -1.3104
  635MOL0     H87585  12.014   8.620   4.417  0.1230 -0.8252  2.5000
  635MOL0     H87586  12.197   8.744   4.481  1.0202  1.7264 -0.8760
  635MOL0     H87587  12.184   8.755   4.313  0.9679 -1.7452  1.2471
  635MOL0     H87588  12.001   8.945   4.639  0.3152 -2.1702 -1.4461
  635MOL0     H87589  12.043   9.141   4.912 -0.5908  1.0393 -2.7551
  635MOL0     H87590  12.037   8.962   4.959  1.7600 -1.4774 -1.9729
  635MOL0     H87591  11.934   9.026   4.835  0.1340  0.1980 -1.5377
  635MOL0     H87592  12.480   8.924   5.154  0.6925  1.7250 -3.5151
  635MOL0     H87593  12.601   8.995   5.361  0.2045 -0.5844  0.2993
  635MOL0     H87594  12.558   9.393   5.492  0.0563 -0.6987 -0.4342
  635MOL0     H87595  12.408   9.346   5.576 -0.2408 -2.0029 -0.2631
  635MOL0     H87596  12.594   9.428   5.739 -2.4951  0.5484 -1.4400
  635MOL0     H87597  12.524   9.265   5.766  0.1282  0.2636  0.6679
  635MOL0     H87598  12.712   9.152   5.702 -0.9062 -0.5627 -3.1216
  635MOL0     H87599  12.767   9.274   5.809  0.3631 -1.5256  0.2400
  635MOL0     H87600  12.801   9.413   5.584  1.8431 -0.9544 -3.0558
  635MOL0     H87601  12.803   9.254   5.507  1.1735 -2.8580  0.2777
  635MOL0     H87602  12.993   9.334   5.727  0.9258 -0.3828 -0.6219
  635MOL0     H87603  12.962   9.172   5.687 -2.0909 -0.0171  0.6820
  635MOL0     H87604  13.048   9.376   5.480  2.5493  0.3184  0.0090
  635MOL0     H87605  13.032   9.199   5.451 -2.0702 -1.1646  1.1008
  635MOL0     H87606  13.204   9.176   5.647 -0.2427  0.6301 -0.0936
  635MOL0     H87607  13.235   9.347   5.637  1.1787 -1.2811  0.8582
  635MOL0     H87608  13.311   9.323   5.410  0.6843  1.2237  1.4196
  635MOL0     H87609  13.283   9.146   5.409 -1.3710  0.7461 -0.5549
  635MOL0     H87610  12.329   9.348   5.353 -1.7691 -0.6570 -0.0146
  635MOL0     H87611  12.237   9.259   5.167  0.6548 -0.6051 -0.7977
  635MOL0     H87612  12.461   9.081   4.696 -0.2572 -0.7972  4.0958
  635MOL0     H87613  12.377   9.034   4.464 -3.0706  1.3097 -1.5988
  635MOL0     H87614  10.642   8.666   4.595  0.0200 -0.5073  0.1961
  635MOL0     H87615  10.457   8.665   4.732 -0.1810  1.5909  0.4641
  635MOL0     H87616  10.094   8.608   4.853 -0.5312 -1.3422 -0.9912
  635MOL0     H87617   9.906   8.484   4.940  0.0773 -0.9984 -1.5369
  635MOL0     H87618   9.524   8.616   4.871 -2.4720 -0.0762 -0.9290
  635MOL0     H87619   9.498   8.479   4.756 -1.2836 -1.8754  0.9226
  635MOL0     H87620   9.350   8.469   4.935  0.8264 -0.3486  0.7003
  635MOL0     H87621   9.477   8.506   5.059 -0.0284 -0.0215  0.1112
  635MOL0     H87622   9.479   8.266   4.882  4.3207  0.8015 -1.0489
  635MOL0     H87623   9.584   8.288   5.013 -0.4700  1.5698  1.5335
  635MOL0     H87624   9.384   8.138   5.065 -2.8949 -0.0494  1.0415
  635MOL0     H87625   9.279   8.274   5.039  0.1336 -1.5254 -2.1865
  635MOL0     H87626   9.526   8.307   5.415  0.9644  0.3371 -1.0010
  635MOL0     H87627   9.639   8.645   4.668 -0.4338  0.4652  0.6537
  635MOL0     H87628   9.857   8.753   4.426 -0.8561 -1.1514 -0.5947
  635MOL0     H87629   9.706   8.796   4.503  0.1211 -0.2349 -3.6895
  635MOL0     H87630   9.854   8.900   4.526  1.8961 -0.7845 -1.0260
  636MOL0     O87631   1.389   1.098   6.463 -0.6946  0.0213 -0.1929
  636MOL0     C87632   1.347   0.986   6.446  0.1154 -0.1590 -0.1918
  636MOL0     O87633   1.224   0.937   6.492  0.0037 -0.4045  0.6495
  636MOL0     C87634   1.124   1.026   6.525 -0.2868 -0.2232  0.1913
  636MOL0     C87635   0.989   0.993   6.509  0.4858 -0.0668 -0.5547
  636MOL0     C87636   0.892   1.088   6.525  0.8221  0.0293  1.0635
  636MOL0     C87637   0.908   1.217   6.572 -0.1117  0.4321  0.4126
  636MOL0     O87638   0.799   1.306   6.590  0.1545  0.2547 -0.0663
  636MOL0     C87639   0.814   1.450   6.560  0.2650 -0.0406  0.5989
  636MOL0     C87640   0.777   1.529   6.686 -0.1266  0.1496 -0.4964
  636MOL0     C87641   0.636   1.515   6.728 -0.6011  0.4206 -0.5464
  636MOL0     C87642   0.607   1.614   6.841 -0.0037 -0.1549  0.1245
  636MOL0     C87643   0.467   1.595   6.889  0.1753 -0.0960  0.0070
  636MOL0     C87644   0.444   1.699   7.004 -0.0926  1.2191 -0.4133
  636MOL0     C87645   0.321   1.650   7.084 -0.8740 -0.8151  0.0249
  636MOL0     C87646   0.349   1.530   7.183 -0.4318 -1.1417  0.0672
  636MOL0     N87647   0.441   1.576   7.290  0.1327 -0.5219  0.1416
  636MOL0     C87648   0.555   1.511   7.333 -0.5364 -0.7820 -0.2601
  636MOL0     C87649   0.615   1.581   7.435 -0.1218  0.4018 -0.1420
  636MOL0     C87650   0.748   1.551   7.507  0.5554 -0.1911  0.4554
  636MOL0     C87651   0.855   1.497   7.412  0.1623 -0.6224  0.4012
  636MOL0     C87652   0.988   1.521   7.472  0.8748  0.3125 -0.0013
  636MOL0     C87653   1.022   1.441   7.599 -0.5449  0.0147  0.1748
  636MOL0     O87654   1.155   1.387   7.612 -0.1847 -0.2033 -0.4729
  636MOL0     C87655   1.260   1.466   7.647 -0.0661  0.7315  1.1293
  636MOL0     C87656   1.387   1.408   7.643 -0.8155 -0.0555 -0.1719
  636MOL0     C87657   1.500   1.464   7.697 -0.4432  0.2772 -0.5283
  636MOL0     C87658   1.629   1.381   7.688 -0.4836 -0.2141 -0.4870
  636MOL0     C87659   1.484   1.596   7.759  0.4130  1.0659  0.3377
  636MOL0     C87660   1.593   1.684   7.814 -0.2415  0.7376 -0.3704
  636MOL0     O87661   1.572   1.818   7.808  0.0153 -0.8217  0.4494
  636MOL0     C87662   1.669   1.898   7.848 -0.7140  0.7329 -0.1312
  636MOL0     C87663   1.728   1.986   7.759  0.2225 -0.2710  0.3449
  636MOL0     C87664   1.832   2.066   7.806  0.0573  0.0309 -0.0680
  636MOL0     C87665   1.876   2.060   7.939  0.0335 -0.3399 -0.3236
  636MOL0     O87666   1.983   2.136   7.975  0.5901  0.3744  0.0532
  636MOL0     C87667   2.026   2.118   8.115  0.1750  0.0243  0.8362
  636MOL0     C87668   2.154   2.184   8.146  0.1916 -0.4205 -0.1944
  636MOL0     C87669   2.173   2.188   8.296  0.1798  0.3962 -0.3170
  636MOL0     C87670   2.222   2.048   8.343  1.1224 -1.0869 -1.0175
  636MOL0     C87671   2.297   2.062   8.479  0.4466  0.4103  0.1224
  636MOL0     C87672   2.207   2.116   8.590  0.3147 -0.0311 -0.3451
  636MOL0     C87673   2.081   2.024   8.614  0.1925  1.0289 -0.7729
  636MOL0     C87674   2.121   1.876   8.642  0.7434 -0.8447  0.6667
  636MOL0    Cl87675   2.233   1.843   8.770  0.1003 -0.0238  0.2904
  636MOL0     C87676   1.800   1.987   8.031 -0.4692  0.3352 -0.3796
  636MOL0     C87677   1.704   1.897   7.985  0.8236 -0.9250  0.9415
  636MOL0     O87678   1.687   1.626   7.869 -0.3681  0.6661  0.1211
  636MOL0     C87679   1.357   1.663   7.748 -0.1948 -1.1962  0.5080
  636MOL0     C87680   1.249   1.599   7.692  0.3100  0.8166  0.1894
  636MOL0     N87681   0.525   1.683   7.457 -0.1921 -0.8011 -0.1568
  636MOL0     N87682   0.421   1.665   7.383 -0.2594  0.0499  0.0532
  636MOL0     C87683   1.045   1.252   6.599  0.2801 -0.2528  0.5192
  636MOL0     C87684   1.147   1.157   6.582 -0.0220 -0.3439 -0.0649
  636MOL0     C87685   1.435   0.889   6.372  0.2518 -0.6021 -0.4966
  636MOL0     C87686   1.469   0.769   6.430 -0.1697 -0.2035 -0.5831
  636MOL0     C87687   1.560   0.679   6.366 -0.4711 -0.2177  0.1478
  636MOL0     C87688   1.617   0.712   6.246  1.1981 -0.6452  0.3518
  636MOL0     O87689   1.712   0.645   6.167 -0.2569 -0.5868  0.0540
  636MOL0     C87690   1.746   0.511   6.208 -0.6798  0.2969 -0.1232
  636MOL0     C87691   1.858   0.440   6.122  0.2816 -0.7820  0.8227
  636MOL0     C87692   1.993   0.521   6.126  0.3423  0.7655 -0.5248
  636MOL0     C87693   2.119   0.449   6.073 -0.6029  0.7105 -0.5532
  636MOL0     C87694   2.239   0.535   6.045 -0.4589 -0.3298  0.7458
  636MOL0     C87695   2.327   0.615   6.033  0.0765 -0.4410 -0.5652
  636MOL0     C87696   1.580   0.833   6.194 -0.2369  0.2765 -0.8538
  636MOL0     C87697   1.506   0.925   6.256  0.2259 -1.3782 -0.7562
  636MOL0     C87698   1.496   1.068   6.194 -0.5996  0.2937  0.5136
  636MOL0     H87699   0.966   0.893   6.474  0.5489 -0.6521  1.0023
  636MOL0     H87700   0.789   1.066   6.501  0.7902  0.0982  1.1374
  636MOL0     H87701   0.746   1.475   6.479 -1.3086  1.3210  2.2705
  636MOL0     H87702   0.917   1.472   6.528  0.4588 -1.8739 -0.1591
  636MOL0     H87703   0.838   1.485   6.765  1.6379 -1.8156 -2.7665
  636MOL0     H87704   0.801   1.634   6.665 -1.4363  1.0931  2.2878
  636MOL0     H87705   0.571   1.531   6.641 -0.5243 -2.2693 -1.1918
  636MOL0     H87706   0.616   1.415   6.766  1.1406  0.6501  1.0801
  636MOL0     H87707   0.679   1.586   6.919  1.8614 -3.0391 -2.4099
  636MOL0     H87708   0.625   1.716   6.806 -1.0125  0.0475  0.1578
  636MOL0     H87709   0.472   1.495   6.933  0.7360  0.7777  2.0490
  636MOL0     H87710   0.398   1.600   6.804  0.1655  0.3241  0.0416
  636MOL0     H87711   0.529   1.713   7.072 -0.7851 -1.3068  1.1186
  636MOL0     H87712   0.431   1.800   6.963 -1.3549  1.1000 -0.3441
  636MOL0     H87713   0.240   1.617   7.019 -2.7560  0.2596  1.6955
  636MOL0     H87714   0.286   1.738   7.138  0.4187 -0.1171 -0.2212
  636MOL0     H87715   0.259   1.491   7.231 -0.5777 -1.3456 -0.3712
  636MOL0     H87716   0.387   1.441   7.132 -0.2452 -1.6160  1.0081
  636MOL0     H87717   0.609   1.429   7.288  0.4911  0.2704 -1.0053
  636MOL0     H87718   0.732   1.465   7.572  0.3942  0.0135  0.6876
  636MOL0     H87719   0.781   1.639   7.564  0.2369 -1.6064  2.9702
  636MOL0     H87720   0.839   1.390   7.400 -1.4287 -0.5905  1.7568
  636MOL0     H87721   0.846   1.539   7.312  2.9954 -2.8750 -0.9206
  636MOL0     H87722   1.054   1.475   7.398  0.5855 -1.0186  0.5372
  636MOL0     H87723   1.004   1.626   7.497  1.3293 -0.0364  1.3034
  636MOL0     H87724   0.993   1.498   7.688 -2.4988  1.5747 -1.3774
  636MOL0     H87725   0.959   1.352   7.604  0.0723 -0.3732  2.9932
  636MOL0     H87726   1.402   1.307   7.607  3.0267 -0.0428  0.9953
  636MOL0     H87727   1.605   1.279   7.656  0.0042 -0.1003 -1.2291
  636MOL0     H87728   1.673   1.370   7.788 -1.1362 -1.6177 -0.3344
  636MOL0     H87729   1.704   1.424   7.622 -1.3213  2.7456  0.3435
  636MOL0     H87730   1.695   1.992   7.656 -1.9073  1.4106  1.0411
  636MOL0     H87731   1.901   2.112   7.736 -0.5110 -2.3913 -2.3509
  636MOL0     H87732   1.947   2.150   8.183 -0.5683 -1.6052  0.7838
  636MOL0     H87733   2.045   2.011   8.127  3.8161  0.6408  1.8195
  636MOL0     H87734   2.244   2.149   8.096  1.0476 -0.8720  1.5646
  636MOL0     H87735   2.137   2.286   8.110 -1.5233 -0.9269 -0.9094
  636MOL0     H87736   2.081   2.224   8.343  0.9303 -0.3047  1.7811
  636MOL0     H87737   2.252   2.262   8.307  2.2403 -0.9649 -4.0160
  636MOL0     H87738   2.299   2.011   8.274  1.4949  0.5493 -1.5070
  636MOL0     H87739   2.138   1.978   8.347 -1.2620  1.5943  2.6622
  636MOL0     H87740   2.342   1.964   8.499 -0.1035  0.5036  1.9491
  636MOL0     H87741   2.380   2.133   8.472 -1.3396  2.4550 -1.3047
  636MOL0     H87742   2.164   2.211   8.558 -1.9186 -1.0626 -0.6199
  636MOL0     H87743   2.257   2.134   8.685 -1.5658 -1.1111  0.9262
  636MOL0     H87744   2.020   2.034   8.523 -0.9907  0.4274 -0.0712
  636MOL0     H87745   2.032   2.070   8.700  0.0159 -1.1414  0.3408
  636MOL0     H87746   2.164   1.840   8.547  2.2884  1.5918  0.3391
  636MOL0     H87747   2.033   1.811   8.647  0.5744 -0.6342  0.4803
  636MOL0     H87748   1.824   1.995   8.136 -1.0414  1.1390 -0.3053
  636MOL0     H87749   1.654   1.825   8.049 -1.5383 -0.6175 -0.4404
  636MOL0     H87750   1.345   1.766   7.778  2.5159  0.2573 -2.7659
  636MOL0     H87751   1.156   1.655   7.688 -1.4309 -1.8436  1.1376
  636MOL0     H87752   1.059   1.354   6.632  0.1682  0.4597 -1.4978
  636MOL0     H87753   1.245   1.184   6.621  0.1796 -0.6029 -0.3945
  636MOL0     H87754   1.421   0.737   6.521  0.4166 -1.3019 -0.6497
  636MOL0     H87755   1.581   0.584   6.415 -0.7335 -0.3051  0.0919
  636MOL0     H87756   1.789   0.516   6.309  1.8788  1.7818 -1.1831
  636MOL0     H87757   1.656   0.451   6.195 -0.1958 -0.5046  0.1547
  636MOL0     H87758   1.815   0.432   6.022 -0.2638 -1.2841  1.0852
  636MOL0     H87759   1.874   0.341   6.167 -1.7036 -0.8524  1.4778
  636MOL0     H87760   1.983   0.614   6.069 -0.8322  0.0042 -1.5948
  636MOL0     H87761   2.007   0.547   6.231 -1.4169 -0.5280  0.0794
  636MOL0     H87762   2.097   0.409   5.973 -0.0067 -0.3389 -0.2770
  636MOL0     H87763   2.146   0.369   6.142 -2.3037  1.5704  1.2004
  636MOL0     H87764   2.418   0.669   6.021  0.9101 -1.7535 -0.3080
  636MOL0     H87765   1.609   0.842   6.089 -0.3233 -0.6621 -0.9729
  636MOL0     H87766   1.453   1.048   6.095  0.6245 -0.3016  0.0683
  636MOL0     H87767   1.425   1.139   6.235 -1.1912  2.3258 -3.5335
  636MOL0     H87768   1.594   1.113   6.173  0.3838  0.5168  4.6592
  637MOL0     O87769   7.239   8.436   6.929  0.0875  0.3154  0.5696
  637MOL0     C87770   7.339   8.385   6.890 -0.2292  0.1879  0.4444
  637MOL0     O87771   7.388   8.393   6.762  0.2874 -0.0745  0.0430
  637MOL0     C87772   7.311   8.468   6.673 -0.3113  0.0346 -0.1202
  637MOL0     C87773   7.193   8.418   6.628 -0.0516  0.1266 -0.3164
  637MOL0     C87774   7.108   8.506   6.548 -0.5785  1.0577 -0.8050
  637MOL0     C87775   7.156   8.631   6.512 -0.1198  0.7633  0.0943
  637MOL0     O87776   7.093   8.717   6.430 -0.3999 -0.2143 -0.3396
  637MOL0     C87777   7.036   8.656   6.310 -0.0748  0.1323 -0.2511
  637MOL0     C87778   6.995   8.751   6.201 -0.0778  0.2541 -1.5907
  637MOL0     C87779   6.891   8.849   6.248 -0.0515 -0.3829 -0.4488
  637MOL0     C87780   6.943   8.982   6.314  0.9740  0.1300  0.0430
  637MOL0     C87781   7.037   9.069   6.234 -0.6986 -0.0978 -0.0688
  637MOL0     C87782   7.132   9.155   6.333 -0.3117 -0.3421  0.0873
  637MOL0     C87783   7.238   9.224   6.246  0.3688 -0.3162  0.2408
  637MOL0     C87784   7.321   9.324   6.322 -0.6896  0.2893 -0.7466
  637MOL0     N87785   7.408   9.388   6.227 -0.6407 -0.2189  0.3762
  637MOL0     C87786   7.525   9.341   6.183 -0.5124 -0.1341 -0.5442
  637MOL0     C87787   7.564   9.426   6.080 -1.2561  0.6056  0.0132
  637MOL0     C87788   7.672   9.404   5.980  0.6373 -0.3786  0.8310
  637MOL0     C87789   7.805   9.421   6.043 -0.3380  0.2144 -0.6522
  637MOL0     C87790   7.869   9.285   6.084 -0.4751  0.5133 -0.1484
  637MOL0     C87791   8.012   9.305   6.135  0.4028 -0.4819  0.9294
  637MOL0     O87792   8.074   9.367   6.025 -0.6534  0.1244 -0.0729
  637MOL0     C87793   8.193   9.423   6.059 -0.4858  0.0851  0.2958
  637MOL0     C87794   8.202   9.556   6.100  0.1421 -0.4841  0.4444
  637MOL0     C87795   8.328   9.607   6.125  0.9708  0.6435 -0.4546
  637MOL0     C87796   8.327   9.736   6.193  0.2578 -0.5260  0.7122
  637MOL0     C87797   8.443   9.530   6.102  0.3072 -0.2356  0.3455
  637MOL0     C87798   8.576   9.588   6.125  0.2315  0.1203 -0.8173
  637MOL0     O87799   8.601   9.709   6.075 -0.3204  0.8488 -0.5934
  637MOL0     C87800   8.713   9.767   6.128 -0.5056  0.3916 -0.2833
  637MOL0     C87801   8.696   9.854   6.233  0.3091  0.1967  0.6202
  637MOL0     C87802   8.802   9.932   6.278  0.1427 -0.1340 -0.8380
  637MOL0     C87803   8.926   9.920   6.225  0.1765 -0.0738  0.3148
  637MOL0     O87804   9.018  10.003   6.282  0.0650  0.4711  0.2548
  637MOL0     C87805   9.157   9.963   6.284 -0.2118 -0.2277  0.1672
  637MOL0     C87806   9.234  10.094   6.337 -0.0175 -0.6016 -0.8316
  637MOL0     C87807   9.374  10.060   6.339 -0.7283 -0.1242 -0.4386
  637MOL0     C87808   9.460  10.197   6.351 -0.4383 -0.2894 -0.1007
  637MOL0     C87809   9.612  10.175   6.318  0.0287  0.1531 -0.1016
  637MOL0     C87810   9.692  10.293   6.380 -0.8001 -0.0198 -0.0432
  637MOL0     C87811   9.837  10.257   6.384 -0.0219  0.3685 -1.0560
  637MOL0     C87812   9.912  10.281   6.264 -0.5713 -0.0736  1.2440
  637MOL0    Cl87813  10.081  10.220   6.259  0.3201 -0.0040 -0.1399
  637MOL0     C87814   8.939   9.836   6.110  0.3596 -0.7544  0.0188
  637MOL0     C87815   8.838   9.749   6.071 -0.1235 -0.4953  0.4542
  637MOL0     O87816   8.656   9.515   6.185 -0.2303  0.0875 -0.3486
  637MOL0     C87817   8.441   9.399   6.059  0.1662 -0.0142  0.1388
  637MOL0     C87818   8.313   9.348   6.052  0.7100  0.9271  0.4517
  637MOL0     N87819   7.474   9.529   6.088 -0.8481 -0.6784 -0.0442
  637MOL0     N87820   7.381   9.509   6.178 -0.3667 -0.5190  0.4185
  637MOL0     C87821   7.276   8.674   6.562 -0.2051 -0.9168  0.8814
  637MOL0     C87822   7.352   8.598   6.651  0.2632 -0.8445  0.6275
  637MOL0     C87823   7.424   8.296   6.976 -0.6814 -0.0170 -0.1414
  637MOL0     C87824   7.506   8.202   6.909 -0.4859 -0.4354  0.0105
  637MOL0     C87825   7.584   8.112   6.980  0.2521  0.3314  0.0817
  637MOL0     C87826   7.610   8.127   7.115 -0.8689 -0.8608 -0.3301
  637MOL0     O87827   7.695   8.047   7.184 -0.2818 -0.4929  0.3823
  637MOL0     C87828   7.812   7.993   7.113 -0.0737 -0.1432  0.6782
  637MOL0     C87829   7.895   7.927   7.216  0.4822 -1.0498  0.0416
  637MOL0     C87830   7.943   8.035   7.316 -0.5797  0.6803 -0.1774
  637MOL0     C87831   8.057   7.991   7.424  0.1828 -0.3954  0.5798
  637MOL0     C87832   8.182   7.958   7.369 -0.7513 -1.3383  0.0607
  637MOL0     C87833   8.290   7.926   7.322 -0.2225 -0.1156 -0.1355
  637MOL0     C87834   7.554   8.243   7.180  0.6422 -0.3842  0.3151
  637MOL0     C87835   7.458   8.319   7.112  1.2242 -0.0224  0.4565
  637MOL0     C87836   7.395   8.438   7.184 -0.4045 -0.8198  0.3765
  637MOL0     H87837   7.167   8.314   6.645  0.9211 -0.0406  0.1829
  637MOL0     H87838   7.019   8.454   6.515  0.9498  0.1599 -3.8745
  637MOL0     H87839   6.945   8.603   6.337 -0.9979  1.6900 -0.2055
  637MOL0     H87840   7.105   8.581   6.269 -2.6834 -1.5182 -1.9168
  637MOL0     H87841   7.088   8.800   6.171  0.8449 -0.5177 -0.1424
  637MOL0     H87842   6.971   8.688   6.115  2.4970  0.9113 -2.8994
  637MOL0     H87843   6.831   8.878   6.160 -1.9491 -0.1824  0.8450
  637MOL0     H87844   6.828   8.794   6.318  2.7506  0.4727  2.9972
  637MOL0     H87845   6.856   9.043   6.341  1.4943  0.0961  1.9981
  637MOL0     H87846   6.989   8.962   6.411 -1.1318 -0.9535  0.8906
  637MOL0     H87847   6.977   9.130   6.165  0.4751  0.3402 -0.7303
  637MOL0     H87848   7.103   9.012   6.168  2.4070  0.0009  2.7389
  637MOL0     H87849   7.068   9.223   6.389  0.4277  1.2422 -0.9206
  637MOL0     H87850   7.187   9.091   6.402 -0.2174  0.5054  0.8156
  637MOL0     H87851   7.195   9.270   6.157  2.3632 -0.8144 -1.0375
  637MOL0     H87852   7.299   9.140   6.212 -1.7325 -1.5990 -0.5383
  637MOL0     H87853   7.256   9.399   6.369 -0.5346  0.0725 -0.1894
  637MOL0     H87854   7.377   9.268   6.397 -4.1739 -1.9586  0.4148
  637MOL0     H87855   7.574   9.249   6.211  2.4094  2.0164  2.2503
  637MOL0     H87856   7.648   9.481   5.906 -2.6075 -2.5328 -0.5432
  637MOL0     H87857   7.654   9.310   5.928 -1.7326 -0.0798  1.0029
  637MOL0     H87858   7.870   9.482   5.979  1.6541 -1.1987 -0.0837
  637MOL0     H87859   7.811   9.481   6.134  1.4511 -0.2651 -0.4258
  637MOL0     H87860   7.811   9.238   6.164  1.5363 -0.5333  0.7711
  637MOL0     H87861   7.875   9.223   5.994  1.6323 -0.7450  0.7739
  637MOL0     H87862   8.012   9.379   6.215  0.6818 -0.8609  1.2830
  637MOL0     H87863   8.061   9.216   6.176 -0.7172 -1.3707  0.3873
  637MOL0     H87864   8.108   9.608   6.119  1.0051  0.6123  1.9170
  637MOL0     H87865   8.225   9.753   6.229  0.1619 -1.8721  1.1507
  637MOL0     H87866   8.349   9.813   6.119 -0.5373  0.4612  1.4766
  637MOL0     H87867   8.399   9.729   6.274  2.9000 -1.2417 -1.5414
  637MOL0     H87868   8.597   9.865   6.275 -0.1562  2.0539 -0.7679
  637MOL0     H87869   8.785  10.005   6.356 -1.6156  1.7670 -2.8596
  637MOL0     H87870   9.171   9.888   6.362 -0.2689 -0.5978 -0.1758
  637MOL0     H87871   9.185   9.922   6.186 -0.8484  1.2829 -0.6826
  637MOL0     H87872   9.219  10.183   6.274  0.1312  1.8109  2.3100
  637MOL0     H87873   9.194  10.116   6.436 -5.0589 -2.1142 -2.2368
  637MOL0     H87874   9.402  10.012   6.245  0.6366  0.5524 -0.4070
  637MOL0     H87875   9.405   9.996   6.422  1.5413 -0.5821 -1.5632
  637MOL0     H87876   9.456  10.217   6.459 -3.7495  0.9360 -0.3154
  637MOL0     H87877   9.424  10.286   6.298 -0.3404  1.4332  2.5183
  637MOL0     H87878   9.646  10.083   6.367  2.5142 -0.5222 -2.8376
  637MOL0     H87879   9.627  10.160   6.211  2.4780 -0.7542  0.3150
  637MOL0     H87880   9.667  10.304   6.486  0.8727  2.7530  0.1605
  637MOL0     H87881   9.678  10.386   6.326 -2.5623 -0.6959 -0.8267
  637MOL0     H87882   9.841  10.150   6.403 -1.2471  0.4899 -0.0146
  637MOL0     H87883   9.888  10.315   6.462  1.5691  1.0843 -2.5358
  637MOL0     H87884   9.926  10.387   6.243 -0.0792 -0.5108 -0.9825
  637MOL0     H87885   9.860  10.235   6.179  0.6759  0.2322  0.2852
  637MOL0     H87886   9.039   9.824   6.070  0.8799  0.4050  0.8909
  637MOL0     H87887   8.852   9.676   5.991 -0.3799 -0.1843  0.1278
  637MOL0     H87888   8.525   9.330   6.055 -1.7054 -2.4829  0.3490
  637MOL0     H87889   8.303   9.244   6.025 -1.4931  0.6523  2.0620
  637MOL0     H87890   7.303   8.774   6.532 -0.4132 -0.8299  0.9814
  637MOL0     H87891   7.439   8.638   6.701  0.1598 -2.1417  1.9011
  637MOL0     H87892   7.487   8.184   6.804 -2.4950  0.8283  0.1090
  637MOL0     H87893   7.621   8.026   6.924 -2.0738  0.7128 -2.2187
  637MOL0     H87894   7.791   7.918   7.036 -0.2400  0.6053 -0.0139
  637MOL0     H87895   7.879   8.067   7.070 -0.2778  0.9093  2.1061
  637MOL0     H87896   7.977   7.883   7.158 -0.3593 -1.4552 -0.8814
  637MOL0     H87897   7.844   7.839   7.257  1.2974 -1.7999 -0.5126
  637MOL0     H87898   7.996   8.116   7.264 -2.9716  2.1902 -0.4448
  637MOL0     H87899   7.851   8.077   7.358 -0.1463  2.3894 -0.8240
  637MOL0     H87900   8.017   7.902   7.473 -3.0402  1.4724  1.6264
  637MOL0     H87901   8.073   8.072   7.495  1.1108 -0.3119  0.2867
  637MOL0     H87902   8.372   7.881   7.269 -1.1286  0.1534 -1.8546
  637MOL0     H87903   7.581   8.267   7.283  0.3691 -0.1944  0.3435
  637MOL0     H87904   7.397   8.524   7.117 -1.7491 -0.3923  0.8576
  637MOL0     H87905   7.292   8.420   7.215  0.0157 -1.3544  1.5514
  637MOL0     H87906   7.454   8.457   7.275  0.5121 -3.8452  0.5218
  638MOL0     O87907  11.104   6.866   1.965 -0.6462 -0.4745 -0.1773
  638MOL0     C87908  11.007   6.919   1.912 -0.4350  0.2646  0.6632
  638MOL0     O87909  11.015   7.003   1.806  0.1260 -0.1799 -0.8354
  638MOL0     C87910  11.138   7.016   1.747 -0.1307  0.2256 -0.2298
  638MOL0     C87911  11.227   7.116   1.796 -0.2750  0.2738  0.5674
  638MOL0     C87912  11.353   7.131   1.732 -0.7371 -0.4477  0.2339
  638MOL0     C87913  11.397   7.034   1.631  0.6775  0.3205 -0.1899
  638MOL0     O87914  11.517   7.045   1.565 -0.0595 -0.5389  0.4136
  638MOL0     C87915  11.537   7.177   1.516 -0.5670  0.2771  0.7178
  638MOL0     C87916  11.688   7.196   1.472  0.4608  0.2241  0.0587
  638MOL0     C87917  11.739   7.343   1.459 -0.6787 -0.3302  0.0003
  638MOL0     C87918  11.883   7.371   1.418  0.2208 -0.2848 -0.9555
  638MOL0     C87919  11.898   7.526   1.424 -0.0780 -0.3736  0.5653
  638MOL0     C87920  12.046   7.561   1.407  0.2109 -0.7811  0.2220
  638MOL0     C87921  12.046   7.720   1.390  0.1664 -0.2382 -0.1639
  638MOL0     C87922  12.190   7.764   1.350 -0.1862  0.0859  0.2273
  638MOL0     N87923  12.197   7.909   1.330  0.3307  0.2425 -0.1541
  638MOL0     C87924  12.314   7.972   1.285  0.7144  0.2141 -0.3193
  638MOL0     C87925  12.282   8.105   1.293 -0.0394  0.2130  0.4437
  638MOL0     C87926  12.374   8.215   1.249 -0.5419 -0.3175  0.9498
  638MOL0     C87927  12.488   8.198   1.346 -0.0606  0.3415  0.8461
  638MOL0     C87928  12.579   8.326   1.333 -0.0612  0.9691 -1.3973
  638MOL0     C87929  12.623   8.360   1.200  0.3928 -0.2664  0.1302
  638MOL0     O87930  12.739   8.436   1.201 -0.2379  0.5504 -0.5412
  638MOL0     C87931  12.873   8.378   1.198 -0.4581 -0.3472  0.2730
  638MOL0     C87932  12.978   8.474   1.195 -0.3139  0.9095 -0.7233
  638MOL0     C87933  13.115   8.439   1.194 -0.4502  0.3158  0.0946
  638MOL0     C87934  13.216   8.553   1.205  0.3317  0.5415  0.4852
  638MOL0     C87935  13.145   8.296   1.178  0.3698  0.1097  0.3983
  638MOL0     C87936  13.278   8.247   1.165 -0.2445 -0.4664  0.0274
  638MOL0     O87937  13.373   8.325   1.110  0.4693 -0.5929 -0.2417
  638MOL0     C87938  13.503   8.301   1.090  0.5616  0.7159  0.2248
  638MOL0     C87939  13.580   8.417   1.064 -0.1895 -0.1990  0.3208
  638MOL0     C87940  13.717   8.419   1.040  0.7074 -0.9829  0.3041
  638MOL0     C87941  13.789   8.294   1.048  0.1200  0.0894 -0.2821
  638MOL0     O87942  13.927   8.280   1.017 -0.5892 -0.3924  0.1990
  638MOL0     C87943  13.994   8.388   0.947 -0.0848 -0.7694 -0.5774
  638MOL0     C87944  14.107   8.330   0.864 -0.7487 -0.0144  0.2536
  638MOL0     C87945  14.210   8.260   0.950 -0.5467 -0.1600 -0.0980
  638MOL0     C87946  14.334   8.206   0.870  0.6341 -0.5478  0.2446
  638MOL0     C87947  14.459   8.166   0.940  0.3210 -0.5910 -0.7542
  638MOL0     C87948  14.571   8.110   0.851 -0.2736 -0.0764 -0.4216
  638MOL0     C87949  14.646   8.224   0.789 -0.3607 -0.0696  0.2540
  638MOL0     C87950  14.779   8.184   0.727  0.3128  0.1638 -0.6944
  638MOL0    Cl87951  14.755   8.094   0.574  0.1467 -0.0290 -0.2204
  638MOL0     C87952  13.716   8.181   1.084  0.0948 -0.1450 -0.0004
  638MOL0     C87953  13.577   8.181   1.103 -0.2640  0.5053  0.0285
  638MOL0     O87954  13.291   8.130   1.189 -0.1236 -0.1976  0.1914
  638MOL0     C87955  13.038   8.207   1.181 -0.0270 -0.2329 -0.0016
  638MOL0     C87956  12.906   8.245   1.188  0.1339 -0.7618 -0.2947
  638MOL0     N87957  12.148   8.116   1.333  0.2848  0.6848  0.5799
  638MOL0     N87958  12.103   7.997   1.359  0.4443 -0.0903 -0.4136
  638MOL0     C87959  11.313   6.920   1.606  0.2735 -0.6904 -0.1641
  638MOL0     C87960  11.182   6.929   1.646  0.1819  0.2144 -0.2883
  638MOL0     C87961  10.875   6.889   1.977 -0.9322 -0.2749  0.3306
  638MOL0     C87962  10.770   6.974   1.938  0.7615  0.1714 -0.2669
  638MOL0     C87963  10.643   6.944   1.987 -0.5580 -0.0920  0.0004
  638MOL0     C87964  10.610   6.831   2.049  0.1093 -0.3516 -0.9816
  638MOL0     O87965  10.482   6.789   2.074 -0.6478  0.0227 -0.5923
  638MOL0     C87966  10.369   6.886   2.065 -0.8482  1.1821  0.6988
  638MOL0     C87967  10.368   6.958   2.197 -0.0162  0.5456 -0.6495
  638MOL0     C87968  10.260   7.055   2.218  0.4880  0.6282  0.6161
  638MOL0     C87969  10.126   6.977   2.246  0.5074  0.7878 -0.3608
  638MOL0     C87970  10.011   7.070   2.268  0.4239  0.3957 -0.2355
  638MOL0     C87971   9.905   7.131   2.276 -0.3382  1.0761  0.4388
  638MOL0     C87972  10.707   6.745   2.074 -1.0147 -0.1185  0.5471
  638MOL0     C87973  10.845   6.775   2.047  0.3935 -0.6767 -0.3810
  638MOL0     C87974  10.941   6.667   2.085 -0.0447  0.8100 -0.9065
  638MOL0     H87975  11.199   7.193   1.867  0.0875  0.1079  0.8894
  638MOL0     H87976  11.425   7.207   1.761  0.1205 -1.3475  0.5559
  638MOL0     H87977  11.529   7.247   1.600 -0.1999 -2.0283  2.7775
  638MOL0     H87978  11.465   7.201   1.436 -1.5542 -0.3753  1.3893
  638MOL0     H87979  11.741   7.157   1.560  1.1563 -0.3356 -0.5939
  638MOL0     H87980  11.719   7.143   1.381 -0.4146 -0.4431  0.1373
  638MOL0     H87981  11.673   7.393   1.387  0.7903  1.1416 -0.3742
  638MOL0     H87982  11.716   7.388   1.555  1.3097  1.6535 -0.3889
  638MOL0     H87983  11.953   7.318   1.483 -2.8545 -2.0272  1.1996
  638MOL0     H87984  11.903   7.339   1.315  0.7583 -0.6752 -0.7339
  638MOL0     H87985  11.871   7.564   1.523 -0.6637 -4.0882  1.9608
  638MOL0     H87986  11.831   7.556   1.343  1.1435 -0.5334 -0.5549
  638MOL0     H87987  12.097   7.532   1.500 -1.2454 -3.1292  0.3682
  638MOL0     H87988  12.080   7.508   1.317 -3.4909 -1.1487 -1.1157
  638MOL0     H87989  12.022   7.766   1.486  0.8454 -0.6881  0.2352
  638MOL0     H87990  11.970   7.744   1.315 -1.5742 -0.5204  1.4418
  638MOL0     H87991  12.274   7.726   1.408  1.6914 -0.5021 -2.6689
  638MOL0     H87992  12.216   7.731   1.250 -1.0629  1.2124 -0.4028
  638MOL0     H87993  12.407   7.935   1.242  0.5925 -1.0864  0.4908
  638MOL0     H87994  12.325   8.312   1.257  0.8785  0.5181 -0.0971
  638MOL0     H87995  12.398   8.198   1.144 -1.2025 -5.3036  1.3554
  638MOL0     H87996  12.448   8.172   1.444  0.4206 -0.3708  0.8611
  638MOL0     H87997  12.557   8.118   1.319  0.3959  1.0846 -0.2642
  638MOL0     H87998  12.535   8.407   1.391 -2.7157 -1.5735  0.4587
  638MOL0     H87999  12.672   8.302   1.385 -0.4582  1.1952 -0.5685
  638MOL0     H88000  12.643   8.265   1.150 -1.0315 -0.3760 -0.2696
  638MOL0     H88001  12.551   8.415   1.139  1.1689 -1.5342 -2.0288
  638MOL0     H88002  12.957   8.580   1.204  1.3385  1.1051  2.4024
  638MOL0     H88003  13.308   8.527   1.258  1.7285  0.4903 -1.8150
  638MOL0     H88004  13.176   8.641   1.256  0.9906  1.1404 -0.0067
  638MOL0     H88005  13.242   8.579   1.102 -1.4908 -0.0443 -0.1470
  638MOL0     H88006  13.530   8.512   1.063 -0.5717 -0.3891  0.8906
  638MOL0     H88007  13.771   8.513   1.030  0.5753 -0.5662  2.8181
  638MOL0     H88008  13.925   8.443   0.882  0.4740  4.5314  2.7474
  638MOL0     H88009  14.022   8.468   1.017  0.0341 -0.4344 -1.0066
  638MOL0     H88010  14.071   8.257   0.791  0.4873 -2.7994  2.2176
  638MOL0     H88011  14.148   8.407   0.798 -0.7625 -3.5129 -4.3285
  638MOL0     H88012  14.178   8.180   1.017 -0.0812  0.7980  1.2987
  638MOL0     H88013  14.254   8.342   1.008  0.8441 -1.9244  1.4415
  638MOL0     H88014  14.363   8.295   0.813  3.7795 -0.8914  1.1433
  638MOL0     H88015  14.302   8.132   0.796 -0.5412 -1.1316  1.3081
  638MOL0     H88016  14.494   8.248   1.003 -0.5416  0.2970 -1.4040
  638MOL0     H88017  14.428   8.091   1.014  1.7137 -0.0662  0.4301
  638MOL0     H88018  14.527   8.061   0.764 -1.6011  0.7632 -0.2488
  638MOL0     H88019  14.630   8.048   0.919 -0.9974 -1.3825 -0.9468
  638MOL0     H88020  14.667   8.296   0.869 -2.6406  0.6374  0.2995
  638MOL0     H88021  14.581   8.277   0.718  0.4493 -2.6341 -2.6012
  638MOL0     H88022  14.852   8.137   0.793 -0.6796  0.4532  0.6591
  638MOL0     H88023  14.826   8.281   0.707  0.8753  0.5107  1.9632
  638MOL0     H88024  13.776   8.091   1.095 -1.2208 -0.9254  1.0279
  638MOL0     H88025  13.534   8.083   1.120 -4.0412  2.0422  0.2530
  638MOL0     H88026  13.048   8.099   1.177 -0.2775 -0.4242  2.6241
  638MOL0     H88027  12.828   8.169   1.188 -0.4081 -0.2325  1.1258
  638MOL0     H88028  11.354   6.840   1.546  1.1141  0.5010 -1.2302
  638MOL0     H88029  11.108   6.863   1.600  1.6211 -0.3623 -1.8836
  638MOL0     H88030  10.790   7.068   1.888 -1.8616  0.9441  0.0252
  638MOL0     H88031  10.573   7.022   1.959  2.2001  2.2985 -0.8080
  638MOL0     H88032  10.398   6.961   1.990  3.2476 -1.3424 -0.5989
  638MOL0     H88033  10.274   6.843   2.034  0.1662 -1.0683  0.4726
  638MOL0     H88034  10.462   7.012   2.212 -0.0975  0.0629  1.9784
  638MOL0     H88035  10.364   6.885   2.279  4.4952 -0.9551 -1.4982
  638MOL0     H88036  10.300   7.122   2.296  0.6168  0.2142  0.9065
  638MOL0     H88037  10.239   7.109   2.125 -0.7790  0.7433  0.9422
  638MOL0     H88038  10.136   6.914   2.335  2.6676 -0.6435 -1.5439
  638MOL0     H88039  10.099   6.911   2.163  2.1562  1.3749 -1.3915
  638MOL0     H88040   9.816   7.192   2.282  1.2356  3.4325  1.3764
  638MOL0     H88041  10.676   6.650   2.116  1.3547 -1.2558 -0.0766
  638MOL0     H88042  11.040   6.705   2.112 -1.0209  3.6727 -1.0975
  638MOL0     H88043  10.908   6.624   2.181  1.2568  0.4221 -0.6137
  638MOL0     H88044  10.959   6.583   2.017  2.3313  0.1747  0.3808
  639MOL0     O88045   2.042   0.755   2.936 -0.5816  0.0819  0.2299
  639MOL0     C88046   1.938   0.704   2.900  0.6394  0.0738 -0.2724
  639MOL0     O88047   1.836   0.762   2.839 -0.1042  0.7900 -0.2687
  639MOL0     C88048   1.805   0.885   2.882  0.4310  0.0064 -0.1724
  639MOL0     C88049   1.832   0.927   3.010  0.0174  0.0429  0.0360
  639MOL0     C88050   1.790   1.052   3.050 -0.0820 -0.0243  0.0158
  639MOL0     C88051   1.732   1.140   2.956 -0.1579  0.4687 -0.8603
  639MOL0     O88052   1.719   1.270   3.002  0.4557  0.2072 -0.2872
  639MOL0     C88053   1.612   1.351   2.944 -0.5527  0.7868  0.3506
  639MOL0     C88054   1.598   1.470   3.036  0.1764  0.4840 -0.8083
  639MOL0     C88055   1.540   1.432   3.171  0.2818  0.2002 -0.4626
  639MOL0     C88056   1.579   1.546   3.267 -0.0210 -0.0062  0.7044
  639MOL0     C88057   1.530   1.514   3.404  0.2415 -0.4824 -0.1923
  639MOL0     C88058   1.586   1.616   3.495 -0.5632 -0.1474 -0.2075
  639MOL0     C88059   1.522   1.607   3.634 -0.1047 -0.5052  0.8175
  639MOL0     C88060   1.555   1.734   3.724  0.3715 -0.2686  0.7383
  639MOL0     N88061   1.702   1.749   3.725 -0.0398  0.1440  0.5112
  639MOL0     C88062   1.793   1.670   3.786 -0.1747  0.0443 -0.5471
  639MOL0     C88063   1.916   1.712   3.743 -0.2384 -1.3454 -0.6966
  639MOL0     C88064   2.054   1.666   3.786  1.4108  0.8072  0.1668
  639MOL0     C88065   2.172   1.732   3.708  0.8593 -0.0401  0.1313
  639MOL0     C88066   2.290   1.642   3.753 -1.0541  0.0676  0.1581
  639MOL0     C88067   2.424   1.720   3.727 -0.8052 -0.0292 -0.7218
  639MOL0     O88068   2.538   1.639   3.777 -0.0357 -0.0995  0.2361
  639MOL0     C88069   2.663   1.686   3.777 -0.9619 -0.4316  0.7039
  639MOL0     C88070   2.700   1.821   3.749 -0.1772 -0.5569  0.0024
  639MOL0     C88071   2.837   1.858   3.753  0.5382  0.1940 -0.6400
  639MOL0     C88072   2.871   2.009   3.739  0.0335  0.5575 -0.0155
  639MOL0     C88073   2.940   1.757   3.800  0.7229 -0.4823  0.4954
  639MOL0     C88074   3.088   1.779   3.804  0.7481 -0.5384 -0.0957
  639MOL0     O88075   3.161   1.674   3.846  0.6660  0.2585 -0.1104
  639MOL0     C88076   3.291   1.676   3.806  0.0878  0.6378 -0.0422
  639MOL0     C88077   3.323   1.678   3.671 -0.1106 -0.3834 -0.1886
  639MOL0     C88078   3.455   1.667   3.629 -0.5191 -0.6830  0.0363
  639MOL0     C88079   3.560   1.649   3.719  0.8851 -0.7213 -1.3009
  639MOL0     O88080   3.683   1.656   3.669  1.0693 -0.2148  0.6090
  639MOL0     C88081   3.790   1.610   3.750 -0.4601  0.4580  0.8149
  639MOL0     C88082   3.916   1.604   3.663 -0.4861 -0.0837  0.3597
  639MOL0     C88083   4.034   1.546   3.737 -0.3060  0.5409 -0.0597
  639MOL0     C88084   4.161   1.526   3.652 -0.2742  0.8581 -0.1353
  639MOL0     C88085   4.281   1.489   3.751  0.4794 -0.3801  0.2908
  639MOL0     C88086   4.414   1.466   3.683  0.7012  0.2332  0.0942
  639MOL0     C88087   4.520   1.424   3.790 -0.3531 -0.1627 -0.7172
  639MOL0     C88088   4.654   1.426   3.726  0.2893  0.9858 -0.1319
  639MOL0    Cl88089   4.673   1.278   3.644  0.2458  0.0095  0.8259
  639MOL0     C88090   3.524   1.632   3.854  0.1500 -0.1087 -0.2195
  639MOL0     C88091   3.390   1.635   3.897 -0.0925 -0.5157 -0.0463
  639MOL0     O88092   3.132   1.891   3.789 -0.1885  0.2241 -0.7387
  639MOL0     C88093   2.898   1.625   3.832 -0.7315 -0.2824 -0.7475
  639MOL0     C88094   2.763   1.598   3.821  0.7149  0.1022 -1.5360
  639MOL0     N88095   1.895   1.832   3.666 -0.0721 -0.1460  0.1831
  639MOL0     N88096   1.767   1.851   3.655 -0.3189  0.5347  0.3744
  639MOL0     C88097   1.695   1.097   2.829  0.5624 -0.2366  0.3789
  639MOL0     C88098   1.733   0.965   2.797  0.0136 -0.0106 -0.3466
  639MOL0     C88099   1.931   0.555   2.928 -0.5190  0.0397 -0.4183
  639MOL0     C88100   1.860   0.468   2.838 -0.2970 -0.0327 -0.4406
  639MOL0     C88101   1.831   0.338   2.867 -0.1353 -0.0895 -0.0310
  639MOL0     C88102   1.890   0.283   2.988  0.2356 -0.6534 -0.6914
  639MOL0     O88103   1.883   0.156   3.028  0.2950  1.4447  0.2010
  639MOL0     C88104   1.786   0.073   2.969 -0.3372 -0.3506  0.4906
  639MOL0     C88105   1.808  -0.061   3.045  0.0004  1.2113  0.2269
  639MOL0     C88106   1.702  -0.166   3.034  0.4691  0.0460 -1.0706
  639MOL0     C88107   1.729  -0.296   3.108 -0.5959  0.5397 -0.4882
  639MOL0     C88108   1.692  -0.283   3.250 -0.2303  0.5400  0.0232
  639MOL0     C88109   1.661  -0.276   3.373  0.4632  0.0073  1.1950
  639MOL0     C88110   1.965   0.359   3.072 -0.1833 -0.6729  0.3501
  639MOL0     C88111   1.978   0.500   3.049 -0.6745  0.5004  0.7932
  639MOL0     C88112   2.059   0.579   3.148  0.0576  0.1456 -0.3473
  639MOL0     H88113   1.874   0.860   3.084  0.0034 -0.3323 -0.2912
  639MOL0     H88114   1.794   1.087   3.152 -1.9357 -0.3057  0.2166
  639MOL0     H88115   1.519   1.297   2.922  0.6278 -0.4720 -1.9272
  639MOL0     H88116   1.648   1.377   2.844  0.7972 -2.4686 -0.1135
  639MOL0     H88117   1.694   1.522   3.046  1.7613 -2.5359  1.1264
  639MOL0     H88118   1.514   1.531   3.001 -2.1773 -1.6574  0.7736
  639MOL0     H88119   1.432   1.410   3.166  0.3893 -0.1191 -3.3744
  639MOL0     H88120   1.589   1.338   3.200  0.9637 -0.5325 -3.5952
  639MOL0     H88121   1.687   1.562   3.270 -0.0277  0.9124 -1.9185
  639MOL0     H88122   1.542   1.642   3.231 -0.6042 -0.4386  0.1432
  639MOL0     H88123   1.559   1.414   3.436 -1.3247 -0.5543  1.1451
  639MOL0     H88124   1.425   1.541   3.420  0.2992 -1.6254  2.7896
  639MOL0     H88125   1.691   1.594   3.514 -0.9924 -1.7018  0.5329
  639MOL0     H88126   1.586   1.721   3.465  1.9376 -0.1227 -0.3074
  639MOL0     H88127   1.556   1.515   3.683 -1.6270 -1.7233 -0.3181
  639MOL0     H88128   1.413   1.598   3.629 -0.2412 -1.3904  3.5021
  639MOL0     H88129   1.508   1.821   3.678  0.8334  0.8703  2.3578
  639MOL0     H88130   1.504   1.724   3.820  1.1457  1.2103  1.3231
  639MOL0     H88131   1.773   1.583   3.848 -0.9168  1.0878  0.7169
  639MOL0     H88132   2.049   1.557   3.788 -1.6791  0.7342 -2.8919
  639MOL0     H88133   2.065   1.696   3.891 -0.3374 -0.4541  0.7714
  639MOL0     H88134   2.150   1.723   3.601  0.0746 -1.8674  0.4100
  639MOL0     H88135   2.171   1.840   3.729 -3.8718 -0.0598  1.2262
  639MOL0     H88136   2.292   1.616   3.859 -4.0709  1.2559  0.6097
  639MOL0     H88137   2.290   1.546   3.700  2.1576  0.2263 -0.3324
  639MOL0     H88138   2.450   1.737   3.622 -1.4393 -1.2470 -1.1040
  639MOL0     H88139   2.413   1.816   3.777 -0.0271  0.3212 -1.2115
  639MOL0     H88140   2.630   1.900   3.723 -0.5193 -0.0166  2.3500
  639MOL0     H88141   2.930   2.025   3.648 -0.0881 -0.7592 -0.3445
  639MOL0     H88142   2.929   2.032   3.829 -0.8996 -0.0121  0.7507
  639MOL0     H88143   2.781   2.071   3.735 -0.7841 -0.4524  1.6767
  639MOL0     H88144   3.239   1.700   3.605 -0.6131  1.7269  1.0311
  639MOL0     H88145   3.472   1.676   3.523 -0.5737  2.5845  0.2139
  639MOL0     H88146   3.808   1.682   3.831 -0.7843  1.4692  0.0193
  639MOL0     H88147   3.775   1.514   3.798 -2.9735 -0.2383 -1.1169
  639MOL0     H88148   3.907   1.545   3.572  1.8953 -1.0374  0.6917
  639MOL0     H88149   3.942   1.708   3.642 -1.2629  0.1368  0.4453
  639MOL0     H88150   4.001   1.456   3.789  1.0486  0.4690  0.7462
  639MOL0     H88151   4.071   1.615   3.814  0.1683 -1.1248  1.2581
  639MOL0     H88152   4.200   1.615   3.603  0.1148  0.1450 -1.1393
  639MOL0     H88153   4.142   1.447   3.579  1.1827 -0.4721  0.8387
  639MOL0     H88154   4.296   1.568   3.826 -0.7291 -0.2012  0.3636
  639MOL0     H88155   4.260   1.400   3.811 -3.4100 -0.4467 -0.8973
  639MOL0     H88156   4.452   1.553   3.628 -0.9974  0.7864 -0.2729
  639MOL0     H88157   4.395   1.389   3.608 -0.8524 -0.3379  1.0194
  639MOL0     H88158   4.499   1.330   3.841  2.7537 -0.1211  0.8757
  639MOL0     H88159   4.512   1.503   3.865 -3.9532 -0.8598 -0.2006
  639MOL0     H88160   4.733   1.440   3.800 -0.0275  2.8531 -0.1094
  639MOL0     H88161   4.662   1.505   3.651  0.0074  0.5912 -0.5857
  639MOL0     H88162   3.599   1.616   3.931  0.6564 -1.2432 -0.9261
  639MOL0     H88163   3.360   1.622   4.001 -2.5142  1.5725 -0.3707
  639MOL0     H88164   2.964   1.556   3.883  0.5114  1.5728  0.3071
  639MOL0     H88165   2.733   1.499   3.855 -0.7856  0.6770 -1.1104
  639MOL0     H88166   1.649   1.160   2.753 -1.8703 -2.1223  0.1747
  639MOL0     H88167   1.700   0.937   2.698 -2.4466 -2.1160  0.9645
  639MOL0     H88168   1.818   0.514   2.750  1.4139 -0.4244 -1.5164
  639MOL0     H88169   1.761   0.280   2.807  2.1085  0.0448 -3.0373
  639MOL0     H88170   1.685   0.109   2.987 -0.1947  1.1122 -1.3138
  639MOL0     H88171   1.802   0.062   2.861 -0.7418  0.3553  0.3581
  639MOL0     H88172   1.814  -0.032   3.150  0.1243 -0.9572  0.8711
  639MOL0     H88173   1.908  -0.102   3.028  0.5068  3.1451 -2.0368
  639MOL0     H88174   1.610  -0.120   3.070  2.0599  1.8850  0.9294
  639MOL0     H88175   1.680  -0.192   2.930 -1.8056 -4.0044  0.2137
  639MOL0     H88176   1.834  -0.320   3.095 -1.2121 -2.1028 -1.1782
  639MOL0     H88177   1.665  -0.374   3.065  1.9605 -1.2465 -1.2263
  639MOL0     H88178   1.631  -0.263   3.475 -1.5164 -0.7571  0.7588
  639MOL0     H88179   2.000   0.320   3.167 -0.8492 -1.5666  0.2413
  639MOL0     H88180   2.153   0.600   3.097  1.0295 -1.1998  0.8232
  639MOL0     H88181   2.006   0.671   3.177  0.9126  0.2315  1.0541
  639MOL0     H88182   2.076   0.521   3.239 -0.7770  0.3641 -0.0353
  640MOL0     O88183   5.890   3.168  10.925  0.0076 -0.8883  0.3129
  640MOL0     C88184   5.838   3.120  11.024 -0.0992  0.3418 -0.0837
  640MOL0     O88185   5.872   3.003  11.086 -0.2805 -0.3940 -0.6301
  640MOL0     C88186   5.963   2.912  11.035  0.3488  0.5673 -0.1388
  640MOL0     C88187   6.067   2.936  10.942  0.4464  0.0170  0.5642
  640MOL0     C88188   6.158   2.831  10.920  0.2109 -0.7815 -0.4432
  640MOL0     C88189   6.141   2.707  10.972 -0.3439 -0.8023  0.0178
  640MOL0     O88190   6.231   2.610  10.945  0.1881 -0.3705 -0.4062
  640MOL0     C88191   6.250   2.580  10.805 -0.0075 -0.0981  1.0337
  640MOL0     C88192   6.344   2.459  10.792 -0.5208 -0.1594  0.5922
  640MOL0     C88193   6.490   2.494  10.831  0.2696  0.8948  0.2922
  640MOL0     C88194   6.573   2.365  10.838 -0.1667  0.2213 -0.2565
  640MOL0     C88195   6.702   2.373  10.916  0.1258  0.2614  0.4503
  640MOL0     C88196   6.782   2.241  10.898 -0.2775  0.6345  0.8886
  640MOL0     C88197   6.918   2.252  10.962  0.5380  0.0036  0.8682
  640MOL0     C88198   7.010   2.133  10.929 -0.6823 -0.2661  0.8982
  640MOL0     N88199   7.127   2.132  11.015 -0.0297 -0.3362 -0.4816
  640MOL0     C88200   7.230   2.218  10.990  0.6411 -0.5074  0.2346
  640MOL0     C88201   7.316   2.204  11.091  0.3599 -0.0036 -1.1570
  640MOL0     C88202   7.447   2.284  11.119 -0.6579 -0.8065 -0.0164
  640MOL0     C88203   7.577   2.206  11.081  0.3505 -0.5100  0.8541
  640MOL0     C88204   7.571   2.161  10.932  0.0577 -0.7052  0.0229
  640MOL0     C88205   7.687   2.085  10.869 -0.2318  0.3951  0.0791
  640MOL0     O88206   7.800   2.164  10.858 -0.1646  0.0869 -0.6501
  640MOL0     C88207   7.919   2.113  10.811 -0.5408 -0.2556 -1.4862
  640MOL0     C88208   7.939   1.972  10.779  0.5999 -0.5217  0.8991
  640MOL0     C88209   8.055   1.915  10.725 -0.2589  0.7723 -1.1507
  640MOL0     C88210   8.071   1.760  10.714  0.4012 -0.4712  0.2600
  640MOL0     C88211   8.173   2.006  10.713  0.5095  0.1827 -0.8713
  640MOL0     C88212   8.322   1.962  10.709 -0.6526  0.2921 -0.3999
  640MOL0     O88213   8.418   2.070  10.716 -0.4592 -0.9624  0.3240
  640MOL0     C88214   8.552   2.037  10.700  0.0122 -0.4217  0.1718
  640MOL0     C88215   8.639   2.141  10.729  0.1836  0.4073  0.0455
  640MOL0     C88216   8.779   2.137  10.715  0.1501  0.2768 -0.0958
  640MOL0     C88217   8.840   2.019  10.674 -0.6722  1.1941 -0.1841
  640MOL0     O88218   8.974   2.003  10.650 -0.0300  0.0145  0.4067
  640MOL0     C88219   9.054   2.124  10.660  0.3469 -0.7095  0.1104
  640MOL0     C88220   9.199   2.124  10.611  0.4658  0.6293 -0.2723
  640MOL0     C88221   9.254   2.267  10.605 -0.5118 -0.7675 -0.1739
  640MOL0     C88222   9.395   2.265  10.556 -0.5338  0.6336 -0.0499
  640MOL0     C88223   9.452   2.392  10.515  0.0867 -0.9752 -0.2386
  640MOL0     C88224   9.359   2.461  10.408 -0.9575  0.1456 -0.1909
  640MOL0     C88225   9.433   2.587  10.350 -0.5643 -0.5383  0.3217
  640MOL0     C88226   9.340   2.670  10.248  0.2627 -0.9745  1.0322
  640MOL0    Cl88227   9.412   2.816  10.200  0.2109  0.0764  0.4634
  640MOL0     C88228   8.753   1.909  10.655 -0.1269 -0.1485 -0.9841
  640MOL0     C88229   8.611   1.922  10.656 -0.2374 -0.1131  0.0485
  640MOL0     O88230   8.343   1.838  10.706 -0.7811  0.2688  0.6236
  640MOL0     C88231   8.149   2.138  10.736 -0.8154  0.0789 -0.0327
  640MOL0     C88232   8.034   2.196  10.787  0.2194 -0.0781  0.0555
  640MOL0     N88233   7.266   2.107  11.180  0.4377  0.9062  0.0649
  640MOL0     N88234   7.150   2.069  11.125 -0.4795  0.3564 -0.9094
  640MOL0     C88235   6.029   2.682  11.055 -0.0834 -0.1503 -0.9787
  640MOL0     C88236   5.944   2.788  11.089  0.2745  0.0471  0.9231
  640MOL0     C88237   5.731   3.201  11.092  0.0810  0.0674  0.3634
  640MOL0     C88238   5.711   3.187  11.229  0.0832  0.8927  1.1861
  640MOL0     C88239   5.621   3.263  11.303  0.5260 -0.7529 -0.2231
  640MOL0     C88240   5.540   3.356  11.231  0.1778  0.8265 -0.1844
  640MOL0     O88241   5.462   3.438  11.304  0.8386  0.0904  0.4312
  640MOL0     C88242   5.322   3.442  11.283 -0.7233  0.0326 -0.8686
  640MOL0     C88243   5.272   3.564  11.353  0.1614  0.3891  0.6311
  640MOL0     C88244   5.337   3.705  11.300  0.3859  0.2746  0.0632
  640MOL0     C88245   5.230   3.813  11.272  0.2196 -0.2689  0.0769
  640MOL0     C88246   5.290   3.928  11.192 -0.2265  0.3662 -0.2681
  640MOL0     C88247   5.345   4.023  11.145 -0.8823  0.1370 -0.3105
  640MOL0     C88248   5.551   3.367  11.093  0.4565  0.6454  0.4741
  640MOL0     C88249   5.653   3.303  11.025 -0.2145 -0.1180 -0.3799
  640MOL0     C88250   5.679   3.332  10.881  0.6710  0.8966 -0.8005
  640MOL0     H88251   6.075   3.041  10.914  1.8127  0.0730  1.1258
  640MOL0     H88252   6.252   2.862  10.874 -0.0199  1.9041  0.7043
  640MOL0     H88253   6.285   2.676  10.766 -0.5485  0.3943  1.7129
  640MOL0     H88254   6.159   2.550  10.751 -1.0034  0.0941  2.5365
  640MOL0     H88255   6.310   2.379  10.859  1.5924 -1.6446  0.0045
  640MOL0     H88256   6.346   2.420  10.690  2.1573  0.2902  0.3948
  640MOL0     H88257   6.529   2.561  10.753  0.7930  0.9238  0.5750
  640MOL0     H88258   6.491   2.533  10.933 -1.4173 -0.7580  0.9828
  640MOL0     H88259   6.525   2.283  10.891  2.5740 -2.1188 -1.1744
  640MOL0     H88260   6.590   2.336  10.734 -3.5455  0.9163 -1.1424
  640MOL0     H88261   6.682   2.397  11.021  1.0792  0.7969  0.5292
  640MOL0     H88262   6.757   2.463  10.884  0.5040 -0.8919 -2.4501
  640MOL0     H88263   6.738   2.152  10.944 -2.4687  0.5456 -1.2221
  640MOL0     H88264   6.792   2.216  10.792 -0.2264 -1.1868  1.2806
  640MOL0     H88265   6.915   2.269  11.070  1.5828  1.7566  0.6625
  640MOL0     H88266   6.964   2.346  10.927 -0.3415 -0.3084 -1.2770
  640MOL0     H88267   6.960   2.036  10.941 -0.4173 -1.3007 -4.2605
  640MOL0     H88268   7.045   2.130  10.826 -1.8566 -0.2612  0.4919
  640MOL0     H88269   7.253   2.292  10.914 -1.0922  1.6361  1.6575
  640MOL0     H88270   7.449   2.314  11.224 -0.0717  0.7929 -0.4450
  640MOL0     H88271   7.446   2.381  11.069 -1.0101 -0.8009 -0.0056
  640MOL0     H88272   7.660   2.278  11.090 -0.8460  1.3744 -1.8003
  640MOL0     H88273   7.586   2.126  11.154 -2.4636 -1.0727  0.6877
  640MOL0     H88274   7.487   2.090  10.923 -3.0261  2.2572  2.7941
  640MOL0     H88275   7.573   2.252  10.872 -1.4863  0.9082  2.2831
  640MOL0     H88276   7.699   2.002  10.939  0.4222  2.2254  2.2487
  640MOL0     H88277   7.662   2.037  10.774  3.8954  1.5257 -1.7958
  640MOL0     H88278   7.855   1.903  10.778 -1.6130  2.0047  0.7974
  640MOL0     H88279   8.111   1.718  10.622 -1.9379 -1.3714 -0.4111
  640MOL0     H88280   7.970   1.717  10.722  0.1359  0.0385 -0.3443
  640MOL0     H88281   8.136   1.723  10.794  0.8161 -0.2922  0.0114
  640MOL0     H88282   8.583   2.230  10.757 -1.8302 -0.8825  0.3391
  640MOL0     H88283   8.832   2.230  10.732  1.9869 -0.8645  0.7427
  640MOL0     H88284   9.006   2.203  10.602  0.4849 -1.4566 -1.0539
  640MOL0     H88285   9.056   2.149  10.766  0.6029  2.7093 -0.5820
  640MOL0     H88286   9.252   2.055  10.677 -0.7694 -2.1791 -2.0446
  640MOL0     H88287   9.201   2.073  10.514 -4.4309 -1.2042  0.3244
  640MOL0     H88288   9.247   2.320  10.701  1.1513 -3.4812  1.5911
  640MOL0     H88289   9.191   2.320  10.533 -0.8197  0.3795  0.8998
  640MOL0     H88290   9.396   2.193  10.474 -0.1662 -2.1349  2.2004
  640MOL0     H88291   9.461   2.215  10.628 -0.3636  0.6321 -0.2073
  640MOL0     H88292   9.487   2.456  10.596  1.6737 -1.8031 -0.2113
  640MOL0     H88293   9.544   2.358  10.466 -0.5401 -0.7779 -1.6146
  640MOL0     H88294   9.264   2.499  10.447 -0.9780  0.5042 -0.5726
  640MOL0     H88295   9.330   2.393  10.327 -2.6660  2.9016 -2.1046
  640MOL0     H88296   9.523   2.547  10.303  0.6240  1.8827  0.3820
  640MOL0     H88297   9.459   2.668  10.419 -0.7521  1.6463 -2.0610
  640MOL0     H88298   9.246   2.693  10.298  0.8713  1.1605  1.2781
  640MOL0     H88299   9.329   2.609  10.158  1.5219  0.4834 -0.1608
  640MOL0     H88300   8.796   1.812  10.633 -0.1769 -1.3199  3.2879
  640MOL0     H88301   8.563   1.829  10.626  3.0604 -1.1604 -2.6208
  640MOL0     H88302   8.238   2.202  10.736  0.9109 -2.1819 -0.9780
  640MOL0     H88303   8.018   2.301  10.806 -0.2871 -0.3202  1.0603
  640MOL0     H88304   6.016   2.584  11.100 -0.6153  0.3113 -0.1065
  640MOL0     H88305   5.854   2.772  11.148 -1.0335 -0.9563 -1.2348
  640MOL0     H88306   5.776   3.120  11.284  1.5470  1.7476  0.5778
  640MOL0     H88307   5.644   3.262  11.409  3.9246  3.3804 -0.6333
  640MOL0     H88308   5.295   3.441  11.177 -3.1526  1.3629 -0.3512
  640MOL0     H88309   5.273   3.354  11.325  0.1548  0.5589  1.4093
  640MOL0     H88310   5.283   3.554  11.462  1.7325 -0.2601  0.4354
  640MOL0     H88311   5.164   3.577  11.345 -0.2596 -2.1757  1.2141
  640MOL0     H88312   5.416   3.736  11.369  0.5711 -1.7195  0.8329
  640MOL0     H88313   5.394   3.676  11.211 -0.4881 -2.0373  0.1817
  640MOL0     H88314   5.193   3.857  11.366  0.3263  0.0024 -0.0058
  640MOL0     H88315   5.145   3.772  11.216  2.5681 -1.9255 -2.5186
  640MOL0     H88316   5.412   4.104  11.122 -1.0985 -0.0338 -1.6271
  640MOL0     H88317   5.491   3.442  11.043  0.3815 -1.2209 -2.4488
  640MOL0     H88318   5.776   3.381  10.889  0.2652  1.7877 -1.1872
  640MOL0     H88319   5.676   3.236  10.829 -0.5410  0.0942  0.6797
  640MOL0     H88320   5.606   3.402  10.839 -0.6137  2.1290  3.1054
  641MOL0     O88321   4.537   2.274   5.437  0.2196 -0.2445 -0.2641
  641MOL0     C88322   4.422   2.298   5.397  0.9530  0.9753 -0.3143
  641MOL0     O88323   4.395   2.358   5.281  0.1767  0.3848 -0.7034
  641MOL0     C88324   4.491   2.417   5.207 -0.2237 -0.9308  0.3668
  641MOL0     C88325   4.472   2.409   5.069 -0.6186  0.7343  0.4256
  641MOL0     C88326   4.561   2.474   4.988 -0.4430 -0.9939 -0.0801
  641MOL0     C88327   4.670   2.550   5.035 -0.3319 -1.2290 -0.1290
  641MOL0     O88328   4.767   2.620   4.961 -0.3455  0.0494 -0.2317
  641MOL0     C88329   4.768   2.604   4.818  0.2674  0.4324  0.8117
  641MOL0     C88330   4.754   2.749   4.753  0.6868  0.5844 -0.0986
  641MOL0     C88331   4.741   2.748   4.594 -0.2488  0.3386  0.0922
  641MOL0     C88332   4.829   2.853   4.526 -0.2541 -0.4521 -0.5904
  641MOL0     C88333   4.848   2.817   4.379 -0.2895  0.5381  0.1229
  641MOL0     C88334   4.956   2.901   4.308  0.0532 -0.1628  0.2056
  641MOL0     C88335   5.066   2.809   4.254 -0.5315 -0.2339 -0.2555
  641MOL0     C88336   5.179   2.892   4.190  0.3707  0.1336 -0.1922
  641MOL0     N88337   5.286   2.799   4.141 -0.8908  0.3367 -0.6068
  641MOL0     C88338   5.354   2.712   4.220 -0.2627  0.9785  0.1124
  641MOL0     C88339   5.419   2.628   4.134 -1.4726 -0.1985 -0.0582
  641MOL0     C88340   5.514   2.522   4.179 -0.5654 -0.3287  0.5518
  641MOL0     C88341   5.662   2.540   4.149 -0.1829 -0.2298 -0.2086
  641MOL0     C88342   5.745   2.434   4.218  0.6437  0.3130 -0.7433
  641MOL0     C88343   5.897   2.442   4.204  0.3752  0.1439 -0.7349
  641MOL0     O88344   5.938   2.562   4.260  0.1252 -0.7051  0.3635
  641MOL0     C88345   6.065   2.598   4.234 -0.1100 -0.1334 -0.3444
  641MOL0     C88346   6.166   2.503   4.232  0.1141  0.4025 -0.4911
  641MOL0     C88347   6.303   2.539   4.227 -0.6556  0.6788 -0.4747
  641MOL0     C88348   6.394   2.420   4.221 -0.1353 -0.1540 -0.0709
  641MOL0     C88349   6.336   2.673   4.198  0.0729 -0.4176 -0.1962
  641MOL0     C88350   6.469   2.723   4.166 -0.1531 -0.0125  0.9497
  641MOL0     O88351   6.581   2.640   4.188  0.3096 -0.4490 -0.2307
  641MOL0     C88352   6.689   2.679   4.121  0.5315 -0.0487 -0.0625
  641MOL0     C88353   6.731   2.613   4.008 -0.4332 -0.2900  0.0501
  641MOL0     C88354   6.858   2.641   3.947 -0.0973  0.4169 -0.1942
  641MOL0     C88355   6.940   2.733   4.009 -0.5376  0.6743  0.7461
  641MOL0     O88356   7.056   2.754   3.939 -0.0781 -0.3415  0.5136
  641MOL0     C88357   7.158   2.835   3.995 -0.3587  0.2648 -0.1306
  641MOL0     C88358   7.264   2.836   3.881  0.5671  0.0121 -0.0969
  641MOL0     C88359   7.401   2.874   3.940 -0.3151  0.0234  1.0152
  641MOL0     C88360   7.510   2.865   3.838 -1.0900  0.1688 -0.1184
  641MOL0     C88361   7.529   2.997   3.761  0.1951  0.4632  0.0025
  641MOL0     C88362   7.602   3.108   3.839 -0.2815 -0.4150  1.1102
  641MOL0     C88363   7.599   3.247   3.755 -0.6858 -0.1187 -0.1943
  641MOL0     C88364   7.687   3.352   3.823 -0.6515 -0.5822  0.4130
  641MOL0    Cl88365   7.865   3.336   3.795  0.6617 -0.0828 -0.0747
  641MOL0     C88366   6.903   2.794   4.128 -0.9132  0.6950 -0.1228
  641MOL0     C88367   6.771   2.778   4.179 -0.5558 -0.4714  0.4096
  641MOL0     O88368   6.478   2.834   4.115 -0.1754  0.8420  0.0596
  641MOL0     C88369   6.234   2.767   4.191  0.0195  0.2375 -0.1798
  641MOL0     C88370   6.102   2.732   4.216 -0.8283  0.2072 -0.4679
  641MOL0     N88371   5.393   2.666   4.004 -0.8749  0.1957  0.8386
  641MOL0     N88372   5.308   2.760   4.010 -0.5603 -0.1689 -0.7891
  641MOL0     C88373   4.688   2.558   5.176  0.2578  0.2273  0.2636
  641MOL0     C88374   4.593   2.497   5.266 -0.1654 -0.7587  0.2010
  641MOL0     C88375   4.308   2.287   5.492  0.7835 -0.5839 -0.0158
  641MOL0     C88376   4.203   2.372   5.465  0.2716 -1.3847 -0.6996
  641MOL0     C88377   4.093   2.381   5.547 -0.3294 -0.1189 -0.3934
  641MOL0     C88378   4.081   2.309   5.661 -0.9502  0.9540 -0.4605
  641MOL0     O88379   3.992   2.324   5.764  0.6586  0.3844 -0.6905
  641MOL0     C88380   3.897   2.430   5.776  0.3747 -0.3331  0.8516
  641MOL0     C88381   3.907   2.487   5.919 -0.5742  0.0024 -0.1607
  641MOL0     C88382   4.050   2.533   5.960  0.0621 -0.0918 -0.3185
  641MOL0     C88383   4.048   2.583   6.111  0.2454 -0.3852 -0.3372
  641MOL0     C88384   4.169   2.666   6.117 -0.3487 -1.1311  0.5799
  641MOL0     C88385   4.267   2.738   6.111  1.1454 -0.7548  0.0777
  641MOL0     C88386   4.187   2.218   5.682  0.9569 -1.0361  0.1313
  641MOL0     C88387   4.298   2.203   5.606  0.2455 -0.3306 -0.5734
  641MOL0     C88388   4.417   2.115   5.641  0.3581  0.2016 -0.5888
  641MOL0     H88389   4.399   2.344   5.023  1.7543  0.0112 -2.6737
  641MOL0     H88390   4.536   2.456   4.884  0.1447 -1.4514 -0.1473
  641MOL0     H88391   4.696   2.534   4.775  1.3965 -0.0767 -0.3112
  641MOL0     H88392   4.869   2.578   4.786  0.7671  3.9658 -1.0250
  641MOL0     H88393   4.666   2.801   4.792  2.2640  2.0830  1.6380
  641MOL0     H88394   4.844   2.796   4.793  1.5522 -1.1746  0.1362
  641MOL0     H88395   4.768   2.651   4.551  0.8834  0.5629  0.2855
  641MOL0     H88396   4.637   2.770   4.568 -0.8511 -1.6822  0.5874
  641MOL0     H88397   4.789   2.953   4.545 -2.4931 -1.6590  1.4813
  641MOL0     H88398   4.919   2.843   4.587  0.2747  0.1046 -1.2537
  641MOL0     H88399   4.757   2.845   4.325  0.7545  3.1448 -0.3845
  641MOL0     H88400   4.863   2.709   4.365 -2.0253  0.2989 -0.0809
  641MOL0     H88401   4.912   2.956   4.224 -4.3513  1.9821  3.4813
  641MOL0     H88402   5.007   2.973   4.373  1.2597 -0.8493  0.0666
  641MOL0     H88403   5.019   2.749   4.176 -1.1075  0.3012 -0.3252
  641MOL0     H88404   5.095   2.743   4.336 -0.9100  0.9191  0.8486
  641MOL0     H88405   5.135   2.956   4.112 -1.5466 -1.8058 -0.8069
  641MOL0     H88406   5.213   2.967   4.261  0.9315 -2.3656  2.3666
  641MOL0     H88407   5.342   2.702   4.328  0.2262  0.7204  0.1496
  641MOL0     H88408   5.471   2.447   4.111 -0.2046 -0.6792  0.7092
  641MOL0     H88409   5.505   2.493   4.284 -0.3492  0.6662  0.8515
  641MOL0     H88410   5.683   2.532   4.042  0.3991  0.9304 -0.1963
  641MOL0     H88411   5.698   2.642   4.168  2.1810 -0.8212 -1.2188
  641MOL0     H88412   5.727   2.434   4.326  1.9129  2.7017 -0.4472
  641MOL0     H88413   5.715   2.336   4.180  0.8046 -0.6452  1.4709
  641MOL0     H88414   5.936   2.353   4.254  0.4224 -1.3589 -3.2947
  641MOL0     H88415   5.918   2.443   4.097  0.6435 -3.5848 -0.8427
  641MOL0     H88416   6.134   2.400   4.244  2.8541 -0.5065 -0.2115
  641MOL0     H88417   6.435   2.406   4.121  0.4487 -2.0312  0.3982
  641MOL0     H88418   6.342   2.331   4.260 -1.8982  1.0973  0.5925
  641MOL0     H88419   6.478   2.433   4.290 -2.1110  1.5915  2.1917
  641MOL0     H88420   6.680   2.527   3.968  1.2385 -2.4043  2.1982
  641MOL0     H88421   6.894   2.589   3.858  2.0007 -1.3305  1.5398
  641MOL0     H88422   7.134   2.940   4.013 -2.3806  0.3387 -2.7250
  641MOL0     H88423   7.193   2.781   4.083 -0.1907 -2.7967 -1.9307
  641MOL0     H88424   7.290   2.736   3.847  1.5732  0.0385  0.5670
  641MOL0     H88425   7.240   2.902   3.797  0.6223 -1.2043 -1.0866
  641MOL0     H88426   7.433   2.808   4.021  0.0376 -2.4208 -1.0251
  641MOL0     H88427   7.388   2.977   3.976 -0.8999  0.5731 -0.6526
  641MOL0     H88428   7.497   2.782   3.768 -1.2883  1.0685 -1.1804
  641MOL0     H88429   7.605   2.838   3.885 -1.0097 -0.1914 -0.4846
  641MOL0     H88430   7.594   2.971   3.677  0.4000  0.8468  0.0394
  641MOL0     H88431   7.434   3.032   3.719  0.4302  1.3540  0.1702
  641MOL0     H88432   7.707   3.077   3.846  0.1234  0.0605 -1.7114
  641MOL0     H88433   7.555   3.114   3.937  0.6863 -1.7696  1.6977
  641MOL0     H88434   7.497   3.288   3.760 -0.2968  0.9655 -0.9339
  641MOL0     H88435   7.626   3.231   3.650  0.8031 -2.8248  0.5106
  641MOL0     H88436   7.669   3.354   3.931 -0.0828  1.5341  0.5082
  641MOL0     H88437   7.670   3.455   3.792 -0.2106 -0.6985 -0.2189
  641MOL0     H88438   6.971   2.853   4.188  1.4907  0.2517 -2.2154
  641MOL0     H88439   6.748   2.830   4.271  0.1288 -0.3572  0.5202
  641MOL0     H88440   6.253   2.866   4.151  2.4255 -0.2426 -0.3783
  641MOL0     H88441   6.017   2.799   4.208 -1.3881 -0.7042 -2.9329
  641MOL0     H88442   4.775   2.605   5.220 -1.1095  1.8631  1.3365
  641MOL0     H88443   4.596   2.508   5.374 -0.6952  0.4656  0.1119
  641MOL0     H88444   4.197   2.444   5.384  1.1983 -0.4648  0.0251
  641MOL0     H88445   4.010   2.451   5.541 -0.4233 -0.0273  1.4936
  641MOL0     H88446   3.920   2.509   5.703 -2.2081 -2.1841 -2.2196
  641MOL0     H88447   3.804   2.390   5.734  0.0888  1.5472 -0.4459
  641MOL0     H88448   3.874   2.412   5.992  0.4900  1.1879  1.6201
  641MOL0     H88449   3.838   2.572   5.930 -0.3809  0.0858  0.4631
  641MOL0     H88450   4.121   2.451   5.968 -0.1540 -0.3619 -1.1148
  641MOL0     H88451   4.088   2.608   5.891 -2.9008  0.6031 -1.3447
  641MOL0     H88452   4.049   2.497   6.179 -2.0604 -1.6254 -1.7139
  641MOL0     H88453   3.953   2.630   6.139  1.3924  1.4994  0.6083
  641MOL0     H88454   4.347   2.810   6.111 -1.1071  1.9493  1.4679
  641MOL0     H88455   4.181   2.154   5.769  0.7895  1.5313  2.1412
  641MOL0     H88456   4.438   2.058   5.550  0.6119 -3.2135  1.4799
  641MOL0     H88457   4.505   2.167   5.679  0.2518  0.8470 -1.1894
  641MOL0     H88458   4.385   2.038   5.711  1.4667 -0.0622 -0.3614
  642MOL0     O88459   3.778   8.902   3.030 -0.1290 -0.0924  0.1167
  642MOL0     C88460   3.789   8.994   3.111 -0.0628 -0.0316 -0.6173
  642MOL0     O88461   3.897   9.026   3.195 -0.3672 -0.8854  1.1043
  642MOL0     C88462   4.014   8.970   3.161  0.9162 -0.6823 -0.2253
  642MOL0     C88463   4.080   8.981   3.041 -0.2265  0.4804 -0.5036
  642MOL0     C88464   4.196   8.910   3.011 -0.2385 -0.0993  0.3051
  642MOL0     C88465   4.249   8.817   3.094 -0.2546  0.7651 -0.6413
  642MOL0     O88466   4.364   8.754   3.055  0.1007  0.4002 -0.5503
  642MOL0     C88467   4.467   8.719   3.147 -0.3377 -0.1358 -0.0349
  642MOL0     C88468   4.602   8.740   3.082 -0.8357 -0.7177  1.1855
  642MOL0     C88469   4.722   8.734   3.179  0.5559  0.3036 -0.7906
  642MOL0     C88470   4.851   8.762   3.110 -0.1729  0.1234 -0.3609
  642MOL0     C88471   4.976   8.759   3.208 -0.4259  0.0271  0.1842
  642MOL0     C88472   4.998   8.615   3.268  1.5605  0.1461 -0.3651
  642MOL0     C88473   5.132   8.600   3.343 -0.0267 -0.4012  0.0744
  642MOL0     C88474   5.148   8.467   3.411  0.3357 -0.2057 -0.6883
  642MOL0     N88475   5.272   8.464   3.488  0.3084 -0.1982 -0.5181
  642MOL0     C88476   5.328   8.568   3.561  0.3164 -0.7080  0.2975
  642MOL0     C88477   5.456   8.532   3.593  0.1542 -1.1393 -0.1091
  642MOL0     C88478   5.561   8.611   3.673  0.3097 -0.1096 -0.1990
  642MOL0     C88479   5.706   8.591   3.621  0.4036 -1.2522 -0.6119
  642MOL0     C88480   5.712   8.639   3.476  0.1748 -0.5979 -0.3311
  642MOL0     C88481   5.855   8.624   3.427 -0.4495  1.1665  0.1492
  642MOL0     O88482   5.946   8.689   3.519  0.2559 -1.3855  0.9895
  642MOL0     C88483   6.085   8.675   3.494 -0.7445  0.8540 -0.5730
  642MOL0     C88484   6.170   8.745   3.587  0.1782 -0.5771  0.0875
  642MOL0     C88485   6.309   8.724   3.594  1.0589  0.1958 -0.3812
  642MOL0     C88486   6.382   8.776   3.723  1.0246  0.3871  0.3788
  642MOL0     C88487   6.367   8.656   3.481  0.2322  0.5177  0.5821
  642MOL0     C88488   6.511   8.632   3.457  0.4405 -0.1150  0.0550
  642MOL0     O88489   6.545   8.600   3.328 -0.4038  0.3319 -0.3606
  642MOL0     C88490   6.681   8.598   3.307 -0.1493  0.3949  1.0011
  642MOL0     C88491   6.748   8.475   3.302 -1.1451 -0.1802 -0.4130
  642MOL0     C88492   6.888   8.477   3.282  0.2476 -0.1016  0.1967
  642MOL0     C88493   6.957   8.597   3.265 -0.2111 -0.1451 -0.7917
  642MOL0     O88494   7.091   8.606   3.273 -0.4397  0.2082  0.3079
  642MOL0     C88495   7.168   8.477   3.265  0.3982 -1.3424 -1.1958
  642MOL0     C88496   7.184   8.413   3.408 -0.1056  0.0112  0.6180
  642MOL0     C88497   7.261   8.502   3.506  0.0530 -0.8730 -0.4065
  642MOL0     C88498   7.335   8.413   3.602  0.5944 -1.2136  0.7219
  642MOL0     C88499   7.414   8.503   3.708 -0.1190 -0.1529  0.1630
  642MOL0     C88500   7.491   8.410   3.799 -0.0407  0.3354 -0.6511
  642MOL0     C88501   7.563   8.499   3.901 -0.9572 -0.3549 -0.0898
  642MOL0     C88502   7.644   8.417   4.003  0.7254  0.4329  0.3525
  642MOL0    Cl88503   7.532   8.303   4.094 -0.2276 -0.1372 -0.1931
  642MOL0     C88504   6.885   8.715   3.264  0.1750 -0.6365 -0.2074
  642MOL0     C88505   6.749   8.720   3.285  0.6611  0.0898  0.4545
  642MOL0     O88506   6.584   8.666   3.554  0.1749 -0.3445  0.2681
  642MOL0     C88507   6.281   8.593   3.395  0.3124 -0.8239  0.0434
  642MOL0     C88508   6.142   8.590   3.404  0.3625 -0.2051 -0.2322
  642MOL0     N88509   5.474   8.397   3.567  0.1169 -0.5992  0.0243
  642MOL0     N88510   5.362   8.361   3.498  0.2710 -0.1317 -0.5610
  642MOL0     C88511   4.185   8.807   3.220 -1.0541  0.0405 -0.0203
  642MOL0     C88512   4.072   8.879   3.252 -0.4125  0.4483  0.1434
  642MOL0     C88513   3.669   9.071   3.144 -0.6829  0.5662 -0.1322
  642MOL0     C88514   3.669   9.211   3.142  0.6878 -0.7233  0.4234
  642MOL0     C88515   3.556   9.282   3.161  0.4390  0.1199 -0.3679
  642MOL0     C88516   3.437   9.214   3.185  1.3845 -0.2163  0.0799
  642MOL0     O88517   3.318   9.268   3.152 -0.0836 -0.0605 -0.2131
  642MOL0     C88518   3.265   9.264   3.013  0.6921  0.4195 -0.4652
  642MOL0     C88519   3.168   9.388   2.996 -0.2731  0.7506  0.0929
  642MOL0     C88520   3.106   9.413   2.853  0.0165 -0.2034 -0.2517
  642MOL0     C88521   2.990   9.516   2.854  0.5825  0.3746  0.7706
  642MOL0     C88522   2.880   9.462   2.930 -0.4002 -0.8283  0.6176
  642MOL0     C88523   2.797   9.422   3.007 -0.5963 -0.4261 -0.4623
  642MOL0     C88524   3.435   9.075   3.198  0.1942 -0.2599  0.7255
  642MOL0     C88525   3.552   9.001   3.177  0.3545  0.5457 -0.3908
  642MOL0     C88526   3.541   8.845   3.164  0.0146  0.7139 -0.4965
  642MOL0     H88527   4.041   9.047   2.964  1.3797  0.7225 -1.1376
  642MOL0     H88528   4.252   8.914   2.918  1.1353 -1.3663  1.0276
  642MOL0     H88529   4.439   8.615   3.164 -2.9570  0.3243 -0.9506
  642MOL0     H88530   4.463   8.777   3.239  1.0404 -2.2630  1.4479
  642MOL0     H88531   4.606   8.683   2.988 -1.7724  0.5589  0.3481
  642MOL0     H88532   4.609   8.840   3.040  1.5175 -1.2859  0.0331
  642MOL0     H88533   4.706   8.801   3.264 -1.2324 -1.3994  0.3150
  642MOL0     H88534   4.722   8.631   3.217  1.8614 -0.7309 -3.3415
  642MOL0     H88535   4.872   8.689   3.031  1.8506  3.1698 -2.9367
  642MOL0     H88536   4.836   8.855   3.054 -0.5005 -0.2306 -0.8803
  642MOL0     H88537   4.964   8.838   3.282  0.0612  1.2986 -1.0439
  642MOL0     H88538   5.059   8.786   3.142 -2.6744 -0.9672 -3.3720
  642MOL0     H88539   4.912   8.595   3.333  1.2803  0.8783 -0.5106
  642MOL0     H88540   4.992   8.533   3.196  1.1784 -1.5477  1.4753
  642MOL0     H88541   5.147   8.682   3.415  1.7484 -0.3225 -0.3294
  642MOL0     H88542   5.209   8.614   3.267  0.0294 -0.1102  0.1824
  642MOL0     H88543   5.062   8.452   3.477  0.4142  2.3150  0.0844
  642MOL0     H88544   5.152   8.382   3.343  0.3282 -2.5045  2.0128
  642MOL0     H88545   5.285   8.667   3.576  0.4705  0.0548 -3.2554
  642MOL0     H88546   5.566   8.558   3.769 -1.3716 -0.6397 -0.3696
  642MOL0     H88547   5.539   8.717   3.688  1.9645  0.1744  0.4737
  642MOL0     H88548   5.777   8.658   3.669  1.8660 -2.6253 -0.7870
  642MOL0     H88549   5.730   8.486   3.640 -0.9834 -1.2231  1.7659
  642MOL0     H88550   5.651   8.582   3.405  2.0718 -0.5579 -2.0758
  642MOL0     H88551   5.680   8.741   3.456 -0.0273 -0.7703 -0.9086
  642MOL0     H88552   5.880   8.518   3.416 -0.5585  1.2321 -0.8793
  642MOL0     H88553   5.866   8.670   3.328  0.9965  2.9282  1.0706
  642MOL0     H88554   6.125   8.807   3.663  0.1334  0.5370 -0.8345
  642MOL0     H88555   6.474   8.824   3.687  0.4614  0.7855 -0.5432
  642MOL0     H88556   6.397   8.684   3.780 -0.7869 -0.5558 -0.5771
  642MOL0     H88557   6.320   8.844   3.783 -2.7968 -1.3803 -1.2395
  642MOL0     H88558   6.694   8.382   3.313  0.0471 -0.7681  0.8135
  642MOL0     H88559   6.944   8.385   3.274  1.8589  0.7636  1.1879
  642MOL0     H88560   7.123   8.400   3.202  2.8419 -2.8312 -1.2489
  642MOL0     H88561   7.261   8.508   3.217 -1.1476  5.1403 -0.9133
  642MOL0     H88562   7.082   8.393   3.442 -1.8091  3.3843 -1.9126
  642MOL0     H88563   7.239   8.320   3.393  2.3363  1.1761  1.6667
  642MOL0     H88564   7.198   8.566   3.568 -1.5136  0.0589 -2.7974
  642MOL0     H88565   7.333   8.569   3.458 -0.1352  0.0050  0.5148
  642MOL0     H88566   7.410   8.375   3.532 -2.0530  0.2894 -3.2881
  642MOL0     H88567   7.281   8.331   3.650 -1.1300  0.2217  1.3253
  642MOL0     H88568   7.486   8.570   3.661 -1.4971  0.4084 -1.2617
  642MOL0     H88569   7.344   8.574   3.754 -2.1346 -0.5603 -2.0434
  642MOL0     H88570   7.557   8.345   3.740  0.9665 -2.1489  2.8395
  642MOL0     H88571   7.426   8.346   3.861  1.1348  1.3126  1.7328
  642MOL0     H88572   7.493   8.558   3.960  0.7711  1.5604  0.1540
  642MOL0     H88573   7.628   8.563   3.841 -0.3422  0.3501  1.2637
  642MOL0     H88574   7.696   8.479   4.076  2.0298  0.8385 -0.8789
  642MOL0     H88575   7.705   8.352   3.938 -0.1592  0.5544 -0.6284
  642MOL0     H88576   6.955   8.798   3.259 -0.1113 -0.2015  1.9639
  642MOL0     H88577   6.702   8.817   3.293 -1.1632 -0.6668 -0.4016
  642MOL0     H88578   6.327   8.524   3.325 -0.3177 -0.6383 -0.5634
  642MOL0     H88579   6.079   8.541   3.330 -1.9901  0.1584  1.4273
  642MOL0     H88580   4.227   8.728   3.281 -3.1143 -1.3533 -0.3171
  642MOL0     H88581   4.034   8.877   3.353  0.7248  0.7398  0.5854
  642MOL0     H88582   3.763   9.262   3.124 -0.8922  1.5957 -2.0123
  642MOL0     H88583   3.559   9.390   3.150  2.8646  0.3388  1.6526
  642MOL0     H88584   3.349   9.278   2.943  1.1895  1.3056  0.2852
  642MOL0     H88585   3.212   9.169   3.012  0.2343  0.6338  1.0961
  642MOL0     H88586   3.235   9.470   3.022 -1.2376  0.7043  3.1367
  642MOL0     H88587   3.092   9.376   3.074  1.9091  0.9132  2.3475
  642MOL0     H88588   3.186   9.447   2.788  0.9671  1.7020  1.7512
  642MOL0     H88589   3.074   9.316   2.814  0.5368 -1.0175  1.2633
  642MOL0     H88590   2.955   9.531   2.751 -2.6382  1.9538  1.9415
  642MOL0     H88591   3.020   9.614   2.893 -0.7313 -0.2410  3.6058
  642MOL0     H88592   2.716   9.391   3.070 -0.9288  3.8021  1.5367
  642MOL0     H88593   3.343   9.019   3.208  0.1182 -0.0388  1.3355
  642MOL0     H88594   3.611   8.792   3.228 -1.0964 -0.0974  0.0885
  642MOL0     H88595   3.441   8.806   3.187  0.5105  0.1560  0.7499
  642MOL0     H88596   3.564   8.818   3.060 -0.3700 -1.9676  0.0423
  643MOL0     O88597   5.266   5.081   2.806 -0.0065 -0.1593  0.2910
  643MOL0     C88598   5.353   5.011   2.852  1.6311 -0.1493  0.0665
  643MOL0     O88599   5.475   5.017   2.805 -0.0420  0.3286 -0.5701
  643MOL0     C88600   5.504   5.081   2.692  0.2080  0.2467 -0.2682
  643MOL0     C88601   5.506   5.019   2.573  1.4413  0.4049 -0.1473
  643MOL0     C88602   5.533   5.088   2.452 -0.4408 -0.3596 -0.0625
  643MOL0     C88603   5.581   5.220   2.454  0.0565  0.5061 -0.2396
  643MOL0     O88604   5.603   5.297   2.345  0.6742  0.3066  0.5526
  643MOL0     C88605   5.538   5.265   2.219 -0.3629 -0.1728 -0.2862
  643MOL0     C88606   5.626   5.177   2.132  0.9989  0.8795 -0.4691
  643MOL0     C88607   5.751   5.254   2.096  0.1713 -0.6535 -0.1610
  643MOL0     C88608   5.849   5.164   2.022 -1.1130  0.3469 -0.1769
  643MOL0     C88609   5.986   5.234   1.982  0.2762 -0.1158 -0.3335
  643MOL0     C88610   6.061   5.141   1.891  0.8108  0.6331  0.0642
  643MOL0     C88611   6.015   5.104   1.746  0.3565 -0.2915 -0.4601
  643MOL0     C88612   6.086   4.983   1.685 -0.0560 -0.0414  0.2228
  643MOL0     N88613   6.219   5.019   1.646 -0.6840  0.0279 -0.0241
  643MOL0     C88614   6.332   4.999   1.730  1.2034  0.4589  0.2456
  643MOL0     C88615   6.441   5.018   1.649  0.1216  0.3085  0.6643
  643MOL0     C88616   6.583   4.988   1.683  0.0663 -0.9613 -0.2279
  643MOL0     C88617   6.603   4.836   1.705 -0.5555  0.3953 -0.8269
  643MOL0     C88618   6.753   4.807   1.734 -0.2387  0.1871 -0.6119
  643MOL0     C88619   6.774   4.656   1.708 -0.5913  0.2334 -0.1961
  643MOL0     O88620   6.918   4.634   1.684  0.4589  0.8568  0.4502
  643MOL0     C88621   6.997   4.632   1.797 -0.0671 -0.0960  0.1627
  643MOL0     C88622   7.130   4.673   1.774 -0.6854  1.1201  0.8983
  643MOL0     C88623   7.216   4.689   1.878  0.5916 -0.7965 -0.0741
  643MOL0     C88624   7.364   4.693   1.856  0.2371 -0.4819 -0.3456
  643MOL0     C88625   7.176   4.684   2.019 -0.0942  0.1098  0.1398
  643MOL0     C88626   7.256   4.719   2.139  0.4334 -0.4620 -0.1959
  643MOL0     O88627   7.369   4.793   2.114  0.0370 -0.1504  0.4675
  643MOL0     C88628   7.453   4.845   2.210 -0.5339  0.0226  0.1732
  643MOL0     C88629   7.585   4.812   2.196 -0.4083  0.3108 -0.3827
  643MOL0     C88630   7.673   4.866   2.290  0.3307  0.4549  0.0039
  643MOL0     C88631   7.638   4.960   2.383 -0.6669 -0.5269  0.2885
  643MOL0     O88632   7.748   5.009   2.462 -0.3586  0.0058  0.3487
  643MOL0     C88633   7.743   5.139   2.507 -0.5103 -0.4175 -0.1330
  643MOL0     C88634   7.882   5.159   2.581 -0.1677  0.5615 -0.2474
  643MOL0     C88635   7.984   5.174   2.474  0.3135  0.9406  0.1415
  643MOL0     C88636   8.124   5.174   2.543 -0.8482  0.0613 -0.4102
  643MOL0     C88637   8.239   5.207   2.446  0.1963  0.4078 -0.2167
  643MOL0     C88638   8.378   5.227   2.497 -0.1824  0.3356 -0.7759
  643MOL0     C88639   8.475   5.212   2.381  0.0138  0.0108 -0.3497
  643MOL0     C88640   8.604   5.155   2.426 -0.1702 -0.4680  0.4317
  643MOL0    Cl88641   8.601   4.984   2.423 -0.4361 -0.0519 -0.1112
  643MOL0     C88642   7.503   4.985   2.408  0.5525  0.0747  0.6787
  643MOL0     C88643   7.410   4.941   2.310  0.0877  0.9139 -0.2626
  643MOL0     O88644   7.218   4.694   2.251 -0.5979 -0.5146 -0.6034
  643MOL0     C88645   7.040   4.642   2.043 -0.2136 -0.5629 -0.5276
  643MOL0     C88646   6.957   4.611   1.933  0.1625  0.0940 -0.4400
  643MOL0     N88647   6.393   5.047   1.522 -0.6765  0.1305 -0.1886
  643MOL0     N88648   6.266   5.060   1.527  0.5553 -0.1410  0.3146
  643MOL0     C88649   5.590   5.281   2.582 -0.5954 -0.1575 -0.0770
  643MOL0     C88650   5.543   5.214   2.698 -0.9133  0.3389 -0.2610
  643MOL0     C88651   5.319   4.896   2.943 -0.7664  0.0370  0.1989
  643MOL0     C88652   5.407   4.785   2.933 -0.4399 -0.4872 -1.4290
  643MOL0     C88653   5.378   4.668   3.006 -0.9750 -0.5266 -0.5457
  643MOL0     C88654   5.267   4.667   3.086  0.6079  0.0635 -0.3838
  643MOL0     O88655   5.251   4.549   3.160  0.0766  0.4935  0.4393
  643MOL0     C88656   5.135   4.534   3.235  0.8940  0.6208  0.5116
  643MOL0     C88657   5.019   4.487   3.136 -0.3900 -0.1699 -0.0155
  643MOL0     C88658   4.892   4.456   3.217 -0.3778  0.5103  0.1009
  643MOL0     C88659   4.799   4.352   3.148  0.3044 -0.7890 -0.8665
  643MOL0     C88660   4.719   4.273   3.239  0.3961 -0.3122  0.7763
  643MOL0     C88661   4.649   4.217   3.323 -0.4862 -0.4972  0.2853
  643MOL0     C88662   5.179   4.779   3.101  0.8116  0.8012  0.4527
  643MOL0     C88663   5.208   4.894   3.026 -0.5708  0.0491  0.2031
  643MOL0     C88664   5.123   5.013   3.058  0.2632  0.1594  0.0382
  643MOL0     H88665   5.455   4.924   2.567 -2.6235  2.0744  2.8055
  643MOL0     H88666   5.525   5.035   2.357 -0.4543 -1.1704  0.3774
  643MOL0     H88667   5.511   5.361   2.174 -1.0065 -1.0151 -1.7958
  643MOL0     H88668   5.435   5.233   2.242 -1.1281  2.0423 -0.3291
  643MOL0     H88669   5.648   5.080   2.177 -1.6941  0.5890  0.3526
  643MOL0     H88670   5.573   5.148   2.041  1.4971 -3.1507  0.3343
  643MOL0     H88671   5.736   5.347   2.042  2.9915  0.2697  0.4980
  643MOL0     H88672   5.807   5.283   2.185 -1.0761 -0.5978  0.6290
  643MOL0     H88673   5.869   5.077   2.086  0.7711  2.7061  2.7072
  643MOL0     H88674   5.808   5.129   1.927  2.1347  0.3555 -1.7130
  643MOL0     H88675   6.038   5.273   2.070 -2.4349  0.6504  1.0440
  643MOL0     H88676   5.963   5.326   1.926 -1.7753  1.1386  2.3690
  643MOL0     H88677   6.156   5.194   1.889  0.3011  1.5463 -0.5821
  643MOL0     H88678   6.067   5.050   1.952 -1.6321  0.6234  0.3938
  643MOL0     H88679   6.030   5.190   1.681  0.8459  1.0450  1.3318
  643MOL0     H88680   5.908   5.081   1.745  0.2306  0.1812  0.6803
  643MOL0     H88681   6.083   4.898   1.755 -2.5161 -1.1868 -1.1150
  643MOL0     H88682   6.027   4.943   1.602 -0.7291  0.9107  0.2257
  643MOL0     H88683   6.338   4.980   1.836 -2.7828 -2.3398  0.1949
  643MOL0     H88684   6.604   5.046   1.773 -0.0802  0.1136 -0.8695
  643MOL0     H88685   6.649   5.017   1.601 -0.1609 -0.7301 -0.3298
  643MOL0     H88686   6.544   4.823   1.796  1.0280  2.0080  0.5163
  643MOL0     H88687   6.565   4.784   1.617  0.1420 -0.5105 -0.6111
  643MOL0     H88688   6.825   4.861   1.673  0.0458 -2.1416 -2.4992
  643MOL0     H88689   6.780   4.827   1.838  2.8903  3.2466 -1.7973
  643MOL0     H88690   6.744   4.598   1.796  1.3575 -0.0313  0.3307
  643MOL0     H88691   6.719   4.613   1.624  0.5944 -1.7482 -0.0061
  643MOL0     H88692   7.167   4.688   1.673 -1.3009  1.1891  0.6788
  643MOL0     H88693   7.388   4.663   1.754 -0.3846 -1.4931 -0.2143
  643MOL0     H88694   7.402   4.617   1.925  0.4001  0.4592  0.6275
  643MOL0     H88695   7.409   4.791   1.869  0.2524 -0.5679  0.2739
  643MOL0     H88696   7.614   4.740   2.120  0.8133 -0.2752  0.5949
  643MOL0     H88697   7.780   4.853   2.279  0.0889 -0.7160 -1.3577
  643MOL0     H88698   7.725   5.210   2.425  1.3619  1.4561  0.9974
  643MOL0     H88699   7.672   5.161   2.588 -0.1756 -0.4980  0.1821
  643MOL0     H88700   7.885   5.253   2.637 -2.8252  2.5417 -3.1034
  643MOL0     H88701   7.908   5.079   2.652 -1.2552  0.6990  0.3327
  643MOL0     H88702   7.969   5.269   2.422  1.5858  0.0862 -1.9079
  643MOL0     H88703   7.977   5.095   2.398 -0.9809 -0.7617  1.9430
  643MOL0     H88704   8.133   5.078   2.594  3.4754  0.9567  0.8997
  643MOL0     H88705   8.116   5.258   2.613 -2.4099  0.3580 -0.9049
  643MOL0     H88706   8.236   5.122   2.378 -3.2284 -0.5935  0.9697
  643MOL0     H88707   8.216   5.299   2.390  1.8294  1.0872  0.1653
  643MOL0     H88708   8.399   5.138   2.557 -0.4228  0.0047 -1.1780
  643MOL0     H88709   8.375   5.322   2.552 -3.0676  1.0326 -1.9604
  643MOL0     H88710   8.499   5.308   2.334  1.1759  0.4013  0.9766
  643MOL0     H88711   8.427   5.159   2.298 -1.4480  2.3910 -1.1475
  643MOL0     H88712   8.636   5.207   2.517  3.8204 -0.9354 -0.5215
  643MOL0     H88713   8.684   5.181   2.356 -0.1770  0.6704  0.8172
  643MOL0     H88714   7.456   5.034   2.493  0.1813 -0.5909  0.8641
  643MOL0     H88715   7.303   4.959   2.306 -0.5852 -1.9296  1.4307
  643MOL0     H88716   7.022   4.609   2.145  2.3736 -2.5290 -0.6110
  643MOL0     H88717   6.862   4.561   1.950  0.2652 -1.2795 -3.3569
  643MOL0     H88718   5.643   5.374   2.600  1.9005 -1.7136  1.1410
  643MOL0     H88719   5.556   5.269   2.791 -0.0728  0.9709 -0.7343
  643MOL0     H88720   5.496   4.778   2.872  0.4754  1.2283 -0.3546
  643MOL0     H88721   5.440   4.579   3.006 -1.7380 -1.1141  1.3560
  643MOL0     H88722   5.154   4.462   3.315  0.8372 -2.2180 -1.8785
  643MOL0     H88723   5.094   4.622   3.286  0.5811  1.7763 -1.6349
  643MOL0     H88724   5.048   4.405   3.070  0.1712  1.0287 -1.3096
  643MOL0     H88725   4.999   4.581   3.082 -2.3846 -0.2475  0.5179
  643MOL0     H88726   4.917   4.416   3.316  0.5214  1.2577  0.1953
  643MOL0     H88727   4.832   4.545   3.237 -3.5778 -0.5215 -3.6451
  643MOL0     H88728   4.863   4.280   3.097  1.2293 -1.0292  0.5882
  643MOL0     H88729   4.744   4.404   3.069  1.5400  2.3887  0.1946
  643MOL0     H88730   4.604   4.159   3.401 -0.7547  0.7301  1.0699
  643MOL0     H88731   5.099   4.787   3.174  0.9625  1.7408  0.5266
  643MOL0     H88732   5.076   4.995   3.155  1.0425 -1.0166  0.2216
  643MOL0     H88733   5.193   5.093   3.081  1.5336 -1.8332  4.0531
  643MOL0     H88734   5.050   5.045   2.983  0.8902 -1.7990 -1.5126
  644MOL0     O88735  10.181   4.280  10.288 -0.2685 -0.2542 -0.2765
  644MOL0     C88736  10.138   4.172  10.248  0.2464 -0.7347 -0.7060
  644MOL0     O88737  10.206   4.063  10.198 -0.1836  0.3368  0.3289
  644MOL0     C88738  10.337   4.083  10.181 -0.5331  0.0799  0.1700
  644MOL0     C88739  10.419   4.096  10.296 -0.1692 -0.1707  0.0822
  644MOL0     C88740  10.554   4.113  10.280  0.0991  0.6755 -0.4186
  644MOL0     C88741  10.607   4.101  10.153 -0.5696 -0.6493 -0.4218
  644MOL0     O88742  10.743   4.116  10.142 -0.1000 -0.8282  0.5164
  644MOL0     C88743  10.812   4.085  10.017  0.1442  0.5195  0.4799
  644MOL0     C88744  10.810   3.942   9.963  0.2276 -0.1211 -0.9778
  644MOL0     C88745  10.905   3.846  10.035  0.4821 -0.4662 -0.2861
  644MOL0     C88746  10.851   3.708  10.017  0.3461 -0.1560 -0.5040
  644MOL0     C88747  10.964   3.611  10.031  0.5326 -0.0789 -0.5962
  644MOL0     C88748  10.917   3.461  10.041  0.7356 -0.0997 -0.2172
  644MOL0     C88749  10.800   3.441  10.137  1.1984 -0.4113 -0.1492
  644MOL0     C88750  10.759   3.293  10.152 -0.1885  0.4956 -0.1587
  644MOL0     N88751  10.668   3.248  10.047  0.0449 -0.7369 -0.0012
  644MOL0     C88752  10.546   3.191  10.075 -0.0728 -0.4489 -0.7270
  644MOL0     C88753  10.501   3.161   9.953 -0.1524  1.1249  0.5139
  644MOL0     C88754  10.370   3.091   9.928 -1.2379 -0.0191 -0.0403
  644MOL0     C88755  10.267   3.192   9.878  0.3035 -0.1636 -0.3600
  644MOL0     C88756  10.144   3.120   9.833  0.1145  0.6910  0.1964
  644MOL0     C88757  10.034   3.220   9.796 -0.3096  0.0434  0.4734
  644MOL0     O88758   9.965   3.275   9.910 -0.8611  0.3525  0.0085
  644MOL0     C88759   9.873   3.370   9.881  0.7124 -0.5408  0.4088
  644MOL0     C88760   9.815   3.428   9.999  0.2390  0.1799  0.1841
  644MOL0     C88761   9.724   3.529   9.987  0.3761  0.2412  0.0700
  644MOL0     C88762   9.664   3.577  10.119  0.0364 -0.4240  0.5249
  644MOL0     C88763   9.689   3.585   9.858  0.6242  0.2204  0.0799
  644MOL0     C88764   9.585   3.690   9.824  0.5113  0.1107  0.3936
  644MOL0     O88765   9.561   3.691   9.689  0.1123  0.2006 -0.5098
  644MOL0     C88766   9.477   3.768   9.617 -0.0643 -1.2435 -0.2064
  644MOL0     C88767   9.435   3.713   9.491  0.1914  0.7508  0.3604
  644MOL0     C88768   9.360   3.795   9.402  0.5895 -0.8540  1.4353
  644MOL0     C88769   9.334   3.931   9.429  0.4824  0.2040 -0.0608
  644MOL0     O88770   9.248   3.999   9.344 -0.0118  0.6116  0.0517
  644MOL0     C88771   9.273   4.136   9.330  0.2803 -0.0314 -0.0348
  644MOL0     C88772   9.221   4.198   9.206 -0.9270  0.6031  0.4541
  644MOL0     C88773   9.280   4.340   9.199  0.0623  0.3026  0.1010
  644MOL0     C88774   9.216   4.418   9.084 -0.2400 -0.9247  0.2694
  644MOL0     C88775   9.269   4.558   9.072 -0.5354 -0.7370 -0.6727
  644MOL0     C88776   9.197   4.657   9.166  0.0845  0.5155 -0.7945
  644MOL0     C88777   9.054   4.689   9.129 -0.0064  0.3253  0.5248
  644MOL0     C88778   8.962   4.695   9.251 -1.0233  0.7989 -0.7756
  644MOL0    Cl88779   8.828   4.796   9.193  0.3406 -0.1451  0.1728
  644MOL0     C88780   9.376   3.979   9.558 -0.1061  0.1757  1.3887
  644MOL0     C88781   9.437   3.896   9.650  0.9468 -0.3831 -0.9813
  644MOL0     O88782   9.526   3.755   9.904 -0.3061 -0.4399  0.1047
  644MOL0     C88783   9.754   3.530   9.746 -1.2749  0.3480 -0.0973
  644MOL0     C88784   9.839   3.416   9.752  0.7113 -0.0754  0.0112
  644MOL0     N88785  10.594   3.186   9.856  0.4555 -0.2913 -0.3728
  644MOL0     N88786  10.693   3.247   9.911  0.1543  0.6891 -0.3984
  644MOL0     C88787  10.525   4.105  10.044 -0.3097  1.5832 -0.0923
  644MOL0     C88788  10.393   4.083  10.053  0.7841 -0.3415 -0.1278
  644MOL0     C88789   9.991   4.161  10.251 -0.1073 -0.2815  0.8456
  644MOL0     C88790   9.923   4.079  10.165 -0.6800  0.0589 -0.2709
  644MOL0     C88791   9.792   4.028  10.184 -0.2275 -0.1782 -0.4646
  644MOL0     C88792   9.712   4.080  10.288 -0.4111  0.1874 -0.3665
  644MOL0     O88793   9.582   4.049  10.310  0.5304  0.0918  0.0139
  644MOL0     C88794   9.525   3.933  10.237 -0.6837  0.6178  0.8584
  644MOL0     C88795   9.385   3.912  10.290 -0.5967 -0.0846  0.1206
  644MOL0     C88796   9.302   3.816  10.208  0.2944  1.1281  1.2411
  644MOL0     C88797   9.161   3.821  10.277  0.4076  0.7238 -0.7011
  644MOL0     C88798   9.071   3.934  10.268 -0.2610  0.1666  0.2975
  644MOL0     C88799   9.005   4.030  10.247 -0.6333 -0.2245  0.5283
  644MOL0     C88800   9.779   4.174  10.366 -0.2576  0.2707  1.1119
  644MOL0     C88801   9.908   4.217  10.349  0.1779 -0.2454  0.2992
  644MOL0     C88802   9.941   4.325  10.446 -0.5116  0.3967  0.2665
  644MOL0     H88803  10.382   4.117  10.396  0.8520  1.6973  0.1173
  644MOL0     H88804  10.621   4.111  10.365  1.8958  0.1532 -1.7625
  644MOL0     H88805  10.914   4.124  10.027  1.0956 -1.2692 -1.5405
  644MOL0     H88806  10.766   4.146   9.939 -0.5800 -1.2929 -0.5714
  644MOL0     H88807  10.703   3.916   9.969 -0.0880  1.4418  0.8418
  644MOL0     H88808  10.836   3.943   9.857 -1.3254 -4.1024 -1.5673
  644MOL0     H88809  11.003   3.859   9.989  0.4833 -4.1491 -1.6451
  644MOL0     H88810  10.904   3.869  10.142 -0.2834  0.1611 -0.4219
  644MOL0     H88811  10.771   3.694  10.091  1.0644  1.0384  0.5339
  644MOL0     H88812  10.798   3.698   9.922  1.4405 -0.0355 -1.1312
  644MOL0     H88813  11.017   3.639  10.122  1.2680  1.3122 -1.4226
  644MOL0     H88814  11.038   3.627   9.953 -0.7769 -0.1474 -1.8862
  644MOL0     H88815  10.889   3.434   9.939  0.4935 -0.8102  0.0301
  644MOL0     H88816  10.997   3.397  10.079 -0.1577 -0.0968  1.7860
  644MOL0     H88817  10.707   3.490  10.107 -0.0051 -2.1111  0.6160
  644MOL0     H88818  10.816   3.485  10.236 -1.6389  2.4301 -0.7835
  644MOL0     H88819  10.841   3.221  10.162 -0.3940  0.4440  1.3586
  644MOL0     H88820  10.702   3.283  10.245  2.3755 -0.7187  1.3878
  644MOL0     H88821  10.493   3.185  10.169 -0.6364 -0.4839 -1.0444
  644MOL0     H88822  10.344   3.040  10.022  4.9138 -2.2114  0.8938
  644MOL0     H88823  10.398   3.010   9.860  1.7627  0.2052  0.8189
  644MOL0     H88824  10.250   3.268   9.954 -0.6668 -1.6571  0.9851
  644MOL0     H88825  10.318   3.251   9.801 -0.4115  2.7365  1.2667
  644MOL0     H88826  10.175   3.053   9.751 -0.0050 -2.0210  2.2188
  644MOL0     H88827  10.106   3.059   9.916 -2.6353  2.6776  0.5357
  644MOL0     H88828  10.080   3.292   9.728  0.5840 -2.0558 -1.2721
  644MOL0     H88829   9.959   3.164   9.739 -1.3916  1.5422  0.3790
  644MOL0     H88830   9.849   3.400  10.099  1.8547 -1.5690 -0.7844
  644MOL0     H88831   9.587   3.504  10.144 -1.0621  1.1751  2.0828
  644MOL0     H88832   9.617   3.675  10.104  2.4439  0.6594 -0.5624
  644MOL0     H88833   9.737   3.584  10.200 -0.9265  0.8057  1.3273
  644MOL0     H88834   9.463   3.609   9.478  0.1233  0.7995 -0.1913
  644MOL0     H88835   9.318   3.746   9.315  1.8349 -2.2144  1.5481
  644MOL0     H88836   9.231   4.192   9.414 -2.1767 -0.4931 -0.8636
  644MOL0     H88837   9.381   4.150   9.340  0.6082 -2.3498  0.3271
  644MOL0     H88838   9.243   4.129   9.124  0.8144  0.2495  1.1791
  644MOL0     H88839   9.112   4.208   9.211 -1.2271  0.6121 -3.1395
  644MOL0     H88840   9.388   4.339   9.184  0.0696  0.5343  0.1251
  644MOL0     H88841   9.260   4.385   9.296  1.6914  0.4334  0.4074
  644MOL0     H88842   9.107   4.416   9.083 -0.3276 -2.2562 -3.2280
  644MOL0     H88843   9.245   4.373   8.988 -0.3028 -1.6308  0.5835
  644MOL0     H88844   9.374   4.555   9.100 -1.0763  2.1004  2.3071
  644MOL0     H88845   9.254   4.595   8.971 -0.2337 -0.6377 -0.6809
  644MOL0     H88846   9.260   4.746   9.162 -0.2771  0.9272  1.4241
  644MOL0     H88847   9.213   4.625   9.269  1.8587 -1.2608 -1.5519
  644MOL0     H88848   9.008   4.617   9.061  0.0929  0.5108  0.2605
  644MOL0     H88849   9.041   4.782   9.073  0.8687 -0.0553 -0.3423
  644MOL0     H88850   9.007   4.739   9.341 -1.6822 -0.9950  0.4822
  644MOL0     H88851   8.918   4.602   9.289 -3.3195  2.5111  1.1299
  644MOL0     H88852   9.372   4.083   9.591 -1.4170  0.9995 -1.1123
  644MOL0     H88853   9.480   3.932   9.744 -1.1342  0.0829 -0.1609
  644MOL0     H88854   9.739   3.567   9.645 -0.0196  0.0046 -0.4283
  644MOL0     H88855   9.889   3.361   9.672  0.8347 -2.9598  1.9016
  644MOL0     H88856  10.559   4.115   9.942 -2.4205  1.9125 -0.8066
  644MOL0     H88857  10.329   4.076   9.965  1.6688  0.9500 -0.9053
  644MOL0     H88858   9.984   4.034  10.087  1.0083  2.8232 -0.6593
  644MOL0     H88859   9.762   3.954  10.110  0.2933  0.6630 -1.5438
  644MOL0     H88860   9.524   3.952  10.129 -2.1989 -0.0627  0.7255
  644MOL0     H88861   9.592   3.848  10.251  1.3449  1.0038 -4.3157
  644MOL0     H88862   9.337   4.010  10.283 -0.4088 -0.1101 -2.1380
  644MOL0     H88863   9.392   3.871  10.391  0.1638  1.2436  0.6300
  644MOL0     H88864   9.295   3.838  10.101 -0.5181 -1.0295  0.7899
  644MOL0     H88865   9.353   3.719  10.205 -2.4121 -0.3671 -0.6699
  644MOL0     H88866   9.179   3.805  10.383  0.3762 -1.0025 -0.9371
  644MOL0     H88867   9.111   3.733  10.236 -1.1076  1.3172 -0.1996
  644MOL0     H88868   8.958   4.122  10.219 -0.9754 -0.6635 -0.4129
  644MOL0     H88869   9.714   4.216  10.442 -1.4488 -1.6296  1.2172
  644MOL0     H88870   9.908   4.422  10.406  1.8657  0.9875 -0.4894
  644MOL0     H88871   9.882   4.317  10.537 -1.1031 -1.5255 -0.2481
  644MOL0     H88872  10.042   4.332  10.488 -0.9077 -0.4600  1.4107
  645MOL0     O88873   0.914   3.479   1.398  0.6966 -0.7340  0.1566
  645MOL0     C88874   0.940   3.397   1.307 -0.2655 -0.5453 -0.0831
  645MOL0     O88875   1.066   3.353   1.273  0.0871 -0.7390 -0.2643
  645MOL0     C88876   1.168   3.404   1.342 -0.0120 -0.3991 -1.2121
  645MOL0     C88877   1.217   3.535   1.329 -0.1764  0.8799  0.0115
  645MOL0     C88878   1.340   3.566   1.396  0.7633  0.3342 -0.6732
  645MOL0     C88879   1.408   3.473   1.471  0.3752 -0.2362  0.3029
  645MOL0     O88880   1.523   3.492   1.544 -0.3923  0.1681  0.4604
  645MOL0     C88881   1.566   3.624   1.565  0.4520 -0.3469  0.0306
  645MOL0     C88882   1.672   3.678   1.464  0.4963  0.6432  0.6057
  645MOL0     C88883   1.681   3.833   1.469  0.3910 -0.2086 -1.1066
  645MOL0     C88884   1.707   3.896   1.612 -0.2121  0.5170  0.4391
  645MOL0     C88885   1.720   4.046   1.612 -0.2280  0.6861 -0.2909
  645MOL0     C88886   1.583   4.115   1.617 -0.6578 -0.1136  0.1088
  645MOL0     C88887   1.598   4.268   1.599  0.5736 -0.4165  0.3189
  645MOL0     C88888   1.466   4.346   1.641 -0.5001  0.5135 -0.0713
  645MOL0     N88889   1.466   4.482   1.576  1.1484  0.4883 -0.6031
  645MOL0     C88890   1.450   4.520   1.444  0.1880  0.3067  0.6285
  645MOL0     C88891   1.495   4.642   1.442 -0.4832  0.1802  0.3878
  645MOL0     C88892   1.520   4.721   1.314 -0.1084 -0.4707 -0.0289
  645MOL0     C88893   1.605   4.646   1.218 -0.4842 -0.4103  0.6081
  645MOL0     C88894   1.672   4.751   1.126  0.3406 -0.1094 -0.8827
  645MOL0     C88895   1.722   4.682   0.999  0.2069  0.7575 -0.2245
  645MOL0     O88896   1.813   4.566   1.024  0.2992 -0.5225 -1.1657
  645MOL0     C88897   1.935   4.593   1.076  0.4859 -0.4972 -0.2636
  645MOL0     C88898   1.971   4.516   1.184  0.3737  0.4658  0.3825
  645MOL0     C88899   2.104   4.535   1.240 -0.0358  0.0421 -0.1656
  645MOL0     C88900   2.134   4.449   1.366  0.3791  0.5959  0.1982
  645MOL0     C88901   2.208   4.610   1.174 -0.5970 -0.8463  0.2458
  645MOL0     C88902   2.350   4.616   1.216  0.2914  0.3871 -0.5324
  645MOL0     O88903   2.432   4.714   1.157 -0.4262 -0.1225 -0.3524
  645MOL0     C88904   2.553   4.743   1.211  0.2294 -0.7104 -0.0759
  645MOL0     C88905   2.647   4.790   1.116 -0.7337  0.3178  0.3006
  645MOL0     C88906   2.783   4.808   1.159 -0.2568  0.4225  0.0446
  645MOL0     C88907   2.827   4.789   1.296  0.1098  0.7092  0.0908
  645MOL0     O88908   2.963   4.799   1.330 -0.0322  0.3626 -0.0038
  645MOL0     C88909   2.994   4.792   1.466 -0.4761 -0.3668 -0.4853
  645MOL0     C88910   3.130   4.861   1.486  1.2789  0.3269 -0.0237
  645MOL0     C88911   3.226   4.805   1.381 -0.3794  0.3958  0.3412
  645MOL0     C88912   3.371   4.831   1.418  0.0759  0.8631 -0.3656
  645MOL0     C88913   3.471   4.768   1.321 -0.3274 -0.2274  0.8758
  645MOL0     C88914   3.471   4.612   1.334  1.0526 -0.5617  0.1101
  645MOL0     C88915   3.581   4.548   1.251  0.3538 -0.7021  0.5071
  645MOL0     C88916   3.605   4.401   1.295  0.6021  0.0660 -0.5565
  645MOL0    Cl88917   3.698   4.383   1.441  0.3909 -0.4007 -0.2610
  645MOL0     C88918   2.721   4.749   1.390 -0.1156  0.7334  0.0063
  645MOL0     C88919   2.590   4.720   1.348  0.1338  0.4499 -0.2949
  645MOL0     O88920   2.391   4.528   1.288 -0.3307  0.3436  0.1885
  645MOL0     C88921   2.160   4.688   1.061  0.0729 -0.0101  0.2295
  645MOL0     C88922   2.027   4.683   1.016 -0.2148  0.6033  0.4459
  645MOL0     N88923   1.526   4.685   1.562 -0.4810 -0.4927 -0.3580
  645MOL0     N88924   1.512   4.590   1.644 -0.2375  0.1867 -0.2506
  645MOL0     C88925   1.346   3.349   1.502 -0.3754 -0.4236 -0.1308
  645MOL0     C88926   1.241   3.314   1.425 -0.3983  0.3501 -0.8123
  645MOL0     C88927   0.839   3.343   1.212  0.0593 -0.6613 -0.0105
  645MOL0     C88928   0.881   3.298   1.079 -0.5359 -0.0563 -1.2933
  645MOL0     C88929   0.793   3.259   0.980  0.4488 -0.1129  0.5399
  645MOL0     C88930   0.656   3.278   0.996  0.1188  0.3305  0.7727
  645MOL0     O88931   0.567   3.252   0.906  1.0042 -0.0888 -0.6964
  645MOL0     C88932   0.601   3.164   0.788  1.6009  0.1761  0.2009
  645MOL0     C88933   0.486   3.165   0.685  0.2051  0.1591 -0.3195
  645MOL0     C88934   0.456   3.300   0.630  0.3180 -0.9645  0.0634
  645MOL0     C88935   0.367   3.290   0.510 -0.2563  0.7305  0.0840
  645MOL0     C88936   0.453   3.259   0.394 -0.5432  0.1716  0.4191
  645MOL0     C88937   0.523   3.238   0.296 -0.9457  0.0305 -0.1619
  645MOL0     C88938   0.621   3.336   1.117 -0.2457 -0.0523  0.1904
  645MOL0     C88939   0.700   3.366   1.222 -0.2723 -0.6546  0.8239
  645MOL0     C88940   0.628   3.427   1.345 -0.3130 -0.0514  0.2724
  645MOL0     H88941   1.167   3.606   1.264  2.7543  1.1895 -2.0735
  645MOL0     H88942   1.381   3.661   1.364  0.2844  0.1055 -2.0264
  645MOL0     H88943   1.605   3.624   1.667 -0.9531  1.2334  0.6226
  645MOL0     H88944   1.485   3.697   1.574  1.5266  0.9657 -0.4739
  645MOL0     H88945   1.773   3.639   1.486  0.4649  0.7045  0.8638
  645MOL0     H88946   1.652   3.643   1.363 -2.0009  1.3940  0.7949
  645MOL0     H88947   1.757   3.873   1.402  1.3621  0.5548  0.4091
  645MOL0     H88948   1.581   3.867   1.441  0.7210 -0.2758 -2.4338
  645MOL0     H88949   1.622   3.865   1.674 -0.0387 -2.3785 -0.6268
  645MOL0     H88950   1.799   3.864   1.662 -1.1534 -1.9502  0.7302
  645MOL0     H88951   1.772   4.090   1.527 -1.3463  1.6994 -0.4832
  645MOL0     H88952   1.780   4.069   1.701 -1.0204  3.2151 -0.3108
  645MOL0     H88953   1.524   4.075   1.534 -1.0436 -1.1836  0.8925
  645MOL0     H88954   1.535   4.089   1.711  4.3653 -3.2877  2.2353
  645MOL0     H88955   1.610   4.278   1.490 -0.6161 -1.2552  0.0972
  645MOL0     H88956   1.687   4.320   1.637 -1.0012  3.0815 -0.4027
  645MOL0     H88957   1.376   4.286   1.621 -0.2398 -0.2458  0.9616
  645MOL0     H88958   1.473   4.349   1.750  0.0116 -2.2955  0.0604
  645MOL0     H88959   1.442   4.451   1.361  2.8012 -1.4908  1.7615
  645MOL0     H88960   1.558   4.823   1.325 -0.9281  0.1233 -2.0752
  645MOL0     H88961   1.424   4.736   1.264 -0.3915  2.8110  1.2708
  645MOL0     H88962   1.684   4.584   1.261  0.3373 -0.3970 -0.8327
  645MOL0     H88963   1.541   4.586   1.153 -1.1489 -0.8892  1.6723
  645MOL0     H88964   1.608   4.834   1.097  1.3584  1.0483  0.0710
  645MOL0     H88965   1.755   4.796   1.180 -0.5531  0.2893  0.2135
  645MOL0     H88966   1.635   4.646   0.945 -0.9291  0.5063  1.6822
  645MOL0     H88967   1.781   4.754   0.941  1.6255 -0.8138 -0.7886
  645MOL0     H88968   1.896   4.457   1.235  1.4531 -0.7440  0.6178
  645MOL0     H88969   2.210   4.378   1.331  0.5611 -0.0862  1.8858
  645MOL0     H88970   2.057   4.391   1.418  2.4175 -2.0511  0.5097
  645MOL0     H88971   2.172   4.516   1.443  1.8423 -0.0857  0.1188
  645MOL0     H88972   2.619   4.798   1.011 -0.0714  0.3491  0.1222
  645MOL0     H88973   2.861   4.843   1.092  0.3968  0.5376  0.8463
  645MOL0     H88974   2.920   4.845   1.526 -0.8583 -1.2702 -0.1437
  645MOL0     H88975   2.999   4.687   1.499 -1.3989  0.3083  2.0025
  645MOL0     H88976   3.112   4.969   1.480  0.7634  0.1925 -1.0905
  645MOL0     H88977   3.172   4.856   1.587 -0.5970  3.3900  1.0380
  645MOL0     H88978   3.208   4.848   1.282  1.8872 -1.9454 -1.2319
  645MOL0     H88979   3.215   4.697   1.371  0.1329  0.4730 -1.3623
  645MOL0     H88980   3.405   4.790   1.513 -0.1338 -1.2076 -1.1425
  645MOL0     H88981   3.390   4.939   1.416  1.1598  0.7013  0.2459
  645MOL0     H88982   3.453   4.802   1.219  0.6933 -4.2925 -0.8514
  645MOL0     H88983   3.572   4.802   1.346  0.5100 -1.6236 -0.4355
  645MOL0     H88984   3.374   4.569   1.307  1.0888 -0.9050  0.5079
  645MOL0     H88985   3.492   4.589   1.439  3.4220  2.6750  0.5033
  645MOL0     H88986   3.679   4.596   1.249  0.7567 -1.5383 -1.3998
  645MOL0     H88987   3.544   4.529   1.150 -0.3420 -0.9049  0.7939
  645MOL0     H88988   3.659   4.346   1.217 -0.4353 -2.1248  0.1967
  645MOL0     H88989   3.506   4.358   1.311 -2.4087  6.7698  2.8719
  645MOL0     H88990   2.748   4.734   1.494 -1.3151 -1.2112  0.1001
  645MOL0     H88991   2.515   4.684   1.418  0.8780 -1.5006 -0.4379
  645MOL0     H88992   2.215   4.757   0.997 -0.1784 -0.5484 -0.5727
  645MOL0     H88993   1.994   4.737   0.928 -0.8665  1.9781  1.4874
  645MOL0     H88994   1.398   3.277   1.564 -0.9233 -0.5420  0.2019
  645MOL0     H88995   1.196   3.217   1.442 -1.5412  0.7691 -1.3399
  645MOL0     H88996   0.983   3.297   1.041 -0.0132 -0.6119  0.0466
  645MOL0     H88997   0.832   3.219   0.886 -0.4565  0.3957 -0.0673
  645MOL0     H88998   0.688   3.202   0.735  1.2875 -2.8882 -2.9068
  645MOL0     H88999   0.615   3.062   0.825 -1.6754 -0.6116 -0.3750
  645MOL0     H89000   0.390   3.134   0.728 -0.4555  0.1218 -1.7757
  645MOL0     H89001   0.515   3.087   0.615 -0.4311 -1.4171  1.1000
  645MOL0     H89002   0.424   3.355   0.719  1.2632 -1.9476  1.0389
  645MOL0     H89003   0.547   3.350   0.594 -0.9371  2.5612  1.2805
  645MOL0     H89004   0.324   3.389   0.489 -1.1650  0.5434  0.9737
  645MOL0     H89005   0.282   3.222   0.518 -0.8463  1.5542  1.0777
  645MOL0     H89006   0.589   3.215   0.215 -0.6636 -3.1959  0.8084
  645MOL0     H89007   0.515   3.349   1.136 -0.3805 -1.6733  0.6995
  645MOL0     H89008   0.661   3.530   1.360 -0.0422  0.0198 -0.7136
  645MOL0     H89009   0.519   3.430   1.340 -0.5287 -1.9069  2.3634
  645MOL0     H89010   0.653   3.370   1.435  0.1634 -1.2542 -0.5935
  646MOL0     O89011   0.285   3.238   7.560 -0.1866  0.0984 -0.0661
  646MOL0     C89012   0.188   3.285   7.618 -0.2738  0.5035  0.0308
  646MOL0     O89013   0.201   3.367   7.732  0.0277 -0.5149 -0.0500
  646MOL0     C89014   0.320   3.394   7.786  0.1381  0.4125  0.4569
  646MOL0     C89015   0.363   3.528   7.806  0.0976 -0.7145 -0.7135
  646MOL0     C89016   0.486   3.551   7.857  0.2067 -0.4470 -0.8298
  646MOL0     C89017   0.567   3.445   7.906 -1.3697 -0.0914  0.1914
  646MOL0     O89018   0.693   3.455   7.966  0.5143 -0.0174  0.4347
  646MOL0     C89019   0.761   3.576   7.943  0.0846  0.1403 -0.4747
  646MOL0     C89020   0.908   3.550   7.976  0.1235  0.8496  0.8506
  646MOL0     C89021   0.909   3.516   8.121  0.3872 -0.0933  0.4961
  646MOL0     C89022   1.043   3.508   8.175  0.5500 -0.6031  0.0408
  646MOL0     C89023   1.033   3.451   8.309  0.0644 -1.0039  0.1967
  646MOL0     C89024   1.167   3.386   8.364  0.0135  0.8388  0.3840
  646MOL0     C89025   1.197   3.245   8.304 -0.0387 -0.2337 -0.6293
  646MOL0     C89026   1.334   3.187   8.343  0.4764 -0.2049  0.5199
  646MOL0     N89027   1.366   3.187   8.485  0.2913 -0.1496 -0.1109
  646MOL0     C89028   1.324   3.093   8.570 -0.4086  0.6119 -0.0882
  646MOL0     C89029   1.391   3.119   8.689 -0.4602 -0.1979  0.6139
  646MOL0     C89030   1.379   3.020   8.810  0.0164 -0.0023  0.6561
  646MOL0     C89031   1.505   3.031   8.892  0.0060 -0.2551 -0.2512
  646MOL0     C89032   1.505   2.919   8.999  0.4904  0.8064  0.2140
  646MOL0     C89033   1.647   2.868   9.032  0.9852 -0.6409  0.3151
  646MOL0     O89034   1.723   2.970   9.086 -0.0990 -0.4828  0.1502
  646MOL0     C89035   1.855   2.971   9.052 -0.1064 -0.6102 -0.7199
  646MOL0     C89036   1.911   3.086   8.996 -0.6722 -0.8651 -0.2175
  646MOL0     C89037   2.041   3.087   8.938 -1.0058  0.5550  0.0925
  646MOL0     C89038   2.095   3.214   8.868  0.0431  0.3738 -0.3701
  646MOL0     C89039   2.122   2.966   8.948  0.0849  0.2616  0.1709
  646MOL0     C89040   2.263   2.972   8.918  0.4519  0.1491  0.6150
  646MOL0     O89041   2.306   2.998   8.791  0.4038  0.1580  0.4629
  646MOL0     C89042   2.443   2.999   8.745  0.4843 -0.0411  0.1084
  646MOL0     C89043   2.473   3.070   8.628  0.5656 -0.4386 -1.7548
  646MOL0     C89044   2.597   3.071   8.568  0.1576 -0.0471 -1.0825
  646MOL0     C89045   2.704   3.004   8.635 -1.2178 -0.2588  0.3725
  646MOL0     O89046   2.833   3.006   8.588 -0.3260 -0.0530  0.5962
  646MOL0     C89047   2.919   3.078   8.677  0.3502  0.6085 -0.6168
  646MOL0     C89048   3.043   2.992   8.721 -0.7384 -0.3627 -0.3476
  646MOL0     C89049   3.113   2.930   8.604 -0.4191 -0.7769 -0.6563
  646MOL0     C89050   3.252   2.878   8.644 -0.6049 -0.0173  0.2752
  646MOL0     C89051   3.269   2.740   8.579 -0.5366 -0.5655  0.0701
  646MOL0     C89052   3.418   2.699   8.583  0.1341  0.5634 -0.3810
  646MOL0     C89053   3.442   2.546   8.561  0.9220  0.7289  0.1044
  646MOL0     C89054   3.573   2.490   8.596 -0.1613  0.2166  0.7174
  646MOL0    Cl89055   3.610   2.529   8.772 -0.2104 -0.0193 -0.0628
  646MOL0     C89056   2.672   2.931   8.751 -0.3083  0.1794  0.7019
  646MOL0     C89057   2.540   2.918   8.789  0.4561  0.9760  0.6601
  646MOL0     O89058   2.335   2.935   9.014  0.2040  0.0881  0.3617
  646MOL0     C89059   2.063   2.858   9.011  0.4706 -0.5710 -0.5104
  646MOL0     C89060   1.933   2.850   9.055  0.0312  0.5713  0.4889
  646MOL0     N89061   1.462   3.241   8.672 -0.3392 -0.5802 -0.2299
  646MOL0     N89062   1.445   3.272   8.549 -0.4661  0.4154 -0.2479
  646MOL0     C89063   0.515   3.316   7.893 -0.3602  0.9146 -0.0400
  646MOL0     C89064   0.406   3.292   7.829  0.7022  0.5683 -0.7274
  646MOL0     C89065   0.050   3.257   7.570 -0.4144 -0.0626 -0.3301
  646MOL0     C89066  -0.039   3.368   7.593  0.4618  0.3099 -0.0405
  646MOL0     C89067  -0.174   3.350   7.548 -0.6256  0.0883 -0.3001
  646MOL0     C89068  -0.216   3.223   7.505  0.9301  0.2777  0.1213
  646MOL0     O89069  -0.347   3.222   7.480  0.0263  0.8565  0.2560
  646MOL0     C89070  -0.418   3.115   7.415  1.2671 -0.3287 -0.5428
  646MOL0     C89071  -0.388   3.111   7.265  0.3898 -0.4547 -0.5681
  646MOL0     C89072  -0.390   3.252   7.197 -0.0518  1.1309  0.2973
  646MOL0     C89073  -0.324   3.260   7.063  0.6835 -0.0556 -0.8013
  646MOL0     C89074  -0.194   3.206   7.046  1.0364  0.2608 -0.4318
  646MOL0     C89075  -0.078   3.174   7.050 -0.0410 -0.1601  0.9052
  646MOL0     C89076  -0.122   3.120   7.486  0.0620  0.5536  0.4711
  646MOL0     C89077   0.007   3.131   7.518 -0.6679  0.1832 -0.0015
  646MOL0     C89078   0.102   3.011   7.493  0.6564 -0.3603 -0.5040
  646MOL0     H89079   0.295   3.610   7.782  0.6300  0.5065  1.5994
  646MOL0     H89080   0.511   3.653   7.884 -0.6672 -0.6740  0.9523
  646MOL0     H89081   0.724   3.666   7.993  0.9767 -0.4126  1.2473
  646MOL0     H89082   0.752   3.594   7.835 -1.4499  0.3053 -0.3420
  646MOL0     H89083   0.954   3.469   7.918  0.7216 -0.1802  2.6572
  646MOL0     H89084   0.962   3.645   7.963 -4.2471  3.4758  0.0681
  646MOL0     H89085   0.845   3.577   8.185  0.8672  0.9470 -0.0058
  646MOL0     H89086   0.865   3.416   8.131  1.0676 -0.2157  2.7803
  646MOL0     H89087   1.105   3.450   8.106  2.5696  2.0736 -0.6047
  646MOL0     H89088   1.103   3.600   8.181 -0.3014 -0.1191  1.4761
  646MOL0     H89089   0.968   3.363   8.309 -0.8901 -0.3354  1.3177
  646MOL0     H89090   1.000   3.522   8.385 -1.3812 -3.6743  2.2660
  646MOL0     H89091   1.248   3.458   8.346 -0.2145  0.6510 -1.6150
  646MOL0     H89092   1.157   3.365   8.471 -2.2183 -5.3090 -0.6134
  646MOL0     H89093   1.200   3.247   8.194  3.3373 -0.4438 -0.6522
  646MOL0     H89094   1.126   3.173   8.347 -0.8676  1.4280  0.8799
  646MOL0     H89095   1.356   3.085   8.310  3.6980  0.8065 -0.7786
  646MOL0     H89096   1.408   3.252   8.295  0.0183  1.1743  1.6064
  646MOL0     H89097   1.260   3.010   8.544 -2.3155  2.0041 -0.0799
  646MOL0     H89098   1.351   2.917   8.787  1.8022 -0.7425  1.5688
  646MOL0     H89099   1.301   3.060   8.875 -0.3896  1.0488 -0.4569
  646MOL0     H89100   1.590   3.027   8.824 -0.2875 -0.7966 -0.6011
  646MOL0     H89101   1.505   3.130   8.937 -0.0762  0.7771 -2.4057
  646MOL0     H89102   1.447   2.942   9.089 -0.6162  1.6769 -0.6886
  646MOL0     H89103   1.458   2.830   8.957 -0.8153  0.1609  2.8463
  646MOL0     H89104   1.644   2.796   9.113  2.2603  1.2946  2.1983
  646MOL0     H89105   1.698   2.827   8.944 -1.2470 -1.2130 -0.7911
  646MOL0     H89106   1.853   3.177   8.997  0.1567 -0.2409  3.2281
  646MOL0     H89107   2.017   3.263   8.807 -0.1079  1.8221  0.9230
  646MOL0     H89108   2.184   3.206   8.806 -0.3656  0.7032 -1.0141
  646MOL0     H89109   2.125   3.283   8.948 -1.5500  0.3186  0.3201
  646MOL0     H89110   2.389   3.115   8.576 -0.5970  0.0564  0.4319
  646MOL0     H89111   2.619   3.116   8.471  0.1065 -1.6286 -1.8599
  646MOL0     H89112   2.958   3.171   8.634  1.4789  0.9808  1.1108
  646MOL0     H89113   2.878   3.115   8.772  1.0312  1.7142 -0.7344
  646MOL0     H89114   3.109   3.061   8.775  0.4871 -0.9392 -1.0659
  646MOL0     H89115   3.017   2.910   8.788 -0.1191 -0.4703 -0.2315
  646MOL0     H89116   3.107   2.993   8.514 -1.2386 -2.2581 -1.6865
  646MOL0     H89117   3.056   2.842   8.570  0.7595 -1.8436  0.0674
  646MOL0     H89118   3.263   2.861   8.751  0.7585  2.0587  0.5132
  646MOL0     H89119   3.330   2.953   8.626  2.0975 -2.5650  0.5339
  646MOL0     H89120   3.225   2.661   8.640  0.2813 -0.7042  0.4933
  646MOL0     H89121   3.225   2.742   8.479  0.3638 -0.5664 -0.3385
  646MOL0     H89122   3.471   2.745   8.666  1.3937 -0.4566 -0.5973
  646MOL0     H89123   3.464   2.754   8.500 -0.3776  2.6993  0.6632
  646MOL0     H89124   3.424   2.509   8.459 -0.2780  0.8703  0.2422
  646MOL0     H89125   3.376   2.489   8.628 -0.9879  0.5430 -1.8270
  646MOL0     H89126   3.646   2.545   8.536  0.6500 -0.6014  0.9355
  646MOL0     H89127   3.583   2.384   8.569  0.6363  0.5371 -0.3159
  646MOL0     H89128   2.744   2.867   8.801  0.3039  0.4135  0.1361
  646MOL0     H89129   2.508   2.833   8.849 -2.0513  1.5385  0.2280
  646MOL0     H89130   2.117   2.765   9.025 -0.8088 -1.2900 -0.0753
  646MOL0     H89131   1.907   2.757   9.103 -1.4362  1.1327  0.8400
  646MOL0     H89132   0.573   3.232   7.929 -0.8145  1.4013  1.9229
  646MOL0     H89133   0.358   3.195   7.815  0.4205  0.2929  1.6819
  646MOL0     H89134  -0.001   3.464   7.627 -1.9874  1.2760  0.1614
  646MOL0     H89135  -0.246   3.431   7.547  0.4180  1.0343 -0.7806
  646MOL0     H89136  -0.392   3.023   7.468  0.4789  0.2950  1.0029
  646MOL0     H89137  -0.524   3.131   7.435  0.9681 -2.2465 -0.4105
  646MOL0     H89138  -0.451   3.038   7.214 -4.7268  2.4408  0.8877
  646MOL0     H89139  -0.285   3.073   7.256 -0.5528 -3.6535  0.8103
  646MOL0     H89140  -0.497   3.270   7.183 -0.1497  0.4977  0.1927
  646MOL0     H89141  -0.346   3.328   7.262  2.3213 -0.5115  0.7574
  646MOL0     H89142  -0.314   3.365   7.034 -0.1708 -0.0705 -1.1880
  646MOL0     H89143  -0.392   3.206   6.996 -0.5178  0.7118 -0.2332
  646MOL0     H89144   0.023   3.147   7.029  0.5003  2.5368 -0.4205
  646MOL0     H89145  -0.159   3.029   7.440 -4.5575  1.8983  0.9943
  646MOL0     H89146   0.036   2.933   7.454 -1.6631  1.6106 -0.7157
  646MOL0     H89147   0.172   3.027   7.410 -1.3879  3.1585 -1.7732
  646MOL0     H89148   0.161   2.980   7.580  0.4404  0.2208 -0.1496
  647MOL0     O89149   3.415   2.034   2.639  0.4322  0.0429  0.2588
  647MOL0     C89150   3.364   1.929   2.619  0.0916 -0.4322  0.5310
  647MOL0     O89151   3.421   1.802   2.631  0.8160  0.0887  0.5738
  647MOL0     C89152   3.558   1.793   2.642  0.9034 -0.5166  0.6783
  647MOL0     C89153   3.630   1.765   2.761  0.1888  0.7004  0.1650
  647MOL0     C89154   3.775   1.773   2.760 -0.5897 -0.3365  0.0645
  647MOL0     C89155   3.849   1.796   2.637 -0.2511  1.0190 -0.8364
  647MOL0     O89156   3.980   1.787   2.628 -0.2666 -0.0579  0.1252
  647MOL0     C89157   4.058   1.783   2.745  0.3131 -0.1104  0.3789
  647MOL0     C89158   4.209   1.813   2.731  0.5972  0.0327 -0.3509
  647MOL0     C89159   4.277   1.767   2.596  0.0420  0.1113  0.8533
  647MOL0     C89160   4.424   1.744   2.609  0.1919  0.0661  0.2463
  647MOL0     C89161   4.497   1.695   2.484  0.2116 -0.1169 -0.1448
  647MOL0     C89162   4.646   1.664   2.508  0.0957  0.5564  0.4530
  647MOL0     C89163   4.722   1.613   2.379 -0.1691  0.9245 -0.4224
  647MOL0     C89164   4.741   1.722   2.266  0.5389  0.3514  0.3806
  647MOL0     N89165   4.770   1.686   2.122  0.3150  0.0290  0.4611
  647MOL0     C89166   4.758   1.569   2.050 -0.4039 -0.4192 -0.0433
  647MOL0     C89167   4.796   1.592   1.926 -0.1151 -0.0201  0.0787
  647MOL0     C89168   4.783   1.499   1.808 -0.4270  1.3826  0.2557
  647MOL0     C89169   4.903   1.521   1.706 -0.7520  0.2503  0.4915
  647MOL0     C89170   4.864   1.634   1.615 -0.7770 -0.1672  0.2282
  647MOL0     C89171   4.985   1.655   1.530  0.7467  1.0252 -1.2396
  647MOL0     O89172   4.948   1.772   1.465 -0.7447 -0.0818 -0.4754
  647MOL0     C89173   5.050   1.830   1.387  0.5300 -0.0715 -0.1120
  647MOL0     C89174   5.182   1.794   1.394  0.1192 -0.4962  1.0651
  647MOL0     C89175   5.279   1.862   1.321 -0.0961  1.4070 -0.3592
  647MOL0     C89176   5.424   1.805   1.317  0.7761  0.1734  0.5063
  647MOL0     C89177   5.239   1.971   1.239 -0.3492 -0.5960  0.2316
  647MOL0     C89178   5.344   2.051   1.159  0.4787  0.5307  0.2935
  647MOL0     O89179   5.463   2.076   1.219 -0.1930 -0.6801  0.1578
  647MOL0     C89180   5.560   2.131   1.139  0.0488  1.0584  0.7945
  647MOL0     C89181   5.558   2.261   1.085  0.4687 -0.1290  0.8376
  647MOL0     C89182   5.658   2.317   1.006 -0.0266 -0.6601  0.1611
  647MOL0     C89183   5.775   2.239   0.980  0.2605 -0.9596 -0.2714
  647MOL0     O89184   5.890   2.287   0.918 -0.5324  0.1634  0.1899
  647MOL0     C89185   5.866   2.393   0.832  0.1928  0.8855  0.2505
  647MOL0     C89186   5.976   2.435   0.729 -0.4127 -0.4522 -0.0543
  647MOL0     C89187   6.093   2.492   0.804  0.1985  0.3116 -1.0742
  647MOL0     C89188   6.198   2.524   0.700  0.0006 -0.4421  0.3465
  647MOL0     C89189   6.320   2.582   0.776  0.0949  0.1928 -0.9319
  647MOL0     C89190   6.436   2.587   0.673 -0.1142 -0.1343 -0.5965
  647MOL0     C89191   6.565   2.625   0.738  0.8286  0.0893  0.3431
  647MOL0     C89192   6.677   2.635   0.629 -0.2821  0.4026 -0.4967
  647MOL0    Cl89193   6.650   2.785   0.528  0.4787  0.6033 -0.2275
  647MOL0     C89194   5.782   2.112   1.032 -0.6557 -0.0145 -0.0815
  647MOL0     C89195   5.679   2.055   1.113  0.6626  0.5479 -0.1895
  647MOL0     O89196   5.318   2.062   1.035  0.0481  0.0580 -0.0438
  647MOL0     C89197   5.107   2.022   1.253  0.7242 -0.0491  0.9176
  647MOL0     C89198   5.019   1.951   1.329 -0.8441 -0.2439  0.2065
  647MOL0     N89199   4.839   1.724   1.922 -0.0562 -0.7705 -0.3229
  647MOL0     N89200   4.822   1.771   2.041 -0.2063 -0.8933 -0.0133
  647MOL0     C89201   3.774   1.803   2.514  0.3026  0.5390 -0.1436
  647MOL0     C89202   3.634   1.813   2.521 -0.6985 -0.9302 -0.2178
  647MOL0     C89203   3.218   1.925   2.589  0.7041  0.6313 -0.3645
  647MOL0     C89204   3.150   1.819   2.638  0.1938 -0.5760  0.3651
  647MOL0     C89205   3.009   1.819   2.634  0.1002 -0.5026  0.4728
  647MOL0     C89206   2.938   1.923   2.569 -0.0033  0.2443  0.0845
  647MOL0     O89207   2.804   1.905   2.580  0.0709 -0.4226 -0.1347
  647MOL0     C89208   2.725   1.958   2.471  0.0065  0.0561 -0.0373
  647MOL0     C89209   2.587   1.906   2.483 -0.0626 -0.3881 -0.0916
  647MOL0     C89210   2.526   1.962   2.613 -0.0557  0.7560  1.1856
  647MOL0     C89211   2.378   1.921   2.617 -0.2191  0.0879  0.0657
  647MOL0     C89212   2.327   1.975   2.745 -0.8397 -0.5485  0.1162
  647MOL0     C89213   2.290   2.007   2.858 -0.6962 -0.0087 -0.8417
  647MOL0     C89214   3.006   2.033   2.509  0.1672  0.2803  0.6320
  647MOL0     C89215   3.147   2.028   2.526  0.6799 -0.0994  0.9858
  647MOL0     C89216   3.208   2.142   2.447 -0.8734 -0.4485 -0.5274
  647MOL0     H89217   3.582   1.746   2.856  1.4418  0.5035  0.7861
  647MOL0     H89218   3.829   1.752   2.851 -2.0387  0.8005  1.2448
  647MOL0     H89219   4.045   1.686   2.795  0.3574 -1.0254 -1.2974
  647MOL0     H89220   4.018   1.855   2.816 -0.1452  0.7164 -0.6814
  647MOL0     H89221   4.218   1.922   2.740 -1.4892  0.2183  0.1104
  647MOL0     H89222   4.253   1.768   2.820  1.8375  2.8905  0.5869
  647MOL0     H89223   4.236   1.676   2.552 -2.5037  1.0390  1.1697
  647MOL0     H89224   4.258   1.844   2.521  0.0295 -1.7732 -1.1613
  647MOL0     H89225   4.468   1.839   2.640 -0.4608 -0.1637  2.0074
  647MOL0     H89226   4.438   1.667   2.686  0.6922 -0.3349 -0.2418
  647MOL0     H89227   4.485   1.775   2.411 -0.0975  1.2435  1.3518
  647MOL0     H89228   4.445   1.603   2.452 -2.0167  0.3087  1.9804
  647MOL0     H89229   4.706   1.746   2.549  2.7143 -0.4247 -1.1429
  647MOL0     H89230   4.649   1.581   2.579 -0.9581 -0.3391 -0.4964
  647MOL0     H89231   4.666   1.531   2.334 -0.3883  1.6104 -1.4470
  647MOL0     H89232   4.821   1.578   2.410  0.0673  2.5912  0.8291
  647MOL0     H89233   4.649   1.781   2.270 -1.7556 -2.9624  0.5306
  647MOL0     H89234   4.816   1.793   2.300  1.1079 -1.0453  2.2165
  647MOL0     H89235   4.716   1.474   2.081 -1.0511  0.2517  1.2066
  647MOL0     H89236   4.678   1.510   1.777 -0.9221 -2.0877  0.2687
  647MOL0     H89237   4.787   1.398   1.851 -1.8908  2.2715  2.7195
  647MOL0     H89238   4.996   1.532   1.762  0.9134  1.6771 -2.3369
  647MOL0     H89239   4.927   1.433   1.646  0.7394 -0.0360  1.4523
  647MOL0     H89240   4.769   1.617   1.563  0.2623 -0.8106 -1.5625
  647MOL0     H89241   4.848   1.729   1.668 -2.9312  0.4199 -1.2990
  647MOL0     H89242   5.075   1.659   1.592 -1.9914  0.4233  3.3081
  647MOL0     H89243   5.002   1.572   1.461  1.2689  2.3403 -2.7568
  647MOL0     H89244   5.214   1.710   1.455 -1.8817  1.2808  4.9369
  647MOL0     H89245   5.421   1.703   1.356 -2.6435 -0.6739 -1.5123
  647MOL0     H89246   5.490   1.866   1.380  2.4756  0.1777 -1.2034
  647MOL0     H89247   5.474   1.813   1.220  0.1417  1.6743  0.2679
  647MOL0     H89248   5.463   2.310   1.103  0.2121 -0.8603  1.5925
  647MOL0     H89249   5.659   2.422   0.977  2.2800 -0.6309  0.1347
  647MOL0     H89250   5.787   2.357   0.765  1.9179 -1.6573 -0.5688
  647MOL0     H89251   5.828   2.478   0.889 -0.3627  1.3777 -0.8221
  647MOL0     H89252   5.990   2.342   0.673  2.7401  1.3876 -2.5982
  647MOL0     H89253   5.933   2.501   0.654  0.4726 -1.2884 -1.3320
  647MOL0     H89254   6.134   2.432   0.885  0.2795  1.3888 -0.2881
  647MOL0     H89255   6.064   2.586   0.853  2.1951  1.2691 -1.6306
  647MOL0     H89256   6.164   2.596   0.624 -0.4885 -0.2948  0.7033
  647MOL0     H89257   6.232   2.434   0.648 -0.9434 -1.1861  0.9815
  647MOL0     H89258   6.289   2.676   0.822  0.4649 -0.5035  0.8225
  647MOL0     H89259   6.347   2.504   0.848 -0.8387 -0.8394 -1.6636
  647MOL0     H89260   6.416   2.654   0.588  0.8490  0.6041 -0.2621
  647MOL0     H89261   6.459   2.490   0.628  1.2213 -0.1390  0.0497
  647MOL0     H89262   6.596   2.552   0.814 -0.9698 -0.8729  0.2134
  647MOL0     H89263   6.557   2.716   0.798  2.1315  1.2316 -1.1504
  647MOL0     H89264   6.674   2.543   0.572 -2.8823 -2.1614  3.3177
  647MOL0     H89265   6.776   2.644   0.677 -1.1922  1.9873  1.2316
  647MOL0     H89266   5.868   2.058   0.993  0.6802  0.4812  2.0157
  647MOL0     H89267   5.688   1.955   1.155 -2.0479 -0.4951 -1.7878
  647MOL0     H89268   5.083   2.112   1.198  1.8683 -0.1547  0.2366
  647MOL0     H89269   4.922   1.999   1.341 -1.2791 -1.4836  2.0278
  647MOL0     H89270   3.820   1.832   2.421 -3.8916  2.7136 -1.8103
  647MOL0     H89271   3.570   1.837   2.436 -1.2201  2.6301  1.0138
  647MOL0     H89272   3.200   1.734   2.682  1.0043 -0.5108 -0.4154
  647MOL0     H89273   2.954   1.749   2.697  1.1930 -1.6981  0.1446
  647MOL0     H89274   2.728   2.066   2.455  0.8581  0.0088 -0.2888
  647MOL0     H89275   2.775   1.915   2.384 -0.2866 -2.5726  0.9954
  647MOL0     H89276   2.588   1.797   2.482 -1.3149 -0.4413  1.0520
  647MOL0     H89277   2.532   1.948   2.398  0.4463  1.6181  0.5061
  647MOL0     H89278   2.570   1.917   2.702 -1.9488  1.7262  2.6736
  647MOL0     H89279   2.545   2.069   2.603  1.3546  0.5663  1.5402
  647MOL0     H89280   2.360   1.814   2.632 -1.0531  0.2361  0.1718
  647MOL0     H89281   2.328   1.950   2.524  0.5374  1.0911 -0.0421
  647MOL0     H89282   2.265   2.032   2.959 -0.8495  0.1613 -0.9217
  647MOL0     H89283   2.958   2.104   2.444 -0.0145 -0.8356 -0.4870
  647MOL0     H89284   3.293   2.189   2.497 -1.2145  0.4480 -0.7798
  647MOL0     H89285   3.258   2.096   2.361 -0.2683 -1.8368  0.5252
  647MOL0     H89286   3.138   2.223   2.426 -0.8814  0.5276  2.6967
  648MOL0     O89287   5.932   6.296   9.264  0.3645  0.4642  0.3750
  648MOL0     C89288   5.943   6.409   9.316  0.1422  0.4768 -0.0681
  648MOL0     O89289   6.004   6.438   9.438  0.1236 -0.1219 -0.1797
  648MOL0     C89290   6.105   6.354   9.488  0.0589  0.8488  0.0847
  648MOL0     C89291   6.108   6.306   9.624  0.2290  0.0450  0.3433
  648MOL0     C89292   6.198   6.220   9.670 -0.6082 -0.0690 -0.5763
  648MOL0     C89293   6.297   6.174   9.590 -0.8648 -0.4708  0.3755
  648MOL0     O89294   6.406   6.090   9.626  0.0633 -0.0825  0.8163
  648MOL0     C89295   6.481   6.128   9.749 -0.1753  0.0463 -1.0197
  648MOL0     C89296   6.629   6.115   9.721 -0.0101 -0.3623  0.8465
  648MOL0     C89297   6.706   6.153   9.846  0.0614  0.2013 -0.6457
  648MOL0     C89298   6.773   6.028   9.909  0.1860  0.5580  0.9473
  648MOL0     C89299   6.873   6.054  10.023 -0.9072  0.1019 -0.0038
  648MOL0     C89300   6.802   6.105  10.156 -0.8252  0.2603  0.3090
  648MOL0     C89301   6.908   6.169  10.250 -0.9224 -0.4738  0.0658
  648MOL0     C89302   6.967   6.308  10.219  1.0461 -0.0729 -0.1148
  648MOL0     N89303   7.059   6.376  10.318 -0.7020  0.4707  1.7134
  648MOL0     C89304   7.180   6.328  10.365  0.0388  0.1517 -0.0553
  648MOL0     C89305   7.195   6.400  10.479  0.1376 -0.6207 -0.6831
  648MOL0     C89306   7.318   6.392  10.566 -0.0716 -0.0764  0.2415
  648MOL0     C89307   7.403   6.255  10.553  0.1747 -0.2407  1.2095
  648MOL0     C89308   7.538   6.290  10.604 -1.0817 -0.1148  0.1976
  648MOL0     C89309   7.633   6.184  10.642  0.1894  0.7955 -0.2771
  648MOL0     O89310   7.690   6.235  10.767  0.3137  0.4253 -0.0847
  648MOL0     C89311   7.797   6.185  10.837 -0.0960  0.9675 -0.8800
  648MOL0     C89312   7.880   6.078  10.816 -0.4173 -0.1949  0.4250
  648MOL0     C89313   7.995   6.055  10.898  0.3649 -0.3874  0.3187
  648MOL0     C89314   8.084   5.934  10.876 -0.1664  0.1225  1.1727
  648MOL0     C89315   8.009   6.126  11.019  1.0241  0.1702 -0.3540
  648MOL0     C89316   8.129   6.119  11.114  0.0759  0.2112 -0.4307
  648MOL0     O89317   8.255   6.080  11.061  0.7420  0.1588  0.2844
  648MOL0     C89318   8.360   6.061  11.141 -0.3048  0.4499  0.6516
  648MOL0     C89319   8.389   5.933  11.180 -0.0567 -0.5692  1.0761
  648MOL0     C89320   8.499   5.905  11.262  0.0243 -0.4959 -0.3848
  648MOL0     C89321   8.592   6.003  11.302 -0.2648  0.0312 -0.4598
  648MOL0     O89322   8.697   5.974  11.385 -0.1605  0.0966 -0.5402
  648MOL0     C89323   8.791   5.872  11.344  0.3785  0.3580 -0.7510
  648MOL0     C89324   8.914   5.895  11.431 -0.7881  0.1494 -0.3677
  648MOL0     C89325   8.905   5.868  11.577  0.3690  0.2586  0.1840
  648MOL0     C89326   8.899   5.991  11.666 -0.6444  0.4206 -0.1371
  648MOL0     C89327   8.884   5.961  11.818 -0.0264 -0.3542  0.5247
  648MOL0     C89328   8.741   5.907  11.844  0.1104 -0.2633 -0.2668
  648MOL0     C89329   8.727   5.903  11.997  0.2057  0.4429  0.6232
  648MOL0     C89330   8.595   5.833  12.028  0.2460 -0.3353 -0.0108
  648MOL0    Cl89331   8.456   5.922  11.949 -0.0403 -0.2579  0.2995
  648MOL0     C89332   8.567   6.129  11.252 -0.1253 -0.6255 -0.4403
  648MOL0     C89333   8.442   6.159  11.185  0.4535 -0.4453  0.4852
  648MOL0     O89334   8.109   6.157  11.231  0.2640 -0.3069  0.7895
  648MOL0     C89335   7.911   6.223  11.055 -0.2767  0.2264  0.7756
  648MOL0     C89336   7.803   6.255  10.960  0.3531 -0.5666 -0.5044
  648MOL0     N89337   7.088   6.484  10.499 -0.3257 -0.5416 -0.5176
  648MOL0     N89338   7.008   6.460  10.411 -0.4067 -0.5782 -0.1397
  648MOL0     C89339   6.300   6.219   9.456  0.4164 -0.1839  0.3880
  648MOL0     C89340   6.207   6.309   9.404 -0.6039  0.6072 -0.1130
  648MOL0     C89341   5.874   6.526   9.244  0.4128 -0.6749 -0.5141
  648MOL0     C89342   5.893   6.650   9.308  0.3920 -0.1774  0.1453
  648MOL0     C89343   5.843   6.766   9.250 -0.2314 -0.7373 -0.3052
  648MOL0     C89344   5.778   6.760   9.122  0.4319  0.6035 -0.3068
  648MOL0     O89345   5.718   6.865   9.052  0.2700 -0.4246 -0.4366
  648MOL0     C89346   5.759   7.001   9.100  0.2698  0.8991  0.1612
  648MOL0     C89347   5.685   7.110   9.019 -0.2782 -0.1231 -0.3255
  648MOL0     C89348   5.784   7.187   8.929 -0.5774 -0.4641 -0.3509
  648MOL0     C89349   5.716   7.279   8.827  0.2078  0.6693  0.1587
  648MOL0     C89350   5.639   7.203   8.724  0.5674  0.7967 -0.0163
  648MOL0     C89351   5.561   7.148   8.651  0.5422 -0.3372  0.1847
  648MOL0     C89352   5.753   6.634   9.065 -0.0438 -0.3798  0.5095
  648MOL0     C89353   5.791   6.519   9.129  0.3842  0.8501 -1.3072
  648MOL0     C89354   5.734   6.393   9.067  0.0406  0.0780  0.4453
  648MOL0     H89355   6.027   6.326   9.694 -0.3717 -1.6790  0.1882
  648MOL0     H89356   6.197   6.174   9.769 -0.0829  1.9313  0.4061
  648MOL0     H89357   6.464   6.065   9.837 -1.8117  1.3468 -0.3348
  648MOL0     H89358   6.456   6.226   9.792 -0.0891 -1.3501  2.5410
  648MOL0     H89359   6.651   6.011   9.693  0.4044 -0.8455  2.8043
  648MOL0     H89360   6.664   6.168   9.632  0.9992 -0.5850  1.1067
  648MOL0     H89361   6.781   6.230   9.827 -2.8827  3.0975 -1.3612
  648MOL0     H89362   6.647   6.208   9.920  2.6288  3.0610 -0.5301
  648MOL0     H89363   6.700   5.953   9.942  0.3988  1.5052  3.8193
  648MOL0     H89364   6.828   5.975   9.831  1.6949 -0.2054  2.4696
  648MOL0     H89365   6.946   6.127   9.987  0.6914 -1.5772 -0.2464
  648MOL0     H89366   6.924   5.958  10.031 -1.3275 -0.9133 -5.4359
  648MOL0     H89367   6.737   6.192  10.144  0.8175  1.5758  0.5368
  648MOL0     H89368   6.739   6.029  10.202 -1.8283  1.6224  1.2800
  648MOL0     H89369   6.990   6.096  10.252  0.3400  0.8310  3.8708
  648MOL0     H89370   6.861   6.175  10.348  0.8835  0.5376  0.9149
  648MOL0     H89371   7.020   6.299  10.123 -0.9772 -1.9261 -1.1572
  648MOL0     H89372   6.879   6.368  10.195 -0.2616 -2.7872 -2.6849
  648MOL0     H89373   7.240   6.253  10.314  0.5007 -0.4480  1.3158
  648MOL0     H89374   7.288   6.401  10.671  1.2128 -1.7609  0.8076
  648MOL0     H89375   7.381   6.479  10.546 -2.1389  1.5730  0.5333
  648MOL0     H89376   7.353   6.171  10.601 -2.1054 -1.0897 -2.3296
  648MOL0     H89377   7.419   6.236  10.446  1.8556 -0.2106  1.4291
  648MOL0     H89378   7.601   6.350  10.538  2.6229 -1.0142  2.6020
  648MOL0     H89379   7.521   6.348  10.695  1.3226  0.5910  0.2390
  648MOL0     H89380   7.574   6.097  10.676  0.9304 -1.1461 -3.5642
  648MOL0     H89381   7.703   6.149  10.566 -1.6020 -0.6209 -1.3606
  648MOL0     H89382   7.869   6.016  10.727  0.2210 -0.9326  0.8424
  648MOL0     H89383   8.047   5.883  10.786  0.4793  1.4436  0.1260
  648MOL0     H89384   8.092   5.868  10.962 -1.0392 -2.1221 -0.3625
  648MOL0     H89385   8.182   5.972  10.848  0.0364 -0.5141  0.9975
  648MOL0     H89386   8.312   5.856  11.172 -0.2975 -0.2050 -0.3769
  648MOL0     H89387   8.508   5.805  11.302 -0.3520  0.9554  3.8091
  648MOL0     H89388   8.755   5.769  11.357  1.7085 -0.0117  0.2609
  648MOL0     H89389   8.811   5.892  11.239  2.2326  2.0456 -0.1368
  648MOL0     H89390   8.982   5.815  11.400 -1.7908 -2.0736  2.7133
  648MOL0     H89391   8.950   5.996  11.411 -1.8215  0.5750 -0.1493
  648MOL0     H89392   8.984   5.803  11.616  0.7690  0.2786 -0.5557
  648MOL0     H89393   8.824   5.797  11.591  2.0081 -1.3091  2.4358
  648MOL0     H89394   8.816   6.053  11.631 -1.2143  0.4560  1.1809
  648MOL0     H89395   8.985   6.058  11.653 -0.7922  0.6404  0.0138
  648MOL0     H89396   8.954   5.885  11.853  1.4215  0.3161 -0.8191
  648MOL0     H89397   8.905   6.053  11.873  1.4927 -0.0768 -0.4570
  648MOL0     H89398   8.729   5.804  11.807 -2.8375 -0.0121 -0.2461
  648MOL0     H89399   8.672   5.971  11.788  2.0300  2.1495 -0.0420
  648MOL0     H89400   8.728   6.006  12.035  2.1712  0.6704  0.0910
  648MOL0     H89401   8.801   5.839  12.046 -0.6631 -3.5307 -2.6341
  648MOL0     H89402   8.579   5.829  12.137 -2.1855 -1.9871 -0.3312
  648MOL0     H89403   8.595   5.727  12.003 -3.8378 -1.3844  3.1772
  648MOL0     H89404   8.638   6.211  11.266  0.6919 -1.0088 -2.0460
  648MOL0     H89405   8.416   6.260  11.155 -1.3014 -0.8239  0.6586
  648MOL0     H89406   7.929   6.284  11.143  0.2155  2.6867 -0.9169
  648MOL0     H89407   7.746   6.340  10.995  0.6305 -1.0740  1.3187
  648MOL0     H89408   6.386   6.184   9.401  1.2577 -2.4641  2.9133
  648MOL0     H89409   6.207   6.344   9.301  1.1163  1.5341  0.1614
  648MOL0     H89410   5.957   6.657   9.396 -0.8640 -1.1483  1.1651
  648MOL0     H89411   5.863   6.858   9.304  0.4529 -1.0349 -0.0371
  648MOL0     H89412   5.720   7.014   9.202  0.0832 -1.3074  0.4337
  648MOL0     H89413   5.868   7.008   9.106  0.6727 -0.1784 -3.5342
  648MOL0     H89414   5.646   7.177   9.096  2.4938 -1.6205  2.6364
  648MOL0     H89415   5.597   7.085   8.959 -1.2002  2.4799 -0.2003
  648MOL0     H89416   5.846   7.238   9.003 -3.8225  0.3262  2.0521
  648MOL0     H89417   5.844   7.109   8.882 -0.8978 -0.5974 -0.5505
  648MOL0     H89418   5.800   7.331   8.781  2.7292 -2.4667  0.8553
  648MOL0     H89419   5.650   7.357   8.866 -2.2510  0.3983 -3.1183
  648MOL0     H89420   5.501   7.096   8.580  0.2210  0.4684 -0.1475
  648MOL0     H89421   5.698   6.626   8.971  1.4951 -0.0238 -0.4528
  648MOL0     H89422   5.806   6.349   8.997 -0.4030  0.4155 -0.2322
  648MOL0     H89423   5.705   6.319   9.142  0.7402 -0.1271  0.5211
  648MOL0     H89424   5.643   6.415   9.011  0.4338  0.9389  0.1213
  649MOL0     O89425   5.000   9.629   9.410 -0.3194 -0.5454  0.3295
  649MOL0     C89426   5.040   9.521   9.453  0.2907 -0.1995  0.3587
  649MOL0     O89427   4.969   9.401   9.443 -0.7398  0.9537  0.4788
  649MOL0     C89428   4.844   9.400   9.372  0.5744 -0.6068 -0.6421
  649MOL0     C89429   4.732   9.345   9.444 -0.7844 -0.7751  0.8446
  649MOL0     C89430   4.603   9.364   9.388  0.9196  0.5534  0.0225
  649MOL0     C89431   4.593   9.391   9.249  0.5162 -0.1229  0.5558
  649MOL0     O89432   4.479   9.407   9.179 -0.1944  0.3993  0.4298
  649MOL0     C89433   4.358   9.412   9.254 -0.3015  0.1450  0.1367
  649MOL0     C89434   4.257   9.475   9.168 -0.7290 -0.2103 -0.4272
  649MOL0     C89435   4.233   9.371   9.053 -0.5790  0.2000 -0.0607
  649MOL0     C89436   4.125   9.425   8.961  0.9699 -0.9433  0.2732
  649MOL0     C89437   4.129   9.379   8.817  0.7204 -0.6682 -0.2781
  649MOL0     C89438   4.116   9.232   8.791 -0.0008  0.2697  0.1809
  649MOL0     C89439   4.088   9.198   8.640  0.3551  0.1443 -0.1854
  649MOL0     C89440   4.212   9.178   8.561  0.7072  0.4085  0.0068
  649MOL0     N89441   4.293   9.059   8.582 -0.4086 -0.9419 -0.2580
  649MOL0     C89442   4.341   8.991   8.477 -0.0209 -0.5208 -0.0912
  649MOL0     C89443   4.388   8.871   8.533  0.6956 -0.1265  0.4684
  649MOL0     C89444   4.456   8.748   8.470 -0.6753  0.8270  0.0741
  649MOL0     C89445   4.606   8.747   8.513 -0.2624 -0.4342 -0.2407
  649MOL0     C89446   4.693   8.632   8.460  0.9500 -0.3615 -0.3233
  649MOL0     C89447   4.846   8.661   8.488 -0.2975  0.9958  0.2579
  649MOL0     O89448   4.913   8.746   8.396 -0.4745  0.0066 -0.2586
  649MOL0     C89449   4.979   8.685   8.293  0.6329 -0.5093 -0.9482
  649MOL0     C89450   5.075   8.762   8.221  0.4453 -0.1603  1.1047
  649MOL0     C89451   5.155   8.703   8.116  0.6091 -0.1060  0.1768
  649MOL0     C89452   5.261   8.790   8.056  0.1953  0.7418  0.4279
  649MOL0     C89453   5.130   8.570   8.070 -0.7415  1.2586  0.0971
  649MOL0     C89454   5.204   8.493   7.955  0.4658  0.8084 -0.1088
  649MOL0     O89455   5.158   8.373   7.909  0.2517  0.4594  0.1603
  649MOL0     C89456   5.238   8.304   7.820 -0.3534  0.1629 -0.4734
  649MOL0     C89457   5.377   8.276   7.846  0.1881 -0.0590  0.1386
  649MOL0     C89458   5.457   8.204   7.756  0.1897 -0.3083  1.0717
  649MOL0     C89459   5.412   8.165   7.627  0.0992  0.0967  0.2870
  649MOL0     O89460   5.490   8.117   7.523 -0.5700  0.1350  0.3384
  649MOL0     C89461   5.548   7.989   7.561 -0.0313 -0.2967 -0.3679
  649MOL0     C89462   5.601   7.904   7.445 -0.3473  0.4743  0.3326
  649MOL0     C89463   5.491   7.800   7.400  0.2618 -0.1025 -0.9840
  649MOL0     C89464   5.538   7.720   7.271 -0.4124 -0.7687 -0.1122
  649MOL0     C89465   5.680   7.653   7.275 -0.3969 -0.1909 -0.3076
  649MOL0     C89466   5.706   7.553   7.393 -0.5846  1.1006 -0.0114
  649MOL0     C89467   5.620   7.430   7.377 -0.5585 -0.0420 -0.0805
  649MOL0     C89468   5.671   7.304   7.442  0.3353 -0.4419 -0.5509
  649MOL0    Cl89469   5.658   7.338   7.631  0.2094  0.0394  0.3686
  649MOL0     C89470   5.278   8.195   7.602  0.2348 -0.7117  0.1500
  649MOL0     C89471   5.195   8.262   7.690 -0.2126 -1.2006 -0.5428
  649MOL0     O89472   5.295   8.552   7.904  0.8014  0.4338  0.0024
  649MOL0     C89473   5.036   8.506   8.140  0.0614 -0.2669  0.2497
  649MOL0     C89474   4.958   8.556   8.247  0.4045  0.0049  0.3388
  649MOL0     N89475   4.355   8.875   8.669 -0.2472  0.4055  0.2164
  649MOL0     N89476   4.313   8.991   8.695 -0.5119  0.1873 -0.2355
  649MOL0     C89477   4.707   9.432   9.176 -0.4717 -0.5424 -0.6769
  649MOL0     C89478   4.831   9.446   9.237  0.6245  0.3647 -0.0266
  649MOL0     C89479   5.172   9.512   9.527 -0.3862 -0.3162  1.2454
  649MOL0     C89480   5.235   9.385   9.538 -1.2042 -0.8023  0.1358
  649MOL0     C89481   5.365   9.370   9.598 -0.1862 -1.0001  0.7644
  649MOL0     C89482   5.436   9.490   9.636  0.5638  0.5931 -0.2740
  649MOL0     O89483   5.560   9.497   9.698  0.1872  0.1702 -0.1897
  649MOL0     C89484   5.639   9.380   9.686  0.2487  0.4609  0.1158
  649MOL0     C89485   5.774   9.397   9.736 -0.1041 -1.0723 -0.0189
  649MOL0     C89486   5.796   9.506   9.853 -1.0779  0.3449 -0.1450
  649MOL0     C89487   5.947   9.507   9.886  0.0725 -0.9416  0.3339
  649MOL0     C89488   6.034   9.589   9.803  0.2374  0.0624 -0.3706
  649MOL0     C89489   6.121   9.656   9.747  0.9480 -0.5397  0.1750
  649MOL0     C89490   5.370   9.613   9.625 -0.0274  0.7519  0.0877
  649MOL0     C89491   5.238   9.630   9.585 -0.0539  0.3814 -1.4266
  649MOL0     C89492   5.175   9.766   9.587  0.2682  0.4201  0.8172
  649MOL0     H89493   4.747   9.294   9.538  3.4085 -6.5569 -2.2783
  649MOL0     H89494   4.525   9.322   9.451 -0.3717 -1.2102 -2.5515
  649MOL0     H89495   4.371   9.470   9.346  1.5677 -1.1685  0.7539
  649MOL0     H89496   4.317   9.311   9.267 -1.9899  0.4322 -2.1608
  649MOL0     H89497   4.170   9.505   9.227  0.3872  1.4970  0.4251
  649MOL0     H89498   4.308   9.565   9.132 -0.1931  0.3007  1.4692
  649MOL0     H89499   4.322   9.368   8.989 -0.4527  0.8525  0.0776
  649MOL0     H89500   4.216   9.269   9.087  0.9756 -0.9557 -2.4877
  649MOL0     H89501   4.027   9.388   8.993  0.6891 -0.3763  0.0817
  649MOL0     H89502   4.131   9.534   8.960 -1.0270 -0.7422 -2.9391
  649MOL0     H89503   4.220   9.418   8.770  0.1473  2.1256  0.7209
  649MOL0     H89504   4.046   9.430   8.767  1.3712 -1.1268 -1.9077
  649MOL0     H89505   4.211   9.187   8.822  0.1191  0.2160 -0.2637
  649MOL0     H89506   4.035   9.189   8.851 -1.7122  0.6851 -1.7327
  649MOL0     H89507   4.035   9.281   8.592  0.0844  0.3672  0.4857
  649MOL0     H89508   4.032   9.104   8.637  0.5392 -0.1007  2.0525
  649MOL0     H89509   4.186   9.167   8.455  3.5011 -0.4515 -0.6683
  649MOL0     H89510   4.274   9.267   8.574  2.0612 -0.2408 -1.5697
  649MOL0     H89511   4.330   9.014   8.371 -2.7491  1.3458  0.4836
  649MOL0     H89512   4.453   8.750   8.360  1.1888 -1.8616 -0.1251
  649MOL0     H89513   4.406   8.655   8.498 -3.5018  1.5390 -2.1098
  649MOL0     H89514   4.655   8.839   8.479  0.6303  0.2889  2.7406
  649MOL0     H89515   4.608   8.750   8.622 -2.2623 -3.3628  0.0010
  649MOL0     H89516   4.661   8.541   8.512 -1.4548 -0.0144 -1.0642
  649MOL0     H89517   4.687   8.617   8.352 -0.9026  3.7109 -0.9769
  649MOL0     H89518   4.849   8.695   8.592  1.1198  0.3798  0.4396
  649MOL0     H89519   4.904   8.569   8.481 -1.5533  0.1694  0.5370
  649MOL0     H89520   5.092   8.866   8.249 -0.3018  0.6820 -1.2990
  649MOL0     H89521   5.358   8.760   8.097  0.3317  0.2069 -0.2669
  649MOL0     H89522   5.253   8.894   8.089  0.4259  0.8564  0.1309
  649MOL0     H89523   5.261   8.801   7.947 -0.6128 -1.8467  0.1010
  649MOL0     H89524   5.435   8.303   7.934  3.3020 -2.3539 -0.9995
  649MOL0     H89525   5.565   8.200   7.771  0.1826 -0.5800  1.0536
  649MOL0     H89526   5.641   8.011   7.614 -0.9375 -0.9917  1.6097
  649MOL0     H89527   5.483   7.929   7.625 -1.6690  2.7552  1.0530
  649MOL0     H89528   5.617   7.974   7.363  0.8075 -1.5791 -1.2994
  649MOL0     H89529   5.695   7.859   7.479 -1.3380 -1.1909  0.9760
  649MOL0     H89530   5.397   7.850   7.375 -0.8717 -1.8176 -0.3189
  649MOL0     H89531   5.463   7.739   7.487 -2.3974  0.4310 -1.3748
  649MOL0     H89532   5.542   7.795   7.191 -1.8121  0.1458  0.6370
  649MOL0     H89533   5.462   7.644   7.248 -0.7638 -0.6537  0.6396
  649MOL0     H89534   5.686   7.597   7.181 -0.1518  1.1307 -1.0981
  649MOL0     H89535   5.759   7.725   7.255  2.0965 -3.1875 -2.3034
  649MOL0     H89536   5.690   7.602   7.490  2.4852 -1.0876  1.7942
  649MOL0     H89537   5.812   7.527   7.389 -0.7817  0.1646  0.5582
  649MOL0     H89538   5.603   7.411   7.271  3.6017 -3.4123 -0.4135
  649MOL0     H89539   5.522   7.449   7.422 -0.7882  1.0304 -1.0063
  649MOL0     H89540   5.776   7.292   7.412  0.5303 -0.7095  0.1972
  649MOL0     H89541   5.606   7.219   7.425  0.1438 -0.3388 -0.3378
  649MOL0     H89542   5.241   8.175   7.502  1.3358  2.2904 -0.9577
  649MOL0     H89543   5.100   8.302   7.658 -0.0403  0.5897  1.0077
  649MOL0     H89544   5.007   8.404   8.115 -1.4241 -1.1128  4.5831
  649MOL0     H89545   4.870   8.505   8.284 -0.9582  1.6842 -0.4276
  649MOL0     H89546   4.691   9.470   9.075 -0.5026  0.9680 -0.1296
  649MOL0     H89547   4.919   9.483   9.187  1.5082  0.8830  1.8104
  649MOL0     H89548   5.181   9.297   9.506  1.3496 -2.0615 -1.0362
  649MOL0     H89549   5.406   9.270   9.604 -1.9974 -1.7535  1.4452
  649MOL0     H89550   5.594   9.311   9.758 -0.7774  1.4655  0.4727
  649MOL0     H89551   5.649   9.334   9.588  1.0503 -1.3686  0.9914
  649MOL0     H89552   5.841   9.424   9.655 -0.1399  1.0729  0.6020
  649MOL0     H89553   5.813   9.303   9.777 -1.4393 -1.1315  1.2039
  649MOL0     H89554   5.755   9.605   9.830 -0.3507  0.5052 -0.7817
  649MOL0     H89555   5.745   9.474   9.945 -1.5939  0.4088 -0.4071
  649MOL0     H89556   5.997   9.410   9.889  1.5371 -0.3043 -1.3099
  649MOL0     H89557   5.961   9.540   9.990  0.5393 -1.2238  0.3645
  649MOL0     H89558   6.194   9.718   9.700  0.2042  0.1297 -0.1130
  649MOL0     H89559   5.423   9.701   9.663  1.4083 -0.4191  0.9300
  649MOL0     H89560   5.076   9.763   9.632  0.1210 -1.0891  0.4454
  649MOL0     H89561   5.236   9.846   9.630  3.2663 -0.7879 -0.8710
  649MOL0     H89562   5.165   9.791   9.481  0.7541  1.2384  0.9556
  650MOL0     O89563   8.498   3.624   2.989  0.1471  0.8884  0.6040
  650MOL0     C89564   8.398   3.625   3.056 -0.6716 -0.2263 -0.5404
  650MOL0     O89565   8.372   3.710   3.164 -0.0056  0.4449  0.7145
  650MOL0     C89566   8.485   3.763   3.212  1.1968 -0.1635 -0.3181
  650MOL0     C89567   8.508   3.893   3.188 -0.2504  0.1166  0.0033
  650MOL0     C89568   8.622   3.953   3.237 -0.0016  0.5096 -0.9723
  650MOL0     C89569   8.725   3.878   3.315  0.8639 -0.8204  1.4028
  650MOL0     O89570   8.835   3.931   3.376  0.0375 -0.1584  0.4034
  650MOL0     C89571   8.856   4.069   3.372  0.2930 -0.6021  0.1880
  650MOL0     C89572   8.996   4.111   3.409 -0.1978 -0.8047 -0.2352
  650MOL0     C89573   9.056   4.057   3.539 -0.3440  0.2170 -0.1151
  650MOL0     C89574   9.191   3.991   3.519 -0.2532 -0.4208  0.3638
  650MOL0     C89575   9.300   4.100   3.490  0.3486 -0.3166 -0.1129
  650MOL0     C89576   9.431   4.045   3.545  0.2939  1.0012  0.5163
  650MOL0     C89577   9.560   4.116   3.505  0.5738  0.1781  0.4104
  650MOL0     C89578   9.681   4.022   3.513  0.0438 -0.5673 -0.2639
  650MOL0     N89579   9.807   4.097   3.518  0.1368  0.2384  0.4709
  650MOL0     C89580   9.903   4.090   3.617 -0.6168 -0.8996 -0.5732
  650MOL0     C89581   9.996   4.178   3.588 -0.4366 -0.4132  0.2325
  650MOL0     C89582  10.123   4.195   3.677 -0.5366  1.5566 -0.1505
  650MOL0     C89583  10.227   4.086   3.654  0.2486  1.0300  0.1551
  650MOL0     C89584  10.342   4.067   3.762  0.1921 -0.0285 -0.2094
  650MOL0     C89585  10.416   4.199   3.796  0.4317 -0.2111 -0.8380
  650MOL0     O89586  10.475   4.243   3.684 -0.5931 -0.5252  1.1676
  650MOL0     C89587  10.568   4.343   3.707 -0.8965  1.0403  0.6650
  650MOL0     C89588  10.554   4.436   3.809  0.2049 -0.2695 -0.4449
  650MOL0     C89589  10.655   4.531   3.830 -0.0081  0.3827  1.3399
  650MOL0     C89590  10.635   4.636   3.929  0.2748 -0.3814 -0.0859
  650MOL0     C89591  10.777   4.529   3.747 -0.1710 -0.0633  0.4974
  650MOL0     C89592  10.893   4.612   3.768  0.2738 -0.5283 -0.2321
  650MOL0     O89593  10.997   4.592   3.673  0.6319  0.3941  0.1757
  650MOL0     C89594  11.120   4.646   3.713 -0.5688 -0.2642  0.5934
  650MOL0     C89595  11.148   4.781   3.675 -0.0327 -0.3996 -0.9030
  650MOL0     C89596  11.279   4.833   3.682  0.6854  0.1465 -1.2508
  650MOL0     C89597  11.377   4.752   3.737 -0.7760  0.1426  0.2936
  650MOL0     O89598  11.506   4.800   3.758 -0.6489 -0.5650 -0.0612
  650MOL0     C89599  11.550   4.935   3.728  0.0783 -0.0766  0.1750
  650MOL0     C89600  11.680   4.977   3.795 -0.8299  0.7732  0.0626
  650MOL0     C89601  11.806   4.887   3.771  0.6195  0.4396 -0.7823
  650MOL0     C89602  11.944   4.939   3.807  0.2397  0.5969 -0.2271
  650MOL0     C89603  12.044   4.824   3.829  0.5829  0.0384 -0.0419
  650MOL0     C89604  12.028   4.778   3.976 -0.6625 -0.2447 -0.2289
  650MOL0     C89605  12.158   4.718   4.034 -0.1109 -0.0591 -0.3045
  650MOL0     C89606  12.189   4.577   3.978 -0.4419  0.3502 -0.4683
  650MOL0    Cl89607  12.347   4.519   4.045 -0.6162 -0.0778 -0.1355
  650MOL0     C89608  11.353   4.628   3.773 -0.1617  0.5903  0.3865
  650MOL0     C89609  11.226   4.570   3.765 -0.3307 -0.4749  0.5573
  650MOL0     O89610  10.918   4.669   3.878 -0.0307 -0.2706  0.1490
  650MOL0     C89611  10.786   4.435   3.642  0.9091 -0.6839  0.4510
  650MOL0     C89612  10.677   4.351   3.618  0.1798 -0.1389  0.4199
  650MOL0     N89613   9.959   4.239   3.468 -0.0390  0.2067  1.1366
  650MOL0     N89614   9.863   4.181   3.414 -0.0765 -0.2589 -0.9080
  650MOL0     C89615   8.698   3.740   3.327  0.8484  1.0970  0.0410
  650MOL0     C89616   8.579   3.689   3.285  0.6296 -0.0406  1.2447
  650MOL0     C89617   8.301   3.509   3.051  0.5263 -0.7438 -0.5168
  650MOL0     C89618   8.168   3.549   3.070 -0.6958  1.0170 -0.1509
  650MOL0     C89619   8.064   3.457   3.085 -0.5284 -0.2747 -0.1271
  650MOL0     C89620   8.082   3.314   3.062  0.0646 -0.6708 -0.5244
  650MOL0     O89621   7.985   3.219   3.048  0.3164 -0.2487  0.1026
  650MOL0     C89622   7.972   3.131   3.155 -0.5253 -0.0467 -0.2191
  650MOL0     C89623   7.845   3.173   3.227  0.4566 -0.5766  0.1612
  650MOL0     C89624   7.876   3.273   3.334 -0.3018  0.6377  0.5925
  650MOL0     C89625   7.744   3.293   3.425 -0.5682  0.8411  0.5219
  650MOL0     C89626   7.641   3.368   3.350 -0.8325  1.0394 -0.7844
  650MOL0     C89627   7.572   3.441   3.287  0.1250  0.2377 -0.4356
  650MOL0     C89628   8.215   3.283   3.043 -0.2110  0.6818  0.3106
  650MOL0     C89629   8.328   3.372   3.027  0.5373 -0.1979 -0.2566
  650MOL0     C89630   8.471   3.325   3.013  0.6408 -0.3272 -0.8158
  650MOL0     H89631   8.439   3.948   3.125  1.0268 -0.1460 -1.6926
  650MOL0     H89632   8.648   4.058   3.223  2.4004  0.0308 -0.6095
  650MOL0     H89633   8.782   4.121   3.432  0.5517  1.2850 -1.0331
  650MOL0     H89634   8.844   4.110   3.271  2.4127 -0.4312 -0.0409
  650MOL0     H89635   9.056   4.080   3.324  0.5315  2.0837 -0.8783
  650MOL0     H89636   9.005   4.220   3.417  2.6158 -0.9613 -0.2991
  650MOL0     H89637   9.067   4.135   3.614  1.2129 -1.6308  1.6947
  650MOL0     H89638   8.993   3.973   3.571  1.6302 -0.9856  0.7707
  650MOL0     H89639   9.220   3.929   3.604  2.2790 -2.0600 -1.5275
  650MOL0     H89640   9.204   3.919   3.438  1.0133 -1.4378  1.4280
  650MOL0     H89641   9.274   4.197   3.533 -1.9004 -0.1154 -1.7506
  650MOL0     H89642   9.317   4.122   3.384  1.2314  2.1830  0.4634
  650MOL0     H89643   9.427   4.045   3.654  1.6778  0.0879  0.5979
  650MOL0     H89644   9.427   3.941   3.511 -2.3279  1.0226  0.5358
  650MOL0     H89645   9.580   4.199   3.573 -1.4641  0.5557  0.6066
  650MOL0     H89646   9.544   4.163   3.408 -0.6214 -0.2974  0.3564
  650MOL0     H89647   9.671   3.965   3.607  2.1516 -0.7994 -0.1261
  650MOL0     H89648   9.684   3.953   3.428 -1.7861 -3.1467  1.5731
  650MOL0     H89649   9.904   4.020   3.699 -2.1782 -0.8977 -0.5148
  650MOL0     H89650  10.095   4.193   3.783  0.3081  2.2154  0.0961
  650MOL0     H89651  10.176   4.289   3.658  2.2441  0.4548  1.5282
  650MOL0     H89652  10.164   3.997   3.645 -0.3574  1.4064  0.6342
  650MOL0     H89653  10.283   4.103   3.562 -0.7334  0.3136 -0.5952
  650MOL0     H89654  10.305   4.006   3.845 -2.2800  0.3939 -0.9104
  650MOL0     H89655  10.421   4.007   3.717  0.1955 -1.3641  1.4776
  650MOL0     H89656  10.353   4.279   3.838  2.4283  0.8625  0.2501
  650MOL0     H89657  10.484   4.190   3.881  1.5745  4.1255 -1.0147
  650MOL0     H89658  10.462   4.435   3.866 -1.2605 -0.2448 -2.6875
  650MOL0     H89659  10.698   4.610   4.014 -0.0517  1.1025  0.6377
  650MOL0     H89660  10.531   4.647   3.960 -0.0835 -0.1489 -1.2990
  650MOL0     H89661  10.673   4.732   3.894 -0.9256  0.4457  0.8042
  650MOL0     H89662  11.080   4.857   3.637  2.3343  0.3705 -3.9641
  650MOL0     H89663  11.306   4.936   3.660  2.4057  0.9496  3.4503
  650MOL0     H89664  11.557   4.942   3.619 -0.2406 -3.5800 -0.2076
  650MOL0     H89665  11.470   4.997   3.769 -0.5409 -0.1510 -0.9040
  650MOL0     H89666  11.710   5.070   3.746  1.7757  0.5778  1.1306
  650MOL0     H89667  11.658   4.990   3.902 -2.6578 -0.6232 -0.0950
  650MOL0     H89668  11.804   4.855   3.667  2.8740  1.8349 -1.3384
  650MOL0     H89669  11.796   4.800   3.836  1.0213  0.4041 -0.7621
  650MOL0     H89670  11.943   5.005   3.894  1.9532  0.2106  0.1329
  650MOL0     H89671  11.985   4.985   3.716  1.6650 -0.6513 -0.2566
  650MOL0     H89672  12.030   4.737   3.765 -0.8791  0.5643 -0.4764
  650MOL0     H89673  12.148   4.856   3.814  0.0219  1.8432 -0.3679
  650MOL0     H89674  11.942   4.711   3.982 -0.3557 -1.2109 -3.9568
  650MOL0     H89675  12.015   4.862   4.044  0.5870 -0.7137  0.6440
  650MOL0     H89676  12.140   4.719   4.142  0.3358  1.2855 -0.2337
  650MOL0     H89677  12.240   4.786   4.009 -0.3022  0.2643 -0.0583
  650MOL0     H89678  12.178   4.580   3.869 -2.5505 -2.2735 -0.4299
  650MOL0     H89679  12.116   4.504   4.014 -1.0976  1.4650  0.5560
  650MOL0     H89680  11.434   4.572   3.818 -0.3948  0.9302  1.2468
  650MOL0     H89681  11.213   4.465   3.788 -0.4510 -0.8159 -1.0026
  650MOL0     H89682  10.864   4.438   3.567 -1.2185  2.1296 -1.8726
  650MOL0     H89683  10.682   4.282   3.535 -0.6368  1.6400 -1.1833
  650MOL0     H89684   8.771   3.674   3.374 -1.5547 -1.1473  0.8146
  650MOL0     H89685   8.573   3.582   3.305  0.2522 -0.0231  1.2361
  650MOL0     H89686   8.154   3.649   3.110  0.6497  0.7394  1.0930
  650MOL0     H89687   7.964   3.492   3.106 -0.0054  1.1529  0.1236
  650MOL0     H89688   7.954   3.034   3.107 -1.8616 -0.3960  0.9411
  650MOL0     H89689   8.063   3.116   3.213 -0.2295  3.6113  0.4691
  650MOL0     H89690   7.791   3.090   3.274 -0.0044 -1.8822 -2.4933
  650MOL0     H89691   7.773   3.216   3.157  1.1397  1.6101  0.7158
  650MOL0     H89692   7.957   3.226   3.391  0.3586  0.0757 -0.7518
  650MOL0     H89693   7.912   3.367   3.293  1.4451  0.0064  0.5688
  650MOL0     H89694   7.785   3.339   3.515  1.2678  1.1087 -0.4115
  650MOL0     H89695   7.716   3.191   3.454 -2.1388  0.9039 -0.6535
  650MOL0     H89696   7.523   3.529   3.249 -1.4244 -0.7190 -0.7275
  650MOL0     H89697   8.238   3.176   3.043 -0.7122  0.5372  2.6548
  650MOL0     H89698   8.533   3.388   2.949 -0.4820  0.5100 -1.1043
  650MOL0     H89699   8.513   3.313   3.113  0.4132 -1.1157 -0.8012
  650MOL0     H89700   8.477   3.226   2.967  1.7368 -0.1980 -0.9654
  651MOL0     O89701   0.975   4.324   6.228  0.5574 -0.4204 -0.5893
  651MOL0     C89702   0.944   4.371   6.341  0.8924 -0.2303 -0.3748
  651MOL0     O89703   1.030   4.416   6.428  0.3602  0.6760  0.3621
  651MOL0     C89704   1.155   4.436   6.388 -0.7880 -1.3977 -0.1499
  651MOL0     C89705   1.261   4.367   6.455 -0.2122  0.4128 -0.1558
  651MOL0     C89706   1.395   4.406   6.443 -0.5809  0.6940 -0.2674
  651MOL0     C89707   1.427   4.513   6.357 -0.6110 -0.2248 -0.1066
  651MOL0     O89708   1.557   4.568   6.327  0.2238 -0.1089 -0.4734
  651MOL0     C89709   1.657   4.489   6.379 -0.4168 -0.0402  0.3681
  651MOL0     C89710   1.787   4.517   6.317 -0.2385 -0.2517 -0.1711
  651MOL0     C89711   1.896   4.421   6.368  0.6862 -0.0845  1.5011
  651MOL0     C89712   2.035   4.475   6.331  0.6188  0.6037  0.1535
  651MOL0     C89713   2.153   4.375   6.359 -1.0758  0.0709 -0.4735
  651MOL0     C89714   2.182   4.382   6.511 -0.1723  0.7875 -0.3700
  651MOL0     C89715   2.286   4.263   6.552 -0.4914 -0.8184  0.0444
  651MOL0     C89716   2.312   4.250   6.702 -0.0694  0.0136 -0.0673
  651MOL0     N89717   2.325   4.370   6.784  0.1080 -0.0592  0.8823
  651MOL0     C89718   2.215   4.441   6.829 -0.4148 -0.6552 -0.0919
  651MOL0     C89719   2.254   4.572   6.830 -0.3143 -0.2063  0.2547
  651MOL0     C89720   2.157   4.689   6.846 -0.1585  0.6999 -0.6023
  651MOL0     C89721   2.214   4.830   6.848 -0.8269  0.4183 -0.1659
  651MOL0     C89722   2.281   4.866   6.981  0.3562 -0.0199 -0.1591
  651MOL0     C89723   2.353   5.000   6.963 -0.2123  0.1764  1.1247
  651MOL0     O89724   2.457   4.988   6.853  0.3114 -0.4128  0.1922
  651MOL0     C89725   2.594   4.995   6.886  1.4685 -0.0649 -0.2284
  651MOL0     C89726   2.653   5.107   6.938 -0.2508  0.0184 -0.2077
  651MOL0     C89727   2.791   5.115   6.960  0.0450 -0.3044 -0.2811
  651MOL0     C89728   2.851   5.246   7.007  0.7007 -0.5511  0.9475
  651MOL0     C89729   2.868   4.996   6.950 -0.2167  0.5520 -0.2549
  651MOL0     C89730   3.023   4.990   6.979  0.1963  0.1868  0.7276
  651MOL0     O89731   3.078   4.870   6.978 -0.4563 -0.8753  0.0409
  651MOL0     C89732   3.212   4.858   6.977  1.1187 -0.1333 -0.3327
  651MOL0     C89733   3.280   4.862   7.097  0.5620 -0.5749  1.2194
  651MOL0     C89734   3.419   4.850   7.092  0.7121  0.5406 -1.0753
  651MOL0     C89735   3.489   4.821   6.968  0.0235 -0.1387 -0.0714
  651MOL0     O89736   3.632   4.823   6.947  0.1232  0.0270  0.4138
  651MOL0     C89737   3.706   4.908   7.043  0.0624  0.2279  0.1951
  651MOL0     C89738   3.862   4.886   7.037  0.0434  0.0893 -0.0786
  651MOL0     C89739   3.943   4.934   6.910  0.0779 -0.3077  0.1865
  651MOL0     C89740   4.091   4.913   6.921 -0.2244 -0.5187  0.7716
  651MOL0     C89741   4.135   4.765   6.917 -0.4494  0.4996  0.2483
  651MOL0     C89742   4.282   4.740   6.920  0.4645  1.6579  0.0992
  651MOL0     C89743   4.334   4.737   7.061  1.0148 -0.0007 -0.2118
  651MOL0     C89744   4.438   4.624   7.088 -0.0768  0.0156 -0.1671
  651MOL0    Cl89745   4.573   4.640   6.973 -0.2416 -0.0759 -0.1370
  651MOL0     C89746   3.410   4.816   6.852  0.2826  0.8320  0.2860
  651MOL0     C89747   3.275   4.842   6.849 -0.8907  0.4274 -0.0188
  651MOL0     O89748   3.084   5.092   7.004 -0.2827 -0.0498  0.2354
  651MOL0     C89749   2.795   4.874   6.913 -0.8193 -0.5575 -0.5174
  651MOL0     C89750   2.667   4.883   6.869 -0.3542  0.0508  0.6903
  651MOL0     N89751   2.391   4.571   6.793 -0.6588  0.8603 -0.3236
  651MOL0     N89752   2.431   4.456   6.758 -0.0153  0.3485  0.3649
  651MOL0     C89753   1.317   4.580   6.292  0.2637 -0.0649 -0.5244
  651MOL0     C89754   1.185   4.543   6.305  0.1942  0.4082 -0.5973
  651MOL0     C89755   0.804   4.363   6.391 -0.0299  0.5239 -0.0591
  651MOL0     C89756   0.769   4.390   6.527  0.1645 -0.1914  0.2866
  651MOL0     C89757   0.638   4.391   6.585  0.5622  0.3380 -0.4044
  651MOL0     C89758   0.531   4.386   6.496 -0.1628  0.0935  0.1530
  651MOL0     O89759   0.406   4.394   6.541  0.3235  0.3174  0.4158
  651MOL0     C89760   0.375   4.416   6.681  0.4490 -0.0327  0.5312
  651MOL0     C89761   0.225   4.413   6.707 -0.2351 -0.6269 -0.4998
  651MOL0     C89762   0.190   4.267   6.712 -0.3686 -0.5333  0.0090
  651MOL0     C89763   0.060   4.244   6.791  0.5387 -0.1669  0.1209
  651MOL0     C89764   0.035   4.098   6.828 -0.0723 -1.1151  0.7717
  651MOL0     C89765   0.003   3.997   6.876 -0.2011  0.2565 -0.2556
  651MOL0     C89766   0.557   4.366   6.356  0.2034  0.3489 -1.0975
  651MOL0     C89767   0.686   4.342   6.307  0.3724  0.3630 -0.2547
  651MOL0     C89768   0.696   4.306   6.156  0.0648  0.5570  0.2911
  651MOL0     H89769   1.247   4.293   6.533  0.4053  0.3378 -0.1094
  651MOL0     H89770   1.465   4.355   6.507  0.2743 -3.1539 -3.7995
  651MOL0     H89771   1.637   4.384   6.355  2.2581 -0.5230 -0.0050
  651MOL0     H89772   1.661   4.505   6.487  1.5754 -0.4393  0.3872
  651MOL0     H89773   1.781   4.514   6.208 -1.9075 -0.9921 -0.0972
  651MOL0     H89774   1.809   4.623   6.333 -0.8626 -0.0121 -0.8103
  651MOL0     H89775   1.892   4.415   6.477  0.3023  0.2049  1.5085
  651MOL0     H89776   1.895   4.325   6.317  2.2753  0.9483 -0.6470
  651MOL0     H89777   2.036   4.508   6.226 -2.7980  2.5066  0.5852
  651MOL0     H89778   2.048   4.569   6.385  1.3436  0.9072 -0.5333
  651MOL0     H89779   2.244   4.418   6.316 -1.2325 -1.0877 -2.0636
  651MOL0     H89780   2.131   4.276   6.317  0.2652 -0.5280  0.1617
  651MOL0     H89781   2.222   4.478   6.546 -0.4123  1.1442 -1.0556
  651MOL0     H89782   2.091   4.363   6.568  0.8024 -1.1043  0.6807
  651MOL0     H89783   2.381   4.287   6.503 -0.0587  2.0721  2.0412
  651MOL0     H89784   2.260   4.168   6.505  0.0774 -0.3956 -1.1620
  651MOL0     H89785   2.226   4.190   6.733  0.7906 -0.8174  0.7953
  651MOL0     H89786   2.399   4.190   6.730 -0.1679  0.6726  1.7770
  651MOL0     H89787   2.114   4.411   6.858 -0.4554 -0.5823 -0.1599
  651MOL0     H89788   2.089   4.668   6.929  0.1537  1.2890 -0.1855
  651MOL0     H89789   2.096   4.684   6.755  0.2550  0.5432 -0.8760
  651MOL0     H89790   2.300   4.818   6.781 -0.6389  2.9456 -0.4692
  651MOL0     H89791   2.151   4.908   6.805  0.1231  0.5200 -1.4390
  651MOL0     H89792   2.216   4.876   7.068  3.5499  3.0122  2.1666
  651MOL0     H89793   2.354   4.791   7.011  1.4291  2.0942  2.9451
  651MOL0     H89794   2.275   5.069   6.929 -2.8219 -2.2137  1.9071
  651MOL0     H89795   2.398   5.042   7.053 -1.2963  1.9920  0.8650
  651MOL0     H89796   2.596   5.195   6.965 -0.1561 -0.2567  0.9440
  651MOL0     H89797   2.934   5.276   6.943 -0.4811  1.6655  0.3217
  651MOL0     H89798   2.889   5.254   7.110 -1.1421  1.1040  1.5879
  651MOL0     H89799   2.782   5.331   6.994  0.1843 -1.1323 -0.2334
  651MOL0     H89800   3.219   4.881   7.185 -0.9678 -2.5843  0.6613
  651MOL0     H89801   3.472   4.863   7.186 -0.4276 -1.0775 -0.1636
  651MOL0     H89802   3.694   5.015   7.022 -1.0485  0.0322 -0.2753
  651MOL0     H89803   3.669   4.894   7.146  0.3211 -0.6298  0.1750
  651MOL0     H89804   3.910   4.932   7.124 -0.2090 -1.6855  1.0428
  651MOL0     H89805   3.882   4.779   7.046 -0.8431  0.1316  5.0557
  651MOL0     H89806   3.909   5.036   6.894 -1.8336 -0.8643  0.4603
  651MOL0     H89807   3.908   4.878   6.823 -0.2302  0.6785 -0.3370
  651MOL0     H89808   4.124   4.959   7.014  2.2640  0.7147 -0.6423
  651MOL0     H89809   4.138   4.969   6.840 -0.1649 -0.1815  1.0382
  651MOL0     H89810   4.094   4.703   6.998 -1.6426 -0.2904 -0.9120
  651MOL0     H89811   4.089   4.720   6.828 -0.1245  1.9633 -0.6993
  651MOL0     H89812   4.323   4.824   6.863 -1.3249  3.4217  1.2475
  651MOL0     H89813   4.313   4.646   6.875  2.6403  0.6092  3.4094
  651MOL0     H89814   4.250   4.751   7.130 -0.5529  1.4978 -2.2986
  651MOL0     H89815   4.402   4.821   7.079  1.2246  0.0564 -1.2323
  651MOL0     H89816   4.385   4.531   7.066  0.0902 -0.2255  0.4280
  651MOL0     H89817   4.476   4.619   7.191  1.0833 -1.7293 -0.6336
  651MOL0     H89818   3.461   4.812   6.756  0.3923  0.8291  0.3441
  651MOL0     H89819   3.226   4.849   6.753 -0.2531  0.8117 -0.3201
  651MOL0     H89820   2.850   4.783   6.896 -0.1909 -0.1098 -0.9204
  651MOL0     H89821   2.605   4.797   6.845 -1.3714 -0.1878  3.7133
  651MOL0     H89822   1.345   4.662   6.227 -2.4998  0.4991 -1.1525
  651MOL0     H89823   1.100   4.584   6.252  0.8383  2.2943 -0.2300
  651MOL0     H89824   0.854   4.412   6.591  1.3023  0.9159 -1.5201
  651MOL0     H89825   0.624   4.398   6.693 -2.9249 -3.5727 -0.3264
  651MOL0     H89826   0.429   4.334   6.730 -0.2392  0.5792  2.3760
  651MOL0     H89827   0.421   4.506   6.721  1.4649  0.3812 -1.4512
  651MOL0     H89828   0.163   4.460   6.630 -0.6970 -0.8871 -0.2870
  651MOL0     H89829   0.209   4.458   6.805 -0.9442 -1.6287 -0.1446
  651MOL0     H89830   0.176   4.234   6.609 -3.5431  4.0605 -1.3359
  651MOL0     H89831   0.270   4.207   6.756 -0.3189 -0.9479 -0.6319
  651MOL0     H89832  -0.031   4.272   6.736  0.4001 -2.7213 -1.0919
  651MOL0     H89833   0.055   4.294   6.888 -0.6018 -0.8788  0.4444
  651MOL0     H89834  -0.049   3.917   6.924  1.3693  0.2455  1.5841
  651MOL0     H89835   0.478   4.363   6.281 -0.6336  2.6378 -0.4021
  651MOL0     H89836   0.739   4.206   6.146  2.0585  1.2453  1.5987
  651MOL0     H89837   0.602   4.311   6.099  0.9824 -1.1317 -1.4763
  651MOL0     H89838   0.761   4.382   6.111  1.1082 -1.0131 -0.9485
  652MOL0     O89839   8.116   4.508  10.080 -0.0675  0.0688 -0.6354
  652MOL0     C89840   8.196   4.450  10.150 -0.6957  0.2436 -0.4981
  652MOL0     O89841   8.171   4.435  10.279 -0.0571 -0.7465 -0.6516
  652MOL0     C89842   8.042   4.426  10.336 -0.5882  0.6332 -0.6266
  652MOL0     C89843   7.933   4.394  10.259  0.0664  0.3827 -0.1818
  652MOL0     C89844   7.805   4.391  10.311 -0.3630  0.1216 -0.3091
  652MOL0     C89845   7.785   4.418  10.448  0.7293 -0.7715  0.5623
  652MOL0     O89846   7.658   4.430  10.496  0.2087  0.0870  0.7290
  652MOL0     C89847   7.627   4.355  10.608 -0.4214 -0.4940  0.3028
  652MOL0     C89848   7.472   4.320  10.613 -0.7240  0.1696  0.0568
  652MOL0     C89849   7.440   4.196  10.704  0.3171 -0.3307  0.7290
  652MOL0     C89850   7.484   4.234  10.849  0.4029  0.6305  0.2673
  652MOL0     C89851   7.438   4.125  10.936  0.4860  0.6157 -0.3645
  652MOL0     C89852   7.469   4.152  11.076 -0.3155  0.0076 -0.7001
  652MOL0     C89853   7.433   4.043  11.183 -0.3494 -0.8741  0.3024
  652MOL0     C89854   7.548   3.939  11.197  0.1894 -0.2172  0.8558
  652MOL0     N89855   7.629   3.951  11.313 -0.9211  0.9824  0.7319
  652MOL0     C89856   7.731   4.035  11.333  0.2269  0.5482 -0.6301
  652MOL0     C89857   7.757   4.020  11.459 -0.6382  0.5390 -0.3289
  652MOL0     C89858   7.836   4.114  11.538  0.0961 -1.0785 -0.0948
  652MOL0     C89859   7.986   4.109  11.520 -0.8521 -0.1373 -0.6243
  652MOL0     C89860   8.054   3.970  11.545  0.6248 -0.1559 -0.8990
  652MOL0     C89861   8.195   3.961  11.512  0.2929 -0.6909 -0.4572
  652MOL0     O89862   8.264   4.054  11.590 -0.8825  0.0909  0.7199
  652MOL0     C89863   8.406   4.080  11.572  0.6982  0.7165 -0.7165
  652MOL0     C89864   8.490   4.019  11.471  0.2559 -0.0845  0.5270
  652MOL0     C89865   8.628   4.056  11.465  0.2811 -0.0678 -0.4805
  652MOL0     C89866   8.703   4.008  11.353 -0.7219 -0.0897  0.6531
  652MOL0     C89867   8.684   4.140  11.558  0.0895  0.2615 -0.5840
  652MOL0     C89868   8.827   4.192  11.545  0.2813 -1.0477  0.3632
  652MOL0     O89869   8.853   4.317  11.582 -0.1760  0.2066  0.1568
  652MOL0     C89870   8.985   4.352  11.595 -0.1548 -0.2145 -0.9268
  652MOL0     C89871   9.075   4.357  11.494  0.8848 -0.3591  0.0643
  652MOL0     C89872   9.209   4.401  11.503 -0.0131 -0.6446 -0.4370
  652MOL0     C89873   9.254   4.439  11.632  0.1219  0.8035 -0.4480
  652MOL0     O89874   9.386   4.450  11.647 -0.8995  0.4933 -0.2579
  652MOL0     C89875   9.448   4.464  11.778  1.7724  0.0818  0.6190
  652MOL0     C89876   9.591   4.491  11.753  1.3539 -0.3810 -0.5362
  652MOL0     C89877   9.664   4.374  11.688  0.2645  0.6727 -0.1905
  652MOL0     C89878   9.810   4.409  11.660 -0.1245 -0.2246  0.2640
  652MOL0     C89879   9.897   4.286  11.609 -0.7175  0.1087 -0.6454
  652MOL0     C89880  10.041   4.315  11.553 -0.8727  1.2187  0.5423
  652MOL0     C89881  10.110   4.176  11.530 -0.2508 -0.4761 -0.7436
  652MOL0     C89882  10.265   4.189  11.499 -0.7221  0.0677 -0.1935
  652MOL0    Cl89883  10.354   4.250  11.643 -0.2726  0.1489 -0.1685
  652MOL0     C89884   9.164   4.444  11.738  0.3162  0.7612 -0.0944
  652MOL0     C89885   9.026   4.403  11.719  0.7797  0.8414 -0.5645
  652MOL0     O89886   8.913   4.111  11.528  0.8406 -0.8446 -0.3903
  652MOL0     C89887   8.603   4.194  11.662  0.4499  0.0838 -0.1181
  652MOL0     C89888   8.464   4.158  11.674 -0.6133  0.0376  0.3986
  652MOL0     N89889   7.692   3.917  11.516  1.0996 -0.0362 -0.2068
  652MOL0     N89890   7.600   3.881  11.428  0.0653 -0.4092 -0.7344
  652MOL0     C89891   7.898   4.433  10.527  0.5988 -1.2704 -0.1968
  652MOL0     C89892   8.022   4.445  10.471 -1.1498 -0.3731 -0.0772
  652MOL0     C89893   8.321   4.389  10.096 -0.5574 -0.3604  0.6383
  652MOL0     C89894   8.364   4.441   9.970  0.2128 -0.4340  0.8616
  652MOL0     C89895   8.481   4.384   9.912 -0.2465  0.3110 -0.8072
  652MOL0     C89896   8.563   4.291   9.982  0.2854  0.3210 -0.8031
  652MOL0     O89897   8.683   4.244   9.937 -0.3328 -0.4032  0.9261
  652MOL0     C89898   8.682   4.188   9.804 -0.1398  1.0151 -0.1814
  652MOL0     C89899   8.775   4.069   9.771  0.3226 -0.8501  0.1218
  652MOL0     C89900   8.913   4.077   9.825  0.5929  0.1652 -0.1798
  652MOL0     C89901   8.986   4.207   9.795  0.0374  0.0047  0.7503
  652MOL0     C89902   9.128   4.187   9.821 -0.2425 -0.0311  0.9658
  652MOL0     C89903   9.241   4.159   9.863 -0.1827  0.0311  0.2425
  652MOL0     C89904   8.520   4.254  10.108 -0.4411 -0.4022 -0.0762
  652MOL0     C89905   8.404   4.306  10.169 -0.2559  0.8443  0.1927
  652MOL0     C89906   8.389   4.248  10.304  0.2229  0.5955 -0.4104
  652MOL0     H89907   7.940   4.364  10.155 -2.9128  1.0155 -0.6706
  652MOL0     H89908   7.714   4.364  10.259 -1.2636  1.2170  0.6252
  652MOL0     H89909   7.665   4.410  10.695 -2.0866 -1.0406  1.4213
  652MOL0     H89910   7.677   4.258  10.615  1.2796  0.4289  2.0044
  652MOL0     H89911   7.423   4.405  10.661 -1.8246 -1.0414  1.1590
  652MOL0     H89912   7.428   4.296  10.515 -1.0475  0.5097  0.1178
  652MOL0     H89913   7.333   4.177  10.718  0.0541  1.5527  1.5947
  652MOL0     H89914   7.489   4.109  10.661  1.7030  1.1433 -0.8244
  652MOL0     H89915   7.592   4.229  10.867  0.4758 -0.0246 -0.3274
  652MOL0     H89916   7.437   4.325  10.886 -0.6232  0.7313 -1.2170
  652MOL0     H89917   7.477   4.026  10.909  0.3203  0.5390 -0.3243
  652MOL0     H89918   7.329   4.123  10.925  0.6630  1.0017 -2.7191
  652MOL0     H89919   7.576   4.174  11.079 -0.1587 -0.3646 -2.3251
  652MOL0     H89920   7.412   4.241  11.104  1.4780  0.6926  1.0261
  652MOL0     H89921   7.342   3.987  11.159 -1.4299  0.7911  0.2974
  652MOL0     H89922   7.402   4.083  11.280  0.7483 -0.6847  0.5849
  652MOL0     H89923   7.499   3.841  11.195 -0.2004 -0.0189 -0.4506
  652MOL0     H89924   7.603   3.937  11.102 -2.1984  3.7837 -0.8836
  652MOL0     H89925   7.769   4.118  11.274 -1.6802  0.6247 -1.8458
  652MOL0     H89926   7.812   4.103  11.644  1.6283  3.0267  0.8633
  652MOL0     H89927   7.809   4.211  11.495 -0.8101 -2.1358 -2.0622
  652MOL0     H89928   8.008   4.156  11.424 -2.4194  1.9812 -0.0188
  652MOL0     H89929   8.038   4.176  11.589 -2.5295  1.3590 -0.7311
  652MOL0     H89930   8.051   3.942  11.651 -0.8607  2.0293 -0.3154
  652MOL0     H89931   7.997   3.893  11.493  0.0213  0.1091 -0.6306
  652MOL0     H89932   8.233   3.859  11.526 -0.4076 -1.3716 -2.8774
  652MOL0     H89933   8.188   3.981  11.404 -1.6775 -2.6600 -0.7846
  652MOL0     H89934   8.458   3.956  11.388  3.0948 -0.5448 -0.3335
  652MOL0     H89935   8.787   4.072  11.325 -1.4693  0.8149  0.4461
  652MOL0     H89936   8.642   4.001  11.262  1.3386  1.6553 -0.9862
  652MOL0     H89937   8.740   3.909  11.383 -0.3496 -0.3960 -0.7342
  652MOL0     H89938   9.034   4.340  11.395 -2.0653  3.7351  0.3071
  652MOL0     H89939   9.266   4.402  11.411  0.9782  2.1600  0.0910
  652MOL0     H89940   9.402   4.550  11.829 -3.4239 -0.8213 -1.8926
  652MOL0     H89941   9.434   4.376  11.841  2.2894 -0.0568  0.5402
  652MOL0     H89942   9.621   4.574  11.689  2.4261 -1.4411 -1.4659
  652MOL0     H89943   9.628   4.502  11.856 -1.4231 -1.1673  0.6430
  652MOL0     H89944   9.612   4.347  11.596 -2.8833  2.8922  0.7668
  652MOL0     H89945   9.662   4.288  11.756  2.5420  0.6521 -0.0717
  652MOL0     H89946   9.855   4.458  11.747  2.6343 -1.9950 -0.0286
  652MOL0     H89947   9.817   4.492  11.589  1.6556  1.0957  1.8720
  652MOL0     H89948   9.916   4.231  11.701  0.9133 -1.5665 -1.9094
  652MOL0     H89949   9.840   4.229  11.536 -0.6018  0.2704 -0.8652
  652MOL0     H89950  10.093   4.386  11.617  0.2068 -1.0426  2.3267
  652MOL0     H89951  10.031   4.361  11.454 -2.0153  1.6540  0.8456
  652MOL0     H89952  10.061   4.127  11.446  0.3184 -0.2736 -1.1991
  652MOL0     H89953  10.093   4.117  11.621  0.7667  0.6701  0.2350
  652MOL0     H89954  10.281   4.256  11.414 -1.2875  0.5806  0.0900
  652MOL0     H89955  10.309   4.095  11.465  0.5760  0.7399 -0.4367
  652MOL0     H89956   9.201   4.460  11.838  0.2641  0.6950 -0.0646
  652MOL0     H89957   8.959   4.398  11.804 -2.3391 -0.4069 -2.8986
  652MOL0     H89958   8.664   4.264  11.718  2.4086 -0.9271 -0.9122
  652MOL0     H89959   8.408   4.192  11.760 -0.7574 -1.3045  0.8515
  652MOL0     H89960   7.894   4.440  10.635  3.0009 -0.5344 -0.1047
  652MOL0     H89961   8.116   4.449  10.525  0.3218  0.0202 -2.5148
  652MOL0     H89962   8.312   4.520   9.917  1.7088 -0.6362 -1.0300
  652MOL0     H89963   8.518   4.419   9.816  0.9471  1.6994  0.1051
  652MOL0     H89964   8.579   4.155   9.784  0.7035 -2.6591  0.8317
  652MOL0     H89965   8.716   4.258   9.727  0.6255 -1.3492 -2.1395
  652MOL0     H89966   8.774   4.049   9.664 -2.0357  0.3371 -0.1493
  652MOL0     H89967   8.725   3.981   9.813 -1.1604  0.7788  1.9448
  652MOL0     H89968   8.902   4.066   9.933  1.3252 -2.2359 -0.3007
  652MOL0     H89969   8.955   3.987   9.779  1.1620 -0.4917  1.5762
  652MOL0     H89970   8.948   4.290   9.855 -2.3284  1.2287 -2.1972
  652MOL0     H89971   8.966   4.228   9.690 -2.6195 -1.0736  0.9766
  652MOL0     H89972   9.340   4.139   9.901 -0.4708  0.6270  1.3376
  652MOL0     H89973   8.588   4.180  10.150 -0.4469  0.5333  1.6360
  652MOL0     H89974   8.292   4.199  10.318  0.3792  0.2571 -0.5068
  652MOL0     H89975   8.464   4.170  10.323 -0.7479  0.1987  2.1617
  652MOL0     H89976   8.386   4.314  10.391  2.1777 -2.6461  2.4075
  653MOL0     O89977   5.533   9.893   0.339 -0.4989 -1.1688 -0.1937
  653MOL0     C89978   5.507  10.005   0.356  0.0451  0.5375  1.2152
  653MOL0     O89979   5.558  10.084   0.452 -0.8456  0.3524 -0.2129
  653MOL0     C89980   5.687  10.057   0.487  0.2710  0.0177  0.1136
  653MOL0     C89981   5.739   9.932   0.534 -0.0294 -0.1424  0.3670
  653MOL0     C89982   5.874   9.933   0.586 -0.6241  0.7400 -0.4650
  653MOL0     C89983   5.945  10.044   0.601 -0.5556 -0.1736 -0.3797
  653MOL0     O89984   6.077  10.030   0.663 -0.0968 -0.4740 -0.1494
  653MOL0     C89985   6.162  10.152   0.693  0.4935  0.0325  0.4777
  653MOL0     C89986   6.307  10.108   0.694  0.3476 -0.0178 -0.4488
  653MOL0     C89987   6.397  10.235   0.680  0.7663  1.0437  0.6916
  653MOL0     C89988   6.541  10.192   0.678 -0.0929 -0.0873  0.9805
  653MOL0     C89989   6.616  10.308   0.614 -0.7353  0.2986  0.3131
  653MOL0     C89990   6.766  10.249   0.574  0.7002 -0.3613 -0.4444
  653MOL0     C89991   6.773  10.165   0.439  0.3580 -0.5099 -0.6092
  653MOL0     C89992   6.909  10.108   0.395  0.2918 -0.1801 -0.9832
  653MOL0     N89993   7.014  10.205   0.390  0.8081  0.4277  0.1717
  653MOL0     C89994   7.079  10.271   0.288 -0.9808  0.5731  0.4095
  653MOL0     C89995   7.179  10.354   0.347  0.8286 -0.2036  0.1909
  653MOL0     C89996   7.289  10.438   0.295  0.0545  0.4455  0.8690
  653MOL0     C89997   7.417  10.364   0.285  0.3746 -0.4019 -0.1797
  653MOL0     C89998   7.520  10.473   0.247  0.3969 -0.7234 -0.9778
  653MOL0     C89999   7.660  10.416   0.249  0.3450 -0.1441 -0.1348
  653MOL0     O90000   7.752  10.515   0.183  0.7614  0.0566  0.2633
  653MOL0     C90001   7.874  10.474   0.142  0.0658  0.2334 -0.0499
  653MOL0     C90002   7.920  10.348   0.175 -0.6958  0.3334 -0.2399
  653MOL0     C90003   8.054  10.302   0.140  0.5684  0.6511 -0.2965
  653MOL0     C90004   8.091  10.162   0.188  0.4287 -0.3527  0.1632
  653MOL0     C90005   8.128  10.387   0.055  0.8346  0.5373  0.0839
  653MOL0     C90006   8.256  10.340  -0.010 -0.1037  0.3834 -1.1670
  653MOL0     O90007   8.318  10.428  -0.092  0.5056  0.0234  0.4482
  653MOL0     C90008   8.447  10.396  -0.132 -0.1435  0.5108  0.3001
  653MOL0     C90009   8.546  10.331  -0.052  0.2812 -0.5550 -0.6272
  653MOL0     C90010   8.675  10.301  -0.098 -0.5523 -0.5285 -0.3318
  653MOL0     C90011   8.708  10.340  -0.224  0.0717  0.3263  0.6658
  653MOL0     O90012   8.825  10.305  -0.276 -0.5763  0.8984  0.0151
  653MOL0     C90013   8.935  10.248  -0.187  0.3009 -0.2732  0.4315
  653MOL0     C90014   9.056  10.218  -0.271 -0.5687 -0.3360 -0.4791
  653MOL0     C90015   9.146  10.140  -0.180  0.1772 -0.3939  0.2145
  653MOL0     C90016   9.287  10.108  -0.236  0.9334  0.2389 -0.3018
  653MOL0     C90017   9.356  10.014  -0.147 -0.0695 -0.1840 -0.2412
  653MOL0     C90018   9.495   9.953  -0.195  0.5332 -0.9793 -0.1814
  653MOL0     C90019   9.554   9.871  -0.089 -0.2913  0.1940 -0.0137
  653MOL0     C90020   9.695   9.839  -0.125  0.4678 -0.0642 -0.1944
  653MOL0    Cl90021   9.702   9.712  -0.255 -0.1103 -0.0197 -0.1610
  653MOL0     C90022   8.614  10.406  -0.308 -0.4863  0.1742  0.6096
  653MOL0     C90023   8.476  10.424  -0.264  0.0118 -0.5244 -0.1148
  653MOL0     O90024   8.292  10.225   0.011  0.2950 -0.1623  0.8507
  653MOL0     C90025   8.073  10.512   0.030 -0.2531 -0.6607  0.1981
  653MOL0     C90026   7.951  10.560   0.076  0.1709 -0.7859  0.2468
  653MOL0     N90027   7.157  10.339   0.484  0.3794 -0.3515  0.4316
  653MOL0     N90028   7.064  10.253   0.503 -0.1544  0.8709 -0.6356
  653MOL0     C90029   5.886  10.164   0.566 -0.4351  0.5496  0.0866
  653MOL0     C90030   5.763  10.170   0.514 -0.3946 -0.2067 -0.5020
  653MOL0     C90031   5.391  10.066   0.281  0.1515  0.1596  0.5746
  653MOL0     C90032   5.350  10.201   0.304  0.6606  0.0072  0.0524
  653MOL0     C90033   5.229  10.243   0.252  0.3910  0.0337  0.2680
  653MOL0     C90034   5.159  10.165   0.154 -0.1966 -0.4695 -0.0723
  653MOL0     O90035   5.048  10.206   0.080 -0.0236  0.3380 -0.5410
  653MOL0     C90036   4.971  10.314   0.130 -0.2027  0.2647 -0.3533
  653MOL0     C90037   4.878  10.362   0.007 -0.3241  0.0760 -0.7223
  653MOL0     C90038   4.794  10.486   0.042  0.2903 -0.0113 -0.6202
  653MOL0     C90039   4.730  10.542  -0.088  0.6499  0.1413 -0.0610
  653MOL0     C90040   4.614  10.627  -0.061 -0.2339  0.0117 -0.1323
  653MOL0     C90041   4.517  10.693  -0.039 -0.3509  0.2124 -0.5097
  653MOL0     C90042   5.213  10.045   0.116  0.4763  0.5332  0.5318
  653MOL0     C90043   5.322   9.991   0.174  0.3999 -0.5485  0.0540
  653MOL0     C90044   5.373   9.856   0.120  0.2379  0.1656 -0.2935
  653MOL0     H90045   5.677   9.843   0.526  0.1295 -0.0516 -3.5460
  653MOL0     H90046   5.906   9.841   0.633 -2.4410  1.6899  2.9182
  653MOL0     H90047   6.136  10.208   0.783  2.2633  0.2177  0.9091
  653MOL0     H90048   6.152  10.222   0.610  0.4299  0.7180  1.0620
  653MOL0     H90049   6.324  10.067   0.794 -1.3808  1.0589  0.3450
  653MOL0     H90050   6.331  10.037   0.616 -1.1156 -0.1506 -0.8058
  653MOL0     H90051   6.370  10.293   0.591 -0.1967 -0.2016  0.1519
  653MOL0     H90052   6.367  10.303   0.760 -3.2270  1.1048 -0.6472
  653MOL0     H90053   6.581  10.164   0.776  0.2068 -2.7761  0.1639
  653MOL0     H90054   6.558  10.104   0.616  0.3039  1.4840 -1.2572
  653MOL0     H90055   6.609  10.395   0.680 -0.0214  0.0650  0.7161
  653MOL0     H90056   6.578  10.335   0.515 -0.1566  1.5210  0.4088
  653MOL0     H90057   6.832  10.334   0.557  0.8495 -0.3101  0.3802
  653MOL0     H90058   6.792  10.197   0.667  1.3741  1.3591  0.3576
  653MOL0     H90059   6.746  10.229   0.354 -0.9817 -1.7842 -1.1861
  653MOL0     H90060   6.708  10.079   0.426  1.7767 -1.5248 -1.1826
  653MOL0     H90061   6.938  10.032   0.469 -4.2417 -2.3892 -1.0860
  653MOL0     H90062   6.906  10.049   0.302 -1.4985 -0.3463 -0.8510
  653MOL0     H90063   7.070  10.264   0.180 -0.2103  1.8004  0.2416
  653MOL0     H90064   7.300  10.527   0.358  2.7801  2.2681 -1.8612
  653MOL0     H90065   7.256  10.460   0.193 -0.5592 -1.6414  0.5614
  653MOL0     H90066   7.439  10.319   0.383  0.9296  1.8002  0.7729
  653MOL0     H90067   7.405  10.281   0.214 -2.5748 -0.1018 -0.1504
  653MOL0     H90068   7.503  10.502   0.143  0.2285 -2.6288 -1.5250
  653MOL0     H90069   7.526  10.562   0.311  1.0113 -0.1009 -1.8823
  653MOL0     H90070   7.695  10.401   0.352  1.0509  2.8225  0.1518
  653MOL0     H90071   7.652  10.318   0.202  3.4431 -0.4718 -0.1486
  653MOL0     H90072   7.854  10.279   0.227 -1.5617  1.9842  0.9134
  653MOL0     H90073   8.074  10.086   0.111  2.4733 -0.8073  0.1215
  653MOL0     H90074   8.033  10.146   0.279 -4.5087 -2.7665 -2.9497
  653MOL0     H90075   8.193  10.147   0.225  0.8974 -2.2311 -1.6823
  653MOL0     H90076   8.530  10.309   0.053  0.2527  2.1109 -0.0078
  653MOL0     H90077   8.746  10.264  -0.025 -1.2522  2.2849  1.9654
  653MOL0     H90078   8.949  10.325  -0.111 -1.1558  1.1321 -0.6716
  653MOL0     H90079   8.902  10.164  -0.125 -1.4121 -0.1110 -0.2144
  653MOL0     H90080   9.036  10.163  -0.363 -3.5783  1.8455 -1.3003
  653MOL0     H90081   9.108  10.310  -0.300 -0.3239  0.3032  1.8003
  653MOL0     H90082   9.096  10.047  -0.152  0.1538 -0.9981 -1.6789
  653MOL0     H90083   9.145  10.200  -0.089  0.7075  2.4739 -1.5582
  653MOL0     H90084   9.343  10.201  -0.246 -0.0860  0.7485 -1.6880
  653MOL0     H90085   9.286  10.072  -0.339  2.6710 -1.6815  0.2944
  653MOL0     H90086   9.380  10.062  -0.052 -0.5389  0.7984 -0.6075
  653MOL0     H90087   9.299   9.923  -0.130  1.6383 -1.0175  1.3529
  653MOL0     H90088   9.558  10.038  -0.224  1.4278 -1.5043  0.1966
  653MOL0     H90089   9.470   9.895  -0.285  1.0826 -2.1317  0.3920
  653MOL0     H90090   9.493   9.781  -0.079  0.3502 -0.1183  1.3398
  653MOL0     H90091   9.549   9.945  -0.008  2.3578 -0.0100  0.4366
  653MOL0     H90092   9.737   9.804  -0.031 -0.7555 -1.0390  0.0127
  653MOL0     H90093   9.744   9.928  -0.167 -0.9727  0.9313  0.1516
  653MOL0     H90094   8.641  10.421  -0.412  4.0964 -2.4777  1.1498
  653MOL0     H90095   8.396  10.476  -0.315 -0.3138 -1.8164 -0.9901
  653MOL0     H90096   8.130  10.583  -0.029 -1.4651 -1.3835 -1.9400
  653MOL0     H90097   7.915  10.659   0.053  2.7523  0.8098  2.4142
  653MOL0     H90098   5.941  10.254   0.590  1.3236 -0.1566 -1.1269
  653MOL0     H90099   5.716  10.258   0.471 -0.5330 -1.0585 -2.2088
  653MOL0     H90100   5.393  10.269   0.377 -0.5492  0.0116  0.7900
  653MOL0     H90101   5.199  10.347   0.263 -0.4939 -0.0729 -1.0529
  653MOL0     H90102   4.903  10.261   0.198 -3.4797  0.9133 -2.8406
  653MOL0     H90103   5.035  10.391   0.173 -0.6358  0.5725 -0.2525
  653MOL0     H90104   4.805  10.283  -0.011  1.1868 -1.7944  0.8496
  653MOL0     H90105   4.937  10.360  -0.084 -0.7621 -1.8790 -1.0245
  653MOL0     H90106   4.712  10.466   0.111  1.0455  2.0380  0.9722
  653MOL0     H90107   4.858  10.567   0.078  4.4854 -2.2098 -2.4193
  653MOL0     H90108   4.706  10.455  -0.151  0.9167  2.3104 -3.3778
  653MOL0     H90109   4.803  10.598  -0.146  0.7412 -1.4733 -1.5912
  653MOL0     H90110   4.425  10.733  -0.001 -1.1825 -2.0757  0.0723
  653MOL0     H90111   5.172   9.995   0.029  0.6826 -2.0348  1.8205
  653MOL0     H90112   5.374   9.785   0.203  0.8484 -0.3135 -0.6970
  653MOL0     H90113   5.304   9.814   0.046 -1.1690  2.1598 -0.1981
  653MOL0     H90114   5.473   9.877   0.080  0.0648 -1.0387 -1.4251
  654MOL0     O90115   4.071   7.205   0.961 -0.5589 -0.5254  0.0793
  654MOL0     C90116   4.004   7.104   0.979  0.7083 -0.1594  0.1485
  654MOL0     O90117   4.056   6.966   0.988  0.8682  0.5286  0.3198
  654MOL0     C90118   4.181   6.952   1.044  0.1357  0.5274  0.2864
  654MOL0     C90119   4.290   6.928   0.963 -0.4326 -1.1556  0.7280
  654MOL0     C90120   4.413   6.943   1.022 -0.8460 -0.1213 -0.4924
  654MOL0     C90121   4.428   6.971   1.162 -0.0303 -0.3280 -0.3750
  654MOL0     O90122   4.549   6.993   1.213 -0.1470  0.0409 -0.7442
  654MOL0     C90123   4.565   7.127   1.272 -0.2464  0.6599  0.3280
  654MOL0     C90124   4.712   7.152   1.311 -0.2541 -1.0189  0.4966
  654MOL0     C90125   4.803   7.121   1.195 -0.1058 -0.5240  0.2458
  654MOL0     C90126   4.943   7.175   1.215 -0.1256  0.1211 -0.3837
  654MOL0     C90127   5.035   7.141   1.092  0.3252  0.7724 -0.2929
  654MOL0     C90128   5.086   6.997   1.107  0.6294 -0.3582 -0.1834
  654MOL0     C90129   5.186   6.952   1.006 -0.1617 -0.1342 -0.2377
  654MOL0     C90130   5.245   6.812   1.033  0.7043  0.9756 -0.7044
  654MOL0     N90131   5.391   6.791   1.008  0.9379  0.6173 -0.3000
  654MOL0     C90132   5.466   6.848   0.914  0.2218  0.4826  0.2064
  654MOL0     C90133   5.595   6.818   0.941 -0.0931  0.6476  0.5142
  654MOL0     C90134   5.713   6.841   0.852 -0.2298 -0.0729  0.2564
  654MOL0     C90135   5.844   6.848   0.929  0.7677  0.3995  1.3713
  654MOL0     C90136   5.963   6.873   0.841 -0.5181  0.2138  0.0849
  654MOL0     C90137   6.084   6.909   0.931  0.6098  0.1677  0.6327
  654MOL0     O90138   6.190   6.927   0.835  0.0106 -0.0746  0.3554
  654MOL0     C90139   6.306   6.863   0.877 -0.4198 -0.3750  0.7822
  654MOL0     C90140   6.381   6.908   0.989 -0.3151  0.0081  0.5204
  654MOL0     C90141   6.508   6.853   1.016 -0.9415  0.3557  0.4559
  654MOL0     C90142   6.579   6.899   1.143 -0.0359 -0.5931  1.0857
  654MOL0     C90143   6.557   6.745   0.935  0.3906  0.3359  0.4409
  654MOL0     C90144   6.684   6.665   0.953  0.8621  0.0746  1.0611
  654MOL0     O90145   6.735   6.605   0.836  0.0576  0.8339 -0.3194
  654MOL0     C90146   6.855   6.549   0.851 -0.4076 -0.8288 -0.2876
  654MOL0     C90147   6.969   6.607   0.805  0.2967 -0.5239  0.0378
  654MOL0     C90148   7.094   6.543   0.808 -0.4577  0.6720  0.0343
  654MOL0     C90149   7.099   6.420   0.877  0.2456 -0.0164  0.3090
  654MOL0     O90150   7.209   6.338   0.891  0.2855  0.5537  0.2466
  654MOL0     C90151   7.324   6.382   0.811 -0.5686 -0.2731  0.2933
  654MOL0     C90152   7.432   6.273   0.822  0.4571  0.0862 -0.1404
  654MOL0     C90153   7.530   6.294   0.713  0.1057  0.7304 -0.2476
  654MOL0     C90154   7.631   6.175   0.702 -0.6690 -0.0142  0.3347
  654MOL0     C90155   7.763   6.204   0.771  1.2620 -0.9511  0.5654
  654MOL0     C90156   7.843   6.083   0.779 -0.9046 -0.2030 -0.6369
  654MOL0     C90157   7.983   6.118   0.832  0.6755  0.2594  0.5961
  654MOL0     C90158   8.066   5.987   0.841 -0.0688 -0.3568 -0.4744
  654MOL0    Cl90159   8.022   5.917   0.995 -0.0062 -0.1341 -0.7695
  654MOL0     C90160   6.987   6.372   0.941  0.2095 -1.3831  0.4649
  654MOL0     C90161   6.862   6.426   0.920 -0.4629 -0.4384 -0.1130
  654MOL0     O90162   6.739   6.661   1.066  0.7830 -0.9676  0.8004
  654MOL0     C90163   6.477   6.707   0.821 -0.1003 -0.4154  0.6919
  654MOL0     C90164   6.347   6.760   0.797 -0.4671 -0.1906 -0.6681
  654MOL0     N90165   5.600   6.750   1.060  0.0595  0.5780  0.1593
  654MOL0     N90166   5.475   6.740   1.102 -0.1214 -0.1650 -0.4866
  654MOL0     C90167   4.316   6.974   1.241 -0.7341 -0.1701 -0.3269
  654MOL0     C90168   4.202   6.968   1.179  0.1913 -0.5063 -0.1282
  654MOL0     C90169   3.850   7.112   0.996 -1.0302 -1.0679 -0.8877
  654MOL0     C90170   3.781   6.988   0.993  0.4586 -0.4098 -0.1736
  654MOL0     C90171   3.640   6.986   0.974  0.3274 -0.0301 -0.1399
  654MOL0     C90172   3.568   7.104   0.973  0.9177 -0.7236 -0.0790
  654MOL0     O90173   3.430   7.097   0.957  0.6744  0.1215 -0.8333
  654MOL0     C90174   3.360   7.195   0.880 -0.2159  0.0282 -0.5116
  654MOL0     C90175   3.221   7.141   0.839 -0.8080  0.7411  0.2961
  654MOL0     C90176   3.242   7.015   0.761 -0.4270  1.3795 -0.2422
  654MOL0     C90177   3.114   6.967   0.699  0.0421  0.7294 -0.7431
  654MOL0     C90178   3.031   6.905   0.801 -0.0470  0.9675  0.5629
  654MOL0     C90179   2.965   6.834   0.869 -0.7569  0.4599  0.3925
  654MOL0     C90180   3.635   7.226   0.984  0.4894  0.1244  0.4806
  654MOL0     C90181   3.780   7.233   0.992  0.0546  0.8776 -0.4122
  654MOL0     C90182   3.848   7.366   1.011  0.2413 -0.3634  0.9324
  654MOL0     H90183   4.283   6.904   0.857 -2.4293 -1.9049  0.9860
  654MOL0     H90184   4.506   6.937   0.967 -0.6304  0.4220 -0.1932
  654MOL0     H90185   4.504   7.140   1.362  0.3470  0.2237  0.7971
  654MOL0     H90186   4.540   7.206   1.201  1.1241  0.8509  0.0382
  654MOL0     H90187   4.725   7.259   1.329  0.3996 -1.3369  2.0112
  654MOL0     H90188   4.741   7.094   1.399 -2.0019  0.1465  1.9363
  654MOL0     H90189   4.795   7.014   1.174 -1.2550 -0.1154 -1.6898
  654MOL0     H90190   4.761   7.171   1.107 -0.6120 -0.1067  0.7156
  654MOL0     H90191   4.938   7.284   1.222 -3.7340  0.0084  0.9484
  654MOL0     H90192   4.976   7.123   1.305  2.0606 -0.2562 -1.3546
  654MOL0     H90193   5.122   7.207   1.088 -1.2808  3.3720  2.5376
  654MOL0     H90194   4.977   7.139   0.999  0.0545 -2.2166 -0.1684
  654MOL0     H90195   5.135   6.975   1.202  1.6274 -0.4280 -0.6966
  654MOL0     H90196   5.002   6.927   1.105  1.6538 -2.3163  5.7889
  654MOL0     H90197   5.274   7.018   1.008  2.1300 -2.9286 -0.9596
  654MOL0     H90198   5.129   6.953   0.913  1.1080  1.0142 -1.0518
  654MOL0     H90199   5.233   6.767   1.132 -0.0213 -1.2873 -1.7389
  654MOL0     H90200   5.190   6.739   0.973 -0.9505  0.2618  1.5261
  654MOL0     H90201   5.412   6.900   0.835 -0.2219  0.6047  0.5838
  654MOL0     H90202   5.702   6.926   0.784  0.1042 -1.6945 -1.9306
  654MOL0     H90203   5.721   6.753   0.788  1.4163 -0.4353  0.9174
  654MOL0     H90204   5.834   6.934   0.996 -1.5109  2.4004 -1.2724
  654MOL0     H90205   5.858   6.754   0.983 -3.5272 -2.1338 -1.3395
  654MOL0     H90206   5.987   6.785   0.781  1.9448  1.6326 -1.1441
  654MOL0     H90207   5.938   6.963   0.782  1.3149  2.0176  1.8927
  654MOL0     H90208   6.065   6.993   0.999 -0.1937  1.1805 -0.8059
  654MOL0     H90209   6.096   6.821   0.995 -0.4145 -1.0541 -0.7889
  654MOL0     H90210   6.334   6.997   1.030  0.7897  1.4998 -1.2647
  654MOL0     H90211   6.592   6.817   1.215  3.3270  0.3632  1.7311
  654MOL0     H90212   6.521   6.979   1.189 -2.3060 -0.5921 -1.5052
  654MOL0     H90213   6.670   6.951   1.114 -1.5962  0.5036 -2.4278
  654MOL0     H90214   6.971   6.700   0.749  2.3138  0.0096  0.8759
  654MOL0     H90215   7.182   6.589   0.764 -0.1809 -0.3910 -0.5553
  654MOL0     H90216   7.299   6.387   0.704  1.9564 -0.9813 -0.3918
  654MOL0     H90217   7.358   6.482   0.837 -2.7896  0.6877 -0.2283
  654MOL0     H90218   7.468   6.292   0.923  1.3912 -0.0652 -0.4375
  654MOL0     H90219   7.378   6.178   0.815 -1.0793  1.0534 -2.8525
  654MOL0     H90220   7.585   6.388   0.723 -1.1126  1.4902 -0.3503
  654MOL0     H90221   7.477   6.296   0.617  1.2712  0.6174 -0.9118
  654MOL0     H90222   7.645   6.153   0.596  2.0404  0.6213  0.5049
  654MOL0     H90223   7.590   6.083   0.743 -1.1773  0.6736  1.4203
  654MOL0     H90224   7.812   6.279   0.708 -0.4912  0.8617  1.2367
  654MOL0     H90225   7.752   6.257   0.866  0.6877  2.4470 -1.2023
  654MOL0     H90226   7.841   6.029   0.684  1.3136 -0.7426 -0.4441
  654MOL0     H90227   7.798   6.013   0.849 -1.1506  0.2479 -0.3343
  654MOL0     H90228   7.978   6.169   0.929  0.5097 -0.2362  0.8554
  654MOL0     H90229   8.033   6.183   0.760  0.9784  0.0347  0.6044
  654MOL0     H90230   8.171   6.016   0.835  0.0491 -0.3662  1.1320
  654MOL0     H90231   8.052   5.910   0.765  3.2504 -0.9222 -0.6501
  654MOL0     H90232   6.984   6.281   1.000  0.2699 -1.3354  0.5407
  654MOL0     H90233   6.772   6.377   0.957 -1.6491  0.0719 -2.1664
  654MOL0     H90234   6.495   6.621   0.757 -3.1731  0.5653 -1.7736
  654MOL0     H90235   6.275   6.741   0.718  0.1091  1.4613 -1.6194
  654MOL0     H90236   4.323   7.017   1.340 -0.8106  0.4735 -0.5959
  654MOL0     H90237   4.116   6.971   1.246 -0.3746  0.1649 -0.8640
  654MOL0     H90238   3.833   6.893   0.991  0.1678 -0.5989  0.9176
  654MOL0     H90239   3.592   6.890   0.960 -0.2780  0.7764 -5.4363
  654MOL0     H90240   3.344   7.284   0.942 -1.7766 -0.8490  0.4326
  654MOL0     H90241   3.417   7.226   0.792 -0.9501 -1.5151 -1.5888
  654MOL0     H90242   3.171   7.223   0.787  0.0853  1.7080  0.9230
  654MOL0     H90243   3.164   7.116   0.929  0.3143 -0.6321  0.6607
  654MOL0     H90244   3.321   7.030   0.686 -0.0574 -0.7318 -0.3263
  654MOL0     H90245   3.281   6.943   0.833 -4.1668  0.0416  0.7023
  654MOL0     H90246   3.120   6.899   0.614 -2.6479 -0.8314  0.2089
  654MOL0     H90247   3.064   7.059   0.666  0.8502  1.9159  1.1208
  654MOL0     H90248   2.893   6.779   0.926 -1.3579  1.6435  0.7857
  654MOL0     H90249   3.587   7.324   0.978 -0.0987 -0.2042 -0.3338
  654MOL0     H90250   3.780   7.450   1.026  0.7850  0.5617 -1.3116
  654MOL0     H90251   3.919   7.353   1.093  2.0844  1.5290 -0.2495
  654MOL0     H90252   3.912   7.392   0.926 -1.5520  1.8515  0.1621
  655MOL0     O90253   0.966   2.985  10.737 -0.1994  0.2119 -0.1815
  655MOL0     C90254   0.976   3.005  10.613  0.0770 -0.4109 -0.2312
  655MOL0     O90255   1.081   3.069  10.552  0.5630 -0.4988  0.4968
  655MOL0     C90256   1.188   3.131  10.609  0.1635  0.4884 -1.2117
  655MOL0     C90257   1.194   3.171  10.741  0.2977 -0.1277  0.4620
  655MOL0     C90258   1.307   3.219  10.805 -0.3170  0.6408 -0.6162
  655MOL0     C90259   1.425   3.239  10.723 -0.3722  0.2531  0.2148
  655MOL0     O90260   1.540   3.308  10.765  0.5876 -0.1589  0.0181
  655MOL0     C90261   1.543   3.366  10.898  0.1846  0.0717 -0.4748
  655MOL0     C90262   1.589   3.257  11.002  0.6057  1.1814 -0.1300
  655MOL0     C90263   1.717   3.170  10.954 -0.0275  0.6480 -0.6722
  655MOL0     C90264   1.834   3.255  10.943 -0.2224  0.0367 -0.2085
  655MOL0     C90265   1.956   3.174  10.919  0.0023  0.4801 -0.1749
  655MOL0     C90266   2.083   3.257  10.928  0.7614 -0.1978  0.0991
  655MOL0     C90267   2.214   3.192  10.871  0.8934  0.2721 -0.4674
  655MOL0     C90268   2.284   3.096  10.977  0.5822 -0.2398  0.7176
  655MOL0     N90269   2.436   3.094  10.946  0.2521  0.3844  0.2745
  655MOL0     C90270   2.522   3.093  11.045 -0.4528  0.3661 -0.2795
  655MOL0     C90271   2.647   3.086  10.991  0.1438  0.7916  0.7287
  655MOL0     C90272   2.780   3.080  11.063 -0.7121  0.9558 -0.4712
  655MOL0     C90273   2.867   3.210  11.044  0.5040  0.1982  0.9826
  655MOL0     C90274   3.012   3.194  11.091  0.8046 -0.2209  0.3773
  655MOL0     C90275   3.012   3.138  11.223 -0.4425  0.0266  0.5713
  655MOL0     O90276   3.140   3.174  11.288  0.0142 -0.3706 -0.6997
  655MOL0     C90277   3.246   3.102  11.254 -0.2032 -0.4414  0.6333
  655MOL0     C90278   3.258   3.004  11.149 -0.4159 -0.6576 -0.2487
  655MOL0     C90279   3.389   2.939  11.122  0.1892 -0.5408 -0.4807
  655MOL0     C90280   3.392   2.859  10.993 -0.0438 -0.0104 -0.4992
  655MOL0     C90281   3.499   2.957  11.220  0.3807 -1.1097  1.2024
  655MOL0     C90282   3.612   2.868  11.230  0.0223  0.1523  0.0820
  655MOL0     O90283   3.699   2.890  11.332 -0.0549  0.0776 -0.6698
  655MOL0     C90284   3.784   2.789  11.362  0.4517 -0.8751  0.6937
  655MOL0     C90285   3.765   2.716  11.484  0.3311 -0.7564  0.1245
  655MOL0     C90286   3.855   2.611  11.515 -0.7056  0.2080  0.1316
  655MOL0     C90287   3.953   2.563  11.416  0.9633  0.0467  0.6623
  655MOL0     O90288   4.034   2.453  11.441 -0.0605 -0.2816  1.0398
  655MOL0     C90289   3.988   2.356  11.531 -0.6400  0.4549 -0.1844
  655MOL0     C90290   4.033   2.213  11.480 -0.4787 -0.1851  0.4807
  655MOL0     C90291   4.184   2.189  11.481  0.1958  0.1088 -0.2511
  655MOL0     C90292   4.219   2.120  11.618  0.1647  0.0980  0.0107
  655MOL0     C90293   4.231   1.968  11.621 -0.1131  0.5822 -0.1827
  655MOL0     C90294   4.325   1.914  11.728  0.7463  0.3400 -0.0272
  655MOL0     C90295   4.315   1.764  11.750 -0.0321  1.1991 -0.2885
  655MOL0     C90296   4.412   1.709  11.853 -0.2062  0.7981  0.1016
  655MOL0    Cl90297   4.399   1.527  11.864  0.4835 -0.3792  0.0074
  655MOL0     C90298   3.958   2.637  11.294 -0.7743 -0.2517  0.4050
  655MOL0     C90299   3.885   2.752  11.266 -0.7066  0.9718 -0.2390
  655MOL0     O90300   3.610   2.766  11.157  0.3140  0.4276 -0.3791
  655MOL0     C90301   3.486   3.055  11.315  0.1027  0.1817  0.0078
  655MOL0     C90302   3.365   3.126  11.325  0.8168  0.3870  1.1480
  655MOL0     N90303   2.628   3.090  10.853 -0.5879  0.1182  0.0522
  655MOL0     N90304   2.502   3.077  10.826 -0.0238  0.9948 -0.1639
  655MOL0     C90305   1.420   3.192  10.586  1.1933  0.0665  0.5258
  655MOL0     C90306   1.305   3.135  10.535  0.4071  0.3756  0.4151
  655MOL0     C90307   0.866   2.976  10.521  0.1803  0.4215 -0.0271
  655MOL0     C90308   0.866   3.035  10.393 -1.3405 -0.4474  0.6386
  655MOL0     C90309   0.762   3.001  10.301  0.0564  0.3998  0.0288
  655MOL0     C90310   0.655   2.917  10.334  0.3096  0.0216  0.2772
  655MOL0     O90311   0.550   2.880  10.251  0.1118  0.4314 -0.0516
  655MOL0     C90312   0.475   3.001  10.228  0.4440 -0.7044 -0.2184
  655MOL0     C90313   0.336   3.016  10.308 -0.5246  0.0470  0.3146
  655MOL0     C90314   0.232   2.901  10.288 -0.7161 -0.5872  0.1205
  655MOL0     C90315   0.092   2.948  10.312 -0.1061  0.2383 -0.5218
  655MOL0     C90316  -0.003   2.836  10.330  0.5027 -0.2467  0.3631
  655MOL0     C90317  -0.059   2.736  10.344  0.2982  0.2579  0.2858
  655MOL0     C90318   0.655   2.873  10.463  0.2377 -0.5031  0.2258
  655MOL0     C90319   0.758   2.893  10.556 -0.0094  0.2775  0.9472
  655MOL0     C90320   0.756   2.811  10.678  0.0605  0.2414  0.2750
  655MOL0     H90321   1.105   3.173  10.802  1.7426 -2.8450  2.8836
  655MOL0     H90322   1.317   3.259  10.905 -1.2242 -3.8723  1.5310
  655MOL0     H90323   1.448   3.417  10.916  0.0243  0.5798 -2.4681
  655MOL0     H90324   1.617   3.447  10.902  1.2765 -0.8826 -0.6245
  655MOL0     H90325   1.612   3.296  11.102  2.2742  1.6418 -0.6565
  655MOL0     H90326   1.505   3.189  11.010 -0.3138  2.0061 -2.0899
  655MOL0     H90327   1.741   3.091  11.025 -2.7811  0.8899  0.6629
  655MOL0     H90328   1.699   3.110  10.864  0.3233  1.1605 -1.0904
  655MOL0     H90329   1.818   3.331  10.867 -2.6389 -0.1566  0.0033
  655MOL0     H90330   1.845   3.306  11.039 -3.3272  0.2233  0.1649
  655MOL0     H90331   1.943   3.135  10.818 -0.0800  0.4030 -0.1341
  655MOL0     H90332   1.968   3.087  10.985  0.3138 -2.3407 -3.6098
  655MOL0     H90333   2.071   3.342  10.860  0.8331 -0.7770 -0.6540
  655MOL0     H90334   2.096   3.301  11.027  2.8941 -2.6220  1.0336
  655MOL0     H90335   2.292   3.264  10.845  1.6257 -0.9833 -1.9144
  655MOL0     H90336   2.199   3.131  10.781 -1.1035  1.0701 -0.7130
  655MOL0     H90337   2.264   3.139  11.076 -0.6297 -2.9846  1.7609
  655MOL0     H90338   2.229   3.002  10.966 -0.2063  0.4307 -1.8347
  655MOL0     H90339   2.503   3.092  11.152 -0.2431  2.8659 -0.1608
  655MOL0     H90340   2.835   2.993  11.026 -0.0971  1.5859 -1.0589
  655MOL0     H90341   2.771   3.070  11.172 -0.7156 -0.3320 -0.5727
  655MOL0     H90342   2.874   3.239  10.939  5.5788  0.8085  1.2395
  655MOL0     H90343   2.821   3.295  11.096 -0.0566 -1.2765  3.0475
  655MOL0     H90344   3.071   3.125  11.030  1.1140  0.0693  0.3524
  655MOL0     H90345   3.059   3.292  11.101 -1.7441  0.9363  2.0805
  655MOL0     H90346   2.940   3.177  11.295  2.8768  2.4658  2.9252
  655MOL0     H90347   2.996   3.030  11.221  0.0741 -0.0454 -0.1085
  655MOL0     H90348   3.174   2.976  11.088 -0.6663  0.5480 -0.4872
  655MOL0     H90349   3.471   2.895  10.928 -1.9680  0.9263 -2.4337
  655MOL0     H90350   3.303   2.888  10.936 -0.7909  2.7295  1.8191
  655MOL0     H90351   3.386   2.750  11.005 -1.9346  0.2539  1.7565
  655MOL0     H90352   3.689   2.746  11.555 -0.4780 -2.0833 -0.1462
  655MOL0     H90353   3.842   2.572  11.615 -0.4615 -0.0516  0.0607
  655MOL0     H90354   4.046   2.371  11.623 -0.5477 -0.8217 -0.0180
  655MOL0     H90355   3.879   2.358  11.543 -0.8843 -1.3768 -1.5905
  655MOL0     H90356   3.982   2.131  11.532  0.4099  0.1126  1.8673
  655MOL0     H90357   3.993   2.203  11.379  1.1660 -0.1507 -0.2013
  655MOL0     H90358   4.232   2.288  11.483 -1.0121  0.6987  0.2672
  655MOL0     H90359   4.221   2.121  11.403  1.8650  1.8900 -1.1085
  655MOL0     H90360   4.156   2.152  11.702  1.7871  3.2921  0.1504
  655MOL0     H90361   4.320   2.152  11.643  0.7761 -0.4943 -1.5982
  655MOL0     H90362   4.131   1.924  11.629  1.4224 -2.9209  4.8339
  655MOL0     H90363   4.268   1.938  11.522  1.7226  0.6764  0.4322
  655MOL0     H90364   4.302   1.957  11.826  2.9204 -0.5423  0.9590
  655MOL0     H90365   4.428   1.947  11.712 -0.5916  4.5818 -1.1746
  655MOL0     H90366   4.332   1.714  11.654 -3.4379 -0.8082  0.0097
  655MOL0     H90367   4.213   1.736  11.773 -0.2883  2.7391  0.5989
  655MOL0     H90368   4.400   1.757  11.951  0.9735  0.5412  0.3898
  655MOL0     H90369   4.514   1.733  11.822 -0.3254  1.0441 -0.1053
  655MOL0     H90370   4.031   2.596  11.225  0.1028  0.3466  0.9666
  655MOL0     H90371   3.891   2.799  11.168  0.3170 -1.8739 -1.6417
  655MOL0     H90372   3.557   3.075  11.395 -1.2353  0.8017  1.0708
  655MOL0     H90373   3.367   3.197  11.407  0.7238  1.5718  0.1628
  655MOL0     H90374   1.512   3.188  10.527  2.1339 -0.3310  1.9612
  655MOL0     H90375   1.315   3.095  10.435  0.0140  0.5855  0.2918
  655MOL0     H90376   0.953   3.091  10.359 -2.4404  1.6831  1.2180
  655MOL0     H90377   0.761   3.048  10.203  1.9232  0.7830  0.1707
  655MOL0     H90378   0.527   3.096  10.244 -1.7755  0.4237  0.7728
  655MOL0     H90379   0.437   3.020  10.127 -3.5707  0.7627  1.3520
  655MOL0     H90380   0.289   3.111  10.280  1.1507  0.4643 -1.2149
  655MOL0     H90381   0.366   3.025  10.413  1.6938 -0.3570 -0.2349
  655MOL0     H90382   0.239   2.875  10.182 -0.5150  0.2261 -0.0733
  655MOL0     H90383   0.248   2.814  10.353 -1.6394 -0.8649 -0.0104
  655MOL0     H90384   0.052   3.014  10.235 -0.3781  0.5043 -0.1575
  655MOL0     H90385   0.092   3.004  10.406  1.2257  0.8210 -0.8607
  655MOL0     H90386  -0.113   2.643  10.345  2.5693 -1.2549 -2.0649
  655MOL0     H90387   0.574   2.802  10.481 -0.2311 -0.0931 -0.2275
  655MOL0     H90388   0.683   2.731  10.662 -1.5464  1.2190  2.2033
  655MOL0     H90389   0.848   2.758  10.703 -0.7940  0.9217  6.1697
  655MOL0     H90390   0.738   2.855  10.776  0.7597 -1.0466  1.0092
  656MOL0     O90391   4.675  10.581   1.661  0.8800  0.2773  0.7434
  656MOL0     C90392   4.599  10.508   1.719  0.1587  0.0264  1.0102
  656MOL0     O90393   4.628  10.384   1.765  0.1410 -0.0526 -0.3062
  656MOL0     C90394   4.752  10.321   1.753 -0.4779 -0.9791 -0.8749
  656MOL0     C90395   4.842  10.329   1.644 -0.4263  0.2120 -0.2471
  656MOL0     C90396   4.961  10.256   1.642 -0.1167 -0.3004  0.3731
  656MOL0     C90397   5.003  10.171   1.742 -0.0976 -0.1626 -0.4317
  656MOL0     O90398   5.126  10.115   1.721  0.0300 -0.2299 -0.0398
  656MOL0     C90399   5.191  10.052   1.828 -0.6540  0.2032  0.2695
  656MOL0     C90400   5.342  10.051   1.775  0.1049 -0.3403 -0.0212
  656MOL0     C90401   5.422   9.989   1.880 -0.3613  0.3726 -0.7612
  656MOL0     C90402   5.571   9.996   1.852 -0.1792  0.0743 -0.5547
  656MOL0     C90403   5.661   9.979   1.979 -0.2962  0.5109  0.0127
  656MOL0     C90404   5.628  10.085   2.083  0.9882 -0.4082  0.6946
  656MOL0     C90405   5.745  10.122   2.178  0.4438  0.6723 -0.5138
  656MOL0     C90406   5.703  10.203   2.293 -0.4426 -0.8541 -0.2350
  656MOL0     N90407   5.648  10.334   2.248  0.8268 -0.4297  0.0159
  656MOL0     C90408   5.699  10.411   2.152  0.5767 -0.1038 -0.3130
  656MOL0     C90409   5.624  10.516   2.144  0.2104 -0.5317 -0.2557
  656MOL0     C90410   5.662  10.636   2.059  0.3974 -0.1847 -0.3474
  656MOL0     C90411   5.742  10.741   2.139  0.2360 -0.0482 -1.1753
  656MOL0     C90412   5.887  10.705   2.161 -0.4552 -0.0488 -0.4732
  656MOL0     C90413   5.946  10.797   2.270  0.6210  0.1889  0.2359
  656MOL0     O90414   6.084  10.767   2.285  0.4401  0.2450 -0.1750
  656MOL0     C90415   6.143  10.802   2.401 -0.0633  1.1657 -0.0553
  656MOL0     C90416   6.075  10.866   2.509 -0.4582  0.0446  0.7504
  656MOL0     C90417   6.144  10.891   2.634 -0.2642  0.1884 -0.4936
  656MOL0     C90418   6.062  10.975   2.737  0.6317 -0.0387 -0.2893
  656MOL0     C90419   6.273  10.840   2.659 -0.8496 -0.6713  0.4652
  656MOL0     C90420   6.358  10.872   2.781 -1.0011  0.0233  0.1800
  656MOL0     O90421   6.495  10.840   2.779  0.8178  0.3210  0.6058
  656MOL0     C90422   6.584  10.913   2.840  0.3249  0.7740  0.1608
  656MOL0     C90423   6.702  10.931   2.769  0.2503  0.0956  0.8972
  656MOL0     C90424   6.801  11.005   2.829 -1.0088  0.5752 -0.3749
  656MOL0     C90425   6.784  11.070   2.948  0.4655 -0.1384 -0.3018
  656MOL0     O90426   6.879  11.153   2.994  0.3588  0.4517  0.2080
  656MOL0     C90427   6.864  11.209   3.121  0.4024  0.2196 -0.3442
  656MOL0     C90428   7.005  11.250   3.160  0.0030 -0.1614 -0.3557
  656MOL0     C90429   7.022  11.316   3.299  0.1627 -0.3095 -0.4762
  656MOL0     C90430   7.166  11.387   3.309  0.3606 -0.2461  0.2594
  656MOL0     C90431   7.221  11.399   3.453  0.1115 -0.1504 -0.4820
  656MOL0     C90432   7.141  11.494   3.550  0.8904  0.5866  0.2619
  656MOL0     C90433   7.133  11.637   3.505 -0.5563  0.0450 -0.1268
  656MOL0     C90434   7.081  11.728   3.625  0.6500  0.3191  0.4053
  656MOL0    Cl90435   6.900  11.727   3.632 -0.4332 -0.0034 -0.5898
  656MOL0     C90436   6.666  11.038   3.014 -0.0693 -0.4363 -1.3766
  656MOL0     C90437   6.562  10.966   2.966  0.0616  0.2814 -0.4308
  656MOL0     O90438   6.307  10.933   2.874 -0.0440 -0.1260 -0.2129
  656MOL0     C90439   6.336  10.768   2.554 -0.2491 -0.7360  0.7465
  656MOL0     C90440   6.269  10.756   2.426 -0.5016  0.4564  0.3108
  656MOL0     N90441   5.511  10.497   2.229  0.0234  0.4944 -0.3137
  656MOL0     N90442   5.526  10.387   2.291 -0.2105 -0.3906 -0.5101
  656MOL0     C90443   4.908  10.165   1.850 -0.8184  0.6674 -0.4660
  656MOL0     C90444   4.791  10.240   1.858  0.2273  0.9887  0.4915
  656MOL0     C90445   4.459  10.552   1.717  0.6239 -0.1217 -0.1543
  656MOL0     C90446   4.362  10.451   1.734  0.0851 -0.3796  0.2163
  656MOL0     C90447   4.225  10.479   1.743 -0.3132  0.1953 -0.5421
  656MOL0     C90448   4.172  10.604   1.720 -0.7389  0.4412  1.1076
  656MOL0     O90449   4.038  10.637   1.724 -0.1212 -0.3933 -0.0738
  656MOL0     C90450   3.936  10.537   1.727 -0.3175  0.0921  0.1621
  656MOL0     C90451   3.909  10.487   1.871 -0.1089  0.0918 -0.2608
  656MOL0     C90452   3.778  10.399   1.868 -0.0369  0.6439 -0.6434
  656MOL0     C90453   3.784  10.304   1.983  0.0545 -0.0924  0.1883
  656MOL0     C90454   3.643  10.262   2.012  0.0093 -1.0534 -0.0738
  656MOL0     C90455   3.524  10.249   2.043  0.1637  0.7642  0.3420
  656MOL0     C90456   4.266  10.705   1.706  0.3498  0.7561 -0.2179
  656MOL0     C90457   4.405  10.688   1.702 -0.3881 -0.2138 -0.4519
  656MOL0     C90458   4.485  10.813   1.665  0.5269 -0.0820  0.5545
  656MOL0     H90459   4.824  10.387   1.554 -2.1159  0.6196  0.3217
  656MOL0     H90460   5.025  10.273   1.556  0.8727 -0.4146  1.0590
  656MOL0     H90461   5.162   9.947   1.841  2.3096 -0.5583  1.9188
  656MOL0     H90462   5.188  10.102   1.925  1.1782 -1.9237  1.5263
  656MOL0     H90463   5.357  10.002   1.679  2.5676  0.7394 -0.2450
  656MOL0     H90464   5.375  10.154   1.758 -1.5317  0.1713 -0.2757
  656MOL0     H90465   5.404  10.039   1.976 -0.9281 -0.9143 -0.1715
  656MOL0     H90466   5.387   9.892   1.915  0.2598 -0.1310 -1.4990
  656MOL0     H90467   5.610   9.919   1.784 -0.0904 -0.1640 -0.2313
  656MOL0     H90468   5.593  10.091   1.802  0.1879 -0.5243 -1.5605
  656MOL0     H90469   5.768   9.990   1.960 -0.2689 -1.8421 -1.5216
  656MOL0     H90470   5.650   9.878   2.018  2.3621  0.3152  0.4263
  656MOL0     H90471   5.594  10.175   2.032  0.9666 -1.4465 -1.2004
  656MOL0     H90472   5.538  10.053   2.138  0.4832  1.1274  0.8060
  656MOL0     H90473   5.813  10.183   2.118 -1.4993  0.4078 -3.2294
  656MOL0     H90474   5.781  10.028   2.220 -1.7637  1.5414  3.9618
  656MOL0     H90475   5.622  10.159   2.352  0.6448 -2.0984  0.3963
  656MOL0     H90476   5.788  10.219   2.360 -0.9407  0.2321  0.1550
  656MOL0     H90477   5.787  10.393   2.091 -0.7139 -1.6441 -1.8460
  656MOL0     H90478   5.571  10.687   2.027  1.4675  1.9554 -0.1671
  656MOL0     H90479   5.709  10.601   1.967 -0.3482 -2.0056 -0.0678
  656MOL0     H90480   5.746  10.834   2.082  0.0102  1.4706  1.1595
  656MOL0     H90481   5.703  10.756   2.240 -0.2689 -1.3075 -1.1567
  656MOL0     H90482   5.898  10.600   2.191 -1.5224 -0.1979 -0.5689
  656MOL0     H90483   5.942  10.704   2.067  0.6625 -2.6405  0.1000
  656MOL0     H90484   5.944  10.905   2.253 -2.1735  0.3209  0.9334
  656MOL0     H90485   5.882  10.770   2.355 -2.4427  0.6697 -1.7377
  656MOL0     H90486   5.968  10.884   2.507 -0.8726 -2.1608  1.0268
  656MOL0     H90487   6.044  10.906   2.821 -0.5832  0.2817 -0.2814
  656MOL0     H90488   5.963  11.001   2.700  0.7983  0.3167 -0.4900
  656MOL0     H90489   6.112  11.065   2.773  3.4550 -0.8605 -1.8185
  656MOL0     H90490   6.720  10.890   2.670  4.6524  0.1176  1.4826
  656MOL0     H90491   6.900  11.019   2.787 -0.6506 -1.1093 -0.1689
  656MOL0     H90492   6.798  11.295   3.120 -2.1208 -1.6149 -1.3150
  656MOL0     H90493   6.827  11.135   3.193 -2.7289  0.6017 -1.4463
  656MOL0     H90494   7.077  11.168   3.147 -1.4256 -1.7779  1.3632
  656MOL0     H90495   7.032  11.329   3.089 -0.5626  0.4536  0.0952
  656MOL0     H90496   7.007  11.251   3.386 -1.6526  2.4131  1.4195
  656MOL0     H90497   6.957  11.401   3.323  1.5174  1.2738 -2.1250
  656MOL0     H90498   7.157  11.486   3.265  1.2338 -1.5164 -3.1020
  656MOL0     H90499   7.234  11.326   3.248  0.3959  0.8801 -0.8404
  656MOL0     H90500   7.230  11.294   3.482 -1.1353  0.1393  1.0555
  656MOL0     H90501   7.323  11.439   3.453 -1.0026  3.1359  1.6709
  656MOL0     H90502   7.186  11.497   3.649 -1.3278  1.0939  1.3096
  656MOL0     H90503   7.037  11.460   3.563  0.1417  3.8185  5.0416
  656MOL0     H90504   7.070  11.643   3.416  0.0834  1.4215 -0.5097
  656MOL0     H90505   7.235  11.663   3.478 -0.6076 -0.4919 -0.8738
  656MOL0     H90506   7.114  11.831   3.611 -1.7373  1.4326  2.2372
  656MOL0     H90507   7.126  11.694   3.719  2.5534 -0.4635 -0.7362
  656MOL0     H90508   6.641  11.063   3.116  3.1924 -0.6263 -0.4112
  656MOL0     H90509   6.476  10.951   3.030  0.1753  1.2836 -0.0153
  656MOL0     H90510   6.436  10.727   2.567 -0.5370 -1.2426  1.4305
  656MOL0     H90511   6.317  10.702   2.345 -1.2717 -1.9381  1.3659
  656MOL0     H90512   4.943  10.100   1.930 -0.9954 -2.7776 -2.9874
  656MOL0     H90513   4.730  10.233   1.947 -0.3400  4.2733  0.4897
  656MOL0     H90514   4.393  10.348   1.746 -1.3372 -0.8911 -0.2852
  656MOL0     H90515   4.154  10.398   1.760  0.9981 -1.3183 -1.9958
  656MOL0     H90516   3.848  10.579   1.676  0.2317 -0.6579 -1.4744
  656MOL0     H90517   3.968  10.453   1.665  4.0229  2.0636 -0.6860
  656MOL0     H90518   3.897  10.560   1.951 -0.6249  0.2998 -0.5194
  656MOL0     H90519   3.999  10.435   1.905  0.6286  0.2679 -1.8445
  656MOL0     H90520   3.688  10.461   1.863 -0.3179  0.3571  0.4980
  656MOL0     H90521   3.772  10.334   1.781  0.2999 -1.2307  0.6639
  656MOL0     H90522   3.834  10.350   2.069 -1.1517  0.3995  0.6487
  656MOL0     H90523   3.836  10.213   1.950  0.4604  0.2322 -0.0697
  656MOL0     H90524   3.421  10.230   2.068  0.1155 -0.8313 -0.9439
  656MOL0     H90525   4.232  10.807   1.693 -0.0540  0.4779 -1.4788
  656MOL0     H90526   4.589  10.799   1.695  0.9510 -0.0681 -0.8704
  656MOL0     H90527   4.477  10.818   1.556  3.3554 -0.5502  0.2435
  656MOL0     H90528   4.450  10.897   1.726  0.3163  0.6291 -0.5364
  657MOL0     O90529   0.353   9.615  11.115  1.4511 -0.4752  0.4760
  657MOL0     C90530   0.326   9.704  11.032 -0.0776  0.2168  0.4174
  657MOL0     O90531   0.421   9.768  10.962 -0.2388 -0.6275  0.0797
  657MOL0     C90532   0.552   9.747  10.977  0.0703  0.4344  0.6080
  657MOL0     C90533   0.624   9.723  10.859  0.0198  0.9372  1.5761
  657MOL0     C90534   0.749   9.676  10.855 -0.4696 -0.3630 -0.1893
  657MOL0     C90535   0.819   9.667  10.979  0.3807  0.6087 -0.9921
  657MOL0     O90536   0.956   9.641  10.993 -0.1810  0.7455  0.5864
  657MOL0     C90537   1.031   9.580  10.890  0.3309  1.2395  0.2671
  657MOL0     C90538   1.184   9.584  10.913 -0.5214  0.1897  0.3023
  657MOL0     C90539   1.243   9.722  10.927 -0.2773 -0.7376 -0.3660
  657MOL0     C90540   1.348   9.765  10.827  0.3972  0.1380  0.9162
  657MOL0     C90541   1.362   9.925  10.822 -0.5600 -0.4406 -0.1541
  657MOL0     C90542   1.445   9.961  10.694 -0.0054 -1.0996 -0.2205
  657MOL0     C90543   1.519  10.101  10.711  0.1968  0.9610 -0.0149
  657MOL0     C90544   1.578  10.161  10.577  0.7286 -0.0206 -0.2065
  657MOL0     N90545   1.675  10.066  10.525 -0.1467 -0.0870  0.0173
  657MOL0     C90546   1.786  10.026  10.584 -0.0243 -0.2921 -0.8001
  657MOL0     C90547   1.846   9.929  10.504  0.0920  0.6902 -1.1848
  657MOL0     C90548   1.974   9.858  10.535  0.6408 -0.4051  0.0189
  657MOL0     C90549   2.098   9.950  10.524  0.1159  0.4682 -0.8823
  657MOL0     C90550   2.230   9.872  10.560 -0.4238 -0.4046  0.0147
  657MOL0     C90551   2.353   9.964  10.566 -0.0555  0.4035  0.3107
  657MOL0     O90552   2.468   9.889  10.536  0.4043 -0.2999 -0.2897
  657MOL0     C90553   2.589   9.942  10.560 -1.1331 -0.1868 -0.0818
  657MOL0     C90554   2.620  10.079  10.571 -1.1101  0.0790  0.5304
  657MOL0     C90555   2.758  10.112  10.591  0.4811 -0.0933 -0.3807
  657MOL0     C90556   2.772  10.254  10.633  0.3847 -1.0185 -0.2299
  657MOL0     C90557   2.861  10.012  10.586  0.2408 -0.5503 -0.3140
  657MOL0     C90558   3.004  10.045  10.611  1.0029 -0.9119  0.2952
  657MOL0     O90559   3.025  10.169  10.674 -0.0684  0.2596 -0.4093
  657MOL0     C90560   3.155  10.208  10.695 -0.1059  1.0000 -0.0081
  657MOL0     C90561   3.208  10.227  10.822 -0.1014 -1.0934  0.0413
  657MOL0     C90562   3.344  10.261  10.835  0.8218  0.4406  0.0757
  657MOL0     C90563   3.435  10.265  10.729 -0.1139 -0.0953 -0.5568
  657MOL0     O90564   3.560  10.318  10.774  0.2250 -0.0913 -0.4065
  657MOL0     C90565   3.677  10.312  10.688 -1.0099 -0.2864 -0.3649
  657MOL0     C90566   3.793  10.396  10.731 -0.5438 -0.6920  0.2345
  657MOL0     C90567   3.846  10.368  10.871 -0.1154  0.5854 -0.8325
  657MOL0     C90568   3.959  10.465  10.907  0.4968  0.2095  0.5402
  657MOL0     C90569   4.021  10.409  11.031 -0.4155  0.0382 -0.6707
  657MOL0     C90570   4.115  10.509  11.111  0.6202  0.5680 -0.5411
  657MOL0     C90571   4.234  10.543  11.016 -0.7308  0.1110 -0.1050
  657MOL0     C90572   4.351  10.609  11.094  0.6902  0.3862  0.1512
  657MOL0    Cl90573   4.513  10.588  11.010  0.2129 -0.2407  0.1742
  657MOL0     C90574   3.382  10.257  10.598 -0.6362 -0.0860  0.2657
  657MOL0     C90575   3.247  10.227  10.586  0.1891 -0.0213 -0.4591
  657MOL0     O90576   3.091   9.962  10.585  0.1201  0.4787 -0.0563
  657MOL0     C90577   2.822   9.883  10.556  0.1279  0.0378  0.4560
  657MOL0     C90578   2.691   9.845  10.537  1.1901 -0.0946 -0.2276
  657MOL0     N90579   1.769   9.911  10.393 -0.0073  0.0923  0.1356
  657MOL0     N90580   1.664   9.991  10.413 -0.2355 -0.6806  0.7003
  657MOL0     C90581   0.752   9.695  11.096 -0.6633  0.0166  0.5228
  657MOL0     C90582   0.623   9.726  11.092  1.1822 -0.2874  0.3953
  657MOL0     C90583   0.179   9.721  11.003 -0.2680  0.2515 -0.1836
  657MOL0     C90584   0.144   9.785  10.885 -0.8005  0.3354 -0.0417
  657MOL0     C90585   0.014   9.811  10.846  0.3230 -0.1632 -0.5000
  657MOL0     C90586  -0.088   9.776  10.932  0.0623  0.0061  0.2243
  657MOL0     O90587  -0.222   9.812  10.927  0.3799  0.2557  0.2818
  657MOL0     C90588  -0.266   9.914  10.818 -0.1290  0.5754  0.5287
  657MOL0     C90589  -0.307   9.837  10.686  0.0146 -0.1977  0.4580
  657MOL0     C90590  -0.454   9.864  10.643 -0.1796 -0.4955  0.0669
  657MOL0     C90591  -0.547   9.810  10.747 -0.1003 -0.6088  0.0006
  657MOL0     C90592  -0.677   9.872  10.739 -0.4121 -0.2572  0.7920
  657MOL0     C90593  -0.787   9.925  10.735 -0.1895 -0.5259 -0.2356
  657MOL0     C90594  -0.057   9.701  11.047 -0.2516 -0.4506  0.4196
  657MOL0     C90595   0.073   9.670  11.083 -0.4245 -0.0450  0.0235
  657MOL0     C90596   0.083   9.601  11.214 -0.0943  0.5960 -1.2578
  657MOL0     H90597   0.570   9.723  10.765  0.0345  0.1248  1.5603
  657MOL0     H90598   0.790   9.661  10.755 -1.9368 -1.8719 -0.6072
  657MOL0     H90599   1.016   9.627  10.792  0.5993  0.1591 -0.3116
  657MOL0     H90600   1.013   9.473  10.881  1.6391  0.7573  2.5679
  657MOL0     H90601   1.198   9.539  11.012 -5.0819  4.2800  3.2496
  657MOL0     H90602   1.237   9.526  10.837 -0.8542  1.0478 -0.5941
  657MOL0     H90603   1.168   9.801  10.916 -0.1308 -0.5140  0.1923
  657MOL0     H90604   1.279   9.719  11.030 -4.6232 -1.9567  1.3297
  657MOL0     H90605   1.436   9.711  10.861  1.5312  0.8834 -0.6685
  657MOL0     H90606   1.324   9.736  10.724  3.6124 -0.0700  0.1173
  657MOL0     H90607   1.410   9.958  10.914 -2.7006  4.0845 -0.3700
  657MOL0     H90608   1.266   9.977  10.811  0.0051  0.3111 -1.8834
  657MOL0     H90609   1.532   9.897  10.680  0.4192 -0.8877  1.2762
  657MOL0     H90610   1.381   9.963  10.605 -0.7618 -1.5147  0.2958
  657MOL0     H90611   1.600  10.096  10.785  0.2749  0.0587 -0.1548
  657MOL0     H90612   1.446  10.178  10.738  0.5918  0.2694  3.4074
  657MOL0     H90613   1.495  10.165  10.506 -0.1425 -6.1699 -0.1379
  657MOL0     H90614   1.624  10.258  10.600 -0.5313  0.4575  0.3941
  657MOL0     H90615   1.826  10.069  10.675 -1.4992 -0.6301  0.0404
  657MOL0     H90616   1.986   9.777  10.462  0.1888  1.3713 -2.1417
  657MOL0     H90617   1.974   9.819  10.637 -2.2429 -2.6406 -0.6905
  657MOL0     H90618   2.101   9.998  10.426  2.1515  1.5066 -0.3875
  657MOL0     H90619   2.091  10.027  10.603  0.0426 -0.1409 -0.2850
  657MOL0     H90620   2.222   9.813  10.652  3.9593 -1.2577  0.0712
  657MOL0     H90621   2.256   9.801  10.481 -0.0256 -2.2053  1.6779
  657MOL0     H90622   2.348  10.048  10.497 -2.1383  0.0295 -0.0592
  657MOL0     H90623   2.362  10.010  10.666 -0.3334  2.0973 -0.4059
  657MOL0     H90624   2.551  10.161  10.586  0.8561  1.7484  0.9900
  657MOL0     H90625   2.806  10.247  10.737 -1.7528 -3.9851  0.3968
  657MOL0     H90626   2.684  10.319  10.631 -0.0754 -1.5525  1.0821
  657MOL0     H90627   2.854  10.297  10.575  0.1072 -1.0503 -0.6484
  657MOL0     H90628   3.142  10.235  10.907  0.8647  2.0457  0.6245
  657MOL0     H90629   3.392  10.269  10.932 -0.2791  1.5165  0.5503
  657MOL0     H90630   3.712  10.208  10.685  0.8413  0.2751  0.6210
  657MOL0     H90631   3.654  10.337  10.584  0.4128 -0.1869 -0.6848
  657MOL0     H90632   3.865  10.392  10.649 -0.2053  1.0624  0.4069
  657MOL0     H90633   3.760  10.499  10.742  1.5396  0.5511 -3.3596
  657MOL0     H90634   3.882  10.265  10.885  1.3395  1.2023  0.2700
  657MOL0     H90635   3.766  10.383  10.944 -1.3268 -1.6332 -1.6188
  657MOL0     H90636   3.913  10.562  10.921  1.1380  0.3990  1.4810
  657MOL0     H90637   4.035  10.468  10.829  0.7478  0.9941  0.8078
  657MOL0     H90638   3.944  10.385  11.105 -1.0980  2.3180 -0.5837
  657MOL0     H90639   4.076  10.322  10.993  0.6547  0.2368  0.3627
  657MOL0     H90640   4.157  10.460  11.200 -0.2682  1.7111  0.5434
  657MOL0     H90641   4.062  10.596  11.152  0.5919  0.2980  0.0077
  657MOL0     H90642   4.202  10.617  10.942  1.7368  0.5540 -0.8439
  657MOL0     H90643   4.280  10.455  10.969  1.2695  1.4101 -0.7080
  657MOL0     H90644   4.364  10.558  11.190 -0.7160 -1.0750 -0.3804
  657MOL0     H90645   4.346  10.718  11.102  2.5779  0.5535 -0.5252
  657MOL0     H90646   3.450  10.248  10.514 -1.5224 -0.1435 -0.4602
  657MOL0     H90647   3.221  10.208  10.483  3.4611 -3.7145 -0.8625
  657MOL0     H90648   2.879   9.790  10.550 -2.9847 -1.9195 -2.0613
  657MOL0     H90649   2.654   9.745  10.517 -2.4196  1.0771 -0.0403
  657MOL0     H90650   0.808   9.694  11.189  0.2937 -3.0193  0.0382
  657MOL0     H90651   0.572   9.751  11.184  0.1971  2.1584 -0.7301
  657MOL0     H90652   0.229   9.822  10.828  0.2629 -0.2836  1.0831
  657MOL0     H90653   0.003   9.854  10.746  2.6900 -2.5908 -1.9312
  657MOL0     H90654  -0.349   9.973  10.858 -1.1278 -0.2947 -0.1941
  657MOL0     H90655  -0.189   9.988  10.798 -1.5300  2.4324  1.7165
  657MOL0     H90656  -0.295   9.732  10.714  3.2887  0.5563  2.4088
  657MOL0     H90657  -0.241   9.868  10.604 -0.0276  1.0044  0.8537
  657MOL0     H90658  -0.456   9.974  10.643  0.6438 -0.4487  1.3967
  657MOL0     H90659  -0.479   9.816  10.548 -1.7646  1.1471 -0.4077
  657MOL0     H90660  -0.509   9.837  10.846  4.4800  1.6090 -2.0586
  657MOL0     H90661  -0.554   9.701  10.736  2.0671 -0.9099  1.1222
  657MOL0     H90662  -0.886   9.967  10.733 -1.0184 -1.8927  3.8296
  657MOL0     H90663  -0.137   9.666  11.112 -0.6892 -0.3821 -0.0774
  657MOL0     H90664   0.135   9.659  11.291 -0.9045  0.0355 -0.2797
  657MOL0     H90665  -0.011   9.571  11.260 -1.3663  2.5692 -2.4198
  657MOL0     H90666   0.143   9.510  11.203 -0.1774  0.2107  1.0890
  658MOL0     O90667   4.191   7.131  11.229 -0.6163 -0.2189 -0.7454
  658MOL0     C90668   4.222   7.138  11.109  0.9798 -0.1096  0.2673
  658MOL0     O90669   4.120   7.139  11.021 -0.3086  0.3196  0.0613
  658MOL0     C90670   4.000   7.185  11.061  0.8699  0.7556 -0.1303
  658MOL0     C90671   3.893   7.102  11.099  0.3585  0.0113 -0.5136
  658MOL0     C90672   3.774   7.161  11.147 -0.3124 -0.0298 -0.2612
  658MOL0     C90673   3.765   7.307  11.152 -0.1256  0.4081  0.5511
  658MOL0     O90674   3.657   7.378  11.192 -0.4947  0.0582  0.4606
  658MOL0     C90675   3.597   7.319  11.313  0.6688  0.9868 -0.6004
  658MOL0     C90676   3.459   7.397  11.344  0.4035 -0.3621  0.9375
  658MOL0     C90677   3.355   7.301  11.410  0.1017  0.1939 -0.7296
  658MOL0     C90678   3.226   7.358  11.459 -0.4482  0.0696  0.5469
  658MOL0     C90679   3.155   7.444  11.357 -0.6855 -0.9901  0.2601
  658MOL0     C90680   3.192   7.596  11.336  0.4873  0.9704 -0.2052
  658MOL0     C90681   3.107   7.673  11.255 -0.3576  0.0979 -0.3769
  658MOL0     C90682   3.180   7.806  11.200  0.3222  0.9467 -0.0088
  658MOL0     N90683   3.278   7.778  11.089  0.3949 -0.0836 -0.3082
  658MOL0     C90684   3.400   7.740  11.099 -0.0218 -0.1535  0.6066
  658MOL0     C90685   3.438   7.735  10.971  0.1078 -0.3732  0.9694
  658MOL0     C90686   3.573   7.697  10.920 -0.0033 -0.8686 -0.0144
  658MOL0     C90687   3.691   7.790  10.928 -0.3153 -0.5291 -0.1831
  658MOL0     C90688   3.676   7.902  10.821 -0.6628 -0.0880  0.4280
  658MOL0     C90689   3.804   7.981  10.799  0.0442 -0.2326 -0.3472
  658MOL0     O90690   3.902   7.892  10.737  0.5997  0.4289 -1.0486
  658MOL0     C90691   4.039   7.894  10.773  0.0728 -0.1642 -0.4028
  658MOL0     C90692   4.097   7.992  10.855  1.4731 -0.8455 -0.5496
  658MOL0     C90693   4.231   7.987  10.888 -0.3325 -0.4169  0.1790
  658MOL0     C90694   4.284   8.107  10.954 -0.0148 -0.4205 -1.1281
  658MOL0     C90695   4.315   7.879  10.846  0.5035 -0.3812  0.3831
  658MOL0     C90696   4.457   7.860  10.888  0.0100  0.3348  0.3653
  658MOL0     O90697   4.488   7.900  11.006 -0.5144 -0.0253  0.0237
  658MOL0     C90698   4.619   7.929  11.048 -0.4576  0.0501 -0.4822
  658MOL0     C90699   4.720   7.949  10.959 -0.2806  0.1743  0.0084
  658MOL0     C90700   4.847   7.996  11.011 -0.6162  0.0959  0.5778
  658MOL0     C90701   4.878   8.014  11.142  0.9039  0.6547  0.5630
  658MOL0     O90702   4.995   8.065  11.191 -0.3604  0.2422 -0.1352
  658MOL0     C90703   5.110   8.048  11.109 -0.4706  0.4010  0.0256
  658MOL0     C90704   5.242   8.086  11.197  0.1800 -0.3562  0.6150
  658MOL0     C90705   5.219   8.227  11.263  0.2166 -0.1816  0.5686
  658MOL0     C90706   5.341   8.280  11.337  0.3132 -0.0162 -0.4106
  658MOL0     C90707   5.319   8.426  11.382  0.0315  0.2801 -0.1162
  658MOL0     C90708   5.429   8.488  11.471  0.3765  0.1807 -0.2599
  658MOL0     C90709   5.394   8.629  11.515 -0.0181 -0.0472 -0.2701
  658MOL0     C90710   5.417   8.632  11.666 -0.4252 -0.1201  0.6737
  658MOL0    Cl90711   5.589   8.612  11.716  0.8478  0.0258  0.6633
  658MOL0     C90712   4.768   7.984  11.229  0.2655  0.0042 -0.8737
  658MOL0     C90713   4.647   7.939  11.181 -0.7323  0.5263 -0.2565
  658MOL0     O90714   4.527   7.788  10.816 -0.9241  0.2438 -0.3233
  658MOL0     C90715   4.250   7.777  10.774 -0.7717  0.0196  0.0932
  658MOL0     C90716   4.117   7.782  10.743  0.7555  0.2881 -0.7308
  658MOL0     N90717   3.339   7.761  10.881  0.9923  0.3837  0.4395
  658MOL0     N90718   3.239   7.792  10.958  0.5396 -0.5067  0.4864
  658MOL0     C90719   3.870   7.382  11.091  0.2868  0.4978 -0.4641
  658MOL0     C90720   3.985   7.323  11.052 -0.0988 -0.4659 -0.1187
  658MOL0     C90721   4.371   7.133  11.067  0.3992 -0.1828 -0.5088
  658MOL0     C90722   4.386   7.113  10.932 -0.6907  0.1629  0.9364
  658MOL0     C90723   4.512   7.102  10.875 -0.2365  0.0730  0.0287
  658MOL0     C90724   4.623   7.104  10.956 -0.9952 -0.2450  1.1378
  658MOL0     O90725   4.734   7.094  10.879  0.2527  0.3978  0.1756
  658MOL0     C90726   4.864   7.075  10.941  0.4723  0.1471  0.6930
  658MOL0     C90727   4.940   6.981  10.844 -0.9679  0.0458 -0.2205
  658MOL0     C90728   4.947   7.032  10.698  1.3719 -0.4392  0.2624
  658MOL0     C90729   5.019   6.933  10.608 -0.4017  0.0237  0.5670
  658MOL0     C90730   5.037   7.001  10.479 -0.2317  0.7841  0.0586
  658MOL0     C90731   5.034   7.050  10.369 -0.1665 -0.1594 -1.1046
  658MOL0     C90732   4.616   7.108  11.093 -0.9750 -0.1115  0.1797
  658MOL0     C90733   4.485   7.136  11.147  0.0109 -0.6471 -0.4290
  658MOL0     C90734   4.472   7.157  11.299  0.2768 -0.4994  0.0690
  658MOL0     H90735   3.911   6.995  11.095  0.4426  0.0213 -0.4108
  658MOL0     H90736   3.695   7.094  11.177  0.7118 -0.6370  1.1813
  658MOL0     H90737   3.655   7.328  11.405  1.9132 -2.0814 -0.9746
  658MOL0     H90738   3.582   7.211  11.298  1.8398  1.0244 -2.3516
  658MOL0     H90739   3.458   7.490  11.401 -7.9243  0.9008  0.0533
  658MOL0     H90740   3.425   7.429  11.244  0.4184 -0.5949  0.8576
  658MOL0     H90741   3.344   7.215  11.342  2.4297 -1.8335  1.2589
  658MOL0     H90742   3.404   7.263  11.500 -1.0962 -1.3958 -0.6992
  658MOL0     H90743   3.163   7.277  11.497 -0.0831 -1.3235 -1.6470
  658MOL0     H90744   3.241   7.434  11.536 -0.0541  0.9605 -0.3792
  658MOL0     H90745   3.046   7.438  11.363 -0.6537 -0.3238  1.9278
  658MOL0     H90746   3.186   7.398  11.262 -0.6614  1.8985 -1.2528
  658MOL0     H90747   3.185   7.645  11.434  1.0867 -1.4789  1.1687
  658MOL0     H90748   3.298   7.606  11.309  0.6316  2.1926  0.7235
  658MOL0     H90749   3.025   7.717  11.312 -0.4932  0.9681 -1.2092
  658MOL0     H90750   3.069   7.611  11.173  2.3874 -1.6793 -0.4175
  658MOL0     H90751   3.102   7.879  11.175  1.1903  1.6410 -0.7485
  658MOL0     H90752   3.244   7.842  11.281  0.9725 -0.3587  0.0814
  658MOL0     H90753   3.469   7.726  11.181  2.3762  1.8566 -0.9207
  658MOL0     H90754   3.564   7.664  10.816 -1.9616 -3.0561  0.7566
  658MOL0     H90755   3.599   7.603  10.969  0.0297 -2.1978 -2.4241
  658MOL0     H90756   3.704   7.848  11.020 -0.7281  1.6602 -1.4217
  658MOL0     H90757   3.786   7.737  10.913  1.7522  2.4430  1.2922
  658MOL0     H90758   3.661   7.845  10.729  0.1618  0.8670 -0.3184
  658MOL0     H90759   3.594   7.969  10.846 -2.5207 -1.6853 -1.0514
  658MOL0     H90760   3.780   8.066  10.735 -1.5845 -0.4606 -0.0900
  658MOL0     H90761   3.831   8.029  10.893 -0.4197 -1.3159  0.3598
  658MOL0     H90762   4.037   8.083  10.857 -1.2686 -2.5423  0.5450
  658MOL0     H90763   4.358   8.089  11.033  1.4482  0.9444 -2.1153
  658MOL0     H90764   4.209   8.175  10.995  0.2785  0.1391 -1.5061
  658MOL0     H90765   4.349   8.156  10.882  1.9753  0.8595  1.3508
  658MOL0     H90766   4.715   7.928  10.852 -0.0015 -0.4693  0.1138
  658MOL0     H90767   4.916   8.031  10.935  2.4718 -0.9826  2.6570
  658MOL0     H90768   5.122   7.951  11.058  0.9975 -0.5170  2.0082
  658MOL0     H90769   5.100   8.122  11.029  3.1240 -0.6048 -1.5160
  658MOL0     H90770   5.261   8.024  11.285 -0.7902 -1.5173  0.0377
  658MOL0     H90771   5.336   8.087  11.142  1.2025  0.1538  2.2923
  658MOL0     H90772   5.127   8.208  11.320 -0.8406 -1.6695 -1.4674
  658MOL0     H90773   5.192   8.303  11.189 -1.1281  1.6491  2.8163
  658MOL0     H90774   5.428   8.275  11.271 -0.8977 -1.8616 -2.0102
  658MOL0     H90775   5.343   8.220  11.428  1.4289  0.9312  0.2094
  658MOL0     H90776   5.314   8.487  11.291 -0.9447  1.6113  0.7977
  658MOL0     H90777   5.221   8.424  11.431 -0.0932  0.2035 -0.3650
  658MOL0     H90778   5.523   8.485  11.414  1.5497  3.2662  1.2670
  658MOL0     H90779   5.442   8.417  11.553  0.7228 -1.8252 -1.9552
  658MOL0     H90780   5.290   8.652  11.493 -0.1277  0.8840  1.0972
  658MOL0     H90781   5.448   8.702  11.454 -0.0205  0.5158  0.3918
  658MOL0     H90782   5.359   8.565  11.731  0.1442 -0.1107  1.2046
  658MOL0     H90783   5.377   8.732  11.690 -0.5095 -0.2624  1.1520
  658MOL0     H90784   4.776   8.004  11.336  1.7441 -1.2924 -0.7162
  658MOL0     H90785   4.560   7.930  11.246 -0.3966  1.2088  0.2985
  658MOL0     H90786   4.307   7.689  10.747  2.2322  1.5484  1.0460
  658MOL0     H90787   4.080   7.706  10.676  1.5500 -2.1234  1.4321
  658MOL0     H90788   3.857   7.489  11.084  2.7162  0.8316 -0.7756
  658MOL0     H90789   4.069   7.377  11.009  0.0834 -3.1225 -3.5349
  658MOL0     H90790   4.308   7.088  10.860 -1.9936  0.5601  2.1613
  658MOL0     H90791   4.512   7.103  10.767 -2.3836 -1.3616 -0.0511
  658MOL0     H90792   4.911   7.170  10.966 -0.5784  0.5942  1.0449
  658MOL0     H90793   4.841   7.018  11.032  0.2361 -2.3720 -0.8433
  658MOL0     H90794   4.896   6.882  10.832  0.7334 -0.4232 -4.2289
  658MOL0     H90795   5.041   6.964  10.881 -0.0293  2.1388 -1.6059
  658MOL0     H90796   4.844   7.036  10.662  1.0834  0.6517  1.1260
  658MOL0     H90797   4.992   7.129  10.675  1.2349 -1.1984 -4.0806
  658MOL0     H90798   4.965   6.839  10.600  2.9561 -2.3418  2.8044
  658MOL0     H90799   5.115   6.906  10.654  0.5094 -1.4794 -2.0232
  658MOL0     H90800   5.060   7.097  10.276 -1.1080  1.1409 -0.7362
  658MOL0     H90801   4.705   7.108  11.155 -0.5029 -1.5882 -0.4508
  658MOL0     H90802   4.408   7.074  11.332  0.4582 -1.1442 -1.1332
  658MOL0     H90803   4.572   7.154  11.344  0.7586  1.1919 -0.8211
  658MOL0     H90804   4.424   7.251  11.326 -0.2720 -0.1693 -1.8969
  659MOL0     O90805   7.402   7.022   0.953  0.0820 -0.1759  0.2395
  659MOL0     C90806   7.355   7.086   1.046 -0.0637 -0.2495  1.0004
  659MOL0     O90807   7.426   7.141   1.145 -0.4302 -0.4616  0.2892
  659MOL0     C90808   7.559   7.102   1.159  0.6608 -0.3025 -0.6773
  659MOL0     C90809   7.591   6.967   1.163 -0.5075 -0.3018 -0.5378
  659MOL0     C90810   7.718   6.924   1.181  0.0165  0.0638  0.4829
  659MOL0     C90811   7.816   7.014   1.212  0.0445  0.6010  0.0285
  659MOL0     O90812   7.932   6.947   1.244  0.2654 -0.0422  0.6804
  659MOL0     C90813   8.035   7.011   1.314  0.2216 -0.1148  0.4759
  659MOL0     C90814   8.155   7.040   1.229 -0.2086 -0.3443 -0.5122
  659MOL0     C90815   8.215   7.184   1.247  0.2399  0.2071 -1.0659
  659MOL0     C90816   8.256   7.213   1.392 -0.0753  0.0431 -0.3843
  659MOL0     C90817   8.372   7.113   1.435 -0.5140 -0.6855  0.3255
  659MOL0     C90818   8.466   7.184   1.531 -0.2767  0.3904  0.0385
  659MOL0     C90819   8.577   7.082   1.577 -0.3474 -0.3027  0.7911
  659MOL0     C90820   8.671   7.147   1.680  0.0151  0.3892 -0.0323
  659MOL0     N90821   8.791   7.077   1.705 -0.9553 -0.3709  0.2772
  659MOL0     C90822   8.895   7.056   1.610  0.3324  0.6906  0.6861
  659MOL0     C90823   8.982   6.967   1.675  0.2518 -0.9500  0.6762
  659MOL0     C90824   9.118   6.930   1.625  0.1740  0.4490 -0.5918
  659MOL0     C90825   9.239   6.994   1.710 -0.9462  0.5961 -0.2543
  659MOL0     C90826   9.233   7.141   1.741 -0.6537  0.2198  0.8046
  659MOL0     C90827   9.321   7.172   1.865  0.4618  0.2984 -0.1959
  659MOL0     O90828   9.445   7.121   1.830  0.0422  0.1955  0.0005
  659MOL0     C90829   9.566   7.167   1.873  0.0715  0.1186 -0.2278
  659MOL0     C90830   9.584   7.283   1.957  0.5368 -0.6723 -0.0632
  659MOL0     C90831   9.718   7.321   2.001 -0.7387  0.5595  0.0275
  659MOL0     C90832   9.717   7.441   2.100 -0.2416 -0.1887  0.3852
  659MOL0     C90833   9.835   7.258   1.943 -0.1655 -0.1113 -0.0712
  659MOL0     C90834   9.975   7.290   1.981 -0.1499 -0.1029 -0.1620
  659MOL0     O90835  10.073   7.245   1.901 -0.3366  0.4832 -0.2619
  659MOL0     C90836  10.207   7.263   1.905 -0.4841 -1.0983 -0.8686
  659MOL0     C90837  10.280   7.176   1.830 -0.1402 -0.2551 -0.7571
  659MOL0     C90838  10.417   7.193   1.814 -0.2326 -0.2109  0.3296
  659MOL0     C90839  10.492   7.304   1.869  0.3237  0.3925  0.2264
  659MOL0     O90840  10.622   7.315   1.824  0.2979 -0.8052  0.8593
  659MOL0     C90841  10.723   7.367   1.916  0.0889  0.1788 -0.1057
  659MOL0     C90842  10.838   7.433   1.835 -0.0004 -0.0523 -0.4355
  659MOL0     C90843  10.944   7.499   1.932  0.3139 -0.4824 -0.2980
  659MOL0     C90844  11.066   7.559   1.859 -0.3319 -0.0477 -0.8933
  659MOL0     C90845  11.178   7.593   1.958  0.0043 -0.3392 -0.4260
  659MOL0     C90846  11.115   7.684   2.071 -0.6377 -0.6217 -0.3425
  659MOL0     C90847  11.250   7.747   2.134  0.3613 -0.1769  0.3879
  659MOL0     C90848  11.245   7.824   2.263  0.0918 -0.2538  0.7889
  659MOL0    Cl90849  11.114   7.772   2.370  0.3369 -0.0050 -0.3156
  659MOL0     C90850  10.420   7.384   1.964 -0.0535 -1.1715  0.9703
  659MOL0     C90851  10.274   7.361   1.979  0.3909 -0.1947  0.8304
  659MOL0     O90852   9.986   7.355   2.085 -0.6030 -0.4173  0.4117
  659MOL0     C90853   9.810   7.157   1.852  1.0512  0.1912  0.2400
  659MOL0     C90854   9.679   7.113   1.817 -0.4652 -0.8849 -0.2313
  659MOL0     N90855   8.930   6.941   1.796  0.5309 -0.3254 -1.5039
  659MOL0     N90856   8.820   7.004   1.815  0.5448  0.5187  0.2827
  659MOL0     C90857   7.788   7.148   1.218 -0.3667 -0.5456 -0.0990
  659MOL0     C90858   7.663   7.195   1.187  0.4593 -0.2689  0.3054
  659MOL0     C90859   7.209   7.106   1.043 -0.2853  0.1571 -0.9981
  659MOL0     C90860   7.170   7.246   1.036 -0.6134  0.4475 -0.1916
  659MOL0     C90861   7.035   7.278   1.013  0.2955 -0.5330 -0.4296
  659MOL0     C90862   6.934   7.178   1.010 -0.4055  0.2301 -0.8472
  659MOL0     O90863   6.801   7.207   1.004  0.3239 -0.1914 -0.6128
  659MOL0     C90864   6.750   7.339   0.961 -0.2325  0.8263  0.6688
  659MOL0     C90865   6.602   7.341   0.968  0.5762  0.3849  0.1265
  659MOL0     C90866   6.527   7.242   0.871 -0.1305 -1.7526 -0.0793
  659MOL0     C90867   6.379   7.265   0.874  0.3387 -0.2430  0.5004
  659MOL0     C90868   6.315   7.253   1.005  0.0006  0.0915  0.3141
  659MOL0     C90869   6.264   7.245   1.115 -0.2092  0.0112 -0.3213
  659MOL0     C90870   6.971   7.043   1.005 -0.6248 -0.5941  0.8246
  659MOL0     C90871   7.109   7.001   1.010  0.1999 -0.8125  0.2954
  659MOL0     C90872   7.141   6.860   0.997 -0.8585 -0.0709  0.5339
  659MOL0     H90873   7.515   6.892   1.145 -1.5364  0.6164 -0.0672
  659MOL0     H90874   7.740   6.818   1.173 -1.4844 -0.1178 -2.6596
  659MOL0     H90875   8.072   6.944   1.392 -1.6584 -1.0324  0.6473
  659MOL0     H90876   8.004   7.106   1.359  2.3051 -0.7341  3.5515
  659MOL0     H90877   8.223   6.956   1.242 -1.7709 -1.7126 -0.9066
  659MOL0     H90878   8.117   7.039   1.126 -2.3793 -1.7397  0.2458
  659MOL0     H90879   8.296   7.205   1.176  0.6941  1.1288 -0.2869
  659MOL0     H90880   8.136   7.254   1.216  0.5415  0.8828 -0.3314
  659MOL0     H90881   8.295   7.314   1.409  0.4832 -0.7647  4.7014
  659MOL0     H90882   8.171   7.211   1.460  0.3440  4.0456  0.5240
  659MOL0     H90883   8.431   7.082   1.348  1.2266  2.2110  0.3335
  659MOL0     H90884   8.330   7.024   1.483 -0.5026  0.0007  1.6300
  659MOL0     H90885   8.519   7.270   1.487  0.5695 -0.5386 -0.7979
  659MOL0     H90886   8.401   7.221   1.610 -1.7148  1.0720 -1.4020
  659MOL0     H90887   8.639   7.045   1.496 -0.9439 -1.6036  0.8841
  659MOL0     H90888   8.534   6.991   1.620 -0.1194  0.0534  1.8074
  659MOL0     H90889   8.692   7.244   1.635  0.7211  0.1858 -0.1466
  659MOL0     H90890   8.631   7.160   1.781  1.9546  0.7906  0.7333
  659MOL0     H90891   8.900   7.096   1.509 -1.3371  1.0017  0.6980
  659MOL0     H90892   9.130   6.965   1.522  0.7212  1.1304 -0.3065
  659MOL0     H90893   9.126   6.821   1.625 -2.3480  0.0925  3.2102
  659MOL0     H90894   9.235   6.943   1.807 -0.6919  0.4610 -0.3121
  659MOL0     H90895   9.334   6.971   1.660 -0.5451  1.8315 -0.0884
  659MOL0     H90896   9.266   7.209   1.661 -1.3961  0.0859  0.3690
  659MOL0     H90897   9.128   7.170   1.756 -1.3325 -1.2687 -0.6922
  659MOL0     H90898   9.322   7.281   1.877  3.2572  0.5975 -2.1245
  659MOL0     H90899   9.276   7.127   1.953 -0.9344  0.1537 -0.9656
  659MOL0     H90900   9.501   7.339   1.998 -0.3388 -0.9047 -1.4651
  659MOL0     H90901   9.787   7.516   2.061 -0.0387  0.1910  1.4252
  659MOL0     H90902   9.756   7.413   2.199  0.0050 -0.3866  0.2335
  659MOL0     H90903   9.616   7.480   2.113 -0.1726  0.2437 -0.3150
  659MOL0     H90904  10.226   7.094   1.784 -3.3619  1.7840 -0.9589
  659MOL0     H90905  10.474   7.133   1.744  2.2798 -0.9575  2.8192
  659MOL0     H90906  10.685   7.444   1.984  0.1406  1.0854 -1.0681
  659MOL0     H90907  10.763   7.282   1.971 -2.5658 -1.0636  0.0488
  659MOL0     H90908  10.882   7.351   1.778  1.8750 -0.0790  0.9641
  659MOL0     H90909  10.796   7.505   1.764 -2.0219 -2.4105 -1.7796
  659MOL0     H90910  10.986   7.438   2.011  1.4855 -0.0745 -0.5836
  659MOL0     H90911  10.886   7.577   1.983  1.4680  2.0766 -2.5799
  659MOL0     H90912  11.030   7.649   1.809 -3.3790 -1.1472 -0.8804
  659MOL0     H90913  11.112   7.490   1.789 -3.1788 -1.4733 -1.5043
  659MOL0     H90914  11.219   7.506   2.010  0.1087 -0.8925 -1.4127
  659MOL0     H90915  11.257   7.646   1.905 -0.4995 -0.8186 -1.6801
  659MOL0     H90916  11.055   7.634   2.147  0.2933 -0.6865  0.3784
  659MOL0     H90917  11.063   7.764   2.018 -0.7358 -1.2396 -1.1956
  659MOL0     H90918  11.290   7.823   2.066 -0.4967 -1.0845 -1.2053
  659MOL0     H90919  11.316   7.662   2.149  0.9262 -0.4026 -2.6313
  659MOL0     H90920  11.246   7.931   2.243 -0.8468 -0.1777  1.0726
  659MOL0     H90921  11.345   7.807   2.303  1.3899  0.4167 -1.9447
  659MOL0     H90922  10.460   7.475   2.007 -0.5727 -0.3503 -0.2187
  659MOL0     H90923  10.209   7.417   2.046 -0.9196 -2.9983  2.0692
  659MOL0     H90924   9.893   7.106   1.804  1.5852  0.2743  1.0729
  659MOL0     H90925   9.664   7.033   1.745  1.5327 -2.4850  1.0061
  659MOL0     H90926   7.867   7.218   1.245 -1.1445  0.3655 -0.1404
  659MOL0     H90927   7.645   7.302   1.192  0.1796 -0.3653  1.4961
  659MOL0     H90928   7.240   7.321   1.072 -3.0411  1.2477  3.3512
  659MOL0     H90929   7.009   7.383   1.005 -1.7957 -1.0764 -1.5551
  659MOL0     H90930   6.792   7.416   1.027  0.6139 -0.1872  1.3295
  659MOL0     H90931   6.785   7.363   0.860 -1.3887 -2.7457 -0.7372
  659MOL0     H90932   6.570   7.438   0.929  0.1891  0.0093 -0.4969
  659MOL0     H90933   6.581   7.322   1.074  5.0313  1.5857  1.4596
  659MOL0     H90934   6.550   7.263   0.766  0.2779 -1.0898  0.1399
  659MOL0     H90935   6.547   7.140   0.905 -0.9246 -1.1969  2.1663
  659MOL0     H90936   6.332   7.191   0.808  1.2041 -0.2489 -0.1286
  659MOL0     H90937   6.358   7.364   0.834 -3.8564 -1.6381 -1.3216
  659MOL0     H90938   6.210   7.245   1.207 -0.0039  1.0000 -0.1943
  659MOL0     H90939   6.887   6.975   0.996 -0.3873 -0.8411  0.4528
  659MOL0     H90940   7.242   6.845   1.036  1.0084  0.4376 -3.5565
  659MOL0     H90941   7.068   6.797   1.049 -1.8140  0.3185 -0.2989
  659MOL0     H90942   7.144   6.843   0.889  1.1985  0.3600  0.4786
  660MOL0     O90943   8.421  10.319   9.566 -0.4781 -0.2704  0.0956
  660MOL0     C90944   8.433  10.442   9.562 -0.1420 -0.8037  0.1557
  660MOL0     O90945   8.546  10.516   9.597 -0.6119  0.0709  0.2722
  660MOL0     C90946   8.659  10.444   9.637  0.1802  0.6771  1.1462
  660MOL0     C90947   8.659  10.367   9.760  0.0384  0.0706  1.1436
  660MOL0     C90948   8.770  10.298   9.799  0.4263 -1.0205  0.5065
  660MOL0     C90949   8.887  10.326   9.731 -0.2110  0.5655  0.5595
  660MOL0     O90950   9.002  10.275   9.777 -0.0421  0.5633  0.3066
  660MOL0     C90951   9.001  10.139   9.831 -0.5496 -0.0936 -0.3595
  660MOL0     C90952   9.132  10.068   9.794 -0.5945 -0.0978  0.1945
  660MOL0     C90953   9.154   9.931   9.856  1.1899 -0.1278 -0.3286
  660MOL0     C90954   9.044   9.823   9.834 -0.7229 -0.5274  0.0369
  660MOL0     C90955   9.088   9.707   9.928 -0.2580  1.5538  0.3406
  660MOL0     C90956   8.969   9.608   9.926 -0.2823 -1.1821 -0.4816
  660MOL0     C90957   8.989   9.475  10.003 -0.6838 -0.0791  0.5920
  660MOL0     C90958   8.985   9.491  10.154 -0.3215 -0.1752 -0.4487
  660MOL0     N90959   9.121   9.465  10.224 -0.0023  0.1184  0.3473
  660MOL0     C90960   9.124   9.409  10.354  0.7318 -1.7360 -0.1370
  660MOL0     C90961   9.258   9.401  10.380  0.6343  0.1126 -0.2800
  660MOL0     C90962   9.316   9.347  10.508 -1.2077 -0.8710 -0.3258
  660MOL0     C90963   9.364   9.200  10.475  0.1407 -1.1020  0.4144
  660MOL0     C90964   9.508   9.195  10.444 -0.4134  0.0934 -0.1341
  660MOL0     C90965   9.607   9.215  10.561 -0.6077  0.4797 -0.1316
  660MOL0     O90966   9.648   9.092  10.615  0.1898  0.1865 -0.2207
  660MOL0     C90967   9.760   9.031  10.568 -0.2226  0.2040  0.5706
  660MOL0     C90968   9.826   8.939  10.651 -0.1444  0.4967 -1.1460
  660MOL0     C90969   9.940   8.875  10.616  0.4037  0.2944 -0.1517
  660MOL0     C90970  10.005   8.781  10.718  0.0373 -0.2997 -0.5548
  660MOL0     C90971   9.992   8.916  10.486 -0.3543  0.3657  0.0364
  660MOL0     C90972  10.107   8.840  10.429 -0.7153  0.0779 -0.2573
  660MOL0     O90973  10.237   8.871  10.461 -0.0260 -0.0443  0.0506
  660MOL0     C90974  10.336   8.805  10.396  0.4431  0.0639  0.6574
  660MOL0     C90975  10.387   8.855  10.277  0.9419 -0.6071 -0.6238
  660MOL0     C90976  10.501   8.804  10.221 -0.1383  1.1484  0.9709
  660MOL0     C90977  10.563   8.690  10.285  0.1020  0.3764  0.7146
  660MOL0     O90978  10.686   8.641  10.231 -0.4808 -0.1979 -0.1806
  660MOL0     C90979  10.788   8.596  10.320  0.3906  0.0940  0.6983
  660MOL0     C90980  10.825   8.707  10.424  0.0002 -0.2269  0.3777
  660MOL0     C90981  10.842   8.849  10.360  0.4119 -0.2019  0.8374
  660MOL0     C90982  10.835   8.962  10.467  0.1196 -0.3280 -0.0016
  660MOL0     C90983  10.966   8.964  10.540  0.9128 -0.4796  0.0103
  660MOL0     C90984  11.019   9.091  10.611 -0.3934 -0.0327 -0.9977
  660MOL0     C90985  11.160   9.073  10.673  0.8154 -0.8034  0.7092
  660MOL0     C90986  11.270   9.097  10.560  0.1021  0.1430  0.4125
  660MOL0    Cl90987  11.314   8.955  10.460 -0.1102  0.1527 -0.1366
  660MOL0     C90988  10.508   8.637  10.403  0.1643  0.2389  1.1017
  660MOL0     C90989  10.396   8.693  10.455 -0.1662  0.0813 -0.2638
  660MOL0     O90990  10.071   8.764  10.342 -0.0493  0.6415  0.4755
  660MOL0     C90991   9.929   9.003  10.402  0.0645  0.1132 -0.3258
  660MOL0     C90992   9.816   9.063  10.441  0.2478 -0.2773 -0.9217
  660MOL0     N90993   9.327   9.444  10.261 -0.4890 -0.3646 -0.1867
  660MOL0     N90994   9.244   9.488  10.170 -0.0304  0.0855 -0.4740
  660MOL0     C90995   8.888  10.404   9.614  0.0221 -0.1081  0.1846
  660MOL0     C90996   8.774  10.465   9.566 -0.4274  0.7626  0.6510
  660MOL0     C90997   8.310  10.522   9.537 -1.7262  0.8500  0.4150
  660MOL0     C90998   8.310  10.640   9.599 -0.1482 -0.2019 -0.4828
  660MOL0     C90999   8.207  10.735   9.570  0.2087  0.1846  0.2664
  660MOL0     C91000   8.107  10.706   9.479  0.4771  0.9960  0.0335
  660MOL0     O91001   8.019  10.808   9.454 -0.2809  0.9109  0.3417
  660MOL0     C91002   7.918  10.791   9.355 -0.6120 -0.6083 -0.9870
  660MOL0     C91003   7.819  10.682   9.388  0.3608  0.7571  0.4276
  660MOL0     C91004   7.696  10.733   9.480  0.3367 -0.2078  0.4731
  660MOL0     C91005   7.591  10.628   9.496  0.3874  0.2572  0.5694
  660MOL0     C91006   7.539  10.593   9.364 -0.1223 -0.3381  0.1470
  660MOL0     C91007   7.492  10.578   9.251  0.2638  0.1238 -0.1043
  660MOL0     C91008   8.114  10.583   9.409 -0.0699  0.1821 -0.3747
  660MOL0     C91009   8.217  10.492   9.432 -0.3747  0.4446 -0.4351
  660MOL0     C91010   8.236  10.374   9.336 -0.2873 -0.8990 -0.1815
  660MOL0     H91011   8.571  10.370   9.824 -0.6642 -0.4708  0.2135
  660MOL0     H91012   8.778  10.223   9.877  1.0005  0.7209  2.1910
  660MOL0     H91013   8.920  10.078   9.789 -1.1330 -0.6319  1.4628
  660MOL0     H91014   8.991  10.141   9.940  0.8094 -2.2538 -0.1343
  660MOL0     H91015   9.120  10.036   9.690  0.8586 -3.0131  0.8051
  660MOL0     H91016   9.223  10.127   9.811  0.8995 -2.7981  2.5673
  660MOL0     H91017   9.251   9.889   9.828  1.1251 -1.9908  1.9436
  660MOL0     H91018   9.167   9.953   9.962 -0.0818 -0.1458 -0.1522
  660MOL0     H91019   8.945   9.853   9.869 -0.3002  0.6923  0.2289
  660MOL0     H91020   9.035   9.795   9.729  0.3787  1.4937 -0.6337
  660MOL0     H91021   9.111   9.748  10.027 -0.8343  0.2339  1.0647
  660MOL0     H91022   9.184   9.666   9.896 -0.1880  2.4835 -0.6531
  660MOL0     H91023   8.883   9.662   9.967 -0.9635 -2.9325  0.4809
  660MOL0     H91024   8.953   9.579   9.822 -1.4707 -0.8403 -0.4054
  660MOL0     H91025   9.083   9.434   9.964 -0.8763  0.3319 -0.3173
  660MOL0     H91026   8.911   9.406   9.969  3.1997 -4.6948 -0.0310
  660MOL0     H91027   8.955   9.593  10.179 -1.5740 -0.3396 -1.1657
  660MOL0     H91028   8.904   9.427  10.190 -1.3510  0.2456 -1.9414
  660MOL0     H91029   9.048   9.387  10.428 -0.1364  2.9965  0.7227
  660MOL0     H91030   9.242   9.342  10.588 -1.3237  0.4345 -0.3317
  660MOL0     H91031   9.392   9.414  10.549 -1.4696 -1.6017  1.3959
  660MOL0     H91032   9.347   9.135  10.561 -1.3611  0.4171  1.3343
  660MOL0     H91033   9.310   9.164  10.387  2.5147 -0.4970 -1.3820
  660MOL0     H91034   9.508   9.094  10.403 -1.7750  0.4791 -1.1666
  660MOL0     H91035   9.527   9.270  10.367 -1.8494  0.7216  0.0810
  660MOL0     H91036   9.681   9.291  10.534 -2.7713  2.4920 -0.8114
  660MOL0     H91037   9.559   9.265  10.646  3.1065  4.5174 -0.0679
  660MOL0     H91038   9.774   8.919  10.744  2.7940 -3.0858 -0.0367
  660MOL0     H91039   9.994   8.674  10.697 -2.4534 -0.1379 -0.4573
  660MOL0     H91040   9.973   8.805  10.820  1.6247 -0.6583  0.0495
  660MOL0     H91041  10.110   8.807  10.733 -0.0893  0.4467 -0.9231
  660MOL0     H91042  10.345   8.944  10.232  1.2652 -0.7977 -1.3144
  660MOL0     H91043  10.519   8.839  10.120  0.0152 -3.3051 -0.7715
  660MOL0     H91044  10.747   8.506  10.366 -2.5594  2.5704  3.3697
  660MOL0     H91045  10.876   8.564  10.262  0.2118  0.9485 -0.0778
  660MOL0     H91046  10.751   8.709  10.504 -0.1767 -0.9249  0.2419
  660MOL0     H91047  10.920   8.675  10.467  0.6651  1.0021 -0.1180
  660MOL0     H91048  10.759   8.866  10.290  0.8418  2.9821  0.9792
  660MOL0     H91049  10.930   8.855  10.294  0.5047 -0.0814  0.9728
  660MOL0     H91050  10.754   8.948  10.539  0.6563  1.6588  1.1005
  660MOL0     H91051  10.826   9.058  10.415 -2.1038 -1.0013 -0.9591
  660MOL0     H91052  10.965   8.881  10.611  0.1635  0.2490  0.8581
  660MOL0     H91053  11.046   8.949  10.466  2.7173  2.6789  1.1226
  660MOL0     H91054  10.944   9.116  10.687 -0.1898  0.9958 -1.1147
  660MOL0     H91055  11.023   9.180  10.548  1.4103  0.0155 -0.8806
  660MOL0     H91056  11.191   8.982  10.725  3.2421  1.2086  3.0269
  660MOL0     H91057  11.167   9.158  10.741 -2.2874 -0.5456  0.8503
  660MOL0     H91058  11.363   9.127  10.610  1.7739  0.7726 -2.7690
  660MOL0     H91059  11.255   9.192  10.508  0.4548  0.1722  0.3605
  660MOL0     H91060  10.542   8.541  10.440  3.8643  0.9365 -0.1079
  660MOL0     H91061  10.367   8.647  10.549 -2.4283 -1.1705 -1.4706
  660MOL0     H91062   9.979   9.031  10.310  3.0480  2.4216  1.7655
  660MOL0     H91063   9.764   9.133  10.376  0.3136  0.1182 -0.5558
  660MOL0     H91064   8.981  10.413   9.559 -1.4661  0.5671 -2.4194
  660MOL0     H91065   8.770  10.529   9.479 -0.1663 -0.3933 -0.2334
  660MOL0     H91066   8.379  10.662   9.680 -1.1574 -2.5412  1.1303
  660MOL0     H91067   8.208  10.821   9.637  2.3789  1.3629 -1.1548
  660MOL0     H91068   7.873  10.889   9.338 -2.2424 -0.6603  2.2640
  660MOL0     H91069   7.975  10.761   9.267  0.7085  1.9285 -1.0805
  660MOL0     H91070   7.870  10.595   9.431  2.1955  0.2564 -2.4703
  660MOL0     H91071   7.781  10.640   9.294 -2.6306 -1.6615  2.4893
  660MOL0     H91072   7.744  10.752   9.576 -0.7077 -1.6021  1.3032
  660MOL0     H91073   7.654  10.819   9.426  0.1810 -1.3216 -1.2853
  660MOL0     H91074   7.505  10.669   9.550  1.5401  0.1816  2.5120
  660MOL0     H91075   7.628  10.534   9.539  0.9385 -0.9358 -2.2475
  660MOL0     H91076   7.456  10.551   9.153 -0.8986  3.1987 -0.6415
  660MOL0     H91077   8.045  10.573   9.326  1.3726  1.4351 -1.8004
  660MOL0     H91078   8.211  10.415   9.237 -0.1481  2.2806  0.9838
  660MOL0     H91079   8.339  10.338   9.332 -0.2355 -0.8573  0.6688
  660MOL0     H91080   8.177  10.287   9.366 -1.0058  0.1580  1.6173
  661MOL0     O91081   9.070   1.828   5.040  0.0466  0.3149 -0.1130
  661MOL0     C91082   9.102   1.917   4.960  0.2062  0.1666 -0.2566
  661MOL0     O91083   9.178   2.025   4.985 -0.8086  0.6559  0.0517
  661MOL0     C91084   9.232   2.044   5.115 -0.0035 -0.4226 -0.5854
  661MOL0     C91085   9.159   2.021   5.235  1.1151  0.0793  0.0073
  661MOL0     C91086   9.212   2.042   5.362 -0.8077 -0.1262  1.0686
  661MOL0     C91087   9.348   2.076   5.367 -0.0580  0.3252 -0.1905
  661MOL0     O91088   9.401   2.108   5.489 -0.4470 -0.0562  0.3039
  661MOL0     C91089   9.501   2.009   5.540 -0.3570 -0.5906  0.9380
  661MOL0     C91090   9.485   1.992   5.689 -0.5717  0.3339  0.3886
  661MOL0     C91091   9.543   2.100   5.778  0.4788  0.6148  0.2027
  661MOL0     C91092   9.688   2.086   5.828  0.0551 -0.1509 -0.8626
  661MOL0     C91093   9.715   2.185   5.946 -0.1822  0.5142  0.0238
  661MOL0     C91094   9.841   2.152   6.018 -0.2314  0.0503 -0.4606
  661MOL0     C91095   9.858   2.244   6.141 -0.4784  0.4570 -0.1611
  661MOL0     C91096   9.925   2.171   6.252 -0.2432 -0.1231 -0.0828
  661MOL0     N91097   9.995   2.248   6.356  0.4998  0.2370  0.4911
  661MOL0     C91098  10.134   2.246   6.362  0.1413  0.1019 -0.7080
  661MOL0     C91099  10.160   2.338   6.460  0.0251 -0.0703  0.2624
  661MOL0     C91100  10.301   2.365   6.520  0.5220  0.5682 -0.0866
  661MOL0     C91101  10.406   2.322   6.427 -1.0644  0.7054 -0.4857
  661MOL0     C91102  10.537   2.345   6.498 -0.5508  0.7504 -0.2846
  661MOL0     C91103  10.660   2.298   6.421  0.7059  0.2801 -0.2021
  661MOL0     O91104  10.765   2.335   6.503 -0.0254 -0.7722  0.6017
  661MOL0     C91105  10.891   2.288   6.458  0.2293 -0.4836  0.2208
  661MOL0     C91106  10.974   2.270   6.568  0.8485 -0.4844  0.4485
  661MOL0     C91107  11.108   2.228   6.556 -0.0140  0.0702  0.1485
  661MOL0     C91108  11.168   2.177   6.681  0.1466 -0.2094  0.4486
  661MOL0     C91109  11.157   2.234   6.425  0.2174  0.4357  0.9178
  661MOL0     C91110  11.295   2.197   6.392 -0.1797 -0.5264  0.4022
  661MOL0     O91111  11.310   2.152   6.266  0.8725 -0.0413  0.4594
  661MOL0     C91112  11.435   2.148   6.207  0.2807 -0.0770 -0.2956
  661MOL0     C91113  11.454   2.211   6.089 -0.3589 -0.4648 -0.0001
  661MOL0     C91114  11.579   2.238   6.039  0.5187 -0.1304 -0.4000
  661MOL0     C91115  11.691   2.195   6.100 -0.2751  0.4478 -0.4120
  661MOL0     O91116  11.805   2.195   6.022 -0.3738  0.0542 -0.7476
  661MOL0     C91117  11.910   2.106   6.053  0.0148 -0.3036  0.4579
  661MOL0     C91118  12.033   2.132   5.974  0.3571  0.6978  1.0507
  661MOL0     C91119  12.054   2.285   5.929  0.6444  0.1509 -0.7325
  661MOL0     C91120  12.190   2.301   5.860  0.3734 -0.8025 -0.3384
  661MOL0     C91121  12.195   2.440   5.793 -0.3786 -0.4423  1.0702
  661MOL0     C91122  12.304   2.450   5.685  0.1982 -0.0078 -0.2486
  661MOL0     C91123  12.312   2.579   5.607 -0.4399 -0.0071  1.0222
  661MOL0     C91124  12.419   2.558   5.492 -0.3822  0.3315 -0.5728
  661MOL0    Cl91125  12.342   2.467   5.346 -0.2238  0.2622 -0.0508
  661MOL0     C91126  11.673   2.120   6.220 -0.1681 -1.5709 -0.4313
  661MOL0     C91127  11.548   2.095   6.275  0.3319  0.2535  0.1816
  661MOL0     O91128  11.387   2.224   6.468  0.0481 -0.1233  0.3743
  661MOL0     C91129  11.074   2.264   6.310  0.0831 -0.7638 -0.5598
  661MOL0     C91130  10.944   2.293   6.325 -0.1399  0.3597 -0.6524
  661MOL0     N91131  10.047   2.380   6.518  0.0787  0.2739  0.2664
  661MOL0     N91132   9.947   2.329   6.459  0.1251  0.5966  0.8609
  661MOL0     C91133   9.417   2.116   5.251  0.1976  0.4650 -0.6606
  661MOL0     C91134   9.359   2.097   5.124 -0.7133  0.3928  0.2144
  661MOL0     C91135   9.029   1.907   4.824 -0.2079  0.0391 -1.2115
  661MOL0     C91136   9.001   2.032   4.763 -0.0467 -0.1383 -0.6000
  661MOL0     C91137   8.934   2.024   4.634 -0.1888  0.5022 -0.0341
  661MOL0     C91138   8.888   1.904   4.582  0.3341  0.8092  0.2554
  661MOL0     O91139   8.809   1.902   4.470  0.0805 -0.4870 -0.0842
  661MOL0     C91140   8.732   2.025   4.430 -0.8920 -0.4524 -0.3225
  661MOL0     C91141   8.628   1.978   4.316  0.2810 -0.5282 -0.8314
  661MOL0     C91142   8.584   2.092   4.225  0.3800 -0.1285  0.0812
  661MOL0     C91143   8.459   2.058   4.147 -0.2614 -0.0905  0.2194
  661MOL0     C91144   8.449   2.130   4.018  0.4423  0.9443  0.1016
  661MOL0     C91145   8.453   2.183   3.910  0.9383 -0.5222  0.7431
  661MOL0     C91146   8.927   1.782   4.644  0.2200 -0.0415  0.7419
  661MOL0     C91147   9.005   1.783   4.760  0.2300 -0.1710 -0.2055
  661MOL0     C91148   9.047   1.649   4.815  0.2123  0.3431  0.2684
  661MOL0     H91149   9.066   1.965   5.240  1.0852  0.2304  1.7533
  661MOL0     H91150   9.174   2.006   5.457  1.4500 -5.2370  0.3790
  661MOL0     H91151   9.603   2.037   5.511 -0.7529 -0.6462 -0.5861
  661MOL0     H91152   9.485   1.913   5.489  1.2352  0.3393 -1.5307
  661MOL0     H91153   9.377   2.000   5.705 -0.7976 -0.8200 -0.4789
  661MOL0     H91154   9.520   1.890   5.707  0.7456  0.8912  1.0890
  661MOL0     H91155   9.549   2.194   5.722  0.2317 -0.0343 -0.9496
  661MOL0     H91156   9.487   2.121   5.869  1.6872 -1.9125  1.6151
  661MOL0     H91157   9.707   1.989   5.876 -0.7415 -0.0352 -0.2863
  661MOL0     H91158   9.765   2.095   5.752  0.7714  1.1702 -0.0204
  661MOL0     H91159   9.634   2.166   6.016 -1.4062  1.7932 -0.9893
  661MOL0     H91160   9.734   2.289   5.916  1.0251  0.4266  0.4182
  661MOL0     H91161   9.831   2.045   6.039 -0.5276 -0.0728 -1.2054
  661MOL0     H91162   9.935   2.157   5.962  0.2927  0.3862  0.4324
  661MOL0     H91163   9.756   2.273   6.169 -1.3197 -1.8802 -0.6268
  661MOL0     H91164   9.920   2.332   6.118  0.0338  1.6100  4.5683
  661MOL0     H91165   9.849   2.101   6.288 -0.7892  0.0373 -0.8824
  661MOL0     H91166   9.995   2.105   6.201 -1.9158 -0.8987 -1.4706
  661MOL0     H91167  10.203   2.198   6.294  0.0852 -0.2825 -0.4921
  661MOL0     H91168  10.303   2.299   6.607  3.0655 -0.4022 -0.8008
  661MOL0     H91169  10.302   2.472   6.546 -0.6898  1.3266 -2.8145
  661MOL0     H91170  10.403   2.217   6.395  3.5907 -0.7019  2.6619
  661MOL0     H91171  10.407   2.390   6.341 -1.3794 -0.8084 -1.7443
  661MOL0     H91172  10.555   2.450   6.521  0.9152  0.6718 -0.9683
  661MOL0     H91173  10.536   2.288   6.591 -2.1550 -1.4544 -1.5332
  661MOL0     H91174  10.656   2.191   6.396  1.4079  0.0942  0.4506
  661MOL0     H91175  10.666   2.343   6.322  2.1619  2.2176  0.7039
  661MOL0     H91176  10.929   2.279   6.666 -0.4714 -0.7927 -0.1162
  661MOL0     H91177  11.112   2.219   6.766  1.6238 -1.2486  1.9912
  661MOL0     H91178  11.274   2.201   6.691  0.7887 -1.4386 -2.3028
  661MOL0     H91179  11.138   2.072   6.689 -1.3779  0.0440 -1.2231
  661MOL0     H91180  11.367   2.247   6.036  1.1017  3.6315  0.0435
  661MOL0     H91181  11.595   2.288   5.944  0.7252 -1.0840 -0.8754
  661MOL0     H91182  11.927   2.114   6.161  0.0972 -2.5711  0.6634
  661MOL0     H91183  11.876   2.003   6.038  1.0111 -1.0830  2.9498
  661MOL0     H91184  12.116   2.100   6.037  2.0418 -0.4165 -1.5743
  661MOL0     H91185  12.032   2.073   5.882  1.1818 -0.7684  1.9623
  661MOL0     H91186  12.056   2.359   6.010 -0.5760 -0.1098 -0.4406
  661MOL0     H91187  11.970   2.311   5.864 -0.9606 -2.3756  0.1920
  661MOL0     H91188  12.199   2.219   5.789  1.1871 -2.1792  1.2671
  661MOL0     H91189  12.277   2.302   5.927 -0.6935  0.7110  1.1144
  661MOL0     H91190  12.102   2.458   5.738  0.6731  1.4544 -0.2210
  661MOL0     H91191  12.215   2.524   5.860 -0.4689 -1.4944  2.4620
  661MOL0     H91192  12.297   2.365   5.618 -0.2137 -0.7608  0.7293
  661MOL0     H91193  12.399   2.427   5.735 -0.5762 -0.8607  0.8777
  661MOL0     H91194  12.332   2.660   5.678  0.6441  1.5385 -0.9525
  661MOL0     H91195  12.227   2.594   5.540  0.4294  3.4347  0.4979
  661MOL0     H91196  12.503   2.503   5.535 -0.2878  2.1680  1.7719
  661MOL0     H91197  12.446   2.660   5.466 -1.7392  1.5715  2.4606
  661MOL0     H91198  11.750   2.075   6.282  1.0873  2.8331  1.6387
  661MOL0     H91199  11.538   2.032   6.363 -2.2240 -2.1453 -1.6348
  661MOL0     H91200  11.119   2.263   6.211  2.5112  2.2384  0.3483
  661MOL0     H91201  10.881   2.305   6.237 -0.9094  0.9288 -0.0431
  661MOL0     H91202   9.504   2.180   5.256  0.0602  0.5606  2.0863
  661MOL0     H91203   9.410   2.122   5.031  0.9828 -0.5086  0.8612
  661MOL0     H91204   9.019   2.125   4.816  0.4836 -1.0768  0.9000
  661MOL0     H91205   8.913   2.119   4.586 -2.1284  0.6652  1.0105
  661MOL0     H91206   8.691   2.064   4.523  5.0087 -0.6421  2.8556
  661MOL0     H91207   8.791   2.098   4.374  0.2529  0.2354  1.6730
  661MOL0     H91208   8.542   1.930   4.363  1.2978 -2.0959 -0.5048
  661MOL0     H91209   8.667   1.896   4.255 -0.8675 -0.8509 -1.1610
  661MOL0     H91210   8.556   2.177   4.288  1.0219 -0.4662  0.8410
  661MOL0     H91211   8.659   2.133   4.157  0.8996  0.6623  1.0857
  661MOL0     H91212   8.371   2.086   4.205  0.7759 -0.1104  1.8622
  661MOL0     H91213   8.456   1.952   4.120  0.3625 -0.3555  1.1555
  661MOL0     H91214   8.449   2.241   3.819 -0.7169 -0.5276  0.7748
  661MOL0     H91215   8.900   1.688   4.597 -0.9257  1.2729 -1.3618
  661MOL0     H91216   9.155   1.640   4.830  0.7317 -2.1535 -3.5980
  661MOL0     H91217   9.004   1.637   4.915  1.4406 -2.5196  0.5403
  661MOL0     H91218   9.013   1.564   4.755  1.4456  0.2360 -0.2947
  662MOL0     O91219   6.872  10.651   2.352 -0.5064  0.5952  0.0021
  662MOL0     C91220   6.898  10.708   2.244 -0.3231  0.4566  0.3840
  662MOL0     O91221   7.024  10.730   2.199 -0.0232 -0.4688 -0.1051
  662MOL0     C91222   7.137  10.729   2.274 -0.2809  0.3938  0.2556
  662MOL0     C91223   7.258  10.692   2.211  0.7889 -0.7604  0.0999
  662MOL0     C91224   7.385  10.704   2.278  0.2769  0.5746  0.7932
  662MOL0     C91225   7.395  10.742   2.409  0.9299  0.3082 -0.6999
  662MOL0     O91226   7.515  10.725   2.467  0.0329 -0.5146 -0.4128
  662MOL0     C91227   7.530  10.775   2.605  0.3269  0.2355  0.7472
  662MOL0     C91228   7.669  10.781   2.663 -0.2721  0.2141 -0.0373
  662MOL0     C91229   7.749  10.644   2.653  0.3462 -0.3242 -0.7408
  662MOL0     C91230   7.872  10.629   2.748  0.0922 -0.5748  0.4500
  662MOL0     C91231   7.959  10.496   2.736 -0.2628  0.5398 -0.2306
  662MOL0     C91232   8.020  10.471   2.602  0.7325 -0.1857 -0.5634
  662MOL0     C91233   8.084  10.338   2.614 -0.1606 -0.4178  0.3791
  662MOL0     C91234   8.151  10.325   2.484 -0.4231  0.5297  0.0560
  662MOL0     N91235   8.272  10.410   2.478 -0.1343  0.3359  0.1164
  662MOL0     C91236   8.379  10.403   2.564 -0.6653  0.0092  0.1195
  662MOL0     C91237   8.467  10.506   2.526 -0.2700 -0.3098 -0.8421
  662MOL0     C91238   8.593  10.525   2.602  0.0223 -0.3061 -0.5426
  662MOL0     C91239   8.628  10.665   2.661 -0.4196  0.2537 -0.0254
  662MOL0     C91240   8.632  10.774   2.554 -0.2175  0.3696 -0.2588
  662MOL0     C91241   8.713  10.742   2.427 -0.0470  0.5926  0.3136
  662MOL0     O91242   8.842  10.706   2.472  0.3384  0.5505  0.1692
  662MOL0     C91243   8.939  10.806   2.464  0.6094 -0.1268  0.7842
  662MOL0     C91244   8.937  10.902   2.359 -1.0226  0.4797 -0.6580
  662MOL0     C91245   9.037  11.008   2.350  0.6808 -0.1226  0.2779
  662MOL0     C91246   9.008  11.115   2.239  0.0958 -0.3125  0.4018
  662MOL0     C91247   9.137  11.017   2.447 -0.2463  0.0861  0.2841
  662MOL0     C91248   9.240  11.128   2.450  0.6233  0.9895 -0.5312
  662MOL0     O91249   9.352  11.090   2.515  0.4657 -0.2591 -0.1154
  662MOL0     C91250   9.465  11.159   2.489 -0.6628 -0.8196 -0.4953
  662MOL0     C91251   9.505  11.198   2.357  0.1433  0.3682  0.3419
  662MOL0     C91252   9.636  11.220   2.329  0.0803 -0.5206 -0.0325
  662MOL0     C91253   9.734  11.224   2.431 -0.3455  0.2161 -0.6442
  662MOL0     O91254   9.868  11.246   2.400 -0.4452  0.6326 -0.4809
  662MOL0     C91255   9.938  11.354   2.474  0.1161  0.3197 -0.7089
  662MOL0     C91256  10.079  11.409   2.415 -0.3737  0.3556  0.9562
  662MOL0     C91257  10.199  11.306   2.423 -0.3887 -0.2378  0.6976
  662MOL0     C91258  10.228  11.251   2.565  0.1553  0.4644  0.3835
  662MOL0     C91259  10.355  11.160   2.549  0.3565 -0.5611 -0.2030
  662MOL0     C91260  10.401  11.107   2.692  0.7232  0.2739 -0.0062
  662MOL0     C91261  10.521  11.011   2.691  0.1407 -0.4967 -0.1640
  662MOL0     C91262  10.511  10.908   2.590  0.2064  0.8233  0.2381
  662MOL0    Cl91263  10.362  10.801   2.613 -0.2515  0.5345 -0.0440
  662MOL0     C91264   9.698  11.187   2.563  0.1721 -0.4317 -0.2246
  662MOL0     C91265   9.565  11.155   2.597 -0.7763 -0.3457  0.2574
  662MOL0     O91266   9.222  11.235   2.391  0.2517 -0.6765 -0.1970
  662MOL0     C91267   9.129  10.928   2.554  0.2215  0.4317 -0.9200
  662MOL0     C91268   9.043  10.816   2.553 -0.1155 -0.7735 -0.2282
  662MOL0     N91269   8.401  10.586   2.439 -0.1535 -0.1646  0.1156
  662MOL0     N91270   8.288  10.527   2.406  0.6636 -0.3707  0.0685
  662MOL0     C91271   7.273  10.761   2.478  0.1296 -0.1316  0.4900
  662MOL0     C91272   7.150  10.766   2.407  0.6327  0.7672 -0.6502
  662MOL0     C91273   6.772  10.754   2.170  0.5217  0.2745 -0.2770
  662MOL0     C91274   6.776  10.878   2.103 -0.4604  0.3491 -0.0779
  662MOL0     C91275   6.665  10.934   2.048  0.2062  0.9090 -0.3658
  662MOL0     C91276   6.539  10.877   2.068 -0.0154  0.8047  0.3211
  662MOL0     O91277   6.434  10.929   2.002 -0.1102  0.2059 -0.1343
  662MOL0     C91278   6.304  10.871   1.992  0.3588  0.0962  0.1748
  662MOL0     C91279   6.225  10.943   1.878 -0.4303  1.1336 -0.6466
  662MOL0     C91280   6.073  10.957   1.899 -0.1122 -0.2203 -0.1563
  662MOL0     C91281   5.997  10.997   1.769  0.1311 -0.4802 -0.1335
  662MOL0     C91282   5.852  11.006   1.795 -0.3633 -0.6309  0.4860
  662MOL0     C91283   5.730  10.993   1.798 -0.1876  0.2759 -0.5763
  662MOL0     C91284   6.531  10.756   2.129  0.2516  0.2617  1.0329
  662MOL0     C91285   6.644  10.688   2.179  0.1515  0.6501 -0.4037
  662MOL0     C91286   6.606  10.548   2.242  0.7067  0.4544  0.1514
  662MOL0     H91287   7.240  10.674   2.105  0.5037 -3.5105  0.5601
  662MOL0     H91288   7.473  10.681   2.218  0.4378 -0.5330  1.4314
  662MOL0     H91289   7.474  10.716   2.678  2.3922  0.0166  2.2388
  662MOL0     H91290   7.485  10.874   2.594 -0.9693 -0.5103 -1.1789
  662MOL0     H91291   7.735  10.852   2.612  0.9215 -1.3355 -0.7290
  662MOL0     H91292   7.666  10.819   2.765 -0.2623 -1.1982  0.5120
  662MOL0     H91293   7.691  10.552   2.660 -0.3959  0.0670 -1.5408
  662MOL0     H91294   7.777  10.649   2.547 -0.5317 -0.0471 -0.9688
  662MOL0     H91295   7.930  10.712   2.708 -0.6018 -1.2547 -2.1414
  662MOL0     H91296   7.834  10.645   2.850 -1.5992  0.3870 -0.2947
  662MOL0     H91297   7.903  10.408   2.770 -0.7875  1.4096  1.2311
  662MOL0     H91298   8.043  10.496   2.806 -0.7040 -0.2626  0.3231
  662MOL0     H91299   7.935  10.455   2.536  0.3604 -2.3408  0.3589
  662MOL0     H91300   8.080  10.553   2.563  1.4281  1.3924  3.3226
  662MOL0     H91301   8.010  10.259   2.628  2.3032 -2.7537  1.3306
  662MOL0     H91302   8.156  10.344   2.697  2.2015  0.3118 -1.6135
  662MOL0     H91303   8.190  10.223   2.476 -1.4643  0.2490 -3.1441
  662MOL0     H91304   8.088  10.354   2.399 -0.4602  2.2000  0.6205
  662MOL0     H91305   8.400  10.338   2.649 -0.6963  0.5705  0.5667
  662MOL0     H91306   8.668  10.478   2.536 -1.0385 -0.9583 -1.3198
  662MOL0     H91307   8.585  10.463   2.692 -1.5187  2.0932  1.0675
  662MOL0     H91308   8.547  10.688   2.731 -0.2396 -2.5991  1.2812
  662MOL0     H91309   8.722  10.661   2.716 -0.5713 -1.8392  0.1526
  662MOL0     H91310   8.528  10.806   2.536 -0.2679  0.4641  0.1936
  662MOL0     H91311   8.688  10.860   2.592  1.5396 -1.2909  1.1153
  662MOL0     H91312   8.661  10.662   2.374 -1.2249 -0.6816  3.1917
  662MOL0     H91313   8.700  10.820   2.351 -0.8925 -1.2761 -1.5500
  662MOL0     H91314   8.887  10.882   2.266  0.3667 -3.0073 -0.8080
  662MOL0     H91315   8.961  11.203   2.285 -0.7143  0.2228 -1.3622
  662MOL0     H91316   8.944  11.094   2.153  2.2419  1.9866 -1.9300
  662MOL0     H91317   9.100  11.145   2.187 -1.1346  3.0207 -0.1025
  662MOL0     H91318   9.438  11.181   2.273 -1.5090 -0.9549  1.8147
  662MOL0     H91319   9.656  11.234   2.223  1.0344  1.4013  0.3509
  662MOL0     H91320   9.875  11.444   2.471 -0.0940  0.2966  1.5954
  662MOL0     H91321   9.944  11.328   2.580 -1.5139  0.9185 -0.4383
  662MOL0     H91322  10.066  11.436   2.310 -0.1558  1.6685  1.2546
  662MOL0     H91323  10.109  11.499   2.470 -2.5214  2.5143 -1.1670
  662MOL0     H91324  10.294  11.346   2.389 -0.2408 -2.6078 -2.0002
  662MOL0     H91325  10.186  11.218   2.360  3.4455 -0.6432  0.2744
  662MOL0     H91326  10.140  11.198   2.603 -0.3967 -0.3245 -1.8501
  662MOL0     H91327  10.245  11.330   2.639 -1.0693 -1.1353  2.4926
  662MOL0     H91328  10.327  11.083   2.476  1.4201 -0.6520 -0.5409
  662MOL0     H91329  10.429  11.229   2.507 -1.2292  1.2450 -0.1810
  662MOL0     H91330  10.319  11.048   2.735  2.5868 -1.2799  1.5910
  662MOL0     H91331  10.413  11.193   2.760 -2.3789  0.3542  0.5945
  662MOL0     H91332  10.525  10.967   2.791  1.6184 -3.3100 -1.3619
  662MOL0     H91333  10.615  11.062   2.668  1.3087 -3.4017 -2.3573
  662MOL0     H91334  10.592  10.835   2.587  0.2787  0.9217 -0.6991
  662MOL0     H91335  10.504  10.950   2.489 -1.4609  0.6765  0.2666
  662MOL0     H91336   9.770  11.172   2.643 -0.3407  0.0937  0.3513
  662MOL0     H91337   9.525  11.121   2.692  1.1495 -0.8276  0.9555
  662MOL0     H91338   9.197  10.932   2.638 -1.9773 -1.9585  1.1755
  662MOL0     H91339   9.052  10.739   2.630 -1.2004 -0.7940 -0.1111
  662MOL0     H91340   7.272  10.801   2.579 -0.5297  2.5629 -0.4849
  662MOL0     H91341   7.055  10.799   2.447  1.1769  0.2967  1.0996
  662MOL0     H91342   6.867  10.938   2.093 -3.7294  5.4889 -4.0750
  662MOL0     H91343   6.667  11.023   1.987 -1.0318  1.0444 -0.2329
  662MOL0     H91344   6.305  10.764   1.969  0.7471  0.3804 -1.1880
  662MOL0     H91345   6.246  10.895   2.082 -2.4052  0.5401 -1.6144
  662MOL0     H91346   6.243  10.891   1.784  0.9961  1.8259 -0.7871
  662MOL0     H91347   6.254  11.047   1.857  0.6609  0.4659 -2.7386
  662MOL0     H91348   6.039  10.861   1.939 -3.2203  0.4839 -0.8801
  662MOL0     H91349   6.062  11.028   1.981  0.9160  0.9685 -1.0077
  662MOL0     H91350   6.020  10.921   1.694  1.1019 -1.6512  1.2796
  662MOL0     H91351   6.026  11.095   1.731  3.2447 -1.2905 -0.0430
  662MOL0     H91352   5.625  10.981   1.818  0.1046  2.1650  2.7836
  662MOL0     H91353   6.430  10.716   2.138  0.3500 -0.1695  0.2625
  662MOL0     H91354   6.502  10.518   2.223  1.3350 -1.8750  0.0889
  662MOL0     H91355   6.657  10.471   2.183 -0.2102 -2.0150  2.3889
  662MOL0     H91356   6.618  10.542   2.350 -1.4742  0.1276  0.4366
  663MOL0     O91357   6.485  11.187   0.200 -0.9740 -0.6842 -0.1447
  663MOL0     C91358   6.461  11.072   0.192  0.1205  0.3128  0.5495
  663MOL0     O91359   6.530  10.974   0.257  0.4597  0.1809 -0.3066
  663MOL0     C91360   6.616  11.018   0.359  0.2955  0.4478  0.2516
  663MOL0     C91361   6.742  11.063   0.322 -0.3895 -0.7836  0.4579
  663MOL0     C91362   6.837  11.091   0.421 -0.4399 -0.3621 -0.0801
  663MOL0     C91363   6.818  11.071   0.559  0.8079  0.6454 -0.3387
  663MOL0     O91364   6.921  11.099   0.636  0.2630  0.0391 -0.0357
  663MOL0     C91365   6.904  11.202   0.732 -0.1680  1.5352 -0.7843
  663MOL0     C91366   6.943  11.165   0.879 -1.4285  0.4865  0.2919
  663MOL0     C91367   7.090  11.120   0.903  0.1746 -0.6241  0.2035
  663MOL0     C91368   7.189  11.215   0.860 -0.0279 -0.0720  0.1735
  663MOL0     C91369   7.327  11.160   0.889  0.3507  0.2474  0.1229
  663MOL0     C91370   7.431  11.270   0.879  0.3538  0.7525 -0.3972
  663MOL0     C91371   7.572  11.214   0.900 -0.8964 -0.5815 -0.2348
  663MOL0     C91372   7.627  11.151   0.772 -0.3559 -0.1224  0.3073
  663MOL0     N91373   7.770  11.103   0.781  0.2710 -0.6922  1.3752
  663MOL0     C91374   7.865  11.173   0.839  0.5544 -0.2256 -0.1362
  663MOL0     C91375   7.980  11.122   0.793  0.8864 -0.4524  0.1191
  663MOL0     C91376   8.116  11.156   0.851  0.5144 -0.3145  0.1004
  663MOL0     C91377   8.152  11.310   0.845  1.1266  0.0496  1.0306
  663MOL0     C91378   8.281  11.344   0.909 -0.2128  0.1923 -0.0206
  663MOL0     C91379   8.400  11.241   0.909  0.4706 -0.5399 -0.4601
  663MOL0     O91380   8.510  11.314   0.977  0.5377  0.4307  0.0187
  663MOL0     C91381   8.634  11.292   0.942  0.0060 -0.6477  0.7589
  663MOL0     C91382   8.683  11.161   0.933  0.3267  0.0262  0.4219
  663MOL0     C91383   8.816  11.133   0.894  0.4478 -0.6564 -0.2418
  663MOL0     C91384   8.857  10.986   0.890 -0.2401 -0.5297  0.4541
  663MOL0     C91385   8.901  11.241   0.864  0.4934  0.7613  0.3548
  663MOL0     C91386   9.044  11.228   0.847 -1.4834 -0.4251  0.8944
  663MOL0     O91387   9.109  11.345   0.812  0.3200 -0.2237  0.1291
  663MOL0     C91388   9.241  11.332   0.793 -1.3654 -0.3212 -0.3761
  663MOL0     C91389   9.293  11.350   0.664  0.3857 -0.1592  0.1599
  663MOL0     C91390   9.434  11.367   0.649  0.5563  0.0837 -0.0888
  663MOL0     C91391   9.522  11.356   0.758 -0.3146  0.1309  0.5643
  663MOL0     O91392   9.655  11.382   0.741  0.4427 -0.5200  0.0776
  663MOL0     C91393   9.750  11.309   0.817 -0.9652 -0.1804  0.3188
  663MOL0     C91394   9.895  11.352   0.770 -0.2346  0.3324  0.7745
  663MOL0     C91395   9.915  11.496   0.808 -0.1941 -0.3193 -0.2985
  663MOL0     C91396  10.061  11.536   0.781 -0.2964  0.3856  0.4431
  663MOL0     C91397  10.090  11.675   0.841 -0.0688 -1.0492 -1.3318
  663MOL0     C91398  10.234  11.700   0.873 -0.2025  0.0389  0.0402
  663MOL0     C91399  10.322  11.717   0.751  0.3031  0.1002 -0.3108
  663MOL0     C91400  10.470  11.684   0.784  0.0668 -0.1604 -0.3772
  663MOL0    Cl91401  10.551  11.641   0.651  0.0351  0.2864  0.4014
  663MOL0     C91402   9.470  11.327   0.887 -1.2105  0.1150  0.0576
  663MOL0     C91403   9.336  11.320   0.902  1.2282 -0.3003  0.8234
  663MOL0     O91404   9.105  11.121   0.856  0.4957  0.6654  0.3769
  663MOL0     C91405   8.850  11.374   0.866 -0.0365 -0.2836  0.4740
  663MOL0     C91406   8.716  11.395   0.894 -0.8763  0.5551  0.1808
  663MOL0     N91407   7.954  11.025   0.699  0.1951 -0.3579  0.9685
  663MOL0     N91408   7.825  11.018   0.690 -0.3445  0.4897  0.1898
  663MOL0     C91409   6.683  11.048   0.597 -0.5109 -0.5130  0.5962
  663MOL0     C91410   6.587  11.014   0.494 -0.4490  0.2327 -0.0354
  663MOL0     C91411   6.362  11.039   0.089 -1.1725 -0.1983 -0.4017
  663MOL0     C91412   6.245  11.115   0.086  0.9391  0.6916 -0.7908
  663MOL0     C91413   6.141  11.089  -0.013 -1.2480 -0.0559  0.1565
  663MOL0     C91414   6.160  10.984  -0.101 -0.1846 -0.8868  0.6847
  663MOL0     O91415   6.069  10.947  -0.199 -0.5512  0.1242 -1.0796
  663MOL0     C91416   5.966  11.040  -0.235 -0.0238 -0.3433  0.1651
  663MOL0     C91417   5.916  10.994  -0.368 -0.9809 -0.1200  0.6578
  663MOL0     C91418   5.865  11.086  -0.475  0.1973  0.4734 -0.5786
  663MOL0     C91419   5.844  11.005  -0.607 -0.2583 -0.3210  1.1194
  663MOL0     C91420   5.809  11.106  -0.705 -0.4958 -1.2551 -0.0434
  663MOL0     C91421   5.785  11.204  -0.773  0.4650 -0.3518 -0.0279
  663MOL0     C91422   6.279  10.914  -0.098  0.0294  0.2420  0.2640
  663MOL0     C91423   6.386  10.945  -0.012  0.4562  0.1365  0.1186
  663MOL0     C91424   6.509  10.863  -0.024  0.4749 -0.0317 -0.0372
  663MOL0     H91425   6.762  11.072   0.216 -0.3803  1.3180  0.5936
  663MOL0     H91426   6.927  11.143   0.392 -0.5202 -0.5424 -0.6687
  663MOL0     H91427   6.798  11.228   0.738 -0.4993 -0.1191  1.6500
  663MOL0     H91428   6.968  11.289   0.710  2.3463  0.2268  0.8058
  663MOL0     H91429   6.928  11.253   0.942  1.8072  2.3883 -1.2774
  663MOL0     H91430   6.878  11.088   0.920  1.9757 -3.4969 -1.1208
  663MOL0     H91431   7.100  11.109   1.011  2.3188 -0.6449  0.0510
  663MOL0     H91432   7.120  11.030   0.847 -1.7777  1.5125 -4.9339
  663MOL0     H91433   7.186  11.236   0.753 -1.3718  2.0011  0.5532
  663MOL0     H91434   7.158  11.305   0.913 -1.5845 -0.8773  0.7060
  663MOL0     H91435   7.346  11.073   0.826 -0.7825 -0.7116  1.0815
  663MOL0     H91436   7.319  11.131   0.994 -1.8205 -3.0512 -0.7932
  663MOL0     H91437   7.420  11.320   0.783  0.1905  1.5352  0.0177
  663MOL0     H91438   7.406  11.344   0.956 -1.5289  1.5215 -1.6874
  663MOL0     H91439   7.558  11.147   0.984 -1.7248  1.6442  1.5053
  663MOL0     H91440   7.629  11.297   0.943 -0.2807 -0.6185 -0.9555
  663MOL0     H91441   7.556  11.074   0.738  1.4635 -2.5594  1.7226
  663MOL0     H91442   7.637  11.234   0.701 -1.4466  0.1131  0.4063
  663MOL0     H91443   7.865  11.263   0.900 -0.2525  0.0601 -0.5407
  663MOL0     H91444   8.192  11.105   0.791 -1.5078 -0.8888 -2.1593
  663MOL0     H91445   8.124  11.122   0.955  3.3711  0.9358  0.3878
  663MOL0     H91446   8.163  11.344   0.742  0.4761 -0.3497  0.8307
  663MOL0     H91447   8.068  11.360   0.893  2.3116  1.0582  2.1392
  663MOL0     H91448   8.312  11.439   0.866 -1.8677  0.8302  0.1218
  663MOL0     H91449   8.262  11.363   1.015  1.2862  1.6172  0.0288
  663MOL0     H91450   8.360  11.152   0.959  0.2524 -0.2420 -0.1020
  663MOL0     H91451   8.420  11.221   0.804 -0.4937  0.4006 -0.8514
  663MOL0     H91452   8.613  11.081   0.952  1.6627 -1.9394 -2.2028
  663MOL0     H91453   8.771  10.927   0.921  0.5504 -0.2208  3.4901
  663MOL0     H91454   8.929  10.987   0.973  0.2326  1.1102  0.0796
  663MOL0     H91455   8.896  10.951   0.794  0.9126  2.3668 -0.2643
  663MOL0     H91456   9.219  11.365   0.586  0.7143  0.4244 -0.0487
  663MOL0     H91457   9.470  11.383   0.548  0.8547  2.4019  0.3267
  663MOL0     H91458   9.747  11.334   0.923  0.6970  2.4503 -0.1558
  663MOL0     H91459   9.740  11.200   0.817 -0.4660 -0.2910  2.7040
  663MOL0     H91460   9.974  11.285   0.807  1.3009 -0.2447 -3.0676
  663MOL0     H91461   9.902  11.335   0.663  2.6222 -0.9647  1.0626
  663MOL0     H91462   9.888  11.509   0.913 -0.9430  1.2269 -0.6631
  663MOL0     H91463   9.858  11.557   0.738  0.8930 -1.3705 -2.1810
  663MOL0     H91464  10.090  11.526   0.676 -2.3224  2.1697 -0.3414
  663MOL0     H91465  10.125  11.465   0.835 -1.8148 -1.1288  0.3205
  663MOL0     H91466  10.062  11.750   0.766  0.2732  0.5762  0.1223
  663MOL0     H91467  10.034  11.688   0.934  2.1772  0.9760 -0.1552
  663MOL0     H91468  10.268  11.624   0.945 -0.8182 -0.7255 -0.4691
  663MOL0     H91469  10.248  11.796   0.925 -0.4281  0.3783 -0.5242
  663MOL0     H91470  10.327  11.818   0.710  1.0570  0.7882  1.3817
  663MOL0     H91471  10.289  11.647   0.674  2.5469 -0.8983 -0.4443
  663MOL0     H91472  10.479  11.612   0.866 -1.7482 -0.1229 -0.1009
  663MOL0     H91473  10.518  11.778   0.810  1.7010 -1.3846  1.3147
  663MOL0     H91474   9.530  11.331   0.978 -1.5119 -2.3116  0.4403
  663MOL0     H91475   9.296  11.330   1.002  1.1262  1.7661  0.6289
  663MOL0     H91476   8.905  11.460   0.830  0.1268  0.6882  2.9034
  663MOL0     H91477   8.692  11.500   0.905  1.5517  1.2618 -0.5724
  663MOL0     H91478   6.654  11.050   0.701 -0.1453 -1.4928  0.7306
  663MOL0     H91479   6.487  10.985   0.522 -0.3604 -0.3321 -0.2893
  663MOL0     H91480   6.226  11.191   0.161 -1.7821 -0.3692 -0.2807
  663MOL0     H91481   6.053  11.151   0.003 -2.9964 -2.4255  0.2553
  663MOL0     H91482   5.878  11.035  -0.171 -1.3687 -0.3537 -1.6279
  663MOL0     H91483   5.995  11.145  -0.248 -0.5364 -0.0865  0.9707
  663MOL0     H91484   5.824  10.937  -0.347 -1.2572  0.4653  1.0622
  663MOL0     H91485   5.990  10.931  -0.418  0.5975  2.1761 -0.0205
  663MOL0     H91486   5.767  11.118  -0.435  0.4790 -1.4680  1.8991
  663MOL0     H91487   5.937  11.166  -0.494  2.8581 -1.9410 -1.2819
  663MOL0     H91488   5.769  10.925  -0.602 -1.8755  0.9470 -0.8287
  663MOL0     H91489   5.940  10.973  -0.648 -0.0852  1.3832  0.0939
  663MOL0     H91490   5.761  11.288  -0.835 -2.1859  0.0168  1.3332
  663MOL0     H91491   6.285  10.836  -0.173  1.6664  0.7519 -0.1667
  663MOL0     H91492   6.582  10.941  -0.045 -1.1862  1.0053 -2.4614
  663MOL0     H91493   6.529  10.803   0.065 -4.1603 -0.1210  1.2130
  663MOL0     H91494   6.492  10.791  -0.105 -1.4493 -0.7008  0.8856
  664MOL0     O91495   2.896   5.775   8.220 -0.8198 -0.2314  0.6082
  664MOL0     C91496   2.905   5.790   8.342 -0.0037 -0.0213  1.3304
  664MOL0     O91497   2.798   5.832   8.420 -0.8402  0.4198  0.8593
  664MOL0     C91498   2.685   5.847   8.343 -0.0740  0.1273  0.2445
  664MOL0     C91499   2.617   5.737   8.296  0.1480 -0.1459 -0.4359
  664MOL0     C91500   2.504   5.729   8.215 -0.3735 -0.3201  0.6219
  664MOL0     C91501   2.456   5.861   8.173 -0.2490  0.5693  0.6985
  664MOL0     O91502   2.349   5.867   8.086 -0.9278 -0.0024  1.1615
  664MOL0     C91503   2.292   5.753   8.023  0.2918 -0.3239 -0.1529
  664MOL0     C91504   2.199   5.774   7.901 -0.0253 -0.1127 -0.3004
  664MOL0     C91505   2.126   5.911   7.932 -0.3554 -0.2164 -0.1101
  664MOL0     C91506   2.013   5.920   7.831  0.8325 -0.0297  0.5035
  664MOL0     C91507   1.975   6.064   7.803 -0.4257 -0.4473 -0.8167
  664MOL0     C91508   1.952   6.162   7.921  0.3377  0.9749 -0.6042
  664MOL0     C91509   1.819   6.141   7.985  0.4234 -0.3932 -0.9872
  664MOL0     C91510   1.718   6.262   7.979  0.4399  0.1830 -0.4651
  664MOL0     N91511   1.669   6.305   8.109  0.4441  0.2205  0.5101
  664MOL0     C91512   1.746   6.360   8.217 -0.1539 -0.3991 -0.0435
  664MOL0     C91513   1.662   6.384   8.320 -0.0647 -0.5339  0.4499
  664MOL0     C91514   1.688   6.442   8.456 -0.0625  0.8542  0.3302
  664MOL0     C91515   1.807   6.538   8.454 -0.0734  0.4055  0.3568
  664MOL0     C91516   1.780   6.680   8.390 -0.4621  0.1029 -0.4695
  664MOL0     C91517   1.883   6.716   8.280 -0.5153  0.3920  0.0872
  664MOL0     O91518   2.015   6.720   8.335  0.2597  0.1999 -0.3771
  664MOL0     C91519   2.125   6.735   8.255  0.4129 -0.2070  0.0409
  664MOL0     C91520   2.253   6.726   8.313  0.1374 -0.3204  0.3244
  664MOL0     C91521   2.380   6.754   8.246  0.6711  0.0604 -0.0150
  664MOL0     C91522   2.508   6.741   8.330  0.7530 -1.1590 -0.3552
  664MOL0     C91523   2.362   6.795   8.111  0.6814  0.1593  0.5861
  664MOL0     C91524   2.476   6.830   8.019 -0.1573  0.2880 -0.2193
  664MOL0     O91525   2.443   6.884   7.890 -0.0432  0.4258 -0.2038
  664MOL0     C91526   2.541   6.918   7.805  0.5609  0.2307 -0.2440
  664MOL0     C91527   2.631   7.014   7.843  0.9259 -0.8832 -1.1325
  664MOL0     C91528   2.729   7.048   7.754 -0.6989 -0.2832  0.1108
  664MOL0     C91529   2.730   6.997   7.628  0.5128 -0.0760 -0.8309
  664MOL0     O91530   2.819   7.022   7.526  0.1548 -1.0202  0.2198
  664MOL0     C91531   2.892   7.145   7.528 -0.2342 -0.6350  0.8938
  664MOL0     C91532   2.972   7.157   7.401 -0.4993 -0.3793 -0.3719
  664MOL0     C91533   3.043   7.298   7.409 -0.5732  0.3583 -0.0731
  664MOL0     C91534   3.140   7.330   7.298 -0.4713 -0.3731  0.3103
  664MOL0     C91535   3.079   7.410   7.182 -0.2974  0.4060  0.5725
  664MOL0     C91536   3.190   7.476   7.099  1.2850  0.0130  0.1882
  664MOL0     C91537   3.131   7.587   7.013  0.1112 -0.1144 -0.2343
  664MOL0     C91538   3.230   7.661   6.928  0.1245  0.0934 -0.0118
  664MOL0    Cl91539   3.275   7.557   6.801  0.0158 -0.1190 -0.3006
  664MOL0     C91540   2.634   6.908   7.586  0.5420  0.2098  0.3306
  664MOL0     C91541   2.536   6.866   7.674  0.0914  0.3853 -0.1692
  664MOL0     O91542   2.588   6.795   8.056 -0.1843  0.3606  0.8910
  664MOL0     C91543   2.230   6.811   8.054  0.0475  0.0126  0.0002
  664MOL0     C91544   2.120   6.776   8.130  0.0102 -0.1433  0.2155
  664MOL0     N91545   1.534   6.341   8.277  0.2778 -0.5670  0.0633
  664MOL0     N91546   1.535   6.299   8.154  0.2931  0.4377  0.1357
  664MOL0     C91547   2.517   5.977   8.218 -0.5692  1.0129 -0.0517
  664MOL0     C91548   2.632   5.965   8.300  0.1047 -0.5364 -0.5197
  664MOL0     C91549   3.034   5.761   8.410 -0.2447  0.8367  0.2571
  664MOL0     C91550   3.116   5.661   8.345 -0.9184 -0.6241  0.4476
  664MOL0     C91551   3.232   5.623   8.403 -0.4247  0.5071 -0.0471
  664MOL0     C91552   3.270   5.678   8.530 -0.0575 -0.4701 -0.1872
  664MOL0     O91553   3.375   5.639   8.607  0.8167 -0.6757 -0.0879
  664MOL0     C91554   3.490   5.576   8.546  0.4582 -0.0057  0.3119
  664MOL0     C91555   3.565   5.667   8.437 -0.0550 -0.2432 -0.6000
  664MOL0     C91556   3.710   5.639   8.424  0.4169 -0.3584  0.0439
  664MOL0     C91557   3.780   5.744   8.324  0.3621  0.6903 -0.2610
  664MOL0     C91558   3.879   5.819   8.406 -0.3410 -0.6043 -0.7257
  664MOL0     C91559   3.962   5.888   8.462  0.0334  0.5008  0.9343
  664MOL0     C91560   3.191   5.774   8.591  0.2706  0.2051 -0.6864
  664MOL0     C91561   3.070   5.809   8.534 -0.2416  0.7750  0.3486
  664MOL0     C91562   2.989   5.909   8.609 -0.1689  0.5210  1.0502
  664MOL0     H91563   2.643   5.637   8.330 -0.0513 -0.6371 -1.6782
  664MOL0     H91564   2.459   5.634   8.188  0.9881 -1.5395  2.3811
  664MOL0     H91565   2.239   5.694   8.098 -1.1620 -2.3707 -2.6346
  664MOL0     H91566   2.377   5.693   7.989  0.3691 -1.6235  2.1410
  664MOL0     H91567   2.254   5.788   7.808 -1.8060 -1.4433 -1.6233
  664MOL0     H91568   2.127   5.693   7.887 -0.0047 -0.0836 -0.5688
  664MOL0     H91569   2.091   5.919   8.035 -0.8134 -0.0227 -0.2785
  664MOL0     H91570   2.187   6.001   7.919 -2.6543  1.3204 -0.9059
  664MOL0     H91571   2.042   5.877   7.735  3.4670  1.3830  0.5773
  664MOL0     H91572   1.924   5.866   7.865  0.0726  0.3855 -0.7489
  664MOL0     H91573   1.879   6.069   7.751 -0.1067 -1.8831 -1.5741
  664MOL0     H91574   2.057   6.111   7.747  1.0845 -2.1790 -0.1446
  664MOL0     H91575   2.025   6.144   8.001  0.0606 -2.5980 -1.0075
  664MOL0     H91576   1.954   6.263   7.880 -1.7431  0.6156 -1.7284
  664MOL0     H91577   1.834   6.110   8.088 -2.2373  1.2236  0.0086
  664MOL0     H91578   1.776   6.054   7.933 -0.2314 -0.2920 -0.6264
  664MOL0     H91579   1.760   6.351   7.931 -0.6761  0.5022 -0.9091
  664MOL0     H91580   1.635   6.243   7.909  1.1793  1.5104 -1.7688
  664MOL0     H91581   1.850   6.389   8.224 -0.9979  2.9809  0.5647
  664MOL0     H91582   1.724   6.354   8.510  4.9170  0.2692 -3.2195
  664MOL0     H91583   1.598   6.490   8.495 -0.4102  0.7900 -0.3881
  664MOL0     H91584   1.824   6.561   8.559 -0.9343  0.6498  0.4514
  664MOL0     H91585   1.893   6.486   8.411 -1.6892 -0.7764 -1.6618
  664MOL0     H91586   1.678   6.691   8.351  0.0302  1.6282 -1.4244
  664MOL0     H91587   1.794   6.754   8.469  2.2530  0.0159 -0.7641
  664MOL0     H91588   1.876   6.644   8.198  3.1689  0.7588 -0.7453
  664MOL0     H91589   1.865   6.817   8.243 -1.3107  0.7431  1.3933
  664MOL0     H91590   2.251   6.689   8.415  0.9568 -1.9596 -0.2202
  664MOL0     H91591   2.487   6.778   8.431  3.7265  0.8706 -0.3688
  664MOL0     H91592   2.596   6.798   8.300  1.3082 -1.9290 -0.2384
  664MOL0     H91593   2.532   6.635   8.314 -1.4763 -1.7431 -0.2521
  664MOL0     H91594   2.636   7.063   7.939  2.1707  3.7510 -3.2678
  664MOL0     H91595   2.810   7.111   7.790 -0.0204 -1.1106  0.0764
  664MOL0     H91596   2.820   7.227   7.520 -1.6323 -1.8849  0.1511
  664MOL0     H91597   2.955   7.151   7.617  0.7954 -1.3622  0.2420
  664MOL0     H91598   3.047   7.079   7.384 -1.3508 -1.5816  1.1282
  664MOL0     H91599   2.900   7.151   7.318 -2.3097  0.8153  1.0321
  664MOL0     H91600   3.096   7.299   7.505 -0.1693  0.4781 -0.2951
  664MOL0     H91601   2.970   7.376   7.431 -1.2398 -0.3738  0.3631
  664MOL0     H91602   3.187   7.239   7.258 -2.5540 -1.5426  0.3819
  664MOL0     H91603   3.223   7.388   7.338 -0.7501 -1.8102  3.2324
  664MOL0     H91604   3.014   7.344   7.125 -2.6066  1.5266  1.7103
  664MOL0     H91605   3.008   7.481   7.227  0.0307  0.3054  1.2669
  664MOL0     H91606   3.250   7.400   7.048  0.7477  1.2423 -2.4103
  664MOL0     H91607   3.257   7.517   7.175 -0.4236 -0.2416  1.9131
  664MOL0     H91608   3.086   7.661   7.080 -2.3565 -0.7299 -1.1121
  664MOL0     H91609   3.041   7.558   6.959 -0.2056  0.9362 -0.2998
  664MOL0     H91610   3.313   7.676   6.997 -0.6061 -0.9969  1.1456
  664MOL0     H91611   3.185   7.758   6.904 -1.2837 -0.3626  0.6453
  664MOL0     H91612   2.641   6.894   7.479 -1.9038 -0.6828  0.2121
  664MOL0     H91613   2.450   6.810   7.640 -0.1724  0.6926 -0.0156
  664MOL0     H91614   2.229   6.837   7.948  3.6305 -2.5313 -0.8239
  664MOL0     H91615   2.016   6.792   8.102 -0.9720 -2.3779  2.1766
  664MOL0     H91616   2.481   6.078   8.200  1.4230  2.1950  2.0309
  664MOL0     H91617   2.682   6.054   8.339 -0.1809 -0.8729  0.6637
  664MOL0     H91618   3.086   5.613   8.253 -0.7470  0.1429 -0.0138
  664MOL0     H91619   3.297   5.549   8.357  1.9550  0.3722  3.1546
  664MOL0     H91620   3.561   5.552   8.625 -0.6672  0.5085  1.5152
  664MOL0     H91621   3.456   5.487   8.492  2.2630 -0.1920 -0.5962
  664MOL0     H91622   3.552   5.774   8.458 -0.4441  0.4722 -3.8478
  664MOL0     H91623   3.517   5.655   8.339 -2.2482 -1.0256  0.5139
  664MOL0     H91624   3.753   5.632   8.524 -0.1726  2.5355  0.5827
  664MOL0     H91625   3.729   5.539   8.385  1.4320  0.7670 -2.6050
  664MOL0     H91626   3.711   5.811   8.271 -2.0653 -0.9256  0.6811
  664MOL0     H91627   3.832   5.700   8.238  0.3276  0.2134 -0.0389
  664MOL0     H91628   4.023   5.962   8.510 -1.7424  3.0902 -0.5431
  664MOL0     H91629   3.222   5.804   8.690 -1.5634  1.5874 -0.4828
  664MOL0     H91630   3.051   5.949   8.690  1.4825 -1.5062  0.8528
  664MOL0     H91631   2.947   5.988   8.545  1.2897  1.7001  1.4948
  664MOL0     H91632   2.897   5.861   8.641 -1.3530  0.2898 -2.2708
  665MOL0     O91633   8.921   9.035   5.395 -0.1664 -0.1728 -0.3052
  665MOL0     C91634   8.901   9.076   5.509 -0.3896  0.9800 -0.0119
  665MOL0     O91635   8.991   9.118   5.596  0.4607  0.5230  0.3927
  665MOL0     C91636   9.118   9.138   5.550  0.0634 -0.1762  0.4451
  665MOL0     C91637   9.203   9.029   5.533  0.3213  0.3115 -0.1635
  665MOL0     C91638   9.339   9.053   5.496 -0.1789  1.8981  0.7892
  665MOL0     C91639   9.388   9.179   5.475 -0.3175 -0.0284 -0.2915
  665MOL0     O91640   9.515   9.195   5.423 -0.7547  0.3646 -0.0254
  665MOL0     C91641   9.566   9.325   5.415 -0.1615 -0.8808  0.5431
  665MOL0     C91642   9.682   9.336   5.315 -0.5337 -0.1945 -0.3636
  665MOL0     C91643   9.814   9.280   5.380  0.2184  0.2229 -0.8458
  665MOL0     C91644   9.833   9.366   5.510 -0.6119 -0.3869  0.0169
  665MOL0     C91645   9.971   9.357   5.582  0.1570  0.1371 -0.3366
  665MOL0     C91646  10.101   9.341   5.490 -0.4558 -0.1909  0.0626
  665MOL0     C91647  10.126   9.447   5.379 -0.1244  0.4246 -0.3644
  665MOL0     C91648  10.154   9.587   5.434 -0.2049 -0.1790  0.5630
  665MOL0     N91649  10.256   9.576   5.531 -0.0840  0.0478 -0.3182
  665MOL0     C91650  10.386   9.533   5.507 -0.6000  0.3547  0.8621
  665MOL0     C91651  10.440   9.519   5.629 -1.1643 -0.9673 -0.1374
  665MOL0     C91652  10.588   9.479   5.660  0.0746 -0.6401 -0.2491
  665MOL0     C91653  10.661   9.587   5.738  0.9030 -0.7301  0.4346
  665MOL0     C91654  10.797   9.537   5.776  0.4691  0.1182  0.3778
  665MOL0     C91655  10.898   9.650   5.797 -0.0264 -0.4400  0.6998
  665MOL0     O91656  11.030   9.596   5.824  0.2806 -0.6143 -0.0297
  665MOL0     C91657  11.077   9.570   5.948 -0.4317  0.3983  0.2044
  665MOL0     C91658  11.198   9.502   5.958 -0.1146 -0.1399 -0.3183
  665MOL0     C91659  11.271   9.497   6.081 -0.3796  0.1712  0.4326
  665MOL0     C91660  11.400   9.427   6.093 -0.6916 -0.3918  0.0260
  665MOL0     C91661  11.212   9.548   6.200 -0.0963  0.0564  0.3416
  665MOL0     C91662  11.271   9.540   6.343 -0.0348 -0.3564  0.1887
  665MOL0     O91663  11.197   9.593   6.446 -0.6666 -0.5241  0.6928
  665MOL0     C91664  11.213   9.544   6.574 -1.1459  0.5123  0.3057
  665MOL0     C91665  11.109   9.486   6.642  0.2778 -0.4980 -0.0562
  665MOL0     C91666  11.128   9.435   6.769 -0.7870  1.0808  0.4886
  665MOL0     C91667  11.246   9.448   6.840  0.4812  0.6940 -0.1209
  665MOL0     O91668  11.255   9.406   6.967  0.4056  0.2816  0.3355
  665MOL0     C91669  11.373   9.349   7.026 -0.8902  0.1726 -0.0903
  665MOL0     C91670  11.328   9.293   7.169 -0.6337 -0.0022  0.1975
  665MOL0     C91671  11.217   9.189   7.172 -0.1490  0.6742 -0.5448
  665MOL0     C91672  11.154   9.171   7.308  0.3342 -0.5247  0.3522
  665MOL0     C91673  11.027   9.091   7.288 -0.2520  0.5355  0.7830
  665MOL0     C91674  10.947   9.061   7.409  0.0235  0.4086 -0.2440
  665MOL0     C91675  10.849   8.952   7.386  0.1171 -0.8241  0.7144
  665MOL0     C91676  10.743   8.932   7.500 -0.1115 -0.2554  0.1450
  665MOL0    Cl91677  10.634   9.080   7.507 -0.1663 -0.3794  0.2043
  665MOL0     C91678  11.353   9.512   6.781  0.1621  0.5187  0.2631
  665MOL0     C91679  11.338   9.551   6.643  0.2572 -0.2131 -0.2308
  665MOL0     O91680  11.375   9.476   6.357 -0.3710  0.0284 -0.2572
  665MOL0     C91681  11.087   9.607   6.188 -0.3040  0.1969  0.3258
  665MOL0     C91682  11.025   9.620   6.068 -0.6087 -0.3514  0.2674
  665MOL0     N91683  10.350   9.569   5.721 -0.2680 -0.4459 -0.3249
  665MOL0     N91684  10.240   9.601   5.664 -0.4194  0.6382  0.0692
  665MOL0     C91685   9.305   9.283   5.511  0.2251  0.0036 -0.3973
  665MOL0     C91686   9.173   9.269   5.556  0.1040  0.4488  0.9321
  665MOL0     C91687   8.759   9.092   5.555 -0.4734 -0.4907  0.2800
  665MOL0     C91688   8.716   9.032   5.669 -0.2858  0.5464  0.1207
  665MOL0     C91689   8.582   9.051   5.713  0.6192 -0.0997 -0.8748
  665MOL0     C91690   8.486   9.123   5.639 -0.4529 -0.0487  0.1407
  665MOL0     O91691   8.361   9.140   5.701  0.5740 -0.2592 -0.4403
  665MOL0     C91692   8.270   9.219   5.619  0.8055  0.6678 -0.7727
  665MOL0     C91693   8.189   9.144   5.510 -1.2187  0.2674 -0.9811
  665MOL0     C91694   8.098   9.043   5.573 -0.6207  0.3795  0.0651
  665MOL0     C91695   8.041   8.956   5.462 -0.5527  0.3494  0.4726
  665MOL0     C91696   7.974   8.840   5.524  1.1739  0.4499  1.1311
  665MOL0     C91697   7.918   8.749   5.582 -0.1713 -0.2127  0.2415
  665MOL0     C91698   8.538   9.187   5.525  0.2378 -0.3744  0.4959
  665MOL0     C91699   8.670   9.178   5.490  0.9197  0.1161  0.4199
  665MOL0     C91700   8.709   9.270   5.372 -0.2215  0.7397 -1.0383
  665MOL0     H91701   9.178   8.925   5.555  0.8163 -0.1558 -1.6411
  665MOL0     H91702   9.406   8.970   5.480  0.6652  3.0348 -2.2814
  665MOL0     H91703   9.577   9.371   5.514 -1.7192  0.8259 -0.0235
  665MOL0     H91704   9.487   9.379   5.363 -0.5481 -1.9835 -0.0667
  665MOL0     H91705   9.669   9.281   5.221  0.3657  0.9753 -1.2125
  665MOL0     H91706   9.702   9.439   5.285  1.6884 -0.1095  1.1909
  665MOL0     H91707   9.811   9.174   5.404 -0.5454  0.2049 -0.9975
  665MOL0     H91708   9.895   9.306   5.311 -0.6743 -0.5113 -2.2181
  665MOL0     H91709   9.799   9.467   5.484  0.2612 -1.0028 -4.3482
  665MOL0     H91710   9.760   9.326   5.580 -1.4591  2.7521  1.0956
  665MOL0     H91711   9.969   9.261   5.636 -1.4724 -0.1994 -0.9452
  665MOL0     H91712   9.998   9.438   5.650 -0.9512  2.2962 -2.3395
  665MOL0     H91713  10.189   9.328   5.553 -2.5656 -1.5175  2.9934
  665MOL0     H91714  10.090   9.250   5.430 -4.0631 -0.3099  0.6615
  665MOL0     H91715  10.040   9.460   5.312 -0.2868  0.8140 -0.0829
  665MOL0     H91716  10.206   9.410   5.314 -0.5657 -1.7963  0.3019
  665MOL0     H91717  10.178   9.670   5.366 -3.0148 -1.1118 -1.7873
  665MOL0     H91718  10.070   9.623   5.494  1.3526  2.0815  1.5415
  665MOL0     H91719  10.427   9.496   5.413 -1.2282 -2.4947  1.6373
  665MOL0     H91720  10.644   9.461   5.568  0.8985 -3.0233  0.6442
  665MOL0     H91721  10.587   9.383   5.712  2.7585 -0.3329  0.5423
  665MOL0     H91722  10.674   9.677   5.678 -2.7187  0.8533  1.7651
  665MOL0     H91723  10.608   9.612   5.830  1.1680 -0.9133  0.6410
  665MOL0     H91724  10.794   9.475   5.866  0.2010 -3.1547 -1.7254
  665MOL0     H91725  10.832   9.479   5.690  2.9546  0.4107  1.1191
  665MOL0     H91726  10.899   9.711   5.706 -0.8991 -1.2525  0.1300
  665MOL0     H91727  10.870   9.725   5.872 -0.9347  1.8318 -1.7420
  665MOL0     H91728  11.233   9.459   5.865 -0.7449 -2.7299  0.5363
  665MOL0     H91729  11.402   9.342   6.162 -1.9728  0.1356  0.7299
  665MOL0     H91730  11.472   9.495   6.140 -0.0334 -0.8810 -0.2469
  665MOL0     H91731  11.437   9.392   5.996  0.3599  3.5151 -1.1565
  665MOL0     H91732  11.017   9.474   6.587 -0.4799  1.3124  0.7468
  665MOL0     H91733  11.044   9.393   6.824 -0.8828 -0.4020 -0.7024
  665MOL0     H91734  11.409   9.264   6.967  2.7941  0.6831  1.1437
  665MOL0     H91735  11.453   9.423   7.029 -1.4925  0.8237  2.3742
  665MOL0     H91736  11.411   9.260   7.232 -0.5674 -1.6017 -0.6668
  665MOL0     H91737  11.281   9.382   7.213  0.5300  0.4238  0.6283
  665MOL0     H91738  11.266   9.096   7.141  1.7130  1.5001 -0.2400
  665MOL0     H91739  11.134   9.218   7.108 -1.7227  0.4228  1.3004
  665MOL0     H91740  11.124   9.269   7.344 -1.0473 -0.5813 -0.5683
  665MOL0     H91741  11.233   9.134   7.374  1.9856  0.7492 -0.8266
  665MOL0     H91742  10.958   9.143   7.221  0.2101 -1.2409 -1.1732
  665MOL0     H91743  11.056   8.998   7.239  2.3875  1.4904  0.4041
  665MOL0     H91744  10.892   9.150   7.443  1.2208  1.1779 -0.2737
  665MOL0     H91745  11.008   9.026   7.493 -1.7049 -2.9592 -0.1998
  665MOL0     H91746  10.901   8.861   7.354 -1.0244 -0.9925 -0.7684
  665MOL0     H91747  10.788   8.977   7.299  0.8333  0.6017  0.6071
  665MOL0     H91748  10.786   8.914   7.599  1.5774 -0.0389 -0.5155
  665MOL0     H91749  10.678   8.850   7.467  1.0219 -0.5034 -1.6039
  665MOL0     H91750  11.445   9.523   6.838  0.4250 -1.6309  0.3331
  665MOL0     H91751  11.420   9.604   6.595 -0.3136  1.2760  0.3523
  665MOL0     H91752  11.032   9.651   6.271 -0.0359  0.7384  0.2289
  665MOL0     H91753  10.930   9.673   6.070 -1.8136 -2.3090  3.4401
  665MOL0     H91754   9.337   9.386   5.512 -3.1744  1.2041  0.1551
  665MOL0     H91755   9.104   9.350   5.577  0.2213  0.2578  2.1239
  665MOL0     H91756   8.777   8.965   5.728 -0.7560 -1.9254 -2.0042
  665MOL0     H91757   8.549   9.009   5.808 -0.6143  1.4402 -0.5874
  665MOL0     H91758   8.201   9.263   5.692 -0.2818 -1.8089 -0.1779
  665MOL0     H91759   8.334   9.294   5.571  1.5774  0.9584  0.6442
  665MOL0     H91760   8.257   9.094   5.440 -1.1901 -0.6194 -0.3487
  665MOL0     H91761   8.127   9.209   5.449  0.7733  0.9928 -2.3586
  665MOL0     H91762   8.154   8.975   5.639 -1.9683 -1.3412 -0.4883
  665MOL0     H91763   8.021   9.091   5.634  1.2485 -0.2563  3.1968
  665MOL0     H91764   8.122   8.920   5.398 -0.8028 -0.6931  0.7289
  665MOL0     H91765   7.966   9.010   5.402  0.7560  2.1329  0.3560
  665MOL0     H91766   7.879   8.660   5.628 -0.9701 -0.1796 -0.3488
  665MOL0     H91767   8.482   9.255   5.462  1.0113  2.2244  2.4574
  665MOL0     H91768   8.766   9.205   5.306 -2.1867 -2.3537  0.0837
  665MOL0     H91769   8.621   9.313   5.323 -1.7257 -1.2990 -0.2619
  665MOL0     H91770   8.767   9.359   5.398 -0.2111  0.3898  0.2017
  666MOL0     O91771   0.190   6.419  10.369  0.2901 -0.3021 -0.2725
  666MOL0     C91772   0.307   6.411  10.404 -0.5759 -0.2116 -0.0721
  666MOL0     O91773   0.390   6.511  10.455  0.2276 -0.0113 -0.9718
  666MOL0     C91774   0.356   6.641  10.454 -0.2758 -0.0847  0.2959
  666MOL0     C91775   0.286   6.710  10.358 -0.9051  0.2245  0.3860
  666MOL0     C91776   0.269   6.851  10.375 -0.4561  0.5877  0.9656
  666MOL0     C91777   0.333   6.928  10.475 -0.7675 -0.0764  0.3376
  666MOL0     O91778   0.347   7.063  10.478  0.4302  0.3804  0.1565
  666MOL0     C91779   0.281   7.140  10.379  0.0326  0.1047 -0.5365
  666MOL0     C91780   0.303   7.290  10.405  0.2483  0.1606 -0.1795
  666MOL0     C91781   0.224   7.344  10.521 -0.1307 -0.3054 -0.4550
  666MOL0     C91782   0.235   7.492  10.537 -1.0277 -0.4271  0.0538
  666MOL0     C91783   0.375   7.540  10.577  0.4055  0.2392  0.0805
  666MOL0     C91784   0.377   7.689  10.623 -1.3734  0.0025  0.7651
  666MOL0     C91785   0.511   7.721  10.685  0.3076 -0.5592 -0.1900
  666MOL0     C91786   0.515   7.866  10.736  0.4575  0.0916 -0.0423
  666MOL0     N91787   0.653   7.888  10.780  0.5972  0.0379  0.4549
  666MOL0     C91788   0.743   7.799  10.827  0.3194 -0.9482 -0.3354
  666MOL0     C91789   0.864   7.860  10.833  0.3468 -0.0422 -0.9707
  666MOL0     C91790   0.993   7.789  10.863 -0.0048 -0.2972 -0.1032
  666MOL0     C91791   1.097   7.878  10.918  0.4010 -0.6492  0.7304
  666MOL0     C91792   1.040   7.934  11.049  0.2535 -0.5001 -0.1642
  666MOL0     C91793   1.140   8.045  11.096 -0.2604  0.6450  0.4376
  666MOL0     O91794   1.082   8.117  11.211 -0.5409  0.0706 -0.0005
  666MOL0     C91795   1.159   8.217  11.268  0.6649  0.7658  0.2354
  666MOL0     C91796   1.267   8.260  11.193  0.0194 -0.2518  0.0518
  666MOL0     C91797   1.360   8.354  11.248  0.6637  0.0465  0.0304
  666MOL0     C91798   1.486   8.379  11.177  0.1790  0.3064 -1.2100
  666MOL0     C91799   1.333   8.409  11.377 -1.2729  1.0402  0.5749
  666MOL0     C91800   1.419   8.511  11.440 -0.2462 -1.2050 -0.5436
  666MOL0     O91801   1.409   8.515  11.571  0.5068  0.2196 -0.0156
  666MOL0     C91802   1.491   8.595  11.646  0.1883  1.2073  0.8486
  666MOL0     C91803   1.631   8.558  11.659 -0.5803 -0.1842  0.5410
  666MOL0     C91804   1.724   8.656  11.716  0.4081 -0.7873  0.4116
  666MOL0     C91805   1.674   8.770  11.782 -0.4491  0.3403 -0.4022
  666MOL0     O91806   1.764   8.840  11.860  0.3801  0.5105  0.2739
  666MOL0     C91807   1.716   8.958  11.923  0.2729 -0.2917 -0.2619
  666MOL0     C91808   1.648   8.930  12.064  0.7185  0.0711  0.2880
  666MOL0     C91809   1.595   9.070  12.123  1.1349 -0.1247  0.6495
  666MOL0     C91810   1.713   9.164  12.143  0.5396 -0.4855 -0.0227
  666MOL0     C91811   1.686   9.301  12.214  0.1709 -0.3995  0.3153
  666MOL0     C91812   1.815   9.354  12.280  0.0609  1.0386  0.4092
  666MOL0     C91813   1.777   9.441  12.408  0.5981  0.2399 -0.3406
  666MOL0     C91814   1.888   9.528  12.453  0.1902  0.5757 -0.4248
  666MOL0    Cl91815   1.947   9.651  12.342  0.2340  0.1845  0.2051
  666MOL0     C91816   1.534   8.796  11.780  0.4669  0.4575 -0.7155
  666MOL0     C91817   1.448   8.712  11.704  0.0330  0.5159  0.1101
  666MOL0     O91818   1.486   8.592  11.379 -0.5295 -0.4385  1.2534
  666MOL0     C91819   1.215   8.357  11.448  0.7174  0.3931  1.1931
  666MOL0     C91820   1.120   8.274  11.383 -0.1423 -0.5285  0.1302
  666MOL0     N91821   0.845   7.987  10.784  0.1092 -0.8788  0.4383
  666MOL0     N91822   0.719   8.005  10.752 -0.7306 -0.3135 -0.5260
  666MOL0     C91823   0.419   6.863  10.561 -0.2950 -0.5985 -0.2699
  666MOL0     C91824   0.416   6.722  10.561  0.3365  0.3285  0.5118
  666MOL0     C91825   0.369   6.277  10.393 -0.4214  1.6175  0.6105
  666MOL0     C91826   0.509   6.275  10.421  0.5558  0.3101 -0.2402
  666MOL0     C91827   0.576   6.153  10.408 -0.4553  0.3147  0.0842
  666MOL0     C91828   0.515   6.040  10.371 -0.0074 -0.0016 -0.1649
  666MOL0     O91829   0.599   5.929  10.373  0.4115  0.5080 -0.4903
  666MOL0     C91830   0.542   5.805  10.419  0.8056  0.0462 -0.2363
  666MOL0     C91831   0.550   5.710  10.298  0.5057  0.3881 -0.2949
  666MOL0     C91832   0.689   5.692  10.229  0.0669  0.3270 -0.1433
  666MOL0     C91833   0.667   5.602  10.095 -0.0426  0.3127 -0.3164
  666MOL0     C91834   0.790   5.598  10.010  0.2154 -0.4168  0.3417
  666MOL0     C91835   0.897   5.608   9.954 -0.7109  0.2800 -0.3307
  666MOL0     C91836   0.380   6.037  10.334  0.8536  0.4057 -0.6269
  666MOL0     C91837   0.304   6.152  10.357 -0.0327 -0.9574 -0.5852
  666MOL0     C91838   0.156   6.140  10.341 -0.0250 -0.3005 -0.2653
  666MOL0     H91839   0.234   6.656  10.280 -2.8137 -0.3962  1.9958
  666MOL0     H91840   0.215   6.902  10.296 -0.7343 -0.1125  0.6995
  666MOL0     H91841   0.176   7.113  10.370  0.0287  0.5945 -2.3347
  666MOL0     H91842   0.317   7.130  10.276 -1.3068  2.6885 -1.3344
  666MOL0     H91843   0.411   7.302  10.409  0.4763 -1.3790 -0.8522
  666MOL0     H91844   0.264   7.343  10.318 -1.0227 -0.4157  0.0126
  666MOL0     H91845   0.115   7.330  10.513 -1.0649  5.2734 -1.4926
  666MOL0     H91846   0.250   7.291  10.613  0.6948 -0.9682 -1.0575
  666MOL0     H91847   0.210   7.538  10.442 -0.4549  0.2049  0.2020
  666MOL0     H91848   0.161   7.527  10.610  0.1674 -1.1669  1.7109
  666MOL0     H91849   0.442   7.536  10.491  0.5570 -0.2380  0.2145
  666MOL0     H91850   0.419   7.481  10.658 -1.7452 -2.8710 -0.8047
  666MOL0     H91851   0.359   7.757  10.539 -0.8107 -1.1437 -0.3166
  666MOL0     H91852   0.295   7.699  10.694 -2.4779  0.0514 -0.4685
  666MOL0     H91853   0.588   7.712  10.608 -0.9320  0.4387 -1.5853
  666MOL0     H91854   0.522   7.657  10.774 -0.3442 -1.2400 -0.5829
  666MOL0     H91855   0.486   7.941  10.662  0.0917 -0.0995 -0.0944
  666MOL0     H91856   0.445   7.877  10.820  1.1661  1.5310  0.4000
  666MOL0     H91857   0.733   7.695  10.854 -1.9808 -0.7472 -0.2021
  666MOL0     H91858   1.038   7.735  10.780  2.3437 -1.6314  1.9297
  666MOL0     H91859   0.970   7.714  10.939 -0.7774  0.0575  0.0252
  666MOL0     H91860   1.186   7.816  10.932  1.3761  0.3329 -0.7572
  666MOL0     H91861   1.115   7.956  10.843 -4.2922 -1.1406 -1.2491
  666MOL0     H91862   0.942   7.979  11.036  0.6849  0.1803 -1.2780
  666MOL0     H91863   1.031   7.854  11.123 -0.3476  0.2281  0.5588
  666MOL0     H91864   1.239   8.002  11.117 -1.5303 -1.4584  2.4680
  666MOL0     H91865   1.149   8.116  11.013  2.1716 -1.8085 -1.5858
  666MOL0     H91866   1.296   8.224  11.095  1.3855 -1.0216  0.7117
  666MOL0     H91867   1.484   8.472  11.120  0.8035  0.0902 -1.5942
  666MOL0     H91868   1.514   8.294  11.115  3.9370  2.5633 -2.9499
  666MOL0     H91869   1.577   8.382  11.237 -1.0171  1.8404  0.6608
  666MOL0     H91870   1.653   8.464  11.609 -1.6056 -0.3253  0.3349
  666MOL0     H91871   1.830   8.633  11.719  0.5255 -0.2052  2.5354
  666MOL0     H91872   1.808   9.013  11.947  0.0131 -0.2503  0.6511
  666MOL0     H91873   1.664   9.023  11.852  0.4580  1.0825  0.8051
  666MOL0     H91874   1.567   8.859  12.044  0.9100 -0.1521  0.3055
  666MOL0     H91875   1.718   8.881  12.132  1.6161  0.8228 -0.0760
  666MOL0     H91876   1.543   9.052  12.217  1.0557  1.6882  0.9891
  666MOL0     H91877   1.517   9.104  12.054 -1.2155 -0.4491  2.9686
  666MOL0     H91878   1.778   9.178  12.056  0.9497 -0.5991  0.2677
  666MOL0     H91879   1.773   9.101  12.208  1.5185 -2.7247 -2.8624
  666MOL0     H91880   1.649   9.362  12.131  1.8249 -1.0142 -0.9182
  666MOL0     H91881   1.604   9.287  12.285  0.9959  0.3778  1.4714
  666MOL0     H91882   1.871   9.412  12.207  0.6546 -3.2633 -3.0295
  666MOL0     H91883   1.885   9.278  12.316 -0.2777  1.3367  1.7732
  666MOL0     H91884   1.749   9.381  12.494 -0.2666 -0.1600 -0.8889
  666MOL0     H91885   1.690   9.502  12.382 -1.8874 -2.7380  0.3570
  666MOL0     H91886   1.971   9.458  12.465 -0.9969 -0.9483 -0.7295
  666MOL0     H91887   1.851   9.585  12.538 -0.2367 -2.0151  1.2357
  666MOL0     H91888   1.494   8.877  11.839  2.0477  1.2898 -0.7353
  666MOL0     H91889   1.344   8.743  11.695 -1.3286 -3.1919  1.1704
  666MOL0     H91890   1.184   8.392  11.546  1.1153 -0.2722  1.5743
  666MOL0     H91891   1.026   8.249  11.430  0.5934 -2.0803  0.8596
  666MOL0     H91892   0.474   6.914  10.640  0.7240 -0.6531 -0.9278
  666MOL0     H91893   0.473   6.668  10.636  2.2643  1.4980 -0.0357
  666MOL0     H91894   0.577   6.358  10.435  0.9899  0.4288 -2.5841
  666MOL0     H91895   0.679   6.133  10.434  0.0029 -0.7843 -2.3055
  666MOL0     H91896   0.612   5.780  10.500 -0.8812  1.6217  1.8494
  666MOL0     H91897   0.442   5.795  10.463  1.1742  0.1789  0.6618
  666MOL0     H91898   0.478   5.758  10.231 -2.1752 -1.0196  1.3908
  666MOL0     H91899   0.521   5.611  10.335 -0.2661 -0.1815 -2.3173
  666MOL0     H91900   0.735   5.788  10.202  0.5876 -0.1921 -1.1786
  666MOL0     H91901   0.749   5.631  10.298 -3.2956 -3.5256 -0.2672
  666MOL0     H91902   0.586   5.642  10.034 -0.9413 -1.8958 -0.6550
  666MOL0     H91903   0.637   5.501  10.126 -0.2919 -0.4406 -2.8081
  666MOL0     H91904   0.990   5.622   9.901 -0.6724 -2.2866 -1.0569
  666MOL0     H91905   0.342   5.947  10.287 -3.5986  1.2702  0.8509
  666MOL0     H91906   0.103   6.184  10.426  0.1703 -3.7258  1.8413
  666MOL0     H91907   0.119   6.191  10.252  2.7657 -0.2867 -1.5323
  666MOL0     H91908   0.124   6.035  10.341 -0.1914 -0.2494 -0.2486
  667MOL0     O91909   0.964   5.765  11.157  0.2053  0.2831 -0.2388
  667MOL0     C91910   0.890   5.760  11.055 -0.2271 -0.1307  0.8021
  667MOL0     O91911   0.759   5.745  11.058 -0.0071  0.2935  0.1289
  667MOL0     C91912   0.680   5.758  11.169 -0.1188 -0.5290  0.2091
  667MOL0     C91913   0.666   5.879  11.233  0.7453  0.4149  0.8539
  667MOL0     C91914   0.614   5.884  11.365  0.6383 -0.5118 -0.0589
  667MOL0     C91915   0.570   5.768  11.429  0.1597 -0.0968 -0.0223
  667MOL0     O91916   0.522   5.774  11.557 -0.5698 -0.0285 -0.6031
  667MOL0     C91917   0.414   5.862  11.567  0.2591 -0.2714 -0.2284
  667MOL0     C91918   0.431   6.000  11.635 -0.0131 -0.7987  0.3370
  667MOL0     C91919   0.521   6.007  11.759 -0.0150  0.8942 -0.4234
  667MOL0     C91920   0.672   6.022  11.738  0.5859 -0.2139  0.3946
  667MOL0     C91921   0.754   6.016  11.873 -0.1186  0.9696 -0.0531
  667MOL0     C91922   0.908   6.020  11.847  0.3627  0.8722  0.6806
  667MOL0     C91923   0.964   6.158  11.814  0.6579 -0.0630  1.0970
  667MOL0     C91924   1.115   6.159  11.780 -0.8956 -1.1635 -0.3424
  667MOL0     N91925   1.165   6.302  11.772  0.0463  0.2592 -0.0708
  667MOL0     C91926   1.233   6.341  11.657 -0.5828 -0.3462  0.3077
  667MOL0     C91927   1.230   6.476  11.659 -0.2862 -0.1171 -0.4073
  667MOL0     C91928   1.264   6.562  11.543 -0.8362  0.4084 -0.5087
  667MOL0     C91929   1.143   6.601  11.457  0.1254  0.0971  0.3702
  667MOL0     C91930   1.183   6.657  11.320 -0.1089  0.0635 -0.3387
  667MOL0     C91931   1.067   6.706  11.234  0.4473 -0.5373  0.1902
  667MOL0     O91932   1.053   6.614  11.121 -0.3208 -0.4707  0.5577
  667MOL0     C91933   1.136   6.621  11.011  0.0430 -0.3154  0.0528
  667MOL0     C91934   1.244   6.714  11.004 -0.7433 -0.5462 -0.9490
  667MOL0     C91935   1.323   6.730  10.890 -0.0134 -0.0795 -0.2810
  667MOL0     C91936   1.428   6.827  10.886 -0.9319 -0.2169  0.7325
  667MOL0     C91937   1.296   6.652  10.778 -0.5157  0.0226 -0.1557
  667MOL0     C91938   1.390   6.647  10.659 -0.7639  0.0148  0.8740
  667MOL0     O91939   1.328   6.631  10.538  0.0171  0.0875 -0.5787
  667MOL0     C91940   1.402   6.597  10.433  0.1977 -0.3895  0.1939
  667MOL0     C91941   1.434   6.703  10.354 -0.7702 -0.3543 -0.4714
  667MOL0     C91942   1.509   6.690  10.240  0.6959  0.3531  0.1221
  667MOL0     C91943   1.565   6.557  10.215  0.1566 -1.4015  0.5915
  667MOL0     O91944   1.631   6.526  10.091 -0.0746  0.3236 -0.5664
  667MOL0     C91945   1.682   6.628  10.013  0.6001 -0.6880  0.0168
  667MOL0     C91946   1.795   6.563   9.934 -0.7167 -0.1708  0.4770
  667MOL0     C91947   1.750   6.517   9.795 -0.4863 -1.1331  0.3245
  667MOL0     C91948   1.664   6.395   9.787  0.3519 -0.2397 -0.2334
  667MOL0     C91949   1.631   6.379   9.639  0.0675 -0.4950 -0.5581
  667MOL0     C91950   1.600   6.236   9.586 -0.1478  0.0969  2.0659
  667MOL0     C91951   1.581   6.234   9.438 -0.0339  0.0082 -0.2428
  667MOL0     C91952   1.544   6.099   9.368  0.5905  0.5226  0.0731
  667MOL0    Cl91953   1.391   6.031   9.428  0.0841 -0.0707  0.4408
  667MOL0     C91954   1.528   6.451  10.289  0.5788  0.8097 -0.1011
  667MOL0     C91955   1.445   6.468  10.401 -0.0580 -0.7685 -0.6163
  667MOL0     O91956   1.512   6.635  10.676  1.1773 -0.0510  0.0304
  667MOL0     C91957   1.190   6.560  10.782  0.1113  0.3353  0.3416
  667MOL0     C91958   1.110   6.543  10.900  0.2800 -0.2885 -0.2917
  667MOL0     N91959   1.189   6.512  11.788  0.1240  0.5899 -0.0916
  667MOL0     N91960   1.150   6.408  11.856  0.0736  0.0815 -0.6409
  667MOL0     C91961   0.568   5.647  11.355 -0.2004 -0.6288 -0.2906
  667MOL0     C91962   0.634   5.647  11.238  0.3507  0.2545  0.7585
  667MOL0     C91963   0.940   5.791  10.920  0.2802 -0.2084  0.5947
  667MOL0     C91964   0.846   5.803  10.817 -0.1008 -0.2073  0.3185
  667MOL0     C91965   0.886   5.829  10.687 -0.2465 -0.0286  0.1675
  667MOL0     C91966   1.023   5.844  10.650  0.5740 -0.0412 -0.5610
  667MOL0     O91967   1.078   5.847  10.528 -0.5651 -0.8174  0.7856
  667MOL0     C91968   0.989   5.845  10.419 -0.4281  0.1105  0.7078
  667MOL0     C91969   1.055   5.830  10.286  0.5406  0.2755  0.7894
  667MOL0     C91970   1.152   5.938  10.230  0.0582  0.6945  1.2726
  667MOL0     C91971   1.118   6.079  10.265  0.2058  0.1586  0.6714
  667MOL0     C91972   0.989   6.122  10.206 -0.8794 -0.0192 -0.2954
  667MOL0     C91973   0.884   6.161  10.173  0.2193 -0.4633  0.4275
  667MOL0     C91974   1.120   5.845  10.750  0.1544 -0.4164 -0.8727
  667MOL0     C91975   1.078   5.819  10.881  0.0177 -0.6391 -0.7150
  667MOL0     C91976   1.184   5.841  10.987 -0.4329 -0.4000  0.2810
  667MOL0     H91977   0.697   5.970  11.183 -0.2365  0.7851  0.8852
  667MOL0     H91978   0.603   5.976  11.422 -1.0781 -0.1329 -0.9336
  667MOL0     H91979   0.351   5.804  11.637  0.7532 -0.5127  0.0197
  667MOL0     H91980   0.353   5.867  11.476  1.8205 -1.8017 -1.4100
  667MOL0     H91981   0.489   6.070  11.573  1.2360 -0.9092  1.3281
  667MOL0     H91982   0.335   6.049  11.648 -0.3446 -0.5974 -2.2976
  667MOL0     H91983   0.503   6.091  11.826 -0.3281 -1.4897  2.7393
  667MOL0     H91984   0.503   5.918  11.821  1.3678  0.9251  0.0610
  667MOL0     H91985   0.701   5.932  11.682  1.4494 -1.1946  2.3038
  667MOL0     H91986   0.694   6.113  11.683 -0.8348  0.6448  1.1841
  667MOL0     H91987   0.731   5.916  11.912 -2.0759  1.3990 -0.0407
  667MOL0     H91988   0.717   6.085  11.949 -1.1355  0.2232  0.1516
  667MOL0     H91989   0.968   5.984  11.931 -0.0157 -0.0678  0.5531
  667MOL0     H91990   0.920   5.946  11.767 -0.9337 -0.6906  1.8855
  667MOL0     H91991   0.949   6.229  11.896 -1.7114 -0.8946  1.4457
  667MOL0     H91992   0.918   6.201  11.725  3.1868  0.2255 -0.1591
  667MOL0     H91993   1.181   6.102  11.847 -0.5249  0.0375  0.3462
  667MOL0     H91994   1.130   6.111  11.683 -0.7568  1.2805 -1.6059
  667MOL0     H91995   1.277   6.294  11.570  0.8071  1.3909  0.0305
  667MOL0     H91996   1.331   6.506  11.477 -0.2891 -1.6330  1.6783
  667MOL0     H91997   1.316   6.650  11.584  1.8546 -0.6875 -1.3504
  667MOL0     H91998   1.083   6.510  11.458  0.3924 -0.0862  1.7148
  667MOL0     H91999   1.096   6.681  11.515 -1.0360 -1.6250  1.9049
  667MOL0     H92000   1.238   6.748  11.348  0.8792  0.0011 -1.9518
  667MOL0     H92001   1.257   6.592  11.273 -0.1798 -0.5165  0.3374
  667MOL0     H92002   0.976   6.708  11.294  0.8035  1.3742  0.7676
  667MOL0     H92003   1.085   6.810  11.205 -2.0577 -0.0591  0.1841
  667MOL0     H92004   1.290   6.765  11.088  0.2974 -1.7850 -0.7326
  667MOL0     H92005   1.525   6.780  10.901 -1.9023 -3.1794 -1.4924
  667MOL0     H92006   1.406   6.902  10.963 -2.9003  0.7541 -0.6837
  667MOL0     H92007   1.437   6.880  10.790 -1.2160 -0.7367  0.4182
  667MOL0     H92008   1.391   6.798  10.385 -1.1369 -0.1399 -1.5701
  667MOL0     H92009   1.532   6.776  10.179  1.2501 -0.0777 -0.2966
  667MOL0     H92010   1.603   6.669   9.950  0.3176  0.2815  0.9697
  667MOL0     H92011   1.732   6.709  10.066  1.0458 -1.1078  0.2452
  667MOL0     H92012   1.887   6.622   9.925  0.4031 -1.2792  3.2681
  667MOL0     H92013   1.823   6.469   9.983  1.5649  0.4552  0.4918
  667MOL0     H92014   1.838   6.501   9.732 -1.0222 -1.0273 -0.4658
  667MOL0     H92015   1.706   6.604   9.746 -0.1111 -0.0089  1.8977
  667MOL0     H92016   1.567   6.408   9.837  0.1688 -0.8587 -0.4222
  667MOL0     H92017   1.716   6.310   9.832  2.7086  0.6003 -1.1955
  667MOL0     H92018   1.549   6.450   9.622  1.0214  0.5556 -0.8261
  667MOL0     H92019   1.709   6.417   9.573 -1.0236  0.7469 -1.1831
  667MOL0     H92020   1.508   6.204   9.637  1.1812 -1.9016  3.3385
  667MOL0     H92021   1.688   6.174   9.605  0.7696  0.3540 -0.8510
  667MOL0     H92022   1.667   6.278   9.388 -1.3790  0.2123 -2.5256
  667MOL0     H92023   1.503   6.308   9.418 -0.4192  0.2464  1.9021
  667MOL0     H92024   1.623   6.025   9.385 -0.6706 -0.7675  0.4263
  667MOL0     H92025   1.531   6.131   9.264 -1.4672  1.6152  0.6248
  667MOL0     H92026   1.554   6.348  10.266 -2.8709 -0.5403  1.3596
  667MOL0     H92027   1.416   6.384  10.463  0.1931  0.9379  1.9313
  667MOL0     H92028   1.184   6.493  10.697  0.5157  0.2328  0.3887
  667MOL0     H92029   1.042   6.459  10.914 -0.8682  0.7398  0.6060
  667MOL0     H92030   0.525   5.557  11.397 -0.5193  0.1203  1.0356
  667MOL0     H92031   0.632   5.546  11.198 -0.0058 -0.8460  3.3620
  667MOL0     H92032   0.742   5.779  10.838  0.2293 -0.3891  1.8794
  667MOL0     H92033   0.807   5.834  10.612 -0.3836  0.1106  0.3178
  667MOL0     H92034   0.913   5.767  10.423 -0.0197 -0.4202 -1.0463
  667MOL0     H92035   0.941   5.943  10.421 -0.9561 -0.1236 -0.1451
  667MOL0     H92036   0.977   5.830  10.209  1.4231  0.2319 -0.1388
  667MOL0     H92037   1.102   5.732  10.300  0.3206  0.3268  1.9149
  667MOL0     H92038   1.252   5.916  10.267  0.2972  0.9324  0.7689
  667MOL0     H92039   1.169   5.927  10.123  3.6358  0.7096  1.7313
  667MOL0     H92040   1.194   6.149  10.228  0.4003  0.1670  1.0833
  667MOL0     H92041   1.110   6.080  10.374  0.3072 -1.9786  0.7280
  667MOL0     H92042   0.793   6.211  10.145  0.9743  2.4363  2.5823
  667MOL0     H92043   1.222   5.866  10.718 -0.1223 -0.6136 -1.9248
  667MOL0     H92044   1.232   5.745  11.006  1.3102  0.9552  3.5374
  667MOL0     H92045   1.249   5.913  10.936 -1.1226  1.0883  1.4088
  667MOL0     H92046   1.146   5.893  11.076 -3.0537  1.3673 -1.6886
  668MOL0     O92047   4.569   6.383   4.732  0.5944  0.4428 -0.0747
  668MOL0     C92048   4.545   6.263   4.769  0.3187 -0.2630 -0.9107
  668MOL0     O92049   4.628   6.179   4.830  0.6994 -1.3371 -0.0029
  668MOL0     C92050   4.715   6.244   4.912  1.1052  0.0604 -0.5898
  668MOL0     C92051   4.834   6.177   4.916  0.2331  0.0002 -0.1676
  668MOL0     C92052   4.947   6.236   4.982  0.1740 -0.1804 -1.3935
  668MOL0     C92053   4.933   6.354   5.050  0.5165 -0.7361 -0.4169
  668MOL0     O92054   5.030   6.421   5.111 -0.3972  0.0909 -0.2704
  668MOL0     C92055   5.126   6.449   5.012  0.1234 -0.3289  0.2025
  668MOL0     C92056   5.209   6.560   5.076 -0.6526 -0.0210  0.0364
  668MOL0     C92057   5.358   6.557   5.033  0.3199 -0.8903 -0.4266
  668MOL0     C92058   5.429   6.664   5.112  0.1229  0.7605 -0.3724
  668MOL0     C92059   5.573   6.697   5.070 -0.0123 -0.3134 -0.5160
  668MOL0     C92060   5.678   6.589   5.110 -0.7922  0.2168 -0.1475
  668MOL0     C92061   5.820   6.633   5.094  0.5555 -0.7262 -0.4963
  668MOL0     C92062   5.942   6.542   5.111  0.6350 -0.7728 -0.1824
  668MOL0     N92063   6.071   6.573   5.062 -0.1526 -0.6806 -0.0921
  668MOL0     C92064   6.152   6.665   5.125  0.0909  0.7045 -1.3735
  668MOL0     C92065   6.274   6.644   5.084 -0.8645  0.9682 -0.7957
  668MOL0     C92066   6.403   6.724   5.113 -0.2864  0.0026 -0.3891
  668MOL0     C92067   6.524   6.632   5.098  0.4853  0.0099 -0.2896
  668MOL0     C92068   6.528   6.508   5.194 -0.0393 -0.8926 -0.4608
  668MOL0     C92069   6.528   6.545   5.351 -0.0280  0.7809 -0.0928
  668MOL0     O92070   6.389   6.584   5.391 -0.2197 -0.0511  0.2560
  668MOL0     C92071   6.306   6.485   5.423 -0.2602  0.0305  1.0415
  668MOL0     C92072   6.329   6.346   5.425 -0.1596 -0.1109  1.3788
  668MOL0     C92073   6.244   6.246   5.475 -0.6112  0.9355  0.8992
  668MOL0     C92074   6.295   6.108   5.468  0.0934  0.2863  0.3587
  668MOL0     C92075   6.119   6.293   5.519  0.5508  0.2519 -0.7852
  668MOL0     C92076   6.008   6.205   5.585  0.3241  0.4958 -0.7912
  668MOL0     O92077   5.892   6.266   5.623 -0.4545  0.6465  0.0800
  668MOL0     C92078   5.785   6.210   5.686  0.1173 -0.5873  0.2897
  668MOL0     C92079   5.684   6.296   5.733 -0.3906  0.8555  0.1963
  668MOL0     C92080   5.572   6.237   5.797  0.6263  0.0880 -0.6268
  668MOL0     C92081   5.547   6.102   5.817  1.5021  0.0416 -0.0542
  668MOL0     O92082   5.441   6.046   5.885 -0.4558  0.0420 -0.8661
  668MOL0     C92083   5.368   6.134   5.977  0.2577 -0.3217  0.1166
  668MOL0     C92084   5.461   6.198   6.086  0.5042  0.2381  0.0006
  668MOL0     C92085   5.481   6.105   6.203 -0.6597  0.3011 -0.4559
  668MOL0     C92086   5.566   6.169   6.305  0.4601 -0.7027  0.1644
  668MOL0     C92087   5.602   6.061   6.402  0.3636 -0.1768  0.3309
  668MOL0     C92088   5.698   6.114   6.509 -0.4466  0.2334 -0.0516
  668MOL0     C92089   5.847   6.096   6.463 -0.0298 -0.5599 -0.1931
  668MOL0     C92090   5.940   6.157   6.568 -0.6909  0.2865 -0.3133
  668MOL0    Cl92091   5.942   6.047   6.709 -0.2931 -0.1820  0.7409
  668MOL0     C92092   5.645   6.023   5.773  0.1105 -0.0111 -0.9732
  668MOL0     C92093   5.762   6.069   5.709 -0.1681 -0.6484 -0.1276
  668MOL0     O92094   6.025   6.087   5.583 -0.2307 -0.4622  0.0705
  668MOL0     C92095   6.087   6.429   5.508 -0.3529  0.2795  0.1111
  668MOL0     C92096   6.178   6.520   5.465 -0.7585 -0.2179  0.0390
  668MOL0     N92097   6.268   6.544   4.993  0.5250  0.3483 -0.5580
  668MOL0     N92098   6.148   6.502   4.974 -0.3288 -0.3377 -0.7404
  668MOL0     C92099   4.808   6.420   5.055  0.3816  0.2499 -0.6474
  668MOL0     C92100   4.691   6.368   4.983  0.4942  0.0445  0.5972
  668MOL0     C92101   4.413   6.210   4.752 -0.0324  0.0634 -0.0861
  668MOL0     C92102   4.370   6.118   4.855 -1.0276 -0.4078 -0.3794
  668MOL0     C92103   4.254   6.045   4.845 -0.4863  0.9343 -0.1077
  668MOL0     C92104   4.169   6.053   4.733 -0.2937  0.1986 -0.2116
  668MOL0     O92105   4.061   5.973   4.722 -0.6159  0.6518 -0.1402
  668MOL0     C92106   3.969   5.985   4.825 -0.1179 -0.4788 -0.6466
  668MOL0     C92107   3.923   5.849   4.872 -0.0352 -0.6379  0.1527
  668MOL0     C92108   4.030   5.741   4.884 -0.4431 -0.2560 -0.2328
  668MOL0     C92109   4.096   5.738   5.029  0.0594 -0.0090  0.2951
  668MOL0     C92110   4.203   5.643   5.044 -0.4572  0.9257  0.8818
  668MOL0     C92111   4.303   5.567   5.046  0.5475  0.1259 -0.1749
  668MOL0     C92112   4.215   6.134   4.621 -0.2310  0.5093  0.7396
  668MOL0     C92113   4.337   6.214   4.632  0.2688 -0.2232  0.0332
  668MOL0     C92114   4.392   6.282   4.515  0.5198  0.3777  1.0490
  668MOL0     H92115   4.844   6.079   4.871  0.5370 -0.2005  0.3305
  668MOL0     H92116   5.041   6.182   4.973 -0.4065 -1.0592 -2.7018
  668MOL0     H92117   5.079   6.487   4.920 -0.2038 -0.6590  0.2321
  668MOL0     H92118   5.178   6.353   5.001 -0.9135 -1.0362  1.2889
  668MOL0     H92119   5.165   6.655   5.044 -1.9969 -0.6237  0.0245
  668MOL0     H92120   5.204   6.550   5.185 -1.9189  0.9833  0.0990
  668MOL0     H92121   5.405   6.461   5.060 -2.2399 -1.2536  3.4061
  668MOL0     H92122   5.366   6.578   4.926  2.5293  1.9537  0.1845
  668MOL0     H92123   5.371   6.757   5.103 -0.6996  0.3658  0.6262
  668MOL0     H92124   5.438   6.631   5.216  0.9979  0.4524 -0.5414
  668MOL0     H92125   5.608   6.785   5.125  3.4714 -3.7529  3.5018
  668MOL0     H92126   5.566   6.727   4.965 -0.6187  2.7611  0.2888
  668MOL0     H92127   5.673   6.561   5.215  1.9036 -3.0072 -0.7344
  668MOL0     H92128   5.672   6.495   5.054  0.7569  2.1861 -4.0173
  668MOL0     H92129   5.842   6.722   5.153 -2.5021 -1.1793  1.5548
  668MOL0     H92130   5.811   6.677   4.994  2.2624  0.4995 -0.1528
  668MOL0     H92131   5.954   6.527   5.219  0.0026  1.6329  0.2774
  668MOL0     H92132   5.905   6.446   5.073 -0.2849 -0.1759 -0.8171
  668MOL0     H92133   6.107   6.725   5.203 -1.3459  2.1174 -3.2006
  668MOL0     H92134   6.409   6.777   5.208  3.3865 -0.7143 -0.0710
  668MOL0     H92135   6.411   6.796   5.031 -0.7254  1.7734  1.0629
  668MOL0     H92136   6.532   6.590   4.997 -2.6020  1.7347 -1.4035
  668MOL0     H92137   6.618   6.683   5.120  0.6114 -0.1026 -0.5591
  668MOL0     H92138   6.454   6.431   5.171  0.2728 -1.6512  0.9744
  668MOL0     H92139   6.627   6.465   5.181  0.0689  0.0191 -3.5201
  668MOL0     H92140   6.563   6.459   5.408  0.5637 -1.1088 -3.1281
  668MOL0     H92141   6.604   6.621   5.373  0.0781  0.6773 -0.1059
  668MOL0     H92142   6.428   6.306   5.404 -0.2287 -0.5559  1.8935
  668MOL0     H92143   6.376   6.111   5.395 -1.1873  1.9297 -1.0753
  668MOL0     H92144   6.225   6.038   5.420  1.6977  0.1673 -1.9585
  668MOL0     H92145   6.321   6.071   5.568  1.3964 -0.5778 -0.2677
  668MOL0     H92146   5.694   6.397   5.694 -1.6923  0.2085 -1.9878
  668MOL0     H92147   5.499   6.313   5.823 -0.1396 -0.8696  0.0992
  668MOL0     H92148   5.319   6.206   5.911  0.0543 -1.1172 -0.6272
  668MOL0     H92149   5.281   6.080   6.015 -0.4589  0.0795 -0.9011
  668MOL0     H92150   5.561   6.218   6.046  0.0470  1.3864 -0.6050
  668MOL0     H92151   5.408   6.291   6.111 -0.5199 -0.3724  0.1320
  668MOL0     H92152   5.528   6.011   6.172 -0.7764 -0.2489  0.9630
  668MOL0     H92153   5.384   6.090   6.252 -0.4503  0.3742 -0.0122
  668MOL0     H92154   5.509   6.246   6.358  1.3111 -0.8578  1.3181
  668MOL0     H92155   5.659   6.205   6.259  0.4044 -1.6867 -0.7705
  668MOL0     H92156   5.516   6.019   6.455  0.9889 -3.4158 -1.0230
  668MOL0     H92157   5.647   5.977   6.349  0.5627  0.0063  0.2068
  668MOL0     H92158   5.687   6.042   6.591  0.3322 -1.0315 -1.0169
  668MOL0     H92159   5.670   6.211   6.552 -0.1472  1.8350 -3.1992
  668MOL0     H92160   5.860   6.131   6.360 -1.0333  0.4733  0.0080
  668MOL0     H92161   5.871   5.990   6.470 -3.6205 -1.4883 -0.1747
  668MOL0     H92162   5.916   6.260   6.595  1.6414  0.9623 -0.6460
  668MOL0     H92163   6.042   6.146   6.530 -0.1321  0.5075  1.0423
  668MOL0     H92164   5.639   5.916   5.791  0.9580  0.3331  1.9295
  668MOL0     H92165   5.830   5.991   5.676  0.3370 -0.9615  1.5373
  668MOL0     H92166   5.996   6.477   5.541 -0.7400  0.5862 -1.3204
  668MOL0     H92167   6.148   6.623   5.484  1.6271  0.7119 -0.9008
  668MOL0     H92168   4.807   6.511   5.112 -0.5203 -0.1933  0.0660
  668MOL0     H92169   4.603   6.431   4.974  1.9089  2.1349  0.6659
  668MOL0     H92170   4.436   6.109   4.940 -2.7153  0.9942  1.1374
  668MOL0     H92171   4.230   5.979   4.928  1.7910  1.4662  1.0388
  668MOL0     H92172   4.007   6.042   4.910 -1.3321 -2.7539  1.5491
  668MOL0     H92173   3.883   6.045   4.794  1.2370  1.7512 -0.2726
  668MOL0     H92174   3.848   5.814   4.801  0.6695  2.7688 -2.5561
  668MOL0     H92175   3.886   5.855   4.975  4.4024 -3.5011  2.2628
  668MOL0     H92176   3.975   5.648   4.873  0.4027 -0.8172  0.1498
  668MOL0     H92177   4.106   5.738   4.805 -0.1564  0.6454 -0.0047
  668MOL0     H92178   4.018   5.718   5.103 -1.6997  3.3557 -0.4440
  668MOL0     H92179   4.147   5.832   5.053  2.4508 -1.2373  0.3657
  668MOL0     H92180   4.388   5.502   5.046 -0.5887 -1.4063 -0.1082
  668MOL0     H92181   4.149   6.140   4.536 -2.1982  0.4609  2.1857
  668MOL0     H92182   4.496   6.252   4.504  0.2179 -0.3706 -0.0044
  668MOL0     H92183   4.342   6.243   4.426 -1.1714  2.0406  1.2114
  668MOL0     H92184   4.380   6.391   4.514  1.4747  0.4927  1.3052
  669MOL0     O92185   4.388   0.219   8.354 -0.1823 -0.5919  0.4397
  669MOL0     C92186   4.425   0.216   8.477  0.6103 -0.2634  0.1097
  669MOL0     O92187   4.534   0.277   8.527  0.0800  0.0079  0.5371
  669MOL0     C92188   4.610   0.343   8.437 -0.7906 -0.6708  1.0077
  669MOL0     C92189   4.630   0.488   8.430 -0.1789  0.0384 -0.0059
  669MOL0     C92190   4.724   0.543   8.334 -0.2878  0.2642 -0.7776
  669MOL0     C92191   4.809   0.465   8.252 -0.1315 -0.0580 -0.6741
  669MOL0     O92192   4.893   0.508   8.154  0.2290  0.4218 -0.6696
  669MOL0     C92193   4.969   0.629   8.176 -0.0777 -0.0376  0.2000
  669MOL0     C92194   5.091   0.643   8.072  0.2555  0.8565 -0.5406
  669MOL0     C92195   5.186   0.766   8.097 -0.6330 -0.3168 -0.7180
  669MOL0     C92196   5.319   0.771   8.018 -0.2251  0.1571  0.3590
  669MOL0     C92197   5.386   0.907   8.004  0.3180  0.1563 -0.2225
  669MOL0     C92198   5.537   0.883   7.966  0.8843  0.4210 -0.0798
  669MOL0     C92199   5.600   1.017   7.924 -1.0186 -0.0428  0.0802
  669MOL0     C92200   5.742   0.997   7.884 -0.6993  0.8296 -0.2382
  669MOL0     N92201   5.826   1.003   8.003 -0.9312 -0.2700  0.4199
  669MOL0     C92202   5.964   1.026   7.997  1.4096  0.0653  0.6035
  669MOL0     C92203   6.011   1.032   8.122 -0.0247 -0.2502  1.0121
  669MOL0     C92204   6.153   1.060   8.153 -0.3601 -0.5236 -0.0162
  669MOL0     C92205   6.188   1.213   8.148 -0.5835  0.5863 -0.0781
  669MOL0     C92206   6.217   1.279   8.011 -0.4348 -1.0839 -0.1068
  669MOL0     C92207   6.314   1.397   8.004  0.1333  0.7499  0.3868
  669MOL0     O92208   6.450   1.373   8.040 -0.0018  0.2069  0.1726
  669MOL0     C92209   6.546   1.367   7.940 -0.3135 -0.5258 -0.8933
  669MOL0     C92210   6.670   1.402   7.979 -0.5744  1.0669 -0.0788
  669MOL0     C92211   6.772   1.408   7.885  0.1245  1.2293 -0.4282
  669MOL0     C92212   6.905   1.464   7.936 -0.9593 -0.4259 -0.4282
  669MOL0     C92213   6.747   1.359   7.747 -0.4626  0.9573 -0.8480
  669MOL0     C92214   6.848   1.357   7.643 -0.4652  1.6213  0.1436
  669MOL0     O92215   6.797   1.313   7.520 -0.2514 -0.5699 -0.0290
  669MOL0     C92216   6.889   1.297   7.424  0.7376 -0.4408  0.3356
  669MOL0     C92217   6.932   1.402   7.338  0.6483 -0.0144 -1.0814
  669MOL0     C92218   7.017   1.383   7.224  0.8919  0.2889 -0.0146
  669MOL0     C92219   7.065   1.254   7.205  0.1827  1.4459  1.0197
  669MOL0     O92220   7.152   1.210   7.111 -0.3272 -0.1758  0.0313
  669MOL0     C92221   7.178   1.287   6.987  0.7498 -0.7813  0.4855
  669MOL0     C92222   7.297   1.367   7.022 -0.4941  0.4638 -0.7622
  669MOL0     C92223   7.427   1.294   6.989  0.5988 -1.1806  0.2003
  669MOL0     C92224   7.544   1.351   7.078 -0.2616 -0.6503 -0.1950
  669MOL0     C92225   7.673   1.292   7.027 -0.4831 -0.1795 -0.3997
  669MOL0     C92226   7.803   1.290   7.126  0.9432  0.5424  0.4026
  669MOL0     C92227   7.923   1.255   7.032  0.1249 -0.7502 -0.7983
  669MOL0     C92228   8.036   1.186   7.109  0.6156  0.5963 -0.5895
  669MOL0    Cl92229   8.180   1.154   7.011 -0.1738 -0.1346  0.6395
  669MOL0     C92230   7.020   1.146   7.289  0.7939 -0.5059 -0.0084
  669MOL0     C92231   6.937   1.170   7.395 -0.4875  0.4379  0.5805
  669MOL0     O92232   6.968   1.392   7.664 -0.2039  0.0271 -0.3242
  669MOL0     C92233   6.621   1.315   7.709 -0.3660  0.3852 -0.3405
  669MOL0     C92234   6.523   1.319   7.812  1.1039  0.6802  0.4407
  669MOL0     N92235   5.900   1.020   8.204  0.2485  0.5609 -0.2358
  669MOL0     N92236   5.788   1.005   8.136 -0.0157  0.2436 -0.2313
  669MOL0     C92237   4.783   0.328   8.258  0.7999 -0.3382  0.7725
  669MOL0     C92238   4.689   0.263   8.346 -0.0452 -0.0690 -0.1887
  669MOL0     C92239   4.332   0.172   8.580 -0.6228  0.2074  0.4714
  669MOL0     C92240   4.358   0.199   8.717 -0.0450  0.1918  0.2452
  669MOL0     C92241   4.279   0.154   8.825 -0.9298 -0.5304  0.1343
  669MOL0     C92242   4.163   0.088   8.801  0.6234 -0.4651 -0.3909
  669MOL0     O92243   4.087   0.048   8.909  0.2339 -0.6329  0.6644
  669MOL0     C92244   3.943   0.046   8.902 -0.4503  0.1953 -0.6291
  669MOL0     C92245   3.884   0.058   9.035  1.2895  0.9714 -0.7961
  669MOL0     C92246   3.737   0.036   9.036 -0.4591 -0.5894  0.7052
  669MOL0     C92247   3.676   0.042   9.179  0.0761 -0.1385  1.0895
  669MOL0     C92248   3.598   0.159   9.205 -0.1985 -0.4961  0.0250
  669MOL0     C92249   3.532   0.252   9.244  0.0984  0.3274  0.4737
  669MOL0     C92250   4.128   0.061   8.665  0.7211  0.1286 -0.7789
  669MOL0     C92251   4.218   0.098   8.554 -0.0125 -0.1859 -0.3548
  669MOL0     C92252   4.171   0.042   8.422  0.2233 -0.2061 -0.2604
  669MOL0     H92253   4.562   0.549   8.488  0.3739  2.8664 -2.1384
  669MOL0     H92254   4.737   0.651   8.328 -0.5351  0.4102  0.8983
  669MOL0     H92255   4.998   0.633   8.281 -1.4954 -2.9277  0.8215
  669MOL0     H92256   4.902   0.711   8.150 -1.2908 -1.1173 -0.1950
  669MOL0     H92257   5.161   0.561   8.092  1.0207  1.6943  0.3205
  669MOL0     H92258   5.048   0.644   7.972  2.0359 -0.5061 -1.3694
  669MOL0     H92259   5.144   0.862   8.065  1.5445  1.4767  1.4448
  669MOL0     H92260   5.211   0.774   8.203  0.5351  0.6803 -1.0523
  669MOL0     H92261   5.382   0.698   8.069 -0.9988  1.3186  3.1367
  669MOL0     H92262   5.306   0.726   7.919  0.4794  0.1543  0.2648
  669MOL0     H92263   5.379   0.958   8.100  0.0984 -0.2627 -0.0110
  669MOL0     H92264   5.347   0.980   7.932  2.2457 -0.1095 -1.6123
  669MOL0     H92265   5.582   0.841   8.056  1.0770 -0.5554 -0.6241
  669MOL0     H92266   5.542   0.809   7.886 -2.2411 -0.8155  0.7393
  669MOL0     H92267   5.570   1.096   7.994 -1.1875  1.0975 -1.2374
  669MOL0     H92268   5.549   1.057   7.835  1.1649  0.2727 -1.1018
  669MOL0     H92269   5.742   0.898   7.838 -1.2969  0.6003  0.2325
  669MOL0     H92270   5.773   1.077   7.816 -1.5380  2.6136  1.4012
  669MOL0     H92271   6.034   1.028   7.914  1.4535 -0.5623  0.6264
  669MOL0     H92272   6.218   1.006   8.083  0.1382 -1.0051  0.8100
  669MOL0     H92273   6.177   1.019   8.251 -1.6638 -1.8246 -0.2083
  669MOL0     H92274   6.113   1.273   8.199  1.3974  0.1417  3.7269
  669MOL0     H92275   6.284   1.215   8.201  0.8352 -1.1974 -2.3888
  669MOL0     H92276   6.253   1.199   7.946  2.2256 -1.3460  1.5487
  669MOL0     H92277   6.117   1.312   7.982 -0.5553 -1.3127  0.0470
  669MOL0     H92278   6.300   1.443   7.906 -1.3928  1.0943  0.7493
  669MOL0     H92279   6.283   1.475   8.074  3.1429  1.2901  1.2838
  669MOL0     H92280   6.693   1.432   8.081 -2.3812 -1.4135  1.1307
  669MOL0     H92281   6.990   1.403   7.903 -1.5981 -1.7156  0.2378
  669MOL0     H92282   6.920   1.462   8.044 -1.9756 -2.2314 -0.2791
  669MOL0     H92283   6.924   1.561   7.888  1.8599 -2.0222 -2.9037
  669MOL0     H92284   6.890   1.501   7.357 -0.6986 -0.8889  0.8871
  669MOL0     H92285   7.062   1.461   7.163  2.5670 -0.7078 -0.1025
  669MOL0     H92286   7.180   1.225   6.897  0.5483  0.8906 -0.7129
  669MOL0     H92287   7.096   1.355   6.963 -0.3251 -2.3377 -0.4614
  669MOL0     H92288   7.309   1.456   6.958  2.5625  1.8927  1.5233
  669MOL0     H92289   7.298   1.410   7.122 -1.7705  1.1141 -1.0118
  669MOL0     H92290   7.464   1.300   6.887 -0.2777 -1.8891 -0.1760
  669MOL0     H92291   7.420   1.188   7.015 -0.1298 -1.5001 -1.2359
  669MOL0     H92292   7.515   1.319   7.178 -2.5290 -2.0683 -1.2169
  669MOL0     H92293   7.545   1.460   7.072  0.5265 -0.7194 -2.4846
  669MOL0     H92294   7.652   1.191   6.991  0.6947  0.2827 -2.5923
  669MOL0     H92295   7.696   1.356   6.941  0.1479  0.8293  0.4954
  669MOL0     H92296   7.791   1.207   7.196  3.4972 -1.6317 -1.5169
  669MOL0     H92297   7.812   1.380   7.187  0.3362  0.7652  0.1695
  669MOL0     H92298   7.970   1.342   6.986  2.2081 -1.2068  0.3350
  669MOL0     H92299   7.883   1.176   6.968 -1.3216 -0.4544 -0.3131
  669MOL0     H92300   8.004   1.090   7.151  2.3439 -0.0508 -0.6894
  669MOL0     H92301   8.070   1.248   7.193 -0.4984  2.3988 -1.4061
  669MOL0     H92302   7.066   1.049   7.272 -0.5434 -0.8354 -2.0565
  669MOL0     H92303   6.903   1.094   7.465  3.3896  2.4559  5.2301
  669MOL0     H92304   6.602   1.273   7.611  2.7103 -3.5925  0.5076
  669MOL0     H92305   6.433   1.265   7.783  2.3605 -1.2450 -0.1508
  669MOL0     H92306   4.842   0.276   8.183  3.1389  1.7190  1.0849
  669MOL0     H92307   4.686   0.154   8.349 -0.2288 -0.0396  2.0399
  669MOL0     H92308   4.442   0.266   8.736  2.3650 -2.2278 -1.1250
  669MOL0     H92309   4.307   0.176   8.927 -1.2342  0.8352 -0.0565
  669MOL0     H92310   3.897   0.125   8.841 -1.5501 -0.9883 -1.3881
  669MOL0     H92311   3.912  -0.049   8.859  1.1122 -0.4718 -0.3079
  669MOL0     H92312   3.903   0.158   9.076 -0.0343  0.7190  0.5038
  669MOL0     H92313   3.935  -0.005   9.108 -1.5717  0.7107  1.0972
  669MOL0     H92314   3.696   0.121   8.981 -0.3671 -0.6427  0.5539
  669MOL0     H92315   3.710  -0.052   8.977  0.8785 -0.2183 -0.5209
  669MOL0     H92316   3.740   0.023   9.265  1.1075 -0.5248  0.2460
  669MOL0     H92317   3.602  -0.038   9.183 -0.2851  0.2479  2.7597
  669MOL0     H92318   3.492   0.340   9.290  1.0504 -0.0700  2.1526
  669MOL0     H92319   4.037   0.004   8.647 -0.2947  1.7009 -0.8180
  669MOL0     H92320   4.126  -0.058   8.418 -0.9275  0.3153 -1.3988
  669MOL0     H92321   4.097   0.111   8.377  0.6851  0.6626  0.2889
  669MOL0     H92322   4.258   0.014   8.362 -0.3656 -1.2994 -0.6416
  670MOL0     O92323   6.825   5.692   3.568  1.1518 -0.1812  0.2512
  670MOL0     C92324   6.734   5.715   3.645  0.2885  0.0211  0.5597
  670MOL0     O92325   6.745   5.711   3.784 -0.3490  0.3394  0.0951
  670MOL0     C92326   6.876   5.692   3.824 -0.4400 -0.9694  0.0054
  670MOL0     C92327   6.945   5.798   3.884 -0.1234 -0.4347  0.1581
  670MOL0     C92328   7.072   5.780   3.933  0.0387 -0.1935  0.0841
  670MOL0     C92329   7.135   5.653   3.928 -1.5769 -0.7581  0.1003
  670MOL0     O92330   7.262   5.633   3.985  0.1568  0.7035 -0.3715
  670MOL0     C92331   7.368   5.553   3.914  1.3868  0.0603  0.1881
  670MOL0     C92332   7.503   5.606   3.928 -0.5760  0.8190 -0.1557
  670MOL0     C92333   7.528   5.642   4.073  0.6540  0.0471 -0.4539
  670MOL0     C92334   7.641   5.740   4.082  0.2588  0.1403  0.4199
  670MOL0     C92335   7.780   5.685   4.032 -0.1536  0.7043 -0.0257
  670MOL0     C92336   7.845   5.591   4.138  0.0752 -0.0371  0.4210
  670MOL0     C92337   7.984   5.547   4.084 -0.9042  0.4679  0.7382
  670MOL0     C92338   8.069   5.491   4.208  0.6000 -0.7431 -0.2901
  670MOL0     N92339   8.195   5.433   4.161 -0.5128 -0.2829 -0.0302
  670MOL0     C92340   8.269   5.466   4.051 -0.2850  0.6016  0.2053
  670MOL0     C92341   8.397   5.425   4.063 -0.3447  0.6589  0.2456
  670MOL0     C92342   8.508   5.453   3.962  0.4476 -0.2716 -1.1587
  670MOL0     C92343   8.548   5.599   3.943  0.7069  0.3195 -0.8229
  670MOL0     C92344   8.580   5.658   4.083  0.7513 -0.2388 -0.2730
  670MOL0     C92345   8.580   5.814   4.077 -0.0411  0.4686 -0.0309
  670MOL0     O92346   8.687   5.869   3.996 -1.0200  0.0813 -1.1901
  670MOL0     C92347   8.802   5.902   4.069  0.8920  0.0681 -0.0011
  670MOL0     C92348   8.809   6.018   4.144 -0.5373  0.0736  1.1719
  670MOL0     C92349   8.923   6.048   4.222  0.3640 -0.7908  0.0223
  670MOL0     C92350   8.922   6.190   4.281 -1.3704 -0.2508  0.3469
  670MOL0     C92351   9.037   5.962   4.221 -0.2858 -0.6223 -0.4161
  670MOL0     C92352   9.164   5.983   4.287 -0.4307 -0.1645 -0.5636
  670MOL0     O92353   9.268   5.907   4.250  0.0139  0.0400 -0.6219
  670MOL0     C92354   9.398   5.940   4.271 -0.3000 -0.3072 -0.5034
  670MOL0     C92355   9.492   5.937   4.167  0.3825  0.2337 -0.4490
  670MOL0     C92356   9.625   5.987   4.193  0.1089  0.2300 -0.3031
  670MOL0     C92357   9.670   6.010   4.324  0.9501  0.2274 -0.0387
  670MOL0     O92358   9.801   6.032   4.338 -0.3337  0.2357  0.3261
  670MOL0     C92359   9.864   6.042   4.465 -0.2863 -0.2112 -0.1032
  670MOL0     C92360  10.016   6.074   4.456  0.5131 -0.5225 -0.1375
  670MOL0     C92361  10.039   6.185   4.350 -0.6563  0.0021 -0.4990
  670MOL0     C92362  10.187   6.203   4.322  0.3837 -0.8430  0.5541
  670MOL0     C92363  10.210   6.328   4.220  0.2175  0.3739 -0.7308
  670MOL0     C92364  10.338   6.306   4.143 -0.0346 -0.4877  0.1859
  670MOL0     C92365  10.460   6.293   4.234 -0.7001  0.0529 -0.4519
  670MOL0     C92366  10.593   6.281   4.153 -0.4382 -0.5482 -0.7024
  670MOL0    Cl92367  10.714   6.243   4.269 -0.0232  0.5600 -0.1781
  670MOL0     C92368   9.581   5.997   4.429 -0.7077 -0.2389 -0.8170
  670MOL0     C92369   9.450   5.971   4.405 -0.5314  0.0367  0.7363
  670MOL0     O92370   9.178   6.080   4.363 -0.7970  0.0397 -0.4814
  670MOL0     C92371   9.024   5.843   4.148  0.2994 -0.2523 -0.2868
  670MOL0     C92372   8.909   5.812   4.067 -0.3435 -0.1285 -0.7238
  670MOL0     N92373   8.404   5.350   4.180  0.0398  0.4422 -0.1618
  670MOL0     N92374   8.282   5.351   4.234 -1.4712 -0.3801  0.0230
  670MOL0     C92375   7.066   5.548   3.875  0.6310  0.5915 -0.5577
  670MOL0     C92376   6.938   5.567   3.818 -0.1188 -0.4087  0.3889
  670MOL0     C92377   6.602   5.739   3.594 -0.1996 -0.1618  0.2618
  670MOL0     C92378   6.552   5.865   3.635 -0.8912  0.4745  0.1300
  670MOL0     C92379   6.439   5.913   3.567 -0.4844  0.5665 -0.8690
  670MOL0     C92380   6.370   5.829   3.477 -0.5746  0.1942 -0.8758
  670MOL0     O92381   6.268   5.874   3.408  0.3564 -0.0398 -0.4517
  670MOL0     C92382   6.189   5.802   3.310 -0.3748  1.1101  0.3900
  670MOL0     C92383   6.069   5.888   3.267  0.2045 -0.7328  0.5552
  670MOL0     C92384   5.962   5.915   3.374  0.7793  0.0467 -0.1662
  670MOL0     C92385   5.862   6.021   3.328  0.2702 -1.2497  0.2845
  670MOL0     C92386   5.748   6.007   3.411  0.2781 -0.1928  0.4287
  670MOL0     C92387   5.650   6.011   3.481 -0.7423  0.3025  0.1092
  670MOL0     C92388   6.423   5.704   3.442  0.0935  0.1144  0.6388
  670MOL0     C92389   6.540   5.660   3.500  0.3392 -0.2994  0.0513
  670MOL0     C92390   6.585   5.513   3.470  0.7222  0.6374  0.0583
  670MOL0     H92391   6.905   5.898   3.876 -2.4985 -1.2702  0.6884
  670MOL0     H92392   7.124   5.867   3.973 -0.9982  0.7805 -0.6455
  670MOL0     H92393   7.354   5.553   3.805 -0.4943  0.2185  0.4041
  670MOL0     H92394   7.373   5.449   3.946  2.1533  0.2016  0.5401
  670MOL0     H92395   7.574   5.531   3.893 -2.3569 -1.1264  0.2396
  670MOL0     H92396   7.517   5.697   3.868 -1.2129  1.4053  0.5594
  670MOL0     H92397   7.446   5.703   4.112 -1.7642 -2.0393 -1.9352
  670MOL0     H92398   7.553   5.554   4.133  2.7297  0.9706  0.0947
  670MOL0     H92399   7.612   5.829   4.027 -2.0739 -0.1737  1.0342
  670MOL0     H92400   7.658   5.777   4.183  1.4026 -0.7377  0.5725
  670MOL0     H92401   7.842   5.773   4.012 -0.4976  1.1248  0.7217
  670MOL0     H92402   7.776   5.638   3.933 -0.4667  3.4742 -1.4109
  670MOL0     H92403   7.837   5.646   4.232  1.6129 -0.5355  0.8825
  670MOL0     H92404   7.793   5.496   4.150  4.5608 -3.0577 -1.4742
  670MOL0     H92405   8.038   5.622   4.026  0.2921 -0.0504  1.1444
  670MOL0     H92406   7.956   5.476   4.006 -2.6072  1.5511  0.3222
  670MOL0     H92407   8.096   5.574   4.275  5.0045 -1.8468 -0.3785
  670MOL0     H92408   8.020   5.417   4.272  0.5221  2.1610  3.3520
  670MOL0     H92409   8.239   5.523   3.963  1.3314  0.7672 -0.2829
  670MOL0     H92410   8.465   5.416   3.869 -1.8895 -2.1913  0.5555
  670MOL0     H92411   8.594   5.390   3.983 -0.9279 -1.8507  0.0193
  670MOL0     H92412   8.637   5.601   3.878  1.0955  1.7667 -0.2894
  670MOL0     H92413   8.474   5.661   3.892 -0.2013 -1.1535 -1.3650
  670MOL0     H92414   8.501   5.633   4.155  0.7292  1.6538  0.4210
  670MOL0     H92415   8.672   5.618   4.127 -0.1534 -1.5017  0.5363
  670MOL0     H92416   8.479   5.834   4.042 -0.0782 -0.3013 -0.3949
  670MOL0     H92417   8.593   5.858   4.176 -1.6174  1.2208 -0.1403
  670MOL0     H92418   8.723   6.083   4.131  0.2552  1.1204  1.1416
  670MOL0     H92419   8.825   6.240   4.271 -0.4310  1.7059  0.5104
  670MOL0     H92420   8.990   6.252   4.223 -1.6147  1.9569  2.2852
  670MOL0     H92421   8.950   6.197   4.386  0.8244  1.6266 -0.2952
  670MOL0     H92422   9.463   5.909   4.066  2.7965 -0.4219 -1.0232
  670MOL0     H92423   9.704   5.984   4.118  1.0141  0.5697  0.6047
  670MOL0     H92424   9.805   6.118   4.517  0.8510 -0.3095  1.4095
  670MOL0     H92425   9.853   5.954   4.529 -1.3560  0.0756  0.1220
  670MOL0     H92426  10.049   6.098   4.558 -1.2434  1.0007  0.1375
  670MOL0     H92427  10.058   5.978   4.425 -0.0473 -1.7134  2.5284
  670MOL0     H92428   9.998   6.279   4.389  1.5180  0.8232 -0.0374
  670MOL0     H92429   9.979   6.155   4.263 -1.1430 -0.9850  0.1626
  670MOL0     H92430  10.224   6.106   4.288 -0.9590 -1.5092  0.9458
  670MOL0     H92431  10.238   6.224   4.417  2.7473 -0.8389 -0.6340
  670MOL0     H92432  10.126   6.327   4.149  0.7915  0.1521 -1.4198
  670MOL0     H92433  10.216   6.424   4.271  1.8515  0.1327 -0.4268
  670MOL0     H92434  10.353   6.380   4.063 -2.9128  0.3407  0.2757
  670MOL0     H92435  10.319   6.212   4.090 -3.0393 -0.6434  1.3128
  670MOL0     H92436  10.449   6.211   4.306 -1.6487  0.3218 -0.2780
  670MOL0     H92437  10.482   6.374   4.304  0.9499 -1.5357  1.0151
  670MOL0     H92438  10.626   6.374   4.107  2.6349 -0.3402  1.5940
  670MOL0     H92439  10.596   6.200   4.079 -1.9178  1.5593 -3.2223
  670MOL0     H92440   9.614   6.014   4.532 -1.6838 -3.4522  0.1468
  670MOL0     H92441   9.378   5.980   4.485 -1.5304  3.8741 -0.3649
  670MOL0     H92442   9.109   5.775   4.146  0.8066  0.3731 -0.3975
  670MOL0     H92443   8.908   5.721   4.008 -2.4535 -3.6252  4.0495
  670MOL0     H92444   7.101   5.445   3.880  2.2139  1.0959 -0.7927
  670MOL0     H92445   6.885   5.484   3.772 -1.2907  1.1372 -1.1723
  670MOL0     H92446   6.593   5.916   3.722  1.3286 -1.0544  0.0815
  670MOL0     H92447   6.394   6.007   3.597  0.3946  0.8443 -0.4102
  670MOL0     H92448   6.245   5.766   3.223  2.7497 -1.1523  3.1086
  670MOL0     H92449   6.143   5.719   3.364 -0.9365  0.8695 -0.4440
  670MOL0     H92450   6.020   5.839   3.183 -0.8480  1.0300  0.0947
  670MOL0     H92451   6.099   5.991   3.248 -0.8237  0.1857  3.3391
  670MOL0     H92452   5.910   5.820   3.392  1.1525 -0.5731 -2.1228
  670MOL0     H92453   6.011   5.935   3.470 -0.8743 -0.9276  0.9483
  670MOL0     H92454   5.828   6.006   3.225  0.7808 -0.8121  0.0479
  670MOL0     H92455   5.902   6.122   3.344 -2.0836 -0.2985  0.5347
  670MOL0     H92456   5.564   6.017   3.543 -0.7469  1.0213  0.0442
  670MOL0     H92457   6.374   5.635   3.373  1.3757 -0.8248  0.6198
  670MOL0     H92458   6.644   5.465   3.548 -1.9845  0.7770  2.3184
  670MOL0     H92459   6.500   5.446   3.456  1.3226 -0.1065 -0.1163
  670MOL0     H92460   6.624   5.509   3.367 -2.2230  1.0227 -1.1564
  671MOL0     O92461   2.377   4.808   3.892 -0.1831  0.1991  0.4695
  671MOL0     C92462   2.318   4.866   3.984  0.5782 -0.5320  0.2803
  671MOL0     O92463   2.336   4.840   4.115 -0.1617  0.0601 -0.4988
  671MOL0     C92464   2.329   4.716   4.178  0.7271  0.1455 -0.0627
  671MOL0     C92465   2.286   4.598   4.110 -0.1067 -0.8096 -0.1927
  671MOL0     C92466   2.283   4.472   4.170  0.4978  0.3484 -0.1682
  671MOL0     C92467   2.322   4.464   4.303  0.3104  0.3425 -0.4559
  671MOL0     O92468   2.332   4.352   4.384 -0.1238  0.2807  0.2758
  671MOL0     C92469   2.273   4.223   4.356  0.0402 -0.4615 -0.0559
  671MOL0     C92470   2.375   4.124   4.417  0.0326 -0.0117 -0.0481
  671MOL0     C92471   2.515   4.140   4.343 -0.7084 -0.0164  0.3541
  671MOL0     C92472   2.627   4.047   4.401  0.4344 -0.0375 -0.0338
  671MOL0     C92473   2.659   4.091   4.548 -0.2501 -0.1408 -0.0906
  671MOL0     C92474   2.773   4.012   4.608  0.1525  0.8577 -0.0187
  671MOL0     C92475   2.787   4.064   4.750 -0.4102  0.0397 -0.3138
  671MOL0     C92476   2.892   4.185   4.755  0.8954 -0.3604 -0.7841
  671MOL0     N92477   2.868   4.265   4.881  0.5234 -0.1179  0.6876
  671MOL0     C92478   2.853   4.402   4.907 -0.2385  0.4656 -0.0466
  671MOL0     C92479   2.843   4.410   5.041  0.3443  0.2670  0.6166
  671MOL0     C92480   2.795   4.526   5.121 -0.0366  0.2080 -1.4307
  671MOL0     C92481   2.659   4.501   5.192  0.1243  0.6053 -0.2142
  671MOL0     C92482   2.608   4.616   5.282 -0.6483 -0.1558  0.3194
  671MOL0     C92483   2.560   4.745   5.208 -0.6334 -0.1441 -0.6012
  671MOL0     O92484   2.686   4.807   5.166  0.2201  0.7340  0.2226
  671MOL0     C92485   2.698   4.922   5.101  0.0098  0.2115 -0.7967
  671MOL0     C92486   2.816   4.992   5.109 -0.1447  0.6351 -0.8660
  671MOL0     C92487   2.848   5.108   5.045  0.4022  1.2334  0.1455
  671MOL0     C92488   2.978   5.169   5.056 -0.2184  0.0181 -0.1526
  671MOL0     C92489   2.757   5.168   4.964  0.5748 -0.2221 -0.6900
  671MOL0     C92490   2.767   5.294   4.877 -0.4791 -0.0305 -0.4870
  671MOL0     O92491   2.650   5.332   4.805  1.0234 -0.0026  0.9410
  671MOL0     C92492   2.646   5.434   4.717  0.0832 -0.8973  0.3411
  671MOL0     C92493   2.728   5.550   4.717 -0.8610  0.9255 -0.2902
  671MOL0     C92494   2.717   5.649   4.615  0.4592 -0.0561  0.1599
  671MOL0     C92495   2.629   5.619   4.503  0.0425 -0.7039  0.8534
  671MOL0     O92496   2.622   5.692   4.388  0.4679 -0.6514 -0.4784
  671MOL0     C92497   2.731   5.788   4.375  0.4094  0.2162 -0.0502
  671MOL0     C92498   2.742   5.846   4.238  0.0946  0.7793  1.0658
  671MOL0     C92499   2.884   5.893   4.201  0.4584 -0.6163  1.0426
  671MOL0     C92500   2.942   6.011   4.281  0.8785 -0.6127  0.3681
  671MOL0     C92501   3.021   5.966   4.402  0.2856  0.9051 -0.5606
  671MOL0     C92502   3.077   6.080   4.491  0.2469 -0.2665 -0.3518
  671MOL0     C92503   3.201   6.027   4.569 -0.0693 -0.5181  0.5572
  671MOL0     C92504   3.319   6.014   4.486 -0.5428 -0.0751 -0.7544
  671MOL0    Cl92505   3.437   5.904   4.548 -0.2352 -0.1602  0.7473
  671MOL0     C92506   2.556   5.504   4.512  0.4100 -0.1621  0.0169
  671MOL0     C92507   2.547   5.414   4.619 -0.1254  0.3666 -0.0971
  671MOL0     O92508   2.866   5.364   4.888  0.3177  0.0596 -0.0965
  671MOL0     C92509   2.631   5.103   4.961  0.0068 -0.1015 -0.0970
  671MOL0     C92510   2.598   4.981   5.028 -0.7130 -0.2113  0.1931
  671MOL0     N92511   2.868   4.276   5.086 -0.5186 -0.1476 -0.6290
  671MOL0     N92512   2.896   4.199   4.994  0.3528  0.2726  0.1759
  671MOL0     C92513   2.382   4.577   4.367 -0.3257 -0.5252 -0.8392
  671MOL0     C92514   2.374   4.706   4.308 -0.3365 -0.1098 -0.1305
  671MOL0     C92515   2.225   4.980   3.957 -0.4041 -0.5405  1.4296
  671MOL0     C92516   2.135   5.021   4.054 -0.1874 -0.5923  0.9810
  671MOL0     C92517   2.043   5.123   4.033 -0.8878  0.2261  1.2264
  671MOL0     C92518   2.039   5.199   3.917 -0.5871 -0.2594 -0.3391
  671MOL0     O92519   1.934   5.290   3.898 -0.4212  0.2036  0.4111
  671MOL0     C92520   1.861   5.295   3.775 -0.1409 -0.5679  0.2347
  671MOL0     C92521   1.901   5.417   3.699  0.8769 -0.1577 -0.6556
  671MOL0     C92522   1.860   5.413   3.551  0.0089  0.2810 -1.2396
  671MOL0     C92523   1.709   5.392   3.512  0.4734 -0.0415 -0.3171
  671MOL0     C92524   1.622   5.482   3.589  0.6642  0.0010  0.3203
  671MOL0     C92525   1.544   5.546   3.665 -0.3943 -0.5568 -0.3143
  671MOL0     C92526   2.118   5.155   3.812 -1.0581  0.3952  0.0175
  671MOL0     C92527   2.215   5.048   3.834 -0.1832 -0.2756 -0.0998
  671MOL0     C92528   2.305   5.021   3.716 -0.3855 -0.0249  0.0601
  671MOL0     H92529   2.253   4.605   4.007 -0.9009 -1.2806  0.0229
  671MOL0     H92530   2.257   4.384   4.112 -0.0050  1.6989 -2.0623
  671MOL0     H92531   2.264   4.209   4.248 -0.3897 -1.5691  0.1045
  671MOL0     H92532   2.170   4.215   4.392 -0.1332 -1.2024 -0.6975
  671MOL0     H92533   2.385   4.158   4.520  2.5502  2.4458 -0.9654
  671MOL0     H92534   2.334   4.023   4.416 -3.2171  1.1724  0.8799
  671MOL0     H92535   2.493   4.107   4.241 -0.1194 -0.5384  0.3887
  671MOL0     H92536   2.543   4.245   4.340  1.4729 -0.5506  0.4713
  671MOL0     H92537   2.593   3.944   4.413  1.8862 -0.2433  3.0458
  671MOL0     H92538   2.719   4.039   4.343  0.1834 -0.4588 -0.3829
  671MOL0     H92539   2.564   4.072   4.599 -1.2026  0.3273 -1.6285
  671MOL0     H92540   2.682   4.197   4.553  1.4436 -0.3669 -1.9435
  671MOL0     H92541   2.749   3.905   4.605 -0.1136  0.9288 -0.5686
  671MOL0     H92542   2.863   4.023   4.546  2.4209  0.9206  3.0893
  671MOL0     H92543   2.825   3.985   4.816 -1.0934  0.7740  0.9892
  671MOL0     H92544   2.689   4.084   4.793  1.0514 -0.2584  3.5892
  671MOL0     H92545   2.992   4.144   4.768  0.0313 -2.1690  0.6303
  671MOL0     H92546   2.872   4.248   4.667 -4.1425  0.7183  0.8151
  671MOL0     H92547   2.843   4.485   4.838 -0.5534  0.3104 -0.1872
  671MOL0     H92548   2.791   4.616   5.060  1.2759  0.7358 -0.7838
  671MOL0     H92549   2.873   4.550   5.195 -1.6728  1.4615 -0.0427
  671MOL0     H92550   2.581   4.479   5.118 -0.0125  1.2001 -0.2548
  671MOL0     H92551   2.661   4.413   5.258 -1.5074  0.5135 -0.2483
  671MOL0     H92552   2.525   4.575   5.341  0.2269 -0.5089  1.3365
  671MOL0     H92553   2.672   4.639   5.367  0.3362  1.9228 -0.9085
  671MOL0     H92554   2.503   4.718   5.118  0.9852 -0.4545 -1.5767
  671MOL0     H92555   2.509   4.808   5.282 -0.5268  0.3504 -0.9381
  671MOL0     H92556   2.896   4.929   5.148 -0.1005 -1.1294 -3.5752
  671MOL0     H92557   3.045   5.125   5.130  2.6597  0.7849 -2.1539
  671MOL0     H92558   2.967   5.275   5.080 -0.7105  0.4279 -1.9769
  671MOL0     H92559   3.022   5.158   4.956 -0.1998  1.1471 -0.2850
  671MOL0     H92560   2.817   5.562   4.777 -0.1688  0.8711 -1.2789
  671MOL0     H92561   2.797   5.721   4.600  1.8716 -1.7049 -0.5984
  671MOL0     H92562   2.715   5.869   4.447  4.0506  0.2849  0.8565
  671MOL0     H92563   2.825   5.744   4.410 -0.0620  0.6885  1.9527
  671MOL0     H92564   2.720   5.762   4.172  3.7779 -0.2423  0.9034
  671MOL0     H92565   2.674   5.929   4.217  3.0130  2.6020 -2.1942
  671MOL0     H92566   2.886   5.932   4.099 -0.4098 -1.7146  0.5891
  671MOL0     H92567   2.943   5.801   4.202 -2.9747 -3.0943 -1.0824
  671MOL0     H92568   2.861   6.074   4.316  1.7065 -1.2362  3.7001
  671MOL0     H92569   3.001   6.059   4.202  0.0319  0.0283  0.1079
  671MOL0     H92570   2.945   5.918   4.465  0.1882  2.7422  0.8226
  671MOL0     H92571   3.098   5.893   4.376  0.8795  1.3322 -0.0539
  671MOL0     H92572   2.991   6.105   4.554 -1.1511  0.8727 -2.6014
  671MOL0     H92573   3.100   6.166   4.429  0.9354  0.5769  1.0165
  671MOL0     H92574   3.175   5.934   4.621  1.7748 -1.6622 -0.4725
  671MOL0     H92575   3.228   6.098   4.647 -2.3845  1.2499 -0.1259
  671MOL0     H92576   3.373   6.108   4.475 -0.3956 -0.1999 -1.1204
  671MOL0     H92577   3.299   5.986   4.382  1.4181 -2.8362 -0.5144
  671MOL0     H92578   2.489   5.490   4.428  2.0385 -0.0491 -1.3414
  671MOL0     H92579   2.492   5.321   4.622 -0.6549  0.7001  1.0433
  671MOL0     H92580   2.553   5.135   4.892 -0.9850 -0.7232  0.7077
  671MOL0     H92581   2.496   4.948   5.037 -0.7773  0.2065  1.0951
  671MOL0     H92582   2.419   4.561   4.468  0.8958 -0.7668 -1.3005
  671MOL0     H92583   2.415   4.797   4.349 -0.0827 -0.2542 -0.0654
  671MOL0     H92584   2.123   4.974   4.151 -0.7204  1.4185  1.9574
  671MOL0     H92585   1.973   5.128   4.116 -0.6870  2.2339  1.3132
  671MOL0     H92586   1.884   5.210   3.712 -0.4148 -0.2856 -0.2509
  671MOL0     H92587   1.755   5.291   3.801 -0.1983  0.4258  0.2242
  671MOL0     H92588   2.007   5.436   3.717  0.6362  1.2810 -0.6737
  671MOL0     H92589   1.849   5.499   3.749  0.3078 -1.2485  0.6244
  671MOL0     H92590   1.893   5.512   3.517  0.9179  1.3201  2.2991
  671MOL0     H92591   1.908   5.333   3.494  0.6797  0.3405 -0.7789
  671MOL0     H92592   1.679   5.287   3.521  2.4430 -0.6519 -0.5344
  671MOL0     H92593   1.694   5.400   3.403  0.3678 -4.1553 -0.7512
  671MOL0     H92594   1.484   5.601   3.735  1.2956  0.7392  0.1735
  671MOL0     H92595   2.119   5.194   3.711  2.1000 -3.9008 -1.9380
  671MOL0     H92596   2.411   5.035   3.739 -0.5391 -1.8300  2.2452
  671MOL0     H92597   2.285   4.921   3.676 -0.1402 -1.7575  3.8156
  671MOL0     H92598   2.294   5.093   3.634 -0.5218 -1.9943 -1.7399
  672MOL0     O92599   0.595   0.157   3.908 -0.6439 -0.3077  0.5639
  672MOL0     C92600   0.626   0.122   4.018  0.3860 -0.0915 -0.7216
  672MOL0     O92601   0.754   0.139   4.076 -0.6840 -0.7736 -0.1890
  672MOL0     C92602   0.855   0.189   3.993  0.7223  0.9386  1.0180
  672MOL0     C92603   0.937   0.101   3.922  0.2751 -0.2756 -0.0637
  672MOL0     C92604   1.042   0.152   3.848  0.8972  0.9014 -0.8113
  672MOL0     C92605   1.068   0.290   3.836 -0.6831  1.4324 -0.2138
  672MOL0     O92606   1.171   0.325   3.748 -0.0306 -0.0846  0.0110
  672MOL0     C92607   1.190   0.461   3.719  0.1269  0.0339  0.2045
  672MOL0     C92608   1.310   0.477   3.641  0.1313  0.6180 -0.4074
  672MOL0     C92609   1.429   0.399   3.700 -0.9475 -0.2773 -0.0848
  672MOL0     C92610   1.555   0.440   3.633  0.1274  0.3782 -0.4155
  672MOL0     C92611   1.663   0.342   3.665  0.5768 -0.1083  0.1695
  672MOL0     C92612   1.799   0.400   3.622 -0.0162  0.2099 -0.3575
  672MOL0     C92613   1.923   0.307   3.630  0.0656  0.1985  0.7574
  672MOL0     C92614   1.972   0.310   3.769  0.2530  0.3498 -0.8429
  672MOL0     N92615   2.119   0.259   3.763  0.8858 -0.4022  0.0247
  672MOL0     C92616   2.162   0.129   3.758  0.1138 -0.6063 -0.0703
  672MOL0     C92617   2.295   0.143   3.750  0.2847  0.9447 -0.1266
  672MOL0     C92618   2.384   0.019   3.752 -0.5601  0.0768  0.6450
  672MOL0     C92619   2.454  -0.002   3.619 -0.7701  0.2714 -0.0202
  672MOL0     C92620   2.521  -0.144   3.597  1.1105 -0.2505 -0.7779
  672MOL0     C92621   2.667  -0.127   3.590 -0.7695 -0.2091  0.1402
  672MOL0     O92622   2.739  -0.255   3.589 -0.0477 -0.0225 -0.2257
  672MOL0     C92623   2.875  -0.241   3.597 -0.0493  0.2352  0.1983
  672MOL0     C92624   2.956  -0.136   3.635 -0.5631  0.5956 -0.8838
  672MOL0     C92625   3.103  -0.129   3.624  0.6569 -0.3335  0.2796
  672MOL0     C92626   3.173   0.000   3.676 -0.1283  0.0647  0.5849
  672MOL0     C92627   3.167  -0.241   3.567  0.6804 -0.7211  0.1571
  672MOL0     C92628   3.311  -0.255   3.538 -0.3586 -0.6393 -0.6817
  672MOL0     O92629   3.362  -0.359   3.468  0.4259  0.1336  0.3633
  672MOL0     C92630   3.493  -0.395   3.473 -0.1204 -0.7465 -0.0201
  672MOL0     C92631   3.512  -0.530   3.450 -0.5547  0.2634  0.0186
  672MOL0     C92632   3.644  -0.578   3.451 -0.0313  0.7321  0.0687
  672MOL0     C92633   3.758  -0.509   3.472  0.4992  0.4947 -1.2826
  672MOL0     O92634   3.882  -0.570   3.470 -0.2283  0.5219 -0.3983
  672MOL0     C92635   3.991  -0.480   3.440 -0.2853 -0.0535  0.9020
  672MOL0     C92636   4.125  -0.563   3.449  0.2148 -0.1100  0.8899
  672MOL0     C92637   4.243  -0.470   3.438  0.0148  1.6978  0.7516
  672MOL0     C92638   4.356  -0.520   3.337  0.1718  0.7072 -0.0221
  672MOL0     C92639   4.477  -0.430   3.349 -0.8673 -0.8995 -0.1159
  672MOL0     C92640   4.602  -0.493   3.292  0.3776 -0.2156 -0.0211
  672MOL0     C92641   4.722  -0.418   3.334  0.3838 -0.6777  0.5554
  672MOL0     C92642   4.852  -0.470   3.270  0.4317 -0.1330  0.4195
  672MOL0    Cl92643   4.859  -0.419   3.101  0.5437 -0.2769  0.2654
  672MOL0     C92644   3.733  -0.381   3.502  0.4341  0.0294  0.8707
  672MOL0     C92645   3.610  -0.326   3.507  0.3571  0.0668  0.4972
  672MOL0     O92646   3.382  -0.184   3.612  0.2165 -0.1178 -0.0246
  672MOL0     C92647   3.081  -0.347   3.518  0.4015  0.6875 -0.4234
  672MOL0     C92648   2.942  -0.349   3.542 -0.3794 -0.6032 -0.8831
  672MOL0     N92649   2.331   0.269   3.758  0.7229 -0.8527  0.8602
  672MOL0     N92650   2.222   0.344   3.754  0.0199  0.3718 -1.1354
  672MOL0     C92651   0.981   0.380   3.910  0.5204  0.9713  0.7715
  672MOL0     C92652   0.876   0.330   3.983 -0.0637  0.0256  0.0177
  672MOL0     C92653   0.522   0.048   4.100  0.3766 -0.5075  0.6201
  672MOL0     C92654   0.553   0.015   4.238 -1.3405 -0.1254 -0.4434
  672MOL0     C92655   0.455  -0.039   4.321  0.0143 -0.6516 -0.0061
  672MOL0     C92656   0.334  -0.071   4.276 -0.6039  0.2777 -0.5499
  672MOL0     O92657   0.238  -0.112   4.360  0.0407 -0.1948 -0.2409
  672MOL0     C92658   0.224  -0.253   4.405 -0.1590 -1.2300  0.1125
  672MOL0     C92659   0.097  -0.307   4.328  0.5269  0.5065  0.0001
  672MOL0     C92660  -0.035  -0.267   4.394 -0.2051  0.6979  0.1797
  672MOL0     C92661  -0.056  -0.122   4.409 -0.2427  0.0168 -0.1969
  672MOL0     C92662  -0.194  -0.091   4.433  0.3584 -0.2874  0.0979
  672MOL0     C92663  -0.310  -0.077   4.458  0.8184  0.3981  0.4337
  672MOL0     C92664   0.306  -0.041   4.141  0.3549 -0.7802  0.4698
  672MOL0     C92665   0.394   0.017   4.048 -0.1834  0.8116 -0.6300
  672MOL0     C92666   0.343   0.046   3.921  0.1051 -0.0079  0.1711
  672MOL0     H92667   0.904  -0.002   3.913  2.4395 -1.0937  0.7345
  672MOL0     H92668   1.091   0.078   3.786 -0.3866  2.3613 -3.7838
  672MOL0     H92669   1.216   0.518   3.809 -1.3543 -2.2941  2.2525
  672MOL0     H92670   1.102   0.504   3.670 -2.6552  0.5147  4.9913
  672MOL0     H92671   1.293   0.435   3.541  0.1627 -4.0669  1.3274
  672MOL0     H92672   1.321   0.586   3.637 -1.0734  0.8420  1.2754
  672MOL0     H92673   1.430   0.429   3.805 -5.2387 -0.1603  0.1043
  672MOL0     H92674   1.428   0.290   3.688  0.3457 -0.2557 -0.5662
  672MOL0     H92675   1.545   0.458   3.525 -0.2415 -1.1607 -0.6635
  672MOL0     H92676   1.587   0.535   3.678  0.8838 -0.1634  0.2120
  672MOL0     H92677   1.656   0.253   3.602  3.4010 -1.4001  1.4821
  672MOL0     H92678   1.663   0.314   3.771  0.0740  0.1047  0.2242
  672MOL0     H92679   1.791   0.427   3.516 -0.4600  0.3695 -0.2838
  672MOL0     H92680   1.808   0.492   3.680  0.8803  0.6062 -1.1044
  672MOL0     H92681   1.997   0.350   3.562 -0.5793  5.3624  2.8718
  672MOL0     H92682   1.897   0.206   3.595  0.9808 -0.2381  1.2914
  672MOL0     H92683   1.975   0.411   3.812  0.8321 -0.0842  0.1752
  672MOL0     H92684   1.907   0.244   3.827  0.7284  1.8802  1.5829
  672MOL0     H92685   2.109   0.036   3.740 -1.7904  0.0639  1.6041
  672MOL0     H92686   2.325  -0.071   3.773  3.1170 -2.1046  2.6870
  672MOL0     H92687   2.455   0.032   3.834  0.2568 -0.4104  0.0373
  672MOL0     H92688   2.382   0.002   3.537 -1.4649 -1.4170  0.4752
  672MOL0     H92689   2.518   0.086   3.603 -1.0943  0.1732 -2.2221
  672MOL0     H92690   2.492  -0.210   3.679  0.5819  1.4045  0.4167
  672MOL0     H92691   2.487  -0.193   3.505 -3.6093 -1.3092  1.2469
  672MOL0     H92692   2.700  -0.061   3.510 -0.7947  0.2881  0.5332
  672MOL0     H92693   2.684  -0.067   3.680 -2.7913  2.2443 -0.9890
  672MOL0     H92694   2.908  -0.054   3.686  0.6812  0.4383  0.6027
  672MOL0     H92695   3.109   0.087   3.697  0.6557  0.4727  1.3879
  672MOL0     H92696   3.248   0.048   3.612 -3.9869  4.5999 -1.1007
  672MOL0     H92697   3.211  -0.018   3.777  0.9045  4.6887  1.2862
  672MOL0     H92698   3.424  -0.591   3.432 -1.5918  1.7560 -0.1324
  672MOL0     H92699   3.657  -0.685   3.434  2.0212  1.0894 -0.8660
  672MOL0     H92700   3.987  -0.438   3.340 -1.3375  0.5678  1.1862
  672MOL0     H92701   3.999  -0.399   3.513 -2.0838  1.5480 -0.5687
  672MOL0     H92702   4.139  -0.602   3.550  3.3205  1.2898  1.1073
  672MOL0     H92703   4.134  -0.637   3.368 -2.8479 -2.6728  2.6589
  672MOL0     H92704   4.286  -0.468   3.538  0.5604  0.0088  0.5716
  672MOL0     H92705   4.214  -0.368   3.412 -0.4519  1.7936  1.6179
  672MOL0     H92706   4.324  -0.523   3.233  3.6724  1.2115 -1.2572
  672MOL0     H92707   4.383  -0.619   3.374 -1.0689  0.0767 -0.7386
  672MOL0     H92708   4.464  -0.337   3.294  0.2060  0.2122  1.4461
  672MOL0     H92709   4.494  -0.406   3.454 -0.4828 -0.5340 -0.2623
  672MOL0     H92710   4.598  -0.492   3.183  0.3333  3.5239 -0.1071
  672MOL0     H92711   4.599  -0.593   3.336  0.1760  0.5457  1.7790
  672MOL0     H92712   4.737  -0.418   3.443 -0.4485  1.3550  0.7166
  672MOL0     H92713   4.724  -0.313   3.303  4.9201  0.0069  2.3480
  672MOL0     H92714   4.869  -0.577   3.287  1.4321 -0.5688 -2.5875
  672MOL0     H92715   4.936  -0.424   3.323  0.5903  1.2822 -0.9766
  672MOL0     H92716   3.811  -0.306   3.507  0.1259  0.3016  1.6744
  672MOL0     H92717   3.594  -0.222   3.535 -0.2068 -0.1395  0.9468
  672MOL0     H92718   3.126  -0.427   3.461 -3.4751 -0.4252 -2.2453
  672MOL0     H92719   2.877  -0.427   3.501 -0.1731 -0.1046 -2.2150
  672MOL0     H92720   1.011   0.484   3.920 -0.3894  1.0784  3.1386
  672MOL0     H92721   0.807   0.391   4.039  1.2743 -0.0806  1.8753
  672MOL0     H92722   0.651   0.022   4.282 -0.7200 -1.1209 -1.5910
  672MOL0     H92723   0.480  -0.062   4.424  0.5231 -0.8735 -0.1745
  672MOL0     H92724   0.311  -0.314   4.379  0.4729 -2.0173  3.6596
  672MOL0     H92725   0.221  -0.257   4.514 -1.6980 -0.5565  0.1154
  672MOL0     H92726   0.110  -0.415   4.311  0.3053  0.4675  0.0775
  672MOL0     H92727   0.099  -0.257   4.231 -0.7227  1.9964  0.7076
  672MOL0     H92728  -0.118  -0.315   4.342 -0.1802  1.5632 -0.6883
  672MOL0     H92729  -0.039  -0.315   4.492 -2.6468 -1.4619 -0.8661
  672MOL0     H92730  -0.033  -0.061   4.321 -0.3621  1.4643  0.7462
  672MOL0     H92731   0.018  -0.082   4.478  0.4696  0.6943 -1.3118
  672MOL0     H92732  -0.416  -0.063   4.472  0.4504 -0.5381 -1.1515
  672MOL0     H92733   0.202  -0.046   4.111  0.1948  2.3791  0.2463
  672MOL0     H92734   0.237   0.023   3.916 -0.0243  0.8203 -2.7273
  672MOL0     H92735   0.347   0.150   3.888  0.4507 -0.5056 -1.5023
  672MOL0     H92736   0.385  -0.016   3.840 -4.0356 -0.6779 -1.6921
  673MOL0     O92737   2.334  11.178   2.801  0.5246  0.1211 -0.3490
  673MOL0     C92738   2.238  11.262   2.801  0.0331 -0.6204 -0.2331
  673MOL0     O92739   2.101  11.232   2.817  0.2037 -0.1643  0.0271
  673MOL0     C92740   2.057  11.106   2.846 -0.1770 -0.7837 -0.9201
  673MOL0     C92741   1.938  11.069   2.802  0.6518  0.2959 -0.6937
  673MOL0     C92742   1.884  10.943   2.836 -0.3294 -0.2038  0.7543
  673MOL0     C92743   1.949  10.861   2.915 -0.1278  0.0374 -0.2094
  673MOL0     O92744   1.875  10.747   2.959  0.3530  0.3036  0.0449
  673MOL0     C92745   1.952  10.646   3.028  0.6470  0.5574 -0.3883
  673MOL0     C92746   1.877  10.507   3.030 -0.7526 -0.5736 -0.1326
  673MOL0     C92747   1.951  10.405   3.128  0.1595  0.7276 -0.4741
  673MOL0     C92748   1.913  10.266   3.101  0.6080  0.2690  0.7660
  673MOL0     C92749   1.764  10.225   3.094  0.1338  0.5149 -0.3002
  673MOL0     C92750   1.699  10.234   3.235 -0.5793 -0.0353  0.6525
  673MOL0     C92751   1.566  10.162   3.247  0.5669  0.2695 -0.3478
  673MOL0     C92752   1.519  10.188   3.393 -0.0584  0.1775  0.3479
  673MOL0     N92753   1.383  10.139   3.412  0.1739 -0.5968 -0.0233
  673MOL0     C92754   1.266  10.208   3.369 -0.8412  0.5463 -0.9294
  673MOL0     C92755   1.168  10.128   3.412 -0.5768  0.5622  1.1282
  673MOL0     C92756   1.027  10.155   3.377  0.4063 -0.3142 -0.0156
  673MOL0     C92757   0.974  10.108   3.243  0.3242  0.3203  0.1227
  673MOL0     C92758   0.970   9.958   3.209 -0.5062  0.0923  0.8425
  673MOL0     C92759   0.865   9.883   3.300 -0.1460  0.1609 -0.2176
  673MOL0     O92760   0.860   9.744   3.264 -0.0974 -0.6154 -0.0071
  673MOL0     C92761   0.962   9.654   3.294 -0.0589  0.2030  0.6436
  673MOL0     C92762   1.066   9.689   3.381 -0.7624 -0.7791  0.4529
  673MOL0     C92763   1.170   9.599   3.412  0.3202  0.1062  0.6050
  673MOL0     C92764   1.281   9.666   3.488 -0.0944  0.3151  0.7784
  673MOL0     C92765   1.162   9.464   3.367  0.6931  0.1148 -0.0530
  673MOL0     C92766   1.257   9.353   3.414  0.2673 -0.5234 -0.8178
  673MOL0     O92767   1.226   9.223   3.388 -1.1289  0.9001 -0.0175
  673MOL0     C92768   1.304   9.129   3.447  0.0118 -0.0436  0.1915
  673MOL0     C92769   1.262   9.065   3.561 -0.9823  0.1678 -0.5518
  673MOL0     C92770   1.340   8.976   3.633 -0.3489 -0.2869 -0.8974
  673MOL0     C92771   1.466   8.931   3.578  0.0907  0.3400  0.2409
  673MOL0     O92772   1.531   8.836   3.649  0.2822 -0.5040  0.2584
  673MOL0     C92773   1.582   8.742   3.563 -0.1228  0.5171  0.2513
  673MOL0     C92774   1.616   8.617   3.649  0.4778 -0.5313 -0.8812
  673MOL0     C92775   1.660   8.484   3.585  0.5062 -0.1755 -0.0388
  673MOL0     C92776   1.785   8.490   3.496 -0.3654  0.1510 -0.3969
  673MOL0     C92777   1.758   8.526   3.348 -0.0043  0.4722  0.0296
  673MOL0     C92778   1.636   8.467   3.268 -0.1257  0.1277  0.6324
  673MOL0     C92779   1.652   8.318   3.237  0.3511 -0.3183 -0.8764
  673MOL0     C92780   1.553   8.256   3.143 -0.0155  0.0537  0.7496
  673MOL0    Cl92781   1.382   8.258   3.187  0.3300  0.6824 -0.2151
  673MOL0     C92782   1.504   8.995   3.455 -0.6275  0.8377 -1.0744
  673MOL0     C92783   1.428   9.095   3.397 -0.7461 -0.3488 -0.5745
  673MOL0     O92784   1.369   9.390   3.457  0.0468 -0.8696 -0.6267
  673MOL0     C92785   1.049   9.429   3.285  0.3516  0.4609  0.0627
  673MOL0     C92786   0.954   9.527   3.241 -0.4125 -0.0750 -0.5570
  673MOL0     N92787   1.223  10.031   3.495 -0.0485  0.9517  0.5011
  673MOL0     N92788   1.352  10.037   3.495 -0.2317 -0.5871  0.8870
  673MOL0     C92789   2.078  10.899   2.969  0.0401  0.5072  0.5997
  673MOL0     C92790   2.131  11.021   2.929  0.1054 -0.3976 -0.5313
  673MOL0     C92791   2.254  11.415   2.757 -0.7784 -0.3377  0.3269
  673MOL0     C92792   2.143  11.489   2.775 -0.1388 -0.5298 -0.0934
  673MOL0     C92793   2.136  11.620   2.712 -0.2417 -0.6775 -0.5548
  673MOL0     C92794   2.241  11.676   2.639  0.3266 -0.1498 -0.7182
  673MOL0     O92795   2.248  11.808   2.603  0.1499 -0.4965  0.0819
  673MOL0     C92796   2.201  11.910   2.697 -0.4159 -0.6110  0.2521
  673MOL0     C92797   2.322  11.965   2.778  0.9028  0.5021 -0.4457
  673MOL0     C92798   2.409  12.068   2.704  0.2308  0.3414  1.6241
  673MOL0     C92799   2.549  12.066   2.760 -0.1065  0.8427  0.4695
  673MOL0     C92800   2.551  12.108   2.905  0.0877 -0.0115  0.4423
  673MOL0     C92801   2.564  12.126   3.024 -0.3849  0.6340 -0.0586
  673MOL0     C92802   2.353  11.602   2.627 -0.0773 -0.5800 -0.5214
  673MOL0     C92803   2.369  11.472   2.690  0.5104  0.5239 -0.4327
  673MOL0     C92804   2.503  11.405   2.686 -0.1254  0.0532  0.2174
  673MOL0     H92805   1.879  11.135   2.739 -1.0348  0.3848  0.8853
  673MOL0     H92806   1.792  10.902   2.795 -1.2247 -0.0741  2.5436
  673MOL0     H92807   1.967  10.675   3.132  1.4454  1.2699 -0.6894
  673MOL0     H92808   2.051  10.622   2.990 -0.0552 -0.6130 -1.5810
  673MOL0     H92809   1.775  10.527   3.064  1.0523  3.4181  4.1148
  673MOL0     H92810   1.889  10.451   2.936 -2.1722 -2.4192  0.7245
  673MOL0     H92811   2.058  10.402   3.107  0.3357 -3.9335  0.0229
  673MOL0     H92812   1.940  10.438   3.232  0.6748  1.1307 -0.5426
  673MOL0     H92813   1.951  10.246   3.000  0.5119 -1.0899  0.9801
  673MOL0     H92814   1.968  10.199   3.167  0.1920 -3.6361 -2.4275
  673MOL0     H92815   1.752  10.119   3.069  0.9814  0.4400 -0.3971
  673MOL0     H92816   1.707  10.290   3.026  1.1055  2.2414  0.4778
  673MOL0     H92817   1.764  10.192   3.313  1.0270 -3.0366 -2.0551
  673MOL0     H92818   1.678  10.334   3.273 -2.2608 -0.5571  1.1836
  673MOL0     H92819   1.583  10.056   3.226  1.8876 -0.3590  3.2372
  673MOL0     H92820   1.488  10.187   3.174 -1.3797 -2.5422  0.5742
  673MOL0     H92821   1.581  10.127   3.460  2.4132  0.4731 -1.5465
  673MOL0     H92822   1.520  10.294   3.420 -2.2198  0.1212  0.8495
  673MOL0     H92823   1.257  10.299   3.310  0.0453  1.6314  0.5681
  673MOL0     H92824   1.017  10.263   3.386 -0.4712 -0.3829 -0.0895
  673MOL0     H92825   0.964  10.119   3.459  0.1949 -0.5128 -0.2657
  673MOL0     H92826   0.873  10.147   3.227  0.9079  0.8839 -2.7744
  673MOL0     H92827   1.029  10.151   3.159 -0.6969  1.3796 -0.0276
  673MOL0     H92828   0.957   9.946   3.101  3.4908 -0.6030  0.2996
  673MOL0     H92829   1.066   9.912   3.232 -0.2584  0.4352  0.5109
  673MOL0     H92830   0.882   9.902   3.406 -1.0796 -0.7732  0.1147
  673MOL0     H92831   0.766   9.922   3.276 -0.3158 -0.4117 -0.4560
  673MOL0     H92832   1.071   9.793   3.412  1.5854 -0.3007 -1.2147
  673MOL0     H92833   1.258   9.652   3.594 -0.0034 -0.5797  0.6916
  673MOL0     H92834   1.281   9.769   3.452  0.3838 -0.6890 -2.4465
  673MOL0     H92835   1.379   9.620   3.468 -1.8217 -2.6213 -1.8351
  673MOL0     H92836   1.165   9.097   3.596  0.0262  3.2593 -0.3123
  673MOL0     H92837   1.300   8.930   3.723 -1.6397  1.6971 -0.3842
  673MOL0     H92838   1.499   8.710   3.499  0.3872 -0.5191  0.0753
  673MOL0     H92839   1.662   8.770   3.494  0.6424 -2.6341 -0.3369
  673MOL0     H92840   1.700   8.643   3.714 -0.2255  1.0607 -0.5682
  673MOL0     H92841   1.534   8.604   3.721  1.0688 -0.9636 -0.2698
  673MOL0     H92842   1.573   8.436   3.540 -0.7648  4.2102 -2.9085
  673MOL0     H92843   1.696   8.418   3.665  1.4165 -2.2097 -2.0468
  673MOL0     H92844   1.818   8.386   3.489  3.1226  1.0818  0.0087
  673MOL0     H92845   1.857   8.559   3.542  1.6011 -0.0303 -2.9733
  673MOL0     H92846   1.755   8.634   3.335 -1.7344  0.3658 -0.6440
  673MOL0     H92847   1.846   8.492   3.292  0.9176 -0.4519  1.9476
  673MOL0     H92848   1.631   8.515   3.170 -0.3223 -1.9413 -0.4170
  673MOL0     H92849   1.547   8.485   3.330 -1.9333  0.1552 -1.8124
  673MOL0     H92850   1.653   8.258   3.329 -0.4615  1.0172  0.0470
  673MOL0     H92851   1.748   8.317   3.185 -0.2554 -0.3308 -2.0312
  673MOL0     H92852   1.583   8.157   3.108  2.5794  1.4262 -1.3324
  673MOL0     H92853   1.553   8.315   3.050  0.6750 -2.0767 -0.6783
  673MOL0     H92854   1.604   8.964   3.428  0.0014 -0.6581  2.3795
  673MOL0     H92855   1.474   9.143   3.311  0.1886 -1.8122 -0.9389
  673MOL0     H92856   1.041   9.325   3.258  2.5310  0.3182 -0.2100
  673MOL0     H92857   0.887   9.489   3.165 -0.7864 -0.3556 -0.0930
  673MOL0     H92858   2.136  10.838   3.037  0.5539 -1.2926 -1.3381
  673MOL0     H92859   2.228  11.048   2.971  1.2067  1.6863 -4.0063
  673MOL0     H92860   2.068  11.463   2.849  1.8162  0.8418  2.5286
  673MOL0     H92861   2.051  11.680   2.741  0.9783 -0.2522  2.6298
  673MOL0     H92862   2.159  11.997   2.646  0.6661 -1.1065 -1.5782
  673MOL0     H92863   2.124  11.878   2.768  0.6414  0.7382  2.1215
  673MOL0     H92864   2.380  11.878   2.809  2.8560  1.3493 -1.5439
  673MOL0     H92865   2.290  12.022   2.865 -1.8795 -1.7424  0.1578
  673MOL0     H92866   2.409  12.035   2.600 -0.3280 -1.0084  2.0268
  673MOL0     H92867   2.355  12.164   2.704  0.6475  0.6012 -0.0032
  673MOL0     H92868   2.606  12.141   2.706  0.4825  0.1895  0.1702
  673MOL0     H92869   2.588  11.964   2.747  0.1098  0.6802  2.1663
  673MOL0     H92870   2.568  12.159   3.126 -1.2077 -1.8677  0.8694
  673MOL0     H92871   2.437  11.656   2.584 -0.0192 -0.3485 -0.1159
  673MOL0     H92872   2.506  11.298   2.665  1.8764 -0.1461  1.2591
  673MOL0     H92873   2.570  11.461   2.620  0.7810  0.4307  1.4058
  673MOL0     H92874   2.551  11.425   2.782 -0.5722 -3.9978  1.4388
  674MOL0     O92875   6.067   2.824   0.827 -0.0046  0.2569  0.5083
  674MOL0     C92876   6.047   2.921   0.891  0.3879  0.5633 -0.1545
  674MOL0     O92877   6.137   2.990   0.957 -0.2114  0.5106 -0.3327
  674MOL0     C92878   6.269   2.998   0.913  0.8293 -0.2652 -0.2700
  674MOL0     C92879   6.308   3.032   0.787 -0.1831  0.1232  0.2670
  674MOL0     C92880   6.435   3.065   0.746  0.6715  0.2120 -0.5926
  674MOL0     C92881   6.532   3.037   0.847  0.5057 -0.1407  0.2129
  674MOL0     O92882   6.665   3.039   0.818  0.0398 -0.4770  0.1305
  674MOL0     C92883   6.726   3.150   0.748 -0.0014 -0.0584  0.3627
  674MOL0     C92884   6.883   3.141   0.764 -0.1335 -0.1469 -0.0322
  674MOL0     C92885   6.943   3.005   0.722 -0.0475  0.1649 -0.0511
  674MOL0     C92886   7.094   3.016   0.756 -1.1038  0.6589  0.5935
  674MOL0     C92887   7.161   2.900   0.677 -0.8734 -0.2739 -0.5143
  674MOL0     C92888   7.308   2.921   0.711 -0.7097  0.1706  0.2634
  674MOL0     C92889   7.400   2.819   0.651  0.2253  0.0404 -0.1779
  674MOL0     C92890   7.549   2.818   0.693  0.5226 -0.4444 -0.2298
  674MOL0     N92891   7.617   2.700   0.633  0.0929  0.3410  0.5710
  674MOL0     C92892   7.602   2.569   0.666 -0.1321 -0.2621 -0.4822
  674MOL0     C92893   7.650   2.499   0.565 -0.2839  0.1216  0.2014
  674MOL0     C92894   7.681   2.345   0.558  0.8174 -0.8017 -0.7427
  674MOL0     C92895   7.748   2.282   0.683 -0.4190  0.0916  0.7771
  674MOL0     C92896   7.876   2.355   0.730 -0.6504 -0.5274 -0.1163
  674MOL0     C92897   7.971   2.291   0.830  0.3260 -0.6413  0.6419
  674MOL0     O92898   8.018   2.165   0.785  1.0633 -0.4600  0.1570
  674MOL0     C92899   8.147   2.140   0.828 -0.4800 -0.1577 -0.5912
  674MOL0     C92900   8.240   2.091   0.733 -0.3156 -0.0407  0.0274
  674MOL0     C92901   8.378   2.087   0.764  0.7898 -0.1351  0.9223
  674MOL0     C92902   8.472   2.030   0.651 -1.0394  0.1238  0.5758
  674MOL0     C92903   8.418   2.135   0.896 -0.2274  0.2707  0.3136
  674MOL0     C92904   8.565   2.138   0.944 -0.1512  0.7751  0.5766
  674MOL0     O92905   8.585   2.202   1.056  0.7391 -0.9198  0.1097
  674MOL0     C92906   8.708   2.216   1.115 -0.0451 -0.1891  0.7179
  674MOL0     C92907   8.815   2.282   1.045 -0.1183 -0.3549  0.5801
  674MOL0     C92908   8.935   2.294   1.098 -0.5931 -0.3409 -0.5936
  674MOL0     C92909   8.965   2.222   1.206  0.3096  0.7228  0.3414
  674MOL0     O92910   9.093   2.221   1.242 -0.4809 -0.3679 -0.0960
  674MOL0     C92911   9.137   2.199   1.385  0.5699  0.4822 -0.0842
  674MOL0     C92912   9.289   2.181   1.399  0.4299  0.6416  0.5267
  674MOL0     C92913   9.335   2.156   1.548 -0.1375 -0.2330  0.4323
  674MOL0     C92914   9.474   2.099   1.545 -0.2034  0.2297 -0.4049
  674MOL0     C92915   9.539   2.093   1.686 -0.6267 -0.4690 -0.4195
  674MOL0     C92916   9.672   1.997   1.682  0.1158 -0.1796 -0.4310
  674MOL0     C92917   9.665   1.849   1.660 -0.4433  0.1067  0.4574
  674MOL0     C92918   9.797   1.768   1.681 -0.0777  0.7256  0.2831
  674MOL0    Cl92919   9.778   1.595   1.663 -0.1630 -0.1823  0.7259
  674MOL0     C92920   8.873   2.150   1.278 -0.0619 -0.0737 -0.7175
  674MOL0     C92921   8.738   2.149   1.233 -0.1274  0.6385  0.7396
  674MOL0     O92922   8.644   2.071   0.888 -1.1421  0.6418 -1.0671
  674MOL0     C92923   8.325   2.181   0.987  1.0402  0.5203 -0.8684
  674MOL0     C92924   8.192   2.181   0.957  0.4356  0.3808  0.2338
  674MOL0     N92925   7.689   2.587   0.459 -0.6512 -0.9048 -0.4482
  674MOL0     N92926   7.667   2.709   0.509  0.2691 -0.0953 -0.2220
  674MOL0     C92927   6.493   3.012   0.976 -0.1459 -0.5581  0.3289
  674MOL0     C92928   6.361   2.996   1.007 -0.0602  0.0607  0.3269
  674MOL0     C92929   5.903   2.955   0.940 -1.1467  0.9325  0.8868
  674MOL0     C92930   5.892   3.057   1.038 -0.1658  0.1715 -0.6874
  674MOL0     C92931   5.769   3.090   1.090  0.1256 -0.1352  0.3969
  674MOL0     C92932   5.654   3.019   1.052  0.1349 -0.2983 -0.1050
  674MOL0     O92933   5.536   3.047   1.114 -0.8866  0.2601 -0.3735
  674MOL0     C92934   5.423   3.076   1.032  0.4819 -0.3978  0.1564
  674MOL0     C92935   5.312   3.135   1.118  0.4030 -0.6138 -0.2433
  674MOL0     C92936   5.280   3.055   1.248  0.5178 -0.1794  0.0797
  674MOL0     C92937   5.194   3.142   1.341  0.1416  0.7670 -0.9825
  674MOL0     C92938   5.192   3.082   1.471 -0.0827 -0.0039  0.3775
  674MOL0     C92939   5.173   3.029   1.582  0.5857  0.5096 -0.0921
  674MOL0     C92940   5.668   2.912   0.967  0.1477  0.5924  0.2929
  674MOL0     C92941   5.778   2.885   0.902 -0.4357  0.5449 -0.3808
  674MOL0     C92942   5.769   2.774   0.801 -0.0933  0.0636  0.6160
  674MOL0     H92943   6.237   3.048   0.706 -0.4791  0.8780  0.6587
  674MOL0     H92944   6.461   3.084   0.642  1.0645  1.0479 -0.3545
  674MOL0     H92945   6.694   3.245   0.791 -2.3783 -1.4645  1.9736
  674MOL0     H92946   6.698   3.147   0.642 -0.3057 -2.0067  0.4579
  674MOL0     H92947   6.935   3.225   0.716  1.9373 -0.9017  0.7387
  674MOL0     H92948   6.904   3.139   0.872  1.3974 -0.8107 -0.3098
  674MOL0     H92949   6.904   2.913   0.766  2.1685 -2.2044 -2.6883
  674MOL0     H92950   6.931   2.995   0.614 -2.1798 -0.0183  0.1607
  674MOL0     H92951   7.142   3.110   0.727  0.4557 -0.7776 -1.8067
  674MOL0     H92952   7.105   3.002   0.864  2.2424 -1.2341  0.1476
  674MOL0     H92953   7.146   2.904   0.569 -0.0064 -1.6537 -0.7077
  674MOL0     H92954   7.131   2.805   0.721  1.4368 -0.3359  1.1546
  674MOL0     H92955   7.334   3.021   0.677 -1.9615  0.2935 -0.3976
  674MOL0     H92956   7.324   2.914   0.819  0.1871  0.6429  0.1643
  674MOL0     H92957   7.393   2.837   0.543 -1.3320  2.5523  0.2521
  674MOL0     H92958   7.353   2.727   0.688  0.6413 -0.7967 -1.6661
  674MOL0     H92959   7.598   2.907   0.654  0.9070 -0.3421  0.4650
  674MOL0     H92960   7.552   2.823   0.802 -0.3881  0.0435 -0.2107
  674MOL0     H92961   7.557   2.529   0.756 -0.5026 -4.6707 -2.3538
  674MOL0     H92962   7.745   2.335   0.470  0.9166 -2.6336 -0.5083
  674MOL0     H92963   7.588   2.295   0.531 -0.4738  0.1859  1.5963
  674MOL0     H92964   7.672   2.285   0.761 -0.6921 -0.7785  0.5642
  674MOL0     H92965   7.775   2.179   0.655  0.0482  0.5389 -0.4777
  674MOL0     H92966   7.941   2.386   0.647  0.2827 -0.4301  0.6321
  674MOL0     H92967   7.841   2.446   0.780  2.4439 -0.4833  2.3201
  674MOL0     H92968   8.052   2.363   0.847  0.5655 -0.2713 -1.7163
  674MOL0     H92969   7.917   2.266   0.922  0.3579 -5.6732 -0.4195
  674MOL0     H92970   8.205   2.062   0.634  2.5831 -3.1337 -0.2785
  674MOL0     H92971   8.496   1.924   0.659 -2.0097 -0.2223 -0.7103
  674MOL0     H92972   8.561   2.094   0.653 -1.5326  0.8235  1.8386
  674MOL0     H92973   8.422   2.046   0.556 -0.4769 -0.0102  0.2547
  674MOL0     H92974   8.791   2.345   0.960 -2.8249  0.7062  1.9945
  674MOL0     H92975   9.006   2.354   1.042  2.6979 -0.7684  2.7866
  674MOL0     H92976   9.113   2.291   1.439  1.0542  1.8165 -2.0461
  674MOL0     H92977   9.077   2.119   1.429 -0.9762  0.7347 -1.5957
  674MOL0     H92978   9.329   2.100   1.337 -1.6849  0.4988 -0.7478
  674MOL0     H92979   9.336   2.272   1.361 -2.2224  2.5545  1.5293
  674MOL0     H92980   9.265   2.090   1.599  0.0827 -0.8901 -0.1022
  674MOL0     H92981   9.347   2.253   1.598  1.1983  0.9372 -1.9826
  674MOL0     H92982   9.539   2.147   1.471  0.4162 -0.4440 -0.3033
  674MOL0     H92983   9.476   1.996   1.507  2.2322  0.5325 -1.2937
  674MOL0     H92984   9.581   2.193   1.699  1.5545 -1.2660 -0.9739
  674MOL0     H92985   9.473   2.062   1.768  1.4713 -2.5438  0.6100
  674MOL0     H92986   9.723   2.008   1.778 -0.1594 -0.4357 -0.2552
  674MOL0     H92987   9.737   2.033   1.601  2.1581 -0.0192  1.1915
  674MOL0     H92988   9.620   1.831   1.562 -1.6950 -1.9136  1.3415
  674MOL0     H92989   9.594   1.803   1.729  1.5299 -0.8056  1.9707
  674MOL0     H92990   9.834   1.789   1.782 -1.2140  4.2075  0.0977
  674MOL0     H92991   9.871   1.798   1.605  0.2347  0.5614  0.5189
  674MOL0     H92992   8.899   2.093   1.367 -2.0798 -2.1908 -1.3898
  674MOL0     H92993   8.667   2.090   1.289  0.1655  0.2503  0.7076
  674MOL0     H92994   8.338   2.225   1.085 -0.8760 -1.1841  0.2195
  674MOL0     H92995   8.122   2.217   1.031  0.7982 -0.0897  0.8208
  674MOL0     H92996   6.569   2.985   1.048 -2.2550 -0.4210  2.7607
  674MOL0     H92997   6.330   2.970   1.108 -1.5345  0.8676  0.1173
  674MOL0     H92998   5.972   3.118   1.079 -1.1474  0.7234  0.4470
  674MOL0     H92999   5.767   3.173   1.160 -0.2920 -0.1268  0.3740
  674MOL0     H93000   5.446   3.152   0.958 -1.9614  0.8393  0.5652
  674MOL0     H93001   5.390   2.992   0.970 -0.1756  1.7286 -2.5381
  674MOL0     H93002   5.227   3.151   1.051 -0.2913 -0.0574  0.7480
  674MOL0     H93003   5.346   3.232   1.154  0.0059 -0.3609 -0.5517
  674MOL0     H93004   5.232   2.958   1.231  1.4363 -1.0332  2.0851
  674MOL0     H93005   5.376   3.035   1.296 -0.1107  0.5737  1.7294
  674MOL0     H93006   5.096   3.147   1.293 -1.4713 -3.2402  1.3483
  674MOL0     H93007   5.227   3.244   1.361  1.6442  0.7152 -2.8856
  674MOL0     H93008   5.168   2.974   1.674  1.6609 -1.3805 -1.0854
  674MOL0     H93009   5.571   2.865   0.953 -0.8396  2.1761  1.4285
  674MOL0     H93010   5.864   2.732   0.767  0.2115  0.6138  0.7653
  674MOL0     H93011   5.696   2.703   0.839  2.3819 -1.5243  2.7618
  674MOL0     H93012   5.733   2.822   0.710 -2.1546 -1.4776  0.5640
  675MOL0     O93013   6.771   4.766   7.601 -0.3903 -0.0890 -0.1412
  675MOL0     C93014   6.818   4.720   7.705 -0.7595 -0.4162 -0.8766
  675MOL0     O93015   6.871   4.795   7.806 -0.6157 -0.1939  0.3355
  675MOL0     C93016   6.871   4.930   7.795 -0.0291 -0.2496 -0.6487
  675MOL0     C93017   6.993   4.989   7.787  0.2995 -0.4143  1.0106
  675MOL0     C93018   7.013   5.127   7.767  0.2698  0.1497  0.2648
  675MOL0     C93019   6.900   5.204   7.774  0.4614  0.5406 -0.2642
  675MOL0     O93020   6.901   5.340   7.756 -0.6001 -0.6636 -0.0485
  675MOL0     C93021   7.021   5.421   7.740 -0.2915  0.5923  0.0717
  675MOL0     C93022   6.995   5.568   7.704 -0.1781 -0.2501 -0.1798
  675MOL0     C93023   7.113   5.649   7.654  0.8227 -0.0430 -0.8175
  675MOL0     C93024   7.166   5.608   7.516 -0.2582 -0.0253  0.0517
  675MOL0     C93025   7.305   5.659   7.493 -0.3050  0.1367 -0.0017
  675MOL0     C93026   7.417   5.588   7.573 -0.6366 -0.1055  0.2894
  675MOL0     C93027   7.450   5.446   7.522  0.3893 -0.0943 -0.6105
  675MOL0     C93028   7.527   5.434   7.389 -0.6390 -0.1909 -0.5338
  675MOL0     N93029   7.668   5.469   7.416  0.5074  0.6035  0.0366
  675MOL0     C93030   7.755   5.386   7.481 -0.0904  0.4584 -0.0265
  675MOL0     C93031   7.879   5.450   7.464  0.8814  0.1279  0.8515
  675MOL0     C93032   8.012   5.399   7.530  0.2836 -0.2613  0.1332
  675MOL0     C93033   8.140   5.374   7.433 -0.2132 -0.7746 -0.1612
  675MOL0     C93034   8.111   5.269   7.336  0.6380  1.3347 -0.0155
  675MOL0     C93035   8.247   5.214   7.270  0.2324 -1.2812 -0.3053
  675MOL0     O93036   8.297   5.125   7.366 -0.4607  0.4961  0.7151
  675MOL0     C93037   8.429   5.076   7.361 -0.4044 -0.0842  1.0834
  675MOL0     C93038   8.473   4.988   7.453  0.1488  0.2266  0.0325
  675MOL0     C93039   8.593   4.927   7.445  0.6048  0.8186 -0.1878
  675MOL0     C93040   8.623   4.814   7.540 -0.6462  0.8614 -0.5250
  675MOL0     C93041   8.688   4.974   7.353  0.1365 -0.0621 -0.4070
  675MOL0     C93042   8.826   4.917   7.336  0.0207  0.7480  0.0456
  675MOL0     O93043   8.882   4.954   7.217  0.8418  0.3425 -0.2119
  675MOL0     C93044   9.015   4.947   7.196  0.3709  0.5767 -0.4087
  675MOL0     C93045   9.055   4.886   7.081  0.0769 -0.3181  0.7174
  675MOL0     C93046   9.186   4.888   7.042  0.1669  0.0084  0.3050
  675MOL0     C93047   9.291   4.931   7.120 -0.6119  0.1991 -0.9183
  675MOL0     O93048   9.423   4.907   7.093 -0.1787 -0.0400  0.2225
  675MOL0     C93049   9.473   4.828   6.987  0.6139  0.7548 -0.0301
  675MOL0     C93050   9.617   4.806   7.003 -0.1351 -0.4962 -0.3961
  675MOL0     C93051   9.685   4.940   7.010  0.9406  0.1418  0.4935
  675MOL0     C93052   9.826   4.943   6.967 -0.5134 -0.2651 -0.3829
  675MOL0     C93053   9.890   5.085   6.996  0.0714 -0.0428  0.4364
  675MOL0     C93054  10.038   5.067   7.007  0.0064  0.7039 -0.0541
  675MOL0     C93055  10.107   5.191   7.045  0.4996 -0.4264 -1.2169
  675MOL0     C93056  10.261   5.191   7.039  0.1184 -0.1919  0.5312
  675MOL0    Cl93057  10.322   5.177   6.873 -0.2123  0.0171 -0.4666
  675MOL0     C93058   9.257   4.979   7.247 -0.1822  0.2431  0.2985
  675MOL0     C93059   9.120   4.992   7.282  0.1428  1.1034 -0.1141
  675MOL0     O93060   8.881   4.860   7.429 -0.4613  1.2306  0.0296
  675MOL0     C93061   8.648   5.078   7.263 -0.7221  1.2609 -0.1283
  675MOL0     C93062   8.516   5.128   7.264 -0.9431  0.4582 -0.3216
  675MOL0     N93063   7.861   5.568   7.387 -0.3338 -0.1172  0.1084
  675MOL0     N93064   7.733   5.572   7.366 -0.6063 -0.2697  0.3279
  675MOL0     C93065   6.770   5.143   7.784  0.7402 -0.9522  0.2048
  675MOL0     C93066   6.759   5.006   7.788 -0.0933 -0.3308  0.2169
  675MOL0     C93067   6.837   4.573   7.721  0.0568  0.3308 -0.3777
  675MOL0     C93068   6.758   4.482   7.646  0.3045 -0.5642 -0.2883
  675MOL0     C93069   6.770   4.338   7.657  0.0947 -0.3620  0.1280
  675MOL0     C93070   6.848   4.285   7.757  0.6850 -0.2354 -0.3163
  675MOL0     O93071   6.862   4.151   7.763 -0.8051 -0.3371  0.4540
  675MOL0     C93072   6.980   4.093   7.825  0.1177  0.0763 -0.1327
  675MOL0     C93073   6.960   3.938   7.816  0.8266 -1.1588  0.1389
  675MOL0     C93074   6.961   3.904   7.672 -0.0770 -0.4909  0.6977
  675MOL0     C93075   6.972   3.750   7.653 -0.2997 -0.7865 -0.2702
  675MOL0     C93076   6.917   3.722   7.520  0.4988  0.2568 -0.1450
  675MOL0     C93077   6.873   3.707   7.401 -0.2479  1.4548 -1.1817
  675MOL0     C93078   6.926   4.372   7.830 -0.3395  0.0189  0.3240
  675MOL0     C93079   6.933   4.508   7.806  0.5734  0.4788  0.2729
  675MOL0     C93080   7.029   4.583   7.893 -0.0731  0.0835  0.2621
  675MOL0     H93081   7.078   4.922   7.777 -0.3321 -0.8677 -2.5936
  675MOL0     H93082   7.113   5.168   7.759 -0.0501  0.7439 -0.7765
  675MOL0     H93083   7.083   5.371   7.664  0.5181 -2.0000  2.2900
  675MOL0     H93084   7.078   5.416   7.833 -2.0301 -2.4382  1.1197
  675MOL0     H93085   6.918   5.564   7.626 -0.5371 -1.4629  0.2147
  675MOL0     H93086   6.950   5.609   7.795  0.1503  0.4700 -0.3387
  675MOL0     H93087   7.095   5.757   7.654  0.8425 -0.0250 -2.0742
  675MOL0     H93088   7.188   5.638   7.733  0.4744  0.2569 -0.4398
  675MOL0     H93089   7.158   5.500   7.501  0.2909 -0.1883  0.8611
  675MOL0     H93090   7.100   5.644   7.437 -2.1711 -4.0710 -0.4594
  675MOL0     H93091   7.301   5.766   7.518 -1.6553  0.7065 -2.4067
  675MOL0     H93092   7.327   5.653   7.386 -0.0461  3.3033 -0.2283
  675MOL0     H93093   7.509   5.648   7.570 -0.4196 -0.3288  1.8422
  675MOL0     H93094   7.393   5.575   7.679  1.2303 -0.7927  0.6633
  675MOL0     H93095   7.353   5.395   7.513 -0.0603  0.6224  0.0179
  675MOL0     H93096   7.500   5.388   7.599 -1.2556 -1.6665 -0.6733
  675MOL0     H93097   7.520   5.332   7.352  3.7451 -0.6171 -0.6821
  675MOL0     H93098   7.478   5.500   7.316 -0.9589 -0.8167 -0.8975
  675MOL0     H93099   7.734   5.297   7.540  3.5400  0.6454  1.8025
  675MOL0     H93100   7.990   5.307   7.585  2.1214 -1.0944 -0.4233
  675MOL0     H93101   8.041   5.483   7.593  2.0704 -0.6919 -0.0464
  675MOL0     H93102   8.158   5.457   7.365 -1.9362  0.2907  0.6157
  675MOL0     H93103   8.229   5.357   7.495  1.1922  0.2261 -1.7986
  675MOL0     H93104   8.057   5.185   7.380 -0.3835  2.2959  0.6446
  675MOL0     H93105   8.054   5.321   7.258  1.6400  1.5393 -0.6338
  675MOL0     H93106   8.221   5.167   7.174 -1.3270 -2.2560  0.5523
  675MOL0     H93107   8.308   5.304   7.262 -1.8462  0.3732  1.1423
  675MOL0     H93108   8.402   4.955   7.529  0.9931 -1.5526  0.1133
  675MOL0     H93109   8.691   4.845   7.621 -2.4019  3.6752  0.0016
  675MOL0     H93110   8.667   4.732   7.482 -0.4393  1.0585 -0.6509
  675MOL0     H93111   8.530   4.771   7.578 -2.4601  1.8987 -3.5091
  675MOL0     H93112   8.985   4.840   7.012 -1.5535 -1.0737  2.7670
  675MOL0     H93113   9.204   4.859   6.939 -1.2268  3.9961 -1.2630
  675MOL0     H93114   9.424   4.730   6.987 -0.0092  0.9969  2.5780
  675MOL0     H93115   9.459   4.879   6.891 -2.6173  1.9335  0.9189
  675MOL0     H93116   9.639   4.757   7.098 -1.2277  5.0511  3.1951
  675MOL0     H93117   9.649   4.739   6.922  0.6735 -3.4730  2.1964
  675MOL0     H93118   9.672   4.972   7.114  0.1392  0.7965  0.2017
  675MOL0     H93119   9.640   5.018   6.948  1.2512  1.2612  1.6203
  675MOL0     H93120   9.829   4.932   6.858 -2.3781 -0.6203 -0.4336
  675MOL0     H93121   9.889   4.865   7.011  1.8645  2.2139  0.9218
  675MOL0     H93122   9.865   5.154   6.915 -2.7773  0.1716  1.4180
  675MOL0     H93123   9.850   5.122   7.090 -1.1987 -0.3624  0.0373
  675MOL0     H93124  10.076   5.029   6.912  0.6140 -0.6662  0.7041
  675MOL0     H93125  10.061   4.987   7.079 -0.3458  0.5624 -0.0970
  675MOL0     H93126  10.086   5.220   7.148  3.3690  3.3160 -1.4704
  675MOL0     H93127  10.071   5.274   6.983 -1.1080 -0.8871 -0.9378
  675MOL0     H93128  10.299   5.108   7.100 -2.0633 -0.6174  1.4289
  675MOL0     H93129  10.297   5.286   7.079 -0.8220  0.1743  0.5259
  675MOL0     H93130   9.340   5.015   7.308  0.2359  0.3452 -0.3235
  675MOL0     H93131   9.078   5.036   7.373 -0.2424  1.0460 -0.2603
  675MOL0     H93132   8.716   5.111   7.185  0.4242  1.7586  1.0452
  675MOL0     H93133   8.483   5.201   7.191  0.1753  0.6915 -0.6122
  675MOL0     H93134   6.678   5.199   7.778 -0.2935 -2.5697  0.2814
  675MOL0     H93135   6.660   4.963   7.803  0.8797 -1.6988  3.6143
  675MOL0     H93136   6.690   4.522   7.571 -0.0382  1.1000  0.8590
  675MOL0     H93137   6.701   4.268   7.611  0.5476 -0.8160  0.1191
  675MOL0     H93138   7.073   4.124   7.777 -1.3592  0.2533 -3.1496
  675MOL0     H93139   6.985   4.120   7.931  2.7475 -1.4499  0.2117
  675MOL0     H93140   6.863   3.914   7.860 -0.2274  0.7656 -1.0041
  675MOL0     H93141   7.045   3.898   7.871  1.3594  1.4538  1.3728
  675MOL0     H93142   6.874   3.950   7.623  0.6863  0.9177  0.5961
  675MOL0     H93143   7.046   3.952   7.623 -2.7589  2.6718 -1.3053
  675MOL0     H93144   6.918   3.699   7.733  1.0430 -1.5608  0.1696
  675MOL0     H93145   7.077   3.723   7.640  0.2723  1.8618 -1.9860
  675MOL0     H93146   6.839   3.677   7.305  1.7684  0.3224 -1.5926
  675MOL0     H93147   7.002   4.332   7.896 -1.0625 -2.8223 -0.4184
  675MOL0     H93148   6.969   4.620   7.977 -0.2228 -0.0404  0.2099
  675MOL0     H93149   7.101   4.505   7.918  0.3311 -0.5894 -2.6912
  675MOL0     H93150   7.070   4.671   7.843 -1.5205  0.9456  0.5065
  676MOL0     O93151   2.916   5.773   0.688 -0.6989 -0.4486 -0.5220
  676MOL0     C93152   2.873   5.877   0.726 -0.1957 -0.6933  0.1390
  676MOL0     O93153   2.943   5.962   0.814 -0.0485  0.6645 -0.0310
  676MOL0     C93154   3.029   5.894   0.897  0.7813 -0.5659 -0.1015
  676MOL0     C93155   2.978   5.843   1.014  0.7160  0.6732  0.5943
  676MOL0     C93156   3.056   5.781   1.109  0.4464 -0.1612  0.4293
  676MOL0     C93157   3.193   5.768   1.084 -0.1031 -0.0102  0.5489
  676MOL0     O93158   3.278   5.720   1.178 -0.2104 -0.4430 -0.0416
  676MOL0     C93159   3.399   5.781   1.185 -0.2797 -0.9060  0.4498
  676MOL0     C93160   3.480   5.740   1.307  0.6074  0.2032 -0.2094
  676MOL0     C93161   3.403   5.767   1.434  0.9347  0.1518  0.1260
  676MOL0     C93162   3.494   5.760   1.557  1.3356 -0.1414 -0.5919
  676MOL0     C93163   3.433   5.813   1.687 -0.3694  0.6646  0.5481
  676MOL0     C93164   3.523   5.787   1.813 -0.1007  0.0356 -0.4282
  676MOL0     C93165   3.639   5.883   1.838  0.3960  0.3246 -0.3117
  676MOL0     C93166   3.708   5.845   1.973  0.4671  0.0273  0.3120
  676MOL0     N93167   3.825   5.926   1.984  0.4742  0.3334  0.5569
  676MOL0     C93168   3.949   5.874   1.954 -1.2191 -0.3202 -0.4652
  676MOL0     C93169   4.024   5.975   2.022 -0.6783 -0.4349  0.1791
  676MOL0     C93170   4.174   6.012   2.039 -0.1704  0.2089  0.9043
  676MOL0     C93171   4.272   5.887   2.045  0.6126  0.3732  0.3366
  676MOL0     C93172   4.413   5.931   2.087 -0.2348 -0.2732 -0.1426
  676MOL0     C93173   4.526   5.826   2.070 -0.6849 -0.1245 -0.1756
  676MOL0     O93174   4.641   5.900   2.045  0.0778  0.2803 -0.2116
  676MOL0     C93175   4.745   5.825   1.998 -0.3380 -0.2794 -0.2223
  676MOL0     C93176   4.862   5.903   1.980 -0.1848  0.3730 -1.0317
  676MOL0     C93177   4.990   5.848   1.943  0.7588 -0.3387  0.4916
  676MOL0     C93178   5.102   5.945   1.926 -0.0199  0.4605 -0.8062
  676MOL0     C93179   4.996   5.711   1.912  0.7316  0.0470  0.0631
  676MOL0     C93180   5.120   5.649   1.869 -0.2443 -0.4232 -0.4233
  676MOL0     O93181   5.239   5.697   1.923  0.8909  0.0004  0.1381
  676MOL0     C93182   5.357   5.677   1.858  0.3580 -0.8379  0.0684
  676MOL0     C93183   5.406   5.772   1.759 -0.6270 -0.3021 -0.1248
  676MOL0     C93184   5.530   5.739   1.694 -0.0944  0.0403 -1.1500
  676MOL0     C93185   5.606   5.625   1.733 -1.1680  0.3542 -0.1310
  676MOL0     O93186   5.731   5.616   1.673  0.5215 -0.1080  0.3956
  676MOL0     C93187   5.852   5.595   1.746 -0.0227 -0.2278  0.4590
  676MOL0     C93188   5.861   5.699   1.868  0.2573  0.7547 -0.7517
  676MOL0     C93189   5.904   5.840   1.832  0.4682  0.3661  0.1664
  676MOL0     C93190   5.799   5.946   1.811 -0.1521 -0.2431 -0.3338
  676MOL0     C93191   5.706   5.960   1.940  0.0681  1.1427 -0.1679
  676MOL0     C93192   5.625   6.093   1.962  0.9557  0.6971 -0.8011
  676MOL0     C93193   5.492   6.080   1.890  0.1938 -0.3655  0.1312
  676MOL0     C93194   5.424   6.210   1.870 -0.2431 -0.7078 -0.2782
  676MOL0    Cl93195   5.506   6.294   1.733 -0.2795 -0.0657 -0.2745
  676MOL0     C93196   5.556   5.530   1.832  0.1211 -0.5066  0.8104
  676MOL0     C93197   5.424   5.561   1.886 -0.7907  0.7905 -0.4904
  676MOL0     O93198   5.110   5.570   1.777  0.5364  0.1820  0.6119
  676MOL0     C93199   4.879   5.635   1.932  0.2201  0.8376  0.3954
  676MOL0     C93200   4.754   5.685   1.975 -0.3555 -0.2574 -0.2271
  676MOL0     N93201   3.947   6.072   2.070  0.3228  0.0848 -0.0660
  676MOL0     N93202   3.822   6.040   2.056 -0.0523  0.2722  1.1682
  676MOL0     C93203   3.252   5.824   0.965 -0.1594 -0.6114  0.3410
  676MOL0     C93204   3.169   5.881   0.870  0.7870 -0.1196  0.5016
  676MOL0     C93205   2.740   5.916   0.679  0.5199  0.7053 -0.2817
  676MOL0     C93206   2.685   6.034   0.723  0.4391 -0.2813 -0.0013
  676MOL0     C93207   2.558   6.085   0.679 -0.2343 -0.4092 -0.3241
  676MOL0     C93208   2.483   6.020   0.588  0.0665  0.8654  0.8145
  676MOL0     O93209   2.359   6.065   0.558  0.3247  0.4686  0.3006
  676MOL0     C93210   2.257   5.963   0.595 -0.0420 -0.4232  0.8018
  676MOL0     C93211   2.131   6.034   0.643 -0.4234  0.1629 -0.3005
  676MOL0     C93212   2.151   6.110   0.781 -0.0245 -0.4371 -0.9720
  676MOL0     C93213   2.212   6.024   0.891  0.8137 -0.1841 -0.8951
  676MOL0     C93214   2.123   5.913   0.922 -0.4001 -0.0059 -0.4820
  676MOL0     C93215   2.038   5.821   0.938  0.8501  0.3789  0.4281
  676MOL0     C93216   2.539   5.903   0.524  1.0367  0.7674  0.3334
  676MOL0     C93217   2.659   5.850   0.575  0.2387 -0.2206 -0.1546
  676MOL0     C93218   2.685   5.718   0.498 -0.7104 -0.5407 -0.2469
  676MOL0     H93219   2.873   5.863   1.033  0.9547  0.0972  2.7862
  676MOL0     H93220   3.005   5.735   1.193  1.9866 -0.7808  1.0648
  676MOL0     H93221   3.387   5.890   1.184 -1.9254 -1.0387  2.0041
  676MOL0     H93222   3.463   5.755   1.099  0.0852  0.7127  0.1981
  676MOL0     H93223   3.500   5.633   1.300  1.6637  0.3911 -0.2074
  676MOL0     H93224   3.572   5.798   1.308 -0.5340  2.1158 -1.0558
  676MOL0     H93225   3.362   5.868   1.422  1.3475  0.3939  0.7110
  676MOL0     H93226   3.321   5.694   1.442  1.1651 -0.2971 -1.4217
  676MOL0     H93227   3.512   5.653   1.572 -2.4413 -0.6823  1.5185
  676MOL0     H93228   3.591   5.808   1.540  2.4817 -0.7283  3.1441
  676MOL0     H93229   3.339   5.759   1.699  0.3666 -0.7380  0.2892
  676MOL0     H93230   3.419   5.921   1.675  3.0514  1.1289 -0.3441
  676MOL0     H93231   3.458   5.794   1.901 -0.9455 -0.9728 -0.9448
  676MOL0     H93232   3.561   5.685   1.799 -1.5460 -0.1953 -3.4154
  676MOL0     H93233   3.612   5.988   1.846 -0.9871  0.1033 -1.7219
  676MOL0     H93234   3.709   5.867   1.755  1.3291  3.4964 -0.2420
  676MOL0     H93235   3.644   5.848   2.062  0.5059 -1.8281  0.4420
  676MOL0     H93236   3.747   5.743   1.967  1.1944  0.1913  1.7634
  676MOL0     H93237   3.976   5.791   1.889 -1.6573  1.2533 -2.7648
  676MOL0     H93238   4.181   6.080   2.125 -1.0097 -0.2680  1.3719
  676MOL0     H93239   4.201   6.081   1.959  2.8145 -0.7517  0.9678
  676MOL0     H93240   4.234   5.812   2.115 -0.8237  2.2714  1.6836
  676MOL0     H93241   4.275   5.831   1.950  0.1871  0.0746  0.4922
  676MOL0     H93242   4.431   6.007   2.010 -0.8279 -0.9574 -0.9816
  676MOL0     H93243   4.403   5.964   2.191 -2.6092 -2.0716  0.2831
  676MOL0     H93244   4.547   5.762   2.156 -2.3825 -1.6345 -0.8098
  676MOL0     H93245   4.498   5.766   1.983 -4.6307  0.2540  0.6420
  676MOL0     H93246   4.858   6.008   2.007 -0.6512  0.0341  0.2725
  676MOL0     H93247   5.136   5.931   1.823  4.1296 -0.5675  0.4793
  676MOL0     H93248   5.179   5.912   1.996 -3.1698 -0.4222  2.5436
  676MOL0     H93249   5.073   6.048   1.950  1.1889  1.0923 -1.9339
  676MOL0     H93250   5.351   5.864   1.745  1.2081  1.0347  0.9335
  676MOL0     H93251   5.562   5.803   1.613 -2.4662  3.8894  0.6564
  676MOL0     H93252   5.869   5.492   1.781  1.5861  0.5096  1.9797
  676MOL0     H93253   5.928   5.623   1.672 -1.0609  3.4415  0.6163
  676MOL0     H93254   5.772   5.704   1.932  0.9317 -2.2062  0.5694
  676MOL0     H93255   5.938   5.664   1.936 -2.4036  0.2582  2.2482
  676MOL0     H93256   5.955   5.835   1.735 -0.8483  0.5271 -0.5636
  676MOL0     H93257   5.980   5.873   1.904  1.7398  1.8576 -1.7171
  676MOL0     H93258   5.741   5.933   1.720  0.1523 -2.8560 -0.2503
  676MOL0     H93259   5.856   6.038   1.801  0.5397 -0.6114  0.1543
  676MOL0     H93260   5.641   5.875   1.962  1.8724 -0.7886 -1.8424
  676MOL0     H93261   5.782   5.940   2.016  0.5579 -2.5369 -1.3976
  676MOL0     H93262   5.689   6.173   1.925  0.0089  1.2766 -1.2203
  676MOL0     H93263   5.612   6.115   2.069  2.7165  0.2621 -0.4584
  676MOL0     H93264   5.430   6.026   1.963  0.5833  0.2016  0.8951
  676MOL0     H93265   5.506   6.024   1.797 -0.9359 -2.9202  1.3809
  676MOL0     H93266   5.434   6.272   1.959 -1.6043  2.4893 -2.1572
  676MOL0     H93267   5.317   6.199   1.851 -0.5478 -0.1756  1.0467
  676MOL0     H93268   5.616   5.444   1.862  2.6491  1.6216  2.3701
  676MOL0     H93269   5.369   5.503   1.960 -0.7634 -1.6227 -2.2442
  676MOL0     H93270   4.891   5.528   1.920  1.0720  0.9881 -0.2165
  676MOL0     H93271   4.679   5.614   2.008 -1.8076  0.4680 -1.8044
  676MOL0     H93272   3.357   5.833   0.940 -0.4335  1.7931 -0.1134
  676MOL0     H93273   3.216   5.922   0.781 -1.5589  0.1114 -0.7041
  676MOL0     H93274   2.744   6.092   0.793  2.5371 -1.6242 -0.5825
  676MOL0     H93275   2.517   6.178   0.716 -1.6751 -1.6837  1.4764
  676MOL0     H93276   2.236   5.906   0.505  0.6360  0.5843 -0.0255
  676MOL0     H93277   2.303   5.901   0.673  2.0120  1.2623  1.0246
  676MOL0     H93278   2.056   5.954   0.648 -0.6181  0.3648  0.1642
  676MOL0     H93279   2.105   6.108   0.567  2.1319 -0.7239 -2.1408
  676MOL0     H93280   2.221   6.193   0.764  0.5913  0.1172  3.2482
  676MOL0     H93281   2.059   6.161   0.810  0.0293 -1.0532  0.3604
  676MOL0     H93282   2.231   6.079   0.984 -1.7435  0.5682 -0.7267
  676MOL0     H93283   2.313   5.995   0.861  0.1933 -0.9538 -2.3328
  676MOL0     H93284   1.971   5.740   0.958  0.7264  0.4350  0.2436
  676MOL0     H93285   2.471   5.849   0.458 -0.6146 -0.9269  3.2017
  676MOL0     H93286   2.675   5.633   0.567  2.0239  0.7682  1.9649
  676MOL0     H93287   2.628   5.705   0.406 -4.9379  0.1811  1.9984
  676MOL0     H93288   2.786   5.715   0.456 -0.1597 -1.7773  1.0608
  677MOL0     O93289   8.266   5.496   1.172 -0.5971  0.6159  0.1399
  677MOL0     C93290   8.213   5.394   1.219 -0.5363  0.9506  0.6173
  677MOL0     O93291   8.271   5.283   1.266 -0.3974 -0.1785  0.3650
  677MOL0     C93292   8.408   5.262   1.238 -0.2668 -0.0038 -0.0966
  677MOL0     C93293   8.510   5.354   1.273 -0.2507 -0.2155 -0.5948
  677MOL0     C93294   8.647   5.317   1.258  0.1995 -0.1832  0.3049
  677MOL0     C93295   8.678   5.192   1.203  0.0051  1.5341 -0.3893
  677MOL0     O93296   8.806   5.145   1.181 -0.3568  0.5040 -0.8735
  677MOL0     C93297   8.844   5.144   1.047 -0.4556  1.1201 -0.5682
  677MOL0     C93298   8.992   5.079   1.054  0.2602  0.3734 -0.2661
  677MOL0     C93299   9.099   5.185   1.081  0.7297 -0.2705 -0.1367
  677MOL0     C93300   9.245   5.124   1.049  0.2761 -0.3210 -0.4544
  677MOL0     C93301   9.349   5.229   1.093 -0.0234 -0.0764  0.1889
  677MOL0     C93302   9.494   5.176   1.067  0.2154 -0.2403 -0.1262
  677MOL0     C93303   9.556   5.113   1.195  0.6484  1.4170 -0.3750
  677MOL0     C93304   9.694   5.052   1.178 -0.5523  0.0607  0.4553
  677MOL0     N93305   9.802   5.148   1.143 -0.5448 -0.0956 -0.0564
  677MOL0     C93306   9.906   5.171   1.232  0.6608 -0.3725 -0.2721
  677MOL0     C93307   9.985   5.259   1.171  0.1829 -0.3813  1.0731
  677MOL0     C93308  10.109   5.328   1.231 -0.7245 -0.3997 -0.1391
  677MOL0     C93309  10.231   5.306   1.138  0.6197 -0.3241 -1.1712
  677MOL0     C93310  10.354   5.391   1.185 -0.0710 -0.3683 -0.0010
  677MOL0     C93311  10.428   5.324   1.296  0.4134 -0.1187  0.4326
  677MOL0     O93312  10.500   5.216   1.245  0.2708  0.8429  0.7725
  677MOL0     C93313  10.619   5.196   1.292 -1.3471  0.4961 -0.7051
  677MOL0     C93314  10.731   5.255   1.244 -0.0529  0.0767 -0.4221
  677MOL0     C93315  10.861   5.231   1.304  0.4723  0.4291  0.1352
  677MOL0     C93316  10.969   5.326   1.260 -0.5441  0.2828  0.4922
  677MOL0     C93317  10.878   5.144   1.419 -0.2177 -0.1546 -0.7600
  677MOL0     C93318  11.000   5.137   1.506 -0.6785  0.4766  0.5613
  677MOL0     O93319  10.982   5.091   1.639 -0.0482  0.2200  0.1368
  677MOL0     C93320  11.091   5.039   1.699 -1.5549  0.1159 -0.8287
  677MOL0     C93321  11.118   4.900   1.704  0.9206 -0.7777 -0.5632
  677MOL0     C93322  11.226   4.845   1.776  0.2018 -0.6858 -0.0249
  677MOL0     C93323  11.321   4.931   1.829  0.4412 -0.4832  0.1099
  677MOL0     O93324  11.430   4.887   1.901  0.5446 -0.6034  0.5165
  677MOL0     C93325  11.430   4.756   1.951  0.4417  0.3138 -0.1301
  677MOL0     C93326  11.574   4.705   1.996  0.8172 -0.0518 -1.1144
  677MOL0     C93327  11.689   4.694   1.896 -0.7174 -0.4776  0.0511
  677MOL0     C93328  11.712   4.552   1.834 -0.0554  0.1790  0.2815
  677MOL0     C93329  11.583   4.499   1.774  0.4209 -0.4075  0.5017
  677MOL0     C93330  11.617   4.374   1.707  0.7200  0.6977  0.4105
  677MOL0     C93331  11.648   4.399   1.563  0.7403  0.7069  0.1379
  677MOL0     C93332  11.649   4.269   1.485 -0.5032 -0.0835 -0.4812
  677MOL0    Cl93333  11.772   4.146   1.533  0.3719  0.0270  0.2361
  677MOL0     C93334  11.286   5.068   1.840 -0.2360  0.3161 -0.4597
  677MOL0     C93335  11.172   5.122   1.775  0.0108  0.5294  0.1281
  677MOL0     O93336  11.106   5.151   1.452  0.1326 -0.4330 -0.1322
  677MOL0     C93337  10.751   5.080   1.457  0.1412 -0.7688 -0.6176
  677MOL0     C93338  10.633   5.107   1.392 -0.3163  0.6527  0.4943
  677MOL0     N93339   9.938   5.269   1.046  0.5117 -0.7380 -0.5956
  677MOL0     N93340   9.833   5.198   1.025 -0.4833 -0.1512 -0.6334
  677MOL0     C93341   8.573   5.100   1.177 -0.5218 -0.4530  1.1047
  677MOL0     C93342   8.445   5.133   1.189 -0.0285 -0.3920 -0.7213
  677MOL0     C93343   8.058   5.384   1.220  0.0701  0.0603 -0.3035
  677MOL0     C93344   8.004   5.257   1.261 -0.3040 -0.1601  0.1146
  677MOL0     C93345   7.864   5.249   1.278  0.0615 -0.5057 -0.5796
  677MOL0     C93346   7.779   5.358   1.254  0.1258 -0.4847  0.2489
  677MOL0     O93347   7.643   5.338   1.280  0.1429 -0.3109 -0.8383
  677MOL0     C93348   7.563   5.453   1.329  0.7415  0.2284  0.3447
  677MOL0     C93349   7.446   5.416   1.418  0.0812  0.6629 -0.4804
  677MOL0     C93350   7.325   5.502   1.421 -0.0159 -0.1566  0.0056
  677MOL0     C93351   7.199   5.467   1.342 -0.4892  0.0846  0.2162
  677MOL0     C93352   7.215   5.436   1.203  0.2569 -0.0001  0.0203
  677MOL0     C93353   7.234   5.412   1.087  0.0369 -0.3757  0.0606
  677MOL0     C93354   7.832   5.479   1.207 -0.5593 -0.1603  0.1951
  677MOL0     C93355   7.969   5.493   1.185 -0.1966  0.1816  0.6547
  677MOL0     C93356   8.005   5.625   1.129  0.6126 -1.1302 -0.1332
  677MOL0     H93357   8.487   5.440   1.336 -1.4954  1.1032 -2.7468
  677MOL0     H93358   8.728   5.384   1.286  0.8843 -0.2590 -1.4136
  677MOL0     H93359   8.842   5.240   0.995 -0.9695  1.8452  0.7293
  677MOL0     H93360   8.780   5.072   0.996  1.2091 -0.6861 -0.2286
  677MOL0     H93361   8.997   5.006   1.136  2.9352  0.3749 -0.3511
  677MOL0     H93362   9.014   5.029   0.959 -1.0253  0.0108 -0.3897
  677MOL0     H93363   9.079   5.278   1.028  0.4673  1.3236  2.6192
  677MOL0     H93364   9.099   5.209   1.187 -0.1049 -1.0226  0.0467
  677MOL0     H93365   9.244   5.028   1.102  1.4342 -1.2895 -2.0776
  677MOL0     H93366   9.244   5.102   0.941 -1.8482 -1.6995 -0.2309
  677MOL0     H93367   9.343   5.261   1.198  2.7418 -2.0078  1.0606
  677MOL0     H93368   9.345   5.316   1.028  1.2675  1.9292  2.6199
  677MOL0     H93369   9.484   5.100   0.989 -0.4061  0.7433 -1.0280
  677MOL0     H93370   9.565   5.252   1.034  0.6722 -1.5452 -2.3641
  677MOL0     H93371   9.493   5.030   1.228  2.0915  0.0760 -0.8273
  677MOL0     H93372   9.564   5.190   1.272 -1.0719 -1.5978  3.1247
  677MOL0     H93373   9.724   5.006   1.273  0.5883  1.6659  0.9273
  677MOL0     H93374   9.696   4.974   1.102  1.2090  2.6270 -2.3490
  677MOL0     H93375   9.912   5.122   1.329 -0.5532 -0.5169 -0.2485
  677MOL0     H93376  10.122   5.293   1.334 -0.6678 -0.3578 -0.1326
  677MOL0     H93377  10.093   5.436   1.235  1.6938  0.0303 -0.9587
  677MOL0     H93378  10.252   5.199   1.150  0.1813 -0.1564  1.8862
  677MOL0     H93379  10.200   5.327   1.035 -1.4397  0.7516 -0.3735
  677MOL0     H93380  10.424   5.410   1.102  1.0852 -0.6524  0.8803
  677MOL0     H93381  10.318   5.484   1.230  1.7092  1.1412 -1.4620
  677MOL0     H93382  10.487   5.398   1.351  1.0346 -0.9983  0.9723
  677MOL0     H93383  10.353   5.293   1.370  1.6190 -2.8024  0.6285
  677MOL0     H93384  10.714   5.314   1.154  0.0384 -0.5688 -0.8723
  677MOL0     H93385  10.942   5.393   1.177  3.1656 -2.1355 -3.0343
  677MOL0     H93386  11.059   5.275   1.225 -0.2214  0.3090  1.2771
  677MOL0     H93387  11.020   5.381   1.340 -0.7741 -0.3256  1.0599
  677MOL0     H93388  11.039   4.846   1.652  1.2661  0.1739 -2.1755
  677MOL0     H93389  11.225   4.736   1.767  2.3061 -0.7467 -0.0411
  677MOL0     H93390  11.356   4.744   2.032  1.6431  1.8877  1.2826
  677MOL0     H93391  11.402   4.685   1.873  3.0038 -1.1969  0.2073
  677MOL0     H93392  11.621   4.762   2.077  1.4086  1.7283 -2.6416
  677MOL0     H93393  11.558   4.599   2.018  1.0222 -0.2634 -1.9716
  677MOL0     H93394  11.783   4.727   1.941 -0.9888  0.6771 -0.1857
  677MOL0     H93395  11.671   4.762   1.812  4.7450 -1.7129 -2.6086
  677MOL0     H93396  11.749   4.491   1.917 -0.4048  1.2021  1.2101
  677MOL0     H93397  11.788   4.566   1.756 -0.8048  2.0426 -0.1593
  677MOL0     H93398  11.511   4.481   1.854 -1.2445 -0.3337 -0.9330
  677MOL0     H93399  11.522   4.567   1.715  0.3967 -0.6286  0.2698
  677MOL0     H93400  11.532   4.305   1.702  0.1952  1.2483 -5.5789
  677MOL0     H93401  11.697   4.328   1.766  0.0145  1.2947  1.8864
  677MOL0     H93402  11.750   4.438   1.554 -0.2761  3.3813 -0.9727
  677MOL0     H93403  11.577   4.469   1.518 -1.7387 -1.4204  0.5192
  677MOL0     H93404  11.655   4.291   1.378 -0.3961 -1.1867 -0.7146
  677MOL0     H93405  11.554   4.222   1.508 -0.3845 -0.4166 -0.6653
  677MOL0     H93406  11.335   5.126   1.918 -3.5619 -1.6542  3.4704
  677MOL0     H93407  11.146   5.227   1.781 -2.3629  0.0289 -0.5052
  677MOL0     H93408  10.753   5.014   1.543 -0.8515 -2.3035 -1.7255
  677MOL0     H93409  10.547   5.050   1.426 -0.5113 -0.7192 -1.9854
  677MOL0     H93410   8.614   4.999   1.173  2.4060  0.6099  1.9056
  677MOL0     H93411   8.374   5.051   1.183 -0.1822 -0.4276  1.0563
  677MOL0     H93412   8.053   5.169   1.301 -0.4638  0.3926  1.5579
  677MOL0     H93413   7.817   5.162   1.321 -0.5204  1.3753  2.9805
  677MOL0     H93414   7.622   5.516   1.396 -0.3000  1.1868  0.3844
  677MOL0     H93415   7.528   5.508   1.241  1.1544 -2.4905 -1.6732
  677MOL0     H93416   7.482   5.398   1.520 -0.2970  0.1540 -0.4340
  677MOL0     H93417   7.419   5.316   1.383  0.6041  1.3610 -3.1490
  677MOL0     H93418   7.290   5.507   1.524 -0.1572 -0.5417 -0.0210
  677MOL0     H93419   7.365   5.598   1.386 -2.5253  0.2672 -2.0136
  677MOL0     H93420   7.138   5.558   1.346  0.3383  0.6061  2.1655
  677MOL0     H93421   7.148   5.386   1.395  0.2786  0.6215  1.8373
  677MOL0     H93422   7.263   5.395   0.986 -1.0158 -1.5017 -0.0793
  677MOL0     H93423   7.780   5.572   1.191  2.6557  1.8886  0.7523
  677MOL0     H93424   7.915   5.671   1.088 -1.3703 -2.7790  2.0449
  677MOL0     H93425   8.055   5.695   1.196  0.8320 -2.3194  0.9864
  677MOL0     H93426   8.078   5.611   1.049  1.6254  2.8263 -0.1100
  678MOL0     O93427   0.422   6.603   4.110  0.1080 -0.1565 -0.1326
  678MOL0     C93428   0.471   6.612   3.997 -0.8708 -0.2184  0.3013
  678MOL0     O93429   0.418   6.563   3.886 -0.7704 -0.4209  0.1003
  678MOL0     C93430   0.283   6.529   3.880  1.0373  0.2734 -1.1891
  678MOL0     C93431   0.248   6.426   3.786 -0.4670  0.4629 -0.3523
  678MOL0     C93432   0.115   6.378   3.770 -0.0701 -0.4115 -0.3860
  678MOL0     C93433   0.009   6.437   3.843 -0.7837 -0.1159  0.1156
  678MOL0     O93434  -0.112   6.373   3.863 -0.3268 -0.0699  0.4470
  678MOL0     C93435  -0.126   6.292   3.977  0.2962 -0.5803 -0.0562
  678MOL0     C93436  -0.248   6.207   3.946  0.3443 -0.1474  0.2964
  678MOL0     C93437  -0.383   6.283   3.941 -0.0981  0.3495  0.2576
  678MOL0     C93438  -0.412   6.358   3.809 -0.5833  0.8163  1.5849
  678MOL0     C93439  -0.559   6.389   3.791 -0.3321 -0.8032  0.0724
  678MOL0     C93440  -0.584   6.471   3.663 -0.4100 -0.1999  0.2832
  678MOL0     C93441  -0.714   6.527   3.648 -0.4043 -0.6246 -0.0188
  678MOL0     C93442  -0.732   6.588   3.510 -0.8552 -0.0336  0.2842
  678MOL0     N93443  -0.804   6.717   3.503  0.6879  0.2601 -0.7209
  678MOL0     C93444  -0.740   6.839   3.500  0.2899 -0.0665 -0.1724
  678MOL0     C93445  -0.835   6.935   3.526 -0.0305  0.2172  0.0669
  678MOL0     C93446  -0.803   7.081   3.523 -0.1532 -0.2200 -0.7007
  678MOL0     C93447  -0.888   7.156   3.427  0.5152  0.5769  0.2032
  678MOL0     C93448  -0.885   7.107   3.278  0.4938  0.5384  0.2768
  678MOL0     C93449  -0.746   7.129   3.214  0.4888 -0.8459  0.5629
  678MOL0     O93450  -0.653   7.040   3.270  0.2119  0.6788 -0.1273
  678MOL0     C93451  -0.523   7.061   3.231 -0.9844  0.0710  0.7783
  678MOL0     C93452  -0.473   7.163   3.145  0.3258 -1.0721  0.4030
  678MOL0     C93453  -0.335   7.192   3.129  0.6791  0.1523  0.0945
  678MOL0     C93454  -0.309   7.312   3.038  0.4972  0.1225 -0.3748
  678MOL0     C93455  -0.243   7.117   3.204 -0.3750  0.2951 -0.4467
  678MOL0     C93456  -0.098   7.143   3.199 -1.9154 -0.1705  0.4064
  678MOL0     O93457  -0.027   7.127   3.313  0.2964 -0.3327 -0.4031
  678MOL0     C93458   0.103   7.161   3.313 -0.4350 -0.0080 -0.6511
  678MOL0     C93459   0.199   7.057   3.308  0.6304  0.5777 -0.6403
  678MOL0     C93460   0.336   7.097   3.290  0.2728  0.4942 -0.4053
  678MOL0     C93461   0.371   7.236   3.271  0.7903  0.2796 -0.7071
  678MOL0     O93462   0.499   7.271   3.234 -0.0391 -0.2292  0.0921
  678MOL0     C93463   0.541   7.408   3.242  0.0957  0.3723 -0.7325
  678MOL0     C93464   0.693   7.406   3.203  0.9881  0.2959 -1.0454
  678MOL0     C93465   0.740   7.551   3.214  0.3138 -0.3445  0.3026
  678MOL0     C93466   0.893   7.557   3.189 -0.6699 -0.1530  0.0739
  678MOL0     C93467   0.945   7.707   3.191  0.6612 -0.1463 -0.0584
  678MOL0     C93468   1.075   7.718   3.121 -0.3219  0.1497  0.6717
  678MOL0     C93469   1.125   7.857   3.088  0.2271 -0.4067  0.3812
  678MOL0     C93470   1.254   7.847   3.004  0.3228 -0.6130 -0.1346
  678MOL0    Cl93471   1.220   7.774   2.858  0.1127  0.1747 -0.4784
  678MOL0     C93472   0.269   7.335   3.298 -0.0892 -0.2839  0.3430
  678MOL0     C93473   0.142   7.294   3.321 -0.0613  0.2258 -0.3020
  678MOL0     O93474  -0.047   7.166   3.090  0.2390 -0.3174  0.3695
  678MOL0     C93475  -0.290   7.023   3.292 -0.4973  0.1028  0.7817
  678MOL0     C93476  -0.422   6.993   3.300 -1.0389 -0.5419  0.5803
  678MOL0     N93477  -0.955   6.871   3.543  0.7759  0.3689 -0.2475
  678MOL0     N93478  -0.939   6.736   3.534  0.3249  0.3865 -0.3561
  678MOL0     C93479   0.047   6.541   3.928 -0.1374  0.6079 -1.0080
  678MOL0     C93480   0.177   6.589   3.946  0.6683 -0.2462 -0.5736
  678MOL0     C93481   0.606   6.668   3.965  0.1460  0.4072  1.1080
  678MOL0     C93482   0.637   6.690   3.827  0.1263  0.5326  0.3832
  678MOL0     C93483   0.762   6.725   3.780  0.2615  0.4496 -0.5771
  678MOL0     C93484   0.864   6.750   3.863  0.0518 -0.5954 -0.7685
  678MOL0     O93485   0.985   6.785   3.805  0.4435  0.0922  0.1481
  678MOL0     C93486   1.098   6.811   3.881  0.3492  0.6032 -0.2295
  678MOL0     C93487   1.227   6.820   3.790  0.7956 -0.2576 -0.2819
  678MOL0     C93488   1.359   6.785   3.862 -1.2247 -0.0549  0.0224
  678MOL0     C93489   1.487   6.804   3.773  0.2698 -0.4004  0.4411
  678MOL0     C93490   1.614   6.806   3.845  0.0997  0.7071 -0.2996
  678MOL0     C93491   1.714   6.776   3.894  0.0909  1.6941  0.7371
  678MOL0     C93492   0.834   6.754   4.004  0.7416 -0.3372 -0.7306
  678MOL0     C93493   0.706   6.719   4.051 -0.3537  0.3418  0.5593
  678MOL0     C93494   0.691   6.713   4.197 -0.4242 -0.0025  0.5404
  678MOL0     H93495   0.323   6.379   3.723  0.2848 -0.2557  1.0222
  678MOL0     H93496   0.095   6.292   3.707 -0.4477  0.2377 -1.1716
  678MOL0     H93497  -0.145   6.356   4.064  0.0405  2.6805 -2.3580
  678MOL0     H93498  -0.037   6.232   3.999 -1.3241 -2.6824  1.0627
  678MOL0     H93499  -0.229   6.143   3.859  1.6340  1.8290 -0.9514
  678MOL0     H93500  -0.254   6.137   4.029  3.5031 -0.0025  0.7812
  678MOL0     H93501  -0.468   6.216   3.957 -0.3975  0.8073  0.6129
  678MOL0     H93502  -0.395   6.360   4.018 -2.5725  1.9303 -1.5624
  678MOL0     H93503  -0.347   6.445   3.825  0.3194  0.8453 -1.4439
  678MOL0     H93504  -0.371   6.298   3.727  0.6522  3.2620  0.2988
  678MOL0     H93505  -0.593   6.440   3.881  0.0795 -2.1980  1.0401
  678MOL0     H93506  -0.612   6.294   3.786  0.0394 -1.0987  1.3934
  678MOL0     H93507  -0.514   6.555   3.665 -0.7281  0.0854  2.4933
  678MOL0     H93508  -0.566   6.405   3.578 -2.5351 -0.2929 -0.1523
  678MOL0     H93509  -0.726   6.611   3.717  0.6691 -0.5192  0.0590
  678MOL0     H93510  -0.797   6.460   3.672 -0.1367  0.0534  3.3156
  678MOL0     H93511  -0.631   6.606   3.474 -0.9407 -1.1387 -0.5470
  678MOL0     H93512  -0.776   6.516   3.440  2.5968  1.2059 -3.5329
  678MOL0     H93513  -0.649   6.866   3.448 -1.0229  1.2001 -1.9319
  678MOL0     H93514  -0.696   7.093   3.501  0.8545 -3.2602  1.8975
  678MOL0     H93515  -0.818   7.121   3.623 -2.8866 -2.2241 -0.2157
  678MOL0     H93516  -0.992   7.161   3.461  0.4174 -1.9212  0.5042
  678MOL0     H93517  -0.846   7.257   3.425  1.8192  0.0529 -0.1767
  678MOL0     H93518  -0.919   7.003   3.276  0.5056  0.4077  2.9756
  678MOL0     H93519  -0.960   7.168   3.227  0.4376 -0.1736 -0.5116
  678MOL0     H93520  -0.761   7.109   3.107  1.4786  0.1102  0.2246
  678MOL0     H93521  -0.726   7.236   3.224 -0.4910 -0.5585 -0.3392
  678MOL0     H93522  -0.541   7.219   3.082  2.8692  2.7956  0.6878
  678MOL0     H93523  -0.292   7.281   2.934  1.1436 -0.1660 -0.1841
  678MOL0     H93524  -0.224   7.364   3.083 -0.2647  0.3639  0.8412
  678MOL0     H93525  -0.397   7.378   3.037  0.3708 -0.0471 -0.9020
  678MOL0     H93526   0.171   6.953   3.322  2.2680  0.5374  3.9265
  678MOL0     H93527   0.412   7.022   3.272  0.7135  1.0177 -0.7907
  678MOL0     H93528   0.477   7.471   3.180 -1.8319 -0.5641  0.2132
  678MOL0     H93529   0.535   7.437   3.348  1.5174 -2.6040  0.2781
  678MOL0     H93530   0.750   7.341   3.269  0.9656  2.1085  0.8806
  678MOL0     H93531   0.711   7.384   3.098  0.7960 -1.5683 -0.7178
  678MOL0     H93532   0.715   7.586   3.315 -1.0481  1.9376 -0.7456
  678MOL0     H93533   0.682   7.620   3.152 -0.2186 -0.5803  0.5327
  678MOL0     H93534   0.908   7.512   3.090 -0.8803  2.0820 -1.0514
  678MOL0     H93535   0.946   7.502   3.267  0.9377  0.4677 -0.5526
  678MOL0     H93536   0.880   7.765   3.126  0.5664 -1.5949 -1.3149
  678MOL0     H93537   0.945   7.746   3.293  1.3163  0.6314 -0.3479
  678MOL0     H93538   1.085   7.653   3.034  4.3044 -0.5706  1.5053
  678MOL0     H93539   1.145   7.672   3.191  0.2682 -1.5341 -0.9651
  678MOL0     H93540   1.136   7.925   3.173  3.1730  0.7234 -0.7501
  678MOL0     H93541   1.043   7.897   3.028 -3.6300 -4.2842  2.5184
  678MOL0     H93542   1.334   7.785   3.045  2.4106 -0.6692 -3.7717
  678MOL0     H93543   1.290   7.950   2.995  0.4393 -0.5199  1.2057
  678MOL0     H93544   0.277   7.443   3.283  0.0223  0.4509  4.5239
  678MOL0     H93545   0.074   7.376   3.340 -0.2447 -0.4508  2.5636
  678MOL0     H93546  -0.217   6.965   3.347  0.4505 -0.1662 -0.7085
  678MOL0     H93547  -0.455   6.911   3.363  2.4712 -0.8917  2.1960
  678MOL0     H93548  -0.037   6.580   3.984  1.2673  1.7230  0.4181
  678MOL0     H93549   0.197   6.663   4.023 -0.4493 -0.2311 -0.2798
  678MOL0     H93550   0.557   6.675   3.755 -2.0898  0.3787  2.7376
  678MOL0     H93551   0.768   6.730   3.672 -0.0895  3.6428 -0.5159
  678MOL0     H93552   1.095   6.901   3.943  0.1505  0.0552  0.5608
  678MOL0     H93553   1.111   6.730   3.953 -0.4059 -0.2053 -0.9898
  678MOL0     H93554   1.227   6.920   3.745  1.3597  1.2983  2.8612
  678MOL0     H93555   1.209   6.746   3.711  0.4216 -0.8910  0.3856
  678MOL0     H93556   1.367   6.841   3.955 -0.2429 -2.0324  1.1944
  678MOL0     H93557   1.350   6.683   3.900  1.7491  0.5252  2.7331
  678MOL0     H93558   1.472   6.892   3.710 -0.3460 -1.4281 -0.9047
  678MOL0     H93559   1.483   6.717   3.706  1.2228 -1.5121  1.7641
  678MOL0     H93560   1.815   6.748   3.916  0.4965  0.3689 -2.2952
  678MOL0     H93561   0.915   6.767   4.075  1.7802 -0.2375 -1.8969
  678MOL0     H93562   0.586   6.720   4.224 -0.2926  3.1174  0.6989
  678MOL0     H93563   0.743   6.623   4.232  0.3000  0.6940  1.3161
  678MOL0     H93564   0.752   6.790   4.247  1.8391 -2.2905  1.5510
  679MOL0     O93565   4.743   5.727   1.122  1.3710 -0.0523 -0.0633
  679MOL0     C93566   4.642   5.707   1.187  0.0301  0.9304  0.1681
  679MOL0     O93567   4.627   5.607   1.282 -0.4976 -0.3233 -0.1546
  679MOL0     C93568   4.738   5.531   1.303  0.7563  0.5156 -0.3722
  679MOL0     C93569   4.793   5.441   1.200 -0.0646  0.3342  0.4014
  679MOL0     C93570   4.906   5.371   1.231 -1.0110 -0.5874 -0.5169
  679MOL0     C93571   4.974   5.379   1.357  0.0713  0.3060  0.3575
  679MOL0     O93572   5.094   5.314   1.378 -0.2039  0.0984 -0.5167
  679MOL0     C93573   5.189   5.361   1.478  0.8039  0.4684  0.0251
  679MOL0     C93574   5.238   5.503   1.454  0.1382 -0.0613 -0.2800
  679MOL0     C93575   5.294   5.535   1.317  0.2117  0.0889 -0.2379
  679MOL0     C93576   5.451   5.530   1.321  0.6521  0.2938 -0.7632
  679MOL0     C93577   5.504   5.499   1.174  0.0279  0.1450  0.9245
  679MOL0     C93578   5.663   5.488   1.161  0.2016 -1.0192 -1.1977
  679MOL0     C93579   5.741   5.589   1.254 -0.1994 -0.1245  0.2781
  679MOL0     C93580   5.876   5.601   1.197  0.7490 -0.2299 -0.0218
  679MOL0     N93581   5.882   5.710   1.092 -0.2291  0.1221  0.0700
  679MOL0     C93582   6.003   5.736   1.026 -0.8412 -0.4934 -0.1764
  679MOL0     C93583   5.985   5.843   0.944 -0.0389  0.9006 -0.3047
  679MOL0     C93584   6.088   5.909   0.853  0.1868  0.2852 -0.0135
  679MOL0     C93585   6.125   6.048   0.902  0.3087 -0.1329 -1.4473
  679MOL0     C93586   6.195   6.125   0.800 -0.5122 -0.3463  0.1909
  679MOL0     C93587   6.251   6.269   0.829  0.0450  0.5451 -0.1686
  679MOL0     O93588   6.336   6.275   0.944 -0.4193 -0.3765  0.8236
  679MOL0     C93589   6.455   6.211   0.926  0.3126 -0.5814 -0.1739
  679MOL0     C93590   6.538   6.230   0.812  0.0546 -0.1082 -0.1706
  679MOL0     C93591   6.662   6.178   0.801 -0.1160 -0.1492 -0.3166
  679MOL0     C93592   6.747   6.228   0.681 -0.1901  0.5616  0.4010
  679MOL0     C93593   6.710   6.088   0.902 -0.1043  0.6236 -0.6609
  679MOL0     C93594   6.843   6.023   0.884 -1.0938  0.0160 -0.1934
  679MOL0     O93595   6.925   6.039   0.995 -1.0341  0.2653 -0.2456
  679MOL0     C93596   7.046   5.972   0.996 -0.7884 -0.2719  0.3812
  679MOL0     C93597   7.087   5.913   1.120 -0.9614  0.4541 -0.1026
  679MOL0     C93598   7.217   5.856   1.138  0.5158 -0.0923 -0.4244
  679MOL0     C93599   7.311   5.855   1.035  0.3089 -0.1000  0.3432
  679MOL0     O93600   7.434   5.791   1.044 -0.5347  0.0948 -0.0803
  679MOL0     C93601   7.522   5.788   0.929 -0.2447  0.0255  0.2038
  679MOL0     C93602   7.647   5.702   0.961 -0.6083 -0.2892 -0.4872
  679MOL0     C93603   7.715   5.682   0.823  0.1734 -0.7282 -0.2143
  679MOL0     C93604   7.850   5.619   0.826  0.2868  0.8444  0.5636
  679MOL0     C93605   7.913   5.583   0.693  0.2093 -0.7479  0.4637
  679MOL0     C93606   8.056   5.521   0.700 -0.2930  0.0608 -0.1900
  679MOL0     C93607   8.163   5.637   0.730  1.0913  0.6541 -1.0280
  679MOL0     C93608   8.309   5.586   0.748  0.3295  0.1288 -0.0024
  679MOL0    Cl93609   8.370   5.505   0.595  0.1247 -0.1267 -0.1944
  679MOL0     C93610   7.266   5.909   0.914 -0.9158  1.2047  0.1985
  679MOL0     C93611   7.139   5.959   0.890  0.0086 -0.6036 -0.4904
  679MOL0     O93612   6.884   5.978   0.770 -0.3025 -0.1192  0.0276
  679MOL0     C93613   6.637   6.078   1.014 -0.4838  0.0712 -0.1536
  679MOL0     C93614   6.515   6.141   1.031 -0.9916 -0.3488  0.6524
  679MOL0     N93615   5.851   5.871   0.944  1.1393 -0.4271  0.9233
  679MOL0     N93616   5.786   5.793   1.025  0.6363  0.5126  0.2862
  679MOL0     C93617   4.910   5.459   1.457  0.0369  0.3689  0.2518
  679MOL0     C93618   4.787   5.535   1.430 -1.0453 -0.1182  0.4782
  679MOL0     C93619   4.527   5.798   1.162 -0.6403 -0.5333 -0.3409
  679MOL0     C93620   4.426   5.811   1.266 -0.2229 -0.3585  0.9202
  679MOL0     C93621   4.314   5.899   1.242  0.5895  0.2185 -0.7669
  679MOL0     C93622   4.298   5.963   1.123  0.8428  0.0323  0.6728
  679MOL0     O93623   4.190   6.043   1.117 -0.1665 -0.0675 -0.3385
  679MOL0     C93624   4.123   6.052   0.992  0.2322  0.2593  0.3199
  679MOL0     C93625   3.970   6.030   1.009 -0.0631  0.6763  0.3474
  679MOL0     C93626   3.931   5.886   1.049  0.0535  0.4440  0.4032
  679MOL0     C93627   3.776   5.881   1.055 -0.1240  0.1084  0.3476
  679MOL0     C93628   3.742   5.744   1.093  0.0664  0.1860 -0.4331
  679MOL0     C93629   3.721   5.626   1.117 -0.2112 -0.5020  0.5206
  679MOL0     C93630   4.387   5.954   1.020 -0.9669 -0.9016  0.2700
  679MOL0     C93631   4.499   5.864   1.041 -0.8714  0.6151 -0.0827
  679MOL0     C93632   4.599   5.871   0.931  0.4214  0.9660  0.1971
  679MOL0     H93633   4.776   5.435   1.093  0.2590  0.4117  0.3447
  679MOL0     H93634   4.941   5.300   1.156 -0.0979 -0.2798 -0.3884
  679MOL0     H93635   5.281   5.302   1.483  1.5833  1.7111  0.6465
  679MOL0     H93636   5.145   5.346   1.577  0.6380 -1.2262 -0.2733
  679MOL0     H93637   5.152   5.570   1.456  1.9031  2.4570 -2.2415
  679MOL0     H93638   5.308   5.533   1.533 -2.1430  1.6873  1.2018
  679MOL0     H93639   5.243   5.468   1.247  0.0989 -1.4074  1.2219
  679MOL0     H93640   5.266   5.637   1.291 -1.4951 -0.3294 -0.1678
  679MOL0     H93641   5.483   5.627   1.360 -0.2708 -0.9853  3.6405
  679MOL0     H93642   5.492   5.454   1.388 -0.1710  1.2497  0.8805
  679MOL0     H93643   5.454   5.570   1.107 -1.4039 -0.7907  0.9613
  679MOL0     H93644   5.474   5.396   1.151  0.6146 -0.4056  2.4885
  679MOL0     H93645   5.690   5.386   1.187  4.0545  0.4447  1.4986
  679MOL0     H93646   5.684   5.503   1.055 -1.2844  0.7806 -1.2846
  679MOL0     H93647   5.748   5.544   1.354 -0.0566 -1.4307 -0.3056
  679MOL0     H93648   5.700   5.690   1.258  0.4358  0.1200  0.9971
  679MOL0     H93649   5.946   5.624   1.278  0.1022  1.2401  0.1526
  679MOL0     H93650   5.900   5.499   1.166  0.8554 -0.6187  1.2526
  679MOL0     H93651   6.094   5.680   1.045 -1.3958 -0.7316  1.9500
  679MOL0     H93652   6.039   5.923   0.756  1.0272 -0.1289 -0.5137
  679MOL0     H93653   6.179   5.848   0.849  0.1169  0.0988  0.9685
  679MOL0     H93654   6.037   6.105   0.932  1.6029  1.8610 -1.2189
  679MOL0     H93655   6.192   6.045   0.989  0.7816 -0.4160 -1.8129
  679MOL0     H93656   6.284   6.073   0.765  1.8694  1.5484  2.9247
  679MOL0     H93657   6.119   6.135   0.722 -1.5836 -0.1383  1.2179
  679MOL0     H93658   6.296   6.309   0.737 -0.7763  1.9624  0.0083
  679MOL0     H93659   6.168   6.334   0.857 -0.7463 -2.1411  4.7472
  679MOL0     H93660   6.500   6.285   0.727 -0.2408 -0.3525 -0.1993
  679MOL0     H93661   6.703   6.322   0.646  0.4406  0.1082 -1.7676
  679MOL0     H93662   6.743   6.157   0.598  0.5392  0.9369  0.0218
  679MOL0     H93663   6.849   6.252   0.714  0.6662 -0.7771 -1.1224
  679MOL0     H93664   7.025   5.907   1.209 -2.0256 -0.5978 -0.8882
  679MOL0     H93665   7.246   5.816   1.235 -1.3362  1.6137  0.9046
  679MOL0     H93666   7.465   5.741   0.849  0.7665  0.2426 -0.6724
  679MOL0     H93667   7.558   5.885   0.892  1.2257 -0.0488  1.3771
  679MOL0     H93668   7.718   5.760   1.020 -1.1150  0.6993 -0.8306
  679MOL0     H93669   7.628   5.607   1.012  0.7295  1.3783  3.4616
  679MOL0     H93670   7.713   5.775   0.765  1.5028 -1.9109 -2.2706
  679MOL0     H93671   7.660   5.613   0.758  2.1742  0.1641 -3.0755
  679MOL0     H93672   7.837   5.532   0.891  0.3993  2.8673  3.4848
  679MOL0     H93673   7.921   5.689   0.871 -2.0569  2.6050  1.7493
  679MOL0     H93674   7.845   5.511   0.647  1.5064 -0.2676 -2.3868
  679MOL0     H93675   7.915   5.675   0.633 -2.9745 -0.8340  0.0654
  679MOL0     H93676   8.083   5.474   0.605 -2.1111  1.5841 -1.5360
  679MOL0     H93677   8.057   5.447   0.780 -0.2312 -0.6990 -0.8813
  679MOL0     H93678   8.134   5.694   0.819 -0.2311  2.2338 -2.4037
  679MOL0     H93679   8.154   5.708   0.647 -1.4340 -1.2968 -2.5546
  679MOL0     H93680   8.297   5.520   0.834  1.8566  0.9287  0.8754
  679MOL0     H93681   8.375   5.669   0.776 -0.3123  1.0242 -1.0904
  679MOL0     H93682   7.317   5.900   0.819 -1.1444 -1.6929  0.2684
  679MOL0     H93683   7.119   6.001   0.792  2.0016  1.6522 -0.0293
  679MOL0     H93684   6.674   6.019   1.097 -1.4557  0.2923  0.4518
  679MOL0     H93685   6.460   6.134   1.124  1.4281 -1.8282  2.0704
  679MOL0     H93686   4.958   5.477   1.553  1.9403  4.3832 -1.2260
  679MOL0     H93687   4.753   5.599   1.512  1.0243  3.0779 -0.9422
  679MOL0     H93688   4.438   5.753   1.357 -0.7749 -0.7825  0.7318
  679MOL0     H93689   4.236   5.911   1.317 -0.6959  0.7451 -2.1312
  679MOL0     H93690   4.133   6.151   0.947  1.7751  0.7212  1.6023
  679MOL0     H93691   4.154   5.981   0.914 -4.1151  0.0043 -1.4879
  679MOL0     H93692   3.930   6.043   0.908  0.5320 -0.0887  0.0043
  679MOL0     H93693   3.938   6.107   1.081  1.3795  1.2198  0.4320
  679MOL0     H93694   3.970   5.820   0.971  1.2708  0.7039  0.7758
  679MOL0     H93695   3.971   5.858   1.147 -0.9873 -2.1178  0.1898
  679MOL0     H93696   3.734   5.905   0.957  3.0865 -1.9751 -1.7396
  679MOL0     H93697   3.732   5.949   1.129 -1.9719 -0.3136 -0.2925
  679MOL0     H93698   3.719   5.522   1.145 -1.6905 -0.9965 -1.2206
  679MOL0     H93699   4.365   6.013   0.931 -0.1448  1.5062  1.5650
  679MOL0     H93700   4.653   5.777   0.917  1.4716  1.3631  1.4397
  679MOL0     H93701   4.555   5.896   0.834  0.3329  1.3450  0.3316
  679MOL0     H93702   4.670   5.950   0.958 -0.8206  2.3392 -0.3827
  680MOL0     O93703   7.657   7.002   8.053  0.0725 -0.5575 -0.5853
  680MOL0     C93704   7.641   6.998   8.174 -0.4372  0.6641  0.1763
  680MOL0     O93705   7.733   6.950   8.261  0.3970  0.4338  0.1849
  680MOL0     C93706   7.864   6.914   8.223  0.3496 -1.0592  0.0349
  680MOL0     C93707   7.932   6.984   8.119 -1.2381 -0.2252 -0.5803
  680MOL0     C93708   8.058   6.930   8.077  0.2503 -0.5609  0.5867
  680MOL0     C93709   8.105   6.812   8.140 -0.4269  0.4364  0.2131
  680MOL0     O93710   8.211   6.738   8.093 -0.1251  0.0672  0.6779
  680MOL0     C93711   8.331   6.810   8.050 -0.5511 -0.1982  0.1369
  680MOL0     C93712   8.448   6.777   8.140 -1.0438  0.3200 -0.6525
  680MOL0     C93713   8.584   6.816   8.093 -0.2893  0.3719  0.1871
  680MOL0     C93714   8.607   6.787   7.938  0.7000 -0.0203  0.5415
  680MOL0     C93715   8.758   6.785   7.904 -0.4777  0.2561 -0.0435
  680MOL0     C93716   8.836   6.913   7.942 -0.1267 -0.4331 -0.2076
  680MOL0     C93717   8.951   6.944   7.845  0.1492 -0.1302  0.1293
  680MOL0     C93718   9.052   6.830   7.829 -0.3797  0.9524  0.3928
  680MOL0     N93719   9.176   6.881   7.768 -0.1269 -0.0771  0.0184
  680MOL0     C93720   9.176   6.950   7.654  0.0733  0.0711 -0.2617
  680MOL0     C93721   9.293   7.009   7.655 -0.9171  0.4822 -0.6662
  680MOL0     C93722   9.361   7.085   7.549  0.8172 -0.2957 -0.4915
  680MOL0     C93723   9.254   7.129   7.440 -0.4747  0.6414  0.0398
  680MOL0     C93724   9.321   7.211   7.325  0.4005  0.3381  0.2629
  680MOL0     C93725   9.238   7.233   7.202  0.1431 -0.0218 -0.9257
  680MOL0     O93726   9.231   7.126   7.114  0.1156  0.4991  0.0663
  680MOL0     C93727   9.214   7.171   6.985 -0.7704  1.0281 -0.1278
  680MOL0     C93728   9.112   7.258   6.953 -0.3192  0.9013 -0.2164
  680MOL0     C93729   9.082   7.308   6.829 -0.8673 -0.1135  0.8348
  680MOL0     C93730   8.953   7.386   6.796  0.6451  0.0876 -0.5148
  680MOL0     C93731   9.176   7.282   6.730 -0.3737  0.9723 -0.5863
  680MOL0     C93732   9.183   7.345   6.595 -0.0028 -0.3247  0.5421
  680MOL0     O93733   9.126   7.471   6.588 -0.3359  0.1002  0.3848
  680MOL0     C93734   9.135   7.543   6.474 -0.3773 -0.4535 -0.4945
  680MOL0     C93735   9.068   7.504   6.357 -0.2245  0.7204  0.7908
  680MOL0     C93736   9.065   7.584   6.246 -0.0435 -1.0916  0.5255
  680MOL0     C93737   9.131   7.712   6.248 -0.2199  0.9351  0.8183
  680MOL0     O93738   9.118   7.800   6.144  0.1736  0.1011  0.0042
  680MOL0     C93739   9.027   7.779   6.038  0.2661  0.7418  0.4258
  680MOL0     C93740   9.056   7.874   5.922  0.2613  0.9322 -0.1863
  680MOL0     C93741   8.941   7.887   5.821 -0.2582 -0.3121  0.2567
  680MOL0     C93742   8.837   7.988   5.878 -0.0198  1.1686 -0.4698
  680MOL0     C93743   8.694   7.959   5.830 -0.3493  0.7951 -0.6792
  680MOL0     C93744   8.677   7.951   5.689  0.1780  0.3253  0.8775
  680MOL0     C93745   8.748   8.056   5.605  0.6390 -0.1949  0.5991
  680MOL0     C93746   8.706   8.054   5.458 -0.2601  0.0847  0.0249
  680MOL0    Cl93747   8.778   8.197   5.371 -0.0597 -0.2505  0.0964
  680MOL0     C93748   9.195   7.753   6.364  0.2585  0.6338  1.5466
  680MOL0     C93749   9.193   7.673   6.476  0.0872  0.7031 -0.3996
  680MOL0     O93750   9.251   7.303   6.502  0.0931  0.0548  0.1465
  680MOL0     C93751   9.283   7.195   6.761  0.0828  0.0438  0.4186
  680MOL0     C93752   9.306   7.136   6.888  0.2876  0.9498 -0.4299
  680MOL0     N93753   9.366   6.971   7.760  0.3275 -0.8690  0.3763
  680MOL0     N93754   9.296   6.895   7.833 -0.4352  0.9124  0.2304
  680MOL0     C93755   8.036   6.743   8.238  0.8188 -0.5524 -0.8356
  680MOL0     C93756   7.917   6.798   8.286 -0.2426 -0.4412  0.1101
  680MOL0     C93757   7.513   7.046   8.231  0.1098 -0.2163 -0.8447
  680MOL0     C93758   7.414   7.112   8.149  0.7698 -0.5577 -0.0825
  680MOL0     C93759   7.282   7.156   8.193  0.4799 -0.4174  0.0280
  680MOL0     C93760   7.241   7.133   8.324  0.3765 -0.3693  0.5837
  680MOL0     O93761   7.113   7.170   8.354  0.1508 -0.4258 -0.6224
  680MOL0     C93762   7.074   7.175   8.491  0.2404 -0.6833  0.0460
  680MOL0     C93763   6.931   7.222   8.518  0.2133 -1.0508  0.6431
  680MOL0     C93764   6.950   7.379   8.509 -0.1735  0.4272 -0.1514
  680MOL0     C93765   6.812   7.448   8.515  0.4226  1.0377  0.3957
  680MOL0     C93766   6.829   7.594   8.511 -0.2565 -0.5480 -0.0211
  680MOL0     C93767   6.842   7.716   8.486 -0.8820  0.1085  0.0915
  680MOL0     C93768   7.333   7.062   8.407  0.6124 -0.5048 -0.3759
  680MOL0     C93769   7.460   7.025   8.366  0.2451  0.1393 -1.0011
  680MOL0     C93770   7.549   6.979   8.475 -0.4565  0.1758 -0.8646
  680MOL0     H93771   7.886   7.076   8.086  0.3922  1.1810  0.8309
  680MOL0     H93772   8.119   6.974   7.999  0.8737 -2.1154  0.1522
  680MOL0     H93773   8.309   6.917   8.043 -0.2568 -0.1961 -0.9694
  680MOL0     H93774   8.348   6.769   7.951  1.6033 -0.2621  0.4799
  680MOL0     H93775   8.429   6.835   8.231 -0.1699 -0.5296  0.0934
  680MOL0     H93776   8.450   6.672   8.171 -0.5916 -0.1973 -2.3195
  680MOL0     H93777   8.617   6.918   8.113  0.5586  0.1518 -0.0212
  680MOL0     H93778   8.659   6.763   8.153 -0.6864 -0.5160 -0.0842
  680MOL0     H93779   8.553   6.695   7.914 -2.7171  1.7860  0.6151
  680MOL0     H93780   8.559   6.864   7.876  0.1764 -0.3297  0.5585
  680MOL0     H93781   8.772   6.742   7.805  0.9343 -1.5948  0.8825
  680MOL0     H93782   8.808   6.716   7.973 -0.4758 -0.5626 -0.8596
  680MOL0     H93783   8.770   7.000   7.936  0.9333  0.4197  0.0828
  680MOL0     H93784   8.861   6.928   8.047 -0.3846  1.8076 -0.4310
  680MOL0     H93785   8.995   7.029   7.898  0.5343  1.2786 -2.2630
  680MOL0     H93786   8.917   6.974   7.745 -1.5080 -0.3877  0.5973
  680MOL0     H93787   9.074   6.781   7.925  2.3164  0.4789 -0.3747
  680MOL0     H93788   9.022   6.750   7.762 -1.9110  2.2663 -0.5648
  680MOL0     H93789   9.087   6.966   7.593  1.6347 -2.3713 -3.4652
  680MOL0     H93790   9.437   7.020   7.503 -0.5485 -0.1023 -3.2277
  680MOL0     H93791   9.413   7.175   7.583 -1.3883  1.3573 -1.2621
  680MOL0     H93792   9.204   7.038   7.407  1.7321 -1.3120  1.7121
  680MOL0     H93793   9.175   7.191   7.483  0.1279 -0.1486  2.4723
  680MOL0     H93794   9.356   7.309   7.357 -0.9193 -0.0880  3.3321
  680MOL0     H93795   9.412   7.156   7.299  0.6614  0.1901  1.4295
  680MOL0     H93796   9.140   7.272   7.231  0.0906  1.0251 -2.3784
  680MOL0     H93797   9.286   7.320   7.155  2.2277 -1.4377 -1.5528
  680MOL0     H93798   9.036   7.280   7.027 -0.8146 -0.7946 -0.1910
  680MOL0     H93799   8.886   7.381   6.882  0.7575  0.4542 -0.4059
  680MOL0     H93800   8.894   7.339   6.716 -0.7901  1.5734 -0.3765
  680MOL0     H93801   8.973   7.489   6.763  0.0547  0.0655 -0.9574
  680MOL0     H93802   9.019   7.407   6.360 -1.1172  0.9899 -2.3118
  680MOL0     H93803   9.004   7.554   6.162 -0.4029 -0.9624  0.7387
  680MOL0     H93804   9.028   7.679   5.995  3.5800 -0.2321  2.3887
  680MOL0     H93805   8.926   7.803   6.073  0.2752 -1.5808  2.3795
  680MOL0     H93806   9.069   7.977   5.955 -1.7133  1.7726 -1.7846
  680MOL0     H93807   9.145   7.850   5.863 -0.7884 -0.0939 -1.4284
  680MOL0     H93808   8.905   7.787   5.795 -0.6577 -0.4640  1.3123
  680MOL0     H93809   8.978   7.926   5.726 -0.6125  1.9054  0.9804
  680MOL0     H93810   8.864   8.092   5.859 -0.5839  1.4139  0.0157
  680MOL0     H93811   8.842   7.983   5.987  2.1509  1.5388 -0.5257
  680MOL0     H93812   8.661   7.869   5.882  1.6541  0.3969 -0.0139
  680MOL0     H93813   8.619   8.029   5.868  1.1769  2.1203  0.0252
  680MOL0     H93814   8.571   7.951   5.659 -0.3378  0.6154  2.5732
  680MOL0     H93815   8.719   7.854   5.661  1.1483  0.9679  0.0713
  680MOL0     H93816   8.856   8.042   5.611  0.4302 -1.6681  1.4957
  680MOL0     H93817   8.724   8.155   5.643  1.1302  0.1135  0.1121
  680MOL0     H93818   8.597   8.050   5.448 -0.1034  0.8070 -2.8626
  680MOL0     H93819   8.731   7.956   5.416 -0.3891 -0.5311  1.3340
  680MOL0     H93820   9.237   7.853   6.364  1.4632  0.1933 -0.6504
  680MOL0     H93821   9.223   7.719   6.569  0.0800  0.2342 -0.1586
  680MOL0     H93822   9.364   7.178   6.692  2.1756  3.5156  1.7536
  680MOL0     H93823   9.404   7.092   6.904  2.2578  4.5576 -1.5654
  680MOL0     H93824   8.077   6.657   8.291  2.6281  1.4240  1.1590
  680MOL0     H93825   7.871   6.749   8.371 -0.9925  1.2398  0.7286
  680MOL0     H93826   7.439   7.120   8.044  0.4050 -0.6437 -0.1757
  680MOL0     H93827   7.213   7.192   8.117 -0.5949  0.5647  1.4270
  680MOL0     H93828   7.070   7.071   8.523 -0.7451 -0.6725  0.0058
  680MOL0     H93829   7.149   7.215   8.561  0.9596 -0.9080 -0.5862
  680MOL0     H93830   6.913   7.186   8.620  0.1495 -1.5471  0.4575
  680MOL0     H93831   6.859   7.182   8.446 -1.9951  0.5762  1.8235
  680MOL0     H93832   7.012   7.412   8.592  0.8996  0.4871 -0.9475
  680MOL0     H93833   7.014   7.418   8.429 -0.9401  2.0283 -0.0321
  680MOL0     H93834   6.759   7.408   8.602 -0.9952 -0.8417 -1.2364
  680MOL0     H93835   6.734   7.419   8.444  0.3865  0.2218  0.7472
  680MOL0     H93836   6.858   7.821   8.469  0.8709 -0.3041 -1.1739
  680MOL0     H93837   7.297   7.049   8.509  0.7858  1.1861 -0.0734
  680MOL0     H93838   7.601   6.885   8.454  1.6432  1.0555  0.1771
  680MOL0     H93839   7.633   7.046   8.493  2.0892 -3.3163  1.8789
  680MOL0     H93840   7.494   6.973   8.570  1.4461 -0.7590  0.2318
  681MOL0     O93841  10.511   0.956   4.884  0.0354 -0.1303  0.5654
  681MOL0     C93842  10.490   1.002   4.775 -1.0961  0.0805  0.3439
  681MOL0     O93843  10.587   1.069   4.696 -0.5602 -0.2877 -0.3120
  681MOL0     C93844  10.715   1.079   4.741 -1.4047 -0.7745  0.0529
  681MOL0     C93845  10.793   0.992   4.823  0.1977 -0.1032  0.0408
  681MOL0     C93846  10.934   0.997   4.819  0.6760  0.0236 -0.2658
  681MOL0     C93847  11.003   1.100   4.757  0.4038  1.5167 -0.0795
  681MOL0     O93848  11.137   1.095   4.734  1.4167 -0.0317 -0.6638
  681MOL0     C93849  11.222   1.063   4.846 -0.0685 -0.0635 -0.1829
  681MOL0     C93850  11.213   1.171   4.959  0.6195  0.3096  0.4588
  681MOL0     C93851  11.342   1.243   4.973 -0.2918  0.0072 -0.2977
  681MOL0     C93852  11.461   1.163   5.021 -0.5508  0.7225  0.7510
  681MOL0     C93853  11.578   1.250   5.067 -0.0732  0.0043  0.3448
  681MOL0     C93854  11.653   1.317   4.954 -0.1589 -0.2245  0.7618
  681MOL0     C93855  11.783   1.388   4.995  0.0906 -0.9722  0.3350
  681MOL0     C93856  11.834   1.499   4.906 -0.9632 -0.0664  0.0834
  681MOL0     N93857  11.845   1.458   4.763 -0.7480  1.0133  0.0012
  681MOL0     C93858  11.957   1.404   4.701 -0.5302 -0.9598  0.4683
  681MOL0     C93859  11.930   1.401   4.565 -0.5349  0.0745 -0.5334
  681MOL0     C93860  12.033   1.353   4.456 -0.3935  0.0413 -0.8194
  681MOL0     C93861  11.950   1.279   4.354 -0.5356  0.3621  0.7438
  681MOL0     C93862  12.040   1.207   4.254 -0.1242  0.0938  0.7009
  681MOL0     C93863  11.957   1.155   4.132  0.0493 -0.3100 -0.5436
  681MOL0     O93864  12.054   1.109   4.039 -0.3756  0.8229  0.4198
  681MOL0     C93865  12.099   1.194   3.942  0.3615  0.1950 -0.0994
  681MOL0     C93866  12.218   1.163   3.884 -0.0035 -0.5364  0.6445
  681MOL0     C93867  12.290   1.239   3.789  0.6568  0.8507 -0.4848
  681MOL0     C93868  12.419   1.181   3.745  0.1990 -0.4186  0.2312
  681MOL0     C93869  12.230   1.354   3.731  0.4924 -0.3431  0.6034
  681MOL0     C93870  12.292   1.436   3.623 -0.0987  0.6382  0.9032
  681MOL0     O93871  12.430   1.421   3.602  1.0072  0.3763 -0.2363
  681MOL0     C93872  12.474   1.470   3.485 -0.4769  0.0417  0.4177
  681MOL0     C93873  12.536   1.598   3.481 -1.3588 -0.3624  0.2896
  681MOL0     C93874  12.563   1.660   3.356 -0.7922  0.3466 -1.0858
  681MOL0     C93875  12.539   1.595   3.237  0.1454  1.1360  0.8195
  681MOL0     O93876  12.579   1.624   3.109  0.2346 -0.6988 -0.2264
  681MOL0     C93877  12.651   1.748   3.083  0.2497  0.1603 -0.8660
  681MOL0     C93878  12.636   1.767   2.937 -0.3268 -0.2258 -0.9026
  681MOL0     C93879  12.500   1.761   2.872  0.4270  0.0182 -0.5070
  681MOL0     C93880  12.407   1.882   2.900 -0.8899 -0.9432  0.0224
  681MOL0     C93881  12.266   1.867   2.833 -0.4694 -0.3046 -0.0028
  681MOL0     C93882  12.274   1.913   2.683 -0.3199  0.0798 -0.6449
  681MOL0     C93883  12.130   1.952   2.649  0.3067  0.0528 -0.3228
  681MOL0     C93884  12.126   2.015   2.507  0.9045  0.1402  0.7918
  681MOL0    Cl93885  12.232   1.934   2.401 -0.1630  0.0046  0.1426
  681MOL0     C93886  12.474   1.471   3.239  0.3256  0.3954 -0.0060
  681MOL0     C93887  12.440   1.410   3.365 -0.6986  0.3506  0.0817
  681MOL0     O93888  12.222   1.524   3.572 -0.2371  0.2595 -0.5739
  681MOL0     C93889  12.110   1.390   3.797  0.1524  0.0345 -0.0275
  681MOL0     C93890  12.054   1.324   3.909 -0.6914  1.0913 -0.3544
  681MOL0     N93891  11.802   1.447   4.555  0.1948  0.2337  1.0562
  681MOL0     N93892  11.754   1.484   4.664  0.6049  0.4648 -0.4622
  681MOL0     C93893  10.929   1.182   4.681  1.1535  0.0488  0.0554
  681MOL0     C93894  10.789   1.182   4.682  0.2497 -0.1183  1.5460
  681MOL0     C93895  10.349   0.995   4.713 -0.5277  0.0492  0.2865
  681MOL0     C93896  10.332   0.944   4.578  0.0054 -0.2039  0.0020
  681MOL0     C93897  10.208   0.930   4.514 -0.0728 -0.5725 -0.5579
  681MOL0     C93898  10.090   0.974   4.586 -0.5509 -0.2565  0.5862
  681MOL0     O93899   9.972   0.968   4.531  0.7443  0.2603 -0.4180
  681MOL0     C93900   9.947   0.903   4.407 -0.7550 -0.6760  0.6835
  681MOL0     C93901   9.796   0.875   4.397  0.8285 -0.0301  0.0884
  681MOL0     C93902   9.727   1.003   4.377  0.5589 -0.3280 -0.4535
  681MOL0     C93903   9.576   0.982   4.371  0.1728 -0.7193 -0.7104
  681MOL0     C93904   9.535   0.979   4.508  0.0137 -0.7203 -1.2808
  681MOL0     C93905   9.485   0.966   4.620  0.1014 -0.8658  1.1083
  681MOL0     C93906  10.114   1.022   4.716  0.0363 -1.0864  0.6086
  681MOL0     C93907  10.236   1.032   4.777  0.8749  0.7932 -0.2100
  681MOL0     C93908  10.233   1.077   4.923  0.1313 -0.5908  0.2837
  681MOL0     H93909  10.754   0.922   4.897  2.0412 -1.1242  0.1062
  681MOL0     H93910  10.996   0.925   4.872  2.4809  0.8447 -1.1921
  681MOL0     H93911  11.324   1.063   4.807  0.5932 -2.3071  1.3813
  681MOL0     H93912  11.209   0.963   4.889  1.3104  0.5469  1.8425
  681MOL0     H93913  11.135   1.247   4.951 -0.0464 -0.3165  0.8568
  681MOL0     H93914  11.197   1.115   5.052  0.8728  0.6381  0.7037
  681MOL0     H93915  11.374   1.299   4.885  2.7817  0.7365  1.1269
  681MOL0     H93916  11.327   1.322   5.047  1.1781 -0.6207  0.7268
  681MOL0     H93917  11.432   1.097   5.102  1.0157 -1.0663 -0.0674
  681MOL0     H93918  11.494   1.091   4.946  1.5710  1.0182  1.3342
  681MOL0     H93919  11.646   1.187   5.125 -0.0153 -0.6383 -0.3960
  681MOL0     H93920  11.548   1.331   5.134  0.1303  0.2083  0.1937
  681MOL0     H93921  11.702   1.239   4.895  0.9255 -0.4232  1.8656
  681MOL0     H93922  11.586   1.385   4.901  1.3483  1.0845  0.4601
  681MOL0     H93923  11.850   1.301   4.986 -2.4376 -3.0669  0.5414
  681MOL0     H93924  11.774   1.422   5.098 -0.0973  1.0357 -0.2982
  681MOL0     H93925  11.757   1.576   4.921 -0.2000  0.1673  3.8326
  681MOL0     H93926  11.932   1.533   4.942 -0.0406 -3.0056  0.5822
  681MOL0     H93927  12.044   1.375   4.758 -1.0431 -1.1142  1.1854
  681MOL0     H93928  12.110   1.290   4.503 -1.0509 -1.0078 -1.1334
  681MOL0     H93929  12.086   1.439   4.413  1.2826 -0.4742  0.0952
  681MOL0     H93930  11.884   1.204   4.400  0.3499 -0.7969  0.1963
  681MOL0     H93931  11.888   1.344   4.292  0.5679  1.9475  1.2295
  681MOL0     H93932  12.108   1.277   4.204 -0.6712  0.6957  0.7912
  681MOL0     H93933  12.087   1.116   4.293  2.6519 -0.4475 -3.2633
  681MOL0     H93934  11.902   1.068   4.170  0.5237 -0.9771 -1.3316
  681MOL0     H93935  11.888   1.229   4.090  0.6277  0.3024 -0.4355
  681MOL0     H93936  12.260   1.070   3.920  0.6840 -0.2007  0.7337
  681MOL0     H93937  12.444   1.095   3.808 -1.6505 -0.3532  1.1183
  681MOL0     H93938  12.495   1.259   3.755  0.0815 -0.2210 -0.4147
  681MOL0     H93939  12.409   1.138   3.645 -0.3400  0.3128 -0.0332
  681MOL0     H93940  12.549   1.650   3.575  0.7003  1.0567 -0.7172
  681MOL0     H93941  12.606   1.760   3.353  1.4918 -0.4647  0.9650
  681MOL0     H93942  12.610   1.840   3.127  2.1276  1.5289 -1.8038
  681MOL0     H93943  12.759   1.748   3.101 -0.0138  0.8295  0.9523
  681MOL0     H93944  12.681   1.864   2.911 -0.5388  0.8018  2.1638
  681MOL0     H93945  12.689   1.691   2.879 -0.1379 -0.5104 -0.3616
  681MOL0     H93946  12.450   1.669   2.906  2.5462 -0.5538  1.2562
  681MOL0     H93947  12.511   1.747   2.764 -1.8159 -0.5907 -0.7193
  681MOL0     H93948  12.459   1.968   2.855 -2.0268  0.3449  1.0592
  681MOL0     H93949  12.401   1.905   3.007 -3.2536 -1.0276 -0.0444
  681MOL0     H93950  12.229   1.764   2.840 -1.1880 -0.0825 -0.4204
  681MOL0     H93951  12.191   1.924   2.890 -2.4255 -2.9472  0.2701
  681MOL0     H93952  12.322   1.833   2.626  1.4643 -1.2141  2.3780
  681MOL0     H93953  12.333   2.004   2.675  0.3291 -0.2566  0.1614
  681MOL0     H93954  12.083   2.015   2.725 -0.6686  0.3336 -1.1395
  681MOL0     H93955  12.087   1.851   2.656  0.7886 -0.0899  0.8070
  681MOL0     H93956  12.148   2.122   2.497  0.6637  0.0113 -2.3188
  681MOL0     H93957  12.023   2.001   2.472  0.8758  0.4920  0.7324
  681MOL0     H93958  12.437   1.429   3.146 -2.0968  0.4672  0.8576
  681MOL0     H93959  12.403   1.308   3.366  3.9311 -1.6187 -0.7712
  681MOL0     H93960  12.056   1.479   3.767 -3.4076 -0.7631  3.3018
  681MOL0     H93961  11.975   1.371   3.967  0.0298 -1.2148  2.8050
  681MOL0     H93962  10.971   1.269   4.631  2.2695 -0.9090 -0.7263
  681MOL0     H93963  10.730   1.256   4.630  2.5652  1.3417  0.9004
  681MOL0     H93964  10.413   0.916   4.511  0.2487 -0.1545  0.2718
  681MOL0     H93965  10.212   0.905   4.408 -0.1371  0.5004 -0.8332
  681MOL0     H93966   9.976   0.970   4.325 -3.1553  0.6314  0.8178
  681MOL0     H93967   9.996   0.806   4.394  0.2376 -0.4993  2.7109
  681MOL0     H93968   9.761   0.826   4.488  2.4581 -2.9447 -0.7302
  681MOL0     H93969   9.770   0.812   4.311 -3.3809  1.8717 -0.2946
  681MOL0     H93970   9.758   1.089   4.438 -0.4230  0.8186 -1.5293
  681MOL0     H93971   9.763   1.029   4.277 -1.5419 -1.6557 -1.6244
  681MOL0     H93972   9.556   0.892   4.313 -0.0328 -2.6848  2.1758
  681MOL0     H93973   9.532   1.075   4.333  2.3464  1.4150  1.5867
  681MOL0     H93974   9.441   0.961   4.717 -2.7388  2.4761  0.2286
  681MOL0     H93975  10.031   1.068   4.768 -1.5365  0.4255 -2.9248
  681MOL0     H93976  10.157   1.152   4.946  0.2039  0.3034 -2.1463
  681MOL0     H93977  10.219   1.006   5.006  1.6735 -1.5774 -0.2630
  681MOL0     H93978  10.327   1.123   4.953  0.2020 -0.4452 -0.1592
  682MOL0     O93979   4.392   9.182   4.749 -0.0499  0.1555 -0.7754
  682MOL0     C93980   4.310   9.202   4.840 -0.8086  0.5254  0.6069
  682MOL0     O93981   4.312   9.146   4.962  0.2451 -0.5939  0.2488
  682MOL0     C93982   4.418   9.057   4.998 -0.4706  0.0342 -0.7101
  682MOL0     C93983   4.544   9.110   5.008  0.4265  0.0754  0.4992
  682MOL0     C93984   4.650   9.043   5.047 -0.0055  0.5996  0.2260
  682MOL0     C93985   4.636   8.903   5.088 -1.2580 -0.6593  0.7958
  682MOL0     O93986   4.736   8.819   5.126  0.0768  0.3093  0.0162
  682MOL0     C93987   4.853   8.887   5.177  0.4357 -0.2507  0.8887
  682MOL0     C93988   4.941   8.799   5.270  0.5064  0.1272 -0.0694
  682MOL0     C93989   5.036   8.716   5.183 -0.5293 -0.4064 -0.4118
  682MOL0     C93990   5.128   8.618   5.251  0.1228 -0.2094  0.0468
  682MOL0     C93991   5.224   8.548   5.162 -0.2581  0.0389 -0.0806
  682MOL0     C93992   5.342   8.629   5.108  0.2015 -0.0397 -0.1662
  682MOL0     C93993   5.443   8.536   5.047 -0.3276  0.2849  0.6597
  682MOL0     C93994   5.522   8.469   5.151  0.2061  0.8262 -0.3650
  682MOL0     N93995   5.645   8.407   5.095 -0.5502 -0.0366  0.2779
  682MOL0     C93996   5.755   8.475   5.037  0.0560  0.5433 -0.1372
  682MOL0     C93997   5.853   8.383   5.031  0.2243  0.3201 -0.5485
  682MOL0     C93998   5.986   8.404   4.967 -0.2389 -0.3933 -0.5301
  682MOL0     C93999   6.097   8.424   5.072  0.1986 -0.6770 -0.3460
  682MOL0     C94000   6.241   8.429   5.003  0.2860  0.0704 -0.6882
  682MOL0     C94001   6.246   8.553   4.907 -0.4960  0.5741  0.1148
  682MOL0     O94002   6.352   8.557   4.813  0.4339 -0.4769  0.5440
  682MOL0     C94003   6.332   8.511   4.679  0.4015  0.4651 -0.3196
  682MOL0     C94004   6.427   8.539   4.584 -0.0752 -0.3294 -0.1561
  682MOL0     C94005   6.418   8.492   4.456  0.0072 -0.3319  0.2946
  682MOL0     C94006   6.541   8.502   4.371  0.9670 -0.0973 -0.0692
  682MOL0     C94007   6.307   8.415   4.416 -0.2943  0.1388  0.2686
  682MOL0     C94008   6.295   8.346   4.281 -0.1286 -0.8068 -0.0896
  682MOL0     O94009   6.394   8.381   4.188 -0.2242 -0.1901 -0.1142
  682MOL0     C94010   6.409   8.321   4.062 -0.0434 -0.0634 -0.1666
  682MOL0     C94011   6.354   8.197   4.021  0.9261  0.5004  1.1791
  682MOL0     C94012   6.355   8.164   3.883  1.2036  0.1474  0.3075
  682MOL0     C94013   6.413   8.259   3.791 -0.0321  0.5948 -0.2004
  682MOL0     O94014   6.427   8.246   3.653  0.0098 -0.6056 -0.1184
  682MOL0     C94015   6.307   8.190   3.590 -0.5570  0.7525 -0.1502
  682MOL0     C94016   6.302   8.229   3.442  0.1839 -1.2195  0.7853
  682MOL0     C94017   6.390   8.146   3.344 -0.4770  0.6020 -0.2569
  682MOL0     C94018   6.393   8.203   3.195  0.6295  0.0113  0.0614
  682MOL0     C94019   6.489   8.133   3.098 -0.0959 -0.5644  0.1552
  682MOL0     C94020   6.490   7.973   3.087 -0.0646 -0.6863  0.2683
  682MOL0     C94021   6.356   7.904   3.068 -1.0279 -0.2130 -0.2277
  682MOL0     C94022   6.387   7.751   3.068 -0.1815  0.5811  0.8129
  682MOL0    Cl94023   6.241   7.656   3.025 -0.0416  0.0160  0.3233
  682MOL0     C94024   6.475   8.370   3.832  0.0862 -0.6915  0.1629
  682MOL0     C94025   6.480   8.390   3.969 -0.7576 -1.0993  0.2355
  682MOL0     O94026   6.202   8.274   4.268  0.3233  0.1291  0.2574
  682MOL0     C94027   6.214   8.385   4.515 -0.5351 -0.0596  0.8996
  682MOL0     C94028   6.220   8.437   4.633 -0.1229  0.2520 -0.4633
  682MOL0     N94029   5.802   8.264   5.092 -0.0866 -0.3403 -1.3087
  682MOL0     N94030   5.683   8.278   5.125 -0.2011  0.4690  0.4074
  682MOL0     C94031   4.508   8.850   5.090 -0.6582 -0.5489 -0.6159
  682MOL0     C94032   4.399   8.928   5.050 -0.0499 -0.1315  0.1635
  682MOL0     C94033   4.204   9.305   4.808  0.1346 -0.6898 -0.3111
  682MOL0     C94034   4.167   9.382   4.926  0.1252 -0.1275 -0.1356
  682MOL0     C94035   4.071   9.489   4.908  0.4554  0.0741  0.2980
  682MOL0     C94036   4.011   9.503   4.783  0.9023 -0.6118 -0.7408
  682MOL0     O94037   3.907   9.584   4.753  0.0953 -0.0658  0.3339
  682MOL0     C94038   3.874   9.699   4.839 -0.7531 -0.2708  0.4426
  682MOL0     C94039   3.780   9.782   4.753 -0.1077 -0.5610  0.2423
  682MOL0     C94040   3.639   9.719   4.732 -0.5084 -0.0070  0.2679
  682MOL0     C94041   3.557   9.722   4.860 -0.0277 -0.3640  0.9021
  682MOL0     C94042   3.417   9.692   4.855  0.0189  0.0296 -0.4987
  682MOL0     C94043   3.297   9.670   4.837  0.2231  0.3941 -0.5896
  682MOL0     C94044   4.048   9.422   4.676  1.0892 -0.0222 -0.1303
  682MOL0     C94045   4.145   9.322   4.683 -0.0990 -0.5950 -0.3200
  682MOL0     C94046   4.173   9.230   4.559  0.1578 -1.0247 -0.2295
  682MOL0     H94047   4.553   9.217   4.991 -2.6305  0.5901  1.5029
  682MOL0     H94048   4.747   9.092   5.050 -0.2476  1.2177 -1.1922
  682MOL0     H94049   4.818   8.966   5.243  1.4002 -0.9602  2.3275
  682MOL0     H94050   4.903   8.914   5.083 -2.5376 -1.8679 -1.3340
  682MOL0     H94051   4.992   8.869   5.338  1.2757  0.6226 -1.1316
  682MOL0     H94052   4.880   8.734   5.333 -2.1293  3.2724  0.9290
  682MOL0     H94053   4.968   8.666   5.114 -1.1793 -0.6969  0.4261
  682MOL0     H94054   5.102   8.786   5.130  1.9650 -1.1224  1.5663
  682MOL0     H94055   5.184   8.675   5.326 -1.4712  1.5750 -0.0457
  682MOL0     H94056   5.060   8.549   5.303  1.3327 -1.4185  0.0763
  682MOL0     H94057   5.178   8.489   5.082 -0.1626 -2.7284  1.7340
  682MOL0     H94058   5.264   8.462   5.218  0.1090  1.0577  1.2693
  682MOL0     H94059   5.307   8.697   5.029  2.3464  3.1123  1.3491
  682MOL0     H94060   5.390   8.686   5.188  0.7813  2.4607 -2.1623
  682MOL0     H94061   5.505   8.604   4.988  1.5103 -1.3081  0.6177
  682MOL0     H94062   5.405   8.460   4.978 -2.0870 -0.1029  1.9884
  682MOL0     H94063   5.564   8.546   5.216 -0.3465  0.6360  0.2318
  682MOL0     H94064   5.466   8.403   5.218  0.9855  2.1497  1.6928
  682MOL0     H94065   5.757   8.575   4.995  1.6930  0.3227 -0.6701
  682MOL0     H94066   5.982   8.495   4.906  2.4593  0.4930  0.4513
  682MOL0     H94067   6.002   8.310   4.915  0.2957 -0.1401 -0.8344
  682MOL0     H94068   6.080   8.516   5.128  0.2860 -1.2518  0.6514
  682MOL0     H94069   6.076   8.343   5.142 -2.3776  2.0494  2.3361
  682MOL0     H94070   6.325   8.443   5.072 -1.2207  1.1635  1.0197
  682MOL0     H94071   6.260   8.334   4.952 -1.1585 -0.6968  0.1250
  682MOL0     H94072   6.151   8.569   4.855 -0.0104  1.7199 -0.4514
  682MOL0     H94073   6.257   8.638   4.975  0.9312  1.6423 -1.3626
  682MOL0     H94074   6.521   8.578   4.622 -0.5636 -0.7879  1.6329
  682MOL0     H94075   6.617   8.560   4.424  1.0459  0.3568 -0.6684
  682MOL0     H94076   6.525   8.545   4.272 -3.2855  0.3854  0.6136
  682MOL0     H94077   6.575   8.399   4.361 -1.2628 -0.9015 -0.1109
  682MOL0     H94078   6.300   8.134   4.091 -1.7886 -0.5429 -1.6049
  682MOL0     H94079   6.292   8.082   3.851 -1.2109  2.3099 -0.8568
  682MOL0     H94080   6.300   8.083   3.613 -0.3624  1.0034  1.1489
  682MOL0     H94081   6.215   8.220   3.641 -2.1221 -1.8573 -1.2124
  682MOL0     H94082   6.196   8.220   3.417  0.0901  2.5722 -0.8489
  682MOL0     H94083   6.319   8.336   3.435 -0.5173 -1.0284  1.7752
  682MOL0     H94084   6.341   8.049   3.335 -2.1406  1.4133 -0.2405
  682MOL0     H94085   6.492   8.137   3.382 -0.3325 -0.9182 -0.9227
  682MOL0     H94086   6.427   8.307   3.200  0.2886  0.2027 -1.3563
  682MOL0     H94087   6.289   8.207   3.163 -0.1215  0.2156  2.3573
  682MOL0     H94088   6.462   8.176   3.001 -0.9665  2.4391  1.5790
  682MOL0     H94089   6.590   8.170   3.120  0.3230 -1.8458  0.4408
  682MOL0     H94090   6.540   7.934   3.176  0.5927  1.0708  0.7097
  682MOL0     H94091   6.558   7.948   3.005  0.5731 -1.6538  1.0674
  682MOL0     H94092   6.316   7.938   2.972  1.0617 -0.9586 -1.4543
  682MOL0     H94093   6.284   7.933   3.145  0.8461  2.2546  0.7474
  682MOL0     H94094   6.422   7.734   3.170  1.5120  4.1797  0.9762
  682MOL0     H94095   6.457   7.718   2.991 -1.6044  0.0548 -0.2942
  682MOL0     H94096   6.522   8.442   3.767  1.5228 -1.7518 -0.0209
  682MOL0     H94097   6.536   8.478   4.000  0.2580 -0.9366 -1.8662
  682MOL0     H94098   6.132   8.322   4.482 -2.2308  2.5492 -0.2292
  682MOL0     H94099   6.137   8.420   4.700 -0.6391 -1.2529 -1.4341
  682MOL0     H94100   4.494   8.746   5.117 -1.3969 -0.3360 -0.1612
  682MOL0     H94101   4.303   8.878   5.042  0.7008 -1.3450 -2.3610
  682MOL0     H94102   4.200   9.365   5.028  0.2937  1.9137  0.2024
  682MOL0     H94103   4.042   9.549   4.993  1.2028 -0.9254  1.2959
  682MOL0     H94104   3.842   9.667   4.938 -0.6236  1.4683  1.0759
  682MOL0     H94105   3.965   9.759   4.852 -0.5101 -0.7046  0.7733
  682MOL0     H94106   3.824   9.805   4.655 -1.3040 -0.8056 -0.3768
  682MOL0     H94107   3.772   9.881   4.799 -0.2737  0.2710 -1.4891
  682MOL0     H94108   3.586   9.768   4.650  0.3788  2.9341  1.3046
  682MOL0     H94109   3.664   9.614   4.719  1.6983  0.4168  0.6511
  682MOL0     H94110   3.569   9.814   4.918  2.0780 -1.9808  3.2441
  682MOL0     H94111   3.601   9.637   4.913  2.8614 -0.1644 -0.9409
  682MOL0     H94112   3.192   9.650   4.828 -0.1861  2.0954 -0.0057
  682MOL0     H94113   3.988   9.429   4.586 -2.4847 -0.9481  1.9553
  682MOL0     H94114   4.122   9.270   4.471  0.0724 -3.1901 -1.2306
  682MOL0     H94115   4.276   9.224   4.522  0.2998  1.8370 -0.5203
  682MOL0     H94116   4.129   9.131   4.574  0.6062 -1.1367  0.3967
  683MOL0     O94117   4.656   2.239   4.081 -0.7155  0.6464  0.2129
  683MOL0     C94118   4.652   2.339   4.006 -0.6020  0.2075  0.3092
  683MOL0     O94119   4.729   2.454   4.022  0.3138  0.9350  0.2044
  683MOL0     C94120   4.824   2.455   4.124  0.1515 -0.1698  0.2503
  683MOL0     C94121   4.792   2.445   4.262  0.3183  0.2410  0.8423
  683MOL0     C94122   4.890   2.446   4.353  1.1963 -0.2170  0.2188
  683MOL0     C94123   5.024   2.453   4.326 -1.1901  0.1677  0.0192
  683MOL0     O94124   5.126   2.467   4.413  0.3921 -0.2823 -0.3491
  683MOL0     C94125   5.117   2.406   4.540  0.0011 -0.5924  0.0483
  683MOL0     C94126   5.257   2.402   4.606  0.9047 -0.1258 -0.0027
  683MOL0     C94127   5.353   2.325   4.511  0.1966 -0.3378 -1.0723
  683MOL0     C94128   5.465   2.254   4.585 -0.4595  0.0156 -0.3077
  683MOL0     C94129   5.578   2.197   4.499  0.4074 -0.3072 -0.6823
  683MOL0     C94130   5.703   2.187   4.583  0.9368 -0.3343 -0.5050
  683MOL0     C94131   5.822   2.147   4.504 -0.1675  0.4168  1.1187
  683MOL0     C94132   5.949   2.220   4.551 -0.4534  0.3160  0.5176
  683MOL0     N94133   6.064   2.128   4.543  0.7926  1.0457  0.1309
  683MOL0     C94134   6.099   2.035   4.641 -0.3343  0.1571  0.0826
  683MOL0     C94135   6.223   1.996   4.607 -0.6926  0.0623  0.8238
  683MOL0     C94136   6.310   1.903   4.689  0.4479  0.0656  0.2677
  683MOL0     C94137   6.332   1.780   4.606 -0.3232 -0.0776  0.6708
  683MOL0     C94138   6.433   1.675   4.666  0.3346 -0.3663  0.0595
  683MOL0     C94139   6.575   1.709   4.628  0.1292 -0.0142 -0.3711
  683MOL0     O94140   6.637   1.604   4.694  0.0285 -0.9085 -0.4219
  683MOL0     C94141   6.774   1.630   4.720  0.4659  0.5481 -0.2180
  683MOL0     C94142   6.819   1.565   4.829 -0.1208 -0.7398 -0.6418
  683MOL0     C94143   6.952   1.570   4.871  0.7819  0.2219 -0.5503
  683MOL0     C94144   6.993   1.491   4.997  0.4190 -1.0123  0.0462
  683MOL0     C94145   7.049   1.653   4.793 -0.0315  0.4021 -0.2999
  683MOL0     C94146   7.191   1.644   4.820  0.0864  0.2590  0.6745
  683MOL0     O94147   7.248   1.771   4.823  0.0323  0.4455 -0.7560
  683MOL0     C94148   7.377   1.795   4.869  0.0487 -0.0958  0.6414
  683MOL0     C94149   7.415   1.928   4.875  0.4744 -0.5084 -0.2904
  683MOL0     C94150   7.546   1.960   4.918  0.2604  0.2701  1.1701
  683MOL0     C94151   7.635   1.865   4.956 -0.1454  0.6852 -0.0254
  683MOL0     O94152   7.740   1.926   5.018 -0.3298 -0.6773  0.3954
  683MOL0     C94153   7.830   1.845   5.098 -0.0979 -0.1340 -0.1625
  683MOL0     C94154   7.948   1.924   5.159  0.3708  1.0922  0.5741
  683MOL0     C94155   8.046   1.831   5.239 -1.0386 -0.6159  0.3548
  683MOL0     C94156   8.151   1.761   5.152 -0.4613 -0.3440  0.3955
  683MOL0     C94157   8.230   1.664   5.243  0.4854 -0.2301  0.2197
  683MOL0     C94158   8.257   1.547   5.149  0.6397  0.2023  0.0431
  683MOL0     C94159   8.361   1.451   5.216 -0.5055 -0.4718 -0.5968
  683MOL0     C94160   8.383   1.318   5.141  0.2587  0.3518 -0.5348
  683MOL0    Cl94161   8.232   1.221   5.162  0.1132 -0.1427  0.1315
  683MOL0     C94162   7.603   1.729   4.946 -0.1533  0.1262  0.7601
  683MOL0     C94163   7.474   1.695   4.898 -0.0658  0.3534  0.3758
  683MOL0     O94164   7.251   1.536   4.836 -0.0556  0.4718 -0.1078
  683MOL0     C94165   7.000   1.704   4.667 -0.8714  0.1267 -0.0337
  683MOL0     C94166   6.866   1.692   4.638 -0.5442 -0.1994  0.1142
  683MOL0     N94167   6.259   2.054   4.489  0.5107  0.2478  0.6457
  683MOL0     N94168   6.162   2.130   4.448 -1.4366 -0.4997 -0.0497
  683MOL0     C94169   5.058   2.475   4.194 -0.3059  0.9550  0.8557
  683MOL0     C94170   4.955   2.478   4.092 -1.0917 -0.1778  0.1222
  683MOL0     C94171   4.543   2.350   3.903 -0.3173 -0.0327  0.8644
  683MOL0     C94172   4.502   2.480   3.855  0.5232  0.3556  0.3524
  683MOL0     C94173   4.387   2.480   3.764  0.5544  0.5270  0.3207
  683MOL0     C94174   4.336   2.362   3.716  0.5287 -0.0793 -0.5113
  683MOL0     O94175   4.228   2.354   3.627  0.1766  0.0822 -0.6954
  683MOL0     C94176   4.115   2.446   3.654 -0.2557  0.3783  1.0272
  683MOL0     C94177   3.992   2.415   3.566  0.0794 -0.9353 -0.3076
  683MOL0     C94178   3.903   2.305   3.630 -1.2357  0.2180  0.6107
  683MOL0     C94179   3.762   2.332   3.588 -1.2173  0.5358  0.2910
  683MOL0     C94180   3.734   2.321   3.442  0.0923  0.1493 -0.2047
  683MOL0     C94181   3.696   2.296   3.331  0.5906 -0.0843 -1.3421
  683MOL0     C94182   4.378   2.245   3.762 -0.2196 -0.2256 -0.5235
  683MOL0     C94183   4.478   2.232   3.848  0.0960 -0.1266 -0.3502
  683MOL0     C94184   4.508   2.092   3.885  0.2215  1.0633  0.1050
  683MOL0     H94185   4.688   2.432   4.289 -0.2935 -0.6536 -1.6655
  683MOL0     H94186   4.858   2.441   4.457 -2.7245 -0.7659 -0.8522
  683MOL0     H94187   5.071   2.308   4.525 -4.1683  1.0597  0.8290
  683MOL0     H94188   5.049   2.469   4.597 -0.1781 -1.3453  0.6785
  683MOL0     H94189   5.305   2.493   4.642  2.4912 -1.3414  1.0993
  683MOL0     H94190   5.240   2.343   4.697 -1.2139 -3.5606 -2.3780
  683MOL0     H94191   5.304   2.243   4.458 -0.5644  0.9725 -2.4884
  683MOL0     H94192   5.409   2.392   4.445 -0.3289  0.4390 -0.7483
  683MOL0     H94193   5.509   2.332   4.647  2.3866  0.3021 -2.4844
  683MOL0     H94194   5.437   2.169   4.648  2.0357 -0.3499  0.4007
  683MOL0     H94195   5.616   2.273   4.430  0.8171  0.7590  0.6792
  683MOL0     H94196   5.547   2.108   4.444 -3.8404  0.9676 -0.6981
  683MOL0     H94197   5.711   2.278   4.643  3.5094  0.5300 -1.9974
  683MOL0     H94198   5.681   2.123   4.669  0.4210 -0.2423 -0.5699
  683MOL0     H94199   5.809   2.164   4.397 -0.8639  3.2277  1.5585
  683MOL0     H94200   5.833   2.040   4.522 -0.0011 -0.1201 -1.6695
  683MOL0     H94201   5.969   2.303   4.483 -0.6162 -0.5606 -0.6156
  683MOL0     H94202   5.932   2.244   4.657  3.6455  0.6158  1.2924
  683MOL0     H94203   6.040   1.995   4.723 -0.4662  1.1265  0.4683
  683MOL0     H94204   6.268   1.878   4.786 -0.5364 -1.3750 -0.5003
  683MOL0     H94205   6.407   1.947   4.715  0.6221 -0.2299  0.1226
  683MOL0     H94206   6.235   1.729   4.601 -1.7198  2.5151 -2.7339
  683MOL0     H94207   6.352   1.814   4.503 -3.1797 -0.1598  0.0004
  683MOL0     H94208   6.420   1.666   4.774 -2.8541 -0.2235 -0.2125
  683MOL0     H94209   6.402   1.574   4.638 -1.8173  0.3358 -0.2647
  683MOL0     H94210   6.593   1.717   4.520  1.6212  2.9177 -0.0133
  683MOL0     H94211   6.610   1.806   4.667  2.2318 -0.9374  0.1849
  683MOL0     H94212   6.753   1.501   4.887  1.6557 -1.3007  0.8480
  683MOL0     H94213   7.032   1.395   4.963  0.1434 -0.8017 -0.9167
  683MOL0     H94214   6.912   1.492   5.071  1.2891 -0.9314  1.0086
  683MOL0     H94215   7.077   1.547   5.039  0.4968 -1.8624  1.0400
  683MOL0     H94216   7.340   2.001   4.848 -1.6304 -2.9108 -1.4206
  683MOL0     H94217   7.575   2.064   4.918  1.4998 -0.0318 -0.4962
  683MOL0     H94218   7.786   1.798   5.186 -4.1569  3.5561  0.1198
  683MOL0     H94219   7.872   1.774   5.025 -0.6073  0.6424 -1.2391
  683MOL0     H94220   7.993   1.981   5.077  0.9719 -1.0068 -0.6133
  683MOL0     H94221   7.899   1.996   5.226 -1.5505  0.7943 -0.4220
  683MOL0     H94222   7.987   1.765   5.302 -0.9962 -2.5917 -1.5329
  683MOL0     H94223   8.105   1.898   5.302  1.0673 -0.9809 -1.1081
  683MOL0     H94224   8.216   1.827   5.095 -0.8584 -1.6576 -1.6795
  683MOL0     H94225   8.100   1.709   5.071 -1.9054 -2.1384  2.3388
  683MOL0     H94226   8.317   1.710   5.291  2.5505 -3.4164 -0.1142
  683MOL0     H94227   8.170   1.625   5.326 -0.8112  0.1590 -0.5295
  683MOL0     H94228   8.296   1.580   5.053  0.7944 -3.5067 -1.3039
  683MOL0     H94229   8.162   1.495   5.134  1.1519  0.0765 -3.4042
  683MOL0     H94230   8.319   1.425   5.314 -2.2995  0.3540 -1.1198
  683MOL0     H94231   8.458   1.498   5.237  1.4012 -3.5985 -1.6908
  683MOL0     H94232   8.469   1.271   5.189 -0.5184 -0.9071 -0.3136
  683MOL0     H94233   8.401   1.338   5.035  0.9704  0.2691 -0.4336
  683MOL0     H94234   7.676   1.654   4.973  3.1525  3.0073  0.5560
  683MOL0     H94235   7.464   1.588   4.882  1.1330  0.1643  0.7337
  683MOL0     H94236   7.071   1.753   4.601  0.1038 -0.5976  0.4534
  683MOL0     H94237   6.829   1.717   4.539 -1.2643 -0.1300  0.3974
  683MOL0     H94238   5.163   2.476   4.167 -0.9134 -0.7353 -2.0413
  683MOL0     H94239   4.972   2.482   3.985 -0.3723 -1.6904  0.1530
  683MOL0     H94240   4.544   2.575   3.886 -1.4903  2.4286 -2.7134
  683MOL0     H94241   4.351   2.574   3.724 -0.4066 -0.1595 -0.4919
  683MOL0     H94242   4.084   2.436   3.758  0.9753  1.2674  1.5125
  683MOL0     H94243   4.145   2.549   3.631  1.4424 -0.5340 -1.2120
  683MOL0     H94244   4.028   2.397   3.465 -1.1684 -1.8692 -0.6067
  683MOL0     H94245   3.936   2.508   3.554 -2.5333 -2.3282  0.3764
  683MOL0     H94246   3.940   2.207   3.598  2.6852  2.2591 -1.9651
  683MOL0     H94247   3.910   2.301   3.739 -0.9735 -3.0558  0.5755
  683MOL0     H94248   3.736   2.431   3.626  3.2543  1.7703  0.6802
  683MOL0     H94249   3.688   2.267   3.636 -3.6430  2.6737 -0.3546
  683MOL0     H94250   3.671   2.273   3.229  0.4999 -2.5033 -0.8449
  683MOL0     H94251   4.322   2.159   3.724  0.0527  1.2344 -4.7405
  683MOL0     H94252   4.493   2.075   3.992 -0.4128 -2.3274 -0.4248
  683MOL0     H94253   4.451   2.020   3.825  1.9837 -1.3034  1.1412
  683MOL0     H94254   4.611   2.070   3.858 -0.5647 -0.5449 -1.8119
  684MOL0     O94255   9.542   1.779   4.748 -0.6168 -0.5093  0.3958
  684MOL0     C94256   9.581   1.897   4.763  0.5345 -0.4801  0.1114
  684MOL0     O94257   9.565   1.993   4.665  1.1934 -0.1274 -0.2212
  684MOL0     C94258   9.478   1.960   4.570  0.5535 -0.0207  0.2470
  684MOL0     C94259   9.336   1.981   4.593 -0.0826 -0.1183  0.2706
  684MOL0     C94260   9.241   1.945   4.498  1.0089  0.0025 -0.0935
  684MOL0     C94261   9.287   1.905   4.367 -0.9928  0.8669 -0.4058
  684MOL0     O94262   9.209   1.893   4.260 -0.6791 -0.4070  0.1398
  684MOL0     C94263   9.076   1.849   4.287  0.1073 -0.8432  0.8428
  684MOL0     C94264   9.002   1.807   4.159  0.2205 -0.8642  0.6852
  684MOL0     C94265   8.963   1.928   4.074  0.4402 -0.0354 -0.0057
  684MOL0     C94266   8.998   1.902   3.933 -0.6635 -0.4215  0.0265
  684MOL0     C94267   8.933   2.017   3.850  0.9012  0.7824  0.0847
  684MOL0     C94268   8.933   1.975   3.701  0.1730 -0.1203  0.4674
  684MOL0     C94269   9.074   2.020   3.633 -0.2336 -0.2966  0.7781
  684MOL0     C94270   9.070   1.983   3.474 -0.1432 -0.2054 -0.1098
  684MOL0     N94271   9.207   2.001   3.415 -0.1986 -0.3210  0.1885
  684MOL0     C94272   9.275   2.117   3.396  1.1793 -0.2236  0.4101
  684MOL0     C94273   9.388   2.099   3.326 -0.6216  0.2421 -0.0227
  684MOL0     C94274   9.517   2.174   3.303 -0.1968  0.0523  0.5964
  684MOL0     C94275   9.495   2.286   3.211 -0.9578 -0.6730  0.4025
  684MOL0     C94276   9.615   2.374   3.223  1.0158  0.4814  0.1820
  684MOL0     C94277   9.739   2.318   3.154  0.5403  0.3434  0.5433
  684MOL0     O94278   9.696   2.270   3.024 -0.2451  0.4550 -0.4655
  684MOL0     C94279   9.801   2.249   2.937 -0.3356  0.1871  0.4076
  684MOL0     C94280   9.755   2.237   2.804 -0.2970 -0.1286  0.5726
  684MOL0     C94281   9.850   2.236   2.697 -0.1926 -0.1629 -0.2972
  684MOL0     C94282   9.792   2.279   2.560 -0.4735  0.7416 -0.0311
  684MOL0     C94283   9.984   2.219   2.723 -0.2505 -0.1532  0.0985
  684MOL0     C94284  10.087   2.207   2.617 -0.4294  0.5407 -0.4413
  684MOL0     O94285  10.205   2.271   2.642 -0.2561 -0.1088  0.6502
  684MOL0     C94286  10.313   2.246   2.559 -0.5488 -0.4807 -0.0357
  684MOL0     C94287  10.346   2.130   2.487  1.0307  0.5892  0.1670
  684MOL0     C94288  10.465   2.118   2.418  0.3658  0.7609 -0.2490
  684MOL0     C94289  10.559   2.220   2.424 -0.0792 -0.4483  0.3449
  684MOL0     O94290  10.681   2.211   2.356  0.4843 -1.0545  0.2018
  684MOL0     C94291  10.749   2.098   2.399 -0.1811 -0.6158 -0.2137
  684MOL0     C94292  10.898   2.114   2.372  0.3156  0.3025  1.2384
  684MOL0     C94293  10.951   2.244   2.438  0.7582 -0.3736 -0.6717
  684MOL0     C94294  11.102   2.253   2.411 -0.0514  0.4873 -0.1862
  684MOL0     C94295  11.190   2.177   2.516 -0.0114 -0.3796  0.2836
  684MOL0     C94296  11.185   2.233   2.660 -0.2703  0.1494  1.0495
  684MOL0     C94297  11.306   2.184   2.737 -0.3070  0.1898  0.0057
  684MOL0     C94298  11.340   2.284   2.846  0.1099  0.0281 -0.7215
  684MOL0    Cl94299  11.390   2.201   2.998  0.2646 -0.3183 -0.0158
  684MOL0     C94300  10.531   2.337   2.500  0.5535 -0.0606  0.4830
  684MOL0     C94301  10.414   2.351   2.574 -0.1477  0.6709 -0.1579
  684MOL0     O94302  10.061   2.139   2.519 -0.1437 -0.1537 -0.0986
  684MOL0     C94303  10.023   2.213   2.860 -0.7376 -0.1827  0.5452
  684MOL0     C94304   9.940   2.249   2.959  0.3454  0.6183 -0.4111
  684MOL0     N94305   9.387   1.963   3.290  0.4542 -0.0997 -0.0663
  684MOL0     N94306   9.276   1.912   3.337  0.4527  0.3493 -0.2953
  684MOL0     C94307   9.423   1.884   4.348 -0.1636 -0.8025  0.1550
  684MOL0     C94308   9.520   1.905   4.448  0.4455  0.3205 -0.8926
  684MOL0     C94309   9.659   1.920   4.878  0.2915  0.2484  1.1025
  684MOL0     C94310   9.646   1.833   4.988 -0.1483  0.1289 -0.1203
  684MOL0     C94311   9.731   1.840   5.101  0.2130 -0.1706  0.5416
  684MOL0     C94312   9.820   1.944   5.120 -0.4516 -0.4848  0.3491
  684MOL0     O94313   9.885   1.952   5.245  0.0978  0.6665 -0.7462
  684MOL0     C94314   9.954   2.073   5.276  0.1062 -0.8100  0.1890
  684MOL0     C94315   9.953   2.098   5.426  0.2802 -1.5052 -0.3424
  684MOL0     C94316  10.072   2.032   5.497  0.1115 -0.6210  0.6670
  684MOL0     C94317  10.186   2.132   5.484 -0.0690  0.5025  0.2519
  684MOL0     C94318  10.314   2.065   5.517 -0.8436 -0.1211 -0.5805
  684MOL0     C94319  10.425   2.018   5.550 -1.0942 -0.9654 -0.2446
  684MOL0     C94320   9.837   2.035   5.009 -0.5701 -0.2271  0.2343
  684MOL0     C94321   9.757   2.020   4.889  1.0957  0.8714 -0.1906
  684MOL0     C94322   9.804   2.101   4.773 -0.1262 -0.2584  0.0095
  684MOL0     H94323   9.300   2.030   4.683  0.5471 -0.9441  0.9902
  684MOL0     H94324   9.138   1.977   4.509  0.2433 -2.6458  1.4193
  684MOL0     H94325   9.019   1.932   4.330 -0.9896 -1.9499  1.5741
  684MOL0     H94326   9.077   1.763   4.354 -2.6473 -1.5639  0.0979
  684MOL0     H94327   9.078   1.746   4.109 -1.8932 -2.1911 -1.1377
  684MOL0     H94328   8.919   1.739   4.178  1.1232 -2.2815 -0.2118
  684MOL0     H94329   8.856   1.949   4.089  0.7401  0.2690  1.8624
  684MOL0     H94330   9.007   2.027   4.087 -3.8528  2.3273 -1.2000
  684MOL0     H94331   9.106   1.910   3.919 -0.6814 -0.7229 -0.2969
  684MOL0     H94332   8.959   1.804   3.903 -0.0916  0.0010 -2.2161
  684MOL0     H94333   8.974   2.117   3.868 -0.8471  1.1764  2.4090
  684MOL0     H94334   8.825   2.020   3.864  0.6091  3.1890 -2.0402
  684MOL0     H94335   8.918   1.867   3.690  0.9942 -0.2899  0.8917
  684MOL0     H94336   8.849   2.021   3.649  0.8259 -0.4787 -0.9869
  684MOL0     H94337   9.152   1.966   3.687  1.8880 -0.4542 -2.1643
  684MOL0     H94338   9.098   2.126   3.634 -0.1334 -0.2397 -1.4931
  684MOL0     H94339   9.046   1.877   3.464 -0.1182 -0.3546  1.2111
  684MOL0     H94340   9.006   2.044   3.408  1.4723 -0.3723 -1.9101
  684MOL0     H94341   9.252   2.204   3.457 -0.2698 -0.6741  0.5459
  684MOL0     H94342   9.579   2.094   3.261  0.6121  0.3977  1.1111
  684MOL0     H94343   9.556   2.205   3.400 -0.5470  1.4068  0.3285
  684MOL0     H94344   9.487   2.250   3.108 -1.0098 -0.7258  0.4248
  684MOL0     H94345   9.409   2.343   3.246  0.2265  0.8053  1.0123
  684MOL0     H94346   9.594   2.474   3.184  2.6421  0.4511 -0.8896
  684MOL0     H94347   9.640   2.402   3.326 -0.1093  1.5704  0.1797
  684MOL0     H94348   9.822   2.390   3.146  1.4658 -0.8276 -0.7969
  684MOL0     H94349   9.780   2.231   3.207 -3.1761 -1.6569  0.4483
  684MOL0     H94350   9.649   2.248   2.782 -0.3530 -2.1716 -0.4263
  684MOL0     H94351   9.765   2.193   2.497  3.8959  0.8689 -2.4824
  684MOL0     H94352   9.868   2.313   2.488 -0.4151  1.1255  0.2113
  684MOL0     H94353   9.712   2.353   2.558 -1.7385 -0.5699 -1.4354
  684MOL0     H94354  10.275   2.049   2.484  0.0704  1.2635  2.4035
  684MOL0     H94355  10.477   2.022   2.368  0.6846  0.4075  0.4865
  684MOL0     H94356  10.732   2.071   2.504 -0.3929  0.0602 -0.0672
  684MOL0     H94357  10.711   2.019   2.334  1.8278 -1.0010 -0.9911
  684MOL0     H94358  10.953   2.021   2.394  2.1115  0.8565 -0.5743
  684MOL0     H94359  10.913   2.128   2.265  0.0652 -0.1474  1.1416
  684MOL0     H94360  10.923   2.238   2.543 -1.0345 -3.2868 -1.1823
  684MOL0     H94361  10.908   2.331   2.388 -0.3997 -0.1885  0.6048
  684MOL0     H94362  11.122   2.360   2.403 -1.1329  0.5363 -4.7935
  684MOL0     H94363  11.132   2.210   2.315  4.5674  0.7208  0.8834
  684MOL0     H94364  11.173   2.069   2.515  1.8756 -0.7139  0.8853
  684MOL0     H94365  11.292   2.190   2.479 -0.1067  0.9678  0.4558
  684MOL0     H94366  11.100   2.193   2.715  0.6710 -2.6741  0.5854
  684MOL0     H94367  11.170   2.341   2.654  1.2095  0.4503  2.1822
  684MOL0     H94368  11.388   2.152   2.671 -0.7973  0.4722 -0.7423
  684MOL0     H94369  11.288   2.088   2.786  5.3970 -1.4808 -0.3441
  684MOL0     H94370  11.245   2.337   2.859  0.5797  0.7687 -0.2078
  684MOL0     H94371  11.414   2.358   2.811  0.2629 -0.6764 -1.9583
  684MOL0     H94372  10.602   2.419   2.506  0.4769  0.0215  0.2619
  684MOL0     H94373  10.387   2.429   2.645 -0.5032 -1.8845  2.6849
  684MOL0     H94374  10.127   2.196   2.886 -0.2922  2.4452  0.7696
  684MOL0     H94375   9.988   2.259   3.055  0.4131  1.3891 -0.5117
  684MOL0     H94376   9.459   1.848   4.252 -2.0615 -0.1655 -0.8463
  684MOL0     H94377   9.625   1.885   4.428  0.2492 -1.7806 -0.0122
  684MOL0     H94378   9.574   1.753   4.998 -0.6189  0.5002 -0.5581
  684MOL0     H94379   9.712   1.765   5.176  0.9384 -2.4420 -1.4228
  684MOL0     H94380  10.051   2.042   5.236 -0.6688 -1.7376 -1.0230
  684MOL0     H94381   9.936   2.165   5.219  1.2253 -1.4446 -1.2439
  684MOL0     H94382   9.873   2.041   5.474  0.4439 -0.0923  1.7023
  684MOL0     H94383   9.944   2.205   5.446 -0.6115 -1.5970 -0.2320
  684MOL0     H94384  10.048   2.010   5.602 -0.8884  2.2079  1.1298
  684MOL0     H94385  10.095   1.937   5.448 -0.0674  0.9379 -2.7280
  684MOL0     H94386  10.169   2.225   5.539 -1.4253  0.9425 -0.8665
  684MOL0     H94387  10.195   2.154   5.377 -2.7100  0.9681  0.0687
  684MOL0     H94388  10.513   1.966   5.581  0.5896  0.6417 -2.0830
  684MOL0     H94389   9.916   2.110   5.002 -1.8528  1.0277 -1.9731
  684MOL0     H94390   9.896   2.152   4.803 -0.8305 -0.1923  2.2203
  684MOL0     H94391   9.830   2.027   4.696 -0.5235  0.6512 -1.0274
  684MOL0     H94392   9.732   2.177   4.742  1.4062  0.4180 -2.1758
  685MOL0     O94393   2.418   6.629   7.157 -0.0890  0.1556 -1.1085
  685MOL0     C94394   2.336   6.598   7.068 -0.3647 -0.7185  0.9582
  685MOL0     O94395   2.365   6.575   6.934 -0.0125 -0.3766  0.3574
  685MOL0     C94396   2.494   6.596   6.875 -0.3892  0.5517 -0.7138
  685MOL0     C94397   2.617   6.586   6.948  0.0456  0.2556  0.4959
  685MOL0     C94398   2.741   6.597   6.881 -0.6015  0.6265 -0.7451
  685MOL0     C94399   2.735   6.625   6.743 -0.1297  0.0554  0.1836
  685MOL0     O94400   2.842   6.648   6.666 -0.0204 -0.2042  0.1179
  685MOL0     C94401   2.969   6.674   6.729  0.1910 -0.0899 -0.2732
  685MOL0     C94402   3.072   6.729   6.628  0.0321  0.3791  0.4162
  685MOL0     C94403   3.122   6.614   6.542  0.6318 -0.6549  0.7878
  685MOL0     C94404   3.209   6.664   6.424 -0.1219  0.0860 -0.0421
  685MOL0     C94405   3.285   6.554   6.348  0.3498 -0.8777 -0.8781
  685MOL0     C94406   3.435   6.547   6.391  0.0743 -0.0656  0.3268
  685MOL0     C94407   3.496   6.415   6.344  0.5111  0.3254 -0.6849
  685MOL0     C94408   3.644   6.420   6.378  0.3068  0.0060  0.0859
  685MOL0     N94409   3.728   6.317   6.311 -0.0362  0.0290 -0.0008
  685MOL0     C94410   3.776   6.315   6.182 -0.5288  0.0272 -0.2818
  685MOL0     C94411   3.851   6.197   6.164  0.5462  0.0122  0.5022
  685MOL0     C94412   3.901   6.151   6.031  0.9586  0.3051 -0.6725
  685MOL0     C94413   4.047   6.204   6.018  0.0113  0.1432 -0.3714
  685MOL0     C94414   4.151   6.132   6.103  0.0786  0.5975 -0.4886
  685MOL0     C94415   4.207   6.001   6.048  0.6262 -0.0802  0.2049
  685MOL0     O94416   4.258   5.929   6.157 -0.1034 -0.5662  0.1592
  685MOL0     C94417   4.396   5.908   6.154 -0.1951  0.3433  0.2391
  685MOL0     C94418   4.448   5.874   6.275  0.4696 -0.0871 -0.5125
  685MOL0     C94419   4.579   5.828   6.291 -0.6073 -0.3591 -0.0319
  685MOL0     C94420   4.609   5.773   6.432 -0.2247  0.1274  0.4890
  685MOL0     C94421   4.678   5.840   6.182  0.0837  0.2632 -0.6057
  685MOL0     C94422   4.816   5.798   6.183  0.4150  0.6745 -0.7976
  685MOL0     O94423   4.898   5.860   6.096  0.0329  0.5940  0.3636
  685MOL0     C94424   5.028   5.822   6.090  0.2602  0.3285 -1.3660
  685MOL0     C94425   5.107   5.818   6.213  0.1360 -0.0189 -0.3977
  685MOL0     C94426   5.236   5.785   6.216 -0.1433  1.1181  0.0565
  685MOL0     C94427   5.295   5.745   6.100  0.0887  0.4915  0.0122
  685MOL0     O94428   5.427   5.708   6.113  0.1585 -0.1294 -0.4886
  685MOL0     C94429   5.489   5.643   6.002  0.6286 -0.2974  0.4121
  685MOL0     C94430   5.639   5.627   6.022  0.6328  0.0935 -0.4974
  685MOL0     C94431   5.715   5.757   6.034  0.4146 -0.0794 -0.1140
  685MOL0     C94432   5.843   5.754   5.958 -0.1647  0.5582  0.4094
  685MOL0     C94433   5.909   5.891   5.972 -0.5998 -0.0128  0.5055
  685MOL0     C94434   6.013   5.893   5.864 -1.1056  0.7508  0.1665
  685MOL0     C94435   6.145   5.821   5.891 -0.7832  0.5943  0.6055
  685MOL0     C94436   6.256   5.818   5.776 -0.6964 -0.0478 -0.4426
  685MOL0    Cl94437   6.386   5.715   5.821 -0.3926  0.3207 -0.4871
  685MOL0     C94438   5.219   5.735   5.980 -0.4958  0.4766  0.6561
  685MOL0     C94439   5.089   5.778   5.971 -0.3515 -0.1029  0.9450
  685MOL0     O94440   4.830   5.688   6.236 -0.1239  0.5811  0.7393
  685MOL0     C94441   4.624   5.890   6.068 -0.0245 -0.5482 -0.5729
  685MOL0     C94442   4.492   5.918   6.048 -1.2149 -0.0224 -0.5673
  685MOL0     N94443   3.850   6.130   6.287  0.0622  0.1110 -0.1562
  685MOL0     N94444   3.764   6.195   6.360  0.7377 -0.3385  0.5145
  685MOL0     C94445   2.613   6.636   6.674  0.3202 -0.5650 -0.2546
  685MOL0     C94446   2.495   6.607   6.740  0.2002 -0.9189 -0.3295
  685MOL0     C94447   2.193   6.610   7.105 -0.7056 -1.0291  0.2312
  685MOL0     C94448   2.100   6.615   7.002 -0.0232 -0.2732  0.1586
  685MOL0     C94449   1.960   6.614   7.028 -0.7766 -0.5394 -0.3317
  685MOL0     C94450   1.919   6.617   7.162  0.0944  0.2428  0.2112
  685MOL0     O94451   1.782   6.613   7.182 -0.1013 -0.1831  0.2688
  685MOL0     C94452   1.687   6.609   7.081 -0.6662 -0.7807 -0.9365
  685MOL0     C94453   1.547   6.591   7.148  0.0662  0.4406 -0.2624
  685MOL0     C94454   1.445   6.539   7.040  1.0687  0.7110  0.9430
  685MOL0     C94455   1.308   6.513   7.108 -1.3828 -0.7928 -0.3950
  685MOL0     C94456   1.220   6.442   7.011 -0.1027 -0.7648 -0.2772
  685MOL0     C94457   1.151   6.390   6.930  0.0777  0.4082 -0.4488
  685MOL0     C94458   2.013   6.630   7.259 -0.8597  0.3090 -0.5081
  685MOL0     C94459   2.148   6.621   7.238 -0.0226  0.9109  0.6211
  685MOL0     C94460   2.231   6.611   7.365 -0.5592  0.5902  0.0115
  685MOL0     H94461   2.617   6.567   7.055  3.1687 -1.2527  0.3414
  685MOL0     H94462   2.834   6.579   6.934 -0.4437  0.3504 -1.1116
  685MOL0     H94463   3.004   6.581   6.773 -2.1543 -0.9292 -0.0628
  685MOL0     H94464   2.955   6.754   6.802 -0.0179  1.9843 -2.4411
  685MOL0     H94465   3.020   6.805   6.569 -1.2057  0.5675  1.7091
  685MOL0     H94466   3.160   6.773   6.676  1.1926 -2.5257  1.2060
  685MOL0     H94467   3.156   6.520   6.586  1.3309 -2.6824 -3.5657
  685MOL0     H94468   3.034   6.582   6.485 -0.0294 -0.5210  1.7054
  685MOL0     H94469   3.153   6.719   6.347  3.5054  1.8616 -1.6348
  685MOL0     H94470   3.289   6.732   6.455  0.8325 -0.8056 -0.4841
  685MOL0     H94471   3.277   6.568   6.239 -0.1412 -1.7163 -0.9623
  685MOL0     H94472   3.234   6.463   6.382 -1.3609  0.3363 -0.0668
  685MOL0     H94473   3.492   6.631   6.349 -2.3915  1.6510  0.1746
  685MOL0     H94474   3.446   6.545   6.500 -3.0489 -1.1664  0.7061
  685MOL0     H94475   3.496   6.403   6.235  0.8352 -1.5115 -0.4978
  685MOL0     H94476   3.436   6.333   6.385 -1.8965  1.3321 -1.9454
  685MOL0     H94477   3.676   6.519   6.346 -0.3604 -0.1859 -1.2172
  685MOL0     H94478   3.669   6.406   6.484 -0.5909 -0.4003  0.2521
  685MOL0     H94479   3.756   6.390   6.106  1.6951  3.0738  1.9018
  685MOL0     H94480   3.852   6.194   5.943  1.2500 -0.1594 -1.0694
  685MOL0     H94481   3.885   6.043   6.032 -1.4389  0.6231  0.3026
  685MOL0     H94482   4.088   6.206   5.917  2.0496 -2.4587  0.2869
  685MOL0     H94483   4.045   6.306   6.057 -1.2989 -0.0026 -0.0010
  685MOL0     H94484   4.230   6.207   6.108 -0.9085  1.8332 -2.1153
  685MOL0     H94485   4.112   6.117   6.204  1.2786  1.7859  0.1780
  685MOL0     H94486   4.127   5.944   5.999  1.3759  1.6253 -3.3208
  685MOL0     H94487   4.276   6.025   5.967 -0.0566  1.6009  0.0776
  685MOL0     H94488   4.366   5.863   6.346 -0.3830 -0.2823 -1.4898
  685MOL0     H94489   4.712   5.796   6.463 -0.1148 -0.9077  0.9415
  685MOL0     H94490   4.613   5.664   6.420  3.5956  0.3195 -1.4659
  685MOL0     H94491   4.528   5.804   6.500 -0.7538 -0.5042  0.1535
  685MOL0     H94492   5.062   5.856   6.304 -1.1658  0.5330 -1.2386
  685MOL0     H94493   5.305   5.805   6.297  0.9315 -0.6995 -0.3654
  685MOL0     H94494   5.461   5.539   5.983  0.8423 -0.0883 -1.2473
  685MOL0     H94495   5.474   5.696   5.907  0.3281 -1.0119  0.0559
  685MOL0     H94496   5.662   5.558   6.103 -0.8534 -0.4682 -0.5195
  685MOL0     H94497   5.685   5.583   5.933  4.0800 -0.6394  1.4631
  685MOL0     H94498   5.733   5.782   6.139 -1.2302 -0.5760  0.3193
  685MOL0     H94499   5.662   5.840   5.987  3.2240  0.5443 -2.4615
  685MOL0     H94500   5.820   5.731   5.854  0.8213  1.5226 -0.0466
  685MOL0     H94501   5.908   5.671   5.987 -2.2222 -2.2003 -2.2436
  685MOL0     H94502   5.842   5.977   5.967 -0.5268  0.3649  3.8739
  685MOL0     H94503   5.959   5.894   6.070 -0.9191 -1.7527  0.7596
  685MOL0     H94504   6.039   5.998   5.851 -1.0459  0.9454  1.6959
  685MOL0     H94505   5.968   5.862   5.769 -1.0718 -1.0707  0.6967
  685MOL0     H94506   6.105   5.721   5.908 -3.4887  1.5359  0.2097
  685MOL0     H94507   6.184   5.857   5.986  3.1891  1.1252 -1.0087
  685MOL0     H94508   6.294   5.920   5.772 -2.0948  0.7588  3.2055
  685MOL0     H94509   6.212   5.785   5.681 -0.3673  2.5352 -1.5545
  685MOL0     H94510   5.267   5.703   5.888  5.3519  1.5339  2.9235
  685MOL0     H94511   5.039   5.767   5.875  1.3451  3.0372 -0.4417
  685MOL0     H94512   4.688   5.894   5.981  0.8975  1.6740  0.1488
  685MOL0     H94513   4.460   5.917   5.944  0.6179 -3.4124 -1.2418
  685MOL0     H94514   2.623   6.646   6.567 -2.9557  1.8684 -0.4846
  685MOL0     H94515   2.402   6.624   6.686 -1.4751  0.1835  2.6785
  685MOL0     H94516   2.134   6.633   6.901  0.2281  0.1168  0.3085
  685MOL0     H94517   1.892   6.630   6.945  2.5586 -0.0475 -3.1902
  685MOL0     H94518   1.692   6.708   7.035  0.9499 -0.0981  0.5827
  685MOL0     H94519   1.705   6.538   7.000  0.0016  0.6821 -2.1249
  685MOL0     H94520   1.517   6.690   7.184 -0.5799  0.8195 -1.7283
  685MOL0     H94521   1.551   6.521   7.231 -1.7697 -1.0297 -1.3235
  685MOL0     H94522   1.423   6.618   6.967 -1.7287 -0.9490 -0.1643
  685MOL0     H94523   1.469   6.440   7.002 -1.2254  0.2963  0.3936
  685MOL0     H94524   1.275   6.614   7.133  2.0252  0.1730  0.6569
  685MOL0     H94525   1.306   6.458   7.202 -2.2155 -1.2748 -0.6736
  685MOL0     H94526   1.086   6.325   6.875  1.3249 -1.3498  0.0764
  685MOL0     H94527   1.975   6.631   7.360  0.0729  2.6284 -0.1165
  685MOL0     H94528   2.292   6.700   7.382  2.8345 -1.1531 -1.8287
  685MOL0     H94529   2.172   6.592   7.455  2.3325 -0.5516  1.8103
  685MOL0     H94530   2.304   6.529   7.362  0.6273  1.1921  4.7040
  686MOL0     O94531   6.504   8.276   8.044  0.0289 -0.9136  0.8435
  686MOL0     C94532   6.456   8.310   8.149  0.0237  1.0024 -1.3003
  686MOL0     O94533   6.523   8.304   8.272  0.9955  0.1363  0.2122
  686MOL0     C94534   6.645   8.237   8.274  0.2659  0.1370  0.5987
  686MOL0     C94535   6.775   8.297   8.261  1.3136  0.0645 -0.7764
  686MOL0     C94536   6.886   8.213   8.276 -0.1773  0.5533 -0.1688
  686MOL0     C94537   6.877   8.078   8.293  0.7679  0.5083 -0.7474
  686MOL0     O94538   6.984   7.998   8.296 -0.0447  0.3669 -0.1587
  686MOL0     C94539   7.084   8.019   8.390 -0.9651 -0.2367  0.5193
  686MOL0     C94540   7.209   7.918   8.377  0.1111  0.3596 -0.1905
  686MOL0     C94541   7.295   7.931   8.495 -0.6902  0.1993  0.2041
  686MOL0     C94542   7.414   7.835   8.508  0.1370 -0.5324  0.3284
  686MOL0     C94543   7.387   7.689   8.498 -0.2589 -0.2800 -0.5427
  686MOL0     C94544   7.294   7.628   8.603 -0.2566  0.6714  0.3955
  686MOL0     C94545   7.366   7.623   8.737 -0.7228  0.2470  0.0073
  686MOL0     C94546   7.278   7.570   8.847 -0.6884 -0.1924  0.0778
  686MOL0     N94547   7.315   7.430   8.885 -0.6276 -0.0895  0.4029
  686MOL0     C94548   7.413   7.385   8.979 -0.1721 -0.7020  0.1154
  686MOL0     C94549   7.429   7.256   8.948  0.5714  0.3261  0.1067
  686MOL0     C94550   7.526   7.158   9.014  0.6605 -0.0554 -0.6227
  686MOL0     C94551   7.601   7.217   9.142 -0.6991 -0.2279  0.1099
  686MOL0     C94552   7.677   7.100   9.199  0.0559  0.0313  0.5160
  686MOL0     C94553   7.740   7.123   9.338 -0.1548  0.1057  0.4704
  686MOL0     O94554   7.829   7.232   9.347 -0.7944 -0.0504  0.4928
  686MOL0     C94555   7.955   7.196   9.393 -0.5662  0.9287 -0.3839
  686MOL0     C94556   8.032   7.109   9.318  0.2793 -0.1105 -0.0783
  686MOL0     C94557   8.164   7.069   9.358 -0.2383 -0.4281  0.1760
  686MOL0     C94558   8.264   6.993   9.261  0.2783  0.0606 -0.3475
  686MOL0     C94559   8.208   7.100   9.492 -0.2207  1.0664  0.2902
  686MOL0     C94560   8.339   7.052   9.555  0.1365  0.3044 -0.0610
  686MOL0     O94561   8.340   7.058   9.689 -0.1210  0.1069 -0.2315
  686MOL0     C94562   8.436   7.001   9.765 -0.9544 -0.3947  1.2232
  686MOL0     C94563   8.531   6.899   9.729  1.5364 -0.3576  0.2206
  686MOL0     C94564   8.627   6.846   9.820  0.0137 -0.7041  0.2267
  686MOL0     C94565   8.632   6.906   9.950  0.1078  0.9784  0.7355
  686MOL0     O94566   8.734   6.859  10.037  0.0656 -0.1230  0.2266
  686MOL0     C94567   8.756   6.931  10.160 -0.0352 -0.0254 -0.5519
  686MOL0     C94568   8.890   6.879  10.222 -0.1440  0.1285 -0.0151
  686MOL0     C94569   9.022   6.954  10.184  0.0025  0.0711 -0.3543
  686MOL0     C94570   9.032   7.077  10.269 -0.1419  0.3222  0.1107
  686MOL0     C94571   9.130   7.190  10.227  0.5691 -0.2483  0.2698
  686MOL0     C94572   9.088   7.274  10.106 -0.8630  0.5766 -0.2071
  686MOL0     C94573   9.191   7.386  10.089 -0.4703 -0.4829  0.3642
  686MOL0     C94574   9.170   7.468   9.961  0.1944 -0.3848 -0.8445
  686MOL0    Cl94575   9.227   7.640   9.985 -0.0393 -0.0972 -0.1996
  686MOL0     C94576   8.534   7.002   9.983 -0.1605  0.2915  0.5711
  686MOL0     C94577   8.446   7.056   9.891 -0.1830 -0.3246  0.1030
  686MOL0     O94578   8.434   7.020   9.486 -0.1732  0.8781  0.1822
  686MOL0     C94579   8.125   7.180   9.568  0.4307  0.4961 -0.6580
  686MOL0     C94580   7.997   7.216   9.522  0.1162  0.4931 -1.4489
  686MOL0     N94581   7.344   7.223   8.837 -0.1261  0.4182 -0.1526
  686MOL0     N94582   7.279   7.327   8.797  0.6804  0.5333  0.2765
  686MOL0     C94583   6.753   8.014   8.290 -0.3530 -0.5653  0.9621
  686MOL0     C94584   6.639   8.093   8.276  0.6256 -0.9248 -0.3657
  686MOL0     C94585   6.317   8.353   8.156  0.6300 -0.2772  0.3998
  686MOL0     C94586   6.290   8.461   8.235 -0.0677 -0.8343  0.1386
  686MOL0     C94587   6.169   8.519   8.246  0.4062 -0.3675  0.0823
  686MOL0     C94588   6.058   8.466   8.175 -0.1224 -0.4110  0.1687
  686MOL0     O94589   5.941   8.527   8.169  0.3591 -0.2161 -0.0681
  686MOL0     C94590   5.920   8.666   8.153 -0.5613  0.6007 -0.1158
  686MOL0     C94591   5.799   8.719   8.232  0.1036 -0.2692  0.3716
  686MOL0     C94592   5.664   8.652   8.200  0.9214  0.0536 -0.1217
  686MOL0     C94593   5.577   8.665   8.328  0.3212 -1.0946  0.5208
  686MOL0     C94594   5.536   8.811   8.349 -0.8980  0.9666 -0.3551
  686MOL0     C94595   5.513   8.922   8.377  0.7308 -0.1044 -0.8870
  686MOL0     C94596   6.081   8.352   8.093 -0.0517 -0.2838  0.2471
  686MOL0     C94597   6.209   8.305   8.070  0.0712  0.3914 -0.1184
  686MOL0     C94598   6.221   8.206   7.961 -0.7918  0.8387 -0.1326
  686MOL0     H94599   6.791   8.402   8.243 -2.4614  0.8802 -0.2196
  686MOL0     H94600   6.983   8.257   8.256 -0.1303  0.5525  0.0636
  686MOL0     H94601   7.045   8.003   8.491 -1.1724 -1.8949  0.2065
  686MOL0     H94602   7.114   8.124   8.382  3.3719 -1.3763 -1.1441
  686MOL0     H94603   7.179   7.814   8.364  2.5086 -0.4870  0.5648
  686MOL0     H94604   7.265   7.957   8.292 -0.6715 -1.0006 -1.3735
  686MOL0     H94605   7.339   8.031   8.488 -1.3821  0.4573 -0.6062
  686MOL0     H94606   7.230   7.915   8.582  0.9191 -3.4594  0.9015
  686MOL0     H94607   7.487   7.866   8.433  0.2461  1.3274  1.1616
  686MOL0     H94608   7.466   7.847   8.603  0.2159 -0.5485  0.2884
  686MOL0     H94609   7.477   7.628   8.484  1.0584  1.4949 -0.2224
  686MOL0     H94610   7.325   7.674   8.409 -1.4367  4.3712 -0.7644
  686MOL0     H94611   7.197   7.678   8.603  0.5829  2.5571 -2.4174
  686MOL0     H94612   7.268   7.526   8.577  1.6307  0.1701  0.3447
  686MOL0     H94613   7.384   7.727   8.763  1.4240 -0.4915  1.8046
  686MOL0     H94614   7.470   7.587   8.731 -1.1719 -1.2022  0.4989
  686MOL0     H94615   7.280   7.638   8.933 -0.6061 -1.3186  0.9919
  686MOL0     H94616   7.173   7.573   8.818 -0.4599 -3.4172 -1.5190
  686MOL0     H94617   7.458   7.441   9.061 -2.3676 -0.9402  1.5605
  686MOL0     H94618   7.592   7.123   8.934  0.3131 -1.8686 -0.1565
  686MOL0     H94619   7.459   7.077   9.043  3.1406 -2.2522 -0.6889
  686MOL0     H94620   7.667   7.301   9.120 -0.6533  0.1691  1.6745
  686MOL0     H94621   7.537   7.252   9.224 -0.9304 -1.4329  0.4664
  686MOL0     H94622   7.601   7.022   9.199 -1.0912  0.9793 -3.1116
  686MOL0     H94623   7.765   7.081   9.137  0.4592  1.0282  0.7605
  686MOL0     H94624   7.654   7.137   9.404 -0.7049  0.5173 -0.3170
  686MOL0     H94625   7.796   7.035   9.371  0.3518 -0.1466 -0.9633
  686MOL0     H94626   8.002   7.085   9.216  1.9332 -0.1503 -0.5982
  686MOL0     H94627   8.282   6.889   9.291  2.9058  0.9184  1.4610
  686MOL0     H94628   8.360   7.040   9.239  0.9127 -1.0646 -0.0944
  686MOL0     H94629   8.206   6.990   9.168  2.9961 -1.2015 -2.1290
  686MOL0     H94630   8.520   6.858   9.630  0.7643  0.1081  0.0989
  686MOL0     H94631   8.693   6.761   9.807  0.8026 -0.2977  1.3735
  686MOL0     H94632   8.769   7.038  10.141  0.1748  0.5795  2.4629
  686MOL0     H94633   8.681   6.927  10.240  1.7092  4.1459  1.6577
  686MOL0     H94634   8.876   6.882  10.330 -1.1916  0.4885 -0.1385
  686MOL0     H94635   8.894   6.775  10.190 -0.0041  0.0367  0.2982
  686MOL0     H94636   9.015   6.983  10.078 -0.6188 -0.6180 -0.5128
  686MOL0     H94637   9.114   6.895  10.194 -0.8824 -1.0560  1.8144
  686MOL0     H94638   9.047   7.055  10.375  3.0860 -3.2974 -0.8699
  686MOL0     H94639   8.930   7.114  10.282  0.0625  1.0683 -0.3069
  686MOL0     H94640   9.137   7.257  10.313 -1.3757 -0.0061  0.2846
  686MOL0     H94641   9.230   7.153  10.205  1.3169  0.6250  2.0234
  686MOL0     H94642   8.987   7.315  10.117 -1.2733 -0.0888 -1.2696
  686MOL0     H94643   9.102   7.213  10.016 -1.4116  0.2516 -0.0791
  686MOL0     H94644   9.294   7.352  10.100  0.6094  1.8117 -1.5106
  686MOL0     H94645   9.184   7.458  10.171  1.2024  0.3740 -0.1802
  686MOL0     H94646   9.063   7.460   9.943 -0.1320  0.8907  0.3366
  686MOL0     H94647   9.229   7.418   9.884 -0.3382  0.8446 -2.0794
  686MOL0     H94648   8.524   7.035  10.086  0.8311  1.5050  0.3099
  686MOL0     H94649   8.382   7.136   9.925 -0.9990 -0.8413 -0.1848
  686MOL0     H94650   8.150   7.201   9.672  1.4086  0.7587 -0.9371
  686MOL0     H94651   7.923   7.266   9.582  0.1196 -0.6792 -0.4358
  686MOL0     H94652   6.745   7.906   8.292 -1.1929 -0.5274  0.1410
  686MOL0     H94653   6.537   8.055   8.278 -2.1634  4.9713 -2.9474
  686MOL0     H94654   6.376   8.498   8.290  0.5594 -0.0572 -1.3218
  686MOL0     H94655   6.164   8.613   8.300 -2.3406  0.6968 -1.7650
  686MOL0     H94656   6.002   8.734   8.177  0.1239 -0.1111 -0.3789
  686MOL0     H94657   5.898   8.683   8.048  0.9641 -1.5330 -0.8475
  686MOL0     H94658   5.780   8.823   8.205 -2.0446 -0.8973 -0.7573
  686MOL0     H94659   5.830   8.715   8.337  1.8446  1.1324 -0.0494
  686MOL0     H94660   5.626   8.694   8.107  0.7016  1.6595  0.6533
  686MOL0     H94661   5.683   8.546   8.185 -0.9618 -0.2186 -0.7602
  686MOL0     H94662   5.630   8.623   8.414 -0.5653 -1.2735  0.9957
  686MOL0     H94663   5.486   8.605   8.314  0.8450 -2.0223  1.0165
  686MOL0     H94664   5.498   9.024   8.404  2.7261 -0.1895  0.8081
  686MOL0     H94665   5.995   8.325   8.032 -0.0919 -1.6931  0.8963
  686MOL0     H94666   6.120   8.178   7.928 -0.1084 -0.3440 -1.3215
  686MOL0     H94667   6.282   8.237   7.876 -4.2818  0.5100 -3.0105
  686MOL0     H94668   6.268   8.115   8.000 -0.8958  0.0605 -1.7401
  687MOL0     O94669   2.510  10.607   9.903 -0.4178 -0.2010 -0.1758
  687MOL0     C94670   2.405  10.611   9.838  0.8668 -1.3919 -0.0542
  687MOL0     O94671   2.417  10.629   9.701 -0.5093 -0.7000 -0.9703
  687MOL0     C94672   2.534  10.587   9.646 -0.5311  0.2167  0.1744
  687MOL0     C94673   2.622  10.681   9.586  0.5381  0.6940 -0.8956
  687MOL0     C94674   2.722  10.637   9.497  0.4729  0.3288 -0.2725
  687MOL0     C94675   2.743  10.503   9.472 -0.3009  0.1852 -0.6080
  687MOL0     O94676   2.845  10.454   9.396  0.0324 -0.0585 -0.3632
  687MOL0     C94677   2.964  10.530   9.387  0.1174 -0.1796 -0.0611
  687MOL0     C94678   3.085  10.451   9.341  0.2014  0.7170  0.4236
  687MOL0     C94679   3.195  10.539   9.301 -0.0856 -0.4289 -0.3451
  687MOL0     C94680   3.330  10.466   9.310 -0.5215 -0.3367 -0.6131
  687MOL0     C94681   3.459  10.553   9.298  0.6617 -0.5696 -0.7895
  687MOL0     C94682   3.489  10.634   9.431  0.4172  0.3803 -1.0639
  687MOL0     C94683   3.621  10.713   9.414  0.6906 -0.7335  0.5866
  687MOL0     C94684   3.744  10.620   9.405 -1.1760 -0.1781  0.1342
  687MOL0     N94685   3.874  10.695   9.408  0.1263 -0.3415  0.2773
  687MOL0     C94686   3.909  10.772   9.524 -0.3012 -0.4789  0.3588
  687MOL0     C94687   4.029  10.826   9.486 -0.1030 -0.1809  1.4283
  687MOL0     C94688   4.085  10.935   9.566 -0.6038 -0.8852 -0.7594
  687MOL0     C94689   4.232  10.899   9.616  0.8970 -0.7894 -0.8399
  687MOL0     C94690   4.225  10.801   9.732  0.1163 -0.6258 -0.0104
  687MOL0     C94691   4.349  10.726   9.748 -0.4471  0.1774  0.6242
  687MOL0     O94692   4.451  10.815   9.794  0.5753  0.0161  0.0683
  687MOL0     C94693   4.590  10.788   9.786 -0.2305  1.1088 -0.1183
  687MOL0     C94694   4.642  10.667   9.738  0.4138 -0.6217 -0.6102
  687MOL0     C94695   4.777  10.652   9.711 -0.0090  0.3470  0.1707
  687MOL0     C94696   4.828  10.529   9.635  0.4178 -0.4878  0.0383
  687MOL0     C94697   4.868  10.749   9.755 -0.1325 -0.0345 -0.3082
  687MOL0     C94698   5.016  10.737   9.737 -0.3156 -0.1673  0.7856
  687MOL0     O94699   5.075  10.617   9.754  0.2398  1.0065  0.2826
  687MOL0     C94700   5.201  10.591   9.715 -0.2960  0.8225 -0.3959
  687MOL0     C94701   5.226  10.458   9.675 -0.1373  0.6379  0.1814
  687MOL0     C94702   5.342  10.411   9.620 -1.2753  0.1860 -0.1124
  687MOL0     C94703   5.438  10.501   9.577 -0.4778  0.8494 -0.9857
  687MOL0     O94704   5.556  10.464   9.515  0.6548 -0.0657  0.2636
  687MOL0     C94705   5.593  10.324   9.512  1.0605 -0.2182  0.1027
  687MOL0     C94706   5.746  10.316   9.480 -0.3857 -0.2591  0.1154
  687MOL0     C94707   5.769  10.336   9.330 -0.3031  0.6274 -0.3199
  687MOL0     C94708   5.921  10.317   9.304  0.6946 -0.2637 -0.8250
  687MOL0     C94709   5.933  10.313   9.149 -0.4840  0.0097  0.1622
  687MOL0     C94710   6.080  10.301   9.116  0.2954 -0.7884  0.5921
  687MOL0     C94711   6.108  10.338   8.974 -0.5973 -0.2370  0.8426
  687MOL0     C94712   6.243  10.288   8.925 -0.2352  0.2104 -0.2553
  687MOL0    Cl94713   6.274  10.104   8.920 -0.1495  0.5861 -0.1711
  687MOL0     C94714   5.426  10.634   9.618 -0.2682  0.3371  0.3870
  687MOL0     C94715   5.308  10.679   9.689 -0.5124  0.4723  0.6658
  687MOL0     O94716   5.072  10.847   9.713 -0.6808 -0.6229 -0.3081
  687MOL0     C94717   4.820  10.864   9.820  0.0879 -0.4113  0.4489
  687MOL0     C94718   4.681  10.888   9.827  0.3593 -0.2215  0.7721
  687MOL0     N94719   4.066  10.771   9.365  0.6286  0.5302  0.3516
  687MOL0     N94720   3.969  10.701   9.315  0.7937  0.8838 -0.9445
  687MOL0     C94721   2.661  10.407   9.529  0.6229 -1.0924 -0.8190
  687MOL0     C94722   2.559  10.449   9.622 -0.1742 -0.1211 -0.2484
  687MOL0     C94723   2.268  10.609   9.891 -0.2779  0.3328 -0.2094
  687MOL0     C94724   2.163  10.634   9.803 -0.1299 -0.0974 -0.3042
  687MOL0     C94725   2.029  10.621   9.843  0.5305  0.4091 -0.1714
  687MOL0     C94726   1.997  10.590   9.977  0.7075 -0.1928  0.6097
  687MOL0     O94727   1.872  10.562  10.018 -0.4573 -0.5132  0.1158
  687MOL0     C94728   1.806  10.455   9.949 -0.2126 -0.2227  0.6197
  687MOL0     C94729   1.876  10.312   9.976 -0.1565 -0.0046 -0.0620
  687MOL0     C94730   1.852  10.268  10.126 -0.1478 -0.7529 -0.2464
  687MOL0     C94731   1.944  10.156  10.174 -0.5311 -0.5983 -0.4729
  687MOL0     C94732   2.090  10.189  10.193  0.0027 -0.1079 -0.0970
  687MOL0     C94733   2.201  10.226  10.220  1.0366  0.1775 -0.3016
  687MOL0     C94734   2.102  10.582  10.070  0.3093  0.3722 -0.2412
  687MOL0     C94735   2.238  10.584  10.024 -0.1392  0.3927 -0.7674
  687MOL0     C94736   2.344  10.554  10.128  0.6459 -0.0598 -0.3961
  687MOL0     H94737   2.595  10.786   9.580 -0.4382  0.4072 -1.7837
  687MOL0     H94738   2.777  10.706   9.435  0.1605 -0.2331 -1.2116
  687MOL0     H94739   3.003  10.569   9.481  4.0030 -0.0605 -1.5353
  687MOL0     H94740   2.946  10.614   9.319 -0.9520 -1.0743 -0.9280
  687MOL0     H94741   3.108  10.388   9.427 -0.4700 -0.8657 -0.4999
  687MOL0     H94742   3.059  10.387   9.256 -0.3685 -0.4214  1.4219
  687MOL0     H94743   3.172  10.573   9.200  2.0600 -0.2411 -0.8129
  687MOL0     H94744   3.196  10.625   9.368  0.1050 -1.2380  0.7342
  687MOL0     H94745   3.335  10.416   9.407 -1.9646  1.2104  0.3134
  687MOL0     H94746   3.340  10.391   9.231 -0.4620 -2.2606  1.1244
  687MOL0     H94747   3.439  10.630   9.223 -0.7338  0.3154  0.4499
  687MOL0     H94748   3.546  10.489   9.280  1.7315  1.1597 -2.1808
  687MOL0     H94749   3.415  10.707   9.464  1.1727  0.3624  0.7892
  687MOL0     H94750   3.496  10.563   9.514 -3.8283  0.2292 -0.6311
  687MOL0     H94751   3.637  10.779   9.500  0.1765  1.2246 -0.7492
  687MOL0     H94752   3.615  10.778   9.326 -1.2156  1.0775  1.9448
  687MOL0     H94753   3.746  10.552   9.492 -1.3256  0.2597  0.4834
  687MOL0     H94754   3.742  10.570   9.308  2.0109 -0.3825  0.0694
  687MOL0     H94755   3.860  10.800   9.616 -1.1139 -0.5957 -0.0301
  687MOL0     H94756   4.024  10.961   9.653  0.1449 -0.8796 -0.2349
  687MOL0     H94757   4.091  11.025   9.504 -0.0581  0.3874  1.0454
  687MOL0     H94758   4.292  10.872   9.528  2.3459 -0.6302  0.0595
  687MOL0     H94759   4.286  10.989   9.649  1.3875 -1.1014 -0.7699
  687MOL0     H94760   4.193  10.851   9.825 -0.9548 -0.1912 -0.5899
  687MOL0     H94761   4.146  10.726   9.723  0.6679 -1.1024 -0.8632
  687MOL0     H94762   4.339  10.644   9.820 -0.2233  2.0422  2.9339
  687MOL0     H94763   4.379  10.686   9.651  1.8463 -0.8880  1.6903
  687MOL0     H94764   4.572  10.588   9.714 -2.6217  2.4091 -2.6045
  687MOL0     H94765   4.754  10.499   9.560  0.6875 -2.2362  0.4400
  687MOL0     H94766   4.840  10.453   9.712 -0.4810  0.8004  1.5154
  687MOL0     H94767   4.927  10.546   9.592 -0.2692  1.1521 -1.0259
  687MOL0     H94768   5.139  10.394   9.683  0.0042  0.1098 -1.9294
  687MOL0     H94769   5.352  10.306   9.593 -0.3611  0.3476 -0.4196
  687MOL0     H94770   5.578  10.277   9.610  1.2168  1.1089  0.7900
  687MOL0     H94771   5.527  10.270   9.443 -0.5341  1.4487  0.2411
  687MOL0     H94772   5.802  10.386   9.543 -0.6924 -0.9056  1.1318
  687MOL0     H94773   5.790  10.220   9.507  0.9928  0.7744  1.7518
  687MOL0     H94774   5.727  10.431   9.296 -3.8083  0.2046  2.2747
  687MOL0     H94775   5.710  10.256   9.285 -0.9265 -0.2384  1.8763
  687MOL0     H94776   5.957  10.224   9.350  2.3423 -1.2874 -3.8683
  687MOL0     H94777   5.976  10.406   9.335 -1.9068  1.3692 -0.6387
  687MOL0     H94778   5.869  10.240   9.098 -0.7866 -0.6397  1.4376
  687MOL0     H94779   5.906  10.412   9.111  2.8809  1.0232  0.1461
  687MOL0     H94780   6.102  10.194   9.127  2.0324 -0.6442 -0.9620
  687MOL0     H94781   6.140  10.358   9.188  0.6547  3.6086 -2.7486
  687MOL0     H94782   6.104  10.447   8.961 -0.5184 -0.2344  0.8444
  687MOL0     H94783   6.026  10.298   8.914 -0.3108  0.0019  0.2832
  687MOL0     H94784   6.315  10.328   8.997 -1.9715 -0.9028  2.2380
  687MOL0     H94785   6.266  10.324   8.824 -0.4112 -1.7516 -1.0525
  687MOL0     H94786   5.504  10.700   9.581  0.7813 -1.3535 -0.5810
  687MOL0     H94787   5.317  10.786   9.708  0.3450  0.4618  0.3881
  687MOL0     H94788   4.888  10.945   9.846  1.5521 -0.7113 -2.1442
  687MOL0     H94789   4.636  10.983   9.851  1.6443  0.3820  0.8621
  687MOL0     H94790   2.669  10.303   9.502  0.7977 -0.8176 -1.9016
  687MOL0     H94791   2.492  10.369   9.651 -0.2249 -0.1449 -0.4281
  687MOL0     H94792   2.175  10.656   9.698  2.2968  1.8901  0.2907
  687MOL0     H94793   1.947  10.630   9.772 -0.5217 -3.7258  0.2782
  687MOL0     H94794   1.707  10.448   9.997  0.0852  1.2768  1.5254
  687MOL0     H94795   1.796  10.472   9.841  1.0903  1.3590  0.7041
  687MOL0     H94796   1.979  10.310   9.940 -0.4102 -1.4685 -0.7543
  687MOL0     H94797   1.814  10.237   9.926  0.0978 -0.2398 -0.0248
  687MOL0     H94798   1.878  10.354  10.189  1.0115 -0.9494 -0.4461
  687MOL0     H94799   1.747  10.239  10.139  0.0770 -0.8545  1.7153
  687MOL0     H94800   1.938  10.069  10.109  0.3416 -3.4502  2.9196
  687MOL0     H94801   1.912  10.118  10.272 -0.3302  1.6413  0.5290
  687MOL0     H94802   2.305  10.242  10.240  0.4479  3.4828  0.9122
  687MOL0     H94803   2.079  10.547  10.170  2.0497 -3.4616 -1.0333
  687MOL0     H94804   2.287  10.557  10.222 -2.5236 -3.1961 -1.9656
  687MOL0     H94805   2.382  10.452  10.120  2.0966  0.3551  0.7585
  687MOL0     H94806   2.422  10.629  10.141 -0.1170  0.3880  2.1768
  688MOL0     O94807   2.084   3.812   5.431 -0.5758  0.0735 -0.8275
  688MOL0     C94808   2.035   3.724   5.359  0.1059  1.8588  0.3293
  688MOL0     O94809   2.007   3.594   5.399 -0.0748  0.0310  0.3158
  688MOL0     C94810   2.051   3.551   5.523  0.2558  0.6463 -0.3613
  688MOL0     C94811   1.962   3.503   5.618  0.2653 -0.3990  0.0593
  688MOL0     C94812   1.995   3.445   5.737 -0.0695  0.0399 -1.0923
  688MOL0     C94813   2.129   3.425   5.770  0.2173 -0.0950  0.1480
  688MOL0     O94814   2.179   3.350   5.872 -0.7903  0.0088  0.0240
  688MOL0     C94815   2.117   3.390   6.001  0.5121 -0.0999 -0.0894
  688MOL0     C94816   2.214   3.333   6.105 -0.4090 -0.3892  0.0619
  688MOL0     C94817   2.359   3.394   6.078  0.5516  0.4574 -0.6689
  688MOL0     C94818   2.462   3.312   6.158 -1.1911  0.2373  1.1687
  688MOL0     C94819   2.596   3.375   6.136  0.2866 -0.8021  0.3901
  688MOL0     C94820   2.621   3.491   6.228  0.8904  0.6316 -0.7409
  688MOL0     C94821   2.677   3.440   6.359  0.0584 -1.0279  1.0112
  688MOL0     C94822   2.670   3.554   6.468  0.5958 -0.9888  0.1178
  688MOL0     N94823   2.762   3.654   6.444  0.0400  0.2998  0.0946
  688MOL0     C94824   2.891   3.648   6.498  0.1630  0.2863  0.6265
  688MOL0     C94825   2.956   3.760   6.444  0.1289  0.1431  0.0298
  688MOL0     C94826   3.097   3.804   6.484  0.9799 -0.1567  0.4336
  688MOL0     C94827   3.190   3.729   6.396  0.2415 -0.4347 -0.2597
  688MOL0     C94828   3.337   3.789   6.399  1.0850 -0.1667 -0.2396
  688MOL0     C94829   3.414   3.702   6.308 -0.5101 -0.4513  0.1390
  688MOL0     O94830   3.400   3.565   6.345 -0.7784 -0.2616  0.0765
  688MOL0     C94831   3.444   3.471   6.254 -0.1300 -0.4438  0.0961
  688MOL0     C94832   3.477   3.356   6.313  0.4525  0.7061 -0.9073
  688MOL0     C94833   3.537   3.245   6.250 -1.2596 -0.7764 -0.1276
  688MOL0     C94834   3.557   3.123   6.339 -0.1178 -0.1056  0.1162
  688MOL0     C94835   3.578   3.265   6.115  0.1130  0.5648 -0.1793
  688MOL0     C94836   3.652   3.155   6.046  0.5716 -0.4927 -0.1517
  688MOL0     O94837   3.727   3.188   5.935  0.7471  0.0856  0.3506
  688MOL0     C94838   3.815   3.092   5.881  0.6119  0.1089 -0.7507
  688MOL0     C94839   3.889   3.021   5.964 -1.1865 -0.1785 -0.0583
  688MOL0     C94840   3.981   2.919   5.919  1.2351 -0.1405 -0.5640
  688MOL0     C94841   4.006   2.908   5.782  0.5201 -0.3465 -0.7543
  688MOL0     O94842   4.091   2.825   5.729 -0.0520 -0.4265 -0.0565
  688MOL0     C94843   4.208   2.902   5.707  0.7901  0.6381  0.5939
  688MOL0     C94844   4.276   2.856   5.582 -0.7186  0.0541  0.1433
  688MOL0     C94845   4.315   2.709   5.590 -0.4667  0.2641  0.5368
  688MOL0     C94846   4.406   2.688   5.707  0.5701  0.5991 -0.5153
  688MOL0     C94847   4.438   2.535   5.729 -0.2186  0.7356 -0.1331
  688MOL0     C94848   4.526   2.493   5.850  0.4717  0.1137 -0.5116
  688MOL0     C94849   4.668   2.552   5.838  0.3316 -0.3607 -0.5522
  688MOL0     C94850   4.752   2.524   5.967  0.4083  0.5953  0.0868
  688MOL0    Cl94851   4.680   2.604   6.109 -0.2256  0.7299 -0.2679
  688MOL0     C94852   3.922   2.981   5.699 -0.8248 -0.2986 -0.2246
  688MOL0     C94853   3.838   3.075   5.748 -0.0209 -0.3233 -0.7322
  688MOL0     O94854   3.635   3.043   6.085 -0.1310  0.3136  0.3222
  688MOL0     C94855   3.536   3.393   6.050 -0.3530  0.4321  0.2841
  688MOL0     C94856   3.469   3.494   6.120 -0.4529 -0.2185  1.0744
  688MOL0     N94857   2.862   3.821   6.352 -0.6816  0.2751  0.7712
  688MOL0     N94858   2.752   3.744   6.340 -0.7488 -0.1424 -0.2589
  688MOL0     C94859   2.228   3.470   5.675  0.0557 -0.3405  0.8525
  688MOL0     C94860   2.186   3.536   5.554 -0.4883 -0.9308  0.6767
  688MOL0     C94861   1.974   3.767   5.230 -0.1210 -0.7324 -0.2650
  688MOL0     C94862   1.865   3.695   5.183  0.4410  0.4764 -0.3512
  688MOL0     C94863   1.796   3.738   5.071 -0.4278  0.7816 -0.0547
  688MOL0     C94864   1.831   3.842   5.002 -0.4057  0.0378  1.2398
  688MOL0     O94865   1.773   3.891   4.887 -0.5132  0.0460  0.6239
  688MOL0     C94866   1.689   3.809   4.799  0.3208 -0.3385  0.2495
  688MOL0     C94867   1.539   3.833   4.829  0.0447 -0.0898  0.6223
  688MOL0     C94868   1.461   3.706   4.804  0.6753 -0.7313 -0.1201
  688MOL0     C94869   1.312   3.726   4.803 -0.2329 -0.5998 -0.1972
  688MOL0     C94870   1.262   3.806   4.915  0.2844 -0.3813 -0.1871
  688MOL0     C94871   1.202   3.862   5.008  0.4102 -0.5536  0.3351
  688MOL0     C94872   1.939   3.916   5.046 -0.6340  0.0673 -0.2440
  688MOL0     C94873   2.012   3.885   5.159  0.5508 -0.3730  0.2163
  688MOL0     C94874   2.127   3.975   5.193 -0.0030 -0.1069  0.2868
  688MOL0     H94875   1.854   3.512   5.611  0.2466 -0.2184  0.5588
  688MOL0     H94876   1.919   3.409   5.804  0.3303 -1.6804 -1.5178
  688MOL0     H94877   2.015   3.353   6.011  1.2241 -1.7782  1.2827
  688MOL0     H94878   2.104   3.499   6.005 -1.6114 -0.2746 -1.0383
  688MOL0     H94879   2.188   3.369   6.205 -2.3055  3.1757 -1.5422
  688MOL0     H94880   2.224   3.224   6.106  0.3206 -0.3364  1.7586
  688MOL0     H94881   2.390   3.391   5.973 -0.4319  1.4169 -1.0083
  688MOL0     H94882   2.359   3.503   6.092 -0.6595  0.2641  1.0558
  688MOL0     H94883   2.438   3.309   6.265  0.9381 -3.4756  1.7357
  688MOL0     H94884   2.451   3.208   6.125 -0.9988  0.4501  0.4256
  688MOL0     H94885   2.606   3.408   6.033 -0.1665  0.6265  0.7751
  688MOL0     H94886   2.674   3.301   6.155  1.5526  0.2663 -0.4908
  688MOL0     H94887   2.691   3.557   6.177 -0.5620  0.1286 -3.5944
  688MOL0     H94888   2.530   3.548   6.250  0.3503 -0.5430  0.1850
  688MOL0     H94889   2.785   3.420   6.349  0.1997 -0.5269  1.4693
  688MOL0     H94890   2.624   3.350   6.391 -0.9055 -1.2976 -1.1586
  688MOL0     H94891   2.568   3.589   6.486  0.2946 -1.7127 -0.1684
  688MOL0     H94892   2.694   3.499   6.560 -0.6309 -0.0916  1.0132
  688MOL0     H94893   2.924   3.564   6.559  2.5633  1.0327  0.4852
  688MOL0     H94894   3.115   3.786   6.590 -2.9525  1.1402  1.5002
  688MOL0     H94895   3.093   3.912   6.463  2.2986 -0.3690 -1.0939
  688MOL0     H94896   3.196   3.623   6.425  1.3879 -0.6765 -1.2970
  688MOL0     H94897   3.143   3.728   6.297 -1.1678 -0.3947  0.3848
  688MOL0     H94898   3.338   3.891   6.359 -0.6069  0.0994  0.3150
  688MOL0     H94899   3.384   3.798   6.497  0.6665  0.7888 -0.1192
  688MOL0     H94900   3.385   3.720   6.205 -3.3873 -2.5733  0.4431
  688MOL0     H94901   3.521   3.723   6.299 -0.6666 -0.5463 -2.9837
  688MOL0     H94902   3.463   3.349   6.420  0.2919 -0.5903 -0.9924
  688MOL0     H94903   3.488   3.048   6.299 -1.1722  1.3970 -1.0040
  688MOL0     H94904   3.536   3.143   6.445  2.3611  0.9072  0.4755
  688MOL0     H94905   3.662   3.092   6.336 -0.7188 -2.4723  0.7833
  688MOL0     H94906   3.875   3.026   6.071 -3.9973 -1.8637 -0.2466
  688MOL0     H94907   4.028   2.854   5.992 -0.1041 -0.9121 -0.3473
  688MOL0     H94908   4.186   3.008   5.691  0.7324  0.2965 -2.1111
  688MOL0     H94909   4.268   2.896   5.798 -0.4947  2.1557  1.5860
  688MOL0     H94910   4.216   2.876   5.493  0.5781  1.6176 -0.4282
  688MOL0     H94911   4.372   2.907   5.567 -1.8499  1.1583 -5.3235
  688MOL0     H94912   4.367   2.680   5.498 -0.5370 -1.0951  0.9013
  688MOL0     H94913   4.230   2.641   5.583 -0.6528  0.6661 -3.6960
  688MOL0     H94914   4.350   2.715   5.798 -0.1163  0.9922 -1.0428
  688MOL0     H94915   4.499   2.744   5.696  0.1564  1.7600  1.4351
  688MOL0     H94916   4.352   2.471   5.748  1.8122 -2.1770 -0.0184
  688MOL0     H94917   4.485   2.493   5.639  0.6916 -4.8470  2.5165
  688MOL0     H94918   4.520   2.391   5.889 -2.3825  0.9867  1.7544
  688MOL0     H94919   4.465   2.543   5.927 -0.0772  0.4943 -1.1768
  688MOL0     H94920   4.680   2.658   5.817  2.7032 -0.1402  1.4370
  688MOL0     H94921   4.720   2.498   5.758  1.2462  0.0353 -0.2403
  688MOL0     H94922   4.848   2.573   5.955  1.3823 -0.7046  2.1711
  688MOL0     H94923   4.758   2.415   5.978  1.5363  0.5545 -0.6998
  688MOL0     H94924   3.933   2.970   5.592 -0.6145 -0.6990 -0.1658
  688MOL0     H94925   3.779   3.136   5.681  0.2327  1.5463  0.6771
  688MOL0     H94926   3.554   3.414   5.945 -0.7793  1.4777  0.4075
  688MOL0     H94927   3.454   3.591   6.074  1.2942 -0.6275 -0.4460
  688MOL0     H94928   2.332   3.450   5.699 -0.1336  1.3231  3.5060
  688MOL0     H94929   2.270   3.566   5.492  0.2480 -2.0365  1.1043
  688MOL0     H94930   1.813   3.615   5.234 -3.5524  0.8953 -3.2448
  688MOL0     H94931   1.718   3.668   5.046 -0.2138  0.5445 -0.0630
  688MOL0     H94932   1.709   3.833   4.694 -1.4993 -1.5238 -0.4305
  688MOL0     H94933   1.715   3.704   4.813  1.2036  0.2839  4.2197
  688MOL0     H94934   1.516   3.903   4.747 -0.1184 -1.8641 -0.9132
  688MOL0     H94935   1.522   3.862   4.933  0.2726 -1.2221  0.9818
  688MOL0     H94936   1.493   3.666   4.707  1.8015 -0.6204  0.1920
  688MOL0     H94937   1.486   3.630   4.879 -1.8861 -2.0998 -0.5709
  688MOL0     H94938   1.266   3.627   4.817 -3.0531  0.8375  1.5261
  688MOL0     H94939   1.279   3.772   4.709 -0.8179  0.7348  0.6446
  688MOL0     H94940   1.145   3.913   5.083 -1.3153 -0.7348 -0.7891
  688MOL0     H94941   1.968   4.003   4.987  1.1743 -2.3541 -3.2161
  688MOL0     H94942   2.209   3.910   5.225 -0.8884 -1.3359  0.1346
  688MOL0     H94943   2.156   4.038   5.109 -3.9373  2.9063  0.9280
  688MOL0     H94944   2.089   4.030   5.280 -1.9629 -0.2723 -0.4214
  689MOL0     O94945   9.957   5.045   7.837  0.5996  0.3847  0.2684
  689MOL0     C94946   9.915   5.136   7.900  0.0230 -0.0221 -0.2613
  689MOL0     O94947   9.974   5.258   7.911 -0.5663  0.6391 -0.1844
  689MOL0     C94948  10.113   5.262   7.907  0.7055 -0.5095 -0.4747
  689MOL0     C94949  10.194   5.154   7.937 -0.0508  0.6711  0.2443
  689MOL0     C94950  10.331   5.159   7.908  0.3280 -0.9250  0.6753
  689MOL0     C94951  10.385   5.275   7.862 -0.4532  1.0902  0.7920
  689MOL0     O94952  10.522   5.278   7.838  0.2485  0.3058 -0.6096
  689MOL0     C94953  10.581   5.385   7.763  0.4434  0.0684  0.2754
  689MOL0     C94954  10.729   5.352   7.753 -0.2981 -0.1651  0.3809
  689MOL0     C94955  10.795   5.378   7.888 -0.3216 -0.4693  0.2293
  689MOL0     C94956  10.950   5.401   7.885  0.3717 -0.3284  0.1169
  689MOL0     C94957  11.019   5.400   8.018 -0.4583  0.2865  1.1369
  689MOL0     C94958  11.166   5.445   8.013 -0.2154 -0.4554  0.2694
  689MOL0     C94959  11.218   5.487   8.155 -1.2784 -0.5680  0.3489
  689MOL0     C94960  11.321   5.600   8.127  0.4757  0.3179  0.3900
  689MOL0     N94961  11.389   5.651   8.238 -1.0594 -0.1145  0.2528
  689MOL0     C94962  11.423   5.783   8.246 -1.0663 -0.9391 -0.5361
  689MOL0     C94963  11.533   5.789   8.324 -0.1854 -0.9877 -0.3528
  689MOL0     C94964  11.615   5.912   8.341 -0.7015  0.7256  0.2263
  689MOL0     C94965  11.739   5.891   8.246  0.5055  0.4222 -0.3709
  689MOL0     C94966  11.716   5.955   8.107 -0.5392 -0.0609  0.6667
  689MOL0     C94967  11.824   5.909   8.006 -0.4307 -0.2964 -0.1936
  689MOL0     O94968  11.951   5.966   8.049 -0.3583 -0.1351  0.9233
  689MOL0     C94969  12.074   5.924   8.005  0.4230  0.0661  1.4186
  689MOL0     C94970  12.193   5.958   8.071  0.4262 -0.2120  0.5418
  689MOL0     C94971  12.319   5.930   8.025 -0.6081  0.0364 -0.1622
  689MOL0     C94972  12.432   5.979   8.115  0.0102  0.8435 -0.7758
  689MOL0     C94973  12.331   5.870   7.894 -0.3099  0.0919  0.0268
  689MOL0     C94974  12.463   5.840   7.816 -0.8134 -0.3680  0.1363
  689MOL0     O94975  12.452   5.749   7.711 -0.8353 -0.9122 -0.8600
  689MOL0     C94976  12.556   5.739   7.618  0.7384  0.7703  0.5663
  689MOL0     C94977  12.539   5.761   7.479 -0.2161  0.1147 -0.3555
  689MOL0     C94978  12.642   5.735   7.389 -0.0119 -0.2551 -0.3883
  689MOL0     C94979  12.759   5.666   7.429 -1.2506 -0.1225 -0.0748
  689MOL0     O94980  12.852   5.626   7.333  0.2277  0.1176 -0.2824
  689MOL0     C94981  12.841   5.673   7.198  0.1539 -0.4157  0.0321
  689MOL0     C94982  12.741   5.595   7.113 -0.4230 -0.5722 -0.0611
  689MOL0     C94983  12.701   5.647   6.971  0.7144  0.6858  0.5090
  689MOL0     C94984  12.577   5.572   6.910  0.1359  0.4272  0.4581
  689MOL0     C94985  12.593   5.563   6.764  1.9366  0.1506  0.9108
  689MOL0     C94986  12.472   5.502   6.685 -0.4957  0.3252 -0.9154
  689MOL0     C94987  12.433   5.365   6.745 -0.1462 -0.4362  0.6528
  689MOL0     C94988  12.317   5.296   6.670 -0.3993  0.1364  0.7287
  689MOL0    Cl94989  12.309   5.118   6.721 -0.0802 -0.4533 -0.1824
  689MOL0     C94990  12.782   5.648   7.564 -0.0561 -0.5085  0.4616
  689MOL0     C94991  12.684   5.688   7.660 -0.4169  0.9818  0.6709
  689MOL0     O94992  12.563   5.911   7.836 -0.5339  0.2736 -0.3359
  689MOL0     C94993  12.206   5.826   7.838 -0.3315  1.2714 -0.1190
  689MOL0     C94994  12.082   5.846   7.893  0.9136  0.5296 -0.7244
  689MOL0     N94995  11.568   5.661   8.371  0.6257 -0.1183  0.5384
  689MOL0     N94996  11.484   5.585   8.319  0.5875  0.4604  0.2460
  689MOL0     C94997  10.304   5.388   7.842  0.1648  0.6677  0.2828
  689MOL0     C94998  10.170   5.387   7.877 -0.0668  0.8869 -0.7841
  689MOL0     C94999   9.788   5.123   7.974 -0.1972 -0.3696  0.0357
  689MOL0     C95000   9.754   5.241   8.045  0.1303  0.7196 -0.0351
  689MOL0     C95001   9.634   5.251   8.116  0.1662  1.5627 -0.8518
  689MOL0     C95002   9.549   5.137   8.121 -0.0104  0.1165  0.2023
  689MOL0     O95003   9.418   5.135   8.176  0.7387  0.0801 -0.4797
  689MOL0     C95004   9.386   5.248   8.257  0.2524 -0.5234 -0.2909
  689MOL0     C95005   9.307   5.353   8.172  0.3840 -0.6295 -0.6796
  689MOL0     C95006   9.279   5.474   8.264 -0.5013 -0.9081 -1.8038
  689MOL0     C95007   9.405   5.570   8.288 -0.1407  0.6197 -0.4118
  689MOL0     C95008   9.454   5.619   8.155 -0.3367 -0.3763 -0.4340
  689MOL0     C95009   9.504   5.653   8.050 -0.3900 -1.3943  0.1617
  689MOL0     C95010   9.582   5.024   8.050 -0.4779  0.1019 -1.0201
  689MOL0     C95011   9.693   5.018   7.972 -0.6642  1.0320  0.2602
  689MOL0     C95012   9.703   4.900   7.880 -0.0347 -1.3184 -0.3533
  689MOL0     H95013  10.149   5.066   7.982 -0.8226  1.1494  0.4342
  689MOL0     H95014  10.398   5.074   7.919 -2.4296 -3.2226  1.1694
  689MOL0     H95015  10.571   5.480   7.816  1.6612  0.1628  0.3629
  689MOL0     H95016  10.528   5.406   7.670 -2.0867 -0.2172  1.5863
  689MOL0     H95017  10.755   5.249   7.726  1.5540  0.2517  0.3965
  689MOL0     H95018  10.765   5.415   7.671 -0.4621 -0.7967 -0.1897
  689MOL0     H95019  10.745   5.470   7.919 -4.4148 -0.9254 -3.7870
  689MOL0     H95020  10.768   5.295   7.954 -2.2735 -0.4271 -0.4514
  689MOL0     H95021  10.992   5.327   7.816  0.7442  1.8182 -2.0700
  689MOL0     H95022  10.962   5.503   7.848  0.6723  0.2903  1.8314
  689MOL0     H95023  11.022   5.301   8.063  0.4583  0.8664  2.4212
  689MOL0     H95024  10.971   5.460   8.095 -3.1186  1.2864 -1.1105
  689MOL0     H95025  11.238   5.371   7.978  0.7310  0.3623  0.4383
  689MOL0     H95026  11.174   5.533   7.949 -0.8048  1.0158  2.1222
  689MOL0     H95027  11.273   5.409   8.208  2.0831  2.5134  1.7960
  689MOL0     H95028  11.138   5.527   8.219 -1.5852 -2.1459  0.9821
  689MOL0     H95029  11.396   5.557   8.059  3.2279  1.8122  2.2645
  689MOL0     H95030  11.265   5.682   8.081 -3.0803 -1.5031  1.1174
  689MOL0     H95031  11.374   5.865   8.194 -1.7485 -1.1678 -0.2708
  689MOL0     H95032  11.650   5.927   8.443 -0.7327  2.2968  0.0392
  689MOL0     H95033  11.563   6.004   8.311  0.1270  1.1910  0.1950
  689MOL0     H95034  11.838   5.918   8.286  0.4166  0.6348 -0.2885
  689MOL0     H95035  11.738   5.784   8.223 -1.8003  0.6852 -1.7373
  689MOL0     H95036  11.624   5.913   8.064 -0.0757  1.4465 -2.0326
  689MOL0     H95037  11.710   6.063   8.121 -2.5201 -0.3042  2.1060
  689MOL0     H95038  11.822   5.800   7.999  1.2468 -0.3684  0.1248
  689MOL0     H95039  11.799   5.954   7.909  0.8434 -0.6554 -0.7150
  689MOL0     H95040  12.177   6.018   8.160 -2.2003  1.3410 -0.8721
  689MOL0     H95041  12.530   5.961   8.069 -0.2886 -0.6434 -0.8707
  689MOL0     H95042  12.438   5.915   8.203  1.1326  0.0339 -1.4136
  689MOL0     H95043  12.416   6.081   8.151 -0.9367 -0.8871  4.6200
  689MOL0     H95044  12.440   5.790   7.445 -0.4626 -1.3976 -0.9797
  689MOL0     H95045  12.619   5.760   7.286 -2.9360  0.9364  0.4651
  689MOL0     H95046  12.809   5.778   7.192  0.0866 -0.2157  2.7747
  689MOL0     H95047  12.936   5.670   7.145 -1.1605  1.9354 -2.7736
  689MOL0     H95048  12.780   5.493   7.104 -0.0998 -0.2718 -3.1304
  689MOL0     H95049  12.650   5.583   7.173 -0.6224  1.2762  0.0379
  689MOL0     H95050  12.790   5.618   6.915 -0.4342  0.1031 -1.0920
  689MOL0     H95051  12.680   5.754   6.969 -1.9842  0.2336  0.1350
  689MOL0     H95052  12.478   5.614   6.932  1.1214  2.4569  1.3109
  689MOL0     H95053  12.590   5.469   6.941  1.5625 -0.3419 -2.3356
  689MOL0     H95054  12.580   5.662   6.719 -0.2020 -0.1469  0.7772
  689MOL0     H95055  12.677   5.503   6.728  0.9591  0.3907 -2.0552
  689MOL0     H95056  12.504   5.492   6.581 -0.5941 -0.9649 -0.8277
  689MOL0     H95057  12.387   5.570   6.699 -0.0231  0.4921  1.8917
  689MOL0     H95058  12.404   5.361   6.850 -0.4921  3.1118  0.8097
  689MOL0     H95059  12.522   5.302   6.736  0.2748  0.3725 -1.3939
  689MOL0     H95060  12.338   5.310   6.563 -0.4524  3.2260  1.0207
  689MOL0     H95061  12.233   5.354   6.709  0.0483 -0.8477  3.3479
  689MOL0     H95062  12.864   5.589   7.603 -0.4322 -1.5392 -0.2848
  689MOL0     H95063  12.689   5.669   7.767 -1.1837  0.0706  0.5602
  689MOL0     H95064  12.216   5.781   7.739  0.6542 -3.1447  1.7470
  689MOL0     H95065  12.002   5.784   7.854  1.6829 -1.1924  0.3091
  689MOL0     H95066  10.350   5.482   7.814  1.0793  0.8155  2.1509
  689MOL0     H95067  10.102   5.470   7.864 -1.0191  0.2561 -0.0174
  689MOL0     H95068   9.817   5.328   8.058 -2.0008  1.9660  2.9864
  689MOL0     H95069   9.612   5.338   8.178 -0.1856 -0.7150  2.4991
  689MOL0     H95070   9.317   5.203   8.330 -1.8787 -0.2899 -2.0746
  689MOL0     H95071   9.467   5.282   8.323 -2.3343 -0.0394  2.9279
  689MOL0     H95072   9.209   5.312   8.146 -0.1661 -1.1593  1.9329
  689MOL0     H95073   9.367   5.382   8.085 -0.2203  2.8721 -0.0583
  689MOL0     H95074   9.197   5.541   8.236 -0.9514 -0.1374  1.0482
  689MOL0     H95075   9.237   5.438   8.359 -1.4446  1.7636 -1.1283
  689MOL0     H95076   9.492   5.528   8.340 -0.6416  2.0945  1.7557
  689MOL0     H95077   9.372   5.656   8.347 -2.5259 -0.4808 -0.0267
  689MOL0     H95078   9.549   5.693   7.962  1.6501  0.7845  2.0557
  689MOL0     H95079   9.504   4.949   8.044  1.4931 -2.3946  1.7433
  689MOL0     H95080   9.676   4.931   7.778 -2.5182 -3.1568 -0.3507
  689MOL0     H95081   9.801   4.855   7.896  1.4474  2.2347  1.6782
  689MOL0     H95082   9.620   4.831   7.899 -0.2270 -0.6394  1.5467
  690MOL0     O95083   7.746   0.352   0.472  0.1198 -0.3463 -0.2745
  690MOL0     C95084   7.776   0.439   0.390 -0.7735  0.0390  1.2315
  690MOL0     O95085   7.908   0.459   0.341  0.9725 -0.3782  1.0514
  690MOL0     C95086   8.011   0.385   0.376 -0.0180 -0.4620  1.5701
  690MOL0     C95087   8.037   0.260   0.311  0.1113 -0.0432  0.4514
  690MOL0     C95088   8.155   0.188   0.340 -0.7595  0.1105 -0.7201
  690MOL0     C95089   8.249   0.239   0.436  0.3216  0.2870 -0.3521
  690MOL0     O95090   8.357   0.166   0.484 -0.1851 -0.1213 -0.1705
  690MOL0     C95091   8.412   0.057   0.407  0.6001 -0.7466 -0.0714
  690MOL0     C95092   8.527  -0.006   0.482 -0.1923 -0.4288  0.0714
  690MOL0     C95093   8.627   0.110   0.515  0.4066  0.1453  0.7424
  690MOL0     C95094   8.772   0.070   0.512  0.3023 -0.6402  0.0914
  690MOL0     C95095   8.858   0.200   0.552  0.1137 -0.0087 -0.0135
  690MOL0     C95096   9.006   0.169   0.574  0.6790 -0.3579 -0.1285
  690MOL0     C95097   9.081   0.286   0.638 -0.9532 -0.4966 -0.2762
  690MOL0     C95098   9.152   0.260   0.768  0.1741  0.1264 -0.0670
  690MOL0     N95099   9.233   0.374   0.815 -0.8148 -0.6102 -0.1827
  690MOL0     C95100   9.327   0.451   0.740 -0.1394  0.0945  0.1260
  690MOL0     C95101   9.363   0.543   0.834 -0.8529 -0.1495 -0.7316
  690MOL0     C95102   9.434   0.675   0.817  0.1081  0.2300  0.0326
  690MOL0     C95103   9.451   0.753   0.944  0.0042  0.5956  0.7217
  690MOL0     C95104   9.538   0.875   0.918 -0.3634  0.5790 -0.6206
  690MOL0     C95105   9.511   0.995   1.010 -0.0031  0.6962 -0.6843
  690MOL0     O95106   9.549   0.951   1.145  0.0787 -0.1472  0.1736
  690MOL0     C95107   9.678   0.945   1.192 -0.3055 -0.1753 -0.7001
  690MOL0     C95108   9.687   0.890   1.319  0.3439 -0.6587  0.4853
  690MOL0     C95109   9.812   0.873   1.382 -0.1060 -0.6479 -0.1605
  690MOL0     C95110   9.805   0.808   1.527  0.3021 -0.3547  0.3796
  690MOL0     C95111   9.932   0.910   1.314  0.2625  0.1267  0.0111
  690MOL0     C95112  10.065   0.889   1.370 -0.7233  0.0967  0.6733
  690MOL0     O95113  10.170   0.883   1.281  0.8123 -0.5909  0.2193
  690MOL0     C95114  10.296   0.884   1.329 -0.6006 -0.0934 -0.3113
  690MOL0     C95115  10.379   0.987   1.282 -0.3726  0.4253  0.4513
  690MOL0     C95116  10.515   0.982   1.301 -0.3099  1.2815 -0.2703
  690MOL0     C95117  10.580   0.876   1.367 -0.5228  0.0505  0.0003
  690MOL0     O95118  10.714   0.881   1.392  0.7634  0.1751  0.0750
  690MOL0     C95119  10.770   0.748   1.394  0.6811  0.1294  0.4245
  690MOL0     C95120  10.921   0.750   1.378  0.4240  0.4242 -0.4492
  690MOL0     C95121  10.958   0.625   1.296  0.0759  0.8050 -0.0088
  690MOL0     C95122  11.108   0.600   1.312 -0.3903  0.4597 -0.4191
  690MOL0     C95123  11.164   0.474   1.246  1.2035  0.3030  0.2389
  690MOL0     C95124  11.083   0.343   1.273 -0.3238 -0.2616 -1.1625
  690MOL0     C95125  11.116   0.304   1.423  0.1929 -0.0779  0.4186
  690MOL0     C95126  11.084   0.155   1.444 -0.3867 -0.9430 -0.5805
  690MOL0    Cl95127  10.928   0.111   1.370  0.2321  0.0757  0.2583
  690MOL0     C95128  10.491   0.778   1.418 -0.0716  0.3132 -0.5013
  690MOL0     C95129  10.350   0.773   1.401 -0.4492 -0.8232  0.3976
  690MOL0     O95130  10.077   0.895   1.491  0.3013 -0.1533  0.4234
  690MOL0     C95131   9.918   0.963   1.187  0.2159 -0.6058  0.1184
  690MOL0     C95132   9.795   0.977   1.124  0.7017  0.0993 -0.6006
  690MOL0     N95133   9.302   0.512   0.956  0.2670 -0.0667 -0.6566
  690MOL0     N95134   9.213   0.418   0.942 -0.4386 -0.0297  0.5466
  690MOL0     C95135   8.222   0.362   0.498 -0.1543  0.4427  0.8048
  690MOL0     C95136   8.104   0.429   0.464 -0.9946  0.2549 -0.1716
  690MOL0     C95137   7.671   0.521   0.322  0.5634  0.3457  0.4020
  690MOL0     C95138   7.689   0.581   0.195 -0.3392  0.9281 -0.8896
  690MOL0     C95139   7.600   0.665   0.125  0.6724 -0.0593  0.6718
  690MOL0     C95140   7.471   0.684   0.174 -0.7032 -0.5757  0.0384
  690MOL0     O95141   7.384   0.768   0.103  0.1332 -0.8029 -0.4388
  690MOL0     C95142   7.252   0.802   0.156 -0.4145  0.2023 -0.0028
  690MOL0     C95143   7.158   0.696   0.101  0.3199 -0.5546  0.4456
  690MOL0     C95144   7.115   0.711  -0.049  0.1645  0.3215 -0.2819
  690MOL0     C95145   6.981   0.764  -0.068  0.2570  0.0433 -0.5433
  690MOL0     C95146   6.874   0.665  -0.034 -0.8902  0.2925  0.4706
  690MOL0     C95147   6.782   0.590  -0.005 -0.1511  0.8994 -0.0950
  690MOL0     C95148   7.436   0.614   0.292  0.1504 -0.4234  0.6687
  690MOL0     C95149   7.537   0.544   0.370  0.0108  0.1695  0.4180
  690MOL0     C95150   7.486   0.494   0.507  0.3922 -0.6643 -0.5183
  690MOL0     H95151   7.959   0.221   0.246  0.9204 -1.1921  0.1330
  690MOL0     H95152   8.175   0.090   0.299  0.3850  0.0283 -0.0106
  690MOL0     H95153   8.451   0.104   0.317  2.2207  0.1359  1.0318
  690MOL0     H95154   8.330  -0.013   0.391 -0.3746  0.0859  1.0807
  690MOL0     H95155   8.486  -0.055   0.571 -0.9149 -0.2670 -0.1740
  690MOL0     H95156   8.577  -0.083   0.424  1.2199  0.8699 -0.5096
  690MOL0     H95157   8.617   0.185   0.435  0.6259  1.5253  1.9698
  690MOL0     H95158   8.596   0.156   0.609 -0.8718  0.6213  0.1161
  690MOL0     H95159   8.777  -0.008   0.589 -1.3035  1.7754  2.8207
  690MOL0     H95160   8.803   0.030   0.415  1.2981  0.2200  0.0429
  690MOL0     H95161   8.822   0.229   0.651  2.4046 -2.1247  1.5478
  690MOL0     H95162   8.844   0.281   0.479  0.0191  1.4636  1.5655
  690MOL0     H95163   9.023   0.082   0.638  0.2465  0.9748  1.8987
  690MOL0     H95164   9.051   0.138   0.479  1.1123  0.6210 -0.2583
  690MOL0     H95165   9.012   0.367   0.661 -0.0884 -0.4266  2.4121
  690MOL0     H95166   9.160   0.326   0.573  0.3124 -0.6934  1.0804
  690MOL0     H95167   9.081   0.245   0.850 -0.3293 -3.7094 -1.0128
  690MOL0     H95168   9.216   0.174   0.746 -0.8014  0.0440 -3.1230
  690MOL0     H95169   9.354   0.452   0.635  4.7634  2.2175  1.1519
  690MOL0     H95170   9.388   0.729   0.733  2.6465  1.6645 -0.5587
  690MOL0     H95171   9.537   0.655   0.788 -0.1525 -1.7004  0.3405
  690MOL0     H95172   9.357   0.787   0.989 -0.2899 -0.1679  0.7031
  690MOL0     H95173   9.501   0.685   1.012 -0.2269 -0.4861 -0.1640
  690MOL0     H95174   9.644   0.848   0.925 -1.1473 -2.5172  2.2313
  690MOL0     H95175   9.528   0.911   0.815 -0.0279 -0.3349 -0.9877
  690MOL0     H95176   9.587   1.065   0.976  1.2101  0.5576  1.5279
  690MOL0     H95177   9.413   1.040   0.996 -0.2666  0.6274  0.8113
  690MOL0     H95178   9.596   0.887   1.379  0.4575 -1.6896  0.6338
  690MOL0     H95179   9.704   0.781   1.559 -0.0859 -0.4882 -0.9100
  690MOL0     H95180   9.848   0.868   1.608  0.1458  0.6465 -0.2636
  690MOL0     H95181   9.857   0.712   1.517  1.9132  0.6284 -1.3766
  690MOL0     H95182  10.332   1.074   1.237 -1.2396  0.6914  1.8398
  690MOL0     H95183  10.574   1.068   1.272  1.2323 -0.4182 -2.4858
  690MOL0     H95184  10.751   0.700   1.491 -1.0150  2.7626  1.5073
  690MOL0     H95185  10.730   0.680   1.318 -1.4852 -2.7182  3.7779
  690MOL0     H95186  10.942   0.844   1.325 -4.9126  0.8152 -2.6127
  690MOL0     H95187  10.958   0.747   1.480 -2.3274  0.6112  0.6565
  690MOL0     H95188  10.945   0.655   1.192  0.1508  3.9100  0.7769
  690MOL0     H95189  10.892   0.541   1.320 -0.1301  0.9256 -0.1484
  690MOL0     H95190  11.132   0.603   1.419 -0.9731  1.1518 -0.3020
  690MOL0     H95191  11.156   0.690   1.274 -2.7823  1.4593 -1.2537
  690MOL0     H95192  11.162   0.485   1.137  2.4421 -0.6713  0.0899
  690MOL0     H95193  11.269   0.464   1.276  0.6646  2.2414  3.1730
  690MOL0     H95194  11.130   0.262   1.217  0.2463  0.4148 -1.6952
  690MOL0     H95195  10.977   0.349   1.248 -0.7983 -0.3800  0.6273
  690MOL0     H95196  11.055   0.372   1.484 -0.8035  0.7670 -1.4402
  690MOL0     H95197  11.222   0.305   1.451 -0.3647 -1.3606  2.9096
  690MOL0     H95198  11.083   0.145   1.552  1.2823  3.5811  0.0815
  690MOL0     H95199  11.159   0.087   1.402 -3.1346 -3.0976 -2.3568
  690MOL0     H95200  10.535   0.698   1.477 -0.7458 -1.8240 -2.7121
  690MOL0     H95201  10.276   0.704   1.440 -2.0365 -1.0617 -2.6643
  690MOL0     H95202  10.001   0.988   1.121 -1.2178  0.0970 -1.4924
  690MOL0     H95203   9.786   1.009   1.020 -1.1863 -0.4266 -0.6369
  690MOL0     H95204   8.284   0.411   0.572 -0.4345  1.1100  0.6049
  690MOL0     H95205   8.096   0.523   0.519 -2.8692 -1.0121  1.8832
  690MOL0     H95206   7.786   0.548   0.159 -0.0966 -1.0357  1.2661
  690MOL0     H95207   7.617   0.722   0.034 -2.6911 -0.8850 -0.6232
  690MOL0     H95208   7.253   0.806   0.265  3.3374  1.0553  0.0677
  690MOL0     H95209   7.217   0.903   0.136 -0.5075  0.1483 -0.1141
  690MOL0     H95210   7.066   0.682   0.159 -1.5194 -2.8110 -2.6993
  690MOL0     H95211   7.210   0.601   0.117 -0.5439 -0.8382  1.7499
  690MOL0     H95212   7.195   0.777  -0.083 -0.2330  0.7336 -0.4371
  690MOL0     H95213   7.126   0.619  -0.106 -1.5838  1.1872 -2.1623
  690MOL0     H95214   6.960   0.779  -0.174 -2.1618  2.1156  0.1314
  690MOL0     H95215   6.968   0.858  -0.014 -1.1005 -1.4028  1.8451
  690MOL0     H95216   6.702   0.530   0.033  1.8289 -0.1783  2.7374
  690MOL0     H95217   7.335   0.632   0.326 -0.8609 -0.1827 -2.2263
  690MOL0     H95218   7.384   0.529   0.525  0.6300 -0.7719  1.1902
  690MOL0     H95219   7.492   0.386   0.522  4.4167 -0.3112  2.0414
  690MOL0     H95220   7.551   0.526   0.588 -0.8376 -2.6388  1.3386
  691MOL0     O95221  10.872   3.288   3.392  0.5300  0.4209 -0.6544
  691MOL0     C95222  10.886   3.306   3.515 -0.0817 -0.5038 -1.2990
  691MOL0     O95223  10.959   3.406   3.575 -0.4252 -0.3434  0.2282
  691MOL0     C95224  11.036   3.488   3.490 -0.3026  0.2167  0.0963
  691MOL0     C95225  11.006   3.626   3.479  0.1912 -0.2142 -0.4691
  691MOL0     C95226  11.089   3.715   3.416  0.3082  0.3464 -0.3828
  691MOL0     C95227  11.211   3.665   3.363 -0.9696 -0.1799  0.1667
  691MOL0     O95228  11.297   3.733   3.285  0.5450  0.2775  0.5123
  691MOL0     C95229  11.291   3.872   3.278  0.4504 -0.2246  0.2638
  691MOL0     C95230  11.435   3.921   3.237  0.4380 -1.0198 -0.0580
  691MOL0     C95231  11.545   3.897   3.335 -0.5822  0.7924  0.7461
  691MOL0     C95232  11.644   3.786   3.291  0.1206 -0.7697  0.4252
  691MOL0     C95233  11.766   3.799   3.394  0.2061  0.3399 -0.6260
  691MOL0     C95234  11.880   3.701   3.363  0.4336  0.1238  0.3937
  691MOL0     C95235  11.848   3.558   3.336 -0.1960 -0.6442 -0.3322
  691MOL0     C95236  11.796   3.484   3.453  0.2728  0.7049  0.3357
  691MOL0     N95237  11.806   3.339   3.439  0.2749 -0.2850 -0.7043
  691MOL0     C95238  11.924   3.266   3.462  0.0211  0.0210 -0.0456
  691MOL0     C95239  11.906   3.136   3.424 -0.0867 -0.4148  0.6538
  691MOL0     C95240  12.003   3.029   3.455 -0.3210 -0.2888 -0.1629
  691MOL0     C95241  12.103   3.018   3.351 -0.2640  0.2643 -0.2534
  691MOL0     C95242  12.204   2.905   3.367 -0.1331  0.2144  0.7309
  691MOL0     C95243  12.236   2.860   3.506  0.6588 -0.3533  0.0348
  691MOL0     O95244  12.316   2.948   3.596 -0.4306 -0.2663  0.9769
  691MOL0     C95245  12.441   2.977   3.553 -0.0658 -1.0125 -0.8894
  691MOL0     C95246  12.463   3.107   3.512  0.1492 -0.6868 -0.3675
  691MOL0     C95247  12.594   3.150   3.478 -0.4882 -0.2710  0.0408
  691MOL0     C95248  12.614   3.295   3.448  0.0293  0.1085 -0.3234
  691MOL0     C95249  12.699   3.057   3.480 -0.4777  0.2108  0.3350
  691MOL0     C95250  12.842   3.081   3.441 -0.4532  0.0337 -0.0893
  691MOL0     O95251  12.924   2.987   3.391  0.0691 -0.0564 -0.6719
  691MOL0     C95252  13.054   3.021   3.378  0.2088  0.7303  0.6963
  691MOL0     C95253  13.108   3.098   3.271  0.4412 -0.1620  0.0382
  691MOL0     C95254  13.245   3.134   3.270 -0.4660 -0.8551  0.4118
  691MOL0     C95255  13.341   3.073   3.369 -0.0640 -0.5034  0.3692
  691MOL0     O95256  13.478   3.104   3.365 -0.7938 -0.1795 -0.1907
  691MOL0     C95257  13.535   3.148   3.243 -0.3004 -0.0583 -0.1614
  691MOL0     C95258  13.690   3.127   3.243 -0.0570  0.4897  0.0877
  691MOL0     C95259  13.763   3.204   3.123  0.0682 -0.0744 -0.5791
  691MOL0     C95260  13.915   3.178   3.137 -0.0949  0.1983  0.3507
  691MOL0     C95261  13.997   3.265   3.033  0.4138 -0.1874  0.0460
  691MOL0     C95262  14.141   3.262   3.073 -0.7191 -0.3268 -1.0934
  691MOL0     C95263  14.238   3.335   2.969  0.6208  0.5314 -0.4062
  691MOL0     C95264  14.217   3.488   2.941  0.7748 -0.0491 -0.7873
  691MOL0    Cl95265  14.348   3.524   2.828 -0.0929 -0.2121  0.2285
  691MOL0     C95266  13.287   3.000   3.469  0.7680  0.3067  0.1644
  691MOL0     C95267  13.148   2.971   3.467 -1.1328  0.2570 -0.6731
  691MOL0     O95268  12.881   3.187   3.495  0.0124  0.3986  0.0222
  691MOL0     C95269  12.672   2.916   3.505 -0.1467 -0.6016  0.0346
  691MOL0     C95270  12.545   2.886   3.547  0.4602  0.2752 -0.1238
  691MOL0     N95271  11.770   3.132   3.386  0.0628  0.1539  0.7147
  691MOL0     N95272  11.719   3.252   3.387  0.0762 -0.6831  0.6485
  691MOL0     C95273  11.239   3.530   3.365 -0.6002  0.4630 -0.0342
  691MOL0     C95274  11.159   3.440   3.433  0.1030  0.8395 -0.0639
  691MOL0     C95275  10.800   3.211   3.594 -0.2414 -0.3024 -0.2295
  691MOL0     C95276  10.726   3.255   3.707 -0.0685 -0.3153  0.2967
  691MOL0     C95277  10.642   3.179   3.781  0.7274  0.0401  1.2232
  691MOL0     C95278  10.623   3.046   3.750  1.1238  0.2322 -0.1383
  691MOL0     O95279  10.525   2.977   3.821  0.5028 -0.2872 -0.9717
  691MOL0     C95280  10.496   2.844   3.779  0.1469  0.9010 -0.7087
  691MOL0     C95281  10.400   2.782   3.884  0.6014 -0.2375  0.5588
  691MOL0     C95282  10.448   2.777   4.034 -0.1959  0.1536 -0.6911
  691MOL0     C95283  10.393   2.898   4.101 -0.4837 -0.6607 -0.1346
  691MOL0     C95284  10.399   2.879   4.252  0.2742 -0.5048  0.0563
  691MOL0     C95285  10.411   2.856   4.375  1.3111 -0.5816 -0.0949
  691MOL0     C95286  10.691   2.993   3.640 -0.9564  0.1564  0.3574
  691MOL0     C95287  10.786   3.072   3.563 -0.5621 -0.2620 -0.4140
  691MOL0     C95288  10.859   3.007   3.449  0.5169  0.3858 -0.3361
  691MOL0     H95289  10.913   3.664   3.522 -0.6380 -2.0958 -0.4835
  691MOL0     H95290  11.072   3.822   3.421 -0.9193  0.2447 -1.8137
  691MOL0     H95291  11.255   3.920   3.369 -1.3917  1.1241 -1.1062
  691MOL0     H95292  11.214   3.891   3.203  0.6642  0.9610  0.3174
  691MOL0     H95293  11.459   3.880   3.139  0.6529  1.0834 -0.9424
  691MOL0     H95294  11.417   4.028   3.220 -3.1216 -1.6684 -1.0932
  691MOL0     H95295  11.599   3.992   3.348  1.2260 -0.1855  0.7036
  691MOL0     H95296  11.509   3.874   3.435  1.7755 -2.0776  1.0632
  691MOL0     H95297  11.605   3.685   3.309  0.1456 -1.7855 -4.1594
  691MOL0     H95298  11.685   3.808   3.193  0.6437  1.5021  1.0903
  691MOL0     H95299  11.725   3.783   3.494 -1.4603  1.1063 -1.1361
  691MOL0     H95300  11.809   3.899   3.390  1.5504 -0.2082 -0.2048
  691MOL0     H95301  11.941   3.753   3.289  0.6199 -1.5997 -0.7124
  691MOL0     H95302  11.955   3.711   3.442  1.2735  0.9942 -0.4862
  691MOL0     H95303  11.944   3.513   3.309  0.6567  1.3052 -0.7056
  691MOL0     H95304  11.781   3.561   3.249 -0.0623 -2.3576 -0.5381
  691MOL0     H95305  11.848   3.514   3.544  1.1533  2.9940 -0.8191
  691MOL0     H95306  11.692   3.513   3.472 -0.8581 -2.2260 -0.8158
  691MOL0     H95307  12.012   3.316   3.500  0.8825 -0.4290 -1.3613
  691MOL0     H95308  11.943   2.939   3.472 -2.4323  1.2330  0.9054
  691MOL0     H95309  12.055   3.057   3.547  1.2511  0.0178 -1.1072
  691MOL0     H95310  12.066   3.014   3.248  1.2419  0.1672 -0.8110
  691MOL0     H95311  12.156   3.114   3.349 -3.3351  2.1318  0.6250
  691MOL0     H95312  12.169   2.820   3.306  2.1475 -0.1788 -0.1394
  691MOL0     H95313  12.299   2.930   3.318  1.0709 -1.9452  1.8067
  691MOL0     H95314  12.143   2.834   3.558  1.6077 -0.5357  1.7182
  691MOL0     H95315  12.293   2.767   3.511  2.2400  0.4628 -1.4668
  691MOL0     H95316  12.386   3.182   3.525 -1.9118 -2.3463 -2.2471
  691MOL0     H95317  12.683   3.347   3.513  0.9511  0.0310 -1.2141
  691MOL0     H95318  12.515   3.341   3.439 -1.4915 -2.8436 -0.2837
  691MOL0     H95319  12.656   3.289   3.347 -0.3512  0.5763 -0.5145
  691MOL0     H95320  13.040   3.119   3.189 -1.8710 -2.0845  1.3447
  691MOL0     H95321  13.290   3.194   3.192  1.0088 -1.8322  0.4821
  691MOL0     H95322  13.494   3.089   3.161 -4.9319  1.6921  0.5566
  691MOL0     H95323  13.514   3.255   3.236 -2.1929 -0.5186 -2.6541
  691MOL0     H95324  13.721   3.160   3.342 -0.1491 -0.0208  0.2851
  691MOL0     H95325  13.713   3.020   3.238  1.9540  0.7665  1.9019
  691MOL0     H95326  13.744   3.311   3.137  0.0951  0.4210 -3.6312
  691MOL0     H95327  13.722   3.177   3.025 -1.1278  0.9389 -0.3849
  691MOL0     H95328  13.937   3.073   3.116 -1.7804 -0.1495  0.1811
  691MOL0     H95329  13.948   3.192   3.241  2.4695 -1.8732 -0.0951
  691MOL0     H95330  13.994   3.241   2.927  0.1511 -1.1491  0.2602
  691MOL0     H95331  13.970   3.371   3.029  0.6776 -0.0872  0.7691
  691MOL0     H95332  14.174   3.159   3.093 -0.5925  0.0767  1.0645
  691MOL0     H95333  14.157   3.309   3.170 -1.6008  0.0572 -1.1268
  691MOL0     H95334  14.212   3.281   2.878 -2.5690  2.8918 -1.0623
  691MOL0     H95335  14.340   3.320   3.006  0.3286  2.5747  1.4425
  691MOL0     H95336  14.228   3.547   3.033 -0.1254  1.4570 -1.6005
  691MOL0     H95337  14.124   3.515   2.889  0.4853  1.0327  0.2503
  691MOL0     H95338  13.331   2.948   3.553  0.0406 -2.3706 -1.0200
  691MOL0     H95339  13.118   2.927   3.562 -0.1740  3.3090  1.1781
  691MOL0     H95340  12.761   2.854   3.506  1.7738  1.8405  3.8253
  691MOL0     H95341  12.523   2.785   3.579 -0.9145  0.2657 -0.9993
  691MOL0     H95342  11.333   3.504   3.318 -1.4517 -2.8491 -0.1316
  691MOL0     H95343  11.185   3.336   3.449 -0.4593  0.7959  0.6133
  691MOL0     H95344  10.745   3.359   3.733 -0.6804 -0.2533  0.5162
  691MOL0     H95345  10.578   3.216   3.861 -0.6632 -0.6759  0.4738
  691MOL0     H95346  10.451   2.844   3.679 -0.2251 -1.6671 -0.6125
  691MOL0     H95347  10.581   2.774   3.773 -0.1510  0.6151 -2.0331
  691MOL0     H95348  10.382   2.679   3.852 -2.2878  0.4920 -0.4402
  691MOL0     H95349  10.311   2.844   3.874  0.5601  0.4443  3.9667
  691MOL0     H95350  10.410   2.692   4.091 -0.1432  1.0920  0.7926
  691MOL0     H95351  10.557   2.788   4.039 -0.1669  1.0973 -2.4541
  691MOL0     H95352  10.287   2.913   4.076 -0.1919  3.1488  0.3122
  691MOL0     H95353  10.449   2.985   4.065 -0.8077 -0.1183  0.6240
  691MOL0     H95354  10.416   2.854   4.482 -1.5959  0.6823  0.1654
  691MOL0     H95355  10.677   2.894   3.600  0.3605  0.6229 -1.3493
  691MOL0     H95356  10.899   2.913   3.488  2.0204  1.2380  0.2498
  691MOL0     H95357  10.801   2.999   3.356  1.2913  1.9427 -0.9894
  691MOL0     H95358  10.955   3.055   3.429  2.2928 -3.5112 -2.0342
  692MOL0     O95359   5.922   3.317   4.308  0.3283  0.0688 -0.2876
  692MOL0     C95360   5.993   3.412   4.311 -0.2026 -0.3856  0.6225
  692MOL0     O95361   6.129   3.401   4.328 -0.0285  0.2561  0.0190
  692MOL0     C95362   6.188   3.280   4.356  0.4583 -0.0994 -0.3851
  692MOL0     C95363   6.314   3.253   4.289  0.6238  0.5976 -0.1937
  692MOL0     C95364   6.380   3.129   4.307  0.0089  0.0412  0.3116
  692MOL0     C95365   6.317   3.043   4.401  0.7317 -0.0711  0.8018
  692MOL0     O95366   6.381   2.929   4.429 -0.8310  0.6287 -0.3168
  692MOL0     C95367   6.434   2.928   4.565 -0.1046 -0.9510  0.1637
  692MOL0     C95368   6.547   2.835   4.580 -0.6839 -0.4926  0.2676
  692MOL0     C95369   6.510   2.685   4.596 -0.2109 -0.0685 -0.4031
  692MOL0     C95370   6.619   2.588   4.632  0.4546 -0.8771 -0.4916
  692MOL0     C95371   6.717   2.578   4.524 -0.3559 -0.0727 -0.2843
  692MOL0     C95372   6.826   2.474   4.562  0.6952 -0.0250  0.1165
  692MOL0     C95373   6.951   2.488   4.481  0.2446  0.3117 -0.6648
  692MOL0     C95374   6.946   2.429   4.338 -0.5019  0.4353  0.3499
  692MOL0     N95375   7.083   2.409   4.295 -0.0082  0.0002  0.5281
  692MOL0     C95376   7.156   2.288   4.290  0.0235  0.0855 -0.3720
  692MOL0     C95377   7.272   2.312   4.222  0.7281 -0.0576  0.5301
  692MOL0     C95378   7.383   2.214   4.230 -0.2416 -0.3075 -0.2523
  692MOL0     C95379   7.507   2.279   4.281 -0.7142 -0.5753 -0.5413
  692MOL0     C95380   7.609   2.180   4.346 -0.3504 -0.1371  0.9587
  692MOL0     C95381   7.758   2.233   4.386  0.1052 -1.5017 -0.2592
  692MOL0     O95382   7.739   2.343   4.484  0.0047 -0.0462  0.2582
  692MOL0     C95383   7.847   2.340   4.571 -0.4992  0.2431 -0.3885
  692MOL0     C95384   7.934   2.444   4.586  0.6210  0.3614  0.3748
  692MOL0     C95385   8.024   2.453   4.696 -0.6768 -0.1644 -0.5125
  692MOL0     C95386   8.116   2.571   4.687 -0.0703  0.5306  0.3980
  692MOL0     C95387   8.040   2.341   4.781  0.5488  0.1840 -0.7535
  692MOL0     C95388   8.159   2.332   4.876  0.0806 -0.7536 -0.0709
  692MOL0     O95389   8.127   2.277   4.991 -0.1198  0.1393  0.3939
  692MOL0     C95390   8.215   2.266   5.100  1.1034  0.6089  0.1966
  692MOL0     C95391   8.351   2.277   5.102 -0.3671 -0.0322 -0.4398
  692MOL0     C95392   8.429   2.269   5.220  0.3174 -0.5200 -0.6504
  692MOL0     C95393   8.361   2.244   5.343  1.1058 -0.4599  0.2633
  692MOL0     O95394   8.419   2.230   5.470 -0.3283  0.1171  0.6804
  692MOL0     C95395   8.571   2.229   5.487 -0.2920 -0.4165  0.5711
  692MOL0     C95396   8.629   2.372   5.487 -0.2180 -0.9603 -0.8626
  692MOL0     C95397   8.777   2.372   5.446 -0.3318 -0.1870  0.9644
  692MOL0     C95398   8.878   2.297   5.531 -0.2862  0.0173 -0.1243
  692MOL0     C95399   9.021   2.320   5.465  0.2525 -0.2607 -0.0259
  692MOL0     C95400   9.130   2.279   5.565 -0.1382 -0.5369  0.1517
  692MOL0     C95401   9.162   2.397   5.662  0.6974 -0.1057  0.5761
  692MOL0     C95402   9.205   2.358   5.802 -0.2800 -0.2529 -0.3751
  692MOL0    Cl95403   9.230   2.516   5.897 -0.0706  0.1043  0.0782
  692MOL0     C95404   8.223   2.228   5.338  0.9335  0.5538  0.1016
  692MOL0     C95405   8.144   2.243   5.225 -1.0493 -0.1578  1.3320
  692MOL0     O95406   8.269   2.365   4.836 -0.5511  0.3436  1.0085
  692MOL0     C95407   7.948   2.235   4.768  0.4947  0.0365 -0.0632
  692MOL0     C95408   7.853   2.236   4.668 -0.4666 -0.0379 -0.2251
  692MOL0     N95409   7.271   2.447   4.188  0.6134  0.3116  0.0830
  692MOL0     N95410   7.144   2.491   4.215 -0.0038  0.1408  0.1888
  692MOL0     C95411   6.205   3.079   4.475 -0.0696 -0.4070 -0.5335
  692MOL0     C95412   6.143   3.198   4.461  0.1577  0.5542 -0.5702
  692MOL0     C95413   5.929   3.544   4.301 -0.3928 -0.0137  0.0015
  692MOL0     C95414   5.789   3.549   4.327  0.0467  0.3562  0.3724
  692MOL0     C95415   5.720   3.667   4.310 -0.0094 -0.6339 -0.1231
  692MOL0     C95416   5.780   3.785   4.253  0.9566 -0.4024 -0.2397
  692MOL0     O95417   5.693   3.889   4.217 -0.1336  0.5474 -0.2644
  692MOL0     C95418   5.749   4.024   4.241 -0.6428  0.5678  0.0123
  692MOL0     C95419   5.683   4.088   4.365  1.1630  0.4988  0.1570
  692MOL0     C95420   5.719   4.246   4.359  0.9274  0.5921  0.4425
  692MOL0     C95421   5.635   4.317   4.457  0.1597 -0.2548 -0.9262
  692MOL0     C95422   5.674   4.464   4.449  0.3965  0.1356  0.8975
  692MOL0     C95423   5.683   4.581   4.441  0.1874 -0.0996 -0.8043
  692MOL0     C95424   5.915   3.774   4.237 -0.6881  0.2561  0.4403
  692MOL0     C95425   5.985   3.660   4.257 -0.7198 -0.1588 -0.6255
  692MOL0     C95426   6.134   3.669   4.230 -0.0441 -0.7859  0.8387
  692MOL0     H95427   6.344   3.326   4.214  0.2633  1.5691  0.5829
  692MOL0     H95428   6.466   3.094   4.250  1.4673  2.7562  0.7080
  692MOL0     H95429   6.351   2.913   4.635 -0.1988 -0.8502  0.0722
  692MOL0     H95430   6.481   3.023   4.588 -0.2941 -0.3270 -1.8340
  692MOL0     H95431   6.621   2.834   4.499 -0.7487 -0.6553  0.2100
  692MOL0     H95432   6.601   2.862   4.672  3.6093 -2.9547 -1.2320
  692MOL0     H95433   6.430   2.679   4.671  0.0935  0.0987 -0.0581
  692MOL0     H95434   6.465   2.650   4.503 -0.3899  2.2676 -1.2487
  692MOL0     H95435   6.670   2.615   4.725  2.2295 -0.0815 -1.6434
  692MOL0     H95436   6.580   2.487   4.642 -2.9960  0.3124 -0.7586
  692MOL0     H95437   6.762   2.675   4.500 -1.8182  0.1932 -2.1336
  692MOL0     H95438   6.663   2.554   4.433 -1.3819 -1.3299  0.6178
  692MOL0     H95439   6.859   2.486   4.666  2.3359  1.8984 -0.5529
  692MOL0     H95440   6.792   2.371   4.549 -0.8336  0.1620  2.1601
  692MOL0     H95441   7.032   2.436   4.534  1.6458  1.1419 -1.9013
  692MOL0     H95442   6.977   2.594   4.475  1.1866  0.1475  0.2509
  692MOL0     H95443   6.893   2.335   4.324  2.3024 -0.8651 -3.0316
  692MOL0     H95444   6.911   2.509   4.271  1.7820  0.7618 -0.5677
  692MOL0     H95445   7.122   2.196   4.338 -0.9873  0.7748  0.2699
  692MOL0     H95446   7.400   2.168   4.132  2.0975  0.2395 -0.1377
  692MOL0     H95447   7.342   2.133   4.291 -2.9096 -1.2962 -3.0673
  692MOL0     H95448   7.558   2.335   4.203 -0.2170 -0.8863 -0.4428
  692MOL0     H95449   7.482   2.359   4.352  0.2561 -0.8051  0.0860
  692MOL0     H95450   7.563   2.135   4.434 -0.5199 -0.0455  0.9167
  692MOL0     H95451   7.635   2.104   4.271  0.9606  1.0616  0.1509
  692MOL0     H95452   7.834   2.164   4.422  1.5550  0.9708  1.8083
  692MOL0     H95453   7.797   2.275   4.293 -1.3145 -0.1623 -0.3013
  692MOL0     H95454   7.902   2.523   4.518 -1.6300  0.2946  1.2409
  692MOL0     H95455   8.126   2.608   4.789 -0.1198 -1.3266  1.1232
  692MOL0     H95456   8.086   2.640   4.608  1.1317  0.0056 -0.5662
  692MOL0     H95457   8.214   2.542   4.646 -0.9977 -1.1190 -0.7708
  692MOL0     H95458   8.405   2.290   5.008  1.8311  0.0404  0.7799
  692MOL0     H95459   8.533   2.299   5.225 -0.1030  0.8427  2.6868
  692MOL0     H95460   8.587   2.193   5.589  0.1006  1.2700  1.1433
  692MOL0     H95461   8.613   2.158   5.415  0.5496 -0.2708  0.9050
  692MOL0     H95462   8.562   2.424   5.417  0.4058  1.5183  0.2759
  692MOL0     H95463   8.618   2.423   5.583 -1.2168 -0.1583 -1.3815
  692MOL0     H95464   8.800   2.479   5.436 -1.0629 -0.0124  1.0749
  692MOL0     H95465   8.790   2.336   5.344  1.0289  0.0296  1.0481
  692MOL0     H95466   8.865   2.190   5.548  1.5958 -0.2158  0.1306
  692MOL0     H95467   8.876   2.350   5.626  1.8542 -3.4286  2.0740
  692MOL0     H95468   9.018   2.251   5.380 -0.9646 -0.6603  0.3109
  692MOL0     H95469   9.020   2.426   5.439 -1.0198 -1.1151 -4.4665
  692MOL0     H95470   9.216   2.258   5.501 -0.0156  1.3294 -0.3603
  692MOL0     H95471   9.102   2.188   5.618 -0.0655 -1.7532 -1.7930
  692MOL0     H95472   9.081   2.470   5.668 -1.3285 -2.2668  1.6086
  692MOL0     H95473   9.246   2.453   5.620  1.9428 -2.7925 -0.8417
  692MOL0     H95474   9.293   2.294   5.805 -1.7056 -2.2829  0.4640
  692MOL0     H95475   9.131   2.293   5.851  0.7111 -1.6218 -0.6236
  692MOL0     H95476   8.183   2.218   5.438 -0.7496 -0.1847 -0.6159
  692MOL0     H95477   8.037   2.232   5.229 -1.0796 -1.7202 -1.2495
  692MOL0     H95478   7.956   2.159   4.845  0.5571  0.7385  0.6306
  692MOL0     H95479   7.780   2.156   4.661  2.0368 -2.3391 -2.4111
  692MOL0     H95480   6.177   3.025   4.565 -1.4632  0.9056 -0.1285
  692MOL0     H95481   6.066   3.231   4.530  2.5226  1.9667  1.6077
  692MOL0     H95482   5.728   3.463   4.354  2.6585 -1.5058  0.8121
  692MOL0     H95483   5.612   3.660   4.318 -0.0183  0.6752  1.4791
  692MOL0     H95484   5.857   4.030   4.256 -0.7512  1.0125  0.6717
  692MOL0     H95485   5.740   4.091   4.155  1.9075 -0.3322 -1.0416
  692MOL0     H95486   5.710   4.038   4.459  1.4248 -0.2806 -0.3201
  692MOL0     H95487   5.575   4.075   4.365  0.9440  2.0840  1.1043
  692MOL0     H95488   5.827   4.265   4.361  1.0056  1.4307 -3.4775
  692MOL0     H95489   5.697   4.273   4.255  2.4952  1.6683  0.3444
  692MOL0     H95490   5.662   4.292   4.560 -0.7224  1.7399 -0.1656
  692MOL0     H95491   5.528   4.307   4.437 -0.1283  0.0331  0.3866
  692MOL0     H95492   5.693   4.687   4.445  0.8371 -0.1723 -0.0137
  692MOL0     H95493   5.969   3.850   4.182  0.7612 -2.2226 -1.7989
  692MOL0     H95494   6.153   3.596   4.151 -1.3030  0.6115 -0.8409
  692MOL0     H95495   6.160   3.767   4.188 -2.6465 -1.1980 -2.0984
  692MOL0     H95496   6.188   3.637   4.320  0.7544 -2.9067 -0.3224
  693MOL0     O95497   7.043   6.242   6.212 -0.5849  0.5886 -0.4615
  693MOL0     C95498   6.952   6.165   6.196 -0.9710  0.3102 -0.3774
  693MOL0     O95499   6.831   6.206   6.157  0.1446 -0.5391 -0.4362
  693MOL0     C95500   6.800   6.340   6.127  0.1629 -0.8274 -0.1014
  693MOL0     C95501   6.744   6.374   5.998 -0.6241 -0.6126  0.5733
  693MOL0     C95502   6.701   6.502   5.974 -0.0805 -1.0195  0.8917
  693MOL0     C95503   6.701   6.607   6.069 -0.0178  1.0511 -1.3182
  693MOL0     O95504   6.660   6.741   6.055 -0.6842  0.5391 -0.8479
  693MOL0     C95505   6.614   6.779   5.922 -0.4765  0.2381 -0.5039
  693MOL0     C95506   6.567   6.926   5.921  0.5633  0.6269  0.4512
  693MOL0     C95507   6.550   6.995   5.789  0.9556  0.0739 -0.2585
  693MOL0     C95508   6.529   7.149   5.815 -0.3994 -0.0487  0.3734
  693MOL0     C95509   6.655   7.244   5.832 -0.5634  0.1221 -0.6305
  693MOL0     C95510   6.617   7.390   5.843 -0.4355  0.5205  0.4182
  693MOL0     C95511   6.736   7.475   5.801 -0.4519 -0.2786  0.2321
  693MOL0     C95512   6.706   7.622   5.748  0.1197 -0.2957 -0.4214
  693MOL0     N95513   6.664   7.640   5.606  0.5337 -0.2581 -1.0156
  693MOL0     C95514   6.561   7.575   5.539 -0.7933  0.3623 -0.3058
  693MOL0     C95515   6.560   7.634   5.420 -0.7500  0.2438  0.2481
  693MOL0     C95516   6.468   7.587   5.307 -0.3944  0.0683 -0.2173
  693MOL0     C95517   6.372   7.692   5.265 -0.1130 -0.0807  0.2087
  693MOL0     C95518   6.337   7.684   5.111  0.1047  0.2221  0.8687
  693MOL0     C95519   6.201   7.623   5.090 -0.0117  1.3226  0.0176
  693MOL0     O95520   6.209   7.487   5.141 -0.4216  0.0877  0.1008
  693MOL0     C95521   6.142   7.376   5.084  0.8311 -0.5952  0.6501
  693MOL0     C95522   6.167   7.240   5.106  0.4959 -0.6933 -0.0568
  693MOL0     C95523   6.075   7.143   5.077 -0.7085  0.6410  0.4210
  693MOL0     C95524   6.110   7.007   5.115  0.0093  0.2649 -0.0490
  693MOL0     C95525   5.956   7.175   4.991 -0.5025  0.6003 -0.2632
  693MOL0     C95526   5.859   7.075   4.937 -0.1837 -0.4272 -0.4390
  693MOL0     O95527   5.786   7.103   4.822  0.0911 -0.0729  0.1639
  693MOL0     C95528   5.684   7.020   4.788 -0.4803  0.2827  0.9904
  693MOL0     C95529   5.685   6.931   4.678 -0.1865  0.6823  0.0289
  693MOL0     C95530   5.577   6.839   4.649 -0.3109  0.8880  0.0815
  693MOL0     C95531   5.471   6.843   4.735 -0.0465  0.4159 -0.7797
  693MOL0     O95532   5.381   6.740   4.725 -0.1843  0.1623 -0.0653
  693MOL0     C95533   5.240   6.785   4.741  0.3187  0.3736  0.2250
  693MOL0     C95534   5.185   6.881   4.631 -0.0156 -0.6606 -0.2145
  693MOL0     C95535   5.142   6.796   4.506 -0.0241 -0.2870  0.4377
  693MOL0     C95536   5.058   6.893   4.423  0.5291 -0.1320  0.1690
  693MOL0     C95537   5.142   7.004   4.350  1.2473 -0.4999 -0.9048
  693MOL0     C95538   5.042   7.081   4.258 -0.2168  0.2807 -0.1714
  693MOL0     C95539   4.960   7.183   4.328 -0.3439  0.1071 -0.1575
  693MOL0     C95540   4.826   7.186   4.253  0.1842 -0.3014 -0.5735
  693MOL0    Cl95541   4.823   7.184   4.066 -0.1770 -0.0545 -0.1316
  693MOL0     C95542   5.462   6.939   4.837  0.1115  0.1159  0.5423
  693MOL0     C95543   5.568   7.019   4.863  1.1273 -0.4020  0.4175
  693MOL0     O95544   5.833   6.984   5.018  0.8479 -0.7293  0.3554
  693MOL0     C95545   5.943   7.308   4.952 -0.1414 -1.2597  0.1208
  693MOL0     C95546   6.029   7.407   5.008 -0.0977  0.2078 -0.1821
  693MOL0     N95547   6.643   7.746   5.409  0.3997  0.8334  0.2546
  693MOL0     N95548   6.707   7.739   5.520 -0.0271 -0.2422  0.0828
  693MOL0     C95549   6.747   6.567   6.195 -0.0525  0.4763  0.1006
  693MOL0     C95550   6.805   6.440   6.222 -0.2660 -0.8165 -0.1844
  693MOL0     C95551   6.968   6.016   6.203  0.3356 -0.4038 -0.3089
  693MOL0     C95552   6.885   5.928   6.133 -0.1132 -0.9083 -0.4169
  693MOL0     C95553   6.887   5.789   6.143  0.4213  0.0677 -0.5442
  693MOL0     C95554   6.981   5.721   6.225  0.7342  0.0368  0.0833
  693MOL0     O95555   6.978   5.582   6.237 -0.2016 -0.3840 -0.3037
  693MOL0     C95556   7.040   5.515   6.352 -0.4932  0.0589 -0.1302
  693MOL0     C95557   7.007   5.358   6.356 -0.7380  0.0672  0.4645
  693MOL0     C95558   6.860   5.337   6.349  0.0196 -0.1889 -0.4959
  693MOL0     C95559   6.827   5.202   6.420  0.3061 -0.1332 -0.5800
  693MOL0     C95560   6.679   5.201   6.436  0.3483 -0.3288 -0.6631
  693MOL0     C95561   6.558   5.199   6.431  1.1312  0.3094  0.0583
  693MOL0     C95562   7.074   5.805   6.284  0.0170 -0.9779 -0.7602
  693MOL0     C95563   7.064   5.946   6.276  0.1225 -0.0234 -0.3613
  693MOL0     C95564   7.183   6.013   6.351 -0.4276  0.4960 -0.8259
  693MOL0     H95565   6.746   6.295   5.924  3.0543 -1.1920  1.1117
  693MOL0     H95566   6.648   6.518   5.880 -1.8609 -0.5753  1.9163
  693MOL0     H95567   6.535   6.711   5.888  0.3547 -1.3689  0.7075
  693MOL0     H95568   6.686   6.778   5.840 -0.2578  2.8867 -0.4350
  693MOL0     H95569   6.483   6.940   5.989 -2.1606 -5.1450 -1.1023
  693MOL0     H95570   6.647   6.975   5.978  1.1453 -0.0579  0.2453
  693MOL0     H95571   6.642   6.987   5.731  0.3207 -0.0027 -1.2599
  693MOL0     H95572   6.469   6.960   5.725  1.6504 -2.8362  0.3401
  693MOL0     H95573   6.480   7.183   5.723 -0.2035 -0.8627 -0.0386
  693MOL0     H95574   6.467   7.176   5.901  2.3803  1.6350  2.0039
  693MOL0     H95575   6.709   7.211   5.743 -0.6692  0.5873 -0.8671
  693MOL0     H95576   6.715   7.217   5.919 -1.0879 -2.6771 -1.0398
  693MOL0     H95577   6.535   7.418   5.777 -0.1069  1.6948  0.4811
  693MOL0     H95578   6.596   7.402   5.950 -0.5330 -1.1114  0.6028
  693MOL0     H95579   6.799   7.434   5.722  0.1581  2.1849 -0.6590
  693MOL0     H95580   6.796   7.490   5.892 -0.8132  0.5326  0.3450
  693MOL0     H95581   6.639   7.677   5.814 -0.8348 -0.9746 -0.7980
  693MOL0     H95582   6.795   7.685   5.754 -0.1691  0.2670 -1.6436
  693MOL0     H95583   6.511   7.484   5.569  1.1910  0.2679  3.2229
  693MOL0     H95584   6.402   7.505   5.337 -0.7192  0.5439  0.3774
  693MOL0     H95585   6.536   7.550   5.230  1.6512  1.2600  0.9260
  693MOL0     H95586   6.279   7.680   5.322 -1.1952 -2.8574 -1.8555
  693MOL0     H95587   6.428   7.785   5.272  0.7006 -0.4637 -0.8612
  693MOL0     H95588   6.330   7.780   5.060 -0.2742 -0.8356 -1.1639
  693MOL0     H95589   6.410   7.626   5.053  0.0614 -1.3843  2.3273
  693MOL0     H95590   6.117   7.676   5.135 -2.3272 -1.6982 -0.3676
  693MOL0     H95591   6.194   7.627   4.981  1.9747  0.5598 -0.1910
  693MOL0     H95592   6.265   7.223   5.151  0.8965  1.3921 -0.0092
  693MOL0     H95593   6.114   6.947   5.024 -1.3500 -0.0462  0.0700
  693MOL0     H95594   6.028   6.966   5.175 -0.3129 -0.7230 -1.1410
  693MOL0     H95595   6.204   7.002   5.172  0.8352  1.5027 -1.2572
  693MOL0     H95596   5.770   6.932   4.610 -0.6127 -2.1150 -0.6886
  693MOL0     H95597   5.579   6.763   4.571 -1.5393 -0.4679  1.3177
  693MOL0     H95598   5.178   6.695   4.745  1.0058 -0.1354 -0.1785
  693MOL0     H95599   5.224   6.820   4.843 -0.4422 -0.1932  0.3098
  693MOL0     H95600   5.098   6.924   4.681  1.5293  0.4936  1.6235
  693MOL0     H95601   5.256   6.961   4.607  1.0422 -1.7902 -0.9699
  693MOL0     H95602   5.079   6.714   4.542 -0.2288  0.0850  0.9489
  693MOL0     H95603   5.222   6.754   4.445 -2.1735 -1.4982 -1.7306
  693MOL0     H95604   4.968   6.926   4.476  0.5881 -1.7485  1.3563
  693MOL0     H95605   5.011   6.823   4.354 -0.4520  1.5246 -0.9014
  693MOL0     H95606   5.186   7.074   4.421  0.8078 -0.2006 -0.9254
  693MOL0     H95607   5.227   6.951   4.306  2.5962  0.4166  0.5452
  693MOL0     H95608   4.983   7.000   4.214  3.5854 -1.4207 -2.7665
  693MOL0     H95609   5.092   7.131   4.175 -3.4016  1.6741 -1.3605
  693MOL0     H95610   4.993   7.287   4.323  0.7004 -0.2800 -2.6383
  693MOL0     H95611   4.951   7.157   4.434 -1.8188 -1.8407 -0.7029
  693MOL0     H95612   4.765   7.270   4.286  2.2369  0.5971  1.2089
  693MOL0     H95613   4.770   7.096   4.281  0.1270 -0.4957 -1.2996
  693MOL0     H95614   5.374   6.952   4.899  1.3817  0.9879  2.2445
  693MOL0     H95615   5.553   7.082   4.951 -1.8171  0.6121 -0.6652
  693MOL0     H95616   5.854   7.347   4.903 -0.6685 -1.1801  1.1148
  693MOL0     H95617   6.004   7.512   4.995  0.8000  0.3159 -1.2113
  693MOL0     H95618   6.724   6.651   6.260 -2.3533  0.8979 -1.1392
  693MOL0     H95619   6.836   6.393   6.315  1.2993  1.8668  0.7437
  693MOL0     H95620   6.810   5.960   6.062  1.6815 -0.9347 -2.4524
  693MOL0     H95621   6.821   5.736   6.075  2.1962  0.0935 -2.3817
  693MOL0     H95622   7.147   5.522   6.333 -0.2872 -0.3072  0.8422
  693MOL0     H95623   7.010   5.573   6.440 -3.5390  1.8362 -2.1531
  693MOL0     H95624   7.048   5.316   6.449 -0.4774 -0.8028 -0.0328
  693MOL0     H95625   7.063   5.310   6.276  0.4629  1.2821  0.5397
  693MOL0     H95626   6.805   5.423   6.390  1.2108 -0.3524  1.5492
  693MOL0     H95627   6.819   5.318   6.249 -0.0373 -0.3649 -0.4396
  693MOL0     H95628   6.876   5.200   6.518 -1.7085  0.6630  0.5189
  693MOL0     H95629   6.868   5.123   6.358  2.1660  1.9612 -2.1876
  693MOL0     H95630   6.451   5.197   6.423  1.0295  1.7159  0.7709
  693MOL0     H95631   7.154   5.757   6.340  0.5374  0.9117  0.1935
  693MOL0     H95632   7.241   6.075   6.282  0.2746  2.0154  1.0747
  693MOL0     H95633   7.147   6.077   6.432  0.2420 -0.8063  0.5489
  693MOL0     H95634   7.250   5.941   6.399 -0.8061  0.8870  0.3112
  694MOL0     O95635   5.059   8.405   6.238  0.5089  0.1449 -0.4269
  694MOL0     C95636   4.987   8.306   6.221 -0.8695 -0.2000 -0.3741
  694MOL0     O95637   5.004   8.219   6.113 -0.0059  0.2790 -0.2816
  694MOL0     C95638   5.133   8.199   6.070  0.5745 -0.6191  0.1804
  694MOL0     C95639   5.196   8.292   5.984 -0.3043  0.4511  0.4627
  694MOL0     C95640   5.331   8.272   5.945 -0.0142 -0.3393  0.0537
  694MOL0     C95641   5.404   8.158   5.988  0.0895 -0.0863 -0.1607
  694MOL0     O95642   5.531   8.136   5.943 -0.1238 -0.3350 -0.5537
  694MOL0     C95643   5.594   8.207   5.840 -0.0641 -0.3564  0.3134
  694MOL0     C95644   5.742   8.171   5.832 -0.9369  0.1502 -0.3574
  694MOL0     C95645   5.808   8.251   5.949 -0.1086  0.4018 -0.0008
  694MOL0     C95646   5.962   8.222   5.980  0.0645 -0.9977  0.0944
  694MOL0     C95647   6.024   8.339   6.063  0.0412 -0.1858  0.0952
  694MOL0     C95648   6.180   8.322   6.100  0.2273 -0.0309 -0.2889
  694MOL0     C95649   6.190   8.256   6.239 -0.6492  0.1235 -0.0490
  694MOL0     C95650   6.325   8.187   6.264  1.1784  0.1346  0.8707
  694MOL0     N95651   6.345   8.151   6.405  0.4744 -0.4328  0.4436
  694MOL0     C95652   6.379   8.026   6.441  0.6934  0.2271 -1.4570
  694MOL0     C95653   6.415   8.038   6.576  0.0431 -0.2028  0.5848
  694MOL0     C95654   6.470   7.921   6.651  0.3243 -0.0737  0.0464
  694MOL0     C95655   6.621   7.925   6.669  0.0340  0.1701 -0.0599
  694MOL0     C95656   6.709   7.946   6.550  0.1731  0.0239  0.3570
  694MOL0     C95657   6.859   7.976   6.592  0.4701  0.0048  0.5987
  694MOL0     O95658   6.936   7.964   6.472  0.0415 -0.3660 -0.0534
  694MOL0     C95659   7.075   7.966   6.489  0.5101 -0.4145  1.1546
  694MOL0     C95660   7.149   7.957   6.372  0.1181 -0.1243  0.3757
  694MOL0     C95661   7.289   7.961   6.377 -0.1605  0.6509 -0.1300
  694MOL0     C95662   7.357   7.924   6.247 -0.6425 -1.2169 -0.3598
  694MOL0     C95663   7.361   7.966   6.498 -0.3189 -0.0312  0.4118
  694MOL0     C95664   7.509   7.943   6.518 -0.2046  0.0133  0.3919
  694MOL0     O95665   7.553   7.878   6.625  1.2377  0.2284 -0.6196
  694MOL0     C95666   7.673   7.905   6.672 -0.5462 -0.2723 -1.3722
  694MOL0     C95667   7.744   7.795   6.713 -0.9758  0.2236 -0.7846
  694MOL0     C95668   7.882   7.821   6.751  0.4505 -0.7684 -0.2990
  694MOL0     C95669   7.932   7.950   6.755 -0.1296  0.3111 -1.0082
  694MOL0     O95670   8.055   7.954   6.807  0.7748 -0.3375  0.1836
  694MOL0     C95671   8.124   8.083   6.835  0.3450  0.0780  0.6874
  694MOL0     C95672   8.250   8.046   6.917  0.8885 -1.5725 -0.4909
  694MOL0     C95673   8.356   7.979   6.831  0.2692 -0.3178 -0.2337
  694MOL0     C95674   8.452   8.087   6.757 -0.0677  0.1485 -0.5626
  694MOL0     C95675   8.467   8.055   6.606 -0.8178 -0.2312  0.4518
  694MOL0     C95676   8.556   7.933   6.581  0.5326  0.1127 -0.3333
  694MOL0     C95677   8.704   7.955   6.590 -0.7824  0.1675 -0.6281
  694MOL0     C95678   8.787   7.835   6.560  0.0359  0.7612  1.3633
  694MOL0    Cl95679   8.967   7.852   6.589  0.1621 -0.1589  0.1694
  694MOL0     C95680   7.857   8.062   6.726 -0.9601  0.8803  0.7316
  694MOL0     C95681   7.729   8.040   6.679 -0.5181  0.3010 -0.5476
  694MOL0     O95682   7.579   7.993   6.432 -0.3234  0.4747  0.2510
  694MOL0     C95683   7.281   7.977   6.623  0.2930  0.1083  0.4636
  694MOL0     C95684   7.144   7.984   6.615  0.1376  0.6620  0.5778
  694MOL0     N95685   6.395   8.166   6.623 -0.0112 -1.1388  0.5047
  694MOL0     N95686   6.366   8.236   6.510 -0.4454  0.4462  0.3471
  694MOL0     C95687   5.340   8.067   6.071 -0.0783  0.8622 -0.3472
  694MOL0     C95688   5.211   8.090   6.117 -0.0588 -0.2612  0.7666
  694MOL0     C95689   4.872   8.286   6.312 -0.1226  0.4342  0.2132
  694MOL0     C95690   4.790   8.166   6.289  0.2465 -0.7684  0.5579
  694MOL0     C95691   4.692   8.125   6.376 -0.7612  0.5364 -0.0136
  694MOL0     C95692   4.664   8.204   6.487  0.6026  0.9561 -0.8348
  694MOL0     O95693   4.576   8.152   6.579  0.6902  0.0940  0.8352
  694MOL0     C95694   4.524   8.236   6.688 -0.0967  0.0124  0.3074
  694MOL0     C95695   4.419   8.166   6.766  0.0238 -0.4447  0.0265
  694MOL0     C95696   4.465   8.023   6.808 -0.3989 -0.5548 -0.8978
  694MOL0     C95697   4.379   7.943   6.909 -0.3187 -0.0997  0.1734
  694MOL0     C95698   4.246   7.920   6.843  0.0396  0.1029  0.0347
  694MOL0     C95699   4.133   7.880   6.796 -0.8007 -0.1308  0.2350
  694MOL0     C95700   4.729   8.320   6.503 -0.0077  0.0376 -0.7906
  694MOL0     C95701   4.830   8.363   6.421  0.4410  0.0743  0.2524
  694MOL0     C95702   4.898   8.492   6.460  0.2574  0.4154 -0.1753
  694MOL0     H95703   5.141   8.371   5.935 -1.3833 -0.9505 -0.7013
  694MOL0     H95704   5.379   8.349   5.885  3.0519  0.4504  3.1722
  694MOL0     H95705   5.595   8.314   5.861  0.6956 -0.7998  2.8548
  694MOL0     H95706   5.543   8.177   5.748  0.4488 -3.3626  0.9110
  694MOL0     H95707   5.757   8.063   5.836 -3.2200 -0.1622  1.9878
  694MOL0     H95708   5.783   8.213   5.740  1.0626  0.6740  0.7211
  694MOL0     H95709   5.807   8.359   5.929 -0.6544  0.5940  0.9838
  694MOL0     H95710   5.752   8.225   6.040 -0.0874  0.6045  0.0707
  694MOL0     H95711   5.967   8.125   6.030 -1.4392 -2.0585 -1.6718
  694MOL0     H95712   6.018   8.202   5.888 -0.8660 -2.4277 -0.2075
  694MOL0     H95713   5.966   8.389   6.141 -0.0920  1.1579 -0.8239
  694MOL0     H95714   6.022   8.424   5.994 -1.1292  0.7781  1.2669
  694MOL0     H95715   6.225   8.258   6.023  0.4841  1.6785 -1.6060
  694MOL0     H95716   6.235   8.416   6.093  0.4591  0.0522  1.9636
  694MOL0     H95717   6.107   8.185   6.244 -2.5319  2.2169  0.2028
  694MOL0     H95718   6.165   8.323   6.322 -1.3586 -0.4370  0.1995
  694MOL0     H95719   6.332   8.101   6.197  0.1367 -1.2551  2.4705
  694MOL0     H95720   6.410   8.253   6.245  2.8620 -2.5619 -1.7485
  694MOL0     H95721   6.394   7.936   6.382  0.0709 -0.0418 -1.2097
  694MOL0     H95722   6.452   7.829   6.595 -0.9017 -0.3187  0.8113
  694MOL0     H95723   6.411   7.912   6.743 -0.0952  0.3065 -0.1808
  694MOL0     H95724   6.641   8.009   6.735 -0.8254  0.0387  0.3827
  694MOL0     H95725   6.664   7.845   6.729  0.5873  0.6438  0.1793
  694MOL0     H95726   6.719   7.857   6.488 -0.4523 -2.1209  3.1246
  694MOL0     H95727   6.669   8.022   6.482 -1.1023 -0.7518  0.2224
  694MOL0     H95728   6.864   8.074   6.640  0.8205 -0.4456  1.5093
  694MOL0     H95729   6.887   7.902   6.668  1.7298 -0.0124  0.1355
  694MOL0     H95730   7.103   7.947   6.274  3.2433  2.3922 -1.5635
  694MOL0     H95731   7.384   7.819   6.262 -2.7529 -1.6934  0.4401
  694MOL0     H95732   7.435   7.994   6.214 -3.4164  1.0867 -2.5639
  694MOL0     H95733   7.279   7.925   6.171 -0.1012  0.9774 -0.9368
  694MOL0     H95734   7.702   7.697   6.733 -2.4032  1.1673  1.1301
  694MOL0     H95735   7.956   7.750   6.785  0.2885 -0.7972 -0.0085
  694MOL0     H95736   8.136   8.141   6.743 -0.6606  0.4527  0.7865
  694MOL0     H95737   8.057   8.135   6.904 -1.2059 -1.5656  0.4962
  694MOL0     H95738   8.300   8.133   6.962 -2.5318  0.4832 -0.2983
  694MOL0     H95739   8.220   7.984   7.001 -2.5723 -1.1012 -1.2363
  694MOL0     H95740   8.298   7.921   6.758  0.4983 -1.1315  0.2168
  694MOL0     H95741   8.426   7.919   6.890  1.6528  3.3758  2.2836
  694MOL0     H95742   8.541   8.091   6.819 -2.0814 -1.5159  2.7607
  694MOL0     H95743   8.412   8.189   6.753  0.8485  0.4996 -1.1483
  694MOL0     H95744   8.369   8.042   6.562 -1.0171  2.4282 -0.0333
  694MOL0     H95745   8.513   8.136   6.550 -0.9674 -1.2997 -1.2843
  694MOL0     H95746   8.536   7.905   6.477  1.1344 -1.4004 -0.0719
  694MOL0     H95747   8.526   7.845   6.639  0.5344 -2.2745 -3.6351
  694MOL0     H95748   8.736   7.989   6.689 -0.0256  2.1265 -1.4941
  694MOL0     H95749   8.732   8.026   6.511  0.6367 -0.2289 -0.5156
  694MOL0     H95750   8.777   7.801   6.457  1.7929  1.6109  0.8669
  694MOL0     H95751   8.760   7.746   6.616 -0.7832 -0.4519 -0.8655
  694MOL0     H95752   7.890   8.166   6.733 -2.2321  1.3945 -0.4021
  694MOL0     H95753   7.674   8.130   6.655 -0.4356  0.5097  0.0357
  694MOL0     H95754   7.331   7.978   6.719  1.3740  1.6547 -0.0844
  694MOL0     H95755   7.083   7.984   6.705 -1.1343  3.1566 -0.2146
  694MOL0     H95756   5.413   7.993   6.102 -0.0668  0.3904 -1.4326
  694MOL0     H95757   5.160   8.029   6.191  1.5458 -0.7027  1.5430
  694MOL0     H95758   4.800   8.110   6.197  0.1844 -2.0299  1.2978
  694MOL0     H95759   4.633   8.040   6.343 -2.1169  1.8345 -1.0877
  694MOL0     H95760   4.601   8.279   6.752  1.3007  1.9871 -2.4783
  694MOL0     H95761   4.481   8.323   6.637  0.8650  0.9748  1.0927
  694MOL0     H95762   4.339   8.163   6.692  2.0439  0.2587 -2.3060
  694MOL0     H95763   4.391   8.230   6.851 -1.2497  1.7404 -1.9225
  694MOL0     H95764   4.473   7.958   6.720 -0.0325  1.7570 -2.6662
  694MOL0     H95765   4.565   8.034   6.851 -1.4105  4.1514  0.8823
  694MOL0     H95766   4.363   7.996   7.003 -0.0633 -0.7925  0.6176
  694MOL0     H95767   4.424   7.844   6.926 -0.7807 -0.2273  0.7052
  694MOL0     H95768   4.053   7.834   6.742 -2.0753 -1.1602  2.7987
  694MOL0     H95769   4.698   8.382   6.587  1.6978  1.7763 -1.3834
  694MOL0     H95770   4.928   8.556   6.376 -2.3810 -0.8232 -2.2233
  694MOL0     H95771   4.837   8.558   6.522 -0.5859  0.1094 -0.6675
  694MOL0     H95772   4.995   8.461   6.501  0.5836 -1.2412 -2.0272
  695MOL0     O95773   3.507   9.376   1.232  0.1118  0.5527  0.1688
  695MOL0     C95774   3.447   9.483   1.260 -0.3265 -0.0655  0.1715
  695MOL0     O95775   3.514   9.591   1.329  0.3253 -0.0177  0.2108
  695MOL0     C95776   3.635   9.574   1.381 -0.1970 -0.2332 -0.7427
  695MOL0     C95777   3.724   9.669   1.357 -0.5708  0.1726  0.7846
  695MOL0     C95778   3.854   9.648   1.410 -0.0459 -0.2772 -0.2346
  695MOL0     C95779   3.889   9.541   1.489 -0.5202  0.8654 -1.1594
  695MOL0     O95780   4.000   9.543   1.565 -0.1274 -0.0437 -0.0663
  695MOL0     C95781   4.102   9.462   1.511  0.3213 -0.2481 -0.5595
  695MOL0     C95782   4.230   9.502   1.590  0.9161 -0.2629 -0.3232
  695MOL0     C95783   4.343   9.418   1.535  0.6046 -0.0526 -0.2346
  695MOL0     C95784   4.467   9.455   1.621 -0.5161 -0.1810  0.4509
  695MOL0     C95785   4.594   9.374   1.608  0.2440  1.0296  0.0311
  695MOL0     C95786   4.706   9.396   1.709 -0.7230 -0.5892  0.2706
  695MOL0     C95787   4.825   9.305   1.691 -0.2321 -0.8856 -0.4554
  695MOL0     C95788   4.790   9.181   1.754 -0.3398  0.3075 -0.2791
  695MOL0     N95789   4.899   9.081   1.732 -0.6201 -0.3009 -0.3385
  695MOL0     C95790   4.991   9.042   1.820 -0.0407  0.4553 -0.9522
  695MOL0     C95791   5.075   8.954   1.766 -0.1344 -0.6322  0.4196
  695MOL0     C95792   5.180   8.871   1.831 -0.6574  1.2511  0.0026
  695MOL0     C95793   5.279   8.802   1.730  0.0516  0.2384 -0.3330
  695MOL0     C95794   5.372   8.703   1.803  0.5403  0.5101  0.5975
  695MOL0     C95795   5.446   8.752   1.917 -0.0375  0.4912  0.0144
  695MOL0     O95796   5.521   8.873   1.902 -0.1782  0.0263 -0.6518
  695MOL0     C95797   5.647   8.875   1.853  1.0197 -0.2434 -0.8418
  695MOL0     C95798   5.746   8.843   1.941 -0.2479  0.9562 -0.0107
  695MOL0     C95799   5.884   8.841   1.896 -0.1427 -0.5734  0.3461
  695MOL0     C95800   5.994   8.800   1.990 -0.9674  0.7157  0.4138
  695MOL0     C95801   5.916   8.883   1.761  0.0778  0.9044 -0.5765
  695MOL0     C95802   6.059   8.873   1.705  0.7818  0.7224  0.3841
  695MOL0     O95803   6.102   8.984   1.651 -0.4607 -0.2391 -0.1801
  695MOL0     C95804   6.208   8.996   1.573 -0.1855  0.3427  0.4109
  695MOL0     C95805   6.319   9.064   1.621 -0.4879 -0.2737  0.0659
  695MOL0     C95806   6.440   9.061   1.555 -0.5632 -0.4026  0.1098
  695MOL0     C95807   6.452   8.997   1.433 -0.2750  0.0325  0.3028
  695MOL0     O95808   6.568   9.020   1.354  0.8080  0.1195 -0.4408
  695MOL0     C95809   6.587   8.922   1.247 -1.1230  0.8544  0.3032
  695MOL0     C95810   6.735   8.934   1.195  0.0981 -0.0808  0.3523
  695MOL0     C95811   6.825   8.844   1.284  0.1758  1.0845 -0.0151
  695MOL0     C95812   6.966   8.824   1.222  0.4778 -0.2828 -0.2141
  695MOL0     C95813   7.062   8.732   1.301 -0.7758  0.1699  0.2256
  695MOL0     C95814   7.163   8.662   1.209  0.0414 -0.1801 -0.7664
  695MOL0     C95815   7.276   8.578   1.268  0.0836 -0.6527  0.1108
  695MOL0     C95816   7.226   8.481   1.375  0.4957 -0.1614 -0.2464
  695MOL0    Cl95817   7.196   8.566   1.530 -0.1208  0.3801 -0.2416
  695MOL0     C95818   6.341   8.928   1.381  0.0899 -0.5005  0.3850
  695MOL0     C95819   6.218   8.933   1.449  0.1605 -0.6999 -0.5259
  695MOL0     O95820   6.099   8.757   1.685  0.2830 -0.4165 -0.3299
  695MOL0     C95821   5.810   8.934   1.688 -0.5731 -0.0765  0.1971
  695MOL0     C95822   5.680   8.931   1.731 -0.0460 -0.3576  0.3506
  695MOL0     N95823   5.029   8.935   1.639  0.5665 -0.1581  1.2173
  695MOL0     N95824   4.919   9.010   1.620 -0.2151 -0.8242  0.9713
  695MOL0     C95825   3.798   9.447   1.528  0.4896 -0.2466 -1.2398
  695MOL0     C95826   3.668   9.460   1.470  0.5937 -0.3176  0.4223
  695MOL0     C95827   3.307   9.490   1.211 -1.5336 -0.5904 -0.3904
  695MOL0     C95828   3.241   9.370   1.173 -0.8436  0.6914  0.0825
  695MOL0     C95829   3.105   9.378   1.140 -0.1938  0.2963  0.1972
  695MOL0     C95830   3.027   9.498   1.146 -0.2608  0.0286  0.1316
  695MOL0     O95831   2.896   9.512   1.100  0.1075  0.3709  0.5934
  695MOL0     C95832   2.818   9.398   1.076  0.0443  0.0036 -0.3733
  695MOL0     C95833   2.679   9.442   1.028  0.8991  1.2932 -0.1587
  695MOL0     C95834   2.646   9.420   0.875  0.3611 -0.1169  0.4536
  695MOL0     C95835   2.502   9.458   0.828  0.6174 -0.5358 -0.8180
  695MOL0     C95836   2.404   9.360   0.871  0.9907 -0.2753 -0.4690
  695MOL0     C95837   2.314   9.283   0.893  0.8676 -0.4979  0.0013
  695MOL0     C95838   3.096   9.617   1.176 -0.4642  0.3850  0.5617
  695MOL0     C95839   3.237   9.616   1.202  0.0644 -0.2772 -0.4919
  695MOL0     C95840   3.301   9.762   1.218 -0.2376  0.3446 -0.2898
  695MOL0     H95841   3.706   9.749   1.286  3.1872 -1.6933 -2.6858
  695MOL0     H95842   3.933   9.718   1.383 -1.1976  1.8570  1.5838
  695MOL0     H95843   4.116   9.484   1.404 -1.8299  0.1208 -0.8041
  695MOL0     H95844   4.075   9.358   1.534  0.8967  0.0308  1.5687
  695MOL0     H95845   4.241   9.610   1.582  2.1334 -0.3763 -0.3490
  695MOL0     H95846   4.202   9.482   1.694 -1.7650 -0.0393 -0.9365
  695MOL0     H95847   4.319   9.311   1.542 -1.4087  0.3805  0.2262
  695MOL0     H95848   4.354   9.445   1.430 -1.6760 -2.0882 -1.0946
  695MOL0     H95849   4.493   9.559   1.599 -0.8089  0.2210  1.9261
  695MOL0     H95850   4.431   9.450   1.724 -0.3867 -2.2994  0.4256
  695MOL0     H95851   4.643   9.389   1.511 -0.3328 -0.0520 -0.4514
  695MOL0     H95852   4.564   9.269   1.617  0.8375  0.6584 -1.7997
  695MOL0     H95853   4.731   9.502   1.708 -2.0347 -0.2601 -0.1611
  695MOL0     H95854   4.660   9.392   1.808 -1.6516 -3.3901 -0.1602
  695MOL0     H95855   4.909   9.353   1.741 -1.6155  1.2626 -0.0777
  695MOL0     H95856   4.842   9.296   1.583 -2.4985  0.1330 -0.9623
  695MOL0     H95857   4.785   9.206   1.860 -0.5663 -2.0228  0.3036
  695MOL0     H95858   4.690   9.138   1.739 -0.7278  1.2431 -0.4836
  695MOL0     H95859   4.981   9.076   1.923  0.6868 -0.9454 -0.3985
  695MOL0     H95860   5.138   8.790   1.891 -1.8553  0.2917 -2.0207
  695MOL0     H95861   5.238   8.939   1.895  0.3590 -0.3907  0.9030
  695MOL0     H95862   5.228   8.741   1.655  3.5425 -2.0226 -1.0975
  695MOL0     H95863   5.336   8.882   1.682  2.2003 -2.1316 -2.0842
  695MOL0     H95864   5.319   8.610   1.828  1.0836  0.0263 -0.0134
  695MOL0     H95865   5.447   8.680   1.727 -1.2107  1.4215 -1.4956
  695MOL0     H95866   5.378   8.764   2.001 -0.7159  0.5226 -0.5348
  695MOL0     H95867   5.505   8.668   1.955 -2.7025 -0.7914  1.5967
  695MOL0     H95868   5.723   8.821   2.044 -0.6711 -2.1463 -0.6808
  695MOL0     H95869   5.971   8.709   2.046 -1.0325  1.0010  0.8514
  695MOL0     H95870   6.020   8.879   2.061  0.8035  1.4669 -0.9926
  695MOL0     H95871   6.084   8.772   1.934 -2.5642  0.9291 -2.4525
  695MOL0     H95872   6.320   9.104   1.722 -0.2610  1.4150 -0.5640
  695MOL0     H95873   6.519   9.119   1.601  0.5959 -1.9985  0.2214
  695MOL0     H95874   6.562   8.822   1.286 -1.6051  1.6034  1.9936
  695MOL0     H95875   6.518   8.947   1.166 -2.0809  1.6477  1.3283
  695MOL0     H95876   6.749   8.908   1.090  0.0133  1.2029  0.0175
  695MOL0     H95877   6.763   9.038   1.210  1.6546 -0.4184 -0.0792
  695MOL0     H95878   6.773   8.749   1.303  0.4138  0.9640  0.0449
  695MOL0     H95879   6.825   8.891   1.383 -1.0840 -0.6465  0.8639
  695MOL0     H95880   7.004   8.926   1.207 -0.1153  0.4340  2.5517
  695MOL0     H95881   6.953   8.790   1.119 -0.8860 -0.3904 -0.0330
  695MOL0     H95882   7.117   8.795   1.372 -0.5167 -0.8339  0.9431
  695MOL0     H95883   7.016   8.645   1.349  0.9393 -0.7381  0.3129
  695MOL0     H95884   7.209   8.752   1.165  0.6250  0.4105  0.9877
  695MOL0     H95885   7.108   8.617   1.126  1.6619  0.0611 -2.0505
  695MOL0     H95886   7.339   8.648   1.324 -2.6367  1.2061  1.0818
  695MOL0     H95887   7.324   8.522   1.188 -1.9236 -1.6952 -0.4514
  695MOL0     H95888   7.305   8.406   1.383  1.3400  0.6983 -0.4404
  695MOL0     H95889   7.139   8.428   1.334  0.0574  0.3554 -0.0062
  695MOL0     H95890   6.343   8.866   1.292  0.5829 -1.2874  0.9339
  695MOL0     H95891   6.124   8.896   1.409  0.6460  0.7322 -3.2204
  695MOL0     H95892   5.846   8.974   1.595  1.1815  0.1074  0.9247
  695MOL0     H95893   5.599   8.968   1.669 -0.0540  1.4726  1.4031
  695MOL0     H95894   3.825   9.371   1.600  1.0446 -2.3551 -3.5348
  695MOL0     H95895   3.592   9.388   1.500 -2.2589  2.0652 -0.5878
  695MOL0     H95896   3.297   9.278   1.166 -0.7640  0.7297  0.2127
  695MOL0     H95897   3.063   9.281   1.119  0.7398 -0.1037  0.1266
  695MOL0     H95898   2.868   9.339   1.000  0.7585 -0.5652  0.5154
  695MOL0     H95899   2.811   9.346   1.172 -0.5918  1.1870  0.2433
  695MOL0     H95900   2.664   9.550   1.041 -1.6020  1.0453 -0.4011
  695MOL0     H95901   2.601   9.380   1.073  1.2109  1.4104  0.5442
  695MOL0     H95902   2.719   9.480   0.821  0.0731  1.0407  1.3202
  695MOL0     H95903   2.657   9.314   0.848 -2.8061  0.1016 -2.4135
  695MOL0     H95904   2.489   9.468   0.720 -3.3378 -0.0772 -0.4345
  695MOL0     H95905   2.474   9.551   0.878  1.1658 -2.4473  3.5228
  695MOL0     H95906   2.244   9.205   0.914 -2.1884  1.8644 -0.6506
  695MOL0     H95907   3.053   9.717   1.180  0.9211  1.0152  0.5362
  695MOL0     H95908   3.323   9.781   1.324 -1.9068 -0.2740  0.1955
  695MOL0     H95909   3.388   9.771   1.153 -0.5341  0.4673 -0.6718
  695MOL0     H95910   3.221   9.833   1.195  0.1679  1.1871  0.7771
  696MOL0     O95911   5.876   4.707   9.985  1.0382 -0.3236  0.2749
  696MOL0     C95912   5.789   4.655  10.052 -0.7138 -0.5370  0.1878
  696MOL0     O95913   5.790   4.525  10.086  0.0742 -0.1001  0.5130
  696MOL0     C95914   5.899   4.451  10.068 -0.1560  0.4532 -0.9291
  696MOL0     C95915   5.887   4.341   9.988  0.8440  0.0799 -0.2404
  696MOL0     C95916   5.994   4.266   9.950  0.9391  0.3214 -0.4282
  696MOL0     C95917   6.119   4.291  10.011 -0.1331  0.6435 -0.1194
  696MOL0     O95918   6.206   4.196   9.980  0.3080 -0.2847 -0.3142
  696MOL0     C95919   6.349   4.220  10.001  0.3768 -0.5478  0.1972
  696MOL0     C95920   6.405   4.083   9.991  0.3001  0.4067 -0.9202
  696MOL0     C95921   6.555   4.071  10.036  0.1132  0.8404  0.4306
  696MOL0     C95922   6.635   3.944   9.993  1.2061  0.6187  0.1499
  696MOL0     C95923   6.778   3.952  10.015  0.7313 -0.1613 -0.9336
  696MOL0     C95924   6.860   3.823   9.981  0.9339  0.1005 -0.3526
  696MOL0     C95925   6.891   3.736  10.095 -0.2117 -0.7702  0.1488
  696MOL0     C95926   7.015   3.764  10.184 -0.0228 -0.6515 -0.8921
  696MOL0     N95927   7.140   3.748  10.104  0.0571  0.1955  0.3214
  696MOL0     C95928   7.201   3.624  10.057  0.0689  0.2242  0.2568
  696MOL0     C95929   7.311   3.672   9.991 -0.3961 -0.8552  0.2224
  696MOL0     C95930   7.414   3.600   9.914 -0.2297 -0.6603 -0.2918
  696MOL0     C95931   7.541   3.566   9.992 -0.1136 -0.7295 -0.3551
  696MOL0     C95932   7.525   3.453  10.087 -0.2217 -0.1693  0.2650
  696MOL0     C95933   7.660   3.404  10.141 -0.2518  0.2988 -0.4269
  696MOL0     O95934   7.745   3.515  10.178 -0.1373  0.5930  0.1680
  696MOL0     C95935   7.818   3.512  10.297 -0.1738  0.5039  0.1020
  696MOL0     C95936   7.817   3.410  10.394  0.4873  0.6546 -0.5563
  696MOL0     C95937   7.901   3.400  10.515 -0.0632  1.3920  1.1949
  696MOL0     C95938   7.874   3.296  10.625 -0.9685  0.0807  0.2770
  696MOL0     C95939   8.001   3.495  10.521  0.3439 -0.2999 -0.3016
  696MOL0     C95940   8.100   3.520  10.639  0.9451 -0.1833  0.1539
  696MOL0     O95941   8.209   3.599  10.610  0.1429 -0.6153  0.7768
  696MOL0     C95942   8.303   3.615  10.702  0.9684 -0.3195  0.1067
  696MOL0     C95943   8.306   3.736  10.777  0.1926  0.1723 -0.2590
  696MOL0     C95944   8.412   3.769  10.860  0.5983  0.1508  1.0956
  696MOL0     C95945   8.515   3.676  10.882  0.2091 -0.0512  0.2637
  696MOL0     O95946   8.610   3.710  10.971 -0.8635 -0.2930  0.2528
  696MOL0     C95947   8.745   3.656  10.967  0.1780 -0.6366  0.0847
  696MOL0     C95948   8.841   3.712  11.069 -1.0842  0.0562 -0.2659
  696MOL0     C95949   8.982   3.634  11.067 -1.2455  0.8607 -0.4150
  696MOL0     C95950   9.078   3.688  11.175  0.0050  0.7638 -0.5523
  696MOL0     C95951   9.204   3.596  11.173 -0.0890 -0.6271  1.0207
  696MOL0     C95952   9.296   3.627  11.286  0.4340  0.1985 -0.1597
  696MOL0     C95953   9.420   3.536  11.288 -0.5674  1.1830 -0.1916
  696MOL0     C95954   9.530   3.595  11.382  0.3571  0.4426  0.1525
  696MOL0    Cl95955   9.683   3.541  11.311  0.1527  0.2388  0.5476
  696MOL0     C95956   8.504   3.553  10.821  0.1856  0.4341 -0.0289
  696MOL0     C95957   8.399   3.524  10.733 -0.7157  0.0392  0.8707
  696MOL0     O95958   8.062   3.476  10.745 -0.3947  0.2569 -0.3995
  696MOL0     C95959   8.019   3.590  10.416  0.5913  1.0929 -0.8409
  696MOL0     C95960   7.928   3.601  10.306  0.3683  0.2661  0.0749
  696MOL0     N95961   7.311   3.816   9.990 -0.6632 -0.4271 -0.2692
  696MOL0     N95962   7.210   3.858  10.060  0.8480  0.4287  0.4084
  696MOL0     C95963   6.135   4.403  10.096 -0.7188 -0.2541  0.6952
  696MOL0     C95964   6.021   4.479  10.126 -0.1269  0.4889 -0.3947
  696MOL0     C95965   5.662   4.737  10.085 -0.1318 -0.0310  0.1574
  696MOL0     C95966   5.545   4.667  10.133 -0.6579 -1.6936 -0.3133
  696MOL0     C95967   5.419   4.730  10.150  0.4496 -0.1070 -0.2960
  696MOL0     C95968   5.409   4.864  10.121  1.0744 -0.3814  0.5057
  696MOL0     O95969   5.286   4.923  10.129 -0.4468  0.3083 -0.9932
  696MOL0     C95970   5.277   5.063  10.149 -0.2300 -0.0173  0.3519
  696MOL0     C95971   5.140   5.098  10.203  0.3029  0.6052 -0.2214
  696MOL0     C95972   5.022   5.070  10.116  0.4191 -0.7912 -0.7927
  696MOL0     C95973   4.889   5.131  10.173 -0.9085 -0.3544 -0.2205
  696MOL0     C95974   4.891   5.279  10.141  0.4780  0.1173  0.4752
  696MOL0     C95975   4.873   5.393  10.117 -0.1166 -0.1858  0.9133
  696MOL0     C95976   5.520   4.936  10.081  1.3200  0.6525  0.3933
  696MOL0     C95977   5.646   4.875  10.058  1.4983 -0.4409  0.3406
  696MOL0     C95978   5.750   4.961   9.987  0.3800  0.3695  0.3260
  696MOL0     H95979   5.782   4.336   9.960 -0.5223 -0.7299  4.2399
  696MOL0     H95980   5.990   4.186   9.877 -2.1244  0.2720 -0.3368
  696MOL0     H95981   6.367   4.269  10.097 -0.2705  1.6370 -0.7302
  696MOL0     H95982   6.400   4.282   9.926 -1.0979 -0.3383 -0.6878
  696MOL0     H95983   6.348   4.010  10.049  1.4544 -0.8123 -1.2691
  696MOL0     H95984   6.394   4.058   9.885  2.1434 -3.3113 -0.3929
  696MOL0     H95985   6.607   4.155   9.990  0.3133  1.7608  2.2597
  696MOL0     H95986   6.572   4.086  10.143 -0.8408 -1.3646  0.9585
  696MOL0     H95987   6.597   3.859  10.050  0.0713  1.3626  0.5349
  696MOL0     H95988   6.624   3.923   9.886 -1.0572  1.5152  0.1621
  696MOL0     H95989   6.785   3.979  10.121 -1.6567  1.4350 -1.1298
  696MOL0     H95990   6.814   4.033   9.952  0.3071  0.3498 -0.5235
  696MOL0     H95991   6.802   3.773   9.903 -1.7631  0.7204  1.1421
  696MOL0     H95992   6.956   3.860   9.943  0.5280  1.4864 -0.0721
  696MOL0     H95993   6.887   3.632  10.063  0.1665 -1.0885  1.0795
  696MOL0     H95994   6.810   3.751  10.167  0.0635  0.7333  0.1831
  696MOL0     H95995   7.004   3.868  10.218 -1.8687 -2.0024  3.3911
  696MOL0     H95996   7.012   3.691  10.266 -1.0784 -0.7938 -1.0424
  696MOL0     H95997   7.183   3.518  10.063  2.2573 -0.2103  0.0313
  696MOL0     H95998   7.436   3.654   9.821 -0.5697  1.7716  0.9826
  696MOL0     H95999   7.368   3.504   9.888 -0.3147 -0.9967  1.0374
  696MOL0     H96000   7.627   3.540   9.929  0.5785 -1.2521  0.7676
  696MOL0     H96001   7.573   3.655  10.047 -1.5019 -2.1548  3.0604
  696MOL0     H96002   7.464   3.497  10.167 -0.3896  0.1784 -0.0485
  696MOL0     H96003   7.480   3.365  10.041 -1.5821  1.1952 -1.1085
  696MOL0     H96004   7.639   3.348  10.232  1.8551 -0.4944 -0.3825
  696MOL0     H96005   7.703   3.331  10.072 -2.2098  0.6852 -2.1783
  696MOL0     H96006   7.748   3.327  10.380 -1.5930  2.0954  0.6860
  696MOL0     H96007   7.779   3.245  10.604 -1.3405  1.8886 -3.4112
  696MOL0     H96008   7.854   3.355  10.715 -2.2469  1.2365 -0.7045
  696MOL0     H96009   7.952   3.222  10.640 -2.4218 -1.3266  1.2882
  696MOL0     H96010   8.211   3.786  10.767  0.4938  0.4038 -2.4179
  696MOL0     H96011   8.408   3.871  10.898  0.4155  1.8146 -2.9183
  696MOL0     H96012   8.744   3.547  10.971 -1.4863 -0.6538 -0.2014
  696MOL0     H96013   8.785   3.686  10.870 -0.3240  0.7921  0.2928
  696MOL0     H96014   8.860   3.817  11.044  1.1875  0.1575  1.5089
  696MOL0     H96015   8.793   3.695  11.166 -0.9553 -0.9727 -0.3723
  696MOL0     H96016   9.035   3.646  10.972  1.6964 -1.5716  0.7461
  696MOL0     H96017   8.962   3.530  11.093 -1.5084  1.1938  0.7969
  696MOL0     H96018   9.023   3.685  11.270  0.4924  0.5046 -0.2750
  696MOL0     H96019   9.099   3.791  11.145 -0.5994  0.7160 -1.1714
  696MOL0     H96020   9.165   3.494  11.176 -0.4505 -0.6338 -1.5967
  696MOL0     H96021   9.268   3.599  11.084 -1.9454 -3.7254 -0.5727
  696MOL0     H96022   9.244   3.608  11.381  1.8370 -0.7551  0.4450
  696MOL0     H96023   9.322   3.733  11.273 -0.8610  0.3826 -1.6341
  696MOL0     H96024   9.456   3.532  11.185 -2.8891  0.6658 -1.0523
  696MOL0     H96025   9.395   3.432  11.309 -0.4564  0.4212 -3.2920
  696MOL0     H96026   9.515   3.549  11.480 -1.1905  1.0308  0.2211
  696MOL0     H96027   9.522   3.704  11.393  3.0526  0.6246  1.0709
  696MOL0     H96028   8.572   3.471  10.838 -0.4997 -0.2498 -0.4861
  696MOL0     H96029   8.405   3.430  10.680  4.4237  0.7985 -0.4727
  696MOL0     H96030   8.093   3.669  10.419  1.5455  0.2021 -0.3516
  696MOL0     H96031   7.942   3.667  10.221  0.5538  0.9095  0.5899
  696MOL0     H96032   6.231   4.423  10.142 -1.8154  0.1116  2.9594
  696MOL0     H96033   6.029   4.568  10.188  3.1022 -0.8433  1.3411
  696MOL0     H96034   5.540   4.562  10.163 -2.2627 -1.7466 -0.7159
  696MOL0     H96035   5.331   4.676  10.183  0.8838 -0.8341 -0.3027
  696MOL0     H96036   5.351   5.102  10.220  0.2832 -1.1099  0.4436
  696MOL0     H96037   5.290   5.116  10.054 -0.3585 -1.2099 -0.3490
  696MOL0     H96038   5.133   5.204  10.231  1.1052  0.1201  2.0480
  696MOL0     H96039   5.133   5.037  10.294  0.9566  0.8196 -0.0171
  696MOL0     H96040   5.036   5.103  10.012 -0.0094 -1.2947 -1.0186
  696MOL0     H96041   5.007   4.962  10.117 -0.7087 -0.6445 -0.7562
  696MOL0     H96042   4.871   5.108  10.278  1.8838 -0.8580  0.2260
  696MOL0     H96043   4.805   5.086  10.118  0.2583 -3.5075  0.3816
  696MOL0     H96044   4.856   5.495  10.089 -1.7728 -0.8781 -0.8148
  696MOL0     H96045   5.521   5.044  10.068  2.4688  0.4715 -1.3366
  696MOL0     H96046   5.731   5.064  10.015 -2.0833  0.2149 -0.5141
  696MOL0     H96047   5.852   4.932  10.014  0.0453 -2.3822 -0.9997
  696MOL0     H96048   5.735   4.955   9.878 -0.3741 -2.0458  0.4927
  697MOL0     O96049   3.634   4.574   7.342  0.1495  0.2827  0.1253
  697MOL0     C96050   3.574   4.492   7.277  1.4416 -0.5916 -0.7784
  697MOL0     O96051   3.633   4.392   7.206  0.5909 -0.0033 -0.2299
  697MOL0     C96052   3.769   4.383   7.210  0.7270 -0.1227  0.4060
  697MOL0     C96053   3.836   4.315   7.312 -0.0519 -0.3428 -0.3860
  697MOL0     C96054   3.976   4.315   7.312 -0.7179  0.6363 -0.0493
  697MOL0     C96055   4.047   4.373   7.205 -0.4125 -0.3132  0.1909
  697MOL0     O96056   4.185   4.371   7.184  0.6308  0.1151 -0.0647
  697MOL0     C96057   4.252   4.299   7.287 -0.5082  0.2041  0.3176
  697MOL0     C96058   4.406   4.304   7.258 -0.3809 -0.2789 -0.1943
  697MOL0     C96059   4.445   4.210   7.146 -0.9410 -0.3690  0.8815
  697MOL0     C96060   4.594   4.198   7.131  0.0148 -0.3997  0.7237
  697MOL0     C96061   4.649   4.304   7.034 -0.1937 -0.1934  0.0609
  697MOL0     C96062   4.798   4.289   7.000  0.0815 -0.4851 -0.2868
  697MOL0     C96063   4.899   4.354   7.094 -0.2173  0.3645  0.0289
  697MOL0     C96064   5.038   4.295   7.077 -1.0478  0.4890 -0.1092
  697MOL0     N96065   5.111   4.344   6.958 -0.2501 -0.0579 -0.1653
  697MOL0     C96066   5.107   4.278   6.838 -0.4637  0.4069  0.1628
  697MOL0     C96067   5.195   4.339   6.753  1.2730 -0.2816 -0.2540
  697MOL0     C96068   5.244   4.310   6.612  0.1104 -0.2717 -0.3452
  697MOL0     C96069   5.351   4.202   6.602  0.1175 -0.1213 -0.2813
  697MOL0     C96070   5.489   4.248   6.659  0.5862 -0.0496 -1.0673
  697MOL0     C96071   5.613   4.204   6.582  0.2522 -0.4728  1.3347
  697MOL0     O96072   5.713   4.170   6.675  0.7546 -0.2770  0.0623
  697MOL0     C96073   5.841   4.179   6.628 -0.8055  0.8870 -0.2312
  697MOL0     C96074   5.892   4.087   6.533  0.0174  0.2104 -0.6468
  697MOL0     C96075   6.024   4.093   6.488 -0.0370 -0.0058  0.0635
  697MOL0     C96076   6.064   3.990   6.388 -0.4113 -0.5922  0.5604
  697MOL0     C96077   6.107   4.198   6.536  0.1279  0.1402 -0.2148
  697MOL0     C96078   6.256   4.203   6.519 -0.9025 -0.6998 -0.0835
  697MOL0     O96079   6.334   4.304   6.588  0.8520 -0.2605  0.1771
  697MOL0     C96080   6.462   4.316   6.563 -0.0692  0.6581  0.1771
  697MOL0     C96081   6.545   4.211   6.606 -0.3275 -0.1218  0.1185
  697MOL0     C96082   6.679   4.222   6.595  0.1267 -1.1189 -0.4275
  697MOL0     C96083   6.735   4.320   6.518 -0.0769 -0.1795 -0.1937
  697MOL0     O96084   6.870   4.334   6.496  0.0770  0.1254  1.1456
  697MOL0     C96085   6.956   4.225   6.515  0.4154 -0.4356  0.1571
  697MOL0     C96086   6.934   4.106   6.423  0.8687  0.6961 -0.6377
  697MOL0     C96087   6.985   4.134   6.275  0.0766  0.2273  0.4527
  697MOL0     C96088   6.906   4.243   6.212 -0.7283 -0.4938  0.0673
  697MOL0     C96089   6.978   4.270   6.072 -0.0905  0.4140 -1.1316
  697MOL0     C96090   6.952   4.163   5.949 -0.5545 -0.7735 -0.0026
  697MOL0     C96091   6.807   4.177   5.890 -0.7686  0.9716 -0.0227
  697MOL0     C96092   6.791   4.083   5.770  0.6464 -0.0017 -0.6193
  697MOL0    Cl96093   6.917   4.127   5.653 -0.1296 -0.3626  0.0103
  697MOL0     C96094   6.652   4.419   6.469 -0.6349 -0.7570  0.5555
  697MOL0     C96095   6.515   4.423   6.488  0.3254  0.9645  0.4542
  697MOL0     O96096   6.302   4.142   6.427  0.4376  0.3224 -0.6681
  697MOL0     C96097   6.052   4.295   6.627 -1.0982 -0.6019 -0.0903
  697MOL0     C96098   5.925   4.282   6.676 -0.0006 -0.7557  0.1172
  697MOL0     N96099   5.243   4.448   6.823 -0.1792  0.1926 -0.2560
  697MOL0     N96100   5.199   4.440   6.944 -0.7166 -1.1401  0.1433
  697MOL0     C96101   3.974   4.442   7.114 -1.1793  0.1475  0.0023
  697MOL0     C96102   3.838   4.450   7.107  0.2593  0.4752 -0.5788
  697MOL0     C96103   3.434   4.521   7.262  0.1217 -0.0697 -0.1799
  697MOL0     C96104   3.372   4.580   7.375  0.5980 -0.6488 -1.1970
  697MOL0     C96105   3.237   4.590   7.379 -0.0225 -0.2791  0.8347
  697MOL0     C96106   3.165   4.574   7.267 -0.0832 -0.3078  0.6829
  697MOL0     O96107   3.030   4.608   7.273  0.4793 -0.1651 -0.0654
  697MOL0     C96108   2.948   4.613   7.155 -1.1093 -0.4835 -0.3178
  697MOL0     C96109   2.864   4.487   7.157  0.1263  0.1837 -0.1453
  697MOL0     C96110   2.783   4.487   7.027 -0.8458  0.7576  0.0960
  697MOL0     C96111   2.644   4.556   7.032  0.4818 -0.0931  0.0322
  697MOL0     C96112   2.550   4.493   7.121 -0.6824  0.4579  0.5184
  697MOL0     C96113   2.480   4.442   7.204 -0.1303 -0.0674  0.2618
  697MOL0     C96114   3.224   4.518   7.152 -0.5816 -0.0603  0.4797
  697MOL0     C96115   3.356   4.486   7.145 -1.4461 -0.1861 -0.3848
  697MOL0     C96116   3.410   4.425   7.023  0.0013 -0.6059 -0.2928
  697MOL0     H96117   3.773   4.279   7.393  1.1562  0.1398  0.8143
  697MOL0     H96118   4.025   4.259   7.392 -0.9440  1.1520  0.4522
  697MOL0     H96119   4.218   4.195   7.286 -0.2087  0.0796 -1.5343
  697MOL0     H96120   4.223   4.348   7.380 -4.9510 -2.5720  0.6868
  697MOL0     H96121   4.436   4.409   7.244  3.4756 -1.2360 -0.1392
  697MOL0     H96122   4.443   4.273   7.356 -2.4824  0.2343  0.8191
  697MOL0     H96123   4.401   4.111   7.162 -0.8572 -0.9245 -1.8359
  697MOL0     H96124   4.417   4.240   7.045  2.6176 -1.7078 -0.6639
  697MOL0     H96125   4.651   4.217   7.222 -0.9976  3.6239  0.6765
  697MOL0     H96126   4.604   4.097   7.090  0.1039  0.1135 -0.5608
  697MOL0     H96127   4.627   4.400   7.083  1.7078  0.6526 -0.6512
  697MOL0     H96128   4.591   4.301   6.941  1.7343  3.2807 -1.4750
  697MOL0     H96129   4.821   4.184   6.978  0.1498  0.1094 -3.5221
  697MOL0     H96130   4.826   4.341   6.908  5.3056 -0.9931  0.7380
  697MOL0     H96131   4.868   4.341   7.198 -0.9761  1.5451 -0.0318
  697MOL0     H96132   4.901   4.462   7.075  1.7590  0.3313 -0.1750
  697MOL0     H96133   5.096   4.320   7.167 -0.5840 -1.3920  0.1426
  697MOL0     H96134   5.038   4.186   7.075  4.3405  0.1567  1.5371
  697MOL0     H96135   5.055   4.187   6.811  0.2995 -0.1531  0.5338
  697MOL0     H96136   5.279   4.407   6.575  0.2204 -0.4783 -0.7828
  697MOL0     H96137   5.161   4.277   6.549  0.9920 -1.6087 -0.8517
  697MOL0     H96138   5.317   4.127   6.673 -0.7121  1.1533  0.7038
  697MOL0     H96139   5.353   4.166   6.498 -2.1200 -0.6581 -0.1904
  697MOL0     H96140   5.484   4.357   6.647  2.6081  0.0807 -1.2238
  697MOL0     H96141   5.498   4.234   6.767  0.5138  1.0498 -0.9081
  697MOL0     H96142   5.589   4.117   6.520 -1.2284  0.7659  0.0924
  697MOL0     H96143   5.647   4.284   6.515 -1.5365  1.5265  2.7144
  697MOL0     H96144   5.822   4.014   6.494  1.4470 -1.0049 -1.0291
  697MOL0     H96145   5.976   3.930   6.363 -2.0900  2.1745 -0.6310
  697MOL0     H96146   6.144   3.923   6.422 -1.0093 -0.3392  2.5925
  697MOL0     H96147   6.098   4.032   6.293 -1.6085  0.3972  0.5477
  697MOL0     H96148   6.512   4.123   6.661 -0.5840  0.7488  1.4155
  697MOL0     H96149   6.741   4.145   6.639 -0.3817 -0.7558  0.9733
  697MOL0     H96150   7.059   4.249   6.486  1.6259 -4.6112  0.3636
  697MOL0     H96151   6.959   4.191   6.619  0.3174 -1.4449 -0.1599
  697MOL0     H96152   7.000   4.032   6.469 -0.1251 -0.6989 -1.3519
  697MOL0     H96153   6.830   4.072   6.425  1.0831 -0.0159 -0.9737
  697MOL0     H96154   6.984   4.042   6.217  0.3259  1.6692 -1.9602
  697MOL0     H96155   7.092   4.153   6.279  0.5555 -2.0154 -0.2792
  697MOL0     H96156   6.913   4.341   6.260 -0.3949 -1.1821  1.4504
  697MOL0     H96157   6.800   4.217   6.214 -0.8669 -0.2342 -1.8535
  697MOL0     H96158   6.951   4.371   6.040 -0.4880  1.2513  1.5974
  697MOL0     H96159   7.087   4.269   6.084  0.0459 -0.1290 -2.2861
  697MOL0     H96160   6.979   4.062   5.983  3.3461 -0.6190 -2.0049
  697MOL0     H96161   7.030   4.183   5.875  0.3968  2.1590  1.6429
  697MOL0     H96162   6.791   4.282   5.865 -0.3230  0.3979 -3.1902
  697MOL0     H96163   6.736   4.161   5.971 -3.4759  0.8135 -2.3042
  697MOL0     H96164   6.689   4.090   5.729 -1.0207  0.7145  3.2136
  697MOL0     H96165   6.817   3.981   5.800  1.2118 -0.2521 -1.9039
  697MOL0     H96166   6.691   4.498   6.406 -2.5909 -0.1982 -0.0103
  697MOL0     H96167   6.446   4.498   6.452  1.5956  1.7749 -0.3666
  697MOL0     H96168   6.121   4.368   6.667 -0.2279 -1.6807  0.4472
  697MOL0     H96169   5.887   4.356   6.747 -0.4165  2.0112 -2.7760
  697MOL0     H96170   4.022   4.499   7.035 -2.4280  0.7048 -0.3917
  697MOL0     H96171   3.778   4.490   7.026 -1.2146 -0.1196  0.1890
  697MOL0     H96172   3.415   4.604   7.471  1.0910  2.5365 -2.0928
  697MOL0     H96173   3.179   4.611   7.468 -1.7999 -3.2652  0.5052
  697MOL0     H96174   2.882   4.700   7.152 -1.4375 -0.7407 -0.5873
  697MOL0     H96175   3.004   4.637   7.065 -1.1809  2.4971  0.3212
  697MOL0     H96176   2.793   4.486   7.240 -1.4184  0.2985 -1.4136
  697MOL0     H96177   2.924   4.396   7.167 -0.5072  0.0072  3.1561
  697MOL0     H96178   2.846   4.542   6.956  0.9652  1.1570  1.8999
  697MOL0     H96179   2.764   4.386   6.991 -0.6516  0.6928  0.1722
  697MOL0     H96180   2.599   4.567   6.933 -0.0959  2.3398  0.5016
  697MOL0     H96181   2.662   4.658   7.068  1.6908  0.1091 -1.0854
  697MOL0     H96182   2.414   4.385   7.266 -0.5372  0.4590  0.3157
  697MOL0     H96183   3.162   4.501   7.065 -2.4504 -0.3292  1.7923
  697MOL0     H96184   3.416   4.318   7.045 -0.6294 -0.4631  0.6500
  697MOL0     H96185   3.349   4.447   6.935  0.0145 -0.1423 -0.1903
  697MOL0     H96186   3.508   4.471   7.009 -0.9070  1.8239  0.7148
  698MOL0     O96187   6.842   6.848   2.420 -0.7885 -0.5594  0.2447
  698MOL0     C96188   6.741   6.820   2.481  0.8557  0.7344 -0.0763
  698MOL0     O96189   6.737   6.726   2.576  0.1632 -0.2483  0.8217
  698MOL0     C96190   6.865   6.687   2.615 -0.3415  0.1260 -0.2199
  698MOL0     C96191   6.933   6.762   2.706 -0.4265  0.1409  0.1109
  698MOL0     C96192   7.049   6.712   2.755 -0.8473  0.3942  0.5043
  698MOL0     C96193   7.100   6.583   2.719  0.2369 -0.3559  0.4194
  698MOL0     O96194   7.222   6.544   2.767  0.0715  0.2949 -1.4334
  698MOL0     C96195   7.316   6.466   2.682  0.1084 -0.0397 -0.4204
  698MOL0     C96196   7.460   6.486   2.747  0.2031  1.4110 -0.8259
  698MOL0     C96197   7.563   6.397   2.672  0.1603  0.1715  0.5444
  698MOL0     C96198   7.575   6.256   2.735  0.4984 -0.0875  0.3413
  698MOL0     C96199   7.688   6.169   2.664  0.4409 -0.0130  0.2377
  698MOL0     C96200   7.721   6.035   2.736 -0.0307  0.1850 -0.1615
  698MOL0     C96201   7.830   5.948   2.662  0.2095 -0.2951 -0.3347
  698MOL0     C96202   7.961   6.025   2.668 -0.2693 -0.6993 -0.1008
  698MOL0     N96203   8.075   5.947   2.605  0.0914  0.1019 -0.1826
  698MOL0     C96204   8.141   5.834   2.655  0.6554 -0.2844  0.2762
  698MOL0     C96205   8.234   5.804   2.565  1.2459  1.0631  0.1344
  698MOL0     C96206   8.345   5.703   2.595  0.1509 -0.5150 -0.0528
  698MOL0     C96207   8.458   5.764   2.680  0.2867 -0.0060 -0.7266
  698MOL0     C96208   8.564   5.675   2.730 -0.1800  0.7246  0.1585
  698MOL0     C96209   8.648   5.585   2.634  0.2983 -0.9472 -0.8269
  698MOL0     O96210   8.699   5.665   2.521  0.1764  0.3662  0.3150
  698MOL0     C96211   8.808   5.626   2.449  0.6373 -0.2692  0.5345
  698MOL0     C96212   8.852   5.490   2.432  0.4099 -1.0330 -1.1144
  698MOL0     C96213   8.966   5.463   2.354 -0.7215 -0.6064  0.9696
  698MOL0     C96214   9.001   5.317   2.325  0.3598  0.0455  0.8116
  698MOL0     C96215   9.042   5.565   2.292  0.1939 -1.1166 -0.6298
  698MOL0     C96216   9.170   5.553   2.214  0.0713 -0.2003  0.0287
  698MOL0     O96217   9.234   5.670   2.183  0.2978  0.4199  0.3439
  698MOL0     C96218   9.347   5.675   2.108  0.2079 -0.3936 -0.7938
  698MOL0     C96219   9.445   5.579   2.118 -0.1272  0.2192  0.8107
  698MOL0     C96220   9.573   5.594   2.050 -0.4149  0.2927  0.3149
  698MOL0     C96221   9.602   5.708   1.979  0.0067  0.4621  0.3223
  698MOL0     O96222   9.725   5.701   1.916 -0.1669  0.1442  0.1085
  698MOL0     C96223   9.768   5.806   1.818 -0.1834 -0.8579 -0.2355
  698MOL0     C96224   9.902   5.781   1.753 -0.1084 -0.5714  0.4521
  698MOL0     C96225  10.010   5.717   1.843  0.5722 -0.0296 -0.3794
  698MOL0     C96226  10.145   5.766   1.789 -0.4693  0.2809  0.2531
  698MOL0     C96227  10.264   5.672   1.825 -0.8876  0.2911  0.1550
  698MOL0     C96228  10.301   5.682   1.978 -0.2862  0.0826  0.1386
  698MOL0     C96229  10.419   5.590   2.020  0.7500  0.5590  0.4996
  698MOL0     C96230  10.423   5.583   2.177 -0.3096  0.5765  0.5510
  698MOL0    Cl96231  10.556   5.470   2.232  0.5211  0.3231  0.1245
  698MOL0     C96232   9.497   5.806   1.964  0.4580 -0.0359 -0.4579
  698MOL0     C96233   9.377   5.787   2.034 -0.8091 -0.1519 -1.3096
  698MOL0     O96234   9.206   5.443   2.187  0.0038  0.3095 -0.5497
  698MOL0     C96235   8.993   5.695   2.310  0.3507 -0.2961  0.6638
  698MOL0     C96236   8.872   5.731   2.377 -0.1078  1.3957  0.3004
  698MOL0     N96237   8.232   5.894   2.468  0.8098  0.7435 -0.0432
  698MOL0     N96238   8.131   5.977   2.485 -0.0927 -0.5696  0.1224
  698MOL0     C96239   7.035   6.512   2.620  0.4759  0.6721  0.1297
  698MOL0     C96240   6.919   6.567   2.559  0.1499  0.2521 -0.3916
  698MOL0     C96241   6.604   6.887   2.454  0.2761 -0.1791  0.3920
  698MOL0     C96242   6.593   6.945   2.326  0.3195 -0.1300 -0.1193
  698MOL0     C96243   6.478   7.020   2.295 -0.7554 -0.4684  0.0012
  698MOL0     C96244   6.376   7.038   2.388  0.5561  0.6907  0.6323
  698MOL0     O96245   6.269   7.119   2.346  0.0321  0.1107  0.3582
  698MOL0     C96246   6.136   7.078   2.354  0.3222  0.2545 -0.4671
  698MOL0     C96247   6.068   7.054   2.219 -0.3479 -0.2820  0.2284
  698MOL0     C96248   5.912   7.026   2.247 -0.5937 -0.2595  0.0494
  698MOL0     C96249   5.830   7.008   2.120 -0.3560 -0.2748 -0.0749
  698MOL0     C96250   5.688   7.005   2.149  0.0452  0.2613  0.0038
  698MOL0     C96251   5.573   7.001   2.173  0.5089  0.6996  0.4575
  698MOL0     C96252   6.384   6.983   2.511  0.2933 -1.0899  0.2533
  698MOL0     C96253   6.499   6.914   2.550 -0.9731  0.1830  0.0212
  698MOL0     C96254   6.520   6.882   2.700 -0.1568  0.4925 -0.5688
  698MOL0     H96255   6.893   6.842   2.768  1.3604  0.4495  0.9332
  698MOL0     H96256   7.114   6.765   2.824  2.6461 -0.7660 -1.5912
  698MOL0     H96257   7.318   6.498   2.577 -1.6003  1.6044 -0.0321
  698MOL0     H96258   7.294   6.359   2.691 -1.4578  0.2659 -0.1559
  698MOL0     H96259   7.492   6.591   2.743 -0.3698  1.5647 -1.7178
  698MOL0     H96260   7.455   6.460   2.854 -0.1247  2.8017 -0.4826
  698MOL0     H96261   7.524   6.381   2.571  0.4358  0.9741  0.3067
  698MOL0     H96262   7.659   6.447   2.660  1.1298 -1.6732  0.3587
  698MOL0     H96263   7.606   6.273   2.838  0.1456  0.9045  0.3009
  698MOL0     H96264   7.477   6.208   2.729  0.1010  0.6947  0.4426
  698MOL0     H96265   7.775   6.236   2.659 -0.9292  1.7847 -0.6098
  698MOL0     H96266   7.673   6.150   2.558 -0.5532  0.3067  0.3145
  698MOL0     H96267   7.748   6.054   2.840 -0.4038  2.2401 -0.3990
  698MOL0     H96268   7.637   5.965   2.723  0.4101  0.0153 -2.7938
  698MOL0     H96269   7.802   5.934   2.557 -0.4288 -2.8547  0.1155
  698MOL0     H96270   7.842   5.850   2.708  2.4206  0.3014  0.4904
  698MOL0     H96271   7.950   6.120   2.616 -1.5419 -0.7006  0.1507
  698MOL0     H96272   7.981   6.056   2.771 -1.4237  0.8051 -0.3069
  698MOL0     H96273   8.131   5.780   2.748  2.0011  1.3019  1.4025
  698MOL0     H96274   8.387   5.674   2.498  0.5525  0.3347 -0.1377
  698MOL0     H96275   8.302   5.616   2.647  3.2261 -2.3815 -0.3446
  698MOL0     H96276   8.505   5.851   2.634 -0.6206  1.9529  1.7860
  698MOL0     H96277   8.412   5.800   2.773 -0.1819 -0.7963 -0.6497
  698MOL0     H96278   8.638   5.737   2.781  0.4175  1.6096 -1.6955
  698MOL0     H96279   8.524   5.604   2.803  0.9483  0.4044  0.4879
  698MOL0     H96280   8.732   5.550   2.695 -0.0039  0.4884  0.4892
  698MOL0     H96281   8.600   5.493   2.599 -0.0223 -0.5675 -1.3951
  698MOL0     H96282   8.788   5.413   2.474  1.0717 -1.7399 -1.3769
  698MOL0     H96283   9.103   5.297   2.359  1.1124 -0.4173 -1.5461
  698MOL0     H96284   8.997   5.294   2.219 -0.3501  0.7930  0.6704
  698MOL0     H96285   8.935   5.248   2.378  1.7029  1.0064  4.0172
  698MOL0     H96286   9.450   5.490   2.179  0.7561 -1.2501 -1.2873
  698MOL0     H96287   9.641   5.510   2.053 -1.4329 -0.7202 -2.1253
  698MOL0     H96288   9.694   5.827   1.740 -0.6896 -0.2607  0.3931
  698MOL0     H96289   9.768   5.902   1.870 -3.1381 -1.3069  0.7834
  698MOL0     H96290   9.877   5.714   1.670  0.1021  0.2121 -0.2646
  698MOL0     H96291   9.940   5.874   1.709 -1.8801 -0.4300 -0.8984
  698MOL0     H96292   9.998   5.608   1.842  1.3039 -0.1148 -0.4826
  698MOL0     H96293   9.988   5.742   1.947 -1.5962 -0.9255 -0.5562
  698MOL0     H96294  10.156   5.866   1.830 -3.9012  1.3079 -0.9832
  698MOL0     H96295  10.140   5.782   1.681 -2.3454  3.5647  0.7207
  698MOL0     H96296  10.255   5.565   1.802  0.2155 -0.5446  3.1166
  698MOL0     H96297  10.352   5.682   1.762 -1.5614 -1.6953 -1.2099
  698MOL0     H96298  10.209   5.643   2.024  0.1689 -3.3156 -1.5177
  698MOL0     H96299  10.316   5.786   2.010 -2.4641  1.0912 -1.7769
  698MOL0     H96300  10.515   5.626   1.981  0.4902  0.5726 -0.1441
  698MOL0     H96301  10.396   5.493   1.976 -1.3341  1.5329 -0.7561
  698MOL0     H96302  10.328   5.543   2.213  1.3847 -1.9406  2.5852
  698MOL0     H96303  10.437   5.685   2.215  0.2788  0.4293  0.7358
  698MOL0     H96304   9.515   5.895   1.905  1.4448  2.1243  2.8188
  698MOL0     H96305   9.308   5.871   2.037  0.9531  1.3118  0.3265
  698MOL0     H96306   9.037   5.777   2.254 -0.3377 -0.0089  0.5235
  698MOL0     H96307   8.847   5.834   2.399 -1.7249  0.9628  0.6306
  698MOL0     H96308   7.074   6.419   2.579 -1.0597  0.7628 -1.6877
  698MOL0     H96309   6.865   6.516   2.480  0.1728  0.7282 -0.7161
  698MOL0     H96310   6.677   6.951   2.257 -1.2790 -1.3979 -2.3187
  698MOL0     H96311   6.477   7.089   2.211  0.8019  2.4501  2.1702
  698MOL0     H96312   6.122   6.985   2.410  0.3087  0.6814  0.2461
  698MOL0     H96313   6.086   7.156   2.412  0.6497  1.1505 -1.3572
  698MOL0     H96314   6.108   6.975   2.155 -1.1644 -0.6755  0.1792
  698MOL0     H96315   6.086   7.143   2.160  0.5111 -0.2743  0.4866
  698MOL0     H96316   5.915   6.931   2.302  2.1215  0.4142  1.2061
  698MOL0     H96317   5.867   7.109   2.302  1.4379  0.6707  0.3663
  698MOL0     H96318   5.862   6.915   2.072  0.9802  0.6427 -1.0391
  698MOL0     H96319   5.838   7.088   2.046 -1.9400 -3.6070 -4.2642
  698MOL0     H96320   5.466   6.989   2.172  0.6258 -0.4175 -0.0660
  698MOL0     H96321   6.314   6.999   2.593  1.4152 -2.8183  1.6132
  698MOL0     H96322   6.583   6.952   2.755  1.1036  0.2313 -1.6413
  698MOL0     H96323   6.423   6.876   2.752 -0.5129 -2.3568 -1.3780
  698MOL0     H96324   6.545   6.776   2.705 -0.1183  0.2602 -3.6561
  699MOL0     O96325  11.309   5.683   0.217 -0.7249  0.0425 -0.3984
  699MOL0     C96326  11.216   5.640   0.275  0.2448 -0.8724  0.4778
  699MOL0     O96327  11.226   5.550   0.381 -0.1859  0.5106 -0.0894
  699MOL0     C96328  11.350   5.544   0.448 -0.2266  0.4963  0.7872
  699MOL0     C96329  11.437   5.655   0.464  0.2573 -0.4850 -0.7772
  699MOL0     C96330  11.557   5.631   0.525  0.2247  0.2469 -0.8840
  699MOL0     C96331  11.600   5.503   0.577 -0.4334 -0.1174 -0.0188
  699MOL0     O96332  11.731   5.483   0.614 -0.1058  0.2717 -0.6756
  699MOL0     C96333  11.773   5.549   0.737  1.3484 -0.1571 -0.2438
  699MOL0     C96334  11.918   5.511   0.771 -0.3542 -0.1639 -0.2374
  699MOL0     C96335  11.993   5.611   0.682 -0.1480 -0.2988 -0.4110
  699MOL0     C96336  12.151   5.607   0.710 -0.7337  0.7748  0.4178
  699MOL0     C96337  12.244   5.707   0.635  0.1785 -0.6988  0.1344
  699MOL0     C96338  12.393   5.696   0.666  0.0086 -0.3651 -0.2704
  699MOL0     C96339  12.434   5.767   0.795  0.6342  0.4500  0.3286
  699MOL0     C96340  12.578   5.740   0.841 -0.1203  0.0969 -0.0491
  699MOL0     N96341  12.673   5.830   0.768 -0.0534  0.4141  0.4346
  699MOL0     C96342  12.686   5.970   0.801 -0.3499  0.9290 -0.1509
  699MOL0     C96343  12.790   6.008   0.727  0.1954 -1.0864  0.1179
  699MOL0     C96344  12.848   6.146   0.740  1.1070 -0.0558 -0.7782
  699MOL0     C96345  12.877   6.206   0.602  0.5351  0.8571 -0.1010
  699MOL0     C96346  12.900   6.355   0.598 -0.6612  0.5142  0.2613
  699MOL0     C96347  13.022   6.410   0.681  0.2004  0.1562  0.1372
  699MOL0     O96348  13.153   6.351   0.649 -0.2645  0.2793  0.2547
  699MOL0     C96349  13.227   6.408   0.548 -0.5944  0.4710 -0.4038
  699MOL0     C96350  13.363   6.394   0.562 -0.8676  0.9192 -0.6931
  699MOL0     C96351  13.460   6.440   0.478 -0.1659 -1.0095 -0.2245
  699MOL0     C96352  13.605   6.401   0.505  0.2962  0.0958  0.5030
  699MOL0     C96353  13.416   6.531   0.373 -0.5492  0.0082 -0.2082
  699MOL0     C96354  13.513   6.601   0.280 -0.5752 -0.1384  0.4659
  699MOL0     O96355  13.645   6.573   0.283  0.3059  0.7682  0.4219
  699MOL0     C96356  13.729   6.611   0.179 -0.1419 -0.9163 -0.4531
  699MOL0     C96357  13.692   6.605   0.046  0.2356 -1.0275 -0.2386
  699MOL0     C96358  13.779   6.624  -0.059  0.3248  0.2493 -0.3994
  699MOL0     C96359  13.917   6.646  -0.038  0.4578 -0.0368 -0.2025
  699MOL0     O96360  14.007   6.675  -0.138  0.0927 -0.0341 -0.2532
  699MOL0     C96361  14.082   6.805  -0.118 -1.0671  0.3597  0.0792
  699MOL0     C96362  14.041   6.919  -0.207 -1.7094 -0.5460  0.2817
  699MOL0     C96363  14.076   6.870  -0.349 -0.2859  0.6822  0.3812
  699MOL0     C96364  14.053   6.976  -0.450  0.9206  0.2145  0.6878
  699MOL0     C96365  14.090   6.932  -0.588  0.3915 -0.1491  0.1858
  699MOL0     C96366  14.074   7.045  -0.687  0.5659  0.0602 -0.2046
  699MOL0     C96367  14.114   7.000  -0.827 -0.3976  0.6892 -0.1025
  699MOL0     C96368  14.119   7.108  -0.928  0.0889 -0.1139  0.8995
  699MOL0    Cl96369  14.241   7.227  -0.888  0.1418 -0.4328  0.2942
  699MOL0     C96370  13.960   6.646   0.093  0.1983 -0.2518 -0.0207
  699MOL0     C96371  13.861   6.624   0.203  0.4005 -0.5616  0.7025
  699MOL0     O96372  13.455   6.684   0.202  0.4810 -0.1770 -0.5204
  699MOL0     C96373  13.279   6.546   0.358  0.6140 -0.8190 -0.3292
  699MOL0     C96374  13.188   6.499   0.453  0.4297  0.4686 -0.1636
  699MOL0     N96375  12.842   5.903   0.647  0.8126  0.0331 -0.0633
  699MOL0     N96376  12.762   5.799   0.669 -0.8978  0.3569 -0.4820
  699MOL0     C96377  11.512   5.394   0.561 -0.3581  0.1090 -0.7281
  699MOL0     C96378  11.385   5.418   0.498 -0.2260  0.6383  0.1320
  699MOL0     C96379  11.085   5.680   0.230 -0.6676  0.0618 -0.6375
  699MOL0     C96380  10.923   5.597   0.333  0.0542  0.9567  0.6995
  699MOL0     C96381  10.726   5.660   0.284  0.1529 -0.5991  0.9288
  699MOL0     C96382  10.692   5.811   0.134 -0.6712 -0.5099  0.4082
  699MOL0     O96383  10.565   5.833   0.095  0.1031  0.5950 -0.4952
  699MOL0     C96384  10.554   5.944   0.003 -0.5401  1.1033 -0.4573
  699MOL0     C96385  10.585   6.080   0.074  0.4993 -0.5710 -0.1599
  699MOL0     C96386  10.481   6.108   0.182  0.1416  0.4518 -0.0916
  699MOL0     C96387  10.520   6.223   0.275  0.0882  0.2141  0.1377
  699MOL0     C96388  10.530   6.348   0.203 -0.3044  0.0024  0.2709
  699MOL0     C96389  10.568   6.445   0.142  0.4168  0.5172  0.8374
  699MOL0     C96390  10.857   5.895   0.042 -0.6323 -0.6695  0.4541
  699MOL0     C96391  11.051   5.832   0.081  0.3239 -0.2294  0.6014
  699MOL0     C96392  11.164   5.881  -0.003  0.0952  0.6487 -0.2912
  699MOL0     H96393  11.416   5.753   0.423 -1.9311  0.0389  1.3878
  699MOL0     H96394  11.625   5.715   0.541 -0.0030  0.1469  0.7502
  699MOL0     H96395  11.719   5.522   0.828  2.9795  1.0155  1.1266
  699MOL0     H96396  11.758   5.657   0.730 -0.9253 -0.4762 -1.3445
  699MOL0     H96397  11.944   5.525   0.877  0.5533  0.2164 -0.4984
  699MOL0     H96398  11.931   5.404   0.752 -1.0930 -0.5619  1.3087
  699MOL0     H96399  11.971   5.586   0.578 -1.1176  1.2081 -0.6046
  699MOL0     H96400  11.957   5.713   0.694  0.5042 -0.2432  1.3052
  699MOL0     H96401  12.165   5.598   0.818 -2.4726 -2.1773  0.4994
  699MOL0     H96402  12.173   5.505   0.678 -0.6099  1.3626 -1.4959
  699MOL0     H96403  12.218   5.808   0.667  1.5319 -1.3091  3.5599
  699MOL0     H96404  12.232   5.693   0.527 -2.6219  0.4725  0.2258
  699MOL0     H96405  12.434   5.594   0.664  1.2362  0.1264 -2.3838
  699MOL0     H96406  12.440   5.743   0.579  0.0320 -1.7041 -1.0095
  699MOL0     H96407  12.371   5.737   0.879  0.8323 -1.0878 -0.0359
  699MOL0     H96408  12.417   5.875   0.787  1.7626  0.6694  0.7734
  699MOL0     H96409  12.586   5.761   0.948  2.7516  2.0754 -0.5197
  699MOL0     H96410  12.597   5.634   0.822  0.4128 -0.1997  1.9285
  699MOL0     H96411  12.624   6.020   0.874 -0.6295 -0.0640  0.3034
  699MOL0     H96412  12.941   6.140   0.798  0.1057  0.9016  1.0265
  699MOL0     H96413  12.787   6.207   0.808  2.3703  0.6326 -0.2133
  699MOL0     H96414  12.965   6.153   0.563 -1.2324 -1.1115 -1.6608
  699MOL0     H96415  12.797   6.186   0.530 -1.3545 -1.2599  2.4364
  699MOL0     H96416  12.900   6.389   0.494  1.0057  0.4947  0.2340
  699MOL0     H96417  12.813   6.400   0.648 -1.5208 -2.7847  1.9997
  699MOL0     H96418  13.018   6.519   0.672 -1.0403  0.3500  2.2740
  699MOL0     H96419  13.005   6.389   0.787 -1.0196 -0.9677 -0.2637
  699MOL0     H96420  13.387   6.333   0.648 -3.3933  0.0513 -0.4965
  699MOL0     H96421  13.674   6.486   0.511 -0.0762  0.8697 -3.4502
  699MOL0     H96422  13.637   6.329   0.428 -0.9720  2.0675 -1.9935
  699MOL0     H96423  13.606   6.346   0.599 -0.0540  0.7988  0.9199
  699MOL0     H96424  13.596   6.581   0.000  0.7955 -0.8342 -1.5478
  699MOL0     H96425  13.738   6.614  -0.159 -0.9328  0.1342  0.1127
  699MOL0     H96426  14.063   6.840  -0.016 -1.8103  0.3562 -0.0561
  699MOL0     H96427  14.191   6.791  -0.124 -0.3921  2.4406  3.9791
  699MOL0     H96428  13.933   6.928  -0.196 -1.8519  2.3675 -2.2192
  699MOL0     H96429  14.100   7.008  -0.183 -1.0574 -0.3889 -1.6949
  699MOL0     H96430  14.011   6.787  -0.378  0.5197 -0.0645  0.6623
  699MOL0     H96431  14.174   6.827  -0.372  0.1536  1.8119  0.0454
  699MOL0     H96432  14.112   7.066  -0.433 -0.5223  1.4622 -0.6137
  699MOL0     H96433  13.948   7.006  -0.436  0.9767  1.5772 -1.4544
  699MOL0     H96434  14.196   6.904  -0.586  0.5065  0.2979  1.4028
  699MOL0     H96435  14.038   6.842  -0.622 -0.1455  0.8465 -1.7465
  699MOL0     H96436  14.142   7.125  -0.655  0.9676 -0.6809  0.8362
  699MOL0     H96437  13.978   7.096  -0.702  0.2484 -0.3759  0.3376
  699MOL0     H96438  14.033   6.933  -0.856  1.1311 -1.3414  0.1410
  699MOL0     H96439  14.212   6.954  -0.818 -0.2637  0.8628 -0.6240
  699MOL0     H96440  14.022   7.157  -0.925  0.3559  0.3798  2.7366
  699MOL0     H96441  14.142   7.061  -1.024  5.0161  1.2284  1.1113
  699MOL0     H96442  14.062   6.658   0.131 -0.0220  1.5620  0.0843
  699MOL0     H96443  13.875   6.618   0.311 -0.7677  0.0852  0.9090
  699MOL0     H96444  13.242   6.619   0.287 -0.6605 -1.0005  0.1213
  699MOL0     H96445  13.085   6.533   0.447  0.4607  0.2720 -3.0652
  699MOL0     H96446  11.547   5.301   0.605  2.3151  0.2072 -2.3734
  699MOL0     H96447  11.318   5.332   0.490 -0.7643  1.1753 -1.8607
  699MOL0     H96448  10.934   5.528   0.417  0.4084  1.1941  0.8522
  699MOL0     H96449  10.640   5.620   0.336 -1.3499  2.0871  0.7145
  699MOL0     H96450  10.631   5.923  -0.072 -0.2696  3.9419 -1.0970
  699MOL0     H96451  10.465   5.947  -0.060 -0.2993 -1.2402 -1.0233
  699MOL0     H96452  10.572   6.154  -0.005 -1.1315  1.5404  1.9155
  699MOL0     H96453  10.690   6.091   0.103 -0.0050 -2.0422  2.6414
  699MOL0     H96454  10.387   6.126   0.129 -0.7487 -1.9143  0.5693
  699MOL0     H96455  10.463   6.017   0.240  0.1012  0.0865 -0.6686
  699MOL0     H96456  10.612   6.188   0.323  0.6169 -0.6091 -1.3850
  699MOL0     H96457  10.443   6.234   0.351  1.4935  0.2667  1.6072
  699MOL0     H96458  10.588   6.529   0.078 -0.2619  0.1305  0.1015
  699MOL0     H96459  10.837   5.974  -0.030 -0.7158  0.4320  1.6353
  699MOL0     H96460  11.241   5.806  -0.020 -0.3632  0.3172 -0.9527
  699MOL0     H96461  11.131   5.916  -0.101  3.0180 -0.0124 -1.6120
  699MOL0     H96462  11.214   5.960   0.055 -2.4754  0.0725  3.0155
  700MOL0     O96463  11.202  10.053   8.285 -0.2586  0.7996 -0.2313
  700MOL0     C96464  11.132  10.051   8.379  0.5133 -0.3612 -0.3256
  700MOL0     O96465  11.170  10.080   8.511  0.5176  1.1661  0.4524
  700MOL0     C96466  11.304  10.098   8.532 -1.4162  0.5122 -1.0589
  700MOL0     C96467  11.352  10.222   8.588 -0.0470 -0.5367 -0.9562
  700MOL0     C96468  11.493  10.258   8.597  0.3040  0.8037 -0.2429
  700MOL0     C96469  11.590  10.180   8.536  0.1921  0.4737  0.0328
  700MOL0     O96470  11.717  10.224   8.536 -0.1632  0.2245 -0.4140
  700MOL0     C96471  11.793  10.175   8.425  0.2197 -0.1202 -1.0040
  700MOL0     C96472  11.895  10.067   8.485  0.2182 -0.6029 -0.1621
  700MOL0     C96473  11.956   9.987   8.368 -0.4132 -0.7257 -0.5550
  700MOL0     C96474  12.096   9.942   8.401 -0.8604  0.2228  0.4479
  700MOL0     C96475  12.123   9.823   8.306 -0.1533  0.3552  0.4856
  700MOL0     C96476  12.096   9.683   8.359 -0.3543  0.6848  1.0432
  700MOL0     C96477  12.164   9.643   8.485  0.8100  0.3390  0.7902
  700MOL0     C96478  12.147   9.499   8.527  0.3240  0.2646 -0.6185
  700MOL0     N96479  12.011   9.465   8.576 -0.2075 -0.0856 -0.8826
  700MOL0     C96480  11.917   9.548   8.640 -0.8953  0.4088 -0.0537
  700MOL0     C96481  11.796   9.503   8.607  0.4363 -0.7156 -0.0720
  700MOL0     C96482  11.669   9.569   8.658 -0.4324 -0.5251 -0.1528
  700MOL0     C96483  11.593   9.651   8.549 -0.7004 -0.1826  0.1137
  700MOL0     C96484  11.535   9.549   8.445 -0.7379 -0.2092 -0.3937
  700MOL0     C96485  11.451   9.432   8.496  0.3496  0.2679 -0.2269
  700MOL0     O96486  11.394   9.362   8.382  0.7412 -0.6506  0.7626
  700MOL0     C96487  11.258   9.335   8.366 -0.5095 -0.2571  0.6153
  700MOL0     C96488  11.200   9.332   8.239 -0.2713  0.8152  0.6176
  700MOL0     C96489  11.065   9.300   8.222  0.0198  1.1387  0.7480
  700MOL0     C96490  11.016   9.294   8.082  0.1813  0.3979  0.9856
  700MOL0     C96491  10.983   9.273   8.336 -0.1843  0.3486 -0.3473
  700MOL0     C96492  10.836   9.240   8.328 -0.2109 -0.5940  0.0230
  700MOL0     O96493  10.783   9.187   8.436  0.7052  0.1145  0.0898
  700MOL0     C96494  10.652   9.138   8.428 -0.8372 -0.3709 -0.1615
  700MOL0     C96495  10.628   9.005   8.393  0.1095 -0.4014  0.1522
  700MOL0     C96496  10.500   8.951   8.379  0.2345  0.1618 -0.5242
  700MOL0     C96497  10.384   9.033   8.405  0.0632 -0.1154  0.2990
  700MOL0     O96498  10.257   8.995   8.401  0.1668  0.6025 -0.4641
  700MOL0     C96499  10.193   9.048   8.280  0.0890  0.7633 -0.0858
  700MOL0     C96500  10.130   8.929   8.210  0.5267  0.0505  0.1427
  700MOL0     C96501  10.066   8.971   8.069 -0.5849 -0.2095  0.4357
  700MOL0     C96502   9.949   8.872   8.037  0.6803 -0.3465 -0.2140
  700MOL0     C96503   9.894   8.908   7.890 -0.2351 -0.5899 -0.6885
  700MOL0     C96504   9.758   8.834   7.869  0.5501  0.4685 -0.0462
  700MOL0     C96505   9.680   8.882   7.750  0.4746  0.3510  0.0785
  700MOL0     C96506   9.545   8.834   7.720  0.3745  0.1726  0.2078
  700MOL0    Cl96507   9.552   8.659   7.687 -0.5501 -0.5978 -0.2032
  700MOL0     C96508  10.406   9.166   8.452 -0.4252 -0.5577  0.4758
  700MOL0     C96509  10.539   9.216   8.461 -0.2717  0.5115 -0.4754
  700MOL0     O96510  10.777   9.258   8.220 -0.3347 -0.3461  0.3604
  700MOL0     C96511  11.045   9.292   8.465 -0.5107 -0.6398  0.7189
  700MOL0     C96512  11.179   9.322   8.473 -0.1246  0.0911 -0.3636
  700MOL0     N96513  11.805   9.385   8.549 -0.3123 -0.0112  0.2697
  700MOL0     N96514  11.933   9.362   8.519  0.1611  0.2193 -0.3327
  700MOL0     C96515  11.544  10.047   8.510  0.0881  0.5713 -0.0285
  700MOL0     C96516  11.408  10.011   8.506  0.0611  0.5443 -0.9646
  700MOL0     C96517  10.982  10.042   8.351 -0.5662  0.2285  0.4995
  700MOL0     C96518  10.896  10.081   8.459  0.2931  1.1376  0.2493
  700MOL0     C96519  10.763  10.084   8.446 -0.6399 -0.3493  0.4593
  700MOL0     C96520  10.709  10.048   8.324  0.8435 -1.5720  0.8675
  700MOL0     O96521  10.573  10.056   8.334 -0.6976 -0.2335  0.2039
  700MOL0     C96522  10.495  10.015   8.215 -0.5292  0.3255 -0.0862
  700MOL0     C96523  10.347  10.051   8.233 -0.2395  0.0015  0.1466
  700MOL0     C96524  10.243   9.987   8.137 -0.0560 -0.7993  0.5634
  700MOL0     C96525  10.100  10.019   8.186 -0.3641 -0.6185  0.3656
  700MOL0     C96526  10.005   9.965   8.092 -0.1162 -0.7336  1.0685
  700MOL0     C96527   9.943   9.917   8.008  0.8005 -0.1030 -0.3148
  700MOL0     C96528  10.781  10.010   8.212 -0.4230  0.0502  0.3675
  700MOL0     C96529  10.920  10.011   8.224  0.0046  0.2354  0.3396
  700MOL0     C96530  10.991   9.972   8.096 -0.0351  0.9704 -0.2201
  700MOL0     H96531  11.272  10.288   8.618 -1.7379 -2.0029 -2.0362
  700MOL0     H96532  11.528  10.353   8.637  0.8748  1.3045 -1.8519
  700MOL0     H96533  11.853  10.260   8.392 -0.3206  0.1714 -1.2411
  700MOL0     H96534  11.737  10.130   8.343  1.9373 -1.5480 -1.4706
  700MOL0     H96535  11.969  10.118   8.547 -2.4911  2.8855  0.5287
  700MOL0     H96536  11.846  10.001   8.557  1.1190 -0.3528  0.6950
  700MOL0     H96537  11.889   9.900   8.365  0.2873 -1.4206  1.8437
  700MOL0     H96538  11.945  10.041   8.274 -3.2644  0.8075  0.5261
  700MOL0     H96539  12.168  10.022   8.380  3.1148 -2.8387  1.2183
  700MOL0     H96540  12.108   9.922   8.508 -1.3112 -0.0738  0.4470
  700MOL0     H96541  12.228   9.829   8.273 -0.3632  0.5542 -0.1619
  700MOL0     H96542  12.061   9.821   8.216  1.6578 -2.0447 -0.8478
  700MOL0     H96543  11.989   9.674   8.375 -0.2150 -2.3400  0.9495
  700MOL0     H96544  12.132   9.622   8.275 -1.1562  0.7304  0.6529
  700MOL0     H96545  12.120   9.703   8.565  0.7485  0.2418  0.8297
  700MOL0     H96546  12.271   9.664   8.490  0.6499  0.9214  3.0277
  700MOL0     H96547  12.188   9.424   8.458 -2.3857  1.2413 -3.5115
  700MOL0     H96548  12.217   9.490   8.611  0.9331 -0.5708 -1.1913
  700MOL0     H96549  11.953   9.642   8.682  0.1398 -0.2969  0.6856
  700MOL0     H96550  11.697   9.646   8.730 -1.2324  0.0090 -0.3982
  700MOL0     H96551  11.603   9.496   8.707  1.9035 -2.0819  0.8890
  700MOL0     H96552  11.515   9.711   8.595  0.0568 -0.1391  1.4033
  700MOL0     H96553  11.660   9.721   8.498 -1.3073  0.1526 -0.2244
  700MOL0     H96554  11.477   9.614   8.379 -0.9776  1.7877  1.6397
  700MOL0     H96555  11.624   9.506   8.399  0.5505 -1.1006  2.6486
  700MOL0     H96556  11.512   9.363   8.555  3.8344  2.0969 -1.4409
  700MOL0     H96557  11.376   9.466   8.569  1.8435 -0.2888  1.6568
  700MOL0     H96558  11.272   9.363   8.163  0.8553  2.5288  2.2878
  700MOL0     H96559  10.973   9.196   8.059 -1.3990  1.3961 -0.5593
  700MOL0     H96560  11.092   9.310   8.005 -2.4806 -1.7385 -2.3682
  700MOL0     H96561  10.935   9.365   8.063  1.4987  0.7942 -5.3007
  700MOL0     H96562  10.710   8.941   8.362 -0.1057 -1.4536  1.6746
  700MOL0     H96563  10.472   8.856   8.335 -1.4913  0.5213 -0.2839
  700MOL0     H96564  10.122   9.126   8.308  0.5419  0.5648  1.7361
  700MOL0     H96565  10.257   9.106   8.212 -0.7936  1.9133  0.0411
  700MOL0     H96566  10.198   8.843   8.215  0.5227  0.0445  0.1093
  700MOL0     H96567  10.051   8.894   8.277  1.3080 -2.0360  0.0724
  700MOL0     H96568  10.128   8.958   7.980 -2.1479  0.9896 -0.8868
  700MOL0     H96569  10.032   9.075   8.062  4.0089  1.6859  1.9453
  700MOL0     H96570   9.865   8.874   8.107 -0.6883 -1.6139 -1.7523
  700MOL0     H96571   9.980   8.767   8.041  0.9592 -0.3226 -1.3682
  700MOL0     H96572   9.883   9.017   7.889  2.0247 -0.2824  0.9185
  700MOL0     H96573   9.969   8.884   7.815 -0.1712  1.9125 -1.5259
  700MOL0     H96574   9.691   8.841   7.955 -0.6184 -1.2413 -0.7586
  700MOL0     H96575   9.778   8.726   7.867  0.1389  0.3330  1.7596
  700MOL0     H96576   9.745   8.865   7.663  2.6783 -1.1893  1.9040
  700MOL0     H96577   9.668   8.990   7.762 -1.1006  0.0436  1.6082
  700MOL0     H96578   9.497   8.877   7.632  0.8293 -0.5242 -0.3890
  700MOL0     H96579   9.471   8.854   7.799  0.7455 -5.0968  2.3010
  700MOL0     H96580  10.314   9.221   8.469  1.0238  1.4862  2.2628
  700MOL0     H96581  10.547   9.319   8.495 -0.7264  1.1830 -2.3309
  700MOL0     H96582  10.979   9.292   8.551 -0.3246 -1.3636  0.8660
  700MOL0     H96583  11.229   9.335   8.569  2.3933  0.6576 -1.6586
  700MOL0     H96584  11.623   9.976   8.489 -2.3102 -2.0005 -0.9684
  700MOL0     H96585  11.384   9.907   8.484  1.1221 -0.6963  2.9519
  700MOL0     H96586  10.934  10.113   8.556  2.3504  0.1640 -0.1834
  700MOL0     H96587  10.701  10.116   8.529 -2.2192  1.5368 -1.3666
  700MOL0     H96588  10.520  10.071   8.124 -0.2441  1.7994  0.8571
  700MOL0     H96589  10.514   9.910   8.192 -2.1165  0.3197 -1.5669
  700MOL0     H96590  10.335  10.159   8.234 -2.8979 -0.1795 -2.0704
  700MOL0     H96591  10.319  10.014   8.332  1.1230 -0.8905  0.2274
  700MOL0     H96592  10.263  10.035   8.041  1.0290 -2.8071 -0.2529
  700MOL0     H96593  10.258   9.880   8.129 -4.6830 -1.9005  2.6157
  700MOL0     H96594  10.079  10.126   8.190 -0.5955 -0.4891 -2.5016
  700MOL0     H96595  10.087   9.976   8.286  1.0983 -0.4681  0.6457
  700MOL0     H96596   9.877   9.872   7.936 -2.3849 -0.0700  2.3602
  700MOL0     H96597  10.727   9.984   8.122 -0.1861  0.4421  0.1076
  700MOL0     H96598  10.912   9.979   8.021  0.2420  1.8742 -0.4376
  700MOL0     H96599  11.070  10.046   8.081  2.2803 -1.4170 -0.5686
  700MOL0     H96600  11.041   9.875   8.085 -0.6866  0.8940 -3.4218
  701MOL0     O96601   3.426   1.946   9.179  0.3781  0.2531 -0.0497
  701MOL0     C96602   3.481   2.029   9.252  0.1265 -0.4154  0.1026
  701MOL0     O96603   3.606   2.071   9.232  0.3540  0.5762 -0.3967
  701MOL0     C96604   3.677   1.992   9.147 -0.0549 -0.9341  0.7501
  701MOL0     C96605   3.696   1.851   9.157  0.6205  0.0793 -0.3358
  701MOL0     C96606   3.784   1.782   9.074 -0.6023 -0.4185 -0.4648
  701MOL0     C96607   3.864   1.851   8.984 -0.6038  0.2509  0.3072
  701MOL0     O96608   3.956   1.787   8.898 -0.6926  0.7506 -0.2243
  701MOL0     C96609   4.016   1.665   8.937  0.3608 -0.8866 -0.5145
  701MOL0     C96610   4.101   1.601   8.821 -0.0082 -0.5230 -0.1848
  701MOL0     C96611   4.202   1.692   8.749 -0.0549 -0.0505 -0.3739
  701MOL0     C96612   4.267   1.618   8.640  0.1579  0.6406 -0.0473
  701MOL0     C96613   4.375   1.695   8.566 -0.2016 -0.2818  0.0920
  701MOL0     C96614   4.440   1.591   8.460  0.0477  0.1710 -0.2712
  701MOL0     C96615   4.565   1.526   8.533  1.0298  0.0689 -0.1270
  701MOL0     C96616   4.638   1.422   8.440  0.7808 -0.8242 -0.2695
  701MOL0     N96617   4.775   1.397   8.487  0.1654 -0.5775 -0.4011
  701MOL0     C96618   4.882   1.476   8.444  1.3930  0.1541 -0.3666
  701MOL0     C96619   4.995   1.435   8.508  0.5439 -0.0998  0.1359
  701MOL0     C96620   5.132   1.492   8.499 -0.1784 -0.2403 -0.1632
  701MOL0     C96621   5.145   1.609   8.597  0.3090 -0.4918 -0.0918
  701MOL0     C96622   5.286   1.664   8.579  1.3219 -0.1137  0.1933
  701MOL0     C96623   5.305   1.798   8.661 -0.7668  0.2366  0.6779
  701MOL0     O96624   5.420   1.864   8.604 -0.3029  0.3980 -0.2153
  701MOL0     C96625   5.545   1.838   8.649 -0.1380 -0.6869  0.2477
  701MOL0     C96626   5.641   1.933   8.615  1.8155 -0.1550  0.2860
  701MOL0     C96627   5.774   1.928   8.660  0.1802 -0.2707  0.2281
  701MOL0     C96628   5.877   2.027   8.608  0.3171 -0.6478  0.1449
  701MOL0     C96629   5.815   1.814   8.732 -0.0585  0.1789 -0.4743
  701MOL0     C96630   5.952   1.788   8.789 -0.7650 -0.3770  0.2887
  701MOL0     O96631   5.980   1.655   8.808 -0.1390 -0.6671 -0.3226
  701MOL0     C96632   6.076   1.614   8.894  0.2019 -0.1479 -0.4592
  701MOL0     C96633   6.101   1.678   9.017 -0.2001  0.5093  0.0133
  701MOL0     C96634   6.213   1.638   9.085  0.0482  0.2288 -0.5162
  701MOL0     C96635   6.289   1.526   9.051  0.2443  0.8810 -0.4675
  701MOL0     O96636   6.404   1.491   9.118 -0.2986 -0.1272  0.8423
  701MOL0     C96637   6.460   1.586   9.210 -0.9548  0.2346  0.6171
  701MOL0     C96638   6.612   1.542   9.229  0.4310  0.9258  0.5022
  701MOL0     C96639   6.639   1.405   9.298 -0.1954 -0.1861  0.7149
  701MOL0     C96640   6.782   1.392   9.323 -0.4272  0.6824  0.6026
  701MOL0     C96641   6.813   1.257   9.390  0.0249  0.1620 -0.1790
  701MOL0     C96642   6.885   1.265   9.523  0.4725  0.7667  0.2886
  701MOL0     C96643   6.900   1.128   9.569 -0.4841 -0.2245 -0.1701
  701MOL0     C96644   6.945   1.113   9.719  0.2670 -0.5732  0.7781
  701MOL0    Cl96645   7.092   1.226   9.751  0.1050  0.5399  0.0477
  701MOL0     C96646   6.249   1.446   8.944 -0.0446 -0.1454  0.1017
  701MOL0     C96647   6.144   1.495   8.860 -0.2627 -0.1325  0.2552
  701MOL0     O96648   6.023   1.879   8.820 -0.1504 -0.0476 -0.4906
  701MOL0     C96649   5.720   1.705   8.754 -0.3849 -0.3342  0.0666
  701MOL0     C96650   5.589   1.726   8.727  0.6935 -0.1036 -0.5081
  701MOL0     N96651   4.951   1.326   8.590 -0.9619 -0.1718  0.1451
  701MOL0     N96652   4.820   1.309   8.578 -0.2492  0.9643  0.3814
  701MOL0     C96653   3.843   1.986   8.960  0.4886  0.3800 -0.5227
  701MOL0     C96654   3.747   2.051   9.040  0.1435 -0.5613  0.1726
  701MOL0     C96655   3.403   2.075   9.376  0.0581  0.4963 -0.1489
  701MOL0     C96656   3.485   2.138   9.481  0.1016 -0.1759 -0.8886
  701MOL0     C96657   3.432   2.177   9.601 -0.7620 -1.2066  0.3003
  701MOL0     C96658   3.298   2.148   9.631  0.0675  0.3824  0.0014
  701MOL0     O96659   3.264   2.177   9.764  0.3718  0.9526  0.3189
  701MOL0     C96660   3.137   2.230   9.793 -0.0063 -0.3607 -0.1751
  701MOL0     C96661   3.128   2.369   9.715 -0.5652 -0.8995 -0.6615
  701MOL0     C96662   2.989   2.420   9.735  0.5993  0.4462 -0.3433
  701MOL0     C96663   2.967   2.564   9.697 -0.2524 -0.0233 -0.2640
  701MOL0     C96664   3.027   2.599   9.566 -0.1725  0.1059  0.3022
  701MOL0     C96665   3.059   2.626   9.450 -0.1303 -0.4713 -0.1436
  701MOL0     C96666   3.215   2.092   9.534  0.8265  0.0002  0.5097
  701MOL0     C96667   3.266   2.052   9.405  0.0276  0.0908  0.0304
  701MOL0     C96668   3.167   1.991   9.306 -0.1655  1.3617 -0.3193
  701MOL0     H96669   3.657   1.793   9.240  2.8539  1.8333  2.1350
  701MOL0     H96670   3.802   1.675   9.080  0.8978 -0.2493 -1.4477
  701MOL0     H96671   3.946   1.590   8.977  1.3484 -0.7251  1.6854
  701MOL0     H96672   4.087   1.686   9.017 -1.6766  0.3696  1.0799
  701MOL0     H96673   4.150   1.516   8.870  1.2919 -0.5094 -1.4180
  701MOL0     H96674   4.031   1.565   8.745 -1.9923  1.4461  0.5916
  701MOL0     H96675   4.141   1.776   8.713 -0.9894  0.7009  2.7073
  701MOL0     H96676   4.276   1.731   8.818 -1.0155  2.2065 -0.5205
  701MOL0     H96677   4.314   1.533   8.690  1.6860  0.6028 -1.4785
  701MOL0     H96678   4.196   1.580   8.566 -0.4306  0.5899  0.5313
  701MOL0     H96679   4.450   1.743   8.629 -0.7525  0.2995  0.3219
  701MOL0     H96680   4.333   1.780   8.510  1.0897  0.0496 -0.4259
  701MOL0     H96681   4.363   1.522   8.426  1.8843 -3.2264  1.8793
  701MOL0     H96682   4.474   1.648   8.373 -0.9153  0.5263 -0.4195
  701MOL0     H96683   4.530   1.472   8.621 -0.3219  0.9030 -0.1267
  701MOL0     H96684   4.634   1.603   8.571 -0.0896  0.4312  1.2571
  701MOL0     H96685   4.582   1.328   8.437 -1.9936  0.7326 -3.1429
  701MOL0     H96686   4.650   1.459   8.338  2.3296 -1.9216 -0.5113
  701MOL0     H96687   4.884   1.560   8.375  0.3483 -0.1593 -0.7981
  701MOL0     H96688   5.139   1.520   8.394 -0.1100 -2.5870 -0.8421
  701MOL0     H96689   5.216   1.423   8.513  0.7862  0.6791 -1.2176
  701MOL0     H96690   5.075   1.694   8.594  0.3190 -0.3318  2.1365
  701MOL0     H96691   5.140   1.569   8.699  0.4745 -1.3510 -0.4140
  701MOL0     H96692   5.360   1.585   8.599  1.6680  0.5629  1.6606
  701MOL0     H96693   5.290   1.693   8.473 -1.5470 -1.2884 -0.3410
  701MOL0     H96694   5.216   1.861   8.658 -1.3416 -0.3346  3.3113
  701MOL0     H96695   5.326   1.772   8.765  1.6478  0.7159  0.3728
  701MOL0     H96696   5.603   2.007   8.545  2.0018 -0.5050 -0.1878
  701MOL0     H96697   5.983   2.004   8.624  0.7481  0.0641 -1.4144
  701MOL0     H96698   5.855   2.121   8.659 -1.4636 -0.8810 -0.1500
  701MOL0     H96699   5.870   2.043   8.500  1.0507 -0.4741  0.1158
  701MOL0     H96700   6.024   1.740   9.062 -1.0837 -0.4314 -0.1606
  701MOL0     H96701   6.241   1.702   9.168  1.3325 -0.0982 -0.6801
  701MOL0     H96702   6.461   1.691   9.180 -2.7518  1.0294  2.9827
  701MOL0     H96703   6.398   1.580   9.300 -3.0763  0.8924 -0.7203
  701MOL0     H96704   6.667   1.543   9.135  0.7306  2.2087  0.6747
  701MOL0     H96705   6.664   1.618   9.289  2.4116  1.6472 -1.9793
  701MOL0     H96706   6.625   1.323   9.227  1.5915  2.6099 -3.2591
  701MOL0     H96707   6.569   1.384   9.379 -2.1606  0.6276 -0.7086
  701MOL0     H96708   6.807   1.476   9.389 -1.5202  0.0772  1.8246
  701MOL0     H96709   6.846   1.393   9.235  0.2710  1.3571  1.1045
  701MOL0     H96710   6.717   1.204   9.400  0.3959 -0.3397  0.8887
  701MOL0     H96711   6.867   1.198   9.316  2.8544  2.6556 -0.2676
  701MOL0     H96712   6.826   1.325   9.594  2.4054  0.5194  2.2088
  701MOL0     H96713   6.981   1.313   9.501 -0.7247  3.1993  0.0095
  701MOL0     H96714   6.978   1.084   9.507 -1.0206  0.9516 -1.7277
  701MOL0     H96715   6.805   1.077   9.551  0.0841 -1.9568  1.4084
  701MOL0     H96716   6.973   1.013   9.751  2.2994  0.9325  4.2744
  701MOL0     H96717   6.862   1.143   9.784  0.5517  1.0731  0.4248
  701MOL0     H96718   6.308   1.355   8.938 -2.1601 -1.9391  3.2634
  701MOL0     H96719   6.114   1.443   8.770 -1.1526  1.9481 -0.6970
  701MOL0     H96720   5.736   1.607   8.796 -2.6068 -2.1234 -2.8796
  701MOL0     H96721   5.513   1.656   8.759 -1.1748  1.6811 -0.8442
  701MOL0     H96722   3.893   2.042   8.881 -1.1457  1.0438 -1.1166
  701MOL0     H96723   3.734   2.158   9.029  4.8487  0.0347 -2.1471
  701MOL0     H96724   3.588   2.168   9.462 -0.3048  1.4840 -0.6736
  701MOL0     H96725   3.495   2.237   9.666 -3.3578  1.2337  0.7371
  701MOL0     H96726   3.052   2.166   9.768  0.2485  0.4287 -3.4768
  701MOL0     H96727   3.135   2.252   9.900 -3.0023  1.0114 -0.3988
  701MOL0     H96728   3.148   2.357   9.608 -1.3005 -4.0060 -0.5450
  701MOL0     H96729   3.208   2.433   9.753 -1.1752  0.6350 -1.8575
  701MOL0     H96730   2.913   2.368   9.677 -1.3318  1.6291  0.9977
  701MOL0     H96731   2.961   2.399   9.839  1.7588 -1.0316 -0.2962
  701MOL0     H96732   3.008   2.631   9.773  0.4619  1.9232 -2.2523
  701MOL0     H96733   2.862   2.589   9.679 -0.8547 -0.7482  1.8939
  701MOL0     H96734   3.104   2.649   9.356 -0.6905  1.5461  0.0381
  701MOL0     H96735   3.114   2.063   9.561  0.5569 -0.3505 -0.8083
  701MOL0     H96736   3.187   2.024   9.204 -2.6524 -0.3006 -1.4591
  701MOL0     H96737   3.173   1.882   9.306 -3.7853  1.0324 -0.8687
  701MOL0     H96738   3.061   2.010   9.324  0.0736  2.0728  0.3837
  702MOL0     O96739   1.853   9.404   4.913 -0.1800 -0.2939  0.0264
  702MOL0     C96740   1.764   9.342   4.970 -1.0411  0.9754 -0.8791
  702MOL0     O96741   1.772   9.207   5.006 -0.1080  0.1178  0.1574
  702MOL0     C96742   1.900   9.153   5.017 -0.3201 -0.1280  0.0053
  702MOL0     C96743   1.989   9.188   5.118 -0.3355 -0.1189  0.4322
  702MOL0     C96744   2.107   9.118   5.136 -0.1744  0.2948 -0.6731
  702MOL0     C96745   2.130   9.006   5.058 -0.2619  0.7476 -1.0093
  702MOL0     O96746   2.242   8.936   5.076 -0.6744 -0.2824  0.3553
  702MOL0     C96747   2.330   8.959   5.190  0.0562  0.2887  0.8033
  702MOL0     C96748   2.419   8.835   5.202  0.0991 -0.2833  0.2356
  702MOL0     C96749   2.527   8.863   5.312  0.1845  0.2633  0.1173
  702MOL0     C96750   2.586   8.730   5.354  0.0822 -0.2540  0.6043
  702MOL0     C96751   2.690   8.752   5.466 -0.3448 -0.2259  0.0746
  702MOL0     C96752   2.828   8.769   5.400  1.2193  0.2215 -0.8249
  702MOL0     C96753   2.932   8.781   5.511 -0.3411 -0.4226 -0.6512
  702MOL0     C96754   3.071   8.821   5.464  0.0339  0.1183  0.3237
  702MOL0     N96755   3.167   8.857   5.570 -0.3738  0.2490  1.2918
  702MOL0     C96756   3.145   8.928   5.688  0.1307  0.0420 -0.7421
  702MOL0     C96757   3.264   8.920   5.757 -0.0626 -0.0751 -0.0937
  702MOL0     C96758   3.295   8.959   5.898  0.4888  0.1650  0.6258
  702MOL0     C96759   3.358   9.094   5.913  0.1720 -0.4436  0.1197
  702MOL0     C96760   3.376   9.150   6.048  0.6357 -0.4049 -0.5554
  702MOL0     C96761   3.451   9.057   6.140 -1.1853  0.1107 -0.8942
  702MOL0     O96762   3.583   9.045   6.092  0.5533  0.5147 -0.4369
  702MOL0     C96763   3.635   8.921   6.062  0.6927  0.3983 -0.3937
  702MOL0     C96764   3.671   8.829   6.153  1.5210 -0.1306  0.2232
  702MOL0     C96765   3.682   8.682   6.130 -0.6098 -0.2510 -0.3195
  702MOL0     C96766   3.692   8.585   6.256  0.0421  0.0996  1.0942
  702MOL0     C96767   3.671   8.640   5.991 -0.4119 -0.0247  0.3487
  702MOL0     C96768   3.674   8.501   5.946  0.0126  0.1507 -0.0663
  702MOL0     O96769   3.662   8.491   5.809 -0.0952  0.5209  0.8001
  702MOL0     C96770   3.682   8.369   5.746 -0.4731 -0.1243  0.4967
  702MOL0     C96771   3.584   8.326   5.657  0.1866  0.4582  0.5217
  702MOL0     C96772   3.599   8.211   5.572  0.0086  0.1086 -0.4311
  702MOL0     C96773   3.715   8.137   5.583  0.6130  0.2327 -0.8080
  702MOL0     O96774   3.757   8.047   5.492 -1.0652  0.4365 -0.1810
  702MOL0     C96775   3.695   8.026   5.366 -0.8260 -0.3260  0.0382
  702MOL0     C96776   3.787   7.938   5.272  0.2367  0.0722 -0.3906
  702MOL0     C96777   3.718   7.911   5.144 -0.7184  0.1701 -0.1679
  702MOL0     C96778   3.780   7.798   5.065 -0.0294 -0.0413  0.0917
  702MOL0     C96779   3.922   7.841   5.019 -0.5393  0.0684 -0.0451
  702MOL0     C96780   3.991   7.723   4.935  0.3388 -0.0906 -0.0681
  702MOL0     C96781   4.127   7.767   4.882  0.5266 -0.1202 -0.4297
  702MOL0     C96782   4.199   7.655   4.800 -0.5092  0.0161  0.3995
  702MOL0    Cl96783   4.246   7.527   4.923  0.0161  0.2297  0.1764
  702MOL0     C96784   3.804   8.175   5.681  0.3112 -0.7242 -0.5755
  702MOL0     C96785   3.791   8.280   5.758 -0.0745 -0.2345 -0.8659
  702MOL0     O96786   3.676   8.402   6.021 -0.2148 -0.7950 -0.6540
  702MOL0     C96787   3.649   8.749   5.895 -0.1520 -0.7586 -0.0198
  702MOL0     C96788   3.632   8.882   5.931  0.1911  0.4645  0.2219
  702MOL0     N96789   3.353   8.855   5.673 -0.6653 -0.0105 -0.2629
  702MOL0     N96790   3.298   8.823   5.564  0.1165  0.2546  0.0020
  702MOL0     C96791   2.043   8.971   4.956 -0.6312 -0.9361  0.3660
  702MOL0     C96792   1.929   9.047   4.935  0.7558  0.9349 -1.1191
  702MOL0     C96793   1.634   9.399   4.994  0.1771 -0.0165 -0.6797
  702MOL0     C96794   1.538   9.318   5.060  1.1327  0.4251  0.0304
  702MOL0     C96795   1.405   9.366   5.075 -0.4232 -0.2512  0.7608
  702MOL0     C96796   1.365   9.489   5.017 -0.0476 -0.0175 -0.8169
  702MOL0     O96797   1.235   9.547   5.025  0.6782  0.4314  0.1468
  702MOL0     C96798   1.124   9.474   5.090 -0.2534  0.5869  0.7376
  702MOL0     C96799   1.013   9.569   5.114 -0.7481  0.4676  0.0544
  702MOL0     C96800   1.064   9.693   5.191  0.2856 -0.1656  0.5730
  702MOL0     C96801   0.950   9.760   5.258 -0.4330 -0.5732 -0.7162
  702MOL0     C96802   0.860   9.806   5.155 -0.0250 -0.7015  0.0937
  702MOL0     C96803   0.771   9.837   5.082 -0.2223  0.4946  0.0002
  702MOL0     C96804   1.458   9.575   4.955 -0.4522  0.8473  0.1942
  702MOL0     C96805   1.595   9.532   4.934 -0.0131  0.0751  0.1092
  702MOL0     C96806   1.683   9.628   4.858  0.3600  0.7831 -0.8026
  702MOL0     H96807   1.960   9.273   5.180 -1.7511 -1.2262  1.3496
  702MOL0     H96808   2.181   9.159   5.204  0.8636 -0.7055 -1.1694
  702MOL0     H96809   2.272   8.961   5.282  1.4963 -2.8723  1.9401
  702MOL0     H96810   2.389   9.051   5.187 -0.5201  0.7002  1.7528
  702MOL0     H96811   2.362   8.742   5.215 -3.0410  1.2192 -1.7013
  702MOL0     H96812   2.475   8.821   5.109  0.0447 -1.8376  0.4050
  702MOL0     H96813   2.602   8.933   5.273 -1.5263  0.3435 -3.3998
  702MOL0     H96814   2.473   8.912   5.394 -1.7992  0.7548 -1.4152
  702MOL0     H96815   2.502   8.670   5.391 -1.1006 -0.0173 -1.5657
  702MOL0     H96816   2.616   8.681   5.262 -2.7570 -0.7531 -0.1570
  702MOL0     H96817   2.678   8.663   5.528 -2.5053  0.7576  1.1680
  702MOL0     H96818   2.670   8.845   5.521 -2.7000 -0.0918 -0.8897
  702MOL0     H96819   2.846   8.678   5.343  0.5369 -0.5943  0.2185
  702MOL0     H96820   2.825   8.857   5.335 -1.7406  0.5186 -0.4263
  702MOL0     H96821   2.931   8.687   5.566 -1.2114  1.2110  2.3323
  702MOL0     H96822   2.894   8.863   5.573  1.0799 -0.9297  0.9478
  702MOL0     H96823   3.112   8.748   5.393 -1.1894  0.3062 -0.6028
  702MOL0     H96824   3.066   8.921   5.421  1.9519 -0.0086 -0.3183
  702MOL0     H96825   3.050   8.968   5.724  0.1019  0.9961 -1.8026
  702MOL0     H96826   3.363   8.884   5.940  1.2489 -0.4198 -1.5497
  702MOL0     H96827   3.197   8.960   5.947  0.6327  1.0079  0.9249
  702MOL0     H96828   3.450   9.108   5.855 -1.3500  0.2251 -2.3020
  702MOL0     H96829   3.274   9.149   5.871  0.0333 -0.6689  0.1019
  702MOL0     H96830   3.429   9.246   6.045 -1.1630  0.6667 -4.2837
  702MOL0     H96831   3.275   9.169   6.085  1.0342  1.7045 -0.4042
  702MOL0     H96832   3.440   9.101   6.240 -0.8020  0.8708 -1.1778
  702MOL0     H96833   3.405   8.958   6.135  1.3893 -1.3058  1.0385
  702MOL0     H96834   3.673   8.859   6.257 -2.5352 -1.2008  0.7791
  702MOL0     H96835   3.687   8.646   6.347 -0.4060  1.7592 -0.0060
  702MOL0     H96836   3.779   8.518   6.257  0.2058  0.2913  0.1125
  702MOL0     H96837   3.603   8.522   6.256 -1.0129  1.5258 -0.2194
  702MOL0     H96838   3.494   8.386   5.646 -0.4199 -0.7825 -1.8966
  702MOL0     H96839   3.522   8.171   5.507 -1.4288  1.7713  0.2031
  702MOL0     H96840   3.600   7.972   5.379 -0.7170 -0.0630  2.3668
  702MOL0     H96841   3.692   8.121   5.314  1.0422 -0.3368 -0.1645
  702MOL0     H96842   3.881   7.994   5.269 -0.6133  1.7292  1.6455
  702MOL0     H96843   3.816   7.841   5.314  0.7913  0.3099 -0.2147
  702MOL0     H96844   3.716   8.003   5.086  2.4550  1.5145  1.5873
  702MOL0     H96845   3.614   7.875   5.150  0.2021 -3.7226 -3.2982
  702MOL0     H96846   3.719   7.780   4.976  0.6926  3.8935 -1.4327
  702MOL0     H96847   3.785   7.704   5.119 -0.7812 -0.5735 -0.7330
  702MOL0     H96848   3.924   7.935   4.962 -1.0685 -0.7710 -1.4793
  702MOL0     H96849   3.984   7.860   5.108  0.3141 -0.2655 -0.5527
  702MOL0     H96850   3.933   7.697   4.846  1.4183 -1.6135 -0.3697
  702MOL0     H96851   4.008   7.633   4.994  3.1165 -0.0329 -0.6245
  702MOL0     H96852   4.187   7.790   4.970 -3.0631  0.5492  2.1051
  702MOL0     H96853   4.103   7.858   4.826 -0.0600 -0.6341 -1.0429
  702MOL0     H96854   4.295   7.692   4.763 -0.4495  0.2829  0.8023
  702MOL0     H96855   4.123   7.616   4.732 -0.8604 -2.1054  1.9130
  702MOL0     H96856   3.896   8.119   5.674  0.2449 -0.7307 -1.5268
  702MOL0     H96857   3.870   8.321   5.820 -0.5558  0.3614 -0.6329
  702MOL0     H96858   3.637   8.729   5.789 -1.1272 -0.8577  0.0961
  702MOL0     H96859   3.615   8.963   5.860  1.7590  1.4532  0.9015
  702MOL0     H96860   2.050   8.885   4.891 -0.6103 -0.1486 -0.7030
  702MOL0     H96861   1.865   9.007   4.856 -0.7668  0.0918  0.4852
  702MOL0     H96862   1.570   9.224   5.104 -1.4672 -0.5425  0.0217
  702MOL0     H96863   1.325   9.297   5.100 -0.4683 -0.8230 -0.8247
  702MOL0     H96864   1.095   9.388   5.029  1.7839  0.8283 -0.6825
  702MOL0     H96865   1.169   9.443   5.185 -1.7056 -0.0688  1.2320
  702MOL0     H96866   0.938   9.520   5.177  0.2945 -0.5774  0.4980
  702MOL0     H96867   0.971   9.600   5.018  0.9808 -0.0917 -0.9080
  702MOL0     H96868   1.146   9.666   5.258  1.3191 -0.8800 -0.9082
  702MOL0     H96869   1.121   9.755   5.121  2.0181 -1.7140  0.5336
  702MOL0     H96870   0.993   9.852   5.300 -1.0250 -0.5194 -0.2120
  702MOL0     H96871   0.894   9.704   5.333 -0.4594  0.0005 -0.2936
  702MOL0     H96872   0.685   9.867   5.026  1.0522  2.4303 -1.0584
  702MOL0     H96873   1.425   9.667   4.908 -0.2292  1.3626  1.0124
  702MOL0     H96874   1.711   9.576   4.765  1.4836 -0.2715  0.1002
  702MOL0     H96875   1.631   9.723   4.844  1.3066  1.9748  2.8081
  702MOL0     H96876   1.775   9.653   4.911  0.8187 -2.2424  0.0142
  703MOL0     O96877   8.076   2.923   2.903  0.0520  0.1349 -1.1243
  703MOL0     C96878   8.065   2.861   2.801 -0.0236 -0.3657 -0.4653
  703MOL0     O96879   7.964   2.773   2.778 -0.1386 -0.4428 -0.1577
  703MOL0     C96880   7.840   2.799   2.808  0.7657  0.0992 -1.4299
  703MOL0     C96881   7.801   2.809   2.944 -0.0355  0.2531  0.0139
  703MOL0     C96882   7.668   2.842   2.973 -0.0899 -0.3164 -0.1245
  703MOL0     C96883   7.570   2.869   2.873  0.4525  0.2242 -0.4420
  703MOL0     O96884   7.447   2.906   2.914 -0.0187  0.4790 -0.3013
  703MOL0     C96885   7.431   3.045   2.900 -0.7159  0.5856 -0.4632
  703MOL0     C96886   7.283   3.094   2.909  0.0889  0.1124 -0.7257
  703MOL0     C96887   7.247   3.130   3.059  0.0960 -0.7449  0.4139
  703MOL0     C96888   7.302   3.264   3.120 -0.3016  0.8424  0.5310
  703MOL0     C96889   7.195   3.320   3.204  0.1069 -0.4572 -0.6632
  703MOL0     C96890   7.246   3.434   3.300  0.1435 -0.2280  0.8182
  703MOL0     C96891   7.140   3.491   3.389 -0.5936  0.2748 -0.4199
  703MOL0     C96892   7.197   3.604   3.478  0.5576 -0.0313 -0.3764
  703MOL0     N96893   7.101   3.693   3.538 -0.2721  0.0731 -0.8328
  703MOL0     C96894   6.965   3.692   3.539  0.1389 -0.1247  0.8980
  703MOL0     C96895   6.924   3.809   3.596 -0.0064 -0.3725 -0.6925
  703MOL0     C96896   6.785   3.851   3.609  0.1040 -0.4173  0.1867
  703MOL0     C96897   6.705   3.777   3.711 -0.2388 -0.8865  0.3420
  703MOL0     C96898   6.782   3.800   3.852  0.4349  0.3904  0.8220
  703MOL0     C96899   6.686   3.774   3.967  0.0336  0.3390  0.1218
  703MOL0     O96900   6.591   3.885   3.987 -1.1258 -0.4463  0.2870
  703MOL0     C96901   6.518   3.890   4.100 -0.1061 -0.5211 -0.9332
  703MOL0     C96902   6.446   4.006   4.109  0.6316 -0.1180  0.2089
  703MOL0     C96903   6.350   4.020   4.208 -0.0167 -0.7001  0.7459
  703MOL0     C96904   6.259   4.140   4.192 -0.1348 -0.3320 -0.0583
  703MOL0     C96905   6.340   3.921   4.314  0.8377 -0.5565 -0.3801
  703MOL0     C96906   6.238   3.921   4.423 -0.4215 -0.0925 -0.0670
  703MOL0     O96907   6.124   3.990   4.408  0.2751 -0.2961  0.3455
  703MOL0     C96908   6.028   3.977   4.507 -0.5893  0.1863 -0.8038
  703MOL0     C96909   5.962   3.858   4.545  0.0965 -0.3665  0.2309
  703MOL0     C96910   5.854   3.857   4.638 -0.2609  0.1241 -1.3049
  703MOL0     C96911   5.825   3.983   4.699 -0.8871  0.3749 -0.5769
  703MOL0     O96912   5.721   3.995   4.787  0.5472 -0.3309  0.2197
  703MOL0     C96913   5.611   3.901   4.778 -1.3306 -0.7925 -0.0310
  703MOL0     C96914   5.507   3.934   4.894 -0.7435 -0.1905  0.2422
  703MOL0     C96915   5.443   4.074   4.875  0.1645  0.0223 -0.0418
  703MOL0     C96916   5.333   4.064   4.769  0.3752 -0.7983  0.2259
  703MOL0     C96917   5.260   4.197   4.742 -0.2984  0.4105  0.2134
  703MOL0     C96918   5.336   4.284   4.649  0.3350  0.3516 -0.4138
  703MOL0     C96919   5.275   4.424   4.666 -0.0456  0.1264 -0.3715
  703MOL0     C96920   5.356   4.534   4.595  0.3987 -0.4880 -0.7230
  703MOL0    Cl96921   5.345   4.513   4.418  0.5740  0.1008  0.0235
  703MOL0     C96922   5.892   4.095   4.672 -0.3965 -0.0581 -0.1980
  703MOL0     C96923   5.993   4.097   4.571  0.2791 -0.1358 -0.7671
  703MOL0     O96924   6.264   3.851   4.520 -0.8360  0.7291  0.5011
  703MOL0     C96925   6.428   3.810   4.314  0.9569  0.8297 -0.1021
  703MOL0     C96926   6.514   3.804   4.209  0.2531  0.7234  0.8655
  703MOL0     N96927   7.032   3.890   3.620  0.0129  0.3996  0.0046
  703MOL0     N96928   7.137   3.814   3.585 -0.8595  0.1309 -0.7943
  703MOL0     C96929   7.605   2.856   2.741  0.1527 -0.6796 -0.2183
  703MOL0     C96930   7.742   2.816   2.706  0.1781  0.7744  0.2560
  703MOL0     C96931   8.155   2.890   2.691  1.1050 -0.6847  0.4249
  703MOL0     C96932   8.115   2.868   2.559 -0.0191 -0.0972 -0.0611
  703MOL0     C96933   8.191   2.905   2.447 -0.1592 -0.4810 -0.4463
  703MOL0     C96934   8.324   2.956   2.471 -0.4398  0.1946  0.0122
  703MOL0     O96935   8.411   2.990   2.376 -0.0158 -0.3839 -0.2894
  703MOL0     C96936   8.389   2.947   2.245 -0.2851 -0.4703  0.6182
  703MOL0     C96937   8.403   2.799   2.217 -0.3567 -0.6020 -0.0850
  703MOL0     C96938   8.525   2.726   2.266 -0.1522  0.0993  0.0902
  703MOL0     C96939   8.660   2.785   2.226 -0.6114  0.1607 -0.3794
  703MOL0     C96940   8.764   2.672   2.222 -0.2379  0.0200  0.5507
  703MOL0     C96941   8.841   2.575   2.211  0.4706 -0.3494  0.1056
  703MOL0     C96942   8.368   2.971   2.597 -0.1832  0.6441 -0.2433
  703MOL0     C96943   8.287   2.931   2.700 -0.0362 -0.3084 -0.7305
  703MOL0     C96944   8.356   2.945   2.835  0.2077  0.2087  0.2155
  703MOL0     H96945   7.862   2.805   3.033 -1.6294 -1.4432  1.0893
  703MOL0     H96946   7.632   2.859   3.074  1.8588  1.0331  0.4169
  703MOL0     H96947   7.472   3.069   2.801 -0.6004 -3.1892 -1.4719
  703MOL0     H96948   7.486   3.099   2.978  0.1905  1.8726 -1.9225
  703MOL0     H96949   7.280   3.181   2.842  2.9685  1.2867  0.4848
  703MOL0     H96950   7.212   3.019   2.873  1.1960 -1.5601  0.4394
  703MOL0     H96951   7.137   3.130   3.061  0.1071 -1.0774  1.4092
  703MOL0     H96952   7.274   3.039   3.114  0.5224 -2.1345 -1.9364
  703MOL0     H96953   7.399   3.248   3.169  0.9497 -0.2518 -2.1194
  703MOL0     H96954   7.314   3.335   3.038 -0.9128 -0.7599 -0.9929
  703MOL0     H96955   7.156   3.236   3.263  1.0105 -0.8804 -0.6561
  703MOL0     H96956   7.116   3.358   3.138  0.6579 -0.9171 -1.6046
  703MOL0     H96957   7.321   3.396   3.370 -1.5482 -1.9230  1.7815
  703MOL0     H96958   7.284   3.516   3.237  0.3374  0.0926  1.3413
  703MOL0     H96959   7.109   3.409   3.455 -0.2665  1.7272  1.6219
  703MOL0     H96960   7.063   3.526   3.319  1.1470 -2.6476 -4.1553
  703MOL0     H96961   7.263   3.565   3.556  0.9096  1.1195 -0.0845
  703MOL0     H96962   7.267   3.656   3.413 -0.7333  0.2024 -1.6156
  703MOL0     H96963   6.904   3.618   3.488  1.4027 -1.6541  1.5421
  703MOL0     H96964   6.740   3.852   3.509 -0.1340  0.6568  0.2952
  703MOL0     H96965   6.796   3.956   3.636  2.2572  0.0578 -2.1757
  703MOL0     H96966   6.607   3.826   3.708 -1.1856 -2.6771  0.4944
  703MOL0     H96967   6.679   3.675   3.681 -2.6951  0.3830 -2.3045
  703MOL0     H96968   6.867   3.733   3.866  0.2273  0.2371  1.3845
  703MOL0     H96969   6.814   3.904   3.862  2.1889 -0.0329 -0.0575
  703MOL0     H96970   6.627   3.685   3.943 -0.0267  0.2199  0.6863
  703MOL0     H96971   6.744   3.757   4.059  0.1117  0.0555  0.0219
  703MOL0     H96972   6.450   4.079   4.028  0.8938  0.8612  1.0772
  703MOL0     H96973   6.154   4.121   4.217 -0.3936  0.8842 -0.1188
  703MOL0     H96974   6.254   4.185   4.093 -0.7207  1.0862  0.5837
  703MOL0     H96975   6.302   4.216   4.258 -1.4497  1.4823 -1.1973
  703MOL0     H96976   5.986   3.765   4.494  2.4981 -1.3402  2.8626
  703MOL0     H96977   5.799   3.764   4.649 -0.9576  0.4438 -1.9819
  703MOL0     H96978   5.562   3.897   4.680  1.0890  2.5322 -1.5482
  703MOL0     H96979   5.657   3.802   4.787 -0.3241 -0.4567 -1.2228
  703MOL0     H96980   5.425   3.861   4.891  0.2279 -1.2881 -0.4639
  703MOL0     H96981   5.553   3.919   4.992 -1.0904  1.3258  0.6678
  703MOL0     H96982   5.522   4.144   4.843  0.5914 -1.8489 -3.4877
  703MOL0     H96983   5.394   4.103   4.969  3.4154  4.2652  0.7167
  703MOL0     H96984   5.259   3.989   4.795 -1.3977  0.3028 -1.3878
  703MOL0     H96985   5.376   4.034   4.673 -1.6526 -1.7357 -0.4419
  703MOL0     H96986   5.170   4.169   4.686  1.5147 -1.2107 -2.1013
  703MOL0     H96987   5.240   4.248   4.837  0.6001 -2.5455  2.1445
  703MOL0     H96988   5.332   4.254   4.544 -0.6831  1.3852 -0.6970
  703MOL0     H96989   5.441   4.288   4.676  0.4438 -0.2180 -0.7400
  703MOL0     H96990   5.276   4.454   4.771  0.5768  3.9362 -1.2947
  703MOL0     H96991   5.174   4.420   4.625  0.2757  0.7852 -1.2888
  703MOL0     H96992   5.459   4.539   4.632  0.1901  2.3259 -0.3275
  703MOL0     H96993   5.315   4.633   4.617 -0.7217 -0.8731 -1.0126
  703MOL0     H96994   5.865   4.188   4.720  2.1813 -0.4751  2.3309
  703MOL0     H96995   6.039   4.194   4.553  0.4292  0.0747  0.6677
  703MOL0     H96996   6.433   3.729   4.386  0.9682 -2.4175 -3.4581
  703MOL0     H96997   6.570   3.712   4.201 -0.4098  0.4205 -0.5740
  703MOL0     H96998   7.519   2.874   2.677 -1.8363 -1.2166  2.1391
  703MOL0     H96999   7.762   2.818   2.599  1.2421 -0.1260  0.4218
  703MOL0     H97000   8.018   2.824   2.539  0.3901 -2.5927  2.6616
  703MOL0     H97001   8.143   2.901   2.350  0.0324 -0.1305 -0.5588
  703MOL0     H97002   8.293   2.990   2.214 -0.1919  0.7730  1.9243
  703MOL0     H97003   8.469   2.993   2.187  2.6773 -2.5620  2.7585
  703MOL0     H97004   8.411   2.794   2.108 -2.0503 -1.8675 -0.1939
  703MOL0     H97005   8.313   2.745   2.246 -1.0150  0.3761 -0.2675
  703MOL0     H97006   8.525   2.716   2.375 -0.3749 -1.5587 -0.0368
  703MOL0     H97007   8.511   2.625   2.227  3.2900 -0.2202 -0.6934
  703MOL0     H97008   8.680   2.862   2.302 -0.2300 -1.0305  0.7600
  703MOL0     H97009   8.663   2.824   2.124 -0.7068 -2.0567 -1.2766
  703MOL0     H97010   8.905   2.492   2.192  3.0985  1.3307  1.1256
  703MOL0     H97011   8.469   3.002   2.623 -0.1580 -0.5295  1.2120
  703MOL0     H97012   8.348   2.857   2.900  0.2712 -0.9631 -1.3147
  703MOL0     H97013   8.463   2.964   2.823  0.2774  0.8496  1.6496
  703MOL0     H97014   8.319   3.029   2.894  0.5220  1.4229 -1.2491
  704MOL0     O97015   1.356   2.081   9.724  0.5861  0.6727  0.3830
  704MOL0     C97016   1.390   1.960   9.710 -0.2745 -0.2583  0.3474
  704MOL0     O97017   1.523   1.919   9.691 -0.1327  0.3237  0.2894
  704MOL0     C97018   1.630   2.006   9.690 -0.0434 -0.0583 -0.8698
  704MOL0     C97019   1.621   2.129   9.629 -0.3580 -0.3543 -0.3829
  704MOL0     C97020   1.736   2.216   9.623 -0.6231  0.7259 -0.5888
  704MOL0     C97021   1.861   2.168   9.674 -0.2998  0.6865 -0.6988
  704MOL0     O97022   1.988   2.234   9.682 -0.7954  0.1953 -0.8555
  704MOL0     C97023   2.001   2.331   9.579  0.5821 -0.3961 -0.1657
  704MOL0     C97024   2.147   2.361   9.562 -0.4130  0.4226  0.1035
  704MOL0     C97025   2.201   2.445   9.675 -0.3826 -0.4809  0.6188
  704MOL0     C97026   2.358   2.462   9.691 -0.3212 -0.1970 -0.3700
  704MOL0     C97027   2.421   2.549   9.584  0.0555 -0.2122 -0.7087
  704MOL0     C97028   2.573   2.539   9.580  0.1067 -0.3120 -0.5368
  704MOL0     C97029   2.640   2.625   9.469 -0.5083  0.5919  0.0435
  704MOL0     C97030   2.626   2.773   9.511  0.2527  1.1100  0.1284
  704MOL0     N97031   2.690   2.851   9.400  0.1367 -0.0819 -0.2920
  704MOL0     C97032   2.612   2.901   9.296  0.2613 -0.7799 -0.9628
  704MOL0     C97033   2.696   2.984   9.237 -0.1582 -0.6569  0.0290
  704MOL0     C97034   2.682   3.048   9.104  0.1708  0.0925  0.1761
  704MOL0     C97035   2.704   3.192   9.104 -0.2118 -0.0702 -0.4083
  704MOL0     C97036   2.733   3.252   8.968  0.2216  0.4166 -0.4807
  704MOL0     C97037   2.684   3.390   8.950 -0.4363 -0.3953  0.8668
  704MOL0     O97038   2.689   3.468   9.072 -0.4434  0.4022 -0.1320
  704MOL0     C97039   2.749   3.593   9.071 -0.8802 -0.7127 -0.4096
  704MOL0     C97040   2.803   3.671   8.965 -0.1293  0.2047 -0.5564
  704MOL0     C97041   2.888   3.776   8.977 -0.3140  1.1355 -0.2645
  704MOL0     C97042   2.957   3.814   8.848  0.4382  0.4432 -0.2895
  704MOL0     C97043   2.919   3.815   9.110 -0.1403  0.7353 -1.4155
  704MOL0     C97044   3.021   3.918   9.142 -0.8872 -0.4302 -1.3361
  704MOL0     O97045   3.088   3.917   9.259  0.5366  0.1432 -0.1774
  704MOL0     C97046   3.199   3.999   9.274 -0.6456  0.6426 -0.5629
  704MOL0     C97047   3.327   3.961   9.233 -0.4172  0.1735  0.5848
  704MOL0     C97048   3.433   4.037   9.269  0.0486  0.9056  0.5263
  704MOL0     C97049   3.418   4.160   9.328 -0.2204 -0.5047 -0.8210
  704MOL0     O97050   3.530   4.239   9.335 -0.4127 -0.3402  0.1284
  704MOL0     C97051   3.519   4.375   9.377  0.0235  0.0431  0.1083
  704MOL0     C97052   3.652   4.426   9.414 -0.3981 -0.2534  0.9831
  704MOL0     C97053   3.658   4.577   9.448  0.1875  0.3490  0.3984
  704MOL0     C97054   3.791   4.612   9.502 -0.0854  0.0449 -0.0028
  704MOL0     C97055   3.800   4.753   9.578 -0.1716  0.4424  0.3464
  704MOL0     C97056   3.939   4.792   9.626  0.3464  0.4369 -0.4007
  704MOL0     C97057   3.953   4.890   9.746  0.2612  0.0995 -0.3139
  704MOL0     C97058   4.098   4.938   9.753  0.3707  0.6895 -0.0551
  704MOL0    Cl97059   4.143   4.989   9.913 -0.5039 -0.0614 -0.0669
  704MOL0     C97060   3.288   4.203   9.352 -0.1076 -0.3493  0.3997
  704MOL0     C97061   3.189   4.122   9.333  0.2254  0.9011 -0.6888
  704MOL0     O97062   3.024   4.016   9.062  0.6822  0.5676 -0.8737
  704MOL0     C97063   2.864   3.752   9.221  0.6367  0.0006  0.6319
  704MOL0     C97064   2.776   3.636   9.205  0.5492  0.2433  0.4716
  704MOL0     N97065   2.819   2.985   9.303  0.1534  0.6957 -0.1191
  704MOL0     N97066   2.818   2.899   9.398  0.3465  0.7914 -0.2896
  704MOL0     C97067   1.860   2.051   9.746 -0.2195 -0.5381  0.3133
  704MOL0     C97068   1.743   1.984   9.760 -0.2842 -0.2555 -0.3366
  704MOL0     C97069   1.286   1.854   9.670  0.0637 -0.3469  0.3056
  704MOL0     C97070   1.162   1.902   9.630  0.8765 -0.7398  0.5906
  704MOL0     C97071   1.060   1.812   9.615  0.6532 -0.4255  0.2401
  704MOL0     C97072   1.086   1.679   9.615 -0.0037  0.1075 -0.4041
  704MOL0     O97073   0.992   1.581   9.593 -0.7641 -0.2272 -0.4630
  704MOL0     C97074   0.856   1.623   9.563 -0.0118  0.3120 -0.0287
  704MOL0     C97075   0.786   1.486   9.556  0.4097  0.4301 -0.6903
  704MOL0     C97076   0.627   1.496   9.571 -0.0241  0.1925 -0.6847
  704MOL0     C97077   0.564   1.364   9.599 -0.2859 -0.3850  0.0247
  704MOL0     C97078   0.422   1.377   9.589 -0.7353  0.0151  0.6432
  704MOL0     C97079   0.301   1.383   9.588  0.9524  0.4320  0.4743
  704MOL0     C97080   1.210   1.639   9.644  0.0987  0.0200  0.3584
  704MOL0     C97081   1.320   1.721   9.657  0.6932  0.1968 -0.1904
  704MOL0     C97082   1.455   1.654   9.666 -0.0592 -1.0582  1.1483
  704MOL0     H97083   1.534   2.166   9.577 -1.2093 -0.0213  1.2319
  704MOL0     H97084   1.737   2.313   9.576  0.0407  1.5194  0.9817
  704MOL0     H97085   1.946   2.422   9.605  1.7615 -0.2229  1.8747
  704MOL0     H97086   1.956   2.292   9.487  3.0438 -1.8894 -0.8216
  704MOL0     H97087   2.208   2.270   9.555  1.7573  1.6559  1.6738
  704MOL0     H97088   2.161   2.416   9.469 -1.2385  0.2152 -0.1483
  704MOL0     H97089   2.163   2.547   9.665  2.3200  0.6438  0.9957
  704MOL0     H97090   2.162   2.414   9.773 -0.8204  1.4239  1.0809
  704MOL0     H97091   2.395   2.500   9.787 -0.4339  1.0320 -0.7923
  704MOL0     H97092   2.401   2.363   9.675 -0.1942  0.2106 -3.1282
  704MOL0     H97093   2.392   2.651   9.610 -2.6245 -1.5234  2.0937
  704MOL0     H97094   2.372   2.524   9.489 -1.1165  1.4014 -0.5716
  704MOL0     H97095   2.616   2.571   9.675 -0.6258  0.6164 -0.5077
  704MOL0     H97096   2.608   2.437   9.556  2.9102  0.2270  0.8151
  704MOL0     H97097   2.588   2.596   9.377  2.0275 -2.5016 -0.6046
  704MOL0     H97098   2.743   2.588   9.463 -0.8111 -0.1447 -0.9735
  704MOL0     H97099   2.524   2.807   9.529 -0.6512 -2.0754  1.7369
  704MOL0     H97100   2.694   2.793   9.594  2.9239  1.8031 -2.0566
  704MOL0     H97101   2.510   2.875   9.269  0.1779  0.1829 -1.6292
  704MOL0     H97102   2.580   3.031   9.068  0.9478  0.6735 -2.5908
  704MOL0     H97103   2.751   2.988   9.044 -1.0382  1.2071 -2.4850
  704MOL0     H97104   2.612   3.226   9.150  0.3015 -1.0000  1.3975
  704MOL0     H97105   2.786   3.225   9.168 -0.4260 -1.1121  0.4411
  704MOL0     H97106   2.842   3.259   8.967  0.3157 -0.7504 -1.5142
  704MOL0     H97107   2.688   3.188   8.891 -3.0409  0.5107  1.1970
  704MOL0     H97108   2.746   3.440   8.875  0.5178 -0.6152  1.4989
  704MOL0     H97109   2.584   3.380   8.907  0.2032  1.4373 -1.2201
  704MOL0     H97110   2.764   3.639   8.869  0.8417  1.0113 -1.2393
  704MOL0     H97111   3.040   3.885   8.851  0.7798  0.0986 -1.2809
  704MOL0     H97112   2.886   3.869   8.785  3.3414  3.4695 -1.1916
  704MOL0     H97113   2.982   3.724   8.792  1.0426 -0.5869  1.5232
  704MOL0     H97114   3.350   3.864   9.190  0.0846  0.2275  0.7358
  704MOL0     H97115   3.530   4.002   9.236 -0.6561  0.1357 -0.8117
  704MOL0     H97116   3.491   4.426   9.285  3.6230 -2.9571 -3.0225
  704MOL0     H97117   3.452   4.386   9.463 -0.3450  1.2399 -0.3229
  704MOL0     H97118   3.682   4.378   9.508  0.1807  0.7347  1.3209
  704MOL0     H97119   3.711   4.398   9.327 -2.5135  0.4855 -0.7787
  704MOL0     H97120   3.584   4.606   9.523  0.7519  0.1858  1.0322
  704MOL0     H97121   3.628   4.626   9.355  0.5666 -0.0541  0.0550
  704MOL0     H97122   3.861   4.630   9.420 -0.0082  0.4401  0.1437
  704MOL0     H97123   3.832   4.532   9.564  1.8539  0.2101 -0.9970
  704MOL0     H97124   3.767   4.826   9.503 -0.1846 -0.1857 -0.2804
  704MOL0     H97125   3.727   4.751   9.660  0.8152 -0.4077  1.2254
  704MOL0     H97126   3.993   4.834   9.540 -0.3190  2.0186 -0.0821
  704MOL0     H97127   3.994   4.702   9.654  0.3708  0.7163  0.4615
  704MOL0     H97128   3.922   4.839   9.837  0.7164 -1.2843 -0.9129
  704MOL0     H97129   3.899   4.984   9.733 -0.4909 -0.3979 -0.7992
  704MOL0     H97130   4.118   5.012   9.675  1.4709 -1.1752 -1.6109
  704MOL0     H97131   4.164   4.855   9.726  2.2930  0.9880  3.1496
  704MOL0     H97132   3.272   4.305   9.387  2.4313 -0.3231  1.6707
  704MOL0     H97133   3.089   4.148   9.368  1.6852  0.5947  4.3436
  704MOL0     H97134   2.897   3.790   9.317 -0.2431  0.9330  0.5845
  704MOL0     H97135   2.745   3.583   9.294  1.4515  1.3689  1.4901
  704MOL0     H97136   1.956   2.016   9.782  0.1452 -1.3228 -1.3573
  704MOL0     H97137   1.755   1.903   9.832 -1.0729 -0.1419 -0.0717
  704MOL0     H97138   1.149   2.010   9.623  3.3743 -0.5045 -3.4571
  704MOL0     H97139   0.955   1.840   9.613  0.6455 -0.4822 -1.5759
  704MOL0     H97140   0.807   1.679   9.644 -2.5614 -0.6236 -0.8377
  704MOL0     H97141   0.858   1.692   9.477  0.3272  0.0588 -0.2249
  704MOL0     H97142   0.821   1.432   9.645 -0.9915 -0.2490 -0.5300
  704MOL0     H97143   0.820   1.441   9.463  2.3316  3.8909 -1.8653
  704MOL0     H97144   0.588   1.563   9.648  2.7946 -1.9702  2.9624
  704MOL0     H97145   0.572   1.530   9.482 -2.1026 -0.0618  0.4553
  704MOL0     H97146   0.577   1.337   9.704  0.4629  0.4692  0.1620
  704MOL0     H97147   0.596   1.290   9.525 -1.3922  0.1985 -1.0876
  704MOL0     H97148   0.195   1.390   9.591  1.0970  5.3495  1.8284
  704MOL0     H97149   1.222   1.532   9.645 -1.3424 -0.2944 -2.9795
  704MOL0     H97150   1.528   1.683   9.742  1.7442  1.2687 -1.2857
  704MOL0     H97151   1.434   1.547   9.677 -0.6794 -1.1050 -0.2386
  704MOL0     H97152   1.503   1.664   9.569 -0.2175  0.0427  1.1792
  705MOL0     O97153   2.027   1.130   8.699 -0.3444 -0.1685 -0.0421
  705MOL0     C97154   2.007   1.056   8.792 -0.0090 -0.0700  0.5817
  705MOL0     O97155   2.091   1.034   8.891  0.6179  0.4012 -0.6426
  705MOL0     C97156   2.218   1.046   8.855  0.1854  0.7215  0.3717
  705MOL0     C97157   2.285   0.938   8.799 -1.0746 -0.3422 -0.1624
  705MOL0     C97158   2.410   0.952   8.737  0.2016 -0.8818  0.6881
  705MOL0     C97159   2.474   1.078   8.741 -0.6013 -0.4431  0.2629
  705MOL0     O97160   2.596   1.093   8.682 -0.5168 -0.3373  0.0764
  705MOL0     C97161   2.711   1.058   8.758 -0.6101  0.8246  0.0632
  705MOL0     C97162   2.842   1.068   8.677 -0.9181 -0.2848 -0.1405
  705MOL0     C97163   2.877   1.211   8.645 -0.0441  0.9950 -0.7842
  705MOL0     C97164   3.023   1.235   8.652 -0.2729 -0.0774 -0.7145
  705MOL0     C97165   3.053   1.383   8.654 -0.3044 -0.0475  0.7200
  705MOL0     C97166   3.027   1.469   8.524  0.1993 -0.4063 -0.8891
  705MOL0     C97167   3.025   1.626   8.548  0.6120  0.5135 -0.1004
  705MOL0     C97168   3.153   1.697   8.550 -0.2572 -0.4415  0.0235
  705MOL0     N97169   3.218   1.685   8.418  0.3140 -0.0148 -0.1526
  705MOL0     C97170   3.351   1.695   8.404 -0.0564 -0.8293  0.6104
  705MOL0     C97171   3.369   1.738   8.278  0.2536  0.3603  0.4707
  705MOL0     C97172   3.509   1.743   8.216  0.4758  0.3118  0.3534
  705MOL0     C97173   3.526   1.749   8.066  0.2964  0.7907 -0.0904
  705MOL0     C97174   3.665   1.776   8.005  0.8764  0.3387 -0.4465
  705MOL0     C97175   3.714   1.912   8.042  0.0070 -0.2320  0.3383
  705MOL0     O97176   3.827   1.954   7.962  0.0537  0.3485  1.2116
  705MOL0     C97177   3.952   1.907   7.988  0.2524  0.6355  0.0937
  705MOL0     C97178   3.984   1.838   8.104 -1.2841  0.7430  0.0038
  705MOL0     C97179   4.117   1.790   8.121  0.0664 -0.1978  0.6491
  705MOL0     C97180   4.141   1.718   8.252 -0.7003 -0.3230  0.7331
  705MOL0     C97181   4.219   1.810   8.016  0.1873 -0.0457 -0.2559
  705MOL0     C97182   4.356   1.775   8.036  0.6346 -0.6462 -1.6864
  705MOL0     O97183   4.433   1.746   7.922 -0.6731 -0.2262 -0.8041
  705MOL0     C97184   4.563   1.717   7.954 -0.0553 -0.1248 -0.4434
  705MOL0     C97185   4.653   1.778   7.871 -0.5216  0.1832  0.3404
  705MOL0     C97186   4.789   1.764   7.891  0.3588  0.3346  0.0007
  705MOL0     C97187   4.847   1.698   8.002 -0.6794 -0.9022 -0.5256
  705MOL0     O97188   4.980   1.705   8.003 -0.1832 -0.1125 -0.1898
  705MOL0     C97189   5.048   1.649   8.116 -0.3919  0.9633 -0.2061
  705MOL0     C97190   5.173   1.728   8.154  0.2695  0.0918 -0.6113
  705MOL0     C97191   5.144   1.891   8.163 -0.0639  0.3290 -0.0866
  705MOL0     C97192   5.272   1.960   8.224 -0.3688 -0.5817  0.2332
  705MOL0     C97193   5.402   1.929   8.149  0.0771 -0.2008 -0.1014
  705MOL0     C97194   5.514   1.981   8.244 -0.0235 -0.5579 -0.8526
  705MOL0     C97195   5.654   1.966   8.181 -0.2952  0.1424  0.1903
  705MOL0     C97196   5.757   1.969   8.286 -1.1234 -0.1342  0.2338
  705MOL0    Cl97197   5.913   1.920   8.214  0.1614 -0.0912  0.0773
  705MOL0     C97198   4.753   1.620   8.072  0.6563  1.2502 -0.3129
  705MOL0     C97199   4.607   1.630   8.053  0.3809 -0.4913  0.1405
  705MOL0     O97200   4.396   1.790   8.148 -0.0764 -0.1150 -0.0385
  705MOL0     C97201   4.180   1.882   7.903 -0.8882  0.0736 -0.4426
  705MOL0     C97202   4.050   1.922   7.891 -0.0803 -0.2783 -0.7862
  705MOL0     N97203   3.241   1.752   8.212 -0.4456 -0.9739 -0.1978
  705MOL0     N97204   3.156   1.727   8.303  0.7816 -1.2164  0.3379
  705MOL0     C97205   2.413   1.183   8.814 -0.3556  0.1772 -0.1942
  705MOL0     C97206   2.282   1.173   8.866 -0.6078  0.4871  0.2717
  705MOL0     C97207   1.880   0.979   8.783  0.7988 -0.0798 -0.2388
  705MOL0     C97208   1.822   0.934   8.899 -0.9757  0.8400  0.2166
  705MOL0     C97209   1.714   0.845   8.893 -1.0936 -1.2612 -0.3212
  705MOL0     C97210   1.664   0.799   8.775  0.4212 -0.2848 -0.0121
  705MOL0     O97211   1.563   0.704   8.786  0.2552 -1.0632  0.1513
  705MOL0     C97212   1.543   0.610   8.679  0.5789 -0.1654  0.5307
  705MOL0     C97213   1.470   0.483   8.734 -0.4999  0.2461  0.6906
  705MOL0     C97214   1.351   0.510   8.822  0.3835  0.1118  0.3053
  705MOL0     C97215   1.249   0.600   8.764 -0.1744 -0.0324  0.3371
  705MOL0     C97216   1.109   0.584   8.805  1.1827  0.4133 -0.2524
  705MOL0     C97217   0.989   0.561   8.829 -0.2513  0.1346 -1.4421
  705MOL0     C97218   1.715   0.849   8.660  0.7410 -0.1627  0.5396
  705MOL0     C97219   1.824   0.939   8.652 -0.5209  0.0759 -0.6552
  705MOL0     C97220   1.862   0.993   8.517  0.4080 -0.0206  0.2398
  705MOL0     H97221   2.227   0.847   8.794 -1.6850 -0.1761  2.3948
  705MOL0     H97222   2.451   0.868   8.683  1.2197  1.9715 -3.4146
  705MOL0     H97223   2.698   0.953   8.787 -1.0164  0.0015 -2.7502
  705MOL0     H97224   2.711   1.121   8.847 -0.5458 -1.4538  1.7575
  705MOL0     H97225   2.921   1.035   8.745  1.2552  4.7573  0.2292
  705MOL0     H97226   2.851   1.000   8.592  2.5014  0.6031 -0.6157
  705MOL0     H97227   2.837   1.239   8.547  0.3899  1.5093 -0.8197
  705MOL0     H97228   2.831   1.272   8.723 -1.5277 -0.9867 -0.0242
  705MOL0     H97229   3.072   1.188   8.737  1.6470 -0.7673 -2.1168
  705MOL0     H97230   3.065   1.192   8.560 -0.9692 -1.9949 -0.1808
  705MOL0     H97231   3.160   1.387   8.676 -1.0186  2.2552  4.8917
  705MOL0     H97232   2.996   1.433   8.733 -1.5479 -0.0172 -0.1706
  705MOL0     H97233   3.103   1.443   8.450  0.9625 -1.4895  0.2276
  705MOL0     H97234   2.931   1.441   8.479  1.1123  0.1159 -3.3189
  705MOL0     H97235   2.979   1.644   8.646  2.8402  0.9225  0.9311
  705MOL0     H97236   2.959   1.673   8.475 -0.7853 -0.9381  0.1676
  705MOL0     H97237   3.145   1.796   8.594  1.3190 -0.0705 -0.4508
  705MOL0     H97238   3.211   1.636   8.621 -1.7944 -0.2534  1.5004
  705MOL0     H97239   3.427   1.682   8.481 -0.9329  1.2779  1.9332
  705MOL0     H97240   3.563   1.652   8.244  0.5370  0.2354 -0.0055
  705MOL0     H97241   3.562   1.826   8.262  3.1704 -0.9031 -0.3609
  705MOL0     H97242   3.520   1.645   8.032 -1.7853  0.5352  0.8920
  705MOL0     H97243   3.450   1.820   8.031 -0.7471 -0.5987 -0.7426
  705MOL0     H97244   3.733   1.696   8.033  0.0227 -0.7870 -1.4827
  705MOL0     H97245   3.651   1.769   7.897 -1.7590  0.4454 -0.1810
  705MOL0     H97246   3.640   1.989   8.019  1.1275  1.2440  1.4407
  705MOL0     H97247   3.742   1.917   8.148  1.2505  1.6727 -0.0395
  705MOL0     H97248   3.908   1.824   8.180 -0.9519  0.0387  0.2092
  705MOL0     H97249   4.183   1.620   8.226 -2.3854 -0.3884 -2.2162
  705MOL0     H97250   4.049   1.695   8.306 -1.3100  1.6501  0.6134
  705MOL0     H97251   4.203   1.775   8.321  1.6245 -0.9229 -0.7190
  705MOL0     H97252   4.623   1.834   7.784 -1.7488 -1.1872 -0.1613
  705MOL0     H97253   4.850   1.825   7.825  0.0809  0.0793 -0.4974
  705MOL0     H97254   4.986   1.634   8.205 -2.0113  1.7439 -1.1430
  705MOL0     H97255   5.083   1.548   8.094 -0.5795  0.3056  2.2912
  705MOL0     H97256   5.212   1.693   8.251  1.6474  2.6364 -0.1431
  705MOL0     H97257   5.246   1.713   8.074 -0.6273  3.9679 -2.4059
  705MOL0     H97258   5.064   1.911   8.235 -0.8765  0.8434 -1.1243
  705MOL0     H97259   5.124   1.916   8.059  0.0370  1.6097  0.1919
  705MOL0     H97260   5.281   1.928   8.328  2.5696 -0.3472  0.1435
  705MOL0     H97261   5.259   2.069   8.225 -0.5202 -0.5189 -2.2296
  705MOL0     H97262   5.417   1.821   8.139 -0.8021 -0.5361  1.7051
  705MOL0     H97263   5.412   1.978   8.052  1.5306  2.2824  1.1767
  705MOL0     H97264   5.504   1.925   8.337  0.8422  2.3067  1.0892
  705MOL0     H97265   5.493   2.085   8.270  1.0935  0.0364 -2.1566
  705MOL0     H97266   5.675   2.046   8.109  0.0426  0.0055  0.1365
  705MOL0     H97267   5.659   1.879   8.116 -1.4234  0.0165  0.2542
  705MOL0     H97268   5.744   1.888   8.359  2.8946 -0.1689  1.1318
  705MOL0     H97269   5.757   2.067   8.334 -0.5807  0.5151 -1.0525
  705MOL0     H97270   4.774   1.556   8.157  2.3848  1.7151 -0.3639
  705MOL0     H97271   4.533   1.577   8.113  1.2146 -2.2162 -0.2885
  705MOL0     H97272   4.255   1.920   7.835 -1.1057  2.0940  0.3716
  705MOL0     H97273   4.032   1.971   7.795 -0.5626 -0.8012 -0.9725
  705MOL0     H97274   2.476   1.271   8.810 -0.7634  0.5199  0.7488
  705MOL0     H97275   2.239   1.253   8.924  1.6015  2.0270 -0.0856
  705MOL0     H97276   1.855   0.959   8.999  0.3809 -3.8612  1.2382
  705MOL0     H97277   1.689   0.811   8.993 -1.6089  0.6516  0.2563
  705MOL0     H97278   1.494   0.667   8.600  0.5906 -0.0712  0.5910
  705MOL0     H97279   1.640   0.574   8.642  1.3320 -2.3676  4.1643
  705MOL0     H97280   1.549   0.428   8.786  1.6334  1.1117 -1.4891
  705MOL0     H97281   1.442   0.429   8.643  1.3172 -0.2520  0.3923
  705MOL0     H97282   1.296   0.421   8.855 -2.6005  0.9535 -2.0215
  705MOL0     H97283   1.392   0.563   8.909  0.6485  2.1317 -0.9979
  705MOL0     H97284   1.249   0.588   8.656 -2.3068  0.4466  0.2445
  705MOL0     H97285   1.279   0.702   8.790 -0.7455  0.8674 -2.3175
  705MOL0     H97286   0.889   0.532   8.855  0.6245 -2.5759 -0.7636
  705MOL0     H97287   1.662   0.804   8.576 -3.6426 -1.3316  3.6014
  705MOL0     H97288   1.803   0.933   8.446 -4.5050  1.4220  2.6732
  705MOL0     H97289   1.836   1.097   8.495  3.2415  0.6463 -0.3042
  705MOL0     H97290   1.970   0.984   8.503  0.2971 -1.6389  0.1507
  706MOL0     O97291   7.342   2.457  10.714  0.0018  0.0425  0.5161
  706MOL0     C97292   7.423   2.527  10.771 -0.0235 -0.3350 -0.3310
  706MOL0     O97293   7.396   2.599  10.890  0.4195  0.3906  0.2244
  706MOL0     C97294   7.272   2.594  10.942  1.0290 -0.1294 -0.5499
  706MOL0     C97295   7.159   2.621  10.869  0.6064  0.1870 -0.9391
  706MOL0     C97296   7.028   2.609  10.922  0.3151 -0.4611 -0.6048
  706MOL0     C97297   7.013   2.590  11.057  0.5243 -0.6108  0.0965
  706MOL0     O97298   6.888   2.570  11.107  0.6215 -0.6871  0.1847
  706MOL0     C97299   6.864   2.585  11.249 -0.4090  0.0315 -0.8491
  706MOL0     C97300   6.717   2.582  11.298 -0.5758 -0.1025 -0.4496
  706MOL0     C97301   6.646   2.712  11.240  0.5365  0.4670 -0.3627
  706MOL0     C97302   6.507   2.713  11.303  0.0306 -0.0208  0.2285
  706MOL0     C97303   6.435   2.830  11.238  0.2989  0.6905  0.1405
  706MOL0     C97304   6.311   2.874  11.311 -0.7325  0.4343 -0.1179
  706MOL0     C97305   6.251   2.998  11.254 -0.5100 -0.5581 -0.7046
  706MOL0     C97306   6.311   3.131  11.310 -0.8831 -0.7395  0.2186
  706MOL0     N97307   6.212   3.246  11.287 -0.3927  0.9431  0.3995
  706MOL0     C97308   6.192   3.306  11.162 -0.3876 -0.7668 -0.6189
  706MOL0     C97309   6.091   3.390  11.192  0.5102 -0.1552 -0.6638
  706MOL0     C97310   6.007   3.469  11.085  0.0185  0.1155 -0.3704
  706MOL0     C97311   6.101   3.575  11.013 -0.2291  0.3088  0.5838
  706MOL0     C97312   6.145   3.687  11.103  0.1684  0.5981 -0.1256
  706MOL0     C97313   6.283   3.665  11.159  0.4304  0.2574  0.2714
  706MOL0     O97314   6.376   3.697  11.053 -0.3600 -0.4328  0.2261
  706MOL0     C97315   6.505   3.672  11.086 -0.5713 -0.6480 -0.5094
  706MOL0     C97316   6.588   3.647  10.973 -0.2183  0.4742  0.8476
  706MOL0     C97317   6.727   3.624  10.998  0.5231 -0.7875  0.7781
  706MOL0     C97318   6.801   3.611  10.868  0.7299  0.5161 -0.2154
  706MOL0     C97319   6.788   3.621  11.125  0.9209 -0.2521 -0.2637
  706MOL0     C97320   6.939   3.595  11.156 -0.3786  0.6683 -0.2334
  706MOL0     O97321   6.971   3.541  11.277 -0.4122 -0.1272  0.0564
  706MOL0     C97322   7.095   3.531  11.335  0.5739 -0.4107  0.0730
  706MOL0     C97323   7.110   3.419  11.414 -0.0946 -0.1024 -0.2303
  706MOL0     C97324   7.226   3.404  11.483 -0.3408  0.4387  0.5079
  706MOL0     C97325   7.328   3.493  11.470  0.0717  0.6512 -0.4792
  706MOL0     O97326   7.441   3.462  11.538 -0.2126  1.0633 -0.1035
  706MOL0     C97327   7.543   3.558  11.558  0.3996  0.5473 -0.5063
  706MOL0     C97328   7.645   3.504  11.666 -0.0488 -0.4697  0.2445
  706MOL0     C97329   7.769   3.590  11.673 -0.8370 -0.5086 -0.0774
  706MOL0     C97330   7.881   3.530  11.769 -0.2789  0.0480  0.3334
  706MOL0     C97331   8.019   3.592  11.747  0.0906  0.3177 -0.4988
  706MOL0     C97332   8.128   3.509  11.823 -0.0504 -0.1214  0.1639
  706MOL0     C97333   8.263   3.574  11.835 -0.5441  0.6034 -0.4597
  706MOL0     C97334   8.367   3.457  11.858  0.4551  0.0917 -0.2621
  706MOL0    Cl97335   8.539   3.524  11.847 -0.5549  0.3157  0.5256
  706MOL0     C97336   7.317   3.595  11.378 -0.2983 -0.1233 -0.2955
  706MOL0     C97337   7.200   3.619  11.315 -0.0774 -1.0117 -0.3704
  706MOL0     O97338   7.018   3.612  11.060  0.2547 -0.1753 -0.0098
  706MOL0     C97339   6.698   3.640  11.233 -0.3685 -0.0737  0.5565
  706MOL0     C97340   6.566   3.664  11.216 -0.1368 -0.2173 -0.4893
  706MOL0     N97341   6.066   3.395  11.330 -0.1456 -0.4706 -0.5378
  706MOL0     N97342   6.144   3.309  11.385  0.1457 -0.7197 -0.2559
  706MOL0     C97343   7.132   2.577  11.136 -0.2130  1.1250 -0.4123
  706MOL0     C97344   7.259   2.580  11.081  0.2760 -0.5399 -0.1490
  706MOL0     C97345   7.555   2.560  10.701  0.3713  0.1903  0.1115
  706MOL0     C97346   7.664   2.580  10.786  0.1334 -0.0963  0.6050
  706MOL0     C97347   7.794   2.605  10.727 -0.5227  1.0993  0.5903
  706MOL0     C97348   7.815   2.599  10.586  0.5329  0.1756 -0.3358
  706MOL0     O97349   7.934   2.609  10.521 -0.6945 -0.2164  0.3286
  706MOL0     C97350   8.058   2.656  10.584 -0.1439 -0.3812  0.7940
  706MOL0     C97351   8.060   2.811  10.596 -0.3737  0.3343  1.0215
  706MOL0     C97352   8.086   2.872  10.456 -0.4710 -0.8449  0.2343
  706MOL0     C97353   8.112   3.026  10.458  0.5653  1.0379  0.8830
  706MOL0     C97354   8.228   3.061  10.541 -1.0649 -0.5647 -0.4170
  706MOL0     C97355   8.318   3.103  10.613  0.2166 -0.4281 -0.3697
  706MOL0     C97356   7.702   2.586  10.502 -0.4159 -0.2967  0.2856
  706MOL0     C97357   7.577   2.565  10.556  0.4291  0.1899 -0.8323
  706MOL0     C97358   7.469   2.545  10.454 -0.3124 -0.1365  0.8936
  706MOL0     H97359   7.163   2.646  10.764 -1.8785 -0.1146 -1.1727
  706MOL0     H97360   6.938   2.607  10.862 -0.2440 -2.9909  0.2166
  706MOL0     H97361   6.902   2.680  11.287  2.5137 -1.0207 -0.8839
  706MOL0     H97362   6.927   2.513  11.302  0.7379 -0.1810 -2.4147
  706MOL0     H97363   6.679   2.485  11.262 -0.4527 -0.1594 -0.4261
  706MOL0     H97364   6.708   2.570  11.406 -0.3549 -3.4971 -0.6888
  706MOL0     H97365   6.702   2.802  11.267 -1.2019  1.8230 -1.0749
  706MOL0     H97366   6.630   2.699  11.133  0.2746 -5.2742  0.0400
  706MOL0     H97367   6.454   2.621  11.280 -2.0535  1.1153  0.1977
  706MOL0     H97368   6.517   2.725  11.412  0.5449 -2.3882  0.4821
  706MOL0     H97369   6.410   2.812  11.133 -2.9312  1.2921  0.7212
  706MOL0     H97370   6.506   2.913  11.240  2.0341 -0.4923 -3.1780
  706MOL0     H97371   6.238   2.793  11.300  0.5095 -0.9587  1.3374
  706MOL0     H97372   6.332   2.892  11.417 -0.7295  4.4605 -0.6603
  706MOL0     H97373   6.146   2.992  11.286  0.2159 -3.2563  1.6553
  706MOL0     H97374   6.241   2.997  11.146 -0.7839  4.3247 -0.9381
  706MOL0     H97375   6.335   3.122  11.416  3.6693  0.6509 -0.4837
  706MOL0     H97376   6.413   3.150  11.275 -0.0728 -0.8136  2.3771
  706MOL0     H97377   6.231   3.304  11.061 -0.8409  2.6344 -0.9793
  706MOL0     H97378   5.923   3.523  11.129  0.5541  0.0186  0.8176
  706MOL0     H97379   5.971   3.394  11.014 -2.0171  0.2916  0.4133
  706MOL0     H97380   6.186   3.513  10.981  0.2651 -0.2317  2.7943
  706MOL0     H97381   6.050   3.619  10.927  0.7933  1.7582  0.6780
  706MOL0     H97382   6.141   3.784  11.054 -1.7167  1.5912  1.8421
  706MOL0     H97383   6.082   3.689  11.192 -1.0727 -0.7521 -0.9202
  706MOL0     H97384   6.297   3.727  11.248  0.4555 -0.0837  0.5067
  706MOL0     H97385   6.300   3.565  11.200 -0.6601  0.3403  0.9536
  706MOL0     H97386   6.554   3.643  10.870  4.1383  0.7534 -0.7905
  706MOL0     H97387   6.850   3.513  10.865 -0.0962  0.1145 -3.4016
  706MOL0     H97388   6.869   3.697  10.866 -0.8863  1.9238  1.5080
  706MOL0     H97389   6.734   3.614  10.782  2.5799 -1.6592 -1.8442
  706MOL0     H97390   7.033   3.344  11.426 -0.4337  0.2470 -0.1924
  706MOL0     H97391   7.237   3.312  11.540 -0.1600 -0.1569 -0.4512
  706MOL0     H97392   7.596   3.575  11.463 -1.1040 -1.6392 -1.8444
  706MOL0     H97393   7.497   3.648  11.597  2.4454  1.9848 -1.2188
  706MOL0     H97394   7.595   3.508  11.763 -1.7326 -2.8126 -0.4374
  706MOL0     H97395   7.671   3.403  11.634 -3.0582 -0.7808 -1.5676
  706MOL0     H97396   7.743   3.691  11.706 -2.6325 -0.8102 -0.4752
  706MOL0     H97397   7.808   3.601  11.571 -3.3810  1.2931 -0.9534
  706MOL0     H97398   7.883   3.426  11.736  0.2103 -0.1767  1.0465
  706MOL0     H97399   7.849   3.543  11.873 -1.9508  1.9292 -0.3638
  706MOL0     H97400   8.050   3.581  11.643  2.2790  0.7458  0.0535
  706MOL0     H97401   8.029   3.700  11.764 -0.6496  0.0001  2.5993
  706MOL0     H97402   8.142   3.415  11.769  3.0573  1.2001 -1.6063
  706MOL0     H97403   8.085   3.495  11.922  1.6243  0.8572  1.0758
  706MOL0     H97404   8.258   3.644  11.919  1.0467  0.2207 -0.0006
  706MOL0     H97405   8.288   3.626  11.741  1.0005 -0.5225 -0.7198
  706MOL0     H97406   8.351   3.373  11.789  1.2343  0.3922 -0.8302
  706MOL0     H97407   8.352   3.417  11.959  1.5409  1.4396  0.4747
  706MOL0     H97408   7.406   3.654  11.359 -1.2871  1.5424 -0.0125
  706MOL0     H97409   7.194   3.708  11.253  1.9071 -0.6737 -0.1548
  706MOL0     H97410   6.733   3.632  11.336  0.9194  1.0005  0.2371
  706MOL0     H97411   6.498   3.679  11.299 -2.0396 -2.2885 -1.5619
  706MOL0     H97412   7.154   2.544  11.237  2.8348  0.2738 -1.2591
  706MOL0     H97413   7.343   2.575  11.149  0.0085  2.8167  0.6129
  706MOL0     H97414   7.658   2.590  10.894  5.5042  1.8522  1.0449
  706MOL0     H97415   7.877   2.626  10.793 -0.9997  0.3744  1.4288
  706MOL0     H97416   8.070   2.611  10.683 -0.2471 -0.2908  0.8473
  706MOL0     H97417   8.140   2.614  10.524 -0.7532 -1.6909  0.8501
  706MOL0     H97418   8.144   2.838  10.662  1.4765 -1.3975 -0.4910
  706MOL0     H97419   7.968   2.847  10.643 -1.1739  2.6682 -2.0187
  706MOL0     H97420   8.165   2.818  10.404  0.1053  0.7046 -0.5883
  706MOL0     H97421   8.001   2.848  10.391  0.4617  2.7015 -2.6199
  706MOL0     H97422   8.020   3.061  10.507 -0.3665 -1.1074  0.7666
  706MOL0     H97423   8.107   3.070  10.358 -1.5516 -2.3232 -0.6445
  706MOL0     H97424   8.396   3.118  10.685 -0.4649  1.7676 -0.0329
  706MOL0     H97425   7.718   2.590  10.395 -0.9655  1.0246  0.2263
  706MOL0     H97426   7.460   2.437  10.439  1.2308 -0.1545 -0.0837
  706MOL0     H97427   7.379   2.587  10.500 -1.1304 -0.7160 -0.1166
  706MOL0     H97428   7.481   2.602  10.362 -1.5695 -0.1169  0.7144
  707MOL0     O97429   0.155  10.785   5.431  0.1026  0.2406 -0.1576
  707MOL0     C97430   0.124  10.728   5.328 -0.4625  1.6046 -0.2957
  707MOL0     O97431   0.196  10.636   5.266 -0.2112  0.0726  0.5850
  707MOL0     C97432   0.336  10.632   5.284  0.4882 -0.2615  0.1300
  707MOL0     C97433   0.395  10.514   5.321  0.5723  0.8200 -1.0077
  707MOL0     C97434   0.532  10.497   5.335  1.2622  0.1462 -0.2424
  707MOL0     C97435   0.615  10.608   5.312  0.4115  0.7379  0.3072
  707MOL0     O97436   0.754  10.601   5.324 -0.7721 -0.4896  0.5098
  707MOL0     C97437   0.825  10.650   5.210  0.3021  0.7898 -0.0451
  707MOL0     C97438   0.943  10.548   5.173  0.1319 -0.1566  0.3943
  707MOL0     C97439   1.033  10.602   5.062 -0.3429  0.1839 -0.7435
  707MOL0     C97440   1.162  10.519   5.060  0.5707 -0.3257 -0.4031
  707MOL0     C97441   1.249  10.562   4.937  0.7316 -0.0112 -0.4079
  707MOL0     C97442   1.371  10.470   4.938  0.1068  0.2135 -0.3228
  707MOL0     C97443   1.478  10.543   4.847  0.5740 -0.9081  0.1035
  707MOL0     C97444   1.606  10.474   4.838  0.4142 -0.0993  0.3307
  707MOL0     N97445   1.683  10.471   4.966  0.3129  0.9532  0.5069
  707MOL0     C97446   1.666  10.378   5.069  0.2621 -0.3219  0.1192
  707MOL0     C97447   1.774  10.400   5.145 -0.6529 -0.3367 -0.4119
  707MOL0     C97448   1.805  10.352   5.278 -0.8544 -0.1955 -0.5465
  707MOL0     C97449   1.948  10.303   5.304 -0.2232  0.3786  0.3247
  707MOL0     C97450   1.954  10.223   5.443 -0.6658  0.1269 -0.1129
  707MOL0     C97451   2.095  10.168   5.481  0.6052 -0.2604  0.0270
  707MOL0     O97452   2.120  10.051   5.389 -0.0688 -0.2208  0.3279
  707MOL0     C97453   2.250  10.022   5.399 -0.2779 -0.3303  0.5053
  707MOL0     C97454   2.299   9.971   5.519  0.3554  0.2687 -0.4213
  707MOL0     C97455   2.420   9.900   5.532  0.6468 -0.0926  0.0871
  707MOL0     C97456   2.445   9.811   5.651  0.0015 -0.2617 -1.0293
  707MOL0     C97457   2.504   9.895   5.413  0.0083  0.7039 -0.5152
  707MOL0     C97458   2.631   9.830   5.411  0.6997 -0.1698  0.5284
  707MOL0     O97459   2.698   9.824   5.524 -0.0217 -0.4673  1.0659
  707MOL0     C97460   2.795   9.718   5.537 -0.0230 -0.0003  0.0183
  707MOL0     C97461   2.907   9.715   5.458  0.3637 -0.7488  0.0361
  707MOL0     C97462   3.010   9.625   5.476 -0.7200  1.6221  0.2483
  707MOL0     C97463   2.997   9.523   5.568  0.8686  0.3848  1.0483
  707MOL0     O97464   3.095   9.426   5.571  0.8545 -0.5460  0.5256
  707MOL0     C97465   3.053   9.304   5.502  0.1225  0.3984 -0.7098
  707MOL0     C97466   3.173   9.206   5.510  1.6264  0.0411 -0.6993
  707MOL0     C97467   3.308   9.264   5.475 -0.0365 -0.0976  0.3634
  707MOL0     C97468   3.404   9.144   5.448  0.1238  0.0259  0.1884
  707MOL0     C97469   3.551   9.196   5.454  0.3304 -0.2460  0.1619
  707MOL0     C97470   3.587   9.210   5.605 -0.1430  0.0089  0.1517
  707MOL0     C97471   3.710   9.295   5.625  0.5358  0.6478  0.1059
  707MOL0     C97472   3.732   9.322   5.777 -0.0192  0.0496  0.1009
  707MOL0    Cl97473   3.800   9.180   5.868  0.0586 -0.2907  0.0179
  707MOL0     C97474   2.888   9.528   5.648 -0.2206  0.1195 -0.6986
  707MOL0     C97475   2.786   9.622   5.634  0.1920 -0.5451  0.1796
  707MOL0     O97476   2.671   9.772   5.306  0.1719  0.4193  0.3320
  707MOL0     C97477   2.453   9.952   5.297 -0.7343  1.3397 -0.1633
  707MOL0     C97478   2.326  10.012   5.286 -0.2215  0.4723 -0.4735
  707MOL0     N97479   1.857  10.495   5.076  0.5903  0.3754 -0.1026
  707MOL0     N97480   1.799  10.540   4.974 -0.4297  0.1318  0.6975
  707MOL0     C97481   0.557  10.726   5.273 -0.0396 -0.1972 -0.5636
  707MOL0     C97482   0.420  10.741   5.266  0.1635 -0.3730  0.0227
  707MOL0     C97483  -0.021  10.733   5.288  0.1901  0.3579  0.2221
  707MOL0     C97484  -0.074  10.606   5.238 -0.2264 -0.4541  0.6318
  707MOL0     C97485  -0.198  10.595   5.176 -0.4891 -0.4709  0.5447
  707MOL0     C97486  -0.279  10.709   5.179 -0.2650  0.3266  0.5919
  707MOL0     O97487  -0.410  10.702   5.124  0.3604  0.1024  0.4526
  707MOL0     C97488  -0.501  10.619   5.200  0.1935 -0.1696 -0.0041
  707MOL0     C97489  -0.540  10.699   5.326  0.3575  0.1985 -1.2091
  707MOL0     C97490  -0.652  10.615   5.398  0.3383 -0.2607 -0.2085
  707MOL0     C97491  -0.700  10.680   5.520 -0.3269  0.2758 -0.5546
  707MOL0     C97492  -0.793  10.589   5.600  0.7230 -0.4217  0.1233
  707MOL0     C97493  -0.870  10.527   5.669  0.2935 -0.5265  0.2385
  707MOL0     C97494  -0.238  10.822   5.231 -0.0639 -0.6761 -0.8355
  707MOL0     C97495  -0.109  10.841   5.291 -0.4729  0.3297 -0.0882
  707MOL0     C97496  -0.068  10.976   5.346 -0.1692 -0.3370 -0.2382
  707MOL0     H97497   0.324  10.435   5.343  1.8938  0.4944  2.9122
  707MOL0     H97498   0.579  10.411   5.380 -0.7898 -0.3581  1.0775
  707MOL0     H97499   0.878  10.738   5.248  1.0532  0.4679 -0.3246
  707MOL0     H97500   0.773  10.677   5.117  0.8306 -0.7117 -0.8102
  707MOL0     H97501   1.014  10.529   5.254  2.0816  3.4422 -0.2819
  707MOL0     H97502   0.908  10.445   5.158  0.4553 -0.2934  0.5713
  707MOL0     H97503   0.984  10.590   4.964  1.2217 -1.5706 -1.3794
  707MOL0     H97504   1.060  10.706   5.081 -0.1086 -0.2813  1.8314
  707MOL0     H97505   1.224  10.533   5.148 -1.1655  1.7098  0.5750
  707MOL0     H97506   1.132  10.415   5.046  0.2399 -0.1164 -1.3669
  707MOL0     H97507   1.276  10.667   4.951 -0.4180  0.9042 -4.0364
  707MOL0     H97508   1.197  10.546   4.842 -0.3256  0.9134 -0.0123
  707MOL0     H97509   1.421  10.463   5.035 -0.8643 -0.6841  0.1272
  707MOL0     H97510   1.343  10.373   4.895 -0.5094  1.0169 -1.8314
  707MOL0     H97511   1.496  10.648   4.873 -0.3652 -0.7935  0.3103
  707MOL0     H97512   1.445  10.556   4.743  0.4261  1.4100  0.3736
  707MOL0     H97513   1.590  10.372   4.804 -2.0685  0.4098 -0.2998
  707MOL0     H97514   1.666  10.530   4.766  1.0899  1.2876  1.8889
  707MOL0     H97515   1.577  10.324   5.101  0.2011  0.3957  1.2420
  707MOL0     H97516   1.739  10.269   5.304  0.6008 -1.5745 -1.0437
  707MOL0     H97517   1.776  10.426   5.353  1.6261 -0.5159  0.8510
  707MOL0     H97518   1.984  10.237   5.224 -2.0773 -1.8009  1.1729
  707MOL0     H97519   2.016  10.389   5.307  1.5234 -0.9471  0.1537
  707MOL0     H97520   1.929  10.299   5.518  1.7723  1.1327 -0.2301
  707MOL0     H97521   1.874  10.149   5.451  0.4436 -1.1651 -0.5628
  707MOL0     H97522   2.171  10.243   5.457  1.0619 -0.7288 -0.0038
  707MOL0     H97523   2.099  10.161   5.590  0.0353  1.3088  0.1816
  707MOL0     H97524   2.238   9.963   5.609  1.1099 -1.5811 -0.0256
  707MOL0     H97525   2.365   9.804   5.726  1.7898  2.3028  1.2941
  707MOL0     H97526   2.532   9.861   5.694 -0.8357  0.2924  0.0826
  707MOL0     H97527   2.462   9.707   5.623  1.4953 -0.3088 -0.0460
  707MOL0     H97528   2.923   9.800   5.393 -1.4700  2.0527  2.9121
  707MOL0     H97529   3.101   9.628   5.416 -1.4421 -0.6593 -1.0965
  707MOL0     H97530   2.970   9.252   5.550  1.2388 -0.5915  0.2328
  707MOL0     H97531   3.029   9.336   5.400 -0.5388 -2.3442 -1.5135
  707MOL0     H97532   3.180   9.169   5.613 -1.2042 -0.6394 -0.6532
  707MOL0     H97533   3.149   9.125   5.440  3.6525 -0.4935 -0.8571
  707MOL0     H97534   3.344   9.312   5.566 -1.8829 -0.0191  1.0915
  707MOL0     H97535   3.319   9.336   5.394  3.2636 -0.9964 -0.1371
  707MOL0     H97536   3.394   9.104   5.347  4.3771 -1.0750  0.0430
  707MOL0     H97537   3.386   9.066   5.523 -1.5867  1.4691  1.3748
  707MOL0     H97538   3.623   9.124   5.412  0.1386 -0.0730 -0.4745
  707MOL0     H97539   3.556   9.287   5.394 -0.3094 -0.9811 -1.0617
  707MOL0     H97540   3.600   9.111   5.648 -1.7469  0.1503  1.0482
  707MOL0     H97541   3.509   9.261   5.662 -0.8437 -1.1503  0.2616
  707MOL0     H97542   3.699   9.395   5.581  0.8242  1.5245  1.9288
  707MOL0     H97543   3.795   9.245   5.578 -0.2016 -2.1857  1.6095
  707MOL0     H97544   3.644   9.358   5.832  1.3352  1.2784  1.5937
  707MOL0     H97545   3.812   9.393   5.801  0.7323 -0.9253  0.5895
  707MOL0     H97546   2.894   9.453   5.726  2.3563  0.7543 -0.1631
  707MOL0     H97547   2.707   9.621   5.708 -1.7156  0.2819 -1.7378
  707MOL0     H97548   2.523   9.955   5.214  1.4681  3.1481  1.6374
  707MOL0     H97549   2.284  10.064   5.201 -2.6308 -1.9716 -0.9215
  707MOL0     H97550   0.623  10.809   5.254  1.0408 -0.6802  0.8682
  707MOL0     H97551   0.391  10.844   5.252  0.6935 -0.5997 -3.6276
  707MOL0     H97552  -0.003  10.526   5.220 -0.2846 -0.2868 -0.4398
  707MOL0     H97553  -0.232  10.505   5.126 -1.8279  0.7405 -0.8186
  707MOL0     H97554  -0.578  10.585   5.130  1.5374  1.5604 -2.4878
  707MOL0     H97555  -0.445  10.528   5.225  1.5766  1.1049  1.8849
  707MOL0     H97556  -0.575  10.801   5.308 -3.0728 -0.4210  1.0109
  707MOL0     H97557  -0.454  10.709   5.394  0.9214  2.8359 -2.1909
  707MOL0     H97558  -0.730  10.615   5.322  1.2202 -0.7177 -1.1276
  707MOL0     H97559  -0.614  10.514   5.417 -1.8146 -1.1060 -0.0996
  707MOL0     H97560  -0.752  10.775   5.510  0.5209  1.1496  2.4621
  707MOL0     H97561  -0.609  10.703   5.576 -0.7255  0.4674  0.0197
  707MOL0     H97562  -0.945  10.474   5.722 -0.9289 -0.8770 -1.7431
  707MOL0     H97563  -0.307  10.905   5.232  1.4511  0.6970 -2.4158
  707MOL0     H97564   0.019  11.022   5.298  0.4764 -0.5000  0.7278
  707MOL0     H97565  -0.151  11.045   5.328 -0.4577 -0.8795 -1.0292
  707MOL0     H97566  -0.037  10.964   5.450  0.5447 -2.6630 -0.6729
  708MOL0     O97567   3.771   2.052   0.408  1.2296  0.5444  0.3030
  708MOL0     C97568   3.738   1.981   0.312 -0.7450  0.0788  0.3253
  708MOL0     O97569   3.760   1.850   0.305 -0.5325  0.2435 -0.0495
  708MOL0     C97570   3.811   1.783   0.419 -0.0766  0.1027  0.0262
  708MOL0     C97571   3.734   1.674   0.466 -0.9510  0.6787 -0.7703
  708MOL0     C97572   3.772   1.609   0.583 -0.9599 -0.2421 -1.0552
  708MOL0     C97573   3.899   1.634   0.643  0.4637  0.2235 -0.1585
  708MOL0     O97574   3.958   1.555   0.744  0.3562 -0.9565  0.5404
  708MOL0     C97575   3.868   1.441   0.790 -0.3072 -1.1042  0.0890
  708MOL0     C97576   3.951   1.347   0.880  0.3860  0.1697  0.3718
  708MOL0     C97577   4.066   1.277   0.801  0.0800 -1.0725 -0.5403
  708MOL0     C97578   4.049   1.222   0.658 -0.1142  0.0064 -0.9816
  708MOL0     C97579   4.159   1.121   0.607 -0.3901 -1.2142 -0.5212
  708MOL0     C97580   4.301   1.180   0.610 -0.5832 -0.2000  0.0764
  708MOL0     C97581   4.410   1.077   0.602  0.4536 -0.1182 -0.5731
  708MOL0     C97582   4.389   0.979   0.478 -0.3305 -0.3616 -0.1865
  708MOL0     N97583   4.507   0.892   0.460  0.1709 -0.0941  0.2655
  708MOL0     C97584   4.620   0.916   0.383 -0.2660 -0.5694  0.8372
  708MOL0     C97585   4.694   0.805   0.391 -0.3379  0.3323  0.2310
  708MOL0     C97586   4.829   0.774   0.330  0.7393  0.2035  0.2588
  708MOL0     C97587   4.829   0.764   0.180 -0.3895  0.3184  0.4119
  708MOL0     C97588   4.758   0.638   0.128 -0.6727  0.1050  0.2914
  708MOL0     C97589   4.606   0.626   0.157 -0.1470  0.2789  0.1044
  708MOL0     O97590   4.540   0.740   0.091 -0.1905  0.4061  0.2201
  708MOL0     C97591   4.410   0.779   0.126 -0.6885 -0.1362  0.3171
  708MOL0     C97592   4.311   0.712   0.200 -0.4605 -0.1594  0.3756
  708MOL0     C97593   4.191   0.771   0.220 -0.4325 -0.1667 -0.7612
  708MOL0     C97594   4.085   0.685   0.282  0.9147  0.6632 -0.1648
  708MOL0     C97595   4.167   0.901   0.179  0.8615 -0.1786 -0.1828
  708MOL0     C97596   4.046   0.980   0.215  0.2386 -0.5422 -1.0346
  708MOL0     O97597   4.007   1.079   0.132 -0.0197  0.7134 -0.0883
  708MOL0     C97598   3.908   1.158   0.173  0.2801  0.3831  0.2998
  708MOL0     C97599   3.790   1.169   0.092 -0.0966  0.7319 -0.2594
  708MOL0     C97600   3.679   1.249   0.126 -0.0587 -0.4071 -0.9262
  708MOL0     C97601   3.700   1.345   0.233  0.3132 -0.0005 -0.2267
  708MOL0     O97602   3.607   1.440   0.273  0.0783 -0.5374  0.0447
  708MOL0     C97603   3.543   1.506   0.167  1.2258 -0.9710 -0.1895
  708MOL0     C97604   3.453   1.616   0.224 -0.5632  0.4478 -0.4085
  708MOL0     C97605   3.369   1.575   0.351  0.0455 -0.6881  0.6919
  708MOL0     C97606   3.294   1.449   0.318 -0.0566  0.0463 -0.9072
  708MOL0     C97607   3.192   1.436   0.436 -0.1849 -0.4718  0.3489
  708MOL0     C97608   3.222   1.313   0.525 -0.4745  0.3777  0.0557
  708MOL0     C97609   3.357   1.332   0.605  0.3284  1.6018  0.0194
  708MOL0     C97610   3.353   1.435   0.712 -0.5130 -0.1078 -0.3664
  708MOL0    Cl97611   3.512   1.422   0.801  0.0013 -0.3268 -0.2596
  708MOL0     C97612   3.820   1.343   0.301 -0.2520 -0.7702  0.3450
  708MOL0     C97613   3.914   1.241   0.288  0.6802  0.2965 -0.0080
  708MOL0     O97614   3.984   0.948   0.319  0.7020  0.1083 -0.1521
  708MOL0     C97615   4.264   0.975   0.110 -0.4457  0.0702 -0.2176
  708MOL0     C97616   4.384   0.909   0.084 -0.7639 -0.3634  0.5600
  708MOL0     N97617   4.629   0.714   0.474 -0.2305 -0.3743 -0.1569
  708MOL0     N97618   4.515   0.771   0.513 -0.8164  0.3102 -0.2047
  708MOL0     C97619   3.977   1.730   0.587  0.3116 -0.8795 -0.3960
  708MOL0     C97620   3.935   1.807   0.476 -0.0764  0.1553 -0.8973
  708MOL0     C97621   3.667   2.053   0.198 -1.0610  0.7956 -0.8478
  708MOL0     C97622   3.628   1.983   0.090  0.5690  0.2620 -0.3045
  708MOL0     C97623   3.563   2.050  -0.018 -0.3656  0.4301  0.2672
  708MOL0     C97624   3.537   2.185  -0.022 -0.9019 -0.5232  0.0258
  708MOL0     O97625   3.480   2.234  -0.133 -0.1793  0.8583 -1.0093
  708MOL0     C97626   3.490   2.374  -0.160 -0.1765 -0.1585 -1.0371
  708MOL0     C97627   3.639   2.416  -0.195 -1.4722 -0.0890 -0.6221
  708MOL0     C97628   3.706   2.350  -0.318 -0.1513 -0.2983  0.3044
  708MOL0     C97629   3.845   2.297  -0.265 -0.4913 -0.2340 -0.2510
  708MOL0     C97630   3.916   2.238  -0.384  0.5429  0.5186  0.0388
  708MOL0     C97631   3.985   2.195  -0.473 -0.3989 -0.5002 -0.7078
  708MOL0     C97632   3.582   2.253   0.089  0.1033  0.0008 -0.7293
  708MOL0     C97633   3.645   2.195   0.200 -0.6725  0.6595  0.0576
  708MOL0     C97634   3.662   2.289   0.312  0.2090 -0.5968 -0.2217
  708MOL0     H97635   3.644   1.646   0.414 -0.5140  0.0664 -1.2127
  708MOL0     H97636   3.703   1.536   0.625 -0.1102 -0.2648  0.3422
  708MOL0     H97637   3.843   1.382   0.702  1.4860 -2.7857  0.6172
  708MOL0     H97638   3.778   1.474   0.842 -1.2392 -0.4699 -1.8717
  708MOL0     H97639   3.987   1.404   0.966  1.6043  1.8712 -1.1850
  708MOL0     H97640   3.880   1.268   0.904 -0.6283  1.4785  1.9351
  708MOL0     H97641   4.152   1.343   0.816 -0.9334 -0.1234  1.3414
  708MOL0     H97642   4.097   1.190   0.860 -0.0306 -1.5963 -1.2420
  708MOL0     H97643   3.952   1.172   0.659 -0.9460  1.5053  0.6996
  708MOL0     H97644   4.037   1.312   0.596 -0.0454  0.6435 -0.0860
  708MOL0     H97645   4.123   1.083   0.511 -0.6144  0.0346 -0.9517
  708MOL0     H97646   4.158   1.030   0.668  0.6564 -2.8072 -2.7613
  708MOL0     H97647   4.308   1.253   0.528  1.8674 -0.1062  0.2917
  708MOL0     H97648   4.315   1.245   0.697 -0.2244 -1.0712  0.6845
  708MOL0     H97649   4.390   1.013   0.688 -2.4848  1.3254 -0.0265
  708MOL0     H97650   4.507   1.126   0.602  0.5091 -0.2100 -1.2910
  708MOL0     H97651   4.303   0.912   0.484 -0.0524 -0.7798 -0.8369
  708MOL0     H97652   4.378   1.047   0.392 -2.3362  0.4395  0.6302
  708MOL0     H97653   4.633   0.998   0.313 -0.4263 -0.0993  1.3476
  708MOL0     H97654   4.856   0.677   0.373 -0.5948  0.5009  1.8330
  708MOL0     H97655   4.902   0.848   0.366  0.9851  0.7821 -1.3122
  708MOL0     H97656   4.758   0.838   0.143 -1.4201 -1.5947 -1.7000
  708MOL0     H97657   4.927   0.779   0.135  0.1435 -1.7996  0.7569
  708MOL0     H97658   4.770   0.646   0.019  1.6808 -3.4009  0.1422
  708MOL0     H97659   4.810   0.546   0.155  0.4019 -0.0083 -1.9244
  708MOL0     H97660   4.564   0.542   0.101  0.0491 -1.1442  1.9956
  708MOL0     H97661   4.594   0.599   0.262  1.7318 -2.5018 -0.3130
  708MOL0     H97662   4.339   0.613   0.234 -0.6250  0.0908  1.2616
  708MOL0     H97663   3.992   0.707   0.229 -0.0201 -1.5988  0.4121
  708MOL0     H97664   4.062   0.715   0.385 -2.6740 -1.0715 -0.2903
  708MOL0     H97665   4.088   0.576   0.272  2.8090  0.5141  1.3880
  708MOL0     H97666   3.779   1.106   0.004  0.5260 -1.5349  1.1804
  708MOL0     H97667   3.590   1.255   0.065 -0.0470 -0.6519 -0.9689
  708MOL0     H97668   3.610   1.550   0.093 -0.5212 -1.3610 -2.1006
  708MOL0     H97669   3.475   1.440   0.112  4.0384 -4.1887 -0.0702
  708MOL0     H97670   3.508   1.708   0.249 -2.4405  1.1923  1.2141
  708MOL0     H97671   3.380   1.651   0.149 -1.2418 -1.7432 -0.8528
  708MOL0     H97672   3.303   1.656   0.384  1.7067  0.9429  0.1541
  708MOL0     H97673   3.439   1.566   0.434 -0.7808 -1.8167  1.3046
  708MOL0     H97674   3.366   1.367   0.321  0.5503  0.5991  1.1110
  708MOL0     H97675   3.242   1.460   0.222  1.1354  1.6374 -1.4161
  708MOL0     H97676   3.191   1.525   0.500  0.5398 -0.0630 -0.1817
  708MOL0     H97677   3.091   1.425   0.396 -1.5730  3.8553  2.1781
  708MOL0     H97678   3.246   1.220   0.472 -0.0508  0.8814 -0.6554
  708MOL0     H97679   3.140   1.304   0.597 -0.3885 -0.7133  0.0324
  708MOL0     H97680   3.441   1.330   0.535 -0.0285 -0.6022 -0.4241
  708MOL0     H97681   3.368   1.234   0.652  0.7587  0.7398 -1.7760
  708MOL0     H97682   3.282   1.412   0.793  1.3977  1.6079  1.9535
  708MOL0     H97683   3.347   1.536   0.672  2.0518  0.3935  0.3628
  708MOL0     H97684   3.836   1.420   0.376  1.4648 -0.6736 -0.0951
  708MOL0     H97685   4.013   1.250   0.332  0.2536 -0.0587  1.0331
  708MOL0     H97686   4.248   1.079   0.084 -2.1726 -0.3261 -0.8718
  708MOL0     H97687   4.461   0.968   0.036 -1.8758  0.2478 -0.5186
  708MOL0     H97688   4.077   1.757   0.619  1.3052 -2.2281 -2.1953
  708MOL0     H97689   4.014   1.863   0.427  0.0361 -0.5360 -1.5259
  708MOL0     H97690   3.652   1.878   0.074 -0.1158  0.3819 -2.4207
  708MOL0     H97691   3.526   1.982  -0.094 -0.4827 -4.1970  4.0038
  708MOL0     H97692   3.426   2.389  -0.248 -0.6411  1.5302 -0.4549
  708MOL0     H97693   3.447   2.438  -0.083 -0.0293  0.3976 -1.4083
  708MOL0     H97694   3.705   2.428  -0.109 -0.4861  1.2125 -1.5158
  708MOL0     H97695   3.621   2.520  -0.226 -0.1206  0.9161  1.6908
  708MOL0     H97696   3.645   2.265  -0.350  1.9625 -0.9386 -2.4396
  708MOL0     H97697   3.720   2.418  -0.402  2.5255  0.5434  1.3086
  708MOL0     H97698   3.830   2.223  -0.187 -1.0289  1.2881  1.1494
  708MOL0     H97699   3.909   2.381  -0.234  2.9373 -2.0146 -1.9646
  708MOL0     H97700   4.043   2.172  -0.560  1.7007  0.0465  0.4888
  708MOL0     H97701   3.568   2.360   0.104  1.9765 -0.1342  2.6988
  708MOL0     H97702   3.624   2.391   0.297 -1.1383 -1.1863 -0.9181
  708MOL0     H97703   3.610   2.249   0.400 -1.2905  0.1295 -0.7437
  708MOL0     H97704   3.771   2.293   0.327  0.4415 -1.5155 -1.5211
  709MOL0     O97705   7.417   8.995   8.491 -0.1550  0.0370 -0.0971
  709MOL0     C97706   7.320   9.004   8.423  0.5611 -0.3640  0.7255
  709MOL0     O97707   7.323   9.019   8.289 -0.5446  0.4902  0.4243
  709MOL0     C97708   7.420   9.104   8.246 -0.6291 -0.0391  0.8676
  709MOL0     C97709   7.553   9.068   8.222 -0.8394  0.2425  0.0565
  709MOL0     C97710   7.649   9.161   8.182  0.4931 -0.5953  0.3784
  709MOL0     C97711   7.608   9.294   8.153  0.2507  0.3527  0.3406
  709MOL0     O97712   7.687   9.398   8.103  0.4122 -0.4794 -0.3060
  709MOL0     C97713   7.822   9.407   8.159  0.0463 -0.1976 -0.8338
  709MOL0     C97714   7.913   9.487   8.071 -0.3492 -0.0826 -0.6759
  709MOL0     C97715   7.955   9.413   7.938 -0.4962  0.6181 -0.3547
  709MOL0     C97716   8.016   9.516   7.848  0.2008  0.4570 -0.0585
  709MOL0     C97717   8.059   9.457   7.713  0.3121 -0.5834 -1.0255
  709MOL0     C97718   8.100   9.565   7.613 -0.4462 -0.5553 -0.1067
  709MOL0     C97719   8.125   9.515   7.477  0.6352 -0.6307 -0.2409
  709MOL0     C97720   8.107   9.626   7.369  0.0847 -0.0465  0.7914
  709MOL0     N97721   8.129   9.559   7.241  0.1800 -0.0613 -0.1691
  709MOL0     C97722   8.240   9.584   7.157  0.3883 -0.2894 -0.9065
  709MOL0     C97723   8.202   9.528   7.039 -0.0131  0.0720  0.1618
  709MOL0     C97724   8.280   9.529   6.913  0.1511 -0.0026  0.3018
  709MOL0     C97725   8.383   9.414   6.898 -0.0490 -0.6195 -0.0009
  709MOL0     C97726   8.308   9.281   6.870 -0.5922 -0.7376 -0.1914
  709MOL0     C97727   8.411   9.166   6.885  0.1954 -0.3414 -0.3191
  709MOL0     O97728   8.495   9.187   6.777 -0.2920  0.5181  0.2453
  709MOL0     C97729   8.612   9.118   6.772  0.1611  0.1732  0.4158
  709MOL0     C97730   8.642   8.996   6.834 -0.4152 -0.3205  0.2194
  709MOL0     C97731   8.766   8.933   6.808  0.5026  0.1988  0.2912
  709MOL0     C97732   8.782   8.805   6.885  0.0399 -0.1765  0.5637
  709MOL0     C97733   8.849   8.984   6.695 -0.5650  0.3114 -0.7048
  709MOL0     C97734   8.982   8.923   6.649  0.3310  0.2776 -0.0317
  709MOL0     O97735   9.036   8.963   6.530 -0.2432 -0.1061  0.1075
  709MOL0     C97736   9.163   8.923   6.513  0.8652  0.4988 -0.2420
  709MOL0     C97737   9.189   8.784   6.474 -0.1335 -0.1175 -0.3050
  709MOL0     C97738   9.328   8.750   6.452 -0.9726 -0.4429 -0.2445
  709MOL0     C97739   9.433   8.846   6.473  0.6585 -0.5055 -0.1421
  709MOL0     O97740   9.559   8.823   6.444 -1.1264 -0.6720  0.1119
  709MOL0     C97741   9.599   8.704   6.379 -1.1998  1.2380  0.9956
  709MOL0     C97742   9.727   8.719   6.296  0.6437  0.0195 -0.1961
  709MOL0     C97743   9.710   8.805   6.178  0.9404  0.2858  0.5925
  709MOL0     C97744   9.825   8.816   6.080 -0.2426  0.2133  0.7418
  709MOL0     C97745   9.775   8.837   5.936  0.3603  0.0467  0.1352
  709MOL0     C97746   9.901   8.863   5.855 -0.8237  0.1057  0.5501
  709MOL0     C97747   9.867   8.860   5.708 -0.0604  0.1274 -0.5155
  709MOL0     C97748   9.987   8.869   5.610 -0.0064 -0.5650 -0.5360
  709MOL0    Cl97749  10.090   9.009   5.639  0.2904  0.5899  0.0234
  709MOL0     C97750   9.391   8.976   6.513 -0.2735  0.4432 -0.4859
  709MOL0     C97751   9.263   9.020   6.521 -0.7284  0.0390 -0.1597
  709MOL0     O97752   9.032   8.839   6.724  0.3813 -0.0187 -0.7965
  709MOL0     C97753   8.802   9.096   6.627  0.2934 -0.1333  0.0651
  709MOL0     C97754   8.690   9.165   6.675 -0.6819 -0.3754  0.9725
  709MOL0     N97755   8.084   9.453   7.057 -0.1370  0.8325 -0.3730
  709MOL0     N97756   8.040   9.472   7.180 -1.1409 -0.2872 -0.5316
  709MOL0     C97757   7.478   9.336   8.186 -0.4103 -0.2466 -0.3443
  709MOL0     C97758   7.391   9.240   8.230 -0.6382  0.5928 -0.9167
  709MOL0     C97759   7.183   9.029   8.480  0.1842 -0.3251 -0.8144
  709MOL0     C97760   7.082   9.064   8.387  0.3486 -0.1130 -0.7187
  709MOL0     C97761   6.948   9.088   8.426 -0.4579 -0.5954 -0.0255
  709MOL0     C97762   6.915   9.097   8.559 -0.5984  0.0119  1.1129
  709MOL0     O97763   6.793   9.128   8.613  0.3745 -0.3527  0.1032
  709MOL0     C97764   6.689   9.172   8.515 -0.9842  0.1800 -0.1598
  709MOL0     C97765   6.558   9.202   8.598  0.0482 -0.6761 -0.2719
  709MOL0     C97766   6.450   9.272   8.506  0.0267  0.4748  0.1787
  709MOL0     C97767   6.309   9.276   8.570  0.3790 -1.0090 -0.6361
  709MOL0     C97768   6.311   9.345   8.706 -0.8586 -0.0854 -0.6863
  709MOL0     C97769   6.324   9.388   8.819 -0.1638 -0.0480  0.0093
  709MOL0     C97770   7.015   9.062   8.652 -0.2333 -0.1130 -0.3243
  709MOL0     C97771   7.145   9.030   8.615 -0.5980  0.4241 -0.5988
  709MOL0     C97772   7.248   9.005   8.728 -0.2814 -0.2904 -0.1968
  709MOL0     H97773   7.581   8.964   8.234 -2.7518 -0.1624  1.6535
  709MOL0     H97774   7.752   9.129   8.171  0.5623 -0.0235 -0.8230
  709MOL0     H97775   7.862   9.306   8.160  0.4221 -0.0519  0.0349
  709MOL0     H97776   7.816   9.447   8.261  0.1330  0.0906 -0.9414
  709MOL0     H97777   7.857   9.578   8.047  0.2243  1.2605  2.5591
  709MOL0     H97778   8.003   9.522   8.122 -0.4310  1.3194 -1.4298
  709MOL0     H97779   8.029   9.335   7.958  0.3336  0.8700 -2.2223
  709MOL0     H97780   7.869   9.365   7.889 -0.3594 -2.9852  2.4857
  709MOL0     H97781   7.945   9.596   7.825 -0.7367 -0.4071 -0.2772
  709MOL0     H97782   8.107   9.560   7.890  0.2234  0.2656  0.0985
  709MOL0     H97783   7.983   9.392   7.667 -0.7925 -2.0419  2.5336
  709MOL0     H97784   8.145   9.393   7.735  0.5323  0.5634  1.8378
  709MOL0     H97785   8.025   9.645   7.609 -0.2425 -0.3695 -0.2049
  709MOL0     H97786   8.195   9.601   7.654 -0.5859 -1.7717  1.3730
  709MOL0     H97787   8.055   9.433   7.461 -0.4870  0.3037 -0.2801
  709MOL0     H97788   8.225   9.470   7.475  1.0966  0.2937  0.8865
  709MOL0     H97789   8.011   9.679   7.365  1.3754  2.3273 -1.4944
  709MOL0     H97790   8.185   9.701   7.385  1.2281 -1.3795  1.6290
  709MOL0     H97791   8.320   9.651   7.186  1.2241 -1.1209 -1.2384
  709MOL0     H97792   8.330   9.626   6.906  0.8779 -0.3971 -0.1375
  709MOL0     H97793   8.212   9.520   6.828 -0.4690 -1.7639  0.9297
  709MOL0     H97794   8.455   9.438   6.819  0.6107 -0.3511  0.6703
  709MOL0     H97795   8.431   9.409   6.997 -0.1924  1.9070  0.2535
  709MOL0     H97796   8.231   9.264   6.946 -0.9463  0.5393 -0.2310
  709MOL0     H97797   8.277   9.274   6.765  4.1201 -2.5766 -1.7140
  709MOL0     H97798   8.470   9.172   6.978  2.0749 -0.5165 -1.4435
  709MOL0     H97799   8.365   9.067   6.884  0.6412 -0.5733  0.6360
  709MOL0     H97800   8.583   8.947   6.911  0.7106 -0.9843  0.6885
  709MOL0     H97801   8.886   8.793   6.917  0.8551  0.9616 -1.4767
  709MOL0     H97802   8.756   8.713   6.832  1.9549 -1.6192  1.9881
  709MOL0     H97803   8.723   8.802   6.977  1.4136 -1.5598  1.4571
  709MOL0     H97804   9.109   8.719   6.440  0.4355 -1.0302  0.0486
  709MOL0     H97805   9.353   8.659   6.398 -1.7932 -0.4574 -0.6179
  709MOL0     H97806   9.607   8.624   6.453  0.9737 -2.3005 -2.6453
  709MOL0     H97807   9.523   8.680   6.304 -2.4908  0.7630  2.3992
  709MOL0     H97808   9.804   8.764   6.360  0.0437  0.2207  0.3879
  709MOL0     H97809   9.761   8.619   6.270  1.5091  0.1429  0.4103
  709MOL0     H97810   9.689   8.909   6.203  2.3133  0.4466  1.1012
  709MOL0     H97811   9.618   8.772   6.127  0.7184 -0.2581  1.3296
  709MOL0     H97812   9.878   8.721   6.091 -1.1932 -0.3514  0.5668
  709MOL0     H97813   9.893   8.892   6.118 -1.3062  0.1618  2.9197
  709MOL0     H97814   9.722   8.749   5.899  2.3822 -1.7233  1.1936
  709MOL0     H97815   9.697   8.913   5.932 -0.4822 -0.7951  0.3171
  709MOL0     H97816   9.978   8.787   5.873 -1.3811 -0.2489  1.5105
  709MOL0     H97817   9.942   8.963   5.866 -0.3211  0.1726 -1.4206
  709MOL0     H97818   9.807   8.951   5.693  1.5493  1.0633 -1.5310
  709MOL0     H97819   9.800   8.776   5.689 -0.8365  0.9636 -1.6240
  709MOL0     H97820   9.948   8.888   5.510  1.2029 -0.7402 -1.0474
  709MOL0     H97821  10.048   8.778   5.613  0.6112 -0.1618 -0.8392
  709MOL0     H97822   9.472   9.049   6.518  0.2526 -0.2074  2.0909
  709MOL0     H97823   9.241   9.124   6.544  0.5423  0.8981 -2.4647
  709MOL0     H97824   8.856   9.143   6.546 -0.3254  1.2849  0.4432
  709MOL0     H97825   8.673   9.263   6.632 -1.9690  0.1605  2.6049
  709MOL0     H97826   7.448   9.439   8.173 -0.0722 -0.0109  0.6719
  709MOL0     H97827   7.287   9.265   8.246 -0.0518  1.5231  2.2133
  709MOL0     H97828   7.100   9.057   8.280  1.8570  1.8264 -0.6392
  709MOL0     H97829   6.874   9.105   8.349  1.2702  2.8610 -1.1074
  709MOL0     H97830   6.729   9.253   8.454  1.5939 -1.4332 -0.7557
  709MOL0     H97831   6.670   9.086   8.451  2.7256 -0.7391 -0.2961
  709MOL0     H97832   6.591   9.261   8.684  1.1993 -0.9085 -0.5356
  709MOL0     H97833   6.527   9.103   8.632 -0.2064 -0.3827  0.3823
  709MOL0     H97834   6.487   9.372   8.484  1.8733  0.4093  2.6484
  709MOL0     H97835   6.436   9.214   8.414 -2.7373 -0.2681  0.9507
  709MOL0     H97836   6.294   9.171   8.597  3.1809 -1.2482  0.3193
  709MOL0     H97837   6.236   9.317   8.499  0.8588  0.1419 -0.4782
  709MOL0     H97838   6.347   9.433   8.913  1.4059  0.9967 -0.8232
  709MOL0     H97839   6.998   9.067   8.759  0.0587  0.3369 -0.2995
  709MOL0     H97840   7.199   8.993   8.825 -0.2356 -3.5152 -0.4711
  709MOL0     H97841   7.299   8.910   8.712  1.2677  0.1140  1.9578
  709MOL0     H97842   7.321   9.086   8.735 -1.9993  1.1771  2.6865
  710MOL0     O97843   4.505   3.263   2.142 -1.1549  0.5716  0.0840
  710MOL0     C97844   4.409   3.335   2.172 -0.5720  0.4537 -0.2511
  710MOL0     O97845   4.411   3.471   2.160 -0.1226 -0.0922  0.3406
  710MOL0     C97846   4.529   3.523   2.120 -0.0525 -0.4381  0.4070
  710MOL0     C97847   4.621   3.560   2.214  0.6198 -1.1138  0.7737
  710MOL0     C97848   4.736   3.631   2.179  0.1604  0.3267 -0.1652
  710MOL0     C97849   4.759   3.667   2.046  1.0896  0.1796  0.0556
  710MOL0     O97850   4.869   3.732   2.004  0.2225  0.3848 -0.5723
  710MOL0     C97851   4.959   3.804   2.088  0.4224  0.6008  0.0579
  710MOL0     C97852   5.044   3.895   2.010  0.0866 -1.2186  0.4834
  710MOL0     C97853   5.166   3.828   1.935  0.2145 -0.2488 -0.0952
  710MOL0     C97854   5.204   3.930   1.829 -0.5369 -0.1338  0.3726
  710MOL0     C97855   5.334   3.888   1.763  0.0979  0.2337  0.0023
  710MOL0     C97856   5.388   4.001   1.680 -0.5696 -0.8879 -0.1058
  710MOL0     C97857   5.526   3.969   1.613  0.2146  0.4679  1.0830
  710MOL0     C97858   5.522   3.830   1.531 -0.4773  0.5185  0.9999
  710MOL0     N97859   5.660   3.801   1.487  0.0285  0.6982  0.2919
  710MOL0     C97860   5.721   3.869   1.378  0.2802 -0.2984 -0.1793
  710MOL0     C97861   5.852   3.843   1.394 -0.0744  0.2956 -0.2408
  710MOL0     C97862   5.963   3.888   1.308 -0.5351  0.6019 -0.5649
  710MOL0     C97863   5.943   3.823   1.166  0.0856 -0.2513  0.1471
  710MOL0     C97864   6.042   3.876   1.062  0.0884  0.2174 -0.2544
  710MOL0     C97865   6.184   3.863   1.099 -0.2191  0.6174 -0.9666
  710MOL0     O97866   6.256   3.806   0.988  0.3286 -0.3874 -0.3368
  710MOL0     C97867   6.395   3.806   0.993  0.5652 -0.6929 -0.5342
  710MOL0     C97868   6.463   3.774   0.875 -0.1095  0.2058 -0.3778
  710MOL0     C97869   6.601   3.791   0.859 -0.1590 -0.9685 -0.0380
  710MOL0     C97870   6.658   3.758   0.718  0.7263 -0.7305 -0.8825
  710MOL0     C97871   6.678   3.844   0.970  0.6569  0.1955  0.1934
  710MOL0     C97872   6.824   3.882   0.962  0.2100 -0.1443 -0.7232
  710MOL0     O97873   6.882   3.958   1.056  0.3522  0.1891 -0.8941
  710MOL0     C97874   7.016   3.977   1.054 -0.4915 -0.2518 -0.6798
  710MOL0     C97875   7.056   4.103   1.083  0.0892  0.0918 -0.7040
  710MOL0     C97876   7.191   4.140   1.083 -0.3760 -0.2438  0.5065
  710MOL0     C97877   7.297   4.051   1.063 -0.2589  0.2323  0.2395
  710MOL0     O97878   7.428   4.094   1.055  0.6591 -0.3339 -0.1973
  710MOL0     C97879   7.533   3.996   1.077  0.0065 -0.4733 -0.3649
  710MOL0     C97880   7.675   4.061   1.092 -0.1199  0.2630  0.7388
  710MOL0     C97881   7.792   3.962   1.113  0.7830 -0.4236 -0.5627
  710MOL0     C97882   7.925   4.028   1.158  0.1201  0.2651  0.0685
  710MOL0     C97883   8.038   3.923   1.148  0.8547 -0.4482  0.2566
  710MOL0     C97884   8.150   3.942   1.256 -0.3188 -0.0439 -0.0434
  710MOL0     C97885   8.102   3.914   1.400 -0.1140  0.8195  0.1926
  710MOL0     C97886   8.066   3.767   1.408 -0.2702  0.3786  0.0996
  710MOL0    Cl97887   8.197   3.656   1.364  0.2272  0.1124 -0.1905
  710MOL0     C97888   7.253   3.917   1.038  0.0664 -0.2550  0.1650
  710MOL0     C97889   7.116   3.891   1.039 -1.4047 -0.0781  0.2133
  710MOL0     O97890   6.876   3.831   0.867 -0.6462  0.9873 -0.5731
  710MOL0     C97891   6.609   3.854   1.097  0.1235  0.4255 -0.4647
  710MOL0     C97892   6.472   3.837   1.108 -0.1826 -0.5729  0.2882
  710MOL0     N97893   5.873   3.762   1.505 -0.1744 -0.0816  0.3560
  710MOL0     N97894   5.761   3.747   1.569  0.2327 -0.2738  0.4143
  710MOL0     C97895   4.666   3.629   1.954  0.0535  0.3876  1.3064
  710MOL0     C97896   4.553   3.547   1.984  1.1373 -0.1951  0.4245
  710MOL0     C97897   4.294   3.261   2.224 -0.6085  0.0107  0.0912
  710MOL0     C97898   4.316   3.152   2.313 -0.2541  1.5701 -0.0536
  710MOL0     C97899   4.210   3.079   2.368 -0.2258 -0.0278 -0.0502
  710MOL0     C97900   4.077   3.115   2.345 -0.8300 -0.7201 -1.2850
  710MOL0     O97901   3.974   3.047   2.411 -0.4585  0.8881  0.3274
  710MOL0     C97902   3.840   3.097   2.406 -0.6277  0.4047  0.2205
  710MOL0     C97903   3.760   3.005   2.496  0.7152  0.0246  0.0660
  710MOL0     C97904   3.614   3.048   2.513 -0.3929 -0.1955  0.1816
  710MOL0     C97905   3.527   3.043   2.381 -0.2543  0.0930  0.1274
  710MOL0     C97906   3.511   2.909   2.327  0.2424  0.2053  0.2298
  710MOL0     C97907   3.481   2.809   2.267 -0.2517 -0.0903  0.0976
  710MOL0     C97908   4.049   3.228   2.267  0.3844  0.3124  0.4021
  710MOL0     C97909   4.153   3.295   2.207 -0.8549 -0.5776  0.4561
  710MOL0     C97910   4.105   3.408   2.120 -0.2656 -0.2302  0.2214
  710MOL0     H97911   4.613   3.529   2.318 -0.5075 -0.7654  0.7995
  710MOL0     H97912   4.810   3.658   2.254 -1.5960 -1.4389  2.3602
  710MOL0     H97913   5.022   3.734   2.143  1.4483  1.7211  0.3355
  710MOL0     H97914   4.895   3.859   2.158 -1.4077  0.4078 -1.3792
  710MOL0     H97915   4.989   3.960   1.942  0.7641  1.2010  2.0817
  710MOL0     H97916   5.072   3.970   2.085 -1.6433 -0.3460  0.3187
  710MOL0     H97917   5.245   3.796   2.004  0.5417  0.8434  0.0539
  710MOL0     H97918   5.125   3.740   1.886 -1.0562 -0.9355  2.0573
  710MOL0     H97919   5.124   3.943   1.756 -1.0590 -0.1716  0.9331
  710MOL0     H97920   5.220   4.028   1.874  2.4172 -0.8059  1.0097
  710MOL0     H97921   5.313   3.795   1.710  1.1671  1.9989 -3.8627
  710MOL0     H97922   5.407   3.872   1.843  0.7244 -0.3634 -0.6769
  710MOL0     H97923   5.324   4.035   1.597 -0.1737 -0.8759 -0.4090
  710MOL0     H97924   5.401   4.097   1.729 -4.1394  0.9022 -2.1772
  710MOL0     H97925   5.607   3.958   1.685 -0.0858  1.5490  1.5938
  710MOL0     H97926   5.548   4.054   1.548 -2.2262  0.8514  0.6346
  710MOL0     H97927   5.482   3.754   1.599  0.9829 -0.5597  0.6996
  710MOL0     H97928   5.450   3.831   1.449  0.1594 -0.4026  0.4159
  710MOL0     H97929   5.676   3.917   1.292 -0.8469  0.3267  0.7350
  710MOL0     H97930   6.061   3.874   1.354  0.2300  1.1995 -1.9221
  710MOL0     H97931   5.953   3.996   1.297 -4.1509  0.4353 -0.1233
  710MOL0     H97932   5.937   3.715   1.181  0.3455 -0.4862 -1.2869
  710MOL0     H97933   5.851   3.857   1.118  1.8082 -1.0110 -4.1628
  710MOL0     H97934   6.021   3.840   0.961  1.3705  3.0827 -1.6496
  710MOL0     H97935   6.026   3.983   1.048  0.3040  0.0250 -2.1519
  710MOL0     H97936   6.227   3.961   1.122  2.6097 -0.6714 -0.3711
  710MOL0     H97937   6.190   3.804   1.192 -1.1690  1.5826 -0.2620
  710MOL0     H97938   6.386   3.748   0.803 -1.2887 -1.8702  1.5187
  710MOL0     H97939   6.576   3.708   0.665 -1.7541 -1.9578  3.6076
  710MOL0     H97940   6.743   3.692   0.735  0.1391 -0.8695  1.9856
  710MOL0     H97941   6.688   3.844   0.657 -0.3134  0.7535  0.6183
  710MOL0     H97942   6.987   4.186   1.085 -1.1629 -0.9327 -0.3165
  710MOL0     H97943   7.206   4.245   1.107 -0.9897 -0.0804  0.1753
  710MOL0     H97944   7.508   3.926   1.157  0.3088  0.9852  1.0513
  710MOL0     H97945   7.537   3.931   0.989 -1.5948  0.6002 -1.2877
  710MOL0     H97946   7.688   4.129   1.007  0.2202 -1.4784 -0.6493
  710MOL0     H97947   7.665   4.122   1.182 -2.0798 -0.8870  1.3759
  710MOL0     H97948   7.801   3.910   1.018  3.1728  2.5600 -2.1535
  710MOL0     H97949   7.756   3.897   1.194  0.6926 -0.8203 -0.9198
  710MOL0     H97950   7.900   4.070   1.255 -2.6205 -1.0607  0.0231
  710MOL0     H97951   7.948   4.103   1.081 -0.7833 -1.2040 -1.7379
  710MOL0     H97952   7.990   3.825   1.152 -0.3540  0.1519  0.9399
  710MOL0     H97953   8.084   3.924   1.049 -0.5756  0.9500 -0.4523
  710MOL0     H97954   8.190   4.043   1.246 -0.8034  0.1744  0.1930
  710MOL0     H97955   8.236   3.877   1.240 -1.1837 -1.5466  1.1967
  710MOL0     H97956   8.016   3.974   1.432  0.0332 -0.6767  3.9579
  710MOL0     H97957   8.184   3.925   1.472 -1.8661  2.7261  2.0093
  710MOL0     H97958   7.972   3.746   1.356  0.9883 -1.7350 -1.4709
  710MOL0     H97959   8.056   3.754   1.516  3.9458  2.6448  1.0028
  710MOL0     H97960   7.312   3.828   1.018 -2.4413 -2.2254  0.8851
  710MOL0     H97961   7.087   3.788   1.020 -1.3559  0.4662 -3.4309
  710MOL0     H97962   6.663   3.883   1.186  0.5367  1.3369 -1.0014
  710MOL0     H97963   6.437   3.860   1.208  1.3634  0.7105  0.5760
  710MOL0     H97964   4.680   3.654   1.849 -0.0160 -2.6231  0.4862
  710MOL0     H97965   4.481   3.511   1.911 -0.0632  1.6170  0.6484
  710MOL0     H97966   4.421   3.124   2.314 -1.2937 -3.6859 -2.4373
  710MOL0     H97967   4.230   2.991   2.427  1.4322 -0.9726 -1.9062
  710MOL0     H97968   3.840   3.197   2.451 -2.5218 -0.5811  2.6894
  710MOL0     H97969   3.806   3.094   2.302  2.7867  2.3245 -1.1080
  710MOL0     H97970   3.809   3.005   2.594  0.6129 -1.7189  0.1460
  710MOL0     H97971   3.767   2.901   2.465 -0.2441 -0.5372  1.6111
  710MOL0     H97972   3.569   2.976   2.582 -2.2470  2.0202  1.3950
  710MOL0     H97973   3.600   3.150   2.549 -3.5187 -1.0376  1.6887
  710MOL0     H97974   3.564   3.104   2.298 -1.4388  1.4905  0.5776
  710MOL0     H97975   3.426   3.080   2.401 -0.2531 -0.4227  1.1808
  710MOL0     H97976   3.471   2.715   2.216  0.6561 -0.1900  0.0954
  710MOL0     H97977   3.944   3.255   2.259  0.2660 -0.2915 -0.1214
  710MOL0     H97978   4.125   3.503   2.169  0.6716 -1.9786  3.5570
  710MOL0     H97979   4.144   3.398   2.018 -1.7539 -0.2787 -0.3670
  710MOL0     H97980   3.997   3.398   2.117 -0.3278 -0.0355  1.3862
  711MOL0     O97981  11.119  10.798   3.848 -0.0410 -0.2524 -0.1508
  711MOL0     C97982  11.127  10.716   3.937  0.1619 -0.3762 -0.0151
  711MOL0     O97983  11.048  10.710   4.052 -0.8462 -0.7806 -0.5744
  711MOL0     C97984  10.971  10.818   4.083 -0.2432 -0.4591 -0.2003
  711MOL0     C97985  10.858  10.862   4.000 -0.2299  0.5955  0.1671
  711MOL0     C97986  10.789  10.968   4.048  0.1665  0.3918  0.3123
  711MOL0     C97987  10.823  11.044   4.162  0.4130 -0.6609  0.2860
  711MOL0     O97988  10.752  11.149   4.214  0.2439 -0.1531  0.3139
  711MOL0     C97989  10.610  11.152   4.187 -0.2916  0.2094 -0.4884
  711MOL0     C97990  10.534  11.221   4.302  0.0428  1.3047 -0.1282
  711MOL0     C97991  10.423  11.306   4.252  0.6103 -0.2945  0.0698
  711MOL0     C97992  10.351  11.379   4.371 -0.3281  0.1622  0.1197
  711MOL0     C97993  10.244  11.478   4.327 -0.3622  0.5958  1.4123
  711MOL0     C97994  10.184  11.550   4.443  0.0679  0.0785 -0.4084
  711MOL0     C97995  10.055  11.614   4.405  0.1537 -0.0404  0.6678
  711MOL0     C97996  10.078  11.756   4.343 -0.3887  0.1387  0.8098
  711MOL0     N97997   9.966  11.846   4.369 -0.0885  0.4071  0.0437
  711MOL0     C97998   9.849  11.845   4.300 -0.2702 -1.1568  0.4879
  711MOL0     C97999   9.759  11.910   4.385  0.6088  0.1025 -0.2860
  711MOL0     C98000   9.622  11.932   4.338 -0.2776 -0.4607 -0.5839
  711MOL0     C98001   9.520  11.944   4.451 -0.6890  0.0313 -0.6325
  711MOL0     C98002   9.379  11.988   4.402  0.4129 -0.1755 -0.3432
  711MOL0     C98003   9.268  12.011   4.518 -0.4569 -0.4107  0.1193
  711MOL0     O98004   9.146  12.026   4.445 -1.3512  0.0768  0.8554
  711MOL0     C98005   9.055  12.123   4.474 -0.3521  0.0342 -0.8717
  711MOL0     C98006   9.039  12.172   4.604  0.3497  0.0871 -0.7230
  711MOL0     C98007   8.940  12.267   4.633  1.1004 -0.0207  0.5183
  711MOL0     C98008   8.928  12.304   4.772  0.3772  0.3802  0.1497
  711MOL0     C98009   8.855  12.319   4.536 -0.4418  0.1809  0.8602
  711MOL0     C98010   8.764  12.421   4.566 -0.1970  1.1647  0.1796
  711MOL0     O98011   8.789  12.552   4.574 -0.9179 -1.0474 -0.2747
  711MOL0     C98012   8.704  12.645   4.625 -0.8892 -0.2189  0.1340
  711MOL0     C98013   8.760  12.725   4.710 -0.3806 -0.3587  0.1269
  711MOL0     C98014   8.680  12.826   4.775 -0.7921 -0.1986  0.1665
  711MOL0     C98015   8.552  12.845   4.753  0.0759 -0.1723  0.5049
  711MOL0     O98016   8.485  12.946   4.823 -0.5214  0.5926 -0.3888
  711MOL0     C98017   8.431  13.058   4.744 -0.0596 -0.3158  0.0865
  711MOL0     C98018   8.539  13.161   4.705 -0.2981 -0.1257 -0.3377
  711MOL0     C98019   8.576  13.269   4.807 -0.3525 -0.4786  0.9871
  711MOL0     C98020   8.592  13.211   4.948 -0.2254 -0.1691  0.0543
  711MOL0     C98021   8.604  13.335   5.037 -0.4021  2.0520  1.0829
  711MOL0     C98022   8.641  13.310   5.183  0.1041 -0.1345  0.6896
  711MOL0     C98023   8.780  13.234   5.213 -1.2842 -0.3758 -1.3335
  711MOL0     C98024   8.805  13.202   5.365  0.2193 -0.1899 -0.4462
  711MOL0    Cl98025   8.875  13.338   5.444  0.2367  0.3370  0.1446
  711MOL0     C98026   8.487  12.761   4.659 -1.2565  0.8541  0.0546
  711MOL0     C98027   8.566  12.660   4.592 -0.0009  0.2030 -0.1472
  711MOL0     O98028   8.655  12.376   4.573  0.8055  0.7522  0.5433
  711MOL0     C98029   8.867  12.271   4.397  0.1524  0.0379 -0.4248
  711MOL0     C98030   8.963  12.165   4.373  0.3256 -0.4527 -0.3504
  711MOL0     N98031   9.823  11.943   4.504  0.6180 -0.2890  0.5747
  711MOL0     N98032   9.945  11.905   4.491 -0.4545  0.1751 -0.2960
  711MOL0     C98033  10.944  11.016   4.221  0.2495  0.0555  0.8140
  711MOL0     C98034  11.012  10.899   4.189  0.5185  0.6191 -0.9055
  711MOL0     C98035  11.231  10.613   3.928  0.4791 -0.8485  0.2264
  711MOL0     C98036  11.291  10.565   4.049  0.6347  0.3942  0.1058
  711MOL0     C98037  11.404  10.480   4.055  0.1472 -0.4387  0.4814
  711MOL0     C98038  11.470  10.447   3.937  0.8039  0.5330  0.2350
  711MOL0     O98039  11.579  10.366   3.955 -0.2296 -0.7457 -0.3775
  711MOL0     C98040  11.654  10.327   3.845 -0.2267  0.4580  0.4370
  711MOL0     C98041  11.774  10.247   3.879  0.1101 -0.3648 -0.1514
  711MOL0     C98042  11.841  10.193   3.747  0.8632  0.5415  0.4512
  711MOL0     C98043  11.951  10.275   3.686  0.4349 -0.5308 -0.5238
  711MOL0     C98044  11.995  10.215   3.555 -0.0663 -0.7075 -0.6381
  711MOL0     C98045  12.039  10.155   3.455  0.1181 -0.8174 -0.4388
  711MOL0     C98046  11.404  10.490   3.815 -0.7355 -0.2958 -0.1526
  711MOL0     C98047  11.289  10.561   3.809 -0.6610 -0.0730 -0.1149
  711MOL0     C98048  11.248  10.583   3.669 -0.1139 -0.0327 -0.1129
  711MOL0     H98049  10.835  10.811   3.907  2.2821  0.8641 -0.6662
  711MOL0     H98050  10.702  11.001   3.992 -0.3025  1.3281  1.5622
  711MOL0     H98051  10.568  11.051   4.185 -0.4961  0.2337  1.0755
  711MOL0     H98052  10.593  11.207   4.094 -0.9764  0.0597 -0.4609
  711MOL0     H98053  10.499  11.140   4.368  1.7174 -0.3505 -1.1836
  711MOL0     H98054  10.608  11.278   4.358 -0.5663 -0.4168  2.6251
  711MOL0     H98055  10.467  11.378   4.183  1.3749  1.5236  2.3193
  711MOL0     H98056  10.346  11.248   4.199 -2.5246  0.5958  3.2256
  711MOL0     H98057  10.315  11.305   4.442  1.1494  0.7234  1.5068
  711MOL0     H98058  10.433  11.431   4.421  0.1957  0.1307 -0.6858
  711MOL0     H98059  10.172  11.415   4.274  2.1538 -0.2762 -1.1934
  711MOL0     H98060  10.276  11.542   4.244 -1.0590 -2.9424 -1.8578
  711MOL0     H98061  10.155  11.476   4.518  1.1767  0.6493  0.6123
  711MOL0     H98062  10.250  11.626   4.484  0.2789 -0.4725  0.2875
  711MOL0     H98063   9.998  11.631   4.497 -1.1331  0.1737 -0.1450
  711MOL0     H98064   9.991  11.551   4.343 -1.4301 -1.4487  3.5229
  711MOL0     H98065  10.170  11.799   4.386  0.1534 -0.6320  0.4502
  711MOL0     H98066  10.087  11.751   4.234 -0.1005  0.0844  0.8332
  711MOL0     H98067   9.832  11.799   4.203 -3.2010 -0.5681  0.6311
  711MOL0     H98068   9.593  11.847   4.275 -1.3710 -1.4144  1.1261
  711MOL0     H98069   9.624  12.028   4.285 -2.1701  1.6949  2.8408
  711MOL0     H98070   9.519  11.845   4.499  3.0551  1.0111  1.9224
  711MOL0     H98071   9.559  12.019   4.520 -1.5680 -0.0462 -0.0289
  711MOL0     H98072   9.401  12.085   4.356 -2.4303  0.5029 -0.4460
  711MOL0     H98073   9.348  11.918   4.325 -2.2778 -0.5606  0.9921
  711MOL0     H98074   9.257  11.922   4.580  1.9672 -1.4367 -0.8050
  711MOL0     H98075   9.290  12.092   4.587  0.6942 -0.3650 -0.2745
  711MOL0     H98076   9.101  12.124   4.680 -1.4821 -1.4191 -0.0821
  711MOL0     H98077   9.024  12.319   4.822  0.3836 -1.0027  0.5741
  711MOL0     H98078   8.872  12.222   4.816 -0.7549 -0.0290 -1.9283
  711MOL0     H98079   8.870  12.393   4.798 -3.5206 -1.4831 -1.4039
  711MOL0     H98080   8.863  12.716   4.743  0.2523  0.6494 -1.4390
  711MOL0     H98081   8.723  12.886   4.855  0.6049 -0.5693 -0.2752
  711MOL0     H98082   8.390  13.018   4.650 -0.4768  0.1666  0.0602
  711MOL0     H98083   8.347  13.105   4.796  0.7394 -0.1335  1.2456
  711MOL0     H98084   8.625  13.104   4.670  0.5895  2.4663 -2.7475
  711MOL0     H98085   8.506  13.208   4.612  0.3930  0.9791 -0.0438
  711MOL0     H98086   8.501  13.348   4.806 -0.4415 -0.5049 -1.3548
  711MOL0     H98087   8.668  13.311   4.765  0.7656 -1.5293  2.2933
  711MOL0     H98088   8.675  13.141   4.958 -2.0166 -3.1380 -3.3246
  711MOL0     H98089   8.508  13.150   4.983  0.8404 -0.7919  1.6251
  711MOL0     H98090   8.658  13.413   4.984 -2.9253  2.7840 -0.5863
  711MOL0     H98091   8.497  13.356   5.044 -1.8469 -1.6005 -4.1400
  711MOL0     H98092   8.562  13.250   5.229 -0.7421  0.9886  0.7348
  711MOL0     H98093   8.638  13.403   5.241 -1.8471 -0.2469  0.8337
  711MOL0     H98094   8.869  13.282   5.171 -1.2112  0.6264 -0.0851
  711MOL0     H98095   8.769  13.139   5.160 -1.0901 -0.7349 -0.7381
  711MOL0     H98096   8.884  13.130   5.388  1.2896  1.2043  0.4008
  711MOL0     H98097   8.709  13.180   5.411  0.7143 -0.4703  0.4841
  711MOL0     H98098   8.385  12.774   4.622 -0.9681 -0.4846 -1.3139
  711MOL0     H98099   8.516  12.599   4.518 -1.2560 -0.5359  1.2666
  711MOL0     H98100   8.806  12.315   4.318  1.5842 -1.4359 -2.4534
  711MOL0     H98101   8.964  12.120   4.274  0.4284  0.9618 -1.0146
  711MOL0     H98102  10.981  11.085   4.296 -1.3853 -0.1803  1.8750
  711MOL0     H98103  11.096  10.868   4.251 -1.3085  1.5196  2.2485
  711MOL0     H98104  11.250  10.589   4.146 -1.1307  0.8994 -0.7268
  711MOL0     H98105  11.438  10.444   4.152  1.6120  1.2797  0.6769
  711MOL0     H98106  11.588  10.270   3.779  0.2672  0.2698  0.1039
  711MOL0     H98107  11.691  10.415   3.792  0.6071 -0.5354 -0.6734
  711MOL0     H98108  11.746  10.169   3.950 -0.8167  0.7430  0.7508
  711MOL0     H98109  11.843  10.313   3.933 -0.1755 -0.2977  0.1349
  711MOL0     H98110  11.876  10.090   3.756 -2.9819 -1.1573 -1.4811
  711MOL0     H98111  11.757  10.183   3.677 -1.1579 -3.2412  3.0393
  711MOL0     H98112  12.031  10.264   3.760 -1.5475 -1.0097  1.6382
  711MOL0     H98113  11.921  10.378   3.666  2.7205  0.2544 -0.2448
  711MOL0     H98114  12.075  10.109   3.365 -0.2970 -2.3405  0.1518
  711MOL0     H98115  11.446  10.452   3.722  3.0583 -0.6828  1.5017
  711MOL0     H98116  11.228  10.490   3.615  2.3112  0.0995 -1.3936
  711MOL0     H98117  11.167  10.656   3.671  0.6316  0.7981  0.5824
  711MOL0     H98118  11.337  10.624   3.620  0.5568 -0.0321  1.0755
  712MOL0     O98119   5.222   4.633   2.092  1.1038  0.1811  0.5299
  712MOL0     C98120   5.202   4.515   2.113 -0.0530  0.1988  0.3222
  712MOL0     O98121   5.296   4.412   2.099 -0.0464 -0.3008 -0.6663
  712MOL0     C98122   5.416   4.451   2.050 -0.0506  0.3615  0.1285
  712MOL0     C98123   5.512   4.510   2.126  0.2999  0.4809 -0.2070
  712MOL0     C98124   5.641   4.528   2.070 -0.3635  0.8068  0.6226
  712MOL0     C98125   5.661   4.512   1.931  0.8588  0.9663 -0.8587
  712MOL0     O98126   5.778   4.537   1.875  0.1832 -0.7354  0.1152
  712MOL0     C98127   5.865   4.638   1.933  0.4462  0.1107  0.3361
  712MOL0     C98128   5.989   4.658   1.858 -0.4528 -0.0902  1.1289
  712MOL0     C98129   6.072   4.536   1.838 -0.3112 -0.1734  0.2734
  712MOL0     C98130   6.211   4.570   1.788  0.5038  0.1927  0.0604
  712MOL0     C98131   6.294   4.443   1.752 -0.4130 -0.0225 -1.0262
  712MOL0     C98132   6.445   4.471   1.728  1.2472 -0.5307  1.0228
  712MOL0     C98133   6.520   4.357   1.664 -0.0606 -1.0081 -0.1237
  712MOL0     C98134   6.537   4.238   1.759  0.1282  0.3236  0.3731
  712MOL0     N98135   6.667   4.266   1.825  0.6966 -0.0288 -0.6971
  712MOL0     C98136   6.793   4.221   1.779  0.0647 -0.2581 -0.4615
  712MOL0     C98137   6.873   4.261   1.884  0.5295  0.3938 -0.0605
  712MOL0     C98138   7.016   4.224   1.913  0.7740  0.2708  0.5703
  712MOL0     C98139   7.101   4.199   1.787  0.3324  0.0173  0.7434
  712MOL0     C98140   7.255   4.185   1.817 -0.7034 -0.2477 -0.6876
  712MOL0     C98141   7.292   4.066   1.903 -0.1023  0.0879 -0.2601
  712MOL0     O98142   7.409   4.073   1.982  0.5729  0.1073  0.2106
  712MOL0     C98143   7.530   4.061   1.923  0.2391 -0.1604  0.2934
  712MOL0     C98144   7.553   4.018   1.791  0.0297 -0.0817 -0.5240
  712MOL0     C98145   7.683   3.985   1.744  0.3935  0.1714 -0.3523
  712MOL0     C98146   7.700   3.933   1.600  0.0488 -0.1052 -0.6697
  712MOL0     C98147   7.794   4.002   1.832  0.3610 -0.0925 -0.5582
  712MOL0     C98148   7.934   3.970   1.798 -0.7641 -0.3160  0.2662
  712MOL0     O98149   8.036   4.036   1.867  0.2966  0.4196 -0.1800
  712MOL0     C98150   8.172   3.999   1.862  0.1257  0.1037  0.0437
  712MOL0     C98151   8.226   3.876   1.816  0.0146 -0.0484  0.2325
  712MOL0     C98152   8.363   3.845   1.802 -0.2061 -0.4292 -1.2821
  712MOL0     C98153   8.450   3.938   1.845  0.2391 -0.6790 -0.1647
  712MOL0     O98154   8.592   3.910   1.834  1.3341 -0.4630 -0.6072
  712MOL0     C98155   8.690   3.994   1.917 -0.1501  0.1514  0.7854
  712MOL0     C98156   8.776   4.072   1.826 -0.3639  0.4705 -0.1234
  712MOL0     C98157   8.892   4.130   1.906  0.4999 -0.3788 -0.3322
  712MOL0     C98158   9.007   4.043   1.923 -0.2148  0.0593  0.0379
  712MOL0     C98159   9.126   4.118   1.983 -0.4941  1.0772 -0.3064
  712MOL0     C98160   9.256   4.039   1.970  0.0283 -0.3782 -0.1297
  712MOL0     C98161   9.369   4.115   2.037 -0.5119  0.2100  0.4707
  712MOL0     C98162   9.392   4.253   1.966  0.1330  0.5642  0.4397
  712MOL0    Cl98163   9.292   4.373   2.036 -0.2580 -0.3550 -0.5464
  712MOL0     C98164   8.407   4.064   1.890  1.1686 -0.8060 -0.8172
  712MOL0     C98165   8.264   4.100   1.896 -0.2325  0.0400 -0.2939
  712MOL0     O98166   7.950   3.888   1.712 -0.2474 -0.1044 -0.3735
  712MOL0     C98167   7.770   4.048   1.967  0.1474 -0.3081  0.5040
  712MOL0     C98168   7.643   4.073   2.015  0.5273 -0.1475  0.0350
  712MOL0     N98169   6.805   4.310   1.992  0.8053 -0.6667 -0.1268
  712MOL0     N98170   6.680   4.312   1.955 -0.1299 -0.0849  0.0986
  712MOL0     C98171   5.566   4.432   1.866  0.4024 -0.6580  0.0501
  712MOL0     C98172   5.435   4.413   1.922 -0.3660  0.4852  1.1721
  712MOL0     C98173   5.068   4.463   2.139  0.4668  0.0739 -0.1440
  712MOL0     C98174   5.055   4.335   2.189  1.3004 -0.0656 -0.4180
  712MOL0     C98175   4.925   4.284   2.211 -0.1216 -0.1620  0.0886
  712MOL0     C98176   4.807   4.358   2.185 -0.8137  0.3905  0.0544
  712MOL0     O98177   4.672   4.315   2.202 -0.0601 -0.4142 -0.2337
  712MOL0     C98178   4.645   4.179   2.229  0.3142 -0.0301  0.0551
  712MOL0     C98179   4.664   4.099   2.096 -0.8622 -0.4741 -0.9078
  712MOL0     C98180   4.575   3.976   2.097  0.6354 -0.4411 -0.1208
  712MOL0     C98181   4.431   4.013   2.055 -0.0527 -0.1669  0.4087
  712MOL0     C98182   4.339   3.899   2.064 -0.0716  0.0821 -0.2036
  712MOL0     C98183   4.273   3.797   2.075  0.5725  0.0767 -0.1785
  712MOL0     C98184   4.822   4.486   2.140  0.4929 -0.4520  0.4689
  712MOL0     C98185   4.949   4.542   2.114  0.3797 -0.0338  0.0561
  712MOL0     C98186   4.957   4.681   2.059  0.0863 -0.3725  0.1196
  712MOL0     H98187   5.482   4.544   2.224  0.7667  1.5359 -0.4151
  712MOL0     H98188   5.712   4.581   2.133  0.1700 -0.6513  1.2872
  712MOL0     H98189   5.897   4.615   2.035  0.8498  0.6482  0.3408
  712MOL0     H98190   5.810   4.732   1.930 -0.7424 -0.4719  2.3169
  712MOL0     H98191   5.968   4.694   1.756 -0.3663  1.0781  1.5025
  712MOL0     H98192   6.055   4.734   1.900 -0.7372  1.2494 -0.7075
  712MOL0     H98193   6.082   4.488   1.936  2.8490  0.6112  0.4533
  712MOL0     H98194   6.022   4.472   1.765 -0.6670  2.3908 -1.9077
  712MOL0     H98195   6.197   4.635   1.701 -1.1111 -0.3014 -0.0847
  712MOL0     H98196   6.264   4.622   1.869 -1.5932  3.6968 -0.6139
  712MOL0     H98197   6.253   4.395   1.663 -2.5747 -1.0694  0.4470
  712MOL0     H98198   6.278   4.375   1.836  0.3105  0.8475 -0.1649
  712MOL0     H98199   6.445   4.561   1.666  1.2441 -0.4964  1.0724
  712MOL0     H98200   6.496   4.499   1.820  1.1149  3.7235  0.0370
  712MOL0     H98201   6.615   4.376   1.613 -0.4178 -1.1927 -0.8690
  712MOL0     H98202   6.455   4.313   1.587  2.4618 -1.7062 -2.0057
  712MOL0     H98203   6.458   4.238   1.835  1.7478 -4.3629  2.4277
  712MOL0     H98204   6.528   4.139   1.714 -1.1624  0.4159  0.3887
  712MOL0     H98205   6.818   4.163   1.690 -2.0232  0.4604 -1.5738
  712MOL0     H98206   7.019   4.133   1.974  4.0546  1.5275  2.4796
  712MOL0     H98207   7.065   4.298   1.976 -1.5089  0.3819  2.3927
  712MOL0     H98208   7.066   4.109   1.736 -2.2105  1.7454 -0.8282
  712MOL0     H98209   7.074   4.278   1.715  1.1954 -0.4584 -0.1281
  712MOL0     H98210   7.317   4.190   1.727  2.5955 -0.7230  1.3845
  712MOL0     H98211   7.297   4.273   1.867  2.7876 -0.2065 -3.3240
  712MOL0     H98212   7.207   4.052   1.971 -1.5431  1.6169 -1.6457
  712MOL0     H98213   7.299   3.977   1.839 -0.5903  0.5769 -1.0057
  712MOL0     H98214   7.469   3.997   1.726  1.2844 -1.3728 -1.8302
  712MOL0     H98215   7.607   3.927   1.543 -0.6480 -0.9442  0.5136
  712MOL0     H98216   7.740   3.832   1.607  1.1043  0.1858 -2.0678
  712MOL0     H98217   7.765   4.010   1.556 -1.4124  1.0617 -0.8526
  712MOL0     H98218   8.158   3.795   1.788 -1.6909  1.4537 -0.1805
  712MOL0     H98219   8.409   3.755   1.762 -1.2244 -1.9466  0.7627
  712MOL0     H98220   8.653   4.063   1.993  0.1182 -0.5656  1.5812
  712MOL0     H98221   8.747   3.929   1.984 -1.2713  2.0530  3.7978
  712MOL0     H98222   8.814   4.013   1.741  1.1639  1.6449 -0.2943
  712MOL0     H98223   8.707   4.153   1.799 -0.3311  0.8678  0.9414
  712MOL0     H98224   8.868   4.161   2.008  2.5847  1.5644 -0.3620
  712MOL0     H98225   8.928   4.223   1.863 -0.1242  0.2572  0.4761
  712MOL0     H98226   9.046   3.997   1.831  0.3095  0.1709  0.1988
  712MOL0     H98227   8.975   3.960   1.986  1.0323  0.6903  1.5651
  712MOL0     H98228   9.137   4.215   1.933  0.3750  2.1417  1.8353
  712MOL0     H98229   9.112   4.139   2.089  4.1711  1.2135  0.4606
  712MOL0     H98230   9.285   4.017   1.866  0.4951  0.9132 -0.2945
  712MOL0     H98231   9.235   3.944   2.019 -4.2594  0.7155  0.6055
  712MOL0     H98232   9.463   4.060   2.026 -0.1760  0.7319  0.6738
  712MOL0     H98233   9.352   4.136   2.143  1.3040  0.3471  0.7677
  712MOL0     H98234   9.363   4.241   1.862 -2.0931 -2.5993  1.2893
  712MOL0     H98235   9.496   4.286   1.969  0.3290  0.3081 -1.9722
  712MOL0     H98236   8.475   4.141   1.924  0.0445 -0.9390  2.0099
  712MOL0     H98237   8.221   4.193   1.930 -1.6001 -0.7043  0.0719
  712MOL0     H98238   7.854   4.045   2.036 -0.3411  0.3091  1.1504
  712MOL0     H98239   7.630   4.107   2.117  0.3714 -1.4718  0.4650
  712MOL0     H98240   5.586   4.399   1.764 -1.1066  2.3827 -1.3755
  712MOL0     H98241   5.365   4.345   1.874 -0.4291  1.5267 -0.2537
  712MOL0     H98242   5.143   4.275   2.208  0.2055 -1.1269  1.7432
  712MOL0     H98243   4.909   4.181   2.241 -3.3765 -0.3697 -1.8583
  712MOL0     H98244   4.713   4.134   2.303 -0.9036 -2.0478  0.0254
  712MOL0     H98245   4.542   4.184   2.265  0.3610  0.9730  0.0791
  712MOL0     H98246   4.768   4.066   2.085 -0.2935  1.7307 -2.9639
  712MOL0     H98247   4.635   4.163   2.012  1.8942  1.6812 -0.3945
  712MOL0     H98248   4.614   3.896   2.032  1.4439 -1.4970  1.5962
  712MOL0     H98249   4.583   3.931   2.196 -0.5551  1.0906  0.7129
  712MOL0     H98250   4.434   4.055   1.954  2.8880 -2.6911 -0.7164
  712MOL0     H98251   4.387   4.088   2.121 -1.8546 -0.1651 -0.7207
  712MOL0     H98252   4.240   3.698   2.098  0.7839  0.5789  2.6573
  712MOL0     H98253   4.725   4.531   2.120  0.5058  0.0342  1.4503
  712MOL0     H98254   5.033   4.708   1.985 -1.3475  0.4053 -1.1158
  712MOL0     H98255   4.863   4.689   2.004  0.7997  0.1515 -1.0393
  712MOL0     H98256   4.970   4.747   2.145 -0.9741  0.5918 -0.4490
  713MOL0     O98257   0.011   4.719   8.819  0.4718  0.5419 -0.5207
  713MOL0     C98258  -0.019   4.680   8.704 -0.1294 -0.6780 -0.4486
  713MOL0     O98259   0.053   4.707   8.588 -0.2592  0.7899  0.1853
  713MOL0     C98260   0.181   4.758   8.595  0.3487  0.0903  0.1274
  713MOL0     C98261   0.282   4.688   8.534  0.2498 -0.2658 -0.6921
  713MOL0     C98262   0.411   4.751   8.527  0.0473 -0.3327  0.2795
  713MOL0     C98263   0.440   4.880   8.571 -0.2897  0.0102  0.0907
  713MOL0     O98264   0.565   4.928   8.555 -0.2404  0.1852 -0.4990
  713MOL0     C98265   0.583   5.066   8.594 -0.1430 -0.4708  0.0238
  713MOL0     C98266   0.721   5.089   8.535 -0.0922 -0.5314  0.4903
  713MOL0     C98267   0.777   5.231   8.569  0.4444  0.1537  1.0415
  713MOL0     C98268   0.920   5.217   8.595 -1.0060  0.3937 -0.0255
  713MOL0     C98269   0.985   5.350   8.648  0.3108 -0.1275 -0.2947
  713MOL0     C98270   1.135   5.328   8.683 -0.4119  0.3247 -1.2045
  713MOL0     C98271   1.201   5.453   8.733  0.9490 -0.2295  0.2147
  713MOL0     C98272   1.300   5.520   8.634 -0.3184  0.2104 -0.0222
  713MOL0     N98273   1.384   5.622   8.703 -0.3516  0.0430  1.0737
  713MOL0     C98274   1.346   5.720   8.784 -0.3174  0.2072  0.5195
  713MOL0     C98275   1.460   5.776   8.832  0.0491 -0.2422  0.8625
  713MOL0     C98276   1.469   5.917   8.896  0.1918 -0.8702  0.3630
  713MOL0     C98277   1.605   5.978   8.910 -0.8425  0.3480  0.6605
  713MOL0     C98278   1.667   6.016   8.772  0.3340  0.0686 -0.1553
  713MOL0     C98279   1.598   6.125   8.690  0.2103  0.5428  0.4088
  713MOL0     O98280   1.613   6.251   8.765 -0.4001  0.1072 -0.4007
  713MOL0     C98281   1.735   6.312   8.796  0.5023 -0.5302 -0.0776
  713MOL0     C98282   1.728   6.398   8.902 -0.2160  0.5380  0.1481
  713MOL0     C98283   1.849   6.449   8.960  0.0614  0.8882 -0.0947
  713MOL0     C98284   1.852   6.547   9.074  0.2653  0.1671 -0.4728
  713MOL0     C98285   1.972   6.409   8.898 -0.1639 -0.3921 -0.3399
  713MOL0     C98286   2.110   6.448   8.947 -0.1941  0.6734  0.3964
  713MOL0     O98287   2.182   6.473   8.838 -0.1245 -0.1472  0.4060
  713MOL0     C98288   2.282   6.565   8.844 -0.0562  0.2156  0.6520
  713MOL0     C98289   2.289   6.682   8.918 -0.2575 -0.2518  0.3313
  713MOL0     C98290   2.396   6.775   8.906 -0.1847  0.1085 -0.1116
  713MOL0     C98291   2.511   6.742   8.836 -0.1438 -0.1549 -0.6703
  713MOL0     O98292   2.616   6.826   8.837 -0.6564  0.1069 -0.0384
  713MOL0     C98293   2.582   6.956   8.779 -0.4970  0.2882 -0.6878
  713MOL0     C98294   2.706   7.052   8.780 -0.6907 -0.3259 -0.3266
  713MOL0     C98295   2.819   6.985   8.707 -0.6428 -0.1255 -0.6126
  713MOL0     C98296   2.950   7.061   8.719 -0.2636  0.0649  0.4769
  713MOL0     C98297   3.003   7.094   8.862 -0.0722  0.2367 -0.5154
  713MOL0     C98298   3.140   7.176   8.858  0.4509 -0.3898  0.6839
  713MOL0     C98299   3.206   7.188   8.995  0.2714 -1.0065  0.1182
  713MOL0     C98300   3.325   7.285   8.999 -0.1557 -0.5594 -0.4386
  713MOL0    Cl98301   3.275   7.438   9.079  0.2659  0.2816 -0.5532
  713MOL0     C98302   2.509   6.626   8.767  0.1024  0.8630  0.2795
  713MOL0     C98303   2.401   6.539   8.765  0.7832  0.3463  0.5023
  713MOL0     O98304   2.133   6.467   9.068 -0.3124  0.1805  0.0099
  713MOL0     C98305   1.968   6.328   8.779 -0.3481  0.2966  0.3450
  713MOL0     C98306   1.847   6.273   8.733 -0.5457 -0.9435  0.1789
  713MOL0     N98307   1.566   5.711   8.778 -0.7830  0.1625  0.9683
  713MOL0     N98308   1.521   5.615   8.692  0.7228  0.0480  0.2880
  713MOL0     C98309   0.326   4.952   8.634  0.3261  0.4053 -0.0417
  713MOL0     C98310   0.198   4.886   8.645  0.5693 -0.4193 -0.1320
  713MOL0     C98311  -0.148   4.606   8.693 -0.4312  0.3450 -0.6384
  713MOL0     C98312  -0.228   4.592   8.812  0.1182 -0.2232 -0.9709
  713MOL0     C98313  -0.354   4.544   8.828  0.4353 -1.2518  0.4283
  713MOL0     C98314  -0.403   4.494   8.714  0.3910  0.9026  1.1551
  713MOL0     O98315  -0.524   4.424   8.702  0.1753 -0.5187  0.0528
  713MOL0     C98316  -0.634   4.520   8.680  0.2146 -0.2208 -0.0110
  713MOL0     C98317  -0.777   4.456   8.700 -0.0177 -0.0419 -0.1953
  713MOL0     C98318  -0.798   4.387   8.836  0.7283  0.7391 -0.9652
  713MOL0     C98319  -0.818   4.481   8.953 -0.6330  0.1866 -0.6246
  713MOL0     C98320  -0.713   4.574   8.987 -0.8098  0.0198 -1.4002
  713MOL0     C98321  -0.626   4.651   9.027 -0.2450  0.1364  0.0293
  713MOL0     C98322  -0.328   4.498   8.594  0.3813  0.5937 -0.3101
  713MOL0     C98323  -0.200   4.546   8.583 -0.2669  0.0168 -0.0791
  713MOL0     C98324  -0.130   4.535   8.447 -0.8994  0.0060 -0.3452
  713MOL0     H98325   0.274   4.587   8.495  0.6435 -1.2114  1.5307
  713MOL0     H98326   0.496   4.697   8.485  0.4066 -0.3296  0.9909
  713MOL0     H98327   0.575   5.060   8.703 -1.3273 -2.0606 -0.1198
  713MOL0     H98328   0.509   5.134   8.550 -0.7599 -0.9671  0.2786
  713MOL0     H98329   0.780   5.012   8.585  0.0932 -0.4073  0.4615
  713MOL0     H98330   0.730   5.066   8.428  1.9462  1.1199  0.2619
  713MOL0     H98331   0.759   5.297   8.483  1.4870 -0.8467  0.0140
  713MOL0     H98332   0.721   5.282   8.648 -1.0522  0.9936 -0.4714
  713MOL0     H98333   0.930   5.140   8.672 -3.9202  0.1367  0.2135
  713MOL0     H98334   0.966   5.187   8.500  1.1260 -0.2963  1.1543
  713MOL0     H98335   0.936   5.380   8.741  2.8474 -0.8833  1.3965
  713MOL0     H98336   0.969   5.426   8.571 -0.0088 -0.0592 -0.1644
  713MOL0     H98337   1.141   5.253   8.763  1.4364  1.0274 -0.6353
  713MOL0     H98338   1.185   5.288   8.594 -2.5943  0.5624 -2.6090
  713MOL0     H98339   1.255   5.427   8.824  1.9962  1.1315  0.0249
  713MOL0     H98340   1.121   5.522   8.761 -1.2660 -2.8276  0.7673
  713MOL0     H98341   1.369   5.442   8.601 -0.2881  1.5176 -3.5511
  713MOL0     H98342   1.235   5.562   8.556 -1.4934  0.4321  1.0442
  713MOL0     H98343   1.245   5.752   8.806 -0.8669  1.3093 -2.9745
  713MOL0     H98344   1.437   5.916   9.001  1.1897 -2.4323  0.6864
  713MOL0     H98345   1.404   5.979   8.834  0.8809 -0.2756  0.2380
  713MOL0     H98346   1.591   6.070   8.968 -0.9090  1.8335 -1.6001
  713MOL0     H98347   1.672   5.918   8.972 -1.8307  0.3962  1.8136
  713MOL0     H98348   1.774   6.033   8.786  0.0611  1.7547  0.0115
  713MOL0     H98349   1.666   5.921   8.717  1.8591 -0.4207  0.6017
  713MOL0     H98350   1.635   6.115   8.587 -1.6689  2.9527 -0.6106
  713MOL0     H98351   1.489   6.112   8.682  0.2389 -1.1201  2.0750
  713MOL0     H98352   1.628   6.421   8.939 -0.7507 -0.8745 -0.3939
  713MOL0     H98353   1.908   6.635   9.041 -3.2656  3.0598  0.5309
  713MOL0     H98354   1.898   6.503   9.163  0.5212 -1.1020 -1.2148
  713MOL0     H98355   1.751   6.584   9.096  0.2522 -0.6586  0.9710
  713MOL0     H98356   2.209   6.701   8.989 -0.4567  0.7457 -0.1398
  713MOL0     H98357   2.393   6.870   8.957 -2.9112 -0.4352  0.9425
  713MOL0     H98358   2.565   6.930   8.674  1.6178 -1.6428 -0.6402
  713MOL0     H98359   2.486   7.000   8.805  0.5047  1.4890  1.2271
  713MOL0     H98360   2.677   7.135   8.714  1.0762 -0.6764 -1.6182
  713MOL0     H98361   2.717   7.083   8.884  1.4910  0.5222 -0.7478
  713MOL0     H98362   2.798   6.985   8.600 -0.0629  2.7954 -0.7983
  713MOL0     H98363   2.842   6.883   8.740 -0.2674  0.0428 -0.3406
  713MOL0     H98364   2.946   7.157   8.667  0.3794  0.5714  1.3428
  713MOL0     H98365   3.027   7.004   8.667  1.1622  2.1918  0.1361
  713MOL0     H98366   2.934   7.162   8.912 -1.1768 -0.5132 -0.9673
  713MOL0     H98367   3.009   7.006   8.926 -0.6557 -0.5874 -1.5579
  713MOL0     H98368   3.111   7.276   8.826 -2.1511 -1.5444 -0.9167
  713MOL0     H98369   3.212   7.129   8.790  0.7193 -1.2942  1.5658
  713MOL0     H98370   3.246   7.091   9.026  0.7748 -1.0338 -0.5898
  713MOL0     H98371   3.137   7.217   9.074  0.8989 -2.6818  1.3451
  713MOL0     H98372   3.383   7.294   8.906  0.9104 -1.3344  0.1237
  713MOL0     H98373   3.397   7.240   9.068  1.5971  2.6449  0.0501
  713MOL0     H98374   2.604   6.607   8.717 -0.0544  2.6549 -0.8141
  713MOL0     H98375   2.404   6.443   8.714 -1.6824  1.1550 -1.3796
  713MOL0     H98376   2.056   6.305   8.720 -0.4184  2.5068 -0.7177
  713MOL0     H98377   1.835   6.219   8.639  0.2757 -0.3102 -0.3137
  713MOL0     H98378   0.337   5.053   8.672  0.4202 -0.3316  2.0121
  713MOL0     H98379   0.117   4.935   8.698  0.1824 -1.6919  0.4868
  713MOL0     H98380  -0.194   4.610   8.913 -0.8984 -1.1461 -0.4501
  713MOL0     H98381  -0.405   4.526   8.921  2.4706 -0.0814  1.8605
  713MOL0     H98382  -0.620   4.611   8.738 -1.2156 -0.5803  0.9329
  713MOL0     H98383  -0.626   4.556   8.577  0.3444  0.9178  0.3843
  713MOL0     H98384  -0.779   4.371   8.631  1.2697  0.3392 -0.7449
  713MOL0     H98385  -0.857   4.527   8.677  1.0777  1.3988  0.2894
  713MOL0     H98386  -0.888   4.326   8.830 -0.3765  1.6692  3.2636
  713MOL0     H98387  -0.716   4.320   8.863 -0.3864 -0.4573 -0.5089
  713MOL0     H98388  -0.859   4.421   9.034 -2.4910 -1.7257 -2.8259
  713MOL0     H98389  -0.904   4.544   8.930  0.0016  1.2986 -0.0391
  713MOL0     H98390  -0.544   4.716   9.053 -0.2855  0.4510 -0.6199
  713MOL0     H98391  -0.371   4.455   8.504  1.7206  1.0057 -1.1955
  713MOL0     H98392  -0.040   4.473   8.450 -2.6477 -2.7808 -1.0730
  713MOL0     H98393  -0.195   4.486   8.374  0.6766 -1.0098 -1.1232
  713MOL0     H98394  -0.096   4.634   8.415  1.7791 -0.8497 -0.3932
  714MOL0     O98395   0.129   8.556   6.207 -0.0979 -0.0066  0.0453
  714MOL0     C98396   0.128   8.530   6.087 -0.6407  0.2938  0.1215
  714MOL0     O98397   0.090   8.621   5.994  0.2355  0.2096  0.5966
  714MOL0     C98398   0.006   8.726   6.025 -0.6170 -0.5707  1.0196
  714MOL0     C98399   0.020   8.846   5.959  0.2461 -0.1273  0.1720
  714MOL0     C98400  -0.052   8.964   5.988 -0.0348  0.0945  0.3389
  714MOL0     C98401  -0.140   8.962   6.096 -0.4623 -0.0559 -0.2691
  714MOL0     O98402  -0.200   9.076   6.132  0.3781  0.2785 -0.0879
  714MOL0     C98403  -0.245   9.084   6.275 -0.2898 -0.5264  0.6769
  714MOL0     C98404  -0.394   9.044   6.273 -0.0682 -0.1461  0.2911
  714MOL0     C98405  -0.459   9.132   6.387  0.2036  0.1290  0.0691
  714MOL0     C98406  -0.424   9.101   6.534  0.6412 -0.1610 -0.5069
  714MOL0     C98407  -0.508   9.189   6.624 -0.3464 -0.1964 -0.2976
  714MOL0     C98408  -0.619   9.103   6.701 -0.8781  0.5658  0.4162
  714MOL0     C98409  -0.653   9.171   6.841  0.2258  0.1925  0.6735
  714MOL0     C98410  -0.551   9.139   6.942 -0.6906  0.1933 -0.5031
  714MOL0     N98411  -0.522   8.995   6.964  1.0136 -0.7454  0.8487
  714MOL0     C98412  -0.401   8.935   6.985  0.1714 -0.1483 -0.5182
  714MOL0     C98413  -0.433   8.817   7.043 -0.4417  0.7953 -0.2341
  714MOL0     C98414  -0.340   8.716   7.126  0.1480 -0.7229 -0.0303
  714MOL0     C98415  -0.207   8.681   7.058 -0.4397 -0.5190 -0.1386
  714MOL0     C98416  -0.208   8.576   6.945  0.3906 -0.1816 -0.5576
  714MOL0     C98417  -0.088   8.571   6.859  0.1118 -0.5009 -0.7241
  714MOL0     O98418   0.033   8.573   6.930 -0.0258 -0.1207 -0.0804
  714MOL0     C98419   0.151   8.566   6.860  0.2781 -0.2659 -0.9572
  714MOL0     C98420   0.161   8.555   6.721 -0.1967  0.3192 -0.1981
  714MOL0     C98421   0.281   8.570   6.654 -0.5457  0.2526  0.6089
  714MOL0     C98422   0.279   8.559   6.506 -0.1268 -0.7439 -0.1237
  714MOL0     C98423   0.401   8.570   6.730  0.1294 -0.7708  0.7424
  714MOL0     C98424   0.536   8.583   6.674  0.4480  0.3642 -0.5989
  714MOL0     O98425   0.628   8.495   6.723  0.1816 -0.4315 -0.3857
  714MOL0     C98426   0.758   8.536   6.699  0.0686 -0.5696 -0.6690
  714MOL0     C98427   0.838   8.460   6.618 -0.3829  0.2376  0.0639
  714MOL0     C98428   0.967   8.511   6.580  0.4299 -0.1085  0.3298
  714MOL0     C98429   1.018   8.634   6.626 -0.5337 -0.5403  0.1808
  714MOL0     O98430   1.134   8.696   6.602 -0.5170  0.2719 -0.8243
  714MOL0     C98431   1.238   8.616   6.544  0.4967 -0.1325 -0.0524
  714MOL0     C98432   1.360   8.696   6.507  0.4031  0.9702  0.3676
  714MOL0     C98433   1.434   8.759   6.625  0.2127 -0.0883 -0.1520
  714MOL0     C98434   1.544   8.853   6.586  0.3126 -0.3203 -0.2609
  714MOL0     C98435   1.606   8.919   6.707 -0.3845 -0.5398 -0.1782
  714MOL0     C98436   1.718   9.002   6.669 -0.4590  0.3275 -0.4548
  714MOL0     C98437   1.838   8.913   6.614  0.1461 -0.3920 -0.1155
  714MOL0     C98438   1.974   8.970   6.643 -0.4025 -0.0034 -0.3601
  714MOL0    Cl98439   1.966   9.152   6.652  0.5118 -0.7568 -0.2043
  714MOL0     C98440   0.940   8.699   6.709  0.1280  0.0015  0.3332
  714MOL0     C98441   0.814   8.654   6.752 -0.3177 -0.2852 -0.0775
  714MOL0     O98442   0.556   8.663   6.580 -0.1687  0.4633  0.2659
  714MOL0     C98443   0.390   8.567   6.873  0.2246  0.0386 -1.0141
  714MOL0     C98444   0.267   8.564   6.936 -0.0320  0.3080  0.1083
  714MOL0     N98445  -0.570   8.805   7.052 -0.5834 -0.1097 -0.2121
  714MOL0     N98446  -0.626   8.907   7.001 -0.5504 -0.2738 -0.4098
  714MOL0     C98447  -0.164   8.839   6.159  0.5873 -0.2827  0.3775
  714MOL0     C98448  -0.088   8.724   6.130 -0.8692  0.6504 -0.1751
  714MOL0     C98449   0.170   8.389   6.047  0.1493 -0.4112 -0.3157
  714MOL0     C98450   0.239   8.314   6.140  0.1749 -0.5117  0.2177
  714MOL0     C98451   0.292   8.193   6.111  0.9002  0.0692 -0.5521
  714MOL0     C98452   0.268   8.136   5.991  0.3951 -0.3075  0.8350
  714MOL0     O98453   0.312   8.007   5.976 -0.1660  0.6985 -0.1047
  714MOL0     C98454   0.383   7.974   5.861  0.2460 -0.6143  0.1661
  714MOL0     C98455   0.515   8.054   5.851  0.3003  0.6265  0.6946
  714MOL0     C98456   0.581   8.010   5.714  0.0963 -0.1967 -0.5167
  714MOL0     C98457   0.727   8.069   5.686 -0.6286 -0.3159  0.3146
  714MOL0     C98458   0.823   8.037   5.794  0.1736  1.0997  0.6246
  714MOL0     C98459   0.905   8.011   5.870 -0.5409 -0.1048  0.6788
  714MOL0     C98460   0.187   8.201   5.902  0.5364 -0.6322 -0.6726
  714MOL0     C98461   0.131   8.326   5.928  0.0178 -0.2531 -0.2046
  714MOL0     C98462   0.048   8.394   5.822 -0.1053 -0.5328 -0.0752
  714MOL0     H98463   0.085   8.851   5.873  2.0402 -0.8912  1.4322
  714MOL0     H98464  -0.044   9.048   5.920 -0.4889  1.5428  2.0214
  714MOL0     H98465  -0.239   9.189   6.306 -0.4776 -0.2826 -0.0729
  714MOL0     H98466  -0.177   9.029   6.341  2.9831  1.9470 -0.3532
  714MOL0     H98467  -0.438   9.071   6.177  4.3861 -0.5389 -2.1406
  714MOL0     H98468  -0.404   8.936   6.287 -1.3928 -0.2531 -1.1955
  714MOL0     H98469  -0.450   9.240   6.371 -3.0921  0.0314 -4.6298
  714MOL0     H98470  -0.567   9.128   6.370  0.2152  0.7360 -0.1917
  714MOL0     H98471  -0.449   8.995   6.546  1.4179 -0.3190 -0.2147
  714MOL0     H98472  -0.315   9.109   6.538  0.6854  0.0248 -1.6291
  714MOL0     H98473  -0.549   9.270   6.564 -0.5075 -2.0927 -2.9495
  714MOL0     H98474  -0.450   9.234   6.705  1.4610 -1.8501 -0.5850
  714MOL0     H98475  -0.702   9.097   6.631  1.0889 -1.4091 -1.9537
  714MOL0     H98476  -0.569   9.006   6.713 -1.4671  0.2410  0.2726
  714MOL0     H98477  -0.747   9.128   6.877  1.0510 -2.1032  0.2993
  714MOL0     H98478  -0.661   9.279   6.835  1.6150  0.2477 -0.8368
  714MOL0     H98479  -0.457   9.193   6.928 -1.6406  1.6167 -1.7278
  714MOL0     H98480  -0.588   9.175   7.038 -0.5240  2.8461 -1.3422
  714MOL0     H98481  -0.299   8.972   6.971  0.4523 -1.6496 -3.2038
  714MOL0     H98482  -0.402   8.628   7.144 -1.5035  0.2457 -0.8053
  714MOL0     H98483  -0.316   8.766   7.220 -3.1340  0.6307  0.2080
  714MOL0     H98484  -0.173   8.781   7.030 -0.9543 -0.1287  0.5828
  714MOL0     H98485  -0.132   8.637   7.125 -0.6359  1.0164  1.1653
  714MOL0     H98486  -0.218   8.480   6.995  1.9204 -0.8146 -1.4025
  714MOL0     H98487  -0.299   8.586   6.885  0.7508 -1.5137 -1.3755
  714MOL0     H98488  -0.095   8.483   6.794 -0.0283 -0.9941 -0.0490
  714MOL0     H98489  -0.086   8.662   6.798 -4.7941 -1.4891 -2.8157
  714MOL0     H98490   0.077   8.542   6.654  0.2472  3.5696 -1.5635
  714MOL0     H98491   0.361   8.493   6.474  1.1649 -0.0242  1.5509
  714MOL0     H98492   0.295   8.653   6.453  0.8023 -0.2254  1.0256
  714MOL0     H98493   0.189   8.511   6.467  0.0584 -1.1489 -0.0582
  714MOL0     H98494   0.793   8.370   6.576  1.4520 -0.9610  0.5311
  714MOL0     H98495   1.021   8.457   6.504 -0.6262 -1.4787  0.5050
  714MOL0     H98496   1.276   8.544   6.618  1.6018  0.5565  0.0745
  714MOL0     H98497   1.195   8.571   6.455  4.4163 -1.2197 -1.6242
  714MOL0     H98498   1.427   8.635   6.446  0.3760  1.5844 -0.2992
  714MOL0     H98499   1.320   8.771   6.438 -1.1309 -1.9687 -2.1760
  714MOL0     H98500   1.457   8.683   6.700  0.4660  0.0436 -0.0948
  714MOL0     H98501   1.366   8.825   6.681  1.4350  1.1049 -0.0070
  714MOL0     H98502   1.494   8.923   6.519  0.1820  1.6566  1.7672
  714MOL0     H98503   1.621   8.791   6.540  2.2375  1.6792  0.0898
  714MOL0     H98504   1.526   8.984   6.743  1.5391  3.8069 -2.9720
  714MOL0     H98505   1.644   8.843   6.776 -0.0024 -0.8985 -0.7702
  714MOL0     H98506   1.750   9.058   6.757  2.4183  2.1376 -2.4720
  714MOL0     H98507   1.690   9.066   6.585 -1.3285 -0.6946 -0.9585
  714MOL0     H98508   1.828   8.911   6.506 -1.9803  2.8663 -0.1222
  714MOL0     H98509   1.839   8.812   6.657 -3.7892 -1.8792 -2.9582
  714MOL0     H98510   2.044   8.925   6.571 -1.9206 -1.8468 -0.7402
  714MOL0     H98511   1.994   8.943   6.747 -0.3409  0.2789 -0.2971
  714MOL0     H98512   0.964   8.795   6.752 -0.0248 -0.2371  0.9711
  714MOL0     H98513   0.755   8.711   6.823 -3.4225 -1.6494 -1.3838
  714MOL0     H98514   0.479   8.576   6.934  1.1262  2.4236 -2.5233
  714MOL0     H98515   0.270   8.579   7.044  2.7702  0.7687  0.0401
  714MOL0     H98516  -0.228   8.812   6.243  1.5616 -1.4140  0.7888
  714MOL0     H98517  -0.091   8.631   6.186 -0.0985  1.3261  1.0485
  714MOL0     H98518   0.275   8.352   6.235 -1.3524  0.4504  0.4447
  714MOL0     H98519   0.362   8.162   6.188  3.6471  3.9013 -1.1972
  714MOL0     H98520   0.392   7.866   5.850  2.1652 -0.7767  2.4928
  714MOL0     H98521   0.317   8.008   5.781 -2.1823 -1.1597  1.7792
  714MOL0     H98522   0.568   8.031   5.944 -0.2004 -0.8743  0.6347
  714MOL0     H98523   0.500   8.162   5.846  4.4737  1.3768  0.5975
  714MOL0     H98524   0.577   7.901   5.717  0.0604 -0.2334 -1.5452
  714MOL0     H98525   0.519   8.038   5.628  1.0810  0.0897 -1.1528
  714MOL0     H98526   0.729   8.176   5.667 -0.3400 -0.1766  1.1280
  714MOL0     H98527   0.766   8.028   5.592  0.3924 -0.8008  0.9375
  714MOL0     H98528   0.966   7.965   5.945 -0.9635  2.1183  2.4953
  714MOL0     H98529   0.155   8.159   5.807 -3.3075  0.1283  0.1113
  714MOL0     H98530   0.098   8.480   5.779  0.4522 -0.3952  0.8068
  714MOL0     H98531   0.024   8.321   5.745 -0.1500  0.4825 -1.0353
  714MOL0     H98532  -0.040   8.442   5.865 -1.3990 -2.2728 -0.6946
  715MOL0     O98533   7.352   3.459   3.821  0.4411  0.9882 -0.6008
  715MOL0     C98534   7.247   3.491   3.865  0.4235 -0.4005 -0.0458
  715MOL0     O98535   7.228   3.598   3.944  0.5339  0.5668  0.3588
  715MOL0     C98536   7.336   3.678   3.978 -0.0450 -0.5082 -0.6582
  715MOL0     C98537   7.431   3.731   3.888 -0.1589 -0.3537  0.3314
  715MOL0     C98538   7.512   3.839   3.920 -0.3657 -0.2123  0.4405
  715MOL0     C98539   7.502   3.903   4.050  0.9261 -0.3917 -0.0604
  715MOL0     O98540   7.577   4.013   4.090 -0.2961  0.7495 -0.2757
  715MOL0     C98541   7.573   4.123   3.997 -0.0903 -0.4824  0.5439
  715MOL0     C98542   7.712   4.183   3.976  0.2875 -0.4276 -0.6332
  715MOL0     C98543   7.811   4.075   3.935  0.2248  0.1370  0.9290
  715MOL0     C98544   7.955   4.135   3.930  0.2146  0.1199 -1.5108
  715MOL0     C98545   8.063   4.031   3.885 -0.6064 -1.1644 -0.3029
  715MOL0     C98546   8.057   3.894   3.957  0.2288 -0.3284 -0.0945
  715MOL0     C98547   8.186   3.820   3.932  0.2794  0.4165 -0.6478
  715MOL0     C98548   8.210   3.685   4.008  0.7029  0.4253 -0.2827
  715MOL0     N98549   8.320   3.607   3.945 -0.2571 -0.3610 -0.5330
  715MOL0     C98550   8.454   3.616   3.974 -0.5733  0.3924  0.7032
  715MOL0     C98551   8.509   3.532   3.879 -0.4344  0.2644 -0.4229
  715MOL0     C98552   8.659   3.499   3.854  0.3312 -0.0232 -0.2990
  715MOL0     C98553   8.666   3.346   3.834  0.4249  0.1024 -0.0389
  715MOL0     C98554   8.799   3.306   3.754 -0.0403 -0.5791 -0.4635
  715MOL0     C98555   8.929   3.376   3.805 -0.0530 -0.2785  0.2290
  715MOL0     O98556   8.935   3.360   3.949 -0.0799  0.4822 -0.2135
  715MOL0     C98557   9.064   3.316   3.988  0.2261 -0.1877  0.4203
  715MOL0     C98558   9.109   3.182   3.969 -0.1803 -0.1966  0.9941
  715MOL0     C98559   9.241   3.143   4.001 -0.2445 -0.1355 -0.6389
  715MOL0     C98560   9.276   3.001   3.963 -0.3386 -0.2001  0.1635
  715MOL0     C98561   9.323   3.243   4.073 -0.9364 -0.3794 -0.0666
  715MOL0     C98562   9.469   3.217   4.109 -0.4111  0.6286 -0.7768
  715MOL0     O98563   9.550   3.333   4.111 -0.4100  0.0702  1.3093
  715MOL0     C98564   9.683   3.321   4.136 -0.2187  0.6676 -0.5417
  715MOL0     C98565   9.765   3.216   4.194 -0.4899  0.1127  0.4575
  715MOL0     C98566   9.898   3.230   4.219 -0.6218 -0.5440 -1.1937
  715MOL0     C98567   9.955   3.349   4.174  0.2125 -0.4114  0.5336
  715MOL0     O98568  10.083   3.380   4.197 -0.1397 -0.2289  1.1154
  715MOL0     C98569  10.146   3.332   4.317  0.0948 -0.8699  0.2515
  715MOL0     C98570  10.296   3.361   4.327  1.5186 -0.6689 -0.0420
  715MOL0     C98571  10.386   3.312   4.211  0.2613  0.7413 -0.1453
  715MOL0     C98572  10.523   3.365   4.239  0.5475  0.2083 -0.1209
  715MOL0     C98573  10.604   3.352   4.113  0.1392 -0.3657 -0.0714
  715MOL0     C98574  10.744   3.414   4.151  0.4780 -0.4273  1.1187
  715MOL0     C98575  10.835   3.362   4.259  0.1924  0.7353  0.3014
  715MOL0     C98576  10.971   3.437   4.268  0.7978  0.4411  0.0518
  715MOL0    Cl98577  10.967   3.607   4.291 -0.5690  0.0765  0.3762
  715MOL0     C98578   9.888   3.442   4.095 -0.0708 -0.4343 -0.0635
  715MOL0     C98579   9.746   3.430   4.087  0.2380  0.0770  0.0224
  715MOL0     O98580   9.511   3.099   4.127  0.4583 -0.2398  0.9341
  715MOL0     C98581   9.279   3.368   4.098 -0.2543 -0.3824  0.0803
  715MOL0     C98582   9.147   3.399   4.059 -0.4758 -0.3570  0.1818
  715MOL0     N98583   8.405   3.486   3.799 -0.2236  0.2923  0.3250
  715MOL0     N98584   8.292   3.531   3.835  0.6547 -0.4719 -0.2773
  715MOL0     C98585   7.419   3.839   4.149 -0.1303  0.2128  0.6521
  715MOL0     C98586   7.336   3.738   4.109 -0.2488  0.1517 -0.3300
  715MOL0     C98587   7.117   3.416   3.822 -0.9741  0.0515  0.2051
  715MOL0     C98588   6.990   3.479   3.853  0.2015 -0.8547 -0.3607
  715MOL0     C98589   6.872   3.440   3.793  0.0197  0.5214  0.6773
  715MOL0     C98590   6.873   3.331   3.706  0.1467  0.2151  0.7284
  715MOL0     O98591   6.753   3.296   3.654 -0.6250  0.0799  0.0329
  715MOL0     C98592   6.741   3.167   3.592 -1.1318 -0.2882  0.2273
  715MOL0     C98593   6.610   3.137   3.511 -0.3748 -0.0260 -0.1549
  715MOL0     C98594   6.490   3.201   3.568 -0.1372 -0.3114 -1.1794
  715MOL0     C98595   6.365   3.198   3.483 -0.3691 -0.0218  0.1727
  715MOL0     C98596   6.289   3.074   3.485 -0.1056 -0.1916 -0.6702
  715MOL0     C98597   6.219   2.976   3.472  0.4898 -0.6137  0.3178
  715MOL0     C98598   7.000   3.269   3.677  0.1024  0.5090 -0.1782
  715MOL0     C98599   7.118   3.313   3.732 -0.5342  0.0540  0.5659
  715MOL0     C98600   7.243   3.233   3.697 -0.6472 -0.4375 -0.4898
  715MOL0     H98601   7.430   3.692   3.787  2.1924 -0.9175  0.4823
  715MOL0     H98602   7.575   3.884   3.844 -2.1266  1.0813 -0.3337
  715MOL0     H98603   7.509   4.203   4.035 -0.8500  0.4363 -2.4742
  715MOL0     H98604   7.521   4.099   3.904 -0.1004  0.7668  0.2170
  715MOL0     H98605   7.717   4.266   3.906  2.1321  2.0876  2.2271
  715MOL0     H98606   7.736   4.225   4.075 -0.1149 -2.2903  0.3070
  715MOL0     H98607   7.810   3.994   4.009  1.5308 -0.6945  0.0858
  715MOL0     H98608   7.786   4.023   3.842 -3.3261  0.3824  1.6080
  715MOL0     H98609   7.962   4.221   3.863 -3.9898  1.1983 -0.8636
  715MOL0     H98610   7.980   4.171   4.031 -1.8282 -0.3333 -0.7863
  715MOL0     H98611   8.158   4.080   3.906 -0.9312 -0.6388 -0.0265
  715MOL0     H98612   8.049   4.017   3.778 -3.5965 -1.2846 -0.0025
  715MOL0     H98613   8.034   3.904   4.063 -2.3220  0.8826 -0.6899
  715MOL0     H98614   7.980   3.827   3.919  1.8476 -1.9494 -0.6633
  715MOL0     H98615   8.269   3.886   3.959 -0.1297  1.1684 -1.1922
  715MOL0     H98616   8.200   3.808   3.824  0.3419  1.4486 -0.7621
  715MOL0     H98617   8.234   3.699   4.114  3.0490 -1.6958 -0.4408
  715MOL0     H98618   8.116   3.632   3.996  0.4892  0.8570 -0.5452
  715MOL0     H98619   8.500   3.674   4.053  1.4523 -0.4351  0.1961
  715MOL0     H98620   8.720   3.533   3.938  0.1219  0.7227 -0.4388
  715MOL0     H98621   8.698   3.542   3.762  3.4366  1.0150  1.3645
  715MOL0     H98622   8.655   3.292   3.929 -0.4216 -0.6084 -0.5322
  715MOL0     H98623   8.582   3.313   3.772  1.2706 -1.2929 -0.4708
  715MOL0     H98624   8.806   3.197   3.760  1.6051 -0.6990 -2.8417
  715MOL0     H98625   8.785   3.325   3.647  2.7156 -0.7475 -0.9300
  715MOL0     H98626   9.016   3.326   3.761  0.7179 -1.0151  2.4263
  715MOL0     H98627   8.926   3.483   3.782  0.4648 -0.0532  1.1521
  715MOL0     H98628   9.048   3.105   3.923 -0.7336  0.2824  0.9076
  715MOL0     H98629   9.286   2.939   4.053 -2.3342 -0.5681  0.1661
  715MOL0     H98630   9.378   3.002   3.923 -0.7242 -1.3939 -0.9096
  715MOL0     H98631   9.205   2.949   3.899  1.7424 -1.8705 -0.9424
  715MOL0     H98632   9.730   3.123   4.238  0.0937 -1.5138 -2.2996
  715MOL0     H98633   9.954   3.148   4.263  1.3111  0.9758 -0.6827
  715MOL0     H98634  10.086   3.370   4.400 -1.0339  1.9055 -1.6879
  715MOL0     H98635  10.131   3.224   4.312 -0.8529 -0.7247 -0.5880
  715MOL0     H98636  10.295   3.470   4.325  0.7004 -0.6040  1.6295
  715MOL0     H98637  10.329   3.327   4.426 -2.5006  0.1967  1.8213
  715MOL0     H98638  10.346   3.367   4.125 -0.2388  2.2968  1.0292
  715MOL0     H98639  10.385   3.203   4.202  2.5625  0.5552  1.0971
  715MOL0     H98640  10.566   3.316   4.327 -1.5169 -1.4441  0.0494
  715MOL0     H98641  10.518   3.473   4.256  1.3412 -0.2207  3.8641
  715MOL0     H98642  10.615   3.245   4.092 -2.4720 -0.4073 -1.7645
  715MOL0     H98643  10.561   3.407   4.028  0.2108  0.9351  0.7101
  715MOL0     H98644  10.724   3.521   4.164 -0.8570  0.1649 -3.7159
  715MOL0     H98645  10.802   3.406   4.058 -0.4424 -1.4698  0.5984
  715MOL0     H98646  10.845   3.254   4.242 -1.3335  0.7665 -1.0875
  715MOL0     H98647  10.788   3.383   4.356  1.6612 -0.4296  1.3102
  715MOL0     H98648  11.024   3.415   4.174 -2.7718  1.0469 -2.3001
  715MOL0     H98649  11.031   3.390   4.347 -1.0125 -1.2740  0.5063
  715MOL0     H98650   9.938   3.529   4.054 -4.1077  3.8051  2.9219
  715MOL0     H98651   9.687   3.504   4.034  0.5349  0.6496  0.4770
  715MOL0     H98652   9.334   3.441   4.157  0.8371 -1.4252  0.3883
  715MOL0     H98653   9.113   3.496   4.094  1.3393 -0.6302  3.0996
  715MOL0     H98654   7.413   3.890   4.245  2.5135 -0.2048  1.1096
  715MOL0     H98655   7.265   3.707   4.185 -0.2205 -0.5531 -0.5853
  715MOL0     H98656   6.978   3.558   3.926 -1.1013 -1.6989  0.3904
  715MOL0     H98657   6.781   3.498   3.806 -0.5906 -0.0110 -0.8932
  715MOL0     H98658   6.833   3.161   3.533 -2.0204  1.0391 -1.3787
  715MOL0     H98659   6.749   3.096   3.675 -1.2993  0.5544  0.9837
  715MOL0     H98660   6.588   3.030   3.510 -1.3265  0.0029  3.2686
  715MOL0     H98661   6.636   3.177   3.412  3.8936  1.3431  1.2836
  715MOL0     H98662   6.478   3.167   3.671  4.2782 -0.4530 -0.4886
  715MOL0     H98663   6.521   3.306   3.576  2.7889 -1.1271 -0.2824
  715MOL0     H98664   6.400   3.223   3.382  2.3900  0.2859  1.1098
  715MOL0     H98665   6.293   3.272   3.519 -1.2354 -1.8023  2.3132
  715MOL0     H98666   6.162   2.891   3.439 -0.6246  0.5624 -0.9221
  715MOL0     H98667   6.993   3.181   3.613 -1.4584 -0.6057  1.4150
  715MOL0     H98668   7.225   3.137   3.649  0.4993 -2.8899  3.5002
  715MOL0     H98669   7.316   3.292   3.641 -0.3153  0.2293  0.6050
  715MOL0     H98670   7.290   3.215   3.794  0.9485  1.0738 -0.9151
  716MOL0     O98671   1.546   0.478   9.797  0.0580 -0.3610  0.0199
  716MOL0     C98672   1.543   0.580   9.733  0.6354 -0.5420  0.5402
  716MOL0     O98673   1.643   0.640   9.670 -0.2573  0.2093  0.1469
  716MOL0     C98674   1.769   0.600   9.711  0.6366 -0.1874  0.5302
  716MOL0     C98675   1.820   0.467   9.713 -1.4492  0.2366  0.5351
  716MOL0     C98676   1.953   0.446   9.767 -0.0052  0.3073  0.7985
  716MOL0     C98677   2.021   0.554   9.832  1.1150  0.6238 -0.4137
  716MOL0     O98678   2.135   0.530   9.911 -0.0674  0.1773  0.1938
  716MOL0     C98679   2.235   0.463   9.841 -0.4860  0.7229  0.1385
  716MOL0     C98680   2.358   0.551   9.817 -0.2640 -0.8751 -0.5560
  716MOL0     C98681   2.455   0.584   9.938  0.0136  0.2805 -0.2612
  716MOL0     C98682   2.603   0.581   9.893 -0.2110  0.2772 -0.4683
  716MOL0     C98683   2.697   0.575  10.019  0.1747  0.1614 -0.0160
  716MOL0     C98684   2.842   0.570   9.991 -0.3197  0.3726  0.5180
  716MOL0     C98685   2.917   0.609  10.125  0.0660 -0.3003 -0.5194
  716MOL0     C98686   3.074   0.620  10.118  0.3467 -0.0115 -0.0826
  716MOL0     N98687   3.128   0.484  10.106 -0.2855  0.1560 -0.6904
  716MOL0     C98688   3.157   0.437   9.977  0.9762 -0.3176 -0.6197
  716MOL0     C98689   3.216   0.314  10.001 -0.7412  0.7321 -0.2960
  716MOL0     C98690   3.264   0.215   9.896  0.0255 -0.7440  0.1670
  716MOL0     C98691   3.410   0.168   9.930 -0.0242 -0.0965  0.2292
  716MOL0     C98692   3.454   0.050   9.838  0.3961 -0.4468  0.0403
  716MOL0     C98693   3.595  -0.003   9.869 -0.1651  0.4607  0.5378
  716MOL0     O98694   3.686   0.109   9.866  0.0146  0.2958  0.4039
  716MOL0     C98695   3.751   0.140   9.747  0.0663 -0.8806  0.9707
  716MOL0     C98696   3.810   0.040   9.671 -1.3830  0.0188 -0.1111
  716MOL0     C98697   3.888   0.072   9.553 -0.6773 -0.1402  0.0384
  716MOL0     C98698   3.950  -0.043   9.479  0.2685 -0.0980 -0.6111
  716MOL0     C98699   3.898   0.213   9.505  0.4697  1.3473 -0.9692
  716MOL0     C98700   3.956   0.249   9.370 -1.3194  0.7932  0.0161
  716MOL0     O98701   3.924   0.367   9.326  0.3798  0.0272  1.1784
  716MOL0     C98702   4.010   0.424   9.229  0.1128 -0.4661 -0.0961
  716MOL0     C98703   4.127   0.464   9.271 -0.4994  0.2423 -0.1416
  716MOL0     C98704   4.216   0.524   9.177  0.0712  0.4618 -0.6256
  716MOL0     C98705   4.182   0.544   9.044 -0.2435 -0.7527 -0.1989
  716MOL0     O98706   4.272   0.610   8.970 -0.4119 -0.1329  0.1211
  716MOL0     C98707   4.251   0.611   8.827  0.5573  0.3806  0.0680
  716MOL0     C98708   4.381   0.624   8.744 -0.5080 -0.0830 -0.3356
  716MOL0     C98709   4.470   0.733   8.791  0.6985  0.5348 -0.1049
  716MOL0     C98710   4.573   0.767   8.678 -0.7284 -0.5390  0.2269
  716MOL0     C98711   4.640   0.898   8.724 -0.6740 -0.5494  0.6605
  716MOL0     C98712   4.681   0.991   8.613  0.3630  0.1292 -0.3460
  716MOL0     C98713   4.781   0.939   8.509 -0.0025 -0.4188  0.6953
  716MOL0     C98714   4.904   0.859   8.562 -0.2492  0.3249 -0.1483
  716MOL0    Cl98715   5.042   0.855   8.446 -0.0027 -0.0298  0.7489
  716MOL0     C98716   4.053   0.504   9.003  0.0710 -0.1647  0.3012
  716MOL0     C98717   3.963   0.458   9.096  0.1161  1.1164 -0.5339
  716MOL0     O98718   4.020   0.163   9.314 -0.4577 -0.5269  0.6778
  716MOL0     C98719   3.828   0.303   9.589  0.6249 -0.0482  0.6382
  716MOL0     C98720   3.759   0.272   9.700  0.3800  0.1324  0.1126
  716MOL0     N98721   3.213   0.287  10.135  0.2482 -0.3236  0.4157
  716MOL0     N98722   3.174   0.387  10.200  0.8234  1.1281  0.0559
  716MOL0     C98723   1.976   0.681   9.829  0.6658 -0.6828 -0.3698
  716MOL0     C98724   1.852   0.704   9.764  0.2084 -0.3792 -0.4780
  716MOL0     C98725   1.424   0.654   9.731 -1.1716 -0.0953 -0.8130
  716MOL0     C98726   1.444   0.798   9.726  0.8911 -0.5997 -0.2761
  716MOL0     C98727   1.333   0.889   9.714 -0.5609 -0.5114  0.8823
  716MOL0     C98728   1.208   0.835   9.708  1.5956  0.0131  0.6463
  716MOL0     O98729   1.092   0.909   9.679 -0.3028 -0.3645 -0.7157
  716MOL0     C98730   1.073   1.023   9.771 -0.4419 -0.0312  0.2805
  716MOL0     C98731   1.047   1.141   9.687  0.5785  0.3163  1.2612
  716MOL0     C98732   1.043   1.281   9.749 -0.1818 -0.6887  0.8079
  716MOL0     C98733   1.163   1.328   9.825 -0.6815 -0.3114 -0.1801
  716MOL0     C98734   1.290   1.295   9.763  0.2579  0.9584  0.5185
  716MOL0     C98735   1.397   1.259   9.731  0.4666 -0.1539  0.5573
  716MOL0     C98736   1.186   0.698   9.714 -0.3816 -0.1433 -0.9339
  716MOL0     C98737   1.284   0.598   9.723 -1.0979 -0.4690  0.7045
  716MOL0     C98738   1.249   0.454   9.726 -0.0090 -0.3129 -0.0987
  716MOL0     H98739   1.770   0.379   9.676 -2.0082  0.2256  1.3024
  716MOL0     H98740   1.990   0.344   9.765  2.0796  0.9315  2.9656
  716MOL0     H98741   2.204   0.424   9.744 -0.7339 -3.0895  1.6044
  716MOL0     H98742   2.273   0.374   9.892  1.9521  0.9475 -1.1164
  716MOL0     H98743   2.419   0.514   9.734  1.4599 -2.0124  1.1461
  716MOL0     H98744   2.336   0.653   9.782  0.4598 -0.7599 -0.6801
  716MOL0     H98745   2.440   0.683   9.983  1.4232  0.8795 -1.0604
  716MOL0     H98746   2.435   0.505  10.011 -0.7033 -1.7499 -2.5341
  716MOL0     H98747   2.621   0.500   9.821  0.9155  0.2930 -0.2246
  716MOL0     H98748   2.626   0.677   9.846 -0.4586  0.7757  0.4146
  716MOL0     H98749   2.684   0.483  10.076  1.1180 -0.1083 -0.2162
  716MOL0     H98750   2.677   0.661  10.083  0.7319  2.0314 -2.2384
  716MOL0     H98751   2.875   0.475   9.949 -1.8990  1.1216 -2.7203
  716MOL0     H98752   2.840   0.648   9.915 -1.7221 -0.1476 -0.0149
  716MOL0     H98753   2.886   0.540  10.204  0.8207 -1.2014 -0.9893
  716MOL0     H98754   2.883   0.710  10.150  1.9509  0.3881 -0.5737
  716MOL0     H98755   3.100   0.694  10.041 -2.8601  0.1618 -1.1363
  716MOL0     H98756   3.111   0.647  10.218  1.5371 -2.0740  0.0993
  716MOL0     H98757   3.131   0.488   9.885 -1.2056 -1.0335 -0.4542
  716MOL0     H98758   3.253   0.256   9.796  0.3567 -3.4483 -1.0820
  716MOL0     H98759   3.194   0.132   9.914 -2.3685  1.2995  0.7909
  716MOL0     H98760   3.486   0.246   9.930  1.3782 -1.3777 -1.4027
  716MOL0     H98761   3.409   0.125  10.030 -0.2375 -1.4980 -0.3538
  716MOL0     H98762   3.386  -0.032   9.862  1.7377 -2.5743 -2.8348
  716MOL0     H98763   3.436   0.083   9.735  1.0216  2.1717  0.7052
  716MOL0     H98764   3.588  -0.057   9.964 -0.0560  3.2249  2.2434
  716MOL0     H98765   3.621  -0.077   9.793 -1.1889 -0.1395  0.7525
  716MOL0     H98766   3.804  -0.062   9.708 -2.8641  0.6865  1.6363
  716MOL0     H98767   4.059  -0.032   9.481  0.0682  2.3501  1.1955
  716MOL0     H98768   3.921  -0.058   9.375 -2.0178  3.9035 -0.7608
  716MOL0     H98769   3.936  -0.134   9.537  1.7329  0.5284  0.8054
  716MOL0     H98770   4.151   0.458   9.376 -2.0465 -0.3708  0.2017
  716MOL0     H98771   4.311   0.563   9.213 -0.3595  0.1217  0.9876
  716MOL0     H98772   4.214   0.514   8.791  2.7609  0.4306 -2.6560
  716MOL0     H98773   4.187   0.694   8.796  0.7845  0.0376 -1.3735
  716MOL0     H98774   4.436   0.529   8.748 -0.1940  0.1286  0.4512
  716MOL0     H98775   4.348   0.640   8.641  1.4130 -1.4200 -1.2253
  716MOL0     H98776   4.523   0.711   8.884 -0.5227  1.9246  0.9586
  716MOL0     H98777   4.411   0.824   8.808 -0.8656 -0.9444  3.4112
  716MOL0     H98778   4.519   0.773   8.583  0.7928  1.7463 -0.5655
  716MOL0     H98779   4.659   0.700   8.678  1.1368  1.6306 -2.9210
  716MOL0     H98780   4.579   0.969   8.781  3.6226  3.8977  0.3535
  716MOL0     H98781   4.729   0.874   8.783  0.1759 -0.2020 -0.4630
  716MOL0     H98782   4.728   1.078   8.660  0.5156 -1.1061  1.9354
  716MOL0     H98783   4.592   1.023   8.558  0.1471  1.8154  0.8927
  716MOL0     H98784   4.824   1.028   8.463  0.2955 -0.4865  0.8394
  716MOL0     H98785   4.730   0.878   8.434 -1.6188  1.3908  0.2516
  716MOL0     H98786   4.882   0.754   8.585 -0.4296  0.1404 -1.1103
  716MOL0     H98787   4.945   0.896   8.657  1.3803  1.0965 -1.1240
  716MOL0     H98788   4.019   0.524   8.901  0.3855  2.5263  0.6563
  716MOL0     H98789   3.865   0.416   9.076 -0.6723  3.0238 -0.8681
  716MOL0     H98790   3.847   0.409   9.572  2.0834 -0.3669  0.1153
  716MOL0     H98791   3.725   0.359   9.756  0.7276 -0.5780  1.4770
  716MOL0     H98792   2.011   0.767   9.884 -3.7580  0.8048  0.4764
  716MOL0     H98793   1.826   0.807   9.785 -0.1477 -1.0354  3.0050
  716MOL0     H98794   1.540   0.847   9.728 -0.5642  2.6093 -1.5985
  716MOL0     H98795   1.359   0.994   9.700 -1.2574 -0.4621 -0.1172
  716MOL0     H98796   0.983   0.995   9.827 -0.0084 -1.1940  0.4309
  716MOL0     H98797   1.151   1.048   9.843  0.3408  0.9400 -0.8863
  716MOL0     H98798   0.949   1.116   9.646  1.1451 -0.6812  0.4833
  716MOL0     H98799   1.116   1.137   9.602  0.9306 -0.1089  1.5642
  716MOL0     H98800   1.038   1.354   9.667 -1.7456 -1.2039  0.4092
  716MOL0     H98801   0.959   1.294   9.817  0.7383 -0.4896  1.9414
  716MOL0     H98802   1.160   1.271   9.919 -0.5377 -1.3864 -0.8037
  716MOL0     H98803   1.166   1.434   9.850  0.7546 -1.1259  3.8413
  716MOL0     H98804   1.483   1.214   9.686 -1.6199 -3.5436 -0.3927
  716MOL0     H98805   1.082   0.666   9.709 -1.1356  1.8602  0.6880
  716MOL0     H98806   1.253   0.415   9.829  0.5425 -1.0379 -0.3834
  716MOL0     H98807   1.153   0.440   9.676  0.3971  0.2966 -1.0600
  716MOL0     H98808   1.318   0.390   9.669 -1.3524 -1.3128 -0.6722
  717MOL0     O98809   6.202   6.269   7.945  0.0290  0.1329  1.2072
  717MOL0     C98810   6.152   6.175   7.891  0.4022 -0.8250  1.0453
  717MOL0     O98811   6.208   6.053   7.872  0.2463 -0.3043 -0.3296
  717MOL0     C98812   6.342   6.032   7.902  1.0736 -1.0212  0.9998
  717MOL0     C98813   6.421   5.988   7.805  0.2558  0.8859  0.0565
  717MOL0     C98814   6.552   5.955   7.838  0.0593 -0.6863  0.3648
  717MOL0     C98815   6.608   5.981   7.963  0.0050 -0.0981  0.3328
  717MOL0     O98816   6.739   5.949   8.002  0.0503  0.3345 -0.9750
  717MOL0     C98817   6.838   5.888   7.912  0.0100 -0.0327  0.6670
  717MOL0     C98818   6.970   5.882   7.982 -0.3849 -0.5797 -0.0822
  717MOL0     C98819   6.961   5.796   8.113 -0.0564  0.0575  0.6579
  717MOL0     C98820   7.100   5.781   8.173 -0.6228  0.1653 -1.4693
  717MOL0     C98821   7.088   5.709   8.314  0.0605  0.9046 -0.0487
  717MOL0     C98822   7.200   5.756   8.405  0.3905  0.0636  0.2353
  717MOL0     C98823   7.339   5.725   8.364  0.0412 -0.4592  0.4487
  717MOL0     C98824   7.441   5.788   8.467  0.5101  0.2758 -0.1976
  717MOL0     N98825   7.580   5.754   8.440 -0.2561  0.2647 -0.2963
  717MOL0     C98826   7.678   5.735   8.543  0.4366  0.2593  0.2514
  717MOL0     C98827   7.790   5.696   8.468 -1.2019  0.2955 -0.3513
  717MOL0     C98828   7.934   5.677   8.526  0.6908  0.4372  0.6774
  717MOL0     C98829   8.026   5.794   8.483 -0.0316 -0.0880 -0.0218
  717MOL0     C98830   8.156   5.785   8.568 -0.0693 -0.1774 -0.3796
  717MOL0     C98831   8.267   5.885   8.547  0.3528  0.8012 -0.6596
  717MOL0     O98832   8.296   5.909   8.410  0.2840  0.6712 -0.3300
  717MOL0     C98833   8.432   5.930   8.377 -0.0961  0.8782  0.1011
  717MOL0     C98834   8.527   5.960   8.467 -0.5083 -0.0577  0.0904
  717MOL0     C98835   8.659   5.985   8.438 -0.1588 -0.2269 -0.9469
  717MOL0     C98836   8.746   6.025   8.552  0.0512 -0.2051  0.3506
  717MOL0     C98837   8.703   5.981   8.301  0.2728 -0.0453 -0.6810
  717MOL0     C98838   8.835   6.013   8.250  0.4701  0.7311 -0.4654
  717MOL0     O98839   8.862   6.000   8.116 -0.6205 -0.2908 -0.8953
  717MOL0     C98840   8.993   6.000   8.075  0.3614 -0.3201 -0.7140
  717MOL0     C98841   9.092   5.916   8.129  0.4563 -0.0812 -0.1763
  717MOL0     C98842   9.223   5.921   8.082 -0.2728 -0.4526 -1.1299
  717MOL0     C98843   9.274   6.022   7.998 -0.8377 -0.0937 -0.0751
  717MOL0     O98844   9.408   6.009   7.949  0.2476  0.0613 -0.6100
  717MOL0     C98845   9.447   6.081   7.826 -0.1044  0.5460 -0.3712
  717MOL0     C98846   9.573   6.017   7.762  0.3358 -0.1353 -0.3837
  717MOL0     C98847   9.695   6.026   7.860 -0.4062 -0.3203  1.2558
  717MOL0     C98848   9.829   6.051   7.785  0.0036  0.1634  0.2723
  717MOL0     C98849   9.940   6.063   7.884 -0.0146  0.0534 -0.0526
  717MOL0     C98850  10.068   6.075   7.807 -1.0883 -0.3346  0.4071
  717MOL0     C98851  10.200   6.091   7.886 -0.4670 -0.0629 -0.1848
  717MOL0     C98852  10.332   6.095   7.795  0.2182  0.6934  0.2360
  717MOL0    Cl98853  10.324   6.225   7.673 -0.1226  1.0140 -0.1671
  717MOL0     C98854   9.180   6.108   7.945 -1.2099  0.0439 -0.5094
  717MOL0     C98855   9.041   6.103   7.982  0.4634  1.0360 -0.1253
  717MOL0     O98856   8.920   6.047   8.331  0.4655 -0.3786 -0.2433
  717MOL0     C98857   8.606   5.954   8.206  0.9413 -0.3503 -1.2490
  717MOL0     C98858   8.471   5.930   8.244  0.0261  1.1498  0.8862
  717MOL0     N98859   7.758   5.703   8.328  0.2513  0.1879 -0.0148
  717MOL0     N98860   7.633   5.729   8.326 -0.0775 -0.5600  0.2852
  717MOL0     C98861   6.527   6.038   8.057  0.1968  0.3935  0.7926
  717MOL0     C98862   6.392   6.060   8.034  0.4621 -0.2564  0.4150
  717MOL0     C98863   6.027   6.201   7.811  0.2412 -0.1721 -0.5217
  717MOL0     C98864   6.015   6.148   7.681 -0.0633 -0.2990  0.5444
  717MOL0     C98865   5.896   6.174   7.606  0.1823 -0.6902 -0.2993
  717MOL0     C98866   5.790   6.232   7.674  0.2196 -0.0078  0.3997
  717MOL0     O98867   5.671   6.259   7.610  0.4948  0.7330 -0.0927
  717MOL0     C98868   5.661   6.257   7.462  0.6846  0.3491  0.4483
  717MOL0     C98869   5.556   6.361   7.426 -0.6546 -0.3533 -0.0672
  717MOL0     C98870   5.414   6.292   7.443 -0.8393  0.4931  0.4829
  717MOL0     C98871   5.300   6.391   7.436 -0.2291 -0.5152 -0.1472
  717MOL0     C98872   5.177   6.317   7.480 -1.0149 -0.7845  0.4658
  717MOL0     C98873   5.085   6.248   7.507  0.3414 -1.2991 -0.0774
  717MOL0     C98874   5.799   6.274   7.801 -0.1235  0.5046 -0.7981
  717MOL0     C98875   5.912   6.264   7.875 -0.0083  0.1825 -0.0937
  717MOL0     C98876   5.922   6.324   8.007 -0.1449 -0.6210 -0.3137
  717MOL0     H98877   6.383   5.954   7.709 -0.3460  0.4822  0.4312
  717MOL0     H98878   6.622   5.916   7.765  1.1189 -0.4537  1.2221
  717MOL0     H98879   6.856   5.931   7.813  2.3039 -1.0320  0.6016
  717MOL0     H98880   6.797   5.787   7.901 -0.6124  0.0141  2.3394
  717MOL0     H98881   7.047   5.849   7.911 -0.2890  0.6266 -0.5596
  717MOL0     H98882   6.995   5.983   8.014 -1.6963 -0.3078  0.1519
  717MOL0     H98883   6.895   5.851   8.180 -1.3458 -0.4551 -0.1516
  717MOL0     H98884   6.928   5.695   8.085  2.7298 -0.0527 -3.0188
  717MOL0     H98885   7.175   5.724   8.118 -0.0121  0.6677 -1.1644
  717MOL0     H98886   7.150   5.877   8.189 -0.4226 -0.2640  0.8875
  717MOL0     H98887   7.093   5.601   8.300  1.3544  1.0671 -1.0237
  717MOL0     H98888   6.994   5.739   8.361  0.4130  3.8503 -1.0045
  717MOL0     H98889   7.190   5.865   8.409  0.7648  0.1535 -1.0120
  717MOL0     H98890   7.190   5.718   8.507 -3.0967  3.7288  1.5354
  717MOL0     H98891   7.365   5.780   8.273  3.2317 -0.7605  1.0536
  717MOL0     H98892   7.365   5.620   8.347  2.6042  0.1801 -0.0166
  717MOL0     H98893   7.429   5.896   8.482  0.0644  0.4666 -1.7339
  717MOL0     H98894   7.410   5.744   8.563  0.1983 -1.6687 -1.1344
  717MOL0     H98895   7.660   5.748   8.649 -0.0864 -1.9804  0.4770
  717MOL0     H98896   7.963   5.584   8.477 -1.2620  0.0494  0.1753
  717MOL0     H98897   7.933   5.660   8.634 -2.2040  2.3213  1.0750
  717MOL0     H98898   8.058   5.764   8.383 -1.0069  0.1563 -0.4246
  717MOL0     H98899   7.974   5.891   8.488  0.3344  0.1266 -0.3619
  717MOL0     H98900   8.131   5.799   8.674  0.0692 -2.6614  0.0564
  717MOL0     H98901   8.201   5.688   8.545  1.4405  0.3388  0.3209
  717MOL0     H98902   8.255   5.984   8.593 -0.3452  1.7242 -2.7075
  717MOL0     H98903   8.354   5.851   8.604  0.9083  2.5642 -0.3825
  717MOL0     H98904   8.502   5.982   8.571 -0.6335  0.7090 -0.0934
  717MOL0     H98905   8.830   5.955   8.551  1.6751  1.6589 -0.9949
  717MOL0     H98906   8.688   6.032   8.644  0.2614 -2.5913  0.7379
  717MOL0     H98907   8.795   6.122   8.539  1.0993  0.1104  5.0287
  717MOL0     H98908   9.052   5.845   8.201  2.9608  1.9262  3.5366
  717MOL0     H98909   9.287   5.850   8.133 -0.6522  1.0801  1.6578
  717MOL0     H98910   9.366   6.082   7.752 -0.3223 -0.4398 -0.1605
  717MOL0     H98911   9.470   6.185   7.851 -0.3408  0.2245  1.2943
  717MOL0     H98912   9.557   5.910   7.745  2.5556 -0.7239  0.7489
  717MOL0     H98913   9.603   6.057   7.665 -0.4741 -1.4293 -1.1925
  717MOL0     H98914   9.707   5.933   7.916  1.8953 -0.3200  0.8482
  717MOL0     H98915   9.688   6.116   7.922  1.7990  1.5405 -0.9917
  717MOL0     H98916   9.819   6.146   7.732 -1.6150 -0.6886 -1.0383
  717MOL0     H98917   9.841   5.970   7.712  2.6378  1.4191 -0.8603
  717MOL0     H98918   9.924   6.155   7.941 -2.2101 -0.0466 -0.4087
  717MOL0     H98919   9.942   5.982   7.958  1.7515 -0.1423 -0.2779
  717MOL0     H98920  10.052   6.165   7.747 -1.7225 -1.4369 -1.1467
  717MOL0     H98921  10.090   5.993   7.739 -0.7254  0.5284 -0.5388
  717MOL0     H98922  10.209   6.015   7.965  2.0760  1.0749  0.7145
  717MOL0     H98923  10.192   6.189   7.933  1.3329  0.9671 -1.8727
  717MOL0     H98924  10.344   5.997   7.748 -0.2995  1.5287 -1.7443
  717MOL0     H98925  10.419   6.103   7.861 -0.6852 -0.9819  1.7112
  717MOL0     H98926   9.206   6.185   7.874 -0.0412 -0.0911 -0.2593
  717MOL0     H98927   8.970   6.183   7.964 -0.6492  0.9251  3.0557
  717MOL0     H98928   8.633   5.964   8.101 -2.7824 -0.9430 -2.3915
  717MOL0     H98929   8.395   5.907   8.170 -4.0239  1.6796  4.4381
  717MOL0     H98930   6.581   6.079   8.141  0.3790 -1.5349  1.6706
  717MOL0     H98931   6.324   6.098   8.110 -0.8769 -2.3013  0.3345
  717MOL0     H98932   6.105   6.098   7.646  0.2589  0.4370  0.3086
  717MOL0     H98933   5.887   6.131   7.506  1.7276 -3.9004  0.8088
  717MOL0     H98934   5.743   6.293   7.399  1.2735  2.5271  2.3087
  717MOL0     H98935   5.623   6.158   7.434 -1.6830  1.7092 -1.6207
  717MOL0     H98936   5.577   6.378   7.320  1.6143 -2.3964 -0.0451
  717MOL0     H98937   5.565   6.454   7.483 -0.8488  0.4890 -1.3470
  717MOL0     H98938   5.398   6.222   7.359 -1.6447 -1.6152  2.2952
  717MOL0     H98939   5.411   6.235   7.536  0.1612  2.4405  1.7675
  717MOL0     H98940   5.293   6.435   7.336 -0.7469  2.0056  0.9285
  717MOL0     H98941   5.319   6.474   7.504  1.9360  0.4470 -1.8097
  717MOL0     H98942   5.005   6.176   7.512 -1.1870  0.3558  0.1814
  717MOL0     H98943   5.712   6.320   7.846 -1.4384 -2.7768  0.2872
  717MOL0     H98944   5.978   6.264   8.079  0.9570  0.5063 -0.1882
  717MOL0     H98945   5.991   6.407   7.991 -0.5413 -0.7550 -3.3759
  717MOL0     H98946   5.828   6.365   8.047  0.8904  0.0158  1.5757
  718MOL0     O98947   3.060   2.412   4.234 -0.6448 -0.0355 -0.9928
  718MOL0     C98948   3.030   2.309   4.178 -0.2135  1.3015 -0.7257
  718MOL0     O98949   3.073   2.183   4.216  0.5910  0.2559  0.7093
  718MOL0     C98950   3.149   2.172   4.329  0.6734 -0.0624 -0.0209
  718MOL0     C98951   3.270   2.236   4.354 -1.2779 -0.4599  0.4493
  718MOL0     C98952   3.350   2.222   4.465  0.0982  0.3668  0.8797
  718MOL0     C98953   3.308   2.140   4.569  0.6342 -0.4103 -0.5620
  718MOL0     O98954   3.377   2.149   4.686 -0.0827 -0.4166 -0.5056
  718MOL0     C98955   3.340   2.078   4.810  0.1969 -1.0512  0.8314
  718MOL0     C98956   3.401   1.932   4.811 -0.7658  0.2801 -0.3070
  718MOL0     C98957   3.554   1.932   4.815  0.6797 -0.6508 -0.3068
  718MOL0     C98958   3.599   1.791   4.808  0.2591 -0.3472  0.1954
  718MOL0     C98959   3.739   1.783   4.871  0.0370  0.9964 -0.2499
  718MOL0     C98960   3.815   1.650   4.839  0.4517 -0.0819  0.6160
  718MOL0     C98961   3.937   1.635   4.932  0.3015  0.2095  0.3299
  718MOL0     C98962   3.881   1.567   5.058 -0.0826  0.1920 -0.4828
  718MOL0     N98963   3.945   1.609   5.189 -0.2612  0.5223 -0.6764
  718MOL0     C98964   4.075   1.610   5.221 -0.2080  0.2319  0.1161
  718MOL0     C98965   4.079   1.681   5.338  0.9747  0.6579 -1.0472
  718MOL0     C98966   4.204   1.712   5.422  0.0484 -0.9431  0.6073
  718MOL0     C98967   4.281   1.841   5.378  0.0986 -0.2583  0.2052
  718MOL0     C98968   4.330   1.834   5.237 -0.0287  0.3697 -0.6679
  718MOL0     C98969   4.428   1.944   5.201  0.1025 -0.1749 -0.2604
  718MOL0     O98970   4.474   1.944   5.068 -0.3996 -0.2208  0.4107
  718MOL0     C98971   4.575   2.030   5.033 -0.0549 -0.2998 -0.0265
  718MOL0     C98972   4.626   2.019   4.900 -0.3666 -0.2590  0.6170
  718MOL0     C98973   4.730   2.097   4.855  0.7290 -0.0451  0.2116
  718MOL0     C98974   4.772   2.072   4.712 -0.4872 -0.0732  0.1974
  718MOL0     C98975   4.792   2.188   4.947 -0.1027 -0.4967 -0.5312
  718MOL0     C98976   4.913   2.269   4.913 -0.2798  0.5027  0.1544
  718MOL0     O98977   4.991   2.308   5.027  0.4351  0.4323  0.5949
  718MOL0     C98978   5.109   2.376   4.998 -0.1685 -0.5328 -0.1706
  718MOL0     C98979   5.127   2.512   5.021  0.7095  0.3786 -0.0967
  718MOL0     C98980   5.250   2.578   5.000 -0.9741 -0.4761 -0.1334
  718MOL0     C98981   5.359   2.508   4.956 -0.7378 -0.3731 -0.4711
  718MOL0     O98982   5.475   2.566   4.918 -0.2437  0.1004  0.6083
  718MOL0     C98983   5.521   2.681   4.997 -0.2989  0.1067  1.1451
  718MOL0     C98984   5.661   2.721   4.950 -0.4503 -0.0539 -0.3415
  718MOL0     C98985   5.715   2.840   5.037 -0.3198 -0.1321 -0.0913
  718MOL0     C98986   5.856   2.896   4.989  0.2254  0.2554  0.0645
  718MOL0     C98987   5.858   2.937   4.841 -0.7746 -0.4861 -0.9062
  718MOL0     C98988   5.774   3.058   4.804 -0.2561  0.3680 -0.5896
  718MOL0     C98989   5.768   3.079   4.655 -0.6868  0.1563  0.3972
  718MOL0     C98990   5.695   3.210   4.616 -0.2230 -0.6245  0.6222
  718MOL0    Cl98991   5.777   3.356   4.690 -0.3047  0.5554 -0.2225
  718MOL0     C98992   5.348   2.373   4.938  0.2534 -0.1704 -0.1046
  718MOL0     C98993   5.223   2.309   4.958 -0.3487 -0.5748  0.8617
  718MOL0     O98994   4.934   2.293   4.793 -0.0464  0.3212 -0.6196
  718MOL0     C98995   4.754   2.193   5.081 -0.1061  0.2240  0.9361
  718MOL0     C98996   4.644   2.114   5.122  0.0934 -0.5411 -0.6025
  718MOL0     N98997   3.954   1.717   5.381  1.0239 -0.6906 -0.4877
  718MOL0     N98998   3.872   1.676   5.291 -0.2453  0.7279  0.0389
  718MOL0     C98999   3.189   2.068   4.546 -0.5782  1.0664 -0.2093
  718MOL0     C99000   3.117   2.075   4.424 -0.2674 -0.0580  0.6260
  718MOL0     C99001   2.914   2.306   4.081 -0.1870  0.2928  0.3487
  718MOL0     C99002   2.855   2.180   4.054  0.7346  0.5590  1.2038
  718MOL0     C99003   2.722   2.181   4.005 -0.3705 -0.0237 -0.1276
  718MOL0     C99004   2.676   2.295   3.941  0.3307  0.0237  0.4492
  718MOL0     O99005   2.567   2.308   3.857 -0.0035 -0.5204  0.4878
  718MOL0     C99006   2.472   2.197   3.834  0.6198  0.0781 -0.4322
  718MOL0     C99007   2.340   2.236   3.784  0.5796  0.0979  0.9303
  718MOL0     C99008   2.263   2.330   3.884  0.2976 -0.1778 -0.0281
  718MOL0     C99009   2.126   2.380   3.833  0.5221 -0.1444  0.2118
  718MOL0     C99010   2.040   2.266   3.791  0.1556  0.0618 -0.4691
  718MOL0     C99011   1.977   2.163   3.758 -0.6609 -0.2285 -0.2124
  718MOL0     C99012   2.751   2.412   3.947  0.5105  0.5436 -0.0764
  718MOL0     C99013   2.867   2.417   4.018  0.3961  0.5691  0.0953
  718MOL0     C99014   2.932   2.556   4.037 -0.3703  0.2786  0.5309
  718MOL0     H99015   3.285   2.325   4.294 -1.7953  0.8735  2.1973
  718MOL0     H99016   3.442   2.280   4.472  1.1843 -0.9430 -1.3840
  718MOL0     H99017   3.231   2.083   4.814  0.2503  1.7484  0.8382
  718MOL0     H99018   3.371   2.130   4.901 -0.4818  1.1532 -0.1264
  718MOL0     H99019   3.358   1.877   4.895  0.5019  2.0150  1.5468
  718MOL0     H99020   3.366   1.881   4.721  2.9885 -2.8553 -0.2927
  718MOL0     H99021   3.574   1.987   4.722 -1.4175 -1.9353 -1.5840
  718MOL0     H99022   3.602   1.987   4.897 -2.4570  0.0284  1.2091
  718MOL0     H99023   3.534   1.721   4.861  0.8703 -1.1386 -0.0790
  718MOL0     H99024   3.597   1.754   4.705  1.5607  0.1138 -0.0189
  718MOL0     H99025   3.743   1.799   4.979 -0.8917  1.3138 -0.2515
  718MOL0     H99026   3.805   1.857   4.824  1.4042 -0.6099 -0.9646
  718MOL0     H99027   3.743   1.568   4.837 -0.0877  0.3886  0.3775
  718MOL0     H99028   3.855   1.640   4.738 -0.8996 -0.3161  0.0830
  718MOL0     H99029   3.986   1.731   4.949  1.5877  0.1486 -2.4373
  718MOL0     H99030   4.002   1.569   4.874  0.6345  1.8701 -1.2977
  718MOL0     H99031   3.776   1.597   5.066  1.0745  4.4460  1.7213
  718MOL0     H99032   3.889   1.459   5.040  0.7275  0.2781 -0.6650
  718MOL0     H99033   4.158   1.574   5.162 -1.0222 -0.3754 -0.6779
  718MOL0     H99034   4.272   1.626   5.419 -1.3956 -2.1301 -2.5937
  718MOL0     H99035   4.179   1.724   5.528 -3.5754  1.8403 -0.3802
  718MOL0     H99036   4.212   1.923   5.398 -0.4180 -0.7291  0.4030
  718MOL0     H99037   4.363   1.846   5.451  1.1247 -2.3716 -0.7171
  718MOL0     H99038   4.389   1.742   5.227 -1.4980 -0.8302  1.0378
  718MOL0     H99039   4.248   1.810   5.168 -1.5052 -2.9363  1.9371
  718MOL0     H99040   4.387   2.033   5.250 -1.6071 -0.3190 -1.3320
  718MOL0     H99041   4.507   1.907   5.266 -0.0469 -1.1515 -0.6113
  718MOL0     H99042   4.587   1.943   4.833  0.7623  1.1975 -1.8462
  718MOL0     H99043   4.880   2.054   4.712 -0.1282  1.8556  0.6965
  718MOL0     H99044   4.747   2.149   4.638 -0.8227 -0.4883 -0.1314
  718MOL0     H99045   4.714   1.988   4.673 -1.2868  1.2730 -1.6558
  718MOL0     H99046   5.055   2.587   5.053  1.4751  1.6668 -1.3353
  718MOL0     H99047   5.264   2.683   5.024 -1.4657 -0.9309  2.4812
  718MOL0     H99048   5.466   2.770   4.965  0.5738 -0.7093 -3.2301
  718MOL0     H99049   5.523   2.669   5.106  0.2201  0.5064  1.1859
  718MOL0     H99050   5.723   2.634   4.968 -0.2834  0.1976  0.3118
  718MOL0     H99051   5.658   2.743   4.843  0.1718 -1.8107 -0.7482
  718MOL0     H99052   5.731   2.796   5.136  0.1733 -0.4892 -0.3281
  718MOL0     H99053   5.640   2.920   5.029  1.1716  1.1453 -2.0783
  718MOL0     H99054   5.933   2.824   5.020  0.1062  0.8862  1.9327
  718MOL0     H99055   5.866   2.987   5.048 -3.9274  1.3720 -0.6544
  718MOL0     H99056   5.961   2.963   4.814 -0.7037 -0.1887 -0.3629
  718MOL0     H99057   5.840   2.852   4.775  0.2668 -0.6483 -0.9841
  718MOL0     H99058   5.818   3.147   4.851  2.1933 -0.3405 -1.4012
  718MOL0     H99059   5.674   3.042   4.846  1.0908 -0.3938  2.5670
  718MOL0     H99060   5.716   2.993   4.611 -0.4334 -0.8387  1.9709
  718MOL0     H99061   5.868   3.090   4.612 -1.0482  0.3537 -0.4258
  718MOL0     H99062   5.592   3.203   4.653  0.0790 -2.4752  1.2536
  718MOL0     H99063   5.697   3.212   4.507  1.5257  1.3066  0.6339
  718MOL0     H99064   5.436   2.315   4.910  0.8033 -1.9677  4.5015
  718MOL0     H99065   5.218   2.205   4.928 -1.8259 -1.3242  3.4479
  718MOL0     H99066   4.803   2.257   5.154  0.7154 -1.4251  1.8957
  718MOL0     H99067   4.609   2.113   5.225 -1.6456  0.1087 -1.1546
  718MOL0     H99068   3.146   2.003   4.622  1.8288 -0.2612  0.1315
  718MOL0     H99069   3.034   2.010   4.397 -0.0333 -0.9507  1.9700
  718MOL0     H99070   2.883   2.088   4.105 -1.1855 -0.7253  0.1011
  718MOL0     H99071   2.667   2.088   4.007  0.0925 -0.3025 -0.1012
  718MOL0     H99072   2.507   2.125   3.760 -2.4140 -0.2105 -1.7562
  718MOL0     H99073   2.453   2.148   3.930 -0.8772  1.5058  0.0542
  718MOL0     H99074   2.286   2.146   3.754  1.1673 -0.2364  0.8450
  718MOL0     H99075   2.352   2.291   3.689  0.8099 -2.4579 -0.6179
  718MOL0     H99076   2.260   2.275   3.979  1.2788  0.5270  0.4319
  718MOL0     H99077   2.324   2.418   3.906 -1.5881  0.7009  2.0795
  718MOL0     H99078   2.156   2.443   3.749 -1.6600  0.8499  0.1316
  718MOL0     H99079   2.078   2.442   3.910 -0.7687 -3.2841  2.1268
  718MOL0     H99080   1.918   2.087   3.712  0.7899  0.3329 -3.2466
  718MOL0     H99081   2.709   2.503   3.905  0.4473  1.1482  1.2484
  718MOL0     H99082   2.923   2.600   4.136 -1.9826  1.4531 -0.0857
  718MOL0     H99083   3.039   2.543   4.022 -0.0731 -2.3636  3.7107
  718MOL0     H99084   2.893   2.632   3.969  0.1706 -2.1168 -2.7494
  719MOL0     O99085   7.885   3.387   5.945  0.2732 -0.5971 -0.0389
  719MOL0     C99086   7.995   3.450   5.948  0.2139 -0.6402 -0.1338
  719MOL0     O99087   8.029   3.551   5.861 -0.0828  0.4235 -0.5024
  719MOL0     C99088   7.953   3.560   5.748  0.3779 -0.4925  0.2031
  719MOL0     C99089   7.860   3.665   5.719 -0.7660 -0.6200 -0.3352
  719MOL0     C99090   7.816   3.690   5.590  0.4660  0.6646 -0.0935
  719MOL0     C99091   7.856   3.602   5.484 -0.0123 -0.1226 -0.2555
  719MOL0     O99092   7.817   3.628   5.354  0.3769 -0.2733 -0.3872
  719MOL0     C99093   7.687   3.661   5.329 -0.4892 -0.6878  0.3938
  719MOL0     C99094   7.660   3.793   5.253 -1.5760 -0.2242  0.7174
  719MOL0     C99095   7.704   3.918   5.332 -0.0592  0.1727  0.0513
  719MOL0     C99096   7.720   4.031   5.237  0.3816 -0.4056  0.4275
  719MOL0     C99097   7.748   4.169   5.304 -0.0010 -0.8390 -0.0765
  719MOL0     C99098   7.637   4.208   5.405 -0.4314 -0.6393 -0.4189
  719MOL0     C99099   7.638   4.358   5.444 -0.1283 -0.5340 -0.1090
  719MOL0     C99100   7.784   4.401   5.464  0.1273  0.3689  0.1048
  719MOL0     N99101   7.797   4.530   5.536  0.8395  0.1053  0.4123
  719MOL0     C99102   7.892   4.622   5.501  0.1949  0.5804  0.4475
  719MOL0     C99103   7.905   4.710   5.607 -0.9924  0.4702  0.2595
  719MOL0     C99104   8.018   4.808   5.634  0.0795  0.2216 -0.0651
  719MOL0     C99105   7.955   4.940   5.667  0.4046 -0.2421 -0.3343
  719MOL0     C99106   8.058   5.025   5.733  0.5477 -0.1670  1.0434
  719MOL0     C99107   8.021   5.175   5.765  0.4082 -0.1213 -0.5285
  719MOL0     O99108   7.961   5.251   5.651 -0.5088  0.5496 -0.1911
  719MOL0     C99109   7.906   5.370   5.676  0.0656 -1.2319 -0.7370
  719MOL0     C99110   7.822   5.422   5.588  0.1262  0.6242  1.0248
  719MOL0     C99111   7.767   5.555   5.600 -0.0292  0.2211  0.6200
  719MOL0     C99112   7.695   5.607   5.481  0.1479  0.0959  0.1487
  719MOL0     C99113   7.785   5.626   5.721  0.2796 -0.1496 -0.7749
  719MOL0     C99114   7.705   5.748   5.760 -0.7027 -0.1692 -0.4745
  719MOL0     O99115   7.726   5.792   5.888  0.2760 -0.1916 -0.5077
  719MOL0     C99116   7.659   5.904   5.926 -0.0716  0.3833  0.0629
  719MOL0     C99117   7.527   5.879   5.968 -0.1305 -1.0240  0.1690
  719MOL0     C99118   7.448   5.991   6.003  0.2546  0.5189 -0.2344
  719MOL0     C99119   7.489   6.125   5.998 -0.2670  0.5088 -0.3928
  719MOL0     O99120   7.392   6.225   6.021 -0.0852 -0.3705  0.0139
  719MOL0     C99121   7.439   6.362   6.024 -0.4606 -0.8864  0.1530
  719MOL0     C99122   7.309   6.455   6.032 -0.2822  0.2759  0.1180
  719MOL0     C99123   7.325   6.577   6.123  0.3064 -0.4586  1.1843
  719MOL0     C99124   7.255   6.703   6.066 -0.8047 -0.7767  0.3904
  719MOL0     C99125   7.264   6.826   6.161 -0.4434 -0.1308 -0.3136
  719MOL0     C99126   7.192   6.941   6.101  0.0089 -0.5314 -0.0801
  719MOL0     C99127   7.041   6.915   6.077 -1.0159 -0.1062 -0.8196
  719MOL0     C99128   6.964   7.037   6.047 -0.4950  0.4043 -0.7292
  719MOL0    Cl99129   6.975   7.079   5.860 -0.5168  0.0906 -0.6358
  719MOL0     C99130   7.617   6.140   5.947 -0.4985  0.0081  0.1882
  719MOL0     C99131   7.704   6.032   5.917 -0.1823 -0.7218  0.4651
  719MOL0     O99132   7.627   5.795   5.676 -0.3054 -0.1540 -0.7441
  719MOL0     C99133   7.884   5.578   5.810  0.1748  0.3526 -0.4486
  719MOL0     C99134   7.925   5.447   5.798  0.0609  0.2936  0.2618
  719MOL0     N99135   7.817   4.672   5.699  0.0509  0.3382  0.2680
  719MOL0     N99136   7.750   4.567   5.660 -0.2161  0.0980 -0.1345
  719MOL0     C99137   7.925   3.487   5.511 -1.6638  1.4734  0.0720
  719MOL0     C99138   7.977   3.469   5.647 -0.0980  0.2323 -0.0772
  719MOL0     C99139   8.104   3.407   6.047  0.0805 -0.1888  0.3810
  719MOL0     C99140   8.186   3.507   6.105  0.0429  0.1499  0.2910
  719MOL0     C99141   8.285   3.474   6.196 -0.6832 -0.2769  0.3305
  719MOL0     C99142   8.332   3.346   6.206  0.2284 -0.3367  0.4817
  719MOL0     O99143   8.441   3.324   6.278  0.0696 -0.3721  0.3242
  719MOL0     C99144   8.512   3.199   6.267  0.5606 -0.6251 -0.0306
  719MOL0     C99145   8.662   3.213   6.302 -0.0058  0.3312 -0.1999
  719MOL0     C99146   8.681   3.233   6.454 -0.0410 -0.1837 -0.6823
  719MOL0     C99147   8.636   3.373   6.513 -0.0906 -0.5072 -0.0826
  719MOL0     C99148   8.715   3.477   6.444  0.8522  0.9819  0.3204
  719MOL0     C99149   8.775   3.574   6.417 -0.6889  0.0469  0.3293
  719MOL0     C99150   8.256   3.244   6.148  0.4281  0.5585  0.7418
  719MOL0     C99151   8.146   3.270   6.066  0.5423 -1.1786  0.8054
  719MOL0     C99152   8.067   3.163   5.999  0.1227 -0.7173  0.5171
  719MOL0     H99153   7.835   3.744   5.788  0.3711 -0.8030  0.3025
  719MOL0     H99154   7.757   3.779   5.573  2.0065  1.4844 -1.4668
  719MOL0     H99155   7.610   3.658   5.407 -3.0101  0.2916 -1.9160
  719MOL0     H99156   7.662   3.580   5.261 -0.5305 -1.7660  1.6428
  719MOL0     H99157   7.737   3.778   5.176 -0.7827 -3.8123  2.0525
  719MOL0     H99158   7.558   3.802   5.215 -0.7383 -1.9248 -2.2266
  719MOL0     H99159   7.640   3.946   5.416  1.6668  0.8619  1.2123
  719MOL0     H99160   7.801   3.894   5.378 -0.0151  0.2874  0.0177
  719MOL0     H99161   7.811   4.012   5.178 -0.7169 -1.1930 -1.1049
  719MOL0     H99162   7.640   4.048   5.164  0.2394  1.6330  0.9981
  719MOL0     H99163   7.746   4.241   5.221 -0.9500  1.2270  1.6507
  719MOL0     H99164   7.846   4.157   5.350 -0.7310 -2.3177  1.1779
  719MOL0     H99165   7.543   4.177   5.359 -0.6912  0.8442 -0.9519
  719MOL0     H99166   7.647   4.152   5.498 -1.5018 -0.0988  0.0390
  719MOL0     H99167   7.582   4.366   5.537  3.6514 -1.0009  2.4295
  719MOL0     H99168   7.598   4.411   5.357 -1.6491  1.2577  1.5648
  719MOL0     H99169   7.835   4.324   5.521  0.8730  0.5861 -0.2580
  719MOL0     H99170   7.836   4.403   5.368 -0.6404 -3.0659 -0.5001
  719MOL0     H99171   7.948   4.616   5.408 -2.9362 -3.2267 -1.5152
  719MOL0     H99172   8.076   4.819   5.542 -2.2395 -1.5827 -1.8713
  719MOL0     H99173   8.070   4.772   5.723 -2.5005  1.6549  2.2001
  719MOL0     H99174   7.911   4.989   5.580 -2.6387  0.4066  1.4157
  719MOL0     H99175   7.869   4.937   5.735  0.1134 -0.8708 -0.7207
  719MOL0     H99176   8.091   4.972   5.823 -0.4910 -3.1150 -0.1713
  719MOL0     H99177   8.145   5.028   5.666  0.4492 -0.4879  0.8964
  719MOL0     H99178   7.957   5.158   5.852  3.3846 -1.1499  1.6266
  719MOL0     H99179   8.109   5.233   5.793  1.3464 -1.6125 -0.2423
  719MOL0     H99180   7.804   5.368   5.495 -1.7982 -0.8366  2.1531
  719MOL0     H99181   7.713   5.553   5.388 -0.2405  1.1400 -0.5408
  719MOL0     H99182   7.723   5.710   5.459 -1.0802  0.0382 -1.8794
  719MOL0     H99183   7.586   5.603   5.482  0.1640 -2.2681 -0.8752
  719MOL0     H99184   7.508   5.772   5.969  3.6284 -1.8233  2.1424
  719MOL0     H99185   7.342   5.976   6.018  0.1066  0.9268 -0.8557
  719MOL0     H99186   7.517   6.382   6.098 -2.9593  2.3860  2.1876
  719MOL0     H99187   7.488   6.389   5.930  0.0004  0.4274  0.7499
  719MOL0     H99188   7.281   6.494   5.934 -1.6875  2.6260  1.3607
  719MOL0     H99189   7.223   6.392   6.058  0.5369 -0.6554  0.6273
  719MOL0     H99190   7.432   6.597   6.127  0.5062  0.5822 -3.3115
  719MOL0     H99191   7.292   6.559   6.225 -2.7817 -0.4625  0.3077
  719MOL0     H99192   7.154   6.675   6.033  0.1017 -1.2592 -2.2390
  719MOL0     H99193   7.313   6.710   5.973  1.7388  0.7118  1.9669
  719MOL0     H99194   7.229   6.795   6.260  1.6683 -3.3148 -0.4073
  719MOL0     H99195   7.368   6.857   6.177 -0.9136  2.6523 -2.1053
  719MOL0     H99196   7.246   6.975   6.013 -3.2109  2.0610 -1.2401
  719MOL0     H99197   7.199   7.019   6.177 -1.9965 -2.2875  2.0686
  719MOL0     H99198   6.999   6.865   6.165 -0.2177  0.4406 -0.1152
  719MOL0     H99199   7.015   6.844   5.997 -1.8032 -1.9138  0.9316
  719MOL0     H99200   7.018   7.119   6.095 -0.0888  1.5214 -2.9921
  719MOL0     H99201   6.860   7.026   6.081  0.0211  0.4186  0.9405
  719MOL0     H99202   7.649   6.242   5.931  2.2592 -1.0933 -2.2212
  719MOL0     H99203   7.806   6.057   5.890 -0.8352 -0.1816 -1.6432
  719MOL0     H99204   7.903   5.636   5.900  2.6914  1.0556 -1.3466
  719MOL0     H99205   7.988   5.409   5.879 -0.6738 -0.9173  0.2904
  719MOL0     H99206   7.943   3.421   5.427 -0.4460  2.1897 -0.2422
  719MOL0     H99207   8.038   3.384   5.675 -1.3275 -1.2158 -1.5641
  719MOL0     H99208   8.144   3.606   6.090 -1.9086 -0.3640  1.9601
  719MOL0     H99209   8.353   3.551   6.230  0.4629 -0.9194 -0.4230
  719MOL0     H99210   8.465   3.130   6.338 -0.2181 -0.3205 -0.2385
  719MOL0     H99211   8.499   3.170   6.162 -1.2623  1.3066 -0.3982
  719MOL0     H99212   8.706   3.288   6.235 -1.1060  1.2738  0.1073
  719MOL0     H99213   8.702   3.116   6.269 -2.4866 -0.1352 -2.1367
  719MOL0     H99214   8.625   3.157   6.509 -2.0009 -0.2148 -2.5689
  719MOL0     H99215   8.787   3.229   6.480 -0.3853  2.3284  1.4719
  719MOL0     H99216   8.652   3.376   6.621 -0.0543  1.0700 -0.1120
  719MOL0     H99217   8.527   3.385   6.505 -0.2016 -0.7707  0.9913
  719MOL0     H99218   8.832   3.664   6.405 -1.0646  0.7366  3.1072
  719MOL0     H99219   8.280   3.139   6.164 -0.8750  0.2160  0.5616
  719MOL0     H99220   7.978   3.148   6.061  0.8678  2.5232  2.6832
  719MOL0     H99221   8.052   3.174   5.892 -0.0202  0.4323  0.6383
  719MOL0     H99222   8.129   3.074   6.017  0.4718 -0.8669 -1.2799
  720MOL0     O99223   3.503   8.075   2.600 -0.1392  0.2649 -0.0051
  720MOL0     C99224   3.518   8.145   2.495 -0.7053  0.0207 -0.8679
  720MOL0     O99225   3.636   8.178   2.434  0.2929 -0.0435 -0.1653
  720MOL0     C99226   3.749   8.151   2.511  0.4149  0.8101 -0.3045
  720MOL0     C99227   3.810   8.253   2.578 -1.1142 -0.1635  0.3604
  720MOL0     C99228   3.928   8.226   2.653  0.1986  0.0199  0.5742
  720MOL0     C99229   3.984   8.098   2.662 -0.2667 -0.0877  0.0516
  720MOL0     O99230   4.090   8.081   2.748 -0.6536  0.1175  0.0791
  720MOL0     C99231   4.205   8.008   2.699  0.7201 -0.2630 -0.8508
  720MOL0     C99232   4.216   7.874   2.771  0.8542 -0.1789 -0.7729
  720MOL0     C99233   4.288   7.875   2.905 -0.7863  0.6636  0.0787
  720MOL0     C99234   4.439   7.838   2.887  0.1363  0.0123  0.0108
  720MOL0     C99235   4.524   7.849   3.024  0.1983  0.4359  1.2221
  720MOL0     C99236   4.671   7.800   2.993  0.0079 -0.0560 -0.6005
  720MOL0     C99237   4.752   7.887   2.891  0.2988 -0.9948  0.5395
  720MOL0     C99238   4.787   8.026   2.948 -0.3675  0.6855 -0.1726
  720MOL0     N99239   4.855   8.027   3.077 -0.3352 -0.2622 -0.2057
  720MOL0     C99240   4.991   8.002   3.104  0.3662 -0.3149  0.9273
  720MOL0     C99241   5.006   8.004   3.239 -0.2614 -0.4719  0.6109
  720MOL0     C99242   5.128   8.011   3.331 -0.6596  0.0448 -0.5064
  720MOL0     C99243   5.262   7.939   3.298 -0.1492  0.1018 -0.0479
  720MOL0     C99244   5.358   7.952   3.417  0.2261  0.5405 -0.4970
  720MOL0     C99245   5.489   7.867   3.389 -0.4388  0.1592  0.1219
  720MOL0     O99246   5.456   7.725   3.379 -0.4538  0.3822  0.0207
  720MOL0     C99247   5.555   7.630   3.386  0.1803  0.8485  0.2027
  720MOL0     C99248   5.701   7.647   3.382  0.2461 -0.2643 -0.2553
  720MOL0     C99249   5.799   7.547   3.389  0.0158  0.1138 -0.0820
  720MOL0     C99250   5.948   7.583   3.357 -0.0265  0.2774 -0.0370
  720MOL0     C99251   5.745   7.421   3.416 -0.6491 -1.0475  0.4787
  720MOL0     C99252   5.843   7.310   3.438 -0.6151  0.0873  0.2745
  720MOL0     O99253   5.825   7.191   3.365 -0.0782 -0.3710 -0.1411
  720MOL0     C99254   5.924   7.098   3.372  0.0202 -0.9108 -0.4759
  720MOL0     C99255   6.048   7.131   3.323  0.7462 -1.0014 -0.3842
  720MOL0     C99256   6.150   7.038   3.324  0.2684 -0.8212  0.6225
  720MOL0     C99257   6.135   6.917   3.394  0.3196  0.6880  0.4639
  720MOL0     O99258   6.250   6.836   3.407  0.2783  0.2902 -0.2709
  720MOL0     C99259   6.235   6.712   3.474 -0.2692 -0.4646 -0.3850
  720MOL0     C99260   6.365   6.638   3.488  0.3476 -0.2989  0.0001
  720MOL0     C99261   6.451   6.708   3.601 -0.3367 -0.4809  0.1317
  720MOL0     C99262   6.589   6.630   3.601 -0.0512  0.2491  0.1125
  720MOL0     C99263   6.703   6.702   3.674  0.3310  0.2179  0.6587
  720MOL0     C99264   6.670   6.772   3.807 -0.1069  0.2944  0.6023
  720MOL0     C99265   6.799   6.787   3.891 -0.3482 -0.1631  0.1579
  720MOL0     C99266   6.899   6.892   3.821  0.6777  0.9942 -0.6577
  720MOL0    Cl99267   7.053   6.877   3.906  0.0863 -0.4896  0.1364
  720MOL0     C99268   6.007   6.881   3.444  0.6356 -0.2567  0.9760
  720MOL0     C99269   5.902   6.973   3.431  1.1652  0.5344 -0.0919
  720MOL0     O99270   5.933   7.331   3.522 -0.3353 -0.7587 -0.2983
  720MOL0     C99271   5.606   7.399   3.410  0.2821  0.3415  0.2963
  720MOL0     C99272   5.507   7.497   3.397  0.6099  0.1568 -0.0623
  720MOL0     N99273   4.882   8.034   3.291 -0.0793  0.5320  0.0663
  720MOL0     N99274   4.800   8.058   3.199 -0.0567  0.3742  0.4569
  720MOL0     C99275   3.918   7.991   2.599  0.6351 -0.0271  0.6447
  720MOL0     C99276   3.802   8.015   2.516  0.1417 -0.3372 -0.5402
  720MOL0     C99277   3.404   8.198   2.424  0.6064  0.3811 -0.2123
  720MOL0     C99278   3.399   8.178   2.284 -0.3375  0.8623 -0.0731
  720MOL0     C99279   3.289   8.209   2.208 -0.1792  0.7175  0.0231
  720MOL0     C99280   3.183   8.271   2.267 -0.6676  0.0626  0.5294
  720MOL0     O99281   3.079   8.328   2.194 -1.0529  0.1795 -0.6191
  720MOL0     C99282   3.078   8.301   2.054 -0.8134  0.6460  0.3101
  720MOL0     C99283   2.983   8.183   2.032  0.3937  0.5329 -0.3769
  720MOL0     C99284   2.987   8.149   1.887 -0.5795 -0.5774  0.5584
  720MOL0     C99285   2.875   8.065   1.836 -0.0893 -0.6390 -0.0207
  720MOL0     C99286   2.861   7.938   1.908 -0.1075 -0.2728  0.1398
  720MOL0     C99287   2.860   7.841   1.971  0.5726  0.2405 -0.9419
  720MOL0     C99288   3.182   8.295   2.404  0.4013 -0.0474 -0.1203
  720MOL0     C99289   3.292   8.263   2.485 -0.0514  0.1070  0.6829
  720MOL0     C99290   3.269   8.303   2.626  0.5324  0.8060 -0.5394
  720MOL0     H99291   3.763   8.351   2.568 -2.4490 -0.9603 -2.0847
  720MOL0     H99292   3.979   8.306   2.705 -1.7204  1.7029 -0.0297
  720MOL0     H99293   4.301   8.051   2.729  1.4604 -1.5063 -1.3696
  720MOL0     H99294   4.206   7.993   2.591  0.2697  0.5900 -0.9885
  720MOL0     H99295   4.112   7.844   2.789  0.2437  1.3375 -1.6032
  720MOL0     H99296   4.262   7.800   2.704  1.6005 -0.5314  0.1158
  720MOL0     H99297   4.272   7.964   2.966 -0.8590  1.5498 -1.1946
  720MOL0     H99298   4.237   7.799   2.964 -1.1586  0.3555 -0.6219
  720MOL0     H99299   4.451   7.735   2.850 -1.9856 -0.2606 -0.0354
  720MOL0     H99300   4.482   7.905   2.813 -1.2406  1.1919  0.2396
  720MOL0     H99301   4.472   7.784   3.095 -1.4360 -0.3390 -0.5731
  720MOL0     H99302   4.514   7.953   3.054 -2.0339  0.3071  1.1359
  720MOL0     H99303   4.731   7.810   3.084 -0.8080 -1.9580  0.2014
  720MOL0     H99304   4.670   7.695   2.964 -2.0783 -0.0406 -0.7775
  720MOL0     H99305   4.703   7.888   2.793  3.9027  0.2962 -1.4444
  720MOL0     H99306   4.849   7.839   2.874  0.9909  1.0082 -1.8764
  720MOL0     H99307   4.846   8.074   2.870 -2.0596  1.9468 -0.7636
  720MOL0     H99308   4.687   8.070   2.958 -0.2253  0.7983  0.9083
  720MOL0     H99309   5.059   7.962   3.029  0.7495 -2.8471  2.4886
  720MOL0     H99310   5.099   7.983   3.432 -0.1981 -0.4729 -0.5108
  720MOL0     H99311   5.163   8.113   3.347  0.5921 -0.3666 -0.5063
  720MOL0     H99312   5.247   7.833   3.274  2.1423 -0.2225 -0.3393
  720MOL0     H99313   5.319   7.981   3.214  1.0054 -0.0840  0.6132
  720MOL0     H99314   5.379   8.056   3.443  1.9535  0.0955 -0.0292
  720MOL0     H99315   5.307   7.910   3.504 -0.7369  0.7785 -0.9237
  720MOL0     H99316   5.527   7.901   3.292 -1.7500  4.2968  0.8708
  720MOL0     H99317   5.567   7.895   3.460 -3.7461  1.7479  3.4687
  720MOL0     H99318   5.730   7.751   3.366  0.4513 -0.0447  1.3347
  720MOL0     H99319   6.002   7.497   3.316  1.4459  1.1257  0.0632
  720MOL0     H99320   6.009   7.626   3.437  1.2873 -3.4581  1.1787
  720MOL0     H99321   5.952   7.657   3.276 -0.6968  0.5308  0.1537
  720MOL0     H99322   6.061   7.228   3.277 -0.2288 -0.1682  1.0253
  720MOL0     H99323   6.246   7.054   3.277 -0.5679  0.8357 -0.6531
  720MOL0     H99324   6.178   6.718   3.567 -0.3586  1.5473 -0.5287
  720MOL0     H99325   6.169   6.647   3.417  1.0584 -1.5207 -0.7735
  720MOL0     H99326   6.339   6.536   3.520 -0.5614  0.7574  3.0189
  720MOL0     H99327   6.410   6.642   3.389 -1.6028 -1.1559 -0.9710
  720MOL0     H99328   6.402   6.704   3.699 -1.3710 -0.4662 -0.3675
  720MOL0     H99329   6.459   6.811   3.567  0.3515 -0.2505  0.9685
  720MOL0     H99330   6.618   6.602   3.500 -1.3268 -0.0817 -0.1674
  720MOL0     H99331   6.575   6.530   3.645 -1.7060  0.0071 -0.8864
  720MOL0     H99332   6.775   6.620   3.686 -1.3204 -1.2980  0.5116
  720MOL0     H99333   6.748   6.770   3.601  0.3677  0.9774  1.3618
  720MOL0     H99334   6.589   6.728   3.866 -1.3076  0.4431 -0.8788
  720MOL0     H99335   6.635   6.872   3.782 -0.4412 -0.1206 -0.6900
  720MOL0     H99336   6.850   6.691   3.899 -1.2071 -0.5383  1.5466
  720MOL0     H99337   6.769   6.819   3.991  0.6801 -0.5961  0.6244
  720MOL0     H99338   6.856   6.991   3.834  3.7533  2.1720  2.1269
  720MOL0     H99339   6.910   6.862   3.717 -2.7180 -0.5862 -0.7021
  720MOL0     H99340   5.997   6.786   3.495 -1.2069 -2.5555 -3.1426
  720MOL0     H99341   5.802   6.955   3.468  0.1985 -1.1506 -3.1464
  720MOL0     H99342   5.587   7.294   3.433 -2.7357  0.5783 -0.6970
  720MOL0     H99343   5.403   7.467   3.408  0.8897 -0.6877  0.4105
  720MOL0     H99344   3.941   7.886   2.612  1.9965  0.0236 -1.0261
  720MOL0     H99345   3.751   7.932   2.468  2.1115 -3.4913  2.3542
  720MOL0     H99346   3.487   8.139   2.233  1.0095  1.3674  1.7617
  720MOL0     H99347   3.288   8.181   2.103 -0.1769  0.3621  0.1148
  720MOL0     H99348   3.033   8.394   2.019 -0.4384  2.4306  4.0205
  720MOL0     H99349   3.171   8.285   2.000  0.3246 -1.9145  2.7752
  720MOL0     H99350   2.884   8.214   2.066  0.1550 -0.3289 -0.2676
  720MOL0     H99351   2.997   8.085   2.078 -0.7295 -0.6804 -2.4424
  720MOL0     H99352   3.004   8.235   1.820  1.6218 -0.7296  0.8250
  720MOL0     H99353   3.075   8.091   1.857 -2.4597 -3.3751  0.0649
  720MOL0     H99354   2.882   8.044   1.729  1.3006 -0.9289  0.1068
  720MOL0     H99355   2.783   8.121   1.851  0.1255 -0.3698  0.3035
  720MOL0     H99356   2.866   7.762   2.043 -0.2803  1.4993  0.5715
  720MOL0     H99357   3.094   8.345   2.441  0.4865  1.0119 -1.3070
  720MOL0     H99358   3.249   8.212   2.682  0.3804  0.4019 -1.2425
  720MOL0     H99359   3.356   8.347   2.677  1.4229 -1.8462  0.4233
  720MOL0     H99360   3.184   8.369   2.643 -1.5073 -1.8531  0.2636
  721MOL0     O99361   0.050   5.290  10.100 -0.3824  0.8485 -0.5016
  721MOL0     C99362  -0.052   5.227  10.111  0.1465 -0.7299 -0.2641
  721MOL0     O99363  -0.092   5.140  10.213  0.4390 -0.0280 -0.3859
  721MOL0     C99364   0.003   5.121  10.310  0.5884  0.5967  0.2419
  721MOL0     C99365  -0.026   5.133  10.445  1.4338  0.0462  0.9088
  721MOL0     C99366   0.067   5.097  10.547  0.1322  0.9480 -0.0309
  721MOL0     C99367   0.190   5.035  10.506  1.1412 -0.5857  0.7393
  721MOL0     O99368   0.288   4.974  10.587  0.2176 -0.2673 -0.1703
  721MOL0     C99369   0.265   4.963  10.728 -0.3329 -0.1385  0.3523
  721MOL0     C99370   0.399   4.904  10.789 -0.1334  0.5944 -0.0376
  721MOL0     C99371   0.524   4.998  10.802  0.6110 -0.4191  0.5667
  721MOL0     C99372   0.628   4.923  10.888  0.6042  0.6839 -0.6408
  721MOL0     C99373   0.764   4.981  10.865 -0.1948  0.0203 -0.5083
  721MOL0     C99374   0.865   4.920  10.967 -0.6011 -0.2509 -0.1384
  721MOL0     C99375   1.004   4.977  10.954  0.3019  0.7982 -0.5243
  721MOL0     C99376   1.108   4.883  11.013 -0.1120 -0.1467  0.6378
  721MOL0     N99377   1.231   4.963  11.036  0.1863 -0.9165  0.5998
  721MOL0     C99378   1.287   5.013  11.156  0.1320 -0.1691 -0.4122
  721MOL0     C99379   1.411   5.054  11.122  0.0809  0.1976  0.3819
  721MOL0     C99380   1.500   5.137  11.211  0.3548 -0.8436  0.4089
  721MOL0     C99381   1.634   5.073  11.258  0.0409  0.4675  0.7680
  721MOL0     C99382   1.710   5.161  11.357 -0.8395  0.2273 -1.4060
  721MOL0     C99383   1.835   5.084  11.415  0.0518  0.3458  0.6500
  721MOL0     O99384   1.918   5.192  11.461 -0.2501 -0.2990  0.0031
  721MOL0     C99385   2.017   5.246  11.384 -0.4064 -0.5457 -0.5527
  721MOL0     C99386   2.030   5.219  11.250 -0.1389 -0.3770  1.2568
  721MOL0     C99387   2.126   5.270  11.159  0.3350 -0.6915  0.0247
  721MOL0     C99388   2.119   5.251  11.020 -0.0088 -0.3266  1.7023
  721MOL0     C99389   2.227   5.353  11.220 -0.4213 -0.1562 -0.3501
  721MOL0     C99390   2.341   5.420  11.145  0.4385  0.2060 -0.2577
  721MOL0     O99391   2.397   5.525  11.205 -0.6016 -0.1369  0.2855
  721MOL0     C99392   2.506   5.586  11.141  0.4571 -0.3085  0.2145
  721MOL0     C99393   2.487   5.668  11.029 -0.2026  0.2409  0.6567
  721MOL0     C99394   2.591   5.741  10.965 -1.0047  0.3664  0.8285
  721MOL0     C99395   2.726   5.721  11.013  0.5339 -0.2895 -0.0682
  721MOL0     O99396   2.832   5.786  10.954 -0.2808  0.3097  0.5100
  721MOL0     C99397   2.850   5.784  10.809 -0.5697  0.4154  0.4070
  721MOL0     C99398   2.984   5.847  10.761 -0.1459  0.2044 -0.2059
  721MOL0     C99399   3.001   6.003  10.758 -0.5877 -0.2755  0.3232
  721MOL0     C99400   3.146   6.057  10.734 -0.8679  0.6160  0.1425
  721MOL0     C99401   3.202   6.021  10.595 -0.4062 -0.6048 -0.0940
  721MOL0     C99402   3.307   6.129  10.558 -0.3611  0.8875  1.0255
  721MOL0     C99403   3.371   6.102  10.414  0.3923  0.6867  0.0419
  721MOL0     C99404   3.450   6.227  10.364  0.1692 -0.1605  0.5500
  721MOL0    Cl99405   3.578   6.269  10.472  0.2134 -0.2300 -0.0779
  721MOL0     C99406   2.746   5.637  11.126  0.1358 -0.3045 -0.5662
  721MOL0     C99407   2.634   5.571  11.182  0.2678  1.3201 -0.8221
  721MOL0     O99408   2.369   5.376  11.033 -0.1346  0.1602 -0.6486
  721MOL0     C99409   2.207   5.388  11.351 -0.3144 -0.1412 -0.6712
  721MOL0     C99410   2.109   5.338  11.436  0.3661  0.6431 -0.1902
  721MOL0     N99411   1.434   5.012  10.994  0.2092  0.4917 -0.2203
  721MOL0     N99412   1.327   4.976  10.942 -0.0192  0.6857  0.5387
  721MOL0     C99413   0.212   5.010  10.374  0.0434 -0.5638  0.1623
  721MOL0     C99414   0.124   5.053  10.275 -0.0234  0.0490 -0.7749
  721MOL0     C99415  -0.152   5.229  10.002 -0.0573  0.6237 -0.1234
  721MOL0     C99416  -0.202   5.104   9.954 -0.5511  0.0146  1.5750
  721MOL0     C99417  -0.300   5.099   9.852  0.5507  0.1210 -0.0927
  721MOL0     C99418  -0.352   5.214   9.804 -0.7413 -0.3126  0.0023
  721MOL0     O99419  -0.447   5.208   9.716 -0.1135 -0.0598 -0.0688
  721MOL0     C99420  -0.411   5.215   9.580  0.6159 -0.2413  0.0451
  721MOL0     C99421  -0.527   5.292   9.494 -0.5697  0.1386 -0.1533
  721MOL0     C99422  -0.471   5.306   9.353  0.6127 -0.4997  0.3369
  721MOL0     C99423  -0.577   5.257   9.259  0.2437  0.3214 -1.1502
  721MOL0     C99424  -0.571   5.111   9.248  0.2141  0.1715  0.2181
  721MOL0     C99425  -0.579   4.991   9.236  0.5351  0.2817 -0.4403
  721MOL0     C99426  -0.313   5.340   9.855 -0.9276  0.5653 -0.1405
  721MOL0     C99427  -0.213   5.349   9.951  0.6750  1.6202 -0.3208
  721MOL0     C99428  -0.175   5.483   9.991  0.1984  0.7291 -0.2160
  721MOL0     H99429  -0.124   5.178  10.462  1.2506 -0.1141  0.3120
  721MOL0     H99430   0.033   5.100  10.650 -1.2681  2.4541 -0.4929
  721MOL0     H99431   0.192   4.885  10.753 -0.0678 -1.5588 -2.7861
  721MOL0     H99432   0.239   5.059  10.773 -1.0913 -1.3417  2.6093
  721MOL0     H99433   0.381   4.867  10.890  1.7601 -0.9313 -0.2050
  721MOL0     H99434   0.432   4.814  10.736 -2.5351 -1.1326  1.2280
  721MOL0     H99435   0.564   5.011  10.701 -0.0111 -4.2313 -0.3278
  721MOL0     H99436   0.509   5.093  10.853  0.2241 -0.2687  0.1830
  721MOL0     H99437   0.613   4.939  10.995  0.9252 -2.7000  0.0137
  721MOL0     H99438   0.617   4.815  10.878 -0.2380  0.0221  4.6547
  721MOL0     H99439   0.766   5.084  10.900  1.0376 -0.8037  2.1585
  721MOL0     H99440   0.806   4.969  10.765  2.2197  0.9034  0.3378
  721MOL0     H99441   0.828   4.947  11.066 -1.7205 -2.2184  0.0307
  721MOL0     H99442   0.873   4.810  10.969  2.1602 -0.1467  2.9451
  721MOL0     H99443   1.010   5.067  11.016  3.8624 -0.5311  1.3371
  721MOL0     H99444   1.032   4.994  10.850 -0.3559 -1.6769 -1.1584
  721MOL0     H99445   1.069   4.835  11.103 -0.4312 -1.9129 -0.3796
  721MOL0     H99446   1.123   4.797  10.947 -1.7360  0.2058 -0.2397
  721MOL0     H99447   1.240   5.016  11.254 -0.5119 -1.7371 -0.6350
  721MOL0     H99448   1.458   5.178  11.304  0.8129  1.1388 -0.2182
  721MOL0     H99449   1.516   5.232  11.161  0.1768  0.8270  3.2813
  721MOL0     H99450   1.615   4.973  11.299 -1.7747  1.2011  1.8224
  721MOL0     H99451   1.706   5.059  11.176 -1.0689  1.3508 -0.3900
  721MOL0     H99452   1.744   5.253  11.309  0.4022  1.3321  1.3695
  721MOL0     H99453   1.647   5.182  11.444 -0.7366 -4.0573 -0.0781
  721MOL0     H99454   1.805   5.015  11.494  0.3008 -0.3415  0.1511
  721MOL0     H99455   1.882   5.024  11.336  0.1377 -4.3696  3.8871
  721MOL0     H99456   1.944   5.165  11.209 -2.1986  2.5554  1.4210
  721MOL0     H99457   2.206   5.198  10.980 -0.1813 -0.4257  1.4608
  721MOL0     H99458   2.098   5.343  10.964  3.0271 -0.5311 -0.0154
  721MOL0     H99459   2.037   5.181  11.008  1.4023 -1.6271 -1.0584
  721MOL0     H99460   2.382   5.683  11.004 -0.0245  3.3783  1.4818
  721MOL0     H99461   2.574   5.814  10.886 -1.9948  1.2072  1.7846
  721MOL0     H99462   2.837   5.686  10.763  1.3926  0.2830  0.0493
  721MOL0     H99463   2.774   5.847  10.761  0.9338  0.9065 -1.4614
  721MOL0     H99464   3.068   5.805  10.816 -0.6764 -2.3566 -1.1982
  721MOL0     H99465   3.005   5.814  10.659  1.9568  1.4718 -0.2328
  721MOL0     H99466   2.960   6.045  10.850  2.1672 -2.7900  2.9008
  721MOL0     H99467   2.933   6.033  10.677 -0.3437 -0.8655 -0.1089
  721MOL0     H99468   3.218   6.007  10.800 -0.0078 -0.0804 -1.2555
  721MOL0     H99469   3.145   6.166  10.743 -1.6545  0.5250  1.2693
  721MOL0     H99470   3.242   5.919  10.590 -0.6869 -0.7335  0.2466
  721MOL0     H99471   3.123   6.032  10.521  2.8118 -1.4480 -3.9764
  721MOL0     H99472   3.389   6.134  10.630  1.3795 -0.4857 -0.7618
  721MOL0     H99473   3.249   6.221  10.543 -3.8122 -1.1391  0.9214
  721MOL0     H99474   3.296   6.076  10.339 -0.4276 -1.0315  1.3857
  721MOL0     H99475   3.440   6.017  10.416 -0.6102 -0.1265  1.5585
  721MOL0     H99476   3.384   6.313  10.347 -0.6541 -0.4330  2.2331
  721MOL0     H99477   3.499   6.212  10.267  0.3330 -1.7313  0.8622
  721MOL0     H99478   2.842   5.639  11.178 -1.1342  0.0663  1.9433
  721MOL0     H99479   2.645   5.511  11.271 -5.5339  2.9616  1.4481
  721MOL0     H99480   2.272   5.460  11.399 -2.8628  1.3346  0.7738
  721MOL0     H99481   2.092   5.374  11.537 -1.3583 -1.0631  0.1769
  721MOL0     H99482   0.293   4.939  10.365 -1.1276 -2.0051  0.5299
  721MOL0     H99483   0.158   5.023  10.177  2.4404  1.3170 -0.3569
  721MOL0     H99484  -0.160   5.009   9.985 -0.4439 -0.8897 -1.0310
  721MOL0     H99485  -0.312   5.008   9.794 -1.5666  0.7583 -0.7342
  721MOL0     H99486  -0.316   5.268   9.568 -0.7035  1.4819 -6.0144
  721MOL0     H99487  -0.408   5.114   9.539 -0.2812  0.2208 -1.2007
  721MOL0     H99488  -0.538   5.395   9.529  1.6506  0.9126 -1.5107
  721MOL0     H99489  -0.626   5.246   9.502  0.0100 -1.2686 -0.7044
  721MOL0     H99490  -0.445   5.411   9.337  1.5497 -0.9786 -1.5116
  721MOL0     H99491  -0.385   5.239   9.342 -1.8364 -4.3273  2.0553
  721MOL0     H99492  -0.567   5.305   9.161 -1.0265  3.4347  0.1250
  721MOL0     H99493  -0.680   5.272   9.291  0.6962 -1.6729  1.5248
  721MOL0     H99494  -0.581   4.888   9.205 -4.5869 -0.1866  0.6473
  721MOL0     H99495  -0.361   5.431   9.822 -2.3612  0.8227  2.4216
  721MOL0     H99496  -0.202   5.566   9.925  2.9963  1.3025 -0.7659
  721MOL0     H99497  -0.199   5.501  10.096  1.3609 -0.2101  0.2331
  721MOL0     H99498  -0.066   5.474   9.980 -0.0993 -2.5096 -1.5432
  722MOL0     O99499   0.833   9.469   1.616 -0.1286 -0.3692  0.1198
  722MOL0     C99500   0.749   9.441   1.694  0.8516  0.6872 -0.7638
  722MOL0     O99501   0.772   9.405   1.826  0.3485  0.7764 -0.3824
  722MOL0     C99502   0.891   9.379   1.892  0.0656 -0.6346  0.3164
  722MOL0     C99503   0.892   9.298   2.008 -0.1548  0.6149 -0.4437
  722MOL0     C99504   1.008   9.289   2.085 -1.2446 -0.0116 -0.4139
  722MOL0     C99505   1.133   9.339   2.036  0.0204 -0.1123  0.3028
  722MOL0     O99506   1.244   9.318   2.122 -0.2221 -0.2716 -0.3340
  722MOL0     C99507   1.365   9.382   2.089  0.1262 -0.7905 -0.5067
  722MOL0     C99508   1.456   9.363   2.210  0.5940  0.6805 -1.0454
  722MOL0     C99509   1.606   9.390   2.189  0.4361 -0.7428 -0.0464
  722MOL0     C99510   1.687   9.398   2.317 -0.3558  0.7209 -0.3667
  722MOL0     C99511   1.840   9.413   2.300 -0.4716 -0.2010  0.2787
  722MOL0     C99512   1.912   9.382   2.439 -0.3052  0.1729  0.4840
  722MOL0     C99513   1.880   9.468   2.551 -0.2071 -0.5156 -0.8163
  722MOL0     C99514   1.910   9.616   2.528 -0.7451 -0.0628  0.5820
  722MOL0     N99515   2.048   9.669   2.512  0.5122 -0.2635 -0.1169
  722MOL0     C99516   2.122   9.650   2.400  0.8630  0.0338 -0.5129
  722MOL0     C99517   2.231   9.725   2.425  0.0119 -0.9755 -1.3533
  722MOL0     C99518   2.327   9.750   2.308 -0.1409 -0.1399 -0.4073
  722MOL0     C99519   2.438   9.646   2.289 -0.3893  0.2175  0.1701
  722MOL0     C99520   2.397   9.503   2.258  0.1050 -0.4860  0.7994
  722MOL0     C99521   2.358   9.463   2.110 -0.9499  0.2710 -0.5216
  722MOL0     O99522   2.229   9.513   2.077  0.0388 -0.2597  0.6817
  722MOL0     C99523   2.128   9.434   2.035 -1.0472  0.3589 -0.0434
  722MOL0     C99524   2.128   9.293   2.051 -0.2013  0.1589 -0.7043
  722MOL0     C99525   2.027   9.215   1.994  0.1511 -0.4326 -0.3146
  722MOL0     C99526   2.044   9.067   2.019 -0.6686 -0.2060 -0.1024
  722MOL0     C99527   1.924   9.277   1.923  1.0494 -1.0291 -0.3836
  722MOL0     C99528   1.808   9.206   1.867  0.4875 -0.1978  1.0320
  722MOL0     O99529   1.703   9.279   1.828  0.0798  0.1021  0.3681
  722MOL0     C99530   1.580   9.225   1.801  0.1441 -0.1326 -0.2368
  722MOL0     C99531   1.498   9.310   1.728  0.7878 -0.0090  0.0521
  722MOL0     C99532   1.366   9.275   1.691 -0.0383 -0.1539  0.1991
  722MOL0     C99533   1.316   9.148   1.730  0.1181 -0.8738 -0.0832
  722MOL0     O99534   1.188   9.107   1.710 -0.4418 -0.2403  0.0106
  722MOL0     C99535   1.123   9.164   1.594 -0.7819 -0.7279 -0.0739
  722MOL0     C99536   0.999   9.090   1.557  0.4143 -0.3807  0.0478
  722MOL0     C99537   0.945   9.138   1.428 -0.0838 -0.0605  0.0957
  722MOL0     C99538   0.793   9.119   1.413 -0.2143  0.4299  0.4411
  722MOL0     C99539   0.738   9.168   1.277 -1.4979 -0.1529  0.2507
  722MOL0     C99540   0.593   9.137   1.264 -0.2272  0.2099  0.3136
  722MOL0     C99541   0.529   9.202   1.134 -0.1958 -0.4323  0.7280
  722MOL0     C99542   0.632   9.184   1.014  0.5333  0.5923 -0.3671
  722MOL0    Cl99543   0.546   9.227   0.857  0.2268  0.2615 -0.3329
  722MOL0     C99544   1.399   9.055   1.797 -0.0589  0.3602 -1.2494
  722MOL0     C99545   1.526   9.100   1.841 -0.3481 -0.2510  0.0792
  722MOL0     O99546   1.816   9.081   1.855 -0.1964 -0.8938 -0.3463
  722MOL0     C99547   1.928   9.416   1.908 -0.2655 -0.1893  0.4876
  722MOL0     C99548   2.025   9.499   1.965 -0.3773  0.2404  0.0004
  722MOL0     N99549   2.225   9.791   2.547 -0.4774  0.1086 -0.0853
  722MOL0     N99550   2.111   9.755   2.599  0.0156  0.1603  0.7267
  722MOL0     C99551   1.136   9.422   1.921 -0.2653  0.8485  0.1841
  722MOL0     C99552   1.013   9.437   1.849  0.1232 -0.5019 -0.9710
  722MOL0     C99553   0.606   9.470   1.659 -0.5528 -0.0175 -0.5906
  722MOL0     C99554   0.572   9.458   1.523  0.5575  0.1147 -0.0686
  722MOL0     C99555   0.442   9.466   1.480  0.6774  0.0017 -0.0932
  722MOL0     C99556   0.336   9.484   1.573 -0.4109 -0.1876 -0.5160
  722MOL0     O99557   0.205   9.476   1.527 -0.3894 -0.4114 -0.5005
  722MOL0     C99558   0.174   9.344   1.486 -0.4208 -0.3543 -0.8999
  722MOL0     C99559   0.088   9.287   1.600 -0.0270  0.4834  0.6652
  722MOL0     C99560  -0.037   9.386   1.620 -0.2327 -0.0825  0.3601
  722MOL0     C99561  -0.135   9.302   1.700 -0.3128 -0.0224 -0.1412
  722MOL0     C99562  -0.255   9.372   1.751 -0.1338 -0.5745  0.0788
  722MOL0     C99563  -0.358   9.416   1.800 -0.5626 -0.7179 -0.4196
  722MOL0     C99564   0.370   9.511   1.704  0.5243 -0.1267  0.7574
  722MOL0     C99565   0.506   9.511   1.749  0.4622 -0.0911  0.5672
  722MOL0     C99566   0.517   9.537   1.897 -0.5038  0.2019  0.9547
  722MOL0     H99567   0.809   9.238   2.043 -1.1909  1.2262 -1.7657
  722MOL0     H99568   1.023   9.216   2.163  0.3215  0.9120  0.1965
  722MOL0     H99569   1.354   9.486   2.056 -0.2284 -1.2249 -1.8236
  722MOL0     H99570   1.408   9.326   2.005 -1.3970 -1.5841 -0.7955
  722MOL0     H99571   1.410   9.421   2.291 -1.4418 -1.9474 -0.1718
  722MOL0     H99572   1.457   9.262   2.251  1.9551  0.7693 -0.8129
  722MOL0     H99573   1.648   9.310   2.127  0.9970 -2.5919  2.5624
  722MOL0     H99574   1.615   9.485   2.136  0.2325 -0.0509  1.1331
  722MOL0     H99575   1.657   9.478   2.385 -2.2603 -1.6607  1.7592
  722MOL0     H99576   1.683   9.304   2.372  1.0609  2.4882  3.1013
  722MOL0     H99577   1.873   9.507   2.254  1.7052 -1.7207 -1.5050
  722MOL0     H99578   1.878   9.330   2.239 -0.0501 -2.3089  3.1838
  722MOL0     H99579   1.883   9.279   2.459 -3.1840  0.9424  0.7364
  722MOL0     H99580   2.020   9.376   2.419 -0.8976  0.1240 -3.3933
  722MOL0     H99581   1.928   9.428   2.641  1.9587 -0.5826 -1.9484
  722MOL0     H99582   1.772   9.454   2.567 -0.2710  1.4421  0.8201
  722MOL0     H99583   1.846   9.645   2.445  1.7259  1.5853 -0.9154
  722MOL0     H99584   1.867   9.674   2.610  0.6873  1.5736  0.2417
  722MOL0     H99585   2.101   9.599   2.307  0.4095 -0.8768  0.0838
  722MOL0     H99586   2.370   9.848   2.330 -1.4941  0.7978 -1.7552
  722MOL0     H99587   2.266   9.758   2.217 -1.4503  0.8676  0.5141
  722MOL0     H99588   2.504   9.680   2.209 -0.0570 -0.0331  0.3353
  722MOL0     H99589   2.501   9.641   2.379 -1.4831 -0.7531  0.9037
  722MOL0     H99590   2.482   9.435   2.271 -0.3557 -1.0569  0.8604
  722MOL0     H99591   2.322   9.460   2.325  0.0176 -1.3461  0.1790
  722MOL0     H99592   2.421   9.495   2.027  0.1341  1.0181  0.5607
  722MOL0     H99593   2.375   9.355   2.112 -2.9445 -0.0802 -0.3136
  722MOL0     H99594   2.200   9.236   2.108 -1.6447  1.8906  3.2393
  722MOL0     H99595   2.124   9.041   2.088 -1.9515  1.4214  2.1270
  722MOL0     H99596   2.061   9.017   1.923  2.2699 -0.0230  0.2297
  722MOL0     H99597   1.953   9.028   2.066  0.2247 -1.0242  0.9756
  722MOL0     H99598   1.527   9.403   1.680  0.1300 -0.8982 -2.1914
  722MOL0     H99599   1.308   9.342   1.629 -1.8039  0.8645  2.7649
  722MOL0     H99600   1.094   9.267   1.617 -0.0092 -0.5556  0.1732
  722MOL0     H99601   1.199   9.166   1.516  2.1218 -2.4090  2.4486
  722MOL0     H99602   1.012   8.981   1.550 -1.3405 -0.6579  0.6511
  722MOL0     H99603   0.921   9.096   1.634  0.9581  0.4837  0.5456
  722MOL0     H99604   0.993   9.091   1.342  0.2466 -0.0835  0.2913
  722MOL0     H99605   0.954   9.247   1.424 -0.0080 -0.0083  1.3810
  722MOL0     H99606   0.743   9.170   1.496 -0.3074 -0.8289  1.1860
  722MOL0     H99607   0.768   9.014   1.426  0.2625  0.3421  0.6832
  722MOL0     H99608   0.755   9.276   1.271  1.5445 -0.6064 -2.2693
  722MOL0     H99609   0.797   9.123   1.196 -2.8445 -0.6930 -0.4549
  722MOL0     H99610   0.532   9.171   1.348 -2.5688 -4.2912  0.7433
  722MOL0     H99611   0.566   9.031   1.263 -2.4915  0.7297  0.5366
  722MOL0     H99612   0.515   9.309   1.150 -0.6821 -0.2603 -0.6691
  722MOL0     H99613   0.432   9.163   1.101 -1.4287  3.8993 -1.4559
  722MOL0     H99614   0.665   9.080   1.006  3.0059  1.3573 -1.0062
  722MOL0     H99615   0.726   9.239   1.017 -1.1253  4.3030 -4.7901
  722MOL0     H99616   1.365   8.953   1.813  1.0614 -0.4132 -3.4456
  722MOL0     H99617   1.597   9.029   1.880 -1.3259 -0.4121  1.6663
  722MOL0     H99618   1.856   9.474   1.852 -2.2288 -3.0142 -0.1615
  722MOL0     H99619   2.029   9.606   1.949  4.5470  1.0069  3.7678
  722MOL0     H99620   1.224   9.466   1.876 -0.7847  2.4536  0.6605
  722MOL0     H99621   1.023   9.516   1.776 -1.0975  0.7532  0.1538
  722MOL0     H99622   0.655   9.441   1.456  0.2161 -1.3827 -0.1413
  722MOL0     H99623   0.427   9.443   1.375 -2.3816  0.0298  0.2260
  722MOL0     H99624   0.119   9.360   1.393 -0.5598  2.5464 -0.4098
  722MOL0     H99625   0.261   9.277   1.474 -0.9608 -0.8334 -2.2994
  722MOL0     H99626   0.147   9.275   1.692  0.6266  0.9271  0.3142
  722MOL0     H99627   0.052   9.189   1.567 -0.6228  0.3234  1.7344
  722MOL0     H99628  -0.017   9.472   1.684  3.6140  0.5679 -1.4705
  722MOL0     H99629  -0.077   9.414   1.522 -0.6387 -0.3027  0.4619
  722MOL0     H99630  -0.082   9.267   1.789  2.1169 -2.9170 -2.4930
  722MOL0     H99631  -0.171   9.217   1.641 -0.6509  0.5036 -0.7089
  722MOL0     H99632  -0.452   9.441   1.845  0.4206 -0.6810  1.6963
  722MOL0     H99633   0.287   9.536   1.770 -0.2435 -3.1058  1.0771
  722MOL0     H99634   0.616   9.581   1.914 -0.4028  0.5193 -0.3106
  722MOL0     H99635   0.442   9.604   1.941  1.3677  3.2808 -0.1572
  722MOL0     H99636   0.506   9.438   1.941 -0.4255 -0.7063 -0.9705
  723MOL0     O99637   2.045   2.779  10.958 -0.3566 -0.9346  0.4174
  723MOL0     C99638   1.998   2.715  10.865  0.5021 -0.0277  0.0099
  723MOL0     O99639   2.052   2.685  10.741  0.4300 -0.1715 -0.6056
  723MOL0     C99640   2.188   2.673  10.723 -0.1669  0.6434  0.2637
  723MOL0     C99641   2.263   2.784  10.726 -1.2978  0.0998  0.1248
  723MOL0     C99642   2.401   2.783  10.678  0.0789 -0.3618 -0.3347
  723MOL0     C99643   2.458   2.657  10.642  0.1937 -0.5649 -0.2166
  723MOL0     O99644   2.589   2.643  10.603  0.0347 -0.6895 -0.0409
  723MOL0     C99645   2.622   2.706  10.481  0.1053 -0.2406 -0.5092
  723MOL0     C99646   2.760   2.765  10.489 -0.2049 -0.8423 -0.6390
  723MOL0     C99647   2.785   2.857  10.611  0.4736 -1.0142  1.1779
  723MOL0     C99648   2.938   2.907  10.603 -0.0716  0.6007 -0.1502
  723MOL0     C99649   2.949   3.029  10.683 -0.1088 -0.1548  0.8325
  723MOL0     C99650   3.077   3.115  10.662  0.1053 -0.1181 -0.9074
  723MOL0     C99651   3.208   3.039  10.675  0.3170 -0.3709  0.0797
  723MOL0     C99652   3.252   2.959  10.553 -0.4389  0.4492 -0.1665
  723MOL0     N99653   3.295   3.038  10.437 -0.0428  0.4099  0.0074
  723MOL0     C99654   3.415   3.115  10.430  0.1134  0.3235  0.2201
  723MOL0     C99655   3.413   3.148  10.302  0.6018  0.1114 -1.0358
  723MOL0     C99656   3.521   3.229  10.243 -0.4640  0.0452 -0.6908
  723MOL0     C99657   3.658   3.163  10.267  0.1325 -1.2035  0.0523
  723MOL0     C99658   3.775   3.257  10.244  0.0686  0.3666  0.8143
  723MOL0     C99659   3.784   3.279  10.092  0.3392 -1.2904  0.4940
  723MOL0     O99660   3.780   3.159  10.020 -0.0803  0.1783  0.5581
  723MOL0     C99661   3.894   3.091   9.996 -0.4215  0.4520 -0.2119
  723MOL0     C99662   3.886   2.948   9.983 -0.0273 -0.1229  0.0398
  723MOL0     C99663   3.991   2.868   9.949 -0.8690 -0.2326  0.1974
  723MOL0     C99664   3.954   2.726   9.943 -0.1414 -0.0308  0.4994
  723MOL0     C99665   4.122   2.924   9.931 -0.0171 -0.2925 -0.3023
  723MOL0     C99666   4.239   2.836   9.889  1.1503 -0.3644 -0.4946
  723MOL0     O99667   4.356   2.890   9.931  0.5692  0.2434  0.7269
  723MOL0     C99668   4.481   2.831   9.900 -0.5596 -0.8381 -0.2973
  723MOL0     C99669   4.518   2.822   9.765  0.8100 -0.5498 -0.6523
  723MOL0     C99670   4.636   2.755   9.734  0.2881  0.0830 -0.2552
  723MOL0     C99671   4.716   2.695   9.830  0.1712 -1.6517 -0.3837
  723MOL0     O99672   4.829   2.624   9.796 -0.2367  0.6036  0.1505
  723MOL0     C99673   4.950   2.700   9.808  0.1767 -0.1525 -0.0087
  723MOL0     C99674   5.045   2.620   9.888 -0.6892 -0.4202  0.7070
  723MOL0     C99675   5.183   2.682   9.887 -0.6944  0.0882  0.0513
  723MOL0     C99676   5.270   2.603   9.984 -0.8768  0.2671 -0.9808
  723MOL0     C99677   5.414   2.658   9.993  0.3038  0.0557 -0.1503
  723MOL0     C99678   5.485   2.599  10.113 -0.5318  0.4962 -0.2353
  723MOL0     C99679   5.623   2.652  10.128  0.1968  0.5994 -0.6593
  723MOL0     C99680   5.691   2.585  10.249 -0.0517  0.6369  0.2737
  723MOL0    Cl99681   5.850   2.660  10.284 -0.0508  0.1334 -0.1015
  723MOL0     C99682   4.672   2.701   9.964 -0.2843  0.1183  0.1990
  723MOL0     C99683   4.557   2.760   9.995  0.3606 -0.9269 -0.0129
  723MOL0     O99684   4.224   2.724   9.841  0.0133  0.1896  0.9775
  723MOL0     C99685   4.129   3.067   9.940 -0.0498  0.8559 -0.0366
  723MOL0     C99686   4.017   3.149   9.979  0.8319  0.8295  0.0517
  723MOL0     N99687   3.313   3.096  10.234  0.0123  0.7710  0.3281
  723MOL0     N99688   3.236   3.032  10.314  0.1638  0.2432  0.5145
  723MOL0     C99689   2.378   2.550  10.655  0.0901 -0.4994  0.0341
  723MOL0     C99690   2.243   2.553  10.685 -0.5039 -0.6683  0.1999
  723MOL0     C99691   1.880   2.638  10.891  0.4795 -0.1915  0.2542
  723MOL0     C99692   1.752   2.704  10.900 -0.8906 -0.3122 -1.1240
  723MOL0     C99693   1.633   2.633  10.926  0.1349  0.8407  0.4007
  723MOL0     C99694   1.630   2.498  10.945  0.1963  0.3594  0.8022
  723MOL0     O99695   1.515   2.430  10.979 -0.0053 -0.7989  0.1155
  723MOL0     C99696   1.386   2.467  10.926  0.2595 -0.9006  0.4195
  723MOL0     C99697   1.279   2.368  10.969 -0.1792  0.2762  0.0860
  723MOL0     C99698   1.307   2.239  10.883  0.5071  0.0818  0.4619
  723MOL0     C99699   1.215   2.128  10.923  0.3431 -0.6087  0.4052
  723MOL0     C99700   1.074   2.160  10.882 -0.4058  0.0430 -0.0050
  723MOL0     C99701   0.964   2.193  10.861 -0.4920 -0.3924 -0.9987
  723MOL0     C99702   1.750   2.427  10.943 -0.1767 -0.5576 -0.1868
  723MOL0     C99703   1.874   2.496  10.917  0.4494 -0.3750 -0.4936
  723MOL0     C99704   2.007   2.428  10.934  0.2061 -0.0410  0.2737
  723MOL0     H99705   2.220   2.879  10.756 -1.9911 -0.4309  0.8730
  723MOL0     H99706   2.454   2.878  10.678 -1.3936  0.6801  4.1871
  723MOL0     H99707   2.546   2.776  10.443 -0.0292 -1.5236 -2.7937
  723MOL0     H99708   2.622   2.632  10.400  1.1843  1.4816 -2.1722
  723MOL0     H99709   2.832   2.686  10.516  1.1829  0.6258  0.1231
  723MOL0     H99710   2.786   2.814  10.395  0.6080  2.2441  1.0921
  723MOL0     H99711   2.714   2.940  10.607  2.2414  0.4785 -1.6150
  723MOL0     H99712   2.778   2.787  10.695  0.0768 -0.5023  1.5737
  723MOL0     H99713   3.012   2.834  10.638 -0.9763  0.3551  1.3074
  723MOL0     H99714   2.955   2.921  10.496 -1.1520 -4.3780 -1.2075
  723MOL0     H99715   2.947   3.000  10.789  0.7959 -0.7496  0.7050
  723MOL0     H99716   2.869   3.099  10.658  2.1980  3.2342  2.1964
  723MOL0     H99717   3.079   3.155  10.560  0.6970 -0.3585 -0.9916
  723MOL0     H99718   3.073   3.192  10.739  0.5301  0.7961 -1.7699
  723MOL0     H99719   3.192   2.967  10.755 -0.7088 -0.3287 -0.0734
  723MOL0     H99720   3.291   3.104  10.706  0.0291  0.6233 -1.1397
  723MOL0     H99721   3.345   2.916  10.592 -2.5190 -1.5024  3.1471
  723MOL0     H99722   3.179   2.879  10.535 -1.1882  1.3915 -1.4736
  723MOL0     H99723   3.495   3.130  10.501 -2.0913  0.9969  2.7412
  723MOL0     H99724   3.511   3.334  10.273 -0.7754 -0.1533 -0.0829
  723MOL0     H99725   3.505   3.240  10.136  1.4497  3.6853 -0.7640
  723MOL0     H99726   3.674   3.133  10.371  1.2936  0.7931  0.4833
  723MOL0     H99727   3.664   3.072  10.206 -1.0152 -0.9641 -0.4527
  723MOL0     H99728   3.752   3.359  10.277  3.3495  1.3617  0.4311
  723MOL0     H99729   3.867   3.209  10.277  0.2194 -0.9396 -1.3294
  723MOL0     H99730   3.696   3.336  10.060  1.8694  0.9983  0.0755
  723MOL0     H99731   3.874   3.340  10.075  0.2397 -0.4308  2.7537
  723MOL0     H99732   3.784   2.913   9.994 -0.2173 -0.0280 -1.2088
  723MOL0     H99733   3.904   2.707   9.847 -3.0233  2.4235  1.3423
  723MOL0     H99734   3.888   2.710  10.028 -1.9922  0.5688 -0.7501
  723MOL0     H99735   4.037   2.655   9.942 -1.2779 -1.5219 -2.6065
  723MOL0     H99736   4.458   2.865   9.686  2.1012  1.0492 -0.8026
  723MOL0     H99737   4.684   2.740   9.638  1.5904  1.5218  0.1367
  723MOL0     H99738   4.997   2.719   9.711  2.6724 -0.8491  0.9905
  723MOL0     H99739   4.925   2.796   9.855  0.7215 -0.4851  0.9998
  723MOL0     H99740   5.005   2.616   9.989 -1.6522  2.5334  0.5211
  723MOL0     H99741   5.047   2.523   9.837 -1.6109 -0.2717  0.3667
  723MOL0     H99742   5.188   2.787   9.916  1.3883 -0.0873  0.5295
  723MOL0     H99743   5.237   2.668   9.792  0.8405  0.7636  0.7898
  723MOL0     H99744   5.279   2.498   9.958 -1.4906 -0.2635  0.8074
  723MOL0     H99745   5.224   2.609  10.083 -1.4835 -0.0576 -1.2356
  723MOL0     H99746   5.480   2.636   9.908  1.1434  1.3433  0.1373
  723MOL0     H99747   5.416   2.767   9.999  1.5525  0.0226  0.3461
  723MOL0     H99748   5.492   2.492  10.093 -0.9416  0.3993  0.1127
  723MOL0     H99749   5.420   2.612  10.201 -2.6025  0.9402 -1.7378
  723MOL0     H99750   5.610   2.758  10.155  0.8838  0.4721  0.2056
  723MOL0     H99751   5.681   2.633  10.038 -0.0756  0.3186 -0.7758
  723MOL0     H99752   5.707   2.479  10.226 -1.4034  0.7471 -1.3204
  723MOL0     H99753   5.626   2.590  10.336  0.6138 -1.9294  1.0195
  723MOL0     H99754   4.718   2.641  10.043 -0.6164 -1.2013 -0.5810
  723MOL0     H99755   4.527   2.765  10.100 -0.1483 -0.2616 -0.1823
  723MOL0     H99756   4.223   3.116   9.916  1.0572 -1.1370 -0.0535
  723MOL0     H99757   4.020   3.257   9.977 -1.5392  0.9442 -1.5314
  723MOL0     H99758   2.421   2.459  10.615  1.8320 -0.2033  1.1587
  723MOL0     H99759   2.185   2.461  10.682 -1.7163 -0.0511  2.6401
  723MOL0     H99760   1.748   2.811  10.883 -0.7254  0.2270  1.8182
  723MOL0     H99761   1.535   2.677  10.915  0.2894  1.6400  1.9665
  723MOL0     H99762   1.352   2.564  10.963 -0.8162 -1.8223  1.9756
  723MOL0     H99763   1.390   2.479  10.818  1.9837 -1.4161  0.3957
  723MOL0     H99764   1.179   2.404  10.942 -0.6522 -1.7757 -1.0667
  723MOL0     H99765   1.288   2.338  11.074  2.0672 -0.0346 -0.1564
  723MOL0     H99766   1.305   2.255  10.775  1.7391 -2.5408 -0.0172
  723MOL0     H99767   1.410   2.216  10.910  1.0930  1.5041 -0.4703
  723MOL0     H99768   1.224   2.115  11.031 -0.0214  0.9456  0.6488
  723MOL0     H99769   1.247   2.032  10.880 -0.2930 -1.3512  1.5446
  723MOL0     H99770   0.867   2.235  10.838  0.3953  1.8574 -0.8534
  723MOL0     H99771   1.754   2.321  10.969  0.1880 -1.1879 -2.5603
  723MOL0     H99772   2.060   2.488  11.008  1.2078 -2.6841  1.8593
  723MOL0     H99773   1.998   2.323  10.964 -0.8029 -0.2698 -0.7435
  723MOL0     H99774   2.055   2.428  10.836 -0.8955 -2.7574 -0.3745
  724MOL0     O99775  10.909   6.960  10.316 -0.5158  0.3542  0.4430
  724MOL0     C99776  10.893   7.062  10.372  0.1633  0.2170  0.4730
  724MOL0     O99777  10.988   7.157  10.386  1.3483  0.3659  0.1559
  724MOL0     C99778  11.095   7.154  10.305 -0.6183 -0.0855  0.0696
  724MOL0     C99779  11.204   7.072  10.321  0.4830 -0.8811 -0.4889
  724MOL0     C99780  11.321   7.081  10.245  1.0512 -0.3004 -0.0742
  724MOL0     C99781  11.320   7.169  10.136  0.0860  0.6748  0.1960
  724MOL0     O99782  11.439   7.169  10.058  0.1791  0.6924  0.0935
  724MOL0     C99783  11.438   7.236   9.933  0.3274 -0.5623 -0.3832
  724MOL0     C99784  11.572   7.213   9.863  0.7253 -0.0520 -0.9122
  724MOL0     C99785  11.705   7.243   9.950 -0.1669  0.9808 -0.1337
  724MOL0     C99786  11.709   7.396   9.981  1.2422 -0.0929 -1.3725
  724MOL0     C99787  11.841   7.432  10.050  0.2248  0.1886  0.0694
  724MOL0     C99788  11.827   7.572  10.114 -0.4820 -0.0345  0.0615
  724MOL0     C99789  11.963   7.606  10.184  0.3620  0.6605 -0.6489
  724MOL0     C99790  11.970   7.760  10.209  0.3810  0.5373 -0.8116
  724MOL0     N99791  12.107   7.814  10.249  0.6521  0.6060 -0.5493
  724MOL0     C99792  12.148   7.834  10.381  0.2565  1.0803 -0.3337
  724MOL0     C99793  12.282   7.854  10.372 -0.5658 -0.2565  0.4416
  724MOL0     C99794  12.382   7.858  10.476  0.0689  0.4473  0.1638
  724MOL0     C99795  12.465   7.991  10.475  0.1958  0.0877 -0.5122
  724MOL0     C99796  12.571   8.000  10.367  0.2653 -0.5984  0.1370
  724MOL0     C99797  12.671   8.113  10.384 -0.0179 -0.3199  0.8217
  724MOL0     O99798  12.744   8.097  10.503  0.2521 -0.4283 -0.6798
  724MOL0     C99799  12.829   7.994  10.508 -0.7085  0.0648 -0.4296
  724MOL0     C99800  12.814   7.891  10.604 -0.3525 -0.2638 -0.5877
  724MOL0     C99801  12.915   7.796  10.625 -0.5418  0.0952  0.4040
  724MOL0     C99802  12.870   7.680  10.719 -0.3333 -0.1740  0.3693
  724MOL0     C99803  13.037   7.802  10.547 -0.2832  0.2623  0.2621
  724MOL0     C99804  13.148   7.712  10.562 -0.5432  0.4611  0.8836
  724MOL0     O99805  13.257   7.752  10.494  0.0801 -0.2062 -0.2342
  724MOL0     C99806  13.367   7.722  10.563  0.0743  0.3974  0.3537
  724MOL0     C99807  13.398   7.787  10.679  0.1124 -0.7153  0.1598
  724MOL0     C99808  13.517   7.755  10.753 -0.3462  0.5355 -0.0381
  724MOL0     C99809  13.612   7.662  10.701  0.9559 -0.7872  0.3427
  724MOL0     O99810  13.723   7.642  10.776 -0.3495 -0.2946  0.6348
  724MOL0     C99811  13.804   7.521  10.741  0.7701  0.2914 -0.8506
  724MOL0     C99812  13.911   7.514  10.854 -0.1338 -0.1744 -0.3121
  724MOL0     C99813  13.998   7.384  10.845  0.0282  0.3838  0.6102
  724MOL0     C99814  14.119   7.380  10.938  0.0842 -0.0232  0.5148
  724MOL0     C99815  14.236   7.491  10.912  0.7424 -0.3180 -0.1479
  724MOL0     C99816  14.277   7.494  10.758  0.1845 -0.1446 -0.0395
  724MOL0     C99817  14.391   7.603  10.737  0.0687  0.5382 -0.6004
  724MOL0     C99818  14.328   7.743  10.748  0.0895 -0.3685  0.1229
  724MOL0    Cl99819  14.433   7.872  10.675 -0.3368 -0.3386 -0.0184
  724MOL0     C99820  13.573   7.601  10.583 -0.4093  0.0023 -0.1803
  724MOL0     C99821  13.457   7.629  10.509  0.9687  0.5229 -0.2674
  724MOL0     O99822  13.131   7.611  10.631  0.1696 -0.7325  0.0055
  724MOL0     C99823  13.048   7.902  10.450  0.4006  0.2474 -0.1993
  724MOL0     C99824  12.947   7.997  10.432 -0.1176  0.2860 -0.1980
  724MOL0     N99825  12.320   7.864  10.237  0.1882 -0.6084  0.0070
  724MOL0     N99826  12.209   7.843  10.169 -0.3854  0.1479  0.3481
  724MOL0     C99827  11.211   7.247  10.114  0.4411 -0.0466 -0.1230
  724MOL0     C99828  11.093   7.238  10.199  0.0478  0.3638 -0.2645
  724MOL0     C99829  10.760   7.081  10.437 -0.3648 -0.2185  0.1178
  724MOL0     C99830  10.715   6.978  10.523  0.2953  0.3279 -0.6688
  724MOL0     C99831  10.597   6.997  10.603  0.1104 -0.0815  0.5509
  724MOL0     C99832  10.530   7.120  10.595  0.6085 -0.2646  0.4936
  724MOL0     O99833  10.419   7.122  10.677 -0.2133 -0.4034 -0.8706
  724MOL0     C99834  10.438   7.230  10.768  0.5270  0.9354  0.3344
  724MOL0     C99835  10.404   7.183  10.909  0.1568 -0.2083 -0.6049
  724MOL0     C99836  10.402   7.301  11.012  0.5676 -0.6188 -0.1617
  724MOL0     C99837  10.515   7.335  11.113  0.6928 -0.2716  0.1696
  724MOL0     C99838  10.510   7.469  11.162 -0.4755  0.2097 -0.9689
  724MOL0     C99839  10.520   7.578  11.205  0.4746  0.6150 -0.1404
  724MOL0     C99840  10.574   7.225  10.514  0.5631 -0.2641  0.6020
  724MOL0     C99841  10.691   7.202  10.432 -0.0138 -0.5996 -0.1485
  724MOL0     C99842  10.734   7.317  10.335  0.2253  0.1195 -0.8325
  724MOL0     H99843  11.204   7.009  10.410 -0.3900  0.7280  0.7031
  724MOL0     H99844  11.410   7.018  10.245  0.7597 -0.7486 -1.7470
  724MOL0     H99845  11.436   7.341   9.961  3.5580 -0.9955  2.0620
  724MOL0     H99846  11.350   7.197   9.880 -1.2632  0.3063  1.4619
  724MOL0     H99847  11.593   7.111   9.832  0.1225  0.5970 -3.7582
  724MOL0     H99848  11.561   7.274   9.773  0.5597 -0.8843 -1.4625
  724MOL0     H99849  11.708   7.194  10.047  0.0891  0.9655 -0.1494
  724MOL0     H99850  11.792   7.214   9.892  0.9194 -1.9130  2.6933
  724MOL0     H99851  11.708   7.459   9.891 -0.1944  0.9754 -0.6469
  724MOL0     H99852  11.622   7.416  10.043  1.8340  2.8178 -1.3338
  724MOL0     H99853  11.916   7.430   9.970  0.2678  0.8743  0.0877
  724MOL0     H99854  11.860   7.369  10.138 -1.2692 -1.1957 -0.5555
  724MOL0     H99855  11.807   7.649  10.039  1.8518  2.3792  1.7386
  724MOL0     H99856  11.742   7.564  10.184 -0.0518 -0.1907  0.5739
  724MOL0     H99857  12.051   7.579  10.125 -1.1521  0.0991 -2.7411
  724MOL0     H99858  11.976   7.548  10.276 -0.4137 -0.5509 -1.2863
  724MOL0     H99859  11.943   7.808  10.114  1.1490  2.2264 -0.2087
  724MOL0     H99860  11.899   7.793  10.284 -0.0182  0.5847 -1.2041
  724MOL0     H99861  12.088   7.825  10.470 -1.1241 -3.2579 -1.4908
  724MOL0     H99862  12.452   7.774  10.480  1.2572  1.3841 -0.4070
  724MOL0     H99863  12.330   7.851  10.573  0.0240 -1.6008  0.0336
  724MOL0     H99864  12.398   8.077  10.475 -1.4852 -1.1358  0.9301
  724MOL0     H99865  12.511   8.008  10.572 -1.8228  1.0725  0.3409
  724MOL0     H99866  12.623   7.905  10.349  0.0303 -0.7650  0.3296
  724MOL0     H99867  12.512   8.018  10.276 -1.4822 -1.0091  1.1467
  724MOL0     H99868  12.735   8.123  10.296  0.5891  2.6514  1.4819
  724MOL0     H99869  12.606   8.200  10.383 -0.1758 -0.3480 -2.5415
  724MOL0     H99870  12.727   7.894  10.668  0.6385 -1.5121  0.9220
  724MOL0     H99871  12.948   7.665  10.795 -1.3940  2.2137  2.0943
  724MOL0     H99872  12.859   7.590  10.659 -0.3709  0.8478 -1.2216
  724MOL0     H99873  12.785   7.709  10.782 -2.0371  0.5897 -2.1375
  724MOL0     H99874  13.330   7.864  10.712 -0.0857 -1.1397  0.7826
  724MOL0     H99875  13.539   7.804  10.847  0.3254  1.9554 -0.9150
  724MOL0     H99876  13.740   7.433  10.740 -0.0818  0.8940 -0.8930
  724MOL0     H99877  13.838   7.537  10.638 -0.1730 -1.9579 -1.5550
  724MOL0     H99878  13.982   7.596  10.839  0.3569 -0.7428 -1.2196
  724MOL0     H99879  13.862   7.521  10.951  0.8156 -1.5590  0.2953
  724MOL0     H99880  14.030   7.369  10.741  1.0170  3.6272  0.3170
  724MOL0     H99881  13.936   7.298  10.871 -0.4866  0.3895 -0.5180
  724MOL0     H99882  14.175   7.286  10.943  0.5851  0.3031  1.3113
  724MOL0     H99883  14.075   7.398  11.037 -2.8785 -3.1184 -0.0644
  724MOL0     H99884  14.203   7.590  10.946  0.7381 -0.4187  0.1415
  724MOL0     H99885  14.321   7.461  10.972 -1.1438 -1.6585  2.0176
  724MOL0     H99886  14.193   7.511  10.691 -0.4215 -1.9696  0.2068
  724MOL0     H99887  14.313   7.396  10.727 -0.7492 -0.8900  1.1868
  724MOL0     H99888  14.430   7.586  10.636  0.3100  0.7932 -0.5515
  724MOL0     H99889  14.470   7.590  10.812 -1.9712 -2.6524  1.1962
  724MOL0     H99890  14.304   7.768  10.852  1.0721 -1.3331  0.5982
  724MOL0     H99891  14.237   7.744  10.687  1.2309 -0.1995 -1.6571
  724MOL0     H99892  13.645   7.530  10.543  2.5214  2.0704  1.0285
  724MOL0     H99893  13.432   7.572  10.421  2.7767 -0.6533 -0.0682
  724MOL0     H99894  13.129   7.907  10.378  1.1870 -3.0506  0.2991
  724MOL0     H99895  12.959   8.080  10.363 -3.4298  0.1895 -1.0299
  724MOL0     H99896  11.214   7.322  10.035 -1.9876 -0.4435 -0.6830
  724MOL0     H99897  11.012   7.307  10.174  0.1216  0.6509  0.2842
  724MOL0     H99898  10.784   6.894  10.526  0.3082  0.3556 -0.1680
  724MOL0     H99899  10.572   6.921  10.676  1.2059 -0.5557  0.4540
  724MOL0     H99900  10.538   7.275  10.773  1.3165 -0.5580 -0.8954
  724MOL0     H99901  10.377   7.314  10.734  3.2955  1.9045 -2.8837
  724MOL0     H99902  10.486   7.118  10.942 -0.1422 -0.3811 -0.1807
  724MOL0     H99903  10.307   7.134  10.899 -2.9641  5.1862 -0.3866
  724MOL0     H99904  10.381   7.394  10.959 -0.2182  0.3391  1.7188
  724MOL0     H99905  10.319   7.288  11.082  0.2130 -3.3941 -0.9737
  724MOL0     H99906  10.615   7.317  11.072  0.2242  2.8128 -2.7774
  724MOL0     H99907  10.497   7.261  11.192 -0.9156 -0.2255 -0.1347
  724MOL0     H99908  10.528   7.684  11.221  2.4892  0.6007 -0.7446
  724MOL0     H99909  10.526   7.322  10.519  0.0332 -0.5095  0.2755
  724MOL0     H99910  10.654   7.345  10.267 -2.8652 -3.8025  0.8090
  724MOL0     H99911  10.767   7.401  10.397  1.1070 -1.1748  0.5320
  724MOL0     H99912  10.808   7.277  10.265 -1.3225 -3.3083 -0.6920
  725MOL0     O99913   1.225   6.276  10.617 -0.6122 -0.3593 -1.1059
  725MOL0     C99914   1.222   6.193  10.706 -0.0815  0.1569 -0.9447
  725MOL0     O99915   1.319   6.104  10.724 -0.6469  0.4884  0.1643
  725MOL0     C99916   1.422   6.102  10.627  0.1379  0.2656 -0.0264
  725MOL0     C99917   1.532   6.182  10.635  0.9996  0.1337 -0.0923
  725MOL0     C99918   1.621   6.194  10.534  0.5897 -0.4155  0.2551
  725MOL0     C99919   1.605   6.112  10.418 -0.2875  0.1963 -0.1944
  725MOL0     O99920   1.678   6.127  10.301  0.1285  0.3606 -0.0555
  725MOL0     C99921   1.806   6.184  10.321 -0.3148  0.4522 -0.4832
  725MOL0     C99922   1.902   6.127  10.230  0.0281  0.3711  0.2560
  725MOL0     C99923   2.038   6.202  10.219 -0.9245 -1.0426 -0.3896
  725MOL0     C99924   2.030   6.331  10.121  0.4193  0.7252 -0.0099
  725MOL0     C99925   2.177   6.378  10.093  0.9721  0.7346 -0.2327
  725MOL0     C99926   2.186   6.483   9.973 -0.2897  0.3341 -0.5988
  725MOL0     C99927   2.334   6.524   9.951  0.2206  0.9082 -0.5032
  725MOL0     C99928   2.346   6.552   9.799 -0.3347  0.0493 -0.2589
  725MOL0     N99929   2.264   6.662   9.764  0.5521  0.3319  0.0383
  725MOL0     C99930   2.290   6.793   9.788 -0.0650  0.4228 -0.3356
  725MOL0     C99931   2.177   6.862   9.777 -0.7882  0.1026  0.6727
  725MOL0     C99932   2.170   7.007   9.810 -0.8838 -0.6179 -0.2983
  725MOL0     C99933   2.185   7.033   9.953  0.1944  0.1659 -1.1979
  725MOL0     C99934   2.125   7.162   9.999  0.7220  0.2816 -0.1741
  725MOL0     C99935   2.188   7.286   9.948 -0.1925  0.3974 -0.1880
  725MOL0     O99936   2.322   7.286   9.996 -0.0121 -0.6524  0.7048
  725MOL0     C99937   2.406   7.368   9.923 -0.3449 -0.4305 -0.1801
  725MOL0     C99938   2.370   7.470   9.830 -0.5971 -0.3461  0.0738
  725MOL0     C99939   2.468   7.556   9.770 -0.2006 -0.5670 -1.1171
  725MOL0     C99940   2.412   7.652   9.668  0.8194 -0.0600 -0.0386
  725MOL0     C99941   2.605   7.539   9.796  0.1190  0.6171 -0.6623
  725MOL0     C99942   2.720   7.618   9.731 -0.2320  0.5452  0.7289
  725MOL0     O99943   2.692   7.720   9.649  0.5340 -0.0590  0.3000
  725MOL0     C99944   2.787   7.795   9.581 -0.4685  0.6638  0.3181
  725MOL0     C99945   2.929   7.762   9.565  0.5644 -0.1219  0.0478
  725MOL0     C99946   3.012   7.848   9.488  0.9305  0.1903  1.0210
  725MOL0     C99947   2.969   7.976   9.454 -0.5707 -0.1141 -0.5541
  725MOL0     O99948   3.040   8.069   9.380 -0.1942  0.0824 -0.8965
  725MOL0     C99949   3.180   8.047   9.406 -0.2305 -0.4985 -0.7591
  725MOL0     C99950   3.249   8.176   9.389  0.9203 -0.0001  0.2095
  725MOL0     C99951   3.202   8.271   9.496 -0.0938 -0.6342  0.2949
  725MOL0     C99952   3.286   8.394   9.491  0.1717 -0.1224  0.2762
  725MOL0     C99953   3.255   8.494   9.610  0.6255 -0.1771 -0.2658
  725MOL0     C99954   3.119   8.560   9.581 -0.2753  0.3961  0.3427
  725MOL0     C99955   3.116   8.662   9.472 -1.0931  0.0025  0.9369
  725MOL0     C99956   2.984   8.733   9.450  0.1985 -0.1951 -0.7380
  725MOL0    Cl99957   2.930   8.814   9.606 -0.2820  0.1752  0.0507
  725MOL0     C99958   2.834   8.007   9.478 -0.3805 -0.0255 -0.0665
  725MOL0     C99959   2.744   7.915   9.533  0.3387 -0.5367  0.7209
  725MOL0     O99960   2.834   7.597   9.776  0.0776 -0.3893 -0.3135
  725MOL0     C99961   2.639   7.435   9.888 -0.4130  0.1817  0.5008
  725MOL0     C99962   2.540   7.359   9.952 -0.1407  0.1377  0.4473
  725MOL0     N99963   2.073   6.782   9.743  0.9413  0.6311 -0.9955
  725MOL0     N99964   2.126   6.661   9.744  0.4055  0.8441  0.7310
  725MOL0     C99965   1.501   6.027  10.412  1.2678  0.6865  1.0398
  725MOL0     C99966   1.403   6.022  10.513 -0.0593 -0.0873 -0.0622
  725MOL0     C99967   1.109   6.204  10.802 -0.4688  0.1092  0.3583
  725MOL0     C99968   1.163   6.196  10.932 -0.8496 -0.1461 -0.1669
  725MOL0     C99969   1.079   6.189  11.043 -0.6915 -0.3387  0.0327
  725MOL0     C99970   0.935   6.189  11.027 -1.0481 -0.8520  0.5159
  725MOL0     O99971   0.847   6.206  11.127 -0.6066 -0.9770  0.2282
  725MOL0     C99972   0.907   6.254  11.249  0.7571  0.1593 -0.5563
  725MOL0     C99973   0.795   6.328  11.335  0.4374 -0.1003 -1.2854
  725MOL0     C99974   0.676   6.235  11.362  0.2524  0.0546  0.0655
  725MOL0     C99975   0.555   6.258  11.273 -0.4247  0.4523  0.9233
  725MOL0     C99976   0.429   6.176  11.307 -0.1524 -0.0876  0.6231
  725MOL0     C99977   0.325   6.124  11.360  0.5770  0.6219 -0.0580
  725MOL0     C99978   0.884   6.196  10.896 -0.4381 -0.0727 -0.7059
  725MOL0     C99979   0.971   6.201  10.783  0.2018 -0.8862 -0.1940
  725MOL0     C99980   0.907   6.199  10.652 -0.4025  0.2319  0.4156
  725MOL0     H99981   1.536   6.245  10.723 -0.0971 -2.3161  1.8330
  725MOL0     H99982   1.695   6.273  10.548  1.7866 -1.4196 -0.2358
  725MOL0     H99983   1.848   6.158  10.418 -0.0886  3.9596  0.5062
  725MOL0     H99984   1.806   6.292  10.305  1.1806  0.4108 -0.9521
  725MOL0     H99985   1.930   6.030  10.273 -1.6558  0.6526  2.1076
  725MOL0     H99986   1.856   6.114  10.132  1.2871  1.5913 -0.5476
  725MOL0     H99987   2.091   6.232  10.310  1.3208 -3.7427 -0.6848
  725MOL0     H99988   2.104   6.130  10.171 -0.8505 -1.0748 -0.2427
  725MOL0     H99989   1.978   6.295  10.032  0.3718 -0.6872  0.5717
  725MOL0     H99990   1.980   6.411  10.177  0.6599  1.0903 -0.3126
  725MOL0     H99991   2.233   6.290  10.060 -2.5342 -1.9609  0.4756
  725MOL0     H99992   2.211   6.413  10.191  1.1552 -1.8952  0.7272
  725MOL0     H99993   2.145   6.446   9.878  3.8898  0.6301 -2.7750
  725MOL0     H99994   2.125   6.570   9.999  2.3618  2.5298 -1.2356
  725MOL0     H99995   2.397   6.438   9.973 -1.4429 -0.1937  0.1959
  725MOL0     H99996   2.360   6.600  10.026 -1.8562 -1.7872  3.3314
  725MOL0     H99997   2.452   6.569   9.776  0.1887 -0.2348  1.7731
  725MOL0     H99998   2.328   6.461   9.741  2.6101 -0.9907  0.2842
  725MOL0     H99999   2.392   6.825   9.807 -0.0196  1.2581 -1.7782
  725MOL0     H    0   2.068   7.033   9.782 -1.6021 -1.9395  0.9730
  725MOL0     H    1   2.243   7.059   9.746 -0.6658  1.3258  1.4292
  725MOL0     H    2   2.139   6.952  10.010 -0.1079  1.6337  0.7503
  725MOL0     H    3   2.291   7.035   9.983 -0.3703 -0.1364  0.9217
  725MOL0     H    4   2.017   7.156   9.979  1.0118 -2.6026 -1.2918
  725MOL0     H    5   2.128   7.158  10.108 -2.3447  0.4569  0.0052
  725MOL0     H    6   2.202   7.276   9.840  1.4365 -1.6689  0.1653
  725MOL0     H    7   2.123   7.370   9.975 -1.5502 -0.6850  0.0439
  725MOL0     H    8   2.264   7.492   9.815 -1.1219 -0.1835  3.4224
  725MOL0     H    9   2.311   7.634   9.632  1.1869 -0.2151 -1.0355
  725MOL0     H   10   2.468   7.628   9.577  1.6094 -2.5302  0.9971
  725MOL0     H   11   2.425   7.758   9.692 -0.7302  1.4793 -4.8214
  725MOL0     H   12   2.964   7.663   9.593 -0.6365 -0.8755 -1.0306
  725MOL0     H   13   3.110   7.807   9.464 -1.1711 -2.9941 -3.7312
  725MOL0     H   14   3.207   8.013   9.507  0.3910 -3.5946 -1.8349
  725MOL0     H   15   3.236   7.980   9.339  0.9139 -2.0612  1.6141
  725MOL0     H   16   3.357   8.158   9.389  1.3460  2.0785 -2.0179
  725MOL0     H   17   3.225   8.221   9.293 -1.7975 -0.2799  0.6874
  725MOL0     H   18   3.212   8.225   9.595 -0.8430 -0.1857  0.5909
  725MOL0     H   19   3.102   8.308   9.471  0.1300  0.5447  1.0758
  725MOL0     H   20   3.292   8.457   9.402  2.2812  1.0001  1.1298
  725MOL0     H   21   3.390   8.362   9.497  1.3897  3.0523 -1.6175
  725MOL0     H   22   3.252   8.440   9.705 -0.3142  0.8530  0.3004
  725MOL0     H   23   3.337   8.566   9.614  2.5154 -1.9379 -3.2356
  725MOL0     H   24   3.081   8.611   9.670  0.6798  2.3786 -0.3316
  725MOL0     H   25   3.040   8.489   9.552  2.5094 -2.1825 -1.5278
  725MOL0     H   26   3.139   8.630   9.370 -0.9966  2.3741  0.1559
  725MOL0     H   27   3.199   8.725   9.507 -2.4449  1.8744  0.9490
  725MOL0     H   28   2.896   8.672   9.429 -0.1234  0.9658 -3.0108
  725MOL0     H   29   2.989   8.813   9.376  0.1879  0.2768 -0.2350
  725MOL0     H   30   2.811   8.107   9.444  0.8272 -0.2039 -1.5536
  725MOL0     H   31   2.639   7.932   9.557 -0.3958  0.1170 -2.4442
  725MOL0     H   32   2.740   7.426   9.926 -0.4179 -0.2350  0.4191
  725MOL0     H   33   2.573   7.292  10.031 -0.0995  0.4006  0.6565
  725MOL0     H   34   1.504   5.963  10.324  2.1151  1.0221  0.8125
  725MOL0     H   35   1.316   5.961  10.492  0.5638 -1.4314  1.0906
  725MOL0     H   36   1.271   6.191  10.942 -0.7831  0.4410 -0.5495
  725MOL0     H   37   1.127   6.186  11.141  0.0167  0.1834 -0.2857
  725MOL0     H   38   0.939   6.164  11.302  0.5189 -0.4341 -1.4038
  725MOL0     H   39   0.990   6.321  11.225  0.8800  0.5693  0.9352
  725MOL0     H   40   0.759   6.419  11.286  0.4056  1.0113  0.7118
  725MOL0     H   41   0.831   6.355  11.434 -1.1270  2.3894 -1.3122
  725MOL0     H   42   0.705   6.129  11.356 -0.1789 -0.0341 -0.6241
  725MOL0     H   43   0.637   6.250  11.463  1.0851  0.9304  0.2681
  725MOL0     H   44   0.594   6.239  11.173 -0.2764  1.2550  0.8169
  725MOL0     H   45   0.529   6.365  11.278 -0.9930  0.4399 -0.9087
  725MOL0     H   46   0.233   6.082  11.395  0.4039  1.6746  0.7682
  725MOL0     H   47   0.776   6.187  10.893 -0.3691 -3.4117  1.5714
  725MOL0     H   48   0.893   6.302  10.620  0.4238  0.5559  1.0780
  725MOL0     H   49   0.962   6.137  10.580 -2.7018  0.8128 -1.9976
  725MOL0     H   50   0.807   6.156  10.656 -1.1254  1.9010  1.7248
  726MOL0     O   51  10.821  10.614   7.371 -0.4823 -0.6290 -0.2441
  726MOL0     C   52  10.761  10.557   7.464 -0.3482  0.5502 -0.6501
  726MOL0     O   53  10.815  10.524   7.593  0.5225 -0.1170 -0.1624
  726MOL0     C   54  10.947  10.544   7.622  0.4041  0.1728 -0.7699
  726MOL0     C   55  11.052  10.510   7.536 -0.0984 -0.6507  0.0295
  726MOL0     C   56  11.184  10.502   7.580  0.7820  0.6117  0.9149
  726MOL0     C   57  11.224  10.534   7.709 -0.2622  0.0057  1.1005
  726MOL0     O   58  11.356  10.531   7.755  0.1252  0.5264 -0.2842
  726MOL0     C   59  11.385  10.516   7.894  1.1645 -0.7335 -0.1572
  726MOL0     C   60  11.537  10.538   7.914 -0.2903 -0.2714 -0.1061
  726MOL0     C   61  11.592  10.680   7.872  0.1749  0.5322 -0.0885
  726MOL0     C   62  11.750  10.671   7.874 -1.0120  0.0553  0.5750
  726MOL0     C   63  11.796  10.797   7.942 -0.0836  0.2013 -0.2730
  726MOL0     C   64  11.952  10.805   7.955  0.0430 -0.5075  0.2017
  726MOL0     C   65  11.996  10.915   8.055  0.2818  0.0071  0.3237
  726MOL0     C   66  12.142  10.907   8.106  0.6073  0.3567 -0.1497
  726MOL0     N   67  12.184  11.026   8.178 -0.0394  0.4334  0.1859
  726MOL0     C   68  12.162  11.052   8.310 -0.0287  1.3257  1.2217
  726MOL0     C   69  12.228  11.168   8.339 -0.1297 -0.6503 -0.1836
  726MOL0     C   70  12.254  11.257   8.459  0.4999 -0.0165 -0.2345
  726MOL0     C   71  12.127  11.298   8.534  0.2177 -0.7178  0.1821
  726MOL0     C   72  12.046  11.408   8.475 -0.4487 -0.4509  0.0976
  726MOL0     C   73  11.935  11.448   8.573  0.5649 -0.4894 -0.8611
  726MOL0     O   74  11.914  11.588   8.577  0.3535  0.6834  0.2307
  726MOL0     C   75  11.793  11.638   8.626  0.5866 -0.3387 -0.2432
  726MOL0     C   76  11.783  11.776   8.620 -0.0669  0.2059 -0.3408
  726MOL0     C   77  11.670  11.839   8.665  0.2298 -0.0326  0.5355
  726MOL0     C   78  11.673  11.980   8.653  0.7228  0.3014  0.4559
  726MOL0     C   79  11.552  11.765   8.700 -0.2935  0.3017  0.6924
  726MOL0     C   80  11.431  11.820   8.767  0.4578 -0.2813  0.4090
  726MOL0     O   81  11.350  11.727   8.826  0.0220 -1.1001 -0.6967
  726MOL0     C   82  11.235  11.775   8.886 -0.0512 -0.8504 -0.4104
  726MOL0     C   83  11.138  11.835   8.806  0.9303  0.2089 -0.0947
  726MOL0     C   84  11.009  11.841   8.854  0.2381 -1.1483  0.6761
  726MOL0     C   85  10.976  11.809   8.984  0.1999 -0.0959  1.1097
  726MOL0     O   86  10.852  11.825   9.041  0.6696  0.5690 -0.0199
  726MOL0     C   87  10.740  11.801   8.955 -0.0713  0.5071  0.6954
  726MOL0     C   88  10.615  11.790   9.033 -0.2709 -0.1686 -0.6058
  726MOL0     C   89  10.634  11.693   9.151 -0.0907 -0.0190  0.0616
  726MOL0     C   90  10.526  11.693   9.255  0.4231 -0.2735 -0.0106
  726MOL0     C   91  10.568  11.781   9.384  0.1509  0.0782  0.9048
  726MOL0     C   92  10.474  11.740   9.500 -0.8571  0.5139  0.4388
  726MOL0     C   93  10.457  11.854   9.602  0.4896 -0.5247  0.5329
  726MOL0     C   94  10.365  11.967   9.557  0.3640  0.5299  0.1901
  726MOL0    Cl   95  10.196  11.913   9.555 -0.3506  0.0077 -0.0891
  726MOL0     C   96  11.078  11.776   9.073 -0.3027  0.7734  0.3780
  726MOL0     C   97  11.207  11.743   9.020 -0.0316  0.3336 -0.3772
  726MOL0     O   98  11.411  11.939   8.773  0.0390 -0.1394 -0.5962
  726MOL0     C   99  11.558  11.621   8.700  0.8773  0.5630  0.4858
  726MOL0     C  100  11.676  11.562   8.669 -0.1102  0.2944  0.1215
  726MOL0     N  101  12.290  11.203   8.214 -0.4131 -0.1534  0.4345
  726MOL0     N  102  12.257  11.123   8.117  0.6337 -0.7157 -1.4410
  726MOL0     C  103  11.114  10.564   7.792  0.1786  0.3964  0.6722
  726MOL0     C  104  10.983  10.569   7.754  0.6216 -0.3960 -0.7809
  726MOL0     C  105  10.624  10.514   7.444  0.7608 -0.4367  0.0399
  726MOL0     C  106  10.583  10.394   7.501 -0.5512  0.6835  0.2733
  726MOL0     C  107  10.454  10.343   7.481 -0.1225  0.6614 -0.0164
  726MOL0     C  108  10.353  10.421   7.422  0.3402  0.1167 -0.0873
  726MOL0     O  109  10.225  10.391   7.408 -0.1402 -0.0691 -0.7223
  726MOL0     C  110  10.179  10.270   7.479  1.1271  0.0349  0.3264
  726MOL0     C  111  10.024  10.259   7.463 -1.0084 -0.0514 -0.4089
  726MOL0     C  112   9.997  10.220   7.318 -0.7586 -0.0441 -0.0991
  726MOL0     C  113   9.847  10.161   7.315 -0.8917 -0.1461  0.2690
  726MOL0     C  114   9.820  10.131   7.175  0.1517  0.0175  0.6274
  726MOL0     C  115   9.793  10.104   7.056  0.0607  0.2063 -0.0459
  726MOL0     C  116  10.400  10.529   7.350 -0.1868 -0.8289  0.1216
  726MOL0     C  117  10.533  10.586   7.362 -0.1285  0.7641  0.0282
  726MOL0     C  118  10.557  10.714   7.301  0.2567 -0.2633  0.3273
  726MOL0     H  119  11.032  10.491   7.431 -0.2198  3.1789 -0.7837
  726MOL0     H  120  11.265  10.468   7.516 -0.5631  0.2869 -0.6742
  726MOL0     H  121  11.373  10.413   7.928  1.4304 -0.8379 -0.3682
  726MOL0     H  122  11.326  10.588   7.951  0.7943 -0.7367 -0.5316
  726MOL0     H  123  11.563  10.510   8.016  1.8581 -1.3384 -0.8877
  726MOL0     H  124  11.585  10.464   7.848  0.5583 -1.8354  2.1464
  726MOL0     H  125  11.553  10.705   7.774  0.0732 -0.1927 -0.2395
  726MOL0     H  126  11.543  10.754   7.936  1.1868  0.5552  0.7053
  726MOL0     H  127  11.775  10.584   7.935 -0.3485 -1.1250 -1.2956
  726MOL0     H  128  11.794  10.672   7.774 -1.5075 -1.2005  0.3262
  726MOL0     H  129  11.753  10.799   8.042 -0.1654  1.7580 -0.3240
  726MOL0     H  130  11.761  10.887   7.892  3.0013 -0.3326 -3.9825
  726MOL0     H  131  11.976  10.704   7.989 -1.5930 -1.5800 -1.5968
  726MOL0     H  132  12.007  10.814   7.861  0.7525 -0.8103  0.5854
  726MOL0     H  133  11.925  10.911   8.138 -0.9648 -1.1711 -0.7469
  726MOL0     H  134  11.982  11.011   8.005  2.2620 -1.5888 -3.8192
  726MOL0     H  135  12.157  10.820   8.170 -0.9138 -1.0625 -1.6342
  726MOL0     H  136  12.210  10.893   8.022  0.2526  2.8340 -0.9312
  726MOL0     H  137  12.118  10.975   8.373 -0.9423  0.6051 -0.2363
  726MOL0     H  138  12.310  11.346   8.428  0.0356  0.6234  0.7268
  726MOL0     H  139  12.319  11.192   8.517  1.9077 -1.0581 -2.7909
  726MOL0     H  140  12.065  11.209   8.546 -1.4211  0.5021  1.1337
  726MOL0     H  141  12.153  11.319   8.638 -0.2953  0.0862  0.1531
  726MOL0     H  142  12.103  11.500   8.462 -0.9314  0.2285  2.4401
  726MOL0     H  143  11.993  11.372   8.386 -2.6130 -1.2638  1.6306
  726MOL0     H  144  11.847  11.394   8.537  0.7426 -0.6606 -1.0438
  726MOL0     H  145  11.950  11.399   8.669  0.0014 -1.6241 -1.3280
  726MOL0     H  146  11.872  11.829   8.588 -1.4227  1.5183 -2.1635
  726MOL0     H  147  11.768  12.019   8.617  2.4949 -1.7638  2.6307
  726MOL0     H  148  11.656  12.022   8.753  0.0819  1.7724 -0.2446
  726MOL0     H  149  11.598  12.014   8.581  0.5719 -0.6658  0.1472
  726MOL0     H  150  11.158  11.870   8.705  1.8995  3.9682  1.2367
  726MOL0     H  151  10.934  11.872   8.782  1.6004 -1.9065 -1.1591
  726MOL0     H  152  10.725  11.886   8.888  0.8609  0.5516  0.5286
  726MOL0     H  153  10.754  11.705   8.903 -1.0954  0.7429 -0.0380
  726MOL0     H  154  10.576  11.885   9.069 -3.8368 -1.0131 -1.7589
  726MOL0     H  155  10.535  11.752   8.969 -1.1373 -0.1867  0.4547
  726MOL0     H  156  10.732  11.703   9.199  0.0070 -2.7923  0.6298
  726MOL0     H  157  10.633  11.600   9.094  3.2933 -0.4378  0.4790
  726MOL0     H  158  10.512  11.589   9.288  0.5449 -0.7416 -1.3844
  726MOL0     H  159  10.432  11.721   9.208  0.4493  1.6612  0.9984
  726MOL0     H  160  10.675  11.774   9.403  0.2564  0.3169  0.4228
  726MOL0     H  161  10.550  11.886   9.359 -1.0652  0.5737  3.5697
  726MOL0     H  162  10.515  11.649   9.545  0.6581  0.6603 -0.5775
  726MOL0     H  163  10.374  11.710   9.465 -0.5833 -2.3937  1.8485
  726MOL0     H  164  10.555  11.889   9.635  0.7208  0.3473 -0.9943
  726MOL0     H  165  10.416  11.819   9.698  0.3100  1.1495  1.0928
  726MOL0     H  166  10.398  12.006   9.460  2.8640  0.9860  1.1364
  726MOL0     H  167  10.361  12.053   9.625  0.5786  2.1550 -1.7517
  726MOL0     H  168  11.062  11.759   9.179 -0.2924  1.1418  0.4398
  726MOL0     H  169  11.282  11.692   9.080  0.4931  0.2500 -1.0936
  726MOL0     H  170  11.471  11.560   8.723  0.2758  1.7440  1.4457
  726MOL0     H  171  11.676  11.454   8.666 -0.3265  0.2979 -0.0415
  726MOL0     H  172  11.142  10.585   7.895  1.3434  1.2897  0.1899
  726MOL0     H  173  10.903  10.590   7.823  0.3648 -0.0966 -1.1660
  726MOL0     H  174  10.659  10.333   7.547 -1.1627  0.7048  1.3569
  726MOL0     H  175  10.434  10.242   7.514  2.1521  0.4865  1.0214
  726MOL0     H  176  10.236  10.186   7.438  0.6475  0.7876 -2.0897
  726MOL0     H  177  10.198  10.284   7.586 -1.0647  2.2861  0.5046
  726MOL0     H  178   9.991  10.360   7.487 -0.0939 -0.2300  1.8614
  726MOL0     H  179   9.980  10.191   7.536 -0.4749 -1.5210 -1.3924
  726MOL0     H  180  10.002  10.316   7.266  1.0072 -0.3579 -0.5852
  726MOL0     H  181  10.075  10.150   7.284 -1.5260 -1.9017  1.7426
  726MOL0     H  182   9.770  10.226   7.358  0.3837  2.0384 -0.5687
  726MOL0     H  183   9.833  10.064   7.362  1.3855 -1.4669 -1.5710
  726MOL0     H  184   9.770  10.072   6.956  0.4238 -1.2829  0.3277
  726MOL0     H  185  10.330  10.587   7.292 -0.3918  0.8119  1.8979
  726MOL0     H  186  10.464  10.766   7.277  0.9656  0.4647 -0.9055
  726MOL0     H  187  10.617  10.772   7.372 -0.7496  0.0276  0.9625
  726MOL0     H  188  10.615  10.708   7.209  1.0642 -2.6957  0.9331
  727MOL0     O  189   6.653   8.039   9.844  0.1947 -0.0099  0.3800
  727MOL0     C  190   6.616   8.157   9.849  0.0564 -0.4007  0.5296
  727MOL0     O  191   6.702   8.263   9.883 -0.3218 -0.6455  0.2887
  727MOL0     C  192   6.836   8.253   9.913 -0.4879  0.0853  0.3058
  727MOL0     C  193   6.925   8.143   9.883  0.4912 -0.0282  0.0406
  727MOL0     C  194   7.062   8.153   9.931 -0.0795  0.1308 -0.3710
  727MOL0     C  195   7.111   8.268   9.994 -0.2880  0.2334 -0.8014
  727MOL0     O  196   7.244   8.281  10.030 -0.8394  0.2333  0.4225
  727MOL0     C  197   7.291   8.168  10.107 -0.0854  0.3125  0.2796
  727MOL0     C  198   7.385   8.217  10.219 -0.5819  0.2348  0.4934
  727MOL0     C  199   7.395   8.111  10.325 -1.1074 -0.4626 -0.8621
  727MOL0     C  200   7.526   8.120  10.421  1.2666 -0.8312 -0.1696
  727MOL0     C  201   7.529   8.044  10.551 -0.7470  0.3762 -0.2876
  727MOL0     C  202   7.676   8.041  10.601  0.1557  0.5793 -0.0120
  727MOL0     C  203   7.700   7.986  10.738  0.0498 -0.0646  0.0079
  727MOL0     C  204   7.850   7.949  10.750 -0.5609  0.2214  0.6202
  727MOL0     N  205   7.936   8.072  10.751  0.3145 -0.0706 -1.3212
  727MOL0     C  206   7.915   8.167  10.847 -0.7464  0.2875  0.0759
  727MOL0     C  207   8.035   8.229  10.851 -0.4195  1.1132  0.6118
  727MOL0     C  208   8.072   8.339  10.946 -0.4187  0.5580 -0.5464
  727MOL0     C  209   8.126   8.459  10.875 -1.0690 -0.0955  0.5168
  727MOL0     C  210   8.142   8.580  10.972 -0.3233 -0.4444 -0.6218
  727MOL0     C  211   8.222   8.681  10.896  0.0144  0.0093 -0.5767
  727MOL0     O  212   8.360   8.645  10.889  0.1552 -0.5202  1.0536
  727MOL0     C  213   8.439   8.667  10.993  0.1639 -0.4125 -0.3829
  727MOL0     C  214   8.402   8.723  11.118 -0.0293  0.5284 -0.0259
  727MOL0     C  215   8.496   8.737  11.221  0.1149  0.7962  0.5814
  727MOL0     C  216   8.437   8.785  11.344  0.4474  0.0448  0.1898
  727MOL0     C  217   8.633   8.712  11.197  0.4219  0.0692 -0.4946
  727MOL0     C  218   8.740   8.725  11.294  0.2262  0.6585 -0.2626
  727MOL0     O  219   8.843   8.639  11.283  0.0864  0.1918  0.0775
  727MOL0     C  220   8.957   8.647  11.366  0.4726 -0.0495 -0.5992
  727MOL0     C  221   8.979   8.715  11.485 -0.0365 -0.4845 -0.0122
  727MOL0     C  222   9.099   8.723  11.557  0.3256  0.5996  0.2949
  727MOL0     C  223   9.208   8.663  11.496 -0.7975  0.0255 -0.8867
  727MOL0     O  224   9.324   8.661  11.555 -0.4349 -0.4192  0.2226
  727MOL0     C  225   9.395   8.782  11.608 -0.5279 -0.6723 -0.3983
  727MOL0     C  226   9.525   8.734  11.684 -0.2939 -0.3110 -0.0642
  727MOL0     C  227   9.627   8.677  11.582 -0.9954  0.1679 -0.2945
  727MOL0     C  228   9.779   8.673  11.611 -0.0875  0.4755 -0.0031
  727MOL0     C  229   9.848   8.578  11.501  0.2224  0.4391 -0.0583
  727MOL0     C  230   9.855   8.436  11.560  0.5434 -0.5827 -0.0486
  727MOL0     C  231   9.924   8.355  11.455  0.2080  0.1201 -0.2207
  727MOL0     C  232   9.914   8.199  11.478  0.0370 -0.7865  0.7466
  727MOL0    Cl  233  10.000   8.114  11.340  0.3056  0.1119 -0.2223
  727MOL0     C  234   9.195   8.583  11.379 -0.3074  0.2765 -0.2173
  727MOL0     C  235   9.067   8.582  11.314  0.0686  0.4093  0.8384
  727MOL0     O  236   8.740   8.823  11.376  0.0577 -0.6432  0.6969
  727MOL0     C  237   8.669   8.649  11.078  0.1779  0.6519  0.5047
  727MOL0     C  238   8.572   8.621  10.975 -0.2413  0.2969 -0.3629
  727MOL0     N  239   8.126   8.166  10.759 -0.3140  0.1422  0.1131
  727MOL0     N  240   8.064   8.080  10.699 -0.3481  0.4077  0.0238
  727MOL0     C  241   7.019   8.364  10.029  0.4077  0.5347 -0.1713
  727MOL0     C  242   6.883   8.362   9.985 -0.2992 -0.2555 -0.7046
  727MOL0     C  243   6.475   8.188   9.815 -1.6135  0.1693  0.2038
  727MOL0     C  244   6.399   8.093   9.742 -0.3878 -0.4022 -0.5899
  727MOL0     C  245   6.262   8.117   9.706  0.1114  1.4681 -0.0826
  727MOL0     C  246   6.201   8.232   9.753 -0.7636 -0.6812 -0.1809
  727MOL0     O  247   6.070   8.260   9.727  0.1127 -0.0371 -0.5063
  727MOL0     C  248   5.984   8.153   9.691 -0.5030 -0.5334 -0.4197
  727MOL0     C  249   5.843   8.195   9.709  0.2588 -0.5586 -0.2062
  727MOL0     C  250   5.740   8.103   9.658 -1.2242  0.2397 -0.0896
  727MOL0     C  251   5.601   8.171   9.670  0.8628  0.1819 -0.7113
  727MOL0     C  252   5.501   8.072   9.624 -0.0505  0.2115 -1.0125
  727MOL0     C  253   5.416   7.987   9.600 -0.8277  0.4587 -0.7741
  727MOL0     C  254   6.273   8.323   9.824 -0.8070  0.0749 -0.1795
  727MOL0     C  255   6.411   8.311   9.846 -0.0963  0.6131 -1.6138
  727MOL0     C  256   6.472   8.426   9.926 -0.6597  0.6104  1.0151
  727MOL0     H  257   6.881   8.054   9.839  1.9350 -1.4934  1.4461
  727MOL0     H  258   7.128   8.067   9.924  0.8239  0.4332  2.6920
  727MOL0     H  259   7.352   8.108  10.039  1.1762  2.2901 -0.3996
  727MOL0     H  260   7.216   8.105  10.156  0.9077  1.0104  2.8733
  727MOL0     H  261   7.484   8.241  10.177  0.0594 -1.2973  1.0251
  727MOL0     H  262   7.334   8.300  10.268  0.9350  2.5285 -1.5508
  727MOL0     H  263   7.304   8.108  10.386  0.1457 -0.4054  1.0753
  727MOL0     H  264   7.403   8.013  10.278  0.2098 -0.7291 -0.1156
  727MOL0     H  265   7.603   8.099  10.348  2.0746  0.4126  0.2886
  727MOL0     H  266   7.537   8.224  10.454  1.6531 -0.4598 -1.4198
  727MOL0     H  267   7.496   7.942  10.527 -0.2903 -0.7151  3.1699
  727MOL0     H  268   7.461   8.085  10.627 -0.1101  0.8431  0.0387
  727MOL0     H  269   7.731   7.989  10.523  1.7354  1.7804  0.2461
  727MOL0     H  270   7.718   8.141  10.587  3.1903 -0.6986 -0.8212
  727MOL0     H  271   7.644   7.892  10.735 -0.7600  0.2847  2.1641
  727MOL0     H  272   7.666   8.053  10.817 -0.1592 -0.4130  0.2188
  727MOL0     H  273   7.875   7.899  10.845 -0.3037  0.7627  0.8420
  727MOL0     H  274   7.879   7.881  10.669 -1.2779  0.7973 -0.1326
  727MOL0     H  275   7.831   8.181  10.913 -1.6451 -1.2074 -0.6794
  727MOL0     H  276   8.143   8.294  11.017 -1.4688 -0.5770 -0.1886
  727MOL0     H  277   7.980   8.365  10.998 -1.1176 -0.9824 -0.9566
  727MOL0     H  278   8.225   8.441  10.833 -0.1741  3.8496  0.4764
  727MOL0     H  279   8.051   8.475  10.797 -1.8301 -1.9576  0.8263
  727MOL0     H  280   8.044   8.626  10.987 -0.1244  0.5382 -2.1105
  727MOL0     H  281   8.205   8.550  11.057 -0.9527 -0.2614 -0.0844
  727MOL0     H  282   8.185   8.705  10.796 -2.5976  3.1761  0.9282
  727MOL0     H  283   8.216   8.775  10.951 -1.0142 -1.0243  1.1823
  727MOL0     H  284   8.300   8.756  11.138 -0.7405 -1.7200  0.3569
  727MOL0     H  285   8.328   8.788  11.350  0.4623  1.9808  0.2422
  727MOL0     H  286   8.471   8.886  11.368 -1.7001  0.6224  1.0158
  727MOL0     H  287   8.482   8.731  11.429  0.2888 -0.1391  0.1577
  727MOL0     H  288   8.902   8.774  11.534 -0.1477  0.3971 -1.2243
  727MOL0     H  289   9.110   8.781  11.648 -0.7492  0.4347  0.5353
  727MOL0     H  290   9.423   8.855  11.531  1.5090 -1.6340 -0.6508
  727MOL0     H  291   9.339   8.838  11.683  2.9175  1.1201  1.0437
  727MOL0     H  292   9.563   8.827  11.726 -1.5026 -0.2201  0.8658
  727MOL0     H  293   9.499   8.669  11.769 -1.0939 -1.5004 -1.1873
  727MOL0     H  294   9.620   8.748  11.499  0.2312 -0.4226 -0.9391
  727MOL0     H  295   9.596   8.584  11.533 -0.4418  0.3286 -0.9647
  727MOL0     H  296   9.792   8.636  11.714  0.7010  0.4185 -0.1197
  727MOL0     H  297   9.830   8.769  11.612 -0.7940  0.8597  1.1266
  727MOL0     H  298   9.786   8.591  11.412  0.2583  0.2136 -0.1173
  727MOL0     H  299   9.950   8.613  11.480 -0.0562  0.2811 -1.7651
  727MOL0     H  300   9.751   8.403  11.559 -0.8279  3.1770 -0.5910
  727MOL0     H  301   9.907   8.432  11.656 -0.3545  1.2879  0.5766
  727MOL0     H  302  10.031   8.375  11.461  0.2611 -0.6321  2.4950
  727MOL0     H  303   9.888   8.375  11.354  1.3046 -4.1095 -1.6154
  727MOL0     H  304   9.810   8.175  11.458  0.6045 -1.4839 -1.8329
  727MOL0     H  305   9.960   8.155  11.567  1.5052  1.5821  1.2584
  727MOL0     H  306   9.277   8.526  11.337 -0.7307 -2.6094  2.5130
  727MOL0     H  307   9.050   8.529  11.221  2.7941  0.2868  0.3086
  727MOL0     H  308   8.769   8.609  11.070  0.3957  1.1144  0.8852
  727MOL0     H  309   8.617   8.586  10.882  3.9197 -1.9892  2.1623
  727MOL0     H  310   7.062   8.450  10.078 -0.4870  0.9484 -0.0875
  727MOL0     H  311   6.813   8.440  10.014  1.8890  2.1843 -1.5896
  727MOL0     H  312   6.442   7.997   9.714 -1.0695 -1.6310  2.2637
  727MOL0     H  313   6.212   8.048   9.639  2.1483  1.7434 -2.0165
  727MOL0     H  314   6.005   8.139   9.584  1.0626  0.2159 -0.2383
  727MOL0     H  315   5.998   8.064   9.752  0.1485 -0.3382 -0.2790
  727MOL0     H  316   5.836   8.290   9.656  2.0107 -1.6034 -2.4677
  727MOL0     H  317   5.818   8.213   9.814 -1.0569 -1.2304 -0.3735
  727MOL0     H  318   5.764   8.099   9.552 -1.1104 -1.1511 -0.0374
  727MOL0     H  319   5.741   8.005   9.706 -1.8681  0.5744  0.6298
  727MOL0     H  320   5.588   8.267   9.620  3.3422  0.3071 -1.2350
  727MOL0     H  321   5.578   8.179   9.776  1.1429 -1.3626 -0.4985
  727MOL0     H  322   5.353   7.907   9.567 -0.0360 -0.5084  0.0137
  727MOL0     H  323   6.220   8.415   9.849 -1.3851  0.1286 -1.5240
  727MOL0     H  324   6.559   8.467   9.873 -0.4827 -0.8486  0.1055
  727MOL0     H  325   6.399   8.504   9.949 -0.8438  0.2525  1.6825
  727MOL0     H  326   6.503   8.372  10.016  0.6019  0.8942  0.7745
  728MOL0     O  327   5.860   3.006   5.608  0.3027  0.0860  0.1836
  728MOL0     C  328   5.883   2.904   5.546  0.4327  1.3730 -1.1262
  728MOL0     O  329   6.012   2.852   5.525 -0.2247 -0.2665 -0.3327
  728MOL0     C  330   6.115   2.936   5.552  0.3530  0.7411  0.3344
  728MOL0     C  331   6.127   3.067   5.509 -0.0473 -0.2296  0.2436
  728MOL0     C  332   6.243   3.142   5.525  0.0500 -0.0622 -0.3720
  728MOL0     C  333   6.352   3.084   5.589 -0.1645  0.4212 -1.0569
  728MOL0     O  334   6.474   3.146   5.623  0.2607  0.3852  0.4430
  728MOL0     C  335   6.520   3.237   5.525  0.1831 -0.0267  0.5343
  728MOL0     C  336   6.674   3.239   5.523  1.1108  0.1220 -0.4871
  728MOL0     C  337   6.716   3.350   5.426  0.7631 -0.1591  0.1250
  728MOL0     C  338   6.854   3.290   5.367 -0.3670  0.1192 -0.5899
  728MOL0     C  339   6.904   3.403   5.274 -0.1407 -0.0835 -0.3838
  728MOL0     C  340   7.058   3.397   5.243 -0.3566 -0.7641 -0.3900
  728MOL0     C  341   7.153   3.462   5.341 -0.3351 -0.8965 -0.7773
  728MOL0     C  342   7.276   3.518   5.281 -0.1621 -0.5686 -0.1295
  728MOL0     N  343   7.366   3.405   5.251 -0.4704  0.2583  0.6275
  728MOL0     C  344   7.438   3.343   5.350 -0.4032  0.4437 -0.0874
  728MOL0     C  345   7.490   3.236   5.298 -0.3093  0.3499  1.4096
  728MOL0     C  346   7.572   3.124   5.357  0.6843 -0.1445 -0.3495
  728MOL0     C  347   7.625   3.024   5.250 -0.0764  0.6000 -0.4515
  728MOL0     C  348   7.670   2.895   5.314  0.1529  0.4876  0.1840
  728MOL0     C  349   7.786   2.905   5.420  0.3213  0.5588  0.2571
  728MOL0     O  350   7.881   3.004   5.395  0.7845  0.2137  0.1010
  728MOL0     C  351   7.990   3.007   5.480 -0.0493 -0.4702 -1.2279
  728MOL0     C  352   8.013   2.922   5.589 -0.1161 -0.7556  0.8284
  728MOL0     C  353   8.113   2.937   5.680  0.4572 -0.1850  0.6539
  728MOL0     C  354   8.118   2.832   5.794  0.3347  0.1907 -0.7251
  728MOL0     C  355   8.202   3.053   5.665  1.0263  0.0284 -0.4124
  728MOL0     C  356   8.316   3.087   5.757 -0.4067 -0.3314  0.5108
  728MOL0     O  357   8.389   3.193   5.709  0.1613 -1.6069 -0.1304
  728MOL0     C  358   8.501   3.230   5.780  0.1726 -0.1363 -0.2502
  728MOL0     C  359   8.620   3.169   5.762 -0.4978  0.0717 -0.7441
  728MOL0     C  360   8.726   3.194   5.849  0.1296 -0.0066  0.1436
  728MOL0     C  361   8.718   3.288   5.951 -0.2553  0.9259  1.0305
  728MOL0     O  362   8.836   3.319   6.015  0.9170 -0.5627 -0.6787
  728MOL0     C  363   8.853   3.458   6.040  0.5430  0.4243  0.8007
  728MOL0     C  364   8.987   3.483   6.086 -0.2194  0.5906  0.0657
  728MOL0     C  365   9.008   3.637   6.097 -0.0349  0.1174 -0.1255
  728MOL0     C  366   9.127   3.669   6.190 -0.4347  0.3158 -0.5465
  728MOL0     C  367   9.128   3.820   6.225  0.8592  1.4346 -0.1302
  728MOL0     C  368   9.243   3.872   6.307 -0.9234 -0.5032  0.6304
  728MOL0     C  369   9.231   4.021   6.339  0.3222 -0.1244 -0.8449
  728MOL0     C  370   9.310   4.058   6.462  1.0345 -0.3212  0.4633
  728MOL0    Cl  371   9.330   4.235   6.483  0.1099  0.6667 -0.2215
  728MOL0     C  372   8.592   3.355   5.964 -0.0130 -0.0970  0.1989
  728MOL0     C  373   8.485   3.322   5.887  0.3322 -0.3216  0.1039
  728MOL0     O  374   8.337   3.028   5.856 -0.4757 -0.1828 -0.7395
  728MOL0     C  375   8.183   3.132   5.551  0.3194  0.5980 -0.6186
  728MOL0     C  376   8.075   3.118   5.471 -0.0884 -0.6148 -0.6776
  728MOL0     N  377   7.450   3.239   5.164 -0.4974  0.5489  0.0943
  728MOL0     N  378   7.376   3.335   5.136  0.2130 -0.2077 -0.8858
  728MOL0     C  379   6.341   2.947   5.625  0.3193 -0.1778 -0.4157
  728MOL0     C  380   6.224   2.875   5.614 -0.3596 -0.2647 -0.1348
  728MOL0     C  381   5.769   2.826   5.490 -0.9162 -0.7368  0.2840
  728MOL0     C  382   5.802   2.707   5.425 -0.2128 -0.1350 -0.3877
  728MOL0     C  383   5.704   2.621   5.384  0.9624  0.6545  1.4246
  728MOL0     C  384   5.571   2.658   5.396 -0.0278  0.2286 -0.1125
  728MOL0     O  385   5.464   2.580   5.365  0.0917 -0.0004  0.1985
  728MOL0     C  386   5.499   2.440   5.337  1.2939 -0.4746  0.1630
  728MOL0     C  387   5.369   2.367   5.352  0.0969 -0.8488 -1.2598
  728MOL0     C  388   5.388   2.211   5.357 -0.1594  0.3770  0.3655
  728MOL0     C  389   5.266   2.124   5.339 -0.1828 -0.0024  0.2617
  728MOL0     C  390   5.253   2.019   5.438 -0.3301  0.5140  0.2586
  728MOL0     C  391   5.253   1.930   5.511  1.0237  0.1938 -0.1472
  728MOL0     C  392   5.537   2.785   5.450 -0.4130 -0.5192 -0.3664
  728MOL0     C  393   5.635   2.873   5.493 -0.2340 -0.0767 -0.6860
  728MOL0     C  394   5.580   3.003   5.558 -0.4882 -0.3001  0.2662
  728MOL0     H  395   6.043   3.112   5.457 -0.8000 -0.5520  1.1501
  728MOL0     H  396   6.250   3.244   5.487  3.6376  0.0618  0.2165
  728MOL0     H  397   6.484   3.340   5.536  0.0366  0.0978 -0.9652
  728MOL0     H  398   6.490   3.206   5.425  1.3735  2.1080 -0.5705
  728MOL0     H  399   6.705   3.254   5.627  0.1548  0.7061 -0.2754
  728MOL0     H  400   6.716   3.141   5.497  2.7696  0.1265  1.8342
  728MOL0     H  401   6.646   3.361   5.343 -0.1472  1.8560  1.0797
  728MOL0     H  402   6.712   3.445   5.480 -0.8595 -0.8011  1.1985
  728MOL0     H  403   6.933   3.274   5.440  0.5098 -0.9614 -1.7411
  728MOL0     H  404   6.829   3.204   5.304  0.0591  0.3612 -1.0963
  728MOL0     H  405   6.881   3.505   5.306 -0.5204  0.1909 -1.5072
  728MOL0     H  406   6.848   3.388   5.182 -1.2283  3.0903 -0.3556
  728MOL0     H  407   7.086   3.293   5.228  0.4166 -0.3205 -2.3672
  728MOL0     H  408   7.064   3.447   5.145 -0.5347 -2.8200 -1.5052
  728MOL0     H  409   7.176   3.401   5.429 -1.8195 -0.3112  0.0558
  728MOL0     H  410   7.095   3.546   5.380 -0.0007 -1.7392  1.7170
  728MOL0     H  411   7.239   3.572   5.193 -1.9871  1.8834  1.9780
  728MOL0     H  412   7.329   3.587   5.348 -1.1217 -0.2224  0.2923
  728MOL0     H  413   7.458   3.381   5.449  1.1369  2.8073 -1.2129
  728MOL0     H  414   7.525   3.083   5.447 -0.9627  1.4306 -0.4348
  728MOL0     H  415   7.664   3.166   5.402  0.5904 -0.0155 -0.2754
  728MOL0     H  416   7.549   3.001   5.175  0.5164  2.5807 -1.7274
  728MOL0     H  417   7.706   3.070   5.192 -0.4919  0.0704 -1.4734
  728MOL0     H  418   7.572   2.861   5.349  0.7529 -1.7301 -0.1438
  728MOL0     H  419   7.702   2.829   5.233 -2.4354 -2.2735  1.2226
  728MOL0     H  420   7.736   2.924   5.516  0.6129  1.0187  0.3197
  728MOL0     H  421   7.839   2.809   5.418 -0.7603 -0.0578  0.2732
  728MOL0     H  422   7.939   2.844   5.603 -0.7870 -0.4984 -1.1177
  728MOL0     H  423   8.099   2.867   5.896 -0.0355 -3.5981  0.6472
  728MOL0     H  424   8.211   2.775   5.793 -0.0681 -0.5650  1.2808
  728MOL0     H  425   8.040   2.761   5.768  2.4873 -1.5183 -3.0467
  728MOL0     H  426   8.637   3.088   5.691  1.3046  0.8052 -1.1852
  728MOL0     H  427   8.826   3.153   5.844  0.4913  0.8489  0.0727
  728MOL0     H  428   8.826   3.509   5.947 -0.9314 -1.4980  0.1044
  728MOL0     H  429   8.771   3.476   6.110 -1.4473 -1.3816 -0.9203
  728MOL0     H  430   9.004   3.430   6.180  1.2157  0.1461 -0.4149
  728MOL0     H  431   9.046   3.455   5.999 -0.8582 -0.2236 -0.1150
  728MOL0     H  432   8.927   3.682   6.156  1.7251 -0.5778  3.1108
  728MOL0     H  433   9.013   3.698   6.006 -4.5071  2.2045  0.7494
  728MOL0     H  434   9.226   3.651   6.146  0.4718 -1.1145  1.8683
  728MOL0     H  435   9.126   3.602   6.277 -0.9892  0.1723 -0.6596
  728MOL0     H  436   9.120   3.876   6.131  1.0710  1.5166 -0.1002
  728MOL0     H  437   9.034   3.828   6.280  1.3750 -0.2980  1.0879
  728MOL0     H  438   9.330   3.860   6.241 -1.2640 -2.0775  0.4127
  728MOL0     H  439   9.257   3.813   6.399  0.4203 -2.5058 -0.7682
  728MOL0     H  440   9.133   4.067   6.357  1.5136  1.7670  1.4744
  728MOL0     H  441   9.275   4.073   6.254 -0.3970 -0.7500 -1.6238
  728MOL0     H  442   9.410   4.017   6.449  0.7338 -0.7235 -0.7564
  728MOL0     H  443   9.259   4.006   6.543 -0.1236 -0.6720 -0.4695
  728MOL0     H  444   8.565   3.414   6.052 -3.0221  0.0218 -0.6981
  728MOL0     H  445   8.381   3.353   5.887  0.8391  1.8145 -2.8502
  728MOL0     H  446   8.254   3.211   5.529  1.4825 -0.3804 -0.5283
  728MOL0     H  447   8.066   3.194   5.394  4.0854  2.6944  1.6509
  728MOL0     H  448   6.430   2.912   5.676  0.9509  2.9295  0.8185
  728MOL0     H  449   6.235   2.770   5.639  0.4468 -0.0105  0.6330
  728MOL0     H  450   5.906   2.681   5.409 -0.3132 -0.1213 -1.0681
  728MOL0     H  451   5.737   2.528   5.338 -2.9529  0.8351 -2.3918
  728MOL0     H  452   5.550   2.417   5.243  0.4099 -0.1915 -0.3981
  728MOL0     H  453   5.562   2.400   5.417 -0.8155 -3.5626  0.4585
  728MOL0     H  454   5.298   2.396   5.274 -1.5053 -3.5410 -0.9256
  728MOL0     H  455   5.324   2.392   5.448  1.5032 -0.6562 -0.6198
  728MOL0     H  456   5.456   2.189   5.275  0.7552  0.7603  1.0047
  728MOL0     H  457   5.432   2.184   5.454 -1.8466 -4.1799  0.1255
  728MOL0     H  458   5.275   2.067   5.247  1.5783 -2.4917  1.8468
  728MOL0     H  459   5.175   2.185   5.340  0.0714  0.4625 -1.5378
  728MOL0     H  460   5.253   1.843   5.572 -0.5705  0.2873  0.0180
  728MOL0     H  461   5.432   2.806   5.469 -0.8925 -3.7226  1.2455
  728MOL0     H  462   5.651   3.083   5.536 -0.1814 -0.3616  0.9791
  728MOL0     H  463   5.483   3.037   5.521  0.3848  1.9730 -0.0776
  728MOL0     H  464   5.582   2.991   5.667  0.3965 -1.2729  0.1592
  729MOL0     O  465   3.740   4.522   4.738  0.2055 -0.7179 -0.0773
  729MOL0     C  466   3.806   4.621   4.701 -0.0427  0.3159  0.0342
  729MOL0     O  467   3.941   4.631   4.702 -0.3817  0.0313  0.1184
  729MOL0     C  468   4.025   4.518   4.688 -0.0985  0.7560 -0.5654
  729MOL0     C  469   4.151   4.527   4.748  0.5931  0.0951  0.2644
  729MOL0     C  470   4.252   4.434   4.726  0.5801  0.1684  0.1884
  729MOL0     C  471   4.225   4.325   4.647  0.3664  0.0307 -0.3502
  729MOL0     O  472   4.326   4.238   4.631 -0.4684 -0.5032 -0.3153
  729MOL0     C  473   4.284   4.102   4.592  0.2689  0.6337 -0.3850
  729MOL0     C  474   4.393   4.000   4.603  1.0940  0.2855 -0.6440
  729MOL0     C  475   4.513   4.032   4.512 -0.3366  0.5206  0.3333
  729MOL0     C  476   4.609   3.911   4.514  0.1367  0.6600 -0.0061
  729MOL0     C  477   4.709   3.911   4.395  0.1141 -0.6169  0.4472
  729MOL0     C  478   4.798   3.787   4.377  0.3811 -0.1614  0.3460
  729MOL0     C  479   4.903   3.806   4.263  0.3423  0.4443 -0.9679
  729MOL0     C  480   4.979   3.686   4.219 -0.3430 -0.2539 -0.4230
  729MOL0     N  481   5.095   3.712   4.128  0.7129  0.7847 -0.5161
  729MOL0     C  482   5.184   3.615   4.094  0.0699 -0.2127  0.8045
  729MOL0     C  483   5.276   3.683   4.022 -0.0797  0.6536  0.5180
  729MOL0     C  484   5.405   3.610   3.969 -0.6126 -0.5191  0.2283
  729MOL0     C  485   5.471   3.683   3.859 -0.3459  0.3607 -0.9269
  729MOL0     C  486   5.538   3.819   3.906  0.1756 -0.2230 -0.0561
  729MOL0     C  487   5.646   3.873   3.813 -0.2937 -0.2116 -0.4165
  729MOL0     O  488   5.576   3.915   3.696  0.2180  0.1164 -0.4228
  729MOL0     C  489   5.650   3.920   3.584  0.3084  0.7834 -0.3952
  729MOL0     C  490   5.789   3.920   3.580  0.3513 -0.0001 -0.8823
  729MOL0     C  491   5.847   3.945   3.464 -0.4106 -0.3749  0.4638
  729MOL0     C  492   5.998   3.935   3.473 -1.0251  1.2626 -0.6435
  729MOL0     C  493   5.775   3.957   3.341 -0.9970 -0.3817  0.3829
  729MOL0     C  494   5.840   3.976   3.210 -0.0046 -0.5035  0.1374
  729MOL0     O  495   5.956   4.046   3.213 -0.3028  0.5168 -0.2256
  729MOL0     C  496   6.021   4.062   3.094 -0.8540  0.6686  0.2015
  729MOL0     C  497   5.964   4.126   2.988 -0.1606 -0.2159 -0.1339
  729MOL0     C  498   6.035   4.160   2.873 -0.0139 -0.4047 -0.3330
  729MOL0     C  499   6.171   4.118   2.851  1.2418 -0.1861 -1.0937
  729MOL0     O  500   6.255   4.153   2.747  0.4560  0.1853 -0.6887
  729MOL0     C  501   6.195   4.139   2.615 -0.2029  0.0387 -0.8760
  729MOL0     C  502   6.305   4.142   2.503  1.2363 -0.6676 -0.3398
  729MOL0     C  503   6.421   4.040   2.520  1.1639  0.0011 -0.1730
  729MOL0     C  504   6.564   4.073   2.489 -0.0386 -0.8315 -0.0486
  729MOL0     C  505   6.604   4.086   2.343 -0.3605 -0.4123 -0.7473
  729MOL0     C  506   6.570   3.968   2.253  0.0525  0.5769  0.1225
  729MOL0     C  507   6.618   3.998   2.108 -0.7227  0.3546 -0.5686
  729MOL0     C  508   6.589   3.884   2.020 -0.2196  0.1333  0.1773
  729MOL0    Cl  509   6.657   3.927   1.861 -0.3040  0.3514 -0.3160
  729MOL0     C  510   6.225   4.052   2.963 -0.4716  0.6489 -0.6015
  729MOL0     C  511   6.154   4.023   3.086  0.0374 -0.5012 -0.4738
  729MOL0     O  512   5.792   3.921   3.106  0.0635  0.5910 -0.1688
  729MOL0     C  513   5.640   3.954   3.343  0.2745  0.4098 -0.0432
  729MOL0     C  514   5.574   3.941   3.464  0.2477  0.2701 -0.2547
  729MOL0     N  515   5.248   3.820   4.023  0.1506 -0.8559  0.6766
  729MOL0     N  516   5.144   3.825   4.094 -0.1440 -0.2944 -0.4721
  729MOL0     C  517   4.095   4.303   4.594 -0.0253 -0.2298  0.3368
  729MOL0     C  518   4.001   4.402   4.609  0.7279 -0.3729 -0.5598
  729MOL0     C  519   3.738   4.751   4.672  0.7789 -0.1432 -0.2174
  729MOL0     C  520   3.822   4.863   4.678  0.4962  0.1636  0.6117
  729MOL0     C  521   3.783   4.985   4.630 -0.0031  0.1620 -0.3785
  729MOL0     C  522   3.653   5.005   4.579  0.5456  0.3043  0.5141
  729MOL0     O  523   3.618   5.127   4.523 -0.7259  0.3392 -0.3600
  729MOL0     C  524   3.475   5.170   4.537  0.1441 -0.2480  0.5723
  729MOL0     C  525   3.475   5.316   4.505  0.1020 -0.2854  0.2498
  729MOL0     C  526   3.343   5.379   4.535 -1.3266 -0.2234  0.5879
  729MOL0     C  527   3.359   5.534   4.534 -0.1235  0.7190 -0.0775
  729MOL0     C  528   3.233   5.602   4.576 -0.2494  0.4876  0.0883
  729MOL0     C  529   3.127   5.646   4.606 -0.1458 -0.5848  0.2521
  729MOL0     C  530   3.563   4.896   4.600  0.2370 -0.4335 -0.2926
  729MOL0     C  531   3.602   4.772   4.641 -0.7391  0.1043 -0.2406
  729MOL0     C  532   3.506   4.660   4.668  0.1905  0.1576  0.0208
  729MOL0     H  533   4.168   4.615   4.809  1.6315 -0.1247  0.3062
  729MOL0     H  534   4.340   4.455   4.786 -0.2785 -0.7626  1.8242
  729MOL0     H  535   4.243   4.099   4.490 -0.6532 -0.6862 -0.0008
  729MOL0     H  536   4.199   4.081   4.658  1.0469 -2.4033 -0.2026
  729MOL0     H  537   4.417   4.003   4.710 -0.1059  2.5665 -0.3667
  729MOL0     H  538   4.349   3.902   4.586 -2.2352  1.8154 -1.7052
  729MOL0     H  539   4.486   4.045   4.407 -0.5714  0.0607  0.3345
  729MOL0     H  540   4.569   4.121   4.542 -0.2119  0.8752 -0.8916
  729MOL0     H  541   4.672   3.889   4.601  2.9917 -1.5086 -2.4019
  729MOL0     H  542   4.549   3.821   4.496  1.8603 -0.6843  0.6016
  729MOL0     H  543   4.766   4.005   4.390 -2.2812  0.8703 -1.3046
  729MOL0     H  544   4.651   3.904   4.303  0.6187 -1.4410  0.1882
  729MOL0     H  545   4.857   3.768   4.467  0.5352  1.9949  0.7474
  729MOL0     H  546   4.728   3.707   4.350  1.2744 -0.2773 -1.8587
  729MOL0     H  547   4.969   3.892   4.281 -1.1136  1.4465 -0.1799
  729MOL0     H  548   4.830   3.831   4.185  0.1248  1.3072 -0.4998
  729MOL0     H  549   5.010   3.617   4.298 -1.2985 -0.0695  0.1150
  729MOL0     H  550   4.907   3.636   4.154 -1.1669 -0.2598  0.4884
  729MOL0     H  551   5.188   3.511   4.126  2.1605 -0.6100 -0.5428
  729MOL0     H  552   5.373   3.515   3.924 -1.4234 -0.1947  0.1059
  729MOL0     H  553   5.475   3.581   4.047 -2.0061 -2.5061  0.8482
  729MOL0     H  554   5.549   3.618   3.818  1.1366  1.0452  0.6437
  729MOL0     H  555   5.393   3.708   3.786 -1.2814 -0.4189 -0.2169
  729MOL0     H  556   5.467   3.901   3.921 -0.8574 -1.3751  1.8493
  729MOL0     H  557   5.577   3.791   4.004 -0.5806  2.9210  1.2780
  729MOL0     H  558   5.701   3.961   3.848 -0.3075 -0.0042 -0.9251
  729MOL0     H  559   5.706   3.784   3.788 -1.3872 -0.5822 -1.7938
  729MOL0     H  560   5.858   3.890   3.659  0.8154 -4.1066 -2.5860
  729MOL0     H  561   6.040   3.905   3.569 -0.7612  0.1805 -1.0869
  729MOL0     H  562   6.042   4.032   3.446 -1.2661  1.3838 -0.6054
  729MOL0     H  563   6.035   3.861   3.401  0.9124  0.3219  1.2183
  729MOL0     H  564   5.858   4.146   2.999 -0.6065 -3.1305  1.8593
  729MOL0     H  565   5.983   4.221   2.800  2.3157  1.0905 -0.8535
  729MOL0     H  566   6.140   4.046   2.598  0.0039 -0.3996  0.6372
  729MOL0     H  567   6.131   4.226   2.600  2.0771  1.9190 -0.3657
  729MOL0     H  568   6.264   4.127   2.403 -0.6504 -0.2753  0.3208
  729MOL0     H  569   6.355   4.239   2.504 -0.5996  0.3207 -0.7109
  729MOL0     H  570   6.402   3.949   2.462  0.1026 -2.0116  3.0900
  729MOL0     H  571   6.404   3.995   2.618 -1.2650  1.2626  0.0546
  729MOL0     H  572   6.623   3.993   2.535 -1.6754 -2.5376 -0.7731
  729MOL0     H  573   6.582   4.170   2.536 -0.5509  0.1816 -1.8602
  729MOL0     H  574   6.567   4.181   2.305  1.0132 -0.0175 -1.1503
  729MOL0     H  575   6.710   4.110   2.335 -0.2813  1.6024  3.3774
  729MOL0     H  576   6.461   3.961   2.248  0.0905  0.4767 -0.6144
  729MOL0     H  577   6.618   3.878   2.290  1.8315  1.5338  0.2296
  729MOL0     H  578   6.725   4.017   2.113 -0.5154 -0.9888  1.9028
  729MOL0     H  579   6.569   4.089   2.072  1.0690  1.6101  0.0059
  729MOL0     H  580   6.489   3.840   2.010 -0.1368 -0.5262  2.0468
  729MOL0     H  581   6.653   3.802   2.053 -0.1835 -0.9713 -2.3583
  729MOL0     H  582   6.331   4.029   2.971 -0.8965 -1.2824  0.1379
  729MOL0     H  583   6.208   3.992   3.175 -1.0030  1.5547  0.9486
  729MOL0     H  584   5.570   3.968   3.261 -3.1101  1.9155  2.8309
  729MOL0     H  585   5.467   3.956   3.473 -0.0953  0.0798 -2.9878
  729MOL0     H  586   4.073   4.220   4.528 -2.5669  1.3819 -1.0239
  729MOL0     H  587   3.900   4.379   4.577 -0.6167 -0.0003  2.9392
  729MOL0     H  588   3.927   4.858   4.705  0.6900  0.8423  0.0244
  729MOL0     H  589   3.854   5.066   4.618  1.1788 -0.7755  0.0469
  729MOL0     H  590   3.414   5.116   4.464  0.2294  1.2898 -0.7186
  729MOL0     H  591   3.441   5.147   4.638 -4.2491  2.6880  0.0552
  729MOL0     H  592   3.507   5.341   4.403  0.0715  1.6989  0.6904
  729MOL0     H  593   3.556   5.355   4.568  1.4478  1.5476 -2.4286
  729MOL0     H  594   3.270   5.357   4.457 -0.5236 -1.6078  0.2040
  729MOL0     H  595   3.312   5.349   4.635 -1.4240 -1.1288  0.2921
  729MOL0     H  596   3.399   5.580   4.443  1.0199  0.4806  0.2886
  729MOL0     H  597   3.429   5.551   4.616 -1.1813  0.3168  0.9481
  729MOL0     H  598   3.029   5.679   4.636 -0.2144 -2.6604  2.6178
  729MOL0     H  599   3.460   4.896   4.569 -0.0333 -1.8483  0.5377
  729MOL0     H  600   3.524   4.627   4.771 -0.7439  0.5736  0.3251
  729MOL0     H  601   3.405   4.699   4.669  0.3051  0.5304  1.7714
  729MOL0     H  602   3.509   4.581   4.593 -0.9303  1.4873 -1.4832
  730MOL0     O  603   3.562   6.012   5.604 -0.0341  0.0397  0.4044
  730MOL0     C  604   3.565   6.092   5.697 -0.4678 -0.2682 -0.2924
  730MOL0     O  605   3.673   6.106   5.781 -0.2876 -0.0682 -0.1694
  730MOL0     C  606   3.770   6.014   5.748  0.6135  0.3109  0.3915
  730MOL0     C  607   3.901   6.061   5.706  0.4453 -0.3718  0.6395
  730MOL0     C  608   4.008   5.972   5.694 -0.3934 -0.0316 -0.1103
  730MOL0     C  609   3.990   5.841   5.731 -0.0912 -0.1299  0.0691
  730MOL0     O  610   4.099   5.764   5.741  0.1737  0.1188  0.5595
  730MOL0     C  611   4.116   5.656   5.837  0.3708  1.6594 -0.3201
  730MOL0     C  612   4.255   5.598   5.811  0.0857  0.6238  0.0956
  730MOL0     C  613   4.315   5.504   5.925  0.8665 -0.0236  0.2196
  730MOL0     C  614   4.431   5.419   5.868  0.7979 -0.0629 -0.9223
  730MOL0     C  615   4.516   5.389   5.990 -0.2398  1.1005 -0.4675
  730MOL0     C  616   4.633   5.312   5.934 -0.2038 -0.2318  0.4217
  730MOL0     C  617   4.738   5.404   5.862 -0.2824 -0.1558 -1.0175
  730MOL0     C  618   4.879   5.329   5.839  0.0703 -0.0495  0.5880
  730MOL0     N  619   4.970   5.400   5.757 -0.6047 -0.1270 -0.5847
  730MOL0     C  620   5.004   5.346   5.636 -0.0519  0.3573  0.6643
  730MOL0     C  621   5.119   5.411   5.603 -0.4150  0.2860 -0.5156
  730MOL0     C  622   5.208   5.380   5.480  0.5241 -0.7884  0.6287
  730MOL0     C  623   5.331   5.312   5.521 -0.8102  0.6718 -0.2869
  730MOL0     C  624   5.425   5.300   5.399 -0.5190  0.6258  0.3820
  730MOL0     C  625   5.552   5.224   5.426  0.5345  0.3458  0.6339
  730MOL0     O  626   5.637   5.314   5.498  0.0088  0.2324 -0.4444
  730MOL0     C  627   5.774   5.301   5.510  0.1234 -0.6442  0.0030
  730MOL0     C  628   5.835   5.403   5.582  0.2594 -0.0585  0.9323
  730MOL0     C  629   5.980   5.413   5.596 -0.4956  0.3296 -0.0071
  730MOL0     C  630   6.027   5.531   5.670 -0.4112 -0.9039 -0.1913
  730MOL0     C  631   6.062   5.302   5.553  0.3605 -0.4617  0.9597
  730MOL0     C  632   6.201   5.285   5.582  0.3566 -0.3417 -0.4074
  730MOL0     O  633   6.276   5.238   5.478 -0.7915 -0.1681  1.2267
  730MOL0     C  634   6.413   5.264   5.482  0.4986 -0.1038  0.2365
  730MOL0     C  635   6.511   5.181   5.408 -0.1392 -0.0902 -1.1858
  730MOL0     C  636   6.649   5.213   5.416 -0.3487 -0.0175  0.2009
  730MOL0     C  637   6.699   5.324   5.488  0.4503  0.2070 -0.2672
  730MOL0     O  638   6.833   5.349   5.484 -0.0288  0.4270  0.2166
  730MOL0     C  639   6.903   5.390   5.601  0.5805  0.4740  0.2039
  730MOL0     C  640   7.022   5.483   5.577  0.2437  0.2443  0.2223
  730MOL0     C  641   7.131   5.425   5.490  0.5774 -0.3992  0.1457
  730MOL0     C  642   7.220   5.323   5.565  0.6776  0.1044 -0.6142
  730MOL0     C  643   7.317   5.268   5.467 -0.6660 -0.1734 -1.2575
  730MOL0     C  644   7.413   5.169   5.541  0.3548  0.7091 -0.1232
  730MOL0     C  645   7.504   5.109   5.439  0.1322 -0.5879  0.2017
  730MOL0     C  646   7.623   5.038   5.504 -0.8267  0.2791 -0.1406
  730MOL0    Cl  647   7.707   4.909   5.407  0.1846  0.1452  0.1585
  730MOL0     C  648   6.609   5.410   5.549 -0.0726 -0.3215 -0.1984
  730MOL0     C  649   6.468   5.378   5.543 -0.1473  0.1032 -0.1564
  730MOL0     O  650   6.231   5.311   5.701 -0.5547  0.0070  1.0958
  730MOL0     C  651   5.989   5.192   5.488 -0.3292 -0.1380 -0.2789
  730MOL0     C  652   5.849   5.201   5.461 -0.4801  0.5508 -0.1743
  730MOL0     N  653   5.144   5.505   5.701  0.3142  0.1338 -0.4517
  730MOL0     N  654   5.052   5.497   5.788  0.8771  0.0293 -0.4972
  730MOL0     C  655   3.863   5.792   5.765 -0.8037  0.0863 -0.1409
  730MOL0     C  656   3.754   5.873   5.776 -0.0272 -0.7030  0.7507
  730MOL0     C  657   3.447   6.179   5.710 -0.4788  0.4606 -0.1221
  730MOL0     C  658   3.452   6.255   5.829  0.7466  0.0728 -1.0212
  730MOL0     C  659   3.343   6.339   5.859 -0.0135 -0.2883  0.1203
  730MOL0     C  660   3.240   6.354   5.766 -0.4228 -0.0422 -1.6761
  730MOL0     O  661   3.129   6.419   5.819 -0.2885 -0.1949 -0.5642
  730MOL0     C  662   3.009   6.446   5.733 -0.2487 -0.5603 -0.3078
  730MOL0     C  663   3.042   6.565   5.640 -0.1933 -0.0186  0.3540
  730MOL0     C  664   3.072   6.695   5.706 -0.6273  0.3258 -0.7651
  730MOL0     C  665   3.034   6.808   5.604  0.7028  0.0517  0.7040
  730MOL0     C  666   3.109   6.924   5.648  0.1746 -0.3409 -0.2447
  730MOL0     C  667   3.176   7.024   5.671 -0.0179  0.5362 -0.0549
  730MOL0     C  668   3.237   6.281   5.649  0.3973 -1.4055 -0.0115
  730MOL0     C  669   3.342   6.193   5.620 -0.3473 -0.2934  0.3082
  730MOL0     C  670   3.330   6.105   5.497 -0.1223 -0.1925 -0.3000
  730MOL0     H  671   3.926   6.165   5.690  4.8709 -1.3332 -0.1386
  730MOL0     H  672   4.108   6.000   5.662  0.3351 -2.0107  0.3031
  730MOL0     H  673   4.052   5.567   5.835  2.0660  0.3196  1.3762
  730MOL0     H  674   4.122   5.704   5.935 -0.9273  3.5774 -1.1244
  730MOL0     H  675   4.265   5.554   5.712  1.0845  2.0997 -0.4911
  730MOL0     H  676   4.319   5.685   5.799 -0.7641  1.3421  0.6060
  730MOL0     H  677   4.349   5.571   6.003 -3.1000 -0.9315  3.0171
  730MOL0     H  678   4.236   5.439   5.962 -0.8697  1.7195 -0.2598
  730MOL0     H  679   4.390   5.324   5.833 -2.5697  0.0037  2.2752
  730MOL0     H  680   4.478   5.475   5.787  0.4068  1.1749 -0.3058
  730MOL0     H  681   4.471   5.317   6.059  0.1710  0.6615 -0.6498
  730MOL0     H  682   4.556   5.472   6.050  0.0766  0.1474  0.6813
  730MOL0     H  683   4.688   5.287   6.026 -0.9618 -0.9173  0.7057
  730MOL0     H  684   4.606   5.222   5.877  0.2261  0.1575 -0.4125
  730MOL0     H  685   4.751   5.484   5.935  0.5400 -4.1169  3.6384
  730MOL0     H  686   4.695   5.439   5.767 -1.1306  0.3302 -0.4669
  730MOL0     H  687   4.926   5.302   5.933  2.6236 -2.5926 -1.2415
  730MOL0     H  688   4.856   5.230   5.799 -2.5171 -0.1841  2.1655
  730MOL0     H  689   4.960   5.267   5.575  1.7390  0.4097 -0.7730
  730MOL0     H  690   5.231   5.475   5.431 -2.7385  0.8724  1.9451
  730MOL0     H  691   5.157   5.312   5.411  0.1932  0.4372 -0.3745
  730MOL0     H  692   5.388   5.362   5.601  2.3856 -1.5452 -0.9493
  730MOL0     H  693   5.311   5.215   5.568 -0.8839  0.6240 -0.4160
  730MOL0     H  694   5.370   5.238   5.328  0.5558 -0.5100  0.5036
  730MOL0     H  695   5.458   5.395   5.357 -1.6454  1.0062  0.3293
  730MOL0     H  696   5.533   5.132   5.481 -3.3058  1.2971  1.2134
  730MOL0     H  697   5.609   5.204   5.335 -0.8141  0.9169 -0.3757
  730MOL0     H  698   5.775   5.478   5.632 -0.3963  0.4596 -0.5450
  730MOL0     H  699   6.033   5.515   5.778 -2.9460  0.4076  0.2159
  730MOL0     H  700   5.962   5.616   5.651 -2.5796 -2.1967  1.0442
  730MOL0     H  701   6.129   5.560   5.642  0.9260 -3.5500  1.4488
  730MOL0     H  702   6.484   5.096   5.347 -1.1844  1.6546 -3.2891
  730MOL0     H  703   6.723   5.155   5.363  3.8933  3.3298  1.8588
  730MOL0     H  704   6.839   5.438   5.675  2.6797  1.1372  1.6785
  730MOL0     H  705   6.943   5.306   5.659 -0.6875  0.1491  0.6415
  730MOL0     H  706   6.980   5.567   5.520 -1.0074 -1.2877 -1.2528
  730MOL0     H  707   7.069   5.511   5.671 -2.4684  1.7179  1.2719
  730MOL0     H  708   7.188   5.514   5.460  1.3343 -0.3103  1.7466
  730MOL0     H  709   7.100   5.383   5.394 -2.3677  0.3949  0.6610
  730MOL0     H  710   7.159   5.242   5.607  0.1550  0.4903 -0.6221
  730MOL0     H  711   7.260   5.375   5.652  1.1669 -0.3369 -0.5680
  730MOL0     H  712   7.260   5.211   5.392 -0.7550 -2.4373  0.4240
  730MOL0     H  713   7.366   5.345   5.407 -1.3876  0.9561 -0.4225
  730MOL0     H  714   7.356   5.093   5.595  0.6464  1.0785  0.7188
  730MOL0     H  715   7.470   5.225   5.616  1.5889  1.6001 -1.6600
  730MOL0     H  716   7.541   5.189   5.374  1.7628 -1.2365  0.2913
  730MOL0     H  717   7.439   5.043   5.381 -0.4570 -1.5091  1.8499
  730MOL0     H  718   7.597   4.993   5.600 -1.2166 -0.4478 -0.5789
  730MOL0     H  719   7.703   5.109   5.528  0.8458 -2.2606  2.3446
  730MOL0     H  720   6.643   5.501   5.598  1.7075 -0.4051 -1.1914
  730MOL0     H  721   6.405   5.449   5.597  0.2200 -0.4372  1.0287
  730MOL0     H  722   6.039   5.106   5.446 -0.9440 -1.0206  0.7322
  730MOL0     H  723   5.796   5.121   5.412  1.0319 -1.1675  0.8844
  730MOL0     H  724   3.851   5.694   5.812  0.2447 -0.0554 -0.1373
  730MOL0     H  725   3.655   5.848   5.814 -0.4908  0.3997  0.3180
  730MOL0     H  726   3.519   6.240   5.913 -0.5847 -0.0151  0.0794
  730MOL0     H  727   3.347   6.380   5.959  0.9425 -0.6553  0.2483
  730MOL0     H  728   2.989   6.358   5.672 -1.8704 -0.6468  0.3050
  730MOL0     H  729   2.922   6.457   5.799  0.1440 -3.3341  0.7986
  730MOL0     H  730   2.958   6.583   5.572  0.6236 -0.4819 -0.8118
  730MOL0     H  731   3.117   6.533   5.567 -0.8060 -0.0152 -0.2891
  730MOL0     H  732   3.009   6.703   5.795  1.9662 -2.1307  1.4838
  730MOL0     H  733   3.180   6.699   5.727 -0.5146 -1.5251 -0.8442
  730MOL0     H  734   2.924   6.812   5.603  0.4700 -0.5870  5.0424
  730MOL0     H  735   3.078   6.779   5.508  0.4229  1.4079  0.1435
  730MOL0     H  736   3.228   7.110   5.707 -0.1630  0.4647  0.3254
  730MOL0     H  737   3.158   6.295   5.575 -0.0895 -0.4285  0.6743
  730MOL0     H  738   3.237   6.134   5.448  1.3751  2.0594 -2.0446
  730MOL0     H  739   3.410   6.124   5.425  0.1087 -2.3328 -0.6638
  730MOL0     H  740   3.328   6.003   5.535  0.8298  0.1872  0.8257
  731MOL0     O  741   0.546   5.875   6.767  0.5935 -0.8335 -0.2414
  731MOL0     C  742   0.528   5.864   6.887  0.2129  0.1249  0.3448
  731MOL0     O  743   0.618   5.872   6.990 -0.3349  0.0284 -0.1928
  731MOL0     C  744   0.753   5.897   6.976  0.0461  0.7046 -0.2053
  731MOL0     C  745   0.819   5.973   7.071  0.2132 -0.3534 -0.2330
  731MOL0     C  746   0.955   6.000   7.057  0.4409  0.6243  0.1469
  731MOL0     C  747   1.030   5.947   6.955 -0.1240 -0.3181 -0.0283
  731MOL0     O  748   1.158   5.995   6.923  0.5286  0.4522  0.1785
  731MOL0     C  749   1.229   6.035   7.035 -0.0877  0.2429 -0.1722
  731MOL0     C  750   1.355   6.087   6.972 -0.1087 -0.4638  0.0652
  731MOL0     C  751   1.447   6.131   7.078 -1.0020  0.8219 -0.5331
  731MOL0     C  752   1.593   6.153   7.016 -1.1532  0.5719 -0.1587
  731MOL0     C  753   1.706   6.159   7.119  0.3069 -0.4484 -0.1372
  731MOL0     C  754   1.845   6.219   7.053  0.5951  0.1062  0.2708
  731MOL0     C  755   1.965   6.254   7.141  0.2468  0.1928 -0.2760
  731MOL0     C  756   2.009   6.141   7.228  0.3362 -0.3054  0.5436
  731MOL0     N  757   2.140   6.167   7.299  0.4142 -0.0542 -0.0577
  731MOL0     C  758   2.265   6.183   7.239  0.1744 -0.4942  0.7114
  731MOL0     C  759   2.340   6.226   7.338 -0.4701  0.6984 -0.2157
  731MOL0     C  760   2.496   6.235   7.323  0.0724  0.1072 -0.1246
  731MOL0     C  761   2.559   6.311   7.442  0.3283 -0.5225  0.0819
  731MOL0     C  762   2.712   6.319   7.425 -1.0655  0.1148 -0.6724
  731MOL0     C  763   2.745   6.439   7.331  0.0911 -0.3657 -0.1002
  731MOL0     O  764   2.886   6.442   7.308  0.3111  0.2348 -0.9351
  731MOL0     C  765   2.943   6.543   7.233  0.2808 -0.6107 -0.0780
  731MOL0     C  766   2.879   6.663   7.184 -0.2375  0.1820 -0.1537
  731MOL0     C  767   2.959   6.765   7.126 -0.1181 -0.5492  0.5115
  731MOL0     C  768   2.887   6.892   7.091 -0.0043 -0.3275  0.1947
  731MOL0     C  769   3.093   6.748   7.094 -0.6532 -0.5500  0.6546
  731MOL0     C  770   3.180   6.839   7.003 -0.2447 -0.1171 -0.8196
  731MOL0     O  771   3.310   6.830   7.024  0.0624 -0.6073 -0.4925
  731MOL0     C  772   3.409   6.929   6.999 -0.0177  1.2633  0.2820
  731MOL0     C  773   3.537   6.887   7.022  0.2292  0.3353  0.6711
  731MOL0     C  774   3.643   6.979   6.993 -0.7170 -0.0352  0.1166
  731MOL0     C  775   3.620   7.112   6.948  0.7929  0.1755 -0.1945
  731MOL0     O  776   3.729   7.193   6.910  0.0390  0.0772  0.7871
  731MOL0     C  777   3.732   7.242   6.774  0.5132 -0.5335 -0.6997
  731MOL0     C  778   3.743   7.133   6.673 -0.0092 -0.4142 -0.6008
  731MOL0     C  779   3.865   7.038   6.699  0.0143  0.0054 -0.0199
  731MOL0     C  780   3.980   7.067   6.610  0.3685  0.4588  1.0478
  731MOL0     C  781   4.113   7.013   6.655 -0.0322  0.0538  0.3132
  731MOL0     C  782   4.113   6.876   6.729 -0.5683 -0.7257  1.1520
  731MOL0     C  783   4.257   6.843   6.783  0.0275  0.1698 -0.6195
  731MOL0     C  784   4.273   6.889   6.923 -0.0767 -0.9951  0.2484
  731MOL0    Cl  785   4.172   6.801   7.042  0.5397  0.3825 -0.2640
  731MOL0     C  786   3.492   7.152   6.953 -0.6369  0.0551  0.0127
  731MOL0     C  787   3.383   7.063   6.973  0.0162  0.3295  0.2565
  731MOL0     O  788   3.134   6.906   6.914  0.1048  0.2880 -0.8212
  731MOL0     C  789   3.147   6.625   7.134 -0.6126 -0.3649  0.3299
  731MOL0     C  790   3.074   6.539   7.214 -0.0558  1.2682  0.2799
  731MOL0     N  791   2.262   6.268   7.443 -0.1491  0.0588  0.1184
  731MOL0     N  792   2.140   6.238   7.418  0.8345  0.6243  0.6880
  731MOL0     C  793   0.958   5.867   6.863  0.1298 -0.5824  0.4276
  731MOL0     C  794   0.819   5.851   6.861 -0.3787 -0.1332 -0.6028
  731MOL0     C  795   0.391   5.820   6.933 -0.6973 -0.3137  0.2802
  731MOL0     C  796   0.378   5.725   7.126 -0.0835  0.3987  0.2715
  731MOL0     C  797   0.190   5.630   7.185  0.1214  0.1882  0.5475
  731MOL0     C  798   0.028   5.634   7.060  0.9415  0.3136  0.5627
  731MOL0     O  799  -0.088   5.583   7.102  0.4569  0.2941  0.2298
  731MOL0     C  800  -0.184   5.542   6.998 -0.1649 -0.1863 -0.1948
  731MOL0     C  801  -0.121   5.436   6.897 -0.3585 -1.2899  0.5985
  731MOL0     C  802  -0.057   5.321   6.980 -0.1659 -0.9584 -0.8624
  731MOL0     C  803  -0.171   5.267   7.070  0.6682  0.0931  0.2445
  731MOL0     C  804  -0.125   5.138   7.122  0.7483 -0.7014  0.2235
  731MOL0     C  805  -0.077   5.031   7.153 -0.4726  0.1365 -0.5217
  731MOL0     C  806   0.042   5.727   6.864  0.3030 -0.0786 -0.2932
  731MOL0     C  807   0.223   5.822   6.802 -0.0140 -0.3511 -1.0420
  731MOL0     C  808   0.217   5.892   6.676 -0.0044 -0.0039 -0.1384
  731MOL0     H  809   0.769   6.017   7.156  0.9091  0.6873 -0.3428
  731MOL0     H  810   1.000   6.060   7.136  1.7122 -2.0545  1.5970
  731MOL0     H  811   1.247   5.956   7.109 -1.8524 -0.2026 -0.1524
  731MOL0     H  812   1.191   6.126   7.084  0.0543 -0.3444  1.0673
  731MOL0     H  813   1.416   6.008   6.928  1.9631 -0.1038  2.1145
  731MOL0     H  814   1.337   6.164   6.896 -0.3075  0.9078  1.4409
  731MOL0     H  815   1.416   6.224   7.127  3.5228  2.9602 -1.2284
  731MOL0     H  816   1.463   6.063   7.162  3.0561  2.7344  0.4895
  731MOL0     H  817   1.610   6.073   6.944 -3.0296 -0.0607  0.0423
  731MOL0     H  818   1.591   6.246   6.958  0.3108  0.3151 -0.6633
  731MOL0     H  819   1.740   6.062   7.157  4.2564  1.2729  1.3176
  731MOL0     H  820   1.676   6.218   7.206 -1.8848 -1.8103  0.1169
  731MOL0     H  821   1.882   6.148   6.979  0.0488  0.0752  0.0191
  731MOL0     H  822   1.812   6.319   7.022 -0.7409  0.3249  2.2243
  731MOL0     H  823   1.944   6.339   7.207  0.0870 -0.8184  1.0247
  731MOL0     H  824   2.046   6.281   7.073 -0.4003 -2.0162 -2.0721
  731MOL0     H  825   1.929   6.135   7.302  0.6432 -2.1255  0.7717
  731MOL0     H  826   2.018   6.046   7.176 -1.0741  1.2141 -2.7716
  731MOL0     H  827   2.292   6.144   7.141  1.3893 -1.1333  1.2876
  731MOL0     H  828   2.509   6.296   7.233 -3.1877 -0.5138 -1.1610
  731MOL0     H  829   2.546   6.139   7.310  0.5231  0.2965  0.1889
  731MOL0     H  830   2.516   6.410   7.460  0.8831 -0.1979 -0.3478
  731MOL0     H  831   2.537   6.258   7.535 -1.3492  2.1908  1.3808
  731MOL0     H  832   2.763   6.341   7.520  0.1865  2.7848 -1.8454
  731MOL0     H  833   2.753   6.227   7.382 -1.1609 -1.7588  2.8601
  731MOL0     H  834   2.695   6.441   7.234  3.6149  1.7201 -2.0567
  731MOL0     H  835   2.704   6.527   7.382  0.8150 -1.5795  2.8025
  731MOL0     H  836   2.776   6.686   7.211 -0.7921 -1.0637 -1.0898
  731MOL0     H  837   2.781   6.888   7.118  0.3587  1.3810  2.0893
  731MOL0     H  838   2.894   6.916   6.984 -4.0720  2.1007  0.2802
  731MOL0     H  839   2.926   6.971   7.156 -0.3952 -0.4050  0.5264
  731MOL0     H  840   3.556   6.781   7.040  1.9280 -0.0749 -2.6820
  731MOL0     H  841   3.743   6.936   6.983  1.0093  3.3390  1.2634
  731MOL0     H  842   3.643   7.301   6.751  0.3762 -1.0302 -1.4832
  731MOL0     H  843   3.816   7.311   6.764  1.3563 -0.6772  3.5491
  731MOL0     H  844   3.652   7.073   6.674  1.0539 -2.1071 -1.3386
  731MOL0     H  845   3.757   7.182   6.576  1.0322 -0.9367 -0.7318
  731MOL0     H  846   3.824   6.937   6.686  0.3872 -0.3570  1.3934
  731MOL0     H  847   3.902   7.043   6.802  2.2191  0.5906 -0.7783
  731MOL0     H  848   3.987   7.176   6.600 -0.2421  0.4554  0.5339
  731MOL0     H  849   3.961   7.033   6.508  2.2651  0.8297  0.5350
  731MOL0     H  850   4.184   7.004   6.573 -0.0119  1.2992  0.1719
  731MOL0     H  851   4.146   7.095   6.720 -1.0447 -0.3798  1.4123
  731MOL0     H  852   4.095   6.800   6.653 -1.2119  0.7663 -0.2367
  731MOL0     H  853   4.035   6.880   6.806 -3.2141  1.7752 -1.4225
  731MOL0     H  854   4.331   6.877   6.711  0.9309 -0.8992 -0.2159
  731MOL0     H  855   4.269   6.734   6.780  0.1946  0.2069 -2.1000
  731MOL0     H  856   4.263   6.997   6.939  5.6657 -0.1045 -0.1871
  731MOL0     H  857   4.377   6.879   6.954 -0.1673  0.6589  1.2438
  731MOL0     H  858   3.464   7.254   6.929 -1.3360 -0.0971  0.1619
  731MOL0     H  859   3.282   7.101   6.979 -0.8482 -1.4248 -1.8887
  731MOL0     H  860   3.249   6.588   7.126 -0.3571 -0.1226  2.0779
  731MOL0     H  861   3.121   6.446   7.246  0.8894  1.6709  0.1170
  731MOL0     H  862   1.026   5.826   6.789  1.1157  1.3301  0.2212
  731MOL0     H  863   0.771   5.794   6.782 -1.8635  0.5163 -0.2067
  731MOL0     H  864   0.469   5.721   7.186 -0.6772  1.0006  1.2323
  731MOL0     H  865   0.184   5.576   7.278 -1.6599 -0.1973  0.2354
  731MOL0     H  866  -0.279   5.511   7.041 -0.5537  0.2251 -0.7432
  731MOL0     H  867  -0.213   5.628   6.936 -2.5431  0.4405  1.6429
  731MOL0     H  868  -0.054   5.480   6.822 -0.5969  1.6476  1.9862
  731MOL0     H  869  -0.200   5.401   6.830 -0.6510  2.8923 -1.5425
  731MOL0     H  870  -0.018   5.248   6.908 -0.2412 -2.7092  0.8001
  731MOL0     H  871   0.019   5.368   7.043 -1.8966  2.3144 -0.9950
  731MOL0     H  872  -0.273   5.265   7.030  1.4330  4.1783 -2.5047
  731MOL0     H  873  -0.186   5.332   7.157 -1.5602 -1.1158  0.8408
  731MOL0     H  874  -0.046   4.936   7.189  1.3991  1.2052  0.8810
  731MOL0     H  875  -0.041   5.740   6.796  0.9526 -0.2194 -1.1246
  731MOL0     H  876   0.305   5.957   6.676 -0.8811  1.4271  3.2843
  731MOL0     H  877   0.224   5.821   6.593 -1.1806  0.4621 -0.6620
  731MOL0     H  878   0.129   5.955   6.658 -2.7156 -2.0952  4.2366
  732MOL0     O  879   0.472   0.094   7.335  0.4245 -0.2082  0.4476
  732MOL0     C  880   0.530   0.198   7.302 -0.0848  0.3858  0.5896
  732MOL0     O  881   0.648   0.255   7.361  0.2824  0.2930  0.0798
  732MOL0     C  882   0.716   0.178   7.455 -0.6017  0.1653 -0.1348
  732MOL0     C  883   0.645   0.121   7.561  0.3572 -0.0170  0.1489
  732MOL0     C  884   0.723   0.042   7.647 -0.1250 -0.4933 -0.2403
  732MOL0     C  885   0.861   0.022   7.639 -0.2937 -0.0037  0.8518
  732MOL0     O  886   0.918  -0.060   7.739  1.1324  0.4239  0.0579
  732MOL0     C  887   1.055  -0.100   7.720  0.6591  0.0138 -0.1800
  732MOL0     C  888   1.153   0.011   7.776 -0.1963 -0.1735  0.1285
  732MOL0     C  889   1.306  -0.042   7.778 -0.0830  0.2497  0.2532
  732MOL0     C  890   1.363  -0.065   7.646  0.5591 -0.4956  0.2242
  732MOL0     C  891   1.517  -0.090   7.635 -0.2360 -0.1699 -0.2414
  732MOL0     C  892   1.596   0.035   7.593  0.1535 -0.2366 -0.7625
  732MOL0     C  893   1.748   0.008   7.613  0.4754  0.1819 -0.1250
  732MOL0     C  894   1.827   0.132   7.578 -0.7585 -0.4866 -0.4481
  732MOL0     N  895   1.825   0.237   7.685  0.2026 -0.5379  0.2007
  732MOL0     C  896   1.936   0.276   7.767  0.5157  0.4509  0.5556
  732MOL0     C  897   1.887   0.380   7.837 -0.6240  0.3454 -0.6535
  732MOL0     C  898   1.956   0.442   7.953 -0.2233 -0.5017  0.3511
  732MOL0     C  899   2.012   0.581   7.911  0.0563 -0.7698 -0.0467
  732MOL0     C  900   2.115   0.622   8.030 -0.5564 -0.3937 -1.0162
  732MOL0     C  901   2.244   0.538   8.030  0.2092  0.7015  1.1511
  732MOL0     O  902   2.299   0.508   7.898  0.3629  0.2940 -0.8212
  732MOL0     C  903   2.433   0.489   7.897  0.0787  0.2404 -0.2078
  732MOL0     C  904   2.504   0.536   7.789 -0.9461 -0.9796  0.0876
  732MOL0     C  905   2.639   0.537   7.774  0.7177  0.3573  0.0339
  732MOL0     C  906   2.693   0.614   7.653  0.3043 -0.5889  0.1608
  732MOL0     C  907   2.712   0.467   7.877 -0.9298  0.3054  0.4475
  732MOL0     C  908   2.865   0.447   7.873 -0.2730  0.2314  0.0074
  732MOL0     O  909   2.922   0.395   7.984 -0.4215 -0.2888  0.6081
  732MOL0     C  910   3.057   0.369   7.992  0.1828 -0.4715  0.4550
  732MOL0     C  911   3.159   0.454   7.944 -0.1826  0.0193  0.6859
  732MOL0     C  912   3.291   0.407   7.955 -0.3705  0.0850  1.1907
  732MOL0     C  913   3.316   0.280   8.007  0.7144  0.0118  0.4135
  732MOL0     O  914   3.450   0.250   8.012  0.0863 -0.2838 -0.1125
  732MOL0     C  915   3.497   0.113   8.034  1.0647 -0.2131 -0.7589
  732MOL0     C  916   3.649   0.107   8.036  0.0417 -0.3765 -0.2394
  732MOL0     C  917   3.692  -0.033   8.078 -0.3418 -0.2498 -0.1074
  732MOL0     C  918   3.846  -0.038   8.091  0.3007 -0.2941 -0.1700
  732MOL0     C  919   3.894  -0.165   8.166 -0.1885  0.8674  0.2787
  732MOL0     C  920   3.856  -0.152   8.315  0.2414 -0.8833 -0.1239
  732MOL0     C  921   3.912  -0.259   8.396 -0.3918  0.2854  0.7428
  732MOL0     C  922   3.866  -0.395   8.347  0.1494  0.6536 -0.2532
  732MOL0    Cl  923   3.895  -0.523   8.481  0.3016 -0.1809  0.0721
  732MOL0     C  924   3.215   0.197   8.052 -0.5682  0.3914 -0.7928
  732MOL0     C  925   3.085   0.240   8.036  0.2827  0.3500 -0.2802
  732MOL0     O  926   2.922   0.444   7.764 -0.3449 -0.2088 -0.2556
  732MOL0     C  927   2.644   0.423   7.993 -0.4909 -0.0551  0.5638
  732MOL0     C  928   2.511   0.432   7.999 -0.5619 -0.0242 -0.0336
  732MOL0     N  929   1.752   0.405   7.806 -0.1645  0.0904 -0.1607
  732MOL0     N  930   1.722   0.318   7.712  0.0609 -0.3774  0.0021
  732MOL0     C  931   0.925   0.090   7.538 -0.0283  0.1353 -0.2174
  732MOL0     C  932   0.851   0.156   7.442 -0.8903 -0.5422  0.0466
  732MOL0     C  933   0.480   0.261   7.187 -0.0419 -1.1358  0.0260
  732MOL0     C  934   0.342   0.286   7.184 -0.5965 -1.3776  0.1777
  732MOL0     C  935   0.281   0.343   7.067 -1.2348  0.0144 -0.3300
  732MOL0     C  936   0.354   0.368   6.947 -0.5233 -0.1135 -0.0599
  732MOL0     O  937   0.313   0.432   6.834 -0.4761 -0.5764  0.4689
  732MOL0     C  938   0.196   0.507   6.832 -0.3313  0.6282  0.7364
  732MOL0     C  939   0.215   0.656   6.820  0.4373  0.2287  0.1211
  732MOL0     C  940   0.324   0.689   6.715 -0.3499 -0.1633 -0.4509
  732MOL0     C  941   0.455   0.710   6.802  0.0163 -0.0791  0.1548
  732MOL0     C  942   0.531   0.824   6.745  0.2425 -0.1063 -0.7618
  732MOL0     C  943   0.618   0.904   6.717  0.7952 -0.3509  0.4261
  732MOL0     C  944   0.486   0.329   6.949  0.0510 -0.0481 -0.1307
  732MOL0     C  945   0.546   0.271   7.065  0.1651  0.6552 -1.0857
  732MOL0     C  946   0.691   0.237   7.060 -0.3861 -0.2437  0.4327
  732MOL0     H  947   0.538   0.131   7.577  0.0411 -2.2358 -0.3165
  732MOL0     H  948   0.676  -0.008   7.731  0.3456  3.3793  2.6404
  732MOL0     H  949   1.067  -0.115   7.613 -0.7764  2.8137 -0.8375
  732MOL0     H  950   1.080  -0.187   7.783 -1.8681 -0.7878 -0.1666
  732MOL0     H  951   1.144   0.105   7.721  2.4263 -1.2938 -2.4324
  732MOL0     H  952   1.127   0.042   7.878  0.0684  0.5894 -0.0265
  732MOL0     H  953   1.363   0.042   7.819 -0.4014  2.1465 -2.8458
  732MOL0     H  954   1.307  -0.133   7.839  1.8452  0.5416  0.7046
  732MOL0     H  955   1.314  -0.151   7.600  0.4024 -0.3591  0.1403
  732MOL0     H  956   1.338   0.018   7.580  0.2975 -1.3979 -0.8550
  732MOL0     H  957   1.537  -0.160   7.554  1.9139  2.9166 -2.6293
  732MOL0     H  958   1.563  -0.117   7.731  1.7596  1.6247 -0.6040
  732MOL0     H  959   1.561   0.055   7.492 -0.9931 -0.3869 -0.4102
  732MOL0     H  960   1.566   0.116   7.660 -3.3181 -2.7692  1.0767
  732MOL0     H  961   1.777  -0.072   7.544  0.1168  1.3309 -1.6425
  732MOL0     H  962   1.772  -0.032   7.712  1.1883 -2.1074 -1.1398
  732MOL0     H  963   1.932   0.101   7.572 -0.8592 -1.0238  0.4129
  732MOL0     H  964   1.792   0.169   7.481 -0.7786 -0.2701 -0.3597
  732MOL0     H  965   2.029   0.223   7.789 -0.3125 -0.3365  2.3610
  732MOL0     H  966   2.025   0.363   7.985  0.2872 -1.1930 -2.2675
  732MOL0     H  967   1.884   0.453   8.035 -3.7177 -1.8544 -2.3208
  732MOL0     H  968   2.074   0.578   7.820  1.6308 -0.0542  0.9672
  732MOL0     H  969   1.926   0.647   7.898 -0.3548 -1.4777 -1.0944
  732MOL0     H  970   2.145   0.725   8.009 -0.0210 -0.6933 -1.7735
  732MOL0     H  971   2.076   0.617   8.132  3.0971 -1.3197  0.4950
  732MOL0     H  972   2.319   0.597   8.084 -0.3628  1.7406  0.8412
  732MOL0     H  973   2.220   0.440   8.073 -4.1179 -0.8108 -3.7470
  732MOL0     H  974   2.442   0.580   7.711 -2.1666  3.4412  3.1638
  732MOL0     H  975   2.619   0.623   7.573 -1.3651  1.4330  1.7898
  732MOL0     H  976   2.776   0.557   7.611 -0.7700 -0.6000 -2.1070
  732MOL0     H  977   2.714   0.720   7.671  1.6018 -0.6026 -1.1475
  732MOL0     H  978   3.147   0.554   7.905 -4.7295 -0.5070  0.2742
  732MOL0     H  979   3.372   0.468   7.917 -0.4011  1.0021  2.5083
  732MOL0     H  980   3.459   0.072   8.129  0.1932  0.5700 -0.7545
  732MOL0     H  981   3.454   0.053   7.954  0.1707 -0.7059  0.0656
  732MOL0     H  982   3.689   0.116   7.935 -0.3715 -2.8899 -0.6836
  732MOL0     H  983   3.696   0.179   8.104  0.5032  1.9694 -2.8735
  732MOL0     H  984   3.661  -0.098   7.995 -0.4251 -0.0912 -0.2013
  732MOL0     H  985   3.642  -0.065   8.170 -0.0481  0.0152  0.1451
  732MOL0     H  986   3.881   0.054   8.139  1.2187 -1.6635  1.9301
  732MOL0     H  987   3.879  -0.025   7.987 -2.5015  3.9574 -0.7735
  732MOL0     H  988   3.834  -0.243   8.117 -0.1886  0.8260  0.3449
  732MOL0     H  989   4.000  -0.185   8.149 -0.5425 -0.2427 -0.7656
  732MOL0     H  990   3.749  -0.142   8.334  0.5884  1.1469  1.1110
  732MOL0     H  991   3.904  -0.059   8.347 -0.1037  0.2621 -2.7176
  732MOL0     H  992   3.883  -0.253   8.502 -1.0062 -0.1603  0.6098
  732MOL0     H  993   4.021  -0.252   8.395 -0.3691  1.7283  3.4652
  732MOL0     H  994   3.930  -0.425   8.264  0.3151  2.0283 -0.6376
  732MOL0     H  995   3.760  -0.390   8.321  0.6063  0.0965 -2.4058
  732MOL0     H  996   3.243   0.101   8.095 -1.1750  1.4914  2.3720
  732MOL0     H  997   2.994   0.189   8.065  0.9181 -0.9729 -0.5361
  732MOL0     H  998   2.686   0.368   8.076 -1.1593 -0.3557  0.7075
  732MOL0     H  999   2.463   0.388   8.086 -2.0098 -0.8652 -1.2102
  732MOL0     H 1000   1.033   0.095   7.529  0.0817  1.1315  1.2744
  732MOL0     H 1001   0.904   0.215   7.368  0.4215 -0.3711  1.0791
  732MOL0     H 1002   0.280   0.263   7.269 -0.7848  2.6499  1.3576
  732MOL0     H 1003   0.176   0.371   7.072 -1.4190 -0.4936 -1.2404
  732MOL0     H 1004   0.146   0.463   6.745  0.9905  1.1588 -0.3188
  732MOL0     H 1005   0.132   0.495   6.920  1.1403  1.6024  1.9854
  732MOL0     H 1006   0.233   0.702   6.917 -0.1154  3.4158 -1.1854
  732MOL0     H 1007   0.122   0.688   6.772  1.3333  2.5554 -0.1622
  732MOL0     H 1008   0.341   0.615   6.636 -4.6372 -0.0838 -1.6531
  732MOL0     H 1009   0.294   0.779   6.660  0.5955  0.7496  0.4663
  732MOL0     H 1010   0.522   0.624   6.797 -1.1050 -0.9519 -0.2381
  732MOL0     H 1011   0.426   0.738   6.903 -3.5636 -0.1583 -0.7042
  732MOL0     H 1012   0.701   0.961   6.681 -0.0878 -0.0604 -1.2527
  732MOL0     H 1013   0.547   0.360   6.864 -1.2706  1.4837 -0.5705
  732MOL0     H 1014   0.735   0.239   6.960  1.3992  0.6941  1.1850
  732MOL0     H 1015   0.745   0.307   7.124 -0.1166  1.6522 -1.7073
  732MOL0     H 1016   0.693   0.137   7.104 -2.9507 -0.7654 -0.4748
  733MOL0     O 1017   7.944   6.471   5.441 -0.2220  0.3767  0.5602
  733MOL0     C 1018   7.910   6.581   5.391 -0.2948  0.4445 -0.0607
  733MOL0     O 1019   7.992   6.687   5.379 -0.6452 -0.3709  0.7243
  733MOL0     C 1020   8.124   6.669   5.410 -0.6985  0.1752  0.1229
  733MOL0     C 1021   8.173   6.763   5.502 -0.5283 -0.1909  0.4625
  733MOL0     C 1022   8.309   6.769   5.535 -0.3920 -0.4332  0.1117
  733MOL0     C 1023   8.396   6.679   5.467 -0.6054 -0.7207  0.1676
  733MOL0     O 1024   8.533   6.672   5.477 -0.4846  0.4265  0.1825
  733MOL0     C 1025   8.607   6.728   5.582  0.3758 -0.7392 -0.4734
  733MOL0     C 1026   8.753   6.709   5.551  0.4403 -0.4169 -0.8722
  733MOL0     C 1027   8.842   6.771   5.652 -0.6549 -0.2082  0.1444
  733MOL0     C 1028   8.833   6.928   5.668  0.3479 -0.0313 -0.0150
  733MOL0     C 1029   8.969   6.986   5.722  0.0327  0.6920  0.5618
  733MOL0     C 1030   9.054   6.905   5.825  0.1266 -0.2096 -0.3735
  733MOL0     C 1031   9.170   6.993   5.878  0.7806 -0.5290 -0.3418
  733MOL0     C 1032   9.296   6.986   5.790  0.1086  0.5796 -0.4955
  733MOL0     N 1033   9.416   7.064   5.830 -0.9369 -0.1595  0.0651
  733MOL0     C 1034   9.529   7.088   5.753  0.1264  0.0752 -0.1995
  733MOL0     C 1035   9.622   7.154   5.817 -0.1007  0.1937  0.9535
  733MOL0     C 1036   9.754   7.208   5.766 -0.6111 -0.3605 -0.2680
  733MOL0     C 1037   9.868   7.106   5.756  0.2972 -0.3844  0.3984
  733MOL0     C 1038  10.009   7.150   5.702 -0.1174  0.2694 -0.0005
  733MOL0     C 1039  10.099   7.220   5.807  0.5197  0.1405  0.1503
  733MOL0     O 1040  10.215   7.274   5.748  0.0067 -0.0577  0.1274
  733MOL0     C 1041  10.324   7.183   5.729 -0.8714 -0.4497  0.4016
  733MOL0     C 1042  10.318   7.037   5.730 -0.1815 -0.4241  0.5389
  733MOL0     C 1043  10.437   6.958   5.724  0.0081 -0.7418  0.3324
  733MOL0     C 1044  10.424   6.813   5.730 -0.2635  0.4349  0.3165
  733MOL0     C 1045  10.564   7.026   5.708  0.1510  0.6440 -0.4487
  733MOL0     C 1046  10.697   6.955   5.700  0.3670  0.3013  0.2573
  733MOL0     O 1047  10.790   7.005   5.610  0.5220  0.2688 -0.3691
  733MOL0     C 1048  10.923   6.973   5.610  1.0104  0.2242 -1.3251
  733MOL0     C 1049  10.953   6.844   5.596  0.2082  0.1964  0.4274
  733MOL0     C 1050  11.085   6.802   5.586  0.1647  0.0287  0.0894
  733MOL0     C 1051  11.195   6.889   5.607  0.5711 -0.0931  0.1470
  733MOL0     O 1052  11.319   6.840   5.601 -0.1783 -0.0816  0.6368
  733MOL0     C 1053  11.437   6.917   5.623 -0.0272  0.1296  0.2125
  733MOL0     C 1054  11.551   6.827   5.618  0.2475 -0.0384 -0.5098
  733MOL0     C 1055  11.682   6.915   5.623  0.1123  0.1593  0.2457
  733MOL0     C 1056  11.790   6.815   5.594 -0.7358  0.2913  0.3144
  733MOL0     C 1057  11.930   6.884   5.574 -0.7818  0.4871  0.0249
  733MOL0     C 1058  12.041   6.789   5.549 -0.8405  0.3723  0.7078
  733MOL0     C 1059  12.169   6.861   5.586 -0.1600 -0.2909 -0.3538
  733MOL0     C 1060  12.293   6.789   5.533 -0.7919  0.6474 -0.1698
  733MOL0    Cl 1061  12.314   6.637   5.623 -0.2006  0.1208  0.3914
  733MOL0     C 1062  11.162   7.022   5.636 -0.0951 -1.0218  0.2408
  733MOL0     C 1063  11.025   7.058   5.640  0.1535 -0.4320 -0.7734
  733MOL0     O 1064  10.718   6.854   5.770 -0.3208 -0.0817  0.4761
  733MOL0     C 1065  10.562   7.167   5.714 -0.6744 -0.2679  0.4106
  733MOL0     C 1066  10.444   7.247   5.725 -0.0253 -0.0969  0.3479
  733MOL0     N 1067   9.569   7.172   5.941 -0.9391 -0.4926 -0.5058
  733MOL0     N 1068   9.461   7.107   5.956  0.9181 -0.0647  0.2306
  733MOL0     C 1069   8.345   6.579   5.382  0.5509  1.0553 -0.6031
  733MOL0     C 1070   8.209   6.571   5.357  1.0319 -0.3035 -0.2927
  733MOL0     C 1071   7.783   6.606   5.339 -0.0862 -0.4034  0.1305
  733MOL0     C 1072   7.738   6.739   5.321 -0.2095 -0.0308  0.4375
  733MOL0     C 1073   7.611   6.773   5.267  0.2467  0.1237 -0.4966
  733MOL0     C 1074   7.525   6.674   5.227  0.5181 -0.1066 -0.3557
  733MOL0     O 1075   7.412   6.720   5.163  0.1791  0.2386 -0.3551
  733MOL0     C 1076   7.321   6.623   5.097  0.0861 -0.3705  0.0874
  733MOL0     C 1077   7.210   6.690   5.019  1.2096 -0.4146  0.0876
  733MOL0     C 1078   7.115   6.586   4.950 -0.8898 -0.9689  0.1074
  733MOL0     C 1079   6.977   6.652   4.915  0.7510 -0.1014 -0.1190
  733MOL0     C 1080   6.877   6.553   4.878 -1.2322  0.4179  0.4683
  733MOL0     C 1081   6.801   6.469   4.839  0.1897  0.3517 -0.0190
  733MOL0     C 1082   7.567   6.545   5.240  0.2217 -0.1605  0.3804
  733MOL0     C 1083   7.690   6.499   5.301 -0.4283  0.0728  0.1039
  733MOL0     C 1084   7.726   6.354   5.322  0.1268  0.3812  0.0232
  733MOL0     H 1085   8.102   6.835   5.541  2.0952  1.4082  2.6026
  733MOL0     H 1086   8.346   6.842   5.607 -1.1256  1.1302 -1.0285
  733MOL0     H 1087   8.593   6.665   5.671  2.0735 -0.0390  0.3344
  733MOL0     H 1088   8.574   6.831   5.592 -0.7484 -1.2137  1.2236
  733MOL0     H 1089   8.774   6.602   5.545  0.7254 -0.6547  2.5274
  733MOL0     H 1090   8.777   6.751   5.453  0.8543  3.5244  0.7323
  733MOL0     H 1091   8.825   6.726   5.750  1.8445  0.3191  0.8834
  733MOL0     H 1092   8.942   6.748   5.612 -1.9419 -0.0816 -3.5852
  733MOL0     H 1093   8.815   6.982   5.574  2.2694  0.4418 -0.1686
  733MOL0     H 1094   8.747   6.950   5.731  0.0695  2.8453 -1.2609
  733MOL0     H 1095   8.949   7.090   5.752  1.3859  1.8553 -2.2391
  733MOL0     H 1096   9.025   6.992   5.629 -1.5112  0.0962 -0.4478
  733MOL0     H 1097   8.988   6.884   5.910  0.2659  2.2406  0.4277
  733MOL0     H 1098   9.084   6.805   5.794 -2.0417 -0.9385 -0.3088
  733MOL0     H 1099   9.197   6.966   5.980  2.5094  3.2872  0.3723
  733MOL0     H 1100   9.144   7.099   5.878 -0.0935 -0.6584  2.5531
  733MOL0     H 1101   9.323   6.881   5.773 -4.2674 -0.9184  0.5056
  733MOL0     H 1102   9.281   7.033   5.693  2.5419  1.2235 -0.6295
  733MOL0     H 1103   9.540   7.061   5.649 -1.3478 -0.8600 -0.1457
  733MOL0     H 1104   9.795   7.283   5.833  1.7471 -1.3853 -0.4524
  733MOL0     H 1105   9.743   7.256   5.668 -3.0767 -0.5954 -0.1784
  733MOL0     H 1106   9.883   7.052   5.850  0.6458 -1.4937 -0.2777
  733MOL0     H 1107   9.827   7.029   5.690 -3.4347  2.2702 -0.7426
  733MOL0     H 1108  10.060   7.068   5.650  1.2770  1.2700 -0.2481
  733MOL0     H 1109   9.987   7.220   5.620 -1.8823 -0.1317  0.0841
  733MOL0     H 1110  10.049   7.298   5.865 -0.1574 -0.8839  0.9782
  733MOL0     H 1111  10.126   7.140   5.877 -0.5931 -1.6952 -1.4299
  733MOL0     H 1112  10.221   6.988   5.721 -2.1671  2.8923  1.8206
  733MOL0     H 1113  10.467   6.765   5.641 -0.3228  1.2293 -0.1501
  733MOL0     H 1114  10.322   6.780   5.750 -0.0245 -0.6253 -0.1243
  733MOL0     H 1115  10.475   6.793   5.825 -0.4245 -2.5020 -0.1230
  733MOL0     H 1116  10.874   6.770   5.583 -0.9098  0.9089  2.6044
  733MOL0     H 1117  11.106   6.695   5.584 -3.4414 -0.8024 -0.4053
  733MOL0     H 1118  11.445   6.996   5.548 -1.3438  1.0185  0.9629
  733MOL0     H 1119  11.433   6.963   5.722 -0.0497  0.3621  0.1041
  733MOL0     H 1120  11.548   6.761   5.706 -0.7916  2.0571  1.1071
  733MOL0     H 1121  11.531   6.771   5.526  0.4420  0.3299 -0.7767
  733MOL0     H 1122  11.689   6.963   5.722  0.9709  0.9162 -0.1649
  733MOL0     H 1123  11.675   6.987   5.542 -2.6249 -0.3595 -0.0553
  733MOL0     H 1124  11.766   6.757   5.503  0.6841  0.8779 -0.4596
  733MOL0     H 1125  11.792   6.754   5.685 -2.1404  1.4042  1.1228
  733MOL0     H 1126  11.928   6.962   5.498  0.3903  0.1173 -0.3941
  733MOL0     H 1127  11.956   6.938   5.665 -0.5389 -0.0344  0.2696
  733MOL0     H 1128  12.042   6.749   5.447  1.0308  3.2689 -0.5196
  733MOL0     H 1129  12.035   6.695   5.605  0.2582 -0.5362 -0.6164
  733MOL0     H 1130  12.170   6.870   5.695 -1.6506  0.3760 -0.3702
  733MOL0     H 1131  12.165   6.957   5.535 -2.0007 -1.1531 -1.9834
  733MOL0     H 1132  12.382   6.852   5.535 -1.2501  1.3530  2.4175
  733MOL0     H 1133  12.278   6.755   5.431 -0.9014 -0.6884  0.2715
  733MOL0     H 1134  11.232   7.102   5.659 -0.4890 -0.7450  0.4939
  733MOL0     H 1135  11.007   7.160   5.673  0.9083 -0.2875 -0.7717
  733MOL0     H 1136  10.660   7.214   5.708  0.8182 -2.9113  2.4347
  733MOL0     H 1137  10.444   7.356   5.730  0.3304 -0.0369 -0.7190
  733MOL0     H 1138   8.408   6.501   5.341 -1.0052  0.0257 -1.1327
  733MOL0     H 1139   8.174   6.503   5.280  0.0653  2.0361 -2.0218
  733MOL0     H 1140   7.809   6.817   5.347  1.7672 -1.0002 -1.6700
  733MOL0     H 1141   7.588   6.879   5.266  1.8764  0.5086 -0.9505
  733MOL0     H 1142   7.376   6.551   5.036  1.5001  0.5502  0.2134
  733MOL0     H 1143   7.273   6.558   5.170  3.0354 -1.2416  1.4262
  733MOL0     H 1144   7.252   6.749   4.937 -1.7875 -1.5110 -2.4147
  733MOL0     H 1145   7.146   6.748   5.085 -1.3144 -2.4980 -0.3308
  733MOL0     H 1146   7.170   6.538   4.869  0.1726  0.4516 -0.0430
  733MOL0     H 1147   7.100   6.517   5.034 -0.3691  1.1522  2.0521
  733MOL0     H 1148   6.997   6.719   4.831  0.5074  0.7532  0.4953
  733MOL0     H 1149   6.935   6.711   4.996  0.5829  1.4385 -1.2740
  733MOL0     H 1150   6.720   6.406   4.808 -0.2795 -0.2312  2.2217
  733MOL0     H 1151   7.498   6.473   5.198 -3.2927  3.1099  0.0952
  733MOL0     H 1152   7.645   6.292   5.283 -2.1123  3.0872  0.0284
  733MOL0     H 1153   7.817   6.332   5.267  2.3025  2.0132  2.7338
  733MOL0     H 1154   7.735   6.336   5.430 -2.1538 -1.0749  0.0447
  734MOL0     O 1155   2.523   7.459   9.053 -0.0100  0.4504  0.2653
  734MOL0     C 1156   2.483   7.378   8.970  0.0164 -0.7438 -0.2781
  734MOL0     O 1157   2.525   7.366   8.842 -0.1546  0.9614  0.1689
  734MOL0     C 1158   2.636   7.434   8.800  0.5444  0.3881  0.2018
  734MOL0     C 1159   2.621   7.526   8.692  0.0252  0.1092 -0.2697
  734MOL0     C 1160   2.722   7.612   8.657 -0.3923  0.5145 -0.5729
  734MOL0     C 1161   2.848   7.606   8.724  0.2575 -1.1108  0.4520
  734MOL0     O 1162   2.932   7.705   8.672  0.8541  0.2021  1.0195
  734MOL0     C 1163   3.071   7.700   8.707 -0.0618  0.6876 -0.2921
  734MOL0     C 1164   3.143   7.826   8.691 -0.2257  0.0424  0.3862
  734MOL0     C 1165   3.180   7.862   8.543  0.2188 -0.0867  0.7685
  734MOL0     C 1166   3.267   7.986   8.529  0.1927 -1.0684  0.0497
  734MOL0     C 1167   3.412   7.949   8.537 -0.7081  0.1295 -0.4433
  734MOL0     C 1168   3.510   8.070   8.539 -0.4879 -0.3810  0.5421
  734MOL0     C 1169   3.656   8.010   8.565 -0.0578 -1.0482  0.3129
  734MOL0     C 1170   3.698   8.025   8.717  1.5977  0.4486  0.0671
  734MOL0     N 1171   3.828   7.962   8.733  0.2504  0.1105 -0.5469
  734MOL0     C 1172   3.949   8.039   8.732 -0.6031  0.4839 -0.1180
  734MOL0     C 1173   4.044   7.947   8.767  0.7821  0.0195 -0.9531
  734MOL0     C 1174   4.196   7.972   8.761  0.1386  0.2807  0.7151
  734MOL0     C 1175   4.237   8.027   8.898  0.1328  0.0809  0.1643
  734MOL0     C 1176   4.369   8.097   8.904 -0.2987 -1.2674  0.3032
  734MOL0     C 1177   4.477   7.999   8.866  0.3255  0.3961 -0.7703
  734MOL0     O 1178   4.602   8.058   8.914  0.2577 -0.5848 -0.3097
  734MOL0     C 1179   4.724   7.996   8.913  0.3815  0.6919 -1.3714
  734MOL0     C 1180   4.838   8.071   8.943 -0.3314  1.0765 -0.4230
  734MOL0     C 1181   4.969   8.020   8.931  0.2815 -0.0714 -1.0416
  734MOL0     C 1182   5.080   8.121   8.954 -0.7923  0.3121 -0.3659
  734MOL0     C 1183   4.984   7.881   8.897  0.2968  0.2726  0.0420
  734MOL0     C 1184   5.113   7.821   8.860 -0.3040  0.2925 -0.6237
  734MOL0     O 1185   5.099   7.689   8.820  0.0869  0.3601  0.0701
  734MOL0     C 1186   5.179   7.628   8.724  0.1226 -0.2416  0.0682
  734MOL0     C 1187   5.278   7.539   8.762 -0.6790 -0.2846  0.3783
  734MOL0     C 1188   5.344   7.470   8.663 -0.0682  0.0160 -0.1550
  734MOL0     C 1189   5.313   7.480   8.528 -0.1982 -0.1138 -0.5571
  734MOL0     O 1190   5.387   7.400   8.441 -0.2218  0.0113 -1.6882
  734MOL0     C 1191   5.416   7.451   8.309  0.4063  0.3298  0.0072
  734MOL0     C 1192   5.509   7.353   8.240 -0.9894 -0.8487 -0.9574
  734MOL0     C 1193   5.455   7.218   8.209  0.7164  0.6869 -0.0950
  734MOL0     C 1194   5.558   7.120   8.144  0.0106 -0.0345 -0.3547
  734MOL0     C 1195   5.649   7.056   8.242 -0.0116  0.1355 -0.9175
  734MOL0     C 1196   5.716   6.935   8.172  0.3179 -0.5588  0.8574
  734MOL0     C 1197   5.632   6.810   8.134  0.8146  0.1018 -0.3538
  734MOL0     C 1198   5.704   6.704   8.054 -0.2767 -0.1105 -0.3623
  734MOL0    Cl 1199   5.596   6.589   7.978 -0.0173  0.0981  0.0825
  734MOL0     C 1200   5.212   7.571   8.492  0.6770 -0.0883 -0.4046
  734MOL0     C 1201   5.140   7.634   8.590 -0.2292  0.2035  0.2593
  734MOL0     O 1202   5.218   7.883   8.853 -0.4050 -0.3820 -0.4258
  734MOL0     C 1203   4.870   7.802   8.891  0.6290 -0.2577  0.3168
  734MOL0     C 1204   4.739   7.862   8.885 -0.7170 -0.4548 -0.1204
  734MOL0     N 1205   3.985   7.824   8.788 -0.7960 -0.0665  0.3115
  734MOL0     N 1206   3.858   7.832   8.765 -0.0825 -0.1140 -0.1181
  734MOL0     C 1207   2.858   7.521   8.838 -0.6232  0.1611 -0.0157
  734MOL0     C 1208   2.749   7.441   8.879  0.3077  0.2972  0.8210
  734MOL0     C 1209   2.372   7.288   9.014 -0.4932 -0.8495 -0.7756
  734MOL0     C 1210   2.240   7.303   8.975 -0.8045 -0.2273  0.1450
  734MOL0     C 1211   2.146   7.207   8.995  0.0626 -0.3750 -0.0480
  734MOL0     C 1212   2.185   7.093   9.053 -0.4387 -0.2450 -0.0966
  734MOL0     O 1213   2.099   6.993   9.080  0.1172 -0.1098  0.3318
  734MOL0     C 1214   2.027   7.003   9.211  0.3947 -0.0345  0.0954
  734MOL0     C 1215   2.102   6.928   9.322  0.8199  0.1856 -0.9977
  734MOL0     C 1216   2.115   6.771   9.279  0.7813  0.4176 -0.6410
  734MOL0     C 1217   2.099   6.661   9.388  0.6740 -1.2219 -0.5360
  734MOL0     C 1218   1.964   6.665   9.450 -0.2221 -0.7997  0.1555
  734MOL0     C 1219   1.847   6.654   9.471  0.1590  0.1534 -1.0694
  734MOL0     C 1220   2.319   7.072   9.094 -0.1484  0.1407  0.3139
  734MOL0     C 1221   2.415   7.170   9.076 -0.6369 -0.5263 -0.2077
  734MOL0     C 1222   2.552   7.146   9.131 -0.3506  0.2213  0.1344
  734MOL0     H 1223   2.530   7.539   8.633  0.8214  1.4493 -1.2661
  734MOL0     H 1224   2.698   7.677   8.574 -1.4570  1.5880  0.5240
  734MOL0     H 1225   3.129   7.632   8.644  0.5330  0.2090  0.7465
  734MOL0     H 1226   3.083   7.660   8.808 -1.3309 -0.2968 -0.5026
  734MOL0     H 1227   3.090   7.908   8.740  1.3708 -0.3948  3.0272
  734MOL0     H 1228   3.237   7.810   8.745 -1.1122 -1.0092  1.6904
  734MOL0     H 1229   3.207   7.771   8.488 -0.1912  1.4765 -2.2124
  734MOL0     H 1230   3.091   7.883   8.484 -0.4607 -1.3213  1.3079
  734MOL0     H 1231   3.257   8.037   8.432  1.2009  1.5369  1.2213
  734MOL0     H 1232   3.237   8.071   8.592  1.1099 -1.0138  0.4177
  734MOL0     H 1233   3.440   7.884   8.454  1.7151  0.7994 -0.2094
  734MOL0     H 1234   3.428   7.899   8.633 -0.2141  0.2166 -0.4814
  734MOL0     H 1235   3.498   8.118   8.442  0.4987 -0.7771  0.2122
  734MOL0     H 1236   3.484   8.141   8.618 -0.9399  0.0323  0.0303
  734MOL0     H 1237   3.723   8.077   8.509  0.4151 -0.3116  1.7222
  734MOL0     H 1238   3.664   7.905   8.534  0.6352 -0.8367 -0.2729
  734MOL0     H 1239   3.687   8.127   8.753  2.0130  0.4601  0.1682
  734MOL0     H 1240   3.624   7.975   8.779  1.7580 -1.9682 -1.5363
  734MOL0     H 1241   3.966   8.142   8.703  1.8532 -0.2516 -1.6047
  734MOL0     H 1242   4.213   8.041   8.678  0.6704 -1.5730 -0.7853
  734MOL0     H 1243   4.243   7.874   8.745  4.2871  1.6733  2.9344
  734MOL0     H 1244   4.173   8.103   8.943 -1.1344 -1.6814  1.4626
  734MOL0     H 1245   4.228   7.948   8.973  0.6937 -0.0444  0.1095
  734MOL0     H 1246   4.369   8.188   8.843 -0.3255 -0.5473  1.3438
  734MOL0     H 1247   4.395   8.140   9.002 -2.4429 -1.2138  0.9181
  734MOL0     H 1248   4.453   7.905   8.916 -1.2972  0.1788 -1.8720
  734MOL0     H 1249   4.476   7.984   8.757 -2.1982 -1.5308 -0.5660
  734MOL0     H 1250   4.822   8.174   8.974  0.3300  1.0304  0.0805
  734MOL0     H 1251   5.051   8.215   9.003 -0.4684  0.2106  0.0215
  734MOL0     H 1252   5.135   8.130   8.860  1.6453 -1.8651  0.7334
  734MOL0     H 1253   5.151   8.079   9.026 -1.4907 -0.7406 -0.2696
  734MOL0     H 1254   5.306   7.540   8.867 -1.8955  2.8115  0.7871
  734MOL0     H 1255   5.431   7.411   8.692 -1.1048 -0.1646  2.9941
  734MOL0     H 1256   5.321   7.471   8.257 -0.2748  2.0170  1.7667
  734MOL0     H 1257   5.476   7.541   8.323  1.2756 -0.7308  4.8653
  734MOL0     H 1258   5.533   7.398   8.143 -2.7421 -0.7042 -1.3583
  734MOL0     H 1259   5.603   7.339   8.293 -0.7723 -2.6634 -1.7389
  734MOL0     H 1260   5.369   7.216   8.142  1.2531 -0.4462 -0.7750
  734MOL0     H 1261   5.421   7.158   8.294 -3.8070 -2.0278 -3.3496
  734MOL0     H 1262   5.609   7.170   8.062 -0.0316  3.5371  1.5982
  734MOL0     H 1263   5.500   7.036   8.103  1.6238 -0.3361 -2.1256
  734MOL0     H 1264   5.720   7.128   8.283  1.4673 -1.3681 -0.7004
  734MOL0     H 1265   5.595   7.029   8.333 -0.9910  1.3170 -1.1199
  734MOL0     H 1266   5.794   6.915   8.246  0.5446 -1.3976  0.4031
  734MOL0     H 1267   5.771   6.974   8.086 -0.9882 -0.2857  0.1224
  734MOL0     H 1268   5.550   6.846   8.072 -0.6111  0.7032  1.7689
  734MOL0     H 1269   5.584   6.772   8.224  1.8883  0.3776  0.3625
  734MOL0     H 1270   5.779   6.664   8.122  1.8969 -1.0382 -3.1626
  734MOL0     H 1271   5.767   6.755   7.981 -0.5192 -0.1136 -0.5770
  734MOL0     H 1272   5.183   7.600   8.392  0.3331  0.7458 -0.0731
  734MOL0     H 1273   5.052   7.697   8.579  0.2790  0.5552 -2.1574
  734MOL0     H 1274   4.867   7.696   8.873 -1.4561 -0.4443  1.4251
  734MOL0     H 1275   4.652   7.800   8.862 -1.5597 -0.1545  2.0046
  734MOL0     H 1276   2.953   7.518   8.889 -2.4833  0.4429  3.7728
  734MOL0     H 1277   2.757   7.378   8.967 -1.2366  0.5484  1.1609
  734MOL0     H 1278   2.219   7.378   8.899  0.9731 -0.0723 -0.2348
  734MOL0     H 1279   2.050   7.218   8.944  1.2289  0.5545 -2.1709
  734MOL0     H 1280   2.010   7.109   9.232 -4.9343 -1.1748  3.4602
  734MOL0     H 1281   1.925   6.962   9.217  0.2098 -0.3798 -3.1711
  734MOL0     H 1282   2.042   6.948   9.412 -0.8749  1.2598 -2.3113
  734MOL0     H 1283   2.205   6.959   9.342  0.9182 -1.6252  1.9457
  734MOL0     H 1284   2.044   6.753   9.198  2.0453  1.8838 -2.1409
  734MOL0     H 1285   2.214   6.764   9.235  2.1511  1.8913  1.9316
  734MOL0     H 1286   2.178   6.680   9.462 -1.1440  0.7865  1.0024
  734MOL0     H 1287   2.113   6.562   9.343  0.8325 -1.6286  0.3693
  734MOL0     H 1288   1.741   6.643   9.478 -0.0096  1.3423 -1.5599
  734MOL0     H 1289   2.352   6.984   9.149  1.0181  1.0225  1.1029
  734MOL0     H 1290   2.568   7.039   9.149 -0.2203  0.1885 -0.1781
  734MOL0     H 1291   2.633   7.193   9.074  0.2997  0.8498  1.5103
  734MOL0     H 1292   2.555   7.201   9.226 -2.2712  0.3654  0.1351
  735MOL0     O 1293   7.423   7.402   7.983 -0.4403 -0.3309 -0.0133
  735MOL0     C 1294   7.454   7.520   7.973 -0.5374  0.2710  0.6879
  735MOL0     O 1295   7.579   7.566   7.942  0.0955  0.8018 -0.4892
  735MOL0     C 1296   7.692   7.491   7.947  0.1768  1.1010  0.4441
  735MOL0     C 1297   7.814   7.562   7.963 -0.1533 -0.7045 -0.2676
  735MOL0     C 1298   7.935   7.500   7.954 -0.0890  0.4679  0.4430
  735MOL0     C 1299   7.943   7.356   7.936 -0.1005 -0.0678  0.2002
  735MOL0     O 1300   8.060   7.283   7.931 -0.9516 -0.1760  0.5482
  735MOL0     C 1301   8.191   7.351   7.928  0.3241  0.0129 -0.2120
  735MOL0     C 1302   8.307   7.239   7.917 -0.9707 -0.8137 -0.1682
  735MOL0     C 1303   8.433   7.292   7.858 -0.7594  0.4319  0.1674
  735MOL0     C 1304   8.535   7.185   7.838  0.1102  0.7569  0.3654
  735MOL0     C 1305   8.674   7.234   7.783  0.3226 -0.6248  0.0243
  735MOL0     C 1306   8.746   7.346   7.863 -0.2892  0.6787  0.4439
  735MOL0     C 1307   8.873   7.406   7.804  0.4617  0.0807  0.4381
  735MOL0     C 1308   8.981   7.300   7.792  0.6531  1.3013 -0.1087
  735MOL0     N 1309   9.118   7.337   7.767  0.1860  0.6897  0.5045
  735MOL0     C 1310   9.156   7.423   7.672  0.0502  0.2050  0.1111
  735MOL0     C 1311   9.290   7.439   7.698  0.0354 -0.0922  0.1018
  735MOL0     C 1312   9.376   7.534   7.621  0.1138  0.4733  0.5746
  735MOL0     C 1313   9.381   7.673   7.683 -0.1431  0.2534 -0.4040
  735MOL0     C 1314   9.456   7.684   7.815 -0.3628  0.9241 -0.9364
  735MOL0     C 1315   9.604   7.642   7.814 -1.1789 -0.2421  1.1734
  735MOL0     O 1316   9.653   7.645   7.949  0.5474 -0.3591 -0.0589
  735MOL0     C 1317   9.785   7.606   7.978  0.3520 -0.7503 -0.4835
  735MOL0     C 1318   9.837   7.632   8.109 -0.5111  0.4985  0.1856
  735MOL0     C 1319   9.976   7.590   8.138  0.1159 -0.5685 -0.6820
  735MOL0     C 1320  10.017   7.615   8.279  0.7052  0.8219 -0.2840
  735MOL0     C 1321  10.053   7.534   8.042 -0.7266  0.1220  0.2644
  735MOL0     C 1322  10.198   7.495   8.064  0.2206 -0.0860  0.0265
  735MOL0     O 1323  10.267   7.478   7.944 -0.7399  0.8359 -0.7922
  735MOL0     C 1324  10.409   7.479   7.954  0.0009  0.1958  0.0520
  735MOL0     C 1325  10.490   7.589   8.005  0.4025  0.0961  0.2746
  735MOL0     C 1326  10.631   7.570   8.012  0.1373 -0.6411  0.0638
  735MOL0     C 1327  10.693   7.457   7.964 -0.1970 -0.3978  0.1478
  735MOL0     O 1328  10.827   7.434   7.981 -1.1200  0.8601  0.5760
  735MOL0     C 1329  10.906   7.537   7.934  0.9590  0.0803  0.0872
  735MOL0     C 1330  11.057   7.523   7.962  0.1319  1.3194 -0.0430
  735MOL0     C 1331  11.125   7.661   7.919 -1.0054  0.0297 -0.5763
  735MOL0     C 1332  11.273   7.654   7.953  0.3290  0.0156 -0.2699
  735MOL0     C 1333  11.355   7.784   7.925 -0.0130  0.0142 -0.1071
  735MOL0     C 1334  11.494   7.760   7.988  0.1614 -0.2282 -0.8978
  735MOL0     C 1335  11.587   7.876   7.945 -0.3521  0.0479 -0.0566
  735MOL0     C 1336  11.726   7.865   8.011  0.3358  0.2411 -0.6578
  735MOL0    Cl 1337  11.828   8.002   7.962 -0.0405 -0.3682  0.4543
  735MOL0     C 1338  10.613   7.349   7.925 -0.1976 -0.0502 -0.1616
  735MOL0     C 1339  10.477   7.359   7.917  0.3702 -0.2174  0.4239
  735MOL0     O 1340  10.245   7.468   8.172  0.4077 -0.3131  0.0924
  735MOL0     C 1341   9.998   7.505   7.915  0.6217  0.0007 -0.7296
  735MOL0     C 1342   9.869   7.544   7.882 -0.0677 -0.3936 -0.1294
  735MOL0     N 1343   9.323   7.365   7.812  0.8365  0.0464  0.6649
  735MOL0     N 1344   9.220   7.304   7.850  0.3910  0.3554 -0.5777
  735MOL0     C 1345   7.826   7.286   7.903 -0.4474 -0.2823  0.2759
  735MOL0     C 1346   7.702   7.351   7.910 -0.3104  0.5458 -0.3314
  735MOL0     C 1347   7.355   7.624   7.975 -0.1158 -0.7808 -0.3021
  735MOL0     C 1348   7.377   7.738   7.889  0.7597  0.0901 -0.1727
  735MOL0     C 1349   7.267   7.821   7.865  0.4083  1.1358 -0.2015
  735MOL0     C 1350   7.151   7.807   7.933  0.6046  0.2463  0.5300
  735MOL0     O 1351   7.051   7.891   7.895  0.0048  0.6206  0.1867
  735MOL0     C 1352   6.923   7.871   7.962  0.0224 -0.7700  0.6678
  735MOL0     C 1353   6.811   7.910   7.864  0.1518  0.7565  0.4523
  735MOL0     C 1354   6.673   7.866   7.927 -0.1576  0.8602  0.6058
  735MOL0     C 1355   6.571   7.950   7.849 -0.0037  0.4581  0.9793
  735MOL0     C 1356   6.443   7.908   7.886 -0.3211 -0.5134  0.2281
  735MOL0     C 1357   6.340   7.865   7.928  1.3537 -0.3004 -0.6134
  735MOL0     C 1358   7.144   7.704   8.028  0.1815  0.9035 -0.4957
  735MOL0     C 1359   7.241   7.614   8.053  0.6123  0.2212  0.5276
  735MOL0     C 1360   7.218   7.507   8.148  0.4212  0.5772  0.8549
  735MOL0     H 1361   7.803   7.668   7.986 -0.1174 -0.6146 -0.6595
  735MOL0     H 1362   8.028   7.551   7.977  0.1480  1.3984 -2.2045
  735MOL0     H 1363   8.199   7.414   8.017  0.5619 -1.1834  0.6416
  735MOL0     H 1364   8.199   7.405   7.833 -2.0147 -1.0100 -1.0863
  735MOL0     H 1365   8.337   7.202   8.015  2.0133  1.0734 -0.2389
  735MOL0     H 1366   8.273   7.158   7.852  0.7386  0.6292 -3.0589
  735MOL0     H 1367   8.408   7.312   7.753 -1.2225 -3.4483 -0.6088
  735MOL0     H 1368   8.477   7.382   7.901 -2.0832  2.3439 -2.2245
  735MOL0     H 1369   8.546   7.136   7.935  0.4310 -0.4404 -0.2467
  735MOL0     H 1370   8.494   7.113   7.766 -0.0064 -1.0810  2.1836
  735MOL0     H 1371   8.662   7.279   7.684  0.1006 -0.4142  0.1453
  735MOL0     H 1372   8.745   7.153   7.766  0.9550  0.2852 -1.9315
  735MOL0     H 1373   8.683   7.434   7.860  0.5347  1.2560 -1.3943
  735MOL0     H 1374   8.757   7.309   7.966  0.7323  0.4325  0.2665
  735MOL0     H 1375   8.905   7.488   7.868  1.1868  1.1804 -1.2528
  735MOL0     H 1376   8.859   7.448   7.704 -0.2877 -0.4326  0.3250
  735MOL0     H 1377   8.983   7.249   7.889  2.2965  0.7706 -0.3861
  735MOL0     H 1378   8.961   7.239   7.703 -0.7037  1.1469  0.2670
  735MOL0     H 1379   9.091   7.470   7.599 -0.0435 -0.0694  0.0140
  735MOL0     H 1380   9.335   7.528   7.520  0.8316 -1.2169  0.3463
  735MOL0     H 1381   9.475   7.490   7.605  0.3813  1.5160 -0.8280
  735MOL0     H 1382   9.432   7.733   7.607  1.2095 -0.5549 -0.1781
  735MOL0     H 1383   9.279   7.709   7.700 -0.0428  0.5822 -0.5073
  735MOL0     H 1384   9.460   7.790   7.841 -1.7061  1.2627 -1.9980
  735MOL0     H 1385   9.398   7.633   7.893 -1.3307  3.4622  0.0989
  735MOL0     H 1386   9.631   7.547   7.769  1.8768  1.3490 -0.6617
  735MOL0     H 1387   9.655   7.711   7.746 -0.6310 -0.5384  1.2807
  735MOL0     H 1388   9.775   7.669   8.191 -0.9405  2.1826 -0.8409
  735MOL0     H 1389   9.964   7.703   8.318 -1.5452 -0.1713 -0.9291
  735MOL0     H 1390  10.123   7.627   8.303  0.4782  2.8692 -0.1457
  735MOL0     H 1391   9.971   7.536   8.339  2.2389  1.3827  1.7544
  735MOL0     H 1392  10.438   7.683   8.023 -2.4139 -1.0860 -0.9431
  735MOL0     H 1393  10.678   7.654   8.062  1.2079 -1.0136 -0.2791
  735MOL0     H 1394  10.889   7.549   7.827  1.7001 -1.1311 -0.1824
  735MOL0     H 1395  10.881   7.629   7.988  0.9588 -0.6635  1.3925
  735MOL0     H 1396  11.081   7.496   8.066  0.2480 -0.8375 -0.5882
  735MOL0     H 1397  11.099   7.444   7.899 -1.5520  0.7230 -0.4723
  735MOL0     H 1398  11.074   7.734   7.983  0.8216 -0.8451  2.0845
  735MOL0     H 1399  11.125   7.677   7.811  1.2291 -0.1724 -0.6520
  735MOL0     H 1400  11.315   7.563   7.908 -0.6869 -1.3061  1.3049
  735MOL0     H 1401  11.274   7.636   8.061 -0.0490 -0.4712 -0.3411
  735MOL0     H 1402  11.357   7.802   7.817 -1.4154  0.9022 -0.0067
  735MOL0     H 1403  11.302   7.865   7.975 -1.4690 -0.4752 -0.7962
  735MOL0     H 1404  11.532   7.665   7.950 -1.1206 -1.2911  0.3536
  735MOL0     H 1405  11.481   7.754   8.096 -0.7438 -1.1054 -1.0369
  735MOL0     H 1406  11.542   7.972   7.974 -3.8207 -1.1553 -0.8910
  735MOL0     H 1407  11.608   7.877   7.838 -0.2600  3.1311 -0.0978
  735MOL0     H 1408  11.759   7.763   7.990 -0.6741 -0.5686  1.4356
  735MOL0     H 1409  11.723   7.871   8.120  3.0948  1.2216 -0.5568
  735MOL0     H 1410  10.656   7.254   7.893  1.1542  0.9114 -1.3655
  735MOL0     H 1411  10.417   7.269   7.910  0.4082 -0.2058 -0.0299
  735MOL0     H 1412  10.067   7.471   7.838  4.1464  3.9822  0.3042
  735MOL0     H 1413   9.841   7.530   7.779  0.6311  1.1128 -0.5614
  735MOL0     H 1414   7.827   7.180   7.883  2.2291 -0.1760 -0.5345
  735MOL0     H 1415   7.617   7.293   7.877  0.4826  0.6666 -2.7968
  735MOL0     H 1416   7.464   7.749   7.824  0.4683  3.3322 -0.2056
  735MOL0     H 1417   7.278   7.896   7.787 -0.3360 -1.6468 -3.2362
  735MOL0     H 1418   6.894   7.771   7.995 -0.8525 -1.2102 -1.2482
  735MOL0     H 1419   6.917   7.947   8.040 -1.0896 -0.0155 -0.1154
  735MOL0     H 1420   6.827   7.850   7.774 -0.6775  0.4854  0.4738
  735MOL0     H 1421   6.819   8.018   7.844 -0.4190  0.5500 -1.0740
  735MOL0     H 1422   6.653   7.759   7.929  1.6626  0.4802  0.7241
  735MOL0     H 1423   6.658   7.898   8.031  0.2317 -4.0595  2.4312
  735MOL0     H 1424   6.584   7.923   7.744 -0.6732 -0.7806  1.1872
  735MOL0     H 1425   6.583   8.057   7.863  3.2281  0.0575  2.0092
  735MOL0     H 1426   6.243   7.827   7.950  2.0649 -2.4976 -1.0239
  735MOL0     H 1427   7.051   7.694   8.084 -1.9624  0.7349 -3.8072
  735MOL0     H 1428   7.144   7.442   8.100  0.4431 -0.1969  1.8496
  735MOL0     H 1429   7.302   7.440   8.169 -1.3212 -2.8990 -2.1096
  735MOL0     H 1430   7.191   7.533   8.251 -1.4603  1.2173  0.2424
  736MOL0     O 1431   7.991  11.091   3.992 -0.1429  0.3897 -0.2825
  736MOL0     C 1432   7.952  10.996   4.061  0.0612 -0.0647  0.1867
  736MOL0     O 1433   7.977  10.978   4.197  0.0487  0.2674 -0.1490
  736MOL0     C 1434   8.025  11.077   4.279  0.3116  0.3426  0.1846
  736MOL0     C 1435   7.942  11.149   4.369  0.0028 -0.1236  0.3176
  736MOL0     C 1436   7.989  11.254   4.439  0.0895 -0.6814  0.2057
  736MOL0     C 1437   8.129  11.285   4.442  0.3031 -0.2114 -0.0574
  736MOL0     O 1438   8.184  11.376   4.533  0.5286  0.0679 -0.9991
  736MOL0     C 1439   8.328  11.399   4.547  0.1820  0.4312 -1.3130
  736MOL0     C 1440   8.354  11.490   4.667 -1.3034 -0.6189  0.1256
  736MOL0     C 1441   8.506  11.492   4.692 -0.7674 -0.1097  0.4144
  736MOL0     C 1442   8.563  11.386   4.791 -0.2063 -0.1643  1.2170
  736MOL0     C 1443   8.600  11.452   4.925 -0.4843 -0.4139  0.3708
  736MOL0     C 1444   8.635  11.367   5.055 -0.3279 -0.7117  0.3523
  736MOL0     C 1445   8.741  11.264   5.024  0.4368 -0.6645 -0.0631
  736MOL0     C 1446   8.807  11.200   5.150  0.5811 -0.4584 -0.1913
  736MOL0     N 1447   8.922  11.111   5.115  0.0031 -0.1459 -0.2113
  736MOL0     C 1448   8.912  11.003   5.026  0.5510  0.3199  0.0206
  736MOL0     C 1449   9.032  10.943   5.024 -0.8453  0.1104  0.7710
  736MOL0     C 1450   9.071  10.814   4.952  1.0557  0.0343  0.8713
  736MOL0     C 1451   9.043  10.838   4.800 -0.0307 -0.9101 -0.0651
  736MOL0     C 1452   9.108  10.963   4.734  0.1339 -0.0434 -0.0778
  736MOL0     C 1453   9.259  10.956   4.743 -0.8585 -0.1146  0.2802
  736MOL0     O 1454   9.307  10.844   4.668  0.3288  0.0562 -0.7086
  736MOL0     C 1455   9.443  10.814   4.672 -0.6322  0.1255 -0.6345
  736MOL0     C 1456   9.487  10.707   4.593 -0.1139 -0.2051 -0.0419
  736MOL0     C 1457   9.625  10.688   4.571  0.2649 -0.0647  1.1076
  736MOL0     C 1458   9.653  10.579   4.476 -0.6879 -0.1274  0.3067
  736MOL0     C 1459   9.718  10.773   4.634  0.0171 -0.5895  0.1355
  736MOL0     C 1460   9.867  10.742   4.626 -0.1559 -0.9187 -0.0436
  736MOL0     O 1461   9.936  10.846   4.661  0.5209 -0.1207 -0.0501
  736MOL0     C 1462  10.072  10.855   4.642 -1.1184  0.0582 -0.7992
  736MOL0     C 1463  10.156  10.918   4.739 -0.6304  0.0858 -0.0957
  736MOL0     C 1464  10.284  10.951   4.701 -0.0388  0.3573  0.0004
  736MOL0     C 1465  10.343  10.911   4.585 -0.1180  0.0167 -0.1481
  736MOL0     O 1466  10.482  10.948   4.564 -0.1075 -0.0458 -0.8140
  736MOL0     C 1467  10.554  10.865   4.469 -0.7041  0.2899 -0.1099
  736MOL0     C 1468  10.687  10.925   4.475  0.3780 -0.4641  0.2191
  736MOL0     C 1469  10.784  10.866   4.572  0.9730 -0.0606  0.1809
  736MOL0     C 1470  10.918  10.944   4.606 -0.6371 -0.2276  0.8889
  736MOL0     C 1471  10.997  10.899   4.729 -0.9473  0.5446  0.9120
  736MOL0     C 1472  11.127  10.991   4.757  1.1796  0.3618  0.1524
  736MOL0     C 1473  11.224  10.914   4.848  0.3921 -0.2225  0.2825
  736MOL0     C 1474  11.362  10.976   4.856 -0.1610 -0.2059  0.1731
  736MOL0    Cl 1475  11.485  10.890   4.956 -0.1575  0.0917  0.2220
  736MOL0     C 1476  10.274  10.831   4.495  0.2116 -0.0148  1.0192
  736MOL0     C 1477  10.137  10.811   4.518 -0.8333  0.7083 -0.9143
  736MOL0     O 1478   9.910  10.625   4.620  0.3603 -0.1809  0.4542
  736MOL0     C 1479   9.674  10.878   4.716 -0.4215 -0.4936 -0.0753
  736MOL0     C 1480   9.540  10.893   4.732  0.2343  0.3264 -0.3127
  736MOL0     N 1481   9.116  11.021   5.104  0.5191 -0.3512 -0.6141
  736MOL0     N 1482   9.048  11.120   5.158 -0.0811  0.2475 -0.9379
  736MOL0     C 1483   8.208  11.221   4.356 -1.2381  0.7582 -0.0332
  736MOL0     C 1484   8.157  11.120   4.282 -0.2446 -0.4574  0.4387
  736MOL0     C 1485   7.901  10.878   3.990  0.8358 -0.6906  0.1794
  736MOL0     C 1486   7.929  10.754   4.039  0.6051 -0.0680  0.9013
  736MOL0     C 1487   7.892  10.646   3.964  0.3062 -0.1616 -0.1198
  736MOL0     C 1488   7.830  10.651   3.837  0.1134 -0.0032  0.6414
  736MOL0     O 1489   7.820  10.532   3.764  0.1308 -0.7880 -0.9956
  736MOL0     C 1490   7.771  10.529   3.630  0.3717 -0.1709  0.3175
  736MOL0     C 1491   7.617  10.524   3.630 -0.1837  0.5240  0.1064
  736MOL0     C 1492   7.571  10.476   3.492  0.4957  0.1421  0.1461
  736MOL0     C 1493   7.455  10.558   3.437  0.8707  0.0199 -0.0054
  736MOL0     C 1494   7.507  10.692   3.400 -1.0761  0.5729 -0.6534
  736MOL0     C 1495   7.582  10.792   3.379 -0.0151  0.4475  0.4581
  736MOL0     C 1496   7.789  10.777   3.791  0.4987 -0.3610 -0.1932
  736MOL0     C 1497   7.829  10.894   3.864  0.2639  1.1498  0.1642
  736MOL0     C 1498   7.777  11.024   3.802 -0.2906  0.8327 -0.7841
  736MOL0     H 1499   7.837  11.125   4.356 -0.3768  1.5427  0.1095
  736MOL0     H 1500   7.923  11.317   4.499 -0.0022  2.0487 -2.5463
  736MOL0     H 1501   8.362  11.448   4.455  2.5548  0.1439 -0.6502
  736MOL0     H 1502   8.382  11.306   4.567 -0.5804  0.4240  0.9227
  736MOL0     H 1503   8.316  11.591   4.651 -4.9504 -1.6439  1.4762
  736MOL0     H 1504   8.302  11.457   4.757 -0.8907  1.4096  1.1686
  736MOL0     H 1505   8.564  11.471   4.601 -0.6555  1.4675  0.0906
  736MOL0     H 1506   8.540  11.594   4.713 -1.8629  0.4717 -0.5303
  736MOL0     H 1507   8.497  11.300   4.805 -1.4874 -0.1627 -3.2373
  736MOL0     H 1508   8.655  11.346   4.748 -0.5700 -1.3096  1.4741
  736MOL0     H 1509   8.516  11.517   4.948 -1.2351 -0.5409 -1.7727
  736MOL0     H 1510   8.691  11.512   4.916 -1.1160  0.3929 -0.7502
  736MOL0     H 1511   8.671  11.443   5.124  0.7772 -1.0225  0.1408
  736MOL0     H 1512   8.551  11.324   5.111 -0.8534  0.7649  0.7397
  736MOL0     H 1513   8.819  11.315   4.967  1.0347  0.1128  1.3998
  736MOL0     H 1514   8.703  11.191   4.952 -1.1912  1.0708 -1.0427
  736MOL0     H 1515   8.849  11.285   5.205  0.7832 -0.7299  0.0723
  736MOL0     H 1516   8.733  11.151   5.212  1.8789  1.6246  3.3235
  736MOL0     H 1517   8.822  10.971   4.976  0.8768 -1.5970  0.5948
  736MOL0     H 1518   9.013  10.730   4.992 -0.8591  0.0420 -1.6440
  736MOL0     H 1519   9.179  10.801   4.965  0.8839  0.2003  2.6639
  736MOL0     H 1520   9.077  10.747   4.750 -1.3158 -1.1116 -0.5910
  736MOL0     H 1521   8.940  10.853   4.767  0.8497 -1.5581 -3.4021
  736MOL0     H 1522   9.080  10.961   4.628  0.7065 -0.6285 -0.2218
  736MOL0     H 1523   9.058  11.055   4.768  0.1440 -0.3830  0.8898
  736MOL0     H 1524   9.313  11.049   4.724 -0.8515 -0.0456  0.6311
  736MOL0     H 1525   9.286  10.948   4.849  0.0304 -1.2851 -0.0124
  736MOL0     H 1526   9.415  10.649   4.536 -2.2919  0.3034  2.0147
  736MOL0     H 1527   9.738  10.607   4.412  1.5683 -0.2569  3.0708
  736MOL0     H 1528   9.568  10.569   4.408  0.9846 -0.3296 -1.8786
  736MOL0     H 1529   9.677  10.492   4.537  0.8691 -0.9708 -1.3926
  736MOL0     H 1530  10.109  10.948   4.832 -1.8190  1.0573 -0.9726
  736MOL0     H 1531  10.340  11.009   4.774  0.2518  2.9077 -2.1096
  736MOL0     H 1532  10.547  10.762   4.506  0.1328  0.4570  0.5203
  736MOL0     H 1533  10.517  10.886   4.368  2.7562 -0.8982 -1.7903
  736MOL0     H 1534  10.716  10.936   4.370 -2.0669  2.4922 -0.3028
  736MOL0     H 1535  10.681  11.031   4.502 -0.0782 -0.8124  1.5434
  736MOL0     H 1536  10.818  10.766   4.543  0.0583 -1.8650  4.5563
  736MOL0     H 1537  10.730  10.851   4.666  1.9371 -1.0547  0.5959
  736MOL0     H 1538  10.891  11.046   4.633 -1.9613 -0.5842  0.9680
  736MOL0     H 1539  10.985  10.926   4.521 -1.9276  0.6160 -0.3501
  736MOL0     H 1540  10.938  10.897   4.821 -3.9154  2.5971 -0.7507
  736MOL0     H 1541  11.034  10.798   4.711 -1.3597  0.4976  0.2836
  736MOL0     H 1542  11.102  11.086   4.805  0.5602 -0.1735  0.9347
  736MOL0     H 1543  11.179  11.018   4.665 -0.8248  0.7680 -0.9052
  736MOL0     H 1544  11.237  10.810   4.820  1.6395  0.5449 -2.3014
  736MOL0     H 1545  11.175  10.918   4.946 -2.1792 -1.4117 -0.8695
  736MOL0     H 1546  11.341  11.073   4.902  1.6115  0.6458 -0.7191
  736MOL0     H 1547  11.412  11.000   4.762  2.1338  2.1679  1.8711
  736MOL0     H 1548  10.312  10.798   4.399  0.3435 -0.4295  1.2113
  736MOL0     H 1549  10.085  10.751   4.444 -0.5646 -1.2585  0.3999
  736MOL0     H 1550   9.744  10.955   4.746 -0.2824  1.2001 -4.0685
  736MOL0     H 1551   9.511  10.984   4.784 -0.4178 -1.2761  2.2893
  736MOL0     H 1552   8.316  11.228   4.358 -1.1260  1.6786 -3.2584
  736MOL0     H 1553   8.230  11.066   4.222  0.8099  0.4489  0.8681
  736MOL0     H 1554   7.995  10.743   4.124 -0.0848  0.6023  1.5358
  736MOL0     H 1555   7.925  10.548   3.999  1.4094  0.2123 -0.0913
  736MOL0     H 1556   7.796  10.619   3.573 -2.8047 -0.0030 -1.0358
  736MOL0     H 1557   7.804  10.439   3.579  1.4584  1.1842 -1.4648
  736MOL0     H 1558   7.570  10.618   3.658  0.1626  0.4028  1.1442
  736MOL0     H 1559   7.581  10.449   3.701  0.0673  1.2019  0.9646
  736MOL0     H 1560   7.654  10.473   3.421 -0.1684 -2.1835 -0.6171
  736MOL0     H 1561   7.539  10.371   3.492  0.9533 -0.0297 -1.5458
  736MOL0     H 1562   7.372  10.562   3.508 -0.9807  2.8882 -2.1090
  736MOL0     H 1563   7.407  10.508   3.352 -0.1833 -2.8219  2.1037
  736MOL0     H 1564   7.636  10.883   3.364  1.5239 -0.7672 -2.1510
  736MOL0     H 1565   7.720  10.800   3.711  2.4414  2.9630 -1.1291
  736MOL0     H 1566   7.822  11.117   3.837 -0.8770  1.5810 -1.9499
  736MOL0     H 1567   7.817  11.026   3.700  1.2671  0.7882 -0.1920
  736MOL0     H 1568   7.668  11.036   3.805 -0.2898  0.6012  1.4305
  737MOL0     O 1569   7.493   7.490   1.130 -0.3718 -0.3229  0.7963
  737MOL0     C 1570   7.426   7.548   1.216 -0.7138  0.3669  0.0458
  737MOL0     O 1571   7.472   7.585   1.338  0.0710 -0.6036  0.9881
  737MOL0     C 1572   7.601   7.568   1.374 -0.0975  0.8466  0.2621
  737MOL0     C 1573   7.703   7.657   1.349  0.1558 -0.0538 -0.9953
  737MOL0     C 1574   7.837   7.621   1.382 -0.4237 -0.0300 -0.1044
  737MOL0     C 1575   7.862   7.496   1.445  0.3264  0.4415 -1.1720
  737MOL0     O 1576   7.987   7.455   1.474  0.3993 -0.3547 -0.0971
  737MOL0     C 1577   8.100   7.542   1.509  0.3254  0.2290  0.3940
  737MOL0     C 1578   8.150   7.500   1.650 -0.2562 -0.0860  0.3772
  737MOL0     C 1579   8.270   7.587   1.677 -0.1904 -0.2930 -0.1838
  737MOL0     C 1580   8.330   7.544   1.808 -0.0190  0.0250  1.1105
  737MOL0     C 1581   8.461   7.624   1.845 -0.2320  0.2836 -0.1432
  737MOL0     C 1582   8.432   7.752   1.926 -0.0819 -0.4664 -0.0782
  737MOL0     C 1583   8.566   7.797   1.988  1.6291 -0.1186  0.1837
  737MOL0     C 1584   8.652   7.866   1.886 -0.1434 -0.3217 -0.4786
  737MOL0     N 1585   8.767   7.936   1.946  0.1900  0.0897 -0.5283
  737MOL0     C 1586   8.883   7.885   1.997  1.0734  0.4056  0.5555
  737MOL0     C 1587   8.952   7.996   2.035 -0.0236  0.8306 -0.3594
  737MOL0     C 1588   9.091   7.971   2.087 -0.6356 -0.1567  0.8208
  737MOL0     C 1589   9.160   8.104   2.124  0.1641  0.4053  0.8097
  737MOL0     C 1590   9.314   8.079   2.164  0.1073 -1.2461  0.0852
  737MOL0     C 1591   9.387   8.201   2.231 -0.4147 -0.3222 -1.1662
  737MOL0     O 1592   9.516   8.169   2.287 -0.3008 -1.1765 -0.3441
  737MOL0     C 1593   9.618   8.165   2.196 -0.1607 -0.1901  0.1224
  737MOL0     C 1594   9.745   8.145   2.251  0.7323  0.1720  0.4265
  737MOL0     C 1595   9.861   8.133   2.177  0.4868  0.1678 -0.1398
  737MOL0     C 1596   9.996   8.124   2.245 -0.5980 -0.4282 -0.1401
  737MOL0     C 1597   9.855   8.156   2.032 -0.5305  0.6692 -0.3621
  737MOL0     C 1598   9.979   8.174   1.945 -0.1873  0.1511  0.9890
  737MOL0     O 1599  10.100   8.125   1.979 -0.2592  0.0158 -0.1200
  737MOL0     C 1600  10.212   8.148   1.900  0.7194 -0.3356  0.2385
  737MOL0     C 1601  10.324   8.194   1.968 -1.0261  0.4220  0.1479
  737MOL0     C 1602  10.438   8.223   1.897  0.2110 -0.4422  0.0249
  737MOL0     C 1603  10.462   8.196   1.758 -0.2195  0.1554 -1.6463
  737MOL0     O 1604  10.582   8.222   1.693 -0.2587  0.3343  0.0506
  737MOL0     C 1605  10.597   8.162   1.566  0.0845  0.5494  0.0646
  737MOL0     C 1606  10.743   8.131   1.539  0.3170  0.4694 -0.9726
  737MOL0     C 1607  10.831   8.252   1.502 -0.3884 -0.1467 -0.6383
  737MOL0     C 1608  10.978   8.221   1.495  0.0155 -0.2866 -0.4588
  737MOL0     C 1609  11.057   8.345   1.448 -1.7278 -0.0381 -0.0111
  737MOL0     C 1610  11.177   8.297   1.366 -0.4881  0.2166  0.2734
  737MOL0     C 1611  11.229   8.419   1.285 -0.6714 -0.4539  0.5423
  737MOL0     C 1612  11.320   8.375   1.174 -0.2032  0.7810 -0.5733
  737MOL0    Cl 1613  11.346   8.528   1.081  0.0017  0.5204  0.1281
  737MOL0     C 1614  10.341   8.159   1.691 -0.3041  0.7282 -0.2253
  737MOL0     C 1615  10.223   8.133   1.758 -1.3178  0.1503 -0.2652
  737MOL0     O 1616   9.957   8.243   1.839  0.7893 -0.2443 -0.7813
  737MOL0     C 1617   9.727   8.175   1.977 -0.3641  0.5771 -0.2450
  737MOL0     C 1618   9.606   8.172   2.056  0.3413  0.0324  0.2335
  737MOL0     N 1619   8.885   8.113   2.013  0.1229 -0.1010  0.2240
  737MOL0     N 1620   8.766   8.078   1.957  0.7150 -0.1441  0.6261
  737MOL0     C 1621   7.757   7.403   1.461  0.4396  0.0995  0.8281
  737MOL0     C 1622   7.623   7.444   1.434 -0.0007  1.0002  0.1110
  737MOL0     C 1623   7.289   7.575   1.177  1.6461 -0.1436 -0.4116
  737MOL0     C 1624   7.263   7.603   1.043  0.6589  0.9696  0.2503
  737MOL0     C 1625   7.137   7.631   0.985  1.2189 -0.1518 -0.8714
  737MOL0     C 1626   7.028   7.646   1.071  0.3135 -0.0116  0.7803
  737MOL0     O 1627   6.899   7.672   1.031  0.4061 -0.3113 -0.4242
  737MOL0     C 1628   6.875   7.674   0.891  0.5412 -0.2761  0.6568
  737MOL0     C 1629   6.737   7.738   0.872 -0.3580 -0.4103  0.4329
  737MOL0     C 1630   6.724   7.887   0.900 -0.0414 -0.2174 -0.3927
  737MOL0     C 1631   6.585   7.942   0.885 -0.5190 -0.2167 -0.2601
  737MOL0     C 1632   6.542   7.973   0.751  0.2911 -0.2967 -0.5496
  737MOL0     C 1633   6.507   7.996   0.641  0.0342 -0.5702 -0.9550
  737MOL0     C 1634   7.046   7.623   1.206 -1.1140  0.2440 -0.6424
  737MOL0     C 1635   7.171   7.581   1.264  0.0027 -0.2061  0.2970
  737MOL0     C 1636   7.188   7.553   1.408  0.0281  0.2010  0.0815
  737MOL0     H 1637   7.663   7.750   1.309 -0.7881  0.6953  1.5129
  737MOL0     H 1638   7.919   7.691   1.378  0.7509 -1.3275  0.2816
  737MOL0     H 1639   8.063   7.645   1.510  0.4876  0.2929  1.4353
  737MOL0     H 1640   8.180   7.537   1.435  0.6278  0.3413  0.7148
  737MOL0     H 1641   8.073   7.521   1.725 -0.0101  2.1059  0.0681
  737MOL0     H 1642   8.178   7.394   1.643 -2.8363 -0.7616 -1.5784
  737MOL0     H 1643   8.349   7.581   1.601 -2.2440 -0.1672 -2.4602
  737MOL0     H 1644   8.247   7.693   1.683 -0.8536 -0.4161 -0.4403
  737MOL0     H 1645   8.252   7.553   1.884 -4.9935 -1.5126 -3.2242
  737MOL0     H 1646   8.348   7.436   1.805 -0.6711 -0.1001 -2.3977
  737MOL0     H 1647   8.523   7.634   1.756 -0.2108 -1.5503 -0.3856
  737MOL0     H 1648   8.515   7.554   1.910 -1.3885 -1.0913 -0.5937
  737MOL0     H 1649   8.385   7.823   1.858  0.7998 -1.6338 -1.9992
  737MOL0     H 1650   8.363   7.731   2.008  2.4423  0.6385  2.5078
  737MOL0     H 1651   8.619   7.714   2.035  0.4395  0.2817  2.3469
  737MOL0     H 1652   8.542   7.872   2.064  2.4085  0.2595  0.0665
  737MOL0     H 1653   8.693   7.804   1.806 -2.2188 -1.3936 -0.7589
  737MOL0     H 1654   8.589   7.944   1.843  1.0325  1.8878  1.5560
  737MOL0     H 1655   8.911   7.780   1.994  1.4752  0.4198  2.4911
  737MOL0     H 1656   9.158   7.925   2.013  1.5132  1.2648  1.7555
  737MOL0     H 1657   9.074   7.906   2.173 -1.8622  1.7244  2.0566
  737MOL0     H 1658   9.159   8.170   2.036  1.7982 -1.3362 -0.5867
  737MOL0     H 1659   9.108   8.149   2.209 -3.8873  0.7085 -1.5381
  737MOL0     H 1660   9.318   7.999   2.239  1.1685  0.6231  2.1614
  737MOL0     H 1661   9.374   8.055   2.076 -0.9477  1.8064 -1.6073
  737MOL0     H 1662   9.397   8.286   2.164  1.2368 -0.4353 -1.0936
  737MOL0     H 1663   9.322   8.236   2.312 -1.8181  0.6301 -2.6319
  737MOL0     H 1664   9.755   8.144   2.359 -1.7169  0.0852  0.7072
  737MOL0     H 1665  10.064   8.207   2.221 -1.5418  0.3968 -0.0387
  737MOL0     H 1666  10.035   8.026   2.215 -1.1260 -0.6242 -0.1950
  737MOL0     H 1667   9.986   8.121   2.354 -0.5226 -1.1694 -0.1504
  737MOL0     H 1668  10.309   8.219   2.072 -1.0693  0.0958  0.2231
  737MOL0     H 1669  10.523   8.258   1.956 -0.3178 -1.5923  1.5201
  737MOL0     H 1670  10.549   8.064   1.569  2.6490 -0.7538  1.7595
  737MOL0     H 1671  10.559   8.229   1.488 -2.9443 -0.6946  0.3183
  737MOL0     H 1672  10.789   8.096   1.632  0.2101  2.1557 -0.2467
  737MOL0     H 1673  10.740   8.052   1.464  0.3278 -0.5550  0.0760
  737MOL0     H 1674  10.814   8.320   1.586 -1.2149  0.0633 -0.9685
  737MOL0     H 1675  10.801   8.312   1.416  1.5810  1.4782 -0.2559
  737MOL0     H 1676  10.980   8.143   1.418  0.8408 -1.2275  0.4865
  737MOL0     H 1677  11.018   8.189   1.592 -0.3015 -0.9309 -0.5318
  737MOL0     H 1678  10.995   8.411   1.385 -1.6639 -0.1681 -0.2090
  737MOL0     H 1679  11.091   8.398   1.538 -2.2397  0.4884 -0.1148
  737MOL0     H 1680  11.147   8.212   1.304 -1.0591  0.2141  0.5391
  737MOL0     H 1681  11.260   8.255   1.423  1.6811  0.6507 -2.3687
  737MOL0     H 1682  11.276   8.488   1.355 -1.4504 -0.6789  1.3073
  737MOL0     H 1683  11.152   8.482   1.238 -0.7902 -1.4648 -0.6789
  737MOL0     H 1684  11.276   8.306   1.100 -0.2908  0.7349 -0.4777
  737MOL0     H 1685  11.416   8.337   1.211  1.5999  2.1686 -3.3987
  737MOL0     H 1686  10.330   8.148   1.584 -0.1853 -2.6568 -0.0115
  737MOL0     H 1687  10.132   8.110   1.703 -1.2249 -0.5624 -0.1414
  737MOL0     H 1688   9.715   8.175   1.869 -1.3282 -1.4544 -0.1958
  737MOL0     H 1689   9.514   8.180   1.998  0.7089 -0.5007 -0.4412
  737MOL0     H 1690   7.774   7.304   1.501  2.2980  0.4438  0.9673
  737MOL0     H 1691   7.538   7.379   1.449  1.1703 -0.7775 -0.7168
  737MOL0     H 1692   7.343   7.607   0.970 -2.1033  0.4409 -3.1089
  737MOL0     H 1693   7.136   7.662   0.881  2.5753  1.5227 -0.4180
  737MOL0     H 1694   6.938   7.749   0.842 -0.3473 -0.3870 -0.7279
  737MOL0     H 1695   6.890   7.579   0.838  1.7897  0.7635 -0.9410
  737MOL0     H 1696   6.662   7.692   0.937 -0.6114 -2.1651 -1.0178
  737MOL0     H 1697   6.700   7.714   0.772  1.0665 -0.2711 -0.1579
  737MOL0     H 1698   6.749   7.904   1.005 -0.5099  0.0626 -0.3244
  737MOL0     H 1699   6.794   7.931   0.828  0.1088  1.8671  0.9491
  737MOL0     H 1700   6.584   8.043   0.929 -3.0515 -0.2015 -0.2020
  737MOL0     H 1701   6.511   7.882   0.939  0.7404 -2.5325 -0.9981
  737MOL0     H 1702   6.489   8.040   0.546  1.2040 -1.9002 -1.8387
  737MOL0     H 1703   6.963   7.634   1.275 -3.0242 -2.2826 -2.3252
  737MOL0     H 1704   7.093   7.551   1.463 -1.3068 -1.5959 -2.0752
  737MOL0     H 1705   7.225   7.450   1.418 -0.1352  0.3644  3.4629
  737MOL0     H 1706   7.256   7.624   1.455  0.1414  1.3681 -1.7321
  738MOL0     O 1707  10.919  11.198  10.401  0.3552 -0.7882 -0.4065
  738MOL0     C 1708  10.876  11.158  10.291  0.2428  0.1938  0.6092
  738MOL0     O 1709  10.909  11.205  10.165 -0.4252 -0.3170 -0.1025
  738MOL0     C 1710  10.980  11.319  10.160  0.2483  0.4117 -0.2681
  738MOL0     C 1711  11.114  11.316  10.188 -0.4845 -0.4526 -0.6667
  738MOL0     C 1712  11.190  11.432  10.199  0.6021  0.2542 -0.7504
  738MOL0     C 1713  11.134  11.559  10.179 -0.0491  0.4960 -0.2970
  738MOL0     O 1714  11.219  11.663  10.171  0.6356 -0.7099 -0.0888
  738MOL0     C 1715  11.176  11.773  10.253 -0.2197  0.2835  0.7958
  738MOL0     C 1716  11.262  11.897  10.221  0.4182 -0.5525  0.1679
  738MOL0     C 1717  11.196  12.027  10.270 -0.2919  0.0737 -1.0752
  738MOL0     C 1718  11.304  12.141  10.282  0.0337  1.0059 -0.1629
  738MOL0     C 1719  11.246  12.273  10.322 -0.9096  0.4021 -0.8839
  738MOL0     C 1720  11.159  12.326  10.205 -0.4783 -0.3120 -0.7207
  738MOL0     C 1721  11.143  12.477  10.210 -0.7095 -0.2049 -0.2946
  738MOL0     C 1722  11.259  12.556  10.145 -0.2567 -0.7458  0.1042
  738MOL0     N 1723  11.272  12.513  10.006 -0.6836  0.3956  1.1578
  738MOL0     C 1724  11.176  12.522   9.902 -0.3083  0.4156 -0.0344
  738MOL0     C 1725  11.244  12.480   9.792 -0.9926  0.1810  0.6966
  738MOL0     C 1726  11.187  12.469   9.650 -0.2622  0.1523 -0.2017
  738MOL0     C 1727  11.225  12.582   9.552  0.0477 -0.0595  0.8271
  738MOL0     C 1728  11.372  12.616   9.540  1.0769 -0.2379 -0.4848
  738MOL0     C 1729  11.442  12.490   9.488 -0.3867  0.5068 -0.4442
  738MOL0     O 1730  11.579  12.506   9.471 -0.0952  0.2867 -0.2660
  738MOL0     C 1731  11.655  12.394   9.455 -0.3129 -0.1429 -0.0793
  738MOL0     C 1732  11.798  12.401   9.468  0.9122  0.6227 -0.0781
  738MOL0     C 1733  11.882  12.290   9.461  0.3925  1.1103 -0.4300
  738MOL0     C 1734  12.032  12.306   9.463  0.0695  0.6641  0.1436
  738MOL0     C 1735  11.822  12.159   9.439  0.4115  0.4726  0.0311
  738MOL0     C 1736  11.898  12.025   9.441 -0.5728 -0.1030 -0.1837
  738MOL0     O 1737  11.821  11.915   9.423  0.3362 -0.4687 -0.0002
  738MOL0     C 1738  11.877  11.796   9.404 -0.1060  0.3209  0.2025
  738MOL0     C 1739  11.975  11.764   9.314  0.0263 -0.5088  0.7615
  738MOL0     C 1740  12.039  11.640   9.304 -0.0136  0.8858  0.2825
  738MOL0     C 1741  11.996  11.540   9.392  0.2370 -0.3162  0.5897
  738MOL0     O 1742  12.083  11.425   9.396 -0.4435 -1.3924  0.3126
  738MOL0     C 1743  12.027  11.303   9.451 -0.9114  0.9161 -0.1514
  738MOL0     C 1744  12.132  11.188   9.435  0.8307  0.1099 -0.4754
  738MOL0     C 1745  12.080  11.052   9.499  0.1276  0.3600 -0.6925
  738MOL0     C 1746  12.179  10.932   9.479  0.6361 -0.5114 -0.3891
  738MOL0     C 1747  12.307  10.965   9.543 -0.3141  0.0499 -0.1490
  738MOL0     C 1748  12.397  10.835   9.538  0.6448  0.5188  0.0857
  738MOL0     C 1749  12.520  10.868   9.622  0.4837  0.1589 -0.6403
  738MOL0     C 1750  12.619  10.757   9.618  0.0069 -0.1458 -0.3008
  738MOL0    Cl 1751  12.750  10.775   9.753 -0.4297 -0.0187 -0.0805
  738MOL0     C 1752  11.882  11.565   9.474 -0.0032  0.0943  0.2978
  738MOL0     C 1753  11.823  11.691   9.481  0.0269  0.5384  0.1575
  738MOL0     O 1754  12.020  12.030   9.441 -0.1765 -0.2732 -0.3453
  738MOL0     C 1755  11.683  12.150   9.415 -0.2413  0.0662  0.1789
  738MOL0     C 1756  11.603  12.268   9.421 -0.2164  0.0227 -0.2536
  738MOL0     N 1757  11.372  12.443   9.825 -0.0315  0.3086 -0.0148
  738MOL0     N 1758  11.389  12.458   9.954  0.2856 -0.5068  0.5767
  738MOL0     C 1759  11.000  11.565  10.142 -1.0645  0.2945 -0.0683
  738MOL0     C 1760  10.926  11.444  10.132  0.0182 -0.2781  0.0130
  738MOL0     C 1761  10.774  11.047  10.292  0.5238  0.1415 -0.0736
  738MOL0     C 1762  10.753  10.979  10.174 -0.1399  1.1021  0.7568
  738MOL0     C 1763  10.662  10.874  10.164  0.4059  0.0247 -0.1569
  738MOL0     C 1764  10.594  10.830  10.273  0.0778 -0.6856 -0.6847
  738MOL0     O 1765  10.502  10.732  10.252 -0.5823 -0.6809 -0.1839
  738MOL0     C 1766  10.412  10.698  10.361 -0.2083  0.3282 -1.0658
  738MOL0     C 1767  10.305  10.620  10.294 -0.0107  0.9118  0.7304
  738MOL0     C 1768  10.223  10.714  10.199 -0.1247 -0.5455 -0.3992
  738MOL0     C 1769  10.080  10.661  10.163 -0.2672  0.0037  0.8031
  738MOL0     C 1770  10.091  10.563  10.051 -0.1490  0.9014 -0.2894
  738MOL0     C 1771  10.095  10.480   9.964  0.1583  0.2213 -0.2913
  738MOL0     C 1772  10.597  10.912  10.387  0.6011  0.8242 -0.2161
  738MOL0     C 1773  10.683  11.020  10.408 -0.0026 -0.0856  0.3875
  738MOL0     C 1774  10.667  11.094  10.543 -0.1526  0.4801 -0.6478
  738MOL0     H 1775  11.171  11.229  10.219  1.4291  0.8156 -0.4494
  738MOL0     H 1776  11.294  11.427  10.228  0.9199  1.8101 -1.5134
  738MOL0     H 1777  11.181  11.735  10.355  2.2190  1.2066  1.1077
  738MOL0     H 1778  11.075  11.799  10.221  1.1934  3.1078 -1.9672
  738MOL0     H 1779  11.355  11.879  10.276  1.3480 -0.1192 -1.2292
  738MOL0     H 1780  11.290  11.897  10.115  1.7728  2.9428  0.4067
  738MOL0     H 1781  11.108  12.059  10.214 -0.6408 -1.4129 -1.4022
  738MOL0     H 1782  11.157  12.002  10.369  0.0991  0.4879 -0.8124
  738MOL0     H 1783  11.372  12.108  10.361 -1.4641 -0.0445  0.7320
  738MOL0     H 1784  11.362  12.151  10.189  1.1015  0.7747  0.4542
  738MOL0     H 1785  11.330  12.343  10.327 -3.5785  3.9678 -1.4429
  738MOL0     H 1786  11.194  12.275  10.418  0.1042  2.4346 -0.3082
  738MOL0     H 1787  11.199  12.305  10.106 -1.1747  0.6080 -1.2148
  738MOL0     H 1788  11.061  12.281  10.222  0.0939 -0.8447  1.5364
  738MOL0     H 1789  11.123  12.508  10.313 -2.9547  1.0062 -1.0231
  738MOL0     H 1790  11.053  12.513  10.159 -0.4956  1.2515  0.2947
  738MOL0     H 1791  11.248  12.665  10.156 -3.8303 -0.5989 -2.7158
  738MOL0     H 1792  11.348  12.532  10.204 -0.3736 -0.2714  0.4775
  738MOL0     H 1793  11.071  12.547   9.912 -0.2270  0.2883  1.3991
  738MOL0     H 1794  11.079  12.469   9.665 -0.0848  1.0700  1.2864
  738MOL0     H 1795  11.219  12.377   9.600 -1.7024 -2.3137  3.0645
  738MOL0     H 1796  11.193  12.555   9.451 -1.6075  0.6074  1.1538
  738MOL0     H 1797  11.159  12.664   9.580 -1.3793 -1.3412  1.3469
  738MOL0     H 1798  11.381  12.694   9.465 -3.1117  0.2022 -0.7849
  738MOL0     H 1799  11.416  12.649   9.635  0.6525 -3.0280  0.8027
  738MOL0     H 1800  11.433  12.404   9.555  1.9609 -0.5244 -1.3477
  738MOL0     H 1801  11.403  12.455   9.392 -0.8191 -1.2085  0.3235
  738MOL0     H 1802  11.854  12.494   9.476  4.3446 -0.9556 -3.0010
  738MOL0     H 1803  12.074  12.271   9.369 -0.1809 -2.6958  1.1499
  738MOL0     H 1804  12.075  12.247   9.545  0.7815  1.2981  0.2358
  738MOL0     H 1805  12.064  12.407   9.490 -1.3406  0.9195  0.9783
  738MOL0     H 1806  12.003  11.846   9.249 -3.6178 -0.3003 -0.7845
  738MOL0     H 1807  12.120  11.608   9.239 -0.7454 -2.4520  0.8270
  738MOL0     H 1808  12.019  11.310   9.560  4.4125 -1.3775  0.7258
  738MOL0     H 1809  11.930  11.281   9.406 -1.1652  2.7458 -0.5620
  738MOL0     H 1810  12.135  11.174   9.326 -0.0841  1.1518 -0.6500
  738MOL0     H 1811  12.231  11.222   9.468 -0.7192  2.4242  2.1445
  738MOL0     H 1812  11.988  11.013   9.455 -1.1398  0.6608  1.5568
  738MOL0     H 1813  12.062  11.071   9.605  0.9693  2.6788 -0.8997
  738MOL0     H 1814  12.212  10.917   9.375  3.6686 -0.5327  0.4810
  738MOL0     H 1815  12.126  10.849   9.525 -0.8329  0.6428  0.0830
  738MOL0     H 1816  12.353  11.045   9.484  0.2905 -1.3432 -1.6523
  738MOL0     H 1817  12.280  10.993   9.645 -2.9520  0.8532 -1.0047
  738MOL0     H 1818  12.420  10.824   9.431 -3.1653  2.6949 -1.1868
  738MOL0     H 1819  12.338  10.753   9.580  1.2694 -0.0482 -0.1412
  738MOL0     H 1820  12.489  10.886   9.725 -0.7208  0.8207 -1.0823
  738MOL0     H 1821  12.558  10.963   9.583  0.0408  0.1303 -1.1577
  738MOL0     H 1822  12.669  10.758   9.521 -1.3170  0.1127 -1.0123
  738MOL0     H 1823  12.566  10.662   9.632 -1.0525  0.7347  2.0182
  738MOL0     H 1824  11.839  11.504   9.553  2.2643 -1.1929  0.6141
  738MOL0     H 1825  11.737  11.717   9.542 -0.4120 -0.3794 -0.0585
  738MOL0     H 1826  11.645  12.054   9.382  1.6865 -1.8955  3.1689
  738MOL0     H 1827  11.502  12.245   9.389  0.6934  0.5272 -3.9539
  738MOL0     H 1828  10.957  11.660  10.112 -0.7491  1.4169  2.7438
  738MOL0     H 1829  10.836  11.450  10.072  0.4594 -3.3621 -1.1223
  738MOL0     H 1830  10.819  10.984  10.088 -1.2208 -4.6191 -0.8686
  738MOL0     H 1831  10.655  10.815  10.073 -3.8166  3.1902 -2.2406
  738MOL0     H 1832  10.460  10.639  10.440  0.2796  0.4391 -1.2694
  738MOL0     H 1833  10.372  10.787  10.411 -0.8300 -0.5584  0.0529
  738MOL0     H 1834  10.253  10.583  10.382  0.9890 -1.1754  0.4972
  738MOL0     H 1835  10.336  10.531  10.239 -1.5957 -0.5015  2.0183
  738MOL0     H 1836  10.207  10.808  10.253  1.7825 -0.2892 -0.2069
  738MOL0     H 1837  10.267  10.726  10.100  1.0403  1.7292  0.3279
  738MOL0     H 1838  10.022  10.747  10.129 -2.0752 -1.3220  0.3884
  738MOL0     H 1839  10.045  10.614  10.255 -0.3394 -1.4144  0.0783
  738MOL0     H 1840  10.100  10.416   9.878 -2.0899 -2.6073  1.5229
  738MOL0     H 1841  10.533  10.892  10.473  1.7229  0.0354  0.4756
  738MOL0     H 1842  10.710  11.038  10.626  1.1648 -1.9373 -2.8134
  738MOL0     H 1843  10.718  11.190  10.525 -0.6684  0.5196 -2.0540
  738MOL0     H 1844  10.568  11.126  10.575 -0.4517  0.0315 -1.1011
  739MOL0     O 1845   2.589   3.624   3.314  0.2293 -0.7175  0.0018
  739MOL0     C 1846   2.680   3.636   3.398 -0.6211  0.2041  0.6045
  739MOL0     O 1847   2.675   3.613   3.530  0.2016  0.5115 -0.7196
  739MOL0     C 1848   2.578   3.522   3.586 -0.2136 -0.0803 -0.0757
  739MOL0     C 1849   2.495   3.433   3.511 -0.2971 -0.1475 -0.0923
  739MOL0     C 1850   2.403   3.351   3.580  0.4729  0.5805  0.1205
  739MOL0     C 1851   2.392   3.356   3.723  0.0910 -0.1248  0.7677
  739MOL0     O 1852   2.308   3.271   3.797  1.0702 -0.1763  0.0223
  739MOL0     C 1853   2.244   3.160   3.732 -0.3239 -0.3265 -0.3464
  739MOL0     C 1854   2.198   3.070   3.846 -0.3271  0.2420 -0.2074
  739MOL0     C 1855   2.143   2.951   3.779  0.2510 -0.4659 -0.2268
  739MOL0     C 1856   2.054   2.883   3.879  0.0809 -0.1428  0.3592
  739MOL0     C 1857   1.970   2.781   3.803 -0.8887  0.0037 -0.3418
  739MOL0     C 1858   1.883   2.692   3.905  0.7500 -0.2422 -0.7583
  739MOL0     C 1859   1.776   2.611   3.825  0.1524 -0.3487  0.1724
  739MOL0     C 1860   1.725   2.494   3.903 -1.0118  1.0662 -0.2018
  739MOL0     N 1861   1.677   2.515   4.044 -0.3606  0.0256 -0.5557
  739MOL0     C 1862   1.556   2.582   4.067 -0.7542  0.2958 -0.2992
  739MOL0     C 1863   1.554   2.600   4.203  0.2193  0.1604  0.7929
  739MOL0     C 1864   1.456   2.676   4.282  1.0411  0.2013  0.8202
  739MOL0     C 1865   1.500   2.829   4.281  0.2475  1.2106 -0.0341
  739MOL0     C 1866   1.641   2.853   4.352 -0.5321 -0.1292  0.8957
  739MOL0     C 1867   1.760   2.868   4.258  0.5249 -0.1153  0.3394
  739MOL0     O 1868   1.875   2.919   4.337 -0.2638  0.7952  0.4174
  739MOL0     C 1869   1.922   2.843   4.439  0.6672  0.1649  0.0880
  739MOL0     C 1870   2.004   2.902   4.533 -0.5510 -0.1326 -0.3323
  739MOL0     C 1871   2.052   2.831   4.643 -1.0661 -0.1829  0.4355
  739MOL0     C 1872   2.130   2.917   4.739  0.7966  0.4403 -0.3106
  739MOL0     C 1873   2.017   2.699   4.656  0.6657  0.4328 -0.3538
  739MOL0     C 1874   2.059   2.615   4.772 -0.0125  0.8029 -0.2068
  739MOL0     O 1875   2.087   2.480   4.747 -0.2857 -0.2064  0.3025
  739MOL0     C 1876   2.176   2.431   4.838  0.1329  0.1956  0.5167
  739MOL0     C 1877   2.315   2.445   4.822 -0.0095  0.8867  0.2303
  739MOL0     C 1878   2.398   2.383   4.916  0.9617  0.4704 -0.5641
  739MOL0     C 1879   2.350   2.327   5.031 -0.4329  0.7418  0.0373
  739MOL0     O 1880   2.432   2.255   5.121  0.6966 -0.0563  0.3242
  739MOL0     C 1881   2.570   2.276   5.122 -0.3764 -0.8976 -0.7449
  739MOL0     C 1882   2.606   2.416   5.159 -0.1219 -0.2090 -0.5829
  739MOL0     C 1883   2.756   2.446   5.152 -0.4099  0.0250 -0.6410
  739MOL0     C 1884   2.796   2.583   5.204  0.1830  0.1346  0.8813
  739MOL0     C 1885   2.937   2.590   5.256  0.1823  0.0745 -0.5828
  739MOL0     C 1886   3.041   2.579   5.148  0.0668 -0.1449  0.3035
  739MOL0     C 1887   3.180   2.537   5.200 -0.7397 -0.2176 -0.1533
  739MOL0     C 1888   3.282   2.520   5.093 -0.2638 -0.0147 -0.0563
  739MOL0    Cl 1889   3.252   2.387   4.988 -0.2336 -0.3607  0.0686
  739MOL0     C 1890   2.218   2.330   5.058  0.8072 -0.2765  0.5977
  739MOL0     C 1891   2.126   2.383   4.957 -0.7463 -0.3162 -1.0284
  739MOL0     O 1892   2.068   2.664   4.882  0.0748  0.6757  0.0647
  739MOL0     C 1893   1.935   2.642   4.564  0.7047  0.2236  0.8741
  739MOL0     C 1894   1.893   2.709   4.457 -0.2206 -0.0048  0.5387
  739MOL0     N 1895   1.658   2.532   4.257  0.6000 -0.0480  0.0365
  739MOL0     N 1896   1.734   2.486   4.168  0.2923  0.5925 -0.0201
  739MOL0     C 1897   2.467   3.450   3.790  0.5803 -0.3633 -0.1439
  739MOL0     C 1898   2.567   3.530   3.722 -0.1519  0.6144  0.4869
  739MOL0     C 1899   2.806   3.680   3.333  0.1537 -0.5564  0.2622
  739MOL0     C 1900   2.906   3.588   3.310  0.2306  0.2867 -0.0457
  739MOL0     C 1901   3.020   3.627   3.230 -0.0772 -0.5493 -0.0228
  739MOL0     C 1902   3.040   3.756   3.193 -0.1164 -0.1603 -0.3150
  739MOL0     O 1903   3.145   3.803   3.114 -0.3926 -0.2941 -0.1544
  739MOL0     C 1904   3.135   3.764   2.980 -0.3021 -0.6360  0.2172
  739MOL0     C 1905   3.239   3.837   2.895  0.2980 -0.0598 -0.2731
  739MOL0     C 1906   3.243   3.987   2.924  0.0795 -0.2571 -0.0546
  739MOL0     C 1907   3.305   4.077   2.817  0.0302 -0.3994  1.2767
  739MOL0     C 1908   3.209   4.098   2.704 -0.5788 -0.5704  0.4104
  739MOL0     C 1909   3.129   4.109   2.613  0.0832  0.8012 -0.0363
  739MOL0     C 1910   2.946   3.850   3.226  0.1816  0.1280 -0.3957
  739MOL0     C 1911   2.827   3.811   3.292  0.2689 -0.9487  0.0102
  739MOL0     C 1912   2.711   3.919   3.309 -0.8294 -0.5718  0.2531
  739MOL0     H 1913   2.496   3.419   3.403  0.9368  2.2340 -0.4744
  739MOL0     H 1914   2.356   3.279   3.515 -0.2449  1.7537 -0.7023
  739MOL0     H 1915   2.307   3.099   3.666  1.1500 -1.9062  2.3538
  739MOL0     H 1916   2.158   3.196   3.675 -0.3852  0.0579 -0.0188
  739MOL0     H 1917   2.284   3.031   3.901 -0.6344  0.0687  0.1527
  739MOL0     H 1918   2.130   3.138   3.899  2.4895  0.3318  3.7574
  739MOL0     H 1919   2.090   2.982   3.689  1.2032  1.2199 -0.2560
  739MOL0     H 1920   2.227   2.893   3.740 -0.2315 -1.3308 -0.0045
  739MOL0     H 1921   2.111   2.832   3.957  0.4719 -1.3922 -0.6933
  739MOL0     H 1922   1.993   2.960   3.927  2.2477  2.8395 -1.3812
  739MOL0     H 1923   2.040   2.722   3.742  2.0718 -1.3848  3.9281
  739MOL0     H 1924   1.900   2.834   3.738 -1.8702 -1.1500 -0.2442
  739MOL0     H 1925   1.935   2.618   3.966  0.2974  0.8657  1.0216
  739MOL0     H 1926   1.821   2.759   3.965 -0.8354 -1.1342 -1.3454
  739MOL0     H 1927   1.816   2.567   3.734 -0.8705  2.7312 -1.9426
  739MOL0     H 1928   1.696   2.677   3.789  1.1898  0.9946  0.2404
  739MOL0     H 1929   1.641   2.454   3.845 -0.2714  1.4710 -1.6058
  739MOL0     H 1930   1.800   2.415   3.901 -1.6544  0.3671 -4.1214
  739MOL0     H 1931   1.499   2.643   3.997  1.2823  1.5042 -0.9956
  739MOL0     H 1932   1.455   2.652   4.388  2.1682  1.8748  1.2439
  739MOL0     H 1933   1.358   2.656   4.235  0.5776  0.5781  1.6138
  739MOL0     H 1934   1.482   2.870   4.182 -0.0316  1.8916  0.2938
  739MOL0     H 1935   1.419   2.877   4.336 -0.5731 -1.5999  1.4392
  739MOL0     H 1936   1.639   2.953   4.396 -0.7647 -0.6804  2.2183
  739MOL0     H 1937   1.659   2.784   4.436  2.2862  1.5629  1.7967
  739MOL0     H 1938   1.788   2.774   4.209 -3.9987 -1.1399 -0.7583
  739MOL0     H 1939   1.739   2.937   4.177  0.5890 -0.9263 -0.3833
  739MOL0     H 1940   2.008   3.009   4.517 -0.9667  0.2451  1.7817
  739MOL0     H 1941   2.197   2.845   4.786  0.4557 -0.8164 -1.6810
  739MOL0     H 1942   2.060   2.963   4.809 -0.9404 -1.4460 -0.7392
  739MOL0     H 1943   2.183   2.997   4.686 -0.4575  3.0705  2.1527
  739MOL0     H 1944   2.362   2.503   4.744 -2.2665  1.5659 -0.7036
  739MOL0     H 1945   2.504   2.373   4.895  0.5107 -7.3679 -1.9756
  739MOL0     H 1946   2.613   2.214   5.202 -1.1881 -0.5159  0.0084
  739MOL0     H 1947   2.613   2.245   5.026  0.3132  0.3687 -0.8632
  739MOL0     H 1948   2.563   2.495   5.097 -0.3926 -0.6700 -0.9861
  739MOL0     H 1949   2.562   2.439   5.257  0.7235 -1.4476  0.1112
  739MOL0     H 1950   2.788   2.429   5.048 -1.1922 -1.0266 -0.7288
  739MOL0     H 1951   2.799   2.377   5.225 -3.0743 -0.1528  0.8675
  739MOL0     H 1952   2.727   2.615   5.283 -2.2512  4.2564 -2.4561
  739MOL0     H 1953   2.780   2.659   5.127  0.8510  2.0754  2.5582
  739MOL0     H 1954   2.964   2.683   5.308  0.3015  1.3147 -2.7233
  739MOL0     H 1955   2.955   2.513   5.332  1.1987 -0.2439 -1.1310
  739MOL0     H 1956   3.054   2.670   5.089  3.0790  0.2608  1.4076
  739MOL0     H 1957   3.009   2.493   5.088  1.0973  0.0710 -0.5963
  739MOL0     H 1958   3.166   2.441   5.251  1.2281 -0.2843  0.3663
  739MOL0     H 1959   3.217   2.607   5.276  2.3061 -1.2496 -0.5268
  739MOL0     H 1960   3.380   2.495   5.136 -0.0006 -2.3300 -1.7560
  739MOL0     H 1961   3.302   2.608   5.031  2.9612  0.3803  1.3349
  739MOL0     H 1962   2.169   2.284   5.143 -0.2234  0.9314  0.6922
  739MOL0     H 1963   2.019   2.369   4.966 -0.4100 -1.3434  3.5159
  739MOL0     H 1964   1.908   2.538   4.578 -1.0388  0.6357  0.7804
  739MOL0     H 1965   1.821   2.661   4.392  0.2423  0.9142 -0.6962
  739MOL0     H 1966   2.438   3.452   3.895 -0.8778 -0.4951 -0.5285
  739MOL0     H 1967   2.624   3.607   3.772 -2.3649  0.6569  3.1366
  739MOL0     H 1968   2.891   3.493   3.362  1.4048  1.1179  1.9504
  739MOL0     H 1969   3.102   3.562   3.202 -1.7796 -1.5302 -3.1930
  739MOL0     H 1970   3.145   3.655   2.979  4.9360 -0.4456 -2.3646
  739MOL0     H 1971   3.035   3.779   2.938  1.0553  1.4651 -2.5535
  739MOL0     H 1972   3.196   3.833   2.795 -1.2773  2.5546  0.1955
  739MOL0     H 1973   3.337   3.790   2.910  0.9881  1.6661  1.1021
  739MOL0     H 1974   3.140   4.016   2.949 -0.1852 -2.5342  1.8922
  739MOL0     H 1975   3.307   3.992   3.012  1.3746  0.7662 -1.0217
  739MOL0     H 1976   3.400   4.042   2.777  0.2583  1.8226 -0.3153
  739MOL0     H 1977   3.325   4.171   2.869  0.1936  0.0015  0.5047
  739MOL0     H 1978   3.049   4.117   2.541  0.3110  1.4541 -0.2298
  739MOL0     H 1979   2.954   3.951   3.187 -2.8910  0.5494 -0.1327
  739MOL0     H 1980   2.649   3.924   3.219 -0.6790  1.0374  0.2038
  739MOL0     H 1981   2.649   3.903   3.398 -1.9075 -1.6826 -0.6605
  739MOL0     H 1982   2.745   4.023   3.317  0.4924 -0.7720 -2.0096
  740MOL0     O 1983   3.268   8.068   5.551 -0.9854  0.0599 -0.0170
  740MOL0     C 1984   3.193   8.093   5.649 -0.2208 -0.8058 -0.1016
  740MOL0     O 1985   3.200   8.048   5.779 -0.5431  0.2101  0.4492
  740MOL0     C 1986   3.302   7.960   5.803 -0.3023 -0.3870  0.2944
  740MOL0     C 1987   3.425   8.010   5.845 -0.8651 -0.5701 -0.4520
  740MOL0     C 1988   3.529   7.924   5.881  0.9091  0.6176  1.5875
  740MOL0     C 1989   3.510   7.788   5.880  0.1337  0.1820 -0.2352
  740MOL0     O 1990   3.613   7.712   5.935  0.9377 -0.2416 -0.6354
  740MOL0     C 1991   3.582   7.574   5.959 -0.6258 -0.0088  0.9090
  740MOL0     C 1992   3.709   7.508   6.022  0.8585  0.1179  0.7374
  740MOL0     C 1993   3.748   7.361   5.978  0.2640  0.2998 -0.1697
  740MOL0     C 1994   3.623   7.277   5.987 -0.1675  0.4175 -0.3914
  740MOL0     C 1995   3.648   7.140   5.916  0.5859  0.0282  0.2563
  740MOL0     C 1996   3.644   7.133   5.757 -0.1577  0.0980 -0.2983
  740MOL0     C 1997   3.648   6.984   5.709  0.3474 -0.0733  0.6293
  740MOL0     C 1998   3.625   6.989   5.551  0.1414 -0.6977 -0.5978
  740MOL0     N 1999   3.642   6.857   5.492 -0.0493  0.9432  0.7880
  740MOL0     C 2000   3.552   6.754   5.495 -0.1345 -0.8189 -0.0127
  740MOL0     C 2001   3.621   6.649   5.430  0.7820  0.1123 -0.3825
  740MOL0     C 2002   3.576   6.505   5.403  0.1116  0.2349 -0.4201
  740MOL0     C 2003   3.486   6.507   5.277 -0.2428  0.4907 -0.3642
  740MOL0     C 2004   3.427   6.368   5.263  0.3284  0.5615  0.2381
  740MOL0     C 2005   3.341   6.372   5.136  0.5505  1.0022 -0.1431
  740MOL0     O 2006   3.292   6.235   5.111 -1.1444 -0.6459  0.0775
  740MOL0     C 2007   3.189   6.210   5.030  0.5934  0.0109  0.4409
  740MOL0     C 2008   3.173   6.076   5.018  0.7722 -0.0423 -0.0079
  740MOL0     C 2009   3.067   6.015   4.947 -0.9590  0.3748 -0.2587
  740MOL0     C 2010   3.047   5.863   4.969  0.0674 -0.4693  0.0074
  740MOL0     C 2011   2.980   6.101   4.867 -0.0065  0.0221 -0.3675
  740MOL0     C 2012   2.876   6.050   4.774 -0.3336 -0.5976  0.7755
  740MOL0     O 2013   2.800   6.153   4.722 -0.1745  0.6290  0.1796
  740MOL0     C 2014   2.685   6.118   4.650 -0.5839 -0.3337  0.3396
  740MOL0     C 2015   2.604   6.005   4.664  0.2472 -0.4390  0.3144
  740MOL0     C 2016   2.492   5.981   4.578  0.2929  0.3208  0.1021
  740MOL0     C 2017   2.454   6.078   4.483 -0.3341 -0.8459  0.1111
  740MOL0     O 2018   2.352   6.049   4.397 -0.1534  0.0643  0.1442
  740MOL0     C 2019   2.273   6.162   4.351 -0.0558 -0.1392  0.6825
  740MOL0     C 2020   2.143   6.111   4.286 -0.6696 -0.3245 -0.7713
  740MOL0     C 2021   2.008   6.166   4.331 -0.7104 -0.0168  1.1748
  740MOL0     C 2022   1.891   6.082   4.287 -0.2246  0.4043 -0.3052
  740MOL0     C 2023   1.763   6.135   4.343  0.0939 -0.5973  0.3132
  740MOL0     C 2024   1.737   6.134   4.492  0.4278  0.4570 -0.7811
  740MOL0     C 2025   1.740   6.001   4.572 -0.3661 -0.0326  0.8901
  740MOL0     C 2026   1.632   5.908   4.521  0.0458 -0.2562  0.8313
  740MOL0    Cl 2027   1.474   5.994   4.481 -0.0486 -0.4220 -0.2461
  740MOL0     C 2028   2.529   6.192   4.468  0.0909 -0.6063  0.1346
  740MOL0     C 2029   2.644   6.214   4.555  0.1430 -0.1919  0.6237
  740MOL0     O 2030   2.869   5.930   4.736  0.8746 -0.3519  0.2605
  740MOL0     C 2031   2.996   6.241   4.891  0.3616  0.3159  0.6259
  740MOL0     C 2032   3.100   6.300   4.963 -0.5262  0.3018  0.4109
  740MOL0     N 2033   3.750   6.689   5.405 -0.1110 -0.1340  0.3220
  740MOL0     N 2034   3.764   6.812   5.440  0.2473  0.0500 -0.5535
  740MOL0     C 2035   3.380   7.730   5.836  0.0952 -0.0741  0.5894
  740MOL0     C 2036   3.279   7.822   5.790 -0.5285  0.3031  0.1302
  740MOL0     C 2037   3.074   8.183   5.614  0.5087 -0.0330  0.6840
  740MOL0     C 2038   2.960   8.158   5.690  0.7783  0.8477  0.3777
  740MOL0     C 2039   2.837   8.225   5.667 -1.6104  1.1342 -0.1783
  740MOL0     C 2040   2.826   8.307   5.560  0.1343 -0.6074 -0.7770
  740MOL0     O 2041   2.704   8.362   5.530  0.3485  0.1862  0.5340
  740MOL0     C 2042   2.584   8.290   5.569 -0.3006 -0.1327  0.1794
  740MOL0     C 2043   2.458   8.343   5.499  0.2916 -0.3691 -0.6861
  740MOL0     C 2044   2.472   8.334   5.350  0.8223 -0.2072 -0.4767
  740MOL0     C 2045   2.370   8.410   5.266 -0.3403 -0.2961 -0.5976
  740MOL0     C 2046   2.421   8.432   5.127  0.1302 -0.2648  1.1236
  740MOL0     C 2047   2.439   8.431   5.007 -0.2250  0.1191 -0.7955
  740MOL0     C 2048   2.941   8.348   5.489 -0.1328 -0.4932 -0.8231
  740MOL0     C 2049   3.068   8.290   5.521 -0.2062 -0.0421 -0.0314
  740MOL0     C 2050   3.180   8.342   5.440  0.1512  0.2996  0.2163
  740MOL0     H 2051   3.412   8.115   5.872  0.1345 -0.0032 -2.0781
  740MOL0     H 2052   3.622   7.964   5.919  1.9566 -2.0109  1.9850
  740MOL0     H 2053   3.564   7.525   5.863 -1.1743 -0.1438  1.0808
  740MOL0     H 2054   3.491   7.560   6.017 -1.8480 -0.6075 -1.0665
  740MOL0     H 2055   3.799   7.570   6.010  0.1251  1.5408  2.1313
  740MOL0     H 2056   3.680   7.493   6.126 -0.4113  1.8924  0.6791
  740MOL0     H 2057   3.769   7.359   5.871 -3.0370 -1.7488 -0.9415
  740MOL0     H 2058   3.825   7.312   6.039 -2.0240 -1.6700  1.3548
  740MOL0     H 2059   3.596   7.271   6.093  0.7993 -1.0801 -0.1957
  740MOL0     H 2060   3.541   7.330   5.937  1.2669  2.1497 -1.0040
  740MOL0     H 2061   3.566   7.075   5.949  1.1294 -0.7976  0.0172
  740MOL0     H 2062   3.738   7.092   5.956 -0.0864 -2.0999 -0.6396
  740MOL0     H 2063   3.558   7.194   5.726 -0.6792  0.3920  1.6080
  740MOL0     H 2064   3.732   7.187   5.723  0.2466 -0.2042  0.2478
  740MOL0     H 2065   3.563   6.925   5.746  0.4482 -0.5851  0.0641
  740MOL0     H 2066   3.738   6.937   5.747 -0.2908 -0.9183  1.1279
  740MOL0     H 2067   3.534   7.044   5.523  1.1385  1.6511  0.5826
  740MOL0     H 2068   3.711   7.046   5.517  1.5267 -1.1435  1.9003
  740MOL0     H 2069   3.453   6.757   5.542  0.0333 -0.1424  0.3105
  740MOL0     H 2070   3.514   6.471   5.486  0.6358 -0.9886 -0.5067
  740MOL0     H 2071   3.657   6.437   5.375 -0.2749 -0.3689 -0.0811
  740MOL0     H 2072   3.405   6.579   5.269  0.6210  1.9107  2.3160
  740MOL0     H 2073   3.552   6.518   5.190  1.2379 -0.6056  0.5568
  740MOL0     H 2074   3.504   6.290   5.256  0.2060  0.4540  0.0721
  740MOL0     H 2075   3.366   6.355   5.354  1.1920  0.7271  0.8520
  740MOL0     H 2076   3.254   6.437   5.150 -0.3812 -0.5837  1.9018
  740MOL0     H 2077   3.398   6.411   5.051  0.6038  1.4199  0.0792
  740MOL0     H 2078   3.229   5.999   5.070 -1.4057 -2.1388 -0.5658
  740MOL0     H 2079   3.096   5.809   4.887  1.3919 -0.3922  0.7348
  740MOL0     H 2080   2.940   5.839   4.969 -0.0800 -0.9205  5.2201
  740MOL0     H 2081   3.081   5.823   5.065  0.1510 -0.3526  0.0266
  740MOL0     H 2082   2.625   5.930   4.739 -0.7779 -1.3220 -0.2466
  740MOL0     H 2083   2.445   5.884   4.575  1.2600 -0.1400 -1.4049
  740MOL0     H 2084   2.240   6.225   4.434 -2.1245 -1.5958  1.0542
  740MOL0     H 2085   2.323   6.225   4.276 -1.5708  0.3702  0.0483
  740MOL0     H 2086   2.156   6.116   4.178 -0.1097 -1.1771 -0.7549
  740MOL0     H 2087   2.152   6.005   4.310  3.1344 -0.0999 -0.5406
  740MOL0     H 2088   1.991   6.263   4.283 -0.4690 -1.0756 -1.1485
  740MOL0     H 2089   2.013   6.185   4.439  0.9082  1.3958  0.9031
  740MOL0     H 2090   1.903   5.980   4.325 -2.3456  0.2046 -0.0205
  740MOL0     H 2091   1.888   6.072   4.178  0.2817 -0.2786 -0.2641
  740MOL0     H 2092   1.760   6.237   4.305  3.8696 -0.5223 -0.1837
  740MOL0     H 2093   1.678   6.078   4.304 -0.3333 -0.9309  1.6543
  740MOL0     H 2094   1.643   6.186   4.512  1.6839  2.3597  0.6042
  740MOL0     H 2095   1.811   6.199   4.540  1.3080 -0.6344 -0.5991
  740MOL0     H 2096   1.746   6.005   4.681 -2.9222 -2.4743  1.2374
  740MOL0     H 2097   1.836   5.956   4.546 -0.7545 -1.0598  1.1750
  740MOL0     H 2098   1.610   5.834   4.598 -0.1189  0.2420  1.2716
  740MOL0     H 2099   1.677   5.848   4.442  1.4376  1.5686  0.1715
  740MOL0     H 2100   2.504   6.260   4.387 -1.2729 -1.4451 -0.1757
  740MOL0     H 2101   2.709   6.298   4.531  0.0122 -0.5645 -1.2189
  740MOL0     H 2102   2.938   6.316   4.838  2.7532  0.5463 -1.8680
  740MOL0     H 2103   3.113   6.408   4.968 -1.4373  0.3976  0.7620
  740MOL0     H 2104   3.357   7.625   5.824 -4.6044  0.8587 -0.7492
  740MOL0     H 2105   3.181   7.787   5.759  0.5709 -0.0215 -3.4543
  740MOL0     H 2106   2.950   8.074   5.758  0.4324 -0.9069 -1.7272
  740MOL0     H 2107   2.759   8.192   5.736  0.8331 -0.6820  1.8839
  740MOL0     H 2108   2.580   8.185   5.541 -2.5074 -0.4885  1.6127
  740MOL0     H 2109   2.565   8.293   5.677  1.3132 -0.4943  0.5072
  740MOL0     H 2110   2.433   8.448   5.515 -1.9051 -1.2080  2.2311
  740MOL0     H 2111   2.365   8.293   5.530 -0.2258  1.6972  1.3447
  740MOL0     H 2112   2.571   8.372   5.322  1.3810 -2.3589 -1.7358
  740MOL0     H 2113   2.474   8.226   5.330  0.1623 -0.6481  1.5926
  740MOL0     H 2114   2.342   8.508   5.304 -1.2135  0.3436 -2.7192
  740MOL0     H 2115   2.278   8.357   5.242 -0.0730 -0.4735 -1.2683
  740MOL0     H 2116   2.449   8.421   4.900  0.6124 -0.0527 -0.7084
  740MOL0     H 2117   2.936   8.429   5.417 -2.2491 -0.1494 -0.3540
  740MOL0     H 2118   3.222   8.265   5.375  2.7763  0.1520  1.9636
  740MOL0     H 2119   3.139   8.425   5.382 -0.1764 -0.8047 -1.1730
  740MOL0     H 2120   3.251   8.382   5.513 -1.1062  0.9792  1.1101
  741MOL0     O 2121   9.179   7.944   5.136 -0.2405 -0.1905 -0.4574
  741MOL0     C 2122   9.062   7.963   5.155  0.3728 -0.3473  0.7728
  741MOL0     O 2123   8.995   7.955   5.271 -0.0642  0.9913  0.4508
  741MOL0     C 2124   9.078   7.952   5.374 -0.6914 -0.1493 -0.7272
  741MOL0     C 2125   9.119   8.080   5.418  0.2085 -0.0009  0.2385
  741MOL0     C 2126   9.203   8.090   5.525 -0.1877 -0.2563 -0.2871
  741MOL0     C 2127   9.239   7.975   5.592 -0.0796  0.6348  0.6129
  741MOL0     O 2128   9.336   7.967   5.693 -0.4434  0.2296  0.0386
  741MOL0     C 2129   9.340   8.084   5.779  0.9037 -0.1908 -0.5854
  741MOL0     C 2130   9.403   8.046   5.911 -0.8216 -0.2554 -0.6332
  741MOL0     C 2131   9.541   7.979   5.907  0.4604 -0.2997  0.8416
  741MOL0     C 2132   9.605   7.970   6.048  0.1382  0.0931 -0.2209
  741MOL0     C 2133   9.709   7.849   6.058 -0.2159  0.0580  0.3400
  741MOL0     C 2134   9.755   7.837   6.206  0.3170  0.4518  0.3277
  741MOL0     C 2135   9.841   7.952   6.266 -0.0916  0.2829  1.0038
  741MOL0     C 2136   9.985   7.968   6.222  0.0904  1.0714  0.0751
  741MOL0     N 2137  10.045   8.101   6.247 -0.5139 -0.0322 -0.3958
  741MOL0     C 2138  10.034   8.179   6.364  0.1948 -0.3616  0.6306
  741MOL0     C 2139  10.096   8.296   6.339 -1.6108  0.1466  0.4275
  741MOL0     C 2140  10.125   8.404   6.437 -0.0895  0.3099 -0.1421
  741MOL0     C 2141  10.026   8.520   6.455 -0.3535  0.0432  0.2217
  741MOL0     C 2142  10.102   8.645   6.528 -0.4624  0.4579  0.2131
  741MOL0     C 2143  10.201   8.706   6.417  0.0358 -0.7808  0.4140
  741MOL0     O 2144  10.123   8.742   6.296  0.1048 -0.0245  0.1733
  741MOL0     C 2145  10.200   8.765   6.184  0.4077 -0.3996 -0.4541
  741MOL0     C 2146  10.202   8.893   6.126  0.2530  0.3905  0.0599
  741MOL0     C 2147  10.276   8.918   6.008  0.5074  0.4391 -0.2238
  741MOL0     C 2148  10.275   9.057   5.952  0.0831  0.4822 -0.3822
  741MOL0     C 2149  10.351   8.813   5.948  0.5402 -0.6518  0.5931
  741MOL0     C 2150  10.430   8.837   5.823 -0.5056 -0.6327 -0.7655
  741MOL0     O 2151  10.418   8.746   5.729 -0.1717  0.0152  0.6805
  741MOL0     C 2152  10.504   8.742   5.622 -0.5637  0.1092  0.0162
  741MOL0     C 2153  10.639   8.722   5.654  0.2894  0.0422 -0.8032
  741MOL0     C 2154  10.725   8.691   5.552 -0.1351 -0.0348 -0.3443
  741MOL0     C 2155  10.680   8.696   5.416  0.4488  0.4868 -0.3152
  741MOL0     O 2156  10.784   8.658   5.331 -0.0001  0.0930 -0.5611
  741MOL0     C 2157  10.755   8.643   5.192 -0.4827  1.1514 -0.1858
  741MOL0     C 2158  10.877   8.589   5.121 -0.3435  0.2783  0.2771
  741MOL0     C 2159  10.999   8.694   5.121  0.6096  0.9514 -0.2949
  741MOL0     C 2160  11.089   8.670   4.997 -0.2175  0.4808  0.0207
  741MOL0     C 2161  11.189   8.786   4.980  0.9905  0.7623  0.5117
  741MOL0     C 2162  11.303   8.782   5.085  0.0912 -0.9581  0.0633
  741MOL0     C 2163  11.402   8.672   5.069  0.7042 -0.5227  0.1613
  741MOL0     C 2164  11.509   8.696   5.176  0.8505  0.4384  0.5543
  741MOL0    Cl 2165  11.644   8.589   5.153  0.2214  0.0396  0.4276
  741MOL0     C 2166  10.549   8.744   5.385  0.0206 -0.0119 -0.4036
  741MOL0     C 2167  10.469   8.764   5.489 -0.0358  0.0629 -0.1321
  741MOL0     O 2168  10.530   8.910   5.846  0.1062  0.3168 -0.5172
  741MOL0     C 2169  10.342   8.686   5.997 -0.1678 -0.1238 -0.5764
  741MOL0     C 2170  10.274   8.664   6.126 -0.6302 -0.6861 -0.6375
  741MOL0     N 2171  10.150   8.292   6.203  0.1808  0.5710 -0.0965
  741MOL0     N 2172  10.117   8.171   6.154 -0.7703  0.1621  0.3168
  741MOL0     C 2173   9.205   7.848   5.543 -0.3816 -0.5847 -0.6114
  741MOL0     C 2174   9.124   7.835   5.437  0.3405 -0.6787 -0.0265
  741MOL0     C 2175   8.978   7.976   5.034  0.2314  0.1657 -0.0254
  741MOL0     C 2176   8.828   7.994   5.054 -0.3544  0.5163  0.4432
  741MOL0     C 2177   8.740   8.009   4.948 -0.3511 -0.1084  0.0100
  741MOL0     C 2178   8.792   8.019   4.821  0.1013  0.3057 -0.2133
  741MOL0     O 2179   8.697   8.034   4.722 -0.8215  0.0769 -0.4034
  741MOL0     C 2180   8.731   8.087   4.595  0.2866  0.0101  0.3123
  741MOL0     C 2181   8.622   8.173   4.543 -0.1474 -0.0910 -0.6399
  741MOL0     C 2182   8.552   8.259   4.647  0.0733  0.5697  0.3366
  741MOL0     C 2183   8.555   8.404   4.606 -0.7069 -0.3219 -0.2510
  741MOL0     C 2184   8.683   8.467   4.588 -1.4927 -0.4186  0.4134
  741MOL0     C 2185   8.790   8.517   4.565 -0.0016 -0.0580 -0.2204
  741MOL0     C 2186   8.931   8.006   4.800 -0.0999  0.5321  0.1964
  741MOL0     C 2187   9.025   7.989   4.901 -0.4686  0.4696  0.0822
  741MOL0     C 2188   9.170   7.983   4.861 -0.7407  0.3100 -0.1358
  741MOL0     H 2189   9.083   8.174   5.378 -3.4027  0.2425  3.4215
  741MOL0     H 2190   9.235   8.189   5.556  0.0741  0.5943 -3.0575
  741MOL0     H 2191   9.241   8.126   5.800  2.2427  2.4050  1.0619
  741MOL0     H 2192   9.406   8.157   5.731  1.2550  0.5723  1.0061
  741MOL0     H 2193   9.404   8.137   5.972 -0.9921 -0.5998 -0.1037
  741MOL0     H 2194   9.339   7.970   5.959  0.3570 -1.0696 -0.3162
  741MOL0     H 2195   9.539   7.883   5.854 -0.3282  1.0914 -1.8186
  741MOL0     H 2196   9.606   8.039   5.843  0.1554  0.9850  1.7037
  741MOL0     H 2197   9.652   8.063   6.082 -0.3832 -0.9513  3.8910
  741MOL0     H 2198   9.524   7.945   6.118 -1.8193  0.2900 -2.3018
  741MOL0     H 2199   9.786   7.869   5.983 -0.1803 -1.2835 -0.0068
  741MOL0     H 2200   9.655   7.755   6.038  0.7709 -0.7365  1.2849
  741MOL0     H 2201   9.660   7.829   6.260  0.3968  1.6856  0.6896
  741MOL0     H 2202   9.799   7.738   6.221 -1.2677 -0.0909  1.7687
  741MOL0     H 2203   9.847   7.935   6.374 -0.3396  3.6865  1.6839
  741MOL0     H 2204   9.787   8.046   6.247 -0.5607 -0.1534  0.1304
  741MOL0     H 2205  10.048   7.890   6.266  3.2184  2.2111 -2.0444
  741MOL0     H 2206   9.988   7.955   6.114 -0.2310  2.2556 -0.0918
  741MOL0     H 2207   9.995   8.148   6.461  0.0109 -1.2684  0.2702
  741MOL0     H 2208  10.221   8.447   6.407  1.1063 -0.4132  2.3316
  741MOL0     H 2209  10.140   8.357   6.535  0.3230 -1.3369 -0.9701
  741MOL0     H 2210   9.984   8.548   6.358  0.2519 -1.1425 -0.3942
  741MOL0     H 2211   9.936   8.499   6.513 -3.2333  1.1899 -3.4867
  741MOL0     H 2212  10.025   8.711   6.571 -0.8555  0.1415  0.0053
  741MOL0     H 2213  10.156   8.604   6.613 -1.9985  1.0829  1.5418
  741MOL0     H 2214  10.250   8.795   6.456  1.3008 -1.5677  0.6702
  741MOL0     H 2215  10.284   8.638   6.395 -2.3155 -4.0751  0.9436
  741MOL0     H 2216  10.142   8.967   6.177  0.7232 -0.1025  1.3550
  741MOL0     H 2217  10.355   9.122   5.991 -0.7983 -0.2291  2.9515
  741MOL0     H 2218  10.184   9.105   5.988  1.0649  1.4590  0.8842
  741MOL0     H 2219  10.291   9.049   5.844 -0.3363 -0.6834 -0.3757
  741MOL0     H 2220  10.671   8.716   5.758  0.0897 -0.4465 -0.7661
  741MOL0     H 2221  10.821   8.641   5.560 -0.8331 -1.3531 -0.0803
  741MOL0     H 2222  10.669   8.576   5.200  2.3314 -2.7577  0.6323
  741MOL0     H 2223  10.736   8.746   5.160 -2.1509  0.4641 -1.5319
  741MOL0     H 2224  10.911   8.494   5.163  0.7882  0.5013 -0.0869
  741MOL0     H 2225  10.857   8.562   5.016  1.6506  0.1503 -0.1181
  741MOL0     H 2226  11.049   8.671   5.216  1.7133 -0.2912 -1.1470
  741MOL0     H 2227  10.966   8.798   5.111  0.3499  0.8332 -0.6992
  741MOL0     H 2228  11.031   8.664   4.905  1.8201 -2.6868 -1.2404
  741MOL0     H 2229  11.140   8.573   4.998 -0.3404  0.3987 -0.7406
  741MOL0     H 2230  11.242   8.784   4.884 -0.3324 -0.9233 -0.2391
  741MOL0     H 2231  11.123   8.873   4.980 -2.8991 -1.8232 -1.7736
  741MOL0     H 2232  11.268   8.799   5.187  1.0003  0.2394  0.1919
  741MOL0     H 2233  11.363   8.870   5.062 -0.3148 -0.3582  1.2346
  741MOL0     H 2234  11.444   8.672   4.968  0.4652  1.2213  0.0418
  741MOL0     H 2235  11.346   8.581   5.092 -0.8109  0.4828  0.5712
  741MOL0     H 2236  11.462   8.664   5.270  0.6873 -2.7169 -0.4790
  741MOL0     H 2237  11.549   8.798   5.177  0.2902  0.6658  1.8868
  741MOL0     H 2238  10.522   8.773   5.284 -0.0315  0.4857 -0.2459
  741MOL0     H 2239  10.371   8.806   5.467  0.5407  0.7485 -1.4566
  741MOL0     H 2240  10.398   8.608   5.946  0.3490  0.0020 -0.2040
  741MOL0     H 2241  10.263   8.567   6.174 -1.9320 -1.0249 -1.5582
  741MOL0     H 2242   9.241   7.767   5.605 -2.3149  0.1646  1.6399
  741MOL0     H 2243   9.095   7.732   5.418  2.0083 -1.0682 -0.6474
  741MOL0     H 2244   8.791   7.972   5.154 -1.5249 -2.5072 -0.5483
  741MOL0     H 2245   8.634   8.023   4.965  0.1476  2.7418  1.4274
  741MOL0     H 2246   8.818   8.153   4.596  0.7687 -0.5949 -0.3561
  741MOL0     H 2247   8.733   8.010   4.516  2.4239 -0.1746  0.4770
  741MOL0     H 2248   8.545   8.107   4.501  0.5568 -0.7358 -0.9441
  741MOL0     H 2249   8.665   8.235   4.464  0.5848  0.9293  0.5220
  741MOL0     H 2250   8.445   8.235   4.643  0.6371 -2.5162  1.2224
  741MOL0     H 2251   8.589   8.234   4.746  0.8964 -1.3261 -0.4164
  741MOL0     H 2252   8.504   8.447   4.692 -0.1831  0.6242 -0.3965
  741MOL0     H 2253   8.488   8.433   4.524  2.8420  1.5113 -2.7728
  741MOL0     H 2254   8.885   8.550   4.528  1.7343 -1.2550  2.7749
  741MOL0     H 2255   8.959   7.989   4.696  0.4796  0.1798  0.4050
  741MOL0     H 2256   9.230   8.050   4.923 -2.3376  1.4827  0.2339
  741MOL0     H 2257   9.199   7.880   4.883 -1.6314 -0.0982 -0.7564
  741MOL0     H 2258   9.184   7.988   4.753  0.6062 -2.0295 -0.1320
  742MOL0     O 2259   5.471   0.606   9.921  0.0816 -0.6867 -0.3602
  742MOL0     C 2260   5.479   0.516  10.009  0.6224  0.2832 -0.5461
  742MOL0     O 2261   5.576   0.427  10.020 -0.3025 -0.4680 -0.5482
  742MOL0     C 2262   5.661   0.409   9.921 -0.7005 -0.4911  0.6623
  742MOL0     C 2263   5.627   0.386   9.787  0.3558  0.2381 -0.5256
  742MOL0     C 2264   5.708   0.401   9.678  0.2891 -0.2809 -0.1880
  742MOL0     C 2265   5.836   0.449   9.702  0.3396  0.6926  0.0338
  742MOL0     O 2266   5.923   0.472   9.599  0.6674  0.0265 -0.2790
  742MOL0     C 2267   5.963   0.353   9.524 -0.3422  0.0647 -0.2145
  742MOL0     C 2268   6.066   0.408   9.431 -0.6265 -0.5873 -0.0325
  742MOL0     C 2269   6.091   0.303   9.322 -0.3297  0.4803  0.5298
  742MOL0     C 2270   6.155   0.179   9.376  0.0859  0.4230 -0.1921
  742MOL0     C 2271   6.188   0.072   9.269 -0.5035 -0.4064 -0.3599
  742MOL0     C 2272   6.237  -0.057   9.331 -0.2251 -0.7345  0.9711
  742MOL0     C 2273   6.234  -0.162   9.211  0.6347 -0.1817  0.8753
  742MOL0     C 2274   6.234  -0.312   9.263 -0.3476 -0.6995  0.0725
  742MOL0     N 2275   6.369  -0.347   9.310 -0.0840 -0.1917 -0.2508
  742MOL0     C 2276   6.491  -0.342   9.246 -0.0017  0.5213  0.1622
  742MOL0     C 2277   6.578  -0.394   9.331  0.9109  0.4788  0.3415
  742MOL0     C 2278   6.723  -0.410   9.306 -0.6540 -0.4813  0.4746
  742MOL0     C 2279   6.784  -0.293   9.222  0.2929  0.3488 -0.4326
  742MOL0     C 2280   6.930  -0.310   9.188  0.4619  0.5914 -0.5798
  742MOL0     C 2281   6.976  -0.203   9.084  0.4973 -0.6036 -0.2507
  742MOL0     O 2282   7.119  -0.208   9.085 -0.3220 -0.1681  0.4594
  742MOL0     C 2283   7.189  -0.118   9.014 -0.5987 -0.2028  0.1832
  742MOL0     C 2284   7.322  -0.152   8.997  0.1913  0.3454  0.3745
  742MOL0     C 2285   7.416  -0.069   8.930 -0.5976  0.9378  0.0427
  742MOL0     C 2286   7.556  -0.136   8.911  0.6602  0.4856  0.6979
  742MOL0     C 2287   7.369   0.047   8.863  0.0496 -0.4199 -0.3078
  742MOL0     C 2288   7.459   0.152   8.796  0.4964  0.2489 -0.6667
  742MOL0     O 2289   7.590   0.125   8.799 -0.2840 -0.2365  0.0457
  742MOL0     C 2290   7.671   0.223   8.760 -1.0077 -0.9099  0.0340
  742MOL0     C 2291   7.741   0.196   8.642  0.4032  0.3473 -0.1426
  742MOL0     C 2292   7.837   0.292   8.597 -0.5215  1.6670 -0.8711
  742MOL0     C 2293   7.855   0.414   8.666 -0.0914 -0.0409  0.0450
  742MOL0     O 2294   7.937   0.511   8.605  0.1792  0.0727  0.3399
  742MOL0     C 2295   8.019   0.588   8.691 -0.7281  0.4283 -0.7058
  742MOL0     C 2296   8.148   0.632   8.610  0.2432  0.0547 -0.6724
  742MOL0     C 2297   8.258   0.670   8.704  0.3801 -0.0315 -0.0807
  742MOL0     C 2298   8.236   0.761   8.823  0.7562 -1.2277 -0.2892
  742MOL0     C 2299   8.370   0.796   8.891  1.1283  0.1559  0.1253
  742MOL0     C 2300   8.461   0.897   8.831 -0.7597  0.1403 -0.1058
  742MOL0     C 2301   8.591   0.909   8.915  0.1838 -0.3487  0.3010
  742MOL0     C 2302   8.690   1.021   8.858 -0.6395 -0.4363  0.6405
  742MOL0    Cl 2303   8.613   1.172   8.802 -0.0206 -0.1261  0.3213
  742MOL0     C 2304   7.787   0.437   8.787  0.4831  0.3355 -0.1366
  742MOL0     C 2305   7.692   0.344   8.833 -0.3102  0.1868  0.1545
  742MOL0     O 2306   7.411   0.252   8.738  0.2081 -0.0076  0.2900
  742MOL0     C 2307   7.229   0.070   8.869 -0.4173 -0.4085  0.5704
  742MOL0     C 2308   7.135  -0.011   8.943 -0.2114 -1.0264  0.1386
  742MOL0     N 2309   6.504  -0.427   9.453 -0.0846  0.0992  0.6426
  742MOL0     N 2310   6.385  -0.407   9.437 -0.1278 -0.9023  0.5017
  742MOL0     C 2311   5.885   0.468   9.836 -0.2954  0.8448  1.0693
  742MOL0     C 2312   5.802   0.440   9.940  0.1923 -0.6885  0.2343
  742MOL0     C 2313   5.372   0.536  10.108 -0.0114  0.4751 -0.9827
  742MOL0     C 2314   5.277   0.637  10.087  0.2565 -0.0385  0.0432
  742MOL0     C 2315   5.167   0.669  10.171 -0.7691  0.2627 -0.9003
  742MOL0     C 2316   5.158   0.583  10.281  0.0129  0.2651 -0.4064
  742MOL0     O 2317   5.059   0.607  10.375 -0.3382 -0.2310 -0.2465
  742MOL0     C 2318   4.968   0.726  10.374  0.1569 -0.0344  0.1012
  742MOL0     C 2319   4.835   0.701  10.295 -0.9150 -0.6339  0.2070
  742MOL0     C 2320   4.752   0.824  10.319 -0.3377  0.9171 -0.0858
  742MOL0     C 2321   4.610   0.822  10.260  0.9542 -0.0030  0.6225
  742MOL0     C 2322   4.535   0.716  10.317 -0.2063  0.0497  0.0774
  742MOL0     C 2323   4.462   0.643  10.367  1.1958  0.2671  0.4739
  742MOL0     C 2324   5.247   0.485  10.308 -0.1175  0.2420  0.0643
  742MOL0     C 2325   5.348   0.454  10.221  0.0173 -0.2677 -0.4507
  742MOL0     C 2326   5.431   0.329  10.259  0.8376  0.0395  0.2520
  742MOL0     H 2327   5.523   0.370   9.758  0.5243 -0.4705 -0.7745
  742MOL0     H 2328   5.675   0.394   9.575  2.5352 -0.6737 -0.9315
  742MOL0     H 2329   5.882   0.316   9.460  0.5300  0.4420 -1.5779
  742MOL0     H 2330   6.000   0.279   9.595  3.1522  0.9842 -0.8930
  742MOL0     H 2331   6.020   0.491   9.377  1.4474  1.4210  1.0839
  742MOL0     H 2332   6.154   0.430   9.492 -0.2929 -1.8185 -0.0503
  742MOL0     H 2333   5.998   0.284   9.267  0.8880  0.1043 -1.4864
  742MOL0     H 2334   6.165   0.343   9.252 -0.1511 -0.2403  0.2996
  742MOL0     H 2335   6.243   0.215   9.431  1.3860 -4.5873  1.5964
  742MOL0     H 2336   6.094   0.127   9.451  0.2300 -1.5129 -1.3295
  742MOL0     H 2337   6.258   0.114   9.197 -1.1250  1.8360  0.2514
  742MOL0     H 2338   6.096   0.054   9.212 -0.1232 -0.8078 -0.8556
  742MOL0     H 2339   6.334  -0.049   9.381  0.8656 -1.4159 -0.8925
  742MOL0     H 2340   6.151  -0.088   9.391 -1.8973 -0.7431 -1.2679
  742MOL0     H 2341   6.319  -0.143   9.145 -0.2206 -0.8872 -0.4790
  742MOL0     H 2342   6.140  -0.157   9.155  0.2623 -2.4746  1.1811
  742MOL0     H 2343   6.167  -0.322   9.349  0.1237  0.4644  0.5921
  742MOL0     H 2344   6.202  -0.377   9.181  0.9244 -2.0497  0.5911
  742MOL0     H 2345   6.506  -0.292   9.150 -0.5631  3.2117  1.3911
  742MOL0     H 2346   6.733  -0.504   9.251  2.3776 -0.9707  1.6871
  742MOL0     H 2347   6.772  -0.426   9.402 -1.7151  2.0509  1.5213
  742MOL0     H 2348   6.733  -0.283   9.126  0.6653 -2.2535 -0.9838
  742MOL0     H 2349   6.768  -0.204   9.283  0.8585 -1.0541  1.9026
  742MOL0     H 2350   6.977  -0.312   9.287 -2.1533 -3.0534  0.8097
  742MOL0     H 2351   6.959  -0.407   9.148  1.3787  0.4716  0.3453
  742MOL0     H 2352   6.936  -0.220   8.984 -1.9018 -1.5672  0.8040
  742MOL0     H 2353   6.934  -0.106   9.112 -1.4218 -1.7112  0.9354
  742MOL0     H 2354   7.343  -0.245   9.049 -2.5358 -0.3925  0.3406
  742MOL0     H 2355   7.554  -0.245   8.926  2.8366  0.0253 -1.6795
  742MOL0     H 2356   7.633  -0.086   8.970  0.6684  2.4425 -0.8997
  742MOL0     H 2357   7.586  -0.112   8.809 -1.9391 -0.7739 -0.4503
  742MOL0     H 2358   7.720   0.106   8.585  1.4771  0.5368 -0.8720
  742MOL0     H 2359   7.892   0.281   8.504 -1.8872 -0.6149 -1.4832
  742MOL0     H 2360   7.955   0.670   8.722 -2.7244 -1.5358  0.6905
  742MOL0     H 2361   8.060   0.525   8.770  0.8678 -1.2332 -2.7165
  742MOL0     H 2362   8.185   0.545   8.556 -2.3708 -0.7481 -1.3079
  742MOL0     H 2363   8.110   0.710   8.543 -1.0133 -0.1870 -0.2653
  742MOL0     H 2364   8.338   0.707   8.638  0.5007  0.2326  0.2101
  742MOL0     H 2365   8.296   0.580   8.754 -1.0925 -1.2052 -0.9737
  742MOL0     H 2366   8.175   0.708   8.897  0.4858 -0.5942 -0.0552
  742MOL0     H 2367   8.185   0.851   8.787  1.2336 -0.8744 -0.1055
  742MOL0     H 2368   8.351   0.832   8.993 -0.7696  0.3869 -0.2769
  742MOL0     H 2369   8.433   0.708   8.902  0.2167 -0.3554  1.5567
  742MOL0     H 2370   8.409   0.993   8.831 -1.6932 -0.3501 -1.0528
  742MOL0     H 2371   8.491   0.884   8.727 -0.5040  0.8142 -0.1246
  742MOL0     H 2372   8.644   0.815   8.933 -0.3540 -0.4526  1.4012
  742MOL0     H 2373   8.560   0.939   9.015 -0.6747 -3.2264  0.9953
  742MOL0     H 2374   8.744   0.980   8.772  4.6241 -1.5247  4.0150
  742MOL0     H 2375   8.773   1.036   8.927 -2.1438  2.0264  2.0795
  742MOL0     H 2376   7.805   0.524   8.850  0.3042  1.4204 -1.5293
  742MOL0     H 2377   7.636   0.364   8.924  0.1599 -1.3711  0.8116
  742MOL0     H 2378   7.189   0.159   8.820 -0.9884 -1.4242 -0.8919
  742MOL0     H 2379   7.029   0.005   8.956 -1.0793 -3.5171 -2.9057
  742MOL0     H 2380   5.988   0.498   9.852 -0.1220 -0.2996  2.2880
  742MOL0     H 2381   5.845   0.452  10.039  1.9014 -1.2561 -0.3946
  742MOL0     H 2382   5.282   0.705  10.002  0.2587  1.4781  1.2307
  742MOL0     H 2383   5.105   0.755  10.147 -2.6885 -1.0867 -1.0619
  742MOL0     H 2384   4.936   0.735  10.478 -0.2853 -0.9028  0.0532
  742MOL0     H 2385   5.012   0.823  10.350 -1.3416  0.2317 -1.8195
  742MOL0     H 2386   4.788   0.611  10.335 -0.1069 -0.5953  1.3055
  742MOL0     H 2387   4.862   0.680  10.191  0.4762  0.5324  0.2872
  742MOL0     H 2388   4.757   0.842  10.426  1.6020 -2.0160  0.4270
  742MOL0     H 2389   4.801   0.910  10.273 -2.4826  0.8433 -2.8257
  742MOL0     H 2390   4.610   0.825  10.150  1.0837  1.8890  0.6393
  742MOL0     H 2391   4.569   0.922  10.275 -2.5354 -1.3487  0.7463
  742MOL0     H 2392   4.409   0.565  10.418  0.0319 -1.1814 -2.7081
  742MOL0     H 2393   5.245   0.414  10.390  1.3923 -0.5295 -0.5390
  742MOL0     H 2394   5.456   0.264  10.174 -0.9934 -0.6343  0.1726
  742MOL0     H 2395   5.526   0.359  10.303 -0.8576  2.6753  2.4476
  742MOL0     H 2396   5.383   0.271  10.338  0.9030 -1.1915 -0.5805
  743MOL0     O 2397   1.426   5.145   6.286 -0.4984 -1.0398 -0.1473
  743MOL0     C 2398   1.398   5.051   6.217  0.6109  0.6000  0.2205
  743MOL0     O 2399   1.487   4.981   6.139  0.4842 -0.2784  0.2011
  743MOL0     C 2400   1.621   4.979   6.180  0.4723  0.0147 -0.2673
  743MOL0     C 2401   1.657   4.906   6.291  0.0161 -0.7255 -0.9469
  743MOL0     C 2402   1.798   4.886   6.308  0.6004 -1.1628 -0.0519
  743MOL0     C 2403   1.890   4.933   6.219 -0.5283 -0.1611  0.6064
  743MOL0     O 2404   2.031   4.925   6.231 -0.0648 -0.8273 -0.1552
  743MOL0     C 2405   2.090   4.866   6.348  1.0196  0.0781 -0.2627
  743MOL0     C 2406   2.245   4.883   6.344  0.2404 -0.3665 -0.1114
  743MOL0     C 2407   2.324   4.787   6.436 -0.5295  0.3972  0.0942
  743MOL0     C 2408   2.476   4.805   6.428  1.2020 -0.4866 -0.2261
  743MOL0     C 2409   2.551   4.718   6.529 -0.6502 -0.3415 -0.6363
  743MOL0     C 2410   2.702   4.719   6.489  0.2336  0.5088 -0.0843
  743MOL0     C 2411   2.778   4.628   6.580 -0.2855 -0.9497 -0.0743
  743MOL0     C 2412   2.929   4.612   6.553  0.5633  0.1637 -0.6600
  743MOL0     N 2413   2.980   4.522   6.658 -0.0864 -0.0305 -0.3832
  743MOL0     C 2414   2.983   4.382   6.653  0.1882 -0.2265 -0.5380
  743MOL0     C 2415   3.048   4.344   6.771 -0.5629 -0.5932 -0.2773
  743MOL0     C 2416   3.065   4.197   6.803 -0.5069 -0.3720 -0.4015
  743MOL0     C 2417   3.080   4.172   6.953  0.2547 -0.7676  0.0233
  743MOL0     C 2418   2.962   4.089   7.013 -0.0051 -0.6969 -0.4598
  743MOL0     C 2419   2.978   3.944   6.983  0.3492  0.8312 -0.4530
  743MOL0     O 2420   2.855   3.867   6.999 -0.5853  0.0202  0.0237
  743MOL0     C 2421   2.771   3.869   6.890  0.3931  0.3351 -0.3135
  743MOL0     C 2422   2.638   3.834   6.911 -0.2205 -0.3986 -0.0062
  743MOL0     C 2423   2.545   3.827   6.807  0.6061  0.4156 -0.5528
  743MOL0     C 2424   2.404   3.799   6.848  0.2229  0.1433  0.0182
  743MOL0     C 2425   2.587   3.855   6.671  0.1520  0.4322  0.1141
  743MOL0     C 2426   2.497   3.844   6.551 -0.4062 -0.4682 -0.2379
  743MOL0     O 2427   2.520   3.929   6.444  0.0399  0.5871 -0.1940
  743MOL0     C 2428   2.428   3.925   6.337  0.6705  0.0177 -0.2645
  743MOL0     C 2429   2.478   3.945   6.210  0.1326 -0.2569 -0.3436
  743MOL0     C 2430   2.390   3.939   6.099 -0.3485  0.4633 -0.0704
  743MOL0     C 2431   2.250   3.923   6.118  0.1983 -0.0062  0.4176
  743MOL0     O 2432   2.153   3.929   6.013  0.3962  0.1192 -0.0135
  743MOL0     C 2433   2.197   3.919   5.882  0.2597 -0.0568 -0.1998
  743MOL0     C 2434   2.088   3.856   5.791  0.1866 -0.1308  0.6286
  743MOL0     C 2435   1.962   3.940   5.783 -0.4089 -0.4026 -0.5173
  743MOL0     C 2436   1.853   3.872   5.705  0.2241 -0.0611  0.2235
  743MOL0     C 2437   1.730   3.958   5.697  0.1750 -0.1800  0.5055
  743MOL0     C 2438   1.622   3.908   5.602  0.1610  0.9248 -0.6340
  743MOL0     C 2439   1.584   3.754   5.615 -0.4146 -0.1194  0.0017
  743MOL0     C 2440   1.477   3.726   5.521  0.3451  0.2202  0.8906
  743MOL0    Cl 2441   1.564   3.692   5.357 -0.0847  0.2547 -0.0854
  743MOL0     C 2442   2.198   3.920   6.246  0.2828 -0.1650 -0.1962
  743MOL0     C 2443   2.285   3.921   6.363 -0.4081 -0.7734 -0.2546
  743MOL0     O 2444   2.404   3.765   6.559  0.1337 -0.3993 -0.1919
  743MOL0     C 2445   2.714   3.910   6.645 -0.4734 -0.1083 -0.9296
  743MOL0     C 2446   2.806   3.910   6.755  0.2549  0.0337  0.4397
  743MOL0     N 2447   3.070   4.457   6.848 -0.0782  0.0712  0.0442
  743MOL0     N 2448   3.037   4.556   6.775 -0.2686 -0.3055  0.1596
  743MOL0     C 2449   1.844   5.016   6.118 -0.2402  0.4508 -0.7028
  743MOL0     C 2450   1.707   5.035   6.095 -0.2657  0.2476 -0.0517
  743MOL0     C 2451   1.252   5.017   6.208  0.0256  0.5494  0.4861
  743MOL0     C 2452   1.190   4.981   6.093 -0.1489  0.3025 -0.6933
  743MOL0     C 2453   1.056   4.944   6.090 -0.0186  1.4535  0.6417
  743MOL0     C 2454   0.981   4.931   6.200 -0.7026  0.6507 -0.2825
  743MOL0     O 2455   0.841   4.919   6.191 -0.5658  0.0182  0.2864
  743MOL0     C 2456   0.761   4.948   6.308  0.1114 -0.6568  0.1674
  743MOL0     C 2457   0.707   4.836   6.392 -0.0679 -0.0188 -0.1558
  743MOL0     C 2458   0.694   4.866   6.539 -0.4236 -0.1618 -0.1104
  743MOL0     C 2459   0.628   4.750   6.601 -0.5753 -0.5550  0.4968
  743MOL0     C 2460   0.622   4.770   6.744  0.5208 -0.3492  0.3196
  743MOL0     C 2461   0.601   4.808   6.860  0.4898 -0.5010  0.5826
  743MOL0     C 2462   1.048   4.945   6.319 -0.0600 -0.8068 -0.9643
  743MOL0     C 2463   1.181   4.998   6.330 -0.8266  0.0748  0.0792
  743MOL0     C 2464   1.239   5.030   6.466  0.0449 -0.2489  0.0595
  743MOL0     H 2465   1.581   4.861   6.353  0.2682 -1.2216 -0.9952
  743MOL0     H 2466   1.828   4.829   6.396  1.1698  0.7385  1.0280
  743MOL0     H 2467   2.069   4.758   6.345 -2.3974  0.2715  4.6458
  743MOL0     H 2468   2.041   4.899   6.440 -0.4405  0.5001 -1.1408
  743MOL0     H 2469   2.288   4.879   6.244  0.1765 -0.0602 -0.1550
  743MOL0     H 2470   2.262   4.984   6.383 -0.4573 -1.0810  2.2565
  743MOL0     H 2471   2.300   4.796   6.542 -0.0765  1.1821  0.1459
  743MOL0     H 2472   2.297   4.688   6.400  0.3104 -0.5078  1.8539
  743MOL0     H 2473   2.501   4.785   6.323 -1.0754 -0.8571 -0.7588
  743MOL0     H 2474   2.493   4.908   6.461 -0.7566  0.1203 -0.9908
  743MOL0     H 2475   2.512   4.616   6.535 -1.4380 -0.0230 -0.1295
  743MOL0     H 2476   2.541   4.764   6.628 -1.0146  1.0697 -1.2997
  743MOL0     H 2477   2.703   4.684   6.385 -3.6658 -1.9587  0.5345
  743MOL0     H 2478   2.739   4.822   6.490  1.5011  0.0815  0.0073
  743MOL0     H 2479   2.734   4.528   6.579 -2.3591 -0.0969  0.2106
  743MOL0     H 2480   2.763   4.651   6.685  3.4720 -1.0993  0.6184
  743MOL0     H 2481   2.942   4.578   6.449 -1.0306  0.4403 -0.9714
  743MOL0     H 2482   2.975   4.709   6.570  0.0428  0.0588  1.5482
  743MOL0     H 2483   2.960   4.322   6.566 -0.9375 -1.3036  0.4748
  743MOL0     H 2484   3.149   4.159   6.743  0.3702 -0.7693  1.0322
  743MOL0     H 2485   2.973   4.146   6.773 -0.3724 -1.3016  0.6857
  743MOL0     H 2486   3.173   4.115   6.961  0.6794 -0.1356 -0.3965
  743MOL0     H 2487   3.098   4.263   7.011  1.1148 -1.9764  1.7522
  743MOL0     H 2488   2.953   4.090   7.122 -0.6930 -0.6307 -0.5110
  743MOL0     H 2489   2.865   4.123   6.974  1.0415  1.9059 -0.9780
  743MOL0     H 2490   3.008   3.934   6.878 -0.3831 -0.1087 -0.5870
  743MOL0     H 2491   3.058   3.901   7.045 -0.8518  0.6292  1.0118
  743MOL0     H 2492   2.614   3.804   7.012  1.6116  0.5137  0.7478
  743MOL0     H 2493   2.381   3.809   6.955 -3.7965 -0.7131 -0.6371
  743MOL0     H 2494   2.376   3.698   6.817 -0.7564 -0.5523  2.8868
  743MOL0     H 2495   2.350   3.873   6.789  2.2975 -0.1572 -2.4281
  743MOL0     H 2496   2.586   3.946   6.198  0.1844  1.8979 -0.0066
  743MOL0     H 2497   2.433   3.933   5.999  2.0020  0.0091  0.8813
  743MOL0     H 2498   2.227   4.019   5.850  0.5669  0.9729  2.9259
  743MOL0     H 2499   2.282   3.851   5.868  0.1121  0.0124 -1.4903
  743MOL0     H 2500   2.117   3.838   5.687  1.1384 -3.0034  1.2860
  743MOL0     H 2501   2.072   3.756   5.833 -1.3338 -0.0319  0.3420
  743MOL0     H 2502   1.987   4.032   5.729  3.0231  0.3825  2.1175
  743MOL0     H 2503   1.915   3.966   5.878 -2.3280  1.7475 -1.9552
  743MOL0     H 2504   1.845   3.770   5.743  2.5260  0.3565  2.0568
  743MOL0     H 2505   1.887   3.855   5.602  0.5735  0.0226  0.3223
  743MOL0     H 2506   1.695   3.973   5.800 -1.1216  2.1471 -0.1968
  743MOL0     H 2507   1.757   4.060   5.666  0.3775  0.1326  1.6693
  743MOL0     H 2508   1.647   3.930   5.498 -2.1515 -0.4326 -1.5526
  743MOL0     H 2509   1.534   3.966   5.629 -0.0672  0.8433 -1.1968
  743MOL0     H 2510   1.537   3.748   5.713  1.6566  1.3306  1.1713
  743MOL0     H 2511   1.664   3.679   5.610  0.2169  0.5888 -0.8611
  743MOL0     H 2512   1.393   3.795   5.516 -2.3400 -2.6975  2.2120
  743MOL0     H 2513   1.430   3.635   5.559  1.3613 -0.7348 -0.0629
  743MOL0     H 2514   2.090   3.911   6.248  0.3819 -1.5038  0.4912
  743MOL0     H 2515   2.231   3.929   6.456 -2.8432 -0.8442 -1.5810
  743MOL0     H 2516   2.742   3.943   6.546  0.4794  0.8665 -0.3650
  743MOL0     H 2517   2.903   3.951   6.729  0.9942 -2.1684 -0.6023
  743MOL0     H 2518   1.926   5.065   6.066 -0.0065  1.1707  0.3226
  743MOL0     H 2519   1.667   5.090   6.010  1.5172 -2.5164 -2.9053
  743MOL0     H 2520   1.248   4.976   6.002  1.7422 -0.0452  0.4853
  743MOL0     H 2521   1.006   4.934   5.994 -1.5782 -2.1670  1.6709
  743MOL0     H 2522   0.810   5.015   6.380  0.8355 -0.1184 -0.8084
  743MOL0     H 2523   0.681   5.004   6.259 -1.4897 -3.8818 -1.1624
  743MOL0     H 2524   0.778   4.753   6.383  1.3331  1.0627  0.5336
  743MOL0     H 2525   0.610   4.818   6.343  0.8731 -1.4642 -1.6156
  743MOL0     H 2526   0.801   4.874   6.562  0.5697 -1.9375 -3.3912
  743MOL0     H 2527   0.636   4.953   6.571  0.6926 -0.1866  2.1667
  743MOL0     H 2528   0.693   4.662   6.593 -1.1261 -0.9828  0.6264
  743MOL0     H 2529   0.533   4.726   6.553  0.4458 -0.4207 -1.6997
  743MOL0     H 2530   0.579   4.854   6.954  0.0697  1.9840 -0.6672
  743MOL0     H 2531   0.982   4.938   6.404 -0.0387  2.3680 -0.5727
  743MOL0     H 2532   1.333   4.977   6.482  1.2274  1.6845 -0.1719
  743MOL0     H 2533   1.251   5.138   6.477 -2.1916  0.0594  0.0572
  743MOL0     H 2534   1.167   4.999   6.542 -0.0295  1.5587  0.7762
  744MOL0     O 2535   6.368   4.934   8.321  0.3658 -0.5883 -0.2276
  744MOL0     C 2536   6.294   4.953   8.227 -0.2468 -0.0348  0.0735
  744MOL0     O 2537   6.186   5.037   8.230 -0.0819 -0.2000  0.0615
  744MOL0     C 2538   6.172   5.115   8.347 -0.1005  0.2068 -0.0387
  744MOL0     C 2539   6.118   5.065   8.462  0.7488 -0.0003 -0.0871
  744MOL0     C 2540   6.109   5.144   8.575 -0.0011 -0.4527 -0.1930
  744MOL0     C 2541   6.147   5.279   8.573 -0.1025 -0.8491  0.5123
  744MOL0     O 2542   6.149   5.369   8.672 -0.0808  0.1302  0.0677
  744MOL0     C 2543   6.111   5.322   8.799  0.1218 -0.8597 -0.3821
  744MOL0     C 2544   6.156   5.426   8.900 -0.1874  0.8730 -0.7795
  744MOL0     C 2545   6.302   5.393   8.947  0.0225  0.4666 -0.8346
  744MOL0     C 2546   6.388   5.530   8.955  0.1873  0.9062  0.8716
  744MOL0     C 2547   6.520   5.502   9.022 -0.5713 -0.0820 -0.5633
  744MOL0     C 2548   6.593   5.636   9.051  0.3614 -0.4133  0.0864
  744MOL0     C 2549   6.742   5.611   9.095  0.3655  0.0720  0.7930
  744MOL0     C 2550   6.758   5.517   9.212  0.2290 -0.3469 -0.3126
  744MOL0     N 2551   6.894   5.459   9.221  0.1825 -0.0837 -0.8370
  744MOL0     C 2552   6.995   5.510   9.292 -0.4716 -1.1320  0.1772
  744MOL0     C 2553   7.094   5.423   9.273  0.3359 -0.5176  0.0811
  744MOL0     C 2554   7.219   5.434   9.348 -0.6174 -1.4918 -0.4821
  744MOL0     C 2555   7.208   5.354   9.479 -0.3336 -0.4621 -0.5352
  744MOL0     C 2556   7.346   5.340   9.550 -0.0513  0.0829 -0.0178
  744MOL0     C 2557   7.323   5.328   9.705 -0.7474  0.9703  0.6755
  744MOL0     O 2558   7.393   5.207   9.744 -0.4138  0.1993 -0.3453
  744MOL0     C 2559   7.525   5.208   9.768 -0.8035 -0.1291  1.0592
  744MOL0     C 2560   7.584   5.085   9.804  0.3595 -0.2056  0.5914
  744MOL0     C 2561   7.720   5.069   9.837  0.2388  0.8048  0.3537
  744MOL0     C 2562   7.760   4.929   9.879  0.3624 -0.2712 -0.5149
  744MOL0     C 2563   7.807   5.183   9.840 -0.3745  0.7181  0.3605
  744MOL0     C 2564   7.945   5.175   9.886  0.4216 -0.3120 -0.0732
  744MOL0     O 2565   7.985   5.305   9.928  0.3929  0.0651 -0.4008
  744MOL0     C 2566   8.106   5.331   9.983 -0.4816  0.3083 -1.1296
  744MOL0     C 2567   8.185   5.443   9.960  0.5393  0.0067  0.0679
  744MOL0     C 2568   8.314   5.461  10.007 -0.3627  0.5496  0.2583
  744MOL0     C 2569   8.371   5.372  10.090  0.1889 -0.1799 -0.0613
  744MOL0     O 2570   8.499   5.388  10.145 -0.0143  0.4778 -0.3094
  744MOL0     C 2571   8.587   5.486  10.090 -0.2065 -0.1386  0.4586
  744MOL0     C 2572   8.682   5.508  10.205 -0.7497 -0.3669 -0.2189
  744MOL0     C 2573   8.775   5.381  10.249 -0.6649 -0.0857  0.3971
  744MOL0     C 2574   8.851   5.419  10.373 -0.0400  0.2052  0.6399
  744MOL0     C 2575   8.941   5.307  10.421 -0.5885 -0.3247  1.0604
  744MOL0     C 2576   9.062   5.343  10.523 -0.5146  0.6101 -0.0041
  744MOL0     C 2577   9.180   5.255  10.518 -0.1266 -0.6982 -0.0946
  744MOL0     C 2578   9.295   5.290  10.609  0.3117  0.9922 -0.0319
  744MOL0    Cl 2579   9.245   5.273  10.782 -0.3378 -0.1538 -0.1971
  744MOL0     C 2580   8.291   5.264  10.133 -0.1453  0.4496  0.0451
  744MOL0     C 2581   8.165   5.252  10.083 -0.3841  1.6563  0.6661
  744MOL0     O 2582   8.025   5.085   9.867  0.1549 -0.0035  0.8197
  744MOL0     C 2583   7.749   5.305   9.800 -0.4487 -0.2776  0.1954
  744MOL0     C 2584   7.608   5.320   9.761 -0.5404 -0.6464 -0.0444
  744MOL0     N 2585   7.059   5.314   9.194 -0.0794 -0.2729 -0.7584
  744MOL0     N 2586   6.943   5.347   9.163  0.1024  0.6551 -0.5453
  744MOL0     C 2587   6.187   5.335   8.447 -0.4625  0.2959 -0.2236
  744MOL0     C 2588   6.186   5.249   8.334  0.4754 -0.3699  0.2012
  744MOL0     C 2589   6.311   4.877   8.101  0.2517  0.5053 -0.0164
  744MOL0     C 2590   6.193   4.871   8.012 -1.3314 -0.3696 -0.0599
  744MOL0     C 2591   6.198   4.813   7.886  0.5587  0.1442  0.0231
  744MOL0     C 2592   6.316   4.753   7.843 -0.1295 -0.4048 -0.2521
  744MOL0     O 2593   6.302   4.689   7.724 -0.0867 -0.1539 -0.0776
  744MOL0     C 2594   6.407   4.617   7.653  0.0818 -0.5308  0.2540
  744MOL0     C 2595   6.377   4.574   7.513 -0.3516 -0.3646  0.0860
  744MOL0     C 2596   6.263   4.471   7.502  0.1874  0.0089 -0.3443
  744MOL0     C 2597   6.231   4.415   7.358  0.0128 -0.3346  0.3579
  744MOL0     C 2598   6.358   4.365   7.293  0.2420 -0.5829 -0.4501
  744MOL0     C 2599   6.462   4.333   7.252 -0.7317  1.4318 -0.1767
  744MOL0     C 2600   6.439   4.767   7.927  0.3509  0.3455  0.2345
  744MOL0     C 2601   6.434   4.828   8.051 -0.2765 -0.5318  0.5859
  744MOL0     C 2602   6.572   4.836   8.119  0.0441 -0.7221  0.6675
  744MOL0     H 2603   6.108   4.957   8.466 -0.9710  0.1563  0.5213
  744MOL0     H 2604   6.075   5.093   8.664 -0.6769 -0.8833 -0.6868
  744MOL0     H 2605   6.135   5.216   8.812 -1.3898 -1.2468 -0.4880
  744MOL0     H 2606   6.002   5.318   8.803  0.1708 -1.2523  2.5558
  744MOL0     H 2607   6.168   5.528   8.864  3.8248  1.2237  0.9991
  744MOL0     H 2608   6.090   5.418   8.987  0.1707  1.2697 -0.4698
  744MOL0     H 2609   6.306   5.353   9.048  0.5853  0.7126 -0.7529
  744MOL0     H 2610   6.352   5.328   8.875  3.3793  1.8172  0.0744
  744MOL0     H 2611   6.417   5.567   8.857  3.0208 -1.1647  0.7914
  744MOL0     H 2612   6.345   5.616   9.006  1.6128  1.5634  1.0109
  744MOL0     H 2613   6.576   5.446   8.946 -0.1261 -0.2720 -0.1032
  744MOL0     H 2614   6.510   5.440   9.111 -0.2510  0.8989  0.1701
  744MOL0     H 2615   6.586   5.687   8.954  3.7816 -4.3409 -2.6171
  744MOL0     H 2616   6.534   5.686   9.128 -1.1585 -1.2483 -0.4906
  744MOL0     H 2617   6.785   5.710   9.112 -0.2404  0.0125  2.9345
  744MOL0     H 2618   6.797   5.572   9.008 -1.2008 -2.6078  0.8885
  744MOL0     H 2619   6.725   5.578   9.296  0.1369  0.5679 -0.9998
  744MOL0     H 2620   6.692   5.431   9.195 -0.3182 -0.2207  1.0809
  744MOL0     H 2621   6.993   5.604   9.346 -2.2094 -1.6935  1.1804
  744MOL0     H 2622   7.252   5.538   9.355  0.1195 -1.8487  3.4835
  744MOL0     H 2623   7.296   5.395   9.280 -1.0959 -1.2812 -1.1533
  744MOL0     H 2624   7.157   5.423   9.547  0.4488  0.8911 -1.2791
  744MOL0     H 2625   7.153   5.259   9.478  1.8287 -1.8431  1.2383
  744MOL0     H 2626   7.392   5.248   9.513  1.0038 -0.2790  2.0140
  744MOL0     H 2627   7.406   5.429   9.531 -0.3807  0.0926 -1.0740
  744MOL0     H 2628   7.360   5.411   9.765  0.9874 -0.6682  2.0115
  744MOL0     H 2629   7.217   5.310   9.724 -0.8177 -1.5410 -1.4788
  744MOL0     H 2630   7.529   4.992   9.798  0.9752 -0.5816  0.6498
  744MOL0     H 2631   7.680   4.893   9.944 -0.3812  1.2046 -0.5873
  744MOL0     H 2632   7.854   4.919   9.934 -0.1712  0.6768  0.5952
  744MOL0     H 2633   7.761   4.859   9.795  0.9302  0.0407 -0.7765
  744MOL0     H 2634   8.150   5.518   9.891 -0.5545 -1.6728 -1.3045
  744MOL0     H 2635   8.367   5.551   9.975 -0.7378  0.7656  0.2434
  744MOL0     H 2636   8.641   5.450  10.002 -1.0375  2.2786 -1.1334
  744MOL0     H 2637   8.527   5.575  10.069 -0.0036  0.0455  0.6429
  744MOL0     H 2638   8.748   5.590  10.174  0.2593 -1.3646 -0.8023
  744MOL0     H 2639   8.634   5.545  10.296  2.8460  1.5381  1.1600
  744MOL0     H 2640   8.848   5.357  10.171  0.4476  0.6546  1.1833
  744MOL0     H 2641   8.721   5.286  10.253  2.2144 -1.9883 -1.6240
  744MOL0     H 2642   8.770   5.424  10.446 -0.7102  1.4367 -0.1324
  744MOL0     H 2643   8.901   5.516  10.385  1.7729 -0.1826 -2.6982
  744MOL0     H 2644   8.875   5.232  10.466 -0.3671 -2.9511 -2.5350
  744MOL0     H 2645   8.986   5.263  10.332 -0.4583 -0.3027  1.1165
  744MOL0     H 2646   9.017   5.339  10.623 -2.7536 -0.0408 -0.9805
  744MOL0     H 2647   9.107   5.442  10.516  2.2438 -0.6540 -1.8139
  744MOL0     H 2648   9.224   5.261  10.418 -0.4618  2.7997 -0.1649
  744MOL0     H 2649   9.152   5.151  10.537  2.0100 -1.2543  0.2504
  744MOL0     H 2650   9.338   5.388  10.584  1.6798  0.3203 -0.4023
  744MOL0     H 2651   9.368   5.212  10.590  1.8004  1.1072  4.1488
  744MOL0     H 2652   8.327   5.203  10.215 -4.1510 -1.8715  0.3262
  744MOL0     H 2653   8.102   5.172  10.122  0.8520 -1.1168 -2.6072
  744MOL0     H 2654   7.802   5.399   9.808 -1.6497  0.3574  1.0016
  744MOL0     H 2655   7.573   5.420   9.740 -0.4467 -0.5771  0.1178
  744MOL0     H 2656   6.217   5.439   8.442 -1.3820  0.5283 -2.1087
  744MOL0     H 2657   6.221   5.290   8.240 -0.4162  1.4724  0.6184
  744MOL0     H 2658   6.110   4.931   8.047 -0.6371 -0.4813  1.8491
  744MOL0     H 2659   6.111   4.791   7.824  0.7503 -1.5861  0.3064
  744MOL0     H 2660   6.505   4.666   7.648  1.0102 -2.0054  2.1769
  744MOL0     H 2661   6.427   4.526   7.711  1.2697 -2.8917 -3.4566
  744MOL0     H 2662   6.467   4.529   7.470 -0.0140 -0.3225  0.7458
  744MOL0     H 2663   6.354   4.665   7.457  1.2406 -1.9448 -3.4469
  744MOL0     H 2664   6.281   4.390   7.573 -1.7013  1.0997  1.4860
  744MOL0     H 2665   6.173   4.524   7.533 -1.3045 -1.0805 -2.5473
  744MOL0     H 2666   6.188   4.487   7.287  0.0160 -3.4849 -3.1112
  744MOL0     H 2667   6.156   4.338   7.373 -1.5248  1.1855  0.8372
  744MOL0     H 2668   6.560   4.297   7.228 -0.7960 -1.1123  2.6265
  744MOL0     H 2669   6.534   4.731   7.888 -0.3873 -0.3138 -1.0158
  744MOL0     H 2670   6.648   4.771   8.074  1.0513  1.4656 -0.9889
  744MOL0     H 2671   6.621   4.932   8.101  1.2499 -1.3411  0.5168
  744MOL0     H 2672   6.566   4.817   8.226 -0.6071  0.6509  0.8892
  745MOL0     O 2673   9.710   5.087   2.088  0.3927  0.4004 -0.2554
  745MOL0     C 2674   9.657   4.981   2.048 -0.1290 -0.6044  0.3757
  745MOL0     O 2675   9.733   4.885   1.992 -0.0447 -0.6674  0.3215
  745MOL0     C 2676   9.849   4.859   2.057 -0.4381 -0.0335  0.7517
  745MOL0     C 2677   9.853   4.811   2.186 -0.4297  0.0176 -0.1592
  745MOL0     C 2678   9.977   4.764   2.235 -0.8668 -0.6690  0.5500
  745MOL0     C 2679  10.098   4.783   2.173 -0.9577 -0.8339 -0.2817
  745MOL0     O 2680  10.204   4.736   2.236 -0.3746 -0.2480 -0.4499
  745MOL0     C 2681  10.337   4.742   2.183  0.2527 -1.3800  0.5486
  745MOL0     C 2682  10.416   4.693   2.308  0.0889  0.0992  0.0487
  745MOL0     C 2683  10.573   4.666   2.283  0.1466 -0.3938  0.3654
  745MOL0     C 2684  10.624   4.684   2.425  0.0589  0.6332 -0.3235
  745MOL0     C 2685  10.768   4.644   2.437  0.2100  0.6802 -0.1057
  745MOL0     C 2686  10.851   4.775   2.436 -0.8953  0.5618 -1.2192
  745MOL0     C 2687  11.005   4.758   2.450  0.4582 -0.2788 -0.6026
  745MOL0     C 2688  11.077   4.882   2.396  0.7367  0.6457  0.4358
  745MOL0     N 2689  11.226   4.846   2.392 -0.5370 -0.1581  0.2656
  745MOL0     C 2690  11.308   4.877   2.498 -0.4434 -0.6694 -0.6168
  745MOL0     C 2691  11.428   4.823   2.469 -0.3665  0.6316  0.2044
  745MOL0     C 2692  11.554   4.818   2.554 -0.0592 -0.0547  0.4127
  745MOL0     C 2693  11.636   4.945   2.541  0.1697  0.5919 -0.7612
  745MOL0     C 2694  11.748   4.950   2.653  0.5359  0.4689 -0.1528
  745MOL0     C 2695  11.872   5.041   2.611  0.5247 -0.4621 -0.8285
  745MOL0     O 2696  11.963   5.054   2.723  0.7336  0.5718 -0.2877
  745MOL0     C 2697  12.085   5.106   2.712 -0.5020 -0.1374  1.2445
  745MOL0     C 2698  12.143   5.163   2.596  0.2442  0.4049 -0.0473
  745MOL0     C 2699  12.273   5.202   2.581  0.0007  0.0626 -0.0133
  745MOL0     C 2700  12.308   5.277   2.457 -0.1730 -0.4172 -0.5592
  745MOL0     C 2701  12.360   5.188   2.688 -0.3081  0.1988 -0.5353
  745MOL0     C 2702  12.495   5.245   2.704  0.4414  0.0711 -0.9880
  745MOL0     O 2703  12.569   5.258   2.594 -0.6918  0.6426 -0.2932
  745MOL0     C 2704  12.701   5.316   2.599 -0.2527  0.1786  0.2518
  745MOL0     C 2705  12.800   5.273   2.515 -0.2235 -0.3430  0.1404
  745MOL0     C 2706  12.920   5.339   2.505  0.1475  0.5290 -0.4131
  745MOL0     C 2707  12.939   5.467   2.563  0.3926 -0.3067  1.0966
  745MOL0     O 2708  13.049   5.545   2.556  0.3571  0.0744 -0.1326
  745MOL0     C 2709  13.133   5.528   2.439  0.0128  0.4477 -0.3127
  745MOL0     C 2710  13.207   5.660   2.411  1.2593 -0.5236 -0.5314
  745MOL0     C 2711  13.338   5.631   2.336  0.4235 -0.5285 -0.3076
  745MOL0     C 2712  13.433   5.747   2.342  1.0793  0.2889 -0.5270
  745MOL0     C 2713  13.536   5.730   2.226  0.1768  0.6973 -0.0891
  745MOL0     C 2714  13.618   5.852   2.218 -0.4495  0.4873 -0.3358
  745MOL0     C 2715  13.719   5.843   2.098 -0.2565 -0.0208  0.2934
  745MOL0     C 2716  13.785   5.974   2.080  0.4146  0.7985 -0.1918
  745MOL0    Cl 2717  13.903   5.950   1.952  0.2003 -0.1754 -0.0854
  745MOL0     C 2718  12.839   5.517   2.645 -0.2464 -0.3296 -0.6603
  745MOL0     C 2719  12.725   5.435   2.670  0.7282  0.2430  0.2247
  745MOL0     O 2720  12.534   5.269   2.826  0.2668 -0.4975 -0.2339
  745MOL0     C 2721  12.309   5.134   2.810  0.4460  0.0810  0.3438
  745MOL0     C 2722  12.175   5.095   2.823  0.0460  0.1446 -0.0550
  745MOL0     N 2723  11.407   4.752   2.349  0.2864  0.8228  0.7644
  745MOL0     N 2724  11.286   4.769   2.300  0.0236 -0.5844 -0.8156
  745MOL0     C 2725  10.091   4.845   2.048  0.1518  0.2133 -0.1672
  745MOL0     C 2726   9.966   4.878   1.987 -0.0516 -0.3972 -0.3602
  745MOL0     C 2727   9.508   4.945   2.072  0.2784  0.1497  0.5446
  745MOL0     C 2728   9.457   4.816   2.065  0.8757  0.4846 -0.1747
  745MOL0     C 2729   9.322   4.787   2.081 -0.2175  0.4646  0.0048
  745MOL0     C 2730   9.234   4.886   2.106  1.3430  0.0164  0.5514
  745MOL0     O 2731   9.105   4.846   2.142  0.5318  0.2541  0.1311
  745MOL0     C 2732   9.000   4.937   2.158  0.2079  0.0783  0.5232
  745MOL0     C 2733   8.871   4.855   2.144  0.4587  0.1082 -0.5206
  745MOL0     C 2734   8.760   4.940   2.075  0.0991  0.0560 -0.1754
  745MOL0     C 2735   8.633   4.856   2.070 -0.9752  0.2241 -0.5834
  745MOL0     C 2736   8.506   4.926   2.085 -0.6102 -0.7216  0.5015
  745MOL0     C 2737   8.409   4.996   2.099  0.4485  0.4053  0.5411
  745MOL0     C 2738   9.279   5.018   2.110 -0.3350 -0.9373  0.3185
  745MOL0     C 2739   9.413   5.047   2.088  0.1449  0.4173 -0.6303
  745MOL0     C 2740   9.447   5.195   2.087  0.3887 -0.3873 -0.1576
  745MOL0     H 2741   9.761   4.803   2.243  0.5752  1.8969  1.9002
  745MOL0     H 2742   9.978   4.724   2.336 -0.0596  0.9307  1.1990
  745MOL0     H 2743  10.355   4.845   2.149  0.5190 -1.7341 -0.4259
  745MOL0     H 2744  10.342   4.672   2.099  0.6895 -2.3354  1.3632
  745MOL0     H 2745  10.399   4.773   2.380 -1.5222 -1.0892  1.0773
  745MOL0     H 2746  10.376   4.600   2.350  1.6873  0.4572  2.5701
  745MOL0     H 2747  10.591   4.565   2.247  0.3727  0.0735 -0.8869
  745MOL0     H 2748  10.617   4.744   2.221 -0.1952 -0.9788 -0.6216
  745MOL0     H 2749  10.606   4.788   2.454 -2.6711 -0.4019  2.2296
  745MOL0     H 2750  10.564   4.622   2.492  1.7012 -1.9668 -1.0793
  745MOL0     H 2751  10.802   4.585   2.352 -0.5543  0.2507 -0.1198
  745MOL0     H 2752  10.781   4.591   2.531  0.6802  2.7024  1.0390
  745MOL0     H 2753  10.840   4.827   2.340  2.7463  0.5271 -1.7986
  745MOL0     H 2754  10.820   4.847   2.512  1.7896 -0.3666  0.9190
  745MOL0     H 2755  11.032   4.677   2.381 -1.0071  0.8572 -2.6344
  745MOL0     H 2756  11.032   4.731   2.553 -0.8462 -0.4635 -0.2907
  745MOL0     H 2757  11.055   4.906   2.291  0.9032  0.7187  0.4173
  745MOL0     H 2758  11.052   4.969   2.457 -1.4056  1.5243 -1.5508
  745MOL0     H 2759  11.293   4.949   2.578  0.9847  0.1713 -1.0626
  745MOL0     H 2760  11.607   4.728   2.521 -0.2568  0.9665 -3.0737
  745MOL0     H 2761  11.516   4.788   2.652 -0.2187 -2.0962 -0.2244
  745MOL0     H 2762  11.666   4.940   2.436 -2.1749 -0.6508 -1.4321
  745MOL0     H 2763  11.567   5.030   2.555 -0.8801 -0.3964  0.2822
  745MOL0     H 2764  11.697   4.970   2.748  0.6841 -0.6174  0.1675
  745MOL0     H 2765  11.785   4.848   2.669 -2.7984 -0.5559  2.1508
  745MOL0     H 2766  11.930   4.991   2.533  0.4415  1.2148 -2.0116
  745MOL0     H 2767  11.841   5.140   2.575  1.0542  0.7595  1.8185
  745MOL0     H 2768  12.077   5.177   2.510 -0.6624 -1.5468  0.2828
  745MOL0     H 2769  12.337   5.376   2.493 -2.9111  0.1580  0.3059
  745MOL0     H 2770  12.218   5.293   2.397  0.3948  0.1831 -1.2696
  745MOL0     H 2771  12.383   5.227   2.396 -0.4838 -0.5490 -0.8377
  745MOL0     H 2772  12.780   5.185   2.454 -1.7751 -0.8704  1.3564
  745MOL0     H 2773  13.004   5.305   2.444 -0.4131 -2.2130  0.1958
  745MOL0     H 2774  13.209   5.451   2.456 -1.3439 -1.1687 -1.3497
  745MOL0     H 2775  13.077   5.495   2.352  1.1534  1.4954 -1.4852
  745MOL0     H 2776  13.139   5.728   2.358 -1.0629 -1.4184  1.1698
  745MOL0     H 2777  13.224   5.711   2.506 -1.3197 -1.4731  0.5012
  745MOL0     H 2778  13.307   5.601   2.236 -2.0677  2.0585 -0.4628
  745MOL0     H 2779  13.391   5.553   2.392 -0.8286 -0.3461  1.2172
  745MOL0     H 2780  13.491   5.754   2.434 -1.0023 -1.3386  1.0186
  745MOL0     H 2781  13.376   5.839   2.327  0.3328  0.3833  2.3231
  745MOL0     H 2782  13.595   5.643   2.254 -1.6417 -2.2424 -4.3500
  745MOL0     H 2783  13.491   5.707   2.129 -0.6485  1.6733  0.0396
  745MOL0     H 2784  13.677   5.856   2.310  0.3043  1.9365 -0.8425
  745MOL0     H 2785  13.556   5.942   2.210  0.1320  1.0279  1.0506
  745MOL0     H 2786  13.659   5.824   2.008 -1.8469 -0.3416  1.3713
  745MOL0     H 2787  13.790   5.760   2.109  0.0511  0.0541 -0.9784
  745MOL0     H 2788  13.831   6.007   2.174  3.1864  0.8295 -1.4404
  745MOL0     H 2789  13.708   6.042   2.044 -0.8679 -1.4218 -1.8890
  745MOL0     H 2790  12.851   5.611   2.698 -0.2442 -1.0994  0.7349
  745MOL0     H 2791  12.645   5.475   2.732 -1.4379  2.3042 -3.5446
  745MOL0     H 2792  12.371   5.123   2.899 -0.8198 -1.4378  1.0852
  745MOL0     H 2793  12.137   5.050   2.915 -0.1475 -1.4028 -0.8624
  745MOL0     H 2794  10.183   4.850   1.989  1.5414 -0.3684  1.8519
  745MOL0     H 2795   9.973   4.912   1.884 -0.4229  0.5375 -0.0849
  745MOL0     H 2796   9.533   4.738   2.064  5.0598  4.0411  2.6364
  745MOL0     H 2797   9.290   4.683   2.078 -2.3148  1.0890 -0.8128
  745MOL0     H 2798   9.005   4.996   2.249  0.7456 -1.5955  1.6252
  745MOL0     H 2799   9.001   5.003   2.070  1.0435  2.1127  1.9972
  745MOL0     H 2800   8.836   4.824   2.243  0.1164 -0.3659 -0.7856
  745MOL0     H 2801   8.890   4.771   2.078  1.8939 -1.6381  1.9357
  745MOL0     H 2802   8.748   5.036   2.127 -2.9083  1.5301 -3.2321
  745MOL0     H 2803   8.779   4.961   1.970 -1.2031 -2.0913 -0.9047
  745MOL0     H 2804   8.638   4.780   2.148  3.3999 -1.2833 -1.9970
  745MOL0     H 2805   8.639   4.804   1.973  4.0488  2.0702 -1.5795
  745MOL0     H 2806   8.316   5.047   2.113  0.1126 -0.6805  2.7318
  745MOL0     H 2807   9.213   5.095   2.148 -0.1072 -1.1652  1.2061
  745MOL0     H 2808   9.521   5.212   2.009  2.0960  0.5813  1.5828
  745MOL0     H 2809   9.365   5.259   2.053  2.0521  1.8308 -0.1894
  745MOL0     H 2810   9.495   5.236   2.177  1.2219 -0.8251 -0.3955
  746MOL0     O 2811   9.995   9.199   9.249  0.6913 -0.4351 -0.4405
  746MOL0     C 2812   9.946   9.312   9.240 -0.3504  0.1938 -0.0941
  746MOL0     O 2813  10.008   9.424   9.272  0.4589  0.7960  0.3979
  746MOL0     C 2814  10.131   9.422   9.319  0.1401 -0.5132  0.4916
  746MOL0     C 2815  10.240   9.436   9.240 -0.6591 -0.6123 -0.2518
  746MOL0     C 2816  10.375   9.452   9.288  0.0016  0.3257 -0.3855
  746MOL0     C 2817  10.403   9.438   9.426 -0.3713  1.2220  0.3196
  746MOL0     O 2818  10.529   9.441   9.485 -0.0433 -0.2729 -0.1964
  746MOL0     C 2819  10.632   9.510   9.421 -0.6667 -0.6410 -0.1257
  746MOL0     C 2820  10.746   9.549   9.519 -0.1603  0.1510  0.5921
  746MOL0     C 2821  10.873   9.599   9.441  0.4749  0.3932 -0.7066
  746MOL0     C 2822  10.950   9.475   9.386 -0.4044  0.0845  0.1553
  746MOL0     C 2823  11.098   9.504   9.344  0.4400 -0.4472  0.3650
  746MOL0     C 2824  11.196   9.402   9.410 -0.3227 -0.5799 -0.0294
  746MOL0     C 2825  11.341   9.419   9.356  0.4891 -0.8111  0.3375
  746MOL0     C 2826  11.426   9.329   9.440 -0.2839  0.9398 -0.2445
  746MOL0     N 2827  11.568   9.372   9.452  0.5946  0.4468 -0.1670
  746MOL0     C 2828  11.677   9.316   9.380 -0.4817  0.1269  0.7451
  746MOL0     C 2829  11.772   9.407   9.398  0.1057  0.7918 -0.2943
  746MOL0     C 2830  11.905   9.396   9.334 -0.2050 -0.1075  0.2975
  746MOL0     C 2831  12.006   9.498   9.362 -0.2811 -0.2047 -0.0505
  746MOL0     C 2832  12.126   9.473   9.271 -0.4961 -0.4900 -0.3798
  746MOL0     C 2833  12.254   9.503   9.340 -0.0141 -0.7464 -0.8158
  746MOL0     O 2834  12.370   9.478   9.260 -0.4466 -0.2541 -0.0084
  746MOL0     C 2835  12.489   9.532   9.290  0.2855  0.1968 -0.0395
  746MOL0     C 2836  12.531   9.584   9.418 -0.7086 -0.1486  0.2424
  746MOL0     C 2837  12.667   9.622   9.438 -1.0034  0.0303 -0.1088
  746MOL0     C 2838  12.706   9.645   9.577  0.2718  0.0764 -0.1575
  746MOL0     C 2839  12.758   9.621   9.327 -0.0711 -1.1903 -0.8170
  746MOL0     C 2840  12.898   9.679   9.328  0.7700  0.6981  0.1245
  746MOL0     O 2841  12.926   9.777   9.420 -0.3678  0.3990 -0.3679
  746MOL0     C 2842  13.026   9.870   9.413  0.2078  0.0728  0.0955
  746MOL0     C 2843  13.003   9.981   9.487  0.3687  0.2685  0.5027
  746MOL0     C 2844  13.092  10.085   9.483 -0.3082 -0.2399 -0.5269
  746MOL0     C 2845  13.211  10.081   9.413 -0.4358 -0.0713  0.3913
  746MOL0     O 2846  13.316  10.171   9.424 -0.0644  0.2542  0.7367
  746MOL0     C 2847  13.304  10.289   9.500  0.6101  0.6061 -0.1473
  746MOL0     C 2848  13.433  10.364   9.518 -0.6426  0.1486 -0.1592
  746MOL0     C 2849  13.481  10.424   9.389 -0.2401 -0.0734  0.1779
  746MOL0     C 2850  13.642  10.433   9.384  0.7879 -0.4687  0.0600
  746MOL0     C 2851  13.698  10.476   9.248  0.5861  0.5142  0.3735
  746MOL0     C 2852  13.847  10.510   9.260  0.2402  0.8955 -0.1440
  746MOL0     C 2853  13.911  10.563   9.131 -0.4242  0.4199  1.1061
  746MOL0     C 2854  14.047  10.640   9.135  0.0816 -0.7099  0.0349
  746MOL0    Cl 2855  14.074  10.733   8.985  0.0664  0.3718 -0.9839
  746MOL0     C 2856  13.240   9.959   9.353  0.0623 -1.7513 -0.1749
  746MOL0     C 2857  13.150   9.855   9.348 -1.1113 -0.5982 -0.2482
  746MOL0     O 2858  12.973   9.637   9.238  0.6573 -0.1316  0.5126
  746MOL0     C 2859  12.705   9.593   9.202 -0.1939  1.0378 -0.0870
  746MOL0     C 2860  12.577   9.534   9.187 -1.1609  0.3376 -0.5038
  746MOL0     N 2861  11.738   9.505   9.493  0.5442 -0.0044  0.5764
  746MOL0     N 2862  11.610   9.484   9.525  0.5788 -0.1221  0.6967
  746MOL0     C 2863  10.292   9.414   9.503  0.2098  0.5033 -0.2858
  746MOL0     C 2864  10.160   9.410   9.455  0.1969  0.3460  0.5579
  746MOL0     C 2865   9.806   9.318   9.185 -0.6633  0.3202 -0.4256
  746MOL0     C 2866   9.748   9.204   9.128 -0.3559  0.0045 -0.6078
  746MOL0     C 2867   9.621   9.193   9.079  0.4837  0.2642  0.0627
  746MOL0     C 2868   9.535   9.302   9.077 -0.0363  0.0540  0.0942
  746MOL0     O 2869   9.411   9.277   9.015 -0.0718 -0.8639 -0.4869
  746MOL0     C 2870   9.313   9.380   9.008  0.1212 -0.3161 -0.4419
  746MOL0     C 2871   9.249   9.397   9.148 -0.0132 -0.0690 -0.3411
  746MOL0     C 2872   9.197   9.262   9.214 -0.4470 -0.0983 -0.0532
  746MOL0     C 2873   9.087   9.192   9.138 -0.3739 -0.0517 -0.9223
  746MOL0     C 2874   8.960   9.266   9.146 -0.5638  0.1912  0.4809
  746MOL0     C 2875   8.855   9.313   9.153 -0.0058  0.2075 -0.2920
  746MOL0     C 2876   9.587   9.424   9.129 -0.6228  0.7749 -0.1489
  746MOL0     C 2877   9.720   9.429   9.190  0.1388 -0.3626  0.2782
  746MOL0     C 2878   9.758   9.567   9.243  0.5508  0.0443 -0.1877
  746MOL0     H 2879  10.220   9.436   9.133  0.0139 -1.8396 -0.3927
  746MOL0     H 2880  10.455   9.439   9.216  0.3075 -1.9510  0.2711
  746MOL0     H 2881  10.596   9.602   9.375 -1.3447 -0.5088  0.6476
  746MOL0     H 2882  10.686   9.465   9.336  1.3693  2.5029 -0.6441
  746MOL0     H 2883  10.707   9.626   9.587 -2.2776  0.0073 -0.3623
  746MOL0     H 2884  10.777   9.472   9.590 -3.0351  0.4028  2.2916
  746MOL0     H 2885  10.846   9.680   9.373 -1.1549  3.1443  2.8476
  746MOL0     H 2886  10.935   9.650   9.516 -0.8374  1.0490 -0.0355
  746MOL0     H 2887  10.949   9.392   9.457  0.0526 -0.0665 -0.0116
  746MOL0     H 2888  10.899   9.437   9.297  1.1611  0.5084 -0.9766
  746MOL0     H 2889  11.146   9.599   9.369  0.6574 -0.4196 -0.1373
  746MOL0     H 2890  11.090   9.493   9.235  0.6227 -1.0878  0.4132
  746MOL0     H 2891  11.189   9.426   9.517 -0.5742  2.9916 -0.7153
  746MOL0     H 2892  11.159   9.302   9.387  1.2603 -1.3193  0.4937
  746MOL0     H 2893  11.369   9.522   9.382 -0.2262 -0.4685 -0.2147
  746MOL0     H 2894  11.363   9.381   9.256  2.3677 -0.0607  0.4202
  746MOL0     H 2895  11.387   9.329   9.543  0.0345 -1.3463 -0.0572
  746MOL0     H 2896  11.421   9.222   9.416 -0.7773  0.6194  1.1805
  746MOL0     H 2897  11.673   9.235   9.307 -1.1335 -0.2190  1.1545
  746MOL0     H 2898  11.891   9.379   9.227 -0.6477  0.0572  0.3250
  746MOL0     H 2899  11.939   9.305   9.383  0.7450 -0.3424 -0.7673
  746MOL0     H 2900  11.966   9.598   9.345  1.6747  0.6760  0.2367
  746MOL0     H 2901  12.022   9.485   9.470  0.7981  1.9545  0.1206
  746MOL0     H 2902  12.121   9.370   9.234 -1.2440 -1.1996  1.5380
  746MOL0     H 2903  12.115   9.535   9.182  1.0395  2.8193  1.5388
  746MOL0     H 2904  12.254   9.609   9.365  1.2139 -0.7674 -0.6467
  746MOL0     H 2905  12.263   9.444   9.432  1.9184 -0.0994 -0.5302
  746MOL0     H 2906  12.461   9.570   9.499 -2.8821 -2.6032 -1.8512
  746MOL0     H 2907  12.702   9.750   9.607 -1.1931  0.0647 -0.2533
  746MOL0     H 2908  12.806   9.606   9.599  1.1012 -0.2152 -3.7518
  746MOL0     H 2909  12.633   9.587   9.633 -3.8375  3.0750 -1.9057
  746MOL0     H 2910  12.908  10.000   9.536 -0.3103  1.5517 -1.2215
  746MOL0     H 2911  13.079  10.174   9.543 -1.7188 -0.4451 -0.4940
  746MOL0     H 2912  13.228  10.344   9.443  0.4862  0.7668  0.1672
  746MOL0     H 2913  13.268  10.257   9.598 -0.5350 -0.6602 -0.9419
  746MOL0     H 2914  13.422  10.442   9.594  2.0348 -0.0255  0.5076
  746MOL0     H 2915  13.506  10.289   9.551 -1.0543  0.0677  0.5771
  746MOL0     H 2916  13.438  10.524   9.378  3.9114  1.6715 -3.2925
  746MOL0     H 2917  13.455  10.367   9.299 -1.2800 -0.0275  0.4309
  746MOL0     H 2918  13.679  10.330   9.394 -2.6941 -1.9437 -0.8900
  746MOL0     H 2919  13.673  10.500   9.465 -0.9970 -0.7296  0.9922
  746MOL0     H 2920  13.682  10.395   9.176  0.7152  0.5521  0.3021
  746MOL0     H 2921  13.638  10.560   9.212 -1.5850 -1.5283 -1.0557
  746MOL0     H 2922  13.913  10.426   9.282  1.9508  2.2737  0.2452
  746MOL0     H 2923  13.856  10.590   9.335 -0.3357  0.0292  0.8709
  746MOL0     H 2924  13.850  10.644   9.088 -0.3164 -0.0816 -0.0322
  746MOL0     H 2925  13.918  10.483   9.057  1.2664 -0.6076  2.3110
  746MOL0     H 2926  14.127  10.568   9.154 -0.8722 -1.6272  0.7181
  746MOL0     H 2927  14.038  10.710   9.218 -1.4810 -2.4504  1.4253
  746MOL0     H 2928  13.338   9.964   9.305  0.3636  3.6236  0.3400
  746MOL0     H 2929  13.169   9.759   9.302  3.2033  0.1128 -0.3660
  746MOL0     H 2930  12.761   9.615   9.112  0.3417 -0.9304 -0.2870
  746MOL0     H 2931  12.544   9.521   9.085 -1.8214 -0.4428 -0.1957
  746MOL0     H 2932  10.320   9.391   9.606  0.2890  0.9048 -0.2144
  746MOL0     H 2933  10.077   9.382   9.520  1.1442  1.4166  2.3165
  746MOL0     H 2934   9.796   9.107   9.128  0.2185  0.2115  1.8832
  746MOL0     H 2935   9.587   9.097   9.043 -1.3582  0.9252 -0.0553
  746MOL0     H 2936   9.356   9.473   8.970  0.7098 -0.0513  0.8342
  746MOL0     H 2937   9.231   9.344   8.945 -0.6942  0.2517  0.2660
  746MOL0     H 2938   9.164   9.465   9.146  0.6149  0.7395 -1.9454
  746MOL0     H 2939   9.326   9.445   9.209  0.6663 -1.4925 -0.0413
  746MOL0     H 2940   9.281   9.197   9.239  0.5607  1.9625  2.3304
  746MOL0     H 2941   9.155   9.277   9.315 -0.5250  0.7236 -0.2032
  746MOL0     H 2942   9.064   9.094   9.181 -0.7484  0.5167  0.2105
  746MOL0     H 2943   9.112   9.184   9.032 -1.6321 -0.2981 -1.2191
  746MOL0     H 2944   8.753   9.347   9.161  0.9669  3.6712 -0.7777
  746MOL0     H 2945   9.522   9.511   9.131 -1.0680  0.4922 -1.1569
  746MOL0     H 2946   9.735   9.648   9.173 -0.8295  0.0293  0.2205
  746MOL0     H 2947   9.689   9.579   9.327  1.1890 -2.4112  0.7661
  746MOL0     H 2948   9.858   9.592   9.280  0.4594 -1.2510  1.0422
  747MOL0     O 2949   2.385  10.292   1.894 -0.1050  0.1223  0.3496
  747MOL0     C 2950   2.356  10.293   1.775  0.2093  0.4036  0.1005
  747MOL0     O 2951   2.450  10.285   1.666  0.8279 -0.0219 -0.1883
  747MOL0     C 2952   2.583  10.283   1.703  0.2130 -0.0519 -0.1283
  747MOL0     C 2953   2.657  10.384   1.767 -0.1476  0.1466  0.1919
  747MOL0     C 2954   2.791  10.371   1.784 -0.3395  0.2260 -0.1194
  747MOL0     C 2955   2.862  10.261   1.728  0.2772  0.8545  0.6098
  747MOL0     O 2956   2.994  10.248   1.752 -0.7216  0.1582 -0.4196
  747MOL0     C 2957   3.077  10.170   1.652  0.9853 -0.1828 -0.6117
  747MOL0     C 2958   3.197  10.134   1.728 -0.3880  0.9171 -0.7359
  747MOL0     C 2959   3.298  10.084   1.631 -0.1688 -0.4169  0.5097
  747MOL0     C 2960   3.409  10.013   1.707  0.9633 -0.3164 -0.0878
  747MOL0     C 2961   3.489   9.918   1.609  0.2598 -0.1335 -0.3251
  747MOL0     C 2962   3.608   9.851   1.679  0.0910  0.2030  0.4829
  747MOL0     C 2963   3.729   9.949   1.689  1.0063 -0.2968 -0.3028
  747MOL0     C 2964   3.866   9.877   1.710 -0.3778  0.5105  0.3180
  747MOL0     N 2965   3.969   9.978   1.744  0.0778  0.6345  0.3026
  747MOL0     C 2966   4.103   9.936   1.738  0.0411  0.4035  0.6270
  747MOL0     C 2967   4.171  10.050   1.743 -1.3259 -0.1673  0.1834
  747MOL0     C 2968   4.318  10.054   1.756 -0.4072 -0.3641 -0.4201
  747MOL0     C 2969   4.391  10.059   1.627  0.0205  0.9793 -0.7462
  747MOL0     C 2970   4.530   9.991   1.628 -0.1071 -0.9061 -0.4114
  747MOL0     C 2971   4.629  10.042   1.521  0.5995  0.6414 -0.6901
  747MOL0     O 2972   4.754   9.987   1.525  0.5805  0.0385  0.4266
  747MOL0     C 2973   4.768   9.861   1.467 -0.2359  0.1522  0.0012
  747MOL0     C 2974   4.661   9.784   1.416 -0.6255  0.1913 -0.3041
  747MOL0     C 2975   4.694   9.668   1.344 -0.1151  0.4805  0.1201
  747MOL0     C 2976   4.583   9.593   1.275 -0.0881 -0.0920 -0.3605
  747MOL0     C 2977   4.819   9.621   1.334  0.2141  0.2751 -0.0674
  747MOL0     C 2978   4.859   9.502   1.256 -0.5116 -0.4937  0.4120
  747MOL0     O 2979   4.942   9.423   1.321 -0.3260 -0.0940  0.5719
  747MOL0     C 2980   5.013   9.324   1.254  0.7290 -0.1828 -1.0740
  747MOL0     C 2981   4.997   9.203   1.317  0.5614  1.0846  0.2880
  747MOL0     C 2982   5.068   9.092   1.264 -0.3315  1.0613  1.3032
  747MOL0     C 2983   5.148   9.099   1.150  0.8934 -0.0126  0.4483
  747MOL0     O 2984   5.222   8.984   1.124  0.0610 -0.3864  0.0149
  747MOL0     C 2985   5.276   8.963   0.996  0.3753 -0.5311  0.6246
  747MOL0     C 2986   5.171   8.936   0.885 -0.0262  0.7782 -0.4381
  747MOL0     C 2987   5.233   8.952   0.753  0.1269  0.0582  0.5085
  747MOL0     C 2988   5.136   8.913   0.641 -0.3050  0.7123 -0.7585
  747MOL0     C 2989   5.214   8.862   0.519  0.0689  0.5051 -0.2257
  747MOL0     C 2990   5.112   8.870   0.403  0.0816  0.0772 -0.4219
  747MOL0     C 2991   5.110   9.001   0.340 -0.4360 -0.6641 -0.5202
  747MOL0     C 2992   5.180   9.014   0.204 -0.1312 -0.8727 -0.2463
  747MOL0    Cl 2993   5.351   8.993   0.223  0.3621 -0.4025  0.0079
  747MOL0     C 2994   5.147   9.224   1.084  0.0049 -1.1654  0.3482
  747MOL0     C 2995   5.082   9.340   1.131 -0.0349  0.4949 -0.3513
  747MOL0     O 2996   4.819   9.488   1.140  0.4206 -0.4618  0.4378
  747MOL0     C 2997   4.920   9.700   1.391  0.9688  0.3927  0.4029
  747MOL0     C 2998   4.897   9.812   1.464 -0.4913 -0.3635  1.2364
  747MOL0     N 2999   4.080  10.164   1.745 -0.1476  0.0055  0.2405
  747MOL0     N 3000   3.959  10.116   1.740 -0.5446 -0.6232 -0.5327
  747MOL0     C 3001   2.786  10.160   1.664  0.6091 -1.1439  0.2887
  747MOL0     C 3002   2.653  10.176   1.644  0.0534  0.4334 -0.1844
  747MOL0     C 3003   2.214  10.275   1.742  0.3070  0.1977 -0.6795
  747MOL0     C 3004   2.192  10.177   1.637 -0.7528 -0.2053 -0.0383
  747MOL0     C 3005   2.068  10.148   1.601  0.1222  0.3782 -0.4077
  747MOL0     C 3006   1.958  10.201   1.663 -0.4035 -0.9795  0.3927
  747MOL0     O 3007   1.837  10.178   1.614 -0.1664  0.2676  0.3489
  747MOL0     C 3008   1.726  10.185   1.704 -0.0887  0.2625 -1.0169
  747MOL0     C 3009   1.606  10.121   1.643 -0.4234 -0.0899  0.3568
  747MOL0     C 3010   1.480  10.146   1.717  0.3348 -0.3897 -0.0259
  747MOL0     C 3011   1.385  10.247   1.648  0.1046  0.4592 -0.4340
  747MOL0     C 3012   1.434  10.380   1.670  1.3634 -0.7588  0.9719
  747MOL0     C 3013   1.469  10.484   1.711 -0.7069 -0.8579  0.2167
  747MOL0     C 3014   1.977  10.289   1.769  0.6402  0.7416  0.2992
  747MOL0     C 3015   2.100  10.337   1.813  1.6723  0.8163 -0.0934
  747MOL0     C 3016   2.116  10.425   1.938 -0.3026  0.7977 -1.0115
  747MOL0     H 3017   2.610  10.477   1.797 -0.8363 -1.0109  2.9736
  747MOL0     H 3018   2.847  10.444   1.841 -1.5536  3.1780 -2.4740
  747MOL0     H 3019   3.101  10.245   1.576  0.2693  0.7390  0.0441
  747MOL0     H 3020   3.028  10.081   1.609 -3.7472  0.5170  2.5646
  747MOL0     H 3021   3.240  10.201   1.802  1.6763 -2.8951  1.8634
  747MOL0     H 3022   3.167  10.041   1.777 -1.5679  0.8065 -1.6217
  747MOL0     H 3023   3.260   9.999   1.574 -2.9072 -2.7161  5.1636
  747MOL0     H 3024   3.332  10.159   1.559 -0.2419 -0.8504  0.0143
  747MOL0     H 3025   3.466  10.094   1.754 -0.2883 -0.2272  1.3494
  747MOL0     H 3026   3.371   9.957   1.793 -0.4579  1.1081  0.2611
  747MOL0     H 3027   3.513   9.967   1.515 -0.7075  0.5600 -0.2303
  747MOL0     H 3028   3.421   9.837   1.583  1.9235 -1.2563 -1.3546
  747MOL0     H 3029   3.598   9.809   1.779 -0.4233 -0.4522  0.1645
  747MOL0     H 3030   3.633   9.759   1.625  2.3643  2.2589 -2.2543
  747MOL0     H 3031   3.701  10.022   1.765  0.1643 -2.1766  1.2720
  747MOL0     H 3032   3.741  10.015   1.602 -1.3171  2.1458  1.1054
  747MOL0     H 3033   3.868   9.801   1.788  0.6114  0.3112  0.1177
  747MOL0     H 3034   3.898   9.828   1.617  1.3343 -0.0997  1.1805
  747MOL0     H 3035   4.143   9.835   1.740  1.2054  0.7993 -0.6573
  747MOL0     H 3036   4.342   9.962   1.810 -0.1693  0.6016  1.2039
  747MOL0     H 3037   4.351  10.131   1.827  0.7956 -2.1855  1.0978
  747MOL0     H 3038   4.336  10.015   1.544 -0.0990  1.6882 -1.0560
  747MOL0     H 3039   4.414  10.162   1.597  1.3900  1.2895  1.1903
  747MOL0     H 3040   4.580  10.012   1.723 -0.5050  0.0015 -0.3890
  747MOL0     H 3041   4.527   9.882   1.623  4.2379 -1.1409 -2.9405
  747MOL0     H 3042   4.582  10.028   1.423 -0.3877 -0.7329 -0.0404
  747MOL0     H 3043   4.644  10.149   1.535  0.3392  0.6289 -0.3006
  747MOL0     H 3044   4.557   9.814   1.404 -0.3699  0.1808 -3.3911
  747MOL0     H 3045   4.589   9.485   1.289  0.2736 -0.1439 -0.8908
  747MOL0     H 3046   4.593   9.615   1.169  1.1926 -1.0749 -0.4608
  747MOL0     H 3047   4.479   9.615   1.303 -0.6141 -1.3660 -1.2287
  747MOL0     H 3048   4.940   9.181   1.407  0.7405  1.3637  0.4694
  747MOL0     H 3049   5.077   9.013   1.338 -0.3465  0.8765  1.1091
  747MOL0     H 3050   5.325   9.059   0.973 -2.1786  0.0077 -3.4499
  747MOL0     H 3051   5.356   8.889   1.004 -0.3347 -1.4127 -0.2245
  747MOL0     H 3052   5.147   8.829   0.894  1.2342  0.5122 -0.1144
  747MOL0     H 3053   5.084   9.002   0.890  1.6875  3.3296 -2.2547
  747MOL0     H 3054   5.317   8.883   0.740 -1.5219 -2.0207  0.3379
  747MOL0     H 3055   5.268   9.055   0.744 -1.9087  0.9271  1.8043
  747MOL0     H 3056   5.066   8.995   0.624 -1.7326  0.3327  2.4439
  747MOL0     H 3057   5.067   8.834   0.675  0.4896  0.4304  0.2781
  747MOL0     H 3058   5.299   8.927   0.497 -0.1094  1.3177  1.2930
  747MOL0     H 3059   5.255   8.763   0.539  0.4062  0.4750 -1.0432
  747MOL0     H 3060   5.017   8.828   0.436 -0.3870  1.8867  0.6840
  747MOL0     H 3061   5.141   8.802   0.322 -1.8467  1.5174 -2.4300
  747MOL0     H 3062   5.151   9.070   0.414 -0.7233 -1.2014  0.1532
  747MOL0     H 3063   5.007   9.031   0.319 -0.4465 -2.0856 -2.8494
  747MOL0     H 3064   5.163   9.114   0.163  2.8459 -0.5488 -0.9052
  747MOL0     H 3065   5.138   8.940   0.136  3.1494 -0.7862 -2.5655
  747MOL0     H 3066   5.209   9.233   0.995  0.4441  0.8242  0.8249
  747MOL0     H 3067   5.095   9.436   1.083  0.3808  1.2081  1.1417
  747MOL0     H 3068   5.023   9.666   1.390  0.8625  0.0609  0.5868
  747MOL0     H 3069   4.982   9.870   1.496 -0.4942  0.6610 -0.4803
  747MOL0     H 3070   2.831  10.068   1.627 -1.7751 -2.8022  1.2853
  747MOL0     H 3071   2.597  10.097   1.595  0.7271  1.1478 -2.2116
  747MOL0     H 3072   2.271  10.124   1.586 -2.9483 -3.6320 -0.2148
  747MOL0     H 3073   2.059  10.067   1.528 -0.5866  0.7901 -0.7852
  747MOL0     H 3074   1.750  10.148   1.804  1.1758  1.3619 -0.8843
  747MOL0     H 3075   1.683  10.285   1.708 -2.8237 -0.8755  1.0142
  747MOL0     H 3076   1.627  10.014   1.645 -2.3315 -0.5002  0.3344
  747MOL0     H 3077   1.589  10.163   1.543  1.7509  0.7670  0.2849
  747MOL0     H 3078   1.425  10.053   1.732 -0.7275  0.2552  0.1908
  747MOL0     H 3079   1.509  10.185   1.814  1.1219 -0.4747 -0.2212
  747MOL0     H 3080   1.284  10.235   1.687 -1.5083 -0.1976 -4.3435
  747MOL0     H 3081   1.373  10.222   1.542  2.2143 -1.5242 -0.2781
  747MOL0     H 3082   1.496  10.580   1.751  1.6594 -0.2714 -2.4780
  747MOL0     H 3083   1.894  10.341   1.816 -0.7699  0.5725 -1.8740
  747MOL0     H 3084   2.031  10.494   1.938  0.8796  2.3417 -2.4953
  747MOL0     H 3085   2.123  10.371   2.033  1.6615  0.5320 -1.2606
  747MOL0     H 3086   2.194  10.501   1.940 -0.3417  0.8573 -1.5959
  748MOL0     O 3087   7.556   3.554   9.033 -0.5354 -0.1056  0.7754
  748MOL0     C 3088   7.540   3.674   9.049  0.1056  0.4608  0.0493
  748MOL0     O 3089   7.637   3.773   9.038  0.5359  1.1036  0.0090
  748MOL0     C 3090   7.759   3.715   9.017  0.0373  1.2273  0.1240
  748MOL0     C 3091   7.791   3.692   8.888  1.5709  0.0136 -0.0132
  748MOL0     C 3092   7.922   3.654   8.850 -0.1332  0.4540  0.7853
  748MOL0     C 3093   8.028   3.643   8.948  0.4941  0.3390  0.4673
  748MOL0     O 3094   8.152   3.599   8.919 -0.5277  0.1373  0.3987
  748MOL0     C 3095   8.184   3.577   8.783  0.7748 -1.1002  0.6612
  748MOL0     C 3096   8.209   3.709   8.697 -0.1414 -0.3952  1.0914
  748MOL0     C 3097   8.321   3.793   8.761 -0.1710 -0.1426 -0.1616
  748MOL0     C 3098   8.456   3.739   8.710 -0.2484 -0.2025 -0.3942
  748MOL0     C 3099   8.534   3.819   8.610 -0.1933  0.3591  0.2737
  748MOL0     C 3100   8.573   3.960   8.657  0.0372  0.7189  0.0776
  748MOL0     C 3101   8.667   4.029   8.556 -0.4764 -0.6648 -0.4513
  748MOL0     C 3102   8.700   4.170   8.603 -0.5765 -0.4412 -0.3832
  748MOL0     N 3103   8.788   4.244   8.510  0.0881  0.3409  0.0294
  748MOL0     C 3104   8.917   4.209   8.479  0.5769 -0.2146  0.2106
  748MOL0     C 3105   8.963   4.300   8.386  0.2853  0.2557  0.0519
  748MOL0     C 3106   9.092   4.301   8.316  0.2288 -0.6562  0.3575
  748MOL0     C 3107   9.129   4.169   8.261  0.2983 -0.2498 -0.3150
  748MOL0     C 3108   9.282   4.173   8.231  0.2346  0.1815 -0.0913
  748MOL0     C 3109   9.312   4.225   8.092 -0.0244  0.3917  0.1369
  748MOL0     O 3110   9.291   4.116   7.996 -0.2858 -0.1870  0.7855
  748MOL0     C 3111   9.402   4.067   7.941 -0.0770  0.4720  0.3804
  748MOL0     C 3112   9.461   3.953   7.991 -0.2223  0.3205  0.0573
  748MOL0     C 3113   9.594   3.917   7.949 -0.6818  0.1479 -0.7377
  748MOL0     C 3114   9.669   3.802   8.022  0.2914 -0.0259 -0.3642
  748MOL0     C 3115   9.649   3.984   7.835 -0.5523 -0.0663 -0.2542
  748MOL0     C 3116   9.780   3.944   7.772  0.6238 -0.0761  0.0769
  748MOL0     O 3117   9.804   4.006   7.649  0.7586  0.1860 -0.5148
  748MOL0     C 3118   9.930   3.999   7.596  0.5167  0.4997 -0.6921
  748MOL0     C 3119   9.946   3.977   7.460  0.6778 -0.0784  0.4401
  748MOL0     C 3120  10.074   3.968   7.406  0.0931  0.1869  0.1727
  748MOL0     C 3121  10.190   3.987   7.483  0.5352  0.2632 -0.7957
  748MOL0     O 3122  10.318   3.985   7.430  0.7754 -0.1368  0.5804
  748MOL0     C 3123  10.392   4.112   7.435 -0.0566 -0.9376 -0.8178
  748MOL0     C 3124  10.337   4.205   7.325 -0.2292  0.1205 -0.0255
  748MOL0     C 3125  10.452   4.294   7.278  0.2110 -0.2594  0.0921
  748MOL0     C 3126  10.547   4.231   7.172  0.8649 -0.1589 -1.1127
  748MOL0     C 3127  10.667   4.315   7.127 -1.0792 -0.9140  0.4651
  748MOL0     C 3128  10.644   4.432   7.027  0.3785  1.0362 -0.7142
  748MOL0     C 3129  10.761   4.529   7.040 -0.6872 -0.8755 -0.0050
  748MOL0     C 3130  10.755   4.648   6.955  0.4257  0.3180 -0.1890
  748MOL0    Cl 3131  10.918   4.711   6.932 -0.3582  0.3510 -0.0155
  748MOL0     C 3132  10.173   4.010   7.621 -0.0280  0.0615 -0.5498
  748MOL0     C 3133  10.047   4.018   7.676 -0.4784  0.5283  1.3187
  748MOL0     O 3134   9.843   3.854   7.827 -0.1383 -0.0532 -0.2276
  748MOL0     C 3135   9.574   4.091   7.783  0.0493  0.2025  0.9017
  748MOL0     C 3136   9.453   4.131   7.831 -0.1143 -0.1566  1.1410
  748MOL0     N 3137   8.864   4.392   8.378 -0.0132 -0.4403 -0.6486
  748MOL0     N 3138   8.759   4.362   8.451  0.2215  0.3290  0.0993
  748MOL0     C 3139   7.985   3.663   9.081  0.7064  0.2775  0.6174
  748MOL0     C 3140   7.850   3.700   9.118  0.0764 -0.2723 -0.1808
  748MOL0     C 3141   7.398   3.721   9.081 -0.8737  0.1309  0.5418
  748MOL0     C 3142   7.326   3.648   9.174 -0.0955  0.7923  0.2885
  748MOL0     C 3143   7.201   3.682   9.219 -0.6044 -0.2300  0.6984
  748MOL0     C 3144   7.140   3.793   9.164 -1.1222  0.4468 -0.2811
  748MOL0     O 3145   7.017   3.825   9.217  0.2996  0.5209 -0.3054
  748MOL0     C 3146   6.933   3.942   9.179 -0.3480 -1.2501 -0.1368
  748MOL0     C 3147   6.850   3.919   9.057  0.5326  0.0051 -0.1781
  748MOL0     C 3148   6.693   3.937   9.083 -0.0123  0.2519  0.7415
  748MOL0     C 3149   6.658   4.086   9.077 -0.2144  0.5044  0.0827
  748MOL0     C 3150   6.522   4.101   9.119  0.0068  0.2294 -0.4127
  748MOL0     C 3151   6.423   4.111   9.185  0.2725  0.0122  0.2746
  748MOL0     C 3152   7.214   3.877   9.074 -0.3132 -0.1066 -0.3617
  748MOL0     C 3153   7.346   3.839   9.025  0.8135 -0.6568 -1.1119
  748MOL0     C 3154   7.427   3.942   8.946  0.6436 -0.2278 -0.8457
  748MOL0     H 3155   7.709   3.708   8.819 -0.3862 -0.4471  2.0883
  748MOL0     H 3156   7.940   3.637   8.744 -1.7023  1.1554  0.3747
  748MOL0     H 3157   8.108   3.522   8.726  0.1221  1.5429 -1.2062
  748MOL0     H 3158   8.272   3.511   8.774  0.8950 -1.2542  2.6177
  748MOL0     H 3159   8.233   3.678   8.595 -2.2622 -0.8518  0.6837
  748MOL0     H 3160   8.114   3.763   8.696  0.5277  0.8869  2.5410
  748MOL0     H 3161   8.300   3.893   8.720  0.2036  0.0023 -0.0036
  748MOL0     H 3162   8.334   3.791   8.869  0.0507 -1.1446 -0.1955
  748MOL0     H 3163   8.518   3.721   8.798 -1.8857  2.4964  1.4756
  748MOL0     H 3164   8.443   3.637   8.673 -1.6112 -1.2585  2.6576
  748MOL0     H 3165   8.485   3.824   8.512  1.3561  1.0556 -0.4959
  748MOL0     H 3166   8.622   3.759   8.587 -1.5936 -1.3412 -0.9522
  748MOL0     H 3167   8.481   4.018   8.668 -0.5548  0.3054 -2.2507
  748MOL0     H 3168   8.635   3.956   8.747  0.7117  1.9517 -0.3201
  748MOL0     H 3169   8.610   4.034   8.463 -4.0379  3.3058  1.6207
  748MOL0     H 3170   8.759   3.973   8.538 -0.8739 -1.5739  0.2722
  748MOL0     H 3171   8.604   4.223   8.601 -0.3760  0.0339  1.2607
  748MOL0     H 3172   8.743   4.169   8.703 -0.5796 -1.1057 -0.3846
  748MOL0     H 3173   8.975   4.124   8.513 -1.8047 -1.5721  1.1570
  748MOL0     H 3174   9.167   4.344   8.383  0.4034  0.1414 -0.3436
  748MOL0     H 3175   9.088   4.385   8.248  0.8551 -0.3313  0.7083
  748MOL0     H 3176   9.119   4.092   8.338 -0.0278  1.4976  1.4307
  748MOL0     H 3177   9.065   4.148   8.175 -1.9658  1.2975  0.9071
  748MOL0     H 3178   9.331   4.222   8.316 -2.6599 -1.8896  3.0270
  748MOL0     H 3179   9.321   4.072   8.244  1.9987  0.8656  0.2419
  748MOL0     H 3180   9.242   4.305   8.065 -1.2117 -1.4956 -2.8675
  748MOL0     H 3181   9.416   4.258   8.080  1.0572 -2.5041  0.7686
  748MOL0     H 3182   9.413   3.892   8.068  0.0771  1.8089  1.4933
  748MOL0     H 3183   9.770   3.833   8.053  0.1384  1.8584 -1.5668
  748MOL0     H 3184   9.670   3.709   7.964 -1.4091 -1.7209  2.1526
  748MOL0     H 3185   9.633   3.792   8.124  2.3896  2.5409  0.7605
  748MOL0     H 3186   9.854   3.952   7.407 -0.9439  1.8227  2.2171
  748MOL0     H 3187  10.094   3.940   7.303  1.0153 -0.4110  0.5008
  748MOL0     H 3188  10.380   4.174   7.525 -0.1422 -2.9890  0.6610
  748MOL0     H 3189  10.498   4.085   7.440 -0.6899 -3.6065  2.8885
  748MOL0     H 3190  10.300   4.147   7.240 -1.0724 -0.6362  0.8315
  748MOL0     H 3191  10.244   4.253   7.358 -0.1318  0.2706  0.0332
  748MOL0     H 3192  10.509   4.325   7.366  0.0242  2.2902 -0.6010
  748MOL0     H 3193  10.409   4.379   7.224  1.3822 -0.8520 -1.8650
  748MOL0     H 3194  10.493   4.195   7.084 -2.2329 -1.0285  1.0066
  748MOL0     H 3195  10.590   4.148   7.228  0.3082  1.5256  2.0355
  748MOL0     H 3196  10.723   4.350   7.214  0.3327  0.9904 -1.1326
  748MOL0     H 3197  10.727   4.251   7.062 -1.4006 -0.8624  0.1179
  748MOL0     H 3198  10.552   4.486   7.054 -1.3924 -2.1538  0.1331
  748MOL0     H 3199  10.636   4.396   6.924  2.2208  0.9030 -0.8462
  748MOL0     H 3200  10.852   4.475   7.011  0.1387 -0.8984  2.3822
  748MOL0     H 3201  10.780   4.578   7.136  2.4037  2.2876 -1.9446
  748MOL0     H 3202  10.698   4.729   7.002 -0.4878 -0.7854  0.6640
  748MOL0     H 3203  10.705   4.639   6.858 -2.3560  0.3063  1.1414
  748MOL0     H 3204  10.265   4.005   7.679 -0.3916  0.8049  0.0897
  748MOL0     H 3205  10.045   3.996   7.782  3.5747 -0.6615  1.3147
  748MOL0     H 3206   9.619   4.151   7.705 -4.9214 -0.0733 -2.6672
  748MOL0     H 3207   9.401   4.217   7.790  0.0157  0.4667  2.2308
  748MOL0     H 3208   8.063   3.644   9.155  1.0831 -1.9068 -0.2590
  748MOL0     H 3209   7.822   3.711   9.223 -0.6105 -1.0386 -0.2707
  748MOL0     H 3210   7.372   3.554   9.203  0.7934  1.1440  0.0679
  748MOL0     H 3211   7.151   3.617   9.290 -1.1635  0.6753  1.1535
  748MOL0     H 3212   6.873   3.963   9.267 -0.1275  0.4964 -0.3797
  748MOL0     H 3213   6.983   4.038   9.161 -2.2476 -0.4982 -1.7363
  748MOL0     H 3214   6.859   3.816   9.020  1.3114  0.4020 -1.1660
  748MOL0     H 3215   6.877   3.988   8.976  0.2328 -1.6126 -1.7083
  748MOL0     H 3216   6.631   3.877   9.016  2.7069  1.4160 -3.1628
  748MOL0     H 3217   6.674   3.904   9.186 -1.3599  2.6211  1.3345
  748MOL0     H 3218   6.676   4.117   8.974  0.6317  1.0221  0.3769
  748MOL0     H 3219   6.733   4.135   9.139  2.1093  0.9217 -2.8375
  748MOL0     H 3220   6.326   4.126   9.227 -1.0557 -1.1285 -2.1688
  748MOL0     H 3221   7.174   3.970   9.035 -1.0499 -0.4242 -0.3702
  748MOL0     H 3222   7.497   3.987   9.017 -0.5453 -0.4886  0.5299
  748MOL0     H 3223   7.488   3.893   8.869  0.4400 -2.4368  0.3265
  748MOL0     H 3224   7.369   4.019   8.896  0.5741  0.4796  0.2802
  749MOL0     O 3225   2.144   1.450   4.717 -0.2912  0.6645  0.1521
  749MOL0     C 3226   2.099   1.434   4.828 -0.5429 -0.0704 -0.0604
  749MOL0     O 3227   2.169   1.398   4.940  0.8623 -0.3348  0.0741
  749MOL0     C 3228   2.292   1.349   4.939 -0.0157  0.8634  0.1324
  749MOL0     C 3229   2.402   1.428   4.900  0.8761  0.3395  0.4048
  749MOL0     C 3230   2.525   1.374   4.908 -0.7966  0.2243  0.7074
  749MOL0     C 3231   2.543   1.244   4.953  0.0875 -0.0053  0.6864
  749MOL0     O 3232   2.676   1.193   4.965 -0.7244  0.1882 -0.0961
  749MOL0     C 3233   2.769   1.221   4.855 -0.5220  0.1914 -0.9362
  749MOL0     C 3234   2.881   1.126   4.869 -0.2564  0.3458  0.1461
  749MOL0     C 3235   2.996   1.149   4.774  0.3125 -0.7823 -0.3350
  749MOL0     C 3236   3.109   1.058   4.802 -0.4898 -0.5496  0.1041
  749MOL0     C 3237   3.232   1.109   4.730 -0.8380  0.5533 -0.5307
  749MOL0     C 3238   3.218   1.128   4.580  0.0979  0.6078  0.2047
  749MOL0     C 3239   3.338   1.208   4.520  0.4020  0.2019 -0.6714
  749MOL0     C 3240   3.471   1.133   4.501 -0.0442  1.1269 -0.3646
  749MOL0     N 3241   3.443   1.017   4.419  0.5335  0.5433  0.0353
  749MOL0     C 3242   3.434   1.015   4.279  0.5790  0.3237 -1.0939
  749MOL0     C 3243   3.381   0.896   4.254  0.4776 -0.2735  0.1863
  749MOL0     C 3244   3.336   0.848   4.114 -0.5866 -0.1758  0.2355
  749MOL0     C 3245   3.191   0.885   4.102  0.7422 -0.0107 -0.0659
  749MOL0     C 3246   3.123   0.881   3.965 -0.3790  0.5551 -0.1637
  749MOL0     C 3247   3.161   0.749   3.882  1.0132 -0.9052 -0.1981
  749MOL0     O 3248   3.141   0.755   3.737 -0.2432 -0.3287 -0.7226
  749MOL0     C 3249   3.016   0.729   3.688  0.6413  0.3399 -0.7490
  749MOL0     C 3250   2.994   0.734   3.553 -0.7550 -0.3499  1.3920
  749MOL0     C 3251   2.873   0.719   3.487  0.0363  0.4100  0.1461
  749MOL0     C 3252   2.881   0.730   3.338  0.6657 -0.2995  0.2272
  749MOL0     C 3253   2.754   0.720   3.575  0.6387 -0.3602 -0.7558
  749MOL0     C 3254   2.616   0.739   3.523 -0.7121  0.0848 -0.1861
  749MOL0     O 3255   2.518   0.716   3.606  0.1221 -0.0584 -0.2259
  749MOL0     C 3256   2.385   0.719   3.558  0.2263  0.1064 -0.0018
  749MOL0     C 3257   2.312   0.601   3.538 -0.1254 -0.2550 -0.2792
  749MOL0     C 3258   2.179   0.615   3.500  0.2487  0.4411 -0.1187
  749MOL0     C 3259   2.116   0.737   3.485 -0.7633 -0.6862 -1.1925
  749MOL0     O 3260   1.985   0.727   3.452  0.3433 -0.5394 -0.3840
  749MOL0     C 3261   1.892   0.806   3.526  0.4208  0.1419  1.0337
  749MOL0     C 3262   1.767   0.822   3.444 -0.2639 -0.1309  0.3555
  749MOL0     C 3263   1.640   0.855   3.518 -0.8257 -0.4982 -0.3309
  749MOL0     C 3264   1.652   0.983   3.607  0.2038  0.5096  0.1110
  749MOL0     C 3265   1.533   1.003   3.704 -0.0015  0.7144 -0.6897
  749MOL0     C 3266   1.485   1.148   3.698  0.4674 -0.0042 -0.3938
  749MOL0     C 3267   1.421   1.212   3.824 -0.3033  0.3142 -1.2788
  749MOL0     C 3268   1.524   1.237   3.937 -0.3535 -0.0955  0.6303
  749MOL0    Cl 3269   1.645   1.361   3.896  0.0024  0.6315  0.2993
  749MOL0     C 3270   2.192   0.856   3.500 -0.6916  0.5117  1.0753
  749MOL0     C 3271   2.327   0.844   3.538  0.8417  0.0398 -0.1857
  749MOL0     O 3272   2.601   0.745   3.406 -1.1858 -0.1207  0.1725
  749MOL0     C 3273   2.774   0.702   3.716  0.2487 -0.0211 -0.1889
  749MOL0     C 3274   2.903   0.710   3.769  0.3201  0.2999  0.7014
  749MOL0     N 3275   3.384   0.816   4.366  0.3626 -0.4937 -0.1721
  749MOL0     N 3276   3.425   0.891   4.469 -0.2232  0.4177  0.2982
  749MOL0     C 3277   2.433   1.160   4.985  0.3375 -0.3448  0.4285
  749MOL0     C 3278   2.302   1.209   4.968  1.3344  0.0266 -0.0797
  749MOL0     C 3279   1.958   1.468   4.840 -0.1830 -0.7480  0.0959
  749MOL0     C 3280   1.912   1.569   4.762 -0.0986 -0.6426 -0.6310
  749MOL0     C 3281   1.784   1.612   4.769  0.3188  0.0975  1.3024
  749MOL0     C 3282   1.688   1.543   4.853 -0.6947 -0.8801  0.0536
  749MOL0     O 3283   1.566   1.589   4.879 -0.4599  0.0834 -0.3875
  749MOL0     C 3284   1.510   1.709   4.822  0.2205 -0.8810 -0.2340
  749MOL0     C 3285   1.373   1.763   4.882 -0.5412 -0.1653  0.1431
  749MOL0     C 3286   1.380   1.805   5.033 -0.5821 -1.0142 -0.5197
  749MOL0     C 3287   1.270   1.893   5.090  0.1928  0.0638  0.0166
  749MOL0     C 3288   1.245   2.024   5.015 -0.5245  1.5702  1.1250
  749MOL0     C 3289   1.225   2.120   4.949 -0.0982  0.0333 -0.5610
  749MOL0     C 3290   1.736   1.442   4.932 -0.5171 -0.1303  0.3250
  749MOL0     C 3291   1.872   1.404   4.930  0.2710 -0.1332 -0.4500
  749MOL0     C 3292   1.902   1.284   5.017 -0.3563  0.6889 -0.0507
  749MOL0     H 3293   2.386   1.531   4.869  0.3379  1.0499  2.8389
  749MOL0     H 3294   2.608   1.440   4.882 -2.4029  2.3232  0.6590
  749MOL0     H 3295   2.805   1.321   4.880 -1.9542  0.2173  1.3097
  749MOL0     H 3296   2.726   1.224   4.754  0.6309  0.2607 -1.4486
  749MOL0     H 3297   2.919   1.141   4.971 -2.0423  1.7733  0.6744
  749MOL0     H 3298   2.845   1.023   4.863 -0.8951  0.5521  0.3128
  749MOL0     H 3299   2.958   1.130   4.674  1.3660 -2.0738 -0.5115
  749MOL0     H 3300   3.017   1.256   4.768 -0.2938 -0.6973 -1.0591
  749MOL0     H 3301   3.135   1.066   4.908 -0.5870  2.3282 -0.0185
  749MOL0     H 3302   3.085   0.955   4.772  1.0774 -1.2252  1.0412
  749MOL0     H 3303   3.310   1.036   4.751 -2.0670 -1.2901 -2.0058
  749MOL0     H 3304   3.265   1.208   4.760 -1.1018  1.2206 -2.2993
  749MOL0     H 3305   3.211   1.028   4.537  0.0238  0.8204 -0.2879
  749MOL0     H 3306   3.126   1.175   4.543 -0.4619 -0.0309  0.7838
  749MOL0     H 3307   3.354   1.301   4.576 -0.7394 -0.6711  1.1611
  749MOL0     H 3308   3.304   1.258   4.428  0.5474  1.8215  0.1212
  749MOL0     H 3309   3.554   1.184   4.451 -0.4703  1.7950 -0.3936
  749MOL0     H 3310   3.505   1.094   4.598  0.3727  0.8675 -0.6094
  749MOL0     H 3311   3.438   1.098   4.209 -1.3127 -1.0292 -2.9086
  749MOL0     H 3312   3.349   0.740   4.111 -1.5986 -0.3997  2.1631
  749MOL0     H 3313   3.398   0.899   4.040 -1.6401  2.6975  1.1851
  749MOL0     H 3314   3.132   0.822   4.169 -0.6727  1.3631  0.0163
  749MOL0     H 3315   3.191   0.988   4.138 -2.0724  0.0551 -0.0807
  749MOL0     H 3316   3.015   0.882   3.985 -0.5961 -3.6065 -0.3214
  749MOL0     H 3317   3.145   0.973   3.909  1.4496  0.5327  0.4544
  749MOL0     H 3318   3.267   0.725   3.900  1.9694  1.7433 -1.8222
  749MOL0     H 3319   3.102   0.670   3.929  1.6348 -0.3484  1.6188
  749MOL0     H 3320   3.086   0.755   3.500 -1.9478  2.2651  0.1441
  749MOL0     H 3321   2.984   0.721   3.303  1.0092  0.1003  1.1059
  749MOL0     H 3322   2.839   0.823   3.298  3.6086  1.4524  0.8965
  749MOL0     H 3323   2.820   0.659   3.281  2.3701 -0.3943 -1.6033
  749MOL0     H 3324   2.349   0.500   3.549 -0.4940 -0.8043 -3.3583
  749MOL0     H 3325   2.124   0.524   3.478  0.7466  0.5221 -1.8391
  749MOL0     H 3326   1.864   0.755   3.618  2.4187 -0.1607  1.5138
  749MOL0     H 3327   1.939   0.905   3.538  0.6078  0.0640  0.9471
  749MOL0     H 3328   1.791   0.893   3.364  0.9079  1.0286  1.7127
  749MOL0     H 3329   1.746   0.724   3.398 -1.0414  0.6350 -1.0178
  749MOL0     H 3330   1.632   0.776   3.592  1.9321 -0.5854 -0.0158
  749MOL0     H 3331   1.557   0.864   3.447 -0.5906  3.5606 -0.3643
  749MOL0     H 3332   1.660   1.064   3.534  0.0434  1.7207  1.4047
  749MOL0     H 3333   1.742   0.997   3.667  0.3451  3.0711 -0.6076
  749MOL0     H 3334   1.451   0.937   3.674  1.7064 -2.9877  1.9123
  749MOL0     H 3335   1.558   0.970   3.805  0.3823 -1.5251 -1.4453
  749MOL0     H 3336   1.409   1.131   3.620 -0.2498  2.5672 -0.3380
  749MOL0     H 3337   1.560   1.210   3.649 -1.0900  0.6714 -2.0630
  749MOL0     H 3338   1.340   1.151   3.863 -1.8209  3.5653  1.1283
  749MOL0     H 3339   1.375   1.309   3.802 -1.1868  0.4078  0.7969
  749MOL0     H 3340   1.574   1.141   3.941 -0.5706 -0.2367 -0.0221
  749MOL0     H 3341   1.476   1.259   4.033 -1.2117 -2.0187  0.6886
  749MOL0     H 3342   2.142   0.950   3.479  0.7067  1.2838  1.0518
  749MOL0     H 3343   2.380   0.938   3.557  0.4825 -0.3162  3.2722
  749MOL0     H 3344   2.691   0.687   3.784  0.2791 -1.2823 -0.4067
  749MOL0     H 3345   2.911   0.712   3.877  2.0560 -0.2020  0.6161
  749MOL0     H 3346   2.448   1.059   5.022 -0.7177 -0.8229 -0.3879
  749MOL0     H 3347   2.216   1.145   4.984  2.3234 -1.0730  1.0953
  749MOL0     H 3348   1.963   1.636   4.693 -3.1951  0.1120 -2.3426
  749MOL0     H 3349   1.747   1.694   4.708 -1.9712 -2.1132 -0.5177
  749MOL0     H 3350   1.580   1.792   4.836  2.1180 -2.7299  2.4831
  749MOL0     H 3351   1.497   1.689   4.715  1.3920  2.5306 -1.1219
  749MOL0     H 3352   1.306   1.677   4.883  1.8164 -2.1198  1.8198
  749MOL0     H 3353   1.340   1.844   4.816  2.2343 -0.9169 -2.3722
  749MOL0     H 3354   1.375   1.709   5.084 -0.1686 -0.6998  0.1264
  749MOL0     H 3355   1.464   1.868   5.064 -0.1426 -2.0371  0.4513
  749MOL0     H 3356   1.302   1.923   5.190  3.5172  0.4670 -1.0714
  749MOL0     H 3357   1.174   1.840   5.086  0.1788 -0.0459  1.5032
  749MOL0     H 3358   1.222   2.208   4.887  0.0964  0.8913  0.6191
  749MOL0     H 3359   1.671   1.400   5.008 -3.5267  2.0146 -0.8496
  749MOL0     H 3360   1.937   1.333   5.108 -1.4303 -0.8679  1.2445
  749MOL0     H 3361   1.810   1.230   5.039 -1.1019  2.3936  1.2076
  749MOL0     H 3362   1.979   1.213   4.986 -0.7707 -0.2382  0.9898
  750MOL0     O 3363  10.739   3.040   7.010 -0.3854  0.0629  0.0570
  750MOL0     C 3364  10.631   3.064   6.966  0.6113 -0.8405 -0.2243
  750MOL0     O 3365  10.609   3.149   6.856  0.2027  0.1992  1.1818
  750MOL0     C 3366  10.708   3.229   6.814 -0.3175  0.4266 -0.3565
  750MOL0     C 3367  10.753   3.220   6.691  0.6725 -0.1070 -0.8659
  750MOL0     C 3368  10.858   3.297   6.635  0.4738 -0.3931  0.1865
  750MOL0     C 3369  10.922   3.390   6.717 -0.2052  0.4299 -0.6306
  750MOL0     O 3370  11.004   3.482   6.654 -0.2392  0.3521 -0.0447
  750MOL0     C 3371  11.116   3.538   6.742  0.0080  0.2790  0.2380
  750MOL0     C 3372  11.223   3.596   6.648 -0.1990 -0.5612  0.6514
  750MOL0     C 3373  11.345   3.653   6.720  0.2874  0.2260  0.0045
  750MOL0     C 3374  11.458   3.556   6.713 -0.3925  0.1556 -0.3839
  750MOL0     C 3375  11.590   3.614   6.750 -0.3579 -0.4723 -0.8009
  750MOL0     C 3376  11.709   3.510   6.758  0.5870 -0.2407  0.2906
  750MOL0     C 3377  11.766   3.473   6.623  0.0818  0.4644  0.7496
  750MOL0     C 3378  11.872   3.361   6.651 -0.3326  0.1247 -0.7174
  750MOL0     N 3379  11.987   3.387   6.743  0.6076 -0.2774  0.2968
  750MOL0     C 3380  12.114   3.422   6.699  0.0407 -0.5670 -0.4909
  750MOL0     C 3381  12.191   3.427   6.819  0.4605  0.6496 -0.3546
  750MOL0     C 3382  12.339   3.456   6.835  0.2687  0.3146  0.1207
  750MOL0     C 3383  12.402   3.385   6.961  0.1298 -0.2108  0.7092
  750MOL0     C 3384  12.419   3.230   6.942 -0.0597  0.0230  0.4887
  750MOL0     C 3385  12.492   3.178   7.070  0.0853  0.2717 -1.1522
  750MOL0     O 3386  12.619   3.235   7.090  0.1253 -0.3190 -0.1962
  750MOL0     C 3387  12.643   3.292   7.208 -0.0522 -0.3316 -0.0730
  750MOL0     C 3388  12.697   3.419   7.200 -0.5813 -0.6757 -0.1275
  750MOL0     C 3389  12.747   3.484   7.313 -0.2545 -0.0135  0.3590
  750MOL0     C 3390  12.780   3.629   7.303  0.1372  0.8351 -0.0434
  750MOL0     C 3391  12.742   3.416   7.439 -0.3044  0.2608  0.6357
  750MOL0     C 3392  12.765   3.482   7.567 -0.2712  0.2927  0.3656
  750MOL0     O 3393  12.684   3.427   7.667  0.0485 -0.2052 -0.2952
  750MOL0     C 3394  12.717   3.464   7.796 -0.4408 -0.2764 -0.4734
  750MOL0     C 3395  12.768   3.368   7.886 -0.1323 -0.0723 -0.1312
  750MOL0     C 3396  12.808   3.405   8.016  0.7158 -0.1223  0.4398
  750MOL0     C 3397  12.784   3.539   8.059  0.7638 -0.4448 -0.3278
  750MOL0     O 3398  12.802   3.565   8.194 -0.0641 -0.3570  0.5539
  750MOL0     C 3399  12.812   3.698   8.235 -0.5428 -0.3137  0.0217
  750MOL0     C 3400  12.878   3.696   8.374  0.5683  0.3793  0.1740
  750MOL0     C 3401  12.941   3.820   8.421 -0.8486 -0.0911  0.2859
  750MOL0     C 3402  13.005   3.795   8.549  0.0269  0.2882  0.4112
  750MOL0     C 3403  13.052   3.935   8.591  0.6067 -0.2311  0.0063
  750MOL0     C 3404  13.085   3.931   8.739 -0.0998 -0.3846  0.1157
  750MOL0     C 3405  13.139   4.079   8.765 -0.4578  0.0196  0.1226
  750MOL0     C 3406  13.170   4.097   8.918 -0.0284 -0.1883  0.3013
  750MOL0    Cl 3407  13.317   4.008   8.953 -0.2141 -0.1772  0.0137
  750MOL0     C 3408  12.714   3.628   7.977 -0.2342 -0.4723  0.0659
  750MOL0     C 3409  12.689   3.596   7.840 -0.3757  0.0847 -0.0033
  750MOL0     O 3410  12.853   3.569   7.584 -0.4257  1.2372  0.1547
  750MOL0     C 3411  12.693   3.286   7.447  0.2269  0.5686  0.2437
  750MOL0     C 3412  12.642   3.223   7.329  0.2178 -0.9050  0.7421
  750MOL0     N 3413  12.103   3.401   6.927 -0.5933 -0.8032  0.0210
  750MOL0     N 3414  11.983   3.381   6.884 -0.2097 -0.1913 -0.0853
  750MOL0     C 3415  10.883   3.394   6.855  0.4833  0.6763  1.0378
  750MOL0     C 3416  10.771   3.316   6.900  0.9521  0.6335 -0.0800
  750MOL0     C 3417  10.514   2.994   7.021  0.1746  0.0349 -0.3243
  750MOL0     C 3418  10.386   3.028   6.960 -0.5388 -0.1969 -0.5780
  750MOL0     C 3419  10.272   2.989   7.010  0.1355 -0.0029 -1.0466
  750MOL0     C 3420  10.264   2.910   7.129 -0.1488  0.1800 -0.4468
  750MOL0     O 3421  10.142   2.884   7.188 -0.1678  0.0277  0.1234
  750MOL0     C 3422  10.117   2.752   7.211 -0.0244  0.3881 -0.1403
  750MOL0     C 3423   9.963   2.737   7.219  0.0392  0.1382 -0.8934
  750MOL0     C 3424   9.888   2.744   7.087  0.2423 -0.1890 -0.6119
  750MOL0     C 3425   9.735   2.745   7.117 -1.6855  0.3485  0.1407
  750MOL0     C 3426   9.694   2.608   7.151 -0.0179  0.4123  0.3207
  750MOL0     C 3427   9.655   2.494   7.159 -0.8831  0.0357 -0.7647
  750MOL0     C 3428  10.386   2.874   7.191 -0.3008  0.0819  0.5623
  750MOL0     C 3429  10.505   2.919   7.136 -0.1189  0.1626  0.3828
  750MOL0     C 3430  10.624   2.875   7.211  0.3453 -0.0069  0.0111
  750MOL0     H 3431  10.694   3.161   6.621  1.1788  0.8964 -2.1840
  750MOL0     H 3432  10.888   3.286   6.531 -1.8299  0.1150 -0.5815
  750MOL0     H 3433  11.156   3.457   6.803 -1.4427 -0.6025  0.0464
  750MOL0     H 3434  11.079   3.614   6.812 -0.8925 -1.3754  1.6363
  750MOL0     H 3435  11.259   3.525   6.574  1.3659 -1.3022  2.0526
  750MOL0     H 3436  11.168   3.676   6.597 -0.3181 -0.9293  0.1985
  750MOL0     H 3437  11.389   3.740   6.670  0.0391  0.3325 -0.0285
  750MOL0     H 3438  11.324   3.677   6.825  3.5184  1.9009  0.4198
  750MOL0     H 3439  11.425   3.479   6.783 -3.2928  1.4245 -0.2128
  750MOL0     H 3440  11.463   3.518   6.610 -2.1306  1.4367 -0.9969
  750MOL0     H 3441  11.578   3.663   6.847  0.0641 -0.5092 -0.7315
  750MOL0     H 3442  11.606   3.698   6.682 -1.7199 -1.3334 -2.2623
  750MOL0     H 3443  11.789   3.542   6.825 -0.0282 -2.8676  2.4446
  750MOL0     H 3444  11.669   3.416   6.795 -0.4739 -1.6062 -3.7309
  750MOL0     H 3445  11.823   3.558   6.584 -2.4525  1.6079 -0.6957
  750MOL0     H 3446  11.686   3.445   6.554  1.7200 -1.4109 -0.4980
  750MOL0     H 3447  11.817   3.272   6.685  0.0815  0.0363 -0.2713
  750MOL0     H 3448  11.921   3.333   6.557 -1.4782 -2.4687 -0.6129
  750MOL0     H 3449  12.150   3.435   6.597  0.2983 -1.3336 -0.5088
  750MOL0     H 3450  12.335   3.564   6.852  0.0374 -0.1766  4.0408
  750MOL0     H 3451  12.402   3.437   6.748  2.0914  2.0526  0.9792
  750MOL0     H 3452  12.506   3.418   6.971  0.7613 -2.2661  1.5943
  750MOL0     H 3453  12.343   3.408   7.051  0.2369  1.1023  0.4622
  750MOL0     H 3454  12.318   3.189   6.932 -1.3665  3.0480  0.3529
  750MOL0     H 3455  12.466   3.202   6.847  0.7591  1.5873  0.3992
  750MOL0     H 3456  12.426   3.197   7.155 -0.8163 -1.1954 -1.4679
  750MOL0     H 3457  12.505   3.069   7.068  0.9668  0.3777 -1.2182
  750MOL0     H 3458  12.696   3.470   7.104  0.7078 -1.0544 -0.3689
  750MOL0     H 3459  12.719   3.686   7.374 -0.9865  0.2340 -0.5021
  750MOL0     H 3460  12.746   3.657   7.203 -0.6755  0.2039  0.0549
  750MOL0     H 3461  12.888   3.649   7.310 -0.0358  2.3194 -1.1808
  750MOL0     H 3462  12.791   3.268   7.850 -2.2081 -0.9770  0.8973
  750MOL0     H 3463  12.878   3.352   8.080  3.8822  2.4398 -0.6114
  750MOL0     H 3464  12.874   3.765   8.175 -0.2938 -0.3229  0.2639
  750MOL0     H 3465  12.711   3.740   8.236 -1.0502 -1.4418 -1.6781
  750MOL0     H 3466  12.806   3.671   8.453  0.4319  0.2953  0.0259
  750MOL0     H 3467  12.955   3.619   8.370  0.9915  0.7914  0.3845
  750MOL0     H 3468  12.871   3.904   8.418 -0.1516  0.4904 -0.3995
  750MOL0     H 3469  13.017   3.854   8.350 -2.3595 -0.5242 -1.5994
  750MOL0     H 3470  13.084   3.720   8.550 -0.5308 -0.3090  0.5211
  750MOL0     H 3471  12.932   3.756   8.620 -1.7352  0.3136 -1.2983
  750MOL0     H 3472  13.142   3.953   8.531  1.2266 -2.0147  0.3323
  750MOL0     H 3473  12.971   4.006   8.573 -0.3546 -1.4469 -0.6157
  750MOL0     H 3474  13.161   3.855   8.756  0.2014 -0.1249 -0.0699
  750MOL0     H 3475  12.986   3.914   8.784 -1.4276  0.8970 -2.1267
  750MOL0     H 3476  13.061   4.149   8.734 -1.0830  0.5093  2.5802
  750MOL0     H 3477  13.226   4.097   8.701 -0.4507 -2.5088 -0.6745
  750MOL0     H 3478  13.095   4.063   8.991 -2.4353  4.0114  0.1036
  750MOL0     H 3479  13.191   4.200   8.947 -1.2381 -0.2351  1.4735
  750MOL0     H 3480  12.682   3.726   8.010  1.0418 -0.5688  1.6984
  750MOL0     H 3481  12.641   3.677   7.786 -1.4214 -0.3364  0.2686
  750MOL0     H 3482  12.677   3.227   7.537 -2.4813 -1.2280 -1.2457
  750MOL0     H 3483  12.609   3.120   7.321 -0.6540 -0.8433  2.8543
  750MOL0     H 3484  10.923   3.459   6.933  0.9787  0.5257  0.9138
  750MOL0     H 3485  10.739   3.335   7.002  0.8308  3.5958 -0.5886
  750MOL0     H 3486  10.395   3.093   6.873  1.3249 -0.7699 -0.8697
  750MOL0     H 3487  10.178   3.016   6.963  0.9195  1.1926 -1.9673
  750MOL0     H 3488  10.159   2.684   7.136 -0.5751  0.2391 -0.3195
  750MOL0     H 3489  10.146   2.732   7.314  0.5383 -0.3045 -0.4231
  750MOL0     H 3490   9.922   2.808   7.292 -2.4484 -0.3157 -1.7414
  750MOL0     H 3491   9.940   2.634   7.250 -4.4895  0.2030 -3.1729
  750MOL0     H 3492   9.921   2.833   7.034  2.8942 -0.7202 -0.0085
  750MOL0     H 3493   9.929   2.659   7.031  1.4077 -0.3148  0.3867
  750MOL0     H 3494   9.673   2.785   7.036 -1.6814 -1.8475 -1.0502
  750MOL0     H 3495   9.720   2.820   7.195 -0.3141  0.3508  0.4323
  750MOL0     H 3496   9.632   2.389   7.166  1.4436 -0.5722 -1.4471
  750MOL0     H 3497  10.387   2.809   7.277  2.6132 -0.5035  0.1964
  750MOL0     H 3498  10.668   2.805   7.139 -0.4416  0.7242 -1.2310
  750MOL0     H 3499  10.689   2.960   7.230  1.0971 -0.1064 -1.8992
  750MOL0     H 3500  10.613   2.820   7.305  1.0696  1.8813  1.2529
  751MOL0     O 3501   5.949  10.422   0.742  0.9262  0.4053 -0.7784
  751MOL0     C 3502   5.897  10.522   0.692 -0.0663  0.0052 -0.4306
  751MOL0     O 3503   5.952  10.646   0.703 -0.5453 -0.3508  0.0487
  751MOL0     C 3504   6.086  10.659   0.728 -0.3921  0.9513 -0.2988
  751MOL0     C 3505   6.191  10.572   0.674  0.2674  0.4381 -0.3250
  751MOL0     C 3506   6.325  10.589   0.710  0.8650  0.5314 -0.4115
  751MOL0     C 3507   6.364  10.681   0.806  0.6970  0.3553  0.8545
  751MOL0     O 3508   6.498  10.683   0.830  0.1661 -0.8098 -0.2453
  751MOL0     C 3509   6.550  10.766   0.939  0.4644  0.2007 -0.1856
  751MOL0     C 3510   6.700  10.732   0.958 -0.4542 -0.7402  1.1267
  751MOL0     C 3511   6.779  10.773   0.835 -0.1810  0.3691 -0.6052
  751MOL0     C 3512   6.876  10.663   0.787  0.7849 -0.1846 -0.1471
  751MOL0     C 3513   6.984  10.600   0.875 -0.1028 -0.0003 -0.8747
  751MOL0     C 3514   7.088  10.509   0.808  0.0242  0.4555  0.0261
  751MOL0     C 3515   7.174  10.586   0.711  0.0054  0.4607 -0.5962
  751MOL0     C 3516   7.251  10.707   0.761 -0.9849  0.8678 -0.5049
  751MOL0     N 3517   7.312  10.790   0.658 -0.6319 -0.3875 -1.4791
  751MOL0     C 3518   7.418  10.755   0.580  0.0304 -0.0366 -0.5704
  751MOL0     C 3519   7.435  10.858   0.496 -0.4254 -0.1087 -0.0506
  751MOL0     C 3520   7.541  10.873   0.383 -0.1171  0.0896  0.3873
  751MOL0     C 3521   7.680  10.875   0.437  0.4055  0.1129  0.5667
  751MOL0     C 3522   7.790  10.867   0.325 -0.2316  1.0330 -0.9090
  751MOL0     C 3523   7.932  10.832   0.365 -0.2586  0.4661 -0.8444
  751MOL0     O 3524   8.017  10.822   0.256  0.2801 -0.1024  0.2430
  751MOL0     C 3525   8.149  10.790   0.266 -0.1304 -0.5639 -0.4889
  751MOL0     C 3526   8.233  10.790   0.151 -1.1966 -0.9352  0.3119
  751MOL0     C 3527   8.371  10.761   0.144  0.4961  0.5100  1.2401
  751MOL0     C 3528   8.438  10.778   0.009 -0.4832 -0.5045 -0.6164
  751MOL0     C 3529   8.439  10.739   0.268  0.4780 -1.0615 -0.2184
  751MOL0     C 3530   8.585  10.727   0.286  0.0823 -0.6732  0.6832
  751MOL0     O 3531   8.630  10.711   0.413  0.1319  0.1378 -0.0246
  751MOL0     C 3532   8.759  10.731   0.458 -0.6135 -0.1452  0.0900
  751MOL0     C 3533   8.779  10.710   0.595 -1.0346  1.0425  0.9773
  751MOL0     C 3534   8.908  10.739   0.657  0.3063 -0.1785 -0.2032
  751MOL0     C 3535   9.018  10.774   0.570  0.7839 -0.4277 -0.4329
  751MOL0     O 3536   9.140  10.801   0.613  0.8818 -0.3349 -0.4001
  751MOL0     C 3537   9.169  10.772   0.745 -0.7150 -0.2862 -0.0099
  751MOL0     C 3538   9.331  10.787   0.774 -0.2088 -0.2958 -0.0784
  751MOL0     C 3539   9.373  10.932   0.733 -0.4360  0.4311  0.2583
  751MOL0     C 3540   9.522  10.947   0.695  0.4276 -0.1696 -0.5922
  751MOL0     C 3541   9.626  10.899   0.802 -0.2631 -0.1478  0.6491
  751MOL0     C 3542   9.773  10.910   0.745 -0.0433  0.7104  0.6851
  751MOL0     C 3543   9.818  10.790   0.652  0.0703 -0.3957  0.2657
  751MOL0     C 3544   9.973  10.761   0.673  0.5725  0.9715 -0.3664
  751MOL0    Cl 3545   9.986  10.648   0.804 -0.0586 -0.1197 -0.3048
  751MOL0     C 3546   8.997  10.794   0.435  0.2402  0.8673  0.9307
  751MOL0     C 3547   8.874  10.764   0.380  0.2529 -0.1677 -0.0047
  751MOL0     O 3548   8.659  10.735   0.180 -1.0256 -0.5675 -0.5157
  751MOL0     C 3549   8.347  10.735   0.385  0.1013 -1.0280 -0.4803
  751MOL0     C 3550   8.213  10.754   0.379 -0.2894  0.2765  0.1562
  751MOL0     N 3551   7.328  10.940   0.491 -0.0092  0.3085 -0.7856
  751MOL0     N 3552   7.258  10.897   0.597 -0.4036 -0.0618 -0.6292
  751MOL0     C 3553   6.265  10.766   0.861  0.4163 -0.0295  1.1430
  751MOL0     C 3554   6.131  10.758   0.818 -0.2546 -0.6411 -0.0385
  751MOL0     C 3555   5.771  10.523   0.629 -0.2272 -0.6180  0.8474
  751MOL0     C 3556   5.749  10.617   0.522 -0.2279  0.4457 -0.0234
  751MOL0     C 3557   5.630  10.625   0.444  0.2912 -1.0454 -0.1882
  751MOL0     C 3558   5.528  10.540   0.480  0.3024  0.3865  0.3749
  751MOL0     O 3559   5.403  10.538   0.420  0.3373  0.0045  0.8310
  751MOL0     C 3560   5.376  10.610   0.298 -0.7364  0.3332 -0.5165
  751MOL0     C 3561   5.329  10.756   0.337  0.4836 -0.1374  0.3538
  751MOL0     C 3562   5.211  10.758   0.442  0.1098  0.0153 -0.1674
  751MOL0     C 3563   5.150  10.894   0.463 -0.1301  0.2005  0.1352
  751MOL0     C 3564   5.022  10.863   0.534  0.8553 -1.0130  0.9019
  751MOL0     C 3565   4.911  10.848   0.586 -0.0205 -0.8134 -0.6133
  751MOL0     C 3566   5.542  10.460   0.593 -0.7206 -0.2628 -0.1184
  751MOL0     C 3567   5.658  10.454   0.672 -0.9300 -0.2549  0.3748
  751MOL0     C 3568   5.646  10.374   0.802  1.1389  0.3911 -0.0282
  751MOL0     H 3569   6.174  10.499   0.595  1.0104  0.5543 -0.6030
  751MOL0     H 3570   6.398  10.527   0.658  0.5166  1.3390 -1.9136
  751MOL0     H 3571   6.498  10.734   1.030  1.4415  2.1832  1.1537
  751MOL0     H 3572   6.530  10.873   0.926  0.4155  0.5417  2.2186
  751MOL0     H 3573   6.723  10.792   1.046 -0.1660 -0.7314  1.0476
  751MOL0     H 3574   6.716  10.631   0.996  2.3834  0.2131  2.7695
  751MOL0     H 3575   6.711  10.812   0.759 -1.0465  0.3569  0.1454
  751MOL0     H 3576   6.831  10.866   0.858  2.2164 -0.9449 -0.2713
  751MOL0     H 3577   6.802  10.589   0.755  1.2264 -0.8137  0.2543
  751MOL0     H 3578   6.926  10.698   0.696 -1.5618  3.2631 -0.3055
  751MOL0     H 3579   6.937  10.533   0.948  0.3846 -0.4917 -1.0116
  751MOL0     H 3580   7.040  10.669   0.939  0.6447 -0.5957 -0.8758
  751MOL0     H 3581   7.161  10.475   0.882  2.3784  1.6885 -1.5859
  751MOL0     H 3582   7.038  10.424   0.761 -2.1431  1.4571  0.3811
  751MOL0     H 3583   7.122  10.614   0.619  3.9958  2.1315 -2.6084
  751MOL0     H 3584   7.244  10.506   0.684 -2.7327 -1.6327 -1.9307
  751MOL0     H 3585   7.177  10.769   0.813 -0.7009  0.0899  0.8748
  751MOL0     H 3586   7.324  10.672   0.835 -2.3841  0.3508  0.6847
  751MOL0     H 3587   7.471  10.660   0.590 -2.2419 -1.1422  2.3455
  751MOL0     H 3588   7.537  10.977   0.350 -1.0543  0.7151  2.3051
  751MOL0     H 3589   7.533  10.810   0.294  2.2049  0.0710  0.1369
  751MOL0     H 3590   7.685  10.967   0.496  1.3191  0.2044  0.3515
  751MOL0     H 3591   7.698  10.790   0.504  0.6599  0.8270  1.4223
  751MOL0     H 3592   7.762  10.788   0.256  1.8411 -1.2060  0.6583
  751MOL0     H 3593   7.785  10.955   0.260 -0.7916 -1.6314 -4.8045
  751MOL0     H 3594   7.976  10.922   0.409 -0.7534  1.1779 -1.7877
  751MOL0     H 3595   7.926  10.741   0.426 -2.6985 -1.2324 -3.3604
  751MOL0     H 3596   8.189  10.822   0.058  1.6811  0.5103 -0.6696
  751MOL0     H 3597   8.371  10.809  -0.072 -1.5738 -1.5598 -0.1472
  751MOL0     H 3598   8.482  10.681  -0.018 -0.8282 -1.1792  1.1063
  751MOL0     H 3599   8.517  10.854   0.014  0.6415 -1.4770 -2.2951
  751MOL0     H 3600   8.707  10.681   0.671  0.4314 -2.1108  1.3369
  751MOL0     H 3601   8.910  10.715   0.762 -2.8933 -0.5781 -0.1189
  751MOL0     H 3602   9.120  10.854   0.799 -0.7114  0.0558 -0.5166
  751MOL0     H 3603   9.126  10.679   0.784 -4.3528  1.0444 -0.4320
  751MOL0     H 3604   9.343  10.766   0.880 -1.0464  0.4307  0.1724
  751MOL0     H 3605   9.384  10.711   0.715  0.5163  1.5341 -1.8903
  751MOL0     H 3606   9.359  10.995   0.822  2.7416  1.2696  0.2877
  751MOL0     H 3607   9.303  10.969   0.658 -1.8434  1.4910  2.0118
  751MOL0     H 3608   9.534  11.055   0.682  0.2847 -0.0355  0.2755
  751MOL0     H 3609   9.534  10.909   0.593 -2.4072 -0.4884 -0.8944
  751MOL0     H 3610   9.620  10.974   0.882  1.1399 -0.3480  0.9667
  751MOL0     H 3611   9.610  10.798   0.839  0.1661 -1.4256 -2.3406
  751MOL0     H 3612   9.839  10.909   0.832 -1.1725  0.3600  1.5634
  751MOL0     H 3613   9.782  11.001   0.685  1.1445 -1.0538 -1.9803
  751MOL0     H 3614   9.793  10.806   0.547  0.0081 -2.3153 -0.0456
  751MOL0     H 3615   9.765  10.698   0.674  0.0287 -1.2180 -2.8030
  751MOL0     H 3616  10.026  10.855   0.693  0.0587  0.7843  2.2815
  751MOL0     H 3617  10.012  10.709   0.585 -1.7489  0.2223 -1.0204
  751MOL0     H 3618   9.079  10.839   0.379  0.7894  0.6329  1.5380
  751MOL0     H 3619   8.871  10.795   0.276 -0.3218  1.8024  0.5546
  751MOL0     H 3620   8.388  10.728   0.486 -3.2756 -1.7158  0.9902
  751MOL0     H 3621   8.159  10.749   0.473  0.1366  1.2215  0.4587
  751MOL0     H 3622   6.295  10.846   0.928 -0.0703  0.6596  0.5486
  751MOL0     H 3623   6.060  10.810   0.882  1.0281 -0.7822  1.5819
  751MOL0     H 3624   5.836  10.671   0.486  0.2008 -0.3023 -0.1346
  751MOL0     H 3625   5.619  10.691   0.358  0.0424 -1.8872 -0.8183
  751MOL0     H 3626   5.453  10.602   0.221 -0.8626  1.8389 -0.8281
  751MOL0     H 3627   5.289  10.563   0.251 -1.6920  0.4873  1.0313
  751MOL0     H 3628   5.297  10.816   0.251 -0.5405 -1.3755 -0.1587
  751MOL0     H 3629   5.408  10.822   0.374  0.3496  1.1015 -1.4363
  751MOL0     H 3630   5.138  10.692   0.394  0.3979 -0.6485  0.3010
  751MOL0     H 3631   5.245  10.713   0.536  1.7361 -1.6923 -1.4837
  751MOL0     H 3632   5.126  10.949   0.372  1.8387  1.2427  0.1971
  751MOL0     H 3633   5.216  10.953   0.528 -0.2687 -0.2807  0.7290
  751MOL0     H 3634   4.814  10.821   0.623 -0.2899 -0.4535 -1.0423
  751MOL0     H 3635   5.446  10.416   0.619 -2.0140  2.1485 -0.5123
  751MOL0     H 3636   5.711  10.287   0.803 -1.0255 -1.3203  1.3649
  751MOL0     H 3637   5.666  10.430   0.894 -1.3667  1.6490 -0.1597
  751MOL0     H 3638   5.542  10.345   0.820  0.4444  2.8667  0.3352
  752MOL0     O 3639   4.054   0.023   7.529  0.7472  0.0057  0.4775
  752MOL0     C 3640   4.004   0.088   7.622  0.2205  0.2387  0.6559
  752MOL0     O 3641   4.060   0.123   7.741 -0.6344 -0.4326 -0.5729
  752MOL0     C 3642   4.167   0.043   7.789  0.0741  0.6218 -0.4836
  752MOL0     C 3643   4.191  -0.094   7.765  0.3895 -0.2763  0.2924
  752MOL0     C 3644   4.284  -0.172   7.830  0.0018  0.8062 -0.4190
  752MOL0     C 3645   4.375  -0.117   7.910 -0.1162 -0.1036  0.7518
  752MOL0     O 3646   4.462  -0.192   7.971  0.2999  0.4635 -0.0340
  752MOL0     C 3647   4.551  -0.150   8.082  0.3953 -0.5541  0.1841
  752MOL0     C 3648   4.682  -0.219   8.054 -0.1100 -0.5138 -0.7306
  752MOL0     C 3649   4.764  -0.153   7.947 -0.5967  0.0961  0.8175
  752MOL0     C 3650   4.900  -0.228   7.939 -0.0388 -0.0300  0.6472
  752MOL0     C 3651   4.999  -0.154   7.843  0.4914 -0.2992 -0.1256
  752MOL0     C 3652   5.055  -0.018   7.899 -0.0619  0.2813 -0.5872
  752MOL0     C 3653   5.103   0.088   7.788  0.2506  0.4717 -0.1496
  752MOL0     C 3654   5.212   0.048   7.695 -0.4721  0.4467  0.5455
  752MOL0     N 3655   5.330   0.064   7.773  0.5890  0.8076  0.5023
  752MOL0     C 3656   5.385  -0.041   7.847  0.4290  0.1991  0.7818
  752MOL0     C 3657   5.489   0.004   7.913 -0.3460  0.1420  0.2460
  752MOL0     C 3658   5.581  -0.089   7.989  0.2240  0.3432  0.0090
  752MOL0     C 3659   5.520  -0.203   8.067  0.3557 -0.5677  0.5941
  752MOL0     C 3660   5.610  -0.264   8.174  0.6221  0.0809 -0.6416
  752MOL0     C 3661   5.729  -0.341   8.123 -0.1277 -0.3690 -0.3780
  752MOL0     O 3662   5.850  -0.288   8.170 -0.0803  0.1217  0.1324
  752MOL0     C 3663   5.969  -0.360   8.155  0.5572 -0.4411  0.3891
  752MOL0     C 3664   6.077  -0.298   8.210 -0.2752 -0.3886 -0.5265
  752MOL0     C 3665   6.208  -0.352   8.213  0.3437 -0.5538  0.2108
  752MOL0     C 3666   6.309  -0.264   8.275 -0.5206  0.3157  0.1701
  752MOL0     C 3667   6.222  -0.483   8.161  0.4668 -0.1961  0.1343
  752MOL0     C 3668   6.346  -0.571   8.161 -0.7774  0.2699  0.5516
  752MOL0     O 3669   6.357  -0.671   8.063  0.4943  0.2549 -0.1755
  752MOL0     C 3670   6.462  -0.765   8.059 -0.4781 -0.5889  0.5917
  752MOL0     C 3671   6.502  -0.806   7.927 -0.1184 -0.4020  0.1397
  752MOL0     C 3672   6.614  -0.885   7.915 -0.5270 -0.1973  0.2514
  752MOL0     C 3673   6.686  -0.936   8.022  0.5398 -0.1207 -0.5762
  752MOL0     O 3674   6.791  -1.019   8.007  0.2881  0.1322 -0.0095
  752MOL0     C 3675   6.807  -1.070   7.874  0.3071  0.5350  0.5797
  752MOL0     C 3676   6.907  -1.186   7.881  0.4755  0.2386 -0.1544
  752MOL0     C 3677   6.887  -1.301   7.982  0.8188  0.3192 -0.4957
  752MOL0     C 3678   6.997  -1.407   7.967 -0.7500 -0.0341  0.8360
  752MOL0     C 3679   6.983  -1.505   8.080  0.5725  0.8339 -0.8529
  752MOL0     C 3680   7.081  -1.625   8.085  0.1380 -0.7707 -0.2322
  752MOL0     C 3681   7.224  -1.590   8.067 -0.1681  0.5440 -0.3633
  752MOL0     C 3682   7.302  -1.726   8.084  0.3666 -0.0293  0.3753
  752MOL0    Cl 3683   7.477  -1.703   8.079  0.2984 -0.2646  0.1426
  752MOL0     C 3684   6.639  -0.905   8.152 -0.4229 -0.4079 -0.8501
  752MOL0     C 3685   6.531  -0.822   8.168 -0.1846 -0.2893  0.0476
  752MOL0     O 3686   6.434  -0.537   8.240 -0.6768  0.2296 -0.6399
  752MOL0     C 3687   6.107  -0.545   8.109 -0.0064 -0.3333 -0.5166
  752MOL0     C 3688   5.983  -0.489   8.110 -0.7077  1.0393  0.6485
  752MOL0     N 3689   5.502   0.137   7.878  0.1203 -0.7486 -0.2518
  752MOL0     N 3690   5.419   0.166   7.777 -0.2132  0.3138  0.1764
  752MOL0     C 3691   4.360   0.018   7.935 -0.4342  0.5171 -0.3848
  752MOL0     C 3692   4.254   0.095   7.890 -0.1955 -0.8837  0.5750
  752MOL0     C 3693   3.864   0.139   7.591 -0.9239 -1.0110 -1.5002
  752MOL0     C 3694   3.820   0.253   7.666 -0.0315  0.8564 -0.3761
  752MOL0     C 3695   3.688   0.299   7.660 -0.3022 -0.2656 -0.0608
  752MOL0     C 3696   3.607   0.251   7.555  0.6069 -0.1451  0.1017
  752MOL0     O 3697   3.485   0.317   7.559  0.2453 -0.3401 -0.3808
  752MOL0     C 3698   3.373   0.256   7.488  0.0024 -0.7457 -0.5451
  752MOL0     C 3699   3.236   0.333   7.509  0.1549 -0.2921 -0.1417
  752MOL0     C 3700   3.121   0.273   7.419 -0.6915 -0.2902  0.2604
  752MOL0     C 3701   2.992   0.359   7.418  0.3572  0.2932  0.3934
  752MOL0     C 3702   2.904   0.307   7.311  0.6554  0.0524 -0.1274
  752MOL0     C 3703   2.833   0.265   7.214 -0.1831  0.7436  0.0610
  752MOL0     C 3704   3.653   0.161   7.468 -0.4840 -0.3832  0.2561
  752MOL0     C 3705   3.782   0.110   7.484  1.1235 -0.0923 -0.2987
  752MOL0     C 3706   3.826   0.016   7.377  0.9324 -0.0586  0.2751
  752MOL0     H 3707   4.126  -0.146   7.696  2.3801 -1.4185 -0.8072
  752MOL0     H 3708   4.287  -0.274   7.793  1.8777  0.5094  0.4358
  752MOL0     H 3709   4.508  -0.197   8.171 -2.2379  0.1144 -0.6480
  752MOL0     H 3710   4.551  -0.044   8.110 -1.2970 -0.9087  1.6502
  752MOL0     H 3711   4.738  -0.222   8.148 -1.7140 -0.3153  0.2775
  752MOL0     H 3712   4.655  -0.323   8.036 -1.1036 -0.5851  0.9215
  752MOL0     H 3713   4.709  -0.154   7.853 -0.4567  1.7106  0.7001
  752MOL0     H 3714   4.783  -0.052   7.983  1.2790  0.2970 -0.5971
  752MOL0     H 3715   4.929  -0.247   8.044 -3.6589  2.0224  2.1702
  752MOL0     H 3716   4.887  -0.323   7.887  1.7895 -0.2791  0.5801
  752MOL0     H 3717   4.944  -0.145   7.749  1.2180 -5.0091 -1.2476
  752MOL0     H 3718   5.090  -0.211   7.822  2.5564  2.2709  1.1453
  752MOL0     H 3719   4.982   0.033   7.963  2.3017 -0.7558  3.3147
  752MOL0     H 3720   5.139  -0.033   7.968 -1.1123  1.1120  0.9383
  752MOL0     H 3721   5.131   0.181   7.837  0.1619  0.7078 -0.5392
  752MOL0     H 3722   5.016   0.108   7.724  0.9657 -0.2827 -1.3998
  752MOL0     H 3723   5.207  -0.056   7.662  0.2461  0.5177  0.1994
  752MOL0     H 3724   5.206   0.110   7.604  1.8246 -0.7158 -0.4600
  752MOL0     H 3725   5.344  -0.142   7.852 -1.2894  0.7450 -0.9525
  752MOL0     H 3726   5.639  -0.024   8.055  1.8026 -0.5615 -0.4301
  752MOL0     H 3727   5.656  -0.133   7.922 -0.5295  0.1092 -0.6999
  752MOL0     H 3728   5.430  -0.157   8.110 -1.0225 -3.2245  0.7752
  752MOL0     H 3729   5.476  -0.280   8.004  0.6207  1.8790 -2.8598
  752MOL0     H 3730   5.637  -0.189   8.248 -2.0298  1.2476 -0.7365
  752MOL0     H 3731   5.550  -0.342   8.223  0.9759 -1.0710 -1.9742
  752MOL0     H 3732   5.723  -0.438   8.173  0.8473 -0.1965  0.1109
  752MOL0     H 3733   5.734  -0.349   8.014  2.5953  2.3568 -0.5987
  752MOL0     H 3734   6.063  -0.193   8.235 -0.0045  0.3375 -3.0899
  752MOL0     H 3735   6.386  -0.248   8.198 -1.1936 -2.2309 -1.1170
  752MOL0     H 3736   6.364  -0.308   8.359  0.3133 -1.9534 -1.4615
  752MOL0     H 3737   6.259  -0.170   8.303 -1.0256  0.4038 -0.9783
  752MOL0     H 3738   6.444  -0.768   7.844 -2.0011 -0.7915  1.2031
  752MOL0     H 3739   6.644  -0.906   7.812  1.5214 -1.1332  0.9785
  752MOL0     H 3740   6.717  -1.117   7.834  0.4119 -0.1197  1.0893
  752MOL0     H 3741   6.847  -0.991   7.810  1.3709 -0.7712 -0.4329
  752MOL0     H 3742   6.916  -1.226   7.780 -2.1043 -4.0573  1.0518
  752MOL0     H 3743   6.998  -1.143   7.924 -0.4224  0.6947  1.3827
  752MOL0     H 3744   6.790  -1.345   7.959  1.4731 -0.4722 -1.9285
  752MOL0     H 3745   6.889  -1.271   8.087 -0.3692 -2.9867  0.6170
  752MOL0     H 3746   7.100  -1.371   7.975 -0.1711 -1.4039 -0.0311
  752MOL0     H 3747   6.985  -1.461   7.872  1.1084 -1.3546  1.3014
  752MOL0     H 3748   6.995  -1.443   8.170  0.3323  0.3467 -0.4807
  752MOL0     H 3749   6.881  -1.545   8.092  0.4494  1.5548  0.8309
  752MOL0     H 3750   7.051  -1.692   8.005 -1.5479  1.6170 -1.7133
  752MOL0     H 3751   7.075  -1.664   8.188  0.8193  0.2635  0.2208
  752MOL0     H 3752   7.257  -1.533   8.155 -0.2792 -0.0402  0.0635
  752MOL0     H 3753   7.247  -1.551   7.968 -3.0155  0.3960 -1.1636
  752MOL0     H 3754   7.274  -1.797   8.006 -1.7796  1.9058 -0.7324
  752MOL0     H 3755   7.281  -1.769   8.182  0.9798 -0.9301  0.1203
  752MOL0     H 3756   6.692  -0.934   8.243  0.8961  2.8662 -0.4508
  752MOL0     H 3757   6.505  -0.785   8.266  0.9433 -0.0217  0.2524
  752MOL0     H 3758   6.122  -0.644   8.068  0.5831  0.0693 -1.2911
  752MOL0     H 3759   5.899  -0.545   8.069  1.6978  0.1599 -3.7018
  752MOL0     H 3760   4.426   0.071   8.003 -0.4906 -0.6342  0.6001
  752MOL0     H 3761   4.250   0.202   7.909  2.1490 -0.6999  0.3320
  752MOL0     H 3762   3.894   0.298   7.730  1.8193 -1.8338 -0.4730
  752MOL0     H 3763   3.646   0.375   7.725  0.1206 -1.1025  1.2392
  752MOL0     H 3764   3.389   0.253   7.380 -2.9983  1.8396 -1.2005
  752MOL0     H 3765   3.365   0.151   7.517  1.3359 -0.8734 -0.5734
  752MOL0     H 3766   3.241   0.440   7.489 -1.8162 -0.3826 -1.4292
  752MOL0     H 3767   3.196   0.323   7.611  1.2402  0.7877  0.4034
  752MOL0     H 3768   3.167   0.277   7.320  0.5209  0.0108  0.8087
  752MOL0     H 3769   3.093   0.170   7.441 -1.9761 -0.4273 -1.7819
  752MOL0     H 3770   3.010   0.465   7.399 -1.4228  0.6488  0.5494
  752MOL0     H 3771   2.936   0.346   7.511 -0.1223  0.5277  0.1365
  752MOL0     H 3772   2.776   0.226   7.132  0.4865 -1.4367  0.5810
  752MOL0     H 3773   3.601   0.126   7.380  0.4752 -0.7145 -0.1934
  752MOL0     H 3774   3.921   0.055   7.338  1.0562  0.2516  0.8632
  752MOL0     H 3775   3.836  -0.083   7.423 -1.3521 -0.6187 -0.3467
  752MOL0     H 3776   3.756   0.010   7.294  2.8998  0.1976 -1.4685
  753MOL0     O 3777   6.130  10.525   5.307 -0.7853  0.2085  0.4581
  753MOL0     C 3778   6.121  10.411   5.259 -0.6917  0.5420 -0.0393
  753MOL0     O 3779   6.225  10.324   5.240 -0.7047 -0.3848  0.2156
  753MOL0     C 3780   6.345  10.351   5.305  0.8851 -0.6167 -0.1436
  753MOL0     C 3781   6.467  10.350   5.232  0.7692 -0.3925  0.1438
  753MOL0     C 3782   6.579  10.383   5.301  0.2049 -0.4438 -0.6713
  753MOL0     C 3783   6.574  10.421   5.436 -0.1072 -0.6501 -0.2702
  753MOL0     O 3784   6.698  10.462   5.485 -0.0236  0.8823 -0.1595
  753MOL0     C 3785   6.744  10.402   5.608  1.2139  0.0845 -0.0044
  753MOL0     C 3786   6.904  10.402   5.606  0.7725 -0.7861 -0.1231
  753MOL0     C 3787   6.952  10.306   5.501 -0.0803  0.5359 -0.1420
  753MOL0     C 3788   7.107  10.294   5.489  0.4573  0.2000 -0.6597
  753MOL0     C 3789   7.191  10.428   5.506  1.2422  0.9825 -0.0129
  753MOL0     C 3790   7.165  10.535   5.399 -0.2708 -0.2106  0.1440
  753MOL0     C 3791   7.171  10.488   5.251  0.1051 -0.1219  0.3838
  753MOL0     C 3792   7.288  10.397   5.217 -0.3433  0.2372  0.0259
  753MOL0     N 3793   7.416  10.456   5.251  0.5163  0.2011  0.4343
  753MOL0     C 3794   7.476  10.568   5.192 -0.3343  1.0618  0.2084
  753MOL0     C 3795   7.608  10.563   5.235  0.8764  0.3590  0.7689
  753MOL0     C 3796   7.711  10.674   5.227  0.6977  0.8087 -0.5096
  753MOL0     C 3797   7.655  10.800   5.281  0.1135  0.0261 -0.9310
  753MOL0     C 3798   7.615  10.793   5.433  0.0280 -0.3074 -0.3056
  753MOL0     C 3799   7.545  10.913   5.486 -0.3229 -0.6155  0.9714
  753MOL0     O 3800   7.634  11.030   5.491  0.4849  0.0593 -0.2843
  753MOL0     C 3801   7.594  11.124   5.580 -0.0187 -0.4560 -1.0756
  753MOL0     C 3802   7.675  11.233   5.607  1.2253 -0.4790 -0.1779
  753MOL0     C 3803   7.641  11.348   5.683  0.3385 -1.2491 -0.2247
  753MOL0     C 3804   7.737  11.463   5.671  0.1836 -0.1826  0.2034
  753MOL0     C 3805   7.516  11.347   5.751  0.4778 -0.9371  0.3363
  753MOL0     C 3806   7.465  11.456   5.834 -0.3022 -0.0456 -0.2206
  753MOL0     O 3807   7.326  11.472   5.846  1.1963  0.3268 -0.5578
  753MOL0     C 3808   7.271  11.542   5.957  0.7690  0.2078 -0.1391
  753MOL0     C 3809   7.156  11.623   5.936  0.4987  0.2850 -0.4164
  753MOL0     C 3810   7.078  11.687   6.033  0.0079 -0.0289 -0.7098
  753MOL0     C 3811   7.123  11.673   6.162  0.1603 -0.0060 -0.3881
  753MOL0     O 3812   7.075  11.722   6.280  0.2201 -0.1428  0.3857
  753MOL0     C 3813   7.077  11.867   6.293  0.6735  1.0473  0.0865
  753MOL0     C 3814   7.136  11.904   6.428 -0.4680 -0.1101  0.3549
  753MOL0     C 3815   7.129  12.058   6.438  0.1387  0.8050 -0.5529
  753MOL0     C 3816   7.008  12.098   6.524  0.2916  0.1239  0.2798
  753MOL0     C 3817   6.862  12.082   6.465 -0.1083  0.2130 -0.1122
  753MOL0     C 3818   6.755  12.129   6.564 -0.3161 -0.5710 -0.4325
  753MOL0     C 3819   6.620  12.152   6.490 -0.8060 -0.9691  0.3352
  753MOL0     C 3820   6.508  12.199   6.578 -0.2495 -0.5520  0.1777
  753MOL0    Cl 3821   6.446  12.081   6.703 -0.4892  0.0983  0.1745
  753MOL0     C 3822   7.243  11.607   6.188 -0.6009 -0.3468  0.7213
  753MOL0     C 3823   7.311  11.530   6.089 -0.4263 -0.0151  0.0086
  753MOL0     O 3824   7.548  11.528   5.890  0.6023  0.6774 -0.4893
  753MOL0     C 3825   7.431  11.230   5.730  0.0523 -0.1569  0.0311
  753MOL0     C 3826   7.472  11.122   5.661 -0.3953  0.3712  0.4761
  753MOL0     N 3827   7.618  10.444   5.304  0.1373  0.0689 -0.1456
  753MOL0     N 3828   7.508  10.389   5.325 -0.2954 -0.4981 -0.7682
  753MOL0     C 3829   6.465  10.407   5.512  0.0765  0.6296 -0.3130
  753MOL0     C 3830   6.344  10.374   5.448 -0.7152  0.6683  0.9300
  753MOL0     C 3831   5.994  10.357   5.212 -0.0012 -0.2544  0.2675
  753MOL0     C 3832   5.998  10.245   5.118  0.5448  0.3370  0.1601
  753MOL0     C 3833   5.883  10.216   5.047  0.4154 -0.6094  1.1535
  753MOL0     C 3834   5.765  10.280   5.069 -0.8075  0.0862 -0.5365
  753MOL0     O 3835   5.646  10.250   5.007  0.5911 -0.4285  0.3527
  753MOL0     C 3836   5.568  10.164   5.095 -0.4803 -0.5439  0.6125
  753MOL0     C 3837   5.428  10.160   5.055  0.4062  0.1834  0.2844
  753MOL0     C 3838   5.413  10.143   4.894 -0.8479 -0.3057 -0.5691
  753MOL0     C 3839   5.495  10.026   4.848 -0.7885 -0.5296  1.0428
  753MOL0     C 3840   5.477  10.004   4.705  0.9362 -0.2223  0.4545
  753MOL0     C 3841   5.440   9.980   4.590 -0.9955 -0.0129  0.3402
  753MOL0     C 3842   5.759  10.376   5.175  0.9922  0.7356  0.6574
  753MOL0     C 3843   5.866  10.421   5.234 -0.4396 -1.1261  0.1004
  753MOL0     C 3844   5.843  10.532   5.345 -0.3830  0.0390  0.4111
  753MOL0     H 3845   6.460  10.340   5.125 -0.2400 -1.0464  0.2523
  753MOL0     H 3846   6.676  10.389   5.254 -0.3348  0.5861 -1.7211
  753MOL0     H 3847   6.713  10.298   5.608  1.1226  0.1110 -0.1024
  753MOL0     H 3848   6.693  10.448   5.693  0.3018 -1.3775  0.2587
  753MOL0     H 3849   6.943  10.502   5.584  0.4220 -0.6664 -0.2087
  753MOL0     H 3850   6.953  10.372   5.699  2.7181  2.9648  0.2325
  753MOL0     H 3851   6.919  10.204   5.525  0.1050  0.9769  2.2133
  753MOL0     H 3852   6.906  10.337   5.407 -2.7077 -1.8822  0.2017
  753MOL0     H 3853   7.131  10.240   5.582 -1.2954  0.5210  0.0234
  753MOL0     H 3854   7.140  10.228   5.408  0.7484  0.3015 -0.6261
  753MOL0     H 3855   7.291  10.384   5.493  0.4474 -0.7579 -0.4780
  753MOL0     H 3856   7.173  10.457   5.610 -0.9082 -1.1439  0.2881
  753MOL0     H 3857   7.067  10.583   5.412  0.0513  0.4104  0.2971
  753MOL0     H 3858   7.245  10.608   5.412  0.2220 -0.9530  1.3808
  753MOL0     H 3859   7.172  10.572   5.181  1.4870 -0.5664 -0.1626
  753MOL0     H 3860   7.083  10.433   5.215 -1.2314  1.1496  1.5953
  753MOL0     H 3861   7.287  10.299   5.264  2.0653 -1.8213 -3.6980
  753MOL0     H 3862   7.285  10.374   5.110  1.9441 -0.3876  0.0429
  753MOL0     H 3863   7.446  10.642   5.119  2.3788 -0.2119 -2.4289
  753MOL0     H 3864   7.748  10.682   5.124  2.4855 -0.5470 -0.0313
  753MOL0     H 3865   7.803  10.656   5.283  2.1161 -1.9038 -3.3573
  753MOL0     H 3866   7.729  10.880   5.268 -0.1232  0.1405 -1.5660
  753MOL0     H 3867   7.573  10.840   5.221 -0.0057  1.1300 -0.0748
  753MOL0     H 3868   7.553  10.703   5.445 -0.6882  0.1745 -0.3100
  753MOL0     H 3869   7.703  10.785   5.497 -0.9025  2.0635  1.4276
  753MOL0     H 3870   7.469  10.928   5.409  1.1661 -3.1647 -1.1631
  753MOL0     H 3871   7.509  10.875   5.582  1.7145 -2.4034  1.0965
  753MOL0     H 3872   7.773  11.237   5.560  0.3323  1.3478 -2.0303
  753MOL0     H 3873   7.717  11.511   5.574 -2.7649  0.3475  0.9647
  753MOL0     H 3874   7.836  11.416   5.671 -0.2286 -1.1710 -1.7946
  753MOL0     H 3875   7.750  11.540   5.748  4.7071  0.8970 -1.3136
  753MOL0     H 3876   7.128  11.619   5.831 -0.1171  0.5389 -0.2604
  753MOL0     H 3877   6.982  11.730   6.008 -1.0523 -1.1365  1.2883
  753MOL0     H 3878   7.126  11.924   6.213  4.2983  0.0218  1.3560
  753MOL0     H 3879   6.972  11.894   6.279 -0.0716 -0.8757  1.5663
  753MOL0     H 3880   7.086  11.856   6.513 -1.2393  0.4699  0.2366
  753MOL0     H 3881   7.240  11.872   6.423 -0.4631  0.1375 -2.7564
  753MOL0     H 3882   7.118  12.108   6.341  1.8915  3.0052  0.2961
  753MOL0     H 3883   7.218  12.100   6.485  0.5660 -2.6004  2.1284
  753MOL0     H 3884   7.022  12.203   6.552 -4.3220  0.6016  1.6140
  753MOL0     H 3885   7.009  12.043   6.618 -1.6129 -0.8562 -0.2206
  753MOL0     H 3886   6.844  12.149   6.380 -0.7289  0.0304 -0.1224
  753MOL0     H 3887   6.844  11.978   6.437 -3.5419 -0.1265  2.7115
  753MOL0     H 3888   6.785  12.221   6.614 -0.8857 -1.0569  0.8439
  753MOL0     H 3889   6.752  12.061   6.649 -0.9562  0.0528  0.0542
  753MOL0     H 3890   6.587  12.056   6.449 -1.0141 -0.2196 -1.3538
  753MOL0     H 3891   6.629  12.217   6.402  0.3264 -0.7190  0.6288
  753MOL0     H 3892   6.430  12.216   6.504 -0.5668  0.9335  0.8212
  753MOL0     H 3893   6.534  12.292   6.629 -2.8229  0.4529 -0.2123
  753MOL0     H 3894   7.293  11.630   6.282  2.2300  1.8012 -1.1493
  753MOL0     H 3895   7.405  11.479   6.111  1.1896  0.9915 -3.6463
  753MOL0     H 3896   7.345  11.221   5.794 -0.2979  0.8027 -0.2779
  753MOL0     H 3897   7.419  11.029   5.679  2.1980 -0.7022  3.5878
  753MOL0     H 3898   6.469  10.450   5.612 -1.3695 -0.5268  0.2719
  753MOL0     H 3899   6.251  10.376   5.504  0.3020 -0.8705  2.8147
  753MOL0     H 3900   6.097  10.211   5.091  1.8275  0.9685  3.6259
  753MOL0     H 3901   5.886  10.130   4.981 -2.6593  0.4358 -0.5402
  753MOL0     H 3902   5.612  10.063   5.096 -1.3210 -0.9770 -1.2272
  753MOL0     H 3903   5.575  10.207   5.195  2.6941  1.3769 -0.2913
  753MOL0     H 3904   5.381  10.255   5.081  0.8833  0.8738 -1.2892
  753MOL0     H 3905   5.377  10.080   5.109 -1.4273  0.9101 -0.3228
  753MOL0     H 3906   5.307  10.131   4.873 -1.7853  3.7667  0.9047
  753MOL0     H 3907   5.448  10.231   4.841  1.2948  0.4862  1.9167
  753MOL0     H 3908   5.484   9.928   4.895  3.1038 -2.1991 -1.1119
  753MOL0     H 3909   5.600  10.048   4.868 -0.9522  3.7158 -1.5859
  753MOL0     H 3910   5.409   9.959   4.490 -3.5603  1.4693  0.7435
  753MOL0     H 3911   5.663  10.420   5.199 -0.7280 -2.7369  0.8908
  753MOL0     H 3912   5.869  10.630   5.305  1.4713 -0.2993  0.7013
  753MOL0     H 3913   5.740  10.524   5.382 -0.5271  1.3447  0.3362
  753MOL0     H 3914   5.911  10.513   5.429  1.5172 -2.8074 -1.5922
  754MOL0     O 3915   8.367   7.097   8.832  0.5704  0.2659 -0.3105
  754MOL0     C 3916   8.345   7.182   8.750  0.3825  0.0775 -0.4388
  754MOL0     O 3917   8.444   7.230   8.665  0.0244  0.4812  0.3264
  754MOL0     C 3918   8.578   7.210   8.694  0.0507  0.4589  0.3209
  754MOL0     C 3919   8.656   7.117   8.622  0.0097  0.1751 -1.0028
  754MOL0     C 3920   8.791   7.098   8.648 -0.1642 -0.6451 -0.8800
  754MOL0     C 3921   8.861   7.177   8.743 -0.4748 -0.5952  0.7984
  754MOL0     O 3922   8.995   7.155   8.755 -0.4033 -0.1580 -0.2854
  754MOL0     C 3923   9.031   7.015   8.777 -0.4355  0.5896 -0.1781
  754MOL0     C 3924   9.110   6.973   8.648  0.4901 -0.4391  0.3484
  754MOL0     C 3925   9.119   6.813   8.631  0.9459 -0.1641  0.6396
  754MOL0     C 3926   9.260   6.760   8.673  0.4263 -0.0362  0.0978
  754MOL0     C 3927   9.268   6.607   8.646  0.6401  0.1885 -0.8222
  754MOL0     C 3928   9.393   6.536   8.704  0.3630 -0.0334  0.9081
  754MOL0     C 3929   9.373   6.382   8.689  0.7127  0.2180 -0.2691
  754MOL0     C 3930   9.486   6.318   8.769 -0.5815  0.3175  0.4475
  754MOL0     N 3931   9.614   6.357   8.715 -0.4029  0.3273  1.0298
  754MOL0     C 3932   9.676   6.322   8.592 -0.1303 -0.6961 -0.0196
  754MOL0     C 3933   9.773   6.411   8.572 -0.5256 -0.7832 -0.4296
  754MOL0     C 3934   9.848   6.418   8.442  0.1756 -0.5137 -0.4207
  754MOL0     C 3935   9.997   6.436   8.461  0.5366  0.3061 -0.3276
  754MOL0     C 3936  10.079   6.442   8.330 -0.1296 -1.2360 -0.6470
  754MOL0     C 3937  10.234   6.450   8.370  0.0676 -0.2157 -0.0872
  754MOL0     O 3938  10.275   6.577   8.431 -0.1784  0.7004  0.1499
  754MOL0     C 3939  10.406   6.593   8.468  0.1186 -0.5848 -0.7768
  754MOL0     C 3940  10.508   6.498   8.464 -0.1465 -0.8284 -0.3188
  754MOL0     C 3941  10.640   6.532   8.484  0.4152  0.3130 -0.1312
  754MOL0     C 3942  10.743   6.415   8.465  0.7033  0.7808  0.3516
  754MOL0     C 3943  10.681   6.661   8.522  0.9851  0.6753 -0.0672
  754MOL0     C 3944  10.816   6.711   8.557  0.0202  0.5276 -1.4072
  754MOL0     O 3945  10.902   6.628   8.623 -0.0932  0.8467 -0.6634
  754MOL0     C 3946  11.023   6.660   8.657 -0.1562 -0.7111 -0.0546
  754MOL0     C 3947  11.134   6.622   8.584 -0.7096 -0.0156 -0.0683
  754MOL0     C 3948  11.264   6.668   8.622  0.8222  0.0329 -0.2885
  754MOL0     C 3949  11.278   6.752   8.732  0.2834 -0.5739 -0.4272
  754MOL0     O 3950  11.391   6.814   8.771  0.1258 -0.2217  0.1293
  754MOL0     C 3951  11.510   6.786   8.706 -0.4414  0.0226  0.6131
  754MOL0     C 3952  11.534   6.875   8.580 -0.4095 -0.9675  0.7911
  754MOL0     C 3953  11.518   6.799   8.440 -0.1708  0.0971  0.2768
  754MOL0     C 3954  11.600   6.670   8.427 -0.6826 -0.5169 -0.3687
  754MOL0     C 3955  11.625   6.623   8.278 -0.0440  0.0863  0.1188
  754MOL0     C 3956  11.741   6.525   8.262  0.1580  0.2636 -0.4802
  754MOL0     C 3957  11.773   6.483   8.122  1.1229 -0.1672 -0.7086
  754MOL0     C 3958  11.842   6.344   8.120  0.2290 -0.1377 -0.0146
  754MOL0    Cl 3959  12.022   6.364   8.147 -0.0440  0.2826 -0.1492
  754MOL0     C 3960  11.162   6.795   8.795  0.1411 -0.3926  0.4702
  754MOL0     C 3961  11.034   6.747   8.766 -0.4544 -0.6989  1.5594
  754MOL0     O 3962  10.843   6.828   8.518 -0.4280  0.6313 -0.0116
  754MOL0     C 3963  10.582   6.758   8.531 -1.1247  0.0086 -0.1454
  754MOL0     C 3964  10.450   6.728   8.494 -0.4101  0.3939 -0.2210
  754MOL0     N 3965   9.787   6.483   8.692 -0.1020  0.1003 -0.3803
  754MOL0     N 3966   9.696   6.442   8.773 -0.3217 -0.2466 -0.2961
  754MOL0     C 3967   8.780   7.255   8.828 -0.0950  0.5163 -0.3114
  754MOL0     C 3968   8.641   7.269   8.807  0.0365 -0.1026  0.3656
  754MOL0     C 3969   8.205   7.223   8.734  0.1230 -0.1805 -0.5961
  754MOL0     C 3970   8.189   7.336   8.652  0.5954 -0.0765 -0.8539
  754MOL0     C 3971   8.064   7.396   8.634 -1.0252 -0.6063  0.2921
  754MOL0     C 3972   7.953   7.348   8.699 -0.3524 -0.0759  0.6554
  754MOL0     O 3973   7.832   7.402   8.670  0.3650 -0.1143 -0.2030
  754MOL0     C 3974   7.710   7.329   8.676 -0.4743  0.1110 -0.1344
  754MOL0     C 3975   7.639   7.366   8.549 -0.9681  0.0005 -0.3515
  754MOL0     C 3976   7.721   7.334   8.421 -0.0446  0.2175  0.6302
  754MOL0     C 3977   7.635   7.365   8.298  0.5521 -0.4984  0.0434
  754MOL0     C 3978   7.631   7.501   8.261 -0.0512 -0.4115 -1.1858
  754MOL0     C 3979   7.619   7.619   8.239  0.8608 -0.2203 -1.3261
  754MOL0     C 3980   7.969   7.238   8.778  0.3078  0.0980 -0.7043
  754MOL0     C 3981   8.088   7.180   8.807 -0.1494 -0.1273 -0.2351
  754MOL0     C 3982   8.085   7.069   8.908 -0.5201 -0.1409  0.4940
  754MOL0     H 3983   8.618   7.061   8.537 -1.5493  1.4553 -1.1895
  754MOL0     H 3984   8.841   7.020   8.591 -0.8248 -2.4177  0.8611
  754MOL0     H 3985   8.945   6.950   8.797  1.7075 -1.9469  1.5727
  754MOL0     H 3986   9.101   6.999   8.860  0.6660 -3.0342 -1.6088
  754MOL0     H 3987   9.060   7.011   8.559  2.4744  1.2602 -0.1205
  754MOL0     H 3988   9.216   7.001   8.646  1.0533 -2.4536 -0.4184
  754MOL0     H 3989   9.038   6.761   8.683 -0.0149  1.3401  0.7016
  754MOL0     H 3990   9.108   6.783   8.527 -0.0053  0.4912  0.5365
  754MOL0     H 3991   9.336   6.818   8.620  0.6295 -0.3831  0.0077
  754MOL0     H 3992   9.259   6.790   8.779 -2.4291  2.9720 -0.5950
  754MOL0     H 3993   9.258   6.582   8.540 -1.8046 -2.1093 -0.1649
  754MOL0     H 3994   9.183   6.558   8.694  0.3719 -1.1670 -2.5815
  754MOL0     H 3995   9.473   6.562   8.635 -1.6992  2.3479 -0.7675
  754MOL0     H 3996   9.416   6.563   8.808 -1.3952 -2.7319  2.1125
  754MOL0     H 3997   9.372   6.357   8.583  0.6314 -3.5675  0.4957
  754MOL0     H 3998   9.283   6.331   8.727  1.6600  0.3649  2.4274
  754MOL0     H 3999   9.479   6.359   8.870  3.1296  0.8644  0.6055
  754MOL0     H 4000   9.494   6.209   8.770  2.7567  0.4806  1.2825
  754MOL0     H 4001   9.645   6.263   8.506 -0.7024  0.6766 -0.7908
  754MOL0     H 4002   9.818   6.511   8.392  1.9561  0.4006  0.1274
  754MOL0     H 4003   9.833   6.326   8.385 -2.0832 -0.2379 -0.3671
  754MOL0     H 4004  10.011   6.520   8.530 -0.7377  0.2987 -0.0393
  754MOL0     H 4005  10.025   6.353   8.526 -2.7005 -1.0210 -0.4208
  754MOL0     H 4006  10.053   6.349   8.278  0.8146 -1.4361 -0.7716
  754MOL0     H 4007  10.041   6.527   8.272 -1.9378 -0.2649  1.8035
  754MOL0     H 4008  10.260   6.365   8.434  4.5220  0.6644 -0.4333
  754MOL0     H 4009  10.294   6.438   8.280  1.4330  2.5124  0.3532
  754MOL0     H 4010  10.480   6.394   8.447  0.4789 -1.2718  1.2326
  754MOL0     H 4011  10.775   6.387   8.566  0.0847  1.6444  0.8015
  754MOL0     H 4012  10.831   6.452   8.411  1.7703  0.1765  1.6045
  754MOL0     H 4013  10.698   6.337   8.404  0.1829  1.6003 -0.3314
  754MOL0     H 4014  11.104   6.562   8.498 -1.4526  0.3250 -0.0530
  754MOL0     H 4015  11.344   6.627   8.562 -0.4962 -0.5035 -1.7161
  754MOL0     H 4016  11.586   6.804   8.782  0.4053 -2.6976  0.5434
  754MOL0     H 4017  11.506   6.679   8.684 -1.6755  0.7021 -3.3660
  754MOL0     H 4018  11.467   6.961   8.584  0.0772 -0.5880  0.8690
  754MOL0     H 4019  11.641   6.898   8.586 -0.2052 -2.0128  1.5523
  754MOL0     H 4020  11.554   6.871   8.366  2.5601 -1.5509 -0.1390
  754MOL0     H 4021  11.413   6.788   8.412  0.0455  0.3350 -0.6502
  754MOL0     H 4022  11.536   6.599   8.480 -1.0977  1.8053  2.5235
  754MOL0     H 4023  11.690   6.688   8.486  0.2247 -1.7434 -1.3318
  754MOL0     H 4024  11.534   6.586   8.231  0.4746 -0.1882 -0.6776
  754MOL0     H 4025  11.658   6.712   8.224 -0.6183  0.0665 -0.2663
  754MOL0     H 4026  11.711   6.437   8.319 -3.3484  0.5289 -1.7216
  754MOL0     H 4027  11.831   6.569   8.307  0.3340  1.4416 -1.9001
  754MOL0     H 4028  11.847   6.553   8.082 -0.0817  1.0597 -0.8453
  754MOL0     H 4029  11.691   6.479   8.051  0.4003 -0.2092  0.1133
  754MOL0     H 4030  11.836   6.293   8.023 -1.4303  1.6493 -0.9085
  754MOL0     H 4031  11.803   6.275   8.196  2.2534 -3.2420 -1.5589
  754MOL0     H 4032  11.171   6.878   8.865  0.0615  0.5821 -0.6534
  754MOL0     H 4033  10.954   6.795   8.822  0.1187  0.8018  1.1455
  754MOL0     H 4034  10.612   6.860   8.554  1.0388 -0.8656  1.1347
  754MOL0     H 4035  10.378   6.808   8.482  0.4614  0.8890 -2.8984
  754MOL0     H 4036   8.821   7.319   8.906  0.5008  1.0008 -1.0005
  754MOL0     H 4037   8.589   7.336   8.875 -3.0164 -1.9370  0.0028
  754MOL0     H 4038   8.270   7.373   8.590 -0.3766 -1.6928 -3.2946
  754MOL0     H 4039   8.056   7.489   8.579 -0.3416 -0.5198  0.3272
  754MOL0     H 4040   7.726   7.222   8.694 -0.8726  0.4432  2.7377
  754MOL0     H 4041   7.663   7.367   8.767 -1.2322 -0.5613 -0.2333
  754MOL0     H 4042   7.622   7.474   8.548 -0.2280  0.1883  1.5298
  754MOL0     H 4043   7.543   7.316   8.543 -1.6012  0.6322  2.7638
  754MOL0     H 4044   7.811   7.394   8.405 -0.7744  1.3455  0.6095
  754MOL0     H 4045   7.744   7.228   8.431  2.9089  0.7752  0.7692
  754MOL0     H 4046   7.536   7.328   8.325  0.5077 -0.0210  0.5526
  754MOL0     H 4047   7.672   7.305   8.214  2.3025  2.5785 -1.5991
  754MOL0     H 4048   7.600   7.723   8.226 -1.2263 -0.5644 -1.3943
  754MOL0     H 4049   7.888   7.195   8.837  2.9757 -0.6424  2.7688
  754MOL0     H 4050   8.180   7.067   8.963  1.0227 -0.3529 -2.0054
  754MOL0     H 4051   8.004   7.091   8.978 -0.5247 -3.7157  1.8387
  754MOL0     H 4052   8.072   6.979   8.847 -2.6550  1.5297 -1.7185
  755MOL0     O 4053   9.459   7.883   9.559 -0.4266 -0.6525  0.4186
  755MOL0     C 4054   9.515   7.943   9.642  0.1330  0.4204  0.7643
  755MOL0     O 4055   9.523   8.079   9.643 -0.5299 -0.1889 -0.9437
  755MOL0     C 4056   9.492   8.145   9.528 -0.0494  0.5993  0.5660
  755MOL0     C 4057   9.578   8.126   9.419 -0.2001 -0.2481 -0.5239
  755MOL0     C 4058   9.555   8.194   9.298 -0.7379  0.1671  0.1021
  755MOL0     C 4059   9.450   8.292   9.290 -0.9600  0.8820  0.5281
  755MOL0     O 4060   9.423   8.361   9.173  0.2508 -0.0877 -0.3156
  755MOL0     C 4061   9.504   8.341   9.053  0.1613 -0.5010 -0.2293
  755MOL0     C 4062   9.643   8.400   9.060  0.5951  0.2450 -0.2619
  755MOL0     C 4063   9.717   8.388   8.927  0.0442 -1.0120  0.0097
  755MOL0     C 4064   9.863   8.443   8.942  0.1978  0.4373 -0.0506
  755MOL0     C 4065   9.954   8.366   9.042  0.1147  0.3274  1.0472
  755MOL0     C 4066  10.109   8.397   9.039 -0.2261 -0.0738 -0.2511
  755MOL0     C 4067  10.154   8.526   9.110  0.2995 -0.2980 -0.4033
  755MOL0     C 4068  10.285   8.570   9.050 -0.7011 -0.8985 -0.0992
  755MOL0     N 4069  10.327   8.695   9.114  0.1176  0.1149 -0.1443
  755MOL0     C 4070  10.282   8.763   9.223  0.6301 -0.1640 -0.9453
  755MOL0     C 4071  10.365   8.868   9.244 -0.4928  0.0907  0.2312
  755MOL0     C 4072  10.382   8.964   9.362 -0.1230  0.3551  0.2215
  755MOL0     C 4073  10.388   8.880   9.490 -0.0517 -0.2177 -0.3979
  755MOL0     C 4074  10.424   8.963   9.613 -0.3967 -0.4559 -0.2821
  755MOL0     C 4075  10.359   9.103   9.623  1.3715  0.3438 -0.6987
  755MOL0     O 4076  10.393   9.170   9.741  1.3131 -0.0346  0.6736
  755MOL0     C 4077  10.524   9.200   9.769  0.1633 -0.0496 -0.1455
  755MOL0     C 4078  10.553   9.251   9.899  1.3364  0.3211  0.6017
  755MOL0     C 4079  10.679   9.281   9.943 -0.3811 -0.1227  1.0983
  755MOL0     C 4080  10.695   9.338  10.076  0.4593  0.4504 -0.3806
  755MOL0     C 4081  10.788   9.266   9.858 -1.1492  0.1277  1.0711
  755MOL0     C 4082  10.930   9.277   9.893 -0.2143  0.1085 -0.3728
  755MOL0     O 4083  10.969   9.252  10.019 -0.2350  0.4336 -0.2792
  755MOL0     C 4084  11.090   9.298  10.064 -0.3510  1.4911  0.8361
  755MOL0     C 4085  11.200   9.215  10.067 -0.0631  0.3852 -0.0370
  755MOL0     C 4086  11.319   9.259  10.118  0.1439 -0.2534 -0.0417
  755MOL0     C 4087  11.340   9.385  10.155  0.0475  0.2063 -0.1409
  755MOL0     O 4088  11.455   9.448  10.216 -0.0646  0.4335 -0.0257
  755MOL0     C 4089  11.581   9.405  10.162  0.7444  0.0756  0.2609
  755MOL0     C 4090  11.695   9.489  10.202  0.1548  0.3657 -0.5727
  755MOL0     C 4091  11.813   9.461  10.119  0.5200 -0.3079  0.0506
  755MOL0     C 4092  11.943   9.524  10.171 -0.0059  0.2686 -0.4350
  755MOL0     C 4093  12.068   9.485  10.098 -0.0820  0.6467 -0.7339
  755MOL0     C 4094  12.167   9.606  10.082 -0.3599 -0.5089 -0.2638
  755MOL0     C 4095  12.301   9.553  10.033 -0.3051 -0.2639  0.0286
  755MOL0     C 4096  12.395   9.668  10.016  0.7191 -0.9026  0.2820
  755MOL0    Cl 4097  12.521   9.627   9.898 -0.0577 -0.2981  0.1675
  755MOL0     C 4098  11.233   9.470  10.150 -0.2253  0.2140  0.5685
  755MOL0     C 4099  11.103   9.424  10.114 -0.1441 -0.2241 -0.4907
  755MOL0     O 4100  11.008   9.325   9.807  0.4758  0.4160  0.0226
  755MOL0     C 4101  10.756   9.222   9.721  0.1889  0.3902  0.1777
  755MOL0     C 4102  10.628   9.195   9.674 -0.6336 -0.0553 -0.1460
  755MOL0     N 4103  10.457   8.862   9.145 -0.2653 -0.4017  0.8935
  755MOL0     N 4104  10.435   8.762   9.065 -0.5796  0.7492 -0.0326
  755MOL0     C 4105   9.386   8.326   9.409 -0.4396  0.9640  0.0428
  755MOL0     C 4106   9.397   8.245   9.522 -0.1918  0.4669 -1.0142
  755MOL0     C 4107   9.557   7.860   9.760  0.3447  0.1574 -0.3436
  755MOL0     C 4108   9.605   7.932   9.869  0.6994 -0.4480  0.0366
  755MOL0     C 4109   9.631   7.875   9.996 -0.0949  0.6729  0.1586
  755MOL0     C 4110   9.622   7.742  10.012  0.0172  0.0757 -0.6027
  755MOL0     O 4111   9.637   7.696  10.141 -0.3928 -0.2593 -0.0602
  755MOL0     C 4112   9.632   7.557  10.168  0.2056  1.0427  0.0450
  755MOL0     C 4113   9.693   7.521  10.309 -0.6112 -0.5420 -0.0438
  755MOL0     C 4114   9.837   7.573  10.317  0.3405 -0.2396  0.3371
  755MOL0     C 4115   9.896   7.536  10.453 -0.0887  0.3496 -0.0234
  755MOL0     C 4116  10.044   7.544  10.458  0.1552 -0.2420 -0.1335
  755MOL0     C 4117  10.165   7.539  10.434 -0.0876 -0.2528  0.6653
  755MOL0     C 4118   9.569   7.666   9.905 -0.8033  0.0882 -0.3872
  755MOL0     C 4119   9.545   7.720   9.779 -0.4322 -0.0242  0.3499
  755MOL0     C 4120   9.521   7.609   9.672 -0.0668  0.0298  0.2794
  755MOL0     H 4121   9.663   8.060   9.433  0.4102  0.4959 -0.5813
  755MOL0     H 4122   9.611   8.159   9.212  0.1449 -3.1183  1.8572
  755MOL0     H 4123   9.448   8.383   8.969  0.4782 -0.4684 -0.4253
  755MOL0     H 4124   9.513   8.234   9.031 -1.6436 -0.2309 -2.6472
  755MOL0     H 4125   9.624   8.503   9.092 -1.7633 -0.3525  0.4455
  755MOL0     H 4126   9.685   8.353   9.148 -2.2026 -1.2821  0.3832
  755MOL0     H 4127   9.726   8.286   8.889 -1.0690 -0.9129 -0.5573
  755MOL0     H 4128   9.666   8.443   8.848  2.3445  1.7370  0.2671
  755MOL0     H 4129   9.918   8.455   8.848  2.5084  1.2487  1.3185
  755MOL0     H 4130   9.850   8.545   8.981 -0.8520  0.7132 -1.0583
  755MOL0     H 4131   9.944   8.259   9.019 -1.0157  0.6971 -0.3365
  755MOL0     H 4132   9.917   8.380   9.144  2.0853 -0.5069  1.9340
  755MOL0     H 4133  10.162   8.313   9.085  0.1384  0.6206  0.6322
  755MOL0     H 4134  10.134   8.417   8.935  3.2609 -1.4387  0.1747
  755MOL0     H 4135  10.161   8.503   9.216 -0.8839 -0.7683 -0.4078
  755MOL0     H 4136  10.074   8.597   9.087  1.3512  1.6912  1.7052
  755MOL0     H 4137  10.366   8.504   9.082 -2.6021 -3.0712  0.4453
  755MOL0     H 4138  10.293   8.578   8.941 -0.9600  0.3867 -0.0376
  755MOL0     H 4139  10.202   8.732   9.290 -1.9151  2.8064 -2.3638
  755MOL0     H 4140  10.297   9.033   9.364 -1.2773 -1.0338  0.6087
  755MOL0     H 4141  10.476   9.019   9.352  0.1509 -0.2647 -0.7347
  755MOL0     H 4142  10.288   8.839   9.502  0.1116 -0.0042  2.1698
  755MOL0     H 4143  10.460   8.798   9.478 -0.8871 -0.7346 -2.1544
  755MOL0     H 4144  10.397   8.904   9.701 -3.8493  0.2681 -0.7295
  755MOL0     H 4145  10.533   8.973   9.606 -0.6811  3.7569 -1.3091
  755MOL0     H 4146  10.386   9.167   9.539  1.2269  0.9123 -0.3198
  755MOL0     H 4147  10.250   9.103   9.613  1.2699  1.0571  0.2613
  755MOL0     H 4148  10.468   9.280   9.960  0.7677  2.7833 -1.2369
  755MOL0     H 4149  10.782   9.401  10.092 -1.9089  3.2372  2.7936
  755MOL0     H 4150  10.702   9.255  10.146  0.1851  1.0778  0.3981
  755MOL0     H 4151  10.614   9.402  10.112  2.1880  1.8323  1.1953
  755MOL0     H 4152  11.187   9.119  10.019 -2.4955 -0.0835  1.4055
  755MOL0     H 4153  11.399   9.187  10.111 -0.4912 -1.2456  2.0141
  755MOL0     H 4154  11.597   9.301  10.192 -1.0225 -0.1660  0.4821
  755MOL0     H 4155  11.571   9.403  10.053  2.2518  0.6928  0.0728
  755MOL0     H 4156  11.673   9.593  10.178  0.5613  0.8884  1.1727
  755MOL0     H 4157  11.715   9.475  10.309  0.4850  2.0386 -0.3949
  755MOL0     H 4158  11.792   9.493  10.017  1.2844  4.7124  1.2032
  755MOL0     H 4159  11.817   9.352  10.131 -1.1005 -0.2875  1.1362
  755MOL0     H 4160  11.951   9.510  10.279  1.1166 -0.9561 -0.6585
  755MOL0     H 4161  11.930   9.632  10.159  2.2115  0.5950 -0.2166
  755MOL0     H 4162  12.114   9.412  10.166  1.1259  1.2760 -0.8433
  755MOL0     H 4163  12.047   9.426  10.008 -1.8462 -1.0936  0.7308
  755MOL0     H 4164  12.182   9.651  10.180  1.2392 -1.0359 -0.2273
  755MOL0     H 4165  12.135   9.687  10.016 -2.5057  2.4297  3.9193
  755MOL0     H 4166  12.279   9.514   9.933  2.0874  1.4891 -1.2911
  755MOL0     H 4167  12.340   9.481  10.106 -0.2902 -1.7388 -1.3814
  755MOL0     H 4168  12.433   9.690  10.116  0.6630  0.2213  0.0690
  755MOL0     H 4169  12.346   9.761   9.985  1.4833 -0.4814  0.3228
  755MOL0     H 4170  11.242   9.570  10.189 -1.9157  1.5114 -2.0523
  755MOL0     H 4171  11.009   9.478  10.109 -0.8883 -1.5191 -1.0199
  755MOL0     H 4172  10.838   9.206   9.651  2.2365 -1.3273  2.7773
  755MOL0     H 4173  10.609   9.187   9.568  2.3322 -0.3155 -0.7353
  755MOL0     H 4174   9.311   8.404   9.397  0.0357  1.1085 -2.8707
  755MOL0     H 4175   9.342   8.260   9.615 -2.3166  0.0530 -2.1340
  755MOL0     H 4176   9.603   8.040   9.867 -1.8736 -0.4250 -1.6095
  755MOL0     H 4177   9.648   7.940  10.081  2.0454  1.7401 -0.9981
  755MOL0     H 4178   9.527   7.529  10.157  1.1711 -1.8000 -7.4293
  755MOL0     H 4179   9.672   7.490  10.092 -2.2636 -0.4292 -0.0502
  755MOL0     H 4180   9.680   7.415  10.335  2.5416 -1.0189  0.0299
  755MOL0     H 4181   9.632   7.565  10.388  1.6670 -0.3157  1.6912
  755MOL0     H 4182   9.891   7.534  10.231 -2.2250  0.9119 -1.9440
  755MOL0     H 4183   9.845   7.681  10.300 -1.6238  0.2624  2.1354
  755MOL0     H 4184   9.869   7.434  10.481 -2.0525  0.8277 -0.0434
  755MOL0     H 4185   9.868   7.604  10.534 -1.5698 -2.6447  2.1471
  755MOL0     H 4186  10.270   7.550  10.417 -0.2676 -0.0357 -0.3707
  755MOL0     H 4187   9.560   7.560   9.929 -1.7267  0.9098  3.5681
  755MOL0     H 4188   9.573   7.630   9.578 -2.5979 -3.0640 -2.0469
  755MOL0     H 4189   9.564   7.515   9.708  1.8268  1.0865  0.9213
  755MOL0     H 4190   9.417   7.598   9.640  0.6005  0.4587 -2.2750
  756MOL0     O 4191   5.170   6.222   2.199 -0.3062 -0.2211  0.9586
  756MOL0     C 4192   5.096   6.136   2.241  0.2158 -0.3884  0.5542
  756MOL0     O 4193   5.127   5.997   2.247  0.0258  0.5155 -0.6672
  756MOL0     C 4194   5.247   5.931   2.247  0.3846 -0.2183 -0.2517
  756MOL0     C 4195   5.372   5.986   2.244  1.2947  0.4088 -0.1444
  756MOL0     C 4196   5.489   5.909   2.233 -0.0475 -0.1807  0.4186
  756MOL0     C 4197   5.481   5.772   2.217  0.2491  0.5007 -0.0117
  756MOL0     O 4198   5.596   5.688   2.202 -0.2137 -0.0236  0.1231
  756MOL0     C 4199   5.696   5.720   2.298  0.9967  0.2217  0.1523
  756MOL0     C 4200   5.793   5.597   2.298  0.7645 -0.3177 -0.2436
  756MOL0     C 4201   5.887   5.601   2.415  0.2219  0.1416 -1.2033
  756MOL0     C 4202   5.998   5.492   2.399 -0.1300  0.1508  0.8037
  756MOL0     C 4203   6.102   5.511   2.495  0.3777  0.1645  0.7517
  756MOL0     C 4204   6.220   5.403   2.494  1.1901  0.2082  0.5635
  756MOL0     C 4205   6.325   5.414   2.608  0.5150  0.0091  0.6582
  756MOL0     C 4206   6.463   5.361   2.564 -0.8404  0.0302 -0.2085
  756MOL0     N 4207   6.507   5.420   2.444 -0.9184  0.1667 -0.5838
  756MOL0     C 4208   6.532   5.552   2.413  0.3853  0.1132 -0.3102
  756MOL0     C 4209   6.573   5.554   2.285  0.4087  0.5470  0.1684
  756MOL0     C 4210   6.584   5.682   2.204  0.2777 -0.5153 -0.2750
  756MOL0     C 4211   6.731   5.734   2.210 -1.0814 -1.3502  0.8535
  756MOL0     C 4212   6.768   5.861   2.131  0.4651 -0.7636  0.5644
  756MOL0     C 4213   6.921   5.873   2.112 -0.6658  0.4712 -0.2512
  756MOL0     O 4214   6.998   5.863   2.241  0.3536  0.4468 -0.0027
  756MOL0     C 4215   7.128   5.874   2.236 -0.2011 -0.2168 -0.2015
  756MOL0     C 4216   7.186   5.909   2.357  0.4426 -0.1578 -0.2374
  756MOL0     C 4217   7.327   5.929   2.366 -0.6176  0.1452 -0.2956
  756MOL0     C 4218   7.385   5.976   2.496 -0.5494  0.1226  0.6046
  756MOL0     C 4219   7.412   5.900   2.253 -0.1586 -0.3141 -0.2371
  756MOL0     C 4220   7.558   5.913   2.236  0.5381  0.0799 -0.1246
  756MOL0     O 4221   7.616   5.883   2.116  0.6630 -0.7237  0.7318
  756MOL0     C 4222   7.750   5.902   2.093  0.6521  0.0377  0.1068
  756MOL0     C 4223   7.782   5.880   1.955 -0.1279 -0.6264  0.3982
  756MOL0     C 4224   7.914   5.891   1.913 -1.3564  0.0934 -0.2454
  756MOL0     C 4225   8.015   5.935   2.002  0.8335  0.1700  0.2876
  756MOL0     O 4226   8.140   5.948   1.940  0.3071 -0.8007 -0.2909
  756MOL0     C 4227   8.254   5.972   2.028  0.2241 -0.0124  0.3957
  756MOL0     C 4228   8.303   5.850   2.107  0.6255 -0.3628 -0.6702
  756MOL0     C 4229   8.420   5.883   2.208  0.1506 -0.0124  0.7668
  756MOL0     C 4230   8.557   5.894   2.142 -0.0298 -0.1424  0.0556
  756MOL0     C 4231   8.662   5.964   2.231 -1.0364 -0.5776 -0.0601
  756MOL0     C 4232   8.625   6.112   2.262 -0.1172  0.3085 -0.3152
  756MOL0     C 4233   8.698   6.160   2.385  1.0619 -0.1604  0.0002
  756MOL0     C 4234   8.851   6.178   2.347  0.2479  0.0591 -0.1740
  756MOL0    Cl 4235   8.882   6.284   2.202  0.0295  0.3186 -0.0667
  756MOL0     C 4236   7.982   5.949   2.135  0.3647 -0.2449 -0.2044
  756MOL0     C 4237   7.854   5.929   2.185  0.2549 -0.5932 -0.7417
  756MOL0     O 4238   7.618   5.956   2.334  0.4042 -0.3816 -0.2823
  756MOL0     C 4239   7.348   5.861   2.136  0.6206  0.2423 -0.1272
  756MOL0     C 4240   7.211   5.853   2.123 -0.1765  0.0521 -0.3778
  756MOL0     N 4241   6.556   5.427   2.227 -0.2698 -0.1084 -0.6757
  756MOL0     N 4242   6.533   5.346   2.333 -0.8284 -0.2894 -0.2416
  756MOL0     C 4243   5.361   5.710   2.219  0.5220  0.5826 -0.8810
  756MOL0     C 4244   5.241   5.789   2.238  0.1374 -0.7006 -0.0330
  756MOL0     C 4245   4.974   6.185   2.294 -0.3658  0.2359  0.3921
  756MOL0     C 4246   4.863   6.098   2.282 -0.1437  0.5134  0.2084
  756MOL0     C 4247   4.727   6.138   2.303  0.6271 -0.4706 -0.2494
  756MOL0     C 4248   4.703   6.261   2.365  0.1105  0.8914 -0.8354
  756MOL0     O 4249   4.586   6.312   2.411 -0.3978 -0.5334  0.1101
  756MOL0     C 4250   4.454   6.252   2.384  0.7026  0.6134 -0.3732
  756MOL0     C 4251   4.388   6.298   2.251  0.6127 -0.3134  0.5335
  756MOL0     C 4252   4.395   6.450   2.220 -0.9341 -0.7572 -0.7835
  756MOL0     C 4253   4.361   6.539   2.341 -0.4489 -0.2610  0.2135
  756MOL0     C 4254   4.223   6.530   2.390  0.0283  0.8137 -0.4466
  756MOL0     C 4255   4.106   6.535   2.423 -0.1468 -0.8727  0.0500
  756MOL0     C 4256   4.815   6.344   2.392 -1.0867  0.4808 -0.8376
  756MOL0     C 4257   4.952   6.308   2.361  0.1543  0.0079  0.3263
  756MOL0     C 4258   5.060   6.412   2.409 -0.0395 -0.7368  0.2346
  756MOL0     H 4259   5.391   6.092   2.236 -1.3699  0.7982 -2.8460
  756MOL0     H 4260   5.588   5.954   2.242 -0.1030  0.0864 -0.2527
  756MOL0     H 4261   5.648   5.735   2.395  1.7688  2.4670  0.2264
  756MOL0     H 4262   5.732   5.816   2.260 -2.3584  1.1644 -0.9945
  756MOL0     H 4263   5.746   5.500   2.313  1.6829 -0.4050  2.6775
  756MOL0     H 4264   5.856   5.596   2.208  0.2792 -0.0165 -0.5871
  756MOL0     H 4265   5.924   5.704   2.417 -2.2548  1.0861 -1.2817
  756MOL0     H 4266   5.833   5.587   2.509  0.4842 -1.9675 -1.3271
  756MOL0     H 4267   5.948   5.396   2.417  1.6433 -1.2907 -1.3968
  756MOL0     H 4268   6.035   5.482   2.297  2.9664  0.8745  1.7374
  756MOL0     H 4269   6.058   5.492   2.593 -0.1782 -5.0740 -0.2091
  756MOL0     H 4270   6.154   5.606   2.479  0.9395 -0.5190 -2.0736
  756MOL0     H 4271   6.176   5.305   2.518 -0.5385 -0.0928 -3.0999
  756MOL0     H 4272   6.258   5.393   2.392  1.1169  0.3723  0.5209
  756MOL0     H 4273   6.298   5.353   2.695 -2.8064 -1.3597 -1.1594
  756MOL0     H 4274   6.327   5.517   2.643 -1.7949 -0.5990  2.8614
  756MOL0     H 4275   6.546   5.379   2.634  0.7674  0.5462 -2.1464
  756MOL0     H 4276   6.449   5.254   2.549 -3.3708  0.4348 -1.0940
  756MOL0     H 4277   6.539   5.639   2.477  2.4703  0.8561 -1.4618
  756MOL0     H 4278   6.518   5.756   2.251 -0.0147  1.5173 -3.5950
  756MOL0     H 4279   6.556   5.660   2.100 -3.7834 -0.3009  0.5851
  756MOL0     H 4280   6.750   5.756   2.316 -3.0473 -0.6082  1.0936
  756MOL0     H 4281   6.789   5.649   2.172  0.6320 -0.7757  2.0473
  756MOL0     H 4282   6.725   5.855   2.031  3.6506  0.2815 -1.0181
  756MOL0     H 4283   6.730   5.949   2.185  0.1687 -1.0560  0.8331
  756MOL0     H 4284   6.962   5.796   2.046  1.0140 -1.3393  2.6778
  756MOL0     H 4285   6.932   5.973   2.071 -0.8191 -1.2064 -4.9462
  756MOL0     H 4286   7.119   5.921   2.442  0.7520  0.3849 -0.0565
  756MOL0     H 4287   7.466   5.913   2.535  0.8716  1.5279  0.0280
  756MOL0     H 4288   7.307   5.963   2.572  1.1270 -0.1866  2.3651
  756MOL0     H 4289   7.416   6.080   2.506  1.7970 -0.6403  2.1785
  756MOL0     H 4290   7.704   5.858   1.883 -0.2090  0.4427  0.1362
  756MOL0     H 4291   7.945   5.884   1.809 -1.9770 -0.9027 -0.3801
  756MOL0     H 4292   8.334   6.006   1.962 -0.0775 -1.1907 -0.6189
  756MOL0     H 4293   8.239   6.059   2.092 -1.7602 -1.0550  1.4650
  756MOL0     H 4294   8.225   5.811   2.172  0.4522 -0.4203 -0.9120
  756MOL0     H 4295   8.342   5.781   2.031  1.4672 -0.5270 -0.1023
  756MOL0     H 4296   8.430   5.817   2.294  1.8907 -0.3405  0.3318
  756MOL0     H 4297   8.399   5.975   2.264  2.0697  0.0247  1.5004
  756MOL0     H 4298   8.562   5.951   2.048  0.3836 -0.3999 -0.0837
  756MOL0     H 4299   8.586   5.797   2.100  1.9594  0.9736 -1.3120
  756MOL0     H 4300   8.669   5.910   2.325  0.4023  2.8098  1.9571
  756MOL0     H 4301   8.765   5.960   2.193 -1.1866  0.9104 -0.6922
  756MOL0     H 4302   8.519   6.130   2.282 -0.3775  1.2314 -2.2927
  756MOL0     H 4303   8.649   6.173   2.174 -0.7378  0.8207 -0.1394
  756MOL0     H 4304   8.677   6.093   2.469  1.5367 -2.1868 -1.4210
  756MOL0     H 4305   8.653   6.252   2.422  2.0953 -0.0493  1.0560
  756MOL0     H 4306   8.895   6.080   2.324 -0.8707 -0.1330 -1.6636
  756MOL0     H 4307   8.904   6.228   2.428 -2.9155  1.7288  1.0411
  756MOL0     H 4308   8.049   5.984   2.213  1.0248 -2.0137  0.0495
  756MOL0     H 4309   7.840   5.951   2.290  0.7199  0.9715 -0.9932
  756MOL0     H 4310   7.403   5.824   2.050  0.8024 -1.7858  0.8127
  756MOL0     H 4311   7.173   5.820   2.027  1.6833  3.8602 -2.6631
  756MOL0     H 4312   5.370   5.601   2.221  1.6401  0.6062 -2.7427
  756MOL0     H 4313   5.144   5.742   2.249  1.6391 -3.4877  3.3303
  756MOL0     H 4314   4.866   5.999   2.238  3.4186  1.4444 -1.9921
  756MOL0     H 4315   4.643   6.075   2.276  2.2084 -2.2907 -1.1441
  756MOL0     H 4316   4.455   6.143   2.386  1.5825  0.6046 -0.7753
  756MOL0     H 4317   4.393   6.289   2.467 -1.4608 -4.2668  0.5471
  756MOL0     H 4318   4.287   6.260   2.239  0.3563  0.5380 -0.1361
  756MOL0     H 4319   4.431   6.242   2.168 -2.7431 -2.7056  0.2169
  756MOL0     H 4320   4.494   6.483   2.187 -1.3302 -0.2027 -1.4391
  756MOL0     H 4321   4.323   6.458   2.139 -3.0122 -2.7390  0.7522
  756MOL0     H 4322   4.376   6.645   2.320 -2.2463  0.0612  0.3963
  756MOL0     H 4323   4.440   6.527   2.416  0.1613  1.4782 -0.1031
  756MOL0     H 4324   4.004   6.531   2.457  0.3428 -1.4654  1.5346
  756MOL0     H 4325   4.793   6.441   2.436 -0.9174 -0.3689  1.2553
  756MOL0     H 4326   5.066   6.495   2.338  3.2811  0.9148  2.1965
  756MOL0     H 4327   5.037   6.451   2.509  2.2785 -1.0722  0.9577
  756MOL0     H 4328   5.158   6.363   2.410  0.2490 -0.2562 -1.7500
  757MOL0     O 4329   7.373   9.030   2.019  0.0517  0.1193 -0.2719
  757MOL0     C 4330   7.303   9.133   2.021  0.0349 -1.4211  0.0027
  757MOL0     O 4331   7.348   9.259   2.018  0.3944 -0.7137 -0.6224
  757MOL0     C 4332   7.480   9.299   2.058 -0.0903  0.5830  0.1798
  757MOL0     C 4333   7.486   9.422   2.124 -0.5574 -0.2347  0.6330
  757MOL0     C 4334   7.616   9.476   2.149 -0.4891  0.0598 -0.2150
  757MOL0     C 4335   7.736   9.411   2.123 -0.2737 -0.1131 -0.7823
  757MOL0     O 4336   7.851   9.475   2.154 -0.3069  0.1752  0.8629
  757MOL0     C 4337   7.983   9.407   2.131  0.7486  0.3770 -0.3155
  757MOL0     C 4338   8.108   9.490   2.167 -0.2969 -0.0842 -0.0785
  757MOL0     C 4339   8.231   9.440   2.101  0.6418 -0.0500  0.2454
  757MOL0     C 4340   8.342   9.543   2.121 -0.1583  0.2607  0.4163
  757MOL0     C 4341   8.460   9.523   2.011  0.0042  0.5199 -0.7059
  757MOL0     C 4342   8.521   9.388   2.032  0.1623 -0.1556 -1.2255
  757MOL0     C 4343   8.638   9.373   1.943  0.0973 -0.0595  0.0737
  757MOL0     C 4344   8.715   9.247   1.983 -0.1883 -0.2975  0.4745
  757MOL0     N 4345   8.856   9.246   1.942 -0.2400  0.1230 -0.0202
  757MOL0     C 4346   8.890   9.239   1.805 -0.6730  0.2616 -0.3400
  757MOL0     C 4347   9.023   9.255   1.802  0.5968 -0.0845 -0.9194
  757MOL0     C 4348   9.113   9.251   1.680  0.2692  0.4039  0.6656
  757MOL0     C 4349   9.253   9.197   1.698  0.3393 -0.2555  0.7569
  757MOL0     C 4350   9.331   9.209   1.574 -0.4571 -0.6168 -0.0524
  757MOL0     C 4351   9.477   9.187   1.615  1.0406  0.3877  0.3444
  757MOL0     O 4352   9.567   9.189   1.508  0.5118 -0.3356 -0.5396
  757MOL0     C 4353   9.703   9.194   1.521 -0.7628 -0.5773 -0.0383
  757MOL0     C 4354   9.785   9.230   1.417 -0.0929  0.4426  0.5538
  757MOL0     C 4355   9.933   9.216   1.415  0.4983  0.1642 -0.2963
  757MOL0     C 4356  10.016   9.261   1.292  0.5312 -0.1550  0.5538
  757MOL0     C 4357   9.989   9.167   1.542 -0.0222  0.3230  0.3996
  757MOL0     C 4358  10.138   9.169   1.554  0.1709 -0.4261  0.2171
  757MOL0     O 4359  10.175   9.149   1.683  0.0995 -0.0157 -0.9727
  757MOL0     C 4360  10.305   9.150   1.721 -0.4831 -0.2824 -0.0777
  757MOL0     C 4361  10.371   9.031   1.758 -0.2325 -1.2206 -0.3953
  757MOL0     C 4362  10.509   9.038   1.788 -0.4561  0.8916 -0.4134
  757MOL0     C 4363  10.579   9.153   1.797 -0.0367  0.4379  0.2383
  757MOL0     O 4364  10.713   9.167   1.847  0.4706 -0.2343 -0.0766
  757MOL0     C 4365  10.785   9.061   1.910  0.8555 -0.4909  0.0658
  757MOL0     C 4366  10.868   9.123   2.025  0.2286  0.3423 -0.0316
  757MOL0     C 4367  10.956   9.022   2.109  0.3904 -0.3040 -0.1464
  757MOL0     C 4368  11.086   8.980   2.048 -0.3309 -0.5231  0.0704
  757MOL0     C 4369  11.185   9.089   2.039  0.6327  0.1338  1.0528
  757MOL0     C 4370  11.323   9.041   2.017 -0.5193  0.0505 -0.7963
  757MOL0     C 4371  11.421   9.166   2.055 -0.2856 -0.1248  0.6976
  757MOL0     C 4372  11.573   9.137   2.042 -0.2408  0.8036  0.1997
  757MOL0    Cl 4373  11.677   9.288   2.025 -0.3630  0.1688 -0.0057
  757MOL0     C 4374  10.512   9.275   1.766  0.3742  0.2641  0.6299
  757MOL0     C 4375  10.375   9.273   1.737 -0.1758  0.5131 -0.0551
  757MOL0     O 4376  10.216   9.186   1.456 -0.0799  0.4785  0.3196
  757MOL0     C 4377   9.910   9.148   1.654  0.4548  0.7537 -0.0873
  757MOL0     C 4378   9.768   9.163   1.648 -0.3614 -1.0219  0.2494
  757MOL0     N 4379   9.069   9.257   1.937  0.6515  0.2758 -0.0105
  757MOL0     N 4380   8.965   9.250   2.021 -0.4961  0.2156  0.3926
  757MOL0     C 4381   7.730   9.287   2.053 -0.3998  0.0175 -0.0364
  757MOL0     C 4382   7.600   9.235   2.017 -0.2715  0.1110  0.4750
  757MOL0     C 4383   7.153   9.117   2.027 -0.2126 -0.7974  0.2746
  757MOL0     C 4384   7.070   9.222   1.971 -0.2383 -0.5586 -0.0304
  757MOL0     C 4385   6.935   9.202   1.973  0.6263  0.7109 -0.5340
  757MOL0     C 4386   6.874   9.086   2.024  0.4700 -0.4427 -0.3488
  757MOL0     O 4387   6.732   9.091   2.029 -0.0002 -0.0301  0.8668
  757MOL0     C 4388   6.678   8.968   1.976  0.1190 -0.0126  0.3867
  757MOL0     C 4389   6.540   9.017   1.932 -0.5644  0.6531  0.4570
  757MOL0     C 4390   6.465   8.894   1.885 -0.3527  0.3928 -0.5100
  757MOL0     C 4391   6.442   8.788   1.989  0.0300 -0.1188  0.4437
  757MOL0     C 4392   6.366   8.840   2.105  0.1381  0.2106  0.3564
  757MOL0     C 4393   6.309   8.895   2.199  0.8919  0.7254 -0.4501
  757MOL0     C 4394   6.949   8.982   2.080 -0.1333  0.0008  0.3804
  757MOL0     C 4395   7.090   8.994   2.081 -0.2424 -0.3710  0.6457
  757MOL0     C 4396   7.161   8.878   2.140  0.6624  0.9747  0.0248
  757MOL0     H 4397   7.405   9.482   2.164  1.1147  0.6033  2.9460
  757MOL0     H 4398   7.622   9.565   2.211 -0.6101 -0.1987  0.1754
  757MOL0     H 4399   7.991   9.386   2.024  1.0144 -1.3463  0.0165
  757MOL0     H 4400   7.992   9.312   2.183  2.9784 -1.7093 -4.0880
  757MOL0     H 4401   8.080   9.593   2.145 -2.5267 -0.5979  0.1307
  757MOL0     H 4402   8.129   9.489   2.275  2.3366  3.5774 -0.3728
  757MOL0     H 4403   8.267   9.342   2.135 -3.0268 -2.0086 -1.0098
  757MOL0     H 4404   8.214   9.415   1.996  0.5867 -1.2797  0.5358
  757MOL0     H 4405   8.291   9.639   2.120 -0.8938 -0.1175  0.5676
  757MOL0     H 4406   8.388   9.528   2.219 -1.5690 -2.8043  0.7348
  757MOL0     H 4407   8.536   9.598   2.035  0.0684 -0.9499  5.1124
  757MOL0     H 4408   8.416   9.526   1.911 -1.4285  3.3874 -0.1055
  757MOL0     H 4409   8.548   9.410   2.136  1.7453  2.1814 -2.0403
  757MOL0     H 4410   8.450   9.306   2.017 -0.1319  0.2437 -2.0825
  757MOL0     H 4411   8.710   9.455   1.949  0.3745 -0.1923 -1.1913
  757MOL0     H 4412   8.601   9.365   1.840  0.1712  0.8134 -0.0288
  757MOL0     H 4413   8.716   9.257   2.092 -2.7973  1.4553  0.4211
  757MOL0     H 4414   8.659   9.155   1.961 -0.0886 -0.2605  0.0648
  757MOL0     H 4415   8.821   9.231   1.721 -0.6913  0.3552 -0.3338
  757MOL0     H 4416   9.114   9.354   1.644 -0.7166 -0.1627 -1.0924
  757MOL0     H 4417   9.064   9.193   1.601  2.7026  0.3065 -0.8645
  757MOL0     H 4418   9.297   9.254   1.780 -1.3186  1.1928  0.6760
  757MOL0     H 4419   9.256   9.089   1.718  1.7819 -0.8290 -2.0031
  757MOL0     H 4420   9.304   9.142   1.492  0.2921  2.6894 -3.2932
  757MOL0     H 4421   9.335   9.313   1.541  0.1781 -1.3637 -2.5629
  757MOL0     H 4422   9.505   9.259   1.691  2.1892 -0.8735  1.1671
  757MOL0     H 4423   9.488   9.083   1.649 -1.3299  0.3041  0.9835
  757MOL0     H 4424   9.735   9.262   1.327  0.2061  0.5885  0.4376
  757MOL0     H 4425  10.038   9.174   1.230 -0.0453  0.1482 -0.0761
  757MOL0     H 4426  10.107   9.320   1.311  0.4324 -0.2123  1.2451
  757MOL0     H 4427   9.953   9.333   1.240  1.5781 -1.3423 -2.5948
  757MOL0     H 4428  10.302   8.948   1.763 -5.6142  2.7715  0.4076
  757MOL0     H 4429  10.552   8.944   1.824  0.8075  2.2574  1.9175
  757MOL0     H 4430  10.723   8.978   1.946  1.3300 -0.8586  0.0436
  757MOL0     H 4431  10.851   9.022   1.832  0.3118  1.1092 -1.2267
  757MOL0     H 4432  10.931   9.210   2.005  2.8939 -1.7015 -0.9934
  757MOL0     H 4433  10.790   9.164   2.090  1.0663  1.4377  0.3102
  757MOL0     H 4434  10.907   8.930   2.139  2.3020 -1.3957 -0.2090
  757MOL0     H 4435  10.978   9.091   2.191  0.3219  0.9689 -1.1575
  757MOL0     H 4436  11.070   8.942   1.947  0.2677 -1.9972  0.4968
  757MOL0     H 4437  11.133   8.897   2.103  2.8356  2.0109  1.5244
  757MOL0     H 4438  11.163   9.151   1.951 -0.2831 -2.1976 -0.4766
  757MOL0     H 4439  11.189   9.142   2.135  1.8394 -0.3837  1.3122
  757MOL0     H 4440  11.330   9.026   1.909  1.5509  0.6900 -0.7806
  757MOL0     H 4441  11.344   8.943   2.062  2.2704  1.1814  0.5965
  757MOL0     H 4442  11.402   9.195   2.159 -0.6596  3.3952 -0.2149
  757MOL0     H 4443  11.392   9.256   2.000 -0.6456  1.4254  3.2241
  757MOL0     H 4444  11.593   9.085   1.947  0.2957  0.3490  0.5535
  757MOL0     H 4445  11.619   9.077   2.121  2.2309  2.9570  0.5057
  757MOL0     H 4446  10.566   9.369   1.762 -1.4596  1.2947 -0.9509
  757MOL0     H 4447  10.328   9.369   1.717 -0.9095  0.9012  3.0360
  757MOL0     H 4448   9.953   9.099   1.741  0.0080 -0.8316 -0.7040
  757MOL0     H 4449   9.715   9.138   1.739  1.5403 -1.0915  1.4032
  757MOL0     H 4450   7.814   9.229   2.017 -1.7273 -0.2584 -3.0099
  757MOL0     H 4451   7.604   9.145   1.957  2.8701  1.0840 -1.0204
  757MOL0     H 4452   7.118   9.298   1.909  0.0414 -0.4316  0.3425
  757MOL0     H 4453   6.873   9.275   1.921 -1.6567 -0.9473 -0.3085
  757MOL0     H 4454   6.734   8.940   1.886 -1.8410  0.9141 -1.2124
  757MOL0     H 4455   6.676   8.888   2.050 -2.2852 -0.0650  0.3448
  757MOL0     H 4456   6.552   9.079   1.842 -2.0528 -1.8229 -1.5860
  757MOL0     H 4457   6.491   9.065   2.017 -1.8091  0.6192 -0.2100
  757MOL0     H 4458   6.362   8.927   1.868  0.4304  2.2454 -2.0800
  757MOL0     H 4459   6.503   8.853   1.791  3.5142 -1.5203  1.6449
  757MOL0     H 4460   6.538   8.739   2.007  0.9128  0.1893 -2.7709
  757MOL0     H 4461   6.379   8.716   1.938  2.1164 -0.9513 -1.1110
  757MOL0     H 4462   6.269   8.937   2.289 -1.5647  0.6950 -1.4554
  757MOL0     H 4463   6.898   8.897   2.124  0.2926 -0.6175 -0.2707
  757MOL0     H 4464   7.102   8.829   2.219 -1.0003  2.8328 -0.0012
  757MOL0     H 4465   7.173   8.800   2.064 -4.6553  1.0791 -1.2613
  757MOL0     H 4466   7.255   8.915   2.182  2.6195 -3.1078 -0.2322
  758MOL0     O 4467   8.836  10.455   3.524  0.3532 -0.0397  0.4726
  758MOL0     C 4468   8.958  10.462   3.495  0.2527 -0.1003  0.2836
  758MOL0     O 4469   9.051  10.535   3.565  0.9359 -0.3265 -0.5638
  758MOL0     C 4470   9.010  10.592   3.685 -0.2950 -0.6657  0.2183
  758MOL0     C 4471   8.988  10.733   3.687 -0.8866 -0.5395  0.2817
  758MOL0     C 4472   8.955  10.797   3.803  0.8950  0.1209  0.9033
  758MOL0     C 4473   8.937  10.726   3.922 -1.0305  0.1774  0.3078
  758MOL0     O 4474   8.926  10.795   4.041 -0.1838  0.0343  0.1487
  758MOL0     C 4475   9.047  10.820   4.102  0.2005 -0.0918 -0.6210
  758MOL0     C 4476   9.028  10.901   4.241 -0.3105  0.5012 -0.7347
  758MOL0     C 4477   9.153  10.913   4.334 -0.1303 -0.7278  0.5315
  758MOL0     C 4478   9.271  10.985   4.273  0.2783  0.7390 -0.2348
  758MOL0     C 4479   9.356  10.904   4.166 -0.3788 -0.5009  0.1910
  758MOL0     C 4480   9.429  10.778   4.221  0.1700 -0.1322  0.0659
  758MOL0     C 4481   9.534  10.722   4.121 -0.3767 -0.0720  0.7312
  758MOL0     C 4482   9.670  10.793   4.129 -0.4725  0.4235 -0.3408
  758MOL0     N 4483   9.755  10.762   4.011 -0.3408 -0.3286  0.5633
  758MOL0     C 4484   9.731  10.665   3.915  0.3478 -0.7753 -0.2388
  758MOL0     C 4485   9.833  10.679   3.822 -0.5961  0.7164 -0.4887
  758MOL0     C 4486   9.861  10.584   3.708 -0.3045 -1.0308 -0.7326
  758MOL0     C 4487   9.942  10.459   3.740  0.4841 -0.3476 -0.2470
  758MOL0     C 4488  10.086  10.492   3.709  0.1335  1.2840  0.4763
  758MOL0     C 4489  10.169  10.375   3.757  0.3468 -0.5762 -0.1611
  758MOL0     O 4490  10.309  10.404   3.761  0.0105  0.3021  0.4746
  758MOL0     C 4491  10.380  10.377   3.648 -0.2196 -0.1039 -0.1802
  758MOL0     C 4492  10.426  10.479   3.563  0.0278  0.7167 -0.0570
  758MOL0     C 4493  10.483  10.457   3.442  0.3970  0.7175  0.0622
  758MOL0     C 4494  10.531  10.584   3.377  0.0025 -0.2652 -0.2489
  758MOL0     C 4495  10.526  10.323   3.405 -0.3341  0.0613  0.2347
  758MOL0     C 4496  10.606  10.285   3.287  0.4702  0.3144 -0.5352
  758MOL0     O 4497  10.659  10.153   3.273  0.5553 -0.1845 -0.7380
  758MOL0     C 4498  10.706  10.104   3.152 -0.5568 -0.1464 -0.1635
  758MOL0     C 4499  10.643  10.123   3.025 -0.4633 -0.1889 -0.1944
  758MOL0     C 4500  10.692  10.064   2.911  0.4593 -0.3424  0.4178
  758MOL0     C 4501  10.806   9.981   2.914  0.4049 -0.0972 -0.0201
  758MOL0     O 4502  10.838   9.923   2.794  0.0142 -0.2730 -0.1930
  758MOL0     C 4503  10.956   9.979   2.729 -0.0419  0.6449 -0.9765
  758MOL0     C 4504  11.075   9.880   2.746 -0.3738  0.7956 -0.2591
  758MOL0     C 4505  11.215   9.919   2.701  0.8802  0.1108  0.2822
  758MOL0     C 4506  11.204   9.948   2.555 -0.8467 -0.2161  0.0533
  758MOL0     C 4507  11.343   9.947   2.488  0.4513 -0.6050  0.1541
  758MOL0     C 4508  11.442  10.049   2.551  0.3347  0.2709 -0.1226
  758MOL0     C 4509  11.531  10.101   2.449 -1.2406 -0.3071  0.5226
  758MOL0     C 4510  11.637  10.200   2.503  0.2318  0.6248 -0.0144
  758MOL0    Cl 4511  11.757  10.095   2.582 -0.4531  0.0050 -0.0547
  758MOL0     C 4512  10.866   9.958   3.043 -0.4664 -0.3705  0.0619
  758MOL0     C 4513  10.813  10.014   3.157 -0.1187  0.1614 -0.2404
  758MOL0     O 4514  10.618  10.371   3.209 -0.3243 -0.1938 -0.2813
  758MOL0     C 4515  10.469  10.223   3.482  0.0301  0.5089 -0.2355
  758MOL0     C 4516  10.415  10.251   3.604  0.3357  0.0496 -0.7546
  758MOL0     N 4517   9.921  10.774   3.863 -0.1317 -0.5604  0.1089
  758MOL0     N 4518   9.879  10.824   3.978 -0.0709  0.2999  0.4855
  758MOL0     C 4519   8.950  10.588   3.927 -0.2704 -0.0978  0.6746
  758MOL0     C 4520   8.991  10.522   3.805 -0.1181  0.2730  0.7343
  758MOL0     C 4521   9.009  10.392   3.373  0.3531  0.1075 -1.1507
  758MOL0     C 4522   9.148  10.382   3.348 -0.0722  0.0155 -0.1345
  758MOL0     C 4523   9.201  10.311   3.242 -1.1568  0.5351  0.2745
  758MOL0     C 4524   9.111  10.245   3.162 -0.0600  0.3861  0.2553
  758MOL0     O 4525   9.160  10.158   3.072  0.8509 -0.3337  0.0728
  758MOL0     C 4526   9.165  10.025   3.114 -0.1818  0.3564 -0.3518
  758MOL0     C 4527   9.099   9.933   3.011  0.0932  0.5077  0.2930
  758MOL0     C 4528   9.129   9.976   2.866 -0.3643  0.7017 -0.4190
  758MOL0     C 4529   9.094   9.879   2.756 -1.1634 -0.1953  0.3960
  758MOL0     C 4530   8.951   9.863   2.738  0.1668  0.0811  0.4667
  758MOL0     C 4531   8.837   9.846   2.707 -0.0956 -0.5282  0.3749
  758MOL0     C 4532   8.971  10.269   3.168  0.2911  0.0151  0.4227
  758MOL0     C 4533   8.919  10.337   3.278 -0.4156 -0.0952  0.0023
  758MOL0     C 4534   8.766  10.338   3.278  0.4819 -0.1701 -0.7459
  758MOL0     H 4535   8.999  10.778   3.589 -0.7486 -2.4300 -0.6249
  758MOL0     H 4536   8.929  10.902   3.798  0.1740 -0.1151 -2.6888
  758MOL0     H 4537   9.100  10.883   4.029  0.8611  0.1732  0.0679
  758MOL0     H 4538   9.096  10.723   4.116  0.5753  0.3701  1.7228
  758MOL0     H 4539   8.989  11.000   4.216 -0.5366  0.7750  0.6692
  758MOL0     H 4540   8.957  10.839   4.295  1.9249 -2.5697 -1.0311
  758MOL0     H 4541   9.128  10.980   4.416 -0.8800 -1.8033  1.2136
  758MOL0     H 4542   9.196  10.819   4.371 -0.1597 -2.1689 -2.7960
  758MOL0     H 4543   9.243  11.076   4.218 -2.2417  0.3915  0.3707
  758MOL0     H 4544   9.340  11.009   4.354  1.1894  2.3159 -1.4006
  758MOL0     H 4545   9.435  10.972   4.131  1.5892 -1.9543  1.5978
  758MOL0     H 4546   9.301  10.868   4.078 -0.5559 -1.4409  0.6699
  758MOL0     H 4547   9.478  10.797   4.316 -2.5923 -1.3042  1.8655
  758MOL0     H 4548   9.343  10.711   4.230 -3.2211  2.7707 -5.2057
  758MOL0     H 4549   9.501  10.731   4.017  1.8305  0.5619  0.0133
  758MOL0     H 4550   9.545  10.615   4.145 -3.1970 -0.7116 -0.3961
  758MOL0     H 4551   9.650  10.900   4.131 -0.2001  0.4678  0.3155
  758MOL0     H 4552   9.713  10.771   4.227 -1.4212 -0.3683 -0.0822
  758MOL0     H 4553   9.656  10.589   3.899  3.6834 -3.9896 -2.2994
  758MOL0     H 4554   9.903  10.639   3.623 -0.1222  1.6545  0.9892
  758MOL0     H 4555   9.764  10.550   3.670 -0.7096  0.3300 -0.9766
  758MOL0     H 4556   9.925  10.433   3.845 -0.2885  0.1225 -0.2485
  758MOL0     H 4557   9.919  10.362   3.695  0.7453 -2.5751  3.8910
  758MOL0     H 4558  10.100  10.501   3.601  1.4083 -2.9035  0.1340
  758MOL0     H 4559  10.117  10.586   3.755 -0.2188  1.9036 -0.5227
  758MOL0     H 4560  10.137  10.348   3.858 -1.5381 -2.0242 -1.0849
  758MOL0     H 4561  10.148  10.288   3.695  0.3797 -1.4341  0.9990
  758MOL0     H 4562  10.411  10.581   3.598  1.1455  1.6207 -2.0440
  758MOL0     H 4563  10.479  10.676   3.407 -2.2151 -1.5772  0.1534
  758MOL0     H 4564  10.507  10.575   3.271  1.3667 -0.4326 -0.5587
  758MOL0     H 4565  10.639  10.597   3.392 -0.4714  1.5021  2.3801
  758MOL0     H 4566  10.556  10.187   3.022  1.2552  2.2541 -1.2776
  758MOL0     H 4567  10.653  10.087   2.813  1.1803 -1.9699 -0.2972
  758MOL0     H 4568  10.932   9.984   2.622  0.3902 -1.2775 -1.2050
  758MOL0     H 4569  10.979  10.074   2.778  0.8978  1.3774 -2.7129
  758MOL0     H 4570  11.082   9.859   2.853 -2.4648  0.8697 -0.0632
  758MOL0     H 4571  11.059   9.786   2.692  1.5297  1.9781 -3.1533
  758MOL0     H 4572  11.273   9.827   2.711 -0.4606 -0.8857 -0.6418
  758MOL0     H 4573  11.259   9.996   2.765  0.5071  1.0274 -0.5388
  758MOL0     H 4574  11.145  10.040   2.543  0.9612  1.0669  0.5042
  758MOL0     H 4575  11.149   9.867   2.507 -0.6842 -0.4140  0.2014
  758MOL0     H 4576  11.393   9.850   2.489  0.8841 -0.4152 -1.0234
  758MOL0     H 4577  11.316   9.969   2.384 -1.6326 -1.0502  0.5522
  758MOL0     H 4578  11.492  10.005   2.638 -1.6267 -0.2672  0.7915
  758MOL0     H 4579  11.386  10.138   2.583  1.4853  1.6563 -1.8131
  758MOL0     H 4580  11.468  10.161   2.383 -0.5694  3.4155  2.9455
  758MOL0     H 4581  11.579  10.016   2.400  3.6864  2.0331  0.6636
  758MOL0     H 4582  11.590  10.266   2.577  2.0697  1.0983  0.7962
  758MOL0     H 4583  11.685  10.253   2.420  2.9274 -0.0816  0.9948
  758MOL0     H 4584  10.956   9.898   3.053 -0.3011 -0.2757 -0.7556
  758MOL0     H 4585  10.853  10.004   3.258 -3.2583 -0.8742  1.0322
  758MOL0     H 4586  10.483  10.117   3.460  1.9803  0.4942  0.8451
  758MOL0     H 4587  10.391  10.162   3.662 -0.2288  0.1254 -0.8645
  758MOL0     H 4588   8.936  10.535   4.021  2.1667 -0.5797  0.8272
  758MOL0     H 4589   9.006  10.415   3.812  0.2574  0.2587 -0.1777
  758MOL0     H 4590   9.224  10.414   3.419 -3.1913  1.1195  3.0158
  758MOL0     H 4591   9.303  10.285   3.214 -2.3061 -1.6518 -2.3327
  758MOL0     H 4592   9.272  10.007   3.128 -0.2291  0.2462 -0.1072
  758MOL0     H 4593   9.122  10.020   3.215 -0.2551  3.9932 -0.0742
  758MOL0     H 4594   8.990   9.934   3.023 -0.4704 -2.8000 -2.8608
  758MOL0     H 4595   9.129   9.828   3.017  0.8046  0.6679 -0.3880
  758MOL0     H 4596   9.076  10.069   2.842  2.4380  2.3716 -0.5940
  758MOL0     H 4597   9.235   9.996   2.848  0.5746 -3.5304 -0.6623
  758MOL0     H 4598   9.149   9.786   2.770 -0.8227 -0.0318  0.1677
  758MOL0     H 4599   9.126   9.935   2.667 -1.3358 -1.5684 -0.5519
  758MOL0     H 4600   8.735   9.820   2.685 -0.1060 -0.5011  0.3925
  758MOL0     H 4601   8.911  10.245   3.081 -0.4901  1.2081  0.6094
  758MOL0     H 4602   8.725  10.435   3.308  1.0448 -0.2691  0.3958
  758MOL0     H 4603   8.721  10.301   3.185 -1.4649 -3.2973  1.2327
  758MOL0     H 4604   8.724  10.270   3.353 -0.6867 -0.5385 -1.6876
  759MOL0     O 4605   8.441   4.554   3.799  0.1049  0.3367 -0.2329
  759MOL0     C 4606   8.404   4.541   3.684 -0.2458  0.6668 -0.3508
  759MOL0     O 4607   8.487   4.538   3.581  0.0252  0.0662  0.4227
  759MOL0     C 4608   8.623   4.522   3.601  0.3679  0.0734  0.5368
  759MOL0     C 4609   8.720   4.619   3.565 -0.0356 -0.1310 -0.1308
  759MOL0     C 4610   8.851   4.588   3.577 -1.1439 -0.5933 -0.8538
  759MOL0     C 4611   8.892   4.463   3.630  0.5291  0.3976  0.2110
  759MOL0     O 4612   9.021   4.422   3.652  0.8253 -0.2911 -0.7071
  759MOL0     C 4613   9.126   4.506   3.596  0.5749 -0.2253 -0.6979
  759MOL0     C 4614   9.256   4.480   3.671 -0.4700 -0.3990  0.5334
  759MOL0     C 4615   9.371   4.565   3.626 -0.3105 -0.3525 -0.3200
  759MOL0     C 4616   9.497   4.534   3.699  1.1018 -0.0469  0.3248
  759MOL0     C 4617   9.613   4.622   3.660 -0.8764  0.5169 -0.1558
  759MOL0     C 4618   9.746   4.551   3.676  0.0458  0.1633 -0.6685
  759MOL0     C 4619   9.873   4.642   3.663  0.3583 -0.3086 -0.9766
  759MOL0     C 4620  10.009   4.570   3.669 -0.0201  0.6679 -0.7639
  759MOL0     N 4621  10.123   4.651   3.651  0.0326  0.2087  0.1051
  759MOL0     C 4622  10.190   4.708   3.752  1.0935 -0.0240 -0.2240
  759MOL0     C 4623  10.292   4.778   3.690  0.9350  0.6605  0.3770
  759MOL0     C 4624  10.393   4.863   3.754 -0.1040  0.0921 -1.2408
  759MOL0     C 4625  10.324   4.971   3.836 -0.2237  0.0121  0.1245
  759MOL0     C 4626  10.427   5.051   3.923  0.8411  0.1277 -0.3865
  759MOL0     C 4627  10.547   5.103   3.852  0.5774 -0.4481  0.0435
  759MOL0     O 4628  10.648   5.014   3.818  0.2994  0.5561 -0.2476
  759MOL0     C 4629  10.771   5.066   3.804  0.4849 -0.3538 -0.5674
  759MOL0     C 4630  10.868   5.001   3.880  0.4764 -0.4455 -1.1268
  759MOL0     C 4631  10.999   5.056   3.873 -0.0499 -0.2507 -0.6961
  759MOL0     C 4632  11.104   4.992   3.962 -0.2175 -0.6994 -0.5982
  759MOL0     C 4633  11.020   5.178   3.799 -1.0095  0.1700  0.3218
  759MOL0     C 4634  11.160   5.223   3.797 -0.4229  0.4696  0.3338
  759MOL0     O 4635  11.206   5.318   3.884  0.2845 -0.7250  0.0331
  759MOL0     C 4636  11.111   5.402   3.934  0.0072  0.9743  0.0853
  759MOL0     C 4637  11.056   5.380   4.066  0.4030 -0.3973  0.2410
  759MOL0     C 4638  10.966   5.477   4.113  0.3146  0.3593 -0.1688
  759MOL0     C 4639  10.914   5.577   4.036  0.1344 -0.1301 -0.4614
  759MOL0     O 4640  10.836   5.671   4.097 -0.6952  0.8487  0.4741
  759MOL0     C 4641  10.791   5.780   4.028 -0.5213 -0.0963  0.5788
  759MOL0     C 4642  10.732   5.878   4.129  1.2578  0.0689  0.4723
  759MOL0     C 4643  10.588   5.855   4.179 -0.4808 -0.3177 -0.6915
  759MOL0     C 4644  10.481   5.897   4.077 -0.4090  0.6016  0.0366
  759MOL0     C 4645  10.339   5.870   4.119  0.1679 -0.4186  0.5319
  759MOL0     C 4646  10.230   5.915   4.013 -0.3025 -0.0272 -0.6107
  759MOL0     C 4647  10.084   5.895   4.069 -0.7560  0.3548  0.1483
  759MOL0     C 4648   9.980   5.925   3.961 -0.5575  0.0072 -0.0210
  759MOL0    Cl 4649   9.960   6.101   3.927 -0.3556  0.1048  0.4900
  759MOL0     C 4650  10.958   5.588   3.904  0.2856 -0.2627 -0.0014
  759MOL0     C 4651  11.056   5.498   3.855  0.2392 -0.0182  0.8758
  759MOL0     O 4652  11.231   5.168   3.716  0.8197 -1.2005 -0.6547
  759MOL0     C 4653  10.923   5.232   3.714  0.1861 -0.7798 -0.1847
  759MOL0     C 4654  10.794   5.176   3.715 -0.7403  0.2490 -0.9592
  759MOL0     N 4655  10.299   4.745   3.556 -0.4005  0.4708 -0.5207
  759MOL0     N 4656  10.197   4.664   3.536  0.3078  0.6547  0.2025
  759MOL0     C 4657   8.800   4.368   3.670  0.4150  0.1414 -0.3734
  759MOL0     C 4658   8.664   4.400   3.664 -0.4697 -0.8157  0.1839
  759MOL0     C 4659   8.271   4.517   3.675  0.7180  0.1582 -0.2224
  759MOL0     C 4660   8.225   4.404   3.601  0.4168 -0.2210 -0.0914
  759MOL0     C 4661   8.087   4.369   3.591  0.3587 -0.0042 -0.3984
  759MOL0     C 4662   7.992   4.453   3.645  0.8709 -0.2787  0.4281
  759MOL0     O 4663   7.855   4.426   3.623 -0.0645  0.6038 -0.0982
  759MOL0     C 4664   7.810   4.323   3.533 -0.0794  0.5303 -0.1453
  759MOL0     C 4665   7.821   4.371   3.383  0.1187 -0.1756 -0.4943
  759MOL0     C 4666   7.719   4.488   3.360  0.4440  0.2555  0.4500
  759MOL0     C 4667   7.656   4.488   3.225 -0.0168 -1.3410  0.8866
  759MOL0     C 4668   7.564   4.603   3.205 -0.2016  0.1758  0.0855
  759MOL0     C 4669   7.484   4.692   3.172  0.3341 -0.1252 -0.2661
  759MOL0     C 4670   8.040   4.569   3.717  0.2706 -0.1320 -0.6536
  759MOL0     C 4671   8.177   4.605   3.732  0.1039  1.0398 -0.1585
  759MOL0     C 4672   8.214   4.737   3.790 -0.1211  0.2854 -0.3189
  759MOL0     H 4673   8.696   4.715   3.520 -0.5631 -1.4137 -2.7846
  759MOL0     H 4674   8.919   4.660   3.531 -2.7121  1.8233  0.3839
  759MOL0     H 4675   9.088   4.603   3.627 -0.6721 -0.5247 -1.2396
  759MOL0     H 4676   9.146   4.498   3.488  1.2283  3.0300 -0.9225
  759MOL0     H 4677   9.238   4.479   3.778  1.1258 -1.1950  0.8228
  759MOL0     H 4678   9.280   4.375   3.650  0.3882  0.0970 -1.1839
  759MOL0     H 4679   9.392   4.565   3.518  1.7431 -1.7292  0.0186
  759MOL0     H 4680   9.345   4.669   3.647 -2.6065 -1.1140  0.8459
  759MOL0     H 4681   9.487   4.558   3.805  1.8589  6.5705 -0.6307
  759MOL0     H 4682   9.520   4.429   3.684 -0.3518 -0.5733  1.5942
  759MOL0     H 4683   9.613   4.716   3.716 -0.9729  2.1077 -2.7078
  759MOL0     H 4684   9.608   4.647   3.554 -1.5690 -0.5370 -0.3887
  759MOL0     H 4685   9.753   4.501   3.774 -0.5713  1.5473  0.1072
  759MOL0     H 4686   9.757   4.463   3.612  0.8686  0.1368 -0.5055
  759MOL0     H 4687   9.868   4.727   3.732 -0.1638  0.3644 -1.8193
  759MOL0     H 4688   9.866   4.683   3.562  3.3399  0.7411 -0.8693
  759MOL0     H 4689  10.024   4.506   3.757  0.3157  0.5499 -0.9058
  759MOL0     H 4690   9.991   4.497   3.589 -2.7311  0.3210  0.0521
  759MOL0     H 4691  10.166   4.714   3.858 -0.9239  3.3379 -0.7226
  759MOL0     H 4692  10.449   4.906   3.670  0.1267 -0.1613 -1.2188
  759MOL0     H 4693  10.463   4.812   3.821  1.3255  2.4040 -0.8386
  759MOL0     H 4694  10.255   5.035   3.779 -1.8713 -1.0676  0.8287
  759MOL0     H 4695  10.256   4.927   3.910  0.5748 -0.1640  0.7544
  759MOL0     H 4696  10.363   5.127   3.968 -3.1134 -3.5251  0.7809
  759MOL0     H 4697  10.465   4.996   4.010  2.0372  1.9804  0.3459
  759MOL0     H 4698  10.508   5.147   3.760 -2.3551  1.4157  2.0078
  759MOL0     H 4699  10.585   5.185   3.914  1.8723 -1.3909  0.5350
  759MOL0     H 4700  10.835   4.914   3.935  1.4289  0.9590  1.8680
  759MOL0     H 4701  11.061   4.901   4.003 -1.1570  0.7754  1.9484
  759MOL0     H 4702  11.130   5.061   4.043 -0.4725 -0.0961 -1.0155
  759MOL0     H 4703  11.197   4.974   3.907  0.0885  0.6736 -0.5649
  759MOL0     H 4704  11.083   5.295   4.128  0.7324  1.2027  2.4275
  759MOL0     H 4705  10.944   5.469   4.219  2.0591  0.7947  0.2714
  759MOL0     H 4706  10.878   5.822   3.976  0.5828 -0.3720  2.1218
  759MOL0     H 4707  10.716   5.765   3.950 -1.5879  1.1717  1.3219
  759MOL0     H 4708  10.805   5.878   4.211  0.4861 -0.7899  1.1876
  759MOL0     H 4709  10.731   5.977   4.082 -0.4502 -1.4189 -2.9810
  759MOL0     H 4710  10.566   5.904   4.273 -0.2265 -1.1025 -0.2093
  759MOL0     H 4711  10.582   5.748   4.204  0.6265 -0.4437 -0.9098
  759MOL0     H 4712  10.495   5.861   3.974 -1.1260  2.0603 -0.6082
  759MOL0     H 4713  10.487   6.004   4.056 -3.5837  0.7018 -0.7937
  759MOL0     H 4714  10.344   5.761   4.123  0.8612 -0.4857 -1.3004
  759MOL0     H 4715  10.320   5.916   4.217  4.0082  0.7074  0.9210
  759MOL0     H 4716  10.251   5.860   3.921  3.6226 -0.3259  0.2864
  759MOL0     H 4717  10.240   6.023   3.994  0.7523  0.5145  2.4693
  759MOL0     H 4718  10.051   5.949   4.158 -2.4665 -2.5499  1.4141
  759MOL0     H 4719  10.078   5.789   4.095  0.3036 -0.7372 -3.4574
  759MOL0     H 4720   9.886   5.878   3.990  2.1586 -3.8219  3.6440
  759MOL0     H 4721  10.012   5.886   3.864 -0.3708  0.6755 -0.2362
  759MOL0     H 4722  10.930   5.674   3.844 -0.5339  1.0817  2.1987
  759MOL0     H 4723  11.117   5.510   3.766 -1.9545 -0.4471 -0.7738
  759MOL0     H 4724  10.946   5.330   3.672  0.5242 -0.3190  1.0368
  759MOL0     H 4725  10.708   5.205   3.655 -2.0003 -2.0219 -0.3729
  759MOL0     H 4726   8.835   4.274   3.711  0.5542  0.1036 -0.5764
  759MOL0     H 4727   8.583   4.337   3.699 -1.2544 -0.9517 -1.7859
  759MOL0     H 4728   8.301   4.334   3.569  0.7238 -0.0308  0.2237
  759MOL0     H 4729   8.063   4.279   3.536 -3.1410  0.0119  0.8227
  759MOL0     H 4730   7.869   4.233   3.547 -0.8612 -0.4094 -2.4640
  759MOL0     H 4731   7.705   4.302   3.558 -0.3937  3.0208  1.0040
  759MOL0     H 4732   7.790   4.279   3.332 -0.2868 -0.3589  0.0683
  759MOL0     H 4733   7.918   4.412   3.354  0.0031 -0.1438 -0.8508
  759MOL0     H 4734   7.640   4.478   3.436  0.7319  1.9833  1.0032
  759MOL0     H 4735   7.767   4.585   3.373  1.0318 -0.2919  2.9707
  759MOL0     H 4736   7.594   4.398   3.222 -1.5000 -0.3318  0.0066
  759MOL0     H 4737   7.739   4.484   3.153  1.4486 -1.4962  2.4963
  759MOL0     H 4738   7.414   4.766   3.140 -1.0495 -0.6975  1.2779
  759MOL0     H 4739   7.962   4.629   3.762  0.8286 -0.9933  1.5829
  759MOL0     H 4740   8.260   4.718   3.888 -1.4853 -0.5908  0.1926
  759MOL0     H 4741   8.298   4.778   3.734  3.5927 -2.8878  2.3643
  759MOL0     H 4742   8.134   4.809   3.812  1.2707  1.1728  2.2375
  760MOL0     O 4743   2.649   5.164   0.651  0.6553  0.0173  0.7458
  760MOL0     C 4744   2.620   5.183   0.766  1.2054  0.3919 -0.2575
  760MOL0     O 4745   2.694   5.249   0.854  0.4500  0.6346 -0.1562
  760MOL0     C 4746   2.822   5.272   0.823  0.7532  0.0683 -0.5126
  760MOL0     C 4747   2.868   5.403   0.819  0.1291 -0.1855  0.5120
  760MOL0     C 4748   3.000   5.440   0.788 -0.6091 -0.1465  0.0389
  760MOL0     C 4749   3.089   5.336   0.748 -0.1032  0.1321 -1.0118
  760MOL0     O 4750   3.222   5.363   0.716 -0.0356  0.5053 -0.8650
  760MOL0     C 4751   3.262   5.502   0.732  0.2511 -0.7007 -0.3837
  760MOL0     C 4752   3.408   5.530   0.695  0.0695  0.0157 -0.1417
  760MOL0     C 4753   3.501   5.448   0.786 -0.3542  0.0376 -0.3097
  760MOL0     C 4754   3.647   5.504   0.798  0.6727  0.1120 -0.0376
  760MOL0     C 4755   3.759   5.405   0.851  0.3555  0.4212 -0.1965
  760MOL0     C 4756   3.798   5.293   0.761  0.4725 -0.7709  0.6052
  760MOL0     C 4757   3.886   5.191   0.827  0.4008 -0.1716 -0.0874
  760MOL0     C 4758   4.026   5.242   0.858  0.0700  0.5052  0.7586
  760MOL0     N 4759   4.113   5.123   0.891  0.0033 -0.2179 -0.6301
  760MOL0     C 4760   4.121   5.052   1.009  0.9494  0.2787  0.5335
  760MOL0     C 4761   4.231   4.964   0.985  0.1837 -0.3919 -0.7551
  760MOL0     C 4762   4.275   4.873   1.089  0.0286  0.9378  0.1914
  760MOL0     C 4763   4.195   4.741   1.088 -0.8750 -0.1787  0.1728
  760MOL0     C 4764   4.203   4.666   0.956 -0.0630  0.1996 -0.0098
  760MOL0     C 4765   4.339   4.606   0.916  0.2158  0.0478  1.0156
  760MOL0     O 4766   4.395   4.536   1.024 -0.7806  0.1655  0.0647
  760MOL0     C 4767   4.505   4.454   0.988  0.7382  0.5579  0.1379
  760MOL0     C 4768   4.537   4.348   1.081 -0.2039 -0.9476 -0.3226
  760MOL0     C 4769   4.648   4.264   1.066 -0.9963 -0.6185  0.5884
  760MOL0     C 4770   4.665   4.142   1.158 -0.4267  0.2956  0.1465
  760MOL0     C 4771   4.735   4.287   0.954  0.3020 -0.2352 -0.6065
  760MOL0     C 4772   4.849   4.197   0.903 -0.1272  1.1492 -0.9056
  760MOL0     O 4773   4.926   4.229   0.795 -0.1317 -0.9556 -0.6379
  760MOL0     C 4774   5.013   4.136   0.739 -0.2897 -0.5810 -0.0616
  760MOL0     C 4775   4.994   4.074   0.619  0.1766 -0.6857  0.2280
  760MOL0     C 4776   5.094   3.998   0.558 -0.0582 -0.0603  0.0131
  760MOL0     C 4777   5.198   3.959   0.634  0.1259  0.5231 -0.3497
  760MOL0     O 4778   5.279   3.856   0.599  0.2444 -0.1352  0.3494
  760MOL0     C 4779   5.226   3.751   0.516 -0.4393 -0.1304 -0.0378
  760MOL0     C 4780   5.316   3.631   0.523 -0.5489 -0.4380 -0.4501
  760MOL0     C 4781   5.439   3.661   0.443  0.4254  0.1285 -0.1272
  760MOL0     C 4782   5.423   3.646   0.288  0.5977  0.0205  0.4500
  760MOL0     C 4783   5.554   3.660   0.221  0.2451  0.2537  0.0406
  760MOL0     C 4784   5.656   3.552   0.254 -0.3863  0.0235  1.0007
  760MOL0     C 4785   5.784   3.599   0.192  0.9038 -0.4125  0.6431
  760MOL0     C 4786   5.897   3.505   0.207 -0.0866  0.0480  0.4964
  760MOL0    Cl 4787   5.943   3.477   0.383 -0.0177 -0.2518  0.1829
  760MOL0     C 4788   5.217   4.010   0.757 -0.3711 -0.7120  0.7155
  760MOL0     C 4789   5.131   4.101   0.810 -0.0924  0.1823  0.7809
  760MOL0     O 4790   4.865   4.084   0.964  0.7600  0.5089 -0.0136
  760MOL0     C 4791   4.704   4.400   0.871 -0.8229 -0.4699 -0.2446
  760MOL0     C 4792   4.593   4.483   0.885 -1.0955  1.0470  0.0818
  760MOL0     N 4793   4.278   4.989   0.861 -0.0377  0.4022 -0.0238
  760MOL0     N 4794   4.208   5.083   0.806  0.4884 -0.1255  0.2135
  760MOL0     C 4795   3.052   5.201   0.759  0.2058  0.1180  1.3811
  760MOL0     C 4796   2.918   5.171   0.795  1.1530  0.0056  0.1051
  760MOL0     C 4797   2.479   5.134   0.809 -0.5534  0.2800 -1.1928
  760MOL0     C 4798   2.413   5.201   0.912  0.0528 -0.0693  0.4214
  760MOL0     C 4799   2.283   5.158   0.957 -0.6461  0.8342 -0.4328
  760MOL0     C 4800   2.228   5.039   0.908 -0.9176 -0.5764 -0.0244
  760MOL0     O 4801   2.117   4.981   0.950  0.3232 -0.4595  0.5023
  760MOL0     C 4802   2.041   5.023   1.069 -0.3616 -0.4160  0.2544
  760MOL0     C 4803   1.909   5.104   1.032  0.1619 -0.2103  0.0082
  760MOL0     C 4804   1.940   5.206   0.932  0.2817  0.9000  0.2345
  760MOL0     C 4805   1.817   5.291   0.901 -0.6134  0.7949 -0.4146
  760MOL0     C 4806   1.867   5.379   0.796  0.8874 -0.4372  0.0207
  760MOL0     C 4807   1.902   5.442   0.699 -0.1627  1.0443 -0.0383
  760MOL0     C 4808   2.297   4.976   0.803  0.1541  0.7832 -0.6740
  760MOL0     C 4809   2.418   5.014   0.758 -0.1442 -0.1412 -1.1803
  760MOL0     C 4810   2.468   4.932   0.640  0.4816 -0.3707 -0.2843
  760MOL0     H 4811   2.800   5.478   0.857  0.1714 -0.4691  1.1502
  760MOL0     H 4812   3.025   5.545   0.795  0.0175  0.1293 -3.9968
  760MOL0     H 4813   3.242   5.543   0.832 -2.0900  0.9912 -1.4766
  760MOL0     H 4814   3.207   5.565   0.662 -1.9637 -2.3089 -0.2079
  760MOL0     H 4815   3.427   5.519   0.588 -0.9787  3.8225 -0.8705
  760MOL0     H 4816   3.433   5.634   0.717 -1.1191 -0.0241  1.6083
  760MOL0     H 4817   3.465   5.444   0.889  2.3781  0.1557  0.7414
  760MOL0     H 4818   3.496   5.346   0.747 -0.0005  0.2159 -0.8425
  760MOL0     H 4819   3.675   5.533   0.696  0.1388  2.3715  0.4130
  760MOL0     H 4820   3.642   5.596   0.856  0.4354  0.4493 -0.5834
  760MOL0     H 4821   3.734   5.376   0.953 -0.6768  3.4260  0.5167
  760MOL0     H 4822   3.846   5.472   0.850 -0.2678  1.2731 -1.9236
  760MOL0     H 4823   3.707   5.251   0.717  1.4685 -1.5301 -0.8106
  760MOL0     H 4824   3.849   5.330   0.672  0.3946 -2.3115 -0.1082
  760MOL0     H 4825   3.884   5.107   0.757 -0.7455 -1.2556  1.1886
  760MOL0     H 4826   3.843   5.143   0.915  0.9573 -2.9967 -1.2247
  760MOL0     H 4827   4.080   5.291   0.777  2.5959 -2.7051  0.2692
  760MOL0     H 4828   4.023   5.295   0.954 -1.1511  1.2244  0.3447
  760MOL0     H 4829   4.068   5.067   1.102  1.9263  0.3316  1.1012
  760MOL0     H 4830   4.263   4.925   1.184 -4.7682  1.5216 -0.5083
  760MOL0     H 4831   4.380   4.844   1.075 -0.6123 -2.9390  2.0698
  760MOL0     H 4832   4.230   4.676   1.169 -1.3096  0.3690  0.8116
  760MOL0     H 4833   4.091   4.768   1.109 -0.6757 -0.7824  2.2132
  760MOL0     H 4834   4.130   4.584   0.960 -2.3734  2.1364  0.1483
  760MOL0     H 4835   4.167   4.728   0.873 -3.1097  0.6007  1.4572
  760MOL0     H 4836   4.336   4.549   0.822  1.2236  0.9169  0.4250
  760MOL0     H 4837   4.407   4.689   0.894 -1.1855  0.8242 -0.6342
  760MOL0     H 4838   4.468   4.337   1.164 -0.4840 -0.1506 -0.4350
  760MOL0     H 4839   4.599   4.137   1.244 -0.2796 -0.7616  0.2071
  760MOL0     H 4840   4.767   4.146   1.196 -1.0426  0.7244  1.8095
  760MOL0     H 4841   4.651   4.048   1.105  1.7048 -0.1747  0.3176
  760MOL0     H 4842   4.900   4.095   0.570  0.2317  0.2529  0.5198
  760MOL0     H 4843   5.081   3.963   0.456 -1.3697 -0.5041  0.3223
  760MOL0     H 4844   5.128   3.727   0.558 -0.1116  0.5089  1.1506
  760MOL0     H 4845   5.216   3.785   0.413 -0.0658 -3.0156 -1.1303
  760MOL0     H 4846   5.335   3.608   0.628 -2.6502  0.3363  0.1367
  760MOL0     H 4847   5.259   3.553   0.473 -2.0269  0.1324  0.3014
  760MOL0     H 4848   5.512   3.585   0.473 -0.7499 -1.0347 -0.1097
  760MOL0     H 4849   5.485   3.755   0.475  1.3637 -0.0835 -0.7936
  760MOL0     H 4850   5.355   3.721   0.248  1.2677  0.2435 -0.2969
  760MOL0     H 4851   5.390   3.546   0.258  0.0409  1.2139 -3.4046
  760MOL0     H 4852   5.546   3.659   0.112 -0.3145 -2.8484  0.0199
  760MOL0     H 4853   5.603   3.755   0.247  1.5206 -0.1783 -0.6810
  760MOL0     H 4854   5.632   3.455   0.211  0.9328 -0.9141  2.2755
  760MOL0     H 4855   5.689   3.543   0.358  1.6128  2.1374  0.6179
  760MOL0     H 4856   5.811   3.699   0.227 -1.5203  0.8615 -0.7880
  760MOL0     H 4857   5.764   3.608   0.084  1.3060 -2.0816  0.4029
  760MOL0     H 4858   5.989   3.542   0.160  1.4759 -1.3505  2.2926
  760MOL0     H 4859   5.873   3.409   0.160 -1.4640  0.4354  0.3796
  760MOL0     H 4860   5.303   3.971   0.811  1.5498  1.0672 -0.8909
  760MOL0     H 4861   5.147   4.150   0.906  0.4793  2.0528 -0.2087
  760MOL0     H 4862   4.772   4.425   0.791 -2.6422 -0.4677 -1.8756
  760MOL0     H 4863   4.585   4.562   0.810  3.5575  1.3029 -0.4134
  760MOL0     H 4864   3.121   5.123   0.730 -1.2479 -1.5811  2.3390
  760MOL0     H 4865   2.877   5.070   0.804 -2.4821  1.3919  1.3460
  760MOL0     H 4866   2.459   5.273   0.978  1.7907 -1.8839  1.2711
  760MOL0     H 4867   2.223   5.210   1.031  1.2731  2.0058  0.3682
  760MOL0     H 4868   2.030   4.930   1.124 -0.5750 -0.1759  0.6178
  760MOL0     H 4869   2.101   5.080   1.141 -0.0359 -2.5785  1.7848
  760MOL0     H 4870   1.863   5.139   1.125 -0.4004 -1.0302  0.0482
  760MOL0     H 4871   1.850   5.029   0.978 -2.1639  1.6214 -0.1375
  760MOL0     H 4872   2.016   5.275   0.970  2.1949 -1.2034  0.5270
  760MOL0     H 4873   1.968   5.156   0.838  0.1751 -0.5423  0.9376
  760MOL0     H 4874   1.810   5.359   0.987 -0.2688  1.7502 -1.1257
  760MOL0     H 4875   1.729   5.228   0.883 -0.4839  0.4932 -0.0040
  760MOL0     H 4876   1.941   5.491   0.612 -0.9126 -0.6811 -1.4229
  760MOL0     H 4877   2.256   4.882   0.769  1.8112  0.8089 -2.9829
  760MOL0     H 4878   2.576   4.917   0.650  0.6513 -0.1034 -1.5619
  760MOL0     H 4879   2.418   4.835   0.638  0.1350 -0.2485  1.4320
  760MOL0     H 4880   2.439   4.993   0.554 -1.3304  2.3845  2.1191
  761MOL0     O 4881   3.911   7.312   4.150  0.0357  0.8725 -0.2121
  761MOL0     C 4882   3.800   7.287   4.106  0.3573  0.9305 -0.2463
  761MOL0     O 4883   3.751   7.155   4.101  1.8178 -0.7494 -0.2710
  761MOL0     C 4884   3.836   7.065   4.147 -0.2795  0.7081 -0.3087
  761MOL0     C 4885   3.862   7.047   4.289  0.7539 -0.5457  0.1650
  761MOL0     C 4886   3.955   6.954   4.329 -0.2097  0.9228 -0.1043
  761MOL0     C 4887   4.034   6.881   4.234 -0.2964  0.0122 -0.3251
  761MOL0     O 4888   4.122   6.784   4.259  0.2085 -1.0029  0.1732
  761MOL0     C 4889   4.165   6.740   4.388 -0.5758 -0.2695  0.5907
  761MOL0     C 4890   4.317   6.727   4.376 -0.1665 -0.3812 -1.2246
  761MOL0     C 4891   4.385   6.732   4.512 -0.2974  0.0938  0.2631
  761MOL0     C 4892   4.540   6.723   4.509  0.1276  0.8909  0.0680
  761MOL0     C 4893   4.612   6.726   4.639 -1.0720 -0.4618  1.0395
  761MOL0     C 4894   4.762   6.722   4.609  0.4990  0.3629 -0.4260
  761MOL0     C 4895   4.838   6.743   4.735 -0.1087 -0.0121  0.2966
  761MOL0     C 4896   4.833   6.890   4.780 -0.6870 -0.4211  0.1508
  761MOL0     N 4897   4.903   6.915   4.906 -0.3174  1.1936 -0.6841
  761MOL0     C 4898   4.896   6.835   5.016  0.4481  0.8920 -0.1891
  761MOL0     C 4899   4.993   6.889   5.103  0.1960  1.1755  0.8625
  761MOL0     C 4900   5.035   6.845   5.238  0.1157  0.9606  0.7991
  761MOL0     C 4901   5.175   6.890   5.281 -0.3515 -0.0519 -1.0180
  761MOL0     C 4902   5.161   7.019   5.365 -0.3960 -0.2807  0.3777
  761MOL0     C 4903   5.297   7.069   5.412 -1.1941  0.1690 -0.8131
  761MOL0     O 4904   5.359   6.957   5.476  0.2096  0.0756  0.7828
  761MOL0     C 4905   5.503   6.948   5.472 -0.7271 -0.1634 -0.0908
  761MOL0     C 4906   5.560   6.827   5.515  0.4834  0.0360 -0.2541
  761MOL0     C 4907   5.696   6.811   5.503  0.2662 -0.3084 -0.6955
  761MOL0     C 4908   5.753   6.670   5.518  0.0727  0.9998 -0.4545
  761MOL0     C 4909   5.785   6.919   5.476 -0.1909  0.0583 -0.1334
  761MOL0     C 4910   5.929   6.914   5.447 -0.6487 -0.2786 -0.4487
  761MOL0     O 4911   6.001   7.025   5.484 -0.6465  0.4636 -0.0697
  761MOL0     C 4912   6.134   7.039   5.450  0.2194 -0.7948 -0.1116
  761MOL0     C 4913   6.162   7.176   5.429 -0.5275 -0.0207 -0.2246
  761MOL0     C 4914   6.292   7.207   5.397 -0.5520 -0.4793 -0.5627
  761MOL0     C 4915   6.398   7.114   5.410  0.3638 -0.5505 -0.5467
  761MOL0     O 4916   6.524   7.167   5.389  0.3432 -0.3674  0.3231
  761MOL0     C 4917   6.640   7.089   5.382  0.4228 -0.0207 -0.2178
  761MOL0     C 4918   6.768   7.166   5.322 -0.4588  0.0498  0.7014
  761MOL0     C 4919   6.832   7.253   5.426 -0.6288 -0.5996 -0.2547
  761MOL0     C 4920   6.912   7.355   5.350  0.4057  0.1752 -0.2741
  761MOL0     C 4921   6.986   7.454   5.439 -0.6885 -0.0697  0.2900
  761MOL0     C 4922   7.095   7.388   5.526  0.0559 -1.2881 -0.0556
  761MOL0     C 4923   7.189   7.475   5.611  0.7297 -0.7956  0.0655
  761MOL0     C 4924   7.114   7.579   5.699  0.4799  0.2558  0.6097
  761MOL0    Cl 4925   7.088   7.731   5.613  0.2195 -0.3615 -0.2049
  761MOL0     C 4926   6.368   6.983   5.448 -0.7324 -0.4194  0.1661
  761MOL0     C 4927   6.239   6.945   5.463 -0.1230  0.5018 -0.2345
  761MOL0     O 4928   5.981   6.814   5.402  0.6937  0.2473 -0.6820
  761MOL0     C 4929   5.730   7.040   5.447  0.3783 -0.2156  0.1072
  761MOL0     C 4930   5.590   7.058   5.434 -0.0140 -0.7391  0.0400
  761MOL0     N 4931   5.057   6.984   5.028  0.2208 -0.3539 -0.5945
  761MOL0     N 4932   4.995   7.007   4.919  0.4984  0.3825 -0.0058
  761MOL0     C 4933   4.016   6.918   4.097  0.0054  0.0904  0.7717
  761MOL0     C 4934   3.913   7.003   4.051 -0.1367 -0.0020 -0.0345
  761MOL0     C 4935   3.704   7.392   4.057  0.4711  1.0675  0.9514
  761MOL0     C 4936   3.584   7.353   4.000 -0.1369  0.0990  0.5716
  761MOL0     C 4937   3.478   7.436   3.969  0.4629 -0.1614 -0.1867
  761MOL0     C 4938   3.505   7.576   3.981  0.2787 -0.3470  1.0819
  761MOL0     O 4939   3.422   7.681   3.939  0.3033  0.0602 -0.5811
  761MOL0     C 4940   3.303   7.650   3.867 -0.5516  0.1752  0.1706
  761MOL0     C 4941   3.250   7.775   3.786  0.4723  0.2336 -0.3617
  761MOL0     C 4942   3.186   7.872   3.885 -0.2514  0.1077 -0.5332
  761MOL0     C 4943   3.035   7.866   3.901 -0.4737 -0.0536 -0.8825
  761MOL0     C 4944   2.958   7.883   3.782  0.2979 -0.0680  0.1487
  761MOL0     C 4945   2.898   7.921   3.682  0.0009 -0.0380 -0.0641
  761MOL0     C 4946   3.631   7.615   4.023  1.0043  0.3172 -0.3198
  761MOL0     C 4947   3.728   7.533   4.075  0.2968  0.3201  0.2201
  761MOL0     C 4948   3.858   7.599   4.131  0.2138  0.0242  1.0201
  761MOL0     H 4949   3.810   7.118   4.352  1.3898  0.3023 -0.2498
  761MOL0     H 4950   3.941   6.948   4.436 -0.6161  1.7365 -0.1010
  761MOL0     H 4951   4.119   6.641   4.400  2.4703 -1.8655  0.0995
  761MOL0     H 4952   4.136   6.818   4.459 -2.0991  1.7868 -2.0927
  761MOL0     H 4953   4.339   6.632   4.327 -0.3815 -1.4701  0.6873
  761MOL0     H 4954   4.353   6.806   4.309  2.9965 -1.0582 -0.4660
  761MOL0     H 4955   4.361   6.822   4.570  2.4014  2.1800 -1.6005
  761MOL0     H 4956   4.343   6.648   4.567  1.9398 -1.1537  0.1622
  761MOL0     H 4957   4.557   6.621   4.474 -3.7648 -0.7792  2.4376
  761MOL0     H 4958   4.582   6.803   4.447  0.1990  0.9482  0.1889
  761MOL0     H 4959   4.597   6.649   4.715  3.6479 -0.6525  2.1285
  761MOL0     H 4960   4.579   6.823   4.677  0.0304  0.5436 -0.4435
  761MOL0     H 4961   4.789   6.628   4.560  3.6091  0.2346  1.2397
  761MOL0     H 4962   4.798   6.784   4.526  1.4826 -1.7262 -1.6612
  761MOL0     H 4963   4.939   6.701   4.727 -1.0522 -2.4255  0.4019
  761MOL0     H 4964   4.791   6.688   4.816 -0.4715 -0.4686 -0.2173
  761MOL0     H 4965   4.880   6.947   4.700  0.7857 -2.4546 -0.5367
  761MOL0     H 4966   4.730   6.923   4.788 -0.7013 -0.9236  2.6794
  761MOL0     H 4967   4.854   6.736   5.029  2.6882 -0.4436 -2.2560
  761MOL0     H 4968   5.044   6.736   5.236  0.7419  1.0023 -1.7072
  761MOL0     H 4969   4.958   6.869   5.312  0.7946  1.0581  1.5008
  761MOL0     H 4970   5.213   6.812   5.348 -2.6882  0.4877  1.1077
  761MOL0     H 4971   5.236   6.896   5.191 -1.3662  3.2288 -1.6259
  761MOL0     H 4972   5.126   7.101   5.302  2.5086  1.8450  1.2885
  761MOL0     H 4973   5.086   7.004   5.443  0.1883 -1.2539  0.7670
  761MOL0     H 4974   5.351   7.087   5.318 -0.2875 -0.1027 -0.3536
  761MOL0     H 4975   5.291   7.155   5.479  0.3461 -2.3523  2.8665
  761MOL0     H 4976   5.486   6.748   5.527 -0.4152  0.8155 -0.5223
  761MOL0     H 4977   5.808   6.664   5.612 -1.7379  0.8273  0.6252
  761MOL0     H 4978   5.804   6.636   5.427 -2.1071  1.9881 -2.1489
  761MOL0     H 4979   5.679   6.594   5.544  0.2243  0.7847 -0.6480
  761MOL0     H 4980   6.080   7.243   5.406 -0.6902 -0.6411 -1.5318
  761MOL0     H 4981   6.318   7.307   5.364  0.8026 -0.3878  0.6547
  761MOL0     H 4982   6.663   7.023   5.467  0.7570  0.5110  0.1072
  761MOL0     H 4983   6.618   7.018   5.302  2.9382 -2.1028  0.7928
  761MOL0     H 4984   6.833   7.087   5.284 -1.8243 -1.5521  1.5259
  761MOL0     H 4985   6.736   7.227   5.237  0.1404 -2.2484 -1.2887
  761MOL0     H 4986   6.904   7.195   5.484 -0.7116 -1.7148 -1.2219
  761MOL0     H 4987   6.758   7.299   5.493 -0.5437  1.7325 -1.6566
  761MOL0     H 4988   6.847   7.416   5.286  0.4189 -1.5107 -2.0055
  761MOL0     H 4989   6.982   7.302   5.285  1.0525  1.2108 -0.4392
  761MOL0     H 4990   7.020   7.531   5.369 -3.6724 -0.4179 -1.7169
  761MOL0     H 4991   6.918   7.495   5.514 -2.2416  0.1250 -1.1627
  761MOL0     H 4992   7.155   7.335   5.451  0.1238 -0.6371 -0.4680
  761MOL0     H 4993   7.045   7.319   5.594  1.2085 -2.2158 -0.1017
  761MOL0     H 4994   7.246   7.546   5.549  0.5884  1.7135  2.5898
  761MOL0     H 4995   7.249   7.410   5.674  0.1196 -1.0433  0.4019
  761MOL0     H 4996   7.174   7.603   5.787 -1.8323  0.2392  2.3003
  761MOL0     H 4997   7.019   7.536   5.731 -0.2396  2.1505  1.2114
  761MOL0     H 4998   6.441   6.911   5.484 -0.2392  1.0520  2.3084
  761MOL0     H 4999   6.214   6.843   5.493 -1.6992 -0.1760 -3.3679
  761MOL0     H 5000   5.792   7.125   5.420 -0.1286 -0.0372 -0.5163
  761MOL0     H 5001   5.543   7.154   5.413 -3.0506 -1.9002  0.9502
  761MOL0     H 5002   4.079   6.864   4.027  1.3202  0.8667  1.3338
  761MOL0     H 5003   3.905   7.026   3.945 -1.0589  0.6508  0.1683
  761MOL0     H 5004   3.585   7.247   3.975  0.1150 -0.1278  1.5039
  761MOL0     H 5005   3.387   7.402   3.921  2.0423 -2.8317 -1.5130
  761MOL0     H 5006   3.322   7.576   3.788  2.7785  1.9729 -0.9262
  761MOL0     H 5007   3.223   7.624   3.937 -1.4988 -2.1273 -1.6306
  761MOL0     H 5008   3.174   7.732   3.720  1.0549 -1.9120  0.2613
  761MOL0     H 5009   3.334   7.814   3.728  0.2055  1.0247 -0.2280
  761MOL0     H 5010   3.222   7.854   3.987  1.8050 -0.6973 -1.3503
  761MOL0     H 5011   3.219   7.972   3.857  1.2315 -0.5109 -1.0938
  761MOL0     H 5012   3.006   7.935   3.980  1.1965  1.3275 -1.3989
  761MOL0     H 5013   3.006   7.769   3.943 -0.1899  0.4636  0.5673
  761MOL0     H 5014   2.844   7.958   3.597 -0.8042  1.1258  0.9039
  761MOL0     H 5015   3.650   7.722   4.016 -1.7886  0.8834 -0.4286
  761MOL0     H 5016   3.896   7.548   4.220  0.2374 -0.1159  0.9305
  761MOL0     H 5017   3.929   7.587   4.048 -2.5007  0.6159 -1.5596
  761MOL0     H 5018   3.847   7.704   4.162 -0.1578  0.2323  0.2283
  762MOL0     O 5019   5.272   5.871   7.369  0.1443 -0.8662  0.2381
  762MOL0     C 5020   5.312   5.785   7.451  0.6826 -0.0794 -0.1212
  762MOL0     O 5021   5.433   5.715   7.438  0.0807 -0.2860  0.5395
  762MOL0     C 5022   5.515   5.749   7.332  0.1327 -0.3602 -0.2093
  762MOL0     C 5023   5.637   5.821   7.354  0.1318 -0.2886  0.1481
  762MOL0     C 5024   5.723   5.843   7.252 -0.4181 -0.3148 -0.1874
  762MOL0     C 5025   5.689   5.816   7.118  0.1264  0.2261 -0.3498
  762MOL0     O 5026   5.769   5.847   7.008 -0.5764  0.0571  0.0662
  762MOL0     C 5027   5.907   5.893   7.022  0.1077  0.2756 -0.5249
  762MOL0     C 5028   6.009   5.784   7.067  0.2708 -0.5493 -0.0793
  762MOL0     C 5029   6.155   5.827   7.053 -0.8534 -0.0630  0.4018
  762MOL0     C 5030   6.242   5.709   7.092  0.5820  0.1468 -0.3036
  762MOL0     C 5031   6.389   5.740   7.064 -0.1266 -0.0815  0.3440
  762MOL0     C 5032   6.485   5.624   7.048  0.0813 -0.0672 -0.8123
  762MOL0     C 5033   6.628   5.666   7.007  0.9862  1.5680  0.1336
  762MOL0     C 5034   6.679   5.771   7.102 -0.0397 -0.4147 -0.5583
  762MOL0     N 5035   6.827   5.782   7.092  0.0303  0.4147 -0.5626
  762MOL0     C 5036   6.918   5.823   7.180 -1.1559 -0.3486 -0.2815
  762MOL0     C 5037   7.036   5.834   7.119 -0.4119  0.8649 -0.0240
  762MOL0     C 5038   7.166   5.867   7.205  0.4197 -0.3416  0.2330
  762MOL0     C 5039   7.290   5.837   7.120  0.3366  0.0072 -0.4479
  762MOL0     C 5040   7.309   5.690   7.085 -0.1872  0.5070 -0.0924
  762MOL0     C 5041   7.437   5.675   6.997  1.0554  0.7347  0.1671
  762MOL0     O 5042   7.556   5.717   7.072 -0.9946 -0.2466 -0.6315
  762MOL0     C 5043   7.671   5.760   7.006 -0.2658 -0.1926 -0.6366
  762MOL0     C 5044   7.652   5.833   6.887  0.4872 -0.0235  0.0508
  762MOL0     C 5045   7.755   5.861   6.802 -1.1086  0.2987  1.1183
  762MOL0     C 5046   7.719   5.952   6.676 -0.2163 -0.3888  1.3270
  762MOL0     C 5047   7.888   5.813   6.831  0.4156  0.1637 -0.2168
  762MOL0     C 5048   8.012   5.829   6.747 -0.3750 -0.0142 -1.0996
  762MOL0     O 5049   8.133   5.814   6.817  0.1139 -0.3483  0.6577
  762MOL0     C 5050   8.255   5.788   6.748  0.7523  0.0788  0.0127
  762MOL0     C 5051   8.368   5.808   6.827  0.2540  0.4220 -0.1056
  762MOL0     C 5052   8.496   5.779   6.781  0.0148 -1.1385 -0.5149
  762MOL0     C 5053   8.510   5.747   6.648  0.6882  0.5181 -0.1792
  762MOL0     O 5054   8.638   5.709   6.603  0.1197  0.1635 -0.5983
  762MOL0     C 5055   8.694   5.810   6.520  0.2429 -0.9239 -0.3177
  762MOL0     C 5056   8.852   5.805   6.500 -0.0764  0.6346 -0.5103
  762MOL0     C 5057   8.903   5.911   6.401 -1.3054 -0.2042 -0.6872
  762MOL0     C 5058   8.829   5.919   6.264 -0.3935 -0.0200 -0.2189
  762MOL0     C 5059   8.902   6.016   6.178 -0.3186 -0.0234  0.9671
  762MOL0     C 5060   8.823   6.060   6.051  0.1392 -0.3508 -0.2374
  762MOL0     C 5061   8.923   6.133   5.949 -0.6502  0.6391 -0.2034
  762MOL0     C 5062   8.832   6.221   5.862  1.1790  0.1627 -0.4090
  762MOL0    Cl 5063   8.947   6.314   5.763  0.1854 -0.0974 -0.7509
  762MOL0     C 5064   8.395   5.727   6.564  1.0860 -0.4191  0.0054
  762MOL0     C 5065   8.270   5.739   6.613  0.9996 -0.4705  0.4325
  762MOL0     O 5066   8.003   5.858   6.628 -0.1540 -0.5453 -0.7746
  762MOL0     C 5067   7.900   5.741   6.953 -0.5221  0.0778 -0.0467
  762MOL0     C 5068   7.797   5.713   7.039 -0.4538  0.0014 -0.2513
  762MOL0     N 5069   7.025   5.786   6.983 -0.0530 -0.4746 -0.0258
  762MOL0     N 5070   6.897   5.758   6.976  0.4381 -0.9396 -0.7926
  762MOL0     C 5071   5.580   5.735   7.090 -0.1325  0.5069 -0.1122
  762MOL0     C 5072   5.496   5.700   7.200  0.4847  0.6230 -0.0129
  762MOL0     C 5073   5.244   5.784   7.579  0.3188  0.1439  0.4147
  762MOL0     C 5074   5.332   5.770   7.689  0.4458 -0.2098 -0.3205
  762MOL0     C 5075   5.275   5.753   7.824  0.1699  0.8480 -0.3828
  762MOL0     C 5076   5.139   5.775   7.850  0.5516  0.2722  0.3809
  762MOL0     O 5077   5.078   5.756   7.968  0.7654 -0.0156 -0.6013
  762MOL0     C 5078   5.146   5.767   8.088  0.5168 -0.3463  0.0327
  762MOL0     C 5079   5.051   5.776   8.203 -0.3322 -0.5760  0.0261
  762MOL0     C 5080   4.942   5.673   8.202  0.9075 -0.6846 -0.5486
  762MOL0     C 5081   4.850   5.672   8.326 -0.5693 -0.4969  1.2572
  762MOL0     C 5082   4.758   5.566   8.340  0.3703  0.3079  0.0656
  762MOL0     C 5083   4.680   5.476   8.335  0.2125  0.2910  0.5253
  762MOL0     C 5084   5.053   5.783   7.736 -0.4912  1.1906 -0.4886
  762MOL0     C 5085   5.102   5.785   7.602  0.3715 -0.5213 -0.5804
  762MOL0     C 5086   5.003   5.790   7.493 -0.5879  0.3979  0.0797
  762MOL0     H 5087   5.658   5.868   7.450 -2.4050  3.8157 -1.0209
  762MOL0     H 5088   5.806   5.910   7.272 -1.3435  0.4584  1.2273
  762MOL0     H 5089   5.911   5.978   7.091  0.8454 -0.5423  0.4751
  762MOL0     H 5090   5.940   5.940   6.928 -1.8963  4.8206  0.7661
  762MOL0     H 5091   5.988   5.756   7.170  0.1509 -0.0145  0.0449
  762MOL0     H 5092   5.983   5.698   7.004 -1.1528  0.0409 -0.3502
  762MOL0     H 5093   6.178   5.838   6.946  0.0977 -2.9932  0.2206
  762MOL0     H 5094   6.190   5.910   7.115 -2.2684  1.1535 -0.3694
  762MOL0     H 5095   6.227   5.684   7.197  1.7919  1.2535  0.1527
  762MOL0     H 5096   6.222   5.627   7.022 -1.0005  0.2244  0.0068
  762MOL0     H 5097   6.434   5.800   7.144  2.0266  1.0763 -1.6241
  762MOL0     H 5098   6.397   5.806   6.977 -0.4087  0.8816  1.0350
  762MOL0     H 5099   6.488   5.577   7.147  0.7278  0.0596 -0.7672
  762MOL0     H 5100   6.442   5.545   6.986  1.3655 -0.9430 -0.6318
  762MOL0     H 5101   6.622   5.712   6.908 -1.0865  2.1962  0.4976
  762MOL0     H 5102   6.696   5.581   7.004 -2.0415 -1.2108 -5.6510
  762MOL0     H 5103   6.641   5.868   7.068  0.1376 -0.8640 -2.1067
  762MOL0     H 5104   6.644   5.759   7.205  3.7857 -0.8528  0.8591
  762MOL0     H 5105   6.897   5.873   7.274 -2.3968  0.4997 -0.9804
  762MOL0     H 5106   7.167   5.806   7.296  0.6053  0.7778  0.9951
  762MOL0     H 5107   7.165   5.970   7.242  1.9922 -0.4399  0.6347
  762MOL0     H 5108   7.276   5.881   7.020 -2.4653  0.2637 -0.0171
  762MOL0     H 5109   7.379   5.873   7.173  0.3868 -1.3677  0.4554
  762MOL0     H 5110   7.314   5.626   7.174 -2.6668  0.1806 -0.1060
  762MOL0     H 5111   7.225   5.651   7.026  1.5806 -1.8943 -1.1869
  762MOL0     H 5112   7.439   5.572   6.963  2.8966  0.8022 -0.0112
  762MOL0     H 5113   7.405   5.735   6.911 -4.9001 -1.0957  0.6339
  762MOL0     H 5114   7.556   5.878   6.868  0.2608 -0.7429 -0.5605
  762MOL0     H 5115   7.677   5.891   6.596  1.9321 -0.6368  0.3063
  762MOL0     H 5116   7.809   6.002   6.639 -0.1460 -0.1974  1.7427
  762MOL0     H 5117   7.651   6.033   6.706  2.1628  2.0257  0.5955
  762MOL0     H 5118   8.365   5.848   6.928  1.4549  1.4197 -0.4447
  762MOL0     H 5119   8.585   5.800   6.839 -0.0982 -1.9796 -0.0125
  762MOL0     H 5120   8.644   5.797   6.424 -1.4565 -1.0265  0.5484
  762MOL0     H 5121   8.667   5.911   6.552 -0.6629 -1.9220  2.4056
  762MOL0     H 5122   8.896   5.828   6.597  1.5881  2.2141 -1.5856
  762MOL0     H 5123   8.889   5.704   6.480 -0.9596 -0.1046  1.3747
  762MOL0     H 5124   9.010   5.889   6.396 -1.5955 -2.0059  0.1085
  762MOL0     H 5125   8.902   6.006   6.455  3.0565 -1.0533  1.2942
  762MOL0     H 5126   8.725   5.950   6.276 -1.3489 -1.8681 -2.8011
  762MOL0     H 5127   8.827   5.821   6.215 -1.5568 -1.3683  2.3361
  762MOL0     H 5128   8.933   6.097   6.245 -2.4381  0.4798  1.4012
  762MOL0     H 5129   8.995   5.978   6.137 -0.2658  2.1303 -1.1082
  762MOL0     H 5130   8.739   6.121   6.085  0.9631  1.5379 -1.4142
  762MOL0     H 5131   8.781   5.974   5.999 -1.0637  0.2356 -0.2708
  762MOL0     H 5132   8.971   6.062   5.881 -1.4382 -0.5897  0.4923
  762MOL0     H 5133   9.010   6.181   5.994 -1.8289  0.7742  2.0481
  762MOL0     H 5134   8.780   6.299   5.917  2.2076  0.7930 -0.3006
  762MOL0     H 5135   8.755   6.163   5.811  1.5318 -0.9901  0.3290
  762MOL0     H 5136   8.410   5.718   6.456  0.2895  0.5942 -0.1991
  762MOL0     H 5137   8.190   5.739   6.540  1.7135  1.7681 -0.4299
  762MOL0     H 5138   8.004   5.716   6.974  0.2587  0.5979 -2.8497
  762MOL0     H 5139   7.818   5.648   7.123  0.0111 -1.2328 -1.2938
  762MOL0     H 5140   5.540   5.715   6.991 -2.7601 -0.6415  1.0754
  762MOL0     H 5141   5.400   5.655   7.173  1.3725 -1.4775  0.1226
  762MOL0     H 5142   5.440   5.777   7.684  0.4063 -0.1922 -1.3526
  762MOL0     H 5143   5.330   5.740   7.917 -1.0136  1.1076  0.3799
  762MOL0     H 5144   5.209   5.679   8.106  0.2930 -0.1564  2.0135
  762MOL0     H 5145   5.202   5.861   8.089 -1.6024  1.0081 -1.9224
  762MOL0     H 5146   5.009   5.877   8.202  3.3389  1.2791  3.8570
  762MOL0     H 5147   5.106   5.766   8.297 -1.0941  2.0858  0.8241
  762MOL0     H 5148   4.880   5.673   8.112 -1.9010 -0.6237  1.2637
  762MOL0     H 5149   4.990   5.575   8.211  1.7605 -0.1778  0.7449
  762MOL0     H 5150   4.806   5.772   8.330 -0.7064 -0.5709  1.6026
  762MOL0     H 5151   4.925   5.660   8.405 -0.5243 -0.8801  1.1572
  762MOL0     H 5152   4.621   5.386   8.325  0.5239  0.3043 -2.2054
  762MOL0     H 5153   4.944   5.782   7.742 -0.7232 -5.4186  2.0675
  762MOL0     H 5154   4.905   5.819   7.532 -1.0134  0.6314 -1.1089
  762MOL0     H 5155   5.031   5.863   7.416 -1.7564 -0.5468 -1.3042
  762MOL0     H 5156   4.995   5.691   7.446 -1.5261  0.9357 -0.9672
  763MOL0     O 5157  10.277   7.326   4.821 -0.7118 -0.0738  0.1871
  763MOL0     C 5158  10.329   7.390   4.908 -0.7290 -0.5297 -0.1982
  763MOL0     O 5159  10.457   7.436   4.909 -0.0846 -0.1061 -0.7408
  763MOL0     C 5160  10.537   7.434   4.796  0.3626 -0.9132 -0.3555
  763MOL0     C 5161  10.497   7.467   4.670 -0.4631 -0.1998 -0.0481
  763MOL0     C 5162  10.582   7.449   4.560  0.2379 -0.1439  0.1609
  763MOL0     C 5163  10.712   7.420   4.577 -0.2157  0.2641 -0.9329
  763MOL0     O 5164  10.787   7.435   4.460  0.5490 -0.3618 -0.4656
  763MOL0     C 5165  10.926   7.422   4.477 -0.3707 -0.6651  0.1213
  763MOL0     C 5166  11.001   7.434   4.343  0.5774 -0.0655  0.3553
  763MOL0     C 5167  11.152   7.435   4.369  0.9793  0.9711  0.1249
  763MOL0     C 5168  11.213   7.481   4.237 -0.4288 -0.4048 -0.3117
  763MOL0     C 5169  11.363   7.448   4.237 -1.0954  0.3293  0.4802
  763MOL0     C 5170  11.427   7.504   4.107 -0.0080  0.1449 -0.9956
  763MOL0     C 5171  11.574   7.473   4.101 -0.2170 -0.3452  0.8140
  763MOL0     C 5172  11.636   7.536   3.977 -0.6293  0.3837  0.6591
  763MOL0     N 5173  11.781   7.556   4.007  0.1328 -0.8562 -0.4567
  763MOL0     C 5174  11.877   7.531   3.907  0.0403  0.6989 -0.4982
  763MOL0     C 5175  11.993   7.568   3.965 -0.3413 -0.0553 -0.4744
  763MOL0     C 5176  12.137   7.557   3.924  0.1338  0.2702 -0.2695
  763MOL0     C 5177  12.188   7.645   3.797 -0.0862 -0.4536  0.1003
  763MOL0     C 5178  12.325   7.605   3.742 -0.0139  1.7433 -0.5827
  763MOL0     C 5179  12.366   7.669   3.611  0.1790 -0.3674 -0.2933
  763MOL0     O 5180  12.479   7.600   3.550 -0.2045  0.8238  0.1015
  763MOL0     C 5181  12.592   7.655   3.498  0.4143  0.1173 -0.0348
  763MOL0     C 5182  12.612   7.790   3.476  0.8973  0.4404  0.5309
  763MOL0     C 5183  12.733   7.846   3.408 -0.5567  0.1779 -0.3089
  763MOL0     C 5184  12.749   8.001   3.397 -0.4694  0.5371 -0.2714
  763MOL0     C 5185  12.829   7.751   3.361  0.4608  0.4346  0.0969
  763MOL0     C 5186  12.966   7.773   3.304 -0.5330 -0.8338  0.4409
  763MOL0     O 5187  13.036   7.676   3.246  0.5378 -0.3032  0.1038
  763MOL0     C 5188  13.168   7.700   3.220  0.1980 -1.4844  0.5530
  763MOL0     C 5189  13.246   7.699   3.328 -0.0214 -0.6784 -0.1576
  763MOL0     C 5190  13.387   7.711   3.308  0.8493  1.2895 -0.5198
  763MOL0     C 5191  13.451   7.708   3.185  0.7333  0.7635  0.1507
  763MOL0     O 5192  13.587   7.703   3.176 -0.4995 -0.7563  0.5239
  763MOL0     C 5193  13.650   7.762   3.061 -0.0553 -0.0673 -0.3075
  763MOL0     C 5194  13.796   7.778   3.107 -0.0556  0.8877  0.3723
  763MOL0     C 5195  13.886   7.891   3.045 -0.3360 -0.0152 -0.0117
  763MOL0     C 5196  14.000   7.930   3.132  0.0599 -0.5030 -0.5946
  763MOL0     C 5197  14.079   8.045   3.054 -0.5725  0.1271 -0.1555
  763MOL0     C 5198  14.210   8.089   3.126  1.1538  0.8603 -0.1984
  763MOL0     C 5199  14.202   8.119   3.274 -0.4133 -1.0101 -0.4843
  763MOL0     C 5200  14.352   8.138   3.325  0.1550 -0.8906 -0.2152
  763MOL0    Cl 5201  14.338   8.172   3.501  0.0932 -0.4961 -0.0027
  763MOL0     C 5202  13.363   7.707   3.077  0.6337 -0.2803  0.2111
  763MOL0     C 5203  13.225   7.714   3.091 -1.2277 -0.3219  0.3261
  763MOL0     O 5204  13.009   7.889   3.318 -0.5820  0.1872 -0.0090
  763MOL0     C 5205  12.794   7.617   3.390  0.0737 -0.7056 -0.8909
  763MOL0     C 5206  12.686   7.564   3.453 -0.2520 -0.7003 -0.5739
  763MOL0     N 5207  11.964   7.604   4.102  0.1629 -0.1296 -0.0516
  763MOL0     N 5208  11.841   7.589   4.124 -0.2342  0.0805  1.0664
  763MOL0     C 5209  10.759   7.385   4.705 -0.1084  1.1472  0.1785
  763MOL0     C 5210  10.666   7.377   4.811 -0.8765  0.0563 -0.4878
  763MOL0     C 5211  10.247   7.417   5.033 -0.6742 -0.1144 -0.4719
  763MOL0     C 5212  10.303   7.498   5.126  0.6424 -0.1092 -0.7143
  763MOL0     C 5213  10.227   7.532   5.243  0.5762  0.4935 -0.3056
  763MOL0     C 5214  10.112   7.464   5.278 -0.4010  0.3492  0.5530
  763MOL0     O 5215  10.045   7.485   5.396 -0.9123 -0.3215 -0.3546
  763MOL0     C 5216  10.118   7.532   5.517  0.3318  0.6649  0.7466
  763MOL0     C 5217  10.021   7.515   5.630 -0.6800  0.3200 -0.6055
  763MOL0     C 5218   9.934   7.641   5.649  0.3642  0.1730  0.0526
  763MOL0     C 5219   9.839   7.637   5.773  0.3679 -0.6439  0.2350
  763MOL0     C 5220   9.900   7.605   5.900 -0.6247  0.0490 -0.5448
  763MOL0     C 5221   9.955   7.617   6.007  0.3484 -0.6006 -0.2872
  763MOL0     C 5222  10.048   7.379   5.186 -0.5359 -0.3268  0.0222
  763MOL0     C 5223  10.122   7.361   5.065  1.0367 -0.3619 -0.2805
  763MOL0     C 5224  10.054   7.256   4.982  0.1840 -0.0018  0.1520
  763MOL0     H 5225  10.391   7.490   4.665  0.0997  2.3380 -1.7937
  763MOL0     H 5226  10.532   7.463   4.465 -2.3804  0.1392  1.5057
  763MOL0     H 5227  10.947   7.323   4.520  0.1740 -1.3140 -1.5563
  763MOL0     H 5228  10.963   7.501   4.543  2.6683 -2.2037  0.4330
  763MOL0     H 5229  10.973   7.346   4.284 -0.8703  0.6516 -0.0732
  763MOL0     H 5230  10.966   7.526   4.294 -3.2958 -0.8737  1.2451
  763MOL0     H 5231  11.179   7.491   4.459 -0.3330  1.5731  0.1621
  763MOL0     H 5232  11.183   7.330   4.375  1.8659  1.1712 -0.8190
  763MOL0     H 5233  11.160   7.439   4.151 -3.0506  0.1726  0.9390
  763MOL0     H 5234  11.197   7.589   4.230 -4.1074 -0.7516  0.7804
  763MOL0     H 5235  11.381   7.340   4.237  1.5112  0.6279 -2.4830
  763MOL0     H 5236  11.418   7.482   4.325  0.4990  2.9302 -1.3932
  763MOL0     H 5237  11.378   7.465   4.017 -1.2975  2.2783 -1.2940
  763MOL0     H 5238  11.402   7.611   4.105  2.6096  0.8790  0.5680
  763MOL0     H 5239  11.594   7.366   4.109 -2.2883 -0.8341  0.1785
  763MOL0     H 5240  11.605   7.526   4.191 -1.8705  2.2299 -0.0209
  763MOL0     H 5241  11.631   7.466   3.893  4.5662  0.2788  0.1017
  763MOL0     H 5242  11.584   7.625   3.941  0.6634  0.2537 -1.7434
  763MOL0     H 5243  11.865   7.492   3.806  0.5093 -0.1510 -0.2403
  763MOL0     H 5244  12.146   7.454   3.887 -2.1598  0.3857 -1.3049
  763MOL0     H 5245  12.200   7.574   4.012 -1.5202 -2.0950  1.4882
  763MOL0     H 5246  12.117   7.636   3.714  2.9848  1.2386 -2.9503
  763MOL0     H 5247  12.196   7.748   3.833 -1.7590 -0.7525  1.4619
  763MOL0     H 5248  12.409   7.627   3.808  1.5433 -0.0387 -1.8334
  763MOL0     H 5249  12.322   7.498   3.718  3.4437  1.0914  1.2958
  763MOL0     H 5250  12.281   7.660   3.544  0.2306  0.5551 -0.4935
  763MOL0     H 5251  12.387   7.773   3.638 -1.2387 -0.9363  3.5430
  763MOL0     H 5252  12.538   7.862   3.508 -0.3358 -0.2592 -0.6529
  763MOL0     H 5253  12.822   8.036   3.470  0.1645  1.5678 -1.3845
  763MOL0     H 5254  12.660   8.060   3.420 -0.0007  0.4487  1.9669
  763MOL0     H 5255  12.784   8.009   3.294  0.8353 -4.0370 -0.3982
  763MOL0     H 5256  13.205   7.701   3.428 -0.1712 -1.4062 -0.2006
  763MOL0     H 5257  13.448   7.706   3.398  0.7112  0.0791 -0.4790
  763MOL0     H 5258  13.642   7.697   2.973  0.5415  0.4539 -0.7561
  763MOL0     H 5259  13.600   7.858   3.044  0.6689  0.4850  0.6248
  763MOL0     H 5260  13.801   7.779   3.216  0.7284  1.3515  0.3354
  763MOL0     H 5261  13.837   7.684   3.070  1.3897  2.4540 -2.3218
  763MOL0     H 5262  13.826   7.981   3.026  0.2226  0.2232 -0.6870
  763MOL0     H 5263  13.930   7.861   2.950  0.0634  0.0142  0.1641
  763MOL0     H 5264  14.065   7.845   3.157  1.6321  1.5511  3.0167
  763MOL0     H 5265  13.960   7.986   3.217 -1.7304  2.1802 -3.0205
  763MOL0     H 5266  14.115   8.005   2.959  4.2336 -1.9094  2.1582
  763MOL0     H 5267  14.015   8.132   3.039  1.2188  1.8712  1.5798
  763MOL0     H 5268  14.264   8.167   3.071  3.2828  0.7371  1.6034
  763MOL0     H 5269  14.271   7.998   3.128  2.2388  1.5777  1.6365
  763MOL0     H 5270  14.149   8.044   3.333  0.3715 -3.4694 -2.6917
  763MOL0     H 5271  14.146   8.212   3.283 -0.3216 -0.8499 -1.4259
  763MOL0     H 5272  14.396   8.222   3.270  1.4166 -2.4765 -1.7410
  763MOL0     H 5273  14.415   8.050   3.315  0.3318 -0.5967 -2.1275
  763MOL0     H 5274  13.391   7.713   2.972 -0.9868  0.4805 -0.2100
  763MOL0     H 5275  13.164   7.723   3.002  1.7379 -0.8857 -1.9356
  763MOL0     H 5276  12.861   7.542   3.347 -0.5554 -0.3334 -2.6181
  763MOL0     H 5277  12.672   7.456   3.462  2.6629 -1.0431  0.9389
  763MOL0     H 5278  10.861   7.353   4.722  0.1686  1.1678 -1.3560
  763MOL0     H 5279  10.705   7.383   4.912  0.8105  0.8325 -1.1419
  763MOL0     H 5280  10.404   7.537   5.115 -0.4609  2.9823 -0.9115
  763MOL0     H 5281  10.284   7.592   5.313  2.6542 -0.9037 -0.7351
  763MOL0     H 5282  10.203   7.466   5.538 -0.5076 -0.6965  0.0183
  763MOL0     H 5283  10.148   7.634   5.494 -0.4133  0.9283  0.8954
  763MOL0     H 5284  10.074   7.488   5.721  0.7248 -0.8748 -1.7225
  763MOL0     H 5285   9.955   7.428   5.613 -0.6784 -0.2346  1.8373
  763MOL0     H 5286   9.998   7.727   5.669  0.6811  1.0557 -4.0025
  763MOL0     H 5287   9.867   7.657   5.565 -0.7128 -1.3199  0.5811
  763MOL0     H 5288   9.749   7.579   5.754 -0.6109  1.5395 -2.4702
  763MOL0     H 5289   9.792   7.736   5.775 -2.1231 -1.7329 -0.6711
  763MOL0     H 5290  10.009   7.649   6.094  2.1152 -1.2792 -1.0749
  763MOL0     H 5291   9.953   7.333   5.210  0.9115 -2.5817  1.9087
  763MOL0     H 5292  10.026   7.298   4.885  3.0480  2.5870  0.2732
  763MOL0     H 5293  10.122   7.174   4.955 -0.2541 -0.0819 -0.7705
  763MOL0     H 5294   9.969   7.212   5.035 -0.6625  0.4688 -0.7797
  764MOL0     O 5295   1.164   6.190   1.539 -0.0318 -0.6012 -0.1953
  764MOL0     C 5296   1.170   6.098   1.624 -0.1262  0.3506  0.5193
  764MOL0     O 5297   1.269   6.081   1.711  0.8253  0.3731 -0.5226
  764MOL0     C 5298   1.391   6.120   1.675 -0.2738  0.2594 -0.9822
  764MOL0     C 5299   1.441   6.161   1.547  0.6887  0.2455 -0.2969
  764MOL0     C 5300   1.575   6.201   1.538 -1.0400  0.3440  0.3395
  764MOL0     C 5301   1.658   6.201   1.650  0.3530 -0.2311 -0.6935
  764MOL0     O 5302   1.787   6.241   1.635  0.0039  0.4297 -0.2146
  764MOL0     C 5303   1.854   6.310   1.738 -0.3246  0.0040 -0.4158
  764MOL0     C 5304   1.991   6.344   1.704  0.6334  1.0095  0.7083
  764MOL0     C 5305   2.075   6.222   1.660  0.0113 -0.1668  0.0893
  764MOL0     C 5306   2.214   6.278   1.663 -0.5507  0.4639 -0.7056
  764MOL0     C 5307   2.309   6.207   1.572  0.0245  0.7588  0.0342
  764MOL0     C 5308   2.457   6.233   1.605 -0.0164 -0.7388  0.1728
  764MOL0     C 5309   2.487   6.381   1.586  0.0691 -0.5870  0.2094
  764MOL0     C 5310   2.621   6.423   1.533  0.2209 -0.5008 -0.4905
  764MOL0     N 5311   2.727   6.377   1.610 -0.2764 -0.2797 -0.5656
  764MOL0     C 5312   2.770   6.248   1.635  0.2317 -0.4138  0.3563
  764MOL0     C 5313   2.868   6.265   1.735  0.6114 -0.9640 -0.3396
  764MOL0     C 5314   2.933   6.155   1.807  0.8810 -0.8183 -0.5239
  764MOL0     C 5315   3.015   6.065   1.723  0.5751 -0.6734 -0.6362
  764MOL0     C 5316   3.105   5.970   1.793 -0.3358 -0.1776 -0.3635
  764MOL0     C 5317   3.201   6.029   1.896 -0.4397 -0.9037  0.1427
  764MOL0     O 5318   3.242   5.921   1.977 -0.1091 -0.3028  0.9277
  764MOL0     C 5319   3.324   5.949   2.079  0.2130 -0.5416 -0.4006
  764MOL0     C 5320   3.375   5.838   2.148  0.8735 -0.1331 -0.2449
  764MOL0     C 5321   3.442   5.851   2.268 -0.1443  0.4535 -0.2125
  764MOL0     C 5322   3.493   5.721   2.333 -0.2196  0.0833  0.7708
  764MOL0     C 5323   3.474   5.974   2.330  1.1226  0.2357  0.6670
  764MOL0     C 5324   3.548   5.979   2.457  0.8574  0.2578  0.0476
  764MOL0     O 5325   3.636   6.081   2.448 -0.3483 -0.4112  0.3819
  764MOL0     C 5326   3.751   6.090   2.533  0.2284 -0.1849  0.3026
  764MOL0     C 5327   3.854   6.171   2.474 -0.2472  0.1847 -0.9167
  764MOL0     C 5328   3.970   6.202   2.545 -1.1816 -0.8487  0.5281
  764MOL0     C 5329   3.981   6.167   2.678 -0.1080  0.4979 -0.2454
  764MOL0     O 5330   4.098   6.193   2.749 -0.3779 -0.0358 -0.8660
  764MOL0     C 5331   4.140   6.331   2.779 -0.2160 -0.6943  0.0418
  764MOL0     C 5332   4.270   6.350   2.702 -1.1028 -0.0605  0.4334
  764MOL0     C 5333   4.342   6.485   2.724  0.4052 -0.1623 -0.0956
  764MOL0     C 5334   4.490   6.465   2.715 -0.6988  0.2910 -0.6433
  764MOL0     C 5335   4.573   6.587   2.749  0.4837 -0.1273  0.3148
  764MOL0     C 5336   4.727   6.564   2.745  1.3134  0.3352 -0.4315
  764MOL0     C 5337   4.805   6.695   2.739  0.3761  0.0113  0.0562
  764MOL0     C 5338   4.951   6.669   2.693  0.1122  0.0791  0.3382
  764MOL0    Cl 5339   5.031   6.538   2.795 -0.5571 -0.2981  0.2408
  764MOL0     C 5340   3.883   6.095   2.739 -0.4151  0.2920 -0.1802
  764MOL0     C 5341   3.773   6.048   2.664  0.3508  0.0068  0.2144
  764MOL0     O 5342   3.510   5.924   2.560 -0.7334  0.1506 -0.1497
  764MOL0     C 5343   3.430   6.089   2.254 -0.3348  0.5863 -0.6276
  764MOL0     C 5344   3.369   6.077   2.127  0.4330  0.0619 -0.6311
  764MOL0     N 5345   2.891   6.403   1.759  0.9009 -0.1071 -0.1795
  764MOL0     N 5346   2.794   6.460   1.696 -0.9511  0.0713 -0.2703
  764MOL0     C 5347   1.609   6.159   1.771 -0.0656 -0.1961  0.0923
  764MOL0     C 5348   1.477   6.121   1.783  0.5837 -0.8646 -0.2177
  764MOL0     C 5349   1.044   6.018   1.614 -0.5051  0.4999  0.5067
  764MOL0     C 5350   0.946   6.050   1.515 -0.1367  0.3668  0.2372
  764MOL0     C 5351   0.824   5.989   1.516  0.3146 -0.0938 -0.0733
  764MOL0     C 5352   0.794   5.881   1.596  0.4076 -0.5533 -0.6776
  764MOL0     O 5353   0.672   5.824   1.585 -0.1446  0.3719 -0.7867
  764MOL0     C 5354   0.628   5.725   1.682 -0.1953  0.1213  0.1711
  764MOL0     C 5355   0.510   5.642   1.627  0.4905 -0.3507 -0.0617
  764MOL0     C 5356   0.385   5.725   1.588  0.1169  0.1315  0.2303
  764MOL0     C 5357   0.267   5.648   1.541 -0.8395 -0.8053  0.9807
  764MOL0     C 5358   0.169   5.741   1.472  0.1832  0.6314 -0.1395
  764MOL0     C 5359   0.099   5.825   1.420  0.5114 -0.9474  0.2698
  764MOL0     C 5360   0.881   5.860   1.704 -0.4120 -0.2467 -0.0416
  764MOL0     C 5361   1.006   5.925   1.714  0.1050 -0.0837  0.3845
  764MOL0     C 5362   1.093   5.903   1.834  0.2606 -0.0995 -0.0298
  764MOL0     H 5363   1.372   6.178   1.466 -0.9844  2.3152  1.4347
  764MOL0     H 5364   1.615   6.237   1.444 -0.6584  0.7819  0.6699
  764MOL0     H 5365   1.851   6.238   1.821 -0.9745  0.2545 -0.2097
  764MOL0     H 5366   1.805   6.404   1.766 -0.4862 -0.1306 -0.2406
  764MOL0     H 5367   1.985   6.402   1.611  1.3450  0.0911  0.0727
  764MOL0     H 5368   2.034   6.403   1.785  0.8016  2.1504 -0.1776
  764MOL0     H 5369   2.067   6.142   1.735  2.6939  0.7073  1.4218
  764MOL0     H 5370   2.042   6.190   1.561 -1.8333 -1.0138  0.9205
  764MOL0     H 5371   2.212   6.378   1.620  0.7296  1.8978  2.3675
  764MOL0     H 5372   2.257   6.295   1.762 -0.6827 -0.2627 -0.5145
  764MOL0     H 5373   2.290   6.234   1.468  0.2222  0.8408  0.0196
  764MOL0     H 5374   2.295   6.099   1.583 -1.0253  0.7835 -0.8665
  764MOL0     H 5375   2.498   6.181   1.692  1.4843 -0.6549 -0.4413
  764MOL0     H 5376   2.516   6.193   1.522  0.5706  0.4287  0.0046
  764MOL0     H 5377   2.464   6.428   1.683  0.0036  0.0681 -0.1178
  764MOL0     H 5378   2.422   6.434   1.517  1.6047  0.0016 -0.8434
  764MOL0     H 5379   2.628   6.382   1.432 -0.6248 -1.9174 -0.0143
  764MOL0     H 5380   2.625   6.532   1.527 -0.9264 -0.4922 -1.5304
  764MOL0     H 5381   2.736   6.155   1.589  0.2814 -1.1172  1.6873
  764MOL0     H 5382   2.849   6.099   1.849 -0.4935  3.3982  3.1414
  764MOL0     H 5383   2.988   6.208   1.885 -1.8955  0.2075  0.8645
  764MOL0     H 5384   2.959   6.004   1.652  1.6087 -1.2346 -0.9957
  764MOL0     H 5385   3.076   6.128   1.657  0.3424  2.1893  1.7127
  764MOL0     H 5386   3.036   5.897   1.837 -0.3882  1.1294  1.8743
  764MOL0     H 5387   3.169   5.924   1.718  1.8680  1.7180  0.2451
  764MOL0     H 5388   3.283   6.085   1.849 -2.0898  3.4270  1.9052
  764MOL0     H 5389   3.148   6.103   1.957 -0.9061  0.2609 -1.5910
  764MOL0     H 5390   3.361   5.738   2.109  1.5586 -0.8099  1.1576
  764MOL0     H 5391   3.430   5.636   2.304  0.3195  0.1630 -0.6826
  764MOL0     H 5392   3.490   5.718   2.442 -3.1099  0.2041  0.7729
  764MOL0     H 5393   3.597   5.700   2.306 -0.2630  2.0903 -1.2059
  764MOL0     H 5394   3.849   6.177   2.366  0.0265 -0.4689 -0.9725
  764MOL0     H 5395   4.047   6.255   2.490 -1.6443 -0.0328  0.6572
  764MOL0     H 5396   4.056   6.392   2.745  0.2856  0.1682  0.3369
  764MOL0     H 5397   4.154   6.346   2.886  0.5738  1.7477 -0.3506
  764MOL0     H 5398   4.343   6.279   2.741  0.4055  0.6191 -1.0374
  764MOL0     H 5399   4.255   6.326   2.596  3.2789 -2.0584  0.0292
  764MOL0     H 5400   4.333   6.502   2.832  2.1176  0.6674 -0.0532
  764MOL0     H 5401   4.312   6.574   2.669  1.7504 -0.4546 -1.3811
  764MOL0     H 5402   4.512   6.432   2.613 -1.0768 -2.5856  0.1153
  764MOL0     H 5403   4.521   6.385   2.784 -0.3446  1.0202  0.0680
  764MOL0     H 5404   4.544   6.660   2.673  3.0717 -0.4067 -1.0633
  764MOL0     H 5405   4.548   6.632   2.845  1.7208  0.1904  0.5112
  764MOL0     H 5406   4.755   6.499   2.662 -0.2316 -0.7189 -0.1659
  764MOL0     H 5407   4.763   6.507   2.831  2.1641  0.6354 -0.5813
  764MOL0     H 5408   4.809   6.744   2.837  0.0400  1.4643 -0.6279
  764MOL0     H 5409   4.756   6.772   2.679 -0.7873  0.2415  1.2527
  764MOL0     H 5410   5.017   6.757   2.686  0.0643  0.1070  0.2334
  764MOL0     H 5411   4.945   6.628   2.592 -4.1593 -1.8003  1.1739
  764MOL0     H 5412   3.905   6.067   2.842  0.3062 -1.1492 -0.7017
  764MOL0     H 5413   3.701   5.988   2.718  1.6747 -0.9181  1.0404
  764MOL0     H 5414   3.460   6.186   2.292  0.3555 -0.2006  0.9348
  764MOL0     H 5415   3.342   6.165   2.070 -3.9426 -0.8910 -0.4082
  764MOL0     H 5416   1.668   6.154   1.861 -0.3506 -0.4271  0.2678
  764MOL0     H 5417   1.436   6.106   1.882 -0.4322  1.5831 -0.1799
  764MOL0     H 5418   0.971   6.122   1.437  1.0377 -0.5970 -0.3070
  764MOL0     H 5419   0.773   6.012   1.423  3.5170 -1.3697 -2.3327
  764MOL0     H 5420   0.703   5.649   1.706  0.9962  0.5109 -2.0164
  764MOL0     H 5421   0.588   5.772   1.772 -1.6767 -1.8552  0.6099
  764MOL0     H 5422   0.476   5.571   1.703 -0.3770  1.6383  1.5065
  764MOL0     H 5423   0.545   5.591   1.536  1.8963 -2.0773  1.3629
  764MOL0     H 5424   0.362   5.804   1.660  0.0253 -1.2966  1.8337
  764MOL0     H 5425   0.427   5.785   1.507 -1.9212 -3.4690 -3.9398
  764MOL0     H 5426   0.229   5.591   1.626  1.2573 -1.2928  1.6618
  764MOL0     H 5427   0.316   5.583   1.468 -1.7185  0.5259 -0.8859
  764MOL0     H 5428   0.030   5.896   1.378  0.0366  0.3351  3.0120
  764MOL0     H 5429   0.876   5.783   1.781  3.2124 -0.8900 -0.2715
  764MOL0     H 5430   1.061   5.814   1.890 -0.6089 -0.3090 -0.8320
  764MOL0     H 5431   1.199   5.882   1.815 -0.1230 -0.8504 -1.4237
  764MOL0     H 5432   1.108   5.994   1.893  3.6083  0.1333 -1.0349
  765MOL0     O 5433   1.516   4.997   2.350 -0.4303  0.1376  0.5852
  765MOL0     C 5434   1.565   4.896   2.401 -0.1923 -0.4056 -0.6399
  765MOL0     O 5435   1.697   4.890   2.431 -0.4060  0.1386 -0.0939
  765MOL0     C 5436   1.778   4.979   2.372  0.4323  0.0029  0.3053
  765MOL0     C 5437   1.834   4.939   2.252 -0.1978  0.4275 -0.8308
  765MOL0     C 5438   1.936   5.018   2.193 -0.4910  0.1477 -0.2584
  765MOL0     C 5439   1.971   5.142   2.253  0.5047 -0.7638 -0.4830
  765MOL0     O 5440   2.063   5.220   2.191 -0.6378  0.4111  0.0059
  765MOL0     C 5441   2.187   5.151   2.211 -0.8820  0.0121  0.8560
  765MOL0     C 5442   2.288   5.167   2.092 -0.3733 -0.0636 -0.4642
  765MOL0     C 5443   2.317   5.319   2.060  1.0457  0.0455  0.8615
  765MOL0     C 5444   2.450   5.336   1.986 -0.3104 -0.6499 -0.8201
  765MOL0     C 5445   2.477   5.490   1.961 -0.4471  0.5285  0.3785
  765MOL0     C 5446   2.610   5.513   1.890  0.6444  0.2061 -0.0678
  765MOL0     C 5447   2.665   5.660   1.915 -1.0667  0.1142  0.0872
  765MOL0     C 5448   2.780   5.708   1.818 -0.1125  0.2173 -1.1937
  765MOL0     N 5449   2.731   5.719   1.681  0.0419 -0.7791 -0.1826
  765MOL0     C 5450   2.606   5.755   1.627  0.4397 -0.5903 -0.3868
  765MOL0     C 5451   2.614   5.761   1.491 -0.0265  0.5436 -0.0091
  765MOL0     C 5452   2.515   5.814   1.396  0.4649  0.6991  0.1253
  765MOL0     C 5453   2.554   5.954   1.346  0.7329 -0.0342  0.2173
  765MOL0     C 5454   2.672   5.942   1.247 -0.0470 -0.8688 -0.2594
  765MOL0     C 5455   2.709   6.064   1.166  0.1065 -0.0160 -0.4091
  765MOL0     O 5456   2.750   6.177   1.241 -0.5392  0.4425  0.2895
  765MOL0     C 5457   2.881   6.196   1.279 -0.3459  0.1146  0.1069
  765MOL0     C 5458   2.922   6.314   1.334 -0.1045  0.0984 -0.1300
  765MOL0     C 5459   3.053   6.338   1.384  0.4086  0.5263  0.7558
  765MOL0     C 5460   3.081   6.475   1.442 -0.6651 -0.5757 -0.7496
  765MOL0     C 5461   3.149   6.235   1.374  0.5012  0.4744 -0.7941
  765MOL0     C 5462   3.289   6.249   1.425  0.9736 -0.6966 -0.3542
  765MOL0     O 5463   3.363   6.135   1.445 -0.2846 -0.6845 -0.1976
  765MOL0     C 5464   3.493   6.136   1.491  0.2520  0.1260 -0.0188
  765MOL0     C 5465   3.596   6.080   1.417 -0.5162  0.2978 -0.1168
  765MOL0     C 5466   3.728   6.096   1.473  0.2523  0.2205  0.1120
  765MOL0     C 5467   3.755   6.157   1.593 -0.4841  0.3301  0.0989
  765MOL0     O 5468   3.891   6.169   1.627 -0.4137  0.3403  0.4706
  765MOL0     C 5469   3.929   6.217   1.760 -0.4486  0.4157 -0.4825
  765MOL0     C 5470   4.077   6.273   1.765 -0.1161 -0.6690 -0.2589
  765MOL0     C 5471   4.065   6.411   1.695 -0.4304 -0.4076 -1.3326
  765MOL0     C 5472   4.206   6.467   1.693  0.0299  0.6377  0.5314
  765MOL0     C 5473   4.207   6.593   1.609 -0.7458 -0.0759 -0.1756
  765MOL0     C 5474   4.352   6.659   1.600  0.1261  0.4887 -0.1693
  765MOL0     C 5475   4.355   6.790   1.518  0.1255 -0.2609  0.7682
  765MOL0     C 5476   4.484   6.872   1.544 -0.2584  0.2286 -0.0126
  765MOL0    Cl 5477   4.457   7.015   1.651  0.0682  0.4639 -0.4194
  765MOL0     C 5478   3.643   6.199   1.664 -0.2300 -0.4528  0.6517
  765MOL0     C 5479   3.521   6.195   1.608  0.4892  0.4258  0.0604
  765MOL0     O 5480   3.336   6.364   1.447 -0.1685  1.2240 -0.8707
  765MOL0     C 5481   3.108   6.108   1.331  0.3455 -0.1961 -0.0662
  765MOL0     C 5482   2.977   6.093   1.280 -0.3714 -0.0301  0.6955
  765MOL0     N 5483   2.741   5.705   1.463  0.1608  0.2107 -0.0710
  765MOL0     N 5484   2.802   5.678   1.572 -0.7220 -0.0866  0.4781
  765MOL0     C 5485   1.899   5.183   2.364 -0.2265 -0.4105  0.9610
  765MOL0     C 5486   1.807   5.101   2.433  0.7513  0.2896  0.1541
  765MOL0     C 5487   1.466   4.787   2.424 -0.3552  0.2100 -0.0825
  765MOL0     C 5488   1.521   4.658   2.411  0.1234 -0.8790  0.2903
  765MOL0     C 5489   1.445   4.545   2.416  1.0316  0.2091 -0.0379
  765MOL0     C 5490   1.305   4.556   2.436 -0.3637 -0.7594  0.2298
  765MOL0     O 5491   1.238   4.435   2.457 -0.3774  0.4441  0.0245
  765MOL0     C 5492   1.110   4.428   2.524  0.1298  0.3750  0.9121
  765MOL0     C 5493   0.989   4.473   2.431  0.1919  0.1808 -0.5108
  765MOL0     C 5494   0.847   4.445   2.486 -0.4130  0.0907  0.0725
  765MOL0     C 5495   0.803   4.531   2.602 -0.0229 -0.8364 -0.2631
  765MOL0     C 5496   0.778   4.674   2.556  0.5456  0.6330 -0.4410
  765MOL0     C 5497   0.760   4.793   2.538  0.1882  0.2112 -0.2135
  765MOL0     C 5498   1.249   4.684   2.450  0.5969 -0.5200  0.0522
  765MOL0     C 5499   1.327   4.801   2.447  0.0925  1.1208  0.5549
  765MOL0     C 5500   1.265   4.932   2.474 -0.3211  0.7307 -0.0673
  765MOL0     H 5501   1.816   4.839   2.214 -1.6415 -0.2438  1.3608
  765MOL0     H 5502   1.982   4.986   2.101  0.6459  2.0059 -0.3873
  765MOL0     H 5503   2.179   5.046   2.240 -1.8910  0.3327  1.7818
  765MOL0     H 5504   2.234   5.207   2.293  3.7326  0.0368 -1.4352
  765MOL0     H 5505   2.379   5.108   2.106 -0.6058 -0.9572 -2.4100
  765MOL0     H 5506   2.244   5.114   2.006  1.9440 -1.2615 -0.9943
  765MOL0     H 5507   2.220   5.360   2.030 -0.5160 -2.5035  2.1403
  765MOL0     H 5508   2.326   5.362   2.160  0.5146  1.3682  0.3662
  765MOL0     H 5509   2.531   5.296   2.047 -0.5650  0.7176  0.4882
  765MOL0     H 5510   2.447   5.273   1.896 -0.5993  2.2934 -3.0408
  765MOL0     H 5511   2.474   5.531   2.062  2.1578 -1.5674  1.4124
  765MOL0     H 5512   2.396   5.537   1.905 -1.8516 -2.2208 -0.1224
  765MOL0     H 5513   2.688   5.452   1.938  1.1916  0.6256 -0.4092
  765MOL0     H 5514   2.591   5.495   1.784 -0.2954 -0.4465  0.1997
  765MOL0     H 5515   2.714   5.658   2.013  0.9552  2.1068 -0.7786
  765MOL0     H 5516   2.587   5.737   1.908 -0.7381  0.4205 -0.2445
  765MOL0     H 5517   2.812   5.811   1.838 -3.0150  1.1341 -0.7425
  765MOL0     H 5518   2.873   5.652   1.829  0.1449  0.6548 -1.1241
  765MOL0     H 5519   2.514   5.781   1.678  1.1398 -0.1788  0.6865
  765MOL0     H 5520   2.424   5.814   1.457 -0.3877  1.1170 -1.1243
  765MOL0     H 5521   2.505   5.737   1.320 -2.0719 -0.4485  1.4952
  765MOL0     H 5522   2.472   6.005   1.294  1.0419  0.1172 -0.1237
  765MOL0     H 5523   2.585   6.009   1.435  0.6129  0.6346 -0.1524
  765MOL0     H 5524   2.766   5.912   1.294  1.0303  0.9241 -1.1935
  765MOL0     H 5525   2.652   5.858   1.180  0.5636 -3.4510  2.5445
  765MOL0     H 5526   2.778   6.038   1.085  1.1628 -0.6993  0.6907
  765MOL0     H 5527   2.620   6.096   1.111  0.0810  1.0897  0.2414
  765MOL0     H 5528   2.843   6.386   1.354 -0.1032  0.4389 -1.3107
  765MOL0     H 5529   3.151   6.527   1.375 -1.0930 -0.9929 -1.5344
  765MOL0     H 5530   3.132   6.483   1.538  0.8625  0.1027 -1.5693
  765MOL0     H 5531   2.994   6.541   1.444 -0.6500 -0.5695  0.5312
  765MOL0     H 5532   3.578   6.039   1.318  0.8945  0.3722 -0.4311
  765MOL0     H 5533   3.814   6.058   1.419  0.7232  2.6132 -0.9967
  765MOL0     H 5534   3.859   6.290   1.801 -1.3704 -0.3435 -0.6583
  765MOL0     H 5535   3.926   6.136   1.834 -2.5410  1.7834  1.0065
  765MOL0     H 5536   4.110   6.287   1.868 -0.4668 -3.2468  0.2734
  765MOL0     H 5537   4.149   6.207   1.716  1.8200  0.1353  1.3804
  765MOL0     H 5538   4.001   6.474   1.758 -0.9400 -1.2173 -1.0300
  765MOL0     H 5539   4.034   6.395   1.591  1.7741  2.2703 -2.5286
  765MOL0     H 5540   4.271   6.398   1.638 -2.5746 -1.4537 -0.1012
  765MOL0     H 5541   4.240   6.479   1.797  0.5942 -4.9968  1.2835
  765MOL0     H 5542   4.162   6.576   1.511 -2.3557 -2.5559  0.8952
  765MOL0     H 5543   4.140   6.661   1.664 -0.9955  1.0202 -1.7738
  765MOL0     H 5544   4.431   6.599   1.555 -0.1929  0.2959 -0.4826
  765MOL0     H 5545   4.387   6.683   1.701  2.1556 -1.0810 -0.4636
  765MOL0     H 5546   4.272   6.849   1.558 -1.9880 -3.0309  0.7397
  765MOL0     H 5547   4.328   6.766   1.415 -0.8844  0.2851  0.8970
  765MOL0     H 5548   4.521   6.913   1.450 -0.3226  0.6043  0.1245
  765MOL0     H 5549   4.561   6.810   1.591  0.3151  2.8380  2.8475
  765MOL0     H 5550   3.662   6.254   1.756 -2.1445  0.6389  0.4492
  765MOL0     H 5551   3.441   6.247   1.659  1.0019 -1.7304  3.3582
  765MOL0     H 5552   3.170   6.020   1.322  1.5891  0.3056  2.6440
  765MOL0     H 5553   2.952   5.995   1.241 -0.9459  0.7362 -0.9236
  765MOL0     H 5554   1.930   5.279   2.403 -0.9811  0.5426 -0.6555
  765MOL0     H 5555   1.758   5.116   2.528  1.9615 -0.6645  0.9715
  765MOL0     H 5556   1.627   4.651   2.390  0.2649  1.3806 -0.0107
  765MOL0     H 5557   1.483   4.444   2.423 -1.4205 -0.6901  2.0416
  765MOL0     H 5558   1.096   4.320   2.538  2.6727 -0.1987 -0.2975
  765MOL0     H 5559   1.124   4.480   2.619  2.4647  1.5139  0.0328
  765MOL0     H 5560   0.988   4.439   2.327 -1.4916  3.4266 -1.6955
  765MOL0     H 5561   0.988   4.582   2.430 -0.3872  0.2912  2.7285
  765MOL0     H 5562   0.768   4.465   2.413 -0.5577  2.7878  0.8462
  765MOL0     H 5563   0.854   4.340   2.513  0.5938  0.5403  1.6894
  765MOL0     H 5564   0.873   4.524   2.685 -0.7163  1.7586  0.6542
  765MOL0     H 5565   0.705   4.495   2.636 -0.4859 -1.2039 -1.8810
  765MOL0     H 5566   0.762   4.898   2.517 -1.1331 -0.0966 -2.1017
  765MOL0     H 5567   1.142   4.700   2.454  0.4429 -0.9584 -1.6151
  765MOL0     H 5568   1.317   4.991   2.549  0.1068 -0.2338  0.4124
  765MOL0     H 5569   1.269   4.986   2.378 -0.6191 -0.7253 -0.9306
  765MOL0     H 5570   1.157   4.921   2.490 -0.5427  2.2914 -0.3104
  766MOL0     O 5571   9.894   5.370   8.353 -0.0447 -0.0385 -0.7835
  766MOL0     C 5572   9.969   5.417   8.436  0.7805 -0.0664 -0.9743
  766MOL0     O 5573   9.930   5.466   8.556  0.2659 -0.4656 -0.3016
  766MOL0     C 5574   9.804   5.477   8.615  0.3183  0.0652  0.3733
  766MOL0     C 5575   9.808   5.515   8.744 -0.0450  0.5503 -0.2708
  766MOL0     C 5576   9.684   5.533   8.811  0.5024  0.6026  0.4523
  766MOL0     C 5577   9.564   5.497   8.745 -0.1791 -1.1620  0.4835
  766MOL0     O 5578   9.457   5.533   8.822  0.2028  0.0388  0.0532
  766MOL0     C 5579   9.324   5.537   8.770 -0.1875 -0.2587 -0.8095
  766MOL0     C 5580   9.216   5.507   8.878  0.7162 -0.5856 -0.1040
  766MOL0     C 5581   9.253   5.364   8.948 -0.7572 -0.9974 -0.4272
  766MOL0     C 5582   9.144   5.323   9.059 -0.2100  0.2273 -0.1915
  766MOL0     C 5583   9.152   5.187   9.119 -0.1052  0.7932 -0.5941
  766MOL0     C 5584   9.276   5.173   9.203  1.0849  0.6001 -0.4933
  766MOL0     C 5585   9.291   5.030   9.257  0.1008 -0.4031 -0.3567
  766MOL0     C 5586   9.348   5.030   9.392  0.3053 -0.2918  0.0189
  766MOL0     N 5587   9.339   4.893   9.456  0.6969  0.1868  0.3013
  766MOL0     C 5588   9.439   4.813   9.493 -1.0697  0.3784 -0.2115
  766MOL0     C 5589   9.375   4.700   9.535  0.5696  0.2804  0.3675
  766MOL0     C 5590   9.447   4.597   9.608  0.1516  0.1317 -0.0343
  766MOL0     C 5591   9.413   4.463   9.536 -0.8308 -0.9390 -1.0304
  766MOL0     C 5592   9.505   4.344   9.576  0.1062  0.5361  0.4411
  766MOL0     C 5593   9.516   4.323   9.732 -0.2957 -0.1997 -0.6703
  766MOL0     O 5594   9.582   4.195   9.753  0.1240 -0.9866  0.5044
  766MOL0     C 5595   9.713   4.176   9.723  0.3261  0.8451 -0.4412
  766MOL0     C 5596   9.765   4.047   9.730 -0.0694 -0.0064 -0.0568
  766MOL0     C 5597   9.901   4.016   9.721  0.3179 -0.0344 -0.6949
  766MOL0     C 5598   9.941   3.868   9.745  0.1475 -0.3520  0.4014
  766MOL0     C 5599   9.997   4.124   9.705  0.1423  0.8902  0.2845
  766MOL0     C 5600  10.139   4.103   9.658  0.4275 -0.4563  0.2735
  766MOL0     O 5601  10.192   4.229   9.644  0.0336  0.2281  0.2241
  766MOL0     C 5602  10.323   4.251   9.611  1.1192  0.3355 -0.7370
  766MOL0     C 5603  10.372   4.254   9.479  1.2359 -0.4568  0.3243
  766MOL0     C 5604  10.516   4.254   9.459  0.9521  0.6245  0.2856
  766MOL0     C 5605  10.605   4.248   9.563 -0.3026  0.2667  0.3207
  766MOL0     O 5606  10.740   4.253   9.553  0.2961  0.3772  0.1844
  766MOL0     C 5607  10.797   4.177   9.448  0.7841  0.7642  0.0059
  766MOL0     C 5608  10.931   4.131   9.502 -1.3501 -1.6135 -0.3235
  766MOL0     C 5609  11.034   4.247   9.504 -0.9876 -0.1777  0.2431
  766MOL0     C 5610  11.185   4.200   9.524 -1.1054  0.2688  0.2453
  766MOL0     C 5611  11.208   4.172   9.671 -0.6541 -0.2746  0.0616
  766MOL0     C 5612  11.355   4.144   9.713 -0.4138 -0.7602  0.5081
  766MOL0     C 5613  11.457   4.253   9.661  0.1662  0.3003 -0.3796
  766MOL0     C 5614  11.563   4.301   9.758 -0.0617 -0.6494 -0.2752
  766MOL0    Cl 5615  11.505   4.394   9.899 -0.6264  0.1281  0.0923
  766MOL0     C 5616  10.550   4.254   9.685 -0.1692 -0.4680 -0.9252
  766MOL0     C 5617  10.419   4.241   9.711 -0.6994 -0.7497  0.3217
  766MOL0     O 5618  10.201   4.000   9.640 -0.3851 -0.7881 -0.6549
  766MOL0     C 5619   9.944   4.252   9.700 -0.6382 -0.8375 -0.3614
  766MOL0     C 5620   9.806   4.281   9.712  0.2137  0.5262 -0.2671
  766MOL0     N 5621   9.234   4.713   9.516  0.7950  0.0927 -0.2214
  766MOL0     N 5622   9.226   4.825   9.466  0.4585  0.5948 -0.6193
  766MOL0     C 5623   9.560   5.463   8.609  1.0262  0.9789  0.1051
  766MOL0     C 5624   9.680   5.454   8.547 -0.1294  0.5451 -0.2296
  766MOL0     C 5625  10.111   5.420   8.405  0.2261  0.0479 -0.5297
  766MOL0     C 5626  10.150   5.325   8.306 -0.5961 -0.5605 -0.3179
  766MOL0     C 5627  10.285   5.312   8.282  0.0642  0.6992  0.6427
  766MOL0     C 5628  10.379   5.395   8.340  0.0165  0.7285 -1.0076
  766MOL0     O 5629  10.520   5.377   8.329 -0.3577  0.0627 -0.5572
  766MOL0     C 5630  10.569   5.276   8.237 -0.1614  0.4120 -0.7792
  766MOL0     C 5631  10.719   5.268   8.268 -0.3456 -0.0914 -0.4905
  766MOL0     C 5632  10.745   5.198   8.406  0.5133 -0.6143  0.9963
  766MOL0     C 5633  10.897   5.193   8.426 -0.1528 -0.2562 -0.0702
  766MOL0     C 5634  10.962   5.108   8.323  0.2325  0.2810  1.1766
  766MOL0     C 5635  11.014   5.035   8.243  0.6821 -0.0676 -0.1322
  766MOL0     C 5636  10.338   5.492   8.432 -0.1660 -0.6657  0.6862
  766MOL0     C 5637  10.203   5.513   8.464  0.0455  0.2217  1.1289
  766MOL0     C 5638  10.164   5.621   8.564  0.0531 -1.0877 -0.2056
  766MOL0     H 5639   9.905   5.503   8.792  0.2155 -0.7952 -1.0553
  766MOL0     H 5640   9.697   5.575   8.910  1.3574  0.8266  0.2560
  766MOL0     H 5641   9.302   5.458   8.698  0.4758 -1.4118  0.2170
  766MOL0     H 5642   9.299   5.625   8.709  1.0198 -0.2298 -1.2992
  766MOL0     H 5643   9.201   5.593   8.944  3.3294 -0.3369  0.2575
  766MOL0     H 5644   9.124   5.478   8.825  0.3131 -1.8472  1.2026
  766MOL0     H 5645   9.235   5.288   8.871 -0.6735 -2.4108  0.9060
  766MOL0     H 5646   9.352   5.364   8.995 -2.2144  0.2730  2.9358
  766MOL0     H 5647   9.144   5.402   9.135  2.5938 -0.1453  0.2798
  766MOL0     H 5648   9.046   5.336   9.013  1.0061  0.3962 -2.8817
  766MOL0     H 5649   9.158   5.110   9.041 -0.4187 -0.3571  0.5011
  766MOL0     H 5650   9.061   5.178   9.178  0.9236 -2.1660  0.7327
  766MOL0     H 5651   9.366   5.189   9.144  0.4212 -1.2522 -2.1360
  766MOL0     H 5652   9.264   5.243   9.286  1.7441  0.4967 -0.3014
  766MOL0     H 5653   9.362   4.975   9.194  1.8545 -0.8236  1.8764
  766MOL0     H 5654   9.193   4.980   9.253  0.0134 -0.1818 -1.1964
  766MOL0     H 5655   9.452   5.060   9.378 -0.0515  0.6013 -0.8704
  766MOL0     H 5656   9.299   5.103   9.457 -1.8559 -0.0963 -1.6980
  766MOL0     H 5657   9.544   4.833   9.507 -0.3478 -2.2625 -1.2090
  766MOL0     H 5658   9.418   4.603   9.713  2.6710  3.5479  0.6328
  766MOL0     H 5659   9.556   4.611   9.615 -0.1319  1.9034  1.7804
  766MOL0     H 5660   9.317   4.421   9.565 -0.0761 -2.3556 -0.4604
  766MOL0     H 5661   9.422   4.477   9.428  0.6662 -0.1178 -0.8292
  766MOL0     H 5662   9.456   4.253   9.538  2.5207 -0.5876 -0.1846
  766MOL0     H 5663   9.601   4.347   9.525  0.1877 -0.1411  0.5491
  766MOL0     H 5664   9.580   4.398   9.778  1.2643 -1.8157 -0.0885
  766MOL0     H 5665   9.424   4.330   9.791  1.9237 -0.8888  3.2458
  766MOL0     H 5666   9.690   3.969   9.730 -1.0784  0.8574 -2.4705
  766MOL0     H 5667   9.855   3.803   9.763 -0.1000 -0.2253 -0.3109
  766MOL0     H 5668  10.005   3.860   9.834  0.1785  1.0029  0.5215
  766MOL0     H 5669   9.994   3.836   9.655  0.4027  0.1920  0.3513
  766MOL0     H 5670  10.299   4.252   9.399  0.8785  0.1853  0.6206
  766MOL0     H 5671  10.554   4.252   9.357  0.2882 -0.5833  0.0389
  766MOL0     H 5672  10.734   4.096   9.410 -0.5687  2.6909 -2.1433
  766MOL0     H 5673  10.804   4.243   9.360  2.0169  0.9410  0.2191
  766MOL0     H 5674  10.922   4.105   9.608 -0.2852  0.0383  0.2052
  766MOL0     H 5675  10.974   4.049   9.443  0.2974 -0.9835 -0.0507
  766MOL0     H 5676  11.009   4.310   9.589  2.3426  0.6179  0.7512
  766MOL0     H 5677  11.030   4.318   9.421 -0.1799  1.1283  1.2784
  766MOL0     H 5678  11.253   4.271   9.476 -0.1238 -1.1401 -0.5197
  766MOL0     H 5679  11.203   4.105   9.473  3.0378  0.1394  1.6162
  766MOL0     H 5680  11.184   4.263   9.728 -0.8265 -0.8547  0.9400
  766MOL0     H 5681  11.140   4.090   9.697 -2.0792  0.5187 -1.0277
  766MOL0     H 5682  11.389   4.048   9.673  0.0026 -0.4174  0.0248
  766MOL0     H 5683  11.348   4.139   9.822  1.8337  1.2136  0.8300
  766MOL0     H 5684  11.399   4.342   9.634  2.0958  2.3447  1.7533
  766MOL0     H 5685  11.501   4.228   9.564 -2.3635  1.4116 -1.9191
  766MOL0     H 5686  11.630   4.371   9.706 -3.9072  3.1937 -0.6775
  766MOL0     H 5687  11.603   4.207   9.796 -2.4744 -0.5302  2.9095
  766MOL0     H 5688  10.617   4.272   9.769 -0.9882  1.4717 -0.6333
  766MOL0     H 5689  10.389   4.222   9.813 -2.7086 -3.6782 -0.6730
  766MOL0     H 5690  10.003   4.341   9.680 -1.3111  0.2517  2.1104
  766MOL0     H 5691   9.775   4.385   9.711 -0.7348  0.2748 -2.2447
  766MOL0     H 5692   9.475   5.450   8.543  1.7937  3.8509 -1.6015
  766MOL0     H 5693   9.666   5.414   8.447 -2.1907 -0.3675  0.3801
  766MOL0     H 5694  10.083   5.261   8.250 -0.5151 -0.1113 -0.9496
  766MOL0     H 5695  10.321   5.233   8.218 -1.3281  2.2011 -2.1629
  766MOL0     H 5696  10.519   5.181   8.258 -2.1917  1.5106 -0.4030
  766MOL0     H 5697  10.557   5.298   8.131 -0.1153 -0.1663 -0.9082
  766MOL0     H 5698  10.762   5.369   8.273  2.2010 -1.0814 -0.9182
  766MOL0     H 5699  10.761   5.223   8.178  0.1719  0.0811 -0.3376
  766MOL0     H 5700  10.690   5.245   8.487 -2.4119  1.0660 -1.7323
  766MOL0     H 5701  10.710   5.096   8.388  1.5707 -0.9949  1.0032
  766MOL0     H 5702  10.934   5.161   8.524  1.5663 -0.3315 -0.7137
  766MOL0     H 5703  10.936   5.295   8.420 -1.2120  0.1068 -1.4392
  766MOL0     H 5704  11.063   4.978   8.166  1.5709 -0.5237  0.7432
  766MOL0     H 5705  10.402   5.565   8.481 -0.3556  1.6218 -2.2409
  766MOL0     H 5706  10.228   5.706   8.541 -1.2938 -0.1002 -0.4513
  766MOL0     H 5707  10.066   5.669   8.552  0.8623  1.1011  1.3226
  766MOL0     H 5708  10.176   5.586   8.666 -2.3644  0.1274  0.5694
  767MOL0     O 5709   2.295   3.295   9.806  0.2274  0.0015  0.1752
  767MOL0     C 5710   2.263   3.178   9.785  0.2934 -0.4356 -0.2758
  767MOL0     O 5711   2.338   3.067   9.797 -1.0809 -0.7721 -0.0852
  767MOL0     C 5712   2.471   3.085   9.807  0.3744  0.6127  0.1064
  767MOL0     C 5713   2.564   3.040   9.712 -0.4696  0.6867 -0.2624
  767MOL0     C 5714   2.694   3.019   9.749 -0.6557  1.0772 -0.1373
  767MOL0     C 5715   2.746   3.060   9.873  0.2210 -0.5023 -0.4050
  767MOL0     O 5716   2.868   3.048   9.926 -0.1411  0.6256  0.1550
  767MOL0     C 5717   2.979   3.022   9.836 -0.8695 -0.2764  0.5209
  767MOL0     C 5718   3.107   3.009   9.919  0.0311 -0.5802 -0.2224
  767MOL0     C 5719   3.229   2.967   9.836 -0.2315  0.5660 -0.1981
  767MOL0     C 5720   3.363   2.973   9.921  0.3681 -0.7838 -0.4618
  767MOL0     C 5721   3.479   2.931   9.830 -0.1950 -0.3744 -0.2696
  767MOL0     C 5722   3.459   2.779   9.809 -0.2891 -0.8446  0.4148
  767MOL0     C 5723   3.577   2.706   9.755  0.6545 -0.7477 -0.3292
  767MOL0     C 5724   3.537   2.608   9.648  0.4897  1.2822 -0.4221
  767MOL0     N 5725   3.649   2.515   9.605 -0.9796 -0.8117  0.6207
  767MOL0     C 5726   3.753   2.571   9.531  0.4991  0.5822 -0.5490
  767MOL0     C 5727   3.817   2.462   9.489 -0.6922  0.0606  0.3021
  767MOL0     C 5728   3.924   2.477   9.383 -0.2621 -0.3230  0.3866
  767MOL0     C 5729   4.061   2.453   9.454  0.3786  0.4790 -0.6340
  767MOL0     C 5730   4.181   2.467   9.355 -0.3736 -0.6217 -0.0065
  767MOL0     C 5731   4.317   2.454   9.431  0.7518 -0.1012  0.0911
  767MOL0     O 5732   4.410   2.389   9.345  0.1420  0.0061  1.3696
  767MOL0     C 5733   4.541   2.384   9.357 -0.0460 -0.1538  0.1948
  767MOL0     C 5734   4.619   2.332   9.250 -0.0248  0.3876  0.6546
  767MOL0     C 5735   4.756   2.340   9.248  0.5467 -0.4436 -0.3423
  767MOL0     C 5736   4.824   2.282   9.119  0.1473  0.8272  0.7494
  767MOL0     C 5737   4.827   2.392   9.359 -0.4579  0.1356 -0.1722
  767MOL0     C 5738   4.971   2.401   9.383  0.2408  0.2832 -0.9771
  767MOL0     O 5739   5.011   2.483   9.485  0.0876  0.0435  0.6811
  767MOL0     C 5740   5.142   2.466   9.525 -1.1572  0.8180  0.4974
  767MOL0     C 5741   5.174   2.349   9.601 -0.1178  1.1033  0.4560
  767MOL0     C 5742   5.304   2.329   9.646  0.6219 -0.6657  0.0196
  767MOL0     C 5743   5.394   2.431   9.631 -0.0885 -0.1796  0.7381
  767MOL0     O 5744   5.521   2.416   9.679  0.5560  0.1045 -0.0276
  767MOL0     C 5745   5.543   2.336   9.796  0.0758  0.6543 -0.1200
  767MOL0     C 5746   5.696   2.354   9.834 -0.4501  0.1232 -0.2253
  767MOL0     C 5747   5.720   2.291   9.973  0.2350  0.8919  0.0907
  767MOL0     C 5748   5.861   2.328  10.032  0.0903 -1.0658  0.6853
  767MOL0     C 5749   5.898   2.248  10.156  0.2846 -0.5208 -0.7312
  767MOL0     C 5750   5.896   2.097  10.153  0.0506 -0.3314  0.7574
  767MOL0     C 5751   5.947   2.042  10.291 -0.1219  0.5919  0.6748
  767MOL0     C 5752   5.902   1.900  10.315 -0.3061 -0.5331  0.0291
  767MOL0    Cl 5753   5.995   1.791  10.207  0.1272 -0.4834 -0.0160
  767MOL0     C 5754   5.373   2.545   9.550  0.5765 -0.1846 -1.2907
  767MOL0     C 5755   5.241   2.567   9.504 -0.5503 -0.1972  0.3901
  767MOL0     O 5756   5.046   2.322   9.323 -0.5785  0.8062  1.0947
  767MOL0     C 5757   4.751   2.435   9.477 -0.2916 -0.6292  0.2745
  767MOL0     C 5758   4.606   2.431   9.472  0.4424 -0.4314  0.3593
  767MOL0     N 5759   3.775   2.347   9.545 -0.5206 -0.1114 -0.2416
  767MOL0     N 5760   3.674   2.381   9.613 -0.2866 -0.0637 -0.1948
  767MOL0     C 5761   2.653   3.108   9.960 -0.5377  0.3387 -0.5844
  767MOL0     C 5762   2.525   3.136   9.926  0.0447 -0.0224 -0.2239
  767MOL0     C 5763   2.120   3.158   9.752 -0.8287  0.2536  0.7000
  767MOL0     C 5764   2.061   3.030   9.774 -0.3697  0.1641 -0.2147
  767MOL0     C 5765   1.935   3.005   9.748  0.7700  0.4166 -0.1076
  767MOL0     C 5766   1.843   3.100   9.697 -0.1560  0.5622 -0.2758
  767MOL0     O 5767   1.706   3.057   9.693 -0.2038 -0.1951  0.3963
  767MOL0     C 5768   1.624   3.113   9.584  0.0806 -0.0287  0.1512
  767MOL0     C 5769   1.639   3.030   9.459 -0.2161  0.8774  0.2711
  767MOL0     C 5770   1.545   2.906   9.456  0.7130  0.3830 -0.0828
  767MOL0     C 5771   1.398   2.943   9.418  0.0377 -0.1060  0.8573
  767MOL0     C 5772   1.346   2.846   9.331 -0.9214  0.1051  0.0447
  767MOL0     C 5773   1.329   2.754   9.251 -0.4347 -0.2656 -0.3083
  767MOL0     C 5774   1.899   3.228   9.665 -0.8438 -0.8080 -0.3729
  767MOL0     C 5775   2.035   3.263   9.698  0.7743  0.0615  0.4366
  767MOL0     C 5776   2.084   3.401   9.666 -0.6930 -0.1508  0.0196
  767MOL0     H 5777   2.531   3.007   9.614  0.9211  0.2775 -0.6198
  767MOL0     H 5778   2.764   2.980   9.676 -0.0645 -0.0883  1.0152
  767MOL0     H 5779   2.997   3.099   9.761  2.2118 -2.1599 -0.8905
  767MOL0     H 5780   2.971   2.931   9.776  2.0656 -0.0115 -0.4611
  767MOL0     H 5781   3.121   3.103   9.972 -3.0820  0.7631 -1.5480
  767MOL0     H 5782   3.086   2.934   9.997  1.1025 -0.0805  0.5650
  767MOL0     H 5783   3.219   2.871   9.785  1.0639  0.1121  0.3493
  767MOL0     H 5784   3.248   3.034   9.752  1.0035 -0.1567 -0.5266
  767MOL0     H 5785   3.386   3.077   9.946  0.6268 -0.5418 -1.6118
  767MOL0     H 5786   3.354   2.912  10.010 -1.1266 -0.2338 -0.2150
  767MOL0     H 5787   3.570   2.950   9.888 -0.4488  1.5816 -0.4462
  767MOL0     H 5788   3.477   2.992   9.740 -1.4095 -2.3565 -1.6822
  767MOL0     H 5789   3.435   2.733   9.906  1.9746  1.1419  2.0256
  767MOL0     H 5790   3.377   2.762   9.739  0.0045 -1.3522  0.1927
  767MOL0     H 5791   3.622   2.650   9.837 -2.1655 -1.3031  0.9531
  767MOL0     H 5792   3.645   2.775   9.704 -0.9870  1.1022 -0.1501
  767MOL0     H 5793   3.461   2.547   9.697  0.1076  1.4023 -0.8538
  767MOL0     H 5794   3.493   2.648   9.556  0.2961  1.2647 -0.3373
  767MOL0     H 5795   3.769   2.673   9.498  2.8041  0.7169  0.7464
  767MOL0     H 5796   3.907   2.569   9.328 -0.3361 -0.8822 -0.5389
  767MOL0     H 5797   3.903   2.401   9.307 -4.4601  2.1687 -1.3091
  767MOL0     H 5798   4.079   2.529   9.530  2.0233 -0.1874 -0.3053
  767MOL0     H 5799   4.070   2.357   9.506 -2.8289  0.4726  0.0878
  767MOL0     H 5800   4.176   2.390   9.277  0.2701  0.0570 -0.7438
  767MOL0     H 5801   4.171   2.562   9.301 -1.8538  0.1697  1.5772
  767MOL0     H 5802   4.367   2.547   9.459  2.4105 -0.0529 -2.6145
  767MOL0     H 5803   4.307   2.390   9.518  1.0470 -1.3858 -0.7935
  767MOL0     H 5804   4.559   2.287   9.171  1.1802  0.0292 -0.0850
  767MOL0     H 5805   4.887   2.360   9.075  0.4255  0.7736  1.0492
  767MOL0     H 5806   4.759   2.257   9.035 -0.1710  1.2598  0.8663
  767MOL0     H 5807   4.887   2.194   9.140  0.9211  1.7447  2.4004
  767MOL0     H 5808   5.101   2.270   9.615  0.5733  0.2044 -0.8654
  767MOL0     H 5809   5.323   2.239   9.703  2.1341  0.0678  0.7541
  767MOL0     H 5810   5.479   2.364   9.880 -0.4652 -1.3033  0.1722
  767MOL0     H 5811   5.517   2.233   9.773 -0.4239  0.5982  0.6625
  767MOL0     H 5812   5.763   2.316   9.756  0.4354 -2.2870  1.6266
  767MOL0     H 5813   5.715   2.461   9.848  0.1239 -0.1535  1.2108
  767MOL0     H 5814   5.702   2.183   9.976  0.2860  0.8981  1.0346
  767MOL0     H 5815   5.644   2.329  10.042  1.6359 -0.3005  2.4205
  767MOL0     H 5816   5.873   2.436  10.041  2.8774 -0.9591 -2.2829
  767MOL0     H 5817   5.940   2.304   9.960 -1.7229  1.0491 -2.2216
  767MOL0     H 5818   5.997   2.282  10.190 -0.2756 -1.1534  1.6797
  767MOL0     H 5819   5.820   2.278  10.227  1.1047  0.3192 -0.1488
  767MOL0     H 5820   5.958   2.062  10.070  1.9788  4.4470 -0.1478
  767MOL0     H 5821   5.793   2.062  10.141  0.2975 -0.6672 -0.5808
  767MOL0     H 5822   5.902   2.110  10.364 -1.2606  0.9567 -0.3365
  767MOL0     H 5823   6.056   2.041  10.294 -0.1038  0.4226  0.0424
  767MOL0     H 5824   5.793   1.896  10.303 -0.2274 -0.8282 -0.5971
  767MOL0     H 5825   5.923   1.877  10.420 -0.5378 -1.1447 -0.0546
  767MOL0     H 5826   5.453   2.615   9.531  1.3508  0.0396  2.1989
  767MOL0     H 5827   5.230   2.662   9.454  1.0733  0.7883  1.7925
  767MOL0     H 5828   4.792   2.466   9.573 -1.7359 -0.6917  0.9460
  767MOL0     H 5829   4.546   2.465   9.555  2.8917  4.2917  0.5094
  767MOL0     H 5830   2.681   3.128  10.063 -2.3640  1.0004 -0.1852
  767MOL0     H 5831   2.449   3.175   9.993 -2.0779 -0.0160 -2.4678
  767MOL0     H 5832   2.118   2.950   9.822 -1.8960  0.3164  1.9587
  767MOL0     H 5833   1.901   2.905   9.771  4.4274 -1.4307 -1.9140
  767MOL0     H 5834   1.521   3.106   9.620  1.3500 -2.8281  3.9558
  767MOL0     H 5835   1.648   3.216   9.557 -2.1234  0.7727  0.9989
  767MOL0     H 5836   1.742   3.008   9.432 -0.0334  3.3537 -1.2796
  767MOL0     H 5837   1.598   3.095   9.382  0.9315 -1.3050 -2.3215
  767MOL0     H 5838   1.584   2.831   9.386 -2.5275 -2.9042  1.2817
  767MOL0     H 5839   1.555   2.873   9.560 -1.5030  3.2927  1.1743
  767MOL0     H 5840   1.385   3.035   9.362  4.7443  1.7753  2.3280
  767MOL0     H 5841   1.330   2.958   9.502 -2.1356  1.0085 -1.0137
  767MOL0     H 5842   1.325   2.670   9.185 -0.4757  0.1642 -0.8635
  767MOL0     H 5843   1.826   3.300   9.631 -0.8424 -0.0055  1.2369
  767MOL0     H 5844   2.183   3.403   9.620 -0.2993  2.0009  0.8645
  767MOL0     H 5845   2.018   3.452   9.594 -0.5713 -1.5675 -1.1486
  767MOL0     H 5846   2.078   3.464   9.755  1.2669  3.3285 -2.0833
  768MOL0     O 5847   1.462   2.736   3.084  0.1866 -0.1754  0.0972
  768MOL0     C 5848   1.388   2.682   2.999  1.3544 -0.5759 -0.1407
  768MOL0     O 5849   1.430   2.587   2.910  0.3979  0.0028  0.2169
  768MOL0     C 5850   1.565   2.554   2.906  0.6587  0.4348 -0.1757
  768MOL0     C 5851   1.633   2.484   3.018 -0.8732  0.1116  0.1754
  768MOL0     C 5852   1.769   2.463   3.016  0.1789 -0.4161 -0.5581
  768MOL0     C 5853   1.844   2.501   2.903  0.9617  0.3506  0.3706
  768MOL0     O 5854   1.979   2.504   2.887 -0.0043 -0.2425  0.1739
  768MOL0     C 5855   2.060   2.459   2.995 -0.4234  0.4894 -0.1701
  768MOL0     C 5856   2.076   2.305   3.014  0.1364 -0.2385 -1.1616
  768MOL0     C 5857   2.175   2.264   3.130 -0.1742 -0.8624  0.9668
  768MOL0     C 5858   2.305   2.324   3.076 -0.1966 -0.1989 -0.3112
  768MOL0     C 5859   2.419   2.262   3.142  0.0161  0.2656  0.0350
  768MOL0     C 5860   2.450   2.304   3.280 -0.3906 -0.3625  0.8052
  768MOL0     C 5861   2.561   2.220   3.334  0.8285 -0.0493  0.3744
  768MOL0     C 5862   2.611   2.259   3.477  0.0491 -0.4474  0.2968
  768MOL0     N 5863   2.712   2.363   3.481  0.0909 -0.0686  0.1177
  768MOL0     C 5864   2.806   2.385   3.579 -0.1739  0.6292 -0.2021
  768MOL0     C 5865   2.848   2.510   3.565  0.4318  1.1311  0.7647
  768MOL0     C 5866   2.953   2.579   3.653  0.9421  0.4988 -0.1537
  768MOL0     C 5867   3.028   2.690   3.580 -0.7102  0.0838  0.6918
  768MOL0     C 5868   3.165   2.701   3.646  0.0631 -0.3869  0.2745
  768MOL0     C 5869   3.278   2.767   3.561 -0.1783  0.7786 -0.4667
  768MOL0     O 5870   3.235   2.899   3.531  0.0224  0.1109 -0.2467
  768MOL0     C 5871   3.300   2.962   3.426  0.4812 -0.5747 -0.8598
  768MOL0     C 5872   3.219   3.053   3.367  0.1078 -1.4664 -0.2286
  768MOL0     C 5873   3.276   3.144   3.276 -0.4644 -0.3596 -0.2528
  768MOL0     C 5874   3.177   3.236   3.208  0.8418  0.4954  0.0064
  768MOL0     C 5875   3.419   3.129   3.245 -0.7535  0.5311  0.4683
  768MOL0     C 5876   3.488   3.209   3.149  0.5122 -0.3155 -0.0308
  768MOL0     O 5877   3.608   3.157   3.109  0.3295  0.6476 -0.2950
  768MOL0     C 5878   3.703   3.213   3.021  0.4163  0.3010 -0.1736
  768MOL0     C 5879   3.726   3.352   3.024  0.4026 -0.3240  1.0007
  768MOL0     C 5880   3.827   3.410   2.941 -0.3706 -0.5024  0.7283
  768MOL0     C 5881   3.899   3.333   2.854 -0.4803  0.1402  0.1806
  768MOL0     O 5882   3.999   3.392   2.778  0.3305  0.3340  0.2678
  768MOL0     C 5883   4.126   3.322   2.773  0.2245 -0.9436 -0.2646
  768MOL0     C 5884   4.220   3.409   2.693  0.8661 -0.2207  1.1644
  768MOL0     C 5885   4.331   3.322   2.630  0.2353  0.3512 -0.0078
  768MOL0     C 5886   4.434   3.414   2.556  0.4521  0.6680  0.1950
  768MOL0     C 5887   4.571   3.342   2.530  0.2677 -0.1002  0.1271
  768MOL0     C 5888   4.631   3.283   2.661  0.3495 -0.4523 -0.6872
  768MOL0     C 5889   4.781   3.308   2.682 -0.3481 -0.2335 -0.4452
  768MOL0     C 5890   4.809   3.449   2.720  0.4461  0.8092 -0.2087
  768MOL0    Cl 5891   4.816   3.458   2.898  0.2224  0.0487  0.3727
  768MOL0     C 5892   3.874   3.199   2.845 -1.0923 -0.4726  0.3910
  768MOL0     C 5893   3.777   3.139   2.929 -0.5754 -0.8234 -0.2385
  768MOL0     O 5894   3.449   3.317   3.116 -0.5369 -0.4518  0.4463
  768MOL0     C 5895   3.486   3.023   3.303 -0.5482 -0.1595 -0.3173
  768MOL0     C 5896   3.433   2.938   3.395  0.3825 -0.3571 -0.2158
  768MOL0     N 5897   2.784   2.562   3.451 -0.0658 -0.0697 -0.3143
  768MOL0     N 5898   2.702   2.473   3.407 -0.1855 -0.5195  0.4493
  768MOL0     C 5899   1.778   2.554   2.793 -0.0487  0.5961  0.9357
  768MOL0     C 5900   1.640   2.585   2.795 -0.2852  0.2273 -0.3667
  768MOL0     C 5901   1.243   2.712   3.017  0.0310  0.1835 -1.4598
  768MOL0     C 5902   1.149   2.627   2.966 -0.3041  0.3674 -0.3385
  768MOL0     C 5903   1.015   2.647   2.985 -0.6517  0.5240 -0.1201
  768MOL0     C 5904   0.965   2.747   3.056  1.1974  0.6986 -0.0625
  768MOL0     O 5905   0.826   2.773   3.068 -0.1615 -0.0780  0.3758
  768MOL0     C 5906   0.732   2.682   3.005 -0.4536  0.3852 -0.1717
  768MOL0     C 5907   0.580   2.716   3.010  0.6288 -0.3518 -0.4230
  768MOL0     C 5908   0.531   2.675   3.148  0.9800 -0.3316  0.2025
  768MOL0     C 5909   0.382   2.656   3.156  0.5481 -0.0429  0.2478
  768MOL0     C 5910   0.336   2.527   3.095 -0.8534 -0.7527 -0.0782
  768MOL0     C 5911   0.289   2.435   3.044  0.0221 -1.0906  0.8803
  768MOL0     C 5912   1.056   2.838   3.103 -0.2220  0.1954 -1.2673
  768MOL0     C 5913   1.193   2.828   3.089 -0.4148  0.2834  0.0444
  768MOL0     C 5914   1.270   2.936   3.155 -0.5378  0.2604  0.3902
  768MOL0     H 5915   1.580   2.461   3.109 -1.1926  2.1016  0.5378
  768MOL0     H 5916   1.828   2.416   3.095  1.7868  0.0502 -1.4394
  768MOL0     H 5917   2.022   2.492   3.092 -1.7223 -0.7425 -0.2301
  768MOL0     H 5918   2.160   2.500   2.978 -0.2655  1.2439  2.2014
  768MOL0     H 5919   1.978   2.262   3.039 -0.2440  0.8603 -0.7166
  768MOL0     H 5920   2.090   2.258   2.916 -0.2308 -0.6111 -1.0383
  768MOL0     H 5921   2.145   2.308   3.226 -0.5969 -0.5648  0.6968
  768MOL0     H 5922   2.172   2.155   3.141 -1.4370 -0.8621  0.8223
  768MOL0     H 5923   2.321   2.301   2.970  1.0187  2.4368 -0.7841
  768MOL0     H 5924   2.323   2.432   3.080  2.5690 -0.5339 -1.4090
  768MOL0     H 5925   2.511   2.278   3.085  0.8879 -0.6199  1.1541
  768MOL0     H 5926   2.408   2.154   3.143 -1.1703  0.3048 -2.0987
  768MOL0     H 5927   2.486   2.406   3.267 -1.1616 -0.3017 -1.1369
  768MOL0     H 5928   2.368   2.300   3.353 -0.8841 -0.8123  0.2355
  768MOL0     H 5929   2.644   2.220   3.262  1.6018 -0.3784  1.2437
  768MOL0     H 5930   2.530   2.115   3.336  0.1104  0.1631  0.5275
  768MOL0     H 5931   2.527   2.293   3.539  1.7388  3.1357  0.8995
  768MOL0     H 5932   2.653   2.170   3.524  0.9095  0.8534  2.1037
  768MOL0     H 5933   2.831   2.319   3.661  0.3581 -1.4712 -1.9453
  768MOL0     H 5934   3.019   2.496   3.680 -0.2820 -0.3454  0.3963
  768MOL0     H 5935   2.907   2.617   3.744 -0.2095  0.0230 -0.5087
  768MOL0     H 5936   3.046   2.671   3.474 -0.2349  1.0827  0.5748
  768MOL0     H 5937   2.968   2.780   3.597 -4.3055 -2.1164  0.8015
  768MOL0     H 5938   3.146   2.772   3.727 -1.5962  2.3944 -2.3616
  768MOL0     H 5939   3.206   2.608   3.687  3.5953  1.6606  1.8692
  768MOL0     H 5940   3.379   2.768   3.602 -0.6353  0.4596  0.7263
  768MOL0     H 5941   3.285   2.708   3.469  0.8715 -2.3556  1.4693
  768MOL0     H 5942   3.122   3.071   3.411  0.0623 -0.9817 -0.5107
  768MOL0     H 5943   3.165   3.201   3.106  0.4257 -1.8449  0.7939
  768MOL0     H 5944   3.218   3.337   3.195 -1.4202  1.2910 -1.3690
  768MOL0     H 5945   3.082   3.238   3.263  0.4162 -0.0909 -0.6986
  768MOL0     H 5946   3.670   3.416   3.092 -0.2060  1.5874 -1.1896
  768MOL0     H 5947   3.858   3.513   2.944  1.6798 -1.0860  1.5353
  768MOL0     H 5948   4.163   3.300   2.874  0.5313  3.5031  0.8019
  768MOL0     H 5949   4.107   3.229   2.719 -1.5555 -1.3435  0.9319
  768MOL0     H 5950   4.164   3.460   2.614  0.9572 -1.2622  0.3965
  768MOL0     H 5951   4.276   3.480   2.754  3.9129  1.3307 -2.9170
  768MOL0     H 5952   4.289   3.246   2.563  1.7347 -0.9861  0.5129
  768MOL0     H 5953   4.379   3.266   2.711  1.5424 -0.6845 -1.4308
  768MOL0     H 5954   4.458   3.505   2.612 -1.2366  2.0757 -1.2650
  768MOL0     H 5955   4.393   3.442   2.458  0.5075 -2.4586 -0.8307
  768MOL0     H 5956   4.551   3.268   2.451 -1.5716 -0.2371  0.6736
  768MOL0     H 5957   4.640   3.419   2.495  0.7810  1.9528  4.9570
  768MOL0     H 5958   4.614   3.175   2.653  1.5276 -0.7399  0.4181
  768MOL0     H 5959   4.575   3.316   2.749  1.2399  1.8716 -0.9325
  768MOL0     H 5960   4.833   3.303   2.586  1.6561 -1.6957  0.6649
  768MOL0     H 5961   4.822   3.239   2.756 -2.8267 -0.1918  1.0752
  768MOL0     H 5962   4.731   3.515   2.679 -1.1847 -0.1031  1.3197
  768MOL0     H 5963   4.910   3.465   2.680  2.4382 -4.7635  1.6818
  768MOL0     H 5964   3.933   3.143   2.774  1.0390 -1.9164  3.0943
  768MOL0     H 5965   3.767   3.032   2.914 -1.1566 -0.7797 -0.1926
  768MOL0     H 5966   3.586   2.994   3.271 -0.6365 -1.9666  0.9206
  768MOL0     H 5967   3.488   2.856   3.440  0.4553  0.5479  1.4318
  768MOL0     H 5968   1.839   2.579   2.706 -0.4369  3.1180  1.2979
  768MOL0     H 5969   1.582   2.627   2.713 -1.6430 -1.2786 -0.2484
  768MOL0     H 5970   1.190   2.540   2.915 -1.6715 -1.3808  1.4122
  768MOL0     H 5971   0.945   2.579   2.937 -2.1000  1.1774  0.9772
  768MOL0     H 5972   0.770   2.685   2.903  0.8580  0.2451  0.2922
  768MOL0     H 5973   0.737   2.584   3.053 -0.8023  1.4488  2.1766
  768MOL0     H 5974   0.537   2.656   2.929  1.4638  0.7100 -1.6914
  768MOL0     H 5975   0.554   2.817   2.978  1.4122 -0.2520 -0.7817
  768MOL0     H 5976   0.567   2.576   3.179 -1.2021 -0.8159  1.3479
  768MOL0     H 5977   0.548   2.757   3.218 -4.7218 -0.3514  2.0926
  768MOL0     H 5978   0.337   2.740   3.102  1.4602 -0.8180 -1.8019
  768MOL0     H 5979   0.354   2.654   3.262  0.8384 -1.5305  0.3164
  768MOL0     H 5980   0.264   2.347   2.988 -0.7216 -0.1629 -0.3014
  768MOL0     H 5981   1.020   2.929   3.149  1.4300  0.6246 -0.7546
  768MOL0     H 5982   1.304   2.901   3.253  1.8991  1.7231  0.1645
  768MOL0     H 5983   1.363   2.962   3.102 -1.2672 -1.1047 -1.6746
  768MOL0     H 5984   1.210   3.026   3.171 -1.0171  0.0069  0.0056
  769MOL0     O 5985   2.464   2.570   8.820  0.3683 -0.2657 -0.1809
  769MOL0     C 5986   2.571   2.576   8.758  0.3867  0.8092  0.6379
  769MOL0     O 5987   2.573   2.604   8.621 -0.7021 -0.8912  0.6476
  769MOL0     C 5988   2.450   2.607   8.564  1.0572  0.2388 -0.4931
  769MOL0     C 5989   2.410   2.732   8.506  0.5150 -0.3140 -0.7464
  769MOL0     C 5990   2.288   2.733   8.435 -0.3935  0.0117  0.4334
  769MOL0     C 5991   2.203   2.618   8.435  0.0087 -0.0493  0.5397
  769MOL0     O 5992   2.083   2.610   8.368 -0.1450  0.9514 -0.3159
  769MOL0     C 5993   2.031   2.735   8.322 -0.5067 -0.0266 -0.2208
  769MOL0     C 5994   1.879   2.725   8.293 -0.3176  0.2745  0.2057
  769MOL0     C 5995   1.858   2.640   8.165 -0.2202  0.0941 -0.5021
  769MOL0     C 5996   1.915   2.690   8.030  0.0583  0.0027 -0.2949
  769MOL0     C 5997   1.878   2.583   7.921  0.2635  0.1463 -0.7963
  769MOL0     C 5998   1.927   2.629   7.783  0.5116  0.3480  0.4180
  769MOL0     C 5999   1.877   2.541   7.666 -0.1906 -1.3244 -0.5365
  769MOL0     C 6000   1.903   2.393   7.671  0.6531  0.2827 -0.0475
  769MOL0     N 6001   2.040   2.345   7.684 -0.3816 -0.3633 -0.5393
  769MOL0     C 6002   2.131   2.365   7.786 -0.2038 -0.1470 -0.3802
  769MOL0     C 6003   2.242   2.301   7.751 -0.2584 -0.7984 -0.7158
  769MOL0     C 6004   2.355   2.288   7.851 -0.2598 -0.8752  0.5171
  769MOL0     C 6005   2.477   2.339   7.781  0.2505  0.0407  0.9345
  769MOL0     C 6006   2.468   2.500   7.764  0.0029  0.6783  0.7495
  769MOL0     C 6007   2.609   2.565   7.735 -0.3366  0.1855 -0.7791
  769MOL0     O 6008   2.601   2.703   7.711  0.2775 -0.7349 -0.0437
  769MOL0     C 6009   2.605   2.797   7.817 -0.4383 -0.0883  0.4216
  769MOL0     C 6010   2.558   2.781   7.943  0.1847 -0.5677 -0.5410
  769MOL0     C 6011   2.568   2.888   8.041  0.3343  1.2050 -0.4833
  769MOL0     C 6012   2.488   2.881   8.173  0.4853 -0.2896  0.4591
  769MOL0     C 6013   2.654   3.000   8.008 -0.2298  0.4968  1.0308
  769MOL0     C 6014   2.679   3.122   8.101 -0.2196  0.5059 -0.1092
  769MOL0     O 6015   2.792   3.185   8.070  0.3822  0.3207 -0.0883
  769MOL0     C 6016   2.840   3.283   8.156  0.4744 -0.0600 -0.5788
  769MOL0     C 6017   2.820   3.414   8.113  0.5546  0.5498  0.2540
  769MOL0     C 6018   2.866   3.527   8.189  0.5296  0.1944  0.4953
  769MOL0     C 6019   2.933   3.501   8.306 -0.1670 -0.6413 -0.1732
  769MOL0     O 6020   2.973   3.598   8.394  0.2963  0.1521 -0.4601
  769MOL0     C 6021   2.946   3.739   8.383 -0.4686 -0.4716  0.0472
  769MOL0     C 6022   2.855   3.795   8.485  0.1332  0.3697  0.4427
  769MOL0     C 6023   2.728   3.702   8.525 -0.7133 -0.2638  0.3712
  769MOL0     C 6024   2.618   3.715   8.419  1.0113  0.2676 -0.2967
  769MOL0     C 6025   2.529   3.594   8.418  0.4318 -0.6164 -0.3768
  769MOL0     C 6026   2.435   3.584   8.536 -0.2625 -0.1440 -0.0685
  769MOL0     C 6027   2.380   3.442   8.533  0.7452  0.9504  0.3802
  769MOL0     C 6028   2.251   3.422   8.611  0.2792  0.5623 -0.2231
  769MOL0    Cl 6029   2.296   3.452   8.771  0.2750 -0.3524 -0.1925
  769MOL0     C 6030   2.962   3.371   8.344  0.2392  0.4092  0.7657
  769MOL0     C 6031   2.912   3.258   8.282  1.0883 -0.3882 -0.6102
  769MOL0     O 6032   2.603   3.148   8.195  0.7503  0.2247 -0.3918
  769MOL0     C 6033   2.711   3.005   7.881 -0.6482 -0.0046  0.2370
  769MOL0     C 6034   2.689   2.909   7.790  1.1539  0.5354  0.3523
  769MOL0     N 6035   2.223   2.247   7.626 -0.2857 -0.1718 -0.0546
  769MOL0     N 6036   2.102   2.269   7.591  0.4601 -0.0829 -0.5070
  769MOL0     C 6037   2.244   2.502   8.493 -0.2690  0.8894  0.0382
  769MOL0     C 6038   2.368   2.492   8.557  0.6303  0.1006  1.0328
  769MOL0     C 6039   2.699   2.560   8.829  0.2036  0.1566 -0.0888
  769MOL0     C 6040   2.812   2.566   8.746 -0.5520  0.1750  0.3547
  769MOL0     C 6041   2.947   2.575   8.790  0.0658 -0.2422  0.4062
  769MOL0     C 6042   2.966   2.585   8.929  0.6017 -0.2506 -0.5600
  769MOL0     O 6043   3.083   2.610   8.993 -0.4365  0.5309 -0.2048
  769MOL0     C 6044   3.209   2.615   8.933 -0.2724  0.2360  0.4547
  769MOL0     C 6045   3.309   2.529   9.022  0.2299 -0.7016  0.4152
  769MOL0     C 6046   3.381   2.623   9.125 -0.5049  0.0297  0.0548
  769MOL0     C 6047   3.474   2.547   9.220  0.6316  0.0767 -0.3250
  769MOL0     C 6048   3.587   2.485   9.149 -0.1818 -0.1967  0.0000
  769MOL0     C 6049   3.680   2.438   9.087 -0.4286 -0.3610  0.1923
  769MOL0     C 6050   2.851   2.603   9.015 -0.9067  0.5178 -0.6333
  769MOL0     C 6051   2.720   2.590   8.965  0.5249 -0.6454  0.5910
  769MOL0     C 6052   2.606   2.605   9.060 -0.8419  0.7609  0.4793
  769MOL0     H 6053   2.476   2.818   8.510 -0.2763  0.3566 -1.9256
  769MOL0     H 6054   2.267   2.825   8.381  3.7523  0.1804 -1.2596
  769MOL0     H 6055   2.082   2.778   8.235  1.1517 -2.6109 -0.6269
  769MOL0     H 6056   2.052   2.811   8.399 -1.5351 -1.3988  1.4813
  769MOL0     H 6057   1.828   2.677   8.377 -0.5978  0.8210  0.3525
  769MOL0     H 6058   1.837   2.824   8.277 -3.9758 -0.5938  3.0522
  769MOL0     H 6059   1.905   2.542   8.176  1.1135  0.8587  0.9134
  769MOL0     H 6060   1.749   2.638   8.153 -0.2209  0.7804 -0.6381
  769MOL0     H 6061   1.878   2.790   8.004  0.4842  0.3383  0.3525
  769MOL0     H 6062   2.022   2.703   8.050  0.2891 -0.7330 -1.0269
  769MOL0     H 6063   1.769   2.574   7.918  0.3314 -1.9184  0.8984
  769MOL0     H 6064   1.912   2.482   7.945  2.6740  0.6117 -1.9091
  769MOL0     H 6065   1.903   2.733   7.756 -0.2565  0.2848  0.8253
  769MOL0     H 6066   2.036   2.629   7.791  0.5160 -0.3874  0.4381
  769MOL0     H 6067   1.905   2.586   7.570 -0.1771 -0.2654 -0.0465
  769MOL0     H 6068   1.769   2.560   7.662 -0.3977 -2.4800 -0.7388
  769MOL0     H 6069   1.850   2.357   7.760 -0.2281  0.0783 -0.6501
  769MOL0     H 6070   1.863   2.350   7.579 -0.1855 -0.9344  0.8472
  769MOL0     H 6071   2.120   2.411   7.884  0.4216 -1.8201  0.5061
  769MOL0     H 6072   2.360   2.180   7.868 -1.1601 -1.3844 -2.0156
  769MOL0     H 6073   2.337   2.346   7.942 -1.2458  0.2466 -0.3597
  769MOL0     H 6074   2.561   2.314   7.847 -0.7486  0.7319  2.5386
  769MOL0     H 6075   2.479   2.283   7.687  1.6288 -0.3857  1.1922
  769MOL0     H 6076   2.402   2.526   7.681  2.8852 -0.2984 -2.0371
  769MOL0     H 6077   2.432   2.528   7.863  0.1324 -2.1324  1.6731
  769MOL0     H 6078   2.661   2.538   7.827  0.0565 -0.8940 -1.2975
  769MOL0     H 6079   2.664   2.515   7.654  0.9635 -1.2433  0.9198
  769MOL0     H 6080   2.497   2.697   7.975 -1.7384  2.0200  3.5865
  769MOL0     H 6081   2.546   2.894   8.265  0.0144  1.5607  0.5433
  769MOL0     H 6082   2.432   2.788   8.182 -0.4104  0.2541  0.7010
  769MOL0     H 6083   2.417   2.965   8.171 -0.4399 -0.9847  1.9875
  769MOL0     H 6084   2.759   3.426   8.025 -2.5942  0.8711  2.3304
  769MOL0     H 6085   2.839   3.629   8.164 -2.3111  0.0907  2.6281
  769MOL0     H 6086   3.032   3.806   8.394 -1.9380  1.3589  1.1106
  769MOL0     H 6087   2.889   3.768   8.294  0.4882  2.7814  0.3708
  769MOL0     H 6088   2.917   3.808   8.575  1.8869  2.0767 -0.9375
  769MOL0     H 6089   2.820   3.894   8.457 -0.1636 -0.4299 -2.2994
  769MOL0     H 6090   2.695   3.734   8.625 -1.1439 -1.9078  0.7829
  769MOL0     H 6091   2.755   3.598   8.547 -3.2439 -0.8174  1.2170
  769MOL0     H 6092   2.660   3.717   8.318  1.2499 -1.2200 -0.2566
  769MOL0     H 6093   2.564   3.810   8.417  2.6173  1.2199  0.0938
  769MOL0     H 6094   2.470   3.596   8.326  0.5128  1.1061 -0.4291
  769MOL0     H 6095   2.592   3.505   8.426 -0.6721 -1.3742  0.0198
  769MOL0     H 6096   2.354   3.657   8.529  1.2076  1.5355 -0.4720
  769MOL0     H 6097   2.494   3.595   8.628 -1.6706  1.2911  0.7077
  769MOL0     H 6098   2.460   3.375   8.566  0.8023  0.5396 -0.5634
  769MOL0     H 6099   2.370   3.412   8.428 -0.9055  0.5839  0.6166
  769MOL0     H 6100   2.236   3.316   8.585  1.1831  0.1235  0.9680
  769MOL0     H 6101   2.164   3.479   8.577 -1.4400 -1.6555  0.2302
  769MOL0     H 6102   3.027   3.364   8.430  0.0647  3.2209  1.2221
  769MOL0     H 6103   2.944   3.159   8.313  2.3394 -0.2663 -1.4646
  769MOL0     H 6104   2.761   3.093   7.844 -2.8731  0.9645 -0.6617
  769MOL0     H 6105   2.729   2.923   7.691  2.9117  0.0784  0.9650
  769MOL0     H 6106   2.174   2.419   8.486 -2.5449  2.7619 -0.7373
  769MOL0     H 6107   2.402   2.405   8.611 -1.1464  0.3965  2.7654
  769MOL0     H 6108   2.795   2.569   8.639 -1.6656 -0.3105  0.5059
  769MOL0     H 6109   3.036   2.564   8.730 -0.0243  0.5835  0.1193
  769MOL0     H 6110   3.210   2.567   8.835  0.0727  0.3906  0.3794
  769MOL0     H 6111   3.247   2.718   8.935  0.1061  0.1041  0.2151
  769MOL0     H 6112   3.382   2.483   8.955 -0.9591 -1.6582 -0.2625
  769MOL0     H 6113   3.254   2.454   9.078 -1.4580 -0.2400 -0.5469
  769MOL0     H 6114   3.432   2.701   9.069  1.4483 -1.4001 -0.2722
  769MOL0     H 6115   3.302   2.667   9.186  1.0991  1.1571  1.4015
  769MOL0     H 6116   3.417   2.465   9.265  0.2681  0.3681 -0.2432
  769MOL0     H 6117   3.499   2.614   9.303 -0.7610 -1.2168  1.2056
  769MOL0     H 6118   3.773   2.398   9.051  0.6555  0.4837  1.9192
  769MOL0     H 6119   2.861   2.624   9.122 -1.9596 -2.8959  0.2408
  769MOL0     H 6120   2.557   2.508   9.077  0.1214 -0.1534 -1.6109
  769MOL0     H 6121   2.631   2.651   9.156 -1.4443  1.0292  0.5169
  769MOL0     H 6122   2.517   2.660   9.029 -0.6518  1.0411  0.4305
  770MOL0     O 6123   7.579   0.204   3.610  0.8069  0.3042 -0.0206
  770MOL0     C 6124   7.535   0.151   3.707  0.6104 -0.3393 -0.1645
  770MOL0     O 6125   7.562   0.024   3.751 -0.0725  1.0208  0.5279
  770MOL0     C 6126   7.668  -0.037   3.682 -0.6918  0.3387 -0.6282
  770MOL0     C 6127   7.647  -0.109   3.567 -0.2093  0.9047 -0.0046
  770MOL0     C 6128   7.752  -0.167   3.495 -0.1081  0.1521  1.0633
  770MOL0     C 6129   7.881  -0.134   3.528  0.3999  0.8654 -0.3887
  770MOL0     O 6130   7.978  -0.172   3.442  0.2815  0.1668  0.8744
  770MOL0     C 6131   8.093  -0.077   3.420 -0.1170 -0.0772  0.5844
  770MOL0     C 6132   8.063   0.016   3.304  0.4443 -0.3388 -0.4848
  770MOL0     C 6133   8.164   0.130   3.288 -0.0048 -0.1239  0.4160
  770MOL0     C 6134   8.106   0.225   3.190  0.1925 -0.3726 -0.3910
  770MOL0     C 6135   8.155   0.371   3.205 -0.3613  0.4803 -0.4248
  770MOL0     C 6136   8.302   0.392   3.180 -0.6670 -0.4975  0.3788
  770MOL0     C 6137   8.353   0.336   3.039 -0.2082 -0.3967 -0.1196
  770MOL0     C 6138   8.490   0.373   2.998 -0.2665 -0.3821 -0.7542
  770MOL0     N 6139   8.529   0.305   2.873  0.3777 -0.0863  0.4086
  770MOL0     C 6140   8.632   0.218   2.863  0.0157 -0.5735  0.2279
  770MOL0     C 6141   8.654   0.204   2.733  1.0106  0.1195 -1.1081
  770MOL0     C 6142   8.728   0.091   2.666 -0.1502  0.1352 -0.1156
  770MOL0     C 6143   8.878   0.109   2.646  0.1673  0.4904  0.0757
  770MOL0     C 6144   8.956  -0.023   2.669  0.4297  0.1374 -0.1273
  770MOL0     C 6145   9.106  -0.025   2.650 -0.0878 -0.7596  0.2060
  770MOL0     O 6146   9.164   0.105   2.701  1.1378  0.0573  0.3626
  770MOL0     C 6147   9.296   0.131   2.713  0.0879 -0.2282  0.0514
  770MOL0     C 6148   9.335   0.223   2.814  0.3388  0.0140 -0.0067
  770MOL0     C 6149   9.465   0.252   2.857  0.3373  0.2677 -0.2999
  770MOL0     C 6150   9.475   0.347   2.979  0.5206  0.2083 -1.0740
  770MOL0     C 6151   9.572   0.185   2.789  0.1889  0.2675  0.4488
  770MOL0     C 6152   9.721   0.209   2.807 -0.3779 -0.6161 -0.9440
  770MOL0     O 6153   9.809   0.168   2.708 -0.3554  0.0574 -0.2125
  770MOL0     C 6154   9.942   0.206   2.726  0.0194 -0.8626  0.2261
  770MOL0     C 6155  10.025   0.167   2.832 -0.1451 -0.3007  0.2795
  770MOL0     C 6156  10.165   0.200   2.823 -0.0659  0.8495 -0.0650
  770MOL0     C 6157  10.213   0.290   2.721 -0.4351 -0.3857 -0.0002
  770MOL0     O 6158  10.342   0.330   2.745  0.1224  0.6026 -0.1696
  770MOL0     C 6159  10.386   0.447   2.686  0.7247  0.0652 -0.2405
  770MOL0     C 6160  10.513   0.498   2.739 -0.6421  0.3646 -0.3052
  770MOL0     C 6161  10.523   0.650   2.762  0.1433  0.6290 -0.0496
  770MOL0     C 6162  10.520   0.748   2.644  1.0143  0.1069 -0.0941
  770MOL0     C 6163  10.544   0.896   2.688  0.3416  0.4079  0.6151
  770MOL0     C 6164  10.562   0.979   2.563  0.2150  0.5865  0.7980
  770MOL0     C 6165  10.585   1.134   2.581 -0.4520  0.9058  0.1756
  770MOL0     C 6166  10.719   1.157   2.662 -0.0769 -0.3711  0.0103
  770MOL0    Cl 6167  10.857   1.081   2.584  0.2337 -0.2933  0.4074
  770MOL0     C 6168  10.126   0.336   2.624 -0.2192  0.0741  0.3469
  770MOL0     C 6169   9.995   0.289   2.621 -0.3951 -0.6162  0.0248
  770MOL0     O 6170   9.751   0.269   2.910  0.5756  0.0235  0.3484
  770MOL0     C 6171   9.537   0.095   2.681 -0.1091  0.0280  0.4697
  770MOL0     C 6172   9.403   0.070   2.645  0.0786 -0.0021  0.2970
  770MOL0     N 6173   8.572   0.296   2.663 -0.3394  1.1465  0.1530
  770MOL0     N 6174   8.495   0.350   2.750 -0.0842 -0.1039  0.4068
  770MOL0     C 6175   7.906  -0.075   3.650  0.2514 -0.5479 -0.3580
  770MOL0     C 6176   7.799  -0.036   3.735 -0.6862  0.1250 -0.0458
  770MOL0     C 6177   7.438   0.223   3.803 -0.1758  0.3205 -0.3330
  770MOL0     C 6178   7.401   0.162   3.928 -0.6080 -0.5799  0.0628
  770MOL0     C 6179   7.315   0.234   4.017 -0.3854  0.1726  0.1294
  770MOL0     C 6180   7.253   0.356   3.988 -1.0493  0.3032  0.1779
  770MOL0     O 6181   7.177   0.402   4.087 -0.3781  0.5004  0.0717
  770MOL0     C 6182   7.101   0.523   4.073  0.7638  0.0325 -0.6831
  770MOL0     C 6183   6.967   0.495   4.005 -0.4341 -0.2856  0.1733
  770MOL0     C 6184   6.858   0.435   4.091  0.3813  0.9036  0.0347
  770MOL0     C 6185   6.719   0.409   4.020  0.4786 -0.7307  0.5341
  770MOL0     C 6186   6.667   0.522   3.943  0.9987 -0.1468 -0.7510
  770MOL0     C 6187   6.611   0.618   3.892  1.2884  0.4857 -0.0815
  770MOL0     C 6188   7.282   0.409   3.863  0.1412 -0.1730 -0.2078
  770MOL0     C 6189   7.381   0.352   3.774  0.3402 -0.3629 -0.4683
  770MOL0     C 6190   7.451   0.446   3.678 -0.6135 -0.5432 -0.0688
  770MOL0     H 6191   7.548  -0.119   3.524 -0.4645 -1.5767  0.9960
  770MOL0     H 6192   7.724  -0.213   3.401 -4.4749  0.7437  1.8573
  770MOL0     H 6193   8.191  -0.120   3.397  0.2022  0.6116  0.6133
  770MOL0     H 6194   8.109  -0.016   3.510 -2.0871 -0.5889  1.3502
  770MOL0     H 6195   8.059  -0.052   3.218  1.2389  1.9139 -2.4084
  770MOL0     H 6196   7.963   0.057   3.324  0.7397 -1.0061  2.9351
  770MOL0     H 6197   8.171   0.185   3.382 -2.7605  0.3363  0.4134
  770MOL0     H 6198   8.263   0.093   3.258 -0.5955 -0.2723 -1.4577
  770MOL0     H 6199   8.102   0.190   3.087 -1.7614 -0.4083 -0.3356
  770MOL0     H 6200   7.999   0.236   3.208  0.6323  0.6974  2.0373
  770MOL0     H 6201   8.127   0.402   3.306  0.6922 -1.5907  0.5529
  770MOL0     H 6202   8.113   0.439   3.130 -2.4713 -1.9987 -1.6237
  770MOL0     H 6203   8.333   0.496   3.193 -4.7281  0.7676  1.5736
  770MOL0     H 6204   8.341   0.330   3.262  0.5408 -0.2574  0.0037
  770MOL0     H 6205   8.286   0.367   2.958  0.7753 -0.6782 -1.0526
  770MOL0     H 6206   8.357   0.227   3.036  1.2178 -0.4200  1.3170
  770MOL0     H 6207   8.498   0.482   2.987  3.2143 -0.3451  0.9097
  770MOL0     H 6208   8.561   0.341   3.074  0.2954 -1.9160 -1.8845
  770MOL0     H 6209   8.672   0.162   2.947  0.0280 -0.9193 -0.0036
  770MOL0     H 6210   8.672   0.068   2.574  0.5591  1.2746 -0.8545
  770MOL0     H 6211   8.710   0.002   2.727 -1.4002  1.0731  0.9499
  770MOL0     H 6212   8.901   0.150   2.547 -0.9688 -1.4623 -1.0677
  770MOL0     H 6213   8.917   0.173   2.726  2.2732  0.2296 -0.6690
  770MOL0     H 6214   8.940  -0.053   2.772 -1.1752  0.2029 -0.3311
  770MOL0     H 6215   8.914  -0.098   2.601 -1.2095  1.7250 -0.9568
  770MOL0     H 6216   9.146  -0.104   2.714  0.7612  2.2410  3.7403
  770MOL0     H 6217   9.129  -0.038   2.544 -1.6354 -0.9284 -0.1214
  770MOL0     H 6218   9.247   0.261   2.865  0.7473  0.6337  0.2500
  770MOL0     H 6219   9.544   0.324   3.060  0.6638  0.6834 -1.0565
  770MOL0     H 6220   9.380   0.362   3.031  0.4857  0.0143 -1.0838
  770MOL0     H 6221   9.511   0.445   2.944 -1.0135  0.1818 -2.9067
  770MOL0     H 6222   9.992   0.107   2.916 -0.8688  1.7972  1.5767
  770MOL0     H 6223  10.230   0.178   2.907  2.6553 -0.4034 -2.3215
  770MOL0     H 6224  10.396   0.433   2.578 -3.8316 -0.0483 -0.8432
  770MOL0     H 6225  10.304   0.519   2.681 -0.4439 -1.2611 -0.9324
  770MOL0     H 6226  10.539   0.450   2.834  2.1615  1.6110 -0.3579
  770MOL0     H 6227  10.593   0.469   2.671 -1.9114  0.9169 -2.0926
  770MOL0     H 6228  10.617   0.667   2.814  0.0594 -0.9544  0.6678
  770MOL0     H 6229  10.438   0.676   2.826  0.3758  1.0619  0.0868
  770MOL0     H 6230  10.423   0.741   2.594 -0.2968 -1.4005  2.4639
  770MOL0     H 6231  10.603   0.715   2.581  0.2314 -3.1833  0.3967
  770MOL0     H 6232  10.460   0.932   2.747 -0.9481  1.0649 -1.5226
  770MOL0     H 6233  10.637   0.900   2.746  0.2409  2.4162  0.6775
  770MOL0     H 6234  10.489   0.954   2.485  2.1656 -1.2357 -0.5397
  770MOL0     H 6235  10.657   0.948   2.518  0.1256  3.0543 -1.3511
  770MOL0     H 6236  10.503   1.176   2.639  0.3571 -0.2779  2.2797
  770MOL0     H 6237  10.589   1.184   2.484 -0.4288 -0.9374 -0.8225
  770MOL0     H 6238  10.705   1.129   2.767 -4.3421  2.0174  0.3141
  770MOL0     H 6239  10.753   1.261   2.662  2.7157 -1.2044  0.0241
  770MOL0     H 6240  10.169   0.400   2.548  1.0295 -1.9307 -0.7202
  770MOL0     H 6241   9.942   0.323   2.532  1.5478  1.5697 -0.3856
  770MOL0     H 6242   9.616   0.039   2.632  0.7711  0.2560  1.5831
  770MOL0     H 6243   9.388  -0.005   2.568  1.0288  0.9500 -0.8401
  770MOL0     H 6244   8.011  -0.075   3.679  0.2987 -0.8910 -0.5227
  770MOL0     H 6245   7.814  -0.002   3.837  0.1168  0.8378 -0.3885
  770MOL0     H 6246   7.456   0.078   3.969  4.2358  1.4077 -1.7268
  770MOL0     H 6247   7.289   0.187   4.111  0.7623 -0.3182  0.2256
  770MOL0     H 6248   7.091   0.563   4.175  4.1607 -0.0882 -0.1718
  770MOL0     H 6249   7.150   0.602   4.016  2.1433 -0.1371  0.2043
  770MOL0     H 6250   6.989   0.434   3.917 -0.5165 -0.0714  0.0057
  770MOL0     H 6251   6.928   0.588   3.965 -0.0159 -1.7204 -4.0969
  770MOL0     H 6252   6.882   0.341   4.143 -1.3167  1.0972  1.2556
  770MOL0     H 6253   6.838   0.499   4.177 -0.1111  0.2752  0.3941
  770MOL0     H 6254   6.633   0.370   4.075 -0.4120 -2.5611 -1.9662
  770MOL0     H 6255   6.738   0.325   3.951  3.8614  1.0703 -1.0123
  770MOL0     H 6256   6.554   0.704   3.862 -2.7666 -2.0122 -0.3594
  770MOL0     H 6257   7.245   0.510   3.845 -2.5771 -0.4266  2.9449
  770MOL0     H 6258   7.556   0.459   3.703 -1.1897  2.9912  0.9492
  770MOL0     H 6259   7.441   0.411   3.574 -2.6584  1.2246 -0.5482
  770MOL0     H 6260   7.404   0.545   3.682 -1.1203 -0.8153  1.2780
  771MOL0     O 6261   8.634   7.977  10.948  0.3575 -0.3111 -0.5212
  771MOL0     C 6262   8.741   8.026  10.913 -0.0704  0.2173 -0.1156
  771MOL0     O 6263   8.865   7.973  10.939  0.3244 -0.6497  0.2718
  771MOL0     C 6264   8.886   7.838  10.972 -0.1662 -0.0272 -0.4946
  771MOL0     C 6265   8.796   7.731  10.968  0.0415  0.2947  0.6339
  771MOL0     C 6266   8.846   7.610  11.016  0.1371  0.7094  0.0472
  771MOL0     C 6267   8.971   7.581  11.067 -0.2156  0.1885 -0.5686
  771MOL0     O 6268   9.022   7.456  11.066  0.0576 -0.3026  0.6904
  771MOL0     C 6269   8.945   7.347  11.120 -0.3791 -0.2124 -0.1810
  771MOL0     C 6270   8.958   7.218  11.029  0.0531  0.5189  0.4293
  771MOL0     C 6271   8.863   7.230  10.911  0.2648  0.0594  0.8895
  771MOL0     C 6272   8.854   7.105  10.832  0.0069  1.1806 -0.2449
  771MOL0     C 6273   8.797   7.116  10.688  0.2199 -0.9018 -0.4272
  771MOL0     C 6274   8.656   7.173  10.674 -0.6669  0.3970  0.7684
  771MOL0     C 6275   8.611   7.150  10.529  0.5791 -0.3739 -0.0550
  771MOL0     C 6276   8.660   7.249  10.422  0.9364 -0.3547 -0.1343
  771MOL0     N 6277   8.557   7.291  10.324  0.4456  0.8925 -0.2637
  771MOL0     C 6278   8.472   7.396  10.337  0.7241  0.6789 -0.3764
  771MOL0     C 6279   8.419   7.407  10.215  0.6937  0.2034  0.0911
  771MOL0     C 6280   8.307   7.511  10.210  0.3351  0.6051 -0.0620
  771MOL0     C 6281   8.366   7.629  10.137  0.6074  0.4252 -0.5384
  771MOL0     C 6282   8.269   7.746  10.139  0.0160 -0.1031  0.1684
  771MOL0     C 6283   8.334   7.865  10.069  0.5928  0.2912 -0.2778
  771MOL0     O 6284   8.261   7.983  10.094 -0.2714  0.8865 -0.3316
  771MOL0     C 6285   8.309   8.103  10.048  0.3172  0.7208 -0.3515
  771MOL0     C 6286   8.425   8.125   9.969  0.4934  0.2781 -1.1757
  771MOL0     C 6287   8.445   8.254   9.919 -0.6245  0.5132  0.6030
  771MOL0     C 6288   8.583   8.262   9.845  0.1332 -0.5270 -0.1419
  771MOL0     C 6289   8.378   8.367   9.951  0.7144 -0.6594  0.6531
  771MOL0     C 6290   8.400   8.498   9.898 -0.7386  0.4991 -0.9216
  771MOL0     O 6291   8.341   8.593   9.971  0.5579  0.2812  0.0968
  771MOL0     C 6292   8.300   8.712   9.931  0.3763 -0.1770 -0.1675
  771MOL0     C 6293   8.293   8.807  10.030  0.0362  0.2921 -0.7531
  771MOL0     C 6294   8.251   8.935   9.995  0.5329  0.8003  0.0317
  771MOL0     C 6295   8.207   8.966   9.865 -0.1932 -0.0452 -0.6295
  771MOL0     O 6296   8.146   9.085   9.857 -0.6520 -0.6363  0.4938
  771MOL0     C 6297   8.124   9.137   9.721  0.2043  0.4047  0.7042
  771MOL0     C 6298   8.072   9.282   9.704  1.4071 -1.0122 -0.4593
  771MOL0     C 6299   8.069   9.322   9.556 -0.1002  0.5830 -1.1385
  771MOL0     C 6300   8.077   9.469   9.530  0.1900 -0.2004 -0.0863
  771MOL0     C 6301   7.991   9.558   9.619 -0.2706 -0.5462 -0.0792
  771MOL0     C 6302   8.017   9.710   9.590  0.1049 -0.0052  0.9573
  771MOL0     C 6303   7.947   9.796   9.693 -0.3984  0.0206 -0.5615
  771MOL0     C 6304   8.038   9.896   9.761  0.2438  0.5915  0.8037
  771MOL0    Cl 6305   8.139   9.809   9.870 -0.4553 -0.0162  0.2963
  771MOL0     C 6306   8.215   8.869   9.766 -0.6382 -1.2284  0.9196
  771MOL0     C 6307   8.265   8.747   9.799  0.2305  0.0189 -0.1239
  771MOL0     O 6308   8.458   8.516   9.790 -0.5065  0.2688 -0.0827
  771MOL0     C 6309   8.269   8.347  10.035 -0.3161  0.5031 -0.0233
  771MOL0     C 6310   8.241   8.220  10.082 -0.0213  0.2781  0.3042
  771MOL0     N 6311   8.463   7.298  10.131  0.0533  0.6233  0.0416
  771MOL0     N 6312   8.554   7.237  10.202  0.2145 -0.0927  0.0545
  771MOL0     C 6313   9.058   7.690  11.076  0.0929 -0.2086 -0.4604
  771MOL0     C 6314   9.018   7.814  11.021 -0.6740  0.1664 -0.3957
  771MOL0     C 6315   8.744   8.149  10.840 -1.4781  0.0738  0.9152
  771MOL0     C 6316   8.855   8.182  10.747  0.3106  0.8653  0.2391
  771MOL0     C 6317   8.857   8.295  10.658 -1.2949  0.2109 -0.4298
  771MOL0     C 6318   8.741   8.369  10.646  0.1772  0.3522 -0.2661
  771MOL0     O 6319   8.720   8.473  10.562 -0.0768  0.5481  0.2538
  771MOL0     C 6320   8.810   8.480  10.449  0.0537 -0.2142 -0.3428
  771MOL0     C 6321   8.729   8.532  10.333 -0.3388 -0.0399 -0.2989
  771MOL0     C 6322   8.705   8.681  10.348  0.3593  0.2386  0.7294
  771MOL0     C 6323   8.630   8.739  10.228  0.1015 -0.2753  0.0708
  771MOL0     C 6324   8.671   8.682  10.103  0.0117  0.3652  0.3573
  771MOL0     C 6325   8.695   8.654   9.987 -0.3289 -0.5140  0.0514
  771MOL0     C 6326   8.636   8.341  10.728 -0.0563  0.2204 -0.2333
  771MOL0     C 6327   8.633   8.238  10.823 -0.4810 -0.0312 -0.8534
  771MOL0     C 6328   8.498   8.225  10.897  0.1603 -0.3159 -0.0617
  771MOL0     H 6329   8.691   7.739  10.941 -0.2244 -0.1293  1.5300
  771MOL0     H 6330   8.784   7.526  10.987  0.7681  0.3169 -0.1867
  771MOL0     H 6331   8.842   7.379  11.138  0.9546  3.2874  2.3517
  771MOL0     H 6332   8.989   7.321  11.217  1.9970  0.8748 -0.8946
  771MOL0     H 6333   9.058   7.202  10.989 -1.3167 -1.4437 -2.6145
  771MOL0     H 6334   8.931   7.128  11.085  0.4429  0.5423  0.6575
  771MOL0     H 6335   8.766   7.277  10.929 -0.6579  0.2761 -3.4967
  771MOL0     H 6336   8.915   7.297  10.842 -1.4341  2.2937  1.6864
  771MOL0     H 6337   8.953   7.059  10.826 -0.2351  0.7921 -1.8155
  771MOL0     H 6338   8.791   7.033  10.885  0.1130  1.0999 -0.2286
  771MOL0     H 6339   8.808   7.021  10.635  1.9560 -1.4903  0.8595
  771MOL0     H 6340   8.873   7.181  10.642 -0.3801 -0.6923 -1.1357
  771MOL0     H 6341   8.597   7.104  10.734 -0.6754  0.9467  1.4059
  771MOL0     H 6342   8.650   7.275  10.714 -2.2606 -0.3950  2.7398
  771MOL0     H 6343   8.502   7.161  10.536  0.4606 -0.4398 -1.5024
  771MOL0     H 6344   8.643   7.048  10.506  2.8592  0.3111 -0.1802
  771MOL0     H 6345   8.692   7.337  10.478 -1.4896  0.4458  0.1161
  771MOL0     H 6346   8.747   7.199  10.378  0.7475 -1.6806  0.9179
  771MOL0     H 6347   8.429   7.447  10.422 -0.9288  0.6526 -1.1566
  771MOL0     H 6348   8.259   7.537  10.305  1.4101  0.1472  0.6237
  771MOL0     H 6349   8.220   7.477  10.153 -2.6775  5.7614  0.8224
  771MOL0     H 6350   8.450   7.662  10.199 -1.3602  4.2125  0.4039
  771MOL0     H 6351   8.390   7.597  10.035 -0.9404 -3.1222  0.0371
  771MOL0     H 6352   8.181   7.709  10.087  0.6361 -0.4241 -0.6795
  771MOL0     H 6353   8.246   7.783  10.240  0.3946 -1.2077  0.6734
  771MOL0     H 6354   8.440   7.873  10.093  1.0710 -1.7206 -1.4382
  771MOL0     H 6355   8.335   7.847   9.961  1.3664  0.1567 -0.2579
  771MOL0     H 6356   8.485   8.040   9.939 -2.1903 -1.7377 -1.2165
  771MOL0     H 6357   8.642   8.350   9.874 -0.1534 -0.1561 -0.6660
  771MOL0     H 6358   8.564   8.266   9.737  1.3768 -1.7429 -0.4279
  771MOL0     H 6359   8.649   8.179   9.872  0.5775  0.0003  0.4197
  771MOL0     H 6360   8.308   8.784  10.135 -1.6807  1.3608 -0.2401
  771MOL0     H 6361   8.230   9.004  10.077  2.0104  1.2034  0.1042
  771MOL0     H 6362   8.217   9.121   9.665  1.0886 -2.9011  2.7927
  771MOL0     H 6363   8.051   9.067   9.680 -0.5082  0.9760  0.9849
  771MOL0     H 6364   7.976   9.283   9.757  2.5067  1.6920  1.7221
  771MOL0     H 6365   8.137   9.351   9.757 -0.8462  1.0973 -0.2942
  771MOL0     H 6366   7.970   9.289   9.524 -0.2579 -1.5207  1.3058
  771MOL0     H 6367   8.150   9.267   9.508  0.7423 -0.5392  1.4188
  771MOL0     H 6368   8.050   9.491   9.426 -2.5664 -2.0237  0.1515
  771MOL0     H 6369   8.181   9.502   9.540  0.1690 -0.9006  3.6904
  771MOL0     H 6370   7.889   9.522   9.600  0.0908 -1.8226  0.2936
  771MOL0     H 6371   8.012   9.539   9.725 -1.7038  0.1413  0.3585
  771MOL0     H 6372   7.991   9.739   9.488  1.0706  0.5662  0.8673
  771MOL0     H 6373   8.125   9.727   9.595 -0.4221  4.1999  1.7374
  771MOL0     H 6374   7.896   9.731   9.765 -1.0630  0.7148 -0.3819
  771MOL0     H 6375   7.870   9.850   9.638 -0.1907 -1.9183 -2.9313
  771MOL0     H 6376   7.983   9.975   9.815 -0.4089  1.1604 -0.6310
  771MOL0     H 6377   8.098   9.935   9.679  0.4365  1.4767  1.3464
  771MOL0     H 6378   8.173   8.882   9.667  0.9643 -1.2817  0.1911
  771MOL0     H 6379   8.272   8.661   9.732  1.3339 -0.1043  0.1397
  771MOL0     H 6380   8.193   8.423  10.050  0.5161  1.5152 -0.7430
  771MOL0     H 6381   8.156   8.203  10.148 -1.3153  1.3191 -1.0144
  771MOL0     H 6382   9.155   7.676  11.122 -0.4800 -2.4563  0.1773
  771MOL0     H 6383   9.087   7.898  11.018  0.4776 -0.7759 -0.9468
  771MOL0     H 6384   8.942   8.118  10.747  1.0864  1.7319  3.1816
  771MOL0     H 6385   8.947   8.319  10.603  0.0926  2.0433  2.4368
  771MOL0     H 6386   8.893   8.551  10.451 -1.0083  1.0988 -0.9100
  771MOL0     H 6387   8.838   8.378  10.424 -2.3460 -1.6060  2.1577
  771MOL0     H 6388   8.639   8.471  10.323 -0.5687  0.2088  0.2358
  771MOL0     H 6389   8.790   8.518  10.243 -0.8824 -0.4435 -0.6107
  771MOL0     H 6390   8.650   8.706  10.439  0.1617 -0.2489  0.7461
  771MOL0     H 6391   8.805   8.725  10.345  0.5961 -0.3245 -1.4183
  771MOL0     H 6392   8.622   8.848  10.233 -2.8718 -0.4408  0.6295
  771MOL0     H 6393   8.529   8.701  10.239 -0.0869  0.0537 -0.4601
  771MOL0     H 6394   8.704   8.647   9.880  4.4466 -1.2163  0.2761
  771MOL0     H 6395   8.556   8.414  10.719  0.9264  1.4639  0.6923
  771MOL0     H 6396   8.428   8.308  10.879  1.8079  0.7342 -2.1445
  771MOL0     H 6397   8.462   8.127  10.865  1.5447 -0.3163 -1.7702
  771MOL0     H 6398   8.512   8.233  11.005 -0.3882  0.7249 -0.0513
  772MOL0     O 6399   8.420   8.923   1.860 -0.7326  0.0955 -0.5740
  772MOL0     C 6400   8.392   8.821   1.918  0.4846  0.4474 -0.2328
  772MOL0     O 6401   8.427   8.793   2.045 -0.2385 -0.3420  0.2035
  772MOL0     C 6402   8.540   8.843   2.098  0.3469 -0.4153 -0.0783
  772MOL0     C 6403   8.636   8.757   2.141  0.1685  0.5126  0.9020
  772MOL0     C 6404   8.748   8.798   2.215  0.5231 -0.5683 -0.2222
  772MOL0     C 6405   8.762   8.932   2.252 -0.3379 -0.8911  0.9313
  772MOL0     O 6406   8.861   8.985   2.330  0.8373 -0.4366  0.1482
  772MOL0     C 6407   8.984   8.986   2.258 -0.7087 -0.3571 -0.0236
  772MOL0     C 6408   9.077   9.054   2.355  0.0442  0.3567 -0.8063
  772MOL0     C 6409   9.229   9.031   2.332  0.7744 -0.4892  0.4632
  772MOL0     C 6410   9.257   8.884   2.341  0.7437 -0.0913  0.2283
  772MOL0     C 6411   9.409   8.859   2.329  0.6631 -0.1304 -0.0361
  772MOL0     C 6412   9.496   8.947   2.419 -0.5170  0.2774 -0.2942
  772MOL0     C 6413   9.638   8.886   2.415  0.1277 -0.3824 -0.2953
  772MOL0     C 6414   9.739   8.956   2.529  0.5040  0.0505  0.5920
  772MOL0     N 6415   9.861   8.877   2.558  1.1588 -0.1342  0.0702
  772MOL0     C 6416   9.951   8.848   2.463 -0.6611 -0.7372  0.7076
  772MOL0     C 6417  10.052   8.790   2.529 -0.1849 -0.7552  0.5521
  772MOL0     C 6418  10.188   8.743   2.477  0.6943 -1.0160 -0.0478
  772MOL0     C 6419  10.311   8.771   2.569 -0.7895 -0.6589  0.3391
  772MOL0     C 6420  10.441   8.775   2.485  0.8484  0.1677 -0.5930
  772MOL0     C 6421  10.553   8.788   2.587 -0.0566 -1.0573 -0.2286
  772MOL0     O 6422  10.576   8.661   2.646 -0.7779 -0.3111 -0.3043
  772MOL0     C 6423  10.690   8.641   2.716 -0.5028  0.3583  0.2998
  772MOL0     C 6424  10.718   8.506   2.758  1.0056  0.5974  0.5218
  772MOL0     C 6425  10.837   8.469   2.811 -0.9243  0.0131  0.1669
  772MOL0     C 6426  10.854   8.325   2.854 -0.1589 -0.5862  0.7450
  772MOL0     C 6427  10.941   8.563   2.838  0.4456 -0.8646 -0.5456
  772MOL0     C 6428  11.079   8.543   2.880  0.4789 -0.1605 -0.4311
  772MOL0     O 6429  11.168   8.583   2.789 -0.1406  1.3269 -0.2932
  772MOL0     C 6430  11.302   8.548   2.810  0.5110  0.2527 -0.2905
  772MOL0     C 6431  11.397   8.653   2.816 -0.2408 -0.3384  0.3935
  772MOL0     C 6432  11.529   8.619   2.835 -0.2387 -0.4233  0.1574
  772MOL0     C 6433  11.570   8.484   2.849  0.3794 -0.3488 -0.6409
  772MOL0     O 6434  11.703   8.446   2.869  1.0719  0.2291 -0.8585
  772MOL0     C 6435  11.798   8.541   2.902 -0.2840  0.0493  0.3723
  772MOL0     C 6436  11.939   8.477   2.886  0.0748 -0.9256  0.4442
  772MOL0     C 6437  11.979   8.473   2.737 -0.9931  0.9912 -0.0483
  772MOL0     C 6438  12.128   8.432   2.717 -0.1597  0.3398 -0.3856
  772MOL0     C 6439  12.161   8.424   2.564  0.3962 -0.3707  0.1027
  772MOL0     C 6440  12.081   8.302   2.494  0.1057  0.1822  0.1640
  772MOL0     C 6441  12.133   8.287   2.352  0.5774 -0.1683  1.5615
  772MOL0     C 6442  12.080   8.159   2.280 -0.4640 -0.2257 -0.5634
  772MOL0    Cl 6443  11.906   8.152   2.261 -0.3333 -0.1725 -0.2627
  772MOL0     C 6444  11.480   8.385   2.831  0.9236 -0.4045  0.4496
  772MOL0     C 6445  11.342   8.410   2.817 -0.2629  0.3789 -0.3150
  772MOL0     O 6446  11.091   8.483   2.983 -0.3389  0.2315 -0.6094
  772MOL0     C 6447  10.902   8.691   2.815 -1.4087 -0.3220  0.2246
  772MOL0     C 6448  10.778   8.736   2.766 -0.1715  0.1695  1.1630
  772MOL0     N 6449  10.029   8.810   2.660  0.4867 -0.5573 -1.3068
  772MOL0     N 6450   9.905   8.847   2.680  0.1533 -0.3633 -0.0121
  772MOL0     C 6451   8.653   9.021   2.220 -0.5570 -1.1023 -0.2269
  772MOL0     C 6452   8.549   8.979   2.136 -0.2044 -0.1320 -1.0906
  772MOL0     C 6453   8.303   8.725   1.851 -0.1422  0.4300 -0.2543
  772MOL0     C 6454   8.342   8.659   1.724  0.6535  0.0804  0.1056
  772MOL0     C 6455   8.265   8.547   1.670 -1.1923 -0.1060 -1.6748
  772MOL0     C 6456   8.150   8.508   1.742 -0.5399  1.1627 -0.9507
  772MOL0     O 6457   8.074   8.408   1.684  0.3361  0.4698 -0.3584
  772MOL0     C 6458   7.952   8.364   1.742 -0.0151 -0.3663 -0.8221
  772MOL0     C 6459   7.899   8.229   1.679  0.5675  0.9637  0.7500
  772MOL0     C 6460   7.775   8.185   1.755  0.3942  0.2311 -0.3664
  772MOL0     C 6461   7.704   8.069   1.684  1.1617  0.0516 -0.3409
  772MOL0     C 6462   7.775   7.938   1.683 -0.1695 -0.4811 -0.3288
  772MOL0     C 6463   7.834   7.837   1.682  0.2546 -0.4719  0.0635
  772MOL0     C 6464   8.120   8.579   1.863 -0.4830 -0.2995  0.2497
  772MOL0     C 6465   8.190   8.687   1.913 -0.1612 -0.4057 -0.0837
  772MOL0     C 6466   8.139   8.740   2.047 -0.1967 -0.3657  0.1109
  772MOL0     H 6467   8.614   8.653   2.119  1.1988  0.7959 -1.7765
  772MOL0     H 6468   8.828   8.729   2.238  2.4185  0.1773 -3.7774
  772MOL0     H 6469   8.971   9.044   2.166 -1.8620 -0.2038  0.2175
  772MOL0     H 6470   9.007   8.880   2.241 -4.2833 -1.3000  0.0878
  772MOL0     H 6471   9.069   9.163   2.353  3.1440  0.7661  1.6899
  772MOL0     H 6472   9.058   9.027   2.459 -0.5689  1.3154 -0.6589
  772MOL0     H 6473   9.250   9.050   2.226  2.8469 -3.1125  0.3225
  772MOL0     H 6474   9.286   9.085   2.408 -0.4496 -1.1519  1.9091
  772MOL0     H 6475   9.218   8.843   2.434  1.9443  0.9271  1.2187
  772MOL0     H 6476   9.212   8.835   2.254 -0.9648  1.1244  0.3845
  772MOL0     H 6477   9.425   8.873   2.222 -2.1379  0.2677 -0.4856
  772MOL0     H 6478   9.432   8.754   2.349  0.2973 -0.0402  0.9122
  772MOL0     H 6479   9.492   9.052   2.389 -1.0510  0.7130  1.1918
  772MOL0     H 6480   9.453   8.947   2.520  0.4063  1.1485  0.1205
  772MOL0     H 6481   9.682   8.885   2.315  4.3350 -1.1930  1.3864
  772MOL0     H 6482   9.624   8.785   2.454  0.5132 -1.0057 -1.6998
  772MOL0     H 6483   9.762   9.061   2.505 -2.5902  0.9604  1.0812
  772MOL0     H 6484   9.693   8.971   2.627  0.2245 -1.1771  0.6571
  772MOL0     H 6485   9.938   8.868   2.357 -0.5697 -0.0627  0.8176
  772MOL0     H 6486  10.210   8.796   2.384  0.0345  2.3272  1.5416
  772MOL0     H 6487  10.175   8.636   2.458  0.1800 -0.9449 -0.1106
  772MOL0     H 6488  10.310   8.871   2.615 -2.7629 -1.7134  2.8427
  772MOL0     H 6489  10.317   8.696   2.649  1.8962  2.1391  3.0537
  772MOL0     H 6490  10.458   8.689   2.419 -1.8582  0.8768 -2.3676
  772MOL0     H 6491  10.448   8.856   2.412  1.1475  0.3608 -0.3516
  772MOL0     H 6492  10.642   8.810   2.529 -0.2707  0.6683  0.0511
  772MOL0     H 6493  10.535   8.875   2.650  0.5423 -0.3839 -0.9839
  772MOL0     H 6494  10.638   8.438   2.730  1.0497  1.7757 -3.0809
  772MOL0     H 6495  10.949   8.286   2.816  0.2318  1.0163  0.0105
  772MOL0     H 6496  10.783   8.263   2.798 -0.2873 -0.3823  0.6825
  772MOL0     H 6497  10.842   8.302   2.960  0.4848  0.8284  1.1398
  772MOL0     H 6498  11.367   8.756   2.805  0.7605 -0.3031 -3.2829
  772MOL0     H 6499  11.599   8.703   2.837  1.6828 -1.9019 -1.5011
  772MOL0     H 6500  11.793   8.623   2.830 -1.2027 -1.6333 -1.5567
  772MOL0     H 6501  11.791   8.571   3.007 -1.0143 -0.5525  0.5056
  772MOL0     H 6502  12.013   8.547   2.926  2.0023 -2.2325 -0.6363
  772MOL0     H 6503  11.965   8.384   2.938  0.5573 -1.1364 -0.1573
  772MOL0     H 6504  11.972   8.571   2.688  3.8324  1.3599 -0.5021
  772MOL0     H 6505  11.919   8.403   2.680  1.3589 -0.5754 -0.7513
  772MOL0     H 6506  12.136   8.336   2.770 -3.4251  1.8621  3.3666
  772MOL0     H 6507  12.191   8.512   2.756 -0.4390 -0.3203  1.5377
  772MOL0     H 6508  12.134   8.521   2.520  1.8261 -0.3234 -0.7097
  772MOL0     H 6509  12.268   8.408   2.555  0.5063 -0.2145  1.0484
  772MOL0     H 6510  11.973   8.321   2.494  0.1307  0.5998 -2.1227
  772MOL0     H 6511  12.103   8.209   2.547 -0.0561  0.1354  0.1497
  772MOL0     H 6512  12.242   8.279   2.352  0.7812  1.6607 -0.6982
  772MOL0     H 6513  12.106   8.373   2.291  0.8335 -0.4495  1.0425
  772MOL0     H 6514  12.112   8.077   2.344 -3.7376  0.6387  2.5272
  772MOL0     H 6515  12.132   8.143   2.186 -0.1952  3.0495 -1.1161
  772MOL0     H 6516  11.504   8.281   2.813 -2.9775 -1.8286  2.3178
  772MOL0     H 6517  11.269   8.331   2.802 -0.9961  0.7641  1.0829
  772MOL0     H 6518  10.982   8.765   2.816 -1.2810 -0.3555 -1.7822
  772MOL0     H 6519  10.759   8.840   2.744  0.1865 -0.1573 -0.8965
  772MOL0     H 6520   8.646   9.122   2.259 -1.7074 -0.6439 -1.5393
  772MOL0     H 6521   8.468   9.047   2.111 -1.1899  0.0197  2.0361
  772MOL0     H 6522   8.433   8.698   1.679 -0.3444  1.2168 -1.0017
  772MOL0     H 6523   8.306   8.485   1.591  2.5316 -0.3518  0.2538
  772MOL0     H 6524   7.964   8.345   1.849  0.1225 -0.5043 -0.8610
  772MOL0     H 6525   7.880   8.446   1.730  1.2273  0.7262 -1.0763
  772MOL0     H 6526   7.980   8.162   1.709 -0.3084 -0.1203  0.7393
  772MOL0     H 6527   7.876   8.223   1.572 -0.3081  0.0550  0.9828
  772MOL0     H 6528   7.807   8.154   1.855  4.4351  2.4840 -0.7359
  772MOL0     H 6529   7.705   8.269   1.759 -1.7452 -1.5379  1.0408
  772MOL0     H 6530   7.695   8.103   1.580  4.7743  0.1155 -0.7465
  772MOL0     H 6531   7.613   8.069   1.744  0.8212  2.7435 -0.7285
  772MOL0     H 6532   7.883   7.742   1.684  2.9212  0.8378  0.4738
  772MOL0     H 6533   8.026   8.550   1.909 -0.0717  2.0962  2.8883
  772MOL0     H 6534   8.032   8.718   2.056 -0.3082 -0.7876 -1.8397
  772MOL0     H 6535   8.201   8.692   2.123  1.3597  1.6115  0.1826
  772MOL0     H 6536   8.153   8.848   2.049  3.0770 -0.7132  1.1636
  773MOL0     O 6537   1.433  10.796   8.274  0.2356 -0.2816  0.6631
  773MOL0     C 6538   1.433  10.698   8.203  0.4716  0.1112  0.5355
  773MOL0     O 6539   1.545  10.630   8.165  0.8427 -0.0030  0.0701
  773MOL0     C 6540   1.664  10.700   8.184 -0.0883  0.0656  0.0267
  773MOL0     C 6541   1.682  10.831   8.139  0.1584 -0.0681  0.5396
  773MOL0     C 6542   1.804  10.896   8.163  0.1928  0.8361 -0.9999
  773MOL0     C 6543   1.909  10.821   8.212  0.3292  0.0357 -0.3008
  773MOL0     O 6544   2.021  10.896   8.233 -0.1031  0.7732  0.4689
  773MOL0     C 6545   2.123  10.871   8.138 -0.7433  0.4144  0.1936
  773MOL0     C 6546   2.230  10.989   8.162 -0.0557  0.3783 -0.3927
  773MOL0     C 6547   2.359  10.959   8.093 -0.8254  0.7655 -0.7177
  773MOL0     C 6548   2.459  11.067   8.129  0.0305 -0.2138  0.1377
  773MOL0     C 6549   2.596  11.035   8.068  0.4285 -0.7029 -0.3963
  773MOL0     C 6550   2.606  11.020   7.920 -0.3427  0.8535  0.4508
  773MOL0     C 6551   2.579  11.148   7.841  0.1638 -0.9348  0.2801
  773MOL0     C 6552   2.609  11.131   7.691  0.2842 -0.2135 -0.1417
  773MOL0     N 6553   2.491  11.070   7.629 -0.1225  0.1539  0.3420
  773MOL0     C 6554   2.488  10.936   7.592 -0.4384  0.0191 -0.5922
  773MOL0     C 6555   2.408  10.931   7.482 -0.1568 -0.1905  0.6520
  773MOL0     C 6556   2.381  10.812   7.390  0.4027 -0.5037  0.3543
  773MOL0     C 6557   2.308  10.850   7.259 -0.3654  0.0262 -1.0806
  773MOL0     C 6558   2.377  10.788   7.137 -0.0899 -0.1400 -0.7655
  773MOL0     C 6559   2.309  10.847   7.013 -0.3256 -0.2392  0.3951
  773MOL0     O 6560   2.325  10.990   7.018  0.1584 -0.5555  0.1612
  773MOL0     C 6561   2.244  11.071   6.942 -0.1419  0.2344 -0.7631
  773MOL0     C 6562   2.172  11.018   6.831 -0.6628  0.0143  0.2693
  773MOL0     C 6563   2.068  11.093   6.767 -0.0069 -0.3772 -0.1800
  773MOL0     C 6564   2.004  11.027   6.644  0.3055 -0.0080  0.4713
  773MOL0     C 6565   2.039  11.224   6.818 -0.1952 -0.5144  0.7083
  773MOL0     C 6566   1.938  11.320   6.756 -0.6302  0.6733  0.9381
  773MOL0     O 6567   1.864  11.270   6.647  0.1382 -0.0235  0.3718
  773MOL0     C 6568   1.777  11.359   6.583  0.4484 -0.3957  0.0686
  773MOL0     C 6569   1.829  11.465   6.503 -0.0431  0.0542  0.1295
  773MOL0     C 6570   1.750  11.562   6.443  0.4378  0.0709 -0.3358
  773MOL0     C 6571   1.611  11.554   6.466 -0.1660 -0.1753 -0.0287
  773MOL0     O 6572   1.540  11.655   6.410  0.2417  0.1157 -0.0171
  773MOL0     C 6573   1.407  11.642   6.365  0.3439 -0.0395 -0.6179
  773MOL0     C 6574   1.395  11.621   6.216  0.0216  0.2112 -0.0423
  773MOL0     C 6575   1.260  11.659   6.168 -0.2483  0.5174  0.0470
  773MOL0     C 6576   1.230  11.590   6.033  0.4603 -0.6728 -0.6141
  773MOL0     C 6577   1.099  11.631   5.980 -0.0346 -0.1020  0.3523
  773MOL0     C 6578   0.974  11.596   6.066  0.6597  0.1400  0.1639
  773MOL0     C 6579   0.849  11.638   5.981 -0.2621 -0.2816 -0.2111
  773MOL0     C 6580   0.718  11.578   6.034 -0.7262 -0.1696 -0.7409
  773MOL0    Cl 6581   0.726  11.410   6.097  0.2201 -0.2697  0.0709
  773MOL0     C 6582   1.557  11.445   6.541  0.1667  0.2298  0.2621
  773MOL0     C 6583   1.645  11.354   6.605  0.1713 -0.4477 -0.0867
  773MOL0     O 6584   1.928  11.431   6.800  0.5943  0.0850 -0.1956
  773MOL0     C 6585   2.119  11.265   6.927  0.0938 -0.5946  0.1705
  773MOL0     C 6586   2.218  11.193   6.989  0.1076  0.2861  0.0737
  773MOL0     N 6587   2.362  11.061   7.461  0.0331 -1.0392 -0.0274
  773MOL0     N 6588   2.408  11.142   7.553  0.4715  0.1735 -0.2360
  773MOL0     C 6589   1.898  10.680   8.236  1.0035 -0.0979 -0.2344
  773MOL0     C 6590   1.774  10.618   8.229  0.0395  0.6358  0.2120
  773MOL0     C 6591   1.308  10.655   8.133 -1.1925  0.2578 -0.7590
  773MOL0     C 6592   1.307  10.522   8.077  0.4427  0.4256 -1.0789
  773MOL0     C 6593   1.187  10.468   8.031  0.2750 -0.8165 -0.1160
  773MOL0     C 6594   1.065  10.543   8.035  1.0056  0.2589  0.3578
  773MOL0     O 6595   0.954  10.485   7.988 -0.2979  0.2979  0.6289
  773MOL0     C 6596   0.881  10.558   7.887  0.0848 -0.6461  0.0279
  773MOL0     C 6597   0.761  10.481   7.846  0.5992  1.1103  0.0419
  773MOL0     C 6598   0.701  10.538   7.717 -1.0013 -0.1686 -0.1271
  773MOL0     C 6599   0.601  10.444   7.656 -1.1292 -0.0820  0.4000
  773MOL0     C 6600   0.660  10.312   7.611 -0.8055  0.0897  0.3435
  773MOL0     C 6601   0.700  10.199   7.566 -0.0067 -0.4304 -1.2690
  773MOL0     C 6602   1.067  10.668   8.095  0.1575  0.2307  0.6616
  773MOL0     C 6603   1.183  10.731   8.141  0.0134  0.6203  0.0351
  773MOL0     C 6604   1.178  10.872   8.180  0.5287  1.1466  0.6823
  773MOL0     H 6605   1.598  10.882   8.092  1.0166  1.8186  0.9614
  773MOL0     H 6606   1.810  11.001   8.134  2.6267  1.1108  0.2147
  773MOL0     H 6607   2.079  10.871   8.038 -2.0460  0.2191  0.7539
  773MOL0     H 6608   2.172  10.774   8.153  1.8440  1.3347 -1.5125
  773MOL0     H 6609   2.192  11.090   8.144  0.4801  0.0943 -3.6493
  773MOL0     H 6610   2.259  10.985   8.268 -1.8370  1.7043  0.2074
  773MOL0     H 6611   2.392  10.864   8.137 -0.5037  1.1072 -0.2067
  773MOL0     H 6612   2.351  10.943   7.985  1.1437 -0.4630 -0.7308
  773MOL0     H 6613   2.421  11.163   8.096 -1.4748  0.0072  2.3357
  773MOL0     H 6614   2.463  11.054   8.238 -2.4722  0.6293  0.3767
  773MOL0     H 6615   2.635  10.946   8.118  0.1233 -1.4387 -1.4581
  773MOL0     H 6616   2.650  11.122   8.107 -1.2363 -0.1834  0.8954
  773MOL0     H 6617   2.706  10.987   7.890 -0.7054 -1.7095  1.7997
  773MOL0     H 6618   2.535  10.942   7.891  0.5049 -0.4838  1.8012
  773MOL0     H 6619   2.637  11.231   7.881  0.9901 -1.4200  0.1025
  773MOL0     H 6620   2.476  11.174   7.867  0.1793 -1.1383  0.5491
  773MOL0     H 6621   2.621  11.227   7.641 -3.1131  1.6219  2.1122
  773MOL0     H 6622   2.695  11.068   7.671  0.5990  0.1245  0.1364
  773MOL0     H 6623   2.531  10.849   7.641 -3.2425 -1.8795 -1.2392
  773MOL0     H 6624   2.327  10.733   7.444 -0.9619  0.9826  1.2471
  773MOL0     H 6625   2.478  10.762   7.376  0.3564 -0.8659  1.2593
  773MOL0     H 6626   2.205  10.811   7.264  0.1861 -1.2942  0.9984
  773MOL0     H 6627   2.323  10.958   7.248 -2.5042  0.6959  1.5042
  773MOL0     H 6628   2.481  10.821   7.139 -0.1051  0.2299 -3.2438
  773MOL0     H 6629   2.368  10.679   7.142 -3.4504 -0.0112  5.0112
  773MOL0     H 6630   2.362  10.805   6.927 -1.2848  1.4760 -1.1248
  773MOL0     H 6631   2.203  10.819   7.007 -1.0496  1.9216  1.9873
  773MOL0     H 6632   2.199  10.922   6.788  0.8446 -0.0227  1.2259
  773MOL0     H 6633   2.028  11.086   6.555 -1.4782 -1.8864 -1.3509
  773MOL0     H 6634   1.895  11.031   6.655  0.1944 -0.9020 -0.1952
  773MOL0     H 6635   2.026  10.921   6.630 -0.3842 -0.0714 -0.1931
  773MOL0     H 6636   1.934  11.457   6.478 -0.1660 -0.0884 -0.3431
  773MOL0     H 6637   1.789  11.653   6.398 -2.2257  1.8207  0.5729
  773MOL0     H 6638   1.347  11.564   6.413 -2.9559  1.1285 -2.5454
  773MOL0     H 6639   1.349  11.731   6.390  0.5656  0.0640 -0.4602
  773MOL0     H 6640   1.454  11.697   6.165 -1.7092  1.6952  0.0691
  773MOL0     H 6641   1.420  11.517   6.190  1.8854  0.8832 -1.1167
  773MOL0     H 6642   1.251  11.768   6.163  1.1056  0.5930 -1.4013
  773MOL0     H 6643   1.186  11.624   6.241 -1.8009 -3.0222 -2.9087
  773MOL0     H 6644   1.231  11.481   6.044 -0.2652 -0.5815  0.4237
  773MOL0     H 6645   1.310  11.619   5.963 -0.0861  1.0803 -0.5551
  773MOL0     H 6646   1.097  11.740   5.972  0.5269 -0.2092 -1.9340
  773MOL0     H 6647   1.085  11.577   5.886 -0.2470 -0.1050  0.3860
  773MOL0     H 6648   0.980  11.645   6.164  1.0702 -1.2640  0.8781
  773MOL0     H 6649   0.976  11.489   6.088 -0.3379 -0.3046 -1.6800
  773MOL0     H 6650   0.858  11.598   5.879  1.6359 -1.0757  0.2203
  773MOL0     H 6651   0.848  11.746   5.967 -1.2870 -0.4173 -1.3503
  773MOL0     H 6652   0.643  11.573   5.955 -0.9238  0.1110 -0.5736
  773MOL0     H 6653   0.681  11.632   6.122  1.7405 -2.4242  1.8854
  773MOL0     H 6654   1.451  11.434   6.560  0.4858 -3.4823  0.7613
  773MOL0     H 6655   1.591  11.297   6.681 -1.2598  2.1588  1.0139
  773MOL0     H 6656   2.101  11.359   6.977  0.3385  0.1047 -1.0119
  773MOL0     H 6657   2.276  11.236   7.071  1.5700  3.8121 -2.5587
  773MOL0     H 6658   1.982  10.613   8.251  0.5737 -0.7129 -0.5066
  773MOL0     H 6659   1.768  10.512   8.249  1.9494  0.6813  1.2192
  773MOL0     H 6660   1.390  10.454   8.092 -0.1081 -0.1532 -0.5771
  773MOL0     H 6661   1.179  10.366   7.997  1.0072 -0.0218 -2.9561
  773MOL0     H 6662   0.849  10.658   7.918 -0.3177 -0.2939 -1.4307
  773MOL0     H 6663   0.958  10.567   7.809  1.5273 -1.7786  1.2447
  773MOL0     H 6664   0.680  10.477   7.919 -0.5803  3.5762 -1.0064
  773MOL0     H 6665   0.813  10.391   7.814  3.0004  3.0302 -1.8288
  773MOL0     H 6666   0.664  10.638   7.742  0.6523  0.5091 -0.2730
  773MOL0     H 6667   0.779  10.553   7.642 -1.4182  2.4644 -0.1419
  773MOL0     H 6668   0.557  10.492   7.568 -1.0948 -0.4758  0.1638
  773MOL0     H 6669   0.518  10.429   7.725 -0.4081  2.0714  1.8129
  773MOL0     H 6670   0.730  10.102   7.530  2.6667  0.8710 -2.8580
  773MOL0     H 6671   0.976  10.727   8.098  0.9451  1.6293 -1.1234
  773MOL0     H 6672   1.188  10.888   8.287  0.0114  1.5399  0.6772
  773MOL0     H 6673   1.256  10.923   8.122 -0.4735 -1.0586 -2.9603
  773MOL0     H 6674   1.086  10.917   8.142  1.1541  0.6204 -1.6424
  774MOL0     O 6675   7.916   4.583   1.064  0.0308  0.6089 -0.6244
  774MOL0     C 6676   7.836   4.500   1.097 -0.1886 -0.0090 -0.2300
  774MOL0     O 6677   7.859   4.401   1.182  0.0353 -0.0780 -0.4059
  774MOL0     C 6678   7.987   4.383   1.218  0.4856 -0.1565 -0.9510
  774MOL0     C 6679   8.087   4.361   1.119 -0.2389  0.2108 -0.0235
  774MOL0     C 6680   8.216   4.327   1.160  0.2945 -0.4284 -0.7047
  774MOL0     C 6681   8.246   4.307   1.296  0.6271  0.5072  0.2763
  774MOL0     O 6682   8.368   4.251   1.335  0.1962 -0.4519 -0.3544
  774MOL0     C 6683   8.384   4.198   1.471 -0.9855 -0.0663 -0.5376
  774MOL0     C 6684   8.497   4.086   1.494 -0.3021 -0.1701  0.1429
  774MOL0     C 6685   8.611   4.065   1.389  0.2035 -0.3840  0.3057
  774MOL0     C 6686   8.707   4.177   1.390 -0.1192  0.0316  0.8802
  774MOL0     C 6687   8.836   4.131   1.314  0.1462  0.0189 -0.5015
  774MOL0     C 6688   8.922   4.253   1.292 -0.5523 -0.6185  0.3134
  774MOL0     C 6689   9.019   4.250   1.176  0.1705  0.7784  0.4623
  774MOL0     C 6690   9.038   4.385   1.100  0.0236  0.4402  0.1222
  774MOL0     N 6691   9.084   4.493   1.194 -0.2636 -0.0659 -0.0000
  774MOL0     C 6692   9.200   4.563   1.166  0.0333  0.4738  0.2422
  774MOL0     C 6693   9.217   4.639   1.277  0.3762 -0.3178  0.9399
  774MOL0     C 6694   9.309   4.755   1.301 -0.7539  0.4196  0.3640
  774MOL0     C 6695   9.447   4.699   1.313 -0.1889 -0.3022  0.0787
  774MOL0     C 6696   9.513   4.667   1.175  0.1946 -0.1304  0.2619
  774MOL0     C 6697   9.652   4.619   1.175 -0.2666 -0.3931 -0.4361
  774MOL0     O 6698   9.744   4.712   1.234  0.4129  0.1512  0.9438
  774MOL0     C 6699   9.877   4.698   1.217  0.5945 -0.4958  0.1518
  774MOL0     C 6700   9.952   4.802   1.270  1.3982 -0.2920 -0.1819
  774MOL0     C 6701  10.085   4.815   1.249  1.1239  0.3047  0.2378
  774MOL0     C 6702  10.161   4.932   1.288 -0.1840 -0.2010 -0.7140
  774MOL0     C 6703  10.154   4.710   1.179 -0.1200 -0.9225 -0.0335
  774MOL0     C 6704  10.302   4.701   1.158  0.2326  0.5352  0.5012
  774MOL0     O 6705  10.351   4.691   1.031 -0.5075  0.2014  0.0223
  774MOL0     C 6706  10.491   4.707   1.017 -0.6125 -0.8297  0.7976
  774MOL0     C 6707  10.550   4.824   1.074 -0.2237  0.3434  0.2311
  774MOL0     C 6708  10.694   4.832   1.067 -1.6194  0.5618  0.4274
  774MOL0     C 6709  10.767   4.719   1.004  0.6222 -0.2635 -1.0418
  774MOL0     O 6710  10.905   4.726   0.997  0.0450 -0.4329 -0.0021
  774MOL0     C 6711  10.968   4.852   0.979  0.6838 -0.1636 -0.8947
  774MOL0     C 6712  11.119   4.838   0.957  0.1157 -0.3079 -0.3988
  774MOL0     C 6713  11.186   4.976   0.979  0.7977  0.1910 -0.0852
  774MOL0     C 6714  11.339   4.962   0.975 -0.1105 -0.4509 -0.5934
  774MOL0     C 6715  11.403   5.104   0.992  0.7310  0.2544 -0.2568
  774MOL0     C 6716  11.382   5.158   1.136 -0.3142 -0.0068  0.8531
  774MOL0     C 6717  11.454   5.287   1.148  0.2832 -0.7987  0.0885
  774MOL0     C 6718  11.455   5.356   1.285  0.7430  0.0282  0.2876
  774MOL0    Cl 6719  11.432   5.537   1.268  0.5801  0.0784 -0.0383
  774MOL0     C 6720  10.707   4.610   0.944  0.2598  0.1192 -0.9733
  774MOL0     C 6721  10.564   4.608   0.952  0.0784  0.3366  0.2308
  774MOL0     O 6722  10.365   4.709   1.260  0.6655  0.1958  0.1776
  774MOL0     C 6723  10.078   4.607   1.122 -0.5292 -0.6986  0.5151
  774MOL0     C 6724   9.944   4.604   1.149 -0.6420  0.0811  0.5087
  774MOL0     N 6725   9.111   4.610   1.371  0.6191  0.3695  0.5590
  774MOL0     N 6726   9.031   4.533   1.313  0.3179  0.1826 -0.0075
  774MOL0     C 6727   8.140   4.329   1.395  0.1001 -0.1003 -0.0374
  774MOL0     C 6728   8.014   4.354   1.351  0.6960 -0.5153 -0.0538
  774MOL0     C 6729   7.701   4.496   1.037  0.3941  1.1345  0.7587
  774MOL0     C 6730   7.600   4.411   1.098 -0.4919  0.1732 -0.2104
  774MOL0     C 6731   7.463   4.417   1.069  0.1375  0.0452  1.1064
  774MOL0     C 6732   7.416   4.516   0.979  0.1369  0.4419 -0.3684
  774MOL0     O 6733   7.285   4.510   0.941 -0.1227 -0.3821 -0.3310
  774MOL0     C 6734   7.221   4.632   0.900 -0.0574 -0.7569 -0.3840
  774MOL0     C 6735   7.098   4.649   0.990  0.1022 -0.7892  0.1357
  774MOL0     C 6736   6.988   4.543   0.964 -0.4901 -0.2291  0.1864
  774MOL0     C 6737   6.867   4.582   1.051  0.1208 -0.1538 -0.3043
  774MOL0     C 6738   6.751   4.525   0.991  0.0722 -0.0901 -0.5739
  774MOL0     C 6739   6.657   4.465   0.948  0.1991 -0.2314 -0.2490
  774MOL0     C 6740   7.515   4.590   0.913  0.5639  0.2708  0.3580
  774MOL0     C 6741   7.652   4.595   0.950  0.5982  0.1579 -0.6318
  774MOL0     C 6742   7.749   4.683   0.874 -0.2028 -0.1186 -0.4894
  774MOL0     H 6743   8.059   4.373   1.014  0.7252  1.0053 -0.2090
  774MOL0     H 6744   8.274   4.302   1.072 -0.7132  1.6204 -2.0347
  774MOL0     H 6745   8.293   4.161   1.519  0.7787 -2.4482  1.2169
  774MOL0     H 6746   8.426   4.288   1.517  1.5256 -0.8038 -1.2241
  774MOL0     H 6747   8.554   4.112   1.584  1.2840 -2.3367 -0.1573
  774MOL0     H 6748   8.461   3.984   1.508  1.8797 -0.8605  1.1962
  774MOL0     H 6749   8.653   3.970   1.423 -2.2325 -1.5798  0.1870
  774MOL0     H 6750   8.562   4.051   1.292  0.0895 -0.0141  0.3062
  774MOL0     H 6751   8.663   4.270   1.354  1.9189 -0.0235 -2.1469
  774MOL0     H 6752   8.738   4.201   1.492  1.5668 -1.1062  0.6790
  774MOL0     H 6753   8.821   4.076   1.221 -0.4721  1.1498 -1.0804
  774MOL0     H 6754   8.894   4.061   1.376 -1.2884 -0.0401  0.8541
  774MOL0     H 6755   8.850   4.328   1.256 -1.6082 -1.9648 -0.5049
  774MOL0     H 6756   8.962   4.285   1.389 -0.5105  1.5206 -0.3532
  774MOL0     H 6757   9.001   4.172   1.102 -1.6266  1.8614 -0.3352
  774MOL0     H 6758   9.111   4.236   1.233 -0.3245  0.3552  1.1720
  774MOL0     H 6759   9.122   4.371   1.032  1.7238  2.0334  1.7877
  774MOL0     H 6760   8.953   4.426   1.045  0.1677 -0.6353 -0.9396
  774MOL0     H 6761   9.260   4.578   1.076  0.6752 -0.1122  0.5611
  774MOL0     H 6762   9.276   4.796   1.397 -1.2721 -2.9242  1.7920
  774MOL0     H 6763   9.305   4.835   1.227 -2.9830 -1.4300 -1.6825
  774MOL0     H 6764   9.500   4.785   1.355  1.9660 -1.6792  0.3019
  774MOL0     H 6765   9.459   4.619   1.387 -2.7583 -0.2705  0.6235
  774MOL0     H 6766   9.455   4.581   1.141  1.4220 -0.1878 -1.8390
  774MOL0     H 6767   9.513   4.759   1.114  0.1627  1.6918  2.8420
  774MOL0     H 6768   9.657   4.525   1.230 -0.5762 -0.9523 -1.3368
  774MOL0     H 6769   9.676   4.586   1.074 -0.6605 -0.0568 -0.6450
  774MOL0     H 6770   9.897   4.868   1.337  0.1458 -1.2450 -0.2324
  774MOL0     H 6771  10.093   5.000   1.341  0.7324  3.3108 -3.6189
  774MOL0     H 6772  10.192   4.986   1.198 -0.2016 -0.2584 -0.7537
  774MOL0     H 6773  10.244   4.918   1.358 -0.5397 -1.0524 -0.4583
  774MOL0     H 6774  10.490   4.896   1.128 -3.7135 -2.2479  0.1636
  774MOL0     H 6775  10.747   4.912   1.118  2.0952 -2.5446  1.9792
  774MOL0     H 6776  10.926   4.908   0.894 -1.9703  0.4680  0.6943
  774MOL0     H 6777  10.964   4.911   1.071  0.3747  1.2377 -1.7709
  774MOL0     H 6778  11.161   4.776   1.038  0.9373  2.3680  1.3646
  774MOL0     H 6779  11.141   4.795   0.859  2.1867  0.3919 -0.2988
  774MOL0     H 6780  11.149   5.000   1.080  1.1495 -2.2649  0.6832
  774MOL0     H 6781  11.151   5.052   0.908 -1.3320  0.3621  1.0706
  774MOL0     H 6782  11.372   4.923   0.879  1.6001 -0.5510  0.0126
  774MOL0     H 6783  11.380   4.890   1.046 -0.6666 -1.2700 -1.0917
  774MOL0     H 6784  11.507   5.075   0.972  0.5563 -1.1826  0.7162
  774MOL0     H 6785  11.365   5.163   0.909 -1.3455  0.5261  0.8116
  774MOL0     H 6786  11.413   5.078   1.204 -0.1439  0.4533  1.3149
  774MOL0     H 6787  11.275   5.174   1.151 -0.8175 -0.5190 -1.6815
  774MOL0     H 6788  11.408   5.352   1.074 -1.6419 -1.0336  1.0104
  774MOL0     H 6789  11.556   5.283   1.107  1.2861  0.9958  2.1706
  774MOL0     H 6790  11.540   5.331   1.349  1.1228 -0.7913 -0.5066
  774MOL0     H 6791  11.362   5.333   1.338  0.3730  3.2074  1.1962
  774MOL0     H 6792  10.768   4.540   0.889 -0.2418 -2.3804  1.4742
  774MOL0     H 6793  10.508   4.532   0.898  0.1607  1.1114 -0.9814
  774MOL0     H 6794  10.132   4.529   1.070 -0.0131 -1.3019  1.9029
  774MOL0     H 6795   9.875   4.532   1.104 -1.5620  1.5116 -0.4723
  774MOL0     H 6796   8.162   4.325   1.501  1.8105  0.5091 -0.3291
  774MOL0     H 6797   7.936   4.350   1.427 -0.9233  1.4268 -1.4997
  774MOL0     H 6798   7.633   4.338   1.171  0.9397 -1.0433 -1.9824
  774MOL0     H 6799   7.399   4.351   1.125  0.6536 -1.7079 -0.2978
  774MOL0     H 6800   7.285   4.720   0.908  2.2673 -2.4594  0.9102
  774MOL0     H 6801   7.188   4.630   0.796  0.5150 -0.2290 -0.5809
  774MOL0     H 6802   7.046   4.745   0.993  0.5503 -0.4630  4.6716
  774MOL0     H 6803   7.137   4.642   1.092 -0.9693  0.3529  0.6437
  774MOL0     H 6804   6.949   4.525   0.863 -3.1402 -1.0891  1.2657
  774MOL0     H 6805   7.029   4.449   0.999 -1.0384 -0.9815 -1.1018
  774MOL0     H 6806   6.834   4.686   1.050  0.8344  0.0828  0.2203
  774MOL0     H 6807   6.891   4.545   1.152  0.1371 -0.7784 -0.5304
  774MOL0     H 6808   6.579   4.405   0.905  0.5355 -0.4627 -0.5360
  774MOL0     H 6809   7.492   4.654   0.828 -1.1460 -0.7313  0.0381
  774MOL0     H 6810   7.827   4.614   0.839  1.0521 -0.6963  3.0390
  774MOL0     H 6811   7.701   4.730   0.788  1.2844  1.0712 -0.7291
  774MOL0     H 6812   7.784   4.767   0.936  0.0934 -1.1995  0.8607
  775MOL0     O 6813   4.314   7.870   9.707 -0.2819  0.2359 -0.5140
  775MOL0     C 6814   4.332   7.756   9.694 -0.1945 -1.0015  0.0030
  775MOL0     O 6815   4.450   7.693   9.718 -1.4636 -0.0218 -0.2050
  775MOL0     C 6816   4.569   7.767   9.742  1.0021 -0.1479  0.0795
  775MOL0     C 6817   4.602   7.863   9.650  0.3120 -0.0528 -0.3640
  775MOL0     C 6818   4.727   7.929   9.663  0.4477 -0.3853 -0.2592
  775MOL0     C 6819   4.820   7.902   9.759 -0.0785  0.6057 -0.1821
  775MOL0     O 6820   4.929   7.981   9.758  0.6034 -0.0590 -0.1862
  775MOL0     C 6821   5.008   7.989   9.879  0.3719  0.7607  0.4535
  775MOL0     C 6822   5.114   8.091   9.828  0.2916  0.7966 -0.4289
  775MOL0     C 6823   5.060   8.238   9.785 -0.3202 -0.0884 -0.6120
  775MOL0     C 6824   5.171   8.329   9.713  0.3635  0.3557 -0.6199
  775MOL0     C 6825   5.273   8.384   9.807 -0.2017 -0.1760 -0.4847
  775MOL0     C 6826   5.382   8.471   9.752  0.2776  0.3026  0.1381
  775MOL0     C 6827   5.318   8.599   9.684 -0.3671  0.7391 -0.4872
  775MOL0     C 6828   5.410   8.731   9.675  0.1047 -0.9425 -0.8076
  775MOL0     N 6829   5.533   8.705   9.599  0.2939  0.2718  1.6397
  775MOL0     C 6830   5.538   8.656   9.466  0.2921 -0.4064  0.1514
  775MOL0     C 6831   5.663   8.663   9.418  0.0898 -0.1374 -0.2894
  775MOL0     C 6832   5.723   8.631   9.286 -0.9540  0.0488  0.2221
  775MOL0     C 6833   5.771   8.478   9.252  1.0250 -0.0141 -0.1439
  775MOL0     C 6834   5.858   8.469   9.130 -0.3608 -0.2151  0.4775
  775MOL0     C 6835   5.955   8.353   9.122 -0.4703 -0.0578 -0.1100
  775MOL0     O 6836   6.038   8.372   9.237 -0.0991  0.1885  0.0892
  775MOL0     C 6837   6.171   8.335   9.248 -0.1743  0.2418  0.1609
  775MOL0     C 6838   6.251   8.293   9.138 -0.1139  0.5863  0.6809
  775MOL0     C 6839   6.388   8.252   9.145 -0.2205 -0.0696  0.2749
  775MOL0     C 6840   6.464   8.225   9.023 -0.0837 -0.4937  0.3686
  775MOL0     C 6841   6.451   8.264   9.273 -0.2778  0.0955  0.2368
  775MOL0     C 6842   6.600   8.231   9.294  0.2892  0.4306 -0.4557
  775MOL0     O 6843   6.632   8.229   9.427  0.7171 -0.4276 -0.0369
  775MOL0     C 6844   6.756   8.175   9.454  0.0920 -0.0400 -0.0562
  775MOL0     C 6845   6.869   8.256   9.450  0.9854  0.5586  0.7876
  775MOL0     C 6846   6.996   8.199   9.479  0.8430  0.4409  0.1726
  775MOL0     C 6847   7.011   8.064   9.514 -0.5344 -0.2829 -0.8215
  775MOL0     O 6848   7.140   8.032   9.554  0.1049  0.2168  0.2468
  775MOL0     C 6849   7.169   7.899   9.601  0.0628  0.2152  0.0816
  775MOL0     C 6850   7.327   7.878   9.607  0.4160 -0.3641  0.3308
  775MOL0     C 6851   7.397   7.977   9.699  0.5190  0.0299 -0.4952
  775MOL0     C 6852   7.546   7.945   9.702 -0.3793 -0.6196  0.4866
  775MOL0     C 6853   7.626   8.040   9.781 -0.3175  0.0646  0.5233
  775MOL0     C 6854   7.752   7.975   9.848  0.1446 -0.1112  0.4709
  775MOL0     C 6855   7.835   8.059   9.945  0.1858 -0.3795  1.0810
  775MOL0     C 6856   7.763   8.101  10.071  0.9417 -0.0716  1.5507
  775MOL0    Cl 6857   7.868   8.161  10.192 -0.0292  0.7304  0.0270
  775MOL0     C 6858   6.899   7.985   9.532 -0.6385  0.4807  0.1180
  775MOL0     C 6859   6.773   8.046   9.508  0.0604  0.4467  0.4659
  775MOL0     O 6860   6.679   8.224   9.206  0.1119 -0.1507  0.2145
  775MOL0     C 6861   6.371   8.300   9.388  0.0433 -0.3503  0.0921
  775MOL0     C 6862   6.238   8.331   9.371  0.7074  0.7032 -0.2881
  775MOL0     N 6863   5.736   8.716   9.526  0.0164 -0.2045  0.5149
  775MOL0     N 6864   5.662   8.747   9.631  0.6080  0.0864 -0.8481
  775MOL0     C 6865   4.789   7.795   9.847 -0.1439  0.4678 -0.0678
  775MOL0     C 6866   4.666   7.729   9.842 -0.0050 -0.9484  0.3603
  775MOL0     C 6867   4.213   7.670   9.667 -0.1005  0.1325  0.0030
  775MOL0     C 6868   4.229   7.535   9.693  1.3896 -0.9656 -0.4504
  775MOL0     C 6869   4.118   7.447   9.676  0.3366  0.2779 -0.1741
  775MOL0     C 6870   4.002   7.490   9.630  0.6871 -0.6553 -0.4177
  775MOL0     O 6871   3.899   7.392   9.630  0.0780 -0.3842  0.4580
  775MOL0     C 6872   3.773   7.436   9.573  0.4555  0.5386  0.4220
  775MOL0     C 6873   3.670   7.328   9.586 -1.1000 -0.5409  0.4621
  775MOL0     C 6874   3.548   7.349   9.490 -0.7851  0.6238 -0.7905
  775MOL0     C 6875   3.424   7.268   9.534 -0.5100 -0.5144 -0.4203
  775MOL0     C 6876   3.309   7.331   9.471  0.5303 -0.5602 -0.2902
  775MOL0     C 6877   3.210   7.390   9.440 -1.1802 -0.9600  0.0466
  775MOL0     C 6878   3.989   7.625   9.614 -0.1556  0.7264  0.1102
  775MOL0     C 6879   4.095   7.712   9.610 -0.4936  0.3926  0.7608
  775MOL0     C 6880   4.073   7.861   9.583  0.6275  0.4130 -0.1694
  775MOL0     H 6881   4.534   7.903   9.576 -0.6629  3.6190  2.2229
  775MOL0     H 6882   4.741   8.011   9.594 -0.4253  0.3651  0.4381
  775MOL0     H 6883   5.049   7.891   9.902 -2.4418 -1.1165 -1.8468
  775MOL0     H 6884   4.948   8.023   9.964 -0.6376  0.5652 -0.1631
  775MOL0     H 6885   5.191   8.101   9.905 -0.3988 -1.2695  0.6179
  775MOL0     H 6886   5.163   8.038   9.746 -2.2113 -1.5592 -0.5305
  775MOL0     H 6887   4.981   8.220   9.711 -0.5329 -0.5288 -0.2832
  775MOL0     H 6888   5.016   8.285   9.873  2.5445  1.4735  0.1195
  775MOL0     H 6889   5.228   8.260   9.651  2.4577 -2.2135  3.6473
  775MOL0     H 6890   5.119   8.407   9.658 -0.5372 -2.2451 -3.7497
  775MOL0     H 6891   5.325   8.295   9.845 -2.8350 -1.6131  0.0425
  775MOL0     H 6892   5.229   8.445   9.886  0.5924 -0.3707  0.1156
  775MOL0     H 6893   5.447   8.498   9.836 -2.5451 -0.5736  2.8021
  775MOL0     H 6894   5.442   8.411   9.683  0.3143 -3.4272  3.0777
  775MOL0     H 6895   5.234   8.636   9.743  0.2719  2.0075 -0.3533
  775MOL0     H 6896   5.280   8.573   9.585 -1.5323  0.1135  0.1031
  775MOL0     H 6897   5.363   8.815   9.623  1.0362 -0.1971 -0.4649
  775MOL0     H 6898   5.447   8.756   9.775  0.7815 -1.2049 -0.9901
  775MOL0     H 6899   5.464   8.606   9.404  0.4001 -0.3989  0.0191
  775MOL0     H 6900   5.811   8.695   9.280 -0.9388  0.1505  1.3430
  775MOL0     H 6901   5.659   8.675   9.208 -0.1487 -0.3079 -0.6572
  775MOL0     H 6902   5.806   8.430   9.344  0.6780 -0.8672 -0.4542
  775MOL0     H 6903   5.680   8.424   9.227  1.0864 -0.3755  0.3924
  775MOL0     H 6904   5.791   8.471   9.044  0.7840 -1.4177 -0.4864
  775MOL0     H 6905   5.921   8.559   9.135 -0.6417 -0.0707  2.0188
  775MOL0     H 6906   5.908   8.255   9.114  0.0301 -0.3172  0.0501
  775MOL0     H 6907   6.008   8.375   9.029 -0.4422 -0.5613 -0.2152
  775MOL0     H 6908   6.199   8.274   9.044 -1.4038  1.2592  1.2406
  775MOL0     H 6909   6.514   8.316   8.989 -2.1156  1.2689  1.8287
  775MOL0     H 6910   6.390   8.205   8.944  1.5793 -0.6877 -1.2047
  775MOL0     H 6911   6.524   8.134   9.022  2.4851  1.1141  0.6318
  775MOL0     H 6912   6.854   8.363   9.438  0.1160  0.6302  2.3478
  775MOL0     H 6913   7.081   8.261   9.508  1.1547  0.1690 -0.1487
  775MOL0     H 6914   7.130   7.872   9.699  1.8991 -2.9587  0.0586
  775MOL0     H 6915   7.127   7.832   9.525 -0.7995  1.6334 -0.7553
  775MOL0     H 6916   7.336   7.771   9.632 -2.7528 -1.1555 -1.4278
  775MOL0     H 6917   7.375   7.889   9.510  0.5985  0.9648  0.5560
  775MOL0     H 6918   7.349   7.980   9.798  2.3894  0.3451  0.4569
  775MOL0     H 6919   7.386   8.079   9.660  3.3339  1.6936  2.5167
  775MOL0     H 6920   7.588   7.943   9.602  0.9932  2.9730  0.8603
  775MOL0     H 6921   7.541   7.844   9.744 -2.5896 -0.2401  1.2673
  775MOL0     H 6922   7.657   8.114   9.707  0.5343 -0.5314  0.2664
  775MOL0     H 6923   7.561   8.092   9.853 -1.7194 -0.3131 -0.4367
  775MOL0     H 6924   7.824   7.958   9.767  1.0470  4.5479  0.0099
  775MOL0     H 6925   7.715   7.886   9.901 -1.7150  1.5785  2.1671
  775MOL0     H 6926   7.876   8.148   9.896  2.2703 -1.7434  0.2129
  775MOL0     H 6927   7.918   7.992   9.969  0.8224 -0.7185 -1.7338
  775MOL0     H 6928   7.720   8.007  10.107 -1.0149  0.4066  0.5847
  775MOL0     H 6929   7.688   8.174  10.040  1.5031  1.1311  2.9506
  775MOL0     H 6930   6.913   7.883   9.567 -0.4005  0.6088  0.3975
  775MOL0     H 6931   6.688   7.978   9.515  0.3589 -0.5934 -3.6115
  775MOL0     H 6932   6.399   8.293   9.493 -3.9029 -4.6136  1.2302
  775MOL0     H 6933   6.171   8.365   9.450  1.0650 -0.8672  0.7359
  775MOL0     H 6934   4.861   7.752   9.916 -1.3431 -0.5801  0.5550
  775MOL0     H 6935   4.648   7.650   9.913 -1.4445 -2.9859 -2.1125
  775MOL0     H 6936   4.325   7.505   9.733  1.3781  0.4479  0.6999
  775MOL0     H 6937   4.115   7.341   9.701  1.3268 -0.0621 -1.4089
  775MOL0     H 6938   3.734   7.531   9.609  0.6780  0.6396  0.4021
  775MOL0     H 6939   3.796   7.442   9.467 -0.6077  1.8585  0.2476
  775MOL0     H 6940   3.632   7.336   9.688  0.3894 -1.1320  1.0892
  775MOL0     H 6941   3.705   7.225   9.573 -1.3276 -0.4475 -1.0323
  775MOL0     H 6942   3.522   7.455   9.483  0.5358  0.8724 -3.7403
  775MOL0     H 6943   3.576   7.316   9.389 -0.3525 -0.4186 -0.3382
  775MOL0     H 6944   3.408   7.258   9.642 -0.2111 -1.9912 -0.5028
  775MOL0     H 6945   3.425   7.164   9.501  2.3200  0.5589 -4.4933
  775MOL0     H 6946   3.121   7.443   9.411 -0.0204  2.6849  2.4897
  775MOL0     H 6947   3.895   7.675   9.592  1.3746  3.4053 -0.8545
  775MOL0     H 6948   4.123   7.909   9.498 -1.8515  2.6394 -0.4901
  775MOL0     H 6949   3.968   7.874   9.553  0.9408 -0.0574 -1.5357
  775MOL0     H 6950   4.089   7.921   9.672 -0.0494  0.2616  0.0645
  776MOL0     O 6951   7.479   0.725   1.818  0.4043  0.1193 -0.3259
  776MOL0     C 6952   7.455   0.845   1.780  0.5264  0.6159  0.3945
  776MOL0     O 6953   7.479   0.880   1.647 -0.0642 -0.0193  0.2792
  776MOL0     C 6954   7.576   0.802   1.580  0.4608  0.0186  0.3895
  776MOL0     C 6955   7.711   0.821   1.608 -0.2186 -0.2872  0.1270
  776MOL0     C 6956   7.814   0.761   1.535  0.0554 -0.4500  0.4020
  776MOL0     C 6957   7.787   0.683   1.431  0.5695  1.0525 -0.7032
  776MOL0     O 6958   7.874   0.622   1.340 -0.1530 -0.3713  0.0233
  776MOL0     C 6959   7.999   0.576   1.391 -0.3998  0.8708 -1.2957
  776MOL0     C 6960   8.063   0.456   1.322 -1.0714 -0.5713 -0.2142
  776MOL0     C 6961   7.975   0.334   1.340  0.2608  0.0090  0.3413
  776MOL0     C 6962   8.058   0.215   1.293  0.6607 -0.1436 -0.0620
  776MOL0     C 6963   8.171   0.191   1.395 -0.6943 -0.1210  0.2700
  776MOL0     C 6964   8.220   0.046   1.403  0.2711 -0.1976  0.6103
  776MOL0     C 6965   8.345   0.023   1.493 -0.8832 -0.3194  0.2306
  776MOL0     C 6966   8.347   0.100   1.625  0.0173 -0.2967  0.4303
  776MOL0     N 6967   8.465   0.055   1.701  0.5065  0.0341 -0.1182
  776MOL0     C 6968   8.480   0.080   1.835 -1.3833  0.3627 -0.4666
  776MOL0     C 6969   8.608   0.033   1.861  0.7282  0.1134 -0.6357
  776MOL0     C 6970   8.693   0.068   1.980  1.4956  1.3638 -0.3284
  776MOL0     C 6971   8.617   0.044   2.108  0.1121 -1.1238 -0.2827
  776MOL0     C 6972   8.704   0.081   2.233 -1.5152  0.2617 -0.5828
  776MOL0     C 6973   8.713   0.237   2.240 -0.2922  0.2055  0.4358
  776MOL0     O 6974   8.798   0.285   2.345 -0.0145  0.4263  0.0058
  776MOL0     C 6975   8.929   0.317   2.307  0.5956  0.2482  0.4958
  776MOL0     C 6976   9.018   0.220   2.249  0.3063  0.2469  0.0361
  776MOL0     C 6977   9.146   0.245   2.211 -0.7389  0.0524  0.2519
  776MOL0     C 6978   9.242   0.137   2.179  1.4072 -0.7979 -0.1944
  776MOL0     C 6979   9.190   0.374   2.222  0.1935 -0.3521 -0.7243
  776MOL0     C 6980   9.330   0.414   2.177  0.6307 -0.5641 -0.2590
  776MOL0     O 6981   9.348   0.547   2.175  0.7246 -0.0495  0.1572
  776MOL0     C 6982   9.477   0.597   2.123  0.3918  0.9745  0.7966
  776MOL0     C 6983   9.540   0.697   2.197 -0.4263 -0.3267  0.6495
  776MOL0     C 6984   9.659   0.747   2.147  0.3141  0.2306  0.7104
  776MOL0     C 6985   9.724   0.695   2.028 -0.8958  0.0160  0.8510
  776MOL0     O 6986   9.847   0.750   1.981  0.4422  0.2124 -0.1647
  776MOL0     C 6987   9.872   0.883   2.017  0.9159  0.5118  0.3965
  776MOL0     C 6988   9.965   0.950   1.906  0.4239  0.0976  0.3500
  776MOL0     C 6989  10.114   0.927   1.926  0.0670 -0.1723  0.0004
  776MOL0     C 6990  10.206   0.996   1.824  0.5234  0.2648  0.8294
  776MOL0     C 6991  10.360   0.978   1.853  0.0985 -0.1427 -0.8448
  776MOL0     C 6992  10.440   1.010   1.723 -0.5629 -0.0549 -0.1333
  776MOL0     C 6993  10.593   1.005   1.740  0.2463 -0.1597  0.1206
  776MOL0     C 6994  10.650   0.864   1.765  0.4666  0.0096  0.4116
  776MOL0    Cl 6995  10.822   0.876   1.798 -0.7018  0.2987  0.2803
  776MOL0     C 6996   9.664   0.586   1.968 -0.8222 -0.2297  0.0861
  776MOL0     C 6997   9.534   0.544   2.005 -0.4927 -0.0795 -0.1665
  776MOL0     O 6998   9.412   0.329   2.142 -0.0472 -0.9361 -0.1012
  776MOL0     C 6999   9.102   0.472   2.265  0.3360  0.4410  0.7527
  776MOL0     C 7000   8.970   0.447   2.320  0.8370  0.3872  0.0024
  776MOL0     N 7001   8.666  -0.012   1.749 -0.2443 -0.3810 -0.9494
  776MOL0     N 7002   8.583   0.009   1.650 -0.4051 -0.0467 -0.3352
  776MOL0     C 7003   7.651   0.653   1.408 -0.4089 -0.4937  0.2298
  776MOL0     C 7004   7.544   0.712   1.477  0.1716 -0.4303  0.5574
  776MOL0     C 7005   7.385   0.938   1.873  0.3795 -0.4614  0.6310
  776MOL0     C 7006   7.341   1.056   1.820 -0.7202  0.1124 -0.2967
  776MOL0     C 7007   7.272   1.152   1.891  0.1038 -0.4348 -0.0223
  776MOL0     C 7008   7.262   1.138   2.035 -0.5536  0.0364  0.1809
  776MOL0     O 7009   7.197   1.235   2.101  0.0907  0.2549 -0.0229
  776MOL0     C 7010   7.070   1.192   2.154  0.3455 -0.3537 -0.5372
  776MOL0     C 7011   6.957   1.210   2.059  0.4014 -0.0884 -0.1906
  776MOL0     C 7012   6.820   1.159   2.112 -0.9734 -0.0069 -0.1142
  776MOL0     C 7013   6.699   1.220   2.041 -1.1534 -0.2607 -0.8072
  776MOL0     C 7014   6.707   1.185   1.898 -0.4663  0.1104  0.7560
  776MOL0     C 7015   6.712   1.146   1.781  0.0279 -0.6751 -0.2522
  776MOL0     C 7016   7.310   1.019   2.094 -0.2843 -0.1543  0.3360
  776MOL0     C 7017   7.368   0.922   2.013  0.8571  0.4726  0.2687
  776MOL0     C 7018   7.405   0.795   2.083 -0.8326 -0.0654  0.0930
  776MOL0     H 7019   7.733   0.896   1.684 -3.2145  0.3276  0.5074
  776MOL0     H 7020   7.917   0.778   1.562  0.0896  1.7555 -0.8846
  776MOL0     H 7021   7.984   0.540   1.493 -1.3715 -0.7639 -1.9669
  776MOL0     H 7022   8.061   0.666   1.391 -0.4383  0.9218  0.2111
  776MOL0     H 7023   8.075   0.478   1.215 -3.4968  1.7588 -0.1274
  776MOL0     H 7024   8.163   0.445   1.366 -0.6131  2.8025 -0.1162
  776MOL0     H 7025   7.944   0.325   1.445 -1.1259  1.2956  0.0805
  776MOL0     H 7026   7.879   0.331   1.287 -1.6314 -2.0488  3.4829
  776MOL0     H 7027   8.000   0.123   1.302 -0.1754  0.4315  0.6287
  776MOL0     H 7028   8.092   0.244   1.193 -0.5110  3.2647  0.3894
  776MOL0     H 7029   8.131   0.210   1.495 -0.1065 -0.9273  0.6691
  776MOL0     H 7030   8.257   0.256   1.381 -0.7800  0.3868  1.8416
  776MOL0     H 7031   8.150  -0.014   1.461  1.8943 -0.4061  2.4745
  776MOL0     H 7032   8.243   0.019   1.300 -1.1957  0.6319  0.0416
  776MOL0     H 7033   8.431   0.068   1.443 -2.3948  2.4080 -0.1559
  776MOL0     H 7034   8.367  -0.083   1.504 -2.0066 -0.7168 -1.0910
  776MOL0     H 7035   8.344   0.209   1.619 -0.3024 -0.3066  0.3657
  776MOL0     H 7036   8.258   0.072   1.682  0.0797 -1.9889 -0.2435
  776MOL0     H 7037   8.408   0.126   1.902 -1.7716 -2.1141  0.9391
  776MOL0     H 7038   8.730   0.170   1.964  1.8325  1.2411 -0.3495
  776MOL0     H 7039   8.780   0.001   1.992  1.7442  1.9509  1.5378
  776MOL0     H 7040   8.522   0.099   2.116  2.2907  2.7706  1.9024
  776MOL0     H 7041   8.603  -0.065   2.113  1.8681 -1.3742  4.3351
  776MOL0     H 7042   8.652   0.055   2.325 -0.5994  2.3643  0.5986
  776MOL0     H 7043   8.796   0.022   2.237 -3.0580 -2.3000  2.7156
  776MOL0     H 7044   8.753   0.283   2.149  0.7914  3.8274  2.5025
  776MOL0     H 7045   8.609   0.269   2.255 -0.7646 -1.1284  0.0971
  776MOL0     H 7046   8.990   0.115   2.250 -0.1392  0.2586  3.7766
  776MOL0     H 7047   9.187   0.044   2.163 -0.5657  0.4696 -1.2806
  776MOL0     H 7048   9.314   0.123   2.259  0.2702 -2.0796  0.6546
  776MOL0     H 7049   9.278   0.158   2.077 -4.1620  1.6953 -2.0946
  776MOL0     H 7050   9.484   0.736   2.282 -0.7304  1.7963 -0.4782
  776MOL0     H 7051   9.702   0.832   2.200 -1.3922  0.7339  1.3734
  776MOL0     H 7052   9.776   0.937   2.017  0.9698  0.6626  1.9897
  776MOL0     H 7053   9.912   0.897   2.118  2.5646  2.2119 -0.4291
  776MOL0     H 7054   9.918   0.918   1.812 -1.5530  2.8494  0.2790
  776MOL0     H 7055   9.966   1.058   1.920 -2.4499  0.0614  1.4732
  776MOL0     H 7056  10.128   0.819   1.934 -0.5114 -0.2747 -0.3439
  776MOL0     H 7057  10.151   0.966   2.021  4.0160  0.1621 -1.4640
  776MOL0     H 7058  10.185   1.102   1.804 -0.2112 -0.0345 -0.0469
  776MOL0     H 7059  10.188   0.937   1.734 -1.3668 -1.3062  2.1396
  776MOL0     H 7060  10.395   1.049   1.929  0.0137  0.3451 -1.2545
  776MOL0     H 7061  10.379   0.873   1.876 -0.9723 -0.2362 -0.3216
  776MOL0     H 7062  10.407   1.113   1.707  1.0328  0.6382  0.7782
  776MOL0     H 7063  10.406   0.949   1.639  1.6801  1.0081 -1.9095
  776MOL0     H 7064  10.621   1.077   1.818 -0.6985 -0.4998  0.7909
  776MOL0     H 7065  10.636   1.027   1.642 -0.4618 -3.1716 -0.9857
  776MOL0     H 7066  10.633   0.803   1.677 -0.2852 -0.6094  0.9695
  776MOL0     H 7067  10.591   0.814   1.843  1.6854 -1.3022  0.5283
  776MOL0     H 7068   9.711   0.547   1.878  0.4263 -0.0055  0.6134
  776MOL0     H 7069   9.491   0.463   1.947 -2.6670  3.1139 -3.4379
  776MOL0     H 7070   9.129   0.577   2.264  1.7769  0.1627 -2.9967
  776MOL0     H 7071   8.904   0.528   2.350  3.0483  2.5352 -0.6337
  776MOL0     H 7072   7.637   0.576   1.333  1.3521  0.6751 -1.4095
  776MOL0     H 7073   7.443   0.691   1.443  0.8843  1.3552 -3.2298
  776MOL0     H 7074   7.354   1.078   1.715  1.3634 -1.2503 -0.3826
  776MOL0     H 7075   7.250   1.245   1.840  2.1621  0.5323  0.7170
  776MOL0     H 7076   7.064   1.091   2.197 -1.0136  0.1245  0.4663
  776MOL0     H 7077   7.030   1.265   2.225 -2.7450  2.7353 -4.9131
  776MOL0     H 7078   6.979   1.160   1.965  0.2507  0.4153 -0.4994
  776MOL0     H 7079   6.949   1.316   2.033 -2.0213 -1.0136 -3.9279
  776MOL0     H 7080   6.809   1.050   2.109 -0.0429 -0.1207  0.2988
  776MOL0     H 7081   6.803   1.187   2.217 -1.2028  0.7264 -0.3377
  776MOL0     H 7082   6.690   1.326   2.063 -2.1541 -0.1965 -1.4641
  776MOL0     H 7083   6.614   1.161   2.078  1.3226 -2.3938  1.9195
  776MOL0     H 7084   6.731   1.112   1.682  0.3666  0.1394 -0.4782
  776MOL0     H 7085   7.288   1.010   2.200 -0.4253  0.6312  0.3856
  776MOL0     H 7086   7.354   0.705   2.046 -0.3811 -0.7978  1.1836
  776MOL0     H 7087   7.512   0.776   2.074 -0.9442 -0.2571 -0.9365
  776MOL0     H 7088   7.383   0.806   2.190 -3.8936 -1.3243 -0.2803
  777MOL0     O 7089  10.974   6.765   1.249 -0.7798 -0.4809 -0.4285
  777MOL0     C 7090  10.969   6.654   1.196 -0.2126 -0.9477  0.0390
  777MOL0     O 7091  11.056   6.549   1.218 -0.6001 -0.4659  0.0387
  777MOL0     C 7092  11.186   6.575   1.258 -0.0926 -0.4170  0.2441
  777MOL0     C 7093  11.247   6.481   1.335 -0.8534  0.1123 -0.5473
  777MOL0     C 7094  11.378   6.505   1.389 -0.1366  0.9132 -0.0660
  777MOL0     C 7095  11.447   6.622   1.359 -0.2477 -0.4915  0.4840
  777MOL0     O 7096  11.573   6.640   1.415 -0.0547  0.0059  0.3519
  777MOL0     C 7097  11.605   6.571   1.535 -0.2546 -0.0703  0.2278
  777MOL0     C 7098  11.730   6.638   1.591 -0.4368  0.5609  0.2318
  777MOL0     C 7099  11.730   6.631   1.742 -0.6534  1.3155 -0.3922
  777MOL0     C 7100  11.640   6.735   1.802  0.8450  0.3237 -0.1075
  777MOL0     C 7101  11.652   6.739   1.949  0.2034 -0.0285  0.0057
  777MOL0     C 7102  11.772   6.826   2.000 -0.5450 -0.7562 -0.0810
  777MOL0     C 7103  11.760   6.853   2.152 -0.0300  1.4447  0.6537
  777MOL0     C 7104  11.855   6.960   2.194 -0.0101  1.0119 -0.5092
  777MOL0     N 7105  11.996   6.925   2.177  0.0050 -0.0649  0.5599
  777MOL0     C 7106  12.068   6.835   2.255 -0.9940  0.7752  0.0133
  777MOL0     C 7107  12.194   6.817   2.198  0.2274  0.8500 -0.5798
  777MOL0     C 7108  12.311   6.736   2.255 -0.5835  0.4888 -0.6184
  777MOL0     C 7109  12.448   6.783   2.223 -0.4547 -0.2875  0.1202
  777MOL0     C 7110  12.556   6.713   2.306 -0.7108 -0.4389 -1.0048
  777MOL0     C 7111  12.696   6.762   2.256  0.8073 -0.0785  0.2388
  777MOL0     O 7112  12.797   6.698   2.334 -0.4031 -0.0398 -0.3195
  777MOL0     C 7113  12.919   6.710   2.281  0.0275  0.3252  0.5965
  777MOL0     C 7114  12.961   6.611   2.189  0.2126 -0.0563 -0.5572
  777MOL0     C 7115  13.084   6.622   2.122 -0.2934  0.2874  0.3892
  777MOL0     C 7116  13.115   6.520   2.010  0.5158  0.1858 -0.3014
  777MOL0     C 7117  13.172   6.729   2.162  0.0472  0.5665  0.3274
  777MOL0     C 7118  13.301   6.756   2.087  0.3647  0.1847 -0.5479
  777MOL0     O 7119  13.357   6.883   2.117  0.3261 -0.4582 -0.4961
  777MOL0     C 7120  13.493   6.885   2.118  0.6884 -0.3628 -0.5315
  777MOL0     C 7121  13.564   6.918   2.010  0.1994 -0.2679  0.6592
  777MOL0     C 7122  13.703   6.933   2.007  0.1463  0.3577  0.2441
  777MOL0     C 7123  13.776   6.929   2.136 -0.4032  0.4134  0.4345
  777MOL0     O 7124  13.904   6.944   2.180  0.2351 -0.0593  0.0195
  777MOL0     C 7125  14.003   6.970   2.080 -0.2146  0.1110  0.0714
  777MOL0     C 7126  14.025   7.122   2.063  0.8345 -0.8537 -0.4271
  777MOL0     C 7127  14.159   7.140   1.993  0.5231 -0.5070 -0.1558
  777MOL0     C 7128  14.261   7.195   2.099  0.7257 -0.2861  0.7552
  777MOL0     C 7129  14.378   7.254   2.021 -0.1779  0.1577  0.0303
  777MOL0     C 7130  14.488   7.297   2.109 -0.8414  0.2096  0.9561
  777MOL0     C 7131  14.614   7.339   2.036 -0.1027  0.0692  0.9773
  777MOL0     C 7132  14.593   7.428   1.910 -0.2106 -0.4043  0.4208
  777MOL0    Cl 7133  14.739   7.483   1.810 -0.6362  0.1157 -0.1751
  777MOL0     C 7134  13.695   6.904   2.246  1.0763 -0.3977  0.7809
  777MOL0     C 7135  13.557   6.888   2.238 -0.7767 -0.3732 -0.1377
  777MOL0     O 7136  13.350   6.678   2.006 -0.3170 -0.7399 -0.6820
  777MOL0     C 7137  13.133   6.829   2.251  0.4377 -0.9342  0.3411
  777MOL0     C 7138  13.008   6.818   2.308  0.1050  0.4119 -0.8379
  777MOL0     N 7139  12.193   6.894   2.080 -0.0258 -0.4896  0.3758
  777MOL0     N 7140  12.078   6.958   2.069 -0.1380 -0.2452  0.2866
  777MOL0     C 7141  11.382   6.707   1.270 -0.0640  0.3351  0.0680
  777MOL0     C 7142  11.252   6.694   1.224 -0.1313  0.4613  0.3672
  777MOL0     C 7143  10.843   6.634   1.107 -0.0617  0.9569  0.4976
  777MOL0     C 7144  10.845   6.502   1.041  0.7931  0.1822 -0.6749
  777MOL0     C 7145  10.735   6.468   0.957 -0.9179  0.2712 -0.0344
  777MOL0     C 7146  10.631   6.551   0.940  0.0899 -0.1461 -0.1977
  777MOL0     O 7147  10.530   6.520   0.852  0.8734 -0.2817 -0.7979
  777MOL0     C 7148  10.456   6.399   0.886  0.5416  0.1665 -0.5326
  777MOL0     C 7149  10.311   6.437   0.932  0.2769  0.9888  0.3536
  777MOL0     C 7150  10.233   6.514   0.817 -0.0387  0.0503 -0.0201
  777MOL0     C 7151  10.204   6.433   0.693  0.2467  0.4932  0.2262
  777MOL0     C 7152  10.150   6.298   0.714  0.4090 -0.1591  0.9055
  777MOL0     C 7153  10.110   6.186   0.728  0.5577  0.2585  0.6287
  777MOL0     C 7154  10.631   6.678   1.001 -0.1872 -0.2475 -0.3882
  777MOL0     C 7155  10.739   6.718   1.077 -1.0542 -0.7334  0.7729
  777MOL0     C 7156  10.720   6.853   1.144  0.1306  0.3646  0.0585
  777MOL0     H 7157  11.190   6.400   1.379 -0.6748  0.5626  0.5451
  777MOL0     H 7158  11.410   6.424   1.455 -0.5009 -0.0214 -1.0019
  777MOL0     H 7159  11.633   6.466   1.521  2.5310  0.4443  1.1135
  777MOL0     H 7160  11.523   6.571   1.607  0.3971 -1.9633  1.0322
  777MOL0     H 7161  11.816   6.576   1.566 -1.0425  0.0554 -0.6660
  777MOL0     H 7162  11.748   6.740   1.554  1.0289  0.6925  1.2511
  777MOL0     H 7163  11.712   6.529   1.777  2.4602  0.4194 -1.0658
  777MOL0     H 7164  11.827   6.651   1.790 -0.1657 -2.2627  0.3319
  777MOL0     H 7165  11.668   6.835   1.770  1.4515  0.8623  1.9634
  777MOL0     H 7166  11.539   6.701   1.777  0.9331  0.3772 -0.5302
  777MOL0     H 7167  11.651   6.641   1.998 -1.8369  1.0990  2.4125
  777MOL0     H 7168  11.562   6.787   1.987  0.1570 -0.1606  0.0612
  777MOL0     H 7169  11.870   6.788   1.968 -0.4614 -0.6328  0.0291
  777MOL0     H 7170  11.753   6.921   1.948  0.7037  0.5211  1.6988
  777MOL0     H 7171  11.758   6.762   2.214 -2.2922  0.6421 -0.4911
  777MOL0     H 7172  11.661   6.895   2.172 -1.2572 -1.9506  2.5480
  777MOL0     H 7173  11.829   7.052   2.142 -1.8019 -0.3748 -2.2404
  777MOL0     H 7174  11.836   6.978   2.301 -2.1971  2.9349 -1.1336
  777MOL0     H 7175  12.050   6.780   2.347  1.2771 -2.7990 -1.4234
  777MOL0     H 7176  12.293   6.638   2.210 -3.8999 -0.2559  1.9147
  777MOL0     H 7177  12.292   6.720   2.362 -0.1642  1.9043 -0.3197
  777MOL0     H 7178  12.460   6.767   2.115 -2.1152 -0.6840 -0.0329
  777MOL0     H 7179  12.454   6.892   2.227 -0.4245 -0.1338 -2.3208
  777MOL0     H 7180  12.546   6.726   2.414 -2.7860  0.4011 -1.2386
  777MOL0     H 7181  12.545   6.607   2.285 -1.0403 -0.7472  0.6268
  777MOL0     H 7182  12.700   6.735   2.151 -1.7609  0.9025 -0.1883
  777MOL0     H 7183  12.700   6.871   2.259  4.0834 -0.1134  0.3678
  777MOL0     H 7184  12.904   6.527   2.150  0.2409  0.9132 -2.8760
  777MOL0     H 7185  13.093   6.569   1.915 -0.9213 -1.1728 -0.7050
  777MOL0     H 7186  13.040   6.441   2.002  2.6555 -1.9980  0.1558
  777MOL0     H 7187  13.216   6.477   2.012  1.0819  1.4830  0.6514
  777MOL0     H 7188  13.523   6.922   1.910  1.4963  0.9382  0.1408
  777MOL0     H 7189  13.759   6.950   1.916 -4.2395  2.3976 -2.4008
  777MOL0     H 7190  14.091   6.917   2.119  0.6370 -0.0349 -1.9106
  777MOL0     H 7191  13.987   6.906   1.993  0.5672 -1.4476  1.0242
  777MOL0     H 7192  13.942   7.157   2.001  1.3022  0.1084 -0.5214
  777MOL0     H 7193  14.024   7.185   2.152  1.5540  0.9366 -1.6323
  777MOL0     H 7194  14.142   7.214   1.913 -0.5549  1.3310  1.6655
  777MOL0     H 7195  14.201   7.050   1.948  1.9383  1.0782 -2.1602
  777MOL0     H 7196  14.287   7.109   2.161 -0.2784 -1.3965 -0.3037
  777MOL0     H 7197  14.218   7.262   2.174  0.9215  0.4172  0.2506
  777MOL0     H 7198  14.412   7.175   1.954  0.5682  0.9383 -0.5386
  777MOL0     H 7199  14.346   7.343   1.965  0.1392  3.5442  4.6609
  777MOL0     H 7200  14.511   7.214   2.177  0.7762 -1.0924 -1.0727
  777MOL0     H 7201  14.442   7.376   2.169  0.3469  1.4417  0.3109
  777MOL0     H 7202  14.670   7.253   2.001 -0.5798  0.1058  0.0697
  777MOL0     H 7203  14.690   7.381   2.102  1.9694  1.3732 -2.0095
  777MOL0     H 7204  14.542   7.515   1.952 -1.3865 -0.3151 -1.1072
  777MOL0     H 7205  14.531   7.374   1.837  3.4620 -1.5040 -2.1971
  777MOL0     H 7206  13.731   6.902   2.349  0.1717 -2.5470  1.1037
  777MOL0     H 7207  13.498   6.863   2.325  0.5023 -0.5461  0.7036
  777MOL0     H 7208  13.188   6.921   2.269  0.9791 -1.1153 -0.3588
  777MOL0     H 7209  12.989   6.899   2.377 -2.5521 -1.6110  1.0345
  777MOL0     H 7210  11.440   6.794   1.241 -0.6471  0.7349  0.0759
  777MOL0     H 7211  11.216   6.775   1.161  1.0643  0.1285 -0.7829
  777MOL0     H 7212  10.921   6.426   1.058  0.3023  0.5427  5.0691
  777MOL0     H 7213  10.734   6.370   0.910  0.4633  0.4674 -0.5323
  777MOL0     H 7214  10.458   6.329   0.801  1.9960  0.5049 -0.8058
  777MOL0     H 7215  10.505   6.358   0.975  0.3146  0.5869 -0.2112
  777MOL0     H 7216  10.319   6.499   1.022  4.1484  0.4574  0.5738
  777MOL0     H 7217  10.256   6.346   0.957 -0.3662  1.3639  0.2996
  777MOL0     H 7218  10.138   6.548   0.860  0.5310 -1.0225  2.2206
  777MOL0     H 7219  10.293   6.598   0.784 -1.2003  0.6211 -0.7416
  777MOL0     H 7220  10.296   6.433   0.634  0.2862  1.7108  0.2479
  777MOL0     H 7221  10.131   6.496   0.641 -2.0555 -1.0189  1.4496
  777MOL0     H 7222  10.077   6.085   0.732 -0.6572  0.4850 -1.8861
  777MOL0     H 7223  10.552   6.752   0.998  1.5361  1.6330 -2.0372
  777MOL0     H 7224  10.721   6.822   1.249  0.0596 -1.7847 -0.5168
  777MOL0     H 7225  10.813   6.910   1.133  0.3668  0.6155  2.6397
  777MOL0     H 7226  10.637   6.918   1.116  0.0859  0.7456  1.0534
  778MOL0     O 7227   4.762   6.028   8.487 -0.2597 -0.3527  0.5765
  778MOL0     C 7228   4.821   6.120   8.435  0.1849 -0.7801  0.1369
  778MOL0     O 7229   4.955   6.137   8.431 -0.1247  0.3656  0.3990
  778MOL0     C 7230   5.040   6.051   8.496  0.0584  0.6848  0.3179
  778MOL0     C 7231   5.017   5.994   8.624 -0.4258  0.2721  0.2940
  778MOL0     C 7232   5.109   5.908   8.682  0.2465  0.4117  0.0086
  778MOL0     C 7233   5.240   5.893   8.616 -0.3835  0.1341  0.6906
  778MOL0     O 7234   5.346   5.809   8.652  0.4690  0.6459  0.5567
  778MOL0     C 7235   5.312   5.705   8.742 -1.1381  1.4282  0.5614
  778MOL0     C 7236   5.439   5.614   8.758  0.8069  0.0117 -0.0630
  778MOL0     C 7237   5.508   5.566   8.629  0.8632 -0.1935  0.4852
  778MOL0     C 7238   5.607   5.667   8.570  0.0724 -0.4606  0.8062
  778MOL0     C 7239   5.749   5.638   8.626 -0.0690 -0.2869  0.0481
  778MOL0     C 7240   5.850   5.727   8.558 -0.8772 -0.4205 -1.0086
  778MOL0     C 7241   5.993   5.722   8.624 -0.1149 -0.6804  0.2743
  778MOL0     C 7242   6.078   5.819   8.536 -0.6571 -1.3450 -0.9451
  778MOL0     N 7243   6.220   5.836   8.583 -0.4680 -0.4142 -0.1189
  778MOL0     C 7244   6.319   5.739   8.584  0.3445  0.5712 -0.2534
  778MOL0     C 7245   6.437   5.800   8.630  0.3381 -0.4287 -0.1209
  778MOL0     C 7246   6.576   5.749   8.627  0.9699  0.4519 -0.8742
  778MOL0     C 7247   6.617   5.699   8.484  0.1670 -0.3887 -0.3459
  778MOL0     C 7248   6.652   5.819   8.391 -0.5074 -0.2862 -0.2780
  778MOL0     C 7249   6.746   5.930   8.456  0.1129 -0.7406  0.1599
  778MOL0     O 7250   6.842   5.857   8.535  0.0371  0.0891 -0.1887
  778MOL0     C 7251   6.946   5.925   8.583 -0.3830  0.5321 -0.6371
  778MOL0     C 7252   7.004   6.041   8.531  0.3000 -0.0571 -0.4646
  778MOL0     C 7253   7.125   6.101   8.573  0.2069  0.1012 -0.1209
  778MOL0     C 7254   7.186   6.220   8.491  0.1325 -1.2567  0.1641
  778MOL0     C 7255   7.195   6.036   8.680  0.1151 -0.0007  0.1715
  778MOL0     C 7256   7.329   6.079   8.724  0.4677  0.3159 -0.1454
  778MOL0     O 7257   7.408   5.983   8.783  0.2212  0.3821 -0.3467
  778MOL0     C 7258   7.546   5.988   8.795 -0.5090 -0.2201  0.8923
  778MOL0     C 7259   7.627   6.056   8.699  0.5014  0.6822 -0.4075
  778MOL0     C 7260   7.764   6.055   8.712  0.3186  0.2527 -0.7606
  778MOL0     C 7261   7.833   5.990   8.816 -0.3090  0.5739  0.4222
  778MOL0     O 7262   7.969   5.997   8.841  0.2234 -0.0822 -0.1817
  778MOL0     C 7263   8.039   6.098   8.771 -0.2231  0.5025  0.0173
  778MOL0     C 7264   8.180   6.100   8.830  0.1154  0.4697 -0.4453
  778MOL0     C 7265   8.262   6.204   8.760  0.5921 -0.8794 -0.2239
  778MOL0     C 7266   8.400   6.202   8.827  0.1522  0.4024  0.2556
  778MOL0     C 7267   8.509   6.274   8.748 -0.2330 -0.1562 -0.2377
  778MOL0     C 7268   8.628   6.294   8.852  1.0051  0.0649 -0.5112
  778MOL0     C 7269   8.757   6.347   8.797 -0.9697 -0.2717  0.1783
  778MOL0     C 7270   8.848   6.381   8.919 -0.1724  0.0483  0.1372
  778MOL0    Cl 7271   8.986   6.488   8.870 -0.2163  0.2445 -0.2868
  778MOL0     C 7272   7.749   5.914   8.902  0.3563  0.5736  1.0567
  778MOL0     C 7273   7.609   5.906   8.883 -0.1494  0.1244 -0.2922
  778MOL0     O 7274   7.365   6.198   8.721  0.3973 -0.9749  0.1963
  778MOL0     C 7275   7.139   5.916   8.733 -0.0872 -0.3748  0.8321
  778MOL0     C 7276   7.019   5.864   8.681 -0.4490  0.6296  0.4698
  778MOL0     N 7277   6.405   5.926   8.673  0.7005  0.4802 -0.4942
  778MOL0     N 7278   6.274   5.935   8.649 -1.3101 -0.3671  0.2083
  778MOL0     C 7279   5.267   5.966   8.497  0.3847 -0.2175  0.2996
  778MOL0     C 7280   5.166   6.040   8.441  0.9182  0.1875 -0.0061
  778MOL0     C 7281   4.736   6.234   8.380 -0.1548 -0.3404 -0.1489
  778MOL0     C 7282   4.795   6.324   8.290  0.2249 -0.6140  0.1805
  778MOL0     C 7283   4.715   6.421   8.225  0.2014 -0.7198 -0.9197
  778MOL0     C 7284   4.589   6.455   8.264  0.1334  0.0776 -0.5001
  778MOL0     O 7285   4.537   6.570   8.206 -0.1320  0.6941  0.9559
  778MOL0     C 7286   4.440   6.653   8.261  0.1119 -0.2928  0.3291
  778MOL0     C 7287   4.372   6.743   8.156 -0.8482 -0.5758 -0.8987
  778MOL0     C 7288   4.273   6.672   8.065 -0.4141  0.5571 -0.5696
  778MOL0     C 7289   4.127   6.676   8.129 -0.8069  0.1189  0.2014
  778MOL0     C 7290   4.042   6.576   8.059  0.7487 -0.2551  0.4476
  778MOL0     C 7291   3.962   6.498   8.015  0.3262 -0.6112 -0.3755
  778MOL0     C 7292   4.528   6.367   8.342 -0.2311  0.3292  0.7492
  778MOL0     C 7293   4.599   6.253   8.397  0.4738 -0.4006  0.0633
  778MOL0     C 7294   4.517   6.167   8.489 -0.6729  0.0475  0.1458
  778MOL0     H 7295   4.926   6.017   8.679 -0.9898 -0.4584 -0.3074
  778MOL0     H 7296   5.081   5.840   8.762 -2.9681  1.4223 -0.0978
  778MOL0     H 7297   5.231   5.646   8.698  0.3639  1.2050 -2.0874
  778MOL0     H 7298   5.284   5.739   8.842 -4.1813  0.2204  0.2261
  778MOL0     H 7299   5.518   5.670   8.809 -2.2900  3.7665  1.0767
  778MOL0     H 7300   5.406   5.525   8.812  0.4177 -1.2818 -2.3000
  778MOL0     H 7301   5.555   5.472   8.659  1.2726  0.7973  3.2484
  778MOL0     H 7302   5.425   5.540   8.562 -0.4573  0.8448  1.6693
  778MOL0     H 7303   5.617   5.654   8.462  1.3982  1.8428  0.5969
  778MOL0     H 7304   5.591   5.773   8.590  1.6005 -0.1047  0.3214
  778MOL0     H 7305   5.779   5.534   8.610 -2.4494 -0.6195 -3.4603
  778MOL0     H 7306   5.748   5.652   8.734  1.8738  0.0529  0.0590
  778MOL0     H 7307   5.846   5.701   8.452  0.3852 -0.4368 -1.0742
  778MOL0     H 7308   5.810   5.829   8.569 -1.8223 -0.8012 -0.8725
  778MOL0     H 7309   6.021   5.617   8.612  0.7232 -0.1541 -3.9431
  778MOL0     H 7310   5.985   5.760   8.726  1.0972  1.4034 -0.3305
  778MOL0     H 7311   6.070   5.774   8.437 -2.2640 -2.2508 -0.4446
  778MOL0     H 7312   6.022   5.913   8.538 -0.7515 -1.4203  0.3347
  778MOL0     H 7313   6.301   5.636   8.556  0.9551 -0.4266  2.6320
  778MOL0     H 7314   6.567   5.658   8.687  1.2207  0.4902 -0.7762
  778MOL0     H 7315   6.645   5.820   8.673  3.1040 -1.6926 -0.5612
  778MOL0     H 7316   6.705   5.637   8.501  0.7633  0.9138  1.6745
  778MOL0     H 7317   6.538   5.637   8.441 -2.1373  2.3607 -0.3847
  778MOL0     H 7318   6.700   5.774   8.304 -0.8040  0.2783 -0.7364
  778MOL0     H 7319   6.558   5.861   8.355 -1.3070 -1.9519 -0.2051
  778MOL0     H 7320   6.787   5.997   8.380  0.9581  1.8238  2.6640
  778MOL0     H 7321   6.692   5.996   8.525  0.9654  0.9756 -0.7615
  778MOL0     H 7322   6.953   6.096   8.452 -0.2223  0.6216  0.3188
  778MOL0     H 7323   7.103   6.256   8.430  0.2752 -2.5809 -0.8528
  778MOL0     H 7324   7.265   6.181   8.427  0.3128  1.2956 -1.2784
  778MOL0     H 7325   7.226   6.303   8.550 -0.6412 -0.3786 -0.5265
  778MOL0     H 7326   7.583   6.114   8.619 -0.4139  0.5997  0.0179
  778MOL0     H 7327   7.819   6.111   8.637  1.0871  2.4642  1.2966
  778MOL0     H 7328   8.037   6.089   8.662 -0.1800  1.9924 -0.1390
  778MOL0     H 7329   7.997   6.198   8.785  0.4144  0.7789 -0.0053
  778MOL0     H 7330   8.177   6.127   8.936 -0.8210 -1.2427 -0.0091
  778MOL0     H 7331   8.237   6.007   8.826 -1.0048 -0.4039  2.1318
  778MOL0     H 7332   8.219   6.304   8.777  0.8530 -0.4416 -1.9052
  778MOL0     H 7333   8.260   6.193   8.651 -0.5090 -2.8284 -0.0392
  778MOL0     H 7334   8.434   6.100   8.843  0.2520  0.6496  1.7455
  778MOL0     H 7335   8.395   6.244   8.928 -0.3467 -1.3878  1.0098
  778MOL0     H 7336   8.527   6.215   8.658  2.8266  1.2005 -0.6054
  778MOL0     H 7337   8.478   6.373   8.713 -0.0275 -0.2635 -0.7207
  778MOL0     H 7338   8.644   6.198   8.903 -0.5525  0.9086  1.7054
  778MOL0     H 7339   8.598   6.368   8.927  0.0648  1.9308 -2.6187
  778MOL0     H 7340   8.748   6.442   8.743  2.8784 -1.2184 -2.5296
  778MOL0     H 7341   8.803   6.287   8.718  1.9668  1.1671  0.6669
  778MOL0     H 7342   8.876   6.287   8.967 -3.2598 -2.0383 -1.8053
  778MOL0     H 7343   8.799   6.440   8.997  1.5533 -1.8372  2.8521
  778MOL0     H 7344   7.810   5.862   8.975  0.0941 -2.1171 -0.5068
  778MOL0     H 7345   7.553   5.840   8.949  2.4319 -1.1281  0.7648
  778MOL0     H 7346   7.198   5.862   8.806 -0.5922 -3.3195 -0.7730
  778MOL0     H 7347   7.002   5.761   8.710 -0.5861  0.1680 -1.1942
  778MOL0     H 7348   5.363   5.954   8.448  1.0425  1.1699  1.1882
  778MOL0     H 7349   5.194   6.089   8.348 -1.2299  3.2778  0.8291
  778MOL0     H 7350   4.899   6.318   8.260  0.4150  0.5345  0.5460
  778MOL0     H 7351   4.756   6.493   8.154  0.7512 -0.3884 -0.2805
  778MOL0     H 7352   4.372   6.589   8.319  0.1728  0.1423  0.8943
  778MOL0     H 7353   4.497   6.721   8.324  1.7492 -0.8309 -0.5209
  778MOL0     H 7354   4.458   6.767   8.092 -0.1369  1.8397  0.8138
  778MOL0     H 7355   4.325   6.834   8.193 -0.9165 -1.7931  2.2899
  778MOL0     H 7356   4.266   6.725   7.969 -0.2699  0.5982 -0.5594
  778MOL0     H 7357   4.310   6.571   8.050  0.1628  0.0832  3.0726
  778MOL0     H 7358   4.087   6.777   8.112  2.4142  1.6146  0.7513
  778MOL0     H 7359   4.139   6.660   8.237 -1.5399  0.3306  0.3206
  778MOL0     H 7360   3.879   6.435   7.991  0.1310  0.7033 -3.6630
  778MOL0     H 7361   4.422   6.376   8.362 -0.6267 -4.1828  1.6132
  778MOL0     H 7362   4.410   6.191   8.496 -1.4539 -2.5349 -1.6339
  778MOL0     H 7363   4.525   6.061   8.462 -1.2336 -0.1535  0.7188
  778MOL0     H 7364   4.556   6.173   8.591 -0.5282 -2.4000  0.2906
  779MOL0     O 7365   3.253  10.598   3.783  0.0274  0.4057  0.4187
  779MOL0     C 7366   3.140  10.604   3.829  0.1815 -0.3559  0.1880
  779MOL0     O 7367   3.115  10.589   3.964  0.6201 -0.3438 -0.2414
  779MOL0     C 7368   3.207  10.533   4.045  0.5367  0.1507  0.0894
  779MOL0     C 7369   3.226  10.597   4.170  0.2715  0.1395 -0.4847
  779MOL0     C 7370   3.313  10.551   4.258  0.6767  0.5162 -0.1044
  779MOL0     C 7371   3.392  10.438   4.228  0.6076 -0.3058  0.4819
  779MOL0     O 7372   3.473  10.411   4.333  0.2013 -0.1161 -0.0872
  779MOL0     C 7373   3.606  10.376   4.304  0.0916 -0.1851  0.5164
  779MOL0     C 7374   3.695  10.359   4.426  0.2482  0.7649 -0.0653
  779MOL0     C 7375   3.847  10.322   4.402  0.3415  0.2656 -0.6516
  779MOL0     C 7376   3.910  10.260   4.528  0.1493 -0.4670  0.5467
  779MOL0     C 7377   4.067  10.256   4.500  1.3851 -0.6412 -0.7938
  779MOL0     C 7378   4.141  10.210   4.623 -0.0792 -0.7091  0.4804
  779MOL0     C 7379   4.290  10.209   4.598  0.3322  0.0453  0.6571
  779MOL0     C 7380   4.353  10.104   4.685 -0.6574  0.2192 -0.2181
  779MOL0     N 7381   4.478  10.072   4.630  0.0543 -0.5854 -0.4505
  779MOL0     C 7382   4.579  10.167   4.630 -0.3857  0.8100  0.8749
  779MOL0     C 7383   4.673  10.105   4.548 -0.4703  1.3147  1.2868
  779MOL0     C 7384   4.811  10.152   4.507  0.0733 -0.5811  0.3125
  779MOL0     C 7385   4.927  10.056   4.534  0.5214 -0.0811  0.2506
  779MOL0     C 7386   5.051  10.113   4.601 -0.0278 -0.5464  0.0752
  779MOL0     C 7387   5.120  10.235   4.527  0.7794  0.0821  0.1527
  779MOL0     O 7388   5.223  10.193   4.426  0.6472 -0.4137  0.2134
  779MOL0     C 7389   5.306  10.278   4.355 -0.5615  0.3479 -1.1071
  779MOL0     C 7390   5.428  10.225   4.314  0.4702 -0.4067  0.4328
  779MOL0     C 7391   5.522  10.310   4.244  0.6614  0.4022 -0.1568
  779MOL0     C 7392   5.643  10.235   4.176 -0.6023  0.1194  0.5821
  779MOL0     C 7393   5.489  10.446   4.219  0.2208 -0.2470 -0.5133
  779MOL0     C 7394   5.582  10.539   4.155  0.3247  0.2683 -0.4145
  779MOL0     O 7395   5.703  10.541   4.216  0.8542  0.4545  0.0327
  779MOL0     C 7396   5.818  10.582   4.160  0.3493  0.2140  0.2792
  779MOL0     C 7397   5.938  10.567   4.232 -0.4357 -0.9246 -0.7063
  779MOL0     C 7398   6.065  10.575   4.174  0.0355  0.0161  0.2007
  779MOL0     C 7399   6.081  10.608   4.038 -0.6524 -1.1625 -0.7285
  779MOL0     O 7400   6.202  10.643   3.977  0.5830 -0.0609 -0.2858
  779MOL0     C 7401   6.301  10.545   3.953  0.7938  0.2819 -0.3473
  779MOL0     C 7402   6.405  10.606   3.857  0.0372 -0.0350 -0.1528
  779MOL0     C 7403   6.481  10.726   3.909 -0.7645 -0.3453 -0.1702
  779MOL0     C 7404   6.568  10.775   3.793  0.3466 -0.4945  0.5649
  779MOL0     C 7405   6.645  10.895   3.851 -1.0242 -0.1299  0.4909
  779MOL0     C 7406   6.740  10.959   3.755 -0.4742 -0.1880  0.1774
  779MOL0     C 7407   6.661  11.018   3.645  0.2287 -0.6579  0.1770
  779MOL0     C 7408   6.743  11.126   3.573  0.4290  0.2066 -0.2047
  779MOL0    Cl 7409   6.730  11.295   3.647  0.3335  0.3169 -0.2903
  779MOL0     C 7410   5.967  10.632   3.964  0.5172  0.8892 -0.8135
  779MOL0     C 7411   5.838  10.611   4.018 -0.1987  0.7390 -0.7483
  779MOL0     O 7412   5.548  10.622   4.067  0.1143  0.2236 -0.3023
  779MOL0     C 7413   5.361  10.489   4.248 -0.4334 -0.3844 -0.5778
  779MOL0     C 7414   5.272  10.406   4.321  0.4763 -0.4902 -0.3626
  779MOL0     N 7415   4.630   9.977   4.515  0.4505 -0.5513 -0.2183
  779MOL0     N 7416   4.517   9.958   4.568 -0.0788 -0.2362  0.9345
  779MOL0     C 7417   3.377  10.374   4.104  0.1744  0.7065 -0.0325
  779MOL0     C 7418   3.284  10.417   4.013  0.2996 -0.2267 -0.5667
  779MOL0     C 7419   3.023  10.602   3.731 -0.8829 -1.6464 -0.1483
  779MOL0     C 7420   2.899  10.551   3.772  0.5155 -0.6936 -0.4042
  779MOL0     C 7421   2.785  10.558   3.696 -0.4585  0.1995  0.3418
  779MOL0     C 7422   2.792  10.597   3.562  0.5032  0.9294  0.1895
  779MOL0     O 7423   2.684  10.584   3.483  0.7278 -0.0319 -0.0050
  779MOL0     C 7424   2.676  10.630   3.348  0.4083 -0.4709 -0.6141
  779MOL0     C 7425   2.562  10.570   3.268 -0.2309 -0.0229 -0.3039
  779MOL0     C 7426   2.428  10.577   3.352 -0.2645  0.3024  0.0603
  779MOL0     C 7427   2.315  10.503   3.273  0.2847 -0.2266 -1.3545
  779MOL0     C 7428   2.299  10.541   3.133  0.6422 -0.6465 -0.9807
  779MOL0     C 7429   2.292  10.566   3.014  0.5236 -0.3363  0.2198
  779MOL0     C 7430   2.909  10.641   3.519 -0.0915  1.0130  1.0140
  779MOL0     C 7431   3.023  10.657   3.602 -0.1523  0.2848 -0.2410
  779MOL0     C 7432   3.155  10.687   3.534 -0.5449 -0.3252  0.5586
  779MOL0     H 7433   3.163  10.682   4.194 -0.0786 -0.5260  1.0003
  779MOL0     H 7434   3.319  10.598   4.356  3.0874 -2.3145  1.2986
  779MOL0     H 7435   3.660  10.453   4.248  1.0800 -2.1558 -1.3949
  779MOL0     H 7436   3.621  10.286   4.244  0.2957  0.0373  0.2326
  779MOL0     H 7437   3.702  10.461   4.466 -0.2718  1.9082 -2.6608
  779MOL0     H 7438   3.653  10.283   4.493  3.0210 -0.6215  0.2320
  779MOL0     H 7439   3.864  10.261   4.314 -1.1136 -1.5708  0.2665
  779MOL0     H 7440   3.905  10.409   4.372  0.4420  0.0515 -1.0793
  779MOL0     H 7441   3.896  10.328   4.613  1.9513  0.3239  0.2675
  779MOL0     H 7442   3.863  10.165   4.555 -2.1452 -0.4520 -2.8476
  779MOL0     H 7443   4.088  10.363   4.498 -3.3098  0.5475  0.6507
  779MOL0     H 7444   4.098  10.217   4.402 -0.3801 -0.3074 -1.5345
  779MOL0     H 7445   4.123  10.276   4.709 -0.8428 -1.9829  1.3264
  779MOL0     H 7446   4.101  10.111   4.644 -2.2457 -1.4009 -5.1647
  779MOL0     H 7447   4.325  10.312   4.604 -2.1256  0.8944  2.1256
  779MOL0     H 7448   4.307  10.192   4.491  1.1704  1.8897  0.4568
  779MOL0     H 7449   4.357  10.156   4.781 -0.3737 -0.0166 -0.1010
  779MOL0     H 7450   4.298  10.010   4.703  1.2657 -0.7115  1.1180
  779MOL0     H 7451   4.589  10.270   4.661  1.2493  1.0576 -0.3615
  779MOL0     H 7452   4.816  10.244   4.566 -1.7751 -1.0184  1.2354
  779MOL0     H 7453   4.805  10.178   4.401 -0.7959  1.9992  0.9278
  779MOL0     H 7454   4.894   9.969   4.592 -0.9389  0.1610 -0.1623
  779MOL0     H 7455   4.971  10.016   4.442  2.4687  0.6331  0.8382
  779MOL0     H 7456   5.029  10.142   4.704 -2.7490 -1.4313 -0.1766
  779MOL0     H 7457   5.130  10.037   4.609  1.1526  0.7126  0.8115
  779MOL0     H 7458   5.048  10.295   4.470  0.7350 -0.5695 -0.4991
  779MOL0     H 7459   5.176  10.303   4.592 -1.0268  0.8193  1.0017
  779MOL0     H 7460   5.433  10.119   4.339  2.6137 -0.8064 -1.3369
  779MOL0     H 7461   5.736  10.291   4.187 -0.4820 -0.1374  0.8656
  779MOL0     H 7462   5.621  10.234   4.069 -1.0245  2.0020  0.6040
  779MOL0     H 7463   5.647  10.131   4.209 -1.2873  0.0473  0.4595
  779MOL0     H 7464   5.937  10.561   4.341 -0.5486 -2.6036 -0.7598
  779MOL0     H 7465   6.153  10.566   4.236  2.0879  0.1939 -2.5258
  779MOL0     H 7466   6.337  10.515   4.053  1.7713  1.4036 -0.3363
  779MOL0     H 7467   6.256  10.454   3.914 -1.1836  0.8907  0.3820
  779MOL0     H 7468   6.470  10.520   3.837 -2.7069 -1.8660 -1.9604
  779MOL0     H 7469   6.344  10.629   3.770  0.2452  3.2141  0.4185
  779MOL0     H 7470   6.542  10.690   3.993 -0.1735 -0.0867 -0.4828
  779MOL0     H 7471   6.416  10.805   3.949 -0.4235 -0.8504  1.4639
  779MOL0     H 7472   6.511  10.808   3.706 -1.2711  0.6981  2.0103
  779MOL0     H 7473   6.635  10.696   3.757 -0.3983 -0.3954 -1.1017
  779MOL0     H 7474   6.578  10.972   3.892  1.3347  0.8703  2.7602
  779MOL0     H 7475   6.698  10.856   3.938 -1.7730 -0.7989  0.6597
  779MOL0     H 7476   6.807  10.886   3.707  0.9210  0.2863  1.3470
  779MOL0     H 7477   6.800  11.038   3.800  2.4748 -1.1344 -1.7876
  779MOL0     H 7478   6.567  11.062   3.681  0.5867 -0.7027  1.2010
  779MOL0     H 7479   6.632  10.946   3.568 -1.2970  2.3331 -2.2678
  779MOL0     H 7480   6.704  11.139   3.471 -1.0916 -0.2293  0.2944
  779MOL0     H 7481   6.848  11.094   3.574  0.5850  0.7001 -0.4188
  779MOL0     H 7482   5.980  10.652   3.858 -2.2278 -1.8991 -1.8285
  779MOL0     H 7483   5.752  10.618   3.952 -3.0565 -0.5417  2.5082
  779MOL0     H 7484   5.354  10.593   4.217  0.2760  1.4636  4.5299
  779MOL0     H 7485   5.174  10.450   4.340  1.2379  1.3666 -0.4966
  779MOL0     H 7486   3.436  10.285   4.084  1.5802  1.0801  2.2041
  779MOL0     H 7487   3.281  10.376   3.912 -1.5109  0.4701 -0.8300
  779MOL0     H 7488   2.884  10.522   3.876 -1.8415 -3.4468 -1.3954
  779MOL0     H 7489   2.690  10.528   3.740 -1.3303  0.8249 -1.0337
  779MOL0     H 7490   2.666  10.738   3.367 -1.8988 -0.1683 -2.9439
  779MOL0     H 7491   2.764  10.623   3.284  1.4703  0.6358  0.6635
  779MOL0     H 7492   2.598  10.469   3.251  1.1804  0.6962 -1.8718
  779MOL0     H 7493   2.561  10.621   3.171  0.4671 -0.9045 -0.7814
  779MOL0     H 7494   2.443  10.536   3.452 -0.1014  1.6188  0.5932
  779MOL0     H 7495   2.400  10.682   3.366 -2.7215 -0.1664 -0.7912
  779MOL0     H 7496   2.223  10.544   3.315 -0.3100 -1.6797 -1.1904
  779MOL0     H 7497   2.315  10.394   3.284  0.8239 -0.1487 -0.5331
  779MOL0     H 7498   2.276  10.581   2.909 -0.3115 -1.7318  0.1329
  779MOL0     H 7499   2.927  10.664   3.415 -0.4022  1.4584  1.0600
  779MOL0     H 7500   3.216  10.758   3.592 -2.3360  1.0060  0.9256
  779MOL0     H 7501   3.208  10.594   3.512 -0.3656  0.3496 -2.2457
  779MOL0     H 7502   3.141  10.731   3.435 -0.8818  1.5190  1.3783
  780MOL0     O 7503   5.390   3.991  10.461  0.3684  0.1402  0.3098
  780MOL0     C 7504   5.509   3.965  10.494 -0.7156  0.0403  0.2243
  780MOL0     O 7505   5.618   3.991  10.412  0.4749  0.1239  0.0366
  780MOL0     C 7506   5.601   4.047  10.291 -0.2175 -0.2015 -0.2939
  780MOL0     C 7507   5.544   4.172  10.283  0.1782 -0.8690 -0.4487
  780MOL0     C 7508   5.536   4.237  10.166 -0.6653  0.5905 -0.1611
  780MOL0     C 7509   5.570   4.173  10.043  0.2374 -0.3721  0.7243
  780MOL0     O 7510   5.557   4.220   9.915 -0.1882  0.1677 -0.4353
  780MOL0     C 7511   5.506   4.355   9.903  0.1593  0.2588 -0.6806
  780MOL0     C 7512   5.499   4.396   9.764  0.3857 -0.1671  0.0719
  780MOL0     C 7513   5.421   4.528   9.748 -0.1638 -0.9159  0.4401
  780MOL0     C 7514   5.266   4.509   9.742  0.2120 -0.3359  0.4765
  780MOL0     C 7515   5.186   4.642   9.759  0.4668 -0.4671  0.3374
  780MOL0     C 7516   5.210   4.752   9.650 -0.3641 -0.3881 -0.2022
  780MOL0     C 7517   5.101   4.857   9.646 -0.2649 -0.3274  0.4216
  780MOL0     C 7518   5.111   4.964   9.765 -0.0046 -0.4454  0.8002
  780MOL0     N 7519   4.997   5.061   9.755 -0.3025  0.1609 -0.0766
  780MOL0     C 7520   4.868   5.021   9.797  0.5115  0.6852 -0.4116
  780MOL0     C 7521   4.815   5.144   9.792 -1.0795  0.2680 -0.0527
  780MOL0     C 7522   4.673   5.179   9.825  0.7984  0.3114  0.5635
  780MOL0     C 7523   4.567   5.142   9.719  0.0956  0.0261  0.3227
  780MOL0     C 7524   4.577   5.226   9.594  0.2669 -0.1815  0.3233
  780MOL0     C 7525   4.445   5.212   9.514  0.4162  0.0810 -0.5113
  780MOL0     O 7526   4.415   5.078   9.480  0.3140 -0.0357  0.9714
  780MOL0     C 7527   4.314   5.041   9.393 -0.1740  0.1737  0.8544
  780MOL0     C 7528   4.241   5.126   9.314 -0.6090  0.0259 -0.0542
  780MOL0     C 7529   4.142   5.062   9.229  1.2038 -0.1576 -0.3487
  780MOL0     C 7530   4.032   5.149   9.165 -0.1371  0.5389  0.3384
  780MOL0     C 7531   4.125   4.923   9.221 -0.5173 -0.5553 -0.0428
  780MOL0     C 7532   4.011   4.846   9.153 -0.7717  0.3240  0.2305
  780MOL0     O 7533   4.030   4.711   9.140 -0.6657  0.1145  0.5848
  780MOL0     C 7534   3.930   4.639   9.070  0.1474  0.3984 -0.3531
  780MOL0     C 7535   3.964   4.585   8.951  0.0446  0.9512  0.1342
  780MOL0     C 7536   3.862   4.513   8.876 -0.4899 -0.1480  0.3385
  780MOL0     C 7537   3.740   4.482   8.935 -0.0410 -0.4761 -0.0170
  780MOL0     O 7538   3.652   4.403   8.869  0.6331 -0.3709  0.5526
  780MOL0     C 7539   3.597   4.300   8.946 -0.0483 -0.2771  0.0752
  780MOL0     C 7540   3.532   4.207   8.845 -0.1088  0.2388 -0.7258
  780MOL0     C 7541   3.486   4.076   8.909 -0.5450 -0.2522  0.1865
  780MOL0     C 7542   3.452   3.974   8.802 -0.3110  1.1849  0.0961
  780MOL0     C 7543   3.359   3.868   8.869 -0.5191  0.4504  0.0078
  780MOL0     C 7544   3.332   3.764   8.769 -0.8460  0.1324 -0.6971
  780MOL0     C 7545   3.265   3.633   8.823  0.8947  0.6966 -0.1504
  780MOL0     C 7546   3.212   3.556   8.700  0.4983  0.3851 -0.1985
  780MOL0    Cl 7547   3.114   3.414   8.740  0.1503  0.0894 -0.1132
  780MOL0     C 7548   3.715   4.528   9.064  0.2944  0.5230  0.2536
  780MOL0     C 7549   3.803   4.610   9.129 -1.3364 -1.0441  0.1496
  780MOL0     O 7550   3.904   4.911   9.144 -0.0376 -0.0073  0.0727
  780MOL0     C 7551   4.206   4.840   9.298  0.7878 -0.4349 -1.4238
  780MOL0     C 7552   4.292   4.908   9.386  0.0550  0.2394  0.1680
  780MOL0     N 7553   4.893   5.247   9.742 -0.1946 -0.4077  0.3215
  780MOL0     N 7554   5.006   5.194   9.715  0.0657 -0.2367 -0.9275
  780MOL0     C 7555   5.618   4.042  10.053 -0.6265  0.7905 -1.2570
  780MOL0     C 7556   5.643   3.982  10.179 -0.3343  0.3079 -0.6553
  780MOL0     C 7557   5.534   3.901  10.630  0.1115  0.3501 -0.3203
  780MOL0     C 7558   5.420   3.859  10.707 -0.7003  0.7707 -0.3926
  780MOL0     C 7559   5.438   3.782  10.822  0.1647 -0.4109 -0.6636
  780MOL0     C 7560   5.567   3.754  10.880 -0.2174 -0.1330  0.1071
  780MOL0     O 7561   5.565   3.685  10.998 -0.0531  0.2494  0.2830
  780MOL0     C 7562   5.692   3.660  11.053  0.1328  0.0871  0.0128
  780MOL0     C 7563   5.749   3.790  11.119  1.0056  0.0768  0.2661
  780MOL0     C 7564   5.702   3.813  11.265 -1.0065  0.0775  0.7013
  780MOL0     C 7565   5.705   3.961  11.303 -0.4710 -0.0945  0.4858
  780MOL0     C 7566   5.709   3.982  11.449 -0.6683  0.6526  0.0506
  780MOL0     C 7567   5.721   3.983  11.571 -0.8568 -0.3978  0.4028
  780MOL0     C 7568   5.678   3.808  10.815 -0.2692  0.4993  1.7560
  780MOL0     C 7569   5.661   3.868  10.687  0.1003  0.0878  0.2869
  780MOL0     C 7570   5.783   3.887  10.603 -0.0174  0.6308 -0.3095
  780MOL0     H 7571   5.527   4.226  10.375  3.4772  0.5941 -0.5863
  780MOL0     H 7572   5.485   4.333  10.169 -1.9544 -0.0588 -0.5363
  780MOL0     H 7573   5.570   4.418   9.966  2.2355 -2.1814 -0.1794
  780MOL0     H 7574   5.405   4.370   9.941  0.7163  1.8771  0.2442
  780MOL0     H 7575   5.601   4.427   9.738 -0.1841  1.1119 -0.7243
  780MOL0     H 7576   5.468   4.323   9.689  1.0272 -1.3122  0.8858
  780MOL0     H 7577   5.456   4.603   9.819  2.1474 -0.7649 -0.7759
  780MOL0     H 7578   5.452   4.569   9.652  3.1608 -0.1665  1.6728
  780MOL0     H 7579   5.234   4.452   9.654 -2.5556  1.0880  0.4590
  780MOL0     H 7580   5.228   4.447   9.825 -0.0694  1.4321  1.7339
  780MOL0     H 7581   5.223   4.681   9.855  1.7586 -0.7854 -0.0054
  780MOL0     H 7582   5.084   4.604   9.758  0.7485 -1.2913 -1.6613
  780MOL0     H 7583   5.308   4.791   9.678  0.7341 -2.5324 -0.7778
  780MOL0     H 7584   5.219   4.708   9.550  1.1699 -1.6369  0.4342
  780MOL0     H 7585   4.998   4.828   9.624 -0.3965  0.5496 -0.1696
  780MOL0     H 7586   5.114   4.921   9.559  0.4940  1.6234  1.8866
  780MOL0     H 7587   5.091   4.910   9.859 -3.4594 -1.1220 -0.2006
  780MOL0     H 7588   5.210   5.010   9.761 -0.3590  0.2422 -0.5649
  780MOL0     H 7589   4.833   4.926   9.834  2.2643  0.2856  0.2779
  780MOL0     H 7590   4.652   5.286   9.829 -1.4600 -0.1005  1.2062
  780MOL0     H 7591   4.644   5.136   9.922  0.7253 -3.3785 -0.9241
  780MOL0     H 7592   4.592   5.036   9.705  1.7430 -0.1072  3.3897
  780MOL0     H 7593   4.464   5.153   9.753 -0.0570  1.1458 -0.4325
  780MOL0     H 7594   4.598   5.331   9.616  0.0880  0.4220 -2.0809
  780MOL0     H 7595   4.660   5.182   9.538 -0.3838 -0.4005 -0.4871
  780MOL0     H 7596   4.361   5.250   9.572  0.8537 -1.0025  0.8766
  780MOL0     H 7597   4.442   5.277   9.426 -3.7542  0.1872 -0.4447
  780MOL0     H 7598   4.262   5.233   9.315 -1.1625  0.1671 -1.5316
  780MOL0     H 7599   4.012   5.120   9.061  1.0332  0.2603  0.1742
  780MOL0     H 7600   4.077   5.248   9.159  1.4144 -0.0460  1.4854
  780MOL0     H 7601   3.947   5.161   9.233  1.8811  0.3405  3.0816
  780MOL0     H 7602   4.062   4.602   8.908 -0.7371  1.5745 -1.4702
  780MOL0     H 7603   3.869   4.489   8.771 -0.5122 -2.1065  0.7387
  780MOL0     H 7604   3.675   4.254   9.007  3.5870  1.8339 -2.5200
  780MOL0     H 7605   3.515   4.330   9.012  0.1405  0.7633 -0.1394
  780MOL0     H 7606   3.450   4.258   8.794  0.0037 -0.2148 -1.3682
  780MOL0     H 7607   3.614   4.175   8.781  0.6125  0.3270  0.1262
  780MOL0     H 7608   3.401   4.097   8.975  1.3315  1.2998  2.2191
  780MOL0     H 7609   3.569   4.036   8.968 -1.4748 -0.4550  1.3917
  780MOL0     H 7610   3.537   3.933   8.747 -0.4386  2.0016 -0.7351
  780MOL0     H 7611   3.393   4.033   8.731 -2.2387  0.2407  0.8659
  780MOL0     H 7612   3.415   3.811   8.944 -1.0495 -0.0630  0.0182
  780MOL0     H 7613   3.266   3.907   8.911 -0.0956  1.0063  0.4441
  780MOL0     H 7614   3.430   3.731   8.734 -0.0398  0.4195  1.1854
  780MOL0     H 7615   3.261   3.804   8.696 -2.2623 -2.2100 -0.7257
  780MOL0     H 7616   3.193   3.653   8.902  0.8132  2.2227 -0.5752
  780MOL0     H 7617   3.340   3.577   8.880 -1.6459  0.1676  2.9573
  780MOL0     H 7618   3.306   3.520   8.657  1.4129  1.4211  0.8722
  780MOL0     H 7619   3.154   3.619   8.633  0.9162  0.4407 -0.5133
  780MOL0     H 7620   3.631   4.504   9.128  0.7999  0.5697  0.9370
  780MOL0     H 7621   3.784   4.653   9.227 -1.7431  1.8160 -1.0725
  780MOL0     H 7622   4.191   4.733   9.307  1.4341 -0.5092 -1.1444
  780MOL0     H 7623   4.364   4.846   9.439  1.3715  1.5720 -0.0048
  780MOL0     H 7624   5.640   3.980   9.967 -2.0784 -1.2307 -0.2529
  780MOL0     H 7625   5.684   3.883  10.193 -0.2539  0.8173  4.6855
  780MOL0     H 7626   5.320   3.881  10.670 -1.0805  1.9115  1.1821
  780MOL0     H 7627   5.346   3.757  10.872 -0.1198  0.5710 -0.6722
  780MOL0     H 7628   5.672   3.583  11.129 -2.8422 -0.9135 -1.6253
  780MOL0     H 7629   5.760   3.612  10.982 -1.8519 -1.9345 -0.6535
  780MOL0     H 7630   5.720   3.878  11.061 -2.5055 -1.3243 -0.3824
  780MOL0     H 7631   5.858   3.789  11.118  1.0177 -1.7569  0.6262
  780MOL0     H 7632   5.601   3.776  11.288 -0.4254 -1.6411  0.6110
  780MOL0     H 7633   5.773   3.756  11.327  0.2331  1.2404  0.3798
  780MOL0     H 7634   5.610   4.009  11.277  0.0961  0.5291 -0.5101
  780MOL0     H 7635   5.790   4.010  11.256  0.4043 -0.1387  1.9635
  780MOL0     H 7636   5.743   3.976  11.675  1.0135 -0.2812  0.0571
  780MOL0     H 7637   5.778   3.787  10.851 -0.6200 -1.6924  1.6219
  780MOL0     H 7638   5.799   3.995  10.599 -0.9684  0.7748 -3.4306
  780MOL0     H 7639   5.871   3.844  10.652 -1.6665 -0.5989  1.7479
  780MOL0     H 7640   5.780   3.840  10.504 -1.2419 -0.0905  0.0456
  781MOL0     O 7641   5.871   1.652  10.747  0.3406  0.6259  0.3426
  781MOL0     C 7642   5.808   1.605  10.840  0.7886 -0.7609  0.5583
  781MOL0     O 7643   5.858   1.517  10.928 -0.3401 -0.8361  0.3232
  781MOL0     C 7644   5.979   1.458  10.910 -0.3494  0.9214  0.0109
  781MOL0     C 7645   6.071   1.453  11.013  1.0677 -1.1138  0.3967
  781MOL0     C 7646   6.191   1.389  10.999  0.1368 -0.0966  0.3789
  781MOL0     C 7647   6.229   1.324  10.884  0.4523 -0.7560 -0.6290
  781MOL0     O 7648   6.338   1.243  10.886 -0.1228  0.4168  0.3460
  781MOL0     C 7649   6.361   1.152  10.771 -0.6102 -0.2453  0.1811
  781MOL0     C 7650   6.479   1.053  10.787  1.1700 -0.0994 -0.1617
  781MOL0     C 7651   6.606   1.125  10.818 -0.7405  0.5641  0.2165
  781MOL0     C 7652   6.726   1.030  10.788  0.0983  0.0422  0.4937
  781MOL0     C 7653   6.863   1.091  10.817 -0.1880 -0.9079  0.1192
  781MOL0     C 7654   6.967   0.970  10.838  0.7575  0.0582  0.6817
  781MOL0     C 7655   6.969   0.886  10.705 -0.0078 -0.3340 -0.4866
  781MOL0     C 7656   7.077   0.783  10.711 -0.1482 -0.4937  0.2892
  781MOL0     N 7657   7.031   0.674  10.790 -0.0881 -0.9394 -0.6287
  781MOL0     C 7658   7.031   0.648  10.922 -0.0816 -0.4026  0.1652
  781MOL0     C 7659   6.977   0.520  10.936 -0.2882  0.1108 -0.0717
  781MOL0     C 7660   6.978   0.440  11.069 -0.6380 -0.1002  0.7910
  781MOL0     C 7661   7.106   0.378  11.120 -0.4572 -0.2115  0.0453
  781MOL0     C 7662   7.158   0.261  11.023  0.2444 -0.1988  0.3435
  781MOL0     C 7663   7.298   0.220  11.072  0.3905  0.2327 -0.5839
  781MOL0     O 7664   7.350   0.119  10.991  0.1463  0.0115 -0.3925
  781MOL0     C 7665   7.465   0.133  10.921  0.0812 -0.1003  0.5431
  781MOL0     C 7666   7.460   0.066  10.798  0.2215 -0.1341  0.1972
  781MOL0     C 7667   7.571   0.076  10.713 -0.5060 -0.2574  0.3390
  781MOL0     C 7668   7.570   0.006  10.574  0.1495 -0.4710 -0.0409
  781MOL0     C 7669   7.691   0.146  10.764  1.4286  0.0724  0.0828
  781MOL0     C 7670   7.816   0.143  10.682  0.6409 -0.4126 -0.2249
  781MOL0     O 7671   7.879   0.261  10.677 -0.1197 -0.0003 -1.0213
  781MOL0     C 7672   8.004   0.257  10.626  0.0408 -0.9118 -0.0972
  781MOL0     C 7673   8.027   0.351  10.524 -0.1604 -0.5902 -0.1062
  781MOL0     C 7674   8.152   0.369  10.468  0.1764 -0.2990 -0.8467
  781MOL0     C 7675   8.255   0.290  10.502 -0.3917  0.4007  0.9935
  781MOL0     O 7676   8.369   0.320  10.429  0.0003 -0.3146 -0.0187
  781MOL0     C 7677   8.493   0.260  10.469 -0.1651 -0.1917  0.5777
  781MOL0     C 7678   8.597   0.313  10.373 -0.1165 -0.2742  0.5269
  781MOL0     C 7679   8.726   0.228  10.392  0.1481  0.3287 -0.3085
  781MOL0     C 7680   8.804   0.260  10.517  0.1113 -0.3968  0.0726
  781MOL0     C 7681   8.909   0.157  10.540  0.2676 -0.0910 -0.0387
  781MOL0     C 7682   9.031   0.214  10.616 -1.0423  0.4637  0.0167
  781MOL0     C 7683   9.117   0.101  10.672  0.4245  0.0097 -0.8238
  781MOL0     C 7684   9.227   0.158  10.755  0.0766  0.7768 -0.3125
  781MOL0    Cl 7685   9.354   0.235  10.630  0.0505  0.2151 -0.1166
  781MOL0     C 7686   8.242   0.215  10.619  0.3883  0.1299  0.0761
  781MOL0     C 7687   8.116   0.203  10.688  0.3152 -0.1707  0.3898
  781MOL0     O 7688   7.853   0.039  10.631 -0.4456  0.6631 -0.4024
  781MOL0     C 7689   7.681   0.234  10.880  0.2237  0.9058 -0.1921
  781MOL0     C 7690   7.569   0.218  10.965  0.0418 -1.1722 -0.2997
  781MOL0     N 7691   6.950   0.479  10.805 -0.0765 -0.2065 -0.3686
  781MOL0     N 7692   6.978   0.569  10.724  0.1316 -0.1483 -0.2187
  781MOL0     C 7693   6.151   1.338  10.770 -0.2448 -0.0406  0.1800
  781MOL0     C 7694   6.025   1.398  10.787  0.6301 -0.7305 -0.3727
  781MOL0     C 7695   5.668   1.654  10.852 -0.0079  0.0959  1.0068
  781MOL0     C 7696   5.601   1.615  10.964 -0.7781  0.0085  0.4101
  781MOL0     C 7697   5.470   1.646  10.985 -0.6642  1.3476 -0.0447
  781MOL0     C 7698   5.400   1.721  10.901  0.0611 -1.3164 -0.6898
  781MOL0     O 7699   5.270   1.750  10.922 -0.0371 -0.3026  0.4405
  781MOL0     C 7700   5.210   1.858  10.851 -1.0561 -0.1840 -0.5763
  781MOL0     C 7701   5.053   1.867  10.876  0.5538 -0.0620 -0.7071
  781MOL0     C 7702   5.024   1.864  11.033  0.5325  0.0306  0.4541
  781MOL0     C 7703   4.879   1.905  11.064  0.5804  0.1336  0.2861
  781MOL0     C 7704   4.841   2.042  11.025 -0.2616 -0.0300 -0.0836
  781MOL0     C 7705   4.825   2.152  10.987  0.0841 -0.5527 -0.0812
  781MOL0     C 7706   5.468   1.779  10.790 -0.1319 -0.0984  0.2236
  781MOL0     C 7707   5.599   1.742  10.764  0.2413 -0.2714 -0.5431
  781MOL0     C 7708   5.653   1.795  10.640  0.1097 -0.4305  0.4347
  781MOL0     H 7709   6.037   1.484  11.111 -1.5429 -1.7505 -0.2224
  781MOL0     H 7710   6.239   1.384  11.096 -0.5931  1.3549  0.8610
  781MOL0     H 7711   6.367   1.215  10.682 -1.9122  1.0021  0.9293
  781MOL0     H 7712   6.264   1.101  10.765 -0.1409 -1.0313 -1.6055
  781MOL0     H 7713   6.461   0.973  10.859  2.1371 -1.1497 -1.0374
  781MOL0     H 7714   6.498   1.010  10.688  3.5002 -0.2575  0.2965
  781MOL0     H 7715   6.606   1.216  10.758  1.2922  1.4194  1.3937
  781MOL0     H 7716   6.607   1.157  10.922 -1.2885  1.0049  0.0915
  781MOL0     H 7717   6.716   0.948  10.859 -0.5143  0.1632  0.5538
  781MOL0     H 7718   6.723   0.994  10.684  1.6665  1.7531 -0.2187
  781MOL0     H 7719   6.853   1.154  10.907  0.5080  3.3548 -2.5064
  781MOL0     H 7720   6.901   1.165  10.746  2.8794 -1.0249  1.4655
  781MOL0     H 7721   7.069   1.006  10.855 -0.2649  3.1830  0.8169
  781MOL0     H 7722   6.929   0.907  10.919 -1.6024  1.4492  0.7710
  781MOL0     H 7723   6.990   0.959  10.626  1.1468  1.4520  1.3383
  781MOL0     H 7724   6.879   0.828  10.688 -0.5307  0.4135 -0.3178
  781MOL0     H 7725   7.098   0.751  10.609  1.2032  0.0519  0.3718
  781MOL0     H 7726   7.174   0.814  10.750 -0.6934  0.0114  1.2792
  781MOL0     H 7727   7.080   0.696  11.006  1.3476 -1.0173 -0.2879
  781MOL0     H 7728   6.914   0.353  11.052  0.7895 -1.1483  0.6397
  781MOL0     H 7729   6.926   0.496  11.147 -0.6348 -1.0074  1.4531
  781MOL0     H 7730   7.178   0.460  11.129 -0.6647 -0.1048  0.7934
  781MOL0     H 7731   7.086   0.332  11.218 -1.2453  3.1450  1.5910
  781MOL0     H 7732   7.095   0.173  11.010  1.1252 -1.0657  1.6651
  781MOL0     H 7733   7.182   0.296  10.922  2.4394 -1.9272  0.1830
  781MOL0     H 7734   7.362   0.309  11.070  2.2162 -1.0506 -1.0434
  781MOL0     H 7735   7.298   0.181  11.174  2.5498 -0.0685 -0.6526
  781MOL0     H 7736   7.368   0.015  10.770  0.5257  0.4221 -2.0068
  781MOL0     H 7737   7.471  -0.029  10.541  1.0582 -1.2117 -2.1078
  781MOL0     H 7738   7.636  -0.081  10.573 -2.1423 -2.3398 -2.4765
  781MOL0     H 7739   7.607   0.082  10.505  1.0154 -2.1650 -1.5226
  781MOL0     H 7740   7.942   0.412  10.495 -1.5217 -1.1698  2.3522
  781MOL0     H 7741   8.166   0.443  10.390 -0.4905  0.1859 -0.5173
  781MOL0     H 7742   8.526   0.279  10.572  2.1968 -2.2657  0.3076
  781MOL0     H 7743   8.497   0.151  10.458  3.6751 -0.0879 -0.5622
  781MOL0     H 7744   8.564   0.311  10.269  0.9831  0.7675  0.1274
  781MOL0     H 7745   8.622   0.416  10.401 -0.6744 -0.4595  1.7307
  781MOL0     H 7746   8.789   0.250  10.305 -0.8298 -2.0520 -1.7112
  781MOL0     H 7747   8.712   0.120  10.393 -0.9052  0.4135 -1.9709
  781MOL0     H 7748   8.737   0.268  10.603 -1.3231 -0.2240 -1.0185
  781MOL0     H 7749   8.849   0.358  10.495 -0.8439 -0.6002 -3.4556
  781MOL0     H 7750   8.864   0.080  10.602 -0.9893  0.4822 -0.2027
  781MOL0     H 7751   8.947   0.114  10.447  0.0538 -0.8414  0.2191
  781MOL0     H 7752   8.994   0.283  10.692  1.0941 -0.2860  1.8557
  781MOL0     H 7753   9.090   0.282  10.554 -0.6161  1.7535  1.7567
  781MOL0     H 7754   9.162   0.032  10.600  3.2902 -1.4643  2.1216
  781MOL0     H 7755   9.057   0.040  10.741 -2.1172  3.1652  0.0267
  781MOL0     H 7756   9.283   0.085  10.814  2.2246  1.9972 -0.7527
  781MOL0     H 7757   9.191   0.231  10.828  1.8958  0.9459  0.4690
  781MOL0     H 7758   8.329   0.162  10.655  2.0702  0.6574 -2.9054
  781MOL0     H 7759   8.110   0.155  10.785  0.8774  0.6761  0.8578
  781MOL0     H 7760   7.754   0.310  10.904 -1.0008  2.2402 -0.5608
  781MOL0     H 7761   7.570   0.283  11.053  1.3999 -0.7502 -0.6089
  781MOL0     H 7762   6.175   1.290  10.676 -1.9151 -2.3399  0.8505
  781MOL0     H 7763   5.961   1.420  10.703  0.0516  1.1374  0.5061
  781MOL0     H 7764   5.653   1.550  11.035  0.7403  0.6659 -0.0561
  781MOL0     H 7765   5.427   1.615  11.080  3.7770  2.7783  2.7578
  781MOL0     H 7766   5.266   1.949  10.875 -1.9117  1.2181 -3.5363
  781MOL0     H 7767   5.222   1.844  10.743 -2.2223 -4.0997 -0.3670
  781MOL0     H 7768   5.010   1.774  10.837 -0.1624 -1.5990  3.2162
  781MOL0     H 7769   5.004   1.949  10.823 -2.4708 -1.7523 -0.7553
  781MOL0     H 7770   5.052   1.769  11.079  1.6825  0.8464  1.4819
  781MOL0     H 7771   5.075   1.940  11.091 -0.0768 -0.1156  1.2070
  781MOL0     H 7772   4.857   1.894  11.171  0.9141  1.1651  0.4674
  781MOL0     H 7773   4.822   1.833  11.004 -0.6780  1.3978 -0.0729
  781MOL0     H 7774   4.826   2.253  10.952  0.0089 -0.0265  1.3794
  781MOL0     H 7775   5.417   1.839  10.716  1.6202 -0.3653 -1.2680
  781MOL0     H 7776   5.584   1.861  10.587  1.8930  1.7674  0.7158
  781MOL0     H 7777   5.741   1.854  10.665 -0.5269  1.0729 -0.7604
  781MOL0     H 7778   5.668   1.710  10.573 -0.1911 -0.6132  0.5908
  782MOL0     O 7779   7.576  10.807  11.141 -0.1840 -0.5894  0.0414
  782MOL0     C 7780   7.584  10.840  11.263  0.6105  0.0629  0.0945
  782MOL0     O 7781   7.688  10.920  11.318 -0.3093  1.1685  1.2171
  782MOL0     C 7782   7.817  10.898  11.273  0.0585  0.4424 -0.7199
  782MOL0     C 7783   7.908  11.001  11.249 -0.8927 -0.0834 -0.4204
  782MOL0     C 7784   8.031  10.976  11.190 -0.0054 -0.5777  0.8503
  782MOL0     C 7785   8.069  10.848  11.149  0.6152  0.0200 -0.2751
  782MOL0     O 7786   8.192  10.822  11.096 -0.5483  0.2314  0.0547
  782MOL0     C 7787   8.201  10.747  10.967  0.1100 -1.1345 -0.1113
  782MOL0     C 7788   8.324  10.797  10.897 -0.5507 -0.5430 -0.2562
  782MOL0     C 7789   8.446  10.789  10.990 -0.3137  0.2528  0.1083
  782MOL0     C 7790   8.567  10.813  10.900  0.5645  0.7192  0.3552
  782MOL0     C 7791   8.690  10.850  10.979 -0.2172 -0.7931 -1.0262
  782MOL0     C 7792   8.706  10.762  11.107  0.6194 -0.4946 -0.3921
  782MOL0     C 7793   8.840  10.787  11.169  0.3474  0.2333 -0.2428
  782MOL0     C 7794   8.848  10.707  11.300 -0.2589 -0.2365 -0.5236
  782MOL0     N 7795   8.991  10.668  11.324  0.6419 -0.4468 -0.1318
  782MOL0     C 7796   9.063  10.720  11.426 -1.3724 -0.1545  0.0320
  782MOL0     C 7797   9.167  10.631  11.446 -0.9513 -0.6618 -0.6380
  782MOL0     C 7798   9.265  10.645  11.561 -0.1993  0.0690 -0.8214
  782MOL0     C 7799   9.359  10.530  11.607  0.3280  0.0213 -0.3460
  782MOL0     C 7800   9.444  10.562  11.735  1.2192  0.0238 -0.4394
  782MOL0     C 7801   9.522  10.438  11.783  0.4405 -0.0619  0.2097
  782MOL0     O 7802   9.634  10.411  11.692 -0.1393  0.2543  0.0571
  782MOL0     C 7803   9.754  10.471  11.719  0.4041 -0.3876  0.7088
  782MOL0     C 7804   9.789  10.582  11.638  0.1780  0.2704 -0.6803
  782MOL0     C 7805   9.910  10.645  11.651 -0.2588 -0.4882 -0.2586
  782MOL0     C 7806   9.948  10.760  11.560 -0.1336 -0.1363 -0.2925
  782MOL0     C 7807  10.006  10.608  11.747  0.1155 -0.2542 -0.4036
  782MOL0     C 7808  10.133  10.674  11.766  0.1364  0.1940  0.5867
  782MOL0     O 7809  10.247  10.600  11.763 -0.4207 -0.1400  0.1491
  782MOL0     C 7810  10.362  10.674  11.751  0.0199  1.0830  0.4812
  782MOL0     C 7811  10.423  10.691  11.626  0.1123 -0.1855 -0.3549
  782MOL0     C 7812  10.542  10.762  11.619 -0.7043  0.9912  0.5016
  782MOL0     C 7813  10.605  10.811  11.737 -0.0602 -0.0112  0.1190
  782MOL0     O 7814  10.718  10.879  11.713 -0.6499 -0.4735 -0.3410
  782MOL0     C 7815  10.812  10.896  11.819 -0.1765  0.0503  0.2300
  782MOL0     C 7816  10.785  11.022  11.899  0.5078  0.1461  0.3976
  782MOL0     C 7817  10.902  11.065  11.988  1.0212 -0.2695  0.5832
  782MOL0     C 7818  11.027  11.100  11.906 -0.4393  0.1037  0.6933
  782MOL0     C 7819  11.142  11.109  12.011 -0.7545  0.7329  0.4159
  782MOL0     C 7820  11.274  11.153  11.959 -0.0924  1.0096  0.9435
  782MOL0     C 7821  11.362  11.061  11.863  0.9413  0.6339 -0.1819
  782MOL0     C 7822  11.416  10.943  11.943  0.1791  0.6684  0.1035
  782MOL0    Cl 7823  11.540  10.999  12.060  0.1598  0.2970  0.0317
  782MOL0     C 7824  10.540  10.805  11.859  0.2988  0.4051 -0.1543
  782MOL0     C 7825  10.424  10.730  11.868 -0.8886  0.3777  1.4148
  782MOL0     O 7826  10.124  10.793  11.796  0.2110 -0.3861  0.4078
  782MOL0     C 7827   9.965  10.495  11.829 -1.1109 -0.5571  0.4169
  782MOL0     C 7828   9.845  10.429  11.819  0.8911  0.2171  0.4160
  782MOL0     N 7829   9.156  10.525  11.357 -0.2658  0.5177 -0.7049
  782MOL0     N 7830   9.058  10.555  11.282  0.3682  0.0892  0.2105
  782MOL0     C 7831   7.982  10.742  11.171  0.0976 -0.2463  1.0355
  782MOL0     C 7832   7.857  10.769  11.223  0.1083 -0.1735 -0.7394
  782MOL0     C 7833   7.461  10.826  11.339  0.1423 -0.2846  0.5100
  782MOL0     C 7834   7.433  10.935  11.426  0.3078 -0.8462 -0.4773
  782MOL0     C 7835   7.312  10.933  11.504  0.1113  0.0131  0.1573
  782MOL0     C 7836   7.229  10.818  11.504 -0.0564  0.3220 -0.5152
  782MOL0     O 7837   7.105  10.803  11.541  0.0349 -0.7846 -0.2417
  782MOL0     C 7838   7.078  10.848  11.675 -0.7442 -0.8755  0.2715
  782MOL0     C 7839   6.979  10.748  11.752 -0.3553 -1.1467  0.2080
  782MOL0     C 7840   6.873  10.685  11.661 -0.2897 -0.1142 -0.5975
  782MOL0     C 7841   6.792  10.566  11.735 -0.0818 -0.5775 -0.0678
  782MOL0     C 7842   6.702  10.624  11.838 -0.6982  0.3901 -0.2407
  782MOL0     C 7843   6.644  10.651  11.932 -0.2757 -0.6524 -0.8439
  782MOL0     C 7844   7.266  10.717  11.419 -0.0637 -0.3484 -0.2470
  782MOL0     C 7845   7.373  10.716  11.336 -1.1256  0.2751  0.3596
  782MOL0     C 7846   7.399  10.596  11.251  0.3492 -0.2427  0.2211
  782MOL0     H 7847   7.886  11.101  11.286 -0.3314 -0.6562  1.5753
  782MOL0     H 7848   8.098  11.061  11.179 -1.0084  0.7332  3.8871
  782MOL0     H 7849   8.105  10.756  10.914 -0.0285 -0.8170  0.1851
  782MOL0     H 7850   8.205  10.641  10.991 -0.8544 -0.7152  2.2005
  782MOL0     H 7851   8.344  10.737  10.808  2.2379  0.1524 -0.1858
  782MOL0     H 7852   8.299  10.901  10.873 -1.6612 -0.5432  0.7911
  782MOL0     H 7853   8.447  10.878  11.053 -0.1272  0.7206 -0.5498
  782MOL0     H 7854   8.454  10.697  11.048  1.6835  0.1350 -0.2853
  782MOL0     H 7855   8.591  10.724  10.840  0.5412  0.7961  0.2337
  782MOL0     H 7856   8.535  10.889  10.828 -0.1521 -0.5773 -0.7576
  782MOL0     H 7857   8.681  10.957  10.999 -0.7712 -0.8717 -0.8289
  782MOL0     H 7858   8.768  10.834  10.904  0.4494  0.4478 -0.6063
  782MOL0     H 7859   8.624  10.774  11.178  0.8874 -5.2803  1.0321
  782MOL0     H 7860   8.698  10.659  11.073 -0.7548 -0.2085 -1.0324
  782MOL0     H 7861   8.851  10.894  11.186 -0.6620  0.0639  1.8281
  782MOL0     H 7862   8.922  10.753  11.105  1.8002 -2.2409  2.6217
  782MOL0     H 7863   8.808  10.775  11.376 -1.0081  0.1571 -1.2520
  782MOL0     H 7864   8.787  10.617  11.293  0.9899 -1.1665  0.0276
  782MOL0     H 7865   9.055  10.796  11.503  0.8996  1.1473 -0.9092
  782MOL0     H 7866   9.203  10.674  11.646  0.9985  1.3380 -0.3487
  782MOL0     H 7867   9.328  10.733  11.544  1.6733  0.0415  4.2233
  782MOL0     H 7868   9.292  10.447  11.630 -0.0775  0.8083  1.5399
  782MOL0     H 7869   9.423  10.508  11.521  0.9446 -0.0364  0.1189
  782MOL0     H 7870   9.517  10.642  11.721 -0.8324  2.2522  0.7720
  782MOL0     H 7871   9.372  10.589  11.812  0.2978 -1.8332 -0.5731
  782MOL0     H 7872   9.559  10.440  11.886  2.7044 -2.2382 -0.4613
  782MOL0     H 7873   9.453  10.353  11.785  0.5892 -0.1768  2.0054
  782MOL0     H 7874   9.705  10.609  11.575 -1.8392 -2.1914  0.7697
  782MOL0     H 7875   9.872  10.773  11.482 -2.0276 -0.1757  1.4896
  782MOL0     H 7876  10.041  10.740  11.505 -1.0202 -0.3589 -1.7669
  782MOL0     H 7877   9.950  10.840  11.634  2.3736 -2.9676  3.0010
  782MOL0     H 7878  10.370  10.660  11.537  3.0863  1.1803 -2.8328
  782MOL0     H 7879  10.580  10.771  11.518 -0.0657 -0.1415  0.6242
  782MOL0     H 7880  10.806  10.810  11.887  1.4746  0.4353  0.8850
  782MOL0     H 7881  10.908  10.893  11.767 -0.2463 -0.6449  0.1312
  782MOL0     H 7882  10.757  11.099  11.827 -0.9760 -2.2899 -1.8063
  782MOL0     H 7883  10.699  11.003  11.965  1.4456  0.0960  1.6526
  782MOL0     H 7884  10.932  10.978  12.047  3.0088 -1.3468 -1.8718
  782MOL0     H 7885  10.864  11.151  12.045 -1.6745  1.2918 -3.1997
  782MOL0     H 7886  11.018  11.193  11.850 -3.0821  1.0966  2.5493
  782MOL0     H 7887  11.042  11.018  11.835 -2.9353  0.6415 -0.5685
  782MOL0     H 7888  11.105  11.169  12.095  0.3678  0.8462  0.8484
  782MOL0     H 7889  11.157  11.017  12.067 -1.7793  0.7420  0.7340
  782MOL0     H 7890  11.340  11.175  12.044  2.0228 -1.1775 -0.0141
  782MOL0     H 7891  11.256  11.246  11.905  5.2679  2.1448  0.5295
  782MOL0     H 7892  11.434  11.113  11.800  0.4839  0.6380 -0.7119
  782MOL0     H 7893  11.290  11.033  11.786  1.3833  0.4833 -0.5405
  782MOL0     H 7894  11.470  10.869  11.883  0.1675 -1.2135  2.2405
  782MOL0     H 7895  11.335  10.881  11.982 -0.2769  0.0303 -1.7604
  782MOL0     H 7896  10.591  10.842  11.947  3.3956  0.7824 -1.9788
  782MOL0     H 7897  10.382  10.714  11.967  0.5630  0.5535  2.0890
  782MOL0     H 7898  10.014  10.460  11.920 -2.1879  1.2869  1.7780
  782MOL0     H 7899   9.813  10.343  11.878 -2.3430  2.4919  2.3014
  782MOL0     H 7900   8.012  10.651  11.120 -1.6596 -1.3680  1.8947
  782MOL0     H 7901   7.793  10.685  11.247 -1.3287  0.8926 -0.6480
  782MOL0     H 7902   7.489  11.025  11.447  0.0225 -1.2443  2.4364
  782MOL0     H 7903   7.273  11.021  11.554 -0.8455  1.1370 -2.4116
  782MOL0     H 7904   7.172  10.851  11.731 -0.5491  0.0032 -0.0808
  782MOL0     H 7905   7.032  10.947  11.670 -1.4144 -1.1678  0.6257
  782MOL0     H 7906   6.922  10.809  11.823 -0.4357 -1.7060  0.6301
  782MOL0     H 7907   7.044  10.686  11.813  3.2896  2.4536  0.4446
  782MOL0     H 7908   6.816  10.754  11.598 -2.0682 -3.3593 -2.8312
  782MOL0     H 7909   6.930  10.634  11.583  1.1312  0.2584  0.1515
  782MOL0     H 7910   6.856  10.491  11.781  2.6582 -0.1194 -2.8163
  782MOL0     H 7911   6.737  10.520  11.653  2.0032 -0.9778 -1.3118
  782MOL0     H 7912   6.604  10.695  12.022  0.9973  0.6986 -0.8986
  782MOL0     H 7913   7.206  10.627  11.426  0.1683 -0.6371 -1.6623
  782MOL0     H 7914   7.344  10.508  11.287 -0.5369  1.0905  2.3230
  782MOL0     H 7915   7.374  10.627  11.149 -4.0743 -1.6360  0.6584
  782MOL0     H 7916   7.507  10.577  11.255  0.3530 -0.1532  0.6077
  783MOL0     O 7917   9.380   2.786   9.461 -0.6699  0.3297 -1.0795
  783MOL0     C 7918   9.367   2.660   9.468  0.3553 -0.1653  0.4167
  783MOL0     O 7919   9.469   2.570   9.447 -0.4693 -0.2508  0.1565
  783MOL0     C 7920   9.599   2.597   9.472 -0.4906 -0.5705  0.4018
  783MOL0     C 7921   9.692   2.511   9.410 -1.1952 -0.5589  0.7229
  783MOL0     C 7922   9.831   2.540   9.415  0.3331 -0.8722  0.9960
  783MOL0     C 7923   9.882   2.651   9.487 -0.2687 -0.0253  0.0211
  783MOL0     O 7924  10.016   2.678   9.484 -0.2606  0.4250  0.6226
  783MOL0     C 7925  10.065   2.797   9.539  0.0574  0.2339  0.1502
  783MOL0     C 7926  10.198   2.826   9.469 -0.4206 -1.0313  0.4900
  783MOL0     C 7927  10.303   2.705   9.472  0.3953 -1.0796 -0.1574
  783MOL0     C 7928  10.435   2.744   9.538  0.2132 -0.4858 -0.0438
  783MOL0     C 7929  10.430   2.737   9.687  0.1888  0.4108  0.0331
  783MOL0     C 7930  10.563   2.778   9.752  0.0377  1.1624  0.5831
  783MOL0     C 7931  10.580   2.774   9.907  0.4686  0.4754  0.6211
  783MOL0     C 7932  10.508   2.659   9.969 -0.7860 -0.2178 -0.3098
  783MOL0     N 7933  10.575   2.534   9.938  0.4556  0.5829 -0.2163
  783MOL0     C 7934  10.691   2.499  10.000  0.3470  0.1117 -0.0073
  783MOL0     C 7935  10.752   2.411   9.914 -0.0936  0.1405 -0.3169
  783MOL0     C 7936  10.899   2.374   9.919  0.5317  0.6695  0.2030
  783MOL0     C 7937  10.993   2.462   9.831  0.3458 -0.4083  1.2145
  783MOL0     C 7938  10.995   2.610   9.886 -0.1065 -0.2457  0.6547
  783MOL0     C 7939  11.119   2.689   9.850  0.0670  1.0034  0.5569
  783MOL0     O 7940  11.227   2.645   9.937 -0.2950  0.4926 -0.0485
  783MOL0     C 7941  11.353   2.698   9.913  0.1960 -0.5180  0.1155
  783MOL0     C 7942  11.462   2.656   9.987 -0.9932 -0.0527 -0.2583
  783MOL0     C 7943  11.588   2.705   9.971 -0.3100 -1.0726  0.5092
  783MOL0     C 7944  11.689   2.627  10.048 -0.4528  0.0760  0.0966
  783MOL0     C 7945  11.611   2.804   9.879  0.5101  0.1085  0.4285
  783MOL0     C 7946  11.739   2.854   9.842 -1.0243 -0.4338  0.0062
  783MOL0     O 7947  11.844   2.770   9.822 -0.3721  0.2503 -0.0899
  783MOL0     C 7948  11.963   2.837   9.801 -0.7133 -0.1588  0.0387
  783MOL0     C 7949  11.999   2.864   9.671  0.2337 -0.2646 -0.5859
  783MOL0     C 7950  12.123   2.930   9.648 -0.2386  0.3076 -0.3652
  783MOL0     C 7951  12.219   2.954   9.751  0.8136 -0.8339  0.5721
  783MOL0     O 7952  12.329   3.026   9.715  0.7347 -0.1518 -0.7963
  783MOL0     C 7953  12.440   3.016   9.808 -0.1096 -1.1368  0.8515
  783MOL0     C 7954  12.574   3.067   9.755  0.7588  0.0884 -0.1098
  783MOL0     C 7955  12.567   3.222   9.765  0.1701  0.7477  0.3683
  783MOL0     C 7956  12.692   3.289   9.705 -0.2572 -0.8240  0.0434
  783MOL0     C 7957  12.800   3.305   9.809 -0.2027 -0.1165  0.5651
  783MOL0     C 7958  12.904   3.411   9.777  0.1453  0.2519  0.3225
  783MOL0     C 7959  13.010   3.417   9.868 -0.9674  0.0763  0.0127
  783MOL0     C 7960  13.113   3.515   9.807 -0.1651  0.8651 -0.4179
  783MOL0    Cl 7961  13.262   3.493   9.896 -0.2275  0.3446  0.1570
  783MOL0     C 7962  12.175   2.930   9.882  0.0571 -0.0735 -0.2438
  783MOL0     C 7963  12.047   2.867   9.910  0.8774 -1.2432 -0.2696
  783MOL0     O 7964  11.747   2.978   9.836  0.5999 -0.1120 -0.0960
  783MOL0     C 7965  11.499   2.848   9.804 -0.0699 -0.3060  0.8972
  783MOL0     C 7966  11.371   2.798   9.820 -0.5359 -0.4649 -0.2044
  783MOL0     N 7967  10.658   2.376   9.818 -0.0628  0.1457  0.5662
  783MOL0     N 7968  10.559   2.456   9.825  0.0873 -0.0344 -0.6269
  783MOL0     C 7969   9.785   2.733   9.556  0.0553 -0.6573 -0.2289
  783MOL0     C 7970   9.648   2.706   9.549  0.3618 -0.8766  0.8246
  783MOL0     C 7971   9.225   2.615   9.461 -0.5299 -0.5663 -1.0200
  783MOL0     C 7972   9.137   2.683   9.387 -0.0980  0.1911  0.3173
  783MOL0     C 7973   9.007   2.650   9.381  0.1415  0.2882 -0.0219
  783MOL0     C 7974   8.948   2.541   9.451  0.1645  0.5197  1.3646
  783MOL0     O 7975   8.818   2.510   9.445  0.3422 -0.3045 -0.2791
  783MOL0     C 7976   8.766   2.381   9.491  0.1917  0.0270 -0.2527
  783MOL0     C 7977   8.631   2.365   9.430  0.9260 -0.3094  1.2461
  783MOL0     C 7978   8.666   2.348   9.275  0.6638  0.7369  0.9142
  783MOL0     C 7979   8.537   2.355   9.193  0.1798 -0.0008  0.8601
  783MOL0     C 7980   8.480   2.492   9.183  0.6364 -0.3683  0.3124
  783MOL0     C 7981   8.442   2.607   9.164 -0.5648 -0.5037 -0.1794
  783MOL0     C 7982   9.040   2.472   9.533  0.2231 -0.0286  0.8286
  783MOL0     C 7983   9.181   2.503   9.529 -0.3787  0.4152 -0.2881
  783MOL0     C 7984   9.267   2.413   9.618  0.5731  0.5135 -0.5332
  783MOL0     H 7985   9.666   2.425   9.350 -1.8773  2.0338 -3.0290
  783MOL0     H 7986   9.908   2.472   9.378 -0.6084 -1.4276  0.0324
  783MOL0     H 7987  10.076   2.780   9.647  2.7958 -2.1688 -0.4000
  783MOL0     H 7988   9.989   2.874   9.524 -2.6253 -2.4703 -1.4891
  783MOL0     H 7989  10.175   2.848   9.364  1.7036 -1.3061 -0.0867
  783MOL0     H 7990  10.244   2.912   9.518  0.9259 -1.2534 -0.3094
  783MOL0     H 7991  10.255   2.616   9.513  0.1250 -0.8929 -0.0664
  783MOL0     H 7992  10.330   2.687   9.368 -0.4760 -2.4300 -0.1743
  783MOL0     H 7993  10.516   2.676   9.510  0.6395  0.7964 -2.1299
  783MOL0     H 7994  10.472   2.845   9.522  1.5871 -0.6656  1.7053
  783MOL0     H 7995  10.412   2.633   9.718 -0.4636  1.5561  4.0498
  783MOL0     H 7996  10.357   2.800   9.740  0.8562 -0.3342  1.9190
  783MOL0     H 7997  10.653   2.739   9.703  0.8586  2.0507  1.3218
  783MOL0     H 7998  10.579   2.883   9.728  1.0789  1.1529  1.1549
  783MOL0     H 7999  10.536   2.870   9.936 -0.3977  0.5162 -0.7051
  783MOL0     H 8000  10.683   2.778   9.944  0.6298 -0.2062  0.2715
  783MOL0     H 8001  10.518   2.677  10.076 -1.2604  1.8654 -0.5845
  783MOL0     H 8002  10.403   2.655   9.938 -0.9789  0.3361  0.2519
  783MOL0     H 8003  10.740   2.539  10.089 -0.7510  0.7696  0.3355
  783MOL0     H 8004  10.901   2.269   9.887 -2.4842  0.8852 -0.9950
  783MOL0     H 8005  10.944   2.372  10.019 -0.7403 -1.3301  0.7992
  783MOL0     H 8006  11.095   2.423   9.835  0.1151 -1.0249  1.1632
  783MOL0     H 8007  10.945   2.464   9.733 -0.4406  0.4759  1.5937
  783MOL0     H 8008  10.901   2.661   9.864 -0.5071 -0.2293  2.3371
  783MOL0     H 8009  10.994   2.600   9.994 -0.0423 -1.2119  0.5785
  783MOL0     H 8010  11.149   2.664   9.747  1.2121 -1.7372  1.4654
  783MOL0     H 8011  11.096   2.795   9.857 -2.3707  0.6419 -0.8160
  783MOL0     H 8012  11.442   2.567  10.044 -0.5407 -0.7369 -1.1400
  783MOL0     H 8013  11.643   2.609  10.146 -1.9115  1.3153 -0.3327
  783MOL0     H 8014  11.785   2.678  10.061 -1.2842  1.5728  0.5286
  783MOL0     H 8015  11.694   2.531   9.996 -2.1812  0.4837 -0.8924
  783MOL0     H 8016  11.944   2.839   9.580 -0.7487  1.4200 -0.4944
  783MOL0     H 8017  12.151   2.960   9.548  0.4832  1.3089  0.1241
  783MOL0     H 8018  12.421   3.065   9.904  0.1318  0.6429  0.0220
  783MOL0     H 8019  12.454   2.909   9.827 -2.4070 -1.5766  0.3392
  783MOL0     H 8020  12.661   3.032   9.811 -0.0209 -1.3271  0.2827
  783MOL0     H 8021  12.580   3.039   9.649 -0.1292 -1.4611  0.2146
  783MOL0     H 8022  12.555   3.247   9.871  2.3959  1.6183  0.4724
  783MOL0     H 8023  12.478   3.263   9.716 -0.5461  0.6635  1.5672
  783MOL0     H 8024  12.666   3.388   9.667  0.7780 -1.1206 -1.5246
  783MOL0     H 8025  12.729   3.234   9.619 -0.5261 -2.8346  1.1425
  783MOL0     H 8026  12.755   3.335   9.903  0.6000 -0.0156  0.9285
  783MOL0     H 8027  12.844   3.207   9.829  1.8687 -0.0576 -2.7781
  783MOL0     H 8028  12.841   3.501   9.773 -2.1684 -1.2770  0.4454
  783MOL0     H 8029  12.950   3.397   9.678  1.9740  1.4852  0.9413
  783MOL0     H 8030  13.056   3.318   9.876 -0.8095 -0.0644 -2.0620
  783MOL0     H 8031  12.997   3.466   9.965  2.2558 -0.1172  0.6458
  783MOL0     H 8032  13.087   3.621   9.808  0.4411  1.0252 -0.8883
  783MOL0     H 8033  13.146   3.482   9.707 -2.7321 -0.3175 -0.9475
  783MOL0     H 8034  12.243   2.974   9.954 -1.7827  2.3896  0.1104
  783MOL0     H 8035  11.999   2.850  10.006  2.0453 -3.0284  0.0488
  783MOL0     H 8036  11.509   2.922   9.726 -4.1040  0.5726  0.9846
  783MOL0     H 8037  11.291   2.848   9.766 -0.0804  0.5496  0.0389
  783MOL0     H 8038   9.816   2.822   9.610  0.8669 -0.3072 -1.2521
  783MOL0     H 8039   9.584   2.783   9.591 -2.3813 -1.7710 -1.4174
  783MOL0     H 8040   9.176   2.765   9.328 -0.7075  0.9923  1.0163
  783MOL0     H 8041   8.947   2.697   9.304  1.2467 -0.2787 -1.2590
  783MOL0     H 8042   8.834   2.297   9.470 -0.7509 -0.1133 -3.3814
  783MOL0     H 8043   8.756   2.378   9.599  2.3376  1.7793  0.0639
  783MOL0     H 8044   8.575   2.456   9.452  1.5589  1.2959 -2.8565
  783MOL0     H 8045   8.575   2.278   9.468 -2.1254  0.8325 -0.2719
  783MOL0     H 8046   8.732   2.425   9.235  1.2213 -0.4648 -0.5600
  783MOL0     H 8047   8.706   2.249   9.253 -0.6774  0.7499 -2.1907
  783MOL0     H 8048   8.458   2.290   9.232 -2.7019  1.4858 -1.9625
  783MOL0     H 8049   8.545   2.319   9.090 -0.1866 -1.9559  1.4844
  783MOL0     H 8050   8.409   2.707   9.146  0.7548  0.2108  1.1824
  783MOL0     H 8051   8.998   2.395   9.597 -1.6563 -0.0745 -0.3619
  783MOL0     H 8052   9.297   2.320   9.568  1.4152 -0.1822  1.1839
  783MOL0     H 8053   9.360   2.459   9.654 -0.3434  1.2420  0.9917
  783MOL0     H 8054   9.200   2.385   9.699  0.6901  0.5005 -0.4413
  784MOL0     O 8055   7.162   5.232  11.380  0.3782  0.7924 -0.0766
  784MOL0     C 8056   7.085   5.270  11.461 -0.5093  0.4248  0.6797
  784MOL0     O 8057   7.091   5.232  11.593 -0.1578  0.4549 -0.1621
  784MOL0     C 8058   7.183   5.131  11.616 -0.2806  0.8689 -0.1885
  784MOL0     C 8059   7.293   5.146  11.711  0.4608  0.1935 -1.1710
  784MOL0     C 8060   7.387   5.043  11.738 -1.2021 -0.4299 -0.6080
  784MOL0     C 8061   7.365   4.915  11.682  0.3969 -0.3157 -0.4750
  784MOL0     O 8062   7.438   4.805  11.706 -0.7012 -0.6831 -0.7820
  784MOL0     C 8063   7.486   4.798  11.833 -0.3869  0.2234  0.4254
  784MOL0     C 8064   7.554   4.664  11.858 -0.2545 -1.1448  0.6111
  784MOL0     C 8065   7.674   4.652  11.750  0.4608 -0.0701  0.3011
  784MOL0     C 8066   7.778   4.543  11.789 -0.8640  0.6137 -0.0073
  784MOL0     C 8067   7.906   4.549  11.706 -0.2974  0.2352 -0.2929
  784MOL0     C 8068   7.997   4.428  11.735 -0.0299  0.2619 -0.0694
  784MOL0     C 8069   8.137   4.438  11.683  0.0674  0.3684 -0.5591
  784MOL0     C 8070   8.222   4.558  11.739 -0.2755  0.6629  0.1097
  784MOL0     N 8071   8.209   4.559  11.882  0.5040 -0.6524 -0.5353
  784MOL0     C 8072   8.278   4.477  11.958  0.1149  0.8333 -1.0313
  784MOL0     C 8073   8.242   4.508  12.085  0.2821  0.4976 -0.0630
  784MOL0     C 8074   8.304   4.447  12.210 -0.5263  0.8006 -0.0080
  784MOL0     C 8075   8.432   4.509  12.249  0.1718  0.1879 -0.8446
  784MOL0     C 8076   8.554   4.451  12.184  0.0005  0.1823 -0.1181
  784MOL0     C 8077   8.667   4.548  12.207  0.0020  1.3769  0.1645
  784MOL0     O 8078   8.771   4.467  12.163  0.1188 -0.9772 -0.2342
  784MOL0     C 8079   8.900   4.509  12.165  0.9526  0.1137  0.4294
  784MOL0     C 8080   8.931   4.625  12.228 -0.5338  0.5718  0.0996
  784MOL0     C 8081   9.077   4.644  12.235  0.7859 -0.3917 -0.2984
  784MOL0     C 8082   9.115   4.770  12.304  0.7037  0.1307 -0.4339
  784MOL0     C 8083   9.172   4.564  12.169 -0.0623 -0.0885  0.2574
  784MOL0     C 8084   9.323   4.587  12.194 -0.5093  0.4620 -0.0112
  784MOL0     O 8085   9.388   4.694  12.150  0.4004 -0.5044 -0.0203
  784MOL0     C 8086   9.522   4.703  12.171 -0.8203  0.6286  0.9436
  784MOL0     C 8087   9.618   4.603  12.139  0.2778  0.6231  0.3623
  784MOL0     C 8088   9.755   4.632  12.160  0.0707  0.4763  0.2811
  784MOL0     C 8089   9.797   4.753  12.205 -0.4574 -0.3117 -0.8480
  784MOL0     O 8090   9.940   4.763  12.215 -0.0481 -0.1887 -1.2692
  784MOL0     C 8091   9.991   4.898  12.229  0.2547 -0.4466 -0.5316
  784MOL0     C 8092  10.143   4.903  12.228 -0.7783 -0.1983  0.2152
  784MOL0     C 8093  10.205   5.039  12.219 -0.5835 -0.0108 -0.7588
  784MOL0     C 8094  10.348   5.029  12.278  0.6262  0.2780 -0.3853
  784MOL0     C 8095  10.445   5.142  12.234  0.2109 -1.0914 -0.0065
  784MOL0     C 8096  10.575   5.156  12.318 -0.1206 -0.0923  0.4151
  784MOL0     C 8097  10.699   5.123  12.233  1.0065  0.2843  0.3526
  784MOL0     C 8098  10.820   5.199  12.292  0.1093 -0.2799 -0.7925
  784MOL0    Cl 8099  10.952   5.203  12.159 -0.0627  0.1671  0.1096
  784MOL0     C 8100   9.704   4.854  12.237  0.0436 -0.1885  0.8773
  784MOL0     C 8101   9.570   4.830  12.206  1.0796  0.1973  0.2831
  784MOL0     O 8102   9.378   4.493  12.253 -0.5210 -0.1440 -0.3282
  784MOL0     C 8103   9.129   4.446  12.106  0.0682 -0.4009 -0.2427
  784MOL0     C 8104   8.993   4.419  12.110  0.4857  0.4092 -0.5909
  784MOL0     N 8105   8.145   4.605  12.079  0.4136 -0.5412  0.5382
  784MOL0     N 8106   8.122   4.638  11.956 -0.4973  0.1997 -0.3946
  784MOL0     C 8107   7.247   4.897  11.603 -0.4450 -0.1548  1.5238
  784MOL0     C 8108   7.159   5.001  11.566  0.2044 -0.6518  0.4527
  784MOL0     C 8109   6.968   5.352  11.429  0.3382 -0.5980 -0.5222
  784MOL0     C 8110   6.860   5.350  11.515  0.3607  0.3352  0.1508
  784MOL0     C 8111   6.733   5.391  11.480 -0.2703  0.7702  0.5997
  784MOL0     C 8112   6.716   5.462  11.361  0.3204 -0.4452 -0.5193
  784MOL0     O 8113   6.588   5.495  11.341  0.1455  0.3333  0.0182
  784MOL0     C 8114   6.543   5.608  11.256  0.2204  0.0340 -0.1246
  784MOL0     C 8115   6.580   5.745  11.314  0.5692  0.3795 -0.4841
  784MOL0     C 8116   6.525   5.870  11.238  0.3889  0.6836  0.0712
  784MOL0     C 8117   6.368   5.873  11.280 -0.1859 -0.5841  0.1120
  784MOL0     C 8118   6.281   5.814  11.174 -0.3470  0.1012 -0.6206
  784MOL0     C 8119   6.207   5.757  11.099  0.4890  0.6633  0.0223
  784MOL0     C 8120   6.820   5.489  11.283 -0.2266 -0.3675  1.2014
  784MOL0     C 8121   6.948   5.435  11.311  0.2137  0.6691  0.1889
  784MOL0     C 8122   7.055   5.453  11.205  0.3783 -0.5238 -0.0382
  784MOL0     H 8123   7.302   5.243  11.758  1.5690  0.3680 -1.7257
  784MOL0     H 8124   7.468   5.072  11.804  0.6829 -0.8374 -2.6168
  784MOL0     H 8125   7.406   4.811  11.907  0.3801  0.1218  1.3049
  784MOL0     H 8126   7.567   4.867  11.858 -0.2172 -0.4696  1.9654
  784MOL0     H 8127   7.602   4.654  11.956 -0.1179  1.8378  0.9458
  784MOL0     H 8128   7.477   4.587  11.847 -2.9233  0.8305  3.4700
  784MOL0     H 8129   7.635   4.628  11.651  1.9623 -0.6688 -0.1653
  784MOL0     H 8130   7.718   4.752  11.743  2.7647 -1.0900 -0.6527
  784MOL0     H 8131   7.801   4.541  11.896 -0.2751  1.7964 -0.1007
  784MOL0     H 8132   7.734   4.447  11.761  0.6900  0.5891 -2.6774
  784MOL0     H 8133   7.952   4.647  11.726  1.4737 -0.3790 -1.1980
  784MOL0     H 8134   7.869   4.535  11.604  2.0409  1.7850 -1.4413
  784MOL0     H 8135   8.012   4.409  11.842  0.7519  0.8389 -0.0693
  784MOL0     H 8136   7.949   4.337  11.699 -3.5033  2.7668 -2.3568
  784MOL0     H 8137   8.129   4.446  11.574  0.2275 -0.8331 -0.6702
  784MOL0     H 8138   8.184   4.343  11.708  2.0855  0.8314 -2.3854
  784MOL0     H 8139   8.327   4.548  11.711 -0.3438  1.2324 -0.3634
  784MOL0     H 8140   8.177   4.643  11.687  0.3046 -0.6445 -2.7540
  784MOL0     H 8141   8.348   4.404  11.918 -2.1758 -0.7284 -2.4552
  784MOL0     H 8142   8.321   4.340  12.199 -3.0114  0.0306  2.5562
  784MOL0     H 8143   8.241   4.470  12.296 -0.3082 -0.9877  0.6648
  784MOL0     H 8144   8.414   4.609  12.208 -2.0743 -0.7812 -2.4315
  784MOL0     H 8145   8.437   4.494  12.357 -0.3462 -1.3643 -1.0158
  784MOL0     H 8146   8.580   4.351  12.220  1.4687 -0.1080 -1.8549
  784MOL0     H 8147   8.545   4.448  12.075  1.8569  1.8670 -0.3717
  784MOL0     H 8148   8.663   4.639  12.146  0.0114  0.3225 -1.4574
  784MOL0     H 8149   8.677   4.568  12.314  2.8862  2.3604 -0.1878
  784MOL0     H 8150   8.853   4.689  12.267 -1.8607 -1.1819  0.4267
  784MOL0     H 8151   9.055   4.776  12.395 -0.1145  0.9944 -1.0104
  784MOL0     H 8152   9.107   4.865  12.250 -0.8766  1.9592  2.7345
  784MOL0     H 8153   9.215   4.771  12.349  2.6282 -4.1523 -3.7864
  784MOL0     H 8154   9.588   4.513  12.087  0.9180  2.4743 -3.5701
  784MOL0     H 8155   9.826   4.558  12.125 -0.2207  0.4564 -0.2835
  784MOL0     H 8156   9.954   4.957  12.145  0.1299  0.4629  0.1558
  784MOL0     H 8157   9.958   4.940  12.324  1.6256  0.0962 -0.2712
  784MOL0     H 8158  10.188   4.852  12.314  1.7660  1.1106 -0.2485
  784MOL0     H 8159  10.187   4.852  12.142 -0.1782  1.6283 -0.6020
  784MOL0     H 8160  10.140   5.114  12.266 -1.0603 -0.9885  0.1991
  784MOL0     H 8161  10.211   5.071  12.115  1.6758  0.5864 -0.5005
  784MOL0     H 8162  10.404   4.944  12.236 -2.7750 -1.7824 -1.1255
  784MOL0     H 8163  10.337   5.027  12.387 -3.2577 -0.6003 -0.6575
  784MOL0     H 8164  10.472   5.128  12.129  1.8491 -2.2280  0.5310
  784MOL0     H 8165  10.386   5.235  12.240 -2.4773 -2.5742 -1.4254
  784MOL0     H 8166  10.569   5.080  12.397 -1.1671 -1.5884 -1.0256
  784MOL0     H 8167  10.579   5.259  12.354 -1.7692  0.5448 -1.1299
  784MOL0     H 8168  10.695   5.159  12.130  0.6607 -1.4303 -0.2596
  784MOL0     H 8169  10.713   5.015  12.234 -1.6683 -0.1195  0.1192
  784MOL0     H 8170  10.868   5.149  12.376  3.2774 -3.2145 -4.0199
  784MOL0     H 8171  10.799   5.303  12.317  2.0743  0.3254 -1.4567
  784MOL0     H 8172   9.738   4.952  12.268 -0.0526 -0.5030  2.0100
  784MOL0     H 8173   9.500   4.913  12.205 -2.4061 -2.4746 -1.3055
  784MOL0     H 8174   9.208   4.376  12.077  0.2849 -0.9564  1.5179
  784MOL0     H 8175   8.961   4.322  12.074  1.2114 -0.4962  1.1019
  784MOL0     H 8176   7.220   4.798  11.568  2.1504 -0.4307  0.0745
  784MOL0     H 8177   7.079   4.993  11.493 -0.3598  2.7726  0.5078
  784MOL0     H 8178   6.871   5.305  11.613 -1.4205  0.6371  0.5213
  784MOL0     H 8179   6.656   5.375  11.555  0.4011  3.1813  1.9067
  784MOL0     H 8180   6.560   5.601  11.148 -1.3141 -0.7330 -0.3545
  784MOL0     H 8181   6.433   5.608  11.258  0.2227 -0.8048  1.7053
  784MOL0     H 8182   6.687   5.759  11.295  1.2098 -0.3810  2.0845
  784MOL0     H 8183   6.552   5.747  11.420  3.4500 -0.3500  0.3702
  784MOL0     H 8184   6.562   5.966  11.272 -0.3804  0.1232  2.7162
  784MOL0     H 8185   6.544   5.848  11.133  1.4617  1.4176  0.0966
  784MOL0     H 8186   6.336   5.977  11.283  3.1512  0.5760  1.9828
  784MOL0     H 8187   6.348   5.835  11.381  3.9923  0.5337  1.5783
  784MOL0     H 8188   6.125   5.696  11.065  0.9357 -1.9998  3.1433
  784MOL0     H 8189   6.798   5.532  11.186 -1.6475 -1.2095  1.1309
  784MOL0     H 8190   7.002   5.476  11.113  1.3842  3.4768  0.1849
  784MOL0     H 8191   7.129   5.530  11.231 -0.9455  0.8898 -0.3405
  784MOL0     H 8192   7.112   5.362  11.183 -2.0572 -2.3820  0.9177
  785MOL0     O 8193   3.945   0.699   7.159  0.6221  0.3568  0.5539
  785MOL0     C 8194   3.883   0.627   7.236  0.5362  0.8439  0.5833
  785MOL0     O 8195   3.932   0.520   7.305 -0.0829  0.3244  0.4384
  785MOL0     C 8196   4.061   0.478   7.309 -0.7370  0.8743 -0.7599
  785MOL0     C 8197   4.086   0.346   7.351  0.8909 -0.4708 -0.8756
  785MOL0     C 8198   4.211   0.297   7.360  0.0053  0.8242  0.1206
  785MOL0     C 8199   4.317   0.368   7.324 -0.1694 -0.2361  0.0380
  785MOL0     O 8200   4.443   0.326   7.351  0.6601 -0.2852 -0.1188
  785MOL0     C 8201   4.540   0.312   7.246 -0.0641 -0.4841 -0.0293
  785MOL0     C 8202   4.680   0.349   7.307 -0.2245 -0.5934 -0.1570
  785MOL0     C 8203   4.786   0.363   7.206  0.0899 -0.3954  0.0946
  785MOL0     C 8204   4.819   0.226   7.155 -0.1053 -0.5896  0.3358
  785MOL0     C 8205   4.923   0.211   7.049 -0.4098  0.5556 -0.3091
  785MOL0     C 8206   4.938   0.051   7.033 -1.3405 -0.2849 -0.0754
  785MOL0     C 8207   5.040   0.010   6.927 -0.4441 -0.2378  0.3216
  785MOL0     C 8208   5.188   0.057   6.970 -0.3152 -0.0497  0.3818
  785MOL0     N 8209   5.232  -0.013   7.092  0.0239 -0.3037  0.2480
  785MOL0     C 8210   5.306   0.061   7.187 -0.8144 -0.0124  0.8267
  785MOL0     C 8211   5.353  -0.029   7.278  0.2574 -0.0899  0.9678
  785MOL0     C 8212   5.436  -0.011   7.403 -0.6292 -0.2948  0.4528
  785MOL0     C 8213   5.581  -0.049   7.384 -0.1416  0.2022  0.6872
  785MOL0     C 8214   5.670  -0.001   7.509 -0.6082  0.0407 -0.2156
  785MOL0     C 8215   5.822  -0.028   7.495 -0.1381 -0.0087  1.1004
  785MOL0     O 8216   5.860  -0.161   7.470  0.2866  0.3206 -0.5904
  785MOL0     C 8217   5.985  -0.192   7.436  0.6768  0.0745  1.2854
  785MOL0     C 8218   6.087  -0.100   7.423 -0.9602  0.2103 -0.6374
  785MOL0     C 8219   6.215  -0.138   7.388 -0.1987  0.3129  0.6037
  785MOL0     C 8220   6.314  -0.022   7.383 -0.2221  0.6574 -1.1146
  785MOL0     C 8221   6.245  -0.274   7.343 -0.1139 -0.7272  0.2192
  785MOL0     C 8222   6.379  -0.322   7.313  0.5489 -0.0980  0.7263
  785MOL0     O 8223   6.490  -0.249   7.342  0.2279 -0.1506  0.5089
  785MOL0     C 8224   6.617  -0.295   7.299 -0.5839  0.2043  0.1243
  785MOL0     C 8225   6.628  -0.310   7.159 -0.1691  0.1538  0.2401
  785MOL0     C 8226   6.753  -0.323   7.099 -0.4729  0.5283 -0.2705
  785MOL0     C 8227   6.870  -0.339   7.186  0.1801 -0.7659  0.2631
  785MOL0     O 8228   6.997  -0.346   7.126  0.8804 -0.7401 -0.4092
  785MOL0     C 8229   7.118  -0.352   7.203  0.3414  0.3273  0.5266
  785MOL0     C 8230   7.238  -0.381   7.107 -0.5428  0.4408  0.7717
  785MOL0     C 8231   7.250  -0.263   7.022  0.5203 -0.5158  0.1362
  785MOL0     C 8232   7.373  -0.278   6.930 -0.1858  0.0021 -0.3439
  785MOL0     C 8233   7.401  -0.150   6.867  0.0747 -0.8615  0.1924
  785MOL0     C 8234   7.522  -0.148   6.775  0.4155 -0.2718 -0.5554
  785MOL0     C 8235   7.499  -0.222   6.643  0.0905  0.3701 -0.2839
  785MOL0     C 8236   7.577  -0.165   6.527  0.0111  0.1203  0.5425
  785MOL0    Cl 8237   7.508  -0.234   6.367  0.0093  0.2496  0.2485
  785MOL0     C 8238   6.856  -0.322   7.327  0.0123 -0.4788 -0.0490
  785MOL0     C 8239   6.732  -0.295   7.383  0.6058 -0.5387 -0.6359
  785MOL0     O 8240   6.376  -0.435   7.259  0.0999 -0.5503 -0.2568
  785MOL0     C 8241   6.140  -0.362   7.358 -0.0097  0.2284  0.5455
  785MOL0     C 8242   6.008  -0.323   7.398  0.0213 -0.4817  0.1813
  785MOL0     N 8243   5.303  -0.145   7.229  0.6512  0.2105 -0.6356
  785MOL0     N 8244   5.231  -0.142   7.124 -0.0200  0.8766 -0.8320
  785MOL0     C 8245   4.301   0.504   7.289 -0.0254 -0.7244  0.6917
  785MOL0     C 8246   4.173   0.557   7.281 -0.1990  0.1152 -0.2411
  785MOL0     C 8247   3.737   0.638   7.226  0.3790  0.4196 -0.2237
  785MOL0     C 8248   3.657   0.517   7.242 -0.7832  0.0921  0.8018
  785MOL0     C 8249   3.517   0.519   7.235 -0.0560  0.3425  1.1837
  785MOL0     C 8250   3.439   0.646   7.221 -0.4161 -0.2716  0.8514
  785MOL0     O 8251   3.306   0.633   7.220  0.3198 -0.0841  0.1837
  785MOL0     C 8252   3.235   0.750   7.166 -0.0446 -0.1864  0.2404
  785MOL0     C 8253   3.087   0.730   7.173  0.1115 -0.6105  0.1223
  785MOL0     C 8254   3.014   0.834   7.097  0.5867 -0.4276  0.4223
  785MOL0     C 8255   2.859   0.840   7.135 -0.2523 -0.5446  0.2494
  785MOL0     C 8256   2.783   0.714   7.177  1.1220 -0.7601  0.3407
  785MOL0     C 8257   2.716   0.614   7.196  0.2920 -0.3257 -0.1777
  785MOL0     C 8258   3.522   0.765   7.221 -0.6592  0.5613 -0.9047
  785MOL0     C 8259   3.664   0.757   7.199  0.4200  0.6874 -0.7137
  785MOL0     C 8260   3.731   0.898   7.194  0.1709  0.3807  0.4993
  785MOL0     H 8261   4.003   0.278   7.368  1.2345 -1.0705 -1.5643
  785MOL0     H 8262   4.223   0.195   7.394 -0.7090  0.8936  0.6154
  785MOL0     H 8263   4.525   0.389   7.170  0.1656  1.9643  2.2683
  785MOL0     H 8264   4.537   0.214   7.198  0.2787  0.5059 -2.1385
  785MOL0     H 8265   4.665   0.446   7.356 -1.2878  2.0833 -5.0745
  785MOL0     H 8266   4.722   0.270   7.370  0.3482 -2.4474 -2.7212
  785MOL0     H 8267   4.754   0.424   7.120 -1.0193 -1.8837 -0.6117
  785MOL0     H 8268   4.876   0.405   7.250  0.0729 -0.9289  0.6475
  785MOL0     H 8269   4.857   0.165   7.238 -1.7786 -0.7357  1.0369
  785MOL0     H 8270   4.727   0.180   7.116 -0.0489 -1.7297  1.4612
  785MOL0     H 8271   5.022   0.251   7.075  0.6234 -0.4059 -2.4481
  785MOL0     H 8272   4.884   0.255   6.956  0.7307 -0.7588 -1.4711
  785MOL0     H 8273   4.949  -0.000   7.129  2.1050 -2.2697 -1.3358
  785MOL0     H 8274   4.842   0.007   7.003 -0.6990 -0.5115 -1.8985
  785MOL0     H 8275   5.010   0.045   6.828 -3.3187 -0.6407  0.9413
  785MOL0     H 8276   5.051  -0.098   6.921  3.4207  0.1411 -2.5566
  785MOL0     H 8277   5.255   0.015   6.894 -1.3554 -1.9423  0.4777
  785MOL0     H 8278   5.197   0.166   6.978 -4.4679  0.3575  1.3725
  785MOL0     H 8279   5.328   0.167   7.179 -0.0750 -0.0832  1.8052
  785MOL0     H 8280   5.391  -0.074   7.481 -1.1471  0.6541  0.9432
  785MOL0     H 8281   5.432   0.093   7.437  2.0761 -0.0756  0.2748
  785MOL0     H 8282   5.583  -0.158   7.376 -1.4478  0.2785 -1.6395
  785MOL0     H 8283   5.627  -0.015   7.290  2.3723 -0.2526  1.6736
  785MOL0     H 8284   5.654   0.106   7.524  1.1874  0.1167  1.5605
  785MOL0     H 8285   5.627  -0.058   7.592 -1.2940  0.8638  0.0147
  785MOL0     H 8286   5.855   0.021   7.403  1.2936 -3.5094 -0.4120
  785MOL0     H 8287   5.883   0.003   7.580 -3.7859  0.1073  3.9208
  785MOL0     H 8288   6.073   0.004   7.450  0.1810  0.6749 -1.7139
  785MOL0     H 8289   6.377  -0.023   7.293 -0.5976  2.3561 -1.4332
  785MOL0     H 8290   6.383  -0.024   7.468 -0.4251 -1.6423 -0.9512
  785MOL0     H 8291   6.269   0.078   7.389  0.6207  1.0848 -1.6588
  785MOL0     H 8292   6.542  -0.295   7.095 -0.4903  2.3309  1.0928
  785MOL0     H 8293   6.772  -0.313   6.992 -0.4724  3.1578 -0.0893
  785MOL0     H 8294   7.128  -0.254   7.250 -1.3289  2.5099 -3.2266
  785MOL0     H 8295   7.115  -0.442   7.265 -0.6321  0.1536  0.2414
  785MOL0     H 8296   7.325  -0.394   7.172  0.5428  0.0944 -0.7014
  785MOL0     H 8297   7.236  -0.471   7.045 -0.4989  0.2256  1.0770
  785MOL0     H 8298   7.265  -0.168   7.074 -2.1166  1.0225 -1.6518
  785MOL0     H 8299   7.159  -0.241   6.965  0.0849 -1.4710  0.4448
  785MOL0     H 8300   7.345  -0.353   6.857  0.1610 -0.7471  0.2731
  785MOL0     H 8301   7.461  -0.306   6.989 -0.9306 -0.0155  0.7909
  785MOL0     H 8302   7.303  -0.139   6.818 -1.1432 -0.3713  2.6199
  785MOL0     H 8303   7.404  -0.062   6.932 -0.0800 -0.9645  0.3413
  785MOL0     H 8304   7.598  -0.192   6.841 -0.8878 -1.8126  0.0011
  785MOL0     H 8305   7.543  -0.045   6.746  3.8644 -0.0216  2.0916
  785MOL0     H 8306   7.394  -0.211   6.613 -0.2916  0.5188  1.0176
  785MOL0     H 8307   7.523  -0.328   6.647  3.1466  0.9383 -1.1953
  785MOL0     H 8308   7.684  -0.189   6.524  0.9770  3.6504  1.7059
  785MOL0     H 8309   7.559  -0.057   6.532  0.3079  0.1374  1.3632
  785MOL0     H 8310   6.940  -0.316   7.395 -1.2861  0.9900  1.5316
  785MOL0     H 8311   6.721  -0.267   7.487  1.3640 -1.7477 -0.2113
  785MOL0     H 8312   6.152  -0.466   7.332  0.4156  0.4184 -0.0487
  785MOL0     H 8313   5.931  -0.399   7.390  0.7704 -1.2135 -0.2526
  785MOL0     H 8314   4.387   0.566   7.268 -0.9853 -0.3481 -2.9972
  785MOL0     H 8315   4.169   0.658   7.242 -1.3521 -0.0763 -0.6782
  785MOL0     H 8316   3.707   0.421   7.246 -0.1861  0.3899  0.5477
  785MOL0     H 8317   3.458   0.429   7.250  1.9136 -0.6327  3.7224
  785MOL0     H 8318   3.256   0.846   7.215 -2.3369  1.2591 -1.3996
  785MOL0     H 8319   3.268   0.760   7.062 -1.9514  0.2307 -0.3664
  785MOL0     H 8320   3.056   0.746   7.277  0.0978  1.5662 -0.1875
  785MOL0     H 8321   3.060   0.631   7.135  3.2386 -1.1056 -1.1351
  785MOL0     H 8322   3.065   0.930   7.113  3.0325 -1.3859 -1.0562
  785MOL0     H 8323   3.029   0.807   6.991 -2.0530 -0.5424  0.0288
  785MOL0     H 8324   2.809   0.869   7.041 -1.4695 -0.9509  0.7489
  785MOL0     H 8325   2.845   0.920   7.208  1.7357  0.5349 -0.4766
  785MOL0     H 8326   2.643   0.536   7.205 -1.0417  1.0184  1.3488
  785MOL0     H 8327   3.479   0.864   7.221  2.5127  2.1520  2.2709
  785MOL0     H 8328   3.755   0.935   7.294  3.1723 -0.8811  0.3353
  785MOL0     H 8329   3.825   0.897   7.138 -0.4451  0.2488 -0.5722
  785MOL0     H 8330   3.656   0.960   7.144  1.1525  0.3773 -1.0317
  786MOL0     O 8331   6.525  10.882   4.875 -0.4437 -0.1024  0.3053
  786MOL0     C 8332   6.450  10.790   4.887  0.2618  0.3951 -0.0411
  786MOL0     O 8333   6.488  10.658   4.898  0.0260  0.1285  0.7593
  786MOL0     C 8334   6.620  10.623   4.870 -0.1092 -0.0297 -0.7591
  786MOL0     C 8335   6.680  10.660   4.753  1.0522 -0.3067 -0.0700
  786MOL0     C 8336   6.817  10.638   4.732  0.7887  0.0637  0.1077
  786MOL0     C 8337   6.890  10.577   4.832 -0.4057 -0.3202 -0.4652
  786MOL0     O 8338   7.022  10.539   4.809  0.1139  1.1830 -0.5015
  786MOL0     C 8339   7.118  10.639   4.785  0.1351 -0.2701 -0.7806
  786MOL0     C 8340   7.253  10.581   4.762  0.4869 -0.5202  0.8828
  786MOL0     C 8341   7.254  10.484   4.644 -0.2334 -0.9299 -0.8785
  786MOL0     C 8342   7.383  10.412   4.655  0.3524 -0.5786 -0.1211
  786MOL0     C 8343   7.413  10.310   4.545 -0.2638  0.9075  0.2479
  786MOL0     C 8344   7.537  10.221   4.559 -0.0059 -0.0252 -0.0411
  786MOL0     C 8345   7.665  10.302   4.535  0.1532 -0.2049  0.1803
  786MOL0     C 8346   7.684  10.352   4.393  0.5821 -0.2101  0.0197
  786MOL0     N 8347   7.820  10.331   4.347 -0.0851  0.7484  0.0413
  786MOL0     C 8348   7.909  10.427   4.331 -0.7562  0.0067  0.6970
  786MOL0     C 8349   8.018  10.365   4.284 -0.7918 -0.0398 -0.0597
  786MOL0     C 8350   8.154  10.417   4.253 -0.7884 -0.8123  0.2468
  786MOL0     C 8351   8.176  10.561   4.300 -0.3738 -0.4876  0.2057
  786MOL0     C 8352   8.321  10.602   4.286 -0.0398  0.3345 -0.1693
  786MOL0     C 8353   8.379  10.607   4.140 -0.8862  0.1818  0.1629
  786MOL0     O 8354   8.302  10.717   4.072  0.3611  0.2447  0.1819
  786MOL0     C 8355   8.333  10.763   3.945 -0.4028 -0.4137 -0.1240
  786MOL0     C 8356   8.450  10.711   3.882  0.2850  0.3661 -0.0381
  786MOL0     C 8357   8.487  10.752   3.755  0.4187 -0.1571 -0.0797
  786MOL0     C 8358   8.623  10.698   3.696  0.0590  0.5427 -0.2530
  786MOL0     C 8359   8.390  10.837   3.682  0.0924 -0.9534  0.0865
  786MOL0     C 8360   8.419  10.905   3.555 -0.0485  0.5744 -0.3339
  786MOL0     O 8361   8.364  11.033   3.540  0.6003 -0.2901 -0.0953
  786MOL0     C 8362   8.370  11.093   3.416 -0.4275 -0.2742 -0.3517
  786MOL0     C 8363   8.443  11.210   3.407  0.1503 -0.3792  0.4993
  786MOL0     C 8364   8.464  11.276   3.288  0.7231  0.3889 -0.0865
  786MOL0     C 8365   8.408  11.222   3.171 -0.8086 -0.4490 -0.0746
  786MOL0     O 8366   8.437  11.271   3.047 -0.5627 -0.1585  0.0532
  786MOL0     C 8367   8.373  11.223   2.931  0.3650  0.3291  0.6948
  786MOL0     C 8368   8.388  11.337   2.824  0.2190  0.7673  0.0190
  786MOL0     C 8369   8.328  11.308   2.686 -0.1798 -0.7090  0.3390
  786MOL0     C 8370   8.349  11.425   2.580 -0.8198 -0.4214  0.0142
  786MOL0     C 8371   8.259  11.387   2.465 -0.2754  0.1227  0.2441
  786MOL0     C 8372   8.306  11.475   2.346  0.1870 -0.1279 -0.1950
  786MOL0     C 8373   8.219  11.477   2.219 -0.0570 -0.9377 -0.6003
  786MOL0     C 8374   8.175  11.346   2.163  0.0939  0.2358 -0.0027
  786MOL0    Cl 8375   8.314  11.236   2.164 -0.2289 -0.1727  0.4776
  786MOL0     C 8376   8.331  11.101   3.179  0.6113  0.2020  0.0886
  786MOL0     C 8377   8.310  11.041   3.303  0.1775  0.2564 -0.1221
  786MOL0     O 8378   8.496  10.854   3.473 -0.9255  0.0015 -0.0923
  786MOL0     C 8379   8.269  10.872   3.749 -0.0496 -0.3068 -0.1155
  786MOL0     C 8380   8.240  10.839   3.880  0.0147 -0.2015 -0.1080
  786MOL0     N 8381   7.996  10.232   4.270  0.0480 -0.4321  0.2024
  786MOL0     N 8382   7.868  10.213   4.302 -0.0037  0.3063  0.3357
  786MOL0     C 8383   6.826  10.532   4.946 -1.0324 -0.5688  0.4031
  786MOL0     C 8384   6.692  10.553   4.967 -0.4100  0.5930  0.2817
  786MOL0     C 8385   6.308  10.815   4.914  0.9978  0.1003 -0.2195
  786MOL0     C 8386   6.249  10.737   5.015 -0.0282  0.4768 -0.3212
  786MOL0     C 8387   6.114  10.761   5.051 -0.2970  0.1271  0.0698
  786MOL0     C 8388   6.044  10.859   4.984 -0.1898 -0.0213  0.1324
  786MOL0     O 8389   5.919  10.886   5.007  0.3020  0.4290 -0.4698
  786MOL0     C 8390   5.827  10.781   4.962 -0.9624  1.5928 -0.2788
  786MOL0     C 8391   5.820  10.780   4.816  0.2046  1.0091  0.0721
  786MOL0     C 8392   5.758  10.914   4.764  0.1651  0.4629  0.0603
  786MOL0     C 8393   5.801  10.954   4.624 -0.3015 -0.2200  0.1875
  786MOL0     C 8394   5.739  10.873   4.518  0.7674 -0.0277  0.3307
  786MOL0     C 8395   5.696  10.800   4.428  0.5293 -0.2902  0.0488
  786MOL0     C 8396   6.102  10.939   4.884 -0.5385  0.0510  0.3625
  786MOL0     C 8397   6.239  10.917   4.852  0.0785  0.5746  0.1172
  786MOL0     C 8398   6.303  11.016   4.746 -0.2542  0.3737 -0.2661
  786MOL0     H 8399   6.621  10.711   4.677 -0.3893 -0.0255  1.1802
  786MOL0     H 8400   6.859  10.658   4.634 -3.8522 -0.4709 -2.2636
  786MOL0     H 8401   7.131  10.699   4.876  1.7173 -1.6933 -0.0149
  786MOL0     H 8402   7.083  10.705   4.705 -3.1047 -0.3415  0.4235
  786MOL0     H 8403   7.331  10.655   4.743  0.9537 -1.1753  0.2091
  786MOL0     H 8404   7.281  10.524   4.852 -1.3241 -1.3371  0.9757
  786MOL0     H 8405   7.176  10.410   4.659 -0.9923  0.0420  0.1676
  786MOL0     H 8406   7.234  10.537   4.550 -0.3037 -0.1217 -0.4237
  786MOL0     H 8407   7.464  10.485   4.659 -1.1403  1.0941  1.3461
  786MOL0     H 8408   7.393  10.355   4.748 -0.5209 -0.6694 -0.0770
  786MOL0     H 8409   7.417  10.348   4.442 -2.6173  0.9767  0.1353
  786MOL0     H 8410   7.331  10.237   4.545  1.2734 -0.9722 -1.4842
  786MOL0     H 8411   7.528  10.169   4.655  0.3488 -0.6689 -0.3540
  786MOL0     H 8412   7.517  10.134   4.496  1.2842 -0.9825  0.8241
  786MOL0     H 8413   7.752  10.244   4.568  0.9270 -1.1729 -3.2108
  786MOL0     H 8414   7.652  10.386   4.603  1.4839 -1.5960  2.2817
  786MOL0     H 8415   7.610  10.307   4.326 -0.2124  0.0861  0.6636
  786MOL0     H 8416   7.667  10.460   4.399  5.5520  0.7701  0.2259
  786MOL0     H 8417   7.921  10.533   4.349  2.8784  0.1339 -1.5056
  786MOL0     H 8418   8.163  10.416   4.144  1.1720  1.7870  0.3001
  786MOL0     H 8419   8.232  10.355   4.298  0.1502  1.1843  1.5165
  786MOL0     H 8420   8.110  10.629   4.246  1.8676  0.8290 -0.9925
  786MOL0     H 8421   8.151  10.557   4.407 -0.7015  1.1810  0.2139
  786MOL0     H 8422   8.326  10.700   4.333 -0.4537  0.6641 -0.8074
  786MOL0     H 8423   8.380  10.532   4.346  0.1098  0.9608  0.4193
  786MOL0     H 8424   8.484  10.624   4.164 -0.6103  0.3535 -1.1220
  786MOL0     H 8425   8.356  10.517   4.083 -0.4251 -0.2085  0.5792
  786MOL0     H 8426   8.515  10.636   3.926  1.3836  0.8766 -0.7397
  786MOL0     H 8427   8.607  10.624   3.616  2.0722 -0.5230  0.2505
  786MOL0     H 8428   8.681  10.656   3.779 -0.5570  0.5714  0.1997
  786MOL0     H 8429   8.682  10.771   3.640  0.2337  0.2494 -0.4591
  786MOL0     H 8430   8.511  11.235   3.488  0.1176 -2.6320  1.3019
  786MOL0     H 8431   8.516  11.371   3.291  0.1933  0.6975 -0.4812
  786MOL0     H 8432   8.419  11.129   2.899 -1.4144 -1.0875  2.0905
  786MOL0     H 8433   8.267  11.200   2.947 -0.0239  2.5799  1.6870
  786MOL0     H 8434   8.340  11.421   2.876 -2.7607 -1.2495  0.8065
  786MOL0     H 8435   8.493  11.360   2.807  0.1883  1.6056  0.8967
  786MOL0     H 8436   8.224  11.273   2.690  0.1970 -1.7320  2.8675
  786MOL0     H 8437   8.397  11.239   2.638  1.8022  0.6852  1.0669
  786MOL0     H 8438   8.456  11.426   2.556 -0.4876 -2.1561  1.2130
  786MOL0     H 8439   8.329  11.527   2.613 -1.6085  0.4798 -2.9180
  786MOL0     H 8440   8.251  11.281   2.441  3.7739  0.1278 -2.0085
  786MOL0     H 8441   8.154  11.411   2.484  0.2841  0.3388  3.8864
  786MOL0     H 8442   8.402  11.445   2.303  0.6802  1.8636 -0.5773
  786MOL0     H 8443   8.318  11.581   2.369  5.0048 -0.9397  2.3472
  786MOL0     H 8444   8.264  11.539   2.140  0.7442 -2.0003 -0.9974
  786MOL0     H 8445   8.126  11.522   2.254 -1.2703 -1.7310 -2.6253
  786MOL0     H 8446   8.145  11.363   2.060 -1.2695  1.8893  0.6216
  786MOL0     H 8447   8.095  11.303   2.224  0.3738  0.7486  0.7356
  786MOL0     H 8448   8.280  11.044   3.102 -0.0493 -0.1801  0.7928
  786MOL0     H 8449   8.253  10.950   3.320  1.0698 -0.5045 -1.0901
  786MOL0     H 8450   8.199  10.917   3.679  1.0961 -0.7233 -1.5727
  786MOL0     H 8451   8.141  10.862   3.920  1.1803  1.6846  1.9031
  786MOL0     H 8452   6.888  10.474   5.014 -1.6224 -1.1904  0.4212
  786MOL0     H 8453   6.635  10.524   5.055 -1.6547  0.0785 -0.6625
  786MOL0     H 8454   6.307  10.661   5.065 -0.0752  0.0509 -0.9010
  786MOL0     H 8455   6.071  10.703   5.132  2.6562  0.8354  2.3341
  786MOL0     H 8456   5.849  10.679   4.996  1.5503  2.5126  1.0773
  786MOL0     H 8457   5.731  10.799   5.011 -1.6417 -0.1863 -0.8446
  786MOL0     H 8458   5.749  10.699   4.795  1.6993 -0.0520 -1.1438
  786MOL0     H 8459   5.921  10.757   4.780 -0.4672 -2.3331 -0.0125
  786MOL0     H 8460   5.650  10.910   4.778 -0.6942 -0.7675 -4.9066
  786MOL0     H 8461   5.799  10.994   4.826 -0.7263  2.2756 -1.5774
  786MOL0     H 8462   5.907  10.975   4.606 -1.2801  3.7501 -2.1719
  786MOL0     H 8463   5.762  11.056   4.614  0.3369 -0.1598 -2.0923
  786MOL0     H 8464   5.664  10.740   4.345  1.1064  1.9966 -1.9219
  786MOL0     H 8465   6.045  11.011   4.826 -0.0372 -1.3911 -2.0723
  786MOL0     H 8466   6.355  10.959   4.669  0.1518 -1.0236  0.9945
  786MOL0     H 8467   6.237  11.083   4.691 -4.2546 -2.4552  0.6120
  786MOL0     H 8468   6.370  11.078   4.806 -1.7612  1.1597  0.6803
  787MOL0     O 8469   6.943   2.941   3.393 -0.7962 -0.1727 -0.7784
  787MOL0     C 8470   6.944   2.861   3.484  0.9115 -0.2695  0.4143
  787MOL0     O 8471   7.059   2.820   3.550  0.2867 -0.1498  0.7369
  787MOL0     C 8472   7.191   2.843   3.508  0.9519 -0.1798  0.8285
  787MOL0     C 8473   7.285   2.750   3.553 -0.1671 -0.0662  0.0961
  787MOL0     C 8474   7.423   2.751   3.519  0.3908  0.2744 -0.2608
  787MOL0     C 8475   7.470   2.864   3.436 -0.2431  0.1875 -0.3383
  787MOL0     O 8476   7.603   2.884   3.400  0.4454 -0.3227  0.1391
  787MOL0     C 8477   7.696   2.774   3.436 -0.2669  0.2851  0.4886
  787MOL0     C 8478   7.829   2.815   3.392 -0.1327 -0.0623  0.1209
  787MOL0     C 8479   7.906   2.918   3.481  0.4161 -0.2442 -0.9564
  787MOL0     C 8480   7.988   2.858   3.591  0.8180 -0.3862  0.0216
  787MOL0     C 8481   8.009   2.948   3.709 -0.5378  0.3454 -0.6997
  787MOL0     C 8482   8.048   2.879   3.844  1.3470  0.3446  0.5399
  787MOL0     C 8483   8.041   2.963   3.975  0.7600  0.2308 -0.2111
  787MOL0     C 8484   8.156   3.067   3.973 -0.4744 -0.2888 -0.1624
  787MOL0     N 8485   8.281   3.029   3.896  0.7283  0.0170  0.3657
  787MOL0     C 8486   8.388   2.965   3.952  0.1250 -0.5084 -0.3538
  787MOL0     C 8487   8.488   3.000   3.875 -0.5080  0.2155 -0.0233
  787MOL0     C 8488   8.637   2.966   3.902 -0.0775 -0.7435  0.9531
  787MOL0     C 8489   8.665   2.950   4.050 -0.2439  0.3106 -0.0203
  787MOL0     C 8490   8.819   2.962   4.076 -0.1003 -0.1439 -0.5427
  787MOL0     C 8491   8.898   2.832   4.072  0.0942  0.3562  0.5460
  787MOL0     O 8492   8.924   2.784   3.942  0.2353 -0.6197  0.1956
  787MOL0     C 8493   9.017   2.691   3.913  0.2674 -0.2665 -0.4025
  787MOL0     C 8494   9.017   2.649   3.778 -0.2885  0.1468 -0.5500
  787MOL0     C 8495   9.077   2.528   3.737 -0.3714 -0.2955  0.1303
  787MOL0     C 8496   9.046   2.484   3.597 -0.0114 -0.1821  0.5209
  787MOL0     C 8497   9.156   2.460   3.830 -0.8487  0.0457  0.7599
  787MOL0     C 8498   9.236   2.339   3.793 -0.1267 -0.6077  0.5132
  787MOL0     O 8499   9.268   2.258   3.895 -0.9548  0.5666 -0.3273
  787MOL0     C 8500   9.371   2.163   3.884  0.1603  0.1607 -0.0690
  787MOL0     C 8501   9.491   2.165   3.818 -0.2289  0.1618 -0.5628
  787MOL0     C 8502   9.583   2.053   3.819  0.4557 -0.2617 -0.2388
  787MOL0     C 8503   9.556   1.948   3.911  0.5245  0.5141 -0.0436
  787MOL0     O 8504   9.655   1.856   3.904  0.4416 -0.6802 -0.3159
  787MOL0     C 8505   9.643   1.747   3.995 -0.2028 -0.0305 -0.9669
  787MOL0     C 8506   9.751   1.643   3.996 -0.2874 -0.4791 -1.1750
  787MOL0     C 8507   9.820   1.641   3.862 -0.5169  0.7011  0.5002
  787MOL0     C 8508   9.927   1.521   3.856 -0.4401 -0.8030 -0.0787
  787MOL0     C 8509  10.071   1.565   3.875 -0.4917 -0.0108 -0.4977
  787MOL0     C 8510  10.163   1.442   3.881 -0.1294 -0.0633  0.7415
  787MOL0     C 8511  10.303   1.487   3.937  0.5875  0.4533  0.4785
  787MOL0     C 8512  10.358   1.614   3.869 -0.1012 -0.4080 -0.0044
  787MOL0    Cl 8513  10.527   1.644   3.928 -0.0461 -0.1048  0.0012
  787MOL0     C 8514   9.437   1.936   3.981 -0.4895 -0.3048  0.7966
  787MOL0     C 8515   9.346   2.043   3.966 -0.2067  0.1508 -0.2937
  787MOL0     O 8516   9.265   2.315   3.671 -0.7975  0.1533  0.1441
  787MOL0     C 8517   9.163   2.507   3.959 -0.0430  0.6211 -0.2374
  787MOL0     C 8518   9.092   2.617   4.005  0.0131 -0.1128 -0.0471
  787MOL0     N 8519   8.451   3.083   3.769 -0.2677 -0.4254 -0.1984
  787MOL0     N 8520   8.324   3.100   3.784 -0.0601  0.2769 -0.2511
  787MOL0     C 8521   7.387   2.968   3.411 -0.3368 -0.5982 -0.6108
  787MOL0     C 8522   7.247   2.956   3.436  0.2812  0.2785  0.2535
  787MOL0     C 8523   6.812   2.803   3.529  0.7404  0.2266  0.2876
  787MOL0     C 8524   6.786   2.793   3.665  0.7367 -0.3490 -0.0474
  787MOL0     C 8525   6.656   2.757   3.710 -0.1202 -0.5779  0.9367
  787MOL0     C 8526   6.557   2.725   3.617 -0.3702  0.2598 -0.0295
  787MOL0     O 8527   6.426   2.705   3.634  0.8993 -0.2670 -0.7923
  787MOL0     C 8528   6.369   2.709   3.765 -0.5530  0.2924  0.0971
  787MOL0     C 8529   6.216   2.722   3.759  0.9239 -0.9990 -0.6987
  787MOL0     C 8530   6.153   2.612   3.683 -0.2341 -0.1761  0.6278
  787MOL0     C 8531   6.018   2.660   3.621 -0.6278  0.1650 -0.3358
  787MOL0     C 8532   5.906   2.672   3.716 -0.0292  0.4921 -0.1992
  787MOL0     C 8533   5.813   2.682   3.792  0.6485  0.8535  0.8448
  787MOL0     C 8534   6.593   2.730   3.482 -0.2928 -0.0137 -1.1491
  787MOL0     C 8535   6.714   2.767   3.433  0.6643 -0.6625  0.3613
  787MOL0     C 8536   6.737   2.779   3.285  0.9920 -0.9469 -0.2789
  787MOL0     H 8537   7.250   2.667   3.614 -2.4379  0.5364 -0.2856
  787MOL0     H 8538   7.497   2.674   3.539 -0.0221 -0.0848 -0.1114
  787MOL0     H 8539   7.660   2.680   3.392 -1.1745 -0.3453  2.4638
  787MOL0     H 8540   7.698   2.750   3.543 -0.1798 -0.8352  0.2493
  787MOL0     H 8541   7.890   2.725   3.382 -0.3254 -0.0484 -1.3764
  787MOL0     H 8542   7.830   2.852   3.289  2.0803  2.6365  0.9822
  787MOL0     H 8543   7.972   2.983   3.423  1.1422 -0.5321 -0.4739
  787MOL0     H 8544   7.836   2.985   3.532  0.2445 -1.2220  0.1350
  787MOL0     H 8545   7.934   2.775   3.638  4.1800  0.0886  5.6245
  787MOL0     H 8546   8.082   2.824   3.547  0.7283  1.8398 -2.0916
  787MOL0     H 8547   7.929   3.022   3.724  2.3927  3.6883 -0.2190
  787MOL0     H 8548   8.097   3.010   3.692 -1.1893  1.6759  0.5106
  787MOL0     H 8549   7.969   2.808   3.869  1.1096  1.1673  2.2697
  787MOL0     H 8550   8.139   2.822   3.825  0.6373  0.1253 -2.7391
  787MOL0     H 8551   8.054   2.897   4.062 -2.8201  0.2852  0.5067
  787MOL0     H 8552   7.946   3.011   3.999  2.2680  2.2745  2.2074
  787MOL0     H 8553   8.121   3.166   3.945 -0.6001 -0.1780  0.3715
  787MOL0     H 8554   8.189   3.082   4.076  0.3369  1.7439 -0.6688
  787MOL0     H 8555   8.385   2.923   4.052 -0.9490 -1.4216 -0.7556
  787MOL0     H 8556   8.700   3.049   3.869 -0.6847  0.1811  2.0344
  787MOL0     H 8557   8.654   2.888   3.826 -2.9438 -1.3143  0.7874
  787MOL0     H 8558   8.609   3.016   4.117  0.5231  0.5987  0.3602
  787MOL0     H 8559   8.638   2.847   4.073  0.9419  0.1808  0.8785
  787MOL0     H 8560   8.860   3.027   3.999  0.0157 -1.6633 -1.8133
  787MOL0     H 8561   8.840   3.004   4.175 -0.6442 -3.8519  1.3481
  787MOL0     H 8562   8.995   2.844   4.122  0.0137 -3.0349  1.7260
  787MOL0     H 8563   8.846   2.761   4.136  0.1142  1.5806  1.9804
  787MOL0     H 8564   8.953   2.702   3.708 -0.1012 -2.3988 -2.8179
  787MOL0     H 8565   9.129   2.498   3.526 -2.0984 -1.0497 -2.2992
  787MOL0     H 8566   8.971   2.539   3.539  2.7564  1.7610 -1.5124
  787MOL0     H 8567   9.005   2.383   3.591 -0.4141 -0.0651  1.2294
  787MOL0     H 8568   9.511   2.240   3.742  1.0095  0.0973 -0.3266
  787MOL0     H 8569   9.671   2.047   3.756 -0.5743 -0.6082 -1.6753
  787MOL0     H 8570   9.629   1.773   4.101 -1.7898  2.8690 -1.7990
  787MOL0     H 8571   9.547   1.699   3.971 -0.8969 -0.3554  1.9994
  787MOL0     H 8572   9.822   1.682   4.070 -3.5323  3.4614  0.2173
  787MOL0     H 8573   9.710   1.546   4.025  0.3984 -0.4716 -0.1174
  787MOL0     H 8574   9.874   1.734   3.846 -0.8402  0.7446 -0.3999
  787MOL0     H 8575   9.748   1.629   3.780  1.4284  0.9007 -1.3002
  787MOL0     H 8576   9.920   1.476   3.756  0.2270  0.6415 -0.8024
  787MOL0     H 8577   9.914   1.452   3.940  0.7641 -0.7278  0.1844
  787MOL0     H 8578  10.098   1.625   3.787  0.5326  0.0184 -0.1752
  787MOL0     H 8579  10.081   1.615   3.971 -0.6853  0.0685 -0.5189
  787MOL0     H 8580  10.175   1.414   3.776 -0.8470  0.7678  0.4283
  787MOL0     H 8581  10.112   1.367   3.943 -1.3537  1.7423  2.0085
  787MOL0     H 8582  10.374   1.403   3.929  0.8753  0.5816  1.4990
  787MOL0     H 8583  10.296   1.504   4.045 -0.3335 -0.1473  0.5223
  787MOL0     H 8584  10.304   1.703   3.904  1.4872  0.5285  0.1453
  787MOL0     H 8585  10.341   1.614   3.761  0.6121  0.1167 -0.1216
  787MOL0     H 8586   9.404   1.842   4.023  1.8089 -1.0455  1.1040
  787MOL0     H 8587   9.252   2.021   4.013  0.9556 -0.9360  1.6317
  787MOL0     H 8588   9.221   2.444   4.026  2.6515  0.5454 -2.4385
  787MOL0     H 8589   9.085   2.645   4.109  0.9682  0.8454 -0.2228
  787MOL0     H 8590   7.428   3.054   3.359  1.7955  2.5198  5.2558
  787MOL0     H 8591   7.180   3.037   3.413 -1.2676 -0.9473  0.2593
  787MOL0     H 8592   6.866   2.821   3.733  1.7987 -2.5439 -0.3054
  787MOL0     H 8593   6.640   2.766   3.817 -0.0435  1.1998  0.8223
  787MOL0     H 8594   6.396   2.617   3.818  0.7137  0.7222  0.2393
  787MOL0     H 8595   6.395   2.803   3.816 -1.2368  2.0759 -2.6066
  787MOL0     H 8596   6.183   2.819   3.719  1.8400  0.1773  1.2328
  787MOL0     H 8597   6.178   2.714   3.861 -0.8594 -2.6535 -1.4384
  787MOL0     H 8598   6.220   2.578   3.604  0.5477  0.9892  0.7702
  787MOL0     H 8599   6.134   2.522   3.742 -0.1870 -0.7826 -0.2659
  787MOL0     H 8600   5.972   2.602   3.541  0.6700 -1.1236 -0.2125
  787MOL0     H 8601   6.031   2.752   3.564 -0.0764 -0.1944 -0.8056
  787MOL0     H 8602   5.731   2.695   3.859  1.2728 -0.5777  1.9376
  787MOL0     H 8603   6.530   2.704   3.398  1.4942  2.0802 -3.3147
  787MOL0     H 8604   6.680   2.704   3.228 -2.3032  1.4078 -0.3783
  787MOL0     H 8605   6.692   2.874   3.255  1.3444 -1.0130 -1.0652
  787MOL0     H 8606   6.842   2.778   3.254  2.0384  0.5885  2.8469
  788MOL0     O 8607   8.313   5.749   8.867  0.9778  0.4379  0.1656
  788MOL0     C 8608   8.407   5.735   8.950 -0.5318  0.8803 -0.6652
  788MOL0     O 8609   8.537   5.709   8.914  0.2945 -0.0404  0.1031
  788MOL0     C 8610   8.572   5.672   8.784 -0.0439 -0.1283 -0.5441
  788MOL0     C 8611   8.486   5.594   8.706  0.2769 -0.6312  0.1020
  788MOL0     C 8612   8.520   5.551   8.583  0.1216 -0.5476  1.0468
  788MOL0     C 8613   8.639   5.584   8.524 -0.6982 -0.4334 -0.0895
  788MOL0     O 8614   8.673   5.548   8.392 -0.4261  0.0155  0.0539
  788MOL0     C 8615   8.572   5.519   8.295 -0.0148  0.0034  0.2228
  788MOL0     C 8616   8.643   5.516   8.165  0.3074  0.6749  0.2427
  788MOL0     C 8617   8.775   5.433   8.145 -0.0107 -0.0414  0.7321
  788MOL0     C 8618   8.811   5.404   7.999 -0.4121 -0.8016 -0.4613
  788MOL0     C 8619   8.957   5.429   7.963 -0.0688 -0.1285  0.5288
  788MOL0     C 8620   8.999   5.577   7.963 -0.1390  0.2690 -0.0056
  788MOL0     C 8621   9.138   5.602   7.911 -0.8047  0.4249 -0.3476
  788MOL0     C 8622   9.156   5.559   7.765  0.3560 -0.7921 -0.5714
  788MOL0     N 8623   9.284   5.610   7.717 -0.4927  0.0324 -0.2167
  788MOL0     C 8624   9.302   5.649   7.583 -0.5376 -0.0334 -0.0950
  788MOL0     C 8625   9.433   5.668   7.572 -0.2237 -0.8367 -1.6466
  788MOL0     C 8626   9.516   5.694   7.453 -0.1391  0.0291 -0.0594
  788MOL0     C 8627   9.600   5.823   7.467 -0.0748  0.0877  1.0688
  788MOL0     C 8628   9.698   5.819   7.349 -0.0382  0.1840  0.6252
  788MOL0     C 8629   9.784   5.940   7.347 -0.6913 -1.0315 -0.2888
  788MOL0     O 8630   9.913   5.930   7.278  0.0315 -0.3297  0.0997
  788MOL0     C 8631  10.026   5.895   7.352 -0.0686 -0.1061  0.2124
  788MOL0     C 8632  10.018   5.808   7.459  0.5782 -0.6762 -0.5271
  788MOL0     C 8633  10.127   5.779   7.543  0.3575 -0.1931 -0.9338
  788MOL0     C 8634  10.093   5.710   7.672  0.8890  0.5599 -0.5643
  788MOL0     C 8635  10.251   5.832   7.508 -0.2665  0.3073  0.1944
  788MOL0     C 8636  10.374   5.795   7.585 -0.1985  0.3130  0.0959
  788MOL0     O 8637  10.478   5.885   7.567  0.2586  0.0870 -0.9649
  788MOL0     C 8638  10.594   5.879   7.644 -0.0538 -1.2328  0.7995
  788MOL0     C 8639  10.668   6.000   7.622  0.0122  0.2572  0.7834
  788MOL0     C 8640  10.792   6.022   7.689 -0.1790  0.3535  0.3047
  788MOL0     C 8641  10.836   5.920   7.779  0.9250 -0.1395  0.2261
  788MOL0     O 8642  10.962   5.928   7.831  0.0408  0.0257  0.7291
  788MOL0     C 8643  11.051   5.823   7.778  0.8708  0.4852  0.6844
  788MOL0     C 8644  11.200   5.832   7.820  0.8821 -0.6247  0.4875
  788MOL0     C 8645  11.265   5.971   7.789  0.0784 -0.1889 -0.1639
  788MOL0     C 8646  11.413   5.984   7.825  0.1247  0.0228  0.0826
  788MOL0     C 8647  11.473   6.119   7.805 -0.4343  0.3967  0.4020
  788MOL0     C 8648  11.386   6.228   7.853 -0.3830  0.1724  1.0919
  788MOL0     C 8649  11.471   6.357   7.853  0.0037 -0.4580  0.5486
  788MOL0     C 8650  11.377   6.473   7.868  0.7484 -0.3941 -0.5735
  788MOL0    Cl 8651  11.313   6.457   8.035  0.5185  0.4557  0.6609
  788MOL0     C 8652  10.765   5.801   7.798  0.5773  0.1453 -0.2028
  788MOL0     C 8653  10.642   5.786   7.730 -1.0214 -0.0697  0.0308
  788MOL0     O 8654  10.380   5.690   7.641  0.2529 -0.4473  0.4750
  788MOL0     C 8655  10.253   5.923   7.402 -0.3055 -0.4965 -0.6133
  788MOL0     C 8656  10.141   5.956   7.319  0.0858  0.3459  0.2801
  788MOL0     N 8657   9.487   5.666   7.707  0.3182  0.4977 -0.0401
  788MOL0     N 8658   9.397   5.627   7.789  0.3256  0.0834 -0.1086
  788MOL0     C 8659   8.731   5.648   8.609  0.1818  0.6210  0.4900
  788MOL0     C 8660   8.694   5.700   8.733 -0.7075  0.2101  0.4283
  788MOL0     C 8661   8.372   5.739   9.094  0.3794  0.8902  0.3383
  788MOL0     C 8662   8.480   5.741   9.187 -0.3115  0.3055  0.9288
  788MOL0     C 8663   8.455   5.752   9.316  0.7730  0.4036 -0.4621
  788MOL0     C 8664   8.321   5.757   9.377 -0.6440  0.3314 -0.8511
  788MOL0     O 8665   8.300   5.765   9.513 -0.4305 -0.0638  0.3139
  788MOL0     C 8666   8.419   5.747   9.595  0.0058 -0.3868 -0.1411
  788MOL0     C 8667   8.473   5.600   9.597  0.5430 -0.4236  0.0099
  788MOL0     C 8668   8.577   5.581   9.707 -0.7148  0.4700  0.7292
  788MOL0     C 8669   8.675   5.472   9.670 -0.4053  0.5767  0.1125
  788MOL0     C 8670   8.785   5.452   9.760  0.0138  0.4896  0.7537
  788MOL0     C 8671   8.882   5.439   9.827  0.1767 -0.5991 -0.4059
  788MOL0     C 8672   8.215   5.755   9.294 -0.4298  0.1781  0.7815
  788MOL0     C 8673   8.230   5.742   9.151 -0.3498  0.0929 -0.9640
  788MOL0     C 8674   8.105   5.739   9.073 -0.2597  0.4084  0.4295
  788MOL0     H 8675   8.390   5.553   8.735 -1.6197  2.5195 -1.2350
  788MOL0     H 8676   8.447   5.494   8.526 -1.5228 -0.3645  2.8518
  788MOL0     H 8677   8.497   5.599   8.297 -1.4849 -1.1896 -2.1408
  788MOL0     H 8678   8.516   5.428   8.319 -0.0187 -0.0772 -0.0800
  788MOL0     H 8679   8.570   5.473   8.096  0.2964  2.2166 -0.7750
  788MOL0     H 8680   8.656   5.621   8.135  2.8647  0.5671  0.7394
  788MOL0     H 8681   8.849   5.507   8.177 -0.4939  0.7265  0.1182
  788MOL0     H 8682   8.774   5.342   8.205 -1.3382 -2.7239 -2.9847
  788MOL0     H 8683   8.781   5.305   7.965  0.5054 -0.8299 -1.2225
  788MOL0     H 8684   8.747   5.473   7.943 -0.9829 -0.0344  1.0688
  788MOL0     H 8685   8.976   5.385   7.865  0.6263  2.0293 -0.3796
  788MOL0     H 8686   9.023   5.380   8.035  0.6232  0.3785  0.2567
  788MOL0     H 8687   8.919   5.616   7.900 -2.8882 -3.1511  1.0943
  788MOL0     H 8688   8.986   5.605   8.068 -1.9512 -0.9536  0.1301
  788MOL0     H 8689   9.209   5.555   7.980  0.4305  0.8057 -1.3287
  788MOL0     H 8690   9.152   5.710   7.922  2.4956  0.0368  0.3578
  788MOL0     H 8691   9.151   5.450   7.758 -0.0871 -0.7369 -1.1719
  788MOL0     H 8692   9.074   5.612   7.716 -0.1806 -0.5924  0.5167
  788MOL0     H 8693   9.230   5.649   7.501  0.9550  0.4746 -1.4663
  788MOL0     H 8694   9.463   5.695   7.358  1.6750  2.2843 -1.1415
  788MOL0     H 8695   9.583   5.611   7.430 -1.1928 -0.4939 -1.3578
  788MOL0     H 8696   9.526   5.904   7.462 -0.1909 -0.0762 -1.0361
  788MOL0     H 8697   9.662   5.819   7.557 -0.8048  2.3780  1.7391
  788MOL0     H 8698   9.758   5.728   7.358 -4.1308 -2.8089  0.6432
  788MOL0     H 8699   9.631   5.811   7.263  1.5604  0.1292 -0.6530
  788MOL0     H 8700   9.724   6.016   7.296 -0.3725  0.5545  1.5554
  788MOL0     H 8701   9.796   5.960   7.454 -2.7127  2.0034 -0.4884
  788MOL0     H 8702   9.925   5.753   7.466 -1.9629  3.3831  0.7866
  788MOL0     H 8703  10.151   5.747   7.758 -1.5048 -1.9418  2.3527
  788MOL0     H 8704  10.098   5.601   7.665  0.5448  0.4912  0.1621
  788MOL0     H 8705   9.989   5.735   7.693  0.9440  1.6653 -1.5253
  788MOL0     H 8706  10.620   6.071   7.555 -1.0719 -0.1161  1.1402
  788MOL0     H 8707  10.850   6.112   7.675 -0.6555  0.1855 -3.7754
  788MOL0     H 8708  11.004   5.728   7.804 -2.1669  0.3626 -4.0577
  788MOL0     H 8709  11.046   5.828   7.669 -0.0598  0.3875  0.7116
  788MOL0     H 8710  11.218   5.805   7.925  0.7332  2.0177  1.2861
  788MOL0     H 8711  11.261   5.768   7.756  4.4084  1.3087  1.6492
  788MOL0     H 8712  11.207   6.042   7.848  0.1306  1.7544 -2.3027
  788MOL0     H 8713  11.251   5.994   7.683 -0.8650  0.8690  0.1790
  788MOL0     H 8714  11.467   5.908   7.768 -1.6598  0.8848 -2.9958
  788MOL0     H 8715  11.413   5.957   7.931 -1.5082  0.9488  0.3649
  788MOL0     H 8716  11.567   6.121   7.861 -0.4448  1.5328  0.3962
  788MOL0     H 8717  11.483   6.138   7.697 -1.6881  0.3887  0.2718
  788MOL0     H 8718  11.362   6.201   7.956  3.4749  0.5093  2.2620
  788MOL0     H 8719  11.298   6.242   7.790  1.9050  1.2069 -2.1314
  788MOL0     H 8720  11.519   6.376   7.757 -0.7126  3.7626  0.8109
  788MOL0     H 8721  11.548   6.360   7.931  0.3425  0.1047  0.2008
  788MOL0     H 8722  11.291   6.453   7.803  0.2660 -1.9289  0.4821
  788MOL0     H 8723  11.428   6.570   7.863 -0.7386  0.3701 -2.7804
  788MOL0     H 8724  10.795   5.729   7.874 -1.4753 -0.2450  0.3051
  788MOL0     H 8725  10.579   5.700   7.751  0.2059 -0.1182  4.5620
  788MOL0     H 8726  10.352   5.960   7.377 -0.5453 -0.8388 -2.2015
  788MOL0     H 8727  10.147   6.039   7.250 -0.3503  0.8184  0.7905
  788MOL0     H 8728   8.827   5.665   8.560  1.0571 -0.7676  1.6324
  788MOL0     H 8729   8.763   5.767   8.783  0.0625 -1.0727  1.1400
  788MOL0     H 8730   8.585   5.735   9.161 -0.2376 -1.1239  1.4550
  788MOL0     H 8731   8.545   5.764   9.375  0.3398  0.8510  0.1158
  788MOL0     H 8732   8.494   5.820   9.563  0.4512 -0.9691 -0.4380
  788MOL0     H 8733   8.402   5.779   9.698  3.3307  0.4136  0.2751
  788MOL0     H 8734   8.505   5.570   9.496  0.7935  2.5647 -0.9051
  788MOL0     H 8735   8.389   5.539   9.631  2.2466 -1.9070  1.7485
  788MOL0     H 8736   8.639   5.668   9.731  2.6663 -1.7949  0.7894
  788MOL0     H 8737   8.523   5.536   9.791 -2.0411 -0.1373 -0.3976
  788MOL0     H 8738   8.723   5.499   9.575  2.4675 -1.1989  0.9368
  788MOL0     H 8739   8.616   5.381   9.661 -0.2064  0.4346  0.2486
  788MOL0     H 8740   8.967   5.420   9.889  0.2618  0.3545 -0.2251
  788MOL0     H 8741   8.114   5.751   9.333 -1.9230 -0.8165 -2.7922
  788MOL0     H 8742   8.098   5.831   9.014  0.6175  0.4498  0.3727
  788MOL0     H 8743   8.113   5.654   9.005  0.4478 -0.6123  1.7406
  788MOL0     H 8744   8.018   5.705   9.129 -0.4122 -2.2081 -1.2388
  789MOL0     O 8745   5.955  11.332   0.153 -0.5231 -0.3459 -0.3746
  789MOL0     C 8746   5.898  11.444   0.140 -0.0840 -0.3298  0.3962
  789MOL0     O 8747   5.943  11.567   0.176 -0.3986  0.6087  0.7098
  789MOL0     C 8748   6.081  11.571   0.198 -0.1218 -0.4983 -0.6208
  789MOL0     C 8749   6.137  11.631   0.312  0.1558 -0.5844  0.2928
  789MOL0     C 8750   6.281  11.632   0.336  0.4242  0.1078 -0.3738
  789MOL0     C 8751   6.363  11.567   0.249  0.7999  0.5504 -0.2159
  789MOL0     O 8752   6.493  11.561   0.300 -0.2803  0.0917 -0.5419
  789MOL0     C 8753   6.607  11.515   0.227 -0.5548 -0.5689  0.0670
  789MOL0     C 8754   6.731  11.612   0.244 -0.4613 -0.3834  0.2435
  789MOL0     C 8755   6.842  11.571   0.141  0.3756  0.3615 -0.2931
  789MOL0     C 8756   6.965  11.650   0.175 -0.0063  0.3720 -0.4023
  789MOL0     C 8757   7.084  11.591   0.109 -0.3435  0.3448  0.8090
  789MOL0     C 8758   7.203  11.694   0.121  0.3175 -0.5798  0.3023
  789MOL0     C 8759   7.326  11.649   0.055  0.2877 -0.0719  0.4996
  789MOL0     C 8760   7.454  11.717   0.118  0.3620  0.7631  0.1638
  789MOL0     N 8761   7.568  11.718   0.032  0.1280  0.2661  1.1239
  789MOL0     C 8762   7.677  11.630   0.045  0.1129 -0.6272 -0.1508
  789MOL0     C 8763   7.753  11.654  -0.071  0.0781  0.2877  1.3079
  789MOL0     C 8764   7.887  11.599  -0.111 -0.4524 -0.3599 -0.2038
  789MOL0     C 8765   7.900  11.455  -0.058  0.2607 -0.6889 -0.8822
  789MOL0     C 8766   8.023  11.402  -0.125 -0.5927  1.0529  0.6986
  789MOL0     C 8767   8.152  11.457  -0.070 -0.2554 -0.5318 -0.0309
  789MOL0     O 8768   8.253  11.352  -0.081  0.5819  0.8268 -0.1467
  789MOL0     C 8769   8.374  11.375  -0.031  0.7237 -0.0431 -0.3279
  789MOL0     C 8770   8.465  11.271  -0.031 -0.2241 -1.4937 -0.8036
  789MOL0     C 8771   8.597  11.278   0.004 -0.2419  0.3954 -0.1510
  789MOL0     C 8772   8.666  11.146  -0.004  0.4446 -0.1141  0.1628
  789MOL0     C 8773   8.651  11.406   0.025 -0.3921  0.6028 -0.0667
  789MOL0     C 8774   8.797  11.430   0.043 -0.0431 -0.2880  0.5726
  789MOL0     O 8775   8.832  11.557   0.073 -0.0108  0.1676  0.4269
  789MOL0     C 8776   8.970  11.593   0.086 -0.2675 -0.5758  0.0138
  789MOL0     C 8777   8.997  11.683   0.181 -1.3233 -0.0682  0.2541
  789MOL0     C 8778   9.128  11.682   0.229 -0.3992  0.2909  0.0299
  789MOL0     C 8779   9.231  11.597   0.186  0.4219  0.0972  0.0299
  789MOL0     O 8780   9.346  11.565   0.245  0.5375  0.3123 -0.0004
  789MOL0     C 8781   9.378  11.655   0.357 -0.5846 -0.4445  0.1126
  789MOL0     C 8782   9.530  11.633   0.401 -0.6526 -0.0359  0.0211
  789MOL0     C 8783   9.640  11.739   0.373  0.2220 -0.3353  0.0245
  789MOL0     C 8784   9.610  11.874   0.445  0.3683 -0.4967  0.3447
  789MOL0     C 8785   9.662  11.997   0.368  0.5858  0.8388  0.5315
  789MOL0     C 8786   9.816  11.986   0.347  0.5677 -0.4754 -0.2285
  789MOL0     C 8787   9.876  12.119   0.309 -0.6742 -1.3518  0.4394
  789MOL0     C 8788  10.019  12.122   0.265 -0.0293 -0.2155  0.3787
  789MOL0    Cl 8789  10.119  12.097   0.403 -0.0225 -0.5020  0.3290
  789MOL0     C 8790   9.205  11.521   0.074  0.1754  0.4086 -1.0540
  789MOL0     C 8791   9.073  11.525   0.027  0.6434  0.2713  0.9250
  789MOL0     O 8792   8.876  11.337   0.022  0.0193  0.5108 -0.3558
  789MOL0     C 8793   8.558  11.511   0.031  0.6930 -0.7656  0.4385
  789MOL0     C 8794   8.420  11.503   0.007 -0.3511  0.8747 -0.6989
  789MOL0     N 8795   7.696  11.761  -0.140  0.4841  0.5595  0.6480
  789MOL0     N 8796   7.586  11.796  -0.084 -0.4143 -0.2819 -0.3484
  789MOL0     C 8797   6.318  11.516   0.128  0.2361 -0.8450  0.0357
  789MOL0     C 8798   6.175  11.512   0.110  0.6950  0.3203  1.2031
  789MOL0     C 8799   5.766  11.441   0.078 -0.0551  0.1711 -0.3525
  789MOL0     C 8800   5.715  11.566   0.037 -0.7069  0.5765 -0.1419
  789MOL0     C 8801   5.588  11.573  -0.014 -0.1375  0.7527  1.1079
  789MOL0     C 8802   5.509  11.459  -0.027  0.2374  0.2476 -0.7089
  789MOL0     O 8803   5.383  11.492  -0.073  0.2501 -0.3370 -0.3729
  789MOL0     C 8804   5.304  11.387  -0.110  0.2879  0.4977  0.8776
  789MOL0     C 8805   5.161  11.423  -0.147  0.1430 -0.3230 -0.5387
  789MOL0     C 8806   5.156  11.500  -0.283 -0.2521 -0.1453 -0.2521
  789MOL0     C 8807   5.019  11.572  -0.286 -0.4717 -0.4992 -0.4820
  789MOL0     C 8808   5.001  11.683  -0.188 -0.9186  0.1658 -0.6353
  789MOL0     C 8809   4.964  11.761  -0.098 -0.9959 -0.0696 -0.1155
  789MOL0     C 8810   5.556  11.338   0.010  0.1372  0.1838  0.5845
  789MOL0     C 8811   5.683  11.326   0.074  0.1359  0.5416  0.0314
  789MOL0     C 8812   5.706  11.201   0.147 -0.2314  0.1961  0.0797
  789MOL0     H 8813   6.064  11.671   0.381 -1.6734 -1.8733 -0.8290
  789MOL0     H 8814   6.314  11.673   0.430  0.2146 -2.0954  0.7173
  789MOL0     H 8815   6.587  11.515   0.119  1.6283  3.0256 -0.4960
  789MOL0     H 8816   6.635  11.413   0.254  0.4967 -0.7618 -1.6053
  789MOL0     H 8817   6.703  11.714   0.216  1.0098 -0.2866 -0.9638
  789MOL0     H 8818   6.769  11.597   0.346  0.4116 -2.2500 -0.3135
  789MOL0     H 8819   6.861  11.464   0.153  0.9494 -0.2793 -4.8528
  789MOL0     H 8820   6.811  11.585   0.037 -0.1604  0.6898 -0.0929
  789MOL0     H 8821   6.951  11.750   0.135  1.6883  1.0129  0.5012
  789MOL0     H 8822   6.978  11.655   0.284  0.0182 -1.5773 -0.2791
  789MOL0     H 8823   7.061  11.568   0.004  2.5713  1.2348 -0.1245
  789MOL0     H 8824   7.115  11.501   0.164  0.1134 -0.6023 -0.8899
  789MOL0     H 8825   7.162  11.790   0.087 -2.5233 -2.1771 -1.1212
  789MOL0     H 8826   7.225  11.710   0.227 -1.9077  2.7974  0.4219
  789MOL0     H 8827   7.321  11.685  -0.048 -0.9679 -2.3486 -0.3271
  789MOL0     H 8828   7.342  11.540   0.059  0.2542 -0.0573  1.1110
  789MOL0     H 8829   7.417  11.820   0.124 -1.8233  0.2791 -2.5653
  789MOL0     H 8830   7.471  11.671   0.216 -1.5710  0.8544  0.5862
  789MOL0     H 8831   7.710  11.559   0.120 -1.2551  0.4355  1.5265
  789MOL0     H 8832   7.969  11.653  -0.062 -0.2031 -2.1630  1.4884
  789MOL0     H 8833   7.896  11.608  -0.219  3.3399  0.5083  0.0568
  789MOL0     H 8834   7.914  11.454   0.051  1.7267  2.3209 -0.9183
  789MOL0     H 8835   7.814  11.395  -0.087 -0.2916 -0.2953 -0.1099
  789MOL0     H 8836   8.024  11.293  -0.119  1.8823  0.6776 -3.1693
  789MOL0     H 8837   8.009  11.418  -0.233 -3.3533 -0.0149  0.7941
  789MOL0     H 8838   8.182  11.541  -0.133 -0.4022 -1.6457 -1.6574
  789MOL0     H 8839   8.139  11.479   0.036  0.1194 -0.2238 -0.0486
  789MOL0     H 8840   8.433  11.181  -0.084  0.6550 -0.3894 -3.3659
  789MOL0     H 8841   8.601  11.068  -0.046 -1.9810  0.5194  2.4168
  789MOL0     H 8842   8.699  11.117   0.096  2.0649 -0.1119 -0.3437
  789MOL0     H 8843   8.753  11.151  -0.070 -0.4042  2.6674 -0.8806
  789MOL0     H 8844   8.925  11.755   0.218  0.9895  1.5045  1.9494
  789MOL0     H 8845   9.148  11.738   0.320  4.9875 -1.9816  0.6386
  789MOL0     H 8846   9.364  11.759   0.327 -1.9151  0.2428  2.8493
  789MOL0     H 8847   9.309  11.645   0.441 -0.7635  0.9343  0.1548
  789MOL0     H 8848   9.535  11.627   0.510 -1.0028 -0.0120  0.0390
  789MOL0     H 8849   9.569  11.538   0.363  1.8488  1.3511 -1.1427
  789MOL0     H 8850   9.629  11.765   0.267 -0.6146  1.4452  0.5184
  789MOL0     H 8851   9.735  11.697   0.407 -1.2005 -1.5602  2.8194
  789MOL0     H 8852   9.646  11.862   0.548 -0.2699 -0.5896  0.5612
  789MOL0     H 8853   9.503  11.892   0.460  0.3074 -0.5211 -0.0404
  789MOL0     H 8854   9.618  12.003   0.268  1.8145 -2.3347 -0.3224
  789MOL0     H 8855   9.632  12.087   0.422  1.1044  2.7633 -2.1647
  789MOL0     H 8856   9.819  11.924   0.257  3.0394  1.6496 -1.7450
  789MOL0     H 8857   9.869  11.948   0.435 -0.2486  0.3904  0.6715
  789MOL0     H 8858   9.858  12.195   0.387  0.9783  0.2671 -0.6800
  789MOL0     H 8859   9.822  12.158   0.222  2.9216  3.7010  0.0272
  789MOL0     H 8860  10.028  12.224   0.225 -0.1317 -0.5810 -0.5947
  789MOL0     H 8861  10.035  12.044   0.190  0.4646  0.1917  0.0510
  789MOL0     H 8862   9.285  11.457   0.039 -0.3058 -1.8006  1.5325
  789MOL0     H 8863   9.055  11.451  -0.051 -0.5596 -0.6287  2.0141
  789MOL0     H 8864   8.583  11.617   0.043  2.3239 -1.3755  3.8287
  789MOL0     H 8865   8.362  11.595   0.006  0.8200  1.6369 -1.2954
  789MOL0     H 8866   6.384  11.480   0.050 -0.3861 -2.7023  0.3381
  789MOL0     H 8867   6.139  11.455   0.025 -0.8098  1.0635  1.3029
  789MOL0     H 8868   5.762  11.664   0.041 -2.2462  1.2915  2.1452
  789MOL0     H 8869   5.555  11.667  -0.057  4.2923  2.2128  0.3524
  789MOL0     H 8870   5.342  11.319  -0.187 -3.2416  0.0672 -0.6975
  789MOL0     H 8871   5.295  11.321  -0.023  0.0800 -2.3199 -1.1266
  789MOL0     H 8872   5.110  11.473  -0.065 -2.4737  0.4343 -2.4924
  789MOL0     H 8873   5.109  11.328  -0.158  1.1170 -0.9302 -0.0421
  789MOL0     H 8874   5.238  11.573  -0.280 -0.9367  0.6585 -0.7124
  789MOL0     H 8875   5.165  11.427  -0.364 -3.3737 -2.3209  1.1718
  789MOL0     H 8876   4.930  11.510  -0.270  1.1198 -2.4907  1.0250
  789MOL0     H 8877   5.006  11.607  -0.389 -0.4531  0.2337 -0.2387
  789MOL0     H 8878   4.946  11.842  -0.031  2.2479  0.2683  0.4958
  789MOL0     H 8879   5.496  11.249  -0.004 -1.2643  1.0838  0.7324
  789MOL0     H 8880   5.621  11.132   0.141  1.0962 -1.3984 -2.4220
  789MOL0     H 8881   5.789  11.149   0.098  0.1209 -0.1896  1.0582
  789MOL0     H 8882   5.730  11.206   0.253 -2.5686 -0.7346  0.7176
  790MOL0     O 8883   0.035   6.212   1.286  0.4576 -0.2861 -0.8712
  790MOL0     C 8884   0.068   6.183   1.172 -0.9786 -0.2008 -0.4676
  790MOL0     O 8885   0.192   6.164   1.136 -0.2555  0.7502  0.5154
  790MOL0     C 8886   0.300   6.202   1.215  0.5972  0.0661  0.6500
  790MOL0     C 8887   0.415   6.123   1.224 -0.3676 -0.5161  0.5293
  790MOL0     C 8888   0.535   6.170   1.275  0.2506  0.4632  0.4207
  790MOL0     C 8889   0.543   6.305   1.313  0.4262 -0.6973  0.6998
  790MOL0     O 8890   0.658   6.365   1.337 -0.6751 -0.6487 -0.0867
  790MOL0     C 8891   0.780   6.328   1.265 -1.0616  0.0514 -0.9572
  790MOL0     C 8892   0.894   6.434   1.273 -0.5585  0.1104 -0.2329
  790MOL0     C 8893   0.944   6.445   1.424  1.0172 -0.2248  0.4465
  790MOL0     C 8894   0.933   6.589   1.484 -0.4448  0.6529  0.1951
  790MOL0     C 8895   0.797   6.623   1.545  0.5610  0.0132  0.1534
  790MOL0     C 8896   0.765   6.761   1.574 -0.5588 -0.2328  0.4583
  790MOL0     C 8897   0.870   6.823   1.661  0.2136 -0.1419 -0.7417
  790MOL0     C 8898   0.822   6.947   1.729 -0.5361  0.2199  0.6709
  790MOL0     N 8899   0.934   7.025   1.778  0.3946 -0.3413 -0.3458
  790MOL0     C 8900   1.011   6.994   1.885  0.1823 -0.2624  0.0576
  790MOL0     C 8901   1.108   7.092   1.891  0.2761  0.5686  0.6332
  790MOL0     C 8902   1.216   7.095   1.998  0.5451  0.3224  0.1683
  790MOL0     C 8903   1.324   7.005   1.925 -0.0040  0.6290  0.3966
  790MOL0     C 8904   1.458   6.990   2.012 -0.3309  0.2536 -0.3114
  790MOL0     C 8905   1.569   6.947   1.924 -0.4617  0.3757 -0.1492
  790MOL0     O 8906   1.619   7.036   1.824 -0.2261  0.1705  0.0848
  790MOL0     C 8907   1.734   7.100   1.853  1.2710 -0.3713 -0.3002
  790MOL0     C 8908   1.846   7.082   1.773  0.2962  0.1753  0.2602
  790MOL0     C 8909   1.968   7.148   1.792 -0.0667 -0.0158  0.2251
  790MOL0     C 8910   2.079   7.127   1.691 -0.5596  0.6835  0.5099
  790MOL0     C 8911   1.984   7.227   1.907 -0.2127 -0.8001 -0.4652
  790MOL0     C 8912   2.103   7.290   1.951 -0.2094  0.5088  0.3022
  790MOL0     O 8913   2.115   7.330   2.083 -0.1734  0.5597  0.0036
  790MOL0     C 8914   2.207   7.426   2.122  0.1111  0.4118 -0.4662
  790MOL0     C 8915   2.261   7.534   2.053 -0.1530 -0.5124  0.2306
  790MOL0     C 8916   2.356   7.626   2.104 -0.2036 -0.2487 -0.8649
  790MOL0     C 8917   2.386   7.617   2.242  0.4700 -0.3167  0.2180
  790MOL0     O 8918   2.489   7.691   2.301  0.0850  0.3365 -0.2126
  790MOL0     C 8919   2.614   7.672   2.233  0.6591  0.2355  0.0837
  790MOL0     C 8920   2.725   7.711   2.320 -0.3455 -0.2554 -0.0204
  790MOL0     C 8921   2.721   7.870   2.342  0.3065  0.2280  0.5347
  790MOL0     C 8922   2.793   7.915   2.472  0.3692 -0.2346  0.7691
  790MOL0     C 8923   2.798   8.069   2.479 -0.2335  0.2621  0.8518
  790MOL0     C 8924   2.837   8.129   2.616  0.3194  0.6565  0.5865
  790MOL0     C 8925   2.806   8.284   2.618  0.3508 -0.0842 -0.7858
  790MOL0     C 8926   2.806   8.342   2.761 -0.4951 -0.6402 -0.2218
  790MOL0    Cl 8927   2.963   8.315   2.849  0.0294 -0.3880  0.0938
  790MOL0     C 8928   2.328   7.522   2.315 -0.0650  0.3522  0.2024
  790MOL0     C 8929   2.240   7.428   2.260 -0.4987  0.6117 -0.3266
  790MOL0     O 8930   2.187   7.314   1.866  0.3424  0.5182 -0.0464
  790MOL0     C 8931   1.870   7.249   1.987  0.0674 -0.6094  0.1247
  790MOL0     C 8932   1.752   7.189   1.959  1.1105 -1.1636  0.2836
  790MOL0     N 8933   1.074   7.180   1.789  0.1846  0.7124  0.3044
  790MOL0     N 8934   0.973   7.145   1.720  0.1010  0.4806 -0.2006
  790MOL0     C 8935   0.432   6.384   1.314 -0.2594  0.3622 -0.6076
  790MOL0     C 8936   0.310   6.332   1.271 -0.7297  0.0129  0.0593
  790MOL0     C 8937  -0.037   6.147   1.064  1.3297  0.1731 -0.1072
  790MOL0     C 8938   0.001   6.132   0.926 -0.7473  0.4577 -0.2107
  790MOL0     C 8939  -0.085   6.107   0.820 -0.6040  0.1345  0.2282
  790MOL0     C 8940  -0.219   6.089   0.838 -0.1652  0.0054 -0.8095
  790MOL0     O 8941  -0.315   6.083   0.739 -0.1074 -0.2913 -0.7051
  790MOL0     C 8942  -0.272   6.045   0.611  0.0769 -0.5826 -0.1791
  790MOL0     C 8943  -0.408   6.017   0.547  0.0281  0.2578 -0.3995
  790MOL0     C 8944  -0.388   5.931   0.427 -0.1515 -0.4426  0.1183
  790MOL0     C 8945  -0.522   5.910   0.362 -0.5481 -0.8635  0.1536
  790MOL0     C 8946  -0.516   5.810   0.252  0.0419 -0.6996 -0.0204
  790MOL0     C 8947  -0.528   5.675   0.115 -0.8184  0.9318  0.1649
  790MOL0     C 8948  -0.268   6.107   0.970 -0.8762 -0.2911 -0.0409
  790MOL0     C 8949  -0.183   6.124   1.083  0.1268 -0.7159 -0.4819
  790MOL0     C 8950  -0.257   6.135   1.219  0.2197  0.0629 -0.2744
  790MOL0     H 8951   0.416   6.030   1.169  0.9383 -0.3169  0.1782
  790MOL0     H 8952   0.616   6.097   1.273 -1.1354 -1.1519  1.1821
  790MOL0     H 8953   0.750   6.331   1.160  0.0472  2.0536 -1.2774
  790MOL0     H 8954   0.823   6.230   1.288  0.2086  0.3085 -2.1375
  790MOL0     H 8955   0.973   6.396   1.208 -1.3987  0.0624 -1.2330
  790MOL0     H 8956   0.848   6.523   1.229 -1.1993 -1.5696 -3.1734
  790MOL0     H 8957   0.883   6.379   1.486  0.8327  1.9933  2.7922
  790MOL0     H 8958   1.045   6.405   1.421  0.7432 -0.9315 -2.2280
  790MOL0     H 8959   1.008   6.616   1.559  0.7402  0.3385 -0.8516
  790MOL0     H 8960   0.955   6.659   1.403  1.1945 -2.0974 -1.9138
  790MOL0     H 8961   0.793   6.570   1.641 -0.4076  0.7841  0.5518
  790MOL0     H 8962   0.716   6.590   1.479  2.0417 -0.2172 -1.6402
  790MOL0     H 8963   0.768   6.817   1.480  0.7419  0.0227  0.6444
  790MOL0     H 8964   0.670   6.763   1.629 -1.3259  1.4301 -0.8493
  790MOL0     H 8965   0.953   6.858   1.599  0.4590  0.4712 -0.0854
  790MOL0     H 8966   0.902   6.757   1.742 -2.7074 -0.5245  0.2316
  790MOL0     H 8967   0.773   7.014   1.658 -0.5131  1.0759  1.4492
  790MOL0     H 8968   0.756   6.911   1.810 -0.4217 -2.3539 -0.2797
  790MOL0     H 8969   0.993   6.913   1.955  0.9136  1.1480  1.9456
  790MOL0     H 8970   1.168   7.054   2.087 -1.8313  1.0449 -0.7079
  790MOL0     H 8971   1.268   7.187   2.027 -1.0612  0.9915  1.0126
  790MOL0     H 8972   1.294   6.901   1.912 -0.6369  0.7656  0.7328
  790MOL0     H 8973   1.348   7.045   1.825 -4.2917  0.7757 -0.7717
  790MOL0     H 8974   1.475   7.086   2.061 -1.2766 -0.7035  2.0541
  790MOL0     H 8975   1.432   6.914   2.087 -1.6648 -0.3075 -1.2731
  790MOL0     H 8976   1.655   6.932   1.990  0.6073  2.6669 -0.9326
  790MOL0     H 8977   1.543   6.854   1.872 -1.8374 -0.3904  1.7833
  790MOL0     H 8978   1.836   7.006   1.696 -0.9719  1.5508 -0.9946
  790MOL0     H 8979   2.172   7.091   1.735 -1.6391 -3.9886 -0.4688
  790MOL0     H 8980   2.096   7.227   1.650 -0.5322  1.2670  1.8917
  790MOL0     H 8981   2.062   7.054   1.611  1.3356 -1.2022  1.7090
  790MOL0     H 8982   2.222   7.542   1.952 -0.5872 -0.0363  0.4283
  790MOL0     H 8983   2.401   7.697   2.035  1.1514  1.1790  1.3645
  790MOL0     H 8984   2.626   7.568   2.199 -0.7235  0.8300 -2.5247
  790MOL0     H 8985   2.630   7.734   2.144  1.0855  0.7971  0.5501
  790MOL0     H 8986   2.723   7.652   2.412 -2.4559 -0.5326 -0.1929
  790MOL0     H 8987   2.819   7.691   2.268 -1.2781  0.1164 -1.9664
  790MOL0     H 8988   2.617   7.902   2.349 -0.6404 -2.1453 -1.1663
  790MOL0     H 8989   2.769   7.912   2.254  1.0472 -0.6938  0.4774
  790MOL0     H 8990   2.893   7.870   2.475 -1.7049 -5.5891 -0.0827
  790MOL0     H 8991   2.745   7.872   2.560 -0.1529 -2.3180 -0.4635
  790MOL0     H 8992   2.861   8.103   2.397  0.0811 -1.9663  0.1198
  790MOL0     H 8993   2.697   8.100   2.450  0.2525  0.5336 -0.5995
  790MOL0     H 8994   2.943   8.114   2.640  1.1288  2.7535 -1.3317
  790MOL0     H 8995   2.775   8.078   2.690 -1.4461 -3.6253 -3.3212
  790MOL0     H 8996   2.703   8.281   2.581  0.4689 -1.5983 -1.0523
  790MOL0     H 8997   2.873   8.343   2.556  0.2004  0.7007 -0.2282
  790MOL0     H 8998   2.734   8.300   2.832 -0.0399 -1.1197 -0.0393
  790MOL0     H 8999   2.774   8.445   2.744 -1.8010 -0.8998  0.5538
  790MOL0     H 9000   2.368   7.500   2.414  0.0911  1.0306  0.2996
  790MOL0     H 9001   2.199   7.353   2.326  0.2512  1.6663  1.4134
  790MOL0     H 9002   1.863   7.312   2.075 -1.1739  0.7461 -0.9068
  790MOL0     H 9003   1.666   7.195   2.025  1.0753 -0.0485  0.1609
  790MOL0     H 9004   0.445   6.489   1.338 -3.1225  0.7918 -0.5334
  790MOL0     H 9005   0.217   6.389   1.272 -1.5065 -1.2193  1.1716
  790MOL0     H 9006   0.105   6.153   0.903 -1.1738  1.6655 -1.1802
  790MOL0     H 9007  -0.040   6.108   0.722  0.7709  0.5187  0.8313
  790MOL0     H 9008  -0.223   6.124   0.553  1.2496  0.0491  1.6041
  790MOL0     H 9009  -0.214   5.952   0.616 -0.7768 -1.1122  0.0862
  790MOL0     H 9010  -0.456   6.108   0.509  0.8239  0.0797 -1.9134
  790MOL0     H 9011  -0.461   5.962   0.626  4.3754 -0.9871  1.9949
  790MOL0     H 9012  -0.317   5.985   0.364 -0.7666  0.6777  0.3422
  790MOL0     H 9013  -0.344   5.834   0.450  1.9106  0.3028 -0.4579
  790MOL0     H 9014  -0.565   6.001   0.319 -0.6354 -1.6839 -1.5728
  790MOL0     H 9015  -0.575   5.871   0.449  1.1716 -0.8222  1.2644
  790MOL0     H 9016  -0.545   5.603   0.038  0.0271  2.9168 -2.0038
  790MOL0     H 9017  -0.374   6.114   0.993 -0.2496  0.3865  3.0090
  790MOL0     H 9018  -0.260   6.044   1.279 -0.0547  0.7708  0.8183
  790MOL0     H 9019  -0.219   6.223   1.272  2.1949  0.1837 -1.7810
  790MOL0     H 9020  -0.365   6.145   1.203  0.3019  1.0162 -0.2794
  791MOL0     O 9021   7.757   1.649   5.968  0.3380  0.7915  0.0367
  791MOL0     C 9022   7.716   1.568   6.057 -1.2437  0.4702  0.7292
  791MOL0     O 9023   7.802   1.466   6.123 -0.1437  0.3615  0.0358
  791MOL0     C 9024   7.940   1.485   6.108  1.5878  0.3720  0.1973
  791MOL0     C 9025   8.009   1.432   5.993 -0.3836  0.2973  0.2334
  791MOL0     C 9026   8.149   1.464   5.977  0.9467  0.4018 -0.0657
  791MOL0     C 9027   8.219   1.541   6.079  0.1941 -0.1240  0.9558
  791MOL0     O 9028   8.348   1.592   6.072  0.3509 -0.0039  0.8461
  791MOL0     C 9029   8.418   1.577   5.952  0.0354  0.4361 -0.1532
  791MOL0     C 9030   8.543   1.514   5.972  0.3839  0.2064  0.3344
  791MOL0     C 9031   8.628   1.583   6.072  0.0284  0.1941 -0.0009
  791MOL0     C 9032   8.760   1.504   6.077 -0.2329 -0.2526 -1.3606
  791MOL0     C 9033   8.814   1.513   6.227 -0.5892 -0.8299 -1.2107
  791MOL0     C 9034   8.961   1.476   6.218 -0.2571  0.6393  0.6971
  791MOL0     C 9035   9.037   1.512   6.344 -1.3050  0.1066 -1.4326
  791MOL0     C 9036   9.188   1.472   6.353  0.1280  0.0767  0.1779
  791MOL0     N 9037   9.277   1.551   6.270 -0.0960  0.2581  1.4479
  791MOL0     C 9038   9.351   1.652   6.312 -0.1733 -0.6598 -0.0064
  791MOL0     C 9039   9.432   1.677   6.202 -0.4000  0.1240 -0.9115
  791MOL0     C 9040   9.551   1.783   6.201  0.6714  1.2681  0.8314
  791MOL0     C 9041   9.683   1.720   6.266 -0.1352  0.3695  0.7916
  791MOL0     C 9042   9.785   1.836   6.284  0.5817 -0.3120 -0.0489
  791MOL0     C 9043   9.930   1.781   6.306 -0.1932  0.5448 -0.3418
  791MOL0     O 9044   9.996   1.897   6.361  0.1389 -0.1234  0.1920
  791MOL0     C 9045  10.128   1.876   6.405  0.3931  0.0580 -0.0307
  791MOL0     C 9046  10.208   1.774   6.349 -0.1240 -0.4480 -0.7620
  791MOL0     C 9047  10.338   1.739   6.391 -1.0352 -0.0804 -0.3734
  791MOL0     C 9048  10.411   1.617   6.336 -0.1151  0.3436 -0.5763
  791MOL0     C 9049  10.385   1.819   6.500 -0.6537 -0.2592 -0.3480
  791MOL0     C 9050  10.526   1.818   6.542 -0.0040 -0.0366 -0.3201
  791MOL0     O 9051  10.621   1.750   6.456 -0.6437 -0.2562 -0.3385
  791MOL0     C 9052  10.752   1.758   6.495 -0.2284  0.5114 -1.1848
  791MOL0     C 9053  10.827   1.869   6.452  0.7781 -0.0188 -0.2537
  791MOL0     C 9054  10.950   1.896   6.500 -0.2256 -0.6361 -0.4312
  791MOL0     C 9055  11.013   1.806   6.585 -0.6217 -0.1904  1.0143
  791MOL0     O 9056  11.148   1.821   6.603 -0.1317 -0.1966 -0.3038
  791MOL0     C 9057  11.233   1.710   6.654  0.3822  0.4503  0.6403
  791MOL0     C 9058  11.366   1.765   6.684  0.3330  0.3308  1.0330
  791MOL0     C 9059  11.457   1.748   6.551  0.5693 -0.8832 -0.4612
  791MOL0     C 9060  11.592   1.807   6.597 -0.2308  0.4201 -0.7305
  791MOL0     C 9061  11.684   1.744   6.486 -1.2378  0.2387 -0.6346
  791MOL0     C 9062  11.829   1.791   6.512  0.4921  0.4363  0.0073
  791MOL0     C 9063  11.931   1.699   6.438  0.1042 -0.1129  0.6955
  791MOL0     C 9064  11.933   1.736   6.285 -0.0323  0.2363  0.1125
  791MOL0    Cl 9065  12.047   1.873   6.281 -0.6347 -0.2702 -0.0984
  791MOL0     C 9066  10.940   1.704   6.643  0.5670 -0.5452  0.5973
  791MOL0     C 9067  10.802   1.676   6.605  0.0911  0.1029  0.3956
  791MOL0     O 9068  10.559   1.869   6.649  0.5932  0.0816 -0.0755
  791MOL0     C 9069  10.305   1.919   6.559  0.4643 -0.6418 -0.1019
  791MOL0     C 9070  10.178   1.944   6.510 -0.7268 -0.0223  0.4730
  791MOL0     N 9071   9.392   1.598   6.094  0.4958 -0.2649  0.5209
  791MOL0     N 9072   9.290   1.531   6.136 -0.9702  0.8193  0.3068
  791MOL0     C 9073   8.147   1.571   6.191 -0.0214  0.5548 -1.1977
  791MOL0     C 9074   8.007   1.546   6.203 -0.1188 -0.0227 -0.5330
  791MOL0     C 9075   7.571   1.564   6.070  0.4626 -1.1503 -0.3798
  791MOL0     C 9076   7.486   1.636   5.971  0.0159 -0.0566 -0.4005
  791MOL0     C 9077   7.349   1.656   6.001 -0.7870  0.0092 -0.8422
  791MOL0     C 9078   7.291   1.595   6.111  0.6805 -0.7734 -0.1584
  791MOL0     O 9079   7.152   1.609   6.122  0.5372 -0.5110  0.4233
  791MOL0     C 9080   7.080   1.484   6.138  0.0323  0.1987 -0.1283
  791MOL0     C 9081   7.079   1.409   6.006  0.2358 -0.1233 -0.5180
  791MOL0     C 9082   7.028   1.274   6.040 -0.4155 -0.7578 -0.6929
  791MOL0     C 9083   6.972   1.212   5.917  0.3583 -0.3459  0.0144
  791MOL0     C 9084   7.082   1.175   5.828 -0.2022 -0.2429 -0.0061
  791MOL0     C 9085   7.177   1.137   5.761  0.2492  0.1130 -0.6852
  791MOL0     C 9086   7.369   1.522   6.201  0.9034 -0.3970 -0.2931
  791MOL0     C 9087   7.509   1.515   6.188  0.1832 -0.7481 -0.2628
  791MOL0     C 9088   7.578   1.430   6.294 -1.2945 -0.1027  0.1609
  791MOL0     H 9089   7.962   1.358   5.930  1.7749  0.1737 -1.3310
  791MOL0     H 9090   8.207   1.415   5.899  1.3623  1.3017 -0.3372
  791MOL0     H 9091   8.437   1.670   5.897  0.7255 -0.5885 -1.7446
  791MOL0     H 9092   8.367   1.510   5.882  2.6571 -1.4020 -0.4668
  791MOL0     H 9093   8.516   1.415   6.009 -0.1319  0.5997  1.0557
  791MOL0     H 9094   8.603   1.510   5.881 -0.4702  1.0770 -0.2863
  791MOL0     H 9095   8.650   1.681   6.028  1.2826 -0.8135 -1.7446
  791MOL0     H 9096   8.584   1.594   6.171 -1.1229  3.8272 -0.7593
  791MOL0     H 9097   8.741   1.398   6.060  0.7639 -0.4590 -1.2020
  791MOL0     H 9098   8.828   1.543   6.000 -1.2049  0.0638 -2.0861
  791MOL0     H 9099   8.756   1.448   6.293 -0.6935 -0.0629 -0.5231
  791MOL0     H 9100   8.796   1.613   6.268  1.0844 -0.4716 -1.2680
  791MOL0     H 9101   8.948   1.368   6.202 -1.2001  1.0455 -1.7119
  791MOL0     H 9102   9.011   1.524   6.133 -0.1263 -1.0316 -0.2312
  791MOL0     H 9103   8.996   1.482   6.440 -1.0168 -1.4005 -1.7483
  791MOL0     H 9104   9.024   1.621   6.350  1.5834  0.4425  1.0088
  791MOL0     H 9105   9.215   1.481   6.459 -1.3011 -1.8658  0.7700
  791MOL0     H 9106   9.197   1.367   6.322 -0.0171  0.4317 -1.1040
  791MOL0     H 9107   9.350   1.696   6.411 -1.2059  2.7624 -1.3874
  791MOL0     H 9108   9.526   1.878   6.250  0.1967  0.5943  1.9520
  791MOL0     H 9109   9.582   1.801   6.098  2.9437 -1.6551  0.8586
  791MOL0     H 9110   9.652   1.678   6.362  2.8986 -1.9493  0.8871
  791MOL0     H 9111   9.715   1.637   6.202  2.6074  2.1697 -0.3610
  791MOL0     H 9112   9.777   1.900   6.196 -2.2690 -2.0151 -1.1608
  791MOL0     H 9113   9.775   1.898   6.374  1.3596 -1.3694  0.7951
  791MOL0     H 9114   9.940   1.693   6.370 -0.7924  0.2017 -0.7022
  791MOL0     H 9115   9.973   1.750   6.210  0.0969  0.1155 -0.0783
  791MOL0     H 9116  10.160   1.715   6.271 -4.3030  0.5265  0.7842
  791MOL0     H 9117  10.442   1.561   6.424  1.6255  0.3814 -1.1313
  791MOL0     H 9118  10.491   1.651   6.270  1.4436 -0.9892  0.5569
  791MOL0     H 9119  10.339   1.563   6.273 -2.0154  2.9077 -0.7868
  791MOL0     H 9120  10.781   1.947   6.391  1.7436  1.0038  0.2758
  791MOL0     H 9121  11.013   1.983   6.480 -0.1316 -0.7574 -0.6611
  791MOL0     H 9122  11.183   1.682   6.748 -2.8734  0.0741 -1.0518
  791MOL0     H 9123  11.237   1.626   6.585  1.8067  1.4777 -0.5799
  791MOL0     H 9124  11.371   1.871   6.710 -2.4228  1.7916 -3.2857
  791MOL0     H 9125  11.406   1.699   6.761 -1.4588  0.0658  1.7896
  791MOL0     H 9126  11.428   1.812   6.468 -3.1042  0.5404  1.7165
  791MOL0     H 9127  11.465   1.643   6.521  0.8564 -1.6822  2.1666
  791MOL0     H 9128  11.619   1.776   6.699 -2.3675  0.7149 -0.0190
  791MOL0     H 9129  11.588   1.916   6.599  1.8155  0.5462 -0.9674
  791MOL0     H 9130  11.687   1.635   6.496  4.0003  0.1600 -0.3428
  791MOL0     H 9131  11.649   1.768   6.385  0.1041  2.1172 -0.7173
  791MOL0     H 9132  11.853   1.762   6.615  3.6517 -2.5079 -1.3686
  791MOL0     H 9133  11.839   1.898   6.491 -3.3047  0.9422  0.2156
  791MOL0     H 9134  11.891   1.598   6.445  1.3790 -1.2472 -4.4083
  791MOL0     H 9135  12.032   1.701   6.479  0.5843  1.7606 -0.4314
  791MOL0     H 9136  11.836   1.768   6.248 -0.4294 -0.4383  0.5509
  791MOL0     H 9137  11.959   1.663   6.208  0.5269  1.2552 -0.6893
  791MOL0     H 9138  10.978   1.641   6.722  1.0248  1.2197  1.8525
  791MOL0     H 9139  10.727   1.609   6.645 -1.3825  0.1856 -2.0095
  791MOL0     H 9140  10.343   1.985   6.636 -1.3721  0.1932  0.1563
  791MOL0     H 9141  10.112   2.019   6.552  1.5790  2.9535 -0.8559
  791MOL0     H 9142   8.201   1.616   6.274 -0.4434  1.1867 -1.2594
  791MOL0     H 9143   7.952   1.564   6.295 -1.9692 -1.2968 -1.3309
  791MOL0     H 9144   7.535   1.673   5.881 -0.4285  0.0939 -0.5812
  791MOL0     H 9145   7.290   1.724   5.940 -2.3809 -2.1905 -1.8694
  791MOL0     H 9146   7.121   1.439   6.230 -0.2062  0.5756  0.1653
  791MOL0     H 9147   6.978   1.512   6.167  0.6926  1.9077  0.7022
  791MOL0     H 9148   7.177   1.403   5.957  0.7487 -2.3038  0.5961
  791MOL0     H 9149   7.009   1.458   5.938 -0.0312  1.3061  0.7544
  791MOL0     H 9150   7.109   1.210   6.075  0.2050 -0.1953 -1.0712
  791MOL0     H 9151   6.945   1.278   6.111 -0.2017  1.9367 -0.4908
  791MOL0     H 9152   6.905   1.280   5.862 -1.3244 -1.4150  0.6573
  791MOL0     H 9153   6.904   1.129   5.939 -0.5698 -0.1307 -1.8145
  791MOL0     H 9154   7.254   1.094   5.701  0.8591  0.3228 -0.0682
  791MOL0     H 9155   7.330   1.477   6.292  0.4335 -1.4625 -1.0011
  791MOL0     H 9156   7.589   1.326   6.263 -2.3325 -0.0879 -0.2936
  791MOL0     H 9157   7.674   1.476   6.320 -1.5175 -0.7835  2.3543
  791MOL0     H 9158   7.519   1.421   6.385 -3.9068 -0.8118 -1.4955
  792MOL0     O 9159   5.224   7.534  11.335 -0.5346 -0.0012 -0.3217
  792MOL0     C 9160   5.124   7.496  11.403  0.0372 -0.6027 -0.8283
  792MOL0     O 9161   5.128   7.441  11.536 -0.4594 -0.4071 -0.2159
  792MOL0     C 9162   5.246   7.414  11.593  0.5033 -0.0864 -0.3058
  792MOL0     C 9163   5.295   7.284  11.576  0.0049 -0.0964  0.0948
  792MOL0     C 9164   5.414   7.249  11.655  0.2985 -0.4041  0.2966
  792MOL0     C 9165   5.484   7.339  11.740  0.2047 -0.1937  0.5677
  792MOL0     O 9166   5.592   7.290  11.810  0.2615 -0.0255 -0.6213
  792MOL0     C 9167   5.620   7.348  11.936  0.0875 -0.8345  0.2960
  792MOL0     C 9168   5.689   7.245  12.026  0.5533  0.3397 -0.6017
  792MOL0     C 9169   5.803   7.158  11.959  0.5106 -0.1535  0.4189
  792MOL0     C 9170   5.938   7.239  11.960 -0.2444 -0.0282 -0.7603
  792MOL0     C 9171   6.056   7.143  11.925 -0.4498 -0.1057  0.0184
  792MOL0     C 9172   6.187   7.221  11.963  0.4492  0.1124 -0.0515
  792MOL0     C 9173   6.313   7.130  11.964  0.5741 -0.6583  0.3102
  792MOL0     C 9174   6.346   7.075  11.825 -0.3236  0.5877  0.4500
  792MOL0     N 9175   6.484   7.017  11.844  0.3580  0.6814 -0.3191
  792MOL0     C 9176   6.599   7.061  11.780  0.2704 -0.6419  0.0013
  792MOL0     C 9177   6.690   6.982  11.834 -0.3000 -0.2073 -0.1224
  792MOL0     C 9178   6.838   6.987  11.788 -0.1267  0.0030  0.4507
  792MOL0     C 9179   6.918   7.100  11.846 -0.5625 -0.4862  0.9062
  792MOL0     C 9180   6.949   7.093  11.998  0.1042  0.7309 -0.5597
  792MOL0     C 9181   7.088   7.042  12.027 -0.0010 -0.1755 -0.6852
  792MOL0     O 9182   7.100   6.907  11.982 -0.4157  0.5913 -0.4998
  792MOL0     C 9183   7.225   6.851  11.982 -0.5525  0.2541  0.0067
  792MOL0     C 9184   7.254   6.743  11.899  0.5211 -0.4352 -0.7097
  792MOL0     C 9185   7.386   6.683  11.895  0.9276 -0.1051 -0.2560
  792MOL0     C 9186   7.406   6.563  11.805  0.4715 -0.0795  0.0156
  792MOL0     C 9187   7.493   6.737  11.970 -0.0639 -0.1220  0.0350
  792MOL0     C 9188   7.637   6.690  11.967 -0.2826  0.7601  0.7412
  792MOL0     O 9189   7.720   6.751  12.058  0.3579  0.3398 -0.3395
  792MOL0     C 9190   7.822   6.684  12.130  0.4849 -0.4276  0.5112
  792MOL0     C 9191   7.886   6.764  12.226  0.5646  0.5211 -0.4726
  792MOL0     C 9192   8.009   6.727  12.285  0.3031 -0.6944  0.5871
  792MOL0     C 9193   8.056   6.599  12.260  0.2164 -0.3322  0.7450
  792MOL0     O 9194   8.169   6.547  12.310  0.0271 -0.4922 -0.2272
  792MOL0     C 9195   8.262   6.485  12.220 -0.1715 -0.5004  0.0377
  792MOL0     C 9196   8.373   6.417  12.303  0.1543 -0.2901 -0.8708
  792MOL0     C 9197   8.324   6.273  12.330 -0.5734  0.3311  0.5254
  792MOL0     C 9198   8.413   6.205  12.433  0.0903  0.1020  0.0702
  792MOL0     C 9199   8.382   6.056  12.458  0.4049 -0.6053  0.0284
  792MOL0     C 9200   8.433   5.996  12.585  0.1869  0.2640 -0.5017
  792MOL0     C 9201   8.408   5.845  12.610 -0.3048 -0.6378  0.0885
  792MOL0     C 9202   8.474   5.748  12.502  0.1382 -0.4353  0.0220
  792MOL0    Cl 9203   8.647   5.769  12.484  0.0594  0.0625  0.3332
  792MOL0     C 9204   7.980   6.519  12.174  0.1048  0.5618 -0.0731
  792MOL0     C 9205   7.866   6.555  12.115  0.3128 -0.1280  0.1458
  792MOL0     O 9206   7.677   6.601  11.891 -0.4830 -0.6868  0.3982
  792MOL0     C 9207   7.460   6.855  12.044 -1.4186  0.9582  0.4404
  792MOL0     C 9208   7.334   6.903  12.055 -0.7706 -0.1013 -0.2440
  792MOL0     N 9209   6.645   6.904  11.936  0.2926  1.0474 -0.0264
  792MOL0     N 9210   6.519   6.912  11.931 -0.5522 -0.1816  1.2314
  792MOL0     C 9211   5.430   7.466  11.751 -0.0457 -0.4898 -0.2223
  792MOL0     C 9212   5.305   7.500  11.688 -0.1784 -0.8927 -0.1541
  792MOL0     C 9213   4.985   7.485  11.334 -0.7353  0.4440 -0.0779
  792MOL0     C 9214   4.887   7.424  11.411  0.1677  0.7498 -0.4508
  792MOL0     C 9215   4.759   7.417  11.354  0.0590 -0.7664 -1.3225
  792MOL0     C 9216   4.730   7.468  11.234  0.3972 -0.1063  0.7144
  792MOL0     O 9217   4.598   7.449  11.197 -0.2382  0.1598 -0.3105
  792MOL0     C 9218   4.537   7.534  11.099  0.2497 -0.1967  0.3100
  792MOL0     C 9219   4.386   7.503  11.074  0.3013  0.0746  0.5278
  792MOL0     C 9220   4.311   7.498  11.212 -0.2280  0.1218 -0.5303
  792MOL0     C 9221   4.248   7.634  11.243 -0.1545 -0.5950  0.5753
  792MOL0     C 9222   4.147   7.687  11.156  0.8520  0.1502  0.3316
  792MOL0     C 9223   4.053   7.758  11.109 -1.3004  0.9910 -0.4489
  792MOL0     C 9224   4.820   7.543  11.171  0.1325  0.4265 -0.0631
  792MOL0     C 9225   4.954   7.548  11.209  0.1046  0.4703 -0.7289
  792MOL0     C 9226   5.039   7.635  11.124  0.2237 -0.1276 -0.8273
  792MOL0     H 9227   5.232   7.213  11.523 -2.3190  1.2936  0.8372
  792MOL0     H 9228   5.452   7.148  11.657 -2.3146 -1.4840  0.3450
  792MOL0     H 9229   5.533   7.383  11.992  2.0207  3.2751  1.1147
  792MOL0     H 9230   5.685   7.435  11.922 -0.4458 -0.4055  0.4557
  792MOL0     H 9231   5.728   7.301  12.112  2.1509  1.7712 -2.1763
  792MOL0     H 9232   5.614   7.177  12.067  1.5035  0.7680  2.0882
  792MOL0     H 9233   5.810   7.070  12.024  0.4807  0.0323  0.6759
  792MOL0     H 9234   5.772   7.124  11.860  1.5604  3.8265 -1.4722
  792MOL0     H 9235   5.926   7.325  11.894 -2.0888 -0.3112 -0.8436
  792MOL0     H 9236   5.954   7.281  12.059 -0.8228 -0.8488 -0.3031
  792MOL0     H 9237   6.053   7.110  11.821 -1.5986  0.4320 -0.1351
  792MOL0     H 9238   6.039   7.055  11.989 -2.6745 -2.1225 -3.0697
  792MOL0     H 9239   6.208   7.305  11.896 -0.6664  1.3546  1.0981
  792MOL0     H 9240   6.196   7.265  12.063  3.4873 -3.0306  1.2677
  792MOL0     H 9241   6.282   7.049  12.030  1.5861 -1.7571 -0.5119
  792MOL0     H 9242   6.399   7.184  12.006  0.4749  0.4249 -0.7976
  792MOL0     H 9243   6.272   6.997  11.808  1.2100 -1.4998  2.6453
  792MOL0     H 9244   6.331   7.153  11.750 -3.7952 -2.1600 -2.0408
  792MOL0     H 9245   6.614   7.135  11.702  0.1107 -0.2403  0.3456
  792MOL0     H 9246   6.844   6.990  11.678 -1.1169 -1.7800  0.3052
  792MOL0     H 9247   6.894   6.894  11.804  0.6091 -0.0816 -2.1554
  792MOL0     H 9248   7.012   7.111  11.792 -0.4182 -2.0998  0.7645
  792MOL0     H 9249   6.865   7.190  11.813 -0.4952 -0.9050 -0.3866
  792MOL0     H 9250   6.942   7.189  12.050  3.2880  1.5674 -1.4249
  792MOL0     H 9251   6.871   7.033  12.046 -0.6241  2.8175  1.0476
  792MOL0     H 9252   7.146   7.120  11.977  0.1787 -1.0203 -1.8357
  792MOL0     H 9253   7.107   7.044  12.135 -2.1698 -1.0752 -0.2252
  792MOL0     H 9254   7.177   6.691  11.843  1.3030 -0.9646 -1.3118
  792MOL0     H 9255   7.487   6.572  11.732 -1.5089  2.4386 -2.0932
  792MOL0     H 9256   7.325   6.553  11.732  0.4064 -1.8938  0.2879
  792MOL0     H 9257   7.407   6.468  11.859 -2.2226  0.6173  1.5028
  792MOL0     H 9258   7.849   6.859  12.263 -0.3040  0.5576 -1.3992
  792MOL0     H 9259   8.062   6.804  12.340 -2.1417  2.9241 -1.6785
  792MOL0     H 9260   8.223   6.413  12.149  0.1345 -2.0916  1.4236
  792MOL0     H 9261   8.315   6.568  12.171 -1.6307  1.1284  1.0977
  792MOL0     H 9262   8.470   6.414  12.253  1.0475 -1.7844  0.8562
  792MOL0     H 9263   8.384   6.477  12.394 -0.7907  0.0217 -0.9485
  792MOL0     H 9264   8.326   6.220  12.235 -0.9759  3.1132 -1.1438
  792MOL0     H 9265   8.220   6.272  12.364 -0.0125 -3.3075  2.6539
  792MOL0     H 9266   8.379   6.260  12.522 -3.2570 -0.4859 -0.6896
  792MOL0     H 9267   8.520   6.214  12.416  0.5548 -4.1957 -0.2437
  792MOL0     H 9268   8.272   6.054  12.454  0.1740  3.2893  0.5646
  792MOL0     H 9269   8.422   5.995  12.376  0.1833 -2.3757  1.1838
  792MOL0     H 9270   8.384   6.049  12.668 -1.1816  0.7244 -1.5613
  792MOL0     H 9271   8.539   6.021  12.597  0.1771  0.1039 -0.0822
  792MOL0     H 9272   8.301   5.822  12.609 -1.1285  2.6372  0.9509
  792MOL0     H 9273   8.433   5.809  12.710 -1.2770 -3.5804 -0.6062
  792MOL0     H 9274   8.414   5.753  12.410 -0.5167  0.7788  0.4882
  792MOL0     H 9275   8.470   5.648  12.546 -1.9100  0.1241  1.2691
  792MOL0     H 9276   8.012   6.417  12.157 -1.2233  0.3926 -1.8073
  792MOL0     H 9277   7.810   6.489  12.049  0.4906  0.1732 -0.3130
  792MOL0     H 9278   7.539   6.917  12.085 -2.3318  2.7183 -0.3474
  792MOL0     H 9279   7.317   6.976  12.133 -2.1364 -0.3080 -0.3146
  792MOL0     H 9280   5.472   7.534  11.824  1.9619  0.2228 -1.9103
  792MOL0     H 9281   5.265   7.600  11.696 -0.6765 -1.0191 -0.9405
  792MOL0     H 9282   4.900   7.369  11.503  0.2692 -0.1511 -0.9918
  792MOL0     H 9283   4.696   7.365  11.426  2.9387  0.1648  2.1293
  792MOL0     H 9284   4.543   7.638  11.134  0.7574  0.3768 -1.3608
  792MOL0     H 9285   4.600   7.527  11.009  1.1189  0.2022  0.8754
  792MOL0     H 9286   4.389   7.403  11.029 -4.0975 -0.4657  0.9823
  792MOL0     H 9287   4.338   7.574  11.005 -0.0942  1.5319  2.2241
  792MOL0     H 9288   4.236   7.419  11.201  2.1594 -2.2838 -0.7174
  792MOL0     H 9289   4.383   7.473  11.291 -2.4988 -0.4410  1.4954
  792MOL0     H 9290   4.329   7.707  11.233  0.1099 -1.1334 -1.7183
  792MOL0     H 9291   4.209   7.638  11.345  0.3407  0.2817  0.7450
  792MOL0     H 9292   3.978   7.826  11.074 -1.0905  1.1933 -0.5048
  792MOL0     H 9293   4.797   7.590  11.077 -0.1145 -0.5748 -0.5177
  792MOL0     H 9294   4.981   7.722  11.091 -0.1436  0.0780  0.3064
  792MOL0     H 9295   5.118   7.683  11.183 -1.2746  1.9239 -0.3586
  792MOL0     H 9296   5.086   7.587  11.038 -2.1511 -1.4137 -1.4936
  793MOL0     O 9297   7.738   9.850   0.827  0.3505  0.1855 -1.2123
  793MOL0     C 9298   7.674   9.776   0.749  0.2691 -0.5489  0.3398
  793MOL0     O 9299   7.721   9.743   0.623 -0.0795 -0.3308 -0.0284
  793MOL0     C 9300   7.845   9.787   0.594 -0.0388  0.1717  0.0103
  793MOL0     C 9301   7.930   9.697   0.538 -0.6557 -0.0763  0.0779
  793MOL0     C 9302   8.060   9.736   0.502 -0.4247 -0.3336 -0.4211
  793MOL0     C 9303   8.107   9.868   0.529  0.7210  0.2012  0.3293
  793MOL0     O 9304   8.240   9.906   0.515 -0.2378 -0.5523  0.3257
  793MOL0     C 9305   8.332   9.801   0.536  0.1182  0.0893  0.0874
  793MOL0     C 9306   8.465   9.867   0.564  0.2620  1.0011  0.8253
  793MOL0     C 9307   8.582   9.766   0.590  0.0140  0.1460  0.5209
  793MOL0     C 9308   8.716   9.833   0.575 -0.3345 -0.8972 -0.0760
  793MOL0     C 9309   8.821   9.720   0.589  0.0347 -0.3081  0.2800
  793MOL0     C 9310   8.961   9.784   0.602 -0.2279  0.2145  0.6096
  793MOL0     C 9311   9.062   9.678   0.633 -0.5647 -0.1679 -0.3041
  793MOL0     C 9312   9.197   9.757   0.643  0.6571 -0.4305 -0.2776
  793MOL0     N 9313   9.331   9.689   0.650  0.6043 -0.4072  0.4823
  793MOL0     C 9314   9.365   9.562   0.698 -0.1475 -0.5245 -0.3707
  793MOL0     C 9315   9.494   9.554   0.659 -0.2113  0.0652 -0.8408
  793MOL0     C 9316   9.579   9.423   0.648  0.0885 -0.7876  0.2273
  793MOL0     C 9317   9.563   9.367   0.506 -0.3164  1.4820 -0.5814
  793MOL0     C 9318   9.626   9.221   0.492  0.2583 -0.3486  0.8776
  793MOL0     C 9319   9.781   9.219   0.525 -0.0201  0.8979 -0.1743
  793MOL0     O 9320   9.856   9.299   0.431 -0.7328 -0.2694 -0.0395
  793MOL0     C 9321   9.987   9.338   0.457  0.0777  0.4868  0.2062
  793MOL0     C 9322  10.022   9.410   0.566  0.4132  0.4887  0.1504
  793MOL0     C 9323  10.142   9.485   0.578 -0.0258  0.1860  0.5735
  793MOL0     C 9324  10.167   9.562   0.700 -0.7803  0.1653  0.2127
  793MOL0     C 9325  10.239   9.479   0.473  0.0242 -0.1875  0.6816
  793MOL0     C 9326  10.376   9.530   0.484  0.9059 -0.3783 -0.2506
  793MOL0     O 9327  10.449   9.506   0.601 -0.0714 -0.0090 -0.5863
  793MOL0     C 9328  10.568   9.569   0.635 -0.6940 -0.0093  0.0877
  793MOL0     C 9329  10.585   9.661   0.740  0.4042 -0.3848  0.4973
  793MOL0     C 9330  10.703   9.727   0.766  0.1683 -0.2599  0.1064
  793MOL0     C 9331  10.813   9.704   0.691  0.2041  0.8390  0.3369
  793MOL0     O 9332  10.927   9.770   0.736 -0.4161 -0.3313  0.2170
  793MOL0     C 9333  11.060   9.738   0.696  0.2194 -0.5934  0.7732
  793MOL0     C 9334  11.166   9.798   0.787  0.4586  0.0551  0.2186
  793MOL0     C 9335  11.170   9.737   0.934 -0.3012  0.5037  0.1236
  793MOL0     C 9336  11.304   9.773   1.004  0.6384  0.0503  0.2946
  793MOL0     C 9337  11.303   9.721   1.146  0.5171  0.0115 -0.0432
  793MOL0     C 9338  11.402   9.779   1.238 -0.1858  0.3706 -0.5700
  793MOL0     C 9339  11.380   9.734   1.382 -0.4104  0.1340 -0.0773
  793MOL0     C 9340  11.498   9.770   1.483 -0.0273  0.2578  0.2803
  793MOL0    Cl 9341  11.501   9.935   1.529 -0.2080  0.2721  0.2702
  793MOL0     C 9342  10.807   9.607   0.586  0.2440  0.2909 -0.1322
  793MOL0     C 9343  10.689   9.536   0.561 -0.3919 -0.5619 -0.5455
  793MOL0     O 9344  10.417   9.596   0.391  0.4395 -0.5850 -0.7844
  793MOL0     C 9345  10.207   9.398   0.367 -0.0261  0.3590  0.9799
  793MOL0     C 9346  10.085   9.333   0.357 -0.6708 -0.0869 -0.6223
  793MOL0     N 9347   9.540   9.668   0.604  0.3415 -0.2312  0.7732
  793MOL0     N 9348   9.440   9.756   0.600 -0.1216 -0.2111  0.4996
  793MOL0     C 9349   8.009   9.967   0.568  0.6646  0.8677 -0.2470
  793MOL0     C 9350   7.881   9.922   0.598  0.8469  0.4888  1.0050
  793MOL0     C 9351   7.543   9.730   0.807 -0.9206 -0.1708  1.0788
  793MOL0     C 9352   7.492   9.769   0.931 -0.1438  0.4129  0.3888
  793MOL0     C 9353   7.367   9.720   0.978  0.4846 -0.1331  0.2036
  793MOL0     C 9354   7.288   9.633   0.903  0.4558 -0.1474 -0.1373
  793MOL0     O 9355   7.164   9.583   0.938 -0.2073 -0.3675 -0.2199
  793MOL0     C 9356   7.161   9.514   1.063  0.3944 -0.7609 -0.4133
  793MOL0     C 9357   7.029   9.449   1.112 -0.2164  0.7998 -0.1464
  793MOL0     C 9358   6.908   9.543   1.130  0.3065  0.4317 -0.4571
  793MOL0     C 9359   6.824   9.587   1.014  0.2382  0.5662 -0.7467
  793MOL0     C 9360   6.730   9.698   1.046 -0.1670 -0.5196  0.5390
  793MOL0     C 9361   6.649   9.791   1.048  0.0758  0.3709  0.5606
  793MOL0     C 9362   7.335   9.598   0.778 -0.0394  0.0295 -0.5299
  793MOL0     C 9363   7.461   9.636   0.732 -0.2871  0.2599  0.3590
  793MOL0     C 9364   7.507   9.572   0.601  1.2651  0.6195 -0.2243
  793MOL0     H 9365   7.888   9.599   0.516 -3.3115  0.6526  1.5535
  793MOL0     H 9366   8.121   9.662   0.450 -0.6255  0.8269 -2.4213
  793MOL0     H 9367   8.338   9.731   0.452 -0.0549 -0.2376  0.3414
  793MOL0     H 9368   8.317   9.748   0.631  1.5134  1.1118  0.9112
  793MOL0     H 9369   8.486   9.932   0.478  1.7659 -1.6393 -0.9257
  793MOL0     H 9370   8.455   9.935   0.649  0.1148  2.0450 -0.0093
  793MOL0     H 9371   8.566   9.731   0.692  2.1631 -2.2923  0.0998
  793MOL0     H 9372   8.569   9.681   0.523  0.0278 -0.1240  0.8616
  793MOL0     H 9373   8.731   9.899   0.489 -2.5685 -0.3127 -0.0838
  793MOL0     H 9374   8.707   9.900   0.660 -1.8120  0.0926 -0.9733
  793MOL0     H 9375   8.821   9.658   0.499 -0.3346 -3.1127  2.1051
  793MOL0     H 9376   8.800   9.662   0.680  0.1224  0.4643  0.8026
  793MOL0     H 9377   8.994   9.826   0.506  0.7116  1.6219  1.5262
  793MOL0     H 9378   8.953   9.865   0.675 -2.0162  0.6912 -0.0709
  793MOL0     H 9379   9.061   9.599   0.558  2.6991  0.7966 -1.5221
  793MOL0     H 9380   9.045   9.633   0.732  0.1029  0.3038  0.0308
  793MOL0     H 9381   9.202   9.823   0.556  0.8567  0.9404  0.7339
  793MOL0     H 9382   9.184   9.825   0.727 -0.3302 -1.8711  0.7696
  793MOL0     H 9383   9.302   9.487   0.745  1.5422  0.4577  3.9224
  793MOL0     H 9384   9.543   9.356   0.727 -0.8353 -0.2704  0.2660
  793MOL0     H 9385   9.683   9.445   0.676 -0.6389  2.5423  0.7708
  793MOL0     H 9386   9.454   9.365   0.499 -1.1006  2.3748  5.7530
  793MOL0     H 9387   9.603   9.430   0.426 -1.4987 -0.0774 -2.5029
  793MOL0     H 9388   9.566   9.154   0.553 -2.7413  0.1950 -1.2343
  793MOL0     H 9389   9.611   9.196   0.386 -2.0561 -2.1911  1.5526
  793MOL0     H 9390   9.788   9.259   0.626 -4.2200 -0.6915  0.9754
  793MOL0     H 9391   9.812   9.115   0.531 -0.0541  0.6444 -3.1129
  793MOL0     H 9392   9.952   9.433   0.646  0.7687  1.8166  0.1051
  793MOL0     H 9393  10.210   9.495   0.776  0.7116 -2.5330 -2.7754
  793MOL0     H 9394  10.078   9.608   0.743 -0.5405  0.7285  0.1180
  793MOL0     H 9395  10.241   9.641   0.685  0.0907 -0.4163  1.2628
  793MOL0     H 9396  10.496   9.677   0.801  1.0513 -1.6758  1.8289
  793MOL0     H 9397  10.706   9.802   0.845  1.2901 -0.5599  0.3635
  793MOL0     H 9398  11.074   9.629   0.703  0.9316 -0.4713  1.4021
  793MOL0     H 9399  11.068   9.766   0.590  0.4872 -4.0119 -0.2450
  793MOL0     H 9400  11.260   9.784   0.733  0.6443  1.0701  0.2546
  793MOL0     H 9401  11.159   9.907   0.801  1.4777  0.1467  0.0387
  793MOL0     H 9402  11.167   9.628   0.926 -1.8348  0.5172  0.2313
  793MOL0     H 9403  11.079   9.763   0.989  0.0905  1.5145  0.3150
  793MOL0     H 9404  11.312   9.882   1.008 -0.6944  0.2012 -0.5038
  793MOL0     H 9405  11.390   9.733   0.950 -0.1852  0.1421 -1.1249
  793MOL0     H 9406  11.212   9.759   1.192  0.8289  0.5444  0.1368
  793MOL0     H 9407  11.302   9.612   1.131 -0.2101  0.1234 -0.8644
  793MOL0     H 9408  11.399   9.888   1.233 -1.9616  0.3065 -1.9355
  793MOL0     H 9409  11.494   9.737   1.197 -1.3357  0.2263 -3.2460
  793MOL0     H 9410  11.363   9.626   1.390 -4.4859  0.5759 -0.7140
  793MOL0     H 9411  11.287   9.780   1.417 -0.5264 -0.7759  0.8582
  793MOL0     H 9412  11.597   9.732   1.454  0.3458  0.5891  1.0845
  793MOL0     H 9413  11.462   9.706   1.563 -0.8473  0.0549 -0.2424
  793MOL0     H 9414  10.896   9.591   0.525  1.2959 -0.3648  1.5025
  793MOL0     H 9415  10.675   9.480   0.470 -1.9769  0.2349 -0.8270
  793MOL0     H 9416  10.276   9.387   0.284  0.8435 -2.7499  1.9979
  793MOL0     H 9417  10.063   9.276   0.268 -3.1668 -0.4273  0.1448
  793MOL0     H 9418   8.042  10.069   0.587 -0.6101  1.0611  1.1436
  793MOL0     H 9419   7.815  10.005   0.618 -2.0648 -1.7154  1.1573
  793MOL0     H 9420   7.549   9.842   0.989  1.1858  0.2379 -0.6404
  793MOL0     H 9421   7.337   9.763   1.073  2.4854  2.5271 -0.2371
  793MOL0     H 9422   7.225   9.426   1.058  1.6271  0.0783  0.1781
  793MOL0     H 9423   7.204   9.573   1.145 -1.1252 -0.6632  0.3502
  793MOL0     H 9424   7.061   9.413   1.210 -2.7108  0.5049  0.6354
  793MOL0     H 9425   7.015   9.372   1.035 -0.3757  1.5918 -0.9234
  793MOL0     H 9426   6.833   9.496   1.194 -0.6483  0.4993 -1.4886
  793MOL0     H 9427   6.946   9.631   1.183 -1.2032  1.2307 -0.6242
  793MOL0     H 9428   6.771   9.501   0.972  1.0940  0.0150 -0.7206
  793MOL0     H 9429   6.892   9.622   0.936  0.7393  3.6385  0.8974
  793MOL0     H 9430   6.574   9.867   1.046  0.2638  0.5946 -2.8634
  793MOL0     H 9431   7.269   9.543   0.712 -1.6423  0.7691  0.3895
  793MOL0     H 9432   7.433   9.508   0.551 -0.2703 -0.1471  2.7820
  793MOL0     H 9433   7.505   9.654   0.528 -2.7362  0.3575 -0.6286
  793MOL0     H 9434   7.604   9.522   0.608  1.6448  1.4115  0.2970
  794MOL0     O 9435   0.536   0.584   8.900 -0.3085  0.6641 -0.2757
  794MOL0     C 9436   0.436   0.595   8.969 -0.4837 -0.0380 -0.7949
  794MOL0     O 9437   0.366   0.713   8.988  0.0398  0.0436 -0.3237
  794MOL0     C 9438   0.431   0.833   8.957 -0.5354 -0.6624  0.6326
  794MOL0     C 9439   0.380   0.924   8.863 -0.2036 -0.3416  0.9731
  794MOL0     C 9440   0.452   1.033   8.832 -0.3779  0.2439  0.3806
  794MOL0     C 9441   0.566   1.074   8.901  0.8100  0.1385 -0.2768
  794MOL0     O 9442   0.632   1.189   8.850  0.1637  0.4519 -0.0363
  794MOL0     C 9443   0.751   1.231   8.900  0.2319 -0.0507 -0.4804
  794MOL0     C 9444   0.753   1.309   9.030  0.6970 -0.0835  0.2493
  794MOL0     C 9445   0.885   1.375   9.059 -0.2091 -0.6962 -0.3311
  794MOL0     C 9446   0.878   1.437   9.207  0.0492 -0.0965  0.5870
  794MOL0     C 9447   1.013   1.501   9.243  0.4969  0.2845 -0.2033
  794MOL0     C 9448   1.106   1.397   9.300  0.2626 -0.3234 -0.3376
  794MOL0     C 9449   1.244   1.460   9.329 -0.2740  0.2489 -0.3478
  794MOL0     C 9450   1.340   1.366   9.406 -0.4573 -0.9615 -0.5252
  794MOL0     N 9451   1.478   1.375   9.355  0.1183  0.0910  0.4626
  794MOL0     C 9452   1.528   1.325   9.230 -0.0585  0.7649 -0.4719
  794MOL0     C 9453   1.669   1.351   9.236  1.1851  0.0719 -0.0595
  794MOL0     C 9454   1.775   1.327   9.128 -0.2134 -0.0247 -0.1893
  794MOL0     C 9455   1.884   1.211   9.144  0.8868 -1.1506 -0.1443
  794MOL0     C 9456   1.969   1.223   9.271  0.7828 -0.8946  0.5122
  794MOL0     C 9457   2.084   1.329   9.256  0.6548 -0.5103  0.6569
  794MOL0     O 9458   2.210   1.255   9.254 -0.0358  0.1996 -0.0611
  794MOL0     C 9459   2.333   1.325   9.235 -0.1163  0.3201  0.9718
  794MOL0     C 9460   2.445   1.252   9.186  0.7799 -0.0805  0.1754
  794MOL0     C 9461   2.566   1.315   9.153 -0.4637 -0.1523  0.2339
  794MOL0     C 9462   2.668   1.220   9.092 -0.0812 -1.0565  0.7515
  794MOL0     C 9463   2.588   1.448   9.187 -0.5371 -0.4243  0.3698
  794MOL0     C 9464   2.707   1.523   9.156  0.6076  0.8232  0.3662
  794MOL0     O 9465   2.799   1.459   9.083 -0.0093 -0.5822  0.9015
  794MOL0     C 9466   2.908   1.529   9.048 -0.2987 -0.0759  0.2254
  794MOL0     C 9467   2.904   1.650   8.963 -0.1656 -0.0904 -0.1625
  794MOL0     C 9468   3.030   1.703   8.908  0.4808 -0.0437 -0.7619
  794MOL0     C 9469   3.151   1.652   8.953  0.1978  0.3391  0.2757
  794MOL0     O 9470   3.263   1.716   8.907 -0.3010 -0.2690 -0.1377
  794MOL0     C 9471   3.387   1.695   8.975  0.2742 -0.3639  0.1916
  794MOL0     C 9472   3.465   1.574   8.924  0.0830 -0.6839 -0.6226
  794MOL0     C 9473   3.514   1.596   8.781  0.1509  0.1043  0.7135
  794MOL0     C 9474   3.637   1.502   8.769 -0.0153  0.2705  0.5775
  794MOL0     C 9475   3.698   1.493   8.633  0.2052 -0.1799  0.8126
  794MOL0     C 9476   3.664   1.361   8.562 -0.3057  0.2652  0.3177
  794MOL0     C 9477   3.517   1.374   8.514 -0.3238  0.5579  0.2940
  794MOL0     C 9478   3.478   1.243   8.437  0.2938 -0.4195  0.1580
  794MOL0    Cl 9479   3.318   1.255   8.358 -0.2931  0.2475 -0.1602
  794MOL0     C 9480   3.153   1.546   9.051  0.4880  0.6773  0.4243
  794MOL0     C 9481   3.030   1.480   9.078 -1.0605  0.1484 -0.6987
  794MOL0     O 9482   2.716   1.642   9.203 -0.1992 -0.0938 -0.2898
  794MOL0     C 9483   2.482   1.518   9.255  0.3785 -0.2945  0.2702
  794MOL0     C 9484   2.363   1.458   9.280 -0.3998  0.4207  0.0650
  794MOL0     N 9485   1.691   1.428   9.350  0.1705  0.2116 -0.5745
  794MOL0     N 9486   1.585   1.440   9.417  1.2928  0.1398  0.1073
  794MOL0     C 9487   0.620   0.983   8.996 -0.7126 -0.5988  0.5269
  794MOL0     C 9488   0.551   0.861   9.024 -0.9801  0.9381  0.0956
  794MOL0     C 9489   0.369   0.465   9.022 -0.0681 -1.2960 -0.4367
  794MOL0     C 9490   0.257   0.489   9.096  1.0112 -0.3537 -0.1755
  794MOL0     C 9491   0.189   0.390   9.158  0.2191  0.0004  1.3217
  794MOL0     C 9492   0.243   0.260   9.158 -0.0906  0.0869 -0.4872
  794MOL0     O 9493   0.187   0.161   9.237 -0.1209 -0.3273 -0.5412
  794MOL0     C 9494   0.109   0.208   9.345 -0.6312 -0.5528  0.0927
  794MOL0     C 9495   0.035   0.090   9.422 -0.8265 -0.2494  0.0911
  794MOL0     C 9496   0.145  -0.008   9.471 -0.3593  0.6089 -0.8265
  794MOL0     C 9497   0.077  -0.146   9.511 -0.2132  0.1061 -0.3332
  794MOL0     C 9498   0.184  -0.224   9.577  0.0093  0.4403 -0.8661
  794MOL0     C 9499   0.274  -0.271   9.639  0.0767 -0.3995 -0.6041
  794MOL0     C 9500   0.356   0.231   9.084  0.5362  0.0389 -0.2353
  794MOL0     C 9501   0.421   0.333   9.012  0.0955 -0.6779  0.3480
  794MOL0     C 9502   0.547   0.302   8.929  0.0884  0.4586  0.5315
  794MOL0     H 9503   0.291   0.908   8.804 -0.2025  0.8970  0.5959
  794MOL0     H 9504   0.407   1.103   8.762 -3.5224 -1.3538  0.6604
  794MOL0     H 9505   0.800   1.302   8.832  0.7626  1.2838  1.2351
  794MOL0     H 9506   0.814   1.142   8.908  1.4743  0.4991 -2.9595
  794MOL0     H 9507   0.681   1.392   9.027 -0.8569 -1.1664  3.1544
  794MOL0     H 9508   0.723   1.242   9.111 -0.2511  0.9807  0.8186
  794MOL0     H 9509   0.966   1.303   9.075  0.1541  0.3477  3.7799
  794MOL0     H 9510   0.895   1.443   8.974  0.8479 -1.4717 -0.8505
  794MOL0     H 9511   0.801   1.515   9.210  0.3399  0.2862 -1.0626
  794MOL0     H 9512   0.852   1.355   9.275  1.4493  0.5423  1.9440
  794MOL0     H 9513   0.983   1.584   9.307  0.8866  0.8761 -0.7804
  794MOL0     H 9514   1.065   1.554   9.163  1.5988  1.1138  1.0174
  794MOL0     H 9515   1.057   1.361   9.391  1.1370  0.3721  0.4298
  794MOL0     H 9516   1.119   1.316   9.228 -3.7404 -0.6050 -0.9662
  794MOL0     H 9517   1.227   1.547   9.394 -3.2562  0.5324 -1.3220
  794MOL0     H 9518   1.281   1.498   9.234  1.5488  1.4040  0.7693
  794MOL0     H 9519   1.343   1.399   9.510 -0.4648 -1.5093 -0.3456
  794MOL0     H 9520   1.303   1.263   9.403 -0.5586 -0.9159 -1.0123
  794MOL0     H 9521   1.468   1.293   9.145 -0.5185 -0.6693  0.3598
  794MOL0     H 9522   1.830   1.421   9.120  2.1533 -1.3782 -0.8840
  794MOL0     H 9523   1.729   1.307   9.031  0.1799 -2.5838  0.0765
  794MOL0     H 9524   1.821   1.121   9.145 -1.1553  0.1933 -1.6896
  794MOL0     H 9525   1.954   1.199   9.061  2.1825  1.3553  0.4667
  794MOL0     H 9526   1.907   1.240   9.360 -0.3004 -1.4529 -0.1100
  794MOL0     H 9527   2.020   1.127   9.288  1.9023 -0.6954 -1.3789
  794MOL0     H 9528   2.083   1.381   9.160  0.9948 -2.6846 -0.5937
  794MOL0     H 9529   2.082   1.405   9.335  3.2261 -1.3900  1.6843
  794MOL0     H 9530   2.429   1.146   9.165  1.6836 -0.0531 -0.7324
  794MOL0     H 9531   2.685   1.263   8.993  1.9074  2.7822  2.5477
  794MOL0     H 9532   2.642   1.114   9.097 -0.2513 -1.0193  0.6542
  794MOL0     H 9533   2.755   1.232   9.157  1.5382  1.1139 -1.6360
  794MOL0     H 9534   2.811   1.698   8.936 -0.1251  0.9775  1.4615
  794MOL0     H 9535   3.029   1.788   8.840  2.3879  1.8015  1.3405
  794MOL0     H 9536   3.457   1.777   8.956 -1.1994  1.5370  2.3326
  794MOL0     H 9537   3.381   1.699   9.084 -2.9350 -2.1326  0.1868
  794MOL0     H 9538   3.551   1.568   8.991 -0.3674  1.0629  0.1841
  794MOL0     H 9539   3.410   1.480   8.921 -0.4700 -0.3394 -2.0264
  794MOL0     H 9540   3.555   1.695   8.759  2.2157 -1.0698 -1.0672
  794MOL0     H 9541   3.429   1.586   8.713  0.5611  0.6844  0.0953
  794MOL0     H 9542   3.601   1.409   8.815 -0.6403 -1.8114 -3.6695
  794MOL0     H 9543   3.720   1.537   8.832  0.9497 -2.2742  0.8208
  794MOL0     H 9544   3.669   1.583   8.578  0.1066 -1.7932 -1.9412
  794MOL0     H 9545   3.807   1.493   8.648  0.4279  1.4678 -0.4623
  794MOL0     H 9546   3.687   1.275   8.625 -2.1238  0.0900  0.8014
  794MOL0     H 9547   3.724   1.359   8.470 -0.1642  0.1118  0.4121
  794MOL0     H 9548   3.506   1.454   8.440 -1.2898 -2.3525 -3.0037
  794MOL0     H 9549   3.445   1.388   8.595  0.9277 -0.0258  1.5626
  794MOL0     H 9550   3.481   1.156   8.504 -2.2876  0.1036  1.0407
  794MOL0     H 9551   3.554   1.230   8.359  0.8658  1.6100  0.3123
  794MOL0     H 9552   3.249   1.503   9.077  0.3072 -0.7842 -1.1458
  794MOL0     H 9553   3.042   1.391   9.140  0.6447 -0.2191 -1.4878
  794MOL0     H 9554   2.486   1.621   9.290 -0.8421  0.4953 -1.7219
  794MOL0     H 9555   2.293   1.524   9.330  0.8549  2.6115 -0.9609
  794MOL0     H 9556   0.719   0.990   9.040 -0.6344  0.5614  0.2120
  794MOL0     H 9557   0.592   0.806   9.108 -3.6589  1.6881  2.0284
  794MOL0     H 9558   0.221   0.588   9.121 -1.0587 -1.1730  0.2732
  794MOL0     H 9559   0.095   0.422   9.202 -0.1848 -0.2618  0.6854
  794MOL0     H 9560   0.165   0.277   9.409 -0.3280 -1.0665  0.3950
  794MOL0     H 9561   0.020   0.257   9.306  0.1702  1.2182  0.4036
  794MOL0     H 9562  -0.022   0.037   9.344 -1.7562 -0.9118  1.1836
  794MOL0     H 9563  -0.039   0.116   9.498  0.2354  2.1402  0.3931
  794MOL0     H 9564   0.224  -0.028   9.398 -0.7439 -0.5032 -0.9520
  794MOL0     H 9565   0.197   0.037   9.556 -3.3024  0.8406  0.9932
  794MOL0     H 9566   0.040  -0.198   9.422  1.8617  0.7558 -1.6599
  794MOL0     H 9567  -0.005  -0.142   9.582  0.6824  0.8780  0.6794
  794MOL0     H 9568   0.357  -0.293   9.703  1.2572  0.7351 -1.6877
  794MOL0     H 9569   0.390   0.128   9.080 -0.4444 -0.2922 -0.2972
  794MOL0     H 9570   0.578   0.198   8.934 -1.7970 -0.4355 -2.9817
  794MOL0     H 9571   0.541   0.330   8.823 -3.5729 -1.5956  0.0140
  794MOL0     H 9572   0.624   0.356   8.985 -0.6456  2.4408 -0.2469
  795MOL0     O 9573   5.468   1.501   0.787 -0.2345  0.4012 -0.6534
  795MOL0     C 9574   5.433   1.558   0.893 -0.6894 -0.6961 -0.0370
  795MOL0     O 9575   5.500   1.671   0.941 -0.1934 -0.0917  0.5169
  795MOL0     C 9576   5.625   1.702   0.881  0.0650 -0.2471  1.1914
  795MOL0     C 9577   5.655   1.830   0.854  0.5467  0.0153 -0.3735
  795MOL0     C 9578   5.773   1.869   0.789  0.0068  0.3000 -0.9460
  795MOL0     C 9579   5.877   1.776   0.777 -0.3984  0.1462  0.3685
  795MOL0     O 9580   5.986   1.793   0.696 -0.0443 -0.6161  0.2027
  795MOL0     C 9581   5.980   1.893   0.590 -0.0422 -1.1813 -0.4467
  795MOL0     C 9582   6.030   2.035   0.634  0.3272 -0.0333  0.2589
  795MOL0     C 9583   6.185   2.059   0.624 -0.6211 -0.1883  0.3273
  795MOL0     C 9584   6.268   1.989   0.737 -0.8987 -0.8220 -0.5831
  795MOL0     C 9585   6.421   1.996   0.709  0.5865  0.2782  0.2467
  795MOL0     C 9586   6.482   2.134   0.728  0.1774  0.4250 -0.1445
  795MOL0     C 9587   6.631   2.119   0.716 -0.5213 -0.1677  0.6781
  795MOL0     C 9588   6.695   2.258   0.708  0.2537  0.1341 -0.1228
  795MOL0     N 9589   6.838   2.261   0.739  0.0433  0.0898 -0.2759
  795MOL0     C 9590   6.922   2.156   0.709 -0.1775 -1.4435 -0.8797
  795MOL0     C 9591   7.041   2.211   0.768  0.4396 -0.2772  0.1513
  795MOL0     C 9592   7.183   2.148   0.762  0.3217  0.2444 -0.5020
  795MOL0     C 9593   7.271   2.165   0.881  0.0946 -0.2064 -0.2317
  795MOL0     C 9594   7.397   2.081   0.874 -0.1252  0.2672  0.6804
  795MOL0     C 9595   7.494   2.106   0.986  0.3952  0.1857  0.3644
  795MOL0     O 9596   7.608   2.021   0.961 -0.0476  0.0866  0.0150
  795MOL0     C 9597   7.720   2.014   1.049  0.6997 -0.5463 -0.3148
  795MOL0     C 9598   7.723   2.081   1.173  0.1772 -0.6410  0.0255
  795MOL0     C 9599   7.844   2.077   1.248 -0.3995 -0.1227 -0.3457
  795MOL0     C 9600   7.843   2.139   1.384 -0.4583  0.6501 -0.1072
  795MOL0     C 9601   7.957   2.012   1.196 -1.1384 -0.6646 -0.2371
  795MOL0     C 9602   8.082   2.017   1.264 -0.3841 -0.5065  0.6655
  795MOL0     O 9603   8.143   1.899   1.299 -0.2189 -0.2021 -0.5887
  795MOL0     C 9604   8.269   1.903   1.356 -0.1070  1.0918 -0.3062
  795MOL0     C 9605   8.384   1.882   1.273 -0.2898 -0.1223  0.6152
  795MOL0     C 9606   8.509   1.860   1.333  1.4099  0.0114 -0.1352
  795MOL0     C 9607   8.525   1.868   1.471  0.0732  0.4768 -0.3768
  795MOL0     O 9608   8.654   1.872   1.517 -0.1465 -0.5471  0.1389
  795MOL0     C 9609   8.675   1.810   1.643 -0.4306  0.3107 -0.3661
  795MOL0     C 9610   8.713   1.922   1.740  0.0689 -0.7602  0.5406
  795MOL0     C 9611   8.834   2.009   1.712  0.4272 -0.7357  0.4650
  795MOL0     C 9612   8.968   1.941   1.709 -0.2445 -0.1825 -0.0045
  795MOL0     C 9613   8.984   1.862   1.835  0.0588 -0.0830  0.1505
  795MOL0     C 9614   9.135   1.822   1.854  0.1195  0.0072 -0.5812
  795MOL0     C 9615   9.176   1.717   1.748 -0.3175  0.2472 -0.0415
  795MOL0     C 9616   9.316   1.659   1.774 -0.2418 -0.6065  0.1674
  795MOL0    Cl 9617   9.381   1.597   1.626 -0.5855  0.0141 -0.4015
  795MOL0     C 9618   8.411   1.892   1.548  0.0623 -0.5079 -0.0069
  795MOL0     C 9619   8.284   1.906   1.491 -0.0917  0.0444 -0.4466
  795MOL0     O 9620   8.123   2.131   1.292  0.1559  1.0126  0.0069
  795MOL0     C 9621   7.950   1.935   1.078  0.1737  0.7833 -0.0652
  795MOL0     C 9622   7.830   1.948   1.001  0.9951 -0.4023 -0.4781
  795MOL0     N 9623   7.013   2.320   0.837 -0.1941  0.3072  0.2922
  795MOL0     N 9624   6.890   2.351   0.822  0.0214 -0.3384  0.5267
  795MOL0     C 9625   5.854   1.645   0.823 -0.1037 -0.3468 -0.0539
  795MOL0     C 9626   5.726   1.609   0.877  0.3588  0.6480  0.0580
  795MOL0     C 9627   5.301   1.524   0.948 -0.2661  0.0212  0.0681
  795MOL0     C 9628   5.224   1.628   1.002 -0.2972 -0.6065  0.6026
  795MOL0     C 9629   5.104   1.607   1.072  0.1928  0.0075 -0.3483
  795MOL0     C 9630   5.063   1.477   1.099  0.0646  0.1580  0.0214
  795MOL0     O 9631   4.966   1.447   1.191 -0.2465 -0.0086  0.2752
  795MOL0     C 9632   4.856   1.532   1.199  0.5402  1.0297 -0.8030
  795MOL0     C 9633   4.754   1.454   1.283  0.6726  0.6960 -0.3809
  795MOL0     C 9634   4.620   1.532   1.298  0.8628 -0.0394 -0.2075
  795MOL0     C 9635   4.516   1.453   1.380  0.7926  1.0674 -0.1979
  795MOL0     C 9636   4.503   1.308   1.345 -0.6524  0.2765 -0.6137
  795MOL0     C 9637   4.485   1.194   1.335  0.0402  0.4194 -0.8111
  795MOL0     C 9638   5.143   1.367   1.049  0.2813  0.2759 -0.4389
  795MOL0     C 9639   5.248   1.388   0.964  0.5301 -0.1996 -0.1124
  795MOL0     C 9640   5.344   1.278   0.927 -0.8999 -0.3486 -0.2037
  795MOL0     H 9641   5.579   1.906   0.872  0.2913 -0.6048  1.4049
  795MOL0     H 9642   5.792   1.972   0.763  0.7225  0.1346 -1.1156
  795MOL0     H 9643   5.880   1.893   0.546 -0.4722 -5.3926  0.1280
  795MOL0     H 9644   6.050   1.860   0.512 -2.6995 -1.6146 -2.8138
  795MOL0     H 9645   5.986   2.112   0.569 -0.9858 -1.4835 -0.6299
  795MOL0     H 9646   6.004   2.067   0.735  0.6588 -0.5314  0.5045
  795MOL0     H 9647   6.220   2.029   0.524  0.3268  0.8719  0.3150
  795MOL0     H 9648   6.206   2.166   0.628  1.9171 -0.6440  3.7545
  795MOL0     H 9649   6.252   2.051   0.826 -1.3527 -3.9436  1.7082
  795MOL0     H 9650   6.225   1.889   0.747 -0.1121 -1.0115  1.5710
  795MOL0     H 9651   6.438   1.968   0.605 -0.2091  1.4305 -0.2130
  795MOL0     H 9652   6.472   1.935   0.784 -1.1553  1.7684  2.8210
  795MOL0     H 9653   6.454   2.202   0.648 -2.2445 -0.5573 -0.2057
  795MOL0     H 9654   6.453   2.189   0.818 -1.2628  2.1583 -1.5842
  795MOL0     H 9655   6.661   2.065   0.625  0.5329  2.5143 -0.6518
  795MOL0     H 9656   6.667   2.061   0.802 -1.2712 -1.8605 -0.0848
  795MOL0     H 9657   6.679   2.309   0.612  1.0468  0.0081 -0.3262
  795MOL0     H 9658   6.645   2.326   0.778 -1.8082 -2.4725  1.1052
  795MOL0     H 9659   6.901   2.068   0.650 -3.6333 -0.4611 -1.3404
  795MOL0     H 9660   7.230   2.188   0.672 -2.6100  1.6206 -1.5601
  795MOL0     H 9661   7.171   2.039   0.752  2.0789  0.0286 -0.5358
  795MOL0     H 9662   7.307   2.268   0.892 -1.7980  0.8216 -2.7762
  795MOL0     H 9663   7.212   2.125   0.964  0.2807  1.2881  0.6652
  795MOL0     H 9664   7.379   1.974   0.865 -0.5375  0.3119  0.9176
  795MOL0     H 9665   7.462   2.113   0.792 -0.4298  0.8028  0.6427
  795MOL0     H 9666   7.519   2.210   1.011 -0.5939  0.1474  1.6448
  795MOL0     H 9667   7.451   2.066   1.079 -0.2514 -2.4481 -0.9585
  795MOL0     H 9668   7.641   2.139   1.214  0.9813  4.2717 -4.3047
  795MOL0     H 9669   7.873   2.244   1.382  2.1147 -0.0310 -1.3648
  795MOL0     H 9670   7.909   2.079   1.447 -1.6642 -0.2840  0.3203
  795MOL0     H 9671   7.749   2.134   1.441  0.2271  0.6341  1.0695
  795MOL0     H 9672   8.361   1.880   1.167  0.6883 -0.1006  0.3948
  795MOL0     H 9673   8.600   1.844   1.275  2.4043 -2.3511  1.8734
  795MOL0     H 9674   8.583   1.758   1.672 -1.0945  0.9338 -1.2936
  795MOL0     H 9675   8.743   1.726   1.625 -1.2547  0.0185 -2.3940
  795MOL0     H 9676   8.631   1.994   1.739 -1.2591 -2.1295  2.4577
  795MOL0     H 9677   8.720   1.877   1.840  2.5447  0.0564  0.8166
  795MOL0     H 9678   8.838   2.073   1.801  1.8532  0.2472 -0.2583
  795MOL0     H 9679   8.822   2.073   1.625 -1.2540  0.7046  1.6810
  795MOL0     H 9680   9.045   2.018   1.703 -0.5980  0.4887  2.7185
  795MOL0     H 9681   8.981   1.878   1.621  1.5958  0.3718 -0.1783
  795MOL0     H 9682   8.960   1.923   1.923 -1.8948 -2.4258  1.3646
  795MOL0     H 9683   8.913   1.779   1.836 -2.3218  1.8150  1.8189
  795MOL0     H 9684   9.143   1.780   1.955 -1.6849 -1.4021 -0.9756
  795MOL0     H 9685   9.203   1.906   1.836  0.3575 -0.4682 -2.0323
  795MOL0     H 9686   9.179   1.770   1.653  2.3811 -0.7010 -0.5713
  795MOL0     H 9687   9.099   1.639   1.750  0.6001 -0.7067 -1.0181
  795MOL0     H 9688   9.310   1.586   1.856 -0.6165 -0.3772  0.3494
  795MOL0     H 9689   9.381   1.738   1.813 -1.0453 -0.7975  2.0128
  795MOL0     H 9690   8.422   1.885   1.655  1.0449  0.5360 -0.0104
  795MOL0     H 9691   8.200   1.909   1.560  0.2616 -0.4821  0.0091
  795MOL0     H 9692   8.032   1.876   1.038 -0.8035 -2.9195  2.8383
  795MOL0     H 9693   7.827   1.915   0.898 -0.8155  2.4967 -1.4760
  795MOL0     H 9694   5.942   1.582   0.813 -0.3556 -0.7389  0.1596
  795MOL0     H 9695   5.703   1.512   0.919  1.1681  0.3216 -0.2170
  795MOL0     H 9696   5.253   1.733   1.006  1.9927 -1.0599 -1.3518
  795MOL0     H 9697   5.046   1.686   1.117 -2.9131 -1.5878 -1.2858
  795MOL0     H 9698   4.875   1.628   1.248 -0.6171  0.0090  1.8500
  795MOL0     H 9699   4.821   1.550   1.097 -1.2542  0.3833 -0.3311
  795MOL0     H 9700   4.806   1.439   1.378 -1.4093 -1.8356  0.4980
  795MOL0     H 9701   4.727   1.358   1.238  0.5238 -0.6823  2.4107
  795MOL0     H 9702   4.636   1.627   1.350  0.0678 -0.7923  1.4822
  795MOL0     H 9703   4.562   1.553   1.207 -1.7863 -1.2377  1.0686
  795MOL0     H 9704   4.419   1.493   1.350 -1.0283 -4.0120 -2.1593
  795MOL0     H 9705   4.538   1.450   1.487 -3.4270 -4.3167  1.0063
  795MOL0     H 9706   4.463   1.089   1.339 -0.9252  0.6373  2.0541
  795MOL0     H 9707   5.108   1.273   1.089 -2.0946  1.3154  0.1238
  795MOL0     H 9708   5.427   1.295   0.996  0.3543 -1.3683 -1.3807
  795MOL0     H 9709   5.299   1.181   0.949 -2.0675 -0.6640 -3.3680
  795MOL0     H 9710   5.387   1.275   0.826  0.5690 -0.1777  0.3941
  796MOL0     O 9711   1.543   0.680   8.205 -0.7464  0.7109 -0.4947
  796MOL0     C 9712   1.474   0.636   8.296 -0.1262  0.7306  0.4769
  796MOL0     O 9713   1.492   0.516   8.370  0.6090 -1.3122 -0.1240
  796MOL0     C 9714   1.606   0.449   8.348  0.0402 -0.2759  0.2284
  796MOL0     C 9715   1.585   0.311   8.334  0.2793  0.7380 -0.4944
  796MOL0     C 9716   1.692   0.227   8.295  0.2653  0.2717  0.2663
  796MOL0     C 9717   1.824   0.278   8.288 -0.6442  1.2089  0.3054
  796MOL0     O 9718   1.938   0.198   8.255  0.1644 -0.4933  0.3324
  796MOL0     C 9719   1.905   0.062   8.216 -0.9660  0.6161  0.1161
  796MOL0     C 9720   1.856   0.060   8.070  0.1613  0.1205 -0.0104
  796MOL0     C 9721   1.817  -0.084   8.019 -0.0748  0.1543  0.2186
  796MOL0     C 9722   1.703  -0.157   8.090 -0.1829  0.3306 -0.1933
  796MOL0     C 9723   1.575  -0.087   8.072 -0.0017 -0.2246 -0.1617
  796MOL0     C 9724   1.459  -0.162   8.151 -0.6464  0.4761 -0.1091
  796MOL0     C 9725   1.330  -0.085   8.179 -0.3699  0.5456 -0.8589
  796MOL0     C 9726   1.254  -0.153   8.297  0.5393  0.4424 -0.6476
  796MOL0     N 9727   1.294  -0.119   8.435 -0.0912 -0.0834 -0.4504
  796MOL0     C 9728   1.385  -0.020   8.473 -0.0339  0.3896  0.3674
  796MOL0     C 9729   1.365   0.005   8.607  0.4420 -0.6537 -0.1775
  796MOL0     C 9730   1.467   0.102   8.673  0.6005 -0.4412 -0.9482
  796MOL0     C 9731   1.572   0.030   8.756  1.7375 -0.1552 -0.3554
  796MOL0     C 9732   1.626   0.123   8.855  1.1505 -0.9600  0.6967
  796MOL0     C 9733   1.752   0.076   8.915 -0.9208  0.1845 -1.4085
  796MOL0     O 9734   1.876   0.069   8.834  0.0714  0.2463 -0.1194
  796MOL0     C 9735   1.928   0.193   8.790  0.3172  0.0711  0.0680
  796MOL0     C 9736   1.902   0.313   8.855 -0.3180  0.2669  0.6276
  796MOL0     C 9737   1.964   0.438   8.818 -0.5110 -0.0632  0.5768
  796MOL0     C 9738   1.918   0.562   8.884  0.3376 -0.0536  0.1434
  796MOL0     C 9739   2.057   0.439   8.708 -0.2061  0.7321  0.2415
  796MOL0     C 9740   2.113   0.557   8.638 -1.2816  0.1503  0.6087
  796MOL0     O 9741   2.143   0.542   8.497 -0.1557 -0.4893  0.0026
  796MOL0     C 9742   2.228   0.641   8.455  0.0854 -0.0073  0.3015
  796MOL0     C 9743   2.172   0.742   8.373 -0.1644 -0.1521  0.4265
  796MOL0     C 9744   2.261   0.839   8.310 -0.4694 -0.7718 -0.4278
  796MOL0     C 9745   2.403   0.835   8.327 -0.6599  0.2102 -0.3155
  796MOL0     O 9746   2.481   0.944   8.271 -0.2859  0.5012  0.2534
  796MOL0     C 9747   2.585   0.908   8.171  0.1442  0.3053  0.1170
  796MOL0     C 9748   2.717   0.848   8.217  0.0484  0.0526 -0.0883
  796MOL0     C 9749   2.812   0.822   8.096  0.5829 -0.1895 -0.2903
  796MOL0     C 9750   2.857   0.962   8.042 -0.6181 -0.5493  0.2627
  796MOL0     C 9751   2.970   0.935   7.950 -0.1506 -0.2470 -0.1388
  796MOL0     C 9752   2.922   0.892   7.817 -0.9487 -0.2585  0.0689
  796MOL0     C 9753   3.054   0.846   7.745  0.7626  0.2063  0.5317
  796MOL0     C 9754   3.027   0.810   7.598 -0.2683  0.0674 -0.0918
  796MOL0    Cl 9755   3.164   0.731   7.533  0.0793 -0.1225  0.2414
  796MOL0     C 9756   2.459   0.734   8.414  1.0637 -0.2878 -0.8207
  796MOL0     C 9757   2.372   0.631   8.468  0.3549  0.0623 -0.0436
  796MOL0     O 9758   2.140   0.654   8.703 -0.3615 -0.1324  0.0839
  796MOL0     C 9759   2.067   0.315   8.635  0.0930  0.0556 -0.3597
  796MOL0     C 9760   2.009   0.202   8.673 -0.0132  0.0929  0.3930
  796MOL0     N 9761   1.263  -0.085   8.645  0.1593  0.4086 -0.8690
  796MOL0     N 9762   1.218  -0.152   8.542 -0.3439 -0.9261 -0.1485
  796MOL0     C 9763   1.850   0.414   8.311 -0.1530 -0.1238 -0.5683
  796MOL0     C 9764   1.740   0.497   8.342 -0.6802 -0.8023  0.2940
  796MOL0     C 9765   1.358   0.722   8.329 -0.1836 -0.5522  0.4915
  796MOL0     C 9766   1.236   0.657   8.365  0.0031 -0.1876 -0.2432
  796MOL0     C 9767   1.123   0.743   8.395  0.2654  0.2997 -0.6850
  796MOL0     C 9768   1.131   0.883   8.391 -0.0889 -0.3340  0.2977
  796MOL0     O 9769   1.025   0.965   8.421 -0.3693  0.4887  1.3700
  796MOL0     C 9770   1.008   0.992   8.557  0.3423  0.1125 -0.3568
  796MOL0     C 9771   0.861   0.962   8.594  0.1462 -0.0436  0.0114
  796MOL0     C 9772   0.806   0.826   8.534  0.9544 -0.5291  0.3618
  796MOL0     C 9773   0.654   0.815   8.560 -0.6761  0.6109  0.3217
  796MOL0     C 9774   0.570   0.911   8.497 -0.9592  0.7371 -0.5472
  796MOL0     C 9775   0.495   0.985   8.443  0.0154 -0.3245  0.6070
  796MOL0     C 9776   1.254   0.934   8.348  0.5350  0.0303 -0.7000
  796MOL0     C 9777   1.368   0.862   8.324  0.4027 -0.2809  0.6792
  796MOL0     C 9778   1.492   0.942   8.279  0.4566 -0.1577 -0.1334
  796MOL0     H 9779   1.485   0.272   8.353 -0.1227  1.0692 -1.7696
  796MOL0     H 9780   1.653   0.126   8.296  0.0137  0.2785 -2.2734
  796MOL0     H 9781   1.836   0.008   8.283  0.7377 -1.6085  0.1860
  796MOL0     H 9782   1.994  -0.001   8.224 -2.6779 -2.0873 -0.7097
  796MOL0     H 9783   1.775   0.132   8.055  1.5834  1.6975 -0.4232
  796MOL0     H 9784   1.945   0.097   8.018  0.2203 -0.0815 -0.0521
  796MOL0     H 9785   1.791  -0.077   7.913 -0.8434 -0.4364  0.3622
  796MOL0     H 9786   1.909  -0.143   8.025  0.9814  1.2870 -2.8806
  796MOL0     H 9787   1.697  -0.251   8.035  3.8383 -0.0897 -0.2300
  796MOL0     H 9788   1.716  -0.166   8.198 -0.3440  2.6283  0.0720
  796MOL0     H 9789   1.541  -0.083   7.968 -1.9349  1.8127  0.4817
  796MOL0     H 9790   1.584   0.014   8.114 -3.5563 -0.5808  1.9130
  796MOL0     H 9791   1.431  -0.253   8.097  1.6683 -0.5009  0.1941
  796MOL0     H 9792   1.505  -0.190   8.246  0.0053  1.2714 -0.1740
  796MOL0     H 9793   1.274  -0.086   8.085 -0.4368  3.1866 -0.9021
  796MOL0     H 9794   1.344   0.020   8.207  1.6424  1.0367 -3.3159
  796MOL0     H 9795   1.157  -0.102   8.301  0.1739 -0.3232  2.2165
  796MOL0     H 9796   1.237  -0.259   8.279  1.3965 -0.3841  2.8037
  796MOL0     H 9797   1.457   0.026   8.405  1.5925 -3.3187 -0.6866
  796MOL0     H 9798   1.422   0.185   8.727 -0.4948 -1.1819 -0.6884
  796MOL0     H 9799   1.525   0.148   8.593  1.7411 -2.3457 -1.2884
  796MOL0     H 9800   1.531  -0.053   8.814 -0.5075  1.6261  0.7537
  796MOL0     H 9801   1.653  -0.009   8.693  1.4669 -0.7957 -0.3151
  796MOL0     H 9802   1.649   0.214   8.798 -0.4483 -1.5064 -0.9229
  796MOL0     H 9803   1.551   0.145   8.933  0.4674  0.7036 -0.3770
  796MOL0     H 9804   1.770   0.122   9.013 -0.9869  2.3963 -2.3909
  796MOL0     H 9805   1.729  -0.030   8.930  1.4954 -0.3702 -1.1362
  796MOL0     H 9806   1.832   0.310   8.939  0.3444 -0.9388  1.1660
  796MOL0     H 9807   1.992   0.636   8.915 -0.3141 -0.2482  2.3971
  796MOL0     H 9808   1.860   0.536   8.973 -0.0604 -2.1324 -0.6755
  796MOL0     H 9809   1.849   0.611   8.816 -0.0798  0.9667  1.2579
  796MOL0     H 9810   2.064   0.749   8.364 -0.1575  1.5578  1.2133
  796MOL0     H 9811   2.202   0.919   8.265  0.9993  0.7904  0.2948
  796MOL0     H 9812   2.534   0.845   8.097  0.9267 -1.7895  1.2870
  796MOL0     H 9813   2.621   1.005   8.134  0.6188 -0.3016 -1.0688
  796MOL0     H 9814   2.751   0.921   8.292 -2.3317  0.5419  0.6041
  796MOL0     H 9815   2.695   0.749   8.259 -2.8069  0.0369 -1.3933
  796MOL0     H 9816   2.765   0.754   8.025 -2.1377 -1.3639  2.4127
  796MOL0     H 9817   2.891   0.760   8.139 -0.2906 -0.6036  0.7644
  796MOL0     H 9818   2.890   1.027   8.124  2.7833 -0.4492 -1.0629
  796MOL0     H 9819   2.771   1.009   7.992 -0.6116  1.1275  1.7323
  796MOL0     H 9820   3.047   1.012   7.940  0.9983 -1.6031 -3.1755
  796MOL0     H 9821   3.019   0.848   7.995 -1.4363 -0.9431 -0.0179
  796MOL0     H 9822   2.876   0.971   7.758 -4.6414 -0.9591  1.7074
  796MOL0     H 9823   2.854   0.806   7.821 -1.2446 -0.0344 -0.0595
  796MOL0     H 9824   3.090   0.760   7.802  1.5814  0.9654  1.1900
  796MOL0     H 9825   3.121   0.932   7.745  0.1139  0.7444 -0.8177
  796MOL0     H 9826   3.005   0.900   7.539 -1.7752 -0.7615 -0.8708
  796MOL0     H 9827   2.939   0.749   7.572 -0.1927 -0.9345  1.8736
  796MOL0     H 9828   2.567   0.737   8.424  1.5738 -3.3106 -3.7412
  796MOL0     H 9829   2.409   0.547   8.525 -0.4992  1.6132  3.0340
  796MOL0     H 9830   2.134   0.306   8.550  0.1966 -0.7189 -0.2070
  796MOL0     H 9831   2.040   0.105   8.635 -2.1465 -1.5788  2.5678
  796MOL0     H 9832   1.951   0.451   8.320 -0.5438  0.7458  0.5046
  796MOL0     H 9833   1.763   0.603   8.352  0.4180 -1.0933  0.9383
  796MOL0     H 9834   1.218   0.550   8.362  1.0715 -0.4901  2.1274
  796MOL0     H 9835   1.028   0.697   8.422  0.0367 -0.0534 -1.9947
  796MOL0     H 9836   1.071   0.925   8.616  2.4994  0.0363 -2.5927
  796MOL0     H 9837   1.021   1.093   8.598  1.6370 -0.5087  0.8635
  796MOL0     H 9838   0.807   1.050   8.558 -0.1322 -0.2171  0.0072
  796MOL0     H 9839   0.843   0.959   8.702 -1.7913  0.8294 -0.2445
  796MOL0     H 9840   0.822   0.816   8.426 -0.8193 -0.7076  0.0779
  796MOL0     H 9841   0.857   0.745   8.587  0.6390  0.3560  2.0817
  796MOL0     H 9842   0.655   0.822   8.670  2.7250 -2.3451  0.6664
  796MOL0     H 9843   0.624   0.715   8.525  3.5392  0.1118 -2.5817
  796MOL0     H 9844   0.437   1.049   8.380  2.2457 -0.4316 -1.7114
  796MOL0     H 9845   1.259   1.042   8.346  3.4651 -0.0140 -0.0009
  796MOL0     H 9846   1.505   0.919   8.173  0.4664  1.5333 -0.5321
  796MOL0     H 9847   1.480   1.051   8.289 -2.5744 -0.5539  2.2656
  796MOL0     H 9848   1.579   0.915   8.340  0.1688 -0.0231  0.3433
  797MOL0     O 9849   2.450   6.255  10.756  0.0385  0.8101 -0.4884
  797MOL0     C 9850   2.369   6.255  10.668 -0.3251  0.0647  0.4819
  797MOL0     O 9851   2.234   6.273  10.689 -0.2402  0.2320 -0.0084
  797MOL0     C 9852   2.180   6.286  10.820  0.2895  0.0266 -0.0788
  797MOL0     C 9853   2.238   6.336  10.931  0.1315 -0.3342  0.2445
  797MOL0     C 9854   2.173   6.342  11.057  0.3299  1.3434 -0.9045
  797MOL0     C 9855   2.049   6.278  11.068 -0.1451 -0.5254  0.5125
  797MOL0     O 9856   1.990   6.266  11.192 -0.0616  0.2036 -0.0033
  797MOL0     C 9857   1.977   6.124  11.243 -0.9006 -0.0092  0.3364
  797MOL0     C 9858   2.016   6.131  11.393  0.5662 -0.9264  0.4593
  797MOL0     C 9859   2.170   6.155  11.416 -0.0320  0.0503  0.5884
  797MOL0     C 9860   2.199   6.163  11.560  0.6405  0.1460 -0.3876
  797MOL0     C 9861   2.347   6.149  11.586  0.2408 -0.3494  0.3413
  797MOL0     C 9862   2.423   6.282  11.576  0.9024  0.4052 -0.0728
  797MOL0     C 9863   2.553   6.270  11.660 -0.2678 -0.0286  0.0181
  797MOL0     C 9864   2.642   6.165  11.592  0.2239 -0.6274 -0.0241
  797MOL0     N 9865   2.779   6.184  11.636 -0.1439 -0.3389 -0.7503
  797MOL0     C 9866   2.823   6.154  11.761 -0.6871  0.1570  0.3917
  797MOL0     C 9867   2.948   6.204  11.762 -0.2401  0.7804 -0.0866
  797MOL0     C 9868   3.059   6.194  11.872  0.2164 -0.0622  0.2114
  797MOL0     C 9869   3.166   6.100  11.816 -0.0851  0.5513  0.6322
  797MOL0     C 9870   3.242   6.030  11.926 -0.4434 -0.2755  0.9215
  797MOL0     C 9871   3.329   6.131  12.005  0.0214 -0.0389  0.0536
  797MOL0     O 9872   3.432   6.194  11.922  0.4859  0.1160 -0.3138
  797MOL0     C 9873   3.554   6.137  11.923  0.1054 -0.0238 -0.1700
  797MOL0     C 9874   3.584   6.002  11.945  0.6186 -0.9236 -0.4671
  797MOL0     C 9875   3.712   5.947  11.936  0.2771 -0.2803 -0.9186
  797MOL0     C 9876   3.738   5.800  11.989 -1.2258  0.0932 -0.0655
  797MOL0     C 9877   3.815   6.039  11.913 -0.2996 -0.4039 -0.2850
  797MOL0     C 9878   3.948   5.982  11.921 -0.7065 -0.0488 -0.0270
  797MOL0     O 9879   4.036   6.051  12.005 -0.3410 -0.5677 -0.1662
  797MOL0     C 9880   4.169   6.020  12.003 -0.4182 -0.2703 -0.2583
  797MOL0     C 9881   4.266   6.111  11.958 -0.0938 -0.4292 -0.0920
  797MOL0     C 9882   4.403   6.084  11.952  0.3519  0.8796 -0.8224
  797MOL0     C 9883   4.452   5.954  11.992  0.3119  0.1781  1.0656
  797MOL0     O 9884   4.585   5.915  11.982  0.4148  0.2780  0.5242
  797MOL0     C 9885   4.692   6.011  11.990  0.1897  0.8179 -0.1325
  797MOL0     C 9886   4.825   5.935  12.009  0.2406 -0.0251  0.3443
  797MOL0     C 9887   4.958   6.022  12.009  0.3929  0.1218 -0.1891
  797MOL0     C 9888   5.034   6.008  12.140 -0.1666  0.1282 -0.1609
  797MOL0     C 9889   5.098   5.865  12.144 -0.2265  0.4069 -0.7358
  797MOL0     C 9890   5.148   5.843  12.288 -0.2323  0.2962  0.3738
  797MOL0     C 9891   5.219   5.706  12.326 -0.3281 -0.0366 -0.3241
  797MOL0     C 9892   5.165   5.580  12.261 -0.0278 -0.2806  0.7170
  797MOL0    Cl 9893   5.231   5.435  12.335  0.1315  0.1096  0.1761
  797MOL0     C 9894   4.360   5.859  12.043  0.7173  0.0051 -0.4039
  797MOL0     C 9895   4.222   5.893  12.043 -0.0539  0.2244 -0.2161
  797MOL0     O 9896   3.980   5.901  11.835 -1.1089  0.1757  0.0022
  797MOL0     C 9897   3.784   6.176  11.897 -0.3980 -0.0763  0.1039
  797MOL0     C 9898   3.658   6.219  11.905 -0.0793 -0.0581  0.7083
  797MOL0     N 9899   2.977   6.250  11.639 -0.1026  0.6250  0.2148
  797MOL0     N 9900   2.873   6.249  11.565  0.1577  0.2647  0.2010
  797MOL0     C 9901   1.989   6.231  10.953 -0.1032  0.5385 -0.1356
  797MOL0     C 9902   2.050   6.243  10.827 -0.4218  0.4601 -0.0466
  797MOL0     C 9903   2.416   6.253  10.523  0.6895 -0.0232 -0.1115
  797MOL0     C 9904   2.342   6.183  10.429  0.0772  0.3979 -0.0235
  797MOL0     C 9905   2.380   6.173  10.297 -0.3599  0.2442 -0.4424
  797MOL0     C 9906   2.498   6.226  10.250  1.2922 -0.8044  0.1462
  797MOL0     O 9907   2.519   6.218  10.117  0.3672 -0.1594 -0.6585
  797MOL0     C 9908   2.628   6.125  10.091 -0.0225  0.4538  0.1814
  797MOL0     C 9909   2.750   6.204  10.050  0.0681  0.0084  0.0199
  797MOL0     C 9910   2.735   6.317   9.933 -0.4795  0.2805 -0.0998
  797MOL0     C 9911   2.716   6.259   9.799  0.2344 -0.7426  0.6992
  797MOL0     C 9912   2.578   6.210   9.789 -0.7879  0.0228 -0.1554
  797MOL0     C 9913   2.466   6.154   9.784  0.0416 -0.6451 -0.2417
  797MOL0     C 9914   2.578   6.294  10.340 -0.4278 -0.0479 -0.1321
  797MOL0     C 9915   2.543   6.307  10.474  0.4682  0.0842 -0.0363
  797MOL0     C 9916   2.642   6.369  10.558 -0.4652 -0.3078 -0.7521
  797MOL0     H 9917   2.342   6.365  10.936  0.2841 -1.0312  1.4175
  797MOL0     H 9918   2.217   6.389  11.144  1.6674 -1.0073 -0.2038
  797MOL0     H 9919   2.057   6.071  11.190 -1.4362 -0.8235  0.3289
  797MOL0     H 9920   1.883   6.072  11.222  1.1112 -2.9965 -2.2283
  797MOL0     H 9921   1.961   6.204  11.454  1.7985 -0.7439  1.4046
  797MOL0     H 9922   1.976   6.039  11.437 -3.3804  1.4969  2.5202
  797MOL0     H 9923   2.221   6.071  11.367 -1.1130 -0.3829  0.1766
  797MOL0     H 9924   2.202   6.249  11.371 -1.1372 -0.1867 -0.7566
  797MOL0     H 9925   2.161   6.257  11.601  1.4690  1.1590 -1.8681
  797MOL0     H 9926   2.157   6.083  11.623  1.1936 -0.7926 -1.1747
  797MOL0     H 9927   2.386   6.071  11.519  1.8869  0.0841  0.7508
  797MOL0     H 9928   2.359   6.114  11.689  2.8812  2.1286  1.0023
  797MOL0     H 9929   2.433   6.304  11.470  1.2712  1.8196  0.2345
  797MOL0     H 9930   2.364   6.365  11.618 -1.4999  1.1946 -4.4149
  797MOL0     H 9931   2.543   6.248  11.766  1.1608  4.6557  1.3947
  797MOL0     H 9932   2.600   6.369  11.658 -0.6807  0.1721 -2.1292
  797MOL0     H 9933   2.617   6.066  11.631  1.0750 -0.8939 -0.1229
  797MOL0     H 9934   2.636   6.171  11.483  2.0721 -1.7077 -0.2268
  797MOL0     H 9935   2.768   6.099  11.837  0.2809  0.1427  1.1028
  797MOL0     H 9936   3.017   6.155  11.966 -2.9199 -1.7246 -1.7260
  797MOL0     H 9937   3.096   6.297  11.877  3.7363 -1.2137  1.6330
  797MOL0     H 9938   3.132   6.024  11.745  4.2094  0.9331 -2.1825
  797MOL0     H 9939   3.235   6.152  11.748 -1.9370 -0.2880 -2.0832
  797MOL0     H 9940   3.165   5.986  11.990 -2.6487 -0.5968 -1.7858
  797MOL0     H 9941   3.299   5.952  11.875 -0.5987  1.1812 -1.6488
  797MOL0     H 9942   3.260   6.210  12.036 -3.9218 -3.4149  0.7653
  797MOL0     H 9943   3.373   6.093  12.098  0.2001 -0.8202 -0.3336
  797MOL0     H 9944   3.510   5.928  11.978 -1.9301  0.6812 -2.1873
  797MOL0     H 9945   3.648   5.737  11.988 -0.2420 -1.3895  0.4460
  797MOL0     H 9946   3.774   5.806  12.092 -0.7980  4.1216 -0.3265
  797MOL0     H 9947   3.806   5.742  11.925 -1.2001 -1.9901  1.7314
  797MOL0     H 9948   4.230   6.210  11.936 -1.3352 -0.7774  0.2801
  797MOL0     H 9949   4.477   6.150  11.908  2.1715  0.0476  0.8583
  797MOL0     H 9950   4.703   6.069  11.898  2.2600 -0.9374 -1.0840
  797MOL0     H 9951   4.679   6.075  12.078 -2.5336 -0.9638  0.8786
  797MOL0     H 9952   4.803   5.884  12.103 -3.1957  0.1923 -0.2279
  797MOL0     H 9953   4.836   5.854  11.937  1.0679 -1.0644  1.5943
  797MOL0     H 9954   4.930   6.127  12.001  0.5071  0.1160 -0.7424
  797MOL0     H 9955   5.017   5.995  11.921 -2.4598 -2.6885 -1.4412
  797MOL0     H 9956   4.962   6.025  12.221  1.1738  3.5858  0.4816
  797MOL0     H 9957   5.104   6.090  12.161 -1.0703  0.4894  1.7017
  797MOL0     H 9958   5.026   5.783  12.132 -0.6234  0.7770 -0.8978
  797MOL0     H 9959   5.180   5.847  12.074 -0.3619  0.5215 -0.9250
  797MOL0     H 9960   5.058   5.845  12.349 -1.3787 -4.0126 -0.8274
  797MOL0     H 9961   5.218   5.919  12.323  1.2876 -1.5258  1.5064
  797MOL0     H 9962   5.227   5.692  12.434  1.2006  0.1302 -0.3888
  797MOL0     H 9963   5.319   5.723  12.283 -0.3882  0.5529 -0.2432
  797MOL0     H 9964   5.184   5.595  12.155  0.7829 -1.3432  0.6966
  797MOL0     H 9965   5.057   5.581  12.281 -0.0854 -0.3206  0.4158
  797MOL0     H 9966   4.391   5.764  12.086 -2.1121  0.6505  3.6310
  797MOL0     H 9967   4.140   5.824  12.062 -0.1357  0.5672  0.7291
  797MOL0     H 9968   3.872   6.235  11.876 -0.4401 -0.7551 -2.2158
  797MOL0     H 9969   3.644   6.325  11.889 -1.5578 -0.0049  2.0836
  797MOL0     H 9970   1.890   6.188  10.953  0.7531 -1.6683  1.9880
  797MOL0     H 9971   1.995   6.222  10.736 -1.4563 -0.0565  0.6833
  797MOL0     H 9972   2.257   6.125  10.462  2.3286 -2.2139  1.6162
  797MOL0     H 9973   2.312   6.121  10.231 -0.4588  0.2247 -0.3275
  797MOL0     H 9974   2.655   6.067  10.179 -0.7454 -0.3914 -0.1374
  797MOL0     H 9975   2.595   6.049  10.019 -0.9405  2.2318 -1.3794
  797MOL0     H 9976   2.829   6.129  10.036  1.9290  1.6111  1.4217
  797MOL0     H 9977   2.774   6.259  10.142 -1.2576 -1.7907  1.5430
  797MOL0     H 9978   2.658   6.387   9.966  0.8626  1.8153 -0.1381
  797MOL0     H 9979   2.825   6.378   9.925  0.3185 -0.9831 -1.3312
  797MOL0     H 9980   2.794   6.187   9.775  3.1051  2.4613 -0.3820
  797MOL0     H 9981   2.735   6.337   9.725 -1.8099  0.4285  1.3252
  797MOL0     H 9982   2.369   6.107   9.780 -1.2014  1.7313 -0.0866
  797MOL0     H 9983   2.668   6.344  10.307  0.1601 -0.7110  0.4119
  797MOL0     H 9984   2.691   6.450  10.502 -0.7486  0.3504 -0.0775
  797MOL0     H 9985   2.591   6.420  10.641 -1.0679 -0.9717 -0.7154
  797MOL0     H 9986   2.712   6.297  10.601 -1.9966 -0.6316  1.3563
  798MOL0     O 9987   2.997   9.207   5.921 -0.5080 -0.9335  0.6659
  798MOL0     C 9988   2.922   9.249   6.007  0.0109 -0.0647 -1.2858
  798MOL0     O 9989   2.787   9.238   6.008  0.4288 -0.3829 -0.5181
  798MOL0     C 9990   2.708   9.161   5.925 -0.2136 -0.4127  0.7452
  798MOL0     C 9991   2.600   9.088   5.967  0.5326  0.3093 -0.0854
  798MOL0     C 9992   2.521   9.015   5.874 -0.2215  0.0360  0.9117
  798MOL0     C 9993   2.538   9.020   5.731  0.1652 -0.0378  0.2052
  798MOL0     O 9994   2.459   8.957   5.632 -0.4770  0.0554 -0.2112
  798MOL0     C 9995   2.326   8.898   5.667 -0.2631 -0.5998 -0.5289
  798MOL0     C 9996   2.257   8.841   5.543  0.0268  0.2901 -1.1542
  798MOL0     C 9997   2.114   8.791   5.562 -0.6751  0.2780  0.6034
  798MOL0     C 9998   2.035   8.769   5.428  0.1819 -0.0205 -0.9448
  798MOL0     C 9999   2.085   8.657   5.337  0.6552 -0.3812  0.2233
  798MOL0     C10000   1.991   8.632   5.218 -0.1137  0.7125 -0.0231
  798MOL0     C10001   2.041   8.514   5.127  1.2234 -0.4471 -0.1060
  798MOL0     C10002   1.964   8.508   4.994  0.7125  0.0251  0.2624
  798MOL0     N10003   2.014   8.405   4.899 -0.4264  0.7917  0.9946
  798MOL0     C10004   2.072   8.432   4.777 -0.3785 -0.3665 -0.2084
  798MOL0     C10005   2.100   8.322   4.720 -0.1793  1.0258  0.1226
  798MOL0     C10006   2.173   8.311   4.596 -0.5101 -0.6407  0.0980
  798MOL0     C10007   2.329   8.305   4.608  0.0133  0.0404 -0.8398
  798MOL0     C10008   2.401   8.442   4.589 -0.2853  0.0056 -0.6996
  798MOL0     C10009   2.558   8.417   4.572 -0.1719 -0.3029  0.1907
  798MOL0     O10010   2.611   8.358   4.695  0.6086  0.4771  0.4491
  798MOL0     C10011   2.698   8.252   4.677 -0.0459  0.8038  0.5310
  798MOL0     C10012   2.820   8.256   4.743  1.1235  0.3758  0.5014
  798MOL0     C10013   2.889   8.137   4.761 -0.1930 -0.4387 -0.3148
  798MOL0     C10014   3.018   8.148   4.848  0.6424  0.0387 -0.7971
  798MOL0     C10015   2.852   8.020   4.693 -0.4036 -0.1207  0.4288
  798MOL0     C10016   2.942   7.900   4.695  0.2484  0.4271 -0.5742
  798MOL0     O10017   2.883   7.778   4.662  0.1307 -0.1349  0.0036
  798MOL0     C10018   2.946   7.666   4.711 -0.2307  0.3143  0.0228
  798MOL0     C10019   3.029   7.590   4.629 -0.2480  0.2618 -0.5134
  798MOL0     C10020   3.081   7.470   4.672 -0.3272  0.2925  0.4874
  798MOL0     C10021   3.063   7.426   4.799 -0.1517 -0.1091  0.4200
  798MOL0     O10022   3.112   7.309   4.853  0.1681  0.4622 -0.5735
  798MOL0     C10023   3.150   7.206   4.762  0.0872  0.7171 -0.0495
  798MOL0     C10024   3.209   7.082   4.834  0.1243 -0.1235  0.1184
  798MOL0     C10025   3.235   6.963   4.745 -0.0853 -0.3480 -1.0193
  798MOL0     C10026   3.342   7.007   4.651 -0.2329  0.0209  0.3231
  798MOL0     C10027   3.408   6.884   4.589  0.7798  0.1814 -0.2107
  798MOL0     C10028   3.536   6.910   4.512  0.0316  0.9304 -0.6163
  798MOL0     C10029   3.659   6.943   4.602  0.5431  0.0765  0.2624
  798MOL0     C10030   3.754   6.823   4.631 -0.9256 -0.3200  0.3849
  798MOL0    Cl10031   3.904   6.890   4.692  0.2215  0.6003 -0.2022
  798MOL0     C10032   2.994   7.500   4.890  0.3550 -0.0643 -0.5092
  798MOL0     C10033   2.933   7.622   4.845 -0.5026  0.4350  0.6327
  798MOL0     O10034   3.063   7.913   4.723  0.4458 -0.1895 -0.5091
  798MOL0     C10035   2.735   8.021   4.615 -0.7324  0.2204  0.7757
  798MOL0     C10036   2.656   8.140   4.614  0.0886 -0.4322  0.1181
  798MOL0     N10037   2.058   8.218   4.803  0.0957  0.2255 -0.6237
  798MOL0     N10038   2.000   8.261   4.908  0.7731 -0.1446 -0.1060
  798MOL0     C10039   2.635   9.106   5.686 -0.1845  0.7142  0.0916
  798MOL0     C10040   2.723   9.161   5.776  0.4698 -0.1867  0.4890
  798MOL0     C10041   2.983   9.314   6.132  0.1791  1.1662  0.2416
  798MOL0     C10042   2.936   9.267   6.252 -0.7780  0.2537 -0.8393
  798MOL0     C10043   2.975   9.328   6.377  0.3185 -0.5188 -0.1334
  798MOL0     C10044   3.072   9.427   6.372 -0.1097  0.9645  0.7985
  798MOL0     O10045   3.116   9.496   6.478  0.1484  0.2632  0.4198
  798MOL0     C10046   3.259   9.532   6.490 -0.2226 -0.8468  0.6929
  798MOL0     C10047   3.291   9.603   6.623 -0.0326 -0.2400 -0.5122
  798MOL0     C10048   3.426   9.676   6.619  0.5814 -0.5139 -0.0766
  798MOL0     C10049   3.540   9.592   6.676  0.5174  0.9894 -0.1785
  798MOL0     C10050   3.660   9.678   6.663 -0.2468 -0.5743 -0.2282
  798MOL0     C10051   3.752   9.751   6.642  0.0278 -0.1652  1.0301
  798MOL0     C10052   3.122   9.467   6.253  0.1032 -0.5860  0.3602
  798MOL0     C10053   3.086   9.411   6.133  0.5486 -0.1432  0.7849
  798MOL0     C10054   3.137   9.487   6.004 -0.0735  0.2489  0.0768
  798MOL0     H10055   2.570   9.081   6.071  1.8653 -2.2708  0.2276
  798MOL0     H10056   2.439   8.959   5.919  0.0158 -0.3032  0.9268
  798MOL0     H10057   2.253   8.971   5.704  0.6694 -0.3165  0.8368
  798MOL0     H10058   2.339   8.820   5.743 -0.8784 -0.1414  0.0591
  798MOL0     H10059   2.256   8.929   5.478 -1.9972  1.3576  0.2179
  798MOL0     H10060   2.326   8.768   5.500 -0.5210 -1.1625  0.2957
  798MOL0     H10061   2.108   8.692   5.606 -1.5592 -0.8303 -1.8291
  798MOL0     H10062   2.048   8.857   5.621 -0.2593 -0.5465  2.0380
  798MOL0     H10063   1.937   8.739   5.464  1.5470 -2.4412  1.0348
  798MOL0     H10064   2.030   8.862   5.370  3.8242  1.2190  0.4438
  798MOL0     H10065   2.100   8.563   5.391  0.0272 -0.9115 -0.5157
  798MOL0     H10066   2.182   8.681   5.293  1.0223 -2.0763  0.0472
  798MOL0     H10067   1.891   8.594   5.242 -0.2859 -0.6157 -2.4922
  798MOL0     H10068   1.978   8.728   5.167 -0.6265  0.3166 -0.6632
  798MOL0     H10069   2.024   8.418   5.177 -4.7101 -0.8499 -2.0822
  798MOL0     H10070   2.148   8.529   5.107  1.3738 -1.5674 -0.2451
  798MOL0     H10071   1.860   8.480   5.017  1.3342 -2.1980  0.6567
  798MOL0     H10072   1.969   8.598   4.933  1.8914  2.0594  3.1519
  798MOL0     H10073   2.079   8.527   4.724 -0.3953 -0.7151 -0.8398
  798MOL0     H10074   2.129   8.379   4.522 -1.1935  1.0902  2.0138
  798MOL0     H10075   2.149   8.210   4.561 -1.4343 -0.9850  1.6368
  798MOL0     H10076   2.361   8.257   4.700 -1.9067 -0.6221 -0.4691
  798MOL0     H10077   2.360   8.240   4.526 -2.7945 -2.7433  0.1065
  798MOL0     H10078   2.370   8.488   4.495  0.7652  2.4154  0.0569
  798MOL0     H10079   2.382   8.504   4.677 -0.6044 -0.2760 -0.5669
  798MOL0     H10080   2.563   8.350   4.486 -1.8939 -0.3826  0.1286
  798MOL0     H10081   2.605   8.516   4.563  1.3439 -0.8306  1.7424
  798MOL0     H10082   2.856   8.346   4.791  1.0356  0.2700  0.7686
  798MOL0     H10083   3.018   8.071   4.926 -1.8418  0.9755  0.2539
  798MOL0     H10084   3.030   8.244   4.899 -1.8759  0.7603 -1.3932
  798MOL0     H10085   3.107   8.140   4.785  0.8957  1.2911 -0.6212
  798MOL0     H10086   3.049   7.619   4.527  0.0449 -3.3963 -1.6340
  798MOL0     H10087   3.140   7.414   4.600 -2.4356 -1.3157 -0.0836
  798MOL0     H10088   3.075   7.174   4.689  1.6160  1.9886 -2.3108
  798MOL0     H10089   3.232   7.246   4.701 -0.8274 -0.8284 -2.4429
  798MOL0     H10090   3.299   7.123   4.880  0.1214  2.1157 -1.6869
  798MOL0     H10091   3.142   7.048   4.913 -2.7609  3.4430 -0.4976
  798MOL0     H10092   3.144   6.930   4.695 -0.0835  1.1099 -2.0402
  798MOL0     H10093   3.276   6.885   4.810 -2.4541  1.3303  2.8411
  798MOL0     H10094   3.423   7.058   4.704 -1.2057  0.8100  1.0960
  798MOL0     H10095   3.309   7.082   4.578 -3.3959  0.9851  2.5156
  798MOL0     H10096   3.426   6.802   4.660  2.4272  0.3641 -0.3733
  798MOL0     H10097   3.336   6.845   4.517  1.5330  3.4297 -2.9541
  798MOL0     H10098   3.510   7.002   4.458 -4.0521  2.1338  2.8682
  798MOL0     H10099   3.556   6.825   4.447  0.7963  1.0812 -0.5892
  798MOL0     H10100   3.626   6.988   4.696 -0.4311 -1.6500  0.7830
  798MOL0     H10101   3.723   7.017   4.553  1.5549 -0.6602  0.4420
  798MOL0     H10102   3.771   6.769   4.538 -0.4598  1.6748 -0.7313
  798MOL0     H10103   3.708   6.748   4.697 -1.6340 -0.3589 -0.1430
  798MOL0     H10104   2.997   7.459   4.991  2.9383 -0.1929 -0.5658
  798MOL0     H10105   2.874   7.678   4.917 -0.4383  1.8264 -0.3609
  798MOL0     H10106   2.721   7.928   4.561  0.9920 -0.7039  1.8280
  798MOL0     H10107   2.561   8.133   4.562  0.2921  0.2989 -0.3506
  798MOL0     H10108   2.635   9.121   5.578 -2.8595 -1.2080 -0.2759
  798MOL0     H10109   2.800   9.215   5.723 -0.7362 -0.2725 -1.4386
  798MOL0     H10110   2.858   9.192   6.254 -1.1183  0.4351  3.5865
  798MOL0     H10111   2.937   9.310   6.477  4.5168 -1.1931  1.5554
  798MOL0     H10112   3.320   9.444   6.468  2.1570  0.8180  0.2424
  798MOL0     H10113   3.284   9.607   6.414  0.7720  1.6106  3.2718
  798MOL0     H10114   3.291   9.527   6.701 -2.0925 -0.4808 -0.6720
  798MOL0     H10115   3.207   9.669   6.648  0.9412  0.3794  1.2480
  798MOL0     H10116   3.456   9.720   6.524  1.4952 -0.1600  0.3636
  798MOL0     H10117   3.428   9.766   6.681  3.9040  0.2826 -1.1477
  798MOL0     H10118   3.565   9.508   6.610  1.2660  1.5522 -0.6327
  798MOL0     H10119   3.521   9.555   6.777 -1.0583  2.6581  0.1912
  798MOL0     H10120   3.818   9.833   6.624  1.0889 -0.9138  1.3866
  798MOL0     H10121   3.182   9.556   6.236 -1.7691  0.9820  1.5130
  798MOL0     H10122   3.194   9.576   6.030  1.6497 -0.1416 -2.0737
  798MOL0     H10123   3.198   9.425   5.937  0.9784  0.5325  0.7613
  798MOL0     H10124   3.049   9.520   5.947  0.5256 -1.3910 -1.9216
  799MOL0     O10125   4.476   0.289   3.397  0.4404 -0.3660  0.1232
  799MOL0     C10126   4.478   0.380   3.482 -0.4142  0.1666  0.1851
  799MOL0     O10127   4.569   0.484   3.485 -0.0815  0.1972 -0.5593
  799MOL0     C10128   4.695   0.463   3.435 -0.9770 -1.0962 -0.3250
  799MOL0     C10129   4.780   0.576   3.444  0.5374 -0.0837 -0.1512
  799MOL0     C10130   4.920   0.562   3.430  0.2854 -0.5786 -0.0779
  799MOL0     C10131   4.973   0.434   3.407 -0.6852 -0.2683 -0.3419
  799MOL0     O10132   5.109   0.430   3.422  0.4283 -0.0565 -0.4917
  799MOL0     C10133   5.159   0.359   3.311 -0.5858 -0.9731 -0.4746
  799MOL0     C10134   5.314   0.366   3.318 -0.3229  0.3493  0.4469
  799MOL0     C10135   5.375   0.295   3.193  0.4054 -0.1730 -0.1948
  799MOL0     C10136   5.528   0.276   3.199 -0.1634 -0.7275  0.5049
  799MOL0     C10137   5.581   0.235   3.056  0.4874  0.4718 -0.9865
  799MOL0     C10138   5.588   0.352   2.949 -0.7405  0.2828 -0.1028
  799MOL0     C10139   5.638   0.488   2.996 -0.2700 -0.4194  0.3104
  799MOL0     C10140   5.659   0.571   2.867 -0.7875  0.0815 -0.0546
  799MOL0     N10141   5.798   0.560   2.814  0.4735  0.5492 -0.5622
  799MOL0     C10142   5.883   0.453   2.800  0.2364  0.6377 -0.5006
  799MOL0     C10143   5.997   0.500   2.747  0.4016 -0.4834  0.2468
  799MOL0     C10144   6.120   0.430   2.727 -0.8528  0.4792 -0.2903
  799MOL0     C10145   6.138   0.375   2.583 -0.4029 -0.3194 -0.4291
  799MOL0     C10146   6.205   0.478   2.490  0.2530 -0.2642  1.1166
  799MOL0     C10147   6.360   0.492   2.492  0.2276  0.7705 -0.5383
  799MOL0     O10148   6.399   0.575   2.601  0.2860  0.2521  1.0222
  799MOL0     C10149   6.538   0.605   2.605  0.8593 -0.1894 -0.3687
  799MOL0     C10150   6.648   0.533   2.560 -0.1538 -0.1982  0.0725
  799MOL0     C10151   6.780   0.549   2.600  0.0166  0.2443  0.5263
  799MOL0     C10152   6.876   0.441   2.565  0.2642  0.2836 -0.2625
  799MOL0     C10153   6.819   0.666   2.673  0.9050 -0.6453  0.5144
  799MOL0     C10154   6.957   0.695   2.727 -0.7864 -0.2262  0.1093
  799MOL0     O10155   7.057   0.624   2.674  0.0024 -0.2389  0.2612
  799MOL0     C10156   7.182   0.606   2.726 -0.7854  0.4239 -0.6061
  799MOL0     C10157   7.263   0.494   2.684 -0.2377  0.9157 -0.7625
  799MOL0     C10158   7.395   0.474   2.731 -0.2656 -0.5388  0.2931
  799MOL0     C10159   7.450   0.564   2.816 -0.3032  0.1819 -0.3947
  799MOL0     O10160   7.577   0.545   2.853 -0.5436  0.3251 -0.2692
  799MOL0     C10161   7.657   0.619   2.757 -0.4865 -0.7634  0.5456
  799MOL0     C10162   7.803   0.615   2.800  1.0991 -0.4212  0.1231
  799MOL0     C10163   7.806   0.715   2.918 -0.2877  0.0549 -0.5071
  799MOL0     C10164   7.948   0.715   2.976  0.0688  0.0787 -0.7290
  799MOL0     C10165   7.966   0.800   3.100  1.3874 -0.4355 -0.3272
  799MOL0     C10166   8.109   0.842   3.139  0.7443  0.5714 -0.5347
  799MOL0     C10167   8.122   0.898   3.281  0.3385 -0.6528 -0.8159
  799MOL0     C10168   8.261   0.921   3.328 -0.4295  0.5517 -0.0543
  799MOL0    Cl10169   8.341   0.755   3.327 -0.3067 -0.1222 -0.2864
  799MOL0     C10170   7.375   0.675   2.860 -0.6283  1.0818 -0.0280
  799MOL0     C10171   7.247   0.706   2.815  0.2079  0.6889 -0.4143
  799MOL0     O10172   6.972   0.772   2.820  0.3986 -0.3076 -0.0360
  799MOL0     C10173   6.712   0.756   2.702  1.1308  0.5093 -0.6285
  799MOL0     C10174   6.577   0.729   2.667 -0.3974 -0.0238 -0.8554
  799MOL0     N10175   5.983   0.635   2.721 -0.3789 -0.6713  0.2445
  799MOL0     N10176   5.867   0.665   2.764  0.5279 -0.2736  0.1642
  799MOL0     C10177   4.892   0.320   3.397 -0.8218  0.6108 -0.3385
  799MOL0     C10178   4.755   0.337   3.407  0.7194 -0.7753 -0.2203
  799MOL0     C10179   4.356   0.409   3.560 -0.2946  0.1385  0.5336
  799MOL0     C10180   4.382   0.449   3.695 -0.2561  0.2231  0.6849
  799MOL0     C10181   4.280   0.463   3.789 -0.0093  0.1741  0.4504
  799MOL0     C10182   4.145   0.450   3.737 -0.6251 -0.2341 -1.1892
  799MOL0     O10183   4.030   0.460   3.803  0.1898  0.4915 -0.0546
  799MOL0     C10184   4.030   0.530   3.929 -0.1360  0.4663 -0.2105
  799MOL0     C10185   3.890   0.526   3.981 -0.0372 -1.2709 -0.4409
  799MOL0     C10186   3.811   0.614   3.876  0.5146  0.4905  0.7272
  799MOL0     C10187   3.672   0.647   3.941 -0.3205  0.8884  0.2429
  799MOL0     C10188   3.577   0.711   3.849 -0.6012  0.4255  0.4382
  799MOL0     C10189   3.512   0.782   3.779  0.6335  0.5314  0.1219
  799MOL0     C10190   4.128   0.416   3.608 -0.2705 -1.2626 -0.0576
  799MOL0     C10191   4.229   0.404   3.509 -0.2131  0.7745 -0.2364
  799MOL0     C10192   4.202   0.392   3.363  1.0463  0.2725 -1.2427
  799MOL0     H10193   4.730   0.670   3.466 -2.4501 -1.6271  0.1689
  799MOL0     H10194   4.984   0.644   3.459 -1.3067  1.5392 -2.1624
  799MOL0     H10195   5.139   0.410   3.217  1.7360  0.3730 -0.3155
  799MOL0     H10196   5.128   0.255   3.302 -0.9043 -1.1931  2.1259
  799MOL0     H10197   5.348   0.469   3.332  0.4762  0.2915 -0.9153
  799MOL0     H10198   5.346   0.308   3.405  1.7301  1.2452  0.3428
  799MOL0     H10199   5.339   0.192   3.192 -1.0437  0.2564  1.7544
  799MOL0     H10200   5.340   0.342   3.101 -1.3141 -4.6830 -2.1343
  799MOL0     H10201   5.564   0.373   3.234 -4.4723  1.0154  0.8141
  799MOL0     H10202   5.555   0.205   3.278  1.9625  0.7859  1.2257
  799MOL0     H10203   5.539   0.141   3.019  0.6339  0.6739 -1.6910
  799MOL0     H10204   5.685   0.219   3.086 -0.2881  0.4853  1.9704
  799MOL0     H10205   5.654   0.312   2.872 -1.0010 -2.3045  0.9011
  799MOL0     H10206   5.489   0.369   2.905 -1.4361 -2.0620  0.3723
  799MOL0     H10207   5.733   0.472   3.048  1.7954  1.1673 -2.6897
  799MOL0     H10208   5.563   0.519   3.069  2.2502  1.9952  2.0632
  799MOL0     H10209   5.591   0.552   2.783  0.0614  0.9015 -0.9550
  799MOL0     H10210   5.648   0.677   2.889  0.1269  0.4602 -1.2664
  799MOL0     H10211   5.850   0.358   2.841  0.7528  0.5064 -0.3870
  799MOL0     H10212   6.145   0.343   2.788  1.5395  1.5298  0.3528
  799MOL0     H10213   6.200   0.503   2.746 -1.8793  1.7201 -0.5942
  799MOL0     H10214   6.207   0.291   2.591 -1.1837 -1.0735 -1.3533
  799MOL0     H10215   6.040   0.345   2.545  0.1467  0.3687 -2.5421
  799MOL0     H10216   6.173   0.455   2.388  2.0983  0.4541  0.3474
  799MOL0     H10217   6.159   0.576   2.507 -3.0148 -1.6506  1.1527
  799MOL0     H10218   6.406   0.392   2.496 -0.7214  0.3612  1.5694
  799MOL0     H10219   6.399   0.535   2.399  1.7026 -1.8538 -1.2351
  799MOL0     H10220   6.625   0.437   2.514  3.0481 -1.1430  0.1556
  799MOL0     H10221   6.912   0.395   2.658 -1.7977  1.0340  0.9750
  799MOL0     H10222   6.954   0.486   2.502  0.6267  1.9211  1.2895
  799MOL0     H10223   6.820   0.358   2.521 -2.8763  2.1081  0.0678
  799MOL0     H10224   7.220   0.426   2.611  1.8960 -3.6754  1.7999
  799MOL0     H10225   7.456   0.390   2.700  1.2114  1.2088 -1.8370
  799MOL0     H10226   7.643   0.574   2.658 -1.5935  1.8171 -0.5534
  799MOL0     H10227   7.617   0.721   2.753  1.6857  0.3608  3.3624
  799MOL0     H10228   7.826   0.510   2.821  0.2642 -0.7513 -0.5646
  799MOL0     H10229   7.872   0.642   2.720  0.5385  0.3097 -0.1257
  799MOL0     H10230   7.731   0.681   2.990  0.3124  4.2468  2.4658
  799MOL0     H10231   7.780   0.819   2.895  0.2188  0.4355  0.6071
  799MOL0     H10232   8.026   0.746   2.906 -0.1766  2.4289 -0.0737
  799MOL0     H10233   7.965   0.610   3.002 -2.6359 -0.2438  0.0423
  799MOL0     H10234   7.894   0.881   3.087  0.1316 -1.3603  0.5467
  799MOL0     H10235   7.924   0.746   3.185 -0.1127  0.7140 -0.2829
  799MOL0     H10236   8.136   0.922   3.070  0.0033  1.4211  0.1550
  799MOL0     H10237   8.176   0.755   3.133  0.8671  0.4672  1.5201
  799MOL0     H10238   8.066   0.838   3.353 -0.6867  0.4448 -0.6659
  799MOL0     H10239   8.082   1.000   3.279  1.0235 -0.3892 -1.2490
  799MOL0     H10240   8.259   0.969   3.426  1.1250 -0.4894  0.5204
  799MOL0     H10241   8.312   0.992   3.262 -1.7854  0.3370 -1.3852
  799MOL0     H10242   7.420   0.751   2.924  1.2341  0.0537 -0.0817
  799MOL0     H10243   7.196   0.795   2.849 -2.7682 -0.9331 -0.2541
  799MOL0     H10244   6.724   0.848   2.759 -0.4474 -0.3241  1.1949
  799MOL0     H10245   6.497   0.801   2.687  1.0556  1.5286 -0.4266
  799MOL0     H10246   4.931   0.219   3.386 -1.3896  0.2651  0.7295
  799MOL0     H10247   4.704   0.242   3.417 -1.1829  0.2267  0.2442
  799MOL0     H10248   4.480   0.466   3.738 -0.2173  0.6016  0.4481
  799MOL0     H10249   4.292   0.465   3.897  1.6688 -0.4225  0.2950
  799MOL0     H10250   4.101   0.496   4.005 -2.2282  1.3967  2.3220
  799MOL0     H10251   4.069   0.628   3.899 -5.4665  2.1803 -2.9824
  799MOL0     H10252   3.887   0.569   4.081  0.0612  3.1107 -2.0954
  799MOL0     H10253   3.856   0.424   4.002  1.2773 -1.2920  1.9100
  799MOL0     H10254   3.869   0.704   3.855 -0.3085  1.4220  2.2389
  799MOL0     H10255   3.795   0.562   3.781 -1.8518 -0.2950  1.4816
  799MOL0     H10256   3.693   0.721   4.019  2.4122 -1.3205  1.8478
  799MOL0     H10257   3.628   0.562   3.994 -0.1403  0.8614  0.3529
  799MOL0     H10258   3.448   0.853   3.729  0.0452  0.0328  0.1622
  799MOL0     H10259   4.026   0.430   3.572 -0.2928  0.7649  0.6512
  799MOL0     H10260   4.258   0.474   3.316  1.6873  0.6821  0.1792
  799MOL0     H10261   4.224   0.291   3.329 -3.0894 -2.1976  2.2678
  799MOL0     H10262   4.100   0.421   3.334  0.7920 -1.5730 -2.3215
  800MOL0     O10263   9.796   7.595   8.563 -0.4655 -0.6235  0.2857
  800MOL0     C10264   9.770   7.630   8.676 -0.3342 -0.3292 -0.0551
  800MOL0     O10265   9.864   7.674   8.770 -1.4165  1.1949  0.3407
  800MOL0     C10266   9.992   7.694   8.725  0.0025 -0.3408 -0.5348
  800MOL0     C10267  10.017   7.809   8.653 -0.0883  0.5456  0.3939
  800MOL0     C10268  10.148   7.847   8.609  0.4780 -0.2280 -1.0435
  800MOL0     C10269  10.250   7.761   8.646 -0.4674 -0.1792  0.7494
  800MOL0     O10270  10.379   7.800   8.616 -0.0532  0.2755  0.8532
  800MOL0     C10271  10.400   7.823   8.477 -0.6931  0.2039 -0.4462
  800MOL0     C10272  10.532   7.888   8.442  0.4170  0.1646 -0.0262
  800MOL0     C10273  10.527   8.041   8.463  0.1377 -0.5263 -0.2106
  800MOL0     C10274  10.670   8.099   8.435  0.3894 -0.3689 -0.5343
  800MOL0     C10275  10.700   8.241   8.482  0.2115 -0.1113  0.0108
  800MOL0     C10276  10.845   8.276   8.468 -0.6445 -0.3563  0.3275
  800MOL0     C10277  10.871   8.413   8.527 -0.5834 -0.2141  0.7222
  800MOL0     C10278  10.899   8.518   8.412 -0.0421  0.4020  0.1516
  800MOL0     N10279  10.769   8.565   8.344 -0.9349 -0.0278  1.3452
  800MOL0     C10280  10.644   8.578   8.401  0.5710 -0.3327 -0.1852
  800MOL0     C10281  10.562   8.581   8.292 -0.1365  0.2029 -0.4014
  800MOL0     C10282  10.412   8.591   8.285  0.1758 -0.3787 -0.9805
  800MOL0     C10283  10.340   8.462   8.225 -0.6838 -0.6742 -0.3298
  800MOL0     C10284  10.194   8.464   8.180  0.7645  0.4178 -0.2112
  800MOL0     C10285  10.165   8.343   8.100  0.5806  0.1717 -0.4431
  800MOL0     O10286  10.250   8.328   7.978  0.4638 -0.6121 -1.6450
  800MOL0     C10287  10.232   8.387   7.859 -0.3723 -0.4766 -0.8397
  800MOL0     C10288  10.118   8.449   7.817  0.6295 -0.2342 -0.8514
  800MOL0     C10289  10.099   8.504   7.690 -0.8252  0.9110  0.8529
  800MOL0     C10290   9.957   8.559   7.658 -0.7510 -0.1629  0.1730
  800MOL0     C10291  10.216   8.495   7.599 -0.3652 -0.0689  0.3393
  800MOL0     C10292  10.214   8.553   7.460  0.6491 -0.4151  0.4489
  800MOL0     O10293  10.322   8.515   7.386 -0.3774  0.3874 -0.4413
  800MOL0     C10294  10.342   8.570   7.266  0.0748 -0.0220 -0.1359
  800MOL0     C10295  10.274   8.516   7.156 -0.0132 -1.2884  0.3769
  800MOL0     C10296  10.303   8.574   7.025  0.2348  0.5947  0.5633
  800MOL0     C10297  10.406   8.666   7.016 -0.1362  0.1525  0.3254
  800MOL0     O10298  10.445   8.700   6.886  0.1561  0.3984 -0.2639
  800MOL0     C10299  10.494   8.830   6.871  0.1245  0.5435  0.0928
  800MOL0     C10300  10.432   8.892   6.748 -0.5658  0.3808  0.0950
  800MOL0     C10301  10.298   8.966   6.780  0.4457  0.4420 -0.0018
  800MOL0     C10302  10.194   8.862   6.816 -0.3899  0.8436 -0.6370
  800MOL0     C10303  10.057   8.908   6.790 -0.0942 -0.9342  0.2796
  800MOL0     C10304   9.948   8.812   6.835 -0.4046 -0.3520  0.3803
  800MOL0     C10305   9.802   8.869   6.823 -0.2449  0.1558 -0.2515
  800MOL0     C10306   9.712   8.743   6.828  0.0602  0.7600 -0.2854
  800MOL0    Cl10307   9.748   8.636   6.686 -0.0143 -0.0151 -0.0177
  800MOL0     C10308  10.486   8.699   7.128 -0.1467  0.4513 -0.0790
  800MOL0     C10309  10.445   8.658   7.254 -0.8748 -0.6955 -0.1283
  800MOL0     O10310  10.116   8.617   7.421 -0.4182 -0.3230  0.6287
  800MOL0     C10311  10.327   8.426   7.642 -0.5138 -0.0502  0.0026
  800MOL0     C10312  10.338   8.375   7.768 -0.3696  0.6890 -0.0203
  800MOL0     N10313  10.625   8.579   8.172  0.3005  0.3366  0.2863
  800MOL0     N10314  10.752   8.575   8.204  0.7917 -0.5491  0.0711
  800MOL0     C10315  10.228   7.630   8.702  0.0824  0.4384 -0.2402
  800MOL0     C10316  10.099   7.600   8.752  0.1459  0.9104 -0.2915
  800MOL0     C10317   9.628   7.632   8.723  0.1224  0.2976  0.1389
  800MOL0     C10318   9.603   7.676   8.851 -0.0430 -1.6690 -0.0862
  800MOL0     C10319   9.475   7.693   8.903  0.7841 -0.3248 -0.5067
  800MOL0     C10320   9.369   7.670   8.828  0.2773  0.3371  0.1103
  800MOL0     O10321   9.246   7.695   8.882 -0.1550  0.2696 -0.9297
  800MOL0     C10322   9.131   7.615   8.836  0.3917  0.6142  1.4481
  800MOL0     C10323   9.026   7.600   8.942  0.3787 -0.4098 -0.5003
  800MOL0     C10324   8.940   7.726   8.964 -0.0311 -0.7930 -0.4249
  800MOL0     C10325   8.830   7.744   8.861 -0.3205 -0.2203  0.3395
  800MOL0     C10326   8.701   7.791   8.923 -0.7726 -0.2180 -0.4273
  800MOL0     C10327   8.592   7.835   8.963 -0.3390  0.0016 -0.0958
  800MOL0     C10328   9.385   7.626   8.696  0.3751  0.3083  0.7321
  800MOL0     C10329   9.515   7.609   8.643 -0.2602 -0.3387 -0.0218
  800MOL0     C10330   9.525   7.580   8.491  0.0962 -1.0906 -0.4943
  800MOL0     H10331   9.936   7.880   8.648  0.8739  1.7141  0.9364
  800MOL0     H10332  10.162   7.938   8.552  1.5428 -1.1669 -2.3666
  800MOL0     H10333  10.322   7.887   8.436 -0.4227 -0.3124 -1.8273
  800MOL0     H10334  10.398   7.728   8.424 -0.3709 -1.8588  2.9099
  800MOL0     H10335  10.611   7.829   8.490 -2.1105 -2.7236  0.9476
  800MOL0     H10336  10.549   7.877   8.334 -2.4787  0.2387 -0.5770
  800MOL0     H10337  10.454   8.083   8.393 -1.5282 -1.0019  1.1671
  800MOL0     H10338  10.500   8.067   8.566  0.8983 -1.9272  0.3653
  800MOL0     H10339  10.744   8.041   8.491  0.8352  0.8778  0.2030
  800MOL0     H10340  10.701   8.085   8.331  1.5753 -0.4392 -0.1895
  800MOL0     H10341  10.676   8.250   8.588  1.8351 -3.1060  0.7467
  800MOL0     H10342  10.634   8.305   8.423 -0.0728  0.1773  0.6435
  800MOL0     H10343  10.908   8.204   8.521  1.8585  1.4826  0.0386
  800MOL0     H10344  10.876   8.274   8.364 -2.9550  0.1656 -0.4330
  800MOL0     H10345  10.958   8.421   8.593 -1.4244  2.2632  1.6491
  800MOL0     H10346  10.788   8.442   8.592 -1.2408 -0.6289  0.0783
  800MOL0     H10347  10.951   8.610   8.442 -0.5498  1.3965 -1.8754
  800MOL0     H10348  10.969   8.467   8.345 -0.8444  1.0510 -1.2233
  800MOL0     H10349  10.609   8.555   8.501 -1.8388  0.4966 -0.7550
  800MOL0     H10350  10.373   8.680   8.235  1.9046  0.1365 -1.4776
  800MOL0     H10351  10.368   8.589   8.386  1.0649  1.8065 -0.4949
  800MOL0     H10352  10.398   8.438   8.135 -1.0529 -0.2806 -0.6799
  800MOL0     H10353  10.351   8.386   8.303  1.3763 -0.6477 -0.5485
  800MOL0     H10354  10.127   8.481   8.264  0.9413  1.5341 -0.2912
  800MOL0     H10355  10.175   8.538   8.102  0.7947  0.5123 -0.1270
  800MOL0     H10356  10.190   8.266   8.174 -2.3084  1.5811  2.2759
  800MOL0     H10357  10.060   8.323   8.074  0.6325 -2.6638  1.1479
  800MOL0     H10358  10.034   8.452   7.887 -1.1061 -0.2549 -2.8291
  800MOL0     H10359   9.923   8.500   7.572 -0.5490 -1.1725  0.7778
  800MOL0     H10360   9.971   8.664   7.629  1.3157 -0.6879 -0.9036
  800MOL0     H10361   9.881   8.565   7.736  1.8508  1.2918  2.7920
  800MOL0     H10362  10.198   8.441   7.170 -3.0079  1.2213 -1.2333
  800MOL0     H10363  10.248   8.545   6.936 -2.5700 -1.1911  2.7114
  800MOL0     H10364  10.465   8.895   6.954 -3.8247  2.1819 -2.2988
  800MOL0     H10365  10.603   8.828   6.873  0.3301  0.9356  5.6557
  800MOL0     H10366  10.504   8.963   6.707 -0.4888  1.0968  1.4034
  800MOL0     H10367  10.414   8.818   6.670  0.0795 -0.5379  0.8033
  800MOL0     H10368  10.257   9.024   6.697  0.0167 -1.1693 -0.9599
  800MOL0     H10369  10.301   9.030   6.868 -0.0489  0.6732 -0.1525
  800MOL0     H10370  10.209   8.836   6.921  0.5293  0.8815 -0.7444
  800MOL0     H10371  10.213   8.773   6.755 -0.6735 -0.6564  1.3800
  800MOL0     H10372  10.044   9.003   6.843  0.8427 -0.8598  0.3987
  800MOL0     H10373  10.033   8.933   6.686 -2.7405  0.5862  1.1729
  800MOL0     H10374   9.965   8.787   6.940 -2.6314 -3.1124  0.2135
  800MOL0     H10375   9.965   8.712   6.796  2.2761 -0.4479  1.5905
  800MOL0     H10376   9.788   8.927   6.731 -1.4731 -1.9029 -1.4469
  800MOL0     H10377   9.784   8.926   6.915  3.5642 -1.6500  1.8308
  800MOL0     H10378   9.608   8.774   6.829 -0.3462 -0.4281  2.3948
  800MOL0     H10379   9.726   8.682   6.918 -0.0448 -0.3851 -1.0123
  800MOL0     H10380  10.579   8.755   7.126  0.0863  0.0663 -1.6472
  800MOL0     H10381  10.498   8.690   7.343 -1.5397 -3.5560  1.4568
  800MOL0     H10382  10.417   8.432   7.582 -0.9859  0.5123 -0.6621
  800MOL0     H10383  10.429   8.324   7.795 -0.5520  0.0210 -0.6250
  800MOL0     H10384  10.310   7.564   8.724 -0.6221 -0.5480 -0.4911
  800MOL0     H10385  10.072   7.508   8.803 -2.1074 -0.4406 -3.6163
  800MOL0     H10386   9.676   7.714   8.922 -0.9056  0.2613 -0.1589
  800MOL0     H10387   9.462   7.713   9.009  0.4131 -0.5005 -0.5165
  800MOL0     H10388   9.077   7.658   8.750 -0.0798 -0.8915  0.9505
  800MOL0     H10389   9.170   7.519   8.801 -2.8673  0.2218 -1.7340
  800MOL0     H10390   9.076   7.572   9.035  0.5862  1.5373  0.0240
  800MOL0     H10391   8.960   7.517   8.919  0.6249 -0.4321 -1.1461
  800MOL0     H10392   8.890   7.716   9.061  0.1398  0.1651 -0.2337
  800MOL0     H10393   9.004   7.814   8.972 -1.8227  0.4185  2.5692
  800MOL0     H10394   8.800   7.652   8.810  5.8555 -3.1997  1.2265
  800MOL0     H10395   8.856   7.818   8.785 -2.7407  0.7144  0.3163
  800MOL0     H10396   8.501   7.866   9.009 -0.7137 -1.1487 -0.0351
  800MOL0     H10397   9.310   7.615   8.619  1.4730  0.7678 -0.4481
  800MOL0     H10398   9.433   7.613   8.442 -0.5035 -1.7120  0.2029
  800MOL0     H10399   9.603   7.644   8.448  0.1886 -0.7524  0.1683
  800MOL0     H10400   9.538   7.474   8.466 -0.8239 -1.2576 -0.2770
  801MOL0     O10401   0.517  10.581   0.062  0.5221  0.4618  0.8331
  801MOL0     C10402   0.406  10.614   0.095  0.8343 -0.0956 -0.3400
  801MOL0     O10403   0.366  10.696   0.203  0.0851 -0.1700 -0.0622
  801MOL0     C10404   0.435  10.714   0.321 -0.1640  0.9933 -0.0304
  801MOL0     C10405   0.372  10.796   0.420  0.2358  0.3160  0.5501
  801MOL0     C10406   0.438  10.817   0.546 -0.2039 -0.0042  0.5156
  801MOL0     C10407   0.555  10.751   0.573  0.0897 -0.1567 -0.4979
  801MOL0     O10408   0.604  10.788   0.696  0.0721  0.5674 -0.6193
  801MOL0     C10409   0.738  10.754   0.733 -0.1766  0.4882 -0.7988
  801MOL0     C10410   0.736  10.755   0.886  0.1519 -0.1999 -0.1628
  801MOL0     C10411   0.862  10.723   0.953 -0.1157 -0.4111 -0.4220
  801MOL0     C10412   0.965  10.830   0.938  0.3497  0.4548  0.2770
  801MOL0     C10413   1.098  10.797   1.006 -0.7258 -0.1118 -0.5440
  801MOL0     C10414   1.221  10.876   0.965 -0.0257 -0.0706 -0.0559
  801MOL0     C10415   1.353  10.851   1.045 -0.3155  0.2932  0.6112
  801MOL0     C10416   1.416  10.709   1.036 -0.7793  0.5826  1.1738
  801MOL0     N10417   1.505  10.692   1.144 -0.1755  0.1956 -0.6193
  801MOL0     C10418   1.521  10.573   1.223 -0.4125 -0.2315  0.5278
  801MOL0     C10419   1.642  10.600   1.290  0.9943 -0.2784  0.0053
  801MOL0     C10420   1.697  10.500   1.393 -0.3040 -0.5218  0.9128
  801MOL0     C10421   1.835  10.441   1.353 -0.1755  0.4891 -0.1726
  801MOL0     C10422   1.951  10.533   1.374 -0.1226  0.1358 -0.5043
  801MOL0     C10423   2.078  10.456   1.384  0.4191  0.7278  0.5915
  801MOL0     O10424   2.116  10.395   1.257 -0.3269 -0.0577  0.6263
  801MOL0     C10425   2.250  10.365   1.240 -0.1041  0.5199 -0.0536
  801MOL0     C10426   2.294  10.344   1.113 -0.3967  0.3253  0.4752
  801MOL0     C10427   2.424  10.302   1.072  0.3298 -0.1459 -0.1496
  801MOL0     C10428   2.451  10.274   0.925  0.1438 -0.7507 -1.1135
  801MOL0     C10429   2.516  10.278   1.175 -0.5172  0.4796  0.0514
  801MOL0     C10430   2.665  10.247   1.162  0.0926 -0.2116 -0.4151
  801MOL0     O10431   2.741  10.246   1.280 -0.0415  0.2612  0.3327
  801MOL0     C10432   2.873  10.209   1.277  0.8943 -0.3224  0.0646
  801MOL0     C10433   2.918  10.074   1.302  0.1996 -0.7357  0.9897
  801MOL0     C10434   3.049  10.042   1.286 -0.4542  0.5239 -0.7744
  801MOL0     C10435   3.147  10.127   1.252 -0.0976  0.4171  0.3859
  801MOL0     O10436   3.269  10.074   1.219 -0.0340 -0.5192  0.1753
  801MOL0     C10437   3.355  10.164   1.146 -0.4267 -0.3763  0.7038
  801MOL0     C10438   3.478  10.086   1.097  0.1991  0.3529 -0.5927
  801MOL0     C10439   3.560  10.019   1.214  0.1823 -0.4195  0.6667
  801MOL0     C10440   3.649  10.128   1.280  0.1489 -0.2292  0.1737
  801MOL0     C10441   3.791  10.078   1.316  0.1463 -0.2176 -0.2295
  801MOL0     C10442   3.874  10.178   1.391 -0.3427  0.8760 -0.4620
  801MOL0     C10443   4.025  10.177   1.340 -0.5174  0.7088  0.1099
  801MOL0     C10444   4.103  10.294   1.417 -0.8716  0.2435  0.3396
  801MOL0    Cl10445   4.265  10.245   1.365 -0.3300 -0.0862 -0.2102
  801MOL0     C10446   3.106  10.260   1.231 -0.7869  0.4432  1.0828
  801MOL0     C10447   2.972  10.302   1.250 -0.2897 -0.4026  0.7492
  801MOL0     O10448   2.706  10.214   1.053 -0.2762  0.1989 -0.1926
  801MOL0     C10449   2.478  10.295   1.308  0.0680 -1.3704  0.1226
  801MOL0     C10450   2.352  10.343   1.334 -0.9980  0.3055  0.2345
  801MOL0     N10451   1.687  10.724   1.245 -0.5380 -0.0941 -1.0837
  801MOL0     N10452   1.612  10.780   1.161 -0.7162 -0.0400 -1.0558
  801MOL0     C10453   0.610  10.669   0.480 -0.8485 -0.4659  0.4486
  801MOL0     C10454   0.557  10.659   0.348 -1.1110  0.1877 -0.1606
  801MOL0     C10455   0.296  10.593   0.001  1.2280  0.3359 -0.0202
  801MOL0     C10456   0.189  10.680   0.005 -0.7093  0.5965 -0.0049
  801MOL0     C10457   0.082  10.666  -0.081 -0.7945  0.2298 -0.1447
  801MOL0     C10458   0.065  10.551  -0.161  0.1799  0.2652  0.1424
  801MOL0     O10459  -0.058  10.509  -0.224 -0.9440 -0.0831 -0.3820
  801MOL0     C10460  -0.176  10.595  -0.202 -0.7061 -0.2994 -0.6614
  801MOL0     C10461  -0.180  10.720  -0.289 -0.2342  0.2626  0.0311
  801MOL0     C10462  -0.207  10.679  -0.434  0.6244  0.2011  0.0943
  801MOL0     C10463  -0.347  10.618  -0.464  0.9698 -0.0753  0.1467
  801MOL0     C10464  -0.469  10.680  -0.410  0.4533 -0.0593  0.4026
  801MOL0     C10465  -0.572  10.739  -0.370  0.1478  0.4398  0.2704
  801MOL0     C10466   0.178  10.461  -0.174  0.1861 -0.7140 -0.5919
  801MOL0     C10467   0.281  10.476  -0.082 -0.8430  0.3374  0.0481
  801MOL0     C10468   0.391  10.371  -0.089  0.3807  0.8568 -0.3967
  801MOL0     H10469   0.281  10.854   0.415  0.0449 -0.0713 -0.7535
  801MOL0     H10470   0.396  10.892   0.612 -0.2088 -0.6712  1.2772
  801MOL0     H10471   0.815  10.819   0.691 -0.0757  1.0260  0.2074
  801MOL0     H10472   0.768  10.655   0.697  4.2683  2.2130 -2.5222
  801MOL0     H10473   0.687  10.847   0.919 -0.6129 -1.0138  1.0659
  801MOL0     H10474   0.674  10.676   0.929  0.2408 -0.5568 -0.6807
  801MOL0     H10475   0.836  10.716   1.059  2.6410 -2.9114  0.2280
  801MOL0     H10476   0.907  10.631   0.914 -1.7584 -1.0634 -0.8345
  801MOL0     H10477   0.982  10.837   0.830 -3.4092  0.8103 -0.4236
  801MOL0     H10478   0.925  10.927   0.967 -4.1499 -0.4938 -1.8664
  801MOL0     H10479   1.113  10.690   0.992 -0.5789 -0.0245 -1.1072
  801MOL0     H10480   1.092  10.815   1.114 -0.5711 -0.7867 -0.4226
  801MOL0     H10481   1.224  10.852   0.858 -1.2314  0.7548 -0.2942
  801MOL0     H10482   1.198  10.983   0.968  0.3694  0.0213  3.1242
  801MOL0     H10483   1.344  10.887   1.148 -1.3476 -2.0174  1.3987
  801MOL0     H10484   1.425  10.922   1.004  0.2099 -0.0229  0.9866
  801MOL0     H10485   1.328  10.644   1.029 -1.8041  1.8892  1.4679
  801MOL0     H10486   1.468  10.699   0.941 -3.9141 -0.4899 -0.5697
  801MOL0     H10487   1.466  10.480   1.228  1.0756 -1.3596 -2.0033
  801MOL0     H10488   1.627  10.417   1.397 -1.6560  0.4786 -0.8594
  801MOL0     H10489   1.708  10.549   1.491 -0.6849 -0.3341  0.8628
  801MOL0     H10490   1.851  10.344   1.400 -0.5748 -0.0286 -1.0800
  801MOL0     H10491   1.828  10.406   1.249  0.2602 -0.2928  0.0580
  801MOL0     H10492   1.958  10.607   1.295  0.3319 -0.8514 -1.4187
  801MOL0     H10493   1.938  10.593   1.464  3.1990  0.2950 -0.0120
  801MOL0     H10494   2.153  10.530   1.413  1.4487  0.0229 -0.2158
  801MOL0     H10495   2.072  10.377   1.459  0.4272  1.9690  1.9387
  801MOL0     H10496   2.220  10.370   1.038  1.2853  1.7135 -0.7739
  801MOL0     H10497   2.532  10.340   0.891  1.3774 -1.2356  0.7541
  801MOL0     H10498   2.358  10.289   0.869 -1.2186 -0.7884  1.0465
  801MOL0     H10499   2.483  10.169   0.921  2.1617 -0.2949  0.9618
  801MOL0     H10500   2.839  10.001   1.320 -2.0772  1.3324 -0.0293
  801MOL0     H10501   3.082   9.943   1.318  0.2073  1.0021  0.1016
  801MOL0     H10502   3.302  10.217   1.067 -2.9395 -0.2656  2.3629
  801MOL0     H10503   3.390  10.240   1.217 -1.9128  0.5753  0.4572
  801MOL0     H10504   3.444  10.007   1.030  0.8571  0.4307 -1.0253
  801MOL0     H10505   3.548  10.150   1.042  2.4049 -1.2643  0.1845
  801MOL0     H10506   3.612   9.939   1.161 -1.9515  0.6083 -3.4521
  801MOL0     H10507   3.491   9.975   1.287 -0.0695 -2.4656 -0.7027
  801MOL0     H10508   3.599  10.159   1.371  0.4108 -1.6750  0.8468
  801MOL0     H10509   3.666  10.201   1.200 -0.8547  0.2748  0.4223
  801MOL0     H10510   3.768   9.988   1.374 -1.6001 -1.5839 -2.8118
  801MOL0     H10511   3.835  10.039   1.224  0.1292 -1.3120  0.2041
  801MOL0     H10512   3.894  10.148   1.495 -1.5623 -0.2395 -0.5233
  801MOL0     H10513   3.837  10.280   1.378 -1.5834  0.5898  0.6132
  801MOL0     H10514   4.043  10.185   1.233  0.4488 -0.2306  0.1812
  801MOL0     H10515   4.073  10.083   1.369  1.2769  1.1353 -1.2777
  801MOL0     H10516   4.091  10.287   1.525  1.9173 -1.8957  0.6234
  801MOL0     H10517   4.070  10.390   1.375 -1.7835  0.3840  1.3400
  801MOL0     H10518   3.172  10.334   1.187 -1.9933  1.2291  0.5291
  801MOL0     H10519   2.942  10.406   1.237 -2.4220 -0.4047  4.3429
  801MOL0     H10520   2.541  10.281   1.394  0.4428 -1.2426 -0.1294
  801MOL0     H10521   2.330  10.353   1.440  0.5254 -2.0757  0.8384
  801MOL0     H10522   0.708  10.625   0.496 -0.3348  0.8472  1.1028
  801MOL0     H10523   0.627  10.608   0.282  1.4681  0.0472  2.4493
  801MOL0     H10524   0.182  10.760   0.079  0.0714  0.4220  0.2710
  801MOL0     H10525   0.003  10.738  -0.064 -1.1581 -0.4214  1.1154
  801MOL0     H10526  -0.269  10.538  -0.217  0.5247 -2.3266 -1.0075
  801MOL0     H10527  -0.191  10.629  -0.099 -0.4456 -1.4823 -0.2062
  801MOL0     H10528  -0.091  10.783  -0.280  0.9087 -0.5115 -4.1035
  801MOL0     H10529  -0.263  10.786  -0.263 -1.2189 -1.1324  0.5565
  801MOL0     H10530  -0.195  10.765  -0.501 -1.7500  1.2509  0.8990
  801MOL0     H10531  -0.128  10.611  -0.466  1.6960  0.6080  1.7717
  801MOL0     H10532  -0.344  10.521  -0.415  4.0407  0.5477  1.4328
  801MOL0     H10533  -0.356  10.610  -0.573  0.9903  0.7461  0.0756
  801MOL0     H10534  -0.663  10.788  -0.343 -1.4677 -0.7076 -2.6642
  801MOL0     H10535   0.173  10.381  -0.247  1.5660 -0.0220 -1.4767
  801MOL0     H10536   0.458  10.399  -0.170  1.7962 -1.3763 -0.0669
  801MOL0     H10537   0.439  10.361   0.009 -0.5760  1.2521  0.1334
  801MOL0     H10538   0.348  10.273  -0.110  0.7822  0.6518 -0.2791
  802MOL0     O10539   1.772   4.314   4.658  0.6417 -0.4256  0.3848
  802MOL0     C10540   1.760   4.431   4.692  0.3867 -0.2289 -0.2858
  802MOL0     O10541   1.863   4.513   4.730  0.0577  0.5896  0.3080
  802MOL0     C10542   1.988   4.464   4.766  0.3637 -0.4876  0.2884
  802MOL0     C10543   2.075   4.411   4.675 -0.7698 -0.7999 -0.5245
  802MOL0     C10544   2.208   4.385   4.703 -0.6189  0.2385 -0.4540
  802MOL0     C10545   2.260   4.401   4.837 -0.1081 -0.4021 -0.1670
  802MOL0     O10546   2.391   4.386   4.870  0.5060 -0.0272 -0.1031
  802MOL0     C10547   2.466   4.284   4.805 -0.2105 -0.8611  0.3059
  802MOL0     C10548   2.418   4.154   4.843  0.1345  0.2551 -0.0150
  802MOL0     C10549   2.408   4.126   4.992  0.1120  0.4676  0.5042
  802MOL0     C10550   2.549   4.130   5.062  0.4791  0.0967 -0.1779
  802MOL0     C10551   2.542   4.107   5.208  0.3771  0.9595  0.3979
  802MOL0     C10552   2.522   3.955   5.247  0.6220 -0.6119 -0.0073
  802MOL0     C10553   2.453   3.942   5.378  0.3476  0.3115  0.6318
  802MOL0     C10554   2.440   3.791   5.416 -0.4495  0.2325  0.1338
  802MOL0     N10555   2.564   3.711   5.452 -0.0193  0.2090 -0.3000
  802MOL0     C10556   2.653   3.737   5.558 -0.6562  0.1933 -0.6535
  802MOL0     C10557   2.755   3.658   5.538 -0.3880 -0.4596  0.0923
  802MOL0     C10558   2.868   3.646   5.632 -0.5771  0.1625  0.5974
  802MOL0     C10559   3.004   3.622   5.560 -0.4660 -1.0987  0.7970
  802MOL0     C10560   3.071   3.755   5.511  0.3088  0.2296 -0.5418
  802MOL0     C10561   3.216   3.748   5.457 -0.0189  0.0702  0.0464
  802MOL0     O10562   3.205   3.675   5.333 -0.6411 -0.3127  0.6108
  802MOL0     C10563   3.317   3.599   5.294 -0.5090  0.3008 -0.7093
  802MOL0     C10564   3.286   3.492   5.207  0.0976  0.1310  0.2098
  802MOL0     C10565   3.388   3.420   5.145  0.2015 -0.2459 -0.3578
  802MOL0     C10566   3.339   3.317   5.043  0.5994 -0.1423  0.2256
  802MOL0     C10567   3.524   3.460   5.166  1.4789  0.5057 -0.1233
  802MOL0     C10568   3.635   3.412   5.078 -0.0172  1.3478  0.1681
  802MOL0     O10569   3.756   3.412   5.135 -0.1200  0.1573  0.3080
  802MOL0     C10570   3.852   3.357   5.055 -0.5397  0.1034 -0.1805
  802MOL0     C10571   3.931   3.439   4.973  0.0165  0.5765  0.2962
  802MOL0     C10572   4.029   3.380   4.897  0.7970  0.6437 -0.1860
  802MOL0     C10573   4.062   3.244   4.904 -0.0783 -0.4596  0.2845
  802MOL0     O10574   4.160   3.191   4.824 -0.2606 -0.0344  0.0721
  802MOL0     C10575   4.118   3.157   4.688  0.1616  0.4296  0.1130
  802MOL0     C10576   4.223   3.067   4.626  0.0173 -0.3180  0.1253
  802MOL0     C10577   4.226   3.028   4.481 -0.3217 -0.6729 -0.5253
  802MOL0     C10578   4.339   2.931   4.454 -0.0497  0.1071  0.8811
  802MOL0     C10579   4.476   3.002   4.423  0.2205  0.8219  0.2287
  802MOL0     C10580   4.477   3.079   4.286 -0.3160 -0.7804 -0.9624
  802MOL0     C10581   4.607   3.149   4.251 -0.3106  0.2187  0.0983
  802MOL0     C10582   4.598   3.304   4.268 -0.2096  0.0330 -1.7441
  802MOL0    Cl10583   4.713   3.386   4.157 -0.0289  0.0775  0.0592
  802MOL0     C10584   3.998   3.166   4.995 -0.7926 -0.2996  0.4052
  802MOL0     C10585   3.889   3.217   5.067 -0.2733 -0.3554 -0.8978
  802MOL0     O10586   3.609   3.384   4.963 -0.2740  0.1679  0.4797
  802MOL0     C10587   3.552   3.562   5.256  0.4348  0.1153 -1.3371
  802MOL0     C10588   3.448   3.626   5.322  0.3998  0.6485  0.0742
  802MOL0     N10589   2.727   3.569   5.434  0.3922 -0.4360  0.2370
  802MOL0     N10590   2.612   3.605   5.388 -0.2483 -0.0053 -0.5049
  802MOL0     C10591   2.181   4.456   4.931 -0.0649  0.2134  0.9288
  802MOL0     C10592   2.044   4.493   4.891 -0.2785  1.5307 -0.0848
  802MOL0     C10593   1.625   4.489   4.694  1.0443  0.2248 -0.8115
  802MOL0     C10594   1.610   4.621   4.750 -0.1183  0.0659 -0.0606
  802MOL0     C10595   1.492   4.692   4.754 -0.2455 -0.1857  0.4368
  802MOL0     C10596   1.375   4.634   4.707  0.7549 -0.8867  0.5371
  802MOL0     O10597   1.270   4.714   4.722 -0.0031 -0.5112  0.9069
  802MOL0     C10598   1.144   4.691   4.649  0.2906  0.0610  0.3143
  802MOL0     C10599   1.160   4.690   4.497  0.8437 -0.2217  0.5326
  802MOL0     C10600   1.229   4.814   4.447  1.2685  0.2178 -0.1936
  802MOL0     C10601   1.243   4.815   4.296  0.7583 -0.1843 -0.2874
  802MOL0     C10602   1.161   4.917   4.242  0.2556 -0.0049 -0.6374
  802MOL0     C10603   1.077   5.002   4.211  0.3515 -1.0191 -0.3954
  802MOL0     C10604   1.384   4.507   4.643 -0.7412 -1.3427 -0.2418
  802MOL0     C10605   1.503   4.435   4.637  0.0658  0.6258  0.1767
  802MOL0     C10606   1.488   4.295   4.585 -0.0970 -0.5533 -0.5390
  802MOL0     H10607   2.035   4.372   4.582 -0.5078 -3.4973  0.4100
  802MOL0     H10608   2.270   4.334   4.630  2.6911  0.0205  2.3045
  802MOL0     H10609   2.566   4.310   4.840 -1.0674  2.9326  0.3738
  802MOL0     H10610   2.465   4.295   4.696 -1.1645  2.3011  0.5346
  802MOL0     H10611   2.320   4.137   4.797  0.8032 -4.4113 -0.1891
  802MOL0     H10612   2.492   4.087   4.798  2.4403  0.8519  2.6156
  802MOL0     H10613   2.336   4.190   5.045 -2.4053 -1.0290 -0.9383
  802MOL0     H10614   2.374   4.023   5.005 -2.2762  1.1290 -0.1433
  802MOL0     H10615   2.627   4.069   5.015  2.4393  1.3297  1.3055
  802MOL0     H10616   2.575   4.235   5.044 -4.5648  1.4131 -1.2855
  802MOL0     H10617   2.463   4.173   5.246 -0.3832 -0.1480  0.7712
  802MOL0     H10618   2.638   4.145   5.246  0.1368  1.1835  0.7849
  802MOL0     H10619   2.458   3.905   5.174  1.0894 -4.5339  1.9735
  802MOL0     H10620   2.620   3.906   5.256  1.1872  0.3468 -0.6800
  802MOL0     H10621   2.351   3.979   5.366  1.0256  2.3813  0.9002
  802MOL0     H10622   2.493   4.002   5.460 -1.1433 -0.9312  2.3498
  802MOL0     H10623   2.375   3.792   5.505  0.2605  0.0768  0.6640
  802MOL0     H10624   2.386   3.737   5.338  0.9796 -1.0042 -0.0245
  802MOL0     H10625   2.636   3.813   5.633  0.9748  1.4087 -1.4701
  802MOL0     H10626   2.849   3.563   5.701 -2.0718 -1.2644 -1.3855
  802MOL0     H10627   2.876   3.743   5.681  3.3500  1.0002 -1.2614
  802MOL0     H10628   3.075   3.586   5.635  1.2893  1.6029  0.5836
  802MOL0     H10629   2.997   3.545   5.482  1.0784 -1.1364  0.6589
  802MOL0     H10630   3.006   3.799   5.434  1.5351 -0.1217 -1.8181
  802MOL0     H10631   3.072   3.822   5.597 -0.1308  0.8401 -0.9996
  802MOL0     H10632   3.243   3.853   5.443  1.1544 -0.3068 -0.6334
  802MOL0     H10633   3.291   3.698   5.519 -0.2142 -1.4951 -0.9058
  802MOL0     H10634   3.183   3.478   5.177  0.0989 -0.2598  0.3813
  802MOL0     H10635   3.315   3.370   4.950 -0.1943 -1.3749 -0.2990
  802MOL0     H10636   3.257   3.254   5.078  0.4888 -0.2443 -0.2041
  802MOL0     H10637   3.415   3.244   5.016 -0.7062 -1.0346 -1.2136
  802MOL0     H10638   3.920   3.541   4.940  0.6600  0.5378 -0.0666
  802MOL0     H10639   4.078   3.437   4.819 -0.0439 -1.2277 -2.2196
  802MOL0     H10640   4.020   3.110   4.691 -1.0266  2.8005  1.1880
  802MOL0     H10641   4.106   3.248   4.628  2.3621  1.2437  0.7965
  802MOL0     H10642   4.320   3.117   4.637  0.6826 -1.0296 -2.0432
  802MOL0     H10643   4.212   2.975   4.685 -1.6072 -1.3456 -1.6779
  802MOL0     H10644   4.240   3.118   4.420  2.7228 -0.7848 -0.1128
  802MOL0     H10645   4.134   2.978   4.451 -0.7597 -0.1510 -0.0841
  802MOL0     H10646   4.313   2.868   4.369 -1.6561  1.3395  0.4149
  802MOL0     H10647   4.349   2.859   4.536  1.4700 -0.5914  0.1392
  802MOL0     H10648   4.494   3.067   4.510  1.1807 -0.0343  0.6967
  802MOL0     H10649   4.564   2.938   4.413 -0.7197 -0.3936 -0.3968
  802MOL0     H10650   4.394   3.149   4.275 -0.6531 -0.9395  0.4450
  802MOL0     H10651   4.453   3.008   4.206 -2.2385  0.1229 -1.2379
  802MOL0     H10652   4.626   3.120   4.147 -0.5413  0.5116 -0.0263
  802MOL0     H10653   4.689   3.112   4.314 -0.7985 -0.2709  0.4580
  802MOL0     H10654   4.618   3.330   4.372 -1.2473 -0.7867 -1.3283
  802MOL0     H10655   4.498   3.337   4.239 -0.1835  2.0266  0.1741
  802MOL0     H10656   4.031   3.062   4.997  0.9652  0.2342  0.5360
  802MOL0     H10657   3.837   3.156   5.140  0.7483 -0.6850 -0.4366
  802MOL0     H10658   3.648   3.603   5.287 -0.6493  0.6405  1.6838
  802MOL0     H10659   3.494   3.713   5.368  1.3596  0.3188 -0.2330
  802MOL0     H10660   2.218   4.483   5.029  1.6108  1.6130 -0.0493
  802MOL0     H10661   1.984   4.542   4.967 -0.9670  1.2520 -0.4323
  802MOL0     H10662   1.694   4.674   4.793  0.0318 -1.2268  1.2988
  802MOL0     H10663   1.494   4.789   4.802 -2.7646 -0.2319  0.7663
  802MOL0     H10664   1.088   4.601   4.677 -0.4763  0.7804  1.1917
  802MOL0     H10665   1.079   4.775   4.677 -0.1406  0.1619 -0.9418
  802MOL0     H10666   1.058   4.685   4.458  0.3481 -1.2794  1.8944
  802MOL0     H10667   1.220   4.603   4.470  0.2542 -0.2094 -0.9455
  802MOL0     H10668   1.181   4.901   4.494  0.0789  0.4284 -1.6995
  802MOL0     H10669   1.329   4.813   4.490  0.4989  0.4929  1.7225
  802MOL0     H10670   1.235   4.717   4.248  0.1559 -2.3119  3.7183
  802MOL0     H10671   1.345   4.846   4.274  0.4865  1.1887  0.2796
  802MOL0     H10672   1.003   5.077   4.195 -1.4824 -2.6663 -0.0095
  802MOL0     H10673   1.292   4.458   4.609 -2.1466  0.5489  0.6564
  802MOL0     H10674   1.566   4.262   4.516  2.3963  0.0384  1.8209
  802MOL0     H10675   1.493   4.235   4.677 -0.2782  3.0879  2.0268
  802MOL0     H10676   1.386   4.289   4.546  0.5495 -2.4586 -2.1323
  803MOL0     O10677   8.945   8.850   7.290  0.2169 -0.0802 -0.7445
  803MOL0     C10678   8.881   8.747   7.292  0.0759  0.8806  0.0462
  803MOL0     O10679   8.935   8.630   7.329  0.8424 -0.6545 -0.3958
  803MOL0     C10680   9.069   8.612   7.339 -0.0791  0.3827  0.3600
  803MOL0     C10681   9.121   8.592   7.467  0.1504  0.1361  0.2519
  803MOL0     C10682   9.258   8.582   7.476 -0.0436 -0.2459  0.4038
  803MOL0     C10683   9.347   8.585   7.356  0.0761  0.3483 -0.5538
  803MOL0     O10684   9.487   8.575   7.366 -0.0258 -0.0022  0.3444
  803MOL0     C10685   9.547   8.701   7.347 -0.1594  1.4315  0.6860
  803MOL0     C10686   9.648   8.701   7.235  0.0738 -0.3020 -0.2379
  803MOL0     C10687   9.740   8.578   7.240 -0.6081 -0.0077  0.8206
  803MOL0     C10688   9.675   8.469   7.151 -0.1003 -0.1634  0.3593
  803MOL0     C10689   9.755   8.345   7.106 -0.2369 -0.1977  0.7132
  803MOL0     C10690   9.867   8.388   7.009  0.5082  0.4331 -0.1279
  803MOL0     C10691   9.965   8.280   6.976 -0.5877  0.8175  0.6514
  803MOL0     C10692  10.044   8.324   6.852  0.2543  0.4018  0.6539
  803MOL0     N10693  10.145   8.221   6.815 -0.1754  0.6826 -0.1249
  803MOL0     C10694  10.266   8.197   6.870 -0.1378 -0.5908 -0.7576
  803MOL0     C10695  10.310   8.084   6.814  0.1250  0.6082 -0.0859
  803MOL0     C10696  10.439   8.013   6.835 -0.4112 -1.2755  0.4949
  803MOL0     C10697  10.452   7.965   6.974  0.3014  1.1340  0.2901
  803MOL0     C10698  10.364   7.840   7.002  0.0334  0.2592 -0.3973
  803MOL0     C10699  10.215   7.863   7.024 -0.3840  0.4366 -0.0803
  803MOL0     O10700  10.201   7.971   7.115  0.2386 -0.4241 -0.1045
  803MOL0     C10701  10.077   7.980   7.185  0.0727  0.2061  0.7518
  803MOL0     C10702  10.071   8.080   7.282 -0.3265 -0.2292  0.5520
  803MOL0     C10703   9.953   8.103   7.354  0.3548  0.6820  0.2344
  803MOL0     C10704   9.957   8.214   7.458 -0.4749  0.5982  0.4687
  803MOL0     C10705   9.833   8.030   7.330 -0.0681 -0.2193  0.0368
  803MOL0     C10706   9.700   8.043   7.399  0.4970 -0.5114  0.4851
  803MOL0     O10707   9.599   7.981   7.329  0.0411  0.3168  0.5019
  803MOL0     C10708   9.470   7.997   7.371  1.1191 -0.1156 -0.2898
  803MOL0     C10709   9.394   7.882   7.395  0.0239 -0.7341  0.0039
  803MOL0     C10710   9.263   7.889   7.412  0.5532  0.5571 -0.2448
  803MOL0     C10711   9.201   8.015   7.421  0.2641 -0.4413 -0.5071
  803MOL0     O10712   9.063   8.015   7.439 -0.2480 -0.4601 -0.1878
  803MOL0     C10713   8.993   8.127   7.383  0.7560  0.3374  0.4802
  803MOL0     C10714   8.848   8.077   7.389  0.6226 -0.0421 -1.3494
  803MOL0     C10715   8.803   8.076   7.534  1.5374  0.3223  0.5020
  803MOL0     C10716   8.648   8.053   7.538 -0.1115 -0.8001  0.1440
  803MOL0     C10717   8.601   8.041   7.682  0.2601 -0.2424  0.2550
  803MOL0     C10718   8.458   8.014   7.713  0.3409  0.7698  0.7828
  803MOL0     C10719   8.401   8.070   7.843 -0.4612 -0.3062 -0.1960
  803MOL0     C10720   8.269   8.006   7.897 -1.0708  0.3156  0.4539
  803MOL0    Cl10721   8.135   7.991   7.783  0.4384 -0.0199  0.1591
  803MOL0     C10722   9.283   8.137   7.419 -0.8234 -0.3567 -0.6621
  803MOL0     C10723   9.420   8.129   7.395  0.0086  0.2262  0.1294
  803MOL0     O10724   9.699   8.102   7.512  0.4340  0.0904  0.6245
  803MOL0     C10725   9.845   7.922   7.244  0.4420 -0.2505 -1.1772
  803MOL0     C10726   9.963   7.896   7.166  0.0791  0.3962 -0.7643
  803MOL0     N10727  10.222   8.046   6.711 -0.4369  0.4237 -0.0962
  803MOL0     N10728  10.124   8.127   6.710 -0.3003 -0.1082  0.6754
  803MOL0     C10729   9.286   8.590   7.230 -0.6196 -0.3402 -0.6782
  803MOL0     C10730   9.150   8.611   7.225  0.8026  0.2339  0.0661
  803MOL0     C10731   8.730   8.761   7.257  1.6413  0.4856  0.7252
  803MOL0     C10732   8.696   8.892   7.226  0.3380 -0.1962 -0.1838
  803MOL0     C10733   8.553   8.928   7.219 -0.1858  0.1378 -0.2739
  803MOL0     C10734   8.455   8.833   7.218 -0.2398 -0.5354  0.5715
  803MOL0     O10735   8.331   8.883   7.195  0.8022 -0.0780  0.6227
  803MOL0     C10736   8.235   8.776   7.178 -0.0317  0.2811  0.8062
  803MOL0     C10737   8.094   8.839   7.176 -0.2136 -0.5136  0.0743
  803MOL0     C10738   8.071   8.921   7.047 -0.5901 -0.2526 -0.6047
  803MOL0     C10739   7.928   8.984   7.029 -0.0124 -0.3563 -0.4398
  803MOL0     C10740   7.894   9.089   7.124 -0.0370 -0.3777 -0.1445
  803MOL0     C10741   7.851   9.174   7.203  0.5217  0.1331  0.1899
  803MOL0     C10742   8.495   8.699   7.229 -0.9985 -1.0556  0.2376
  803MOL0     C10743   8.628   8.657   7.255  0.2064  0.2615  0.2902
  803MOL0     C10744   8.651   8.512   7.291 -0.0225  0.4787 -0.2215
  803MOL0     H10745   9.050   8.585   7.549 -1.1602 -0.3756 -0.8827
  803MOL0     H10746   9.308   8.582   7.572  1.0130 -0.6925 -0.1300
  803MOL0     H10747   9.592   8.726   7.444  0.7618 -0.1736  0.7047
  803MOL0     H10748   9.472   8.780   7.340 -1.9647 -0.3732 -2.5723
  803MOL0     H10749   9.594   8.726   7.143  1.0254 -0.8420 -0.9616
  803MOL0     H10750   9.711   8.787   7.262  0.5555 -1.3124  2.0969
  803MOL0     H10751   9.835   8.606   7.193 -1.1683 -0.6557 -0.7422
  803MOL0     H10752   9.763   8.546   7.342 -1.5942  1.3481  1.5048
  803MOL0     H10753   9.596   8.422   7.212  0.7056 -0.1972  1.4015
  803MOL0     H10754   9.626   8.506   7.060  2.5297  1.2332 -0.5844
  803MOL0     H10755   9.691   8.266   7.065 -0.3997 -0.7854  2.0247
  803MOL0     H10756   9.803   8.308   7.197  2.3489 -0.0996 -0.5386
  803MOL0     H10757   9.816   8.414   6.916 -1.3583 -0.0588  0.7012
  803MOL0     H10758   9.937   8.466   7.041  0.8496 -0.1334  0.5404
  803MOL0     H10759   9.924   8.180   6.958  3.2747 -0.7446 -0.4655
  803MOL0     H10760  10.023   8.257   7.065 -0.5594  0.7559  0.6176
  803MOL0     H10761   9.978   8.341   6.766  0.9888  1.4757  0.2810
  803MOL0     H10762  10.090   8.422   6.868 -1.5530  1.2351  1.0505
  803MOL0     H10763  10.331   8.256   6.933  0.8019 -2.3173 -0.0286
  803MOL0     H10764  10.519   8.085   6.815 -2.3524  1.1535  0.9226
  803MOL0     H10765  10.441   7.926   6.769  0.5684  0.7091 -2.3102
  803MOL0     H10766  10.556   7.932   6.973 -0.4557 -1.5245 -1.5664
  803MOL0     H10767  10.439   8.035   7.057  1.7525 -0.4400  1.9107
  803MOL0     H10768  10.371   7.771   6.918 -3.1452 -0.4111 -0.2528
  803MOL0     H10769  10.398   7.791   7.094 -1.2746 -0.7496 -0.4230
  803MOL0     H10770  10.172   7.892   6.928  1.9516  0.0405 -1.3095
  803MOL0     H10771  10.178   7.770   7.069  0.5416  0.1018  0.0102
  803MOL0     H10772  10.163   8.135   7.297  0.0694 -1.3081  2.4225
  803MOL0     H10773   9.947   8.171   7.558  1.8972  0.2123  0.5966
  803MOL0     H10774   9.872   8.280   7.438 -1.1375 -0.9266 -2.3063
  803MOL0     H10775  10.049   8.273   7.448  0.8955 -1.6669 -1.2260
  803MOL0     H10776   9.444   7.785   7.395  1.0484 -0.2304  0.9501
  803MOL0     H10777   9.199   7.805   7.436  0.5356  0.0600 -1.9310
  803MOL0     H10778   9.009   8.227   7.425 -0.9714  1.3112 -1.0665
  803MOL0     H10779   9.023   8.132   7.278 -0.3901 -0.9845  0.0597
  803MOL0     H10780   8.781   8.142   7.333 -1.5321 -1.7903 -0.9627
  803MOL0     H10781   8.834   7.974   7.355 -2.0807 -0.1320 -0.1777
  803MOL0     H10782   8.827   8.173   7.580  0.4642  0.0948  1.5854
  803MOL0     H10783   8.853   8.004   7.600  0.9556 -1.0585 -0.5134
  803MOL0     H10784   8.624   7.971   7.469 -0.4223 -1.4517  1.0033
  803MOL0     H10785   8.598   8.141   7.496  0.5588 -1.6585 -2.7317
  803MOL0     H10786   8.672   7.970   7.726  3.3142  2.5578  0.2092
  803MOL0     H10787   8.611   8.140   7.727 -0.8281  0.8949 -1.8602
  803MOL0     H10788   8.453   7.905   7.715 -0.4118  0.6156 -2.5789
  803MOL0     H10789   8.401   8.059   7.631 -1.1565 -0.2601  1.2228
  803MOL0     H10790   8.384   8.178   7.835  0.3626 -0.1712 -0.1848
  803MOL0     H10791   8.480   8.068   7.919  0.8105 -1.1164 -1.4859
  803MOL0     H10792   8.251   8.056   7.993  3.7016  4.1507 -0.2749
  803MOL0     H10793   8.298   7.901   7.915 -1.8871 -0.2287 -1.2209
  803MOL0     H10794   9.237   8.235   7.430 -0.3625 -0.3494  1.9041
  803MOL0     H10795   9.478   8.212   7.358  2.1495 -0.2698  2.1511
  803MOL0     H10796   9.767   7.847   7.237 -0.5268  0.8714 -4.4890
  803MOL0     H10797   9.971   7.810   7.101  1.7234  1.1045 -1.5311
  803MOL0     H10798   9.345   8.575   7.140  0.5756 -0.9569  0.1925
  803MOL0     H10799   9.098   8.627   7.131  0.8937  3.2778  0.4278
  803MOL0     H10800   8.770   8.970   7.227  1.0409 -0.8465 -0.5801
  803MOL0     H10801   8.509   9.027   7.213 -3.3294 -0.8601  2.7001
  803MOL0     H10802   8.253   8.718   7.086  0.5583 -1.0024  1.6966
  803MOL0     H10803   8.238   8.699   7.256 -1.5711  1.3124  1.9522
  803MOL0     H10804   8.076   8.892   7.270  2.0012 -0.3768  0.4741
  803MOL0     H10805   8.010   8.769   7.181 -0.2275 -0.7479 -2.3379
  803MOL0     H10806   8.149   8.997   7.043 -0.1741 -0.5759  0.9473
  803MOL0     H10807   8.086   8.852   6.963 -0.5856  2.7646 -3.2489
  803MOL0     H10808   7.852   8.906   7.032 -2.5526  1.8813 -2.2388
  803MOL0     H10809   7.910   9.030   6.932 -0.4028  1.1660  0.3285
  803MOL0     H10810   7.821   9.263   7.255 -1.3551  0.8066 -1.9198
  803MOL0     H10811   8.423   8.618   7.228 -3.6184  1.0955 -0.5843
  803MOL0     H10812   8.573   8.451   7.336  1.1558 -1.7545 -1.0387
  803MOL0     H10813   8.699   8.457   7.209 -0.7691  0.8372 -0.9108
  803MOL0     H10814   8.717   8.508   7.378 -0.3038  1.5783  0.0619
  804MOL0     O10815   0.095   9.685   2.728 -0.0600 -0.2509 -0.1845
  804MOL0     C10816   0.071   9.612   2.831 -0.3489  0.6689  0.6197
  804MOL0     O10817   0.112   9.482   2.840  0.0421  0.0116  0.4020
  804MOL0     C10818   0.199   9.430   2.740 -0.4530 -0.9386 -0.0521
  804MOL0     C10819   0.331   9.471   2.735 -0.3801 -0.4056 -0.3516
  804MOL0     C10820   0.414   9.436   2.631  0.2293  0.1742  0.5058
  804MOL0     C10821   0.371   9.348   2.531  0.0294  0.6200 -0.6431
  804MOL0     O10822   0.469   9.308   2.439  0.6646 -0.4326 -0.4032
  804MOL0     C10823   0.426   9.232   2.328 -1.2061  0.5538 -0.4850
  804MOL0     C10824   0.543   9.174   2.247  0.3447 -0.4351 -0.2830
  804MOL0     C10825   0.624   9.082   2.339  0.8497  0.6199 -0.8006
  804MOL0     C10826   0.751   9.029   2.272 -0.4905 -0.3194 -0.4938
  804MOL0     C10827   0.823   8.932   2.364 -0.2327 -0.7265  0.3749
  804MOL0     C10828   0.930   8.860   2.284  0.1264  0.3415 -0.0744
  804MOL0     C10829   1.009   8.767   2.377  0.6187 -0.4666  0.3647
  804MOL0     C10830   0.937   8.638   2.404  0.4315  0.2536  0.3617
  804MOL0     N10831   0.974   8.526   2.316 -0.1556  0.3438  0.1411
  804MOL0     C10832   1.077   8.446   2.354 -0.3811 -0.1131 -0.1076
  804MOL0     C10833   1.098   8.366   2.245 -0.5726  0.0457 -1.2249
  804MOL0     C10834   1.195   8.255   2.225  0.0284 -0.3516 -0.4525
  804MOL0     C10835   1.309   8.297   2.129  0.3566  0.0514 -1.1422
  804MOL0     C10836   1.390   8.407   2.193 -0.7370 -0.5823 -0.3470
  804MOL0     C10837   1.497   8.465   2.104  1.0686 -0.2039  0.1763
  804MOL0     O10838   1.596   8.363   2.069  0.6107  0.6843  0.5446
  804MOL0     C10839   1.721   8.395   2.106 -0.2651  0.1553  0.0891
  804MOL0     C10840   1.763   8.346   2.233  0.0858 -0.6029  0.4820
  804MOL0     C10841   1.884   8.397   2.287 -0.7341 -0.2925  0.3479
  804MOL0     C10842   1.927   8.348   2.421  1.2509  0.1609  0.1325
  804MOL0     C10843   1.970   8.484   2.217 -0.4163  0.3915  0.3888
  804MOL0     C10844   2.087   8.548   2.263  0.2626 -0.4597 -0.1721
  804MOL0     O10845   2.191   8.575   2.177  0.3067  0.7589  0.0837
  804MOL0     C10846   2.322   8.593   2.222  0.6473  0.1878 -0.0594
  804MOL0     C10847   2.402   8.485   2.270  0.3803 -0.1611  0.2759
  804MOL0     C10848   2.536   8.512   2.310 -0.2261  0.3100  0.2340
  804MOL0     C10849   2.584   8.645   2.292 -0.5586 -0.5426 -0.3002
  804MOL0     O10850   2.716   8.679   2.325  0.4242 -0.7693  0.6983
  804MOL0     C10851   2.772   8.607   2.437  0.6824  0.2806  0.5787
  804MOL0     C10852   2.863   8.681   2.518 -0.8452  1.5633  0.3403
  804MOL0     C10853   2.994   8.731   2.444  0.5979 -0.2125  0.2873
  804MOL0     C10854   3.071   8.641   2.349 -0.5108 -0.4043  0.5019
  804MOL0     C10855   3.179   8.720   2.269 -0.0168  0.2146 -0.2427
  804MOL0     C10856   3.289   8.785   2.360  0.0196  0.7428 -0.2591
  804MOL0     C10857   3.360   8.696   2.466  0.3548 -0.0949  0.6767
  804MOL0     C10858   3.440   8.592   2.411 -0.0648 -0.0180  0.6162
  804MOL0    Cl10859   3.593   8.656   2.353 -0.5191 -0.4600  0.0444
  804MOL0     C10860   2.496   8.747   2.258 -0.7431  0.2077 -0.0278
  804MOL0     C10861   2.364   8.722   2.231  0.9557 -0.0508 -0.1332
  804MOL0     O10862   2.087   8.584   2.382 -0.3195 -0.8911  0.0878
  804MOL0     C10863   1.931   8.527   2.089  0.2441  0.4235  0.6579
  804MOL0     C10864   1.806   8.486   2.037  0.4847  0.6930 -0.1048
  804MOL0     N10865   0.999   8.397   2.152 -0.5771  0.1298  0.1388
  804MOL0     N10866   0.936   8.496   2.190 -0.3337  0.7047 -0.2164
  804MOL0     C10867   0.237   9.300   2.541  0.4432  0.5526  0.7779
  804MOL0     C10868   0.148   9.344   2.642  0.2358  0.1970  0.4331
  804MOL0     C10869   0.002   9.677   2.945 -0.5465 -0.5239  0.2435
  804MOL0     C10870   0.043   9.805   2.986 -1.1916 -0.4254  0.3889
  804MOL0     C10871  -0.024   9.882   3.083 -0.3843  0.4046 -0.0005
  804MOL0     C10872  -0.139   9.826   3.147  0.6901 -0.0350  0.1661
  804MOL0     O10873  -0.224   9.899   3.236 -0.9364  0.9420  0.7572
  804MOL0     C10874  -0.175   9.982   3.332  0.3480 -0.2909 -0.1467
  804MOL0     C10875  -0.288  10.045   3.410 -0.1704  0.2762  0.2589
  804MOL0     C10876  -0.334  10.173   3.337 -0.2295  0.3416  0.2666
  804MOL0     C10877  -0.378  10.273   3.439  0.3707 -0.3388  0.8069
  804MOL0     C10878  -0.499  10.224   3.502 -0.7086  0.1923 -0.0363
  804MOL0     C10879  -0.584  10.164   3.555  0.5822 -0.0296  0.0544
  804MOL0     C10880  -0.172   9.691   3.116  0.2911 -0.0087 -0.2531
  804MOL0     C10881  -0.117   9.620   3.007  0.1195  0.2025 -0.2278
  804MOL0     C10882  -0.167   9.485   2.959  0.2343 -0.3009 -0.3485
  804MOL0     H10883   0.373   9.516   2.825 -0.8371 -1.4903  0.4306
  804MOL0     H10884   0.514   9.475   2.644  0.5356 -0.1914 -0.5761
  804MOL0     H10885   0.370   9.301   2.264 -3.1331 -0.0011  0.5099
  804MOL0     H10886   0.365   9.148   2.363 -2.4690  1.2008 -1.0978
  804MOL0     H10887   0.512   9.118   2.158 -3.3620  2.2235 -0.9163
  804MOL0     H10888   0.615   9.253   2.219  1.2816 -0.4804  1.8416
  804MOL0     H10889   0.651   9.135   2.431 -1.2250  1.5219 -0.6355
  804MOL0     H10890   0.553   9.003   2.366  0.5383  1.8353  2.3339
  804MOL0     H10891   0.721   8.961   2.193  1.4189 -2.1167  0.2203
  804MOL0     H10892   0.819   9.109   2.240 -1.1715  0.5437  0.1304
  804MOL0     H10893   0.752   8.864   2.412 -0.3172  0.9008  2.7118
  804MOL0     H10894   0.867   8.990   2.445  2.4184  0.0225 -1.4569
  804MOL0     H10895   0.875   8.798   2.213 -1.8763  3.9241 -1.8763
  804MOL0     H10896   0.994   8.927   2.228  0.4899 -1.6927 -2.2498
  804MOL0     H10897   1.042   8.817   2.468  3.9801 -0.4598 -0.7228
  804MOL0     H10898   1.103   8.742   2.328 -0.7376 -1.0837 -2.0920
  804MOL0     H10899   0.948   8.619   2.511  1.3450 -0.0003  0.2297
  804MOL0     H10900   0.830   8.660   2.393  0.9163  2.2328 -0.8933
  804MOL0     H10901   1.133   8.447   2.447  0.5686  1.1444 -0.6698
  804MOL0     H10902   1.154   8.156   2.201  0.4271 -0.0797 -2.4639
  804MOL0     H10903   1.249   8.234   2.318  1.4305 -1.9339 -1.5452
  804MOL0     H10904   1.375   8.213   2.106  0.2991 -0.5189  0.6321
  804MOL0     H10905   1.275   8.331   2.031  2.4158 -1.6086 -2.5083
  804MOL0     H10906   1.329   8.493   2.221  1.8968  1.1580  0.3946
  804MOL0     H10907   1.435   8.369   2.285  1.7551 -0.6533 -1.4950
  804MOL0     H10908   1.453   8.511   2.015  3.0372 -0.7279 -1.1356
  804MOL0     H10909   1.545   8.549   2.155  1.0881 -0.2485  0.2322
  804MOL0     H10910   1.691   8.288   2.290  1.3694 -1.0263  1.7437
  804MOL0     H10911   2.030   8.316   2.400  1.2913  0.6883 -0.5070
  804MOL0     H10912   1.853   8.272   2.447  0.4481  0.7118 -0.4797
  804MOL0     H10913   1.928   8.425   2.499 -2.5180  1.7982 -1.2127
  804MOL0     H10914   2.364   8.385   2.287  0.6762 -0.2317  0.5242
  804MOL0     H10915   2.605   8.432   2.335  2.5962  1.7128 -2.3232
  804MOL0     H10916   2.698   8.570   2.508  1.5141 -2.0459  0.3371
  804MOL0     H10917   2.812   8.515   2.392 -0.1416 -0.7558  1.9252
  804MOL0     H10918   2.808   8.761   2.569  0.2758  0.9450  2.6749
  804MOL0     H10919   2.904   8.611   2.592  0.7575  1.6829 -0.4092
  804MOL0     H10920   3.077   8.749   2.514  0.3049  0.4023  0.4814
  804MOL0     H10921   2.966   8.825   2.396 -1.6782 -2.0812 -2.3611
  804MOL0     H10922   3.008   8.594   2.274  0.6979 -2.0780  0.4796
  804MOL0     H10923   3.115   8.555   2.402  1.5242 -2.0057 -3.3672
  804MOL0     H10924   3.229   8.657   2.195  1.5504  1.6621 -0.4801
  804MOL0     H10925   3.130   8.805   2.220 -1.3028  0.0220  0.6507
  804MOL0     H10926   3.246   8.873   2.411  0.6964  0.8230  0.1790
  804MOL0     H10927   3.366   8.825   2.294  1.9537 -0.6049  1.0658
  804MOL0     H10928   3.296   8.647   2.540  4.3102 -1.8059  3.2783
  804MOL0     H10929   3.427   8.757   2.527  2.5714 -0.9835 -0.7580
  804MOL0     H10930   3.383   8.536   2.337  0.0455 -1.1530  1.3618
  804MOL0     H10931   3.461   8.528   2.498  0.8704 -0.3339  0.1737
  804MOL0     H10932   2.528   8.850   2.270  1.5484 -0.5256  0.7134
  804MOL0     H10933   2.290   8.796   2.202  1.0983 -0.0687 -0.5506
  804MOL0     H10934   1.985   8.591   2.021 -1.7723 -0.6418 -2.1372
  804MOL0     H10935   1.767   8.509   1.939  0.7895  1.5482 -0.0355
  804MOL0     H10936   0.194   9.249   2.456  1.5911 -0.5537  0.8295
  804MOL0     H10937   0.041   9.324   2.634 -0.1285  2.6120 -2.1365
  804MOL0     H10938   0.132   9.844   2.937 -0.4788 -0.3683  1.6995
  804MOL0     H10939   0.003   9.986   3.096 -0.8219  0.6728 -1.0729
  804MOL0     H10940  -0.117   9.925   3.405  0.3457  2.3184  2.0258
  804MOL0     H10941  -0.108  10.054   3.283 -0.6110 -1.0130 -2.6570
  804MOL0     H10942  -0.253  10.075   3.509 -2.2369 -0.5616  1.3220
  804MOL0     H10943  -0.371   9.976   3.426 -1.2145  1.1663 -1.1027
  804MOL0     H10944  -0.249  10.224   3.289  2.0566 -0.5210  3.1046
  804MOL0     H10945  -0.414  10.152   3.266 -0.7742 -1.6744  1.3951
  804MOL0     H10946  -0.398  10.368   3.387  2.1895 -0.5854 -0.4503
  804MOL0     H10947  -0.307  10.299   3.519 -0.1583 -1.3983  1.6408
  804MOL0     H10948  -0.652  10.101   3.609 -0.1549 -1.2144 -2.1412
  804MOL0     H10949  -0.263   9.654   3.162  0.8880 -2.2222 -0.7094
  804MOL0     H10950  -0.273   9.462   2.970 -0.5429  0.3891 -4.5944
  804MOL0     H10951  -0.150   9.473   2.852 -1.7678 -4.4736 -0.3844
  804MOL0     H10952  -0.117   9.400   3.006 -2.5454 -1.2874  1.0414
  805MOL0     O10953   8.106   4.993   8.249 -0.1046  0.5231  0.0354
  805MOL0     C10954   8.041   4.884   8.258 -0.0429  0.3699  0.7276
  805MOL0     O10955   8.094   4.758   8.230  0.7649  0.1121  0.0831
  805MOL0     C10956   8.231   4.754   8.215  0.5373  0.2295  0.5207
  805MOL0     C10957   8.287   4.737   8.089 -0.6402 -0.0748  0.4492
  805MOL0     C10958   8.430   4.710   8.074 -0.0970 -0.0571 -0.4181
  805MOL0     C10959   8.513   4.708   8.189  1.0497 -0.0486  0.5889
  805MOL0     O10960   8.644   4.689   8.159 -0.1853 -0.5673 -0.6503
  805MOL0     C10961   8.742   4.692   8.261  0.9332  0.0007 -0.2518
  805MOL0     C10962   8.876   4.682   8.192  0.3210  0.4550 -0.0277
  805MOL0     C10963   8.995   4.699   8.296  0.3057  0.5091  0.0983
  805MOL0     C10964   9.139   4.706   8.225  0.0050 -0.4224 -0.5900
  805MOL0     C10965   9.242   4.752   8.321 -0.4885  0.5318 -0.0358
  805MOL0     C10966   9.380   4.746   8.259 -0.4714 -0.7199 -0.1575
  805MOL0     C10967   9.437   4.600   8.226  0.2077  0.3152 -0.3247
  805MOL0     C10968   9.572   4.620   8.151  0.0580 -0.4127 -0.8516
  805MOL0     N10969   9.624   4.490   8.105  0.4450  0.6191  0.0069
  805MOL0     C10970   9.688   4.408   8.187 -0.4612  0.0494 -0.4381
  805MOL0     C10971   9.725   4.297   8.115 -0.0161 -0.4610 -0.1947
  805MOL0     C10972   9.798   4.166   8.151  0.2931  0.1407 -0.0466
  805MOL0     C10973   9.948   4.181   8.149  0.3607 -0.5502 -0.0321
  805MOL0     C10974  10.004   4.051   8.204 -0.7093  0.2809 -0.4389
  805MOL0     C10975  10.152   4.037   8.199 -0.3264  0.5463  0.0002
  805MOL0     O10976  10.189   4.047   8.061  0.2200  0.3480 -0.1670
  805MOL0     C10977  10.315   4.094   8.045  0.4812 -0.0111  0.9965
  805MOL0     C10978  10.331   4.210   7.971 -1.0323 -0.1127  0.0816
  805MOL0     C10979  10.459   4.259   7.942 -0.1853  0.4475 -0.1136
  805MOL0     C10980  10.469   4.377   7.852  0.2643  0.1538 -0.1848
  805MOL0     C10981  10.573   4.183   8.001 -0.3655  0.1595 -0.0466
  805MOL0     C10982  10.715   4.236   7.980  0.3357 -0.0502  0.0049
  805MOL0     O10983  10.810   4.139   7.987  1.2469 -0.4392 -0.5803
  805MOL0     C10984  10.937   4.171   7.951 -0.6236  0.8401 -0.4520
  805MOL0     C10985  10.982   4.215   7.834 -0.8547 -0.8873  0.2534
  805MOL0     C10986  11.122   4.244   7.813  0.5891  0.1834 -0.9194
  805MOL0     C10987  11.207   4.222   7.926 -0.7457  0.3164 -1.0749
  805MOL0     O10988  11.340   4.252   7.902  0.4282  0.0151 -0.4964
  805MOL0     C10989  11.429   4.251   8.015 -0.3615  0.4455 -0.6466
  805MOL0     C10990  11.514   4.378   8.008  0.4616  0.5091 -0.8763
  805MOL0     C10991  11.582   4.412   7.881 -0.3040  0.0445  0.5637
  805MOL0     C10992  11.665   4.539   7.894 -0.1147  0.4415  0.7889
  805MOL0     C10993  11.758   4.551   7.765  0.5965 -0.2495 -0.2458
  805MOL0     C10994  11.836   4.680   7.783  0.1808  0.6117  1.3315
  805MOL0     C10995  11.905   4.722   7.647 -0.1371  0.3319 -0.0116
  805MOL0     C10996  12.048   4.682   7.633 -0.1953  0.6911  0.7279
  805MOL0    Cl10997  12.163   4.733   7.771  0.1809  0.3040 -0.0830
  805MOL0     C10998  11.163   4.156   8.041 -0.0827  0.8203 -0.7828
  805MOL0     C10999  11.029   4.134   8.049  0.6159  0.2752  0.2274
  805MOL0     O11000  10.742   4.354   7.972  0.3619  0.0235 -0.0542
  805MOL0     C11001  10.550   4.069   8.079 -0.2199  0.4628  0.1421
  805MOL0     C11002  10.423   4.029   8.102 -0.6257  0.2110  0.3324
  805MOL0     N11003   9.693   4.324   7.986  0.0217  0.4179  0.0395
  805MOL0     N11004   9.633   4.444   7.979  0.3219 -0.0151  0.5016
  805MOL0     C11005   8.454   4.737   8.310 -0.1680 -0.2306  0.1638
  805MOL0     C11006   8.310   4.754   8.324 -0.1336 -0.6718  0.5279
  805MOL0     C11007   7.896   4.894   8.279 -0.9852  0.3285 -0.5007
  805MOL0     C11008   7.809   4.828   8.193  0.0403  0.3336  0.3765
  805MOL0     C11009   7.672   4.827   8.216  0.4464 -0.3777 -0.7031
  805MOL0     C11010   7.621   4.905   8.324 -0.1474 -0.0984 -0.0529
  805MOL0     O11011   7.479   4.914   8.325 -0.0436 -0.0683  0.1125
  805MOL0     C11012   7.419   4.984   8.434 -0.5208  0.1322  0.7098
  805MOL0     C11013   7.267   4.962   8.423 -0.1856  0.1415 -0.1253
  805MOL0     C11014   7.209   4.827   8.457  1.4521 -0.1110  0.5334
  805MOL0     C11015   7.055   4.819   8.427  0.1577  0.1052  0.7917
  805MOL0     C11016   7.011   4.828   8.290 -0.3743 -1.1526  0.0240
  805MOL0     C11017   6.973   4.814   8.179 -0.3187 -1.6236  0.3188
  805MOL0     C11018   7.706   4.972   8.415  0.6051 -0.2922  0.1618
  805MOL0     C11019   7.842   4.965   8.390  0.3458 -0.4826  0.1214
  805MOL0     C11020   7.929   5.016   8.505  0.8155 -0.5989 -0.0740
  805MOL0     H11021   8.228   4.734   7.999  1.1167  3.6021 -1.0341
  805MOL0     H11022   8.478   4.705   7.977  0.5925  1.0728 -0.1562
  805MOL0     H11023   8.726   4.610   8.332  3.8720 -1.4075 -1.0564
  805MOL0     H11024   8.743   4.788   8.314  3.2754  0.0761 -0.3413
  805MOL0     H11025   8.881   4.576   8.166 -0.5935  0.8714 -2.1175
  805MOL0     H11026   8.894   4.741   8.101  0.0746 -1.4667 -1.3783
  805MOL0     H11027   8.996   4.801   8.337  1.3161 -0.8295  3.8608
  805MOL0     H11028   8.982   4.627   8.377  1.0541  0.3729  0.1067
  805MOL0     H11029   9.168   4.609   8.184 -1.7054 -1.2783  0.1329
  805MOL0     H11030   9.134   4.774   8.140  1.9105 -0.3949 -0.7198
  805MOL0     H11031   9.247   4.695   8.414 -1.9707  0.1173 -0.1724
  805MOL0     H11032   9.212   4.853   8.350 -0.9176  0.0164  1.4289
  805MOL0     H11033   9.392   4.823   8.182  1.0992 -1.7753 -1.0374
  805MOL0     H11034   9.447   4.786   8.336  0.0640 -0.1728 -0.8952
  805MOL0     H11035   9.370   4.546   8.158  0.5877  0.8237 -1.1180
  805MOL0     H11036   9.436   4.547   8.322 -2.9227 -0.4576 -0.6807
  805MOL0     H11037   9.547   4.676   8.060 -2.3080 -2.3561 -1.5018
  805MOL0     H11038   9.647   4.680   8.203  0.1088 -0.5903 -0.7230
  805MOL0     H11039   9.714   4.420   8.292 -0.4288 -1.6721 -0.2288
  805MOL0     H11040   9.774   4.088   8.078  0.0888  1.4591 -1.4531
  805MOL0     H11041   9.757   4.134   8.247 -0.1347 -1.3918 -0.7087
  805MOL0     H11042   9.983   4.200   8.047 -1.7230  2.4328 -0.3559
  805MOL0     H11043   9.978   4.264   8.214  1.0397  1.0184 -2.2143
  805MOL0     H11044   9.974   4.040   8.309  0.7718  3.9209  0.5223
  805MOL0     H11045   9.971   3.966   8.144 -1.5481  1.1986 -1.3191
  805MOL0     H11046  10.198   4.116   8.259  2.3497 -0.1661 -0.9709
  805MOL0     H11047  10.189   3.943   8.241 -3.0047 -1.5367 -1.9548
  805MOL0     H11048  10.241   4.263   7.940 -0.3949 -0.0744 -1.8334
  805MOL0     H11049  10.520   4.462   7.896 -0.3793  0.7619 -0.5939
  805MOL0     H11050  10.371   4.415   7.820 -0.8039 -1.7178  0.6606
  805MOL0     H11051  10.518   4.336   7.764  0.0087 -4.0741  1.3761
  805MOL0     H11052  10.908   4.250   7.763  0.8741  0.6911 -0.8536
  805MOL0     H11053  11.152   4.293   7.721  0.2595  0.9528 -0.6309
  805MOL0     H11054  11.377   4.246   8.111 -0.2619  0.4393 -0.5924
  805MOL0     H11055  11.493   4.163   8.001  0.1355 -0.0974  3.6323
  805MOL0     H11056  11.450   4.462   8.037  1.2437  0.5017  1.0976
  805MOL0     H11057  11.587   4.373   8.090 -1.3592 -2.9818  0.7151
  805MOL0     H11058  11.508   4.430   7.802  0.0603  1.3442  0.4964
  805MOL0     H11059  11.642   4.327   7.847 -1.1117 -0.3594  0.1292
  805MOL0     H11060  11.721   4.541   7.988  0.5366  0.0698  0.4164
  805MOL0     H11061  11.592   4.620   7.898 -1.0068 -0.3541  0.6869
  805MOL0     H11062  11.812   4.456   7.763 -1.4900 -1.5571  1.4359
  805MOL0     H11063  11.691   4.559   7.678 -3.1856 -3.6744  1.9731
  805MOL0     H11064  11.917   4.665   7.856  1.3230 -1.4822 -0.2484
  805MOL0     H11065  11.773   4.766   7.810 -1.6362 -0.0960 -0.4541
  805MOL0     H11066  11.895   4.830   7.637  0.3134  0.4794  0.9718
  805MOL0     H11067  11.861   4.672   7.561  3.1706  0.8965 -2.2086
  805MOL0     H11068  12.087   4.729   7.543  1.2974 -1.6454  0.0634
  805MOL0     H11069  12.055   4.574   7.619  0.1260  0.8082 -0.0320
  805MOL0     H11070  11.226   4.123   8.123 -0.5977 -0.6396 -0.9528
  805MOL0     H11071  11.000   4.083   8.140 -1.1625 -4.0628 -2.4409
  805MOL0     H11072  10.630   4.006   8.117 -1.3717  0.1992  2.2600
  805MOL0     H11073  10.404   3.935   8.153 -1.4278  0.7639  1.0958
  805MOL0     H11074   8.517   4.745   8.398  1.0040 -0.5551 -0.6082
  805MOL0     H11075   8.267   4.771   8.422  2.3603 -2.3220  2.0371
  805MOL0     H11076   7.854   4.764   8.117  0.3814  1.7698 -0.6825
  805MOL0     H11077   7.601   4.778   8.150 -0.1753 -0.5666  0.0995
  805MOL0     H11078   7.455   4.952   8.533  0.4345  0.8773  0.6196
  805MOL0     H11079   7.439   5.090   8.420 -0.8121 -0.1501 -2.6118
  805MOL0     H11080   7.236   4.988   8.322 -0.2179  1.0201  0.1010
  805MOL0     H11081   7.221   5.033   8.494 -3.2937 -3.4811  1.8872
  805MOL0     H11082   7.267   4.754   8.401  2.0027  2.1588 -2.0974
  805MOL0     H11083   7.225   4.818   8.565  2.9302 -1.4946  0.2385
  805MOL0     H11084   6.990   4.887   8.482 -0.8291 -0.7570  0.7058
  805MOL0     H11085   7.014   4.724   8.462 -0.5130 -0.4928 -1.4621
  805MOL0     H11086   6.952   4.788   8.077 -0.7024 -0.3565  0.0634
  805MOL0     H11087   7.660   5.031   8.493  2.0522 -0.0586  0.8672
  805MOL0     H11088   7.904   4.963   8.597  3.6320  0.9526  1.7352
  805MOL0     H11089   8.037   5.003   8.494  1.1286  0.2370  1.6969
  805MOL0     H11090   7.908   5.118   8.538  0.1462 -0.0531 -2.0089
  806MOL0     O11091   6.389  10.568   6.086 -0.3481  0.2903  0.0419
  806MOL0     C11092   6.384  10.590   5.970 -0.5310 -0.3334  0.6367
  806MOL0     O11093   6.478  10.658   5.902 -0.1146 -0.1705 -0.0403
  806MOL0     C11094   6.597  10.702   5.963 -0.6626  0.1712 -0.0296
  806MOL0     C11095   6.705  10.714   5.878 -0.0449  0.2754 -0.1463
  806MOL0     C11096   6.834  10.759   5.915  0.2260 -0.1740 -0.2879
  806MOL0     C11097   6.861  10.804   6.036 -0.7993 -0.3910 -0.8846
  806MOL0     O11098   6.990  10.836   6.069 -0.3739 -0.6242 -0.2601
  806MOL0     C11099   7.025  10.825   6.210  0.3052  0.6250  0.8382
  806MOL0     C11100   7.178  10.793   6.205  0.1717 -0.9182 -0.0053
  806MOL0     C11101   7.256  10.909   6.133 -0.1366 -0.2435 -0.1062
  806MOL0     C11102   7.406  10.886   6.152  0.1347 -0.4701 -0.1817
  806MOL0     C11103   7.494  10.983   6.070  0.5766 -0.6048 -0.7745
  806MOL0     C11104   7.640  10.945   6.097 -0.3413  0.2795 -0.0261
  806MOL0     C11105   7.736  11.019   6.009  0.0042 -0.1286  0.2308
  806MOL0     C11106   7.777  10.956   5.873  0.7371  0.4224  0.1575
  806MOL0     N11107   7.898  11.020   5.820 -0.2196 -0.1243  0.2368
  806MOL0     C11108   8.025  10.960   5.807 -0.4969 -0.5335 -0.3154
  806MOL0     C11109   8.114  11.062   5.784 -0.3093  0.3232 -0.8048
  806MOL0     C11110   8.271  11.047   5.763 -0.3023  0.0414 -0.9160
  806MOL0     C11111   8.358  11.103   5.869  0.1988 -0.2286 -0.0401
  806MOL0     C11112   8.377  11.014   5.995  0.2215  0.4120  0.3910
  806MOL0     C11113   8.479  11.082   6.088 -0.0553  1.0647  0.6455
  806MOL0     O11114   8.478  11.033   6.220 -0.5558 -0.0667 -0.9075
  806MOL0     C11115   8.601  11.060   6.276 -0.7121  0.4673  0.0965
  806MOL0     C11116   8.714  11.003   6.222  0.5076 -0.6692 -0.6082
  806MOL0     C11117   8.846  11.016   6.273 -0.0270 -0.7363 -0.0308
  806MOL0     C11118   8.945  10.927   6.208  0.4281  0.7307  0.5288
  806MOL0     C11119   8.873  11.089   6.395 -0.0693  0.4853  0.2748
  806MOL0     C11120   9.009  11.088   6.460  0.2567 -0.6511 -0.4172
  806MOL0     O11121   9.102  10.996   6.430 -0.3507  0.6853  0.2842
  806MOL0     C11122   9.235  10.992   6.486  0.2379  0.2140 -0.6010
  806MOL0     C11123   9.347  10.991   6.415 -0.6422 -0.0579  0.4096
  806MOL0     C11124   9.471  10.977   6.478  0.1207  0.7513  0.9892
  806MOL0     C11125   9.479  10.975   6.621 -0.2188 -1.2032  0.2940
  806MOL0     O11126   9.606  10.970   6.678  0.5455 -0.4168 -0.7996
  806MOL0     C11127   9.609  10.969   6.824  0.0986 -0.5810  0.0929
  806MOL0     C11128   9.738  10.937   6.894  0.1033 -0.6525  0.4914
  806MOL0     C11129   9.835  11.054   6.873 -0.6439  0.2394 -0.4168
  806MOL0     C11130   9.980  11.018   6.918 -0.2200 -1.0370 -0.4270
  806MOL0     C11131  10.061  11.144   6.936  0.1246  0.5388 -0.4625
  806MOL0     C11132  10.203  11.104   6.973  0.2553 -0.3098 -1.0055
  806MOL0     C11133  10.222  11.034   7.113  0.1303  0.1571  0.1705
  806MOL0     C11134  10.358  11.067   7.178 -0.8715 -1.0084 -0.1072
  806MOL0    Cl11135  10.479  10.995   7.076  0.0729 -0.0889  0.3498
  806MOL0     C11136   9.362  10.981   6.696 -0.3914  0.0675  0.9326
  806MOL0     C11137   9.241  10.979   6.628 -0.3303  0.4905  0.2488
  806MOL0     O11138   9.021  11.191   6.531  1.1842  1.3147 -0.2474
  806MOL0     C11139   8.756  11.156   6.452 -0.2664  0.4640 -0.9490
  806MOL0     C11140   8.626  11.144   6.391  0.7533  0.9957  0.1533
  806MOL0     N11141   8.033  11.182   5.777  0.2581  0.2884 -0.2123
  806MOL0     N11142   7.909  11.153   5.790  0.6354  0.8715  0.2600
  806MOL0     C11143   6.750  10.814   6.126  1.1593 -1.2217  0.4467
  806MOL0     C11144   6.622  10.758   6.093  0.2593  0.5630 -0.5133
  806MOL0     C11145   6.273  10.531   5.889 -0.3241  0.3060 -0.3319
  806MOL0     C11146   6.253  10.581   5.764 -0.4972 -0.6658  0.2679
  806MOL0     C11147   6.143  10.540   5.690  0.9109 -0.4902  0.2752
  806MOL0     C11148   6.040  10.455   5.741  0.2822  0.5442  0.2213
  806MOL0     O11149   5.926  10.419   5.674  0.1684 -0.3282  0.8804
  806MOL0     C11150   5.852  10.308   5.720  0.6666  1.0206 -0.3461
  806MOL0     C11151   5.731  10.297   5.634  0.8908  0.1878  0.2753
  806MOL0     C11152   5.625  10.404   5.667 -1.0362 -0.7362 -0.7926
  806MOL0     C11153   5.483  10.356   5.634  0.4029 -0.6116  0.6779
  806MOL0     C11154   5.384  10.469   5.674  0.4499  0.1667  0.0493
  806MOL0     C11155   5.292  10.539   5.714  1.1291 -0.0049 -0.5697
  806MOL0     C11156   6.062  10.410   5.873 -1.1185 -0.2401 -0.6561
  806MOL0     C11157   6.178  10.445   5.948  0.0829 -0.1305  0.6083
  806MOL0     C11158   6.194  10.371   6.084  0.1021 -0.2866  0.3166
  806MOL0     H11159   6.690  10.676   5.777 -1.0410  0.8850 -0.2358
  806MOL0     H11160   6.909  10.759   5.837 -0.4156  0.5316 -0.9213
  806MOL0     H11161   6.976  10.734   6.245 -0.8077  0.5776 -0.7292
  806MOL0     H11162   7.006  10.915   6.269  2.1924  0.8656  1.1592
  806MOL0     H11163   7.219  10.769   6.303  1.2284 -2.6075 -0.8089
  806MOL0     H11164   7.181  10.695   6.156  2.6941 -1.4829  1.1058
  806MOL0     H11165   7.231  10.910   6.027 -0.0449  0.7875 -0.1283
  806MOL0     H11166   7.217  10.999   6.181 -2.5716 -0.3089 -1.7901
  806MOL0     H11167   7.437  10.888   6.257 -0.9356 -0.3445  0.1481
  806MOL0     H11168   7.432  10.785   6.119  0.8133 -0.9195  1.5958
  806MOL0     H11169   7.472  11.086   6.099 -0.4993 -0.1034 -3.1305
  806MOL0     H11170   7.476  10.982   5.962 -1.9797 -0.0391 -0.4008
  806MOL0     H11171   7.653  10.972   6.202  3.4492 -0.4285 -0.1840
  806MOL0     H11172   7.660  10.840   6.074 -0.4678  0.3096 -0.2803
  806MOL0     H11173   7.827  11.021   6.070 -0.1580 -1.4487  0.5286
  806MOL0     H11174   7.703  11.123   5.996 -0.3626  0.1432  2.8178
  806MOL0     H11175   7.799  10.849   5.882  1.6621  0.0869 -4.0353
  806MOL0     H11176   7.695  10.969   5.800  1.3693 -0.6056 -0.7710
  806MOL0     H11177   8.049  10.858   5.834  2.7083  0.6733  2.0039
  806MOL0     H11178   8.295  11.113   5.680 -3.5167  1.1682 -1.0761
  806MOL0     H11179   8.296  10.942   5.744 -1.7337 -0.6678  0.8068
  806MOL0     H11180   8.456  11.133   5.831  0.5760 -1.0653  0.2287
  806MOL0     H11181   8.311  11.196   5.900  0.7985  0.7697 -2.0074
  806MOL0     H11182   8.279  11.003   6.042 -0.5364  2.2711 -0.6603
  806MOL0     H11183   8.416  10.916   5.965  2.9563  1.4953  0.1282
  806MOL0     H11184   8.569  11.075   6.026 -2.5901  0.9114 -3.4494
  806MOL0     H11185   8.463  11.190   6.089 -1.4160  0.8902  2.4401
  806MOL0     H11186   8.714  10.956   6.124 -1.1997  0.8833 -1.4002
  806MOL0     H11187   9.025  10.995   6.176  2.0794 -1.3105  0.1399
  806MOL0     H11188   8.907  10.884   6.115  2.5576  1.0249 -0.5478
  806MOL0     H11189   8.987  10.854   6.278  0.2605 -0.0173 -0.1303
  806MOL0     H11190   9.334  10.995   6.307 -3.3184  2.5660  0.6941
  806MOL0     H11191   9.563  10.951   6.427 -1.6628 -1.0090 -1.6194
  806MOL0     H11192   9.580  11.068   6.859 -0.7163 -0.0804 -1.8722
  806MOL0     H11193   9.541  10.895   6.866 -1.1699 -0.8400 -2.2318
  806MOL0     H11194   9.718  10.921   7.001  0.6826  0.7666  0.8446
  806MOL0     H11195   9.782  10.845   6.855 -1.8123 -1.9994  1.3500
  806MOL0     H11196   9.800  11.143   6.926 -0.1744 -0.6070  1.3990
  806MOL0     H11197   9.825  11.074   6.766 -0.9731  0.6620 -0.3099
  806MOL0     H11198  10.011  10.932   6.858 -0.1671  0.0704 -2.0352
  806MOL0     H11199   9.973  10.974   7.018  4.1245 -2.9525 -0.7311
  806MOL0     H11200  10.060  11.204   6.845 -0.4736 -1.9173 -2.1828
  806MOL0     H11201  10.021  11.211   7.012  3.4505  1.4044  0.7252
  806MOL0     H11202  10.251  11.202   6.974  2.1024 -1.1695 -1.1443
  806MOL0     H11203  10.261  11.043   6.903  0.0316 -1.1039 -0.5127
  806MOL0     H11204  10.204  10.926   7.112 -1.3662  0.3772  0.7729
  806MOL0     H11205  10.144  11.085   7.171  0.2829  1.4649 -0.7322
  806MOL0     H11206  10.361  11.021   7.277 -1.4784  1.3743  1.0816
  806MOL0     H11207  10.370  11.176   7.182  1.2655 -1.0877 -2.3489
  806MOL0     H11208   9.358  11.004   6.802 -1.6402  1.5015  0.6120
  806MOL0     H11209   9.146  10.963   6.677 -1.0489 -0.1013 -1.2948
  806MOL0     H11210   8.767  11.216   6.542  2.5350 -0.0570 -0.8593
  806MOL0     H11211   8.534  11.184   6.433 -1.4722 -1.7363 -1.7079
  806MOL0     H11212   6.770  10.850   6.226  0.5657  1.0878 -0.1955
  806MOL0     H11213   6.540  10.759   6.163  0.7490  0.1137  0.0816
  806MOL0     H11214   6.317  10.657   5.721 -0.4435  0.5110  2.2821
  806MOL0     H11215   6.141  10.576   5.587 -0.8904 -2.2027 -0.3571
  806MOL0     H11216   5.916  10.220   5.706 -0.4492  0.0024  0.7091
  806MOL0     H11217   5.826  10.306   5.826  1.9669 -2.9301  0.0513
  806MOL0     H11218   5.688  10.200   5.662 -0.8726  1.1207  0.9594
  806MOL0     H11219   5.760  10.303   5.529  1.1708  0.3147  0.3597
  806MOL0     H11220   5.640  10.433   5.771  3.3557  2.6050 -2.0890
  806MOL0     H11221   5.658  10.490   5.609  1.2859 -0.0154  1.4411
  806MOL0     H11222   5.454  10.271   5.697  2.9356 -3.6700 -1.9260
  806MOL0     H11223   5.459  10.327   5.532  0.0406  2.1611 -0.1227
  806MOL0     H11224   5.210  10.601   5.744  1.8037  1.4754 -1.6146
  806MOL0     H11225   5.994  10.347   5.929 -2.0850  1.5059  0.2427
  806MOL0     H11226   6.291  10.321   6.090 -1.0728 -3.0005 -1.3925
  806MOL0     H11227   6.193  10.454   6.155 -2.1490 -1.3887  1.7161
  806MOL0     H11228   6.119  10.292   6.090 -0.1664 -0.0820 -0.2614
  807MOL0     O11229   7.633   2.097   1.912  0.4341 -0.3406  0.0836
  807MOL0     C11230   7.657   2.213   1.877  0.9223  0.2617  0.1852
  807MOL0     O11231   7.766   2.256   1.811  0.0597 -0.1014 -0.9191
  807MOL0     C11232   7.871   2.172   1.822  0.4383  0.1411  0.0100
  807MOL0     C11233   7.893   2.059   1.736 -0.1131 -0.4337 -0.1138
  807MOL0     C11234   8.012   1.981   1.744 -0.0575 -0.2179  0.4956
  807MOL0     C11235   8.116   2.023   1.826  0.4763  0.8015 -0.2310
  807MOL0     O11236   8.233   1.952   1.841  0.5444  0.6790  0.2446
  807MOL0     C11237   8.261   1.913   1.970 -0.0334 -0.4405  0.9358
  807MOL0     C11238   8.395   1.844   1.967 -0.2572  0.3414 -0.0421
  807MOL0     C11239   8.412   1.788   2.106 -0.7695  0.0860 -0.1395
  807MOL0     C11240   8.538   1.695   2.107  0.3041 -1.5632  0.5983
  807MOL0     C11241   8.556   1.609   2.231  0.2362 -0.1740  0.4749
  807MOL0     C11242   8.679   1.513   2.235  0.3028 -0.1063 -0.3163
  807MOL0     C11243   8.825   1.571   2.237 -0.1366 -0.8287 -0.2783
  807MOL0     C11244   8.926   1.461   2.238 -0.5360 -0.6387  0.7006
  807MOL0     N11245   9.065   1.495   2.262 -0.0512 -0.6191 -0.1790
  807MOL0     C11246   9.115   1.532   2.388 -0.4272  0.4268 -0.2624
  807MOL0     C11247   9.250   1.559   2.362  0.9031 -1.1460 -0.1589
  807MOL0     C11248   9.358   1.608   2.461  0.8597  0.8320  0.9391
  807MOL0     C11249   9.418   1.485   2.527 -0.3533 -0.6880  0.0527
  807MOL0     C11250   9.505   1.535   2.643  0.1778 -0.1186 -0.0621
  807MOL0     C11251   9.526   1.444   2.759  0.2321  0.0142  0.7536
  807MOL0     O11252   9.606   1.331   2.729 -0.2109  0.5022  0.5332
  807MOL0     C11253   9.740   1.347   2.731  0.2659 -0.2568 -0.0508
  807MOL0     C11254   9.817   1.232   2.713 -0.9559 -0.3550 -0.5352
  807MOL0     C11255   9.956   1.228   2.720  0.0626 -0.6566  0.1581
  807MOL0     C11256  10.014   1.093   2.698  0.2077 -0.3660 -0.2357
  807MOL0     C11257  10.026   1.347   2.747  0.2026 -0.4858 -0.8140
  807MOL0     C11258  10.176   1.351   2.743  0.2594 -0.4538 -0.2234
  807MOL0     O11259  10.231   1.471   2.723  0.1761 -0.5568  0.4471
  807MOL0     C11260  10.363   1.486   2.743 -0.2105  0.0286  0.7036
  807MOL0     C11261  10.453   1.463   2.640  0.0512  0.6178  0.4265
  807MOL0     C11262  10.590   1.469   2.664 -0.8502  0.2633  0.1788
  807MOL0     C11263  10.626   1.511   2.788  0.2886 -0.0016 -0.7243
  807MOL0     O11264  10.763   1.527   2.811  0.2335  1.0536 -0.0150
  807MOL0     C11265  10.806   1.445   2.920 -0.7194 -1.0332  0.5415
  807MOL0     C11266  10.954   1.436   2.920 -0.2847  0.4764  0.0284
  807MOL0     C11267  11.014   1.386   2.792 -0.6251 -0.0856  0.1554
  807MOL0     C11268  11.157   1.357   2.814 -0.7417 -0.1541 -0.2787
  807MOL0     C11269  11.224   1.294   2.689  0.0746 -0.6512 -0.5542
  807MOL0     C11270  11.378   1.326   2.664  0.4850  0.3845 -0.1541
  807MOL0     C11271  11.474   1.294   2.780 -0.5695  0.0572 -0.0842
  807MOL0     C11272  11.599   1.389   2.766  0.7306  0.0250  0.0456
  807MOL0    Cl11273  11.706   1.324   2.630 -0.1974  0.4942 -0.7828
  807MOL0     C11274  10.541   1.535   2.893  0.7111 -0.1125 -0.2201
  807MOL0     C11275  10.408   1.520   2.868  0.6062 -0.1814 -0.0354
  807MOL0     O11276  10.234   1.250   2.766  0.6177  0.0519  0.0745
  807MOL0     C11277   9.949   1.463   2.773 -0.0096  0.8411  0.3962
  807MOL0     C11278   9.807   1.461   2.773 -0.3396  0.1585  0.1461
  807MOL0     N11279   9.277   1.541   2.232 -0.5356 -0.8050 -0.7682
  807MOL0     N11280   9.171   1.498   2.178  0.7311  0.3138 -0.6966
  807MOL0     C11281   8.087   2.131   1.912 -0.1357 -0.4156 -0.3904
  807MOL0     C11282   7.968   2.207   1.910  0.1340 -0.2558 -0.0849
  807MOL0     C11283   7.545   2.305   1.917 -0.0451  0.0100  0.3414
  807MOL0     C11284   7.409   2.262   1.902 -0.3740  0.4654 -0.6538
  807MOL0     C11285   7.305   2.353   1.902  0.4274  0.4253 -0.7105
  807MOL0     C11286   7.323   2.483   1.952 -0.1323  0.1934 -0.4033
  807MOL0     O11287   7.211   2.555   1.973  0.3084 -0.1776 -0.3310
  807MOL0     C11288   7.214   2.696   1.992 -0.9681  0.1210 -0.2946
  807MOL0     C11289   7.074   2.757   1.993  0.2807  0.1732 -0.2562
  807MOL0     C11290   6.998   2.707   2.118 -0.0266 -0.7035 -0.2327
  807MOL0     C11291   6.853   2.740   2.103  0.3628 -0.0153 -0.7326
  807MOL0     C11292   6.828   2.887   2.123 -0.3112 -0.4910 -0.4429
  807MOL0     C11293   6.821   3.005   2.130  0.1234 -0.5285 -0.5309
  807MOL0     C11294   7.458   2.526   1.975  1.0729  0.6352 -0.4597
  807MOL0     C11295   7.566   2.441   1.956 -0.3747 -0.0443  0.2183
  807MOL0     C11296   7.710   2.496   1.998  0.7340 -0.7173 -0.6629
  807MOL0     H11297   7.820   2.032   1.660 -1.8131 -0.4907  1.4843
  807MOL0     H11298   8.028   1.890   1.688 -0.2575 -1.4433  2.3510
  807MOL0     H11299   8.188   1.840   2.007  0.5056 -0.9549  0.9959
  807MOL0     H11300   8.269   2.000   2.036  1.7260 -1.1970  1.7750
  807MOL0     H11301   8.378   1.753   1.908  1.0943 -0.4800  0.7619
  807MOL0     H11302   8.484   1.898   1.933 -0.9125  0.6098 -1.3604
  807MOL0     H11303   8.425   1.870   2.177  4.0562  0.9027 -1.5998
  807MOL0     H11304   8.323   1.740   2.147 -0.0716 -2.0364 -0.9682
  807MOL0     H11305   8.548   1.631   2.018 -1.2646  0.2014 -0.9297
  807MOL0     H11306   8.627   1.759   2.106 -1.6438  1.3012 -0.3791
  807MOL0     H11307   8.463   1.553   2.240  0.8558 -2.2845 -3.8811
  807MOL0     H11308   8.571   1.669   2.321 -1.1302 -1.1411  1.3828
  807MOL0     H11309   8.674   1.455   2.328  2.6790  0.9192  0.5209
  807MOL0     H11310   8.679   1.450   2.145 -1.9106  0.4103 -0.7225
  807MOL0     H11311   8.838   1.645   2.317 -0.9522 -1.1192  0.1400
  807MOL0     H11312   8.830   1.632   2.147 -3.4484 -1.5851 -1.1104
  807MOL0     H11313   8.905   1.407   2.331 -2.1149  0.9540  1.3182
  807MOL0     H11314   8.900   1.382   2.166 -2.1000  1.6511 -1.4095
  807MOL0     H11315   9.060   1.543   2.481 -0.6789  0.4695 -0.4149
  807MOL0     H11316   9.317   1.682   2.531 -0.7790 -0.2719  1.1784
  807MOL0     H11317   9.435   1.659   2.402 -0.8719  0.0821 -2.1859
  807MOL0     H11318   9.338   1.425   2.573 -0.5211 -0.7689 -0.3387
  807MOL0     H11319   9.474   1.418   2.461 -1.1708 -0.2731 -1.1110
  807MOL0     H11320   9.605   1.559   2.605 -0.0948 -0.9228 -1.3666
  807MOL0     H11321   9.467   1.633   2.675 -0.0152  0.5293 -2.1154
  807MOL0     H11322   9.560   1.508   2.840  0.6728 -0.5058  0.9859
  807MOL0     H11323   9.431   1.402   2.793  0.5745  0.2439  2.0280
  807MOL0     H11324   9.770   1.141   2.677 -0.8583 -0.0098 -1.5423
  807MOL0     H11325   9.941   1.023   2.657  0.2364 -1.5374  1.6112
  807MOL0     H11326  10.053   1.067   2.797 -4.0548 -1.4803  1.3896
  807MOL0     H11327  10.099   1.086   2.629  0.7592 -0.1913  0.4122
  807MOL0     H11328  10.418   1.422   2.546  2.0132 -1.9003  0.6691
  807MOL0     H11329  10.649   1.460   2.574 -0.4853 -1.4071  0.5432
  807MOL0     H11330  10.773   1.478   3.019  1.8112  0.3728  0.9934
  807MOL0     H11331  10.766   1.345   2.900 -0.8382 -1.2033  1.6117
  807MOL0     H11332  11.002   1.533   2.938 -0.0221  0.8154 -2.2679
  807MOL0     H11333  10.986   1.373   3.003  0.9889 -0.5776 -1.2205
  807MOL0     H11334  11.015   1.473   2.727  1.0366 -0.7502 -0.7615
  807MOL0     H11335  10.956   1.297   2.762  0.7597 -1.4405  1.3255
  807MOL0     H11336  11.171   1.289   2.899 -0.2603 -0.4202 -0.5670
  807MOL0     H11337  11.205   1.453   2.837  1.6047 -1.4557  0.6734
  807MOL0     H11338  11.215   1.186   2.705 -1.5488 -0.0821  3.5799
  807MOL0     H11339  11.168   1.321   2.598 -0.5879  0.3876  0.1342
  807MOL0     H11340  11.379   1.429   2.628  0.2238 -0.3973 -2.6657
  807MOL0     H11341  11.390   1.260   2.577 -0.8244 -2.0151  1.3627
  807MOL0     H11342  11.520   1.196   2.772 -0.2151  0.1554  0.6623
  807MOL0     H11343  11.428   1.302   2.879  1.1482 -1.4968  0.9114
  807MOL0     H11344  11.649   1.387   2.863  0.8465 -4.4196  0.0763
  807MOL0     H11345  11.574   1.492   2.736 -0.1907 -0.1754  0.0898
  807MOL0     H11346  10.585   1.566   2.988 -2.9968 -0.8592  1.9552
  807MOL0     H11347  10.344   1.542   2.953 -1.9678  6.1066 -2.9473
  807MOL0     H11348  10.003   1.557   2.783 -1.6431  2.0027 -1.2136
  807MOL0     H11349   9.751   1.553   2.787 -2.1192 -0.9498  0.5297
  807MOL0     H11350   8.165   2.172   1.976 -0.2675  0.4275 -0.7644
  807MOL0     H11351   7.981   2.302   1.959 -0.5679 -0.9727  1.5573
  807MOL0     H11352   7.383   2.160   1.876 -2.5054  1.1312 -1.3168
  807MOL0     H11353   7.204   2.332   1.869  1.1837 -1.5162 -2.0134
  807MOL0     H11354   7.264   2.714   2.088  2.0946  0.3781 -1.8500
  807MOL0     H11355   7.276   2.740   1.915  0.4562  0.9158  1.2403
  807MOL0     H11356   7.022   2.725   1.903  0.7462 -0.7312 -0.2157
  807MOL0     H11357   7.085   2.866   1.992 -0.0330  0.2069 -0.2455
  807MOL0     H11358   7.003   2.599   2.131 -1.6109 -0.7118  0.5610
  807MOL0     H11359   7.038   2.753   2.209 -0.4487  2.9038 -1.6992
  807MOL0     H11360   6.799   2.683   2.179  2.4089 -1.8720 -0.5798
  807MOL0     H11361   6.810   2.706   2.008 -1.7053  1.9115 -0.5631
  807MOL0     H11362   6.839   3.106   2.162  1.0432 -0.9945  0.4984
  807MOL0     H11363   7.467   2.628   2.012 -1.3217  1.0663 -0.8922
  807MOL0     H11364   7.760   2.537   1.910  0.3885 -3.3924 -2.2287
  807MOL0     H11365   7.699   2.569   2.078 -2.1063  0.5421 -2.0519
  807MOL0     H11366   7.767   2.410   2.036  1.3587 -0.6197 -1.3527
  808MOL0     O11367   5.082   9.286   6.278  0.4697  0.1879  0.0355
  808MOL0     C11368   4.981   9.271   6.345  0.8127  0.1203  0.5649
  808MOL0     O11369   4.968   9.170   6.433  0.6543  0.4477  0.0186
  808MOL0     C11370   5.065   9.074   6.438  0.4531  0.4562 -0.2854
  808MOL0     C11371   5.046   8.934   6.426  0.6441  0.4985  0.2234
  808MOL0     C11372   5.148   8.848   6.456 -0.7104  0.5003 -0.0869
  808MOL0     C11373   5.280   8.889   6.497  0.2198 -0.6878  0.7181
  808MOL0     O11374   5.386   8.794   6.507 -0.4083 -0.4449  0.2766
  808MOL0     C11375   5.514   8.854   6.516  0.3509  0.9215 -0.2453
  808MOL0     C11376   5.606   8.735   6.546 -0.2389  0.0085  0.7186
  808MOL0     C11377   5.631   8.641   6.433 -0.1662  0.4063  0.6269
  808MOL0     C11378   5.726   8.529   6.486  0.2934 -0.2193  0.5009
  808MOL0     C11379   5.758   8.444   6.363  0.6777  0.6490  0.3171
  808MOL0     C11380   5.812   8.301   6.399  0.1982 -0.4694 -0.2074
  808MOL0     C11381   5.863   8.259   6.540 -0.6955 -0.3341 -0.1709
  808MOL0     C11382   5.923   8.118   6.546  0.3553 -0.1719  0.2620
  808MOL0     N11383   5.977   8.078   6.671  0.7031  0.8572 -0.4823
  808MOL0     C11384   6.075   8.153   6.738  0.3780 -0.4618 -0.3727
  808MOL0     C11385   6.083   8.082   6.858  0.5043 -0.6748  0.0362
  808MOL0     C11386   6.179   8.127   6.978  0.0123 -0.3947 -0.2452
  808MOL0     C11387   6.291   8.043   6.989  0.1885 -0.8238 -0.6428
  808MOL0     C11388   6.327   8.015   7.128  0.0866  0.0255 -0.5557
  808MOL0     C11389   6.436   7.919   7.146  0.0636  0.2863 -1.1581
  808MOL0     O11390   6.446   7.901   7.289 -0.2087  0.3110  0.2640
  808MOL0     C11391   6.554   7.825   7.321 -0.0034  0.5114 -0.6846
  808MOL0     C11392   6.535   7.707   7.392  0.0115  0.3590  0.0383
  808MOL0     C11393   6.636   7.621   7.444 -0.6645 -0.6815  0.9613
  808MOL0     C11394   6.596   7.492   7.508  0.7626  0.5715 -0.0210
  808MOL0     C11395   6.773   7.657   7.410  1.1489  0.0090  0.6563
  808MOL0     C11396   6.888   7.575   7.457  1.2142 -0.7344  0.2189
  808MOL0     O11397   7.007   7.631   7.415 -0.0305 -0.0024 -0.3754
  808MOL0     C11398   7.118   7.568   7.457 -0.6082  0.8426 -0.1546
  808MOL0     C11399   7.179   7.592   7.583  0.7318 -0.7077 -0.5859
  808MOL0     C11400   7.298   7.527   7.605 -0.2237 -0.2029 -0.9228
  808MOL0     C11401   7.364   7.453   7.508  1.0250 -0.5041  0.5133
  808MOL0     O11402   7.473   7.385   7.541  0.0811  1.2407 -0.0588
  808MOL0     C11403   7.572   7.469   7.586 -0.0828 -0.4656 -1.1693
  808MOL0     C11404   7.694   7.399   7.544 -1.0115 -0.3442 -0.2868
  808MOL0     C11405   7.816   7.488   7.535 -0.7481 -0.3615  0.3594
  808MOL0     C11406   7.932   7.409   7.488 -0.2317  0.0299 -0.6345
  808MOL0     C11407   8.059   7.504   7.475 -0.0591  0.8890  1.0427
  808MOL0     C11408   8.192   7.426   7.493  0.5345  0.7996  0.4879
  808MOL0     C11409   8.314   7.515   7.464 -1.0999 -0.5075 -0.3586
  808MOL0     C11410   8.333   7.617   7.582 -1.0716 -0.1194  0.6484
  808MOL0    Cl11411   8.496   7.695   7.560  0.2873 -0.2091  0.0928
  808MOL0     C11412   7.311   7.439   7.381  0.1279  0.2160 -0.5602
  808MOL0     C11413   7.187   7.502   7.355  0.5526  0.4141  0.5655
  808MOL0     O11414   6.872   7.491   7.538  0.2342 -0.4963 -0.5092
  808MOL0     C11415   6.797   7.767   7.326 -0.0688 -0.6079 -0.3182
  808MOL0     C11416   6.687   7.850   7.284 -0.6424 -0.4818 -0.5304
  808MOL0     N11417   5.992   7.977   6.859  0.2326 -0.1760  0.3884
  808MOL0     N11418   5.927   7.975   6.748 -0.7282 -0.4719  0.3219
  808MOL0     C11419   5.292   9.029   6.521 -0.1291 -0.8153 -0.2758
  808MOL0     C11420   5.187   9.117   6.492  0.6748  1.0698  0.3589
  808MOL0     C11421   4.858   9.344   6.306 -0.5756 -0.0508  0.1693
  808MOL0     C11422   4.882   9.468   6.235  0.1057 -0.3147  0.7271
  808MOL0     C11423   4.773   9.555   6.214  0.2879 -0.1300  0.4835
  808MOL0     C11424   4.637   9.515   6.226 -0.2714 -0.0419 -0.0490
  808MOL0     O11425   4.533   9.601   6.191  0.3580 -0.0253  0.7335
  808MOL0     C11426   4.397   9.564   6.198  0.0733 -0.6558  0.3957
  808MOL0     C11427   4.309   9.684   6.158 -0.4672  0.2871 -0.4934
  808MOL0     C11428   4.162   9.634   6.143  0.1207 -0.4280  0.7252
  808MOL0     C11429   4.119   9.594   5.996  0.4891 -0.2490  0.7085
  808MOL0     C11430   3.979   9.619   5.973  0.2698  0.2118  0.2370
  808MOL0     C11431   3.866   9.644   5.941 -0.2548  0.6939 -0.0095
  808MOL0     C11432   4.625   9.393   6.294 -0.6738  1.2967 -0.9558
  808MOL0     C11433   4.726   9.305   6.324  0.7474 -0.3185  0.2718
  808MOL0     C11434   4.682   9.163   6.376  0.2468 -0.4734  0.9486
  808MOL0     H11435   4.951   8.892   6.398  1.0184  1.6772 -3.3470
  808MOL0     H11436   5.149   8.740   6.445  0.6610  0.2794  1.7047
  808MOL0     H11437   5.511   8.923   6.601 -0.8587  0.4881  0.0818
  808MOL0     H11438   5.543   8.911   6.428 -2.6030 -0.1746 -2.0726
  808MOL0     H11439   5.702   8.772   6.582  1.9756 -3.7342 -0.7215
  808MOL0     H11440   5.554   8.674   6.620 -0.2794 -1.2586 -0.3132
  808MOL0     H11441   5.534   8.597   6.409 -0.4383 -0.9418  3.6899
  808MOL0     H11442   5.677   8.684   6.344  1.5148 -1.0158  0.7344
  808MOL0     H11443   5.809   8.585   6.531 -0.6397 -0.2594  2.3460
  808MOL0     H11444   5.672   8.474   6.563 -3.5217  0.4815 -1.4109
  808MOL0     H11445   5.839   8.498   6.314 -1.3496  2.7631 -0.9131
  808MOL0     H11446   5.678   8.445   6.288 -0.0252 -0.7796  1.0111
  808MOL0     H11447   5.726   8.236   6.380 -1.4841  1.6813 -0.3227
  808MOL0     H11448   5.891   8.282   6.326  0.4938  2.6462 -0.8633
  808MOL0     H11449   5.785   8.278   6.614 -3.1989 -1.0698 -2.4695
  808MOL0     H11450   5.947   8.318   6.577  0.3843 -0.6988 -1.8835
  808MOL0     H11451   5.843   8.052   6.512 -0.9375  2.7310 -2.8443
  808MOL0     H11452   6.003   8.112   6.472  0.4764 -3.1847  0.5134
  808MOL0     H11453   6.141   8.234   6.708  0.0884 -1.0625 -2.8383
  808MOL0     H11454   6.127   8.132   7.074  1.6683  0.4396  0.6375
  808MOL0     H11455   6.205   8.231   6.962 -0.3801 -0.6794 -3.3502
  808MOL0     H11456   6.269   7.948   6.940  1.3493 -0.7290 -1.4004
  808MOL0     H11457   6.384   8.085   6.950  2.1136 -1.5782  2.8018
  808MOL0     H11458   6.355   8.108   7.177  3.3882 -0.4190 -1.3618
  808MOL0     H11459   6.243   7.969   7.181  0.1842 -0.0596 -0.4734
  808MOL0     H11460   6.417   7.820   7.103  1.4018 -1.0529  1.1145
  808MOL0     H11461   6.530   7.957   7.105  0.0404  0.6029 -0.9170
  808MOL0     H11462   6.436   7.663   7.397  1.1878 -2.3310  2.6659
  808MOL0     H11463   6.601   7.507   7.616 -0.1658  0.8287 -0.0076
  808MOL0     H11464   6.651   7.401   7.481 -1.6068 -1.6138  1.9862
  808MOL0     H11465   6.497   7.473   7.467  0.3484  2.0279  0.2420
  808MOL0     H11466   7.127   7.649   7.660  3.0058  0.4617  0.1856
  808MOL0     H11467   7.334   7.524   7.707  1.8225  2.0872 -1.5027
  808MOL0     H11468   7.566   7.568   7.539  0.4596  0.3326  0.3557
  808MOL0     H11469   7.575   7.485   7.694 -1.1416 -0.7278 -1.0960
  808MOL0     H11470   7.708   7.317   7.615 -0.7178 -0.4024 -0.4063
  808MOL0     H11471   7.685   7.346   7.449 -0.1654  0.2350 -0.7022
  808MOL0     H11472   7.831   7.529   7.636  2.1353  0.1856 -0.2240
  808MOL0     H11473   7.800   7.581   7.480  0.1908  0.6466  1.7070
  808MOL0     H11474   7.909   7.364   7.392 -0.1084  0.5663 -0.9224
  808MOL0     H11475   7.943   7.337   7.570 -1.3981 -0.5015 -0.9224
  808MOL0     H11476   8.048   7.543   7.374 -1.4246 -2.4049 -0.2479
  808MOL0     H11477   8.060   7.581   7.552  2.2798  1.4128  0.5501
  808MOL0     H11478   8.188   7.354   7.411 -0.5719  0.8775  0.4552
  808MOL0     H11479   8.196   7.373   7.588 -2.9909  1.2155  0.9840
  808MOL0     H11480   8.308   7.561   7.365  0.4104  2.4619  0.8079
  808MOL0     H11481   8.408   7.459   7.461 -0.3163  0.6571  1.2064
  808MOL0     H11482   8.329   7.567   7.679 -0.8080 -2.0564 -0.2936
  808MOL0     H11483   8.258   7.697   7.593  1.0417  1.9363  1.0080
  808MOL0     H11484   7.355   7.368   7.312  0.8820 -2.3940  2.3691
  808MOL0     H11485   7.145   7.486   7.257 -0.9421 -1.4997  1.4555
  808MOL0     H11486   6.896   7.786   7.287 -0.7299  1.3471 -1.1700
  808MOL0     H11487   6.713   7.948   7.243  0.9568 -1.4095 -1.8742
  808MOL0     H11488   5.376   9.084   6.563 -0.7891  0.7619 -0.9430
  808MOL0     H11489   5.198   9.224   6.506 -2.8966  1.6998 -0.5809
  808MOL0     H11490   4.984   9.497   6.214  0.7628 -0.9922  2.7012
  808MOL0     H11491   4.782   9.651   6.165  0.0763 -0.4564 -0.2108
  808MOL0     H11492   4.381   9.487   6.121  2.6569 -0.8300 -0.0444
  808MOL0     H11493   4.368   9.526   6.296 -0.0977  0.6980  0.8877
  808MOL0     H11494   4.342   9.731   6.065  3.7881  1.6501  1.4512
  808MOL0     H11495   4.323   9.758   6.238  1.9645 -0.3178 -0.2829
  808MOL0     H11496   4.162   9.537   6.194  2.4030  0.3783  2.4607
  808MOL0     H11497   4.096   9.698   6.202  1.0158  0.9177  0.3177
  808MOL0     H11498   4.157   9.497   5.963  3.4708  0.3235  2.0881
  808MOL0     H11499   4.172   9.655   5.922 -0.5180 -1.3440 -0.9651
  808MOL0     H11500   3.762   9.659   5.923  0.3984  3.8602 -1.9451
  808MOL0     H11501   4.522   9.361   6.308 -0.8066  2.0354 -0.1586
  808MOL0     H11502   4.574   9.151   6.381 -0.0114  1.8060  1.8882
  808MOL0     H11503   4.715   9.082   6.310 -1.2773 -0.1379 -0.2862
  808MOL0     H11504   4.719   9.150   6.478  3.0258 -1.5500 -0.0918
  809MOL0     O11505   3.043   8.658   3.220 -0.3257 -0.4429  0.2213
  809MOL0     C11506   2.973   8.571   3.279 -0.4923  0.0289 -0.2523
  809MOL0     O11507   3.025   8.494   3.376 -0.2118 -0.0007  0.2238
  809MOL0     C11508   3.156   8.499   3.407 -0.4791 -0.8028  0.1540
  809MOL0     C11509   3.185   8.545   3.538  0.1306 -0.1070  0.1642
  809MOL0     C11510   3.321   8.568   3.574 -0.2803  0.2272  0.5064
  809MOL0     C11511   3.421   8.551   3.476  0.2410 -0.5432 -0.2593
  809MOL0     O11512   3.551   8.585   3.506 -0.9427 -0.5663 -0.9535
  809MOL0     C11513   3.588   8.576   3.651  0.1896  0.4048 -0.2666
  809MOL0     C11514   3.734   8.621   3.658 -0.3996  0.3256 -0.2491
  809MOL0     C11515   3.783   8.671   3.796 -0.4265  0.7150  0.2533
  809MOL0     C11516   3.939   8.657   3.807  0.2403 -0.1602  0.5927
  809MOL0     C11517   3.998   8.509   3.812  0.0124 -0.3444  0.2796
  809MOL0     C11518   4.151   8.508   3.837  0.1529 -0.9193  0.1762
  809MOL0     C11519   4.219   8.372   3.837  1.2671  0.8010  0.1561
  809MOL0     C11520   4.365   8.379   3.785  0.3316 -0.3395  0.2037
  809MOL0     N11521   4.451   8.444   3.891  0.1494 -0.0353  0.3577
  809MOL0     C11522   4.520   8.392   3.996  0.8103  0.0308 -0.8402
  809MOL0     C11523   4.586   8.497   4.061  0.2287  0.3389 -0.6492
  809MOL0     C11524   4.673   8.475   4.184 -0.5150 -0.2826 -0.7179
  809MOL0     C11525   4.807   8.549   4.184 -0.2318  0.5645  1.1380
  809MOL0     C11526   4.894   8.477   4.290 -0.8835  0.2538  0.7696
  809MOL0     C11527   4.964   8.583   4.372 -0.2056  0.6992 -0.0974
  809MOL0     O11528   5.070   8.639   4.290  0.3264 -0.0681  0.2980
  809MOL0     C11529   5.130   8.750   4.346  0.0494 -0.1966  0.3659
  809MOL0     C11530   5.058   8.875   4.338 -0.2240  0.7863  0.1235
  809MOL0     C11531   5.141   8.990   4.363  0.4565  0.6742  0.4643
  809MOL0     C11532   5.089   9.126   4.332 -0.2098  0.6182 -0.4284
  809MOL0     C11533   5.279   8.978   4.418 -0.3967 -0.1756  0.1450
  809MOL0     C11534   5.361   9.095   4.461  0.1836  0.1762 -0.1088
  809MOL0     O11535   5.361   9.204   4.372  0.0063  0.0195 -0.3737
  809MOL0     C11536   5.449   9.305   4.403 -0.2012 -0.2039 -0.3946
  809MOL0     C11537   5.407   9.409   4.491 -0.6899 -0.4217 -0.7838
  809MOL0     C11538   5.497   9.512   4.540 -0.0443 -0.8921  0.1210
  809MOL0     C11539   5.625   9.520   4.495  0.0565  0.5410  0.2268
  809MOL0     O11540   5.718   9.624   4.519  0.0196 -0.4449  0.2508
  809MOL0     C11541   5.703   9.692   4.644 -0.5756  0.4891 -0.1019
  809MOL0     C11542   5.848   9.708   4.686  1.2845  0.4751 -0.0684
  809MOL0     C11543   5.870   9.789   4.817 -0.6473  0.1696  0.3596
  809MOL0     C11544   6.018   9.824   4.853 -0.4049 -0.1752 -0.7314
  809MOL0     C11545   6.030   9.859   4.998  1.0626 -0.3861  0.0368
  809MOL0     C11546   6.164   9.926   5.030 -0.4422 -0.8711  0.3599
  809MOL0     C11547   6.169   9.953   5.181  0.3330  0.7233 -0.2984
  809MOL0     C11548   6.162   9.835   5.276 -0.1304 -0.0625  0.0091
  809MOL0    Cl11549   6.264   9.714   5.199  0.1913 -0.5772  0.2851
  809MOL0     C11550   5.662   9.412   4.410 -0.5391 -0.3906  0.1388
  809MOL0     C11551   5.583   9.305   4.374  0.5833 -0.3507  0.9452
  809MOL0     O11552   5.434   9.082   4.560 -0.5500 -0.5489 -0.5734
  809MOL0     C11553   5.329   8.850   4.447  0.7751 -0.3643  0.5301
  809MOL0     C11554   5.262   8.731   4.397 -0.0731 -0.7894  0.5605
  809MOL0     N11555   4.561   8.611   3.982  0.4482  0.4072 -0.5708
  809MOL0     N11556   4.475   8.580   3.890 -0.6270 -0.0415  0.1361
  809MOL0     C11557   3.394   8.512   3.349 -0.2737  0.1331  0.5504
  809MOL0     C11558   3.264   8.489   3.316 -1.2402 -0.1416 -0.4977
  809MOL0     C11559   2.831   8.552   3.245 -0.5770 -0.5729 -0.3299
  809MOL0     C11560   2.805   8.525   3.115  0.0228 -0.8857 -0.1720
  809MOL0     C11561   2.678   8.500   3.078 -0.7109  0.3536 -0.2963
  809MOL0     C11562   2.574   8.487   3.170 -0.0507 -0.3636 -0.8263
  809MOL0     O11563   2.444   8.452   3.133 -0.1899  0.5139  0.0051
  809MOL0     C11564   2.384   8.322   3.157 -0.2732 -0.0509 -0.3268
  809MOL0     C11565   2.291   8.283   3.052  0.3167 -0.9480 -0.2622
  809MOL0     C11566   2.188   8.179   3.093 -0.2647  0.4628  0.4398
  809MOL0     C11567   2.070   8.240   3.172  0.1025  0.5901 -0.0037
  809MOL0     C11568   1.979   8.131   3.205 -0.7122 -0.4305  0.5794
  809MOL0     C11569   1.913   8.046   3.244 -0.3964  0.1346  0.0382
  809MOL0     C11570   2.599   8.526   3.300  0.2596  0.7008  0.4740
  809MOL0     C11571   2.734   8.555   3.341 -0.2939 -0.3988  1.6411
  809MOL0     C11572   2.771   8.585   3.481 -0.3142 -0.3638  0.4061
  809MOL0     H11573   3.109   8.559   3.614 -1.6740  0.1604 -1.6119
  809MOL0     H11574   3.336   8.601   3.676 -1.1532 -0.5316  0.8988
  809MOL0     H11575   3.567   8.478   3.694 -2.1036  0.0294 -2.0473
  809MOL0     H11576   3.531   8.651   3.707  1.7451  1.0185  0.5706
  809MOL0     H11577   3.793   8.538   3.617 -2.1824 -0.7913 -0.6576
  809MOL0     H11578   3.751   8.704   3.588  0.1739 -0.6304 -1.2712
  809MOL0     H11579   3.743   8.772   3.807 -1.1152  0.5732 -0.8199
  809MOL0     H11580   3.747   8.599   3.871  4.4661 -1.0155  1.3311
  809MOL0     H11581   3.980   8.725   3.732  0.0962  0.9134  1.4625
  809MOL0     H11582   3.981   8.707   3.895  0.0081 -0.2012  0.7261
  809MOL0     H11583   3.976   8.468   3.713 -1.9307  2.3561 -0.5630
  809MOL0     H11584   3.955   8.453   3.895  1.1289  0.0912  1.1814
  809MOL0     H11585   4.197   8.580   3.768 -1.5979  3.5860  3.2700
  809MOL0     H11586   4.177   8.557   3.931 -2.6636  1.9301 -0.3612
  809MOL0     H11587   4.172   8.307   3.763  1.7887 -1.1497  1.4577
  809MOL0     H11588   4.211   8.312   3.929  0.5958 -0.0739 -0.4619
  809MOL0     H11589   4.406   8.280   3.765  1.8561  0.4977 -1.1187
  809MOL0     H11590   4.364   8.444   3.697 -1.7847 -2.1266 -1.1847
  809MOL0     H11591   4.519   8.288   4.026  1.6884  0.3548  0.4503
  809MOL0     H11592   4.689   8.367   4.187 -2.2124 -0.5546  1.0436
  809MOL0     H11593   4.617   8.504   4.273 -0.6206 -0.7494 -0.6287
  809MOL0     H11594   4.849   8.533   4.084 -1.2477  4.5787 -0.1546
  809MOL0     H11595   4.792   8.657   4.192 -1.1298  0.5398  0.1118
  809MOL0     H11596   4.825   8.419   4.353 -1.6303  0.1533 -0.1238
  809MOL0     H11597   4.972   8.411   4.252  0.2815  2.0947 -0.1872
  809MOL0     H11598   4.897   8.660   4.411  3.9732  3.7193  1.9188
  809MOL0     H11599   5.003   8.539   4.465 -1.0289 -0.7760 -0.4152
  809MOL0     H11600   4.958   8.886   4.298 -1.0439  2.1840  2.3877
  809MOL0     H11601   5.151   9.151   4.245  1.6530 -0.0055  0.6846
  809MOL0     H11602   5.115   9.187   4.419  3.3518 -1.3973  0.1027
  809MOL0     H11603   4.981   9.134   4.316 -0.7265 -1.3575  1.6199
  809MOL0     H11604   5.303   9.419   4.519 -0.5211 -0.9210  0.0617
  809MOL0     H11605   5.460   9.594   4.601  0.7934  1.3738 -2.2679
  809MOL0     H11606   5.645   9.784   4.635  0.1621  0.9119 -0.6863
  809MOL0     H11607   5.658   9.631   4.723 -0.1612  1.7826  1.1808
  809MOL0     H11608   5.896   9.610   4.690 -0.1129 -0.2194  0.0946
  809MOL0     H11609   5.899   9.761   4.604  2.2322  0.0231  0.2089
  809MOL0     H11610   5.842   9.726   4.902  1.2087  2.4185  2.8127
  809MOL0     H11611   5.798   9.871   4.823 -2.5692 -1.5670  3.5330
  809MOL0     H11612   6.059   9.909   4.797  1.2844  0.8570  1.8815
  809MOL0     H11613   6.087   9.742   4.828 -0.3193 -0.0621 -0.8663
  809MOL0     H11614   5.953   9.935   5.016  1.6895  0.0327  1.1236
  809MOL0     H11615   6.012   9.772   5.062  1.1130 -0.5457 -0.1670
  809MOL0     H11616   6.174  10.025   4.983  0.9823 -1.0396  0.2644
  809MOL0     H11617   6.249   9.867   4.998 -1.3379 -2.0871  0.1627
  809MOL0     H11618   6.086  10.019   5.209 -1.8046 -1.2776 -1.4892
  809MOL0     H11619   6.267   9.989   5.211  1.6182 -2.3954 -0.3794
  809MOL0     H11620   6.064   9.788   5.281 -0.3329  0.4740  2.0086
  809MOL0     H11621   6.195   9.866   5.376  0.9881  1.6875 -0.8388
  809MOL0     H11622   5.767   9.414   4.382 -0.0862  3.3092  1.5188
  809MOL0     H11623   5.635   9.240   4.304  1.1708  3.1199 -2.2046
  809MOL0     H11624   5.430   8.838   4.486  1.6843  0.3452 -1.4703
  809MOL0     H11625   5.315   8.636   4.398 -0.2023 -0.8700  2.2368
  809MOL0     H11626   3.479   8.512   3.281 -0.4794 -2.2070  0.2253
  809MOL0     H11627   3.247   8.469   3.211  1.7487  1.4650 -1.4047
  809MOL0     H11628   2.881   8.536   3.039 -2.6269  0.0654 -2.8856
  809MOL0     H11629   2.656   8.469   2.977  0.3765  1.3841 -0.8802
  809MOL0     H11630   2.460   8.245   3.174  1.4212  1.4444 -0.8237
  809MOL0     H11631   2.332   8.330   3.253 -1.1575 -3.7236 -0.3472
  809MOL0     H11632   2.340   8.249   2.960  2.7031  2.5548 -0.5054
  809MOL0     H11633   2.236   8.373   3.022 -0.4215 -1.2507  0.1403
  809MOL0     H11634   2.142   8.133   3.005  1.7218 -0.0325 -0.3912
  809MOL0     H11635   2.242   8.098   3.143 -0.9274  0.9362  2.0048
  809MOL0     H11636   2.020   8.308   3.103  0.7067  0.8198 -0.2233
  809MOL0     H11637   2.107   8.293   3.260  2.3335  1.3647 -1.3130
  809MOL0     H11638   1.849   7.977   3.295 -0.1282  0.9783  1.5884
  809MOL0     H11639   2.515   8.524   3.369 -0.0415  1.1004  0.1240
  809MOL0     H11640   2.846   8.663   3.495 -1.7653  0.8227  2.1935
  809MOL0     H11641   2.675   8.613   3.526 -1.4815  0.4859 -2.4138
  809MOL0     H11642   2.789   8.487   3.527 -1.2593 -0.8141 -0.1451
  810MOL0     O11643   9.821   7.826   4.725 -0.3698 -0.0832 -0.3210
  810MOL0     C11644   9.870   7.767   4.820  0.6162 -0.4983 -0.5249
  810MOL0     O11645   9.994   7.697   4.822 -0.7992 -0.1855  0.2543
  810MOL0     C11646  10.074   7.679   4.711 -0.5636 -0.7784  0.5781
  810MOL0     C11647  10.013   7.638   4.591 -0.8779 -0.2817  0.4098
  810MOL0     C11648  10.087   7.651   4.472 -0.0759  0.1200  0.3383
  810MOL0     C11649  10.218   7.688   4.470 -0.8276  0.5518 -0.5714
  810MOL0     O11650  10.302   7.692   4.361  0.1440  0.4125  0.1559
  810MOL0     C11651  10.267   7.623   4.241 -0.5667 -1.3071  0.6396
  810MOL0     C11652  10.371   7.671   4.139 -0.0809 -0.3301 -0.8251
  810MOL0     C11653  10.512   7.648   4.186 -1.2615  0.1292 -0.6428
  810MOL0     C11654  10.606   7.686   4.067  0.2912  0.5183  0.2500
  810MOL0     C11655  10.741   7.724   4.124  0.6054 -0.2316  0.2412
  810MOL0     C11656  10.837   7.743   4.015 -1.1967 -0.2836  0.2431
  810MOL0     C11657  10.854   7.893   3.982  0.3767  0.0798 -0.6828
  810MOL0     C11658  10.951   7.906   3.865  0.7503  0.1015  0.5554
  810MOL0     N11659  11.082   7.876   3.911 -0.5928  0.0063  0.5933
  810MOL0     C11660  11.158   7.960   3.992  0.0710 -0.8106  0.0482
  810MOL0     C11661  11.259   7.871   4.022 -0.7162 -0.7213 -0.5650
  810MOL0     C11662  11.369   7.909   4.118  0.3306  0.2291 -0.2748
  810MOL0     C11663  11.504   7.926   4.052 -0.1215  0.3103 -0.1993
  810MOL0     C11664  11.611   7.920   4.166 -0.0350 -0.0336  0.4555
  810MOL0     C11665  11.758   7.911   4.130 -0.5100  0.1064 -0.4918
  810MOL0     O11666  11.804   8.038   4.066  0.2909  0.2702 -0.4071
  810MOL0     C11667  11.939   8.063   4.068  0.9011  0.3029 -0.3217
  810MOL0     C11668  11.980   8.187   4.124 -0.1924  0.5433 -0.0614
  810MOL0     C11669  12.108   8.230   4.097  0.5021  0.4197 -0.1681
  810MOL0     C11670  12.136   8.381   4.135  0.5494  0.0405  0.8546
  810MOL0     C11671  12.204   8.143   4.035 -0.2279 -0.4718 -0.2770
  810MOL0     C11672  12.346   8.176   3.998 -0.4910 -0.1223  0.5995
  810MOL0     O11673  12.429   8.084   3.936  0.4494 -0.2568 -0.5105
  810MOL0     C11674  12.552   8.103   3.886 -0.3329 -0.4400 -0.3322
  810MOL0     C11675  12.597   8.000   3.810  0.3509  0.3456  0.0185
  810MOL0     C11676  12.719   8.008   3.738 -0.6169  0.3570 -0.4840
  810MOL0     C11677  12.794   8.127   3.742  0.5735 -1.2376  0.4430
  810MOL0     O11678  12.922   8.145   3.677  0.2488 -0.1563 -0.0461
  810MOL0     C11679  13.009   8.027   3.689 -0.5965  0.6357 -0.0080
  810MOL0     C11680  13.156   8.071   3.672  0.1852 -0.5312 -0.5481
  810MOL0     C11681  13.252   7.954   3.677 -0.4816  0.6487 -0.9503
  810MOL0     C11682  13.387   8.001   3.609  0.1694 -0.3884  0.4610
  810MOL0     C11683  13.503   7.897   3.614  0.4787  0.5321  0.8097
  810MOL0     C11684  13.611   7.945   3.512  0.5033  0.3084  0.3319
  810MOL0     C11685  13.734   7.856   3.531 -0.0785  0.5440  1.4213
  810MOL0     C11686  13.811   7.889   3.660  0.0855  0.1352 -0.4742
  810MOL0    Cl11687  13.837   8.072   3.689 -0.1479 -0.0326 -0.1249
  810MOL0     C11688  12.752   8.230   3.823  0.6741 -0.7145 -0.1743
  810MOL0     C11689  12.629   8.221   3.898  0.2269 -0.3330  0.5713
  810MOL0     O11690  12.391   8.281   4.038  0.3169  0.0560 -0.8642
  810MOL0     C11691  12.166   8.008   4.010  0.1188  0.8660  0.0025
  810MOL0     C11692  12.029   7.977   4.010 -0.5880  0.3396 -0.4541
  810MOL0     N11693  11.234   7.746   3.975  0.0172 -0.1217 -0.1046
  810MOL0     N11694  11.131   7.749   3.907 -0.5151  0.0514  1.1589
  810MOL0     C11695  10.285   7.711   4.589 -0.3232  0.5236  0.0458
  810MOL0     C11696  10.209   7.719   4.704  0.5750  0.2479  0.3139
  810MOL0     C11697   9.785   7.757   4.952  0.0674 -1.0315 -0.0632
  810MOL0     C11698   9.838   7.682   5.052 -0.7602  0.6608  0.3837
  810MOL0     C11699   9.773   7.653   5.170 -0.0671 -0.5118  0.1457
  810MOL0     C11700   9.641   7.701   5.192  0.0229 -0.5983  0.3675
  810MOL0     O11701   9.586   7.684   5.312  0.0828 -0.0785  0.0194
  810MOL0     C11702   9.484   7.781   5.359 -0.3712 -0.7604 -1.0059
  810MOL0     C11703   9.544   7.921   5.376  0.3879 -0.1167 -0.1252
  810MOL0     C11704   9.626   7.919   5.504 -0.0622  0.1548  0.2764
  810MOL0     C11705   9.725   8.032   5.505 -0.0434 -0.7210 -0.1615
  810MOL0     C11706   9.798   8.022   5.629 -0.5300  0.6807  0.1408
  810MOL0     C11707   9.860   8.011   5.736  0.0626  0.4613  0.4356
  810MOL0     C11708   9.590   7.780   5.083  0.0249 -0.4313  0.0427
  810MOL0     C11709   9.654   7.795   4.963  0.2643 -0.2588 -0.2160
  810MOL0     C11710   9.576   7.861   4.852  0.3852 -0.1157  0.4604
  810MOL0     H11711   9.910   7.603   4.591 -0.7484 -1.0789 -2.9336
  810MOL0     H11712  10.019   7.644   4.387 -0.7744 -1.0319  0.9653
  810MOL0     H11713  10.170   7.662   4.210 -0.4338 -3.6129 -3.4495
  810MOL0     H11714  10.259   7.515   4.257  1.1162 -1.2793  1.9067
  810MOL0     H11715  10.359   7.618   4.044 -0.7761 -0.3825 -0.7104
  810MOL0     H11716  10.357   7.776   4.111 -2.6454 -0.7402 -1.3305
  810MOL0     H11717  10.534   7.719   4.266  3.2108 -0.1010 -1.3838
  810MOL0     H11718  10.524   7.542   4.211  2.5304  0.4835 -0.3136
  810MOL0     H11719  10.604   7.614   3.985  1.7849  1.9958 -1.1508
  810MOL0     H11720  10.567   7.776   4.020 -1.3698 -0.4931 -0.3821
  810MOL0     H11721  10.771   7.635   4.180 -1.5327 -2.9481 -2.5471
  810MOL0     H11722  10.742   7.812   4.189  1.1980 -1.0333  1.3336
  810MOL0     H11723  10.933   7.707   4.053 -0.2215 -1.3345 -2.8956
  810MOL0     H11724  10.810   7.682   3.928  0.8530  0.4850 -0.9932
  810MOL0     H11725  10.892   7.946   4.070  2.9925 -1.9662 -0.4585
  810MOL0     H11726  10.755   7.926   3.950  0.8805 -0.6501 -3.2080
  810MOL0     H11727  10.931   7.833   3.787 -1.1430 -2.3508  3.1175
  810MOL0     H11728  10.941   8.007   3.824  1.6631 -0.6554 -1.6585
  810MOL0     H11729  11.141   8.058   4.034 -0.5445 -1.0883  0.4630
  810MOL0     H11730  11.369   7.833   4.197 -1.4160 -0.0175 -0.4729
  810MOL0     H11731  11.341   8.001   4.169 -3.8441 -0.9299 -0.1368
  810MOL0     H11732  11.517   7.845   3.980  2.0180 -0.7992  1.3324
  810MOL0     H11733  11.512   8.022   4.001 -0.3334  0.1206 -0.5915
  810MOL0     H11734  11.601   8.004   4.236  0.4501 -0.8950  1.6008
  810MOL0     H11735  11.594   7.829   4.224 -0.8951 -0.7830 -0.9220
  810MOL0     H11736  11.810   7.886   4.223  0.2842  2.6948 -0.1584
  810MOL0     H11737  11.768   7.832   4.055 -0.9284  0.5438 -1.0156
  810MOL0     H11738  11.907   8.253   4.169 -1.9578 -1.1052 -0.3448
  810MOL0     H11739  12.055   8.415   4.201  0.2371 -0.0865  0.5415
  810MOL0     H11740  12.147   8.447   4.049 -1.4522 -0.1700  0.3868
  810MOL0     H11741  12.225   8.385   4.199  0.0172  0.3486  1.5940
  810MOL0     H11742  12.555   7.902   3.787  1.1978 -0.1218  0.4169
  810MOL0     H11743  12.749   7.921   3.680 -0.0573  0.5587 -0.5024
  810MOL0     H11744  12.986   7.985   3.787 -0.4183 -2.7439 -1.2547
  810MOL0     H11745  12.977   7.949   3.619 -0.7979  1.0827 -0.4173
  810MOL0     H11746  13.173   8.131   3.583  1.6420  1.6607  1.1218
  810MOL0     H11747  13.171   8.144   3.751 -0.1742 -0.6347 -0.3779
  810MOL0     H11748  13.204   7.867   3.630 -1.9562  0.5320  0.7052
  810MOL0     H11749  13.268   7.930   3.782 -1.7109  1.7751 -0.4847
  810MOL0     H11750  13.428   8.091   3.657 -1.2267 -0.2259  1.4017
  810MOL0     H11751  13.360   8.030   3.508  1.4242  0.4943  0.3518
  810MOL0     H11752  13.554   7.898   3.711 -0.5091  2.2991  1.3525
  810MOL0     H11753  13.466   7.796   3.594  1.0175 -0.2151  3.1575
  810MOL0     H11754  13.632   8.049   3.540 -2.1228  0.0175  4.1770
  810MOL0     H11755  13.565   7.932   3.414 -4.6510  1.1981  2.2958
  810MOL0     H11756  13.809   7.865   3.451 -2.5194  3.9338 -0.7485
  810MOL0     H11757  13.706   7.751   3.526  2.0980 -0.0589  0.5392
  810MOL0     H11758  13.908   7.840   3.650 -1.2446 -2.7526 -0.3495
  810MOL0     H11759  13.760   7.846   3.747  0.6831  2.5400  1.1611
  810MOL0     H11760  12.805   8.324   3.830 -0.5263 -0.1106  1.4324
  810MOL0     H11761  12.611   8.306   3.963 -0.3477 -0.8452  1.0846
  810MOL0     H11762  12.241   7.939   3.974 -0.5597 -1.4426  2.7118
  810MOL0     H11763  11.994   7.879   3.979  2.8373 -1.3879  0.6780
  810MOL0     H11764  10.389   7.736   4.609  0.2680 -0.3125 -1.7520
  810MOL0     H11765  10.252   7.750   4.799  1.9841 -0.0237 -0.2026
  810MOL0     H11766   9.932   7.629   5.040 -1.5658 -1.6084  3.0217
  810MOL0     H11767   9.826   7.581   5.231  0.3818 -0.4579 -0.1696
  810MOL0     H11768   9.405   7.786   5.283 -0.0628 -0.3202 -1.2977
  810MOL0     H11769   9.444   7.747   5.455 -0.7624 -0.2065 -0.9630
  810MOL0     H11770   9.462   7.989   5.401  0.0920  0.4899 -2.5134
  810MOL0     H11771   9.594   7.954   5.285 -0.3560  3.0777  0.5113
  810MOL0     H11772   9.566   7.908   5.594 -3.0262 -0.0070 -1.5651
  810MOL0     H11773   9.677   7.823   5.492  1.6128  1.2778 -3.1135
  810MOL0     H11774   9.682   8.132   5.505 -0.9666 -0.9863  3.1374
  810MOL0     H11775   9.794   8.020   5.421  0.1909  2.2891 -0.5056
  810MOL0     H11776   9.911   7.998   5.829  2.1674 -2.6797 -0.9815
  810MOL0     H11777   9.484   7.803   5.092 -0.1237 -0.3196 -1.6374
  810MOL0     H11778   9.481   7.900   4.890 -0.0391  0.0689 -0.7357
  810MOL0     H11779   9.627   7.940   4.795  3.0873 -0.5142  2.1889
  810MOL0     H11780   9.544   7.784   4.781  0.0591 -1.9990  2.5385
  811MOL0     O11781   1.450  10.816   3.766 -0.4738 -0.3554 -0.5389
  811MOL0     C11782   1.391  10.789   3.870 -0.2183  0.4436  0.5477
  811MOL0     O11783   1.446  10.730   3.982  0.4182 -0.3010 -0.6196
  811MOL0     C11784   1.584  10.747   4.004  0.2157 -0.3373 -0.5168
  811MOL0     C11785   1.639  10.652   4.088 -0.3656  0.3521  0.6356
  811MOL0     C11786   1.766  10.660   4.132 -0.6478  0.8823  0.2594
  811MOL0     C11787   1.855  10.761   4.091  1.0429 -0.2739 -0.4725
  811MOL0     O11788   1.979  10.763   4.128  0.0354  0.1043  0.3104
  811MOL0     C11789   2.051  10.662   4.059  0.6147 -0.1525  0.9911
  811MOL0     C11790   2.195  10.681   4.096 -0.4872 -0.3026 -0.4470
  811MOL0     C11791   2.238  10.700   4.247  0.0082 -0.2025  0.2353
  811MOL0     C11792   2.397  10.698   4.272 -0.4434  0.2109  0.1999
  811MOL0     C11793   2.463  10.837   4.256 -0.2490  0.5483  0.1225
  811MOL0     C11794   2.616  10.844   4.272  0.4201  0.2741 -1.3053
  811MOL0     C11795   2.653  10.818   4.418 -0.3086  0.3154 -0.0555
  811MOL0     C11796   2.812  10.837   4.435 -0.5442  0.4411  0.6619
  811MOL0     N11797   2.872  10.712   4.484  0.4674 -0.1652  0.4357
  811MOL0     C11798   2.882  10.680   4.617 -0.5171 -0.2679  0.5276
  811MOL0     C11799   2.973  10.575   4.610 -0.2762 -0.5400  0.1487
  811MOL0     C11800   3.029  10.509   4.727  0.0808  0.1771  0.0185
  811MOL0     C11801   3.175  10.558   4.753 -0.0869  0.1848  0.0276
  811MOL0     C11802   3.269  10.472   4.668 -0.1272  0.0963 -0.0646
  811MOL0     C11803   3.409  10.539   4.672  0.4103  0.2575  0.0108
  811MOL0     O11804   3.441  10.596   4.803  0.0473  0.7050  0.4609
  811MOL0     C11805   3.568  10.619   4.831  0.2998  0.0143 -0.3313
  811MOL0     C11806   3.611  10.741   4.874 -0.1733  0.1951  0.0450
  811MOL0     C11807   3.745  10.764   4.917  0.3222 -0.1137 -0.6164
  811MOL0     C11808   3.778  10.905   4.959  0.3413  0.6580 -0.0553
  811MOL0     C11809   3.839  10.655   4.915  0.8851 -0.0194 -0.1606
  811MOL0     C11810   3.987  10.675   4.947 -0.2247 -0.4645  0.5120
  811MOL0     O11811   4.031  10.787   5.022 -0.0326  0.3800  0.0279
  811MOL0     C11812   4.170  10.801   5.014  1.8511 -0.1325  0.7113
  811MOL0     C11813   4.232  10.882   4.919  0.3767  0.0776 -0.1233
  811MOL0     C11814   4.368  10.901   4.916 -0.1579 -0.0721 -0.3153
  811MOL0     C11815   4.453  10.814   4.988  0.8369 -0.4376  0.1489
  811MOL0     O11816   4.586  10.795   4.956 -0.1460 -0.0519 -0.1571
  811MOL0     C11817   4.681  10.830   5.053  0.3815  0.2940 -0.2919
  811MOL0     C11818   4.823  10.829   4.987  0.6060 -0.0758 -0.3469
  811MOL0     C11819   4.849  10.932   4.883 -0.3973  0.3664  0.2814
  811MOL0     C11820   4.842  11.084   4.911  0.2106 -0.0319 -0.1039
  811MOL0     C11821   4.898  11.170   4.785 -0.0997  0.8594  1.0264
  811MOL0     C11822   4.816  11.141   4.665  0.6548 -0.2852 -0.1981
  811MOL0     C11823   4.838  11.238   4.553 -0.5930  0.7506 -0.9438
  811MOL0     C11824   4.816  11.167   4.418 -0.2347  0.6123 -0.2469
  811MOL0    Cl11825   4.793  11.289   4.283 -0.0131 -0.1227 -0.4600
  811MOL0     C11826   4.389  10.718   5.075 -0.6713  0.3934 -0.1834
  811MOL0     C11827   4.251  10.714   5.082  0.2150  0.4124  0.4396
  811MOL0     O11828   4.064  10.585   4.908 -0.2659 -0.1621 -0.3907
  811MOL0     C11829   3.791  10.531   4.858  0.0529  0.0991 -0.4711
  811MOL0     C11830   3.660  10.511   4.829  0.2172  0.1279  0.1906
  811MOL0     N11831   3.001  10.547   4.486 -0.4986 -0.4816  0.5125
  811MOL0     N11832   2.941  10.613   4.408  1.0513  1.0031 -0.2479
  811MOL0     C11833   1.802  10.853   3.997  0.3580 -0.3837  1.0112
  811MOL0     C11834   1.665  10.849   3.959 -0.3297 -0.2557 -0.7682
  811MOL0     C11835   1.243  10.804   3.900 -0.3378 -0.9359  1.3080
  811MOL0     C11836   1.191  10.775   4.024  0.5353  0.9066 -0.1639
  811MOL0     C11837   1.069  10.833   4.056  0.0336  0.5628  0.4148
  811MOL0     C11838   0.998  10.913   3.969  0.0869 -0.1627  0.1525
  811MOL0     O11839   0.897  10.988   4.021 -0.5166 -0.6096 -0.0754
  811MOL0     C11840   0.811  11.051   3.924 -0.3926  0.3478  0.4291
  811MOL0     C11841   0.680  11.105   3.977 -0.2003 -0.0672 -0.7835
  811MOL0     C11842   0.593  10.994   4.035  0.1308  0.5166 -0.0028
  811MOL0     C11843   0.461  11.049   4.082  0.1658 -0.1236  0.7810
  811MOL0     C11844   0.355  10.952   4.107 -0.4919  0.4523 -0.3679
  811MOL0     C11845   0.255  10.883   4.117  0.3197  0.0709  0.5619
  811MOL0     C11846   1.042  10.922   3.836  0.1909  0.4590  0.2923
  811MOL0     C11847   1.161  10.859   3.798  0.0423  0.3754 -0.4341
  811MOL0     C11848   1.194  10.865   3.655  1.1757  0.5102  0.5630
  811MOL0     H11849   1.575  10.574   4.129 -0.4569  0.9446  1.6413
  811MOL0     H11850   1.800  10.585   4.203 -0.4342  2.4664  1.9146
  811MOL0     H11851   2.034  10.673   3.951 -0.2286 -0.2232  1.1121
  811MOL0     H11852   2.003  10.569   4.089 -0.8416 -0.0279 -0.8203
  811MOL0     H11853   2.252  10.596   4.058  0.0735 -1.0830  2.0072
  811MOL0     H11854   2.228  10.769   4.039  0.1078 -0.4361 -0.3168
  811MOL0     H11855   2.198  10.793   4.289  0.0078 -0.5838  1.0886
  811MOL0     H11856   2.196  10.622   4.310 -2.0776  0.0637 -0.7420
  811MOL0     H11857   2.420  10.659   4.371 -3.4843 -1.9287  0.2156
  811MOL0     H11858   2.445  10.639   4.193 -0.6274 -1.3642  1.2219
  811MOL0     H11859   2.418  10.926   4.301  1.0971  2.9395 -2.8494
  811MOL0     H11860   2.450  10.869   4.152  0.2740 -0.2128 -0.1834
  811MOL0     H11861   2.653  10.762   4.210 -0.8854 -0.8514 -0.6287
  811MOL0     H11862   2.666  10.936   4.238  0.4879  0.8744  0.3055
  811MOL0     H11863   2.635  10.714   4.446 -1.1301  0.2414 -0.7933
  811MOL0     H11864   2.603  10.883   4.491  2.0216 -0.4066  2.3048
  811MOL0     H11865   2.875  10.846   4.346  3.7559 -0.1263  3.3708
  811MOL0     H11866   2.823  10.932   4.489  0.2998  1.2110 -0.8088
  811MOL0     H11867   2.830  10.727   4.700 -1.4648  0.4354 -0.4234
  811MOL0     H11868   3.029  10.400   4.714 -0.2698  0.0025  1.3357
  811MOL0     H11869   2.966  10.539   4.811 -0.3243 -2.0980  0.5948
  811MOL0     H11870   3.187  10.664   4.729  0.6170 -0.2598 -1.6849
  811MOL0     H11871   3.196  10.536   4.858 -0.6170 -0.3812  0.0219
  811MOL0     H11872   3.276  10.369   4.703 -1.5107  0.0750  0.1893
  811MOL0     H11873   3.246  10.471   4.561  0.0559  0.6841 -0.1146
  811MOL0     H11874   3.482  10.465   4.638  1.1677 -0.8487  3.6567
  811MOL0     H11875   3.407  10.613   4.591 -1.9794 -0.2443 -0.4585
  811MOL0     H11876   3.543  10.825   4.875 -1.7906 -1.0299 -1.6140
  811MOL0     H11877   3.691  10.969   4.940  0.2632  1.0768  1.5755
  811MOL0     H11878   3.856  10.952   4.898 -0.6781  5.0117  1.5958
  811MOL0     H11879   3.807  10.909   5.064  4.0201  1.4716 -0.9592
  811MOL0     H11880   4.162  10.936   4.854  1.6353  1.0726 -0.7059
  811MOL0     H11881   4.423  10.967   4.849 -1.3220  2.2015  0.8778
  811MOL0     H11882   4.663  10.922   5.110 -0.5438 -0.6421  0.9837
  811MOL0     H11883   4.680  10.755   5.134  1.6917  2.4872  1.9079
  811MOL0     H11884   4.897  10.840   5.067 -1.2730  0.0480  1.4688
  811MOL0     H11885   4.834  10.729   4.945 -1.2005  0.1486 -1.4671
  811MOL0     H11886   4.778  10.911   4.804 -1.9766  1.2400  1.4152
  811MOL0     H11887   4.950  10.924   4.841 -0.5710 -0.5141  0.0181
  811MOL0     H11888   4.904  11.094   5.000  0.9671  2.9635 -0.8489
  811MOL0     H11889   4.739  11.113   4.934  0.3483  1.6238 -1.3479
  811MOL0     H11890   4.884  11.278   4.798 -1.9670  0.8671 -0.7264
  811MOL0     H11891   5.003  11.153   4.759  0.1356  2.6155  0.6922
  811MOL0     H11892   4.709  11.155   4.683  0.6147 -0.2524 -0.4620
  811MOL0     H11893   4.834  11.035   4.643  0.2917 -0.5807  0.8724
  811MOL0     H11894   4.938  11.280   4.563 -0.0964 -0.6640  0.5667
  811MOL0     H11895   4.773  11.326   4.543 -1.0731  0.5446  0.1363
  811MOL0     H11896   4.728  11.103   4.423 -0.5568  0.9921 -0.8655
  811MOL0     H11897   4.904  11.107   4.394 -1.4424 -0.0230 -3.5790
  811MOL0     H11898   4.454  10.646   5.123 -1.0399  0.9507  1.2072
  811MOL0     H11899   4.202  10.636   5.139  1.4676 -1.6209 -1.1455
  811MOL0     H11900   3.864  10.452   4.841  2.3178  2.0431 -0.3621
  811MOL0     H11901   3.639  10.414   4.784 -0.5083  0.3691  0.0083
  811MOL0     H11902   1.866  10.937   3.972 -0.3839 -0.3252 -0.8267
  811MOL0     H11903   1.627  10.935   3.905 -0.3222 -0.0641 -0.4701
  811MOL0     H11904   1.256  10.730   4.099 -0.3872  0.8266  0.6041
  811MOL0     H11905   1.037  10.839   4.160  1.4785  0.5147  0.8835
  811MOL0     H11906   0.870  11.131   3.878  1.4187 -1.9006 -1.3846
  811MOL0     H11907   0.783  10.982   3.844 -0.3500  1.1607 -0.3073
  811MOL0     H11908   0.633  11.154   3.891 -0.1420 -3.0415 -2.6492
  811MOL0     H11909   0.698  11.181   4.054  0.0422 -1.8330  0.9944
  811MOL0     H11910   0.581  10.920   3.954  0.9423  3.5932 -3.1927
  811MOL0     H11911   0.642  10.939   4.115 -1.2923 -1.2420 -0.2789
  811MOL0     H11912   0.428  11.124   4.009 -0.6904 -0.2514  1.0385
  811MOL0     H11913   0.485  11.110   4.170  2.0268  0.0452  0.2107
  811MOL0     H11914   0.161  10.834   4.133  0.2894  0.8263  3.0002
  811MOL0     H11915   0.984  10.960   3.753 -4.0927 -1.5631  2.0306
  811MOL0     H11916   1.231  10.964   3.626  0.6074  1.0343  1.6098
  811MOL0     H11917   1.261  10.784   3.624 -1.1691 -0.2082 -3.4411
  811MOL0     H11918   1.104  10.836   3.600  0.7498  2.3520  0.2229
  812MOL0     O11919   1.211   1.144  10.717 -0.5169 -0.7579  0.4759
  812MOL0     C11920   1.167   1.060  10.638  0.1639  0.0154  1.7508
  812MOL0     O11921   1.226   0.949  10.586 -0.6170  0.2155  0.4651
  812MOL0     C11922   1.362   0.918  10.588 -0.6695  0.3843  0.0465
  812MOL0     C11923   1.402   0.807  10.509  0.8749 -0.3653  0.1741
  812MOL0     C11924   1.535   0.778  10.487  0.3045  0.2060  0.3420
  812MOL0     C11925   1.637   0.851  10.557  0.7592 -0.0395 -0.2355
  812MOL0     O11926   1.767   0.818  10.551 -0.2918 -0.1916 -0.4881
  812MOL0     C11927   1.803   0.679  10.571 -0.1896  0.3178  0.1651
  812MOL0     C11928   1.907   0.665  10.689 -0.5521 -0.6603 -0.2982
  812MOL0     C11929   2.047   0.698  10.639 -1.0476 -0.4976  0.1458
  812MOL0     C11930   2.152   0.692  10.746 -0.0194  1.2484 -1.1718
  812MOL0     C11931   2.292   0.688  10.693  0.4605  0.1839 -0.2093
  812MOL0     C11932   2.393   0.683  10.805  0.4193  0.3182  0.5265
  812MOL0     C11933   2.529   0.637  10.760  0.1892 -0.5736 -0.3834
  812MOL0     C11934   2.577   0.711  10.634  0.2594  0.0932  0.1175
  812MOL0     N11935   2.712   0.672  10.587  0.1947  0.2854 -0.1051
  812MOL0     C11936   2.836   0.680  10.657  0.5273  0.1593  0.8250
  812MOL0     C11937   2.933   0.641  10.567  0.0092  0.5000  0.3358
  812MOL0     C11938   3.078   0.623  10.605  1.0129 -0.3412 -0.2851
  812MOL0     C11939   3.162   0.567  10.482  1.1043  0.2463  1.1664
  812MOL0     C11940   3.302   0.532  10.536  0.0384 -0.1412  0.7162
  812MOL0     C11941   3.402   0.490  10.422  0.1513 -0.6731 -0.3167
  812MOL0     O11942   3.408   0.600  10.323 -0.2710  0.0824 -0.1585
  812MOL0     C11943   3.506   0.576  10.234 -0.5574 -0.9761 -0.0309
  812MOL0     C11944   3.471   0.588  10.100 -0.2816 -0.3466 -0.0640
  812MOL0     C11945   3.558   0.587   9.996 -0.2280 -0.0417  0.2890
  812MOL0     C11946   3.500   0.597   9.858  0.5894  0.1371  0.9350
  812MOL0     C11947   3.697   0.570  10.025  0.0710 -0.0820 -0.2737
  812MOL0     C11948   3.808   0.556   9.914  1.0367  1.0110 -0.2529
  812MOL0     O11949   3.929   0.497   9.952 -0.8211  0.1276  0.6620
  812MOL0     C11950   4.021   0.485   9.853  0.2789 -0.1144 -1.1290
  812MOL0     C11951   4.077   0.596   9.800  0.0935  0.0146 -0.4364
  812MOL0     C11952   4.192   0.584   9.719 -0.5415 -1.6782  0.5421
  812MOL0     C11953   4.254   0.470   9.682 -0.1401 -0.8722 -0.3082
  812MOL0     O11954   4.363   0.484   9.590  0.9628  0.2628  0.1830
  812MOL0     C11955   4.443   0.367   9.603 -0.4882  0.2392  1.0379
  812MOL0     C11956   4.561   0.403   9.517 -0.0665 -0.5083 -0.6961
  812MOL0     C11957   4.669   0.300   9.528  0.7428 -0.2394  0.3614
  812MOL0     C11958   4.795   0.335   9.465 -0.3157 -0.0824 -0.4257
  812MOL0     C11959   4.903   0.230   9.459  0.2753 -0.4024 -0.0847
  812MOL0     C11960   4.853   0.086   9.432  0.1743  0.0036 -0.0743
  812MOL0     C11961   4.961  -0.004   9.382 -0.3847 -0.1229 -0.2868
  812MOL0     C11962   4.992  -0.106   9.490 -0.3299  0.2954  0.3804
  812MOL0    Cl11963   5.164  -0.133   9.488  0.5921 -0.0523  0.2679
  812MOL0     C11964   4.189   0.354   9.724  0.2873 -0.5275  0.4817
  812MOL0     C11965   4.073   0.359   9.807  1.0822  0.5426 -0.0620
  812MOL0     O11966   3.779   0.583   9.801  0.1743  0.3083  0.1751
  812MOL0     C11967   3.735   0.555  10.155 -0.3377  0.7067  0.1164
  812MOL0     C11968   3.643   0.554  10.263 -0.0358 -0.0176  0.5014
  812MOL0     N11969   2.866   0.604  10.453 -0.2736 -0.5069  0.4018
  812MOL0     N11970   2.742   0.618  10.461 -0.0806 -0.1704 -0.5367
  812MOL0     C11971   1.598   0.952  10.646  0.5456 -0.9532 -0.1467
  812MOL0     C11972   1.460   0.981  10.670 -1.1757 -0.8679 -0.3855
  812MOL0     C11973   1.027   1.078  10.600  0.7044 -1.0145 -0.3386
  812MOL0     C11974   0.953   0.960  10.597 -0.4055  0.3942 -0.3315
  812MOL0     C11975   0.816   0.958  10.560  0.1284  0.2067 -0.3301
  812MOL0     C11976   0.755   1.071  10.530  0.4704 -0.4122  0.2011
  812MOL0     O11977   0.621   1.070  10.477 -0.3604  0.1666 -0.9208
  812MOL0     C11978   0.528   1.181  10.512 -0.3197 -0.0385 -0.1417
  812MOL0     C11979   0.383   1.140  10.506 -0.2945 -0.2579 -0.0084
  812MOL0     C11980   0.287   1.260  10.515 -0.4241 -0.1046 -0.0851
  812MOL0     C11981   0.269   1.330  10.379 -0.7435 -0.1704  0.4189
  812MOL0     C11982   0.169   1.433  10.392  0.2907  0.5322  0.4056
  812MOL0     C11983   0.075   1.507  10.414  0.3698  1.0564 -0.5188
  812MOL0     C11984   0.819   1.198  10.522 -0.9665  0.5059  0.8921
  812MOL0     C11985   0.959   1.198  10.560 -0.4350  0.1141 -0.2999
  812MOL0     C11986   1.028   1.330  10.559 -0.0643  0.5537  0.6326
  812MOL0     H11987   1.338   0.734  10.461  1.6419 -0.6696 -0.4077
  812MOL0     H11988   1.559   0.686  10.435  1.4145 -0.0388  1.2238
  812MOL0     H11989   1.849   0.633  10.483 -0.2730 -0.9239  0.7446
  812MOL0     H11990   1.714   0.619  10.593 -0.8990  1.0919 -0.5229
  812MOL0     H11991   1.874   0.738  10.763 -1.6593 -1.9666  0.5497
  812MOL0     H11992   1.909   0.568  10.739  0.2804 -2.1401 -2.9827
  812MOL0     H11993   2.068   0.635  10.553  2.0042  0.9883 -0.3286
  812MOL0     H11994   2.045   0.800  10.600 -2.3911  0.3802  2.3283
  812MOL0     H11995   2.138   0.772  10.820 -0.0213  0.5284 -0.3730
  812MOL0     H11996   2.137   0.597  10.798 -2.1414  1.2092 -1.7495
  812MOL0     H11997   2.316   0.777  10.633  1.3536  3.9568  5.0363
  812MOL0     H11998   2.319   0.594  10.645 -0.2442 -0.7945  1.2648
  812MOL0     H11999   2.402   0.786  10.840  5.2912  0.6135 -0.8961
  812MOL0     H12000   2.360   0.633  10.896 -1.5344 -0.1947 -0.4054
  812MOL0     H12001   2.521   0.530  10.742  1.9730 -0.6419 -0.9317
  812MOL0     H12002   2.595   0.663  10.843 -0.3340 -0.3305 -0.0372
  812MOL0     H12003   2.511   0.693  10.549  1.2797  0.2483 -0.7288
  812MOL0     H12004   2.557   0.819  10.627 -0.2623 -0.0960 -1.7652
  812MOL0     H12005   2.847   0.707  10.761 -2.3941  2.0833  0.7548
  812MOL0     H12006   3.091   0.542  10.676  1.9183 -0.7305 -0.8765
  812MOL0     H12007   3.110   0.721  10.641  1.2685  0.2243 -1.9424
  812MOL0     H12008   3.103   0.494  10.427 -3.3904  3.6916  0.8243
  812MOL0     H12009   3.174   0.654  10.417 -2.1640  1.0828  1.4990
  812MOL0     H12010   3.356   0.614  10.583  0.1716 -0.1629  0.6041
  812MOL0     H12011   3.302   0.446  10.604  0.8166 -0.9827 -0.2958
  812MOL0     H12012   3.499   0.463  10.465 -0.8103 -0.6884  1.9523
  812MOL0     H12013   3.357   0.400  10.380  0.2673 -1.5379  1.3364
  812MOL0     H12014   3.365   0.609  10.095 -0.5283 -1.5611 -0.1094
  812MOL0     H12015   3.392   0.579   9.861  0.3696  1.3978  1.2178
  812MOL0     H12016   3.547   0.515   9.802  3.6243  3.7937 -2.4661
  812MOL0     H12017   3.524   0.687   9.800 -2.2006 -0.9281 -2.2537
  812MOL0     H12018   4.035   0.693   9.823 -1.4116 -0.7228  0.0246
  812MOL0     H12019   4.233   0.670   9.668 -2.6153 -1.4966 -0.9600
  812MOL0     H12020   4.473   0.348   9.706  0.1631 -2.5360  0.4270
  812MOL0     H12021   4.388   0.283   9.560 -1.1241  0.9441  0.4409
  812MOL0     H12022   4.524   0.429   9.417  0.3347  1.5110 -0.3692
  812MOL0     H12023   4.602   0.499   9.550  1.0205 -0.6568 -1.5520
  812MOL0     H12024   4.634   0.210   9.476  0.3854 -0.2612  0.6320
  812MOL0     H12025   4.662   0.254   9.627  0.4561 -4.2543 -1.3256
  812MOL0     H12026   4.841   0.413   9.525  0.2333 -1.9701  1.7542
  812MOL0     H12027   4.788   0.363   9.359  3.7188 -0.2774 -0.9060
  812MOL0     H12028   4.968   0.262   9.377 -0.7410  4.4464  0.6594
  812MOL0     H12029   4.953   0.231   9.556  0.3910  2.8065 -0.0498
  812MOL0     H12030   4.782   0.098   9.350 -0.1819  1.8184  0.4597
  812MOL0     H12031   4.804   0.038   9.516  0.4982 -1.0762 -0.4881
  812MOL0     H12032   5.046   0.060   9.356 -1.2065  1.1725  0.1464
  812MOL0     H12033   4.934  -0.058   9.290  0.5509  0.5598 -0.9838
  812MOL0     H12034   4.927  -0.193   9.475  1.2935 -0.5542 -2.4353
  812MOL0     H12035   4.967  -0.062   9.587 -0.5567  1.6417 -0.2547
  812MOL0     H12036   4.213   0.263   9.670  1.8299  0.3856 -0.4538
  812MOL0     H12037   4.026   0.268   9.842 -1.7665  1.6934 -0.6605
  812MOL0     H12038   3.839   0.542  10.182 -0.8473  1.3567  2.6747
  812MOL0     H12039   3.672   0.554  10.368 -0.2735 -0.7892  0.5766
  812MOL0     H12040   1.680   0.989  10.707  0.2160 -1.8765  0.8895
  812MOL0     H12041   1.439   1.050  10.751 -1.7560 -3.6255  1.9692
  812MOL0     H12042   0.994   0.861  10.618 -0.4323  0.4380 -0.0659
  812MOL0     H12043   0.751   0.872  10.545 -1.0167  1.2740 -1.8537
  812MOL0     H12044   0.540   1.230  10.610 -2.5066 -0.4144  0.3609
  812MOL0     H12045   0.544   1.257  10.434  1.9765 -0.8583 -0.5573
  812MOL0     H12046   0.354   1.082  10.594  0.1148  1.4613  1.3305
  812MOL0     H12047   0.356   1.080  10.418 -0.6674  0.6896 -0.5531
  812MOL0     H12048   0.190   1.236  10.560 -0.3745  1.1137  0.7244
  812MOL0     H12049   0.331   1.323  10.594 -0.6027 -0.8642  0.6304
  812MOL0     H12050   0.253   1.262  10.295  0.0080 -1.3561  1.2110
  812MOL0     H12051   0.367   1.372  10.353  0.6259 -2.7463  1.0375
  812MOL0     H12052   0.010   1.583  10.453 -0.0874  0.5816 -0.3454
  812MOL0     H12053   0.767   1.287  10.486 -1.1022  0.0649 -0.0292
  812MOL0     H12054   0.959   1.412  10.538  0.5489  0.5719 -1.4962
  812MOL0     H12055   1.070   1.354  10.658  2.6200 -1.0963  0.0215
  812MOL0     H12056   1.111   1.325  10.487  0.0303  2.9161  0.5126
  813MOL0     O12057  10.800   0.258   2.448 -0.0524  0.2126  0.3644
  813MOL0     C12058  10.771   0.208   2.337  0.0506  0.8639 -0.2039
  813MOL0     O12059  10.864   0.151   2.249  0.1339 -0.3279  0.7116
  813MOL0     C12060  10.998   0.150   2.281 -0.3476  0.1430  0.1138
  813MOL0     C12061  11.038   0.088   2.397  0.2683  0.6689  0.2274
  813MOL0     C12062  11.168   0.086   2.430 -0.0561  0.0122  0.1650
  813MOL0     C12063  11.264   0.131   2.343  1.1153 -0.4997 -0.1368
  813MOL0     O12064  11.397   0.139   2.379  0.8082 -0.1548 -0.4022
  813MOL0     C12065  11.503   0.171   2.295  0.1508 -0.1535 -0.1743
  813MOL0     C12066  11.636   0.163   2.366  0.4648  0.0715 -0.1944
  813MOL0     C12067  11.745   0.154   2.261  0.6308  0.1525  0.0238
  813MOL0     C12068  11.878   0.139   2.324 -0.0120  0.3316  0.3943
  813MOL0     C12069  11.980   0.113   2.219  0.0502 -0.4136  0.5215
  813MOL0     C12070  12.118   0.123   2.288  0.5543 -0.8175  0.1008
  813MOL0     C12071  12.239   0.131   2.190  0.1879  0.1527 -0.1661
  813MOL0     C12072  12.253   0.277   2.126 -0.0560 -0.0063 -0.1981
  813MOL0     N12073  12.333   0.267   2.009  0.3823  0.4473 -0.6614
  813MOL0     C12074  12.458   0.304   1.992 -0.0918  1.2696  0.2249
  813MOL0     C12075  12.490   0.270   1.864  0.3713  0.6345 -0.6316
  813MOL0     C12076  12.606   0.300   1.784 -0.0087  0.1703  0.5813
  813MOL0     C12077  12.692   0.410   1.844  0.6441  0.0683 -0.6428
  813MOL0     C12078  12.635   0.557   1.821 -0.6501  0.6767  0.0743
  813MOL0     C12079  12.611   0.589   1.677 -0.4845  0.6746 -0.3800
  813MOL0     O12080  12.723   0.545   1.610  0.1617  0.4694  0.6101
  813MOL0     C12081  12.848   0.610   1.621  0.3065  0.3019  0.2129
  813MOL0     C12082  12.951   0.519   1.614 -0.0015 -0.2053 -0.1965
  813MOL0     C12083  13.082   0.564   1.630  0.0003 -0.1058 -0.2085
  813MOL0     C12084  13.189   0.469   1.601 -0.6584  0.9155  0.2920
  813MOL0     C12085  13.113   0.694   1.656  0.2064  0.2018 -0.1517
  813MOL0     C12086  13.253   0.743   1.664  0.0754  0.1623 -0.1205
  813MOL0     O12087  13.354   0.664   1.720 -0.1194 -0.3715 -0.0916
  813MOL0     C12088  13.471   0.673   1.644 -0.4286 -0.6708 -0.0919
  813MOL0     C12089  13.483   0.692   1.506  0.0128  0.2873  0.5912
  813MOL0     C12090  13.609   0.690   1.443  0.3682  0.5339 -0.4813
  813MOL0     C12091  13.727   0.667   1.516 -0.7294 -0.5734  0.5857
  813MOL0     O12092  13.840   0.655   1.448 -0.6847 -0.8167  0.0551
  813MOL0     C12093  13.969   0.661   1.518  0.3032  0.5119  0.5472
  813MOL0     C12094  14.089   0.669   1.419 -0.3117  0.0272  0.4105
  813MOL0     C12095  14.089   0.805   1.345  0.4140 -0.1437  0.2006
  813MOL0     C12096  14.189   0.825   1.237  0.2166  0.2718  0.6296
  813MOL0     C12097  14.167   0.958   1.160 -0.3331 -0.8081 -1.0068
  813MOL0     C12098  14.295   1.006   1.085  0.5237 -0.2470  0.4832
  813MOL0     C12099  14.278   1.129   0.992  0.7895 -0.3929 -1.1793
  813MOL0     C12100  14.407   1.178   0.926  0.5328  0.7991 -0.5986
  813MOL0    Cl12101  14.512   1.262   1.046  0.0544 -0.4239 -0.3755
  813MOL0     C12102  13.718   0.651   1.655 -0.4128 -1.0991 -0.0690
  813MOL0     C12103  13.595   0.646   1.718  0.5318 -0.0258 -0.8980
  813MOL0     O12104  13.279   0.861   1.630  0.4962  0.4582  0.0840
  813MOL0     C12105  13.006   0.789   1.649 -0.7963  0.2634  0.1234
  813MOL0     C12106  12.875   0.752   1.642  0.1522  1.4388  1.0236
  813MOL0     N12107  12.374   0.199   1.823  0.4897 -1.0046 -0.7617
  813MOL0     N12108  12.275   0.214   1.899  0.5244  0.1546 -1.0028
  813MOL0     C12109  11.216   0.201   2.234 -0.3302 -0.2127 -0.2574
  813MOL0     C12110  11.091   0.211   2.195  0.4938 -0.1516 -0.5762
  813MOL0     C12111  10.630   0.207   2.284 -0.2137  0.2655 -0.1524
  813MOL0     C12112  10.612   0.235   2.147  0.8462  0.3059  1.1712
  813MOL0     C12113  10.480   0.243   2.094  0.0412  0.4636  0.0766
  813MOL0     C12114  10.372   0.220   2.168  0.5797  0.3257  0.0672
  813MOL0     O12115  10.248   0.257   2.118  0.2430  0.2085 -0.1452
  813MOL0     C12116  10.202   0.387   2.147 -0.0268 -0.2211 -0.2145
  813MOL0     C12117  10.055   0.394   2.112 -0.5054 -0.1592  0.7878
  813MOL0     C12118   9.968   0.303   2.208 -0.0702  0.0630  1.1208
  813MOL0     C12119   9.820   0.330   2.200  1.0899 -0.7808 -0.0552
  813MOL0     C12120   9.734   0.235   2.274 -0.1401 -0.6731 -0.9139
  813MOL0     C12121   9.663   0.150   2.327  1.1505 -0.9175  0.6808
  813MOL0     C12122  10.390   0.191   2.306  1.2717 -0.8605  0.5383
  813MOL0     C12123  10.516   0.177   2.367  0.4127 -0.1144 -0.6606
  813MOL0     C12124  10.531   0.144   2.520 -0.7709 -1.0334  0.2180
  813MOL0     H12125  10.962   0.058   2.469  1.0877  0.4987  1.0351
  813MOL0     H12126  11.200   0.050   2.527  2.0855 -1.4623 -0.9945
  813MOL0     H12127  11.485   0.275   2.265  0.2842 -0.7592 -2.4624
  813MOL0     H12128  11.513   0.100   2.213  0.4201  1.5675 -1.6689
  813MOL0     H12129  11.648   0.251   2.429 -1.6368  0.2543  0.0160
  813MOL0     H12130  11.634   0.074   2.430 -0.2846 -1.1840 -1.8742
  813MOL0     H12131  11.721   0.066   2.201  2.0458  0.8055 -1.6114
  813MOL0     H12132  11.739   0.245   2.199 -1.2158  1.5234  2.0666
  813MOL0     H12133  11.896   0.236   2.372 -0.7044  1.2018 -1.0201
  813MOL0     H12134  11.879   0.062   2.401 -2.0107  0.5416  0.6859
  813MOL0     H12135  11.980   0.188   2.140  0.8997  0.5045  1.3595
  813MOL0     H12136  11.957   0.016   2.174  2.1115 -1.4342  1.5182
  813MOL0     H12137  12.109   0.204   2.361  0.1268  0.5443 -1.4148
  813MOL0     H12138  12.140   0.029   2.341  0.8408 -0.3458  0.8316
  813MOL0     H12139  12.215   0.060   2.111  1.3313  0.4406 -0.8067
  813MOL0     H12140  12.331   0.099   2.240 -0.3008  0.1785  0.7696
  813MOL0     H12141  12.160   0.324   2.093  0.1471 -0.0977 -0.9024
  813MOL0     H12142  12.303   0.356   2.184 -0.5546  2.1435 -2.5158
  813MOL0     H12143  12.523   0.354   2.063 -1.6066 -0.8736  3.3520
  813MOL0     H12144  12.581   0.318   1.679  1.3511 -1.1066 -0.0137
  813MOL0     H12145  12.656   0.202   1.776 -0.4393  0.1064 -2.5573
  813MOL0     H12146  12.698   0.392   1.952 -2.0038 -0.5252 -0.5183
  813MOL0     H12147  12.796   0.402   1.810  1.8291 -1.2686  2.8734
  813MOL0     H12148  12.542   0.570   1.877 -0.7388  1.1030 -0.1708
  813MOL0     H12149  12.709   0.625   1.863  1.4319 -0.4363 -1.5681
  813MOL0     H12150  12.525   0.536   1.635  0.1117  0.9026 -1.9974
  813MOL0     H12151  12.591   0.695   1.657 -0.4271  0.7144 -0.2240
  813MOL0     H12152  12.920   0.415   1.605 -2.0267  0.3349 -0.0594
  813MOL0     H12153  13.164   0.391   1.528  2.6486  0.4695 -0.5149
  813MOL0     H12154  13.218   0.412   1.690 -2.6000 -2.2045 -0.8761
  813MOL0     H12155  13.264   0.524   1.544 -1.3800  1.9077  0.2801
  813MOL0     H12156  13.395   0.697   1.444  1.3251  1.3885 -1.2870
  813MOL0     H12157  13.608   0.708   1.336 -1.8115  0.2155 -0.5730
  813MOL0     H12158  13.956   0.743   1.589 -0.5366  2.2237 -1.4334
  813MOL0     H12159  13.975   0.562   1.563  0.0428 -0.5454 -1.6251
  813MOL0     H12160  14.187   0.662   1.466  0.2308  1.3649 -0.4408
  813MOL0     H12161  14.078   0.593   1.341 -1.0550  0.8206 -0.2899
  813MOL0     H12162  14.107   0.888   1.414  0.6913  0.1346 -0.2002
  813MOL0     H12163  13.988   0.826   1.309 -0.5098 -0.2474  2.5490
  813MOL0     H12164  14.197   0.747   1.161  2.6651  2.3047 -1.4044
  813MOL0     H12165  14.287   0.843   1.282  0.5293 -2.1305  1.0565
  813MOL0     H12166  14.077   0.951   1.098 -3.2465 -0.1327  2.7908
  813MOL0     H12167  14.133   1.038   1.225  1.5647 -0.4886 -0.3367
  813MOL0     H12168  14.354   0.933   1.027 -0.0143 -0.0665 -0.3135
  813MOL0     H12169  14.365   1.041   1.161  1.6258 -0.1600 -0.5277
  813MOL0     H12170  14.224   1.214   1.035  0.4955  0.0585 -2.4084
  813MOL0     H12171  14.211   1.095   0.913 -2.1583 -1.3717  1.5453
  813MOL0     H12172  14.375   1.244   0.845  0.5858 -2.0028 -3.1317
  813MOL0     H12173  14.468   1.101   0.877  1.2193  1.2358 -0.4495
  813MOL0     H12174  13.802   0.639   1.723 -0.4806 -1.4322 -0.0408
  813MOL0     H12175  13.594   0.624   1.824  0.5343  0.1570 -0.8606
  813MOL0     H12176  13.016   0.897   1.651 -1.6717  0.3912 -1.0514
  813MOL0     H12177  12.791   0.818   1.660  0.4062  1.4030  2.4583
  813MOL0     H12178  11.285   0.241   2.160  0.5250 -0.8040  0.2080
  813MOL0     H12179  11.052   0.266   2.110  2.0080  2.3648  0.2602
  813MOL0     H12180  10.689   0.254   2.072 -0.7260  2.1440 -0.0880
  813MOL0     H12181  10.473   0.278   1.991 -1.5827 -3.4651 -1.3691
  813MOL0     H12182  10.223   0.424   2.248  0.3967  0.2098 -0.4528
  813MOL0     H12183  10.254   0.461   2.085 -0.3886  0.4062  0.2132
  813MOL0     H12184  10.046   0.359   2.009  0.3019 -0.4034  0.7986
  813MOL0     H12185  10.030   0.500   2.121  2.4295  0.7767 -0.8429
  813MOL0     H12186   9.994   0.199   2.187 -0.1010  0.6086 -2.1448
  813MOL0     H12187  10.002   0.317   2.311 -0.2660 -3.1292  1.7023
  813MOL0     H12188   9.786   0.329   2.096  2.3065 -1.1783 -0.4747
  813MOL0     H12189   9.802   0.433   2.231 -0.0545 -1.0786  0.3011
  813MOL0     H12190   9.605   0.086   2.390 -1.4831 -1.2222 -1.8652
  813MOL0     H12191  10.294   0.181   2.356 -1.6021 -3.5814 -4.7228
  813MOL0     H12192  10.613   0.075   2.540  2.3438  1.9727 -1.3258
  813MOL0     H12193  10.540   0.236   2.577 -0.3614 -1.0502  0.1799
  813MOL0     H12194  10.436   0.103   2.557 -1.6215  0.2058 -0.4881
  814MOL0     O12195   4.878   5.093   6.793 -0.4825 -0.5263 -0.1172
  814MOL0     C12196   4.820   5.070   6.688  0.1820 -0.6152 -0.1769
  814MOL0     O12197   4.872   5.004   6.583  0.2023 -0.2000  0.0132
  814MOL0     C12198   4.999   4.950   6.577  0.8747 -0.6630  0.0822
  814MOL0     C12199   5.081   4.919   6.688 -0.4142  0.1308  0.0216
  814MOL0     C12200   5.209   4.871   6.667 -0.2830  0.7415 -0.1884
  814MOL0     C12201   5.270   4.858   6.537  0.0728 -0.4872 -0.2154
  814MOL0     O12202   5.383   4.777   6.507  0.7037 -0.1420 -0.8484
  814MOL0     C12203   5.450   4.711   6.614  0.0099 -0.2649  0.0177
  814MOL0     C12204   5.563   4.618   6.567 -0.2237  0.0915 -0.2804
  814MOL0     C12205   5.684   4.701   6.522 -0.3667  0.6963  0.2943
  814MOL0     C12206   5.799   4.603   6.479 -0.7917 -0.4091  0.0782
  814MOL0     C12207   5.914   4.662   6.394 -0.7308 -0.0601 -0.0231
  814MOL0     C12208   6.001   4.548   6.360  0.0690 -0.5817  0.2875
  814MOL0     C12209   6.115   4.588   6.269 -0.0030 -0.6057 -0.1085
  814MOL0     C12210   6.208   4.474   6.224 -0.1870 -0.1848  0.5943
  814MOL0     N12211   6.294   4.510   6.104  0.2176  0.4800 -0.1356
  814MOL0     C12212   6.328   4.638   6.058  0.6942  0.0225  0.8026
  814MOL0     C12213   6.440   4.614   5.982 -0.6115  0.3052 -0.8216
  814MOL0     C12214   6.543   4.712   5.923  0.0636  0.1179 -0.1167
  814MOL0     C12215   6.592   4.656   5.783  0.3776  0.1053 -0.5501
  814MOL0     C12216   6.693   4.754   5.725  0.4539 -0.2400  0.4720
  814MOL0     C12217   6.629   4.879   5.657 -0.6416  0.2961  0.4932
  814MOL0     O12218   6.748   4.950   5.612 -0.0780 -0.2137 -0.3924
  814MOL0     C12219   6.813   4.919   5.498 -0.0599 -0.0641  0.2131
  814MOL0     C12220   6.789   4.804   5.425  0.0612  0.2345 -0.1253
  814MOL0     C12221   6.875   4.755   5.324 -0.7935 -0.0016 -0.1828
  814MOL0     C12222   6.851   4.615   5.262 -0.5277 -0.0356  0.3486
  814MOL0     C12223   6.974   4.845   5.280 -0.4294 -0.2302  0.4354
  814MOL0     C12224   7.078   4.816   5.181 -0.0820 -0.4326  1.0035
  814MOL0     O12225   7.209   4.853   5.205 -0.0459 -0.1827 -0.3467
  814MOL0     C12226   7.304   4.832   5.104  0.2714  0.2507 -0.1944
  814MOL0     C12227   7.430   4.779   5.135  0.1380  0.1880  0.5500
  814MOL0     C12228   7.537   4.782   5.043  0.0528  1.1984  0.5044
  814MOL0     C12229   7.519   4.829   4.912  0.0143  1.0540  0.3491
  814MOL0     O12230   7.629   4.826   4.834  0.5851 -0.4833  0.9666
  814MOL0     C12231   7.623   4.899   4.709  0.5731  0.0896 -0.3929
  814MOL0     C12232   7.771   4.914   4.662  0.2253  0.4012 -0.2055
  814MOL0     C12233   7.826   4.786   4.593 -0.3127 -0.0291  0.2329
  814MOL0     C12234   7.936   4.735   4.673 -0.3618 -0.2983 -0.1702
  814MOL0     C12235   8.004   4.625   4.594 -0.5882 -0.2551 -0.0387
  814MOL0     C12236   8.152   4.623   4.619  0.0225 -0.2691 -0.5177
  814MOL0     C12237   8.203   4.564   4.754 -0.5425  0.7128  0.4687
  814MOL0     C12238   8.358   4.538   4.746  0.6339 -0.4837 -0.1229
  814MOL0    Cl12239   8.432   4.693   4.723  0.3248  0.3533 -0.2967
  814MOL0     C12240   7.395   4.865   4.878 -0.1707 -0.1902  0.7291
  814MOL0     C12241   7.291   4.880   4.977 -0.1797 -0.4355  0.0963
  814MOL0     O12242   7.040   4.766   5.073 -0.3009  0.3997 -0.3882
  814MOL0     C12243   6.993   4.968   5.349 -0.2061  0.3042  0.8504
  814MOL0     C12244   6.913   5.001   5.458 -0.2105  0.3780  0.1740
  814MOL0     N12245   6.462   4.476   5.972  0.6498 -0.2759 -0.8140
  814MOL0     N12246   6.367   4.415   6.033 -0.0619 -0.0237  0.6159
  814MOL0     C12247   5.193   4.904   6.427  0.3014  0.0562 -0.1693
  814MOL0     C12248   5.064   4.950   6.449 -0.1549  0.0372  0.9845
  814MOL0     C12249   4.674   5.102   6.694 -0.5240 -0.1426 -0.2031
  814MOL0     C12250   4.601   5.075   6.806 -0.3930 -0.5031 -1.0796
  814MOL0     C12251   4.463   5.093   6.809  0.6064 -0.1418 -0.3476
  814MOL0     C12252   4.393   5.143   6.702  0.9562 -0.4576 -0.3371
  814MOL0     O12253   4.254   5.160   6.716  0.8036 -0.1924 -0.1143
  814MOL0     C12254   4.181   5.240   6.622 -0.6669  0.3100 -0.0143
  814MOL0     C12255   4.044   5.274   6.669 -1.1696 -0.3488  0.7135
  814MOL0     C12256   4.027   5.323   6.821  0.1574  0.0273 -0.5959
  814MOL0     C12257   3.907   5.419   6.829  0.0110  0.3968  1.0054
  814MOL0     C12258   3.910   5.507   6.945 -0.0717  0.9853  0.0886
  814MOL0     C12259   3.929   5.561   7.051 -0.3046 -0.8804  0.6082
  814MOL0     C12260   4.466   5.164   6.584  0.2108 -0.0892  1.1336
  814MOL0     C12261   4.608   5.151   6.580 -0.3348  0.2449  0.4666
  814MOL0     C12262   4.680   5.188   6.448 -0.0483  0.1373  0.0027
  814MOL0     H12263   5.031   4.898   6.783 -1.9333  0.0676 -0.7573
  814MOL0     H12264   5.268   4.824   6.745  1.8350  0.5615 -1.7883
  814MOL0     H12265   5.385   4.641   6.667  1.5274 -0.8204  1.2369
  814MOL0     H12266   5.486   4.771   6.698 -0.2700 -1.2552  0.8690
  814MOL0     H12267   5.595   4.554   6.649 -2.7858 -2.1278 -0.8901
  814MOL0     H12268   5.519   4.556   6.488 -1.2054  0.1905  0.1687
  814MOL0     H12269   5.666   4.775   6.443  0.7566  1.7492  0.9934
  814MOL0     H12270   5.707   4.755   6.614  0.8561 -2.7284  2.1912
  814MOL0     H12271   5.839   4.558   6.570  1.5049  0.7717 -0.2809
  814MOL0     H12272   5.751   4.529   6.414 -2.3558 -0.1325  0.8632
  814MOL0     H12273   5.979   4.732   6.446 -0.1088 -0.6798  0.0577
  814MOL0     H12274   5.873   4.713   6.307 -1.1672  0.0132  0.2251
  814MOL0     H12275   6.049   4.493   6.441  0.0990  0.6584  1.1292
  814MOL0     H12276   5.941   4.471   6.309  0.9741 -2.9171  2.5347
  814MOL0     H12277   6.184   4.650   6.327  2.1681 -2.1214 -0.9118
  814MOL0     H12278   6.078   4.651   6.188  0.0674 -2.3040 -1.5376
  814MOL0     H12279   6.280   4.453   6.304 -0.8739  0.7178  1.4753
  814MOL0     H12280   6.150   4.384   6.203 -1.2122  0.3668  1.0056
  814MOL0     H12281   6.285   4.735   6.084  1.1056  0.3017  0.4620
  814MOL0     H12282   6.620   4.742   5.995 -0.1555 -1.6868  0.8997
  814MOL0     H12283   6.491   4.808   5.910  0.5984  0.8663  2.6398
  814MOL0     H12284   6.651   4.568   5.809  1.6355  1.0931  0.0477
  814MOL0     H12285   6.503   4.637   5.722 -0.9732  2.6567  0.4912
  814MOL0     H12286   6.751   4.797   5.807 -1.2059  1.8494  0.6392
  814MOL0     H12287   6.759   4.695   5.660 -0.8363  0.1471 -1.2654
  814MOL0     H12288   6.551   4.851   5.586 -0.4861  0.0068  0.4308
  814MOL0     H12289   6.585   4.948   5.729  0.4312  2.7270 -1.0402
  814MOL0     H12290   6.701   4.745   5.450 -0.1413  0.3900 -0.4684
  814MOL0     H12291   6.922   4.540   5.300  1.1200  1.4367  0.3217
  814MOL0     H12292   6.853   4.601   5.154  3.9590 -0.1590  0.2243
  814MOL0     H12293   6.757   4.573   5.298 -1.0462 -1.5266 -2.4785
  814MOL0     H12294   7.446   4.749   5.238  2.0392 -0.0922  0.2065
  814MOL0     H12295   7.633   4.748   5.081 -0.7701 -0.5094  1.1864
  814MOL0     H12296   7.564   4.847   4.633 -0.7908 -1.7435  1.8078
  814MOL0     H12297   7.579   4.998   4.728  1.3702  1.1773 -3.5162
  814MOL0     H12298   7.778   4.991   4.584  0.2321 -0.4997 -1.1031
  814MOL0     H12299   7.825   4.949   4.751  0.4948  1.1713 -0.6547
  814MOL0     H12300   7.871   4.818   4.499  3.4562 -0.1557  1.8460
  814MOL0     H12301   7.744   4.715   4.582 -0.2151 -0.0695 -0.2473
  814MOL0     H12302   7.883   4.698   4.762 -0.3852  2.0236  0.8679
  814MOL0     H12303   8.011   4.811   4.699  3.1424 -3.0576 -1.4054
  814MOL0     H12304   7.966   4.525   4.616 -0.2842 -1.0568 -2.8208
  814MOL0     H12305   7.990   4.644   4.487 -1.4910  1.7053  0.3706
  814MOL0     H12306   8.190   4.725   4.607  0.9510 -0.4077  0.8990
  814MOL0     H12307   8.199   4.556   4.547  0.6558  1.3360 -1.6476
  814MOL0     H12308   8.152   4.469   4.776 -2.4778  1.6066  0.0950
  814MOL0     H12309   8.179   4.634   4.835  2.2971  1.0245  1.1473
  814MOL0     H12310   8.394   4.470   4.669 -1.1185 -1.8863  0.2422
  814MOL0     H12311   8.392   4.499   4.843  0.0941 -1.8037 -0.4474
  814MOL0     H12312   7.380   4.896   4.775 -1.0010  0.7945  1.1177
  814MOL0     H12313   7.195   4.922   4.947 -0.3458  0.3588  1.6142
  814MOL0     H12314   7.058   5.047   5.312 -1.3132  0.2203 -1.4521
  814MOL0     H12315   6.931   5.100   5.499 -1.6469  2.4246 -3.6364
  814MOL0     H12316   5.229   4.891   6.326 -3.0063 -0.6840 -1.3742
  814MOL0     H12317   5.021   4.977   6.353  1.6069 -1.2631 -0.2338
  814MOL0     H12318   4.642   5.047   6.902 -0.9975  0.9949 -0.3628
  814MOL0     H12319   4.408   5.081   6.902 -0.4139 -0.0540 -0.9263
  814MOL0     H12320   4.248   5.326   6.612  3.0064 -2.1916  0.9800
  814MOL0     H12321   4.174   5.183   6.528 -1.8815  1.4833 -0.6813
  814MOL0     H12322   3.983   5.186   6.647  0.9457 -1.4396 -1.1132
  814MOL0     H12323   4.002   5.354   6.607 -2.4957  0.0015  1.9892
  814MOL0     H12324   4.006   5.240   6.889  1.3402  2.0462  2.4597
  814MOL0     H12325   4.117   5.370   6.862  3.0910 -3.3195 -2.5743
  814MOL0     H12326   3.814   5.362   6.838 -0.1539  0.5750  0.4632
  814MOL0     H12327   3.912   5.484   6.742  0.8422 -1.3881 -0.3615
  814MOL0     H12328   3.964   5.615   7.137 -1.5932  2.1805 -0.6565
  814MOL0     H12329   4.404   5.205   6.505  3.4370 -0.7875 -2.0197
  814MOL0     H12330   4.789   5.188   6.452 -0.0466 -0.2040 -0.0710
  814MOL0     H12331   4.660   5.108   6.377  0.6611 -1.7263  1.8047
  814MOL0     H12332   4.661   5.290   6.413 -0.6973  0.3655  0.9798
  815MOL0     O12333   3.400   1.098  10.768 -0.2371  0.2488  0.1406
  815MOL0     C12334   3.333   1.003  10.719 -0.5892 -0.7646 -0.2943
  815MOL0     O12335   3.386   0.885  10.661 -0.1258  0.0151 -0.2853
  815MOL0     C12336   3.524   0.851  10.677 -0.8024  0.7944 -0.5463
  815MOL0     C12337   3.586   0.860  10.809 -0.6194 -0.0035  0.0264
  815MOL0     C12338   3.711   0.805  10.817 -0.8279 -0.5388 -1.0734
  815MOL0     C12339   3.784   0.762  10.705  0.1101 -0.1300  0.4371
  815MOL0     O12340   3.908   0.712  10.721  0.0161  0.3660 -0.2478
  815MOL0     C12341   4.012   0.809  10.709  0.0112 -0.0275 -0.4729
  815MOL0     C12342   4.143   0.770  10.762 -0.3921  0.2449 -0.1563
  815MOL0     C12343   4.255   0.880  10.764  0.0941  0.6682 -0.8818
  815MOL0     C12344   4.286   0.951  10.639 -0.5223 -0.0143 -0.3369
  815MOL0     C12345   4.413   1.039  10.645 -0.7125 -0.4981 -0.0153
  815MOL0     C12346   4.551   0.970  10.617 -0.1106 -0.1593 -0.1748
  815MOL0     C12347   4.665   1.057  10.613 -0.4711  0.5821 -0.9391
  815MOL0     C12348   4.676   1.147  10.486  0.5464 -0.0938  0.5264
  815MOL0     N12349   4.795   1.229  10.486 -0.6425 -0.0681  0.1318
  815MOL0     C12350   4.804   1.361  10.512 -0.2458 -0.4669 -0.0410
  815MOL0     C12351   4.935   1.404  10.488  0.2219  1.0722  0.8849
  815MOL0     C12352   5.001   1.538  10.507  0.0867 -0.1467  0.0114
  815MOL0     C12353   5.030   1.594  10.362  0.0367 -0.0869 -0.3841
  815MOL0     C12354   5.093   1.737  10.372 -0.3781 -0.5258 -0.6358
  815MOL0     C12355   4.996   1.847  10.412  0.5370 -0.1867 -0.0214
  815MOL0     O12356   5.074   1.952  10.485 -0.0161  0.7749 -0.1141
  815MOL0     C12357   5.003   2.041  10.554 -0.1769  0.1951  0.3967
  815MOL0     C12358   4.864   2.044  10.564  0.0290  0.2468 -0.1110
  815MOL0     C12359   4.800   2.157  10.618 -0.3581  0.4673  0.6470
  815MOL0     C12360   4.652   2.151  10.637  0.4323 -0.2037 -0.8524
  815MOL0     C12361   4.872   2.271  10.663 -0.2586 -0.3619  0.5027
  815MOL0     C12362   4.807   2.392  10.702  0.8158 -0.4747 -0.5641
  815MOL0     O12363   4.711   2.444  10.624  1.0012 -0.3334 -0.7728
  815MOL0     C12364   4.632   2.555  10.668 -0.0008  1.3646 -0.1015
  815MOL0     C12365   4.592   2.578  10.800 -0.6267 -0.2303  0.0471
  815MOL0     C12366   4.509   2.694  10.836 -0.4894 -0.5710  0.5107
  815MOL0     C12367   4.460   2.780  10.732 -1.1622 -0.5361 -0.6724
  815MOL0     O12368   4.392   2.887  10.778  0.1179 -0.2187  0.5081
  815MOL0     C12369   4.332   2.987  10.690  0.6117  0.6811  0.3724
  815MOL0     C12370   4.259   3.090  10.780 -0.0364  0.8384  0.2175
  815MOL0     C12371   4.166   3.016  10.876  0.0282 -0.1085 -0.9107
  815MOL0     C12372   4.083   3.115  10.963 -0.1564  0.4855  0.0577
  815MOL0     C12373   4.003   3.052  11.074 -0.0006  0.7023  0.2969
  815MOL0     C12374   3.978   3.135  11.200  0.3137 -0.3361 -0.0542
  815MOL0     C12375   3.940   3.282  11.156 -0.6475  0.6938  0.2097
  815MOL0     C12376   3.856   3.355  11.258 -0.2413  0.4826  0.1393
  815MOL0    Cl12377   3.829   3.524  11.200 -0.0874  0.2121  0.2946
  815MOL0     C12378   4.496   2.757  10.599  0.3478  0.3067 -1.1711
  815MOL0     C12379   4.576   2.642  10.570  0.0209 -0.1900  0.0222
  815MOL0     O12380   4.853   2.449  10.795 -0.6686 -0.1313 -0.0310
  815MOL0     C12381   5.011   2.265  10.656  0.7856  0.0935  0.3390
  815MOL0     C12382   5.079   2.155  10.595 -0.1458  0.0115 -0.3466
  815MOL0     N12383   5.003   1.287  10.449 -0.5536 -0.5975  0.0683
  815MOL0     N12384   4.923   1.189  10.447  0.0192  0.2934 -0.3352
  815MOL0     C12385   3.725   0.775  10.580 -0.5111  0.1108  0.1908
  815MOL0     C12386   3.596   0.807  10.570  0.6104 -1.4829 -0.2403
  815MOL0     C12387   3.193   1.021  10.702  0.1979  0.2597 -0.7959
  815MOL0     C12388   3.159   1.006  10.570 -0.0805 -0.5411  0.8471
  815MOL0     C12389   3.030   1.018  10.520 -0.6465 -1.0823 -0.4184
  815MOL0     C12390   2.927   1.057  10.616  0.3910 -1.1525 -0.4014
  815MOL0     O12391   2.793   1.070  10.595  0.1665  0.2922 -0.7362
  815MOL0     C12392   2.739   1.016  10.470  0.3147 -0.0767 -0.6903
  815MOL0     C12393   2.727   1.119  10.360 -0.1315  0.4577  0.2546
  815MOL0     C12394   2.610   1.215  10.378 -0.0413  0.2289 -0.8990
  815MOL0     C12395   2.640   1.303  10.507 -0.3086 -0.6840  1.4772
  815MOL0     C12396   2.759   1.379  10.489  0.5160  0.7988  0.0816
  815MOL0     C12397   2.858   1.449  10.460 -0.1908  0.6401 -0.1070
  815MOL0     C12398   2.968   1.086  10.747 -0.1620  0.3628 -0.5249
  815MOL0     C12399   3.100   1.072  10.795 -0.2736 -0.4104 -0.9395
  815MOL0     C12400   3.125   1.107  10.942  0.2984  0.6696 -0.3608
  815MOL0     H12401   3.533   0.902  10.893 -0.6198 -0.5690  0.3174
  815MOL0     H12402   3.756   0.789  10.914  0.6283  1.6373 -1.3406
  815MOL0     H12403   3.977   0.902  10.754  0.4382  0.0740 -0.3446
  815MOL0     H12404   4.027   0.833  10.603 -0.2382  1.3040 -0.2332
  815MOL0     H12405   4.141   0.726  10.862  1.8943 -0.1030 -0.2087
  815MOL0     H12406   4.186   0.689  10.703 -2.5725 -1.8404  0.9408
  815MOL0     H12407   4.242   0.955  10.842  0.5417 -0.8562  0.7365
  815MOL0     H12408   4.352   0.832  10.784 -0.4291 -0.3410 -0.6916
  815MOL0     H12409   4.298   0.884  10.554  3.5575 -1.8327  1.4049
  815MOL0     H12410   4.196   1.013  10.625 -0.7721 -0.5341 -1.1091
  815MOL0     H12411   4.422   1.095  10.738 -0.0377 -4.3571  2.4353
  815MOL0     H12412   4.400   1.105  10.558 -1.6225 -0.1248  0.4020
  815MOL0     H12413   4.561   0.895  10.696 -1.8241  1.5408  1.7843
  815MOL0     H12414   4.537   0.907  10.529  1.7868  0.9430 -1.3459
  815MOL0     H12415   4.759   1.001  10.618 -1.2205 -0.5952  2.1005
  815MOL0     H12416   4.661   1.125  10.699  2.6254  0.6041 -0.7093
  815MOL0     H12417   4.694   1.082  10.399  3.8657 -0.7532  1.5828
  815MOL0     H12418   4.590   1.214  10.474  0.3397 -0.6033 -1.2344
  815MOL0     H12419   4.729   1.425  10.556 -0.2783 -0.3668 -0.2429
  815MOL0     H12420   5.082   1.521  10.578  1.7269 -2.2938 -2.1863
  815MOL0     H12421   4.933   1.609  10.556  0.2649  0.4703 -0.6108
  815MOL0     H12422   5.112   1.526  10.337 -0.2657 -1.3064  1.6300
  815MOL0     H12423   4.950   1.589  10.288 -0.7912  2.8654  0.1871
  815MOL0     H12424   5.178   1.728  10.441  0.6366  1.8152 -1.4618
  815MOL0     H12425   5.143   1.746  10.275  1.0933 -0.5898  0.0764
  815MOL0     H12426   4.947   1.890  10.325 -0.0307  2.2367  1.4010
  815MOL0     H12427   4.917   1.816  10.482 -0.1892  0.9318 -0.3146
  815MOL0     H12428   4.801   1.962  10.533  1.3482  0.1936 -2.9501
  815MOL0     H12429   4.604   2.244  10.604  0.2522 -0.2511 -0.7254
  815MOL0     H12430   4.642   2.132  10.744 -1.0765 -0.9593 -1.0976
  815MOL0     H12431   4.605   2.066  10.586 -0.3680 -0.3216  0.0511
  815MOL0     H12432   4.621   2.505  10.875 -1.0563 -1.6356 -1.1007
  815MOL0     H12433   4.486   2.722  10.938 -0.6951  0.8172  0.1003
  815MOL0     H12434   4.414   3.041  10.643 -0.0085  2.9144  1.7167
  815MOL0     H12435   4.259   2.959  10.613  1.6710  3.4886 -1.8534
  815MOL0     H12436   4.339   3.146  10.829  1.3074 -0.4646 -0.3996
  815MOL0     H12437   4.205   3.163  10.718  0.5886  0.4780 -0.7746
  815MOL0     H12438   4.222   2.954  10.947 -2.5534 -2.3973 -0.6838
  815MOL0     H12439   4.106   2.942  10.822 -0.8268 -0.8644  0.9668
  815MOL0     H12440   4.035   3.186  10.895  0.6031 -0.0600 -1.0837
  815MOL0     H12441   4.162   3.174  11.008  0.1470 -1.0253  1.6094
  815MOL0     H12442   3.905   3.035  11.029 -0.5741  2.4236  0.8003
  815MOL0     H12443   4.049   2.959  11.107 -1.5348 -0.6285 -1.1086
  815MOL0     H12444   4.062   3.126  11.270 -0.9889 -1.1525  1.4709
  815MOL0     H12445   3.899   3.095  11.263  0.7790 -1.4584 -0.1572
  815MOL0     H12446   3.895   3.284  11.057  0.0378  2.8004 -0.1011
  815MOL0     H12447   4.034   3.334  11.136  0.8563 -1.2486  1.7670
  815MOL0     H12448   3.915   3.357  11.350 -0.1395  1.5059  0.0701
  815MOL0     H12449   3.760   3.302  11.262 -1.0831  1.9278 -0.1259
  815MOL0     H12450   4.461   2.815  10.514  0.7012  1.1091 -0.7821
  815MOL0     H12451   4.603   2.614  10.469 -0.7687 -2.3220  0.3465
  815MOL0     H12452   5.073   2.349  10.685  1.7548 -0.1887 -0.8440
  815MOL0     H12453   5.187   2.151  10.585  0.0808  2.2804  0.6540
  815MOL0     H12454   3.766   0.745  10.484  0.1402 -1.6267  0.9756
  815MOL0     H12455   3.551   0.812  10.472 -0.6510 -1.5477  0.3170
  815MOL0     H12456   3.226   0.968  10.493  1.3281  2.1857  0.5876
  815MOL0     H12457   3.002   0.994  10.417 -0.3181 -1.7685 -0.3549
  815MOL0     H12458   2.792   0.935  10.419 -0.8546  0.2814 -2.5779
  815MOL0     H12459   2.649   0.970  10.510 -0.6704  0.9310 -1.6846
  815MOL0     H12460   2.704   1.064  10.268 -2.0643  1.7255 -0.0783
  815MOL0     H12461   2.824   1.170  10.352 -0.9575  2.1332  0.6018
  815MOL0     H12462   2.592   1.282  10.292 -1.7640 -1.1911 -1.7180
  815MOL0     H12463   2.520   1.159  10.406 -0.2171 -0.4442 -2.6231
  815MOL0     H12464   2.649   1.251  10.603  2.6841 -0.4857  1.3970
  815MOL0     H12465   2.557   1.374  10.517 -0.3240 -0.3930 -0.3625
  815MOL0     H12466   2.945   1.509  10.443  0.6644  0.1168  2.0829
  815MOL0     H12467   2.896   1.110  10.825  1.5323 -1.2449  1.6754
  815MOL0     H12468   3.066   1.192  10.977 -0.6449 -0.2501  0.3778
  815MOL0     H12469   3.104   1.026  11.013  1.5145  0.9342  0.3356
  815MOL0     H12470   3.231   1.133  10.939  0.4935 -0.0895 -3.3167
  816MOL0     O12471   8.389   9.536   1.687  0.1220  0.5500  0.2989
  816MOL0     C12472   8.388   9.545   1.561 -0.2861  0.1317  0.0981
  816MOL0     O12473   8.485   9.607   1.492 -0.3372 -0.6862  0.4484
  816MOL0     C12474   8.610   9.622   1.547  0.2009 -0.1495 -0.5078
  816MOL0     C12475   8.701   9.521   1.518  0.4747 -0.3485 -0.1020
  816MOL0     C12476   8.832   9.520   1.570  0.4649 -1.0429 -0.0689
  816MOL0     C12477   8.870   9.612   1.671  0.1826  0.7340  0.4921
  816MOL0     O12478   8.998   9.607   1.721 -0.2776  0.7006  0.1218
  816MOL0     C12479   9.007   9.562   1.853 -0.2774  0.3914 -0.9478
  816MOL0     C12480   9.022   9.680   1.957 -0.0573  0.5625  0.3636
  816MOL0     C12481   9.145   9.778   1.925  0.4520 -0.4156  0.4095
  816MOL0     C12482   9.282   9.711   1.892 -0.2563 -0.3048  0.2247
  816MOL0     C12483   9.397   9.803   1.904 -0.1779 -0.9513  0.0592
  816MOL0     C12484   9.532   9.736   1.880 -0.7321  1.0687 -0.0326
  816MOL0     C12485   9.585   9.656   1.998 -0.4871 -0.5596 -1.2483
  816MOL0     C12486   9.630   9.744   2.120  0.1713  0.5352 -0.4866
  816MOL0     N12487   9.745   9.834   2.102 -1.2777  0.0327  0.2029
  816MOL0     C12488   9.880   9.812   2.132  0.2374  0.6212  0.3484
  816MOL0     C12489   9.946   9.929   2.118 -0.0721  0.3518  0.2326
  816MOL0     C12490  10.097   9.972   2.164 -0.7499  0.5014 -0.6419
  816MOL0     C12491  10.190   9.965   2.036 -0.3923  0.3207 -0.2813
  816MOL0     C12492  10.329  10.018   2.054 -0.7405  0.4712  0.4402
  816MOL0     C12493  10.420   9.995   1.934  0.2388 -0.1774  0.8426
  816MOL0     O12494  10.382  10.095   1.835  0.1819  0.7700 -0.3141
  816MOL0     C12495  10.446  10.215   1.841  0.2875  0.6942 -0.1015
  816MOL0     C12496  10.376  10.327   1.809 -0.7268  0.3539 -0.3428
  816MOL0     C12497  10.445  10.451   1.817  0.3428  0.0523 -0.0678
  816MOL0     C12498  10.361  10.562   1.757  0.9523 -0.5447 -0.1429
  816MOL0     C12499  10.579  10.470   1.854  0.1523  0.2182  0.3000
  816MOL0     C12500  10.652  10.600   1.854  0.4551 -0.0064 -0.3840
  816MOL0     O12501  10.788  10.589   1.866  0.0451 -0.6291 -0.1219
  816MOL0     C12502  10.862  10.696   1.896  0.2253 -0.6522  0.6087
  816MOL0     C12503  10.820  10.823   1.941  0.0061  0.6024  0.1540
  816MOL0     C12504  10.919  10.923   1.956 -0.1926 -0.3159  0.8269
  816MOL0     C12505  11.053  10.897   1.945 -0.2451  0.0809 -0.7376
  816MOL0     O12506  11.128  11.002   1.993  0.2494  0.4725  0.2213
  816MOL0     C12507  11.269  10.998   1.979 -0.2794 -0.1940 -0.3534
  816MOL0     C12508  11.344  11.101   2.064 -0.1499 -0.1481  0.7832
  816MOL0     C12509  11.488  11.049   2.090 -0.2686  0.1565  0.1576
  816MOL0     C12510  11.550  11.129   2.206 -0.4946  0.7080  0.2761
  816MOL0     C12511  11.705  11.110   2.226  0.3379  0.2254 -0.5385
  816MOL0     C12512  11.765  11.187   2.350 -0.2707 -0.4094  0.2499
  816MOL0     C12513  11.920  11.162   2.352 -0.8227  0.0337 -0.4877
  816MOL0     C12514  11.969  11.179   2.505 -0.0465 -1.1150 -0.2407
  816MOL0    Cl12515  12.148  11.147   2.522  0.1514  0.1061  0.1579
  816MOL0     C12516  11.096  10.771   1.900 -0.0183 -0.1673  0.4831
  816MOL0     C12517  11.000  10.671   1.872  0.2886  0.5489 -0.5408
  816MOL0     O12518  10.591  10.709   1.839  0.8528  0.2157  0.3138
  816MOL0     C12519  10.652  10.358   1.885  0.6192 -0.5317 -0.0294
  816MOL0     C12520  10.581  10.236   1.884 -0.5564 -0.0319  0.2212
  816MOL0     N12521   9.853  10.017   2.064 -0.3358 -0.5770  0.2955
  816MOL0     N12522   9.739   9.962   2.049  0.9158  0.2225 -0.0591
  816MOL0     C12523   8.785   9.721   1.687  0.5648  1.3111 -0.3329
  816MOL0     C12524   8.657   9.731   1.624 -0.6024  0.4201  0.2385
  816MOL0     C12525   8.271   9.488   1.490  0.3656  0.0301  0.1732
  816MOL0     C12526   8.283   9.477   1.350  0.0222  0.0138  0.3073
  816MOL0     C12527   8.176   9.417   1.278  0.3189  0.8546  0.2212
  816MOL0     C12528   8.058   9.375   1.334  0.2529  0.8351 -0.1392
  816MOL0     O12529   7.967   9.318   1.244  0.2218 -0.0263 -0.0828
  816MOL0     C12530   7.863   9.247   1.304 -0.2821 -0.0151 -0.2893
  816MOL0     C12531   7.778   9.155   1.214  0.0166  0.4833  0.3274
  816MOL0     C12532   7.678   9.075   1.300 -0.1542 -0.8809  0.5890
  816MOL0     C12533   7.596   8.962   1.229 -1.1935 -0.6998  0.0530
  816MOL0     C12534   7.459   9.001   1.186 -0.5013  0.5220 -0.4922
  816MOL0     C12535   7.350   9.002   1.137 -0.1800 -0.4080 -0.4628
  816MOL0     C12536   8.045   9.385   1.477  0.5792 -1.0208  0.1890
  816MOL0     C12537   8.149   9.441   1.557  0.0153 -0.0673  0.7111
  816MOL0     C12538   8.106   9.462   1.697 -0.5218  0.7736 -0.3977
  816MOL0     H12539   8.667   9.438   1.458  0.5570  0.1216 -0.8160
  816MOL0     H12540   8.897   9.444   1.527  0.0393 -0.3553 -2.0182
  816MOL0     H12541   9.100   9.504   1.865 -0.0695  0.9479  0.2747
  816MOL0     H12542   8.921   9.499   1.879  0.5864 -1.0850 -1.5325
  816MOL0     H12543   8.938   9.750   1.960  1.1231  2.1331 -1.1440
  816MOL0     H12544   9.033   9.644   2.060  3.4336 -0.0092 -0.1114
  816MOL0     H12545   9.117   9.850   1.848  0.3366  1.2828  1.9619
  816MOL0     H12546   9.148   9.836   2.017 -1.1332  2.0621 -0.9906
  816MOL0     H12547   9.285   9.629   1.965 -0.2384 -0.2253  0.3149
  816MOL0     H12548   9.272   9.658   1.797 -0.0576 -0.8268  0.4849
  816MOL0     H12549   9.386   9.862   1.995 -2.4790  0.6932 -1.1826
  816MOL0     H12550   9.375   9.881   1.831 -0.8677  0.6060  1.8674
  816MOL0     H12551   9.543   9.668   1.795  3.4343  2.3131 -0.7241
  816MOL0     H12552   9.603   9.817   1.859 -1.4510  2.1046  1.3134
  816MOL0     H12553   9.674   9.603   1.962 -0.2542  0.6586 -2.5825
  816MOL0     H12554   9.519   9.581   2.041  1.8389 -0.7554  2.4913
  816MOL0     H12555   9.548   9.797   2.170  1.2438  0.0344  1.9646
  816MOL0     H12556   9.660   9.667   2.192  0.4413 -1.6767 -2.8336
  816MOL0     H12557   9.932   9.726   2.173 -1.1709  0.0027  0.8967
  816MOL0     H12558  10.125   9.893   2.233  1.6967  2.4509  0.7682
  816MOL0     H12559  10.099  10.067   2.219 -0.9706 -0.2389  0.6751
  816MOL0     H12560  10.206   9.860   2.010 -3.3248 -1.2636  3.3417
  816MOL0     H12561  10.143  10.023   1.956 -1.5018  0.7483  0.6429
  816MOL0     H12562  10.322  10.127   2.055 -1.8673  0.4069  0.1585
  816MOL0     H12563  10.365   9.978   2.150 -1.7042  0.9613  1.0190
  816MOL0     H12564  10.524  10.003   1.967  0.9464 -3.6880 -0.1592
  816MOL0     H12565  10.410   9.903   1.876  1.2993  0.5425 -0.5308
  816MOL0     H12566  10.276  10.306   1.772  0.3221 -0.7460 -2.8238
  816MOL0     H12567  10.346  10.642   1.830  3.6665  1.6244 -1.7734
  816MOL0     H12568  10.265  10.525   1.720  0.6558  0.8574 -0.8420
  816MOL0     H12569  10.421  10.600   1.674  0.9544 -2.5434 -1.1156
  816MOL0     H12570  10.717  10.856   1.956 -0.2373  0.0651 -0.2764
  816MOL0     H12571  10.893  11.023   1.991  0.9505  0.7986 -1.3249
  816MOL0     H12572  11.318  10.901   1.994  2.0174  0.9385 -0.2279
  816MOL0     H12573  11.292  11.018   1.875  0.9531  0.7664  0.0877
  816MOL0     H12574  11.355  11.197   2.014  1.3777 -0.2747  0.8428
  816MOL0     H12575  11.287  11.118   2.156  1.1935  0.0679  1.6059
  816MOL0     H12576  11.555  11.044   2.004 -1.8052 -2.9897 -1.0295
  816MOL0     H12577  11.481  10.947   2.130 -2.9258 -0.0334 -0.5917
  816MOL0     H12578  11.513  11.090   2.301  1.9331 -4.1855 -0.4906
  816MOL0     H12579  11.529  11.235   2.184 -0.7537  0.6117  0.0443
  816MOL0     H12580  11.730  11.005   2.243  2.9364  1.2914  4.1725
  816MOL0     H12581  11.762  11.140   2.138  2.6476 -3.7624 -0.6263
  816MOL0     H12582  11.721  11.149   2.443  0.5072  0.2586  0.9186
  816MOL0     H12583  11.750  11.296   2.345  0.9518 -0.2614 -0.5030
  816MOL0     H12584  11.980  11.230   2.291 -0.7126 -1.0873 -1.6612
  816MOL0     H12585  11.938  11.061   2.316  0.0277 -0.5700  1.5165
  816MOL0     H12586  11.930  11.109   2.580  1.2838 -1.2491  0.3411
  816MOL0     H12587  11.962  11.280   2.544  1.0633 -0.5874 -1.3370
  816MOL0     H12588  11.198  10.743   1.878 -0.8674 -3.5105  0.1265
  816MOL0     H12589  11.027  10.571   1.840 -2.0904 -0.5995  0.8007
  816MOL0     H12590  10.753  10.363   1.925  0.2121  0.2395  0.9435
  816MOL0     H12591  10.643  10.154   1.917 -0.1422  0.4453  0.6618
  816MOL0     H12592   8.811   9.799   1.758 -3.2532  1.6858  0.9121
  816MOL0     H12593   8.599   9.818   1.655  0.6020  0.3017  3.0819
  816MOL0     H12594   8.374   9.508   1.299 -0.1093  1.5012  0.9109
  816MOL0     H12595   8.200   9.394   1.174 -2.6826 -3.4642  0.2279
  816MOL0     H12596   7.906   9.170   1.369 -0.9521 -1.1525 -1.1772
  816MOL0     H12597   7.801   9.314   1.366 -0.0368 -0.9026  0.9544
  816MOL0     H12598   7.840   9.084   1.158 -0.0119  0.9684 -0.3352
  816MOL0     H12599   7.724   9.216   1.141 -0.9470 -1.6001 -0.7886
  816MOL0     H12600   7.737   9.027   1.379  1.5204  1.3868  0.8154
  816MOL0     H12601   7.619   9.152   1.350  1.4227  2.7929 -2.7471
  816MOL0     H12602   7.594   8.874   1.293  3.1987  0.8759  2.8429
  816MOL0     H12603   7.650   8.931   1.139  0.8999  3.2708 -0.3149
  816MOL0     H12604   7.252   9.004   1.094  0.9154  0.9767 -3.1202
  816MOL0     H12605   7.961   9.343   1.533  0.6008  0.8955  1.7529
  816MOL0     H12606   8.164   9.542   1.743  2.9916 -1.0655 -1.2793
  816MOL0     H12607   7.999   9.483   1.708 -0.2691  2.6910 -1.1050
  816MOL0     H12608   8.116   9.370   1.756 -0.7423  1.3599  0.5848
  817MOL0     O12609   9.491  11.020   1.390 -0.5366  0.0132  0.1710
  817MOL0     C12610   9.421  11.037   1.288  1.1120  0.5490 -0.1978
  817MOL0     O12611   9.469  11.044   1.163 -0.8167  0.2961 -0.4007
  817MOL0     C12612   9.601  11.038   1.141  0.4850 -0.1240 -0.3794
  817MOL0     C12613   9.663  10.914   1.132 -0.6113 -0.2712  0.3532
  817MOL0     C12614   9.796  10.901   1.109 -0.4200  0.6290 -0.4584
  817MOL0     C12615   9.876  11.015   1.104 -0.1233 -0.5768 -0.3699
  817MOL0     O12616  10.004  11.008   1.044  0.1025  0.0269 -0.5158
  817MOL0     C12617  10.070  10.882   1.045  0.0491 -0.0908 -0.8166
  817MOL0     C12618  10.212  10.907   0.999 -0.3733 -0.2560 -0.2533
  817MOL0     C12619  10.318  10.807   1.011  0.1558 -0.0429  0.5192
  817MOL0     C12620  10.452  10.855   0.969 -0.1891  0.3270 -0.0165
  817MOL0     C12621  10.551  10.741   0.993 -0.2006 -0.4980  0.5680
  817MOL0     C12622  10.689  10.794   0.946 -0.2650  1.2607  0.3001
  817MOL0     C12623  10.799  10.700   1.006  0.1074 -0.0347 -0.8829
  817MOL0     C12624  10.860  10.766   1.138 -0.2164  0.1705  0.4261
  817MOL0     N12625  10.981  10.843   1.132  0.4292  0.0491  0.8550
  817MOL0     C12626  10.983  10.969   1.084  0.1745  0.5711 -0.0072
  817MOL0     C12627  11.120  11.001   1.099 -0.1241  0.1833  0.6736
  817MOL0     C12628  11.178  11.143   1.077  0.9528  0.1648 -0.4066
  817MOL0     C12629  11.073  11.235   1.001  0.4556 -0.0257  0.1585
  817MOL0     C12630  11.138  11.368   0.951  0.7180  0.5679 -0.2220
  817MOL0     C12631  11.168  11.475   1.060 -0.7971  0.0526  0.6100
  817MOL0     O12632  11.291  11.445   1.131  0.0330 -0.0017 -0.0019
  817MOL0     C12633  11.403  11.515   1.089 -0.1646 -0.9492 -0.2729
  817MOL0     C12634  11.412  11.656   1.065  0.2031  0.6030  1.2185
  817MOL0     C12635  11.529  11.719   1.018 -0.4458 -0.0459 -0.1930
  817MOL0     C12636  11.519  11.869   1.004  0.5888  1.0792  0.1655
  817MOL0     C12637  11.645  11.647   0.996 -0.4480  0.6073  0.8882
  817MOL0     C12638  11.762  11.697   0.920  0.3642 -0.6752  0.9320
  817MOL0     O12639  11.883  11.632   0.947 -0.9474  0.2981 -0.4972
  817MOL0     C12640  12.000  11.693   0.924 -0.5580  0.5486 -0.2974
  817MOL0     C12641  12.111  11.614   0.936 -0.0943 -0.2185 -0.0080
  817MOL0     C12642  12.238  11.663   0.907  0.7643  0.1746  1.6215
  817MOL0     C12643  12.266  11.795   0.867 -0.4171  0.2857  0.0660
  817MOL0     O12644  12.397  11.839   0.847 -0.0255 -0.1463  0.0031
  817MOL0     C12645  12.451  11.956   0.901 -0.2074  0.0201 -0.1262
  817MOL0     C12646  12.588  11.989   0.853  0.2409  0.0548 -0.0233
  817MOL0     C12647  12.627  12.142   0.863  0.3986  0.1164  0.8969
  817MOL0     C12648  12.760  12.169   0.787 -0.1464 -0.0443 -0.1246
  817MOL0     C12649  12.827  12.309   0.829  0.3846  0.2996 -0.4630
  817MOL0     C12650  12.956  12.345   0.755  0.0240  0.5436 -0.1938
  817MOL0     C12651  13.058  12.423   0.841 -0.5214 -0.0531  0.4783
  817MOL0     C12652  13.182  12.454   0.765  0.1050 -0.3616  0.4325
  817MOL0    Cl12653  13.308  12.572   0.835  0.3837 -0.1141 -0.6645
  817MOL0     C12654  12.160  11.875   0.842  0.8900 -0.1933 -0.2308
  817MOL0     C12655  12.031  11.823   0.875 -0.5271 -0.2806 -0.0395
  817MOL0     O12656  11.736  11.785   0.840 -0.4553  0.3709 -0.0282
  817MOL0     C12657  11.641  11.515   1.029 -0.8821 -0.6810 -0.1543
  817MOL0     C12658  11.522  11.450   1.059 -0.0598  0.4401 -0.1607
  817MOL0     N12659  11.191  10.891   1.159  0.3379 -0.1205  0.5489
  817MOL0     N12660  11.105  10.795   1.168 -0.0638 -0.4751  0.4073
  817MOL0     C12661   9.820  11.146   1.125 -0.8237 -0.6957 -0.1192
  817MOL0     C12662   9.680  11.155   1.144  0.4365 -0.1001 -0.2640
  817MOL0     C12663   9.276  11.050   1.306  0.7065 -0.4846 -0.4760
  817MOL0     C12664   9.199  11.083   1.200 -0.3199  0.2925 -0.1276
  817MOL0     C12665   9.062  11.091   1.211  0.7853 -0.1279 -0.3427
  817MOL0     C12666   8.991  11.077   1.325  0.7711 -0.4823 -0.8318
  817MOL0     O12667   8.855  11.098   1.326  0.8074  0.2607  0.3815
  817MOL0     C12668   8.789  11.098   1.456 -0.5022  0.6143  0.5754
  817MOL0     C12669   8.642  11.132   1.432  0.2508  0.6522 -0.0114
  817MOL0     C12670   8.556  11.028   1.363  0.8057 -0.3411  0.3796
  817MOL0     C12671   8.424  11.076   1.298 -0.2755 -0.2332 -0.0111
  817MOL0     C12672   8.312  11.073   1.394 -0.6303  0.2778  0.6927
  817MOL0     C12673   8.219  11.062   1.459 -0.3877 -0.1544  0.2326
  817MOL0     C12674   9.062  11.031   1.437  0.5714 -0.1840  0.8344
  817MOL0     C12675   9.201  11.022   1.436 -0.3304 -0.0028  0.4243
  817MOL0     C12676   9.267  10.992   1.566 -0.6606 -0.3237  0.8496
  817MOL0     H12677   9.589  10.835   1.138 -3.4451  1.9982 -2.0447
  817MOL0     H12678   9.833  10.799   1.102 -3.6288 -0.8216  1.2401
  817MOL0     H12679  10.024  10.828   0.962 -0.9339 -0.4357 -0.0635
  817MOL0     H12680  10.077  10.828   1.139  3.5584  0.1424 -0.8080
  817MOL0     H12681  10.200  10.941   0.896 -0.6838 -0.3548 -0.2495
  817MOL0     H12682  10.244  10.993   1.058 -1.8686 -1.1245  1.9675
  817MOL0     H12683  10.328  10.763   1.110  2.0208  0.3993  0.5684
  817MOL0     H12684  10.298  10.718   0.951 -1.8119  1.0278 -0.5275
  817MOL0     H12685  10.444  10.887   0.865  1.6816 -0.1214 -0.3363
  817MOL0     H12686  10.481  10.940   1.032 -2.7798  1.1762  0.1573
  817MOL0     H12687  10.519  10.654   0.936  0.5260  0.3049 -1.1263
  817MOL0     H12688  10.551  10.709   1.098 -0.7641 -0.6876  0.5122
  817MOL0     H12689  10.703  10.779   0.838  0.6698 -0.0317  0.5837
  817MOL0     H12690  10.714  10.898   0.970 -2.1246  1.6660  0.6231
  817MOL0     H12691  10.872  10.679   0.928 -1.1488  0.1794 -2.1638
  817MOL0     H12692  10.753  10.604   1.032  1.3412 -0.7717 -1.3715
  817MOL0     H12693  10.786  10.828   1.191  1.6157  0.8136  2.3775
  817MOL0     H12694  10.871  10.689   1.215 -2.2909  0.3618  0.9718
  817MOL0     H12695  10.906  11.035   1.047  0.2486  0.1289 -0.9682
  817MOL0     H12696  11.273  11.132   1.025  0.8649 -2.3559 -0.1331
  817MOL0     H12697  11.197  11.182   1.178  0.8828 -0.1188 -0.2826
  817MOL0     H12698  11.053  11.180   0.909  2.6891  0.6642 -0.8056
  817MOL0     H12699  10.977  11.251   1.050 -0.0257 -0.0676 -0.7509
  817MOL0     H12700  11.223  11.329   0.896  2.7512  0.1693  2.9212
  817MOL0     H12701  11.060  11.410   0.887  0.1495  0.6225  0.4899
  817MOL0     H12702  11.162  11.575   1.014  0.9257  1.1382  2.5899
  817MOL0     H12703  11.095  11.475   1.141 -1.3946 -0.8489  0.0862
  817MOL0     H12704  11.322  11.716   1.061 -1.4119 -1.6835 -2.9183
  817MOL0     H12705  11.617  11.918   1.013  1.2967  0.1317 -1.6898
  817MOL0     H12706  11.455  11.914   1.080  0.6362 -0.2038  0.9967
  817MOL0     H12707  11.471  11.889   0.908  1.5772  1.1863 -0.3244
  817MOL0     H12708  12.106  11.512   0.973  1.1959 -0.6637 -0.9964
  817MOL0     H12709  12.318  11.592   0.925  1.2988  0.4779  0.4908
  817MOL0     H12710  12.380  12.032   0.867  1.2696  1.3511 -0.3385
  817MOL0     H12711  12.455  11.956   1.010  0.8806  1.8610 -0.1263
  817MOL0     H12712  12.657  11.924   0.908 -1.6199 -2.3882 -0.4123
  817MOL0     H12713  12.590  11.955   0.749 -2.3014 -0.1230 -0.0756
  817MOL0     H12714  12.630  12.167   0.970 -0.1525 -1.2802  1.2592
  817MOL0     H12715  12.557  12.216   0.823  1.3412  2.0618  2.6551
  817MOL0     H12716  12.736  12.169   0.680 -1.1787 -1.6015  0.0637
  817MOL0     H12717  12.828  12.085   0.805 -0.2494 -0.0268  0.3712
  817MOL0     H12718  12.754  12.387   0.804  0.4889  0.5017 -0.1420
  817MOL0     H12719  12.849  12.305   0.936  1.9485 -0.4673 -0.7855
  817MOL0     H12720  12.926  12.400   0.665 -0.5989  1.7925  0.7481
  817MOL0     H12721  13.012  12.258   0.718 -0.1734  1.0784 -1.8409
  817MOL0     H12722  13.098  12.353   0.915 -1.6985 -3.4022 -1.7617
  817MOL0     H12723  13.007  12.511   0.880 -0.4178 -0.3845  1.3892
  817MOL0     H12724  13.149  12.502   0.673 -0.3177 -1.8725 -0.2213
  817MOL0     H12725  13.238  12.373   0.719  1.9948  2.4458 -2.6581
  817MOL0     H12726  12.165  11.978   0.808 -0.8147  0.7441  2.1269
  817MOL0     H12727  11.949  11.886   0.841  1.1057  1.1835 -1.4668
  817MOL0     H12728  11.726  11.451   1.008 -0.7583 -0.6561  0.2659
  817MOL0     H12729  11.526  11.342   1.072 -1.3736  0.6719  3.0747
  817MOL0     H12730   9.888  11.230   1.115 -2.2243  0.3987 -0.6075
  817MOL0     H12731   9.638  11.252   1.168  1.1837 -0.3300  2.2954
  817MOL0     H12732   9.237  11.088   1.099 -0.1556 -1.9758 -0.2337
  817MOL0     H12733   9.015  11.118   1.117  1.4477 -1.5860 -1.1160
  817MOL0     H12734   8.783  10.996   1.495  2.5263 -0.2638 -0.9578
  817MOL0     H12735   8.841  11.164   1.526 -0.0399  0.4129  0.4292
  817MOL0     H12736   8.631  11.225   1.376 -1.6278  0.8112  0.5584
  817MOL0     H12737   8.605  11.141   1.535  2.0452 -0.4510  0.7841
  817MOL0     H12738   8.618  10.970   1.293  1.8593  0.8781  0.2682
  817MOL0     H12739   8.524  10.953   1.436 -3.0935  0.3625 -0.3952
  817MOL0     H12740   8.407  11.012   1.211 -0.7108 -1.7133  1.1092
  817MOL0     H12741   8.439  11.180   1.270  0.4145 -0.4066 -0.2963
  817MOL0     H12742   8.127  11.049   1.511 -0.0248  1.4406  1.3185
  817MOL0     H12743   9.006  11.002   1.526  1.5084  1.4508  2.0163
  817MOL0     H12744   9.307  11.079   1.619 -0.2990  1.0414 -1.5247
  817MOL0     H12745   9.189  10.954   1.633 -0.7882 -0.0318  0.8677
  817MOL0     H12746   9.340  10.913   1.545  0.8242  1.8137 -2.9888
  818MOL0     O12747   2.099   5.168  10.140 -0.1200 -0.6529 -0.5043
  818MOL0     C12748   2.218   5.169  10.121 -1.1667 -0.7604  0.2115
  818MOL0     O12749   2.282   5.132  10.002  0.4388 -0.5052 -0.4335
  818MOL0     C12750   2.198   5.069   9.916  0.5099 -0.5427 -0.2922
  818MOL0     C12751   2.173   4.935   9.935 -0.3745  0.3062 -0.9187
  818MOL0     C12752   2.109   4.861   9.840 -0.1048 -0.2932 -0.5258
  818MOL0     C12753   2.058   4.926   9.726  0.7166  0.7707  0.3444
  818MOL0     O12754   2.009   4.854   9.624 -0.2020 -0.8177  0.0336
  818MOL0     C12755   2.038   4.709   9.605 -0.5412 -0.2802 -0.6016
  818MOL0     C12756   2.003   4.682   9.459 -0.2044  0.4908  0.1835
  818MOL0     C12757   1.997   4.533   9.416  0.1528  0.3165  0.0037
  818MOL0     C12758   1.881   4.450   9.470 -0.0516 -0.0620  0.1883
  818MOL0     C12759   1.877   4.308   9.400  0.1420  0.3299 -0.6278
  818MOL0     C12760   1.735   4.250   9.412  0.2741 -0.5565 -0.3590
  818MOL0     C12761   1.728   4.116   9.338  0.0468 -0.1616  0.4425
  818MOL0     C12762   1.585   4.067   9.326 -0.3779  0.3258 -0.0848
  818MOL0     N12763   1.562   3.926   9.268 -0.6887 -0.0085  1.0117
  818MOL0     C12764   1.642   3.842   9.199  0.5291 -0.2833 -0.8351
  818MOL0     C12765   1.565   3.761   9.122 -0.0067  0.8591 -0.5554
  818MOL0     C12766   1.630   3.656   9.030 -0.2911  0.0597  0.1961
  818MOL0     C12767   1.518   3.598   8.941  1.1002 -0.0914 -0.5220
  818MOL0     C12768   1.570   3.542   8.810  0.1954  0.7914 -0.2321
  818MOL0     C12769   1.674   3.421   8.819  0.4031 -0.2935 -0.4445
  818MOL0     O12770   1.797   3.448   8.884  0.8579 -0.0553 -0.2556
  818MOL0     C12771   1.883   3.532   8.834  0.8036 -0.2924 -0.0128
  818MOL0     C12772   1.888   3.583   8.702 -0.4596  0.0000 -0.4864
  818MOL0     C12773   1.979   3.682   8.667 -0.7349  0.5395 -0.2171
  818MOL0     C12774   1.975   3.741   8.525  0.3668 -0.1509  0.0793
  818MOL0     C12775   2.077   3.734   8.763 -0.1996  0.2110 -0.4341
  818MOL0     C12776   2.187   3.826   8.736 -1.2904 -0.3506  0.4629
  818MOL0     O12777   2.307   3.827   8.819 -0.3337  0.0222  0.1990
  818MOL0     C12778   2.425   3.884   8.770  0.4404  0.0620 -0.1351
  818MOL0     C12779   2.522   3.892   8.868  1.0475 -0.2429 -0.1200
  818MOL0     C12780   2.631   3.971   8.835 -0.3830  0.1692 -0.2776
  818MOL0     C12781   2.656   4.030   8.714 -0.0975 -0.1033  1.0083
  818MOL0     O12782   2.762   4.106   8.686 -0.3507 -0.0126 -0.3071
  818MOL0     C12783   2.751   4.252   8.704  0.8833  1.4920 -0.5656
  818MOL0     C12784   2.758   4.296   8.856  0.4314  0.3246  1.1330
  818MOL0     C12785   2.621   4.307   8.911  1.0655  0.2266 -0.0093
  818MOL0     C12786   2.538   4.430   8.877  0.3262 -0.0069 -0.0572
  818MOL0     C12787   2.391   4.400   8.907 -0.0830  0.0024  0.1564
  818MOL0     C12788   2.314   4.336   8.790  0.5081  0.1826 -0.6687
  818MOL0     C12789   2.180   4.270   8.838  0.9835 -0.7462 -0.4199
  818MOL0     C12790   2.088   4.245   8.716 -0.0679 -0.4741  0.0325
  818MOL0    Cl12791   1.975   4.387   8.705  0.1235  0.2483 -0.2235
  818MOL0     C12792   2.560   4.014   8.614  0.8013 -1.2554  0.8152
  818MOL0     C12793   2.441   3.947   8.640 -0.1867  0.8575 -0.5156
  818MOL0     O12794   2.168   3.910   8.648 -0.3854 -0.8455  0.8493
  818MOL0     C12795   2.063   3.677   8.893 -0.3139 -0.4026  0.2227
  818MOL0     C12796   1.974   3.578   8.923 -0.2595  0.4832  0.8875
  818MOL0     N12797   1.438   3.802   9.142  0.6534  0.6237 -0.2171
  818MOL0     N12798   1.433   3.888   9.240 -0.0019  0.8079 -0.5420
  818MOL0     C12799   2.053   5.066   9.726 -0.4998  0.8334  0.0615
  818MOL0     C12800   2.122   5.138   9.819 -0.3482  0.2713 -0.1750
  818MOL0     C12801   2.303   5.232  10.233 -0.7052  0.9321 -0.1774
  818MOL0     C12802   2.264   5.219  10.361  0.4682  1.0178 -0.8130
  818MOL0     C12803   2.343   5.243  10.468 -0.5949  0.5593  0.2569
  818MOL0     C12804   2.475   5.295  10.458  0.4229 -0.0848  0.8749
  818MOL0     O12805   2.560   5.328  10.558 -0.1931  0.6329  0.4983
  818MOL0     C12806   2.543   5.263  10.689  0.9700  0.1448  1.1277
  818MOL0     C12807   2.670   5.247  10.768  0.4921 -0.2932  0.0314
  818MOL0     C12808   2.729   5.384  10.816 -0.2109  0.0164 -0.0408
  818MOL0     C12809   2.872   5.371  10.878  1.1311 -0.3028 -0.1210
  818MOL0     C12810   2.977   5.330  10.776  0.1919  0.4200  0.3864
  818MOL0     C12811   3.055   5.287  10.691 -0.0504  0.8242 -0.4256
  818MOL0     C12812   2.501   5.325  10.323  0.0965 -0.6888  0.4096
  818MOL0     C12813   2.429   5.284  10.210  0.1652 -0.4375  0.1280
  818MOL0     C12814   2.490   5.299  10.067  0.1668 -0.4182  0.0409
  818MOL0     H12815   2.242   4.885  10.003  1.0272 -0.8909 -3.1264
  818MOL0     H12816   2.119   4.753   9.839 -2.1262 -0.6022  1.8245
  818MOL0     H12817   1.972   4.656   9.674 -0.8578 -0.1690 -0.8156
  818MOL0     H12818   2.145   4.692   9.622 -0.3998 -0.7965 -1.8646
  818MOL0     H12819   1.911   4.735   9.432  0.1718  0.4248 -1.3286
  818MOL0     H12820   2.077   4.735   9.399 -1.2368  2.0428  0.2239
  818MOL0     H12821   1.985   4.539   9.308  0.2360  1.4308  0.0469
  818MOL0     H12822   2.091   4.478   9.432 -0.3790 -1.4313 -2.3286
  818MOL0     H12823   1.896   4.433   9.577 -2.3933 -0.5942  0.4790
  818MOL0     H12824   1.784   4.501   9.459  0.0713  0.2673  0.6009
  818MOL0     H12825   1.941   4.243   9.461 -2.6979 -0.3458  1.9062
  818MOL0     H12826   1.905   4.307   9.295  1.6622  1.3903 -0.2663
  818MOL0     H12827   1.708   4.245   9.518 -0.5289  0.8192 -0.4750
  818MOL0     H12828   1.669   4.323   9.365  3.0328  2.4628  0.1153
  818MOL0     H12829   1.781   4.049   9.407 -2.2976  1.2103  3.8847
  818MOL0     H12830   1.777   4.116   9.241  2.4803 -1.3232  1.5819
  818MOL0     H12831   1.542   4.060   9.426 -1.0279 -2.1606 -0.4669
  818MOL0     H12832   1.533   4.138   9.261 -1.9104 -0.8829 -0.2547
  818MOL0     H12833   1.748   3.847   9.177  0.9520 -4.2949 -0.3923
  818MOL0     H12834   1.679   3.572   9.080  1.0270 -0.7942 -2.3083
  818MOL0     H12835   1.698   3.721   8.976 -2.7343  5.0987  2.5658
  818MOL0     H12836   1.466   3.515   8.989 -0.6276  1.3826  0.2476
  818MOL0     H12837   1.444   3.676   8.924 -0.7204 -1.2914  1.3680
  818MOL0     H12838   1.473   3.511   8.771 -0.7362  0.4729  2.1661
  818MOL0     H12839   1.602   3.629   8.752 -1.6080  2.2649  0.8634
  818MOL0     H12840   1.629   3.335   8.870  0.5834  1.5416  3.0486
  818MOL0     H12841   1.698   3.380   8.720  1.1530 -2.4475  0.5705
  818MOL0     H12842   1.812   3.561   8.627 -0.8298 -0.6801  0.0708
  818MOL0     H12843   1.978   3.851   8.530 -0.4038 -0.1224 -0.0647
  818MOL0     H12844   1.896   3.711   8.456  1.1984 -1.8859 -0.1710
  818MOL0     H12845   2.062   3.701   8.471  0.2531 -3.1904  1.9239
  818MOL0     H12846   2.515   3.839   8.962 -2.4166 -0.8747 -0.5980
  818MOL0     H12847   2.702   3.991   8.915  1.3335  0.8913 -1.8829
  818MOL0     H12848   2.834   4.299   8.652  0.8961 -0.1297 -2.1069
  818MOL0     H12849   2.660   4.292   8.658 -0.4483 -0.4395  0.2294
  818MOL0     H12850   2.828   4.236   8.915 -0.2696 -1.3646  0.3056
  818MOL0     H12851   2.799   4.397   8.854 -4.1673  2.4373  0.2317
  818MOL0     H12852   2.629   4.303   9.020  1.3155  1.1388  0.0160
  818MOL0     H12853   2.567   4.222   8.868  1.7630 -0.3592  0.2698
  818MOL0     H12854   2.551   4.451   8.770  1.7656 -2.7867 -0.5237
  818MOL0     H12855   2.581   4.516   8.929 -1.1450  1.0050 -0.4526
  818MOL0     H12856   2.390   4.333   8.993  0.2983  1.4559  1.3366
  818MOL0     H12857   2.335   4.487   8.941 -0.1641  1.3356 -3.0261
  818MOL0     H12858   2.370   4.249   8.753  0.7333 -0.1189  0.3446
  818MOL0     H12859   2.302   4.395   8.699 -0.1035  2.4655  0.8038
  818MOL0     H12860   2.128   4.328   8.914 -2.0273 -0.0467 -2.7897
  818MOL0     H12861   2.202   4.179   8.895  1.2939  1.4067  3.1509
  818MOL0     H12862   2.032   4.150   8.718  1.2367 -1.2519  1.0116
  818MOL0     H12863   2.141   4.240   8.621 -0.9466  0.6279 -0.5331
  818MOL0     H12864   2.571   4.062   8.517  0.6100 -3.5765 -0.4348
  818MOL0     H12865   2.371   3.933   8.558 -3.4689  1.1086  2.0407
  818MOL0     H12866   2.142   3.709   8.960  0.7899 -0.2502 -1.1223
  818MOL0     H12867   1.964   3.531   9.020  1.3886  1.5963  1.6635
  818MOL0     H12868   2.016   5.131   9.648 -0.2827  3.3595  1.9546
  818MOL0     H12869   2.111   5.246   9.815 -2.5629  0.0743 -0.6213
  818MOL0     H12870   2.163   5.195  10.393  0.5624  3.7361  1.9563
  818MOL0     H12871   2.295   5.222  10.563  2.8778  1.4825  2.3918
  818MOL0     H12872   2.466   5.310  10.752  1.0915  0.2093  1.2306
  818MOL0     H12873   2.512   5.160  10.674 -1.5810  0.8080  1.4337
  818MOL0     H12874   2.747   5.207  10.701  0.9567  1.3387 -0.4501
  818MOL0     H12875   2.655   5.177  10.850  0.1301 -2.5843 -1.8573
  818MOL0     H12876   2.745   5.445  10.727 -1.6095 -0.7048 -0.8357
  818MOL0     H12877   2.655   5.432  10.880  0.0633  1.5672 -0.8529
  818MOL0     H12878   2.872   5.305  10.965 -3.2147  0.1779  0.4591
  818MOL0     H12879   2.890   5.475  10.906  0.9735  1.1674 -4.6676
  818MOL0     H12880   3.102   5.250  10.603  1.9055  1.4505  0.3085
  818MOL0     H12881   2.601   5.364  10.311  0.2668 -1.6054 -1.4605
  818MOL0     H12882   2.523   5.198  10.040 -0.3824 -2.0794  4.8154
  818MOL0     H12883   2.417   5.331   9.992  1.9578 -0.4766 -1.8356
  818MOL0     H12884   2.570   5.373  10.050  0.3928 -0.6683  0.0047
  819MOL0     O12885   8.078   0.732  10.217  0.0615 -0.0080 -0.1326
  819MOL0     C12886   8.011   0.635  10.184  0.0433 -0.2060  0.5689
  819MOL0     O12887   8.047   0.560  10.079  0.1830 -0.6427 -0.6063
  819MOL0     C12888   8.162   0.584  10.011  0.0556 -0.5009  0.0845
  819MOL0     C12889   8.264   0.487  10.018 -0.3152  0.3023  0.2594
  819MOL0     C12890   8.376   0.508   9.941  0.0314 -0.1538 -0.5739
  819MOL0     C12891   8.391   0.628   9.867 -0.3447 -0.1514 -0.2851
  819MOL0     O12892   8.508   0.652   9.799 -0.4385  0.2152  0.6030
  819MOL0     C12893   8.616   0.560   9.781  0.5248 -0.0475  0.1532
  819MOL0     C12894   8.724   0.641   9.695 -1.0849 -0.1106  0.1303
  819MOL0     C12895   8.857   0.565   9.679  0.5400  0.1441  0.6221
  819MOL0     C12896   8.967   0.660   9.616  0.5143 -0.2221  0.7556
  819MOL0     C12897   9.087   0.582   9.570 -0.2523 -0.6218  0.6966
  819MOL0     C12898   9.176   0.542   9.695 -0.3289 -0.3016 -0.3830
  819MOL0     C12899   9.293   0.460   9.646 -0.0265  0.2071  0.5760
  819MOL0     C12900   9.261   0.322   9.594  0.1592 -0.2528 -0.0826
  819MOL0     N12901   9.217   0.324   9.448  0.2348 -0.3260  1.2879
  819MOL0     C12902   9.281   0.379   9.347 -1.0994 -0.2142 -0.3755
  819MOL0     C12903   9.248   0.317   9.238  0.1292 -0.0297  0.0301
  819MOL0     C12904   9.312   0.303   9.100  0.3860  0.5642 -0.1544
  819MOL0     C12905   9.349   0.152   9.069 -1.0393  0.8728 -1.1289
  819MOL0     C12906   9.433   0.126   8.942  0.8421  0.3186 -0.3700
  819MOL0     C12907   9.361   0.151   8.807  0.8155  0.5658  0.2661
  819MOL0     O12908   9.346   0.291   8.778 -0.1630 -0.0463  0.1088
  819MOL0     C12909   9.456   0.375   8.768  0.1905  0.6423  0.3735
  819MOL0     C12910   9.569   0.337   8.685  0.6351  0.0543  0.2157
  819MOL0     C12911   9.678   0.430   8.666  0.3944  0.5548 -0.3826
  819MOL0     C12912   9.795   0.375   8.591 -0.1158  0.1889 -0.2600
  819MOL0     C12913   9.676   0.556   8.730 -0.3008  0.2927 -0.7061
  819MOL0     C12914   9.780   0.665   8.729 -0.2222  0.5874  0.3197
  819MOL0     O12915   9.758   0.780   8.798  1.1798 -0.0081  0.3137
  819MOL0     C12916   9.853   0.872   8.823  0.6988 -0.6190  1.1285
  819MOL0     C12917   9.836   0.940   8.941  0.2652 -0.5647 -1.2237
  819MOL0     C12918   9.924   1.046   8.982 -0.4256 -0.3070  1.1123
  819MOL0     C12919  10.023   1.081   8.889  0.4639  0.5076 -0.8386
  819MOL0     O12920  10.104   1.186   8.913  0.2487 -0.1000  0.4517
  819MOL0     C12921  10.241   1.159   8.891 -0.3824 -1.0976 -0.3389
  819MOL0     C12922  10.324   1.266   8.952  0.1968 -0.4781 -0.6555
  819MOL0     C12923  10.474   1.279   8.928  0.3258 -0.8373  0.4140
  819MOL0     C12924  10.551   1.358   9.040 -0.0094 -0.4064 -0.7920
  819MOL0     C12925  10.703   1.350   9.048 -0.3011  0.1467  0.2910
  819MOL0     C12926  10.746   1.209   9.074 -0.1522 -0.5154 -0.5338
  819MOL0     C12927  10.894   1.178   9.050  0.9847  0.7192  0.2509
  819MOL0     C12928  10.991   1.246   9.149  0.2379 -0.3976  0.2108
  819MOL0    Cl12929  10.977   1.222   9.328 -0.0908  0.2062  0.0964
  819MOL0     C12930  10.031   1.017   8.765 -0.1979  0.3239  0.4242
  819MOL0     C12931   9.950   0.912   8.729 -0.0587  0.1902 -0.7060
  819MOL0     O12932   9.881   0.638   8.666  0.2345 -0.4575  0.3661
  819MOL0     C12933   9.559   0.590   8.798  0.3806 -0.8049  0.3146
  819MOL0     C12934   9.455   0.500   8.823  1.2802 -0.0582 -0.1499
  819MOL0     N12935   9.139   0.241   9.276 -0.5636 -0.6921 -0.0454
  819MOL0     N12936   9.116   0.250   9.397  0.1982  0.0281 -0.9829
  819MOL0     C12937   8.290   0.718   9.860 -0.0685  0.7639  0.9847
  819MOL0     C12938   8.176   0.700   9.930  1.1330  0.3788 -0.2412
  819MOL0     C12939   7.886   0.590  10.255 -0.9432 -0.0342  0.0043
  819MOL0     C12940   7.820   0.491  10.189 -0.3337  0.7416  0.1847
  819MOL0     C12941   7.699   0.429  10.231  0.2668 -0.1440  0.0771
  819MOL0     C12942   7.637   0.487  10.343  1.0072  0.9608  0.0104
  819MOL0     O12943   7.509   0.457  10.374  0.2192  0.1752  0.5372
  819MOL0     C12944   7.495   0.319  10.415 -0.2680 -0.7033  0.4878
  819MOL0     C12945   7.347   0.280  10.417 -0.0882  0.2998 -0.7486
  819MOL0     C12946   7.270   0.374  10.512  0.1155 -0.6559  0.1329
  819MOL0     C12947   7.127   0.333  10.520 -0.7048 -0.6375  0.0360
  819MOL0     C12948   7.112   0.235  10.630 -0.1979 -0.9665  0.4534
  819MOL0     C12949   7.104   0.156  10.717  0.2495  0.3269  0.4599
  819MOL0     C12950   7.692   0.597  10.409 -0.3529  0.1971 -0.2489
  819MOL0     C12951   7.817   0.649  10.363  0.2164 -0.4937  0.0641
  819MOL0     C12952   7.865   0.775  10.436  0.0633  0.0859 -0.1390
  819MOL0     H12953   8.249   0.410  10.092 -0.1274 -0.2104 -0.2242
  819MOL0     H12954   8.449   0.430   9.959  0.4945  0.7497  1.7298
  819MOL0     H12955   8.575   0.480   9.719 -4.4418  2.2139  0.1057
  819MOL0     H12956   8.647   0.517   9.877  1.2010 -0.9273 -0.4356
  819MOL0     H12957   8.700   0.661   9.590 -1.5747 -2.3972 -0.2600
  819MOL0     H12958   8.740   0.737   9.744 -0.0147 -1.5993  2.9421
  819MOL0     H12959   8.895   0.532   9.776  1.0714 -2.7059 -0.4512
  819MOL0     H12960   8.843   0.480   9.612  1.1336  1.8178 -1.7402
  819MOL0     H12961   8.924   0.698   9.523  0.0933 -5.2897 -1.4384
  819MOL0     H12962   8.981   0.748   9.679  1.5339 -0.7221  1.2484
  819MOL0     H12963   9.144   0.650   9.507 -2.1651  0.1349 -0.2909
  819MOL0     H12964   9.044   0.497   9.516 -0.7734  1.3351 -2.1577
  819MOL0     H12965   9.209   0.634   9.744 -0.8390 -0.5375  0.4206
  819MOL0     H12966   9.134   0.479   9.774  0.4919  1.7671  1.8250
  819MOL0     H12967   9.357   0.431   9.730 -0.2882 -2.5204 -0.0592
  819MOL0     H12968   9.349   0.508   9.565 -2.3891  2.5523  0.2062
  819MOL0     H12969   9.353   0.264   9.586  0.9769  0.4283  2.8800
  819MOL0     H12970   9.193   0.261   9.655 -1.6917  1.9157  0.1705
  819MOL0     H12971   9.370   0.441   9.344 -0.9235 -0.4579 -0.1687
  819MOL0     H12972   9.402   0.364   9.116  0.0369  0.2340  4.4467
  819MOL0     H12973   9.245   0.340   9.022  1.1421 -2.6980 -2.5647
  819MOL0     H12974   9.413   0.118   9.151  0.0966  0.7481 -2.0506
  819MOL0     H12975   9.262   0.085   9.065  0.4352 -1.1201 -1.6259
  819MOL0     H12976   9.525   0.186   8.948  1.4800 -0.5567 -1.0564
  819MOL0     H12977   9.459   0.020   8.936  1.0569  0.3500  0.0130
  819MOL0     H12978   9.406   0.094   8.725 -0.3269  0.6407 -0.4429
  819MOL0     H12979   9.257   0.117   8.818  0.7105  1.2341  1.5557
  819MOL0     H12980   9.564   0.242   8.634 -1.3305  0.8391 -1.2072
  819MOL0     H12981   9.778   0.268   8.573  0.4749 -0.0934  0.7617
  819MOL0     H12982   9.885   0.396   8.649 -0.9973  0.9335  0.8863
  819MOL0     H12983   9.804   0.422   8.492 -0.1213  0.3816 -0.1682
  819MOL0     H12984   9.758   0.903   9.007  0.7419  0.3960 -0.0762
  819MOL0     H12985   9.907   1.107   9.070 -1.2852  2.6303 -0.9394
  819MOL0     H12986  10.277   1.070   8.943  1.0875 -2.0179 -2.7907
  819MOL0     H12987  10.256   1.163   8.783 -0.0822  1.7330 -0.2565
  819MOL0     H12988  10.283   1.358   8.908  0.2469  0.4408  1.1152
  819MOL0     H12989  10.308   1.257   9.060 -1.6577 -1.4786 -0.9649
  819MOL0     H12990  10.487   1.339   8.837 -1.8925 -1.6912 -0.5521
  819MOL0     H12991  10.522   1.180   8.922 -2.0449 -2.3106  3.2665
  819MOL0     H12992  10.508   1.321   9.133 -1.1134  0.5107 -0.9179
  819MOL0     H12993  10.527   1.464   9.028  1.0530  0.0644  0.9385
  819MOL0     H12994  10.752   1.383   8.956 -0.4774 -1.7665 -0.5430
  819MOL0     H12995  10.745   1.411   9.129  2.2049  1.8648 -2.1137
  819MOL0     H12996  10.699   1.123   9.025  0.6529 -1.7130  0.7060
  819MOL0     H12997  10.721   1.201   9.180  0.6696  0.9407 -0.1971
  819MOL0     H12998  10.922   1.191   8.945  3.2014 -2.9215  0.1924
  819MOL0     H12999  10.900   1.071   9.074 -5.2570 -0.8652 -3.1155
  819MOL0     H13000  10.965   1.352   9.135 -3.3825 -0.8643  2.0794
  819MOL0     H13001  11.094   1.216   9.128  0.7022  1.6031 -0.6126
  819MOL0     H13002  10.096   1.060   8.689 -1.6241  0.8257 -0.5332
  819MOL0     H13003   9.963   0.874   8.629 -0.9010  2.1386 -1.6138
  819MOL0     H13004   9.542   0.691   8.833  2.5550  1.0674 -3.4557
  819MOL0     H13005   9.372   0.532   8.885  1.8257  0.4620  0.3176
  819MOL0     H13006   8.307   0.811   9.807  0.5845  0.5510  0.8104
  819MOL0     H13007   8.103   0.780   9.934  1.2288  0.4696  3.4056
  819MOL0     H13008   7.851   0.453  10.092 -3.2721  1.3054 -1.0898
  819MOL0     H13009   7.652   0.353  10.170 -1.8917  0.1437  1.2798
  819MOL0     H13010   7.549   0.253  10.347 -0.1236  1.0430 -1.1909
  819MOL0     H13011   7.526   0.309  10.519 -2.6096 -2.8536  1.0722
  819MOL0     H13012   7.335   0.176  10.448  0.4546  0.4257 -0.0835
  819MOL0     H13013   7.306   0.281  10.316 -1.2661  0.8169 -0.2811
  819MOL0     H13014   7.316   0.374  10.612  1.2911  0.0545 -0.3820
  819MOL0     H13015   7.278   0.479  10.485  0.6275 -0.9895 -1.0938
  819MOL0     H13016   7.086   0.282  10.432 -0.0159 -0.6370 -0.2892
  819MOL0     H13017   7.061   0.419  10.534 -0.5051 -0.0754 -2.1640
  819MOL0     H13018   7.094   0.081  10.793 -0.4997 -1.2521 -1.1424
  819MOL0     H13019   7.643   0.658  10.485 -2.4023 -2.1518  0.4604
  819MOL0     H13020   7.802   0.797  10.522  0.5298  0.5894  0.0768
  819MOL0     H13021   7.968   0.751  10.467  1.1367 -0.5960 -3.7487
  819MOL0     H13022   7.865   0.868  10.379 -0.4909  0.2286  0.0865
  820MOL0     O13023  10.660   2.200   6.127 -0.0241  0.5721 -0.6418
  820MOL0     C13024  10.591   2.230   6.032 -0.4907 -0.7038 -0.1495
  820MOL0     O13025  10.620   2.329   5.947 -0.0625 -0.3147 -0.0615
  820MOL0     C13026  10.741   2.396   5.947 -0.3513  0.3169  0.4073
  820MOL0     C13027  10.780   2.479   6.051 -0.6696 -0.7876  0.0561
  820MOL0     C13028  10.907   2.539   6.060  0.3867  0.1974  0.3338
  820MOL0     C13029  10.996   2.511   5.948  0.4246  0.2118  0.6558
  820MOL0     O13030  11.131   2.548   5.932 -0.0740 -0.6025  0.4056
  820MOL0     C13031  11.194   2.636   6.027  0.0872 -0.5656  0.3598
  820MOL0     C13032  11.322   2.559   6.058 -0.2041  0.5839  0.2525
  820MOL0     C13033  11.422   2.627   6.152  0.0038 -0.4542 -0.5907
  820MOL0     C13034  11.351   2.710   6.258  0.2134 -0.1238  0.0947
  820MOL0     C13035  11.453   2.769   6.361 -0.0034  0.9447 -0.0114
  820MOL0     C13036  11.537   2.679   6.454 -0.2749 -0.0224 -0.1888
  820MOL0     C13037  11.443   2.577   6.504 -0.0280 -0.5303 -0.4556
  820MOL0     C13038  11.488   2.501   6.629 -0.9878  0.0308 -0.3402
  820MOL0     N13039  11.627   2.451   6.618  0.4230  0.2151 -1.4646
  820MOL0     C13040  11.669   2.353   6.531 -0.6626 -0.0951  0.5166
  820MOL0     C13041  11.801   2.348   6.541  0.1763 -0.1775 -0.2949
  820MOL0     C13042  11.898   2.275   6.455  0.0506 -0.6223 -0.6817
  820MOL0     C13043  12.017   2.366   6.416 -0.0282  0.7354 -0.0617
  820MOL0     C13044  12.102   2.297   6.313 -0.2114 -0.2011  0.0524
  820MOL0     C13045  12.221   2.387   6.269 -0.0524  0.3042 -0.5632
  820MOL0     O13046  12.302   2.314   6.179  0.0001 -0.7459  0.1121
  820MOL0     C13047  12.409   2.234   6.216 -0.1021  0.1118  0.6998
  820MOL0     C13048  12.472   2.159   6.119  0.2181  0.5484 -0.6141
  820MOL0     C13049  12.598   2.098   6.148  0.0140 -0.3431 -2.0141
  820MOL0     C13050  12.650   1.999   6.045 -0.1728 -0.3495  0.1888
  820MOL0     C13051  12.653   2.090   6.279  1.0677  0.0088 -0.4021
  820MOL0     C13052  12.769   2.019   6.319 -0.8862  0.1828  0.1114
  820MOL0     O13053  12.880   2.094   6.349 -0.3054 -1.0634 -0.1005
  820MOL0     C13054  12.998   2.028   6.377 -0.1699  0.9343  0.4292
  820MOL0     C13055  13.056   1.938   6.292  0.1856  0.4571 -0.5508
  820MOL0     C13056  13.177   1.871   6.322  0.8430 -0.3343 -0.6400
  820MOL0     C13057  13.255   1.883   6.440  0.8019 -0.3746 -0.8135
  820MOL0     O13058  13.368   1.811   6.476  0.2325 -0.4904  0.0501
  820MOL0     C13059  13.408   1.696   6.401 -0.4347 -0.8483 -1.0386
  820MOL0     C13060  13.539   1.655   6.448  0.0841 -0.4354 -0.6628
  820MOL0     C13061  13.589   1.528   6.375  0.3807  0.3037  0.0955
  820MOL0     C13062  13.729   1.480   6.423  0.0054  0.9927  0.9041
  820MOL0     C13063  13.770   1.340   6.356 -0.5010 -0.0963  0.4627
  820MOL0     C13064  13.920   1.292   6.356  1.1165 -0.5625  0.9623
  820MOL0     C13065  13.977   1.289   6.498 -0.9373 -0.2126  0.4499
  820MOL0     C13066  14.077   1.170   6.515 -0.4314 -0.6927  1.1125
  820MOL0    Cl13067  13.987   1.017   6.505 -0.1981  0.2452  0.3979
  820MOL0     C13068  13.180   1.961   6.537 -0.6637  0.2994 -0.5467
  820MOL0     C13069  13.070   2.040   6.508  2.1406 -0.3518  0.4227
  820MOL0     O13070  12.770   1.902   6.290 -0.1574  0.5248  0.1971
  820MOL0     C13071  12.577   2.162   6.375 -0.0254  0.7524 -0.5341
  820MOL0     C13072  12.461   2.235   6.341  0.2326 -0.2957  0.6034
  820MOL0     N13073  11.836   2.440   6.640 -0.4135  0.0331  0.1863
  820MOL0     N13074  11.732   2.507   6.686  0.1194  0.0949  0.2160
  820MOL0     C13075  10.958   2.427   5.844  0.9610  0.5504  0.2537
  820MOL0     C13076  10.829   2.364   5.844 -0.3613 -0.2378  0.6876
  820MOL0     C13077  10.478   2.138   6.014  0.0399  0.6989 -0.0659
  820MOL0     C13078  10.373   2.199   5.930  0.0730  0.1884 -0.1424
  820MOL0     C13079  10.262   2.123   5.893 -0.1009  0.1883  0.0323
  820MOL0     C13080  10.242   1.995   5.949  0.0884 -0.2263 -0.2617
  820MOL0     O13081  10.140   1.913   5.909  0.3745 -0.8540 -0.3000
  820MOL0     C13082  10.180   1.813   5.822  0.2139  0.0790  0.0609
  820MOL0     C13083  10.058   1.727   5.784  0.7322 -0.6430 -0.2304
  820MOL0     C13084  10.014   1.650   5.908 -0.6524 -1.2877  0.7315
  820MOL0     C13085   9.915   1.535   5.888 -0.9259  0.1635 -0.1930
  820MOL0     C13086   9.781   1.593   5.856  0.0377  1.1876 -0.9845
  820MOL0     C13087   9.670   1.640   5.830 -0.3078  0.6641 -0.1178
  820MOL0     C13088  10.337   1.938   6.034 -0.4732 -0.3892  0.0661
  820MOL0     C13089  10.462   1.999   6.057  0.2400 -0.5465 -0.0799
  820MOL0     C13090  10.573   1.923   6.125  0.3901  0.1810 -0.0725
  820MOL0     H13091  10.719   2.501   6.138  2.1083  1.6058  1.5824
  820MOL0     H13092  10.933   2.594   6.150  2.7945 -0.4771  0.1435
  820MOL0     H13093  11.126   2.650   6.112 -1.0407 -0.5249 -0.5180
  820MOL0     H13094  11.203   2.734   5.980 -4.4334 -0.7367 -1.4090
  820MOL0     H13095  11.301   2.457   6.091  0.0547 -0.6221 -2.9908
  820MOL0     H13096  11.372   2.532   5.964 -1.8203 -0.5797 -0.3333
  820MOL0     H13097  11.482   2.548   6.198 -0.1120  0.4299  1.1344
  820MOL0     H13098  11.487   2.696   6.097  3.4879 -0.8140  2.6586
  820MOL0     H13099  11.294   2.784   6.201  0.9540  0.2334 -0.2043
  820MOL0     H13100  11.279   2.644   6.306 -1.2082  0.9348 -0.5195
  820MOL0     H13101  11.396   2.841   6.422  0.6821  0.6506  0.9948
  820MOL0     H13102  11.533   2.829   6.317  2.4500 -2.1626 -0.1101
  820MOL0     H13103  11.612   2.639   6.386  0.2828 -1.8792  1.4129
  820MOL0     H13104  11.587   2.729   6.538 -0.7589  0.1520 -0.0049
  820MOL0     H13105  11.410   2.506   6.428  1.0986 -1.3947 -0.1719
  820MOL0     H13106  11.350   2.626   6.536 -0.6418 -0.3487 -2.4092
  820MOL0     H13107  11.490   2.572   6.713 -0.3013  0.2415 -0.5264
  820MOL0     H13108  11.411   2.427   6.649 -1.7507  0.1747 -2.5195
  820MOL0     H13109  11.607   2.303   6.457  0.3731  0.0148 -0.4550
  820MOL0     H13110  11.843   2.244   6.366  1.7589 -1.3713 -1.5369
  820MOL0     H13111  11.924   2.178   6.499 -2.6276 -1.7483 -1.4014
  820MOL0     H13112  11.974   2.452   6.364 -0.4173 -0.3554 -1.5841
  820MOL0     H13113  12.084   2.402   6.495 -0.8980  0.9615  0.6034
  820MOL0     H13114  12.135   2.198   6.346 -0.3913 -0.0521  0.6850
  820MOL0     H13115  12.046   2.286   6.220  0.7172  1.0324 -0.6934
  820MOL0     H13116  12.189   2.475   6.213 -0.7609 -0.8053 -1.9648
  820MOL0     H13117  12.268   2.431   6.358 -0.0479  1.3306 -1.0619
  820MOL0     H13118  12.434   2.164   6.018 -1.8348  1.3546  0.1359
  820MOL0     H13119  12.650   1.894   6.076  0.1580  0.0809  1.7461
  820MOL0     H13120  12.750   2.036   6.021 -0.4105 -0.0369 -0.3311
  820MOL0     H13121  12.597   2.007   5.950 -0.7236  2.3912  0.6487
  820MOL0     H13122  13.020   1.912   6.194 -0.1103 -2.7934  0.3092
  820MOL0     H13123  13.203   1.799   6.245  0.7535  0.5413 -1.5038
  820MOL0     H13124  13.339   1.620   6.437  0.8976 -1.4954  0.2041
  820MOL0     H13125  13.401   1.695   6.292 -0.0249  0.5292 -1.1061
  820MOL0     H13126  13.603   1.743   6.437  0.5845 -0.3802  2.0694
  820MOL0     H13127  13.533   1.632   6.555  3.8749  0.6038 -0.0984
  820MOL0     H13128  13.591   1.554   6.268 -2.5191  2.0810  0.3662
  820MOL0     H13129  13.506   1.459   6.393 -0.9340  1.3191 -1.6890
  820MOL0     H13130  13.713   1.465   6.530  0.8682  3.2630  1.4134
  820MOL0     H13131  13.808   1.554   6.407  0.4929  0.1209 -1.1456
  820MOL0     H13132  13.699   1.269   6.398 -0.3405  0.1047  1.0971
  820MOL0     H13133  13.737   1.362   6.254 -1.5334  2.1719  1.1991
  820MOL0     H13134  13.971   1.355   6.283 -3.5850 -1.3339 -3.6074
  820MOL0     H13135  13.917   1.196   6.304 -3.2806 -0.0528 -0.1083
  820MOL0     H13136  13.900   1.269   6.574 -0.2960 -0.9070  0.9258
  820MOL0     H13137  14.014   1.387   6.528 -1.2388 -0.0085  0.1632
  820MOL0     H13138  14.130   1.176   6.611  0.5308  2.1823  0.4784
  820MOL0     H13139  14.151   1.178   6.435  0.4213  0.5858  1.9782
  820MOL0     H13140  13.216   1.973   6.639 -2.7068  0.7962  0.1544
  820MOL0     H13141  13.023   2.089   6.593  2.0667 -0.5876  0.5212
  820MOL0     H13142  12.618   2.156   6.476 -1.4281 -0.5155 -0.0073
  820MOL0     H13143  12.420   2.303   6.415  0.4958  0.5043  0.0192
  820MOL0     H13144  11.025   2.405   5.761  1.9048 -1.4230  1.4466
  820MOL0     H13145  10.789   2.299   5.766 -0.5076 -0.9461  1.3418
  820MOL0     H13146  10.375   2.302   5.894 -0.1479  0.0066 -0.6703
  820MOL0     H13147  10.199   2.159   5.813  1.3825  0.8951 -0.8557
  820MOL0     H13148  10.224   1.853   5.731  5.3633 -3.4861  0.5330
  820MOL0     H13149  10.267   1.757   5.860  0.2093 -2.0744 -2.7493
  820MOL0     H13150  10.093   1.656   5.709  1.7427 -1.3122  0.8518
  820MOL0     H13151   9.978   1.791   5.744  1.5286  0.4664 -0.0932
  820MOL0     H13152  10.107   1.600   5.937  0.0558  0.2122  1.1478
  820MOL0     H13153   9.995   1.715   5.994 -0.7703 -1.6636  0.9934
  820MOL0     H13154   9.910   1.476   5.980 -0.0515 -1.3212 -1.0625
  820MOL0     H13155   9.952   1.461   5.817  1.9998  1.2014  0.1058
  820MOL0     H13156   9.569   1.667   5.810 -1.1037 -0.1059  2.4421
  820MOL0     H13157  10.338   1.839   6.078  2.1447  0.1045  1.3041
  820MOL0     H13158  10.559   1.971   6.222 -1.3830 -2.0832  0.8780
  820MOL0     H13159  10.540   1.819   6.120 -2.6461  0.9995  0.7750
  820MOL0     H13160  10.670   1.934   6.075  1.2483 -1.3941  1.1560
  821MOL0     O13161   0.081   8.519   8.033  0.3477 -0.0252 -0.2104
  821MOL0     C13162   0.048   8.432   7.956 -0.1766 -0.0549 -0.1863
  821MOL0     O13163   0.127   8.381   7.858  0.0320  0.4096  0.4114
  821MOL0     C13164   0.259   8.436   7.844  0.6851 -0.1521 -0.2644
  821MOL0     C13165   0.281   8.567   7.804 -0.2631  0.0648  0.4466
  821MOL0     C13166   0.408   8.599   7.765  0.6303  0.3207  0.6081
  821MOL0     C13167   0.518   8.527   7.780 -0.1824 -0.3525  0.4776
  821MOL0     O13168   0.647   8.575   7.744 -0.2858 -0.1269 -1.3921
  821MOL0     C13169   0.689   8.700   7.796 -0.2386 -0.6251  0.6296
  821MOL0     C13170   0.845   8.709   7.789  0.4585 -0.3548  0.5528
  821MOL0     C13171   0.895   8.858   7.787  0.2208  0.6528 -0.8050
  821MOL0     C13172   1.049   8.860   7.766 -0.0103  0.1352  0.1560
  821MOL0     C13173   1.109   9.006   7.760 -0.0690  0.9701  0.1843
  821MOL0     C13174   1.253   9.003   7.707  0.3283 -0.5410  0.2709
  821MOL0     C13175   1.316   9.138   7.696 -0.1162 -0.2773  0.4586
  821MOL0     C13176   1.339   9.200   7.834 -0.2131 -0.0696 -0.9652
  821MOL0     N13177   1.455   9.140   7.902  0.5670  0.5511 -0.5757
  821MOL0     C13178   1.585   9.124   7.862  0.0636 -0.2076  0.1797
  821MOL0     C13179   1.655   9.083   7.972 -0.3828  0.1890  0.4858
  821MOL0     C13180   1.798   9.040   7.963 -0.3030  0.1908  0.6906
  821MOL0     C13181   1.897   9.145   7.904 -0.0986 -0.5984 -0.2675
  821MOL0     C13182   2.041   9.099   7.896 -0.2926 -0.3914  0.4573
  821MOL0     C13183   2.148   9.210   7.863  0.5516 -0.4274  0.0352
  821MOL0     O13184   2.114   9.286   7.740  0.2424  0.8491  0.5167
  821MOL0     C13185   2.193   9.385   7.705 -0.4445 -0.7061  0.3990
  821MOL0     C13186   2.186   9.421   7.568  0.3752 -0.7850 -0.8062
  821MOL0     C13187   2.271   9.517   7.512 -0.4399 -0.7224 -0.1922
  821MOL0     C13188   2.266   9.530   7.358  0.4537 -0.5867  0.4164
  821MOL0     C13189   2.355   9.592   7.594 -0.1777  0.2117  0.2213
  821MOL0     C13190   2.450   9.699   7.553 -0.2974 -0.6899 -0.7415
  821MOL0     O13191   2.548   9.735   7.649  0.2918  0.0029  0.9209
  821MOL0     C13192   2.652   9.815   7.622 -0.0217  0.2729  0.0076
  821MOL0     C13193   2.780   9.792   7.673  0.1366  0.6213 -0.0373
  821MOL0     C13194   2.886   9.890   7.651  0.5325  0.3473 -0.2782
  821MOL0     C13195   2.860  10.008   7.576 -0.5365  0.3957 -0.1154
  821MOL0     O13196   2.956  10.102   7.553 -0.1019  0.1045  0.4354
  821MOL0     C13197   2.918  10.226   7.483  0.1286 -0.1793  0.0989
  821MOL0     C13198   3.046  10.310   7.460 -0.8569 -0.1879 -0.9181
  821MOL0     C13199   3.107  10.355   7.597 -0.4886  1.1194 -0.3197
  821MOL0     C13200   3.229  10.450   7.579 -0.4486 -0.3555  1.0545
  821MOL0     C13201   3.346  10.444   7.685  0.3323 -0.1087 -0.5428
  821MOL0     C13202   3.427  10.566   7.706  0.5657  1.0365 -0.9698
  821MOL0     C13203   3.541  10.530   7.802 -0.1282 -0.2584 -1.0827
  821MOL0     C13204   3.659  10.629   7.793  0.6865 -0.4835  0.3945
  821MOL0    Cl13205   3.817  10.570   7.853  0.2351  0.0274 -0.1550
  821MOL0     C13206   2.732  10.022   7.536  0.7768  0.2529 -0.1061
  821MOL0     C13207   2.630   9.939   7.557 -1.1186 -0.6017 -1.0402
  821MOL0     O13208   2.447   9.755   7.438  0.5929  0.1773 -0.2383
  821MOL0     C13209   2.358   9.555   7.729  0.3695  0.4884 -0.5480
  821MOL0     C13210   2.285   9.449   7.784  0.1808 -0.5813 -1.0488
  821MOL0     N13211   1.573   9.099   8.080  0.4017  0.1658  0.3472
  821MOL0     N13212   1.450   9.104   8.036 -0.2694 -0.1759  0.8180
  821MOL0     C13213   0.497   8.394   7.810  0.3240  0.2544 -0.4174
  821MOL0     C13214   0.365   8.349   7.845  0.4464  0.1234 -0.6989
  821MOL0     C13215  -0.088   8.364   7.970 -0.4968  0.0559  0.1335
  821MOL0     C13216  -0.106   8.237   7.926 -0.8091  0.2088  0.5882
  821MOL0     C13217  -0.231   8.174   7.924  0.1058 -0.6517  0.0838
  821MOL0     C13218  -0.346   8.241   7.977 -0.7063  0.6050 -0.1883
  821MOL0     O13219  -0.464   8.169   7.970 -0.0184 -0.9027 -0.4588
  821MOL0     C13220  -0.584   8.251   7.960 -0.3692  0.0061  0.8368
  821MOL0     C13221  -0.704   8.175   7.891  0.4399  0.6247 -0.1452
  821MOL0     C13222  -0.716   8.034   7.947 -0.1115  0.2798 -0.9959
  821MOL0     C13223  -0.831   7.955   7.878  0.0930 -0.3313  0.4331
  821MOL0     C13224  -0.953   7.996   7.947 -0.1543  0.2925 -0.7026
  821MOL0     C13225  -1.052   8.028   8.008 -0.8689  0.6019  0.1169
  821MOL0     C13226  -0.330   8.370   8.026 -0.1215 -0.3191 -0.1071
  821MOL0     C13227  -0.205   8.433   8.013  0.5103 -1.2696  0.2148
  821MOL0     C13228  -0.210   8.579   8.038  0.2886 -0.7186  0.0137
  821MOL0     H13229   0.198   8.636   7.795 -0.4073 -0.0351  0.9922
  821MOL0     H13230   0.427   8.703   7.741  1.6076  0.0680  0.2227
  821MOL0     H13231   0.665   8.699   7.903 -0.6251  0.1467  0.5572
  821MOL0     H13232   0.638   8.778   7.738  2.4638 -0.5467 -1.8764
  821MOL0     H13233   0.891   8.647   7.866 -2.8328 -3.8583  0.0123
  821MOL0     H13234   0.865   8.665   7.691 -0.5439 -0.3089  0.3176
  821MOL0     H13235   0.856   8.904   7.696  1.0447 -0.2086 -1.6098
  821MOL0     H13236   0.855   8.911   7.874 -0.5867 -2.3152  0.7436
  821MOL0     H13237   1.092   8.813   7.855  0.7771  1.2403  0.3738
  821MOL0     H13238   1.081   8.812   7.673 -1.3306 -0.5770  0.0327
  821MOL0     H13239   1.104   9.054   7.858 -0.7255 -0.4724  0.8801
  821MOL0     H13240   1.036   9.062   7.700 -0.5686 -1.1441 -1.3148
  821MOL0     H13241   1.313   8.936   7.768  1.2935  0.7563  0.7952
  821MOL0     H13242   1.246   8.951   7.611 -1.4989 -0.9373  0.5869
  821MOL0     H13243   1.257   9.207   7.636 -0.3334 -0.4598  0.4615
  821MOL0     H13244   1.418   9.136   7.656  1.0077  1.7425  2.9710
  821MOL0     H13245   1.361   9.306   7.820 -1.4961  0.3293 -0.1679
  821MOL0     H13246   1.246   9.188   7.890 -0.5066 -1.7491 -1.7143
  821MOL0     H13247   1.630   9.135   7.763  0.8724  0.2259  0.5813
  821MOL0     H13248   1.795   8.945   7.909  2.0884  0.1083  0.5665
  821MOL0     H13249   1.818   9.023   8.069 -0.8635  1.4159  1.0128
  821MOL0     H13250   1.854   9.167   7.806  0.1725  0.6577 -0.1253
  821MOL0     H13251   1.893   9.237   7.963 -2.2765 -0.3074 -0.7876
  821MOL0     H13252   2.084   9.036   7.974  2.9547 -2.4499 -2.6557
  821MOL0     H13253   2.035   9.027   7.814 -2.3316 -0.1981  0.3983
  821MOL0     H13254   2.145   9.271   7.953 -0.3298 -0.5503  0.0979
  821MOL0     H13255   2.238   9.148   7.858  0.6010 -0.3184 -0.5843
  821MOL0     H13256   2.122   9.363   7.502 -0.0048  0.1379 -1.2707
  821MOL0     H13257   2.197   9.463   7.308  0.7523  0.8684 -2.1416
  821MOL0     H13258   2.362   9.498   7.315  0.2787 -0.0253 -0.4241
  821MOL0     H13259   2.246   9.632   7.324 -1.4240 -0.3046  2.2024
  821MOL0     H13260   2.803   9.701   7.728 -0.1306  1.8232  2.2035
  821MOL0     H13261   2.989   9.879   7.686  1.1360 -0.4230 -2.1553
  821MOL0     H13262   2.864  10.208   7.390 -3.4009  2.0765  1.5259
  821MOL0     H13263   2.852  10.271   7.557  2.7583  0.5272  2.1751
  821MOL0     H13264   3.119  10.252   7.404 -0.0966  0.4940 -0.6423
  821MOL0     H13265   3.015  10.399   7.404 -0.6138  1.3512  1.2346
  821MOL0     H13266   3.132  10.262   7.647 -2.5220  1.7387  2.0745
  821MOL0     H13267   3.026  10.405   7.651 -2.2876 -1.8050 -0.0994
  821MOL0     H13268   3.186  10.549   7.566  1.6158  0.4337 -0.2256
  821MOL0     H13269   3.281  10.415   7.489 -1.9851 -1.1121  0.4091
  821MOL0     H13270   3.299  10.423   7.781 -1.1194  1.1617 -0.9377
  821MOL0     H13271   3.415  10.367   7.649  3.3653  2.4740 -0.7057
  821MOL0     H13272   3.366  10.644   7.751 -0.8835  1.7368 -3.9134
  821MOL0     H13273   3.473  10.598   7.612  0.6602  3.9125 -0.0118
  821MOL0     H13274   3.577  10.429   7.783  0.5736 -0.1589 -0.3417
  821MOL0     H13275   3.508  10.523   7.906 -0.6244 -0.4858 -1.2521
  821MOL0     H13276   3.630  10.727   7.833  0.9269 -0.4615  0.5145
  821MOL0     H13277   3.674  10.645   7.686 -0.4877  2.5088  0.5713
  821MOL0     H13278   2.694  10.116   7.498  2.4364  1.4900  1.1393
  821MOL0     H13279   2.528   9.974   7.544 -1.7672 -2.2099 -0.5820
  821MOL0     H13280   2.419   9.616   7.795  1.6862  0.9206 -2.1037
  821MOL0     H13281   2.306   9.427   7.889  0.5390  1.4146 -0.6689
  821MOL0     H13282   0.584   8.329   7.802  0.5713 -0.1989  3.7509
  821MOL0     H13283   0.355   8.241   7.850  1.6817 -0.1491 -2.9254
  821MOL0     H13284  -0.027   8.179   7.879 -3.2148 -1.1196 -2.0855
  821MOL0     H13285  -0.241   8.088   7.859  0.5690  0.2241 -1.1746
  821MOL0     H13286  -0.610   8.285   8.061 -1.3757  2.6567 -0.2166
  821MOL0     H13287  -0.567   8.344   7.905 -1.3732 -0.4858 -0.3308
  821MOL0     H13288  -0.709   8.172   7.782 -2.8852 -0.8905 -0.0551
  821MOL0     H13289  -0.798   8.226   7.913 -0.1562 -0.3747 -0.3500
  821MOL0     H13290  -0.625   7.974   7.935  0.8662  1.6652 -0.7688
  821MOL0     H13291  -0.733   8.053   8.053  2.2695 -0.4855 -0.4173
  821MOL0     H13292  -0.815   7.847   7.881  0.5154 -0.2741  0.3196
  821MOL0     H13293  -0.842   7.982   7.772  1.8884  0.5051  0.4287
  821MOL0     H13294  -1.143   8.064   8.053 -0.5463  2.4131 -0.5746
  821MOL0     H13295  -0.416   8.426   8.059  0.5312  1.1565 -0.7790
  821MOL0     H13296  -0.317   8.603   8.029  0.4304  0.1568  0.5746
  821MOL0     H13297  -0.185   8.616   8.137 -0.2554  0.7126 -0.3600
  821MOL0     H13298  -0.161   8.640   7.961 -2.4239  1.2954 -0.2726
  822MOL0     O13299  10.476   8.281  10.263 -0.0824 -0.7747 -0.1141
  822MOL0     C13300  10.449   8.276  10.143  0.8131 -0.7797  0.9333
  822MOL0     O13301  10.527   8.239  10.041 -0.1626 -0.2317 -0.0026
  822MOL0     C13302  10.665   8.231  10.047  0.4605  0.3851  0.6523
  822MOL0     C13303  10.737   8.216  10.161  0.0598  0.7640  0.0006
  822MOL0     C13304  10.876   8.186  10.141 -0.7970 -0.4422  0.3547
  822MOL0     C13305  10.947   8.190  10.020 -0.6232  0.0446 -0.1161
  822MOL0     O13306  11.081   8.183  10.010 -0.1833  0.1047 -0.0580
  822MOL0     C13307  11.147   8.105  10.115 -0.2401 -0.0628 -0.0552
  822MOL0     C13308  11.297   8.101  10.085 -0.2342 -0.3320  0.1149
  822MOL0     C13309  11.345   8.242  10.091 -0.1841  0.7413 -0.0942
  822MOL0     C13310  11.486   8.248  10.036 -0.2942  0.0848  0.0908
  822MOL0     C13311  11.547   8.383  10.027 -0.3149  0.2211  0.5477
  822MOL0     C13312  11.681   8.377   9.938 -0.4392  0.2144  0.2914
  822MOL0     C13313  11.745   8.511   9.902 -0.0380  0.0209  0.5990
  822MOL0     C13314  11.643   8.612   9.855 -0.2801 -0.9436 -0.4759
  822MOL0     N13315  11.605   8.584   9.711 -0.1048  0.1634 -0.3802
  822MOL0     C13316  11.501   8.503   9.671 -0.0340 -0.5471  0.4019
  822MOL0     C13317  11.488   8.530   9.539 -0.4792  0.0703 -0.4811
  822MOL0     C13318  11.393   8.460   9.448  0.0196  0.1973  0.1256
  822MOL0     C13319  11.449   8.387   9.332  0.2268 -0.9926 -0.1845
  822MOL0     C13320  11.546   8.276   9.380 -0.5693  0.0570  0.0045
  822MOL0     C13321  11.472   8.147   9.422 -0.3783 -0.2882  0.2879
  822MOL0     O13322  11.387   8.160   9.542 -0.0054 -0.1235 -0.0078
  822MOL0     C13323  11.299   8.063   9.572  0.4013 -0.2972 -0.6429
  822MOL0     C13324  11.273   7.948   9.497  0.0043  0.3078 -0.7557
  822MOL0     C13325  11.180   7.851   9.532  0.5960 -1.1109 -0.4288
  822MOL0     C13326  11.141   7.745   9.432  0.2105 -0.4943  0.1747
  822MOL0     C13327  11.118   7.865   9.661  0.3304  0.1061  0.3674
  822MOL0     C13328  11.006   7.769   9.694 -0.3552 -0.3588 -0.9631
  822MOL0     O13329  10.909   7.833   9.765 -0.4931 -0.4119 -0.4016
  822MOL0     C13330  10.811   7.768   9.833  0.0503 -0.4035  0.1733
  822MOL0     C13331  10.786   7.630   9.850  0.5187 -0.6575  1.5334
  822MOL0     C13332  10.689   7.586   9.935 -0.0355  1.5885 -0.1112
  822MOL0     C13333  10.615   7.669  10.018 -0.2580 -0.3728  0.9925
  822MOL0     O13334  10.519   7.623  10.104 -0.4244 -0.1712 -0.2359
  822MOL0     C13335  10.443   7.505  10.075 -1.2862 -0.2761 -0.5940
  822MOL0     C13336  10.318   7.543   9.991 -0.3835  0.9266 -0.7125
  822MOL0     C13337  10.232   7.650  10.060  0.1210 -0.2440  0.3959
  822MOL0     C13338  10.090   7.665  10.007 -0.0569  0.2334 -0.3292
  822MOL0     C13339  10.081   7.759   9.879  0.4275 -0.0123 -0.4103
  822MOL0     C13340   9.942   7.784   9.824 -1.1812  0.7005 -0.4817
  822MOL0     C13341   9.922   7.814   9.674  0.0169  0.1421  0.2222
  822MOL0     C13342   9.977   7.947   9.622  0.7356  0.6211 -0.4205
  822MOL0    Cl13343   9.882   8.075   9.712 -0.0125 -0.0437 -0.2150
  822MOL0     C13344  10.646   7.806  10.010  0.1158 -0.5367 -0.6831
  822MOL0     C13345  10.743   7.853   9.916 -0.6818 -0.4502 -0.4756
  822MOL0     O13346  11.023   7.649   9.682 -0.6374 -0.2225  0.3372
  822MOL0     C13347  11.147   7.977   9.741  0.1108  0.0429 -0.0401
  822MOL0     C13348  11.232   8.076   9.693 -1.1577  0.5721  0.1479
  822MOL0     N13349  11.584   8.622   9.503  0.1919  0.3438 -0.3536
  822MOL0     N13350  11.650   8.659   9.606 -0.2177 -0.4559  0.4416
  822MOL0     C13351  10.869   8.217   9.909 -0.5506 -0.3223  0.0376
  822MOL0     C13352  10.733   8.226   9.920  0.2291  0.4058  0.2350
  822MOL0     C13353  10.308   8.312  10.115 -0.0431 -0.5867 -0.1933
  822MOL0     C13354  10.252   8.427  10.182 -0.2477 -0.4717 -0.4849
  822MOL0     C13355  10.124   8.475  10.144 -0.5435  1.1640 -0.2604
  822MOL0     C13356  10.046   8.418  10.047  0.3498  0.9393  0.1263
  822MOL0     O13357   9.936   8.488  10.021  1.1183  0.1325  0.0332
  822MOL0     C13358   9.872   8.472   9.899 -0.5186  0.0632  0.6740
  822MOL0     C13359   9.775   8.582   9.869 -0.0634  0.4372  0.5720
  822MOL0     C13360   9.720   8.570   9.729 -0.0030 -0.1426 -0.0038
  822MOL0     C13361   9.639   8.446   9.700 -0.3104 -0.2399  0.5161
  822MOL0     C13362   9.514   8.450   9.768  0.7206  0.0704  0.3130
  822MOL0     C13363   9.412   8.495   9.820  0.8275 -0.2379  0.1878
  822MOL0     C13364  10.098   8.301   9.978 -0.0247 -0.0665  0.4843
  822MOL0     C13365  10.227   8.252  10.008 -0.2999  0.3760  0.4340
  822MOL0     C13366  10.273   8.123   9.940 -0.4728  0.9823  0.0763
  822MOL0     H13367  10.703   8.217  10.264  2.6777 -1.4854  1.0133
  822MOL0     H13368  10.925   8.165  10.236  1.5450 -1.1134 -0.9352
  822MOL0     H13369  11.115   8.001  10.113 -0.5232 -0.0129  1.0764
  822MOL0     H13370  11.129   8.149  10.214 -0.8822 -0.1946 -0.1131
  822MOL0     H13371  11.353   8.040  10.156  3.6274  2.3817 -0.3128
  822MOL0     H13372  11.323   8.062   9.987  1.5102 -0.1540  0.4755
  822MOL0     H13373  11.293   8.304  10.017 -0.7669  0.7211  0.2855
  822MOL0     H13374  11.342   8.278  10.195 -1.4787 -0.8478  0.4653
  822MOL0     H13375  11.557   8.186  10.092 -0.2719  0.7827  0.8562
  822MOL0     H13376  11.478   8.216   9.931 -0.5870 -0.7934  0.3761
  822MOL0     H13377  11.583   8.427  10.120  1.9508 -3.2442  1.5302
  822MOL0     H13378  11.471   8.442   9.976  0.4499  0.4594 -0.3330
  822MOL0     H13379  11.763   8.321   9.985  0.6933  0.7307 -1.0243
  822MOL0     H13380  11.674   8.317   9.847 -0.8218 -0.2791  0.6380
  822MOL0     H13381  11.827   8.502   9.831 -1.7187  2.2747 -1.8578
  822MOL0     H13382  11.809   8.555   9.980  1.5537  3.7406 -2.4587
  822MOL0     H13383  11.558   8.629   9.922  0.8405 -0.2347  0.8263
  822MOL0     H13384  11.704   8.703   9.856 -0.7789 -0.6036  0.7773
  822MOL0     H13385  11.432   8.444   9.731  1.9908 -1.1468  2.2426
  822MOL0     H13386  11.316   8.530   9.412 -0.5540 -1.8405 -2.8858
  822MOL0     H13387  11.344   8.387   9.513 -0.5693  0.3100 -0.1837
  822MOL0     H13388  11.365   8.334   9.287  0.8645 -1.1550 -1.2343
  822MOL0     H13389  11.503   8.457   9.267 -0.7009 -1.7168 -1.7918
  822MOL0     H13390  11.612   8.248   9.297 -2.1454  0.2896 -1.3726
  822MOL0     H13391  11.601   8.300   9.471  0.3450  2.1761 -1.0318
  822MOL0     H13392  11.408   8.121   9.338 -1.3873  1.7146  0.3823
  822MOL0     H13393  11.540   8.066   9.453  0.6202  1.1833  2.1683
  822MOL0     H13394  11.314   7.944   9.397 -1.5694 -0.5952 -1.4003
  822MOL0     H13395  11.177   7.755   9.329  3.3500 -2.0215  0.9992
  822MOL0     H13396  11.032   7.746   9.426  0.1301 -1.2094  1.2575
  822MOL0     H13397  11.166   7.648   9.477  1.7262  0.0402  0.5497
  822MOL0     H13398  10.836   7.558   9.785  1.9496  2.7133 -1.4899
  822MOL0     H13399  10.671   7.479   9.929  0.1634  1.5030  0.6682
  822MOL0     H13400  10.499   7.423  10.028 -1.9146 -1.0690 -0.0035
  822MOL0     H13401  10.413   7.456  10.169 -0.7849  0.5995  0.0321
  822MOL0     H13402  10.346   7.592   9.897 -1.7802  2.5566 -0.3387
  822MOL0     H13403  10.265   7.449   9.970  2.0945 -0.8667  0.5850
  822MOL0     H13404  10.291   7.742  10.061  0.7616 -0.6565  0.5770
  822MOL0     H13405  10.224   7.620  10.165  0.3923 -1.5515  0.0617
  822MOL0     H13406  10.027   7.698  10.090 -0.2381 -0.9049 -0.0005
  822MOL0     H13407  10.046   7.568   9.983 -2.4792  1.0334  0.5927
  822MOL0     H13408  10.127   7.854   9.909  0.2575  0.0742 -0.4197
  822MOL0     H13409  10.140   7.725   9.794  0.7642  1.3788 -0.7681
  822MOL0     H13410   9.891   7.857   9.887  1.9532  1.0059  1.9866
  822MOL0     H13411   9.885   7.693   9.842 -0.3838 -0.4859 -3.3735
  822MOL0     H13412   9.818   7.813   9.643  0.4384 -1.0970 -1.2555
  822MOL0     H13413   9.971   7.742   9.609  1.2634  2.7582 -1.9482
  822MOL0     H13414   9.955   7.950   9.515  3.5455 -0.4924 -1.1381
  822MOL0     H13415  10.085   7.950   9.642  1.2590 -1.4144 -2.5027
  822MOL0     H13416  10.591   7.877  10.072  1.8925  2.0605 -1.8727
  822MOL0     H13417  10.769   7.958   9.907  0.8681 -0.6433  1.1710
  822MOL0     H13418  11.104   7.995   9.838 -0.6663 -1.8783  0.0102
  822MOL0     H13419  11.263   8.165   9.747  2.3366 -0.2236 -0.3064
  822MOL0     H13420  10.907   8.222   9.807 -0.6908  0.8339  0.0349
  822MOL0     H13421  10.667   8.239   9.835  0.7622  3.3640  0.1376
  822MOL0     H13422  10.315   8.478  10.254 -0.2675  0.0085 -0.8028
  822MOL0     H13423  10.079   8.561  10.193 -1.0208  0.7338  0.0621
  822MOL0     H13424   9.942   8.480   9.815 -1.5957 -1.2242 -0.3934
  822MOL0     H13425   9.825   8.374   9.889  0.8218 -0.5111 -0.1745
  822MOL0     H13426   9.824   8.680   9.867  0.8340  0.0140 -1.7917
  822MOL0     H13427   9.694   8.588   9.942  2.1448  0.0513  3.2179
  822MOL0     H13428   9.652   8.654   9.718  0.8902  0.6914  0.6329
  822MOL0     H13429   9.802   8.584   9.658  0.5663  1.4993  0.9171
  822MOL0     H13430   9.699   8.361   9.735 -0.0710  0.0834  0.9072
  822MOL0     H13431   9.617   8.435   9.593  0.6045 -0.0407  0.2946
  822MOL0     H13432   9.315   8.528   9.852  0.0092 -1.5304 -0.8086
  822MOL0     H13433  10.046   8.253   9.895  0.0309 -1.2708  1.1225
  822MOL0     H13434  10.183   8.082   9.895  1.3282 -0.9979 -1.9850
  822MOL0     H13435  10.346   8.138   9.860  0.1100  1.8989  0.7553
  822MOL0     H13436  10.309   8.050  10.014 -1.5955  0.0280 -0.2828
  823MOL0     O13437   3.499   2.171   8.224  0.4162 -0.2272  0.3115
  823MOL0     C13438   3.460   2.286   8.203 -0.3788  0.9502  0.6181
  823MOL0     O13439   3.529   2.384   8.143 -0.6687 -0.4146 -0.6987
  823MOL0     C13440   3.650   2.342   8.085  0.1967 -0.0489 -0.5057
  823MOL0     C13441   3.765   2.306   8.165  0.6016 -0.2513 -0.4912
  823MOL0     C13442   3.886   2.274   8.099  0.4708 -0.4623 -0.0187
  823MOL0     C13443   3.898   2.290   7.962  0.5380  0.6158  0.3165
  823MOL0     O13444   4.018   2.247   7.911 -0.0193 -0.7303  0.6372
  823MOL0     C13445   4.070   2.320   7.801  0.1410  0.4191  0.2277
  823MOL0     C13446   4.208   2.271   7.749 -0.3228  0.5603  0.1792
  823MOL0     C13447   4.312   2.266   7.863  0.4286  0.4677  0.6459
  823MOL0     C13448   4.462   2.239   7.816  0.1772 -0.0222  0.2487
  823MOL0     C13449   4.537   2.222   7.944 -0.0749  0.5418  0.1548
  823MOL0     C13450   4.686   2.228   7.899  0.9094 -0.2518  0.0291
  823MOL0     C13451   4.788   2.197   8.016 -0.5679 -0.0807  0.4247
  823MOL0     C13452   4.930   2.242   7.971 -0.0677  0.1547 -0.2976
  823MOL0     N13453   4.970   2.185   7.841 -0.5133 -0.1968 -0.1814
  823MOL0     C13454   4.963   2.241   7.717  0.4547  0.5792 -0.0372
  823MOL0     C13455   4.989   2.139   7.633  0.2902 -0.1261 -0.5383
  823MOL0     C13456   4.987   2.134   7.485 -0.0698 -0.1869  0.4404
  823MOL0     C13457   4.877   2.048   7.429 -0.4564  0.6124 -0.7812
  823MOL0     C13458   4.734   2.084   7.487 -0.1751 -0.0502 -0.2842
  823MOL0     C13459   4.627   1.997   7.423 -0.9990  0.4352  0.8497
  823MOL0     O13460   4.495   2.019   7.469  0.2575  0.0395  0.4484
  823MOL0     C13461   4.396   1.944   7.413  0.4371  0.7689  0.2280
  823MOL0     C13462   4.411   1.823   7.343  0.5023  0.4526 -0.0867
  823MOL0     C13463   4.300   1.755   7.288 -0.5583 -0.4771  0.0317
  823MOL0     C13464   4.315   1.653   7.182  0.5069 -0.6092  0.2919
  823MOL0     C13465   4.172   1.799   7.320  1.2734 -0.5681  0.0230
  823MOL0     C13466   4.043   1.744   7.271  0.8025  0.3797 -0.1004
  823MOL0     O13467   3.938   1.831   7.238  0.3617  0.2940 -0.1446
  823MOL0     C13468   3.828   1.771   7.181 -0.0880 -0.0736 -0.5137
  823MOL0     C13469   3.697   1.779   7.245  0.4209  0.6896  0.8016
  823MOL0     C13470   3.583   1.725   7.181  0.2568 -0.3548  0.2895
  823MOL0     C13471   3.595   1.655   7.059  0.2254 -0.4103  0.1348
  823MOL0     O13472   3.506   1.576   6.987  0.4412 -0.3233  0.2403
  823MOL0     C13473   3.366   1.590   7.026  0.5398  0.2532 -0.6153
  823MOL0     C13474   3.275   1.551   6.910 -0.0235 -0.1827  0.9251
  823MOL0     C13475   3.129   1.587   6.917 -0.0446 -0.2007  0.1603
  823MOL0     C13476   3.067   1.581   6.781 -0.4858 -0.4687  0.2073
  823MOL0     C13477   2.930   1.654   6.789 -0.0334  0.0101  0.6552
  823MOL0     C13478   2.865   1.647   6.651  0.0017 -0.4674  0.1858
  823MOL0     C13479   2.723   1.705   6.645  0.5323  0.8712  0.2578
  823MOL0     C13480   2.716   1.845   6.702  0.1443  0.1019 -0.3334
  823MOL0    Cl13481   2.564   1.924   6.679 -0.1245  0.0449  0.0793
  823MOL0     C13482   3.727   1.646   7.010 -0.8834  0.7931  0.0864
  823MOL0     C13483   3.838   1.704   7.062  0.5660 -1.3866 -0.7893
  823MOL0     O13484   4.036   1.618   7.271 -0.1883 -0.3232  0.0017
  823MOL0     C13485   4.158   1.926   7.381 -0.4276 -0.2326 -0.1009
  823MOL0     C13486   4.272   2.003   7.420  0.3687  0.1532 -0.2733
  823MOL0     N13487   5.020   2.035   7.710  0.4147  0.4004  0.3583
  823MOL0     N13488   5.010   2.054   7.832 -0.6861  0.3321 -1.3579
  823MOL0     C13489   3.789   2.347   7.891 -0.0959  0.7034 -0.0836
  823MOL0     C13490   3.663   2.363   7.955  0.3367  0.1097  0.1980
  823MOL0     C13491   3.323   2.311   8.270 -0.4618  0.1656  0.0874
  823MOL0     C13492   3.257   2.222   8.349  0.4493  0.6377  0.1037
  823MOL0     C13493   3.154   2.262   8.441  0.3525 -0.1240 -0.1728
  823MOL0     C13494   3.093   2.389   8.429 -0.2924  0.1804  0.4594
  823MOL0     O13495   2.982   2.419   8.505 -0.4423 -0.2422 -0.2333
  823MOL0     C13496   2.859   2.378   8.452  0.6196 -0.0550  0.4849
  823MOL0     C13497   2.811   2.476   8.351 -0.0457 -0.6199  0.3741
  823MOL0     C13498   2.674   2.439   8.299 -0.9840 -0.3827  0.7674
  823MOL0     C13499   2.628   2.546   8.189 -0.1085 -0.1249  0.1465
  823MOL0     C13500   2.480   2.534   8.169 -0.3025 -0.1066 -0.5195
  823MOL0     C13501   2.363   2.506   8.162 -0.1009  0.2445 -0.0203
  823MOL0     C13502   3.159   2.479   8.346  0.2744  0.7116  0.3687
  823MOL0     C13503   3.262   2.441   8.258 -0.4494  0.1482  0.2135
  823MOL0     C13504   3.304   2.545   8.156 -0.0294 -0.2286  0.1980
  823MOL0     H13505   3.745   2.307   8.272  0.4545  2.6120 -0.4748
  823MOL0     H13506   3.975   2.247   8.154  1.2843  2.2346  0.1103
  823MOL0     H13507   4.070   2.426   7.828 -0.7182 -0.3877  3.8472
  823MOL0     H13508   3.997   2.315   7.719  1.6929 -1.0773 -1.1523
  823MOL0     H13509   4.194   2.168   7.715 -0.2931  1.1364 -1.6812
  823MOL0     H13510   4.241   2.339   7.671 -0.8643 -0.1364 -0.6781
  823MOL0     H13511   4.293   2.359   7.917 -0.8120 -0.4251  1.8051
  823MOL0     H13512   4.286   2.184   7.930 -2.0510  0.3721 -0.3020
  823MOL0     H13513   4.466   2.144   7.761  3.7020 -0.6168  1.2748
  823MOL0     H13514   4.496   2.322   7.753  1.4997 -0.3479  0.5157
  823MOL0     H13515   4.506   2.126   7.986 -2.5768  0.7716 -0.9962
  823MOL0     H13516   4.516   2.296   8.022  2.2838  0.8521  0.5693
  823MOL0     H13517   4.714   2.159   7.819  0.9253 -2.7527  2.0389
  823MOL0     H13518   4.688   2.332   7.867 -0.8691  0.4335  1.8871
  823MOL0     H13519   4.781   2.089   8.030  1.1735 -0.6315 -2.2276
  823MOL0     H13520   4.767   2.240   8.115  2.9783 -1.9868  2.2044
  823MOL0     H13521   4.936   2.350   7.962  1.4349  0.0778 -0.4065
  823MOL0     H13522   5.006   2.219   8.046  0.1490  2.8749  0.4167
  823MOL0     H13523   4.936   2.337   7.675 -0.3531  0.3295 -0.1197
  823MOL0     H13524   5.082   2.098   7.444  1.1880  1.3704  1.8295
  823MOL0     H13525   4.982   2.233   7.440  0.2016 -1.3162 -2.2306
  823MOL0     H13526   4.865   2.054   7.321 -0.9143  2.8802 -0.6492
  823MOL0     H13527   4.910   1.945   7.447 -0.7366  0.4069 -1.4337
  823MOL0     H13528   4.739   2.064   7.594  0.6499 -1.1769 -0.5099
  823MOL0     H13529   4.712   2.190   7.476  1.8935  0.2571 -2.2118
  823MOL0     H13530   4.630   2.011   7.315 -1.0516 -0.1833  0.7687
  823MOL0     H13531   4.667   1.898   7.445  0.9494  1.0818  0.4542
  823MOL0     H13532   4.513   1.794   7.318  0.1461 -0.2152 -0.8256
  823MOL0     H13533   4.271   1.679   7.085  2.5285  3.8493  0.3320
  823MOL0     H13534   4.269   1.563   7.223  1.9164 -0.3596  2.5705
  823MOL0     H13535   4.423   1.640   7.169  0.8195  1.9467 -0.1406
  823MOL0     H13536   3.669   1.841   7.329 -1.9026 -2.4384  2.5449
  823MOL0     H13537   3.490   1.748   7.231 -1.0711 -1.9273 -1.3675
  823MOL0     H13538   3.346   1.528   7.115 -0.8164  1.8235  0.2185
  823MOL0     H13539   3.354   1.697   7.043  3.1194  0.6184 -0.7815
  823MOL0     H13540   3.324   1.590   6.819  0.3812  0.0919  1.2567
  823MOL0     H13541   3.281   1.443   6.898 -0.0144  0.0176 -1.4968
  823MOL0     H13542   3.132   1.689   6.957  0.3320  0.4524 -1.4496
  823MOL0     H13543   3.081   1.514   6.983 -0.2989 -2.0682 -1.9589
  823MOL0     H13544   3.046   1.478   6.752 -0.7911 -0.7554  1.4068
  823MOL0     H13545   3.135   1.629   6.710 -0.9546 -1.2395 -0.7965
  823MOL0     H13546   2.858   1.595   6.846 -0.3914 -2.6953 -2.3097
  823MOL0     H13547   2.924   1.757   6.824 -2.3554  0.3237 -0.4441
  823MOL0     H13548   2.858   1.541   6.628  0.2533 -0.4000 -0.2169
  823MOL0     H13549   2.925   1.698   6.575 -0.9612  0.6955  0.1847
  823MOL0     H13550   2.657   1.642   6.706  0.1485  0.9409 -0.0768
  823MOL0     H13551   2.691   1.705   6.540  0.0913  0.3864  0.3837
  823MOL0     H13552   2.795   1.919   6.689 -1.1643  1.3980 -1.1689
  823MOL0     H13553   2.715   1.827   6.810 -3.0373  0.0372 -0.2983
  823MOL0     H13554   3.736   1.589   6.918  0.5013  0.7723  0.2212
  823MOL0     H13555   3.939   1.697   7.022  1.0967 -1.1836  0.4803
  823MOL0     H13556   4.058   1.967   7.388 -0.9064 -1.0421 -1.7063
  823MOL0     H13557   4.263   2.095   7.478  2.3964  0.4026 -0.3132
  823MOL0     H13558   3.789   2.373   7.786 -0.8703  2.0229  0.2177
  823MOL0     H13559   3.579   2.397   7.895  0.4748 -1.0558 -0.7096
  823MOL0     H13560   3.298   2.122   8.354 -0.7527  0.1074 -0.2885
  823MOL0     H13561   3.103   2.187   8.500  0.2059 -1.1968 -1.6335
  823MOL0     H13562   2.875   2.280   8.406 -0.1702 -0.8868  1.9115
  823MOL0     H13563   2.779   2.364   8.526 -3.5087  1.3550 -3.2470
  823MOL0     H13564   2.869   2.483   8.259  0.6269  1.5743  0.9172
  823MOL0     H13565   2.817   2.573   8.401 -1.4592  0.5810 -1.6260
  823MOL0     H13566   2.668   2.335   8.266 -2.5738 -0.1740  0.3407
  823MOL0     H13567   2.607   2.451   8.384 -4.0209 -0.2276 -1.5139
  823MOL0     H13568   2.682   2.532   8.095  1.4012  3.1151  0.3988
  823MOL0     H13569   2.653   2.644   8.230  1.1909 -0.8083  1.0983
  823MOL0     H13570   2.258   2.486   8.160 -0.2994  1.2205 -0.1446
  823MOL0     H13571   3.117   2.579   8.351  1.3246  1.2680 -1.3482
  823MOL0     H13572   3.305   2.500   8.056  3.2212  1.0988 -0.4878
  823MOL0     H13573   3.239   2.633   8.144  3.1943  2.1400 -1.4751
  823MOL0     H13574   3.403   2.586   8.175  2.5226 -4.9075 -1.4043
  824MOL0     O13575   1.643   4.359   3.862 -0.1086  0.4398 -0.2613
  824MOL0     C13576   1.573   4.361   3.759 -0.6004 -0.2118  1.0612
  824MOL0     O13577   1.611   4.408   3.642 -0.8166 -0.1615  0.1749
  824MOL0     C13578   1.737   4.449   3.617 -0.2566 -0.8257  0.5067
  824MOL0     C13579   1.854   4.369   3.656  0.1925 -0.0617  0.5670
  824MOL0     C13580   1.980   4.422   3.627 -0.2020 -0.5505 -0.1416
  824MOL0     C13581   1.990   4.538   3.548  1.5610  0.4660  0.1505
  824MOL0     O13582   2.111   4.584   3.498 -0.8121  0.6670 -0.0216
  824MOL0     C13583   2.222   4.481   3.485  0.3713 -0.2964 -0.1102
  824MOL0     C13584   2.343   4.564   3.429  0.5394  1.4275  0.2576
  824MOL0     C13585   2.397   4.673   3.518  0.3459 -0.2287 -1.0704
  824MOL0     C13586   2.450   4.775   3.417 -0.8838  0.6063 -0.7941
  824MOL0     C13587   2.561   4.856   3.493  0.2232 -0.8347  0.3792
  824MOL0     C13588   2.599   4.971   3.405  0.0527  0.6224 -0.9766
  824MOL0     C13589   2.714   5.059   3.459  0.2042 -0.8489 -0.1934
  824MOL0     C13590   2.761   5.145   3.338  0.6725  0.4567 -0.0447
  824MOL0     N13591   2.881   5.231   3.359 -0.4243  0.1316 -0.0639
  824MOL0     C13592   3.006   5.179   3.385  0.3321 -0.5483  0.1565
  824MOL0     C13593   3.089   5.285   3.370  0.7145  0.6575  0.5051
  824MOL0     C13594   3.236   5.277   3.399 -0.4000  0.5889  0.5584
  824MOL0     C13595   3.302   5.141   3.384 -0.2294 -0.0765  0.2217
  824MOL0     C13596   3.456   5.147   3.373  0.2890  0.6941  0.2217
  824MOL0     C13597   3.513   5.038   3.283 -0.3746  0.0950 -0.8458
  824MOL0     O13598   3.496   4.910   3.352 -0.4390  0.4908 -1.0770
  824MOL0     C13599   3.489   4.802   3.265 -0.8681  0.5330  0.7448
  824MOL0     C13600   3.386   4.769   3.181  0.2414  0.3787  0.0249
  824MOL0     C13601   3.397   4.656   3.092 -0.3484  0.7511 -0.0139
  824MOL0     C13602   3.272   4.638   3.010  0.0403 -0.5257  0.1825
  824MOL0     C13603   3.510   4.561   3.112  0.2547  0.1652  0.0914
  824MOL0     C13604   3.532   4.440   3.030 -0.4451 -0.5409 -0.2825
  824MOL0     O13605   3.621   4.360   3.087  0.2936 -0.0403  0.9588
  824MOL0     C13606   3.661   4.248   3.017  0.3181  0.1903  0.7630
  824MOL0     C13607   3.595   4.125   3.040 -0.2299  0.1057 -0.3027
  824MOL0     C13608   3.642   4.008   2.969  0.2700  0.3518 -0.1067
  824MOL0     C13609   3.741   4.022   2.872  0.6389  0.3229 -0.1663
  824MOL0     O13610   3.777   3.912   2.802  0.6321  0.1894  0.7734
  824MOL0     C13611   3.705   3.916   2.674 -0.3360  0.5384  0.3593
  824MOL0     C13612   3.686   3.775   2.631  1.1000  0.0799 -0.4858
  824MOL0     C13613   3.593   3.704   2.732  0.6563  0.6241  0.1431
  824MOL0     C13614   3.568   3.557   2.700  0.1425  0.1724  1.4693
  824MOL0     C13615   3.440   3.489   2.743  0.1577  0.4188  0.3309
  824MOL0     C13616   3.417   3.359   2.664  0.1367  0.8292 -0.2528
  824MOL0     C13617   3.269   3.309   2.684 -0.0233  1.0271 -0.2154
  824MOL0     C13618   3.250   3.152   2.683  0.2366 -0.1141  0.7532
  824MOL0    Cl13619   3.367   3.070   2.789 -0.5505 -0.1309  0.7907
  824MOL0     C13620   3.808   4.142   2.857 -0.3023  0.5164  0.2627
  824MOL0     C13621   3.770   4.257   2.925  0.0885  0.1066  0.2460
  824MOL0     O13622   3.463   4.418   2.932  0.0507 -0.2467 -0.3597
  824MOL0     C13623   3.613   4.605   3.200  0.1963  1.1460  1.1673
  824MOL0     C13624   3.598   4.721   3.267  0.0838 -0.0547  1.0146
  824MOL0     N13625   3.020   5.395   3.322 -0.3818  0.7571  0.5280
  824MOL0     N13626   2.893   5.367   3.326  0.4060 -0.1539  0.0901
  824MOL0     C13627   1.875   4.612   3.506  0.4119  0.4831  0.6535
  824MOL0     C13628   1.750   4.570   3.548  0.5913 -0.1243  0.4953
  824MOL0     C13629   1.435   4.303   3.763  0.6999 -0.3339 -0.0872
  824MOL0     C13630   1.324   4.374   3.705 -0.4242  1.2296 -0.3736
  824MOL0     C13631   1.192   4.320   3.702  0.8184  0.3528  0.3418
  824MOL0     C13632   1.170   4.199   3.767 -0.0002 -1.1974  0.1172
  824MOL0     O13633   1.047   4.134   3.769  0.1409  0.4736 -0.0578
  824MOL0     C13634   0.933   4.195   3.828  0.2709 -0.2244  0.8115
  824MOL0     C13635   0.825   4.204   3.736 -0.0263  0.3834 -0.4210
  824MOL0     C13636   0.780   4.072   3.683 -0.3246  0.3648  0.2850
  824MOL0     C13637   0.681   4.080   3.570 -0.5517  0.3577 -0.4124
  824MOL0     C13638   0.543   4.114   3.618  1.3179  0.0226 -0.9573
  824MOL0     C13639   0.429   4.136   3.655 -0.5754 -0.9775  0.1960
  824MOL0     C13640   1.277   4.129   3.827 -1.1931  0.0892  0.4641
  824MOL0     C13641   1.406   4.182   3.819  0.1104  0.5772 -0.1099
  824MOL0     C13642   1.509   4.089   3.878 -0.2928  0.1792  0.0169
  824MOL0     H13643   1.840   4.272   3.702 -2.4179  0.1850  0.4414
  824MOL0     H13644   2.068   4.366   3.657  0.4834  1.3026  1.5172
  824MOL0     H13645   2.197   4.400   3.416  0.2906  0.0607 -0.5048
  824MOL0     H13646   2.242   4.436   3.583  3.6693 -2.2933 -1.5432
  824MOL0     H13647   2.420   4.488   3.416 -0.6613  0.4551 -1.6819
  824MOL0     H13648   2.315   4.597   3.328 -3.6026 -1.1755  0.3376
  824MOL0     H13649   2.317   4.710   3.583  0.3071 -2.4572  0.2702
  824MOL0     H13650   2.470   4.627   3.584 -0.6752  0.3645  0.5360
  824MOL0     H13651   2.508   4.735   3.333 -0.6743  0.0938 -0.4108
  824MOL0     H13652   2.374   4.838   3.370 -1.2312  1.7630  1.2234
  824MOL0     H13653   2.647   4.793   3.517 -0.7488 -1.0946  3.5276
  824MOL0     H13654   2.514   4.878   3.589  1.4627  1.1039  0.5904
  824MOL0     H13655   2.627   4.925   3.310 -0.2053 -1.0372 -0.2717
  824MOL0     H13656   2.515   5.041   3.401 -0.7873 -0.1754  1.1973
  824MOL0     H13657   2.803   5.003   3.491  0.7628 -2.8177 -4.3914
  824MOL0     H13658   2.675   5.124   3.537 -0.8940  0.9936 -2.1801
  824MOL0     H13659   2.790   5.079   3.256  5.1034  0.4841  1.2823
  824MOL0     H13660   2.686   5.222   3.314  0.9892  2.4086  4.3137
  824MOL0     H13661   3.013   5.077   3.420 -2.2557 -1.7445 -2.3468
  824MOL0     H13662   3.238   5.302   3.505 -0.1194  3.7832 -0.0741
  824MOL0     H13663   3.282   5.352   3.332 -0.8870  0.2806 -0.1368
  824MOL0     H13664   3.257   5.078   3.461 -1.4234 -2.0519 -1.9783
  824MOL0     H13665   3.250   5.110   3.293 -2.8458  2.9283  0.5019
  824MOL0     H13666   3.493   5.240   3.329  0.8116  0.9358  1.1487
  824MOL0     H13667   3.503   5.136   3.471  0.4541  0.5685  0.1291
  824MOL0     H13668   3.467   5.049   3.184  1.1598  0.0319 -1.6027
  824MOL0     H13669   3.619   5.056   3.263  0.3543 -0.1196  2.2666
  824MOL0     H13670   3.301   4.833   3.205  1.1665  1.4241  0.6229
  824MOL0     H13671   3.227   4.539   3.020 -0.9500 -0.6108 -3.5202
  824MOL0     H13672   3.313   4.638   2.908 -3.3734 -2.2096 -1.3428
  824MOL0     H13673   3.188   4.706   3.026 -1.5621 -2.0987 -1.1596
  824MOL0     H13674   3.521   4.112   3.118  1.8378  2.9992  2.3797
  824MOL0     H13675   3.593   3.911   2.980 -1.1329  0.3189 -4.5151
  824MOL0     H13676   3.609   3.967   2.684  0.0791  1.1426  1.5423
  824MOL0     H13677   3.765   3.965   2.596 -2.5059 -0.1827 -1.8563
  824MOL0     H13678   3.628   3.759   2.540 -2.0237  0.2095  1.3278
  824MOL0     H13679   3.788   3.736   2.625  0.9729 -0.8842  2.2983
  824MOL0     H13680   3.498   3.758   2.724 -0.1937 -0.8491  0.0011
  824MOL0     H13681   3.630   3.711   2.835  1.7508  1.4802 -0.2846
  824MOL0     H13682   3.658   3.498   2.723  2.5347  1.4501 -3.1973
  824MOL0     H13683   3.578   3.552   2.591  1.4745 -1.9389  1.6268
  824MOL0     H13684   3.466   3.470   2.848  1.0784 -0.4511 -0.0399
  824MOL0     H13685   3.354   3.557   2.739  0.5270  0.8393 -2.8498
  824MOL0     H13686   3.483   3.282   2.705 -1.1119 -2.2344 -3.4044
  824MOL0     H13687   3.434   3.366   2.556 -0.5754 -0.2310 -0.4511
  824MOL0     H13688   3.199   3.351   2.611  0.3518  2.1261  0.0437
  824MOL0     H13689   3.227   3.341   2.780 -2.5928 -1.1589 -0.4719
  824MOL0     H13690   3.271   3.098   2.590  0.9436 -0.7826  1.2872
  824MOL0     H13691   3.147   3.138   2.718 -2.4234  3.2123 -4.3558
  824MOL0     H13692   3.902   4.145   2.802  1.0905  3.1737  2.5664
  824MOL0     H13693   3.823   4.351   2.915  0.9549 -0.2277  1.4182
  824MOL0     H13694   3.713   4.563   3.207  0.6469  1.3043 -2.4443
  824MOL0     H13695   3.678   4.751   3.335 -1.5417  0.8399  2.6066
  824MOL0     H13696   1.892   4.700   3.445  2.8496  2.3180  3.6327
  824MOL0     H13697   1.660   4.625   3.522  1.1203  0.9795  0.9261
  824MOL0     H13698   1.344   4.472   3.662 -3.8748  1.2397 -2.3556
  824MOL0     H13699   1.106   4.366   3.656 -0.3298 -2.0772 -0.0751
  824MOL0     H13700   0.894   4.141   3.915 -2.1127  0.3161  0.1475
  824MOL0     H13701   0.956   4.294   3.869  0.0941 -0.2955  1.0861
  824MOL0     H13702   0.848   4.274   3.655 -3.3985  0.6237 -1.3495
  824MOL0     H13703   0.733   4.240   3.784  0.0211 -0.2895  0.1779
  824MOL0     H13704   0.873   4.025   3.650  0.1263  1.8115 -0.5938
  824MOL0     H13705   0.739   4.015   3.767 -2.5156 -0.7402 -1.4395
  824MOL0     H13706   0.677   3.981   3.524  3.7113 -0.5038  0.6447
  824MOL0     H13707   0.716   4.160   3.505  0.9006 -0.9243 -1.2813
  824MOL0     H13708   0.334   4.169   3.691  0.3820 -0.6194  2.5845
  824MOL0     H13709   1.258   4.033   3.873 -0.9333 -1.6920 -2.8232
  824MOL0     H13710   1.544   4.112   3.978  1.9474 -3.0294  0.1496
  824MOL0     H13711   1.468   3.988   3.870 -3.7021  1.3395  1.5262
  824MOL0     H13712   1.595   4.097   3.810 -0.4681 -0.5618 -0.3089
  825MOL0     O13713   2.356   8.829   3.321  0.4757 -0.2343 -0.1247
  825MOL0     C13714   2.348   8.833   3.196  0.2159  0.1222 -0.7797
  825MOL0     O13715   2.444   8.895   3.116 -0.0908  0.2790  0.5056
  825MOL0     C13716   2.542   8.961   3.183 -0.3124 -0.6646 -0.3689
  825MOL0     C13717   2.554   9.101   3.183  0.9420  0.3780 -0.0782
  825MOL0     C13718   2.669   9.160   3.248 -0.0875 -0.3303  0.6439
  825MOL0     C13719   2.775   9.088   3.297 -0.9129 -0.4799  1.0458
  825MOL0     O13720   2.872   9.166   3.365 -0.0186  0.1643 -0.1027
  825MOL0     C13721   2.999   9.106   3.369  0.6825 -0.4534 -0.0311
  825MOL0     C13722   3.102   9.210   3.407  0.3230 -0.5065 -0.8634
  825MOL0     C13723   3.086   9.254   3.555 -0.1698 -0.7116 -0.7752
  825MOL0     C13724   3.159   9.390   3.591  0.3182 -0.0379 -1.3700
  825MOL0     C13725   3.312   9.377   3.594 -0.2433  0.1259 -0.5859
  825MOL0     C13726   3.382   9.493   3.644 -0.4679  0.6906 -0.4486
  825MOL0     C13727   3.401   9.610   3.543 -0.9465  0.5499 -0.4699
  825MOL0     C13728   3.451   9.590   3.397  0.7203 -0.4753  0.3354
  825MOL0     N13729   3.586   9.538   3.392  0.8830 -0.0125  0.3692
  825MOL0     C13730   3.636   9.431   3.453  0.3951 -0.6120 -0.8441
  825MOL0     C13731   3.767   9.431   3.430 -0.6131  1.4689  0.0211
  825MOL0     C13732   3.871   9.322   3.458 -0.4688  0.2873 -0.0908
  825MOL0     C13733   3.883   9.337   3.605 -0.3785 -0.1519 -0.5179
  825MOL0     C13734   3.993   9.250   3.679  0.2362 -1.0469 -0.0016
  825MOL0     C13735   3.947   9.107   3.704 -0.2414 -0.0227 -0.3998
  825MOL0     O13736   4.036   9.045   3.804 -0.1437 -0.2994  0.2565
  825MOL0     C13737   4.156   9.003   3.755 -0.0678  0.0077  0.6517
  825MOL0     C13738   4.214   9.015   3.624 -0.3492  0.0129 -0.9363
  825MOL0     C13739   4.350   8.988   3.596 -0.4686  0.0352 -0.2903
  825MOL0     C13740   4.393   9.018   3.458 -0.0387 -0.1359  0.2861
  825MOL0     C13741   4.427   8.927   3.695 -0.0987 -0.2548 -0.5697
  825MOL0     C13742   4.571   8.901   3.681  0.5936  0.0747 -0.3874
  825MOL0     O13743   4.647   8.900   3.789 -0.2875  0.6843 -0.1664
  825MOL0     C13744   4.783   8.903   3.791  0.0583 -0.2806 -0.2790
  825MOL0     C13745   4.873   8.916   3.681  0.4536 -0.6417 -0.2410
  825MOL0     C13746   5.012   8.908   3.697 -0.6900 -0.1816 -0.4043
  825MOL0     C13747   5.070   8.885   3.825 -0.1885  0.4137 -0.0472
  825MOL0     O13748   5.207   8.870   3.843 -0.0938  0.1458  0.1064
  825MOL0     C13749   5.242   8.789   3.966  0.0474  0.4948  0.7450
  825MOL0     C13750   5.393   8.763   3.967  0.0791 -0.1944  0.3487
  825MOL0     C13751   5.447   8.727   4.102 -1.0937  0.1799 -1.5156
  825MOL0     C13752   5.600   8.748   4.091  0.4878  1.0389  0.0879
  825MOL0     C13753   5.667   8.704   4.220 -0.1026  0.1835 -0.1601
  825MOL0     C13754   5.658   8.549   4.235 -0.6925 -0.5263 -0.4199
  825MOL0     C13755   5.742   8.502   4.353  0.1098  0.0138  0.2483
  825MOL0     C13756   5.727   8.363   4.407 -0.1994 -0.2731  0.8361
  825MOL0    Cl13757   5.850   8.328   4.530  0.2358  0.1611  0.1794
  825MOL0     C13758   4.979   8.881   3.940 -1.0082  0.6718  0.8211
  825MOL0     C13759   4.843   8.896   3.919 -0.6628 -0.6617 -0.7822
  825MOL0     O13760   4.612   8.888   3.570  0.4799  0.5573 -0.3061
  825MOL0     C13761   4.368   8.898   3.816  1.5896  0.5750  0.1419
  825MOL0     C13762   4.232   8.930   3.839  0.1027 -0.0040  1.2070
  825MOL0     N13763   3.803   9.546   3.359 -0.2534  0.5404  0.1213
  825MOL0     N13764   3.689   9.603   3.341 -0.3418  0.4978  0.0451
  825MOL0     C13765   2.775   8.948   3.274  0.0334 -0.2788 -0.6095
  825MOL0     C13766   2.654   8.889   3.217 -0.1368 -0.2597 -0.4524
  825MOL0     C13767   2.238   8.762   3.122 -0.3496  0.2045 -0.0967
  825MOL0     C13768   2.233   8.784   2.981 -0.2053  0.6895  0.5012
  825MOL0     C13769   2.131   8.735   2.903  0.0514  0.2807 -0.1027
  825MOL0     C13770   2.035   8.644   2.958 -0.9924 -0.7145  0.3544
  825MOL0     O13771   1.945   8.575   2.880  0.1197  0.3613  0.5199
  825MOL0     C13772   1.885   8.642   2.764  0.1510  0.3505  0.0182
  825MOL0     C13773   1.761   8.576   2.701  0.5240 -0.4101  0.9601
  825MOL0     C13774   1.695   8.650   2.579  0.6824 -0.4840  0.2421
  825MOL0     C13775   1.594   8.563   2.508  0.2194 -0.2468 -0.3176
  825MOL0     C13776   1.462   8.589   2.564  0.0587 -0.0892  1.6192
  825MOL0     C13777   1.362   8.615   2.619  0.1925 -0.4655 -0.4223
  825MOL0     C13778   2.048   8.616   3.092 -0.3985  0.1628  0.0587
  825MOL0     C13779   2.150   8.669   3.178 -0.5657 -0.7974  0.6076
  825MOL0     C13780   2.148   8.617   3.321 -0.7637  0.4654 -0.3976
  825MOL0     H13781   2.471   9.167   3.159  1.3337  1.3793  1.2043
  825MOL0     H13782   2.671   9.268   3.260  1.4260 -0.1722 -0.6969
  825MOL0     H13783   3.012   9.060   3.271 -1.8540 -0.4828 -0.4085
  825MOL0     H13784   3.007   9.031   3.448  0.7446 -0.4876 -0.0693
  825MOL0     H13785   3.206   9.176   3.402  0.3399 -0.7304  0.4934
  825MOL0     H13786   3.088   9.295   3.340 -3.1468  0.7956  1.2126
  825MOL0     H13787   2.980   9.277   3.573  0.0140  1.3195 -1.9800
  825MOL0     H13788   3.123   9.177   3.622 -0.5184 -0.3207 -0.1205
  825MOL0     H13789   3.133   9.463   3.514 -2.5803 -0.1725 -0.6288
  825MOL0     H13790   3.114   9.419   3.686 -1.0266 -1.0800 -1.6518
  825MOL0     H13791   3.347   9.340   3.497  0.0568  1.2123 -0.9064
  825MOL0     H13792   3.327   9.299   3.670 -0.0058 -0.4911 -1.2504
  825MOL0     H13793   3.330   9.535   3.730 -1.9215 -1.6026 -0.1184
  825MOL0     H13794   3.481   9.464   3.680 -0.9851 -0.3251  0.1863
  825MOL0     H13795   3.470   9.681   3.590 -1.7034  0.7490  0.3828
  825MOL0     H13796   3.305   9.663   3.535 -1.8042 -0.8416  0.2045
  825MOL0     H13797   3.390   9.524   3.336  1.6308  1.5930 -3.1204
  825MOL0     H13798   3.450   9.689   3.350 -2.4270 -1.8467 -2.9566
  825MOL0     H13799   3.584   9.356   3.511  0.6396 -0.3231 -0.2460
  825MOL0     H13800   3.964   9.329   3.402 -1.3454  0.6987 -1.5355
  825MOL0     H13801   3.839   9.221   3.430 -1.9478  1.0326 -1.2423
  825MOL0     H13802   3.905   9.441   3.630  1.6257 -1.3202  3.2162
  825MOL0     H13803   3.780   9.308   3.631 -1.2766  1.7696 -1.7429
  825MOL0     H13804   4.087   9.267   3.626 -0.3198  1.1963 -0.4084
  825MOL0     H13805   4.000   9.302   3.775 -2.1101 -1.0290  0.2207
  825MOL0     H13806   3.841   9.104   3.731  0.0645  0.5004  0.9638
  825MOL0     H13807   3.956   9.051   3.611 -0.3654 -2.3522  0.9122
  825MOL0     H13808   4.142   9.051   3.552 -1.9196  3.4885  2.0605
  825MOL0     H13809   4.314   9.064   3.398 -0.5792 -2.0411 -0.5614
  825MOL0     H13810   4.410   8.920   3.410 -1.2031 -1.4881  2.4690
  825MOL0     H13811   4.485   9.075   3.450  0.7811 -1.3622  0.6568
  825MOL0     H13812   4.832   8.915   3.580 -2.4423 -0.4827  0.8564
  825MOL0     H13813   5.074   8.905   3.608 -1.2690 -0.0818 -0.8130
  825MOL0     H13814   5.229   8.857   4.051 -2.1546  2.9204 -1.3569
  825MOL0     H13815   5.183   8.702   3.994  0.2541 -0.2058 -0.8688
  825MOL0     H13816   5.417   8.678   3.903  0.6726  0.9808 -1.0289
  825MOL0     H13817   5.445   8.849   3.924  1.9473 -2.1976 -1.6096
  825MOL0     H13818   5.412   8.628   4.131  0.5120  0.3704  1.4959
  825MOL0     H13819   5.415   8.799   4.178  0.3485  0.3441 -1.0132
  825MOL0     H13820   5.620   8.855   4.080  2.9255  0.5359 -0.9430
  825MOL0     H13821   5.638   8.692   4.006 -0.2773  1.5588 -0.6107
  825MOL0     H13822   5.772   8.733   4.213 -0.8376  2.8921 -1.5159
  825MOL0     H13823   5.621   8.751   4.307 -0.3187  0.6095 -0.5034
  825MOL0     H13824   5.709   8.506   4.149  1.7605  0.3880  0.4948
  825MOL0     H13825   5.558   8.509   4.256 -0.8851 -0.2852 -0.8761
  825MOL0     H13826   5.733   8.568   4.440  0.0856 -0.4890  0.6286
  825MOL0     H13827   5.847   8.519   4.328 -0.1207  1.3603  0.1334
  825MOL0     H13828   5.735   8.292   4.324 -2.2896 -0.3479  0.6489
  825MOL0     H13829   5.627   8.337   4.441 -0.0910 -1.1983  0.4999
  825MOL0     H13830   5.011   8.861   4.042 -1.0829 -2.7001  0.2953
  825MOL0     H13831   4.786   8.901   4.012 -0.2855  3.0047 -0.5931
  825MOL0     H13832   4.412   8.840   3.896  1.8390 -1.7756 -1.5777
  825MOL0     H13833   4.179   8.916   3.933 -1.2109  0.6074  0.5869
  825MOL0     H13834   2.842   8.885   3.331 -1.8345 -1.2732  0.6010
  825MOL0     H13835   2.644   8.782   3.203 -1.1553 -0.1009 -1.0977
  825MOL0     H13836   2.306   8.846   2.931 -1.1674  1.1317 -0.3972
  825MOL0     H13837   2.135   8.754   2.797 -2.4383  1.4667 -0.0600
  825MOL0     H13838   1.849   8.739   2.801  0.0425  0.3261 -0.0246
  825MOL0     H13839   1.962   8.662   2.689 -0.2473  0.3575 -0.3849
  825MOL0     H13840   1.685   8.571   2.780  1.4857 -1.4004  1.8411
  825MOL0     H13841   1.787   8.476   2.667 -1.5987  0.3009 -3.3554
  825MOL0     H13842   1.651   8.743   2.617  1.6276 -0.3216  0.9660
  825MOL0     H13843   1.777   8.677   2.513 -2.4617  0.6183 -3.6038
  825MOL0     H13844   1.614   8.457   2.522  1.3742  0.1312  1.1444
  825MOL0     H13845   1.583   8.594   2.404 -3.9498  1.3286  0.3587
  825MOL0     H13846   1.273   8.623   2.679  0.2228 -2.2262 -0.0912
  825MOL0     H13847   1.962   8.558   3.124 -0.6827 -0.8334 -2.3390
  825MOL0     H13848   2.251   8.592   3.347 -0.0462  0.7679 -2.6978
  825MOL0     H13849   2.102   8.687   3.392  2.7154  0.5993  2.0013
  825MOL0     H13850   2.095   8.521   3.326 -0.9013  0.5479 -0.2593
  826MOL0     O13851   3.782   1.507   9.294  0.1200  0.3240  0.0067
  826MOL0     C13852   3.793   1.419   9.383 -1.6795 -0.9843  0.4078
  826MOL0     O13853   3.917   1.365   9.414 -0.3856 -0.1836  0.1198
  826MOL0     C13854   4.025   1.409   9.352 -0.0653  0.1636  0.6928
  826MOL0     C13855   4.124   1.321   9.319 -0.0989  0.7860 -0.0275
  826MOL0     C13856   4.239   1.361   9.258  0.2203 -0.4208  0.5368
  826MOL0     C13857   4.267   1.497   9.231 -0.0702  1.4746  0.2974
  826MOL0     O13858   4.381   1.550   9.179  0.5898 -0.2661  0.0167
  826MOL0     C13859   4.492   1.467   9.130  1.1008  0.1474  0.6845
  826MOL0     C13860   4.572   1.558   9.036  0.3846 -0.5189 -0.3511
  826MOL0     C13861   4.697   1.506   8.977  0.3385  1.2741  0.4518
  826MOL0     C13862   4.760   1.398   9.071 -0.7996  0.6288  0.0697
  826MOL0     C13863   4.891   1.347   9.018  0.1156  0.1481 -0.3991
  826MOL0     C13864   4.989   1.455   8.992  0.5158  0.4147 -0.0570
  826MOL0     C13865   5.134   1.407   9.006  0.5969  0.1954 -0.5719
  826MOL0     C13866   5.174   1.316   8.897 -0.4935 -0.0929  1.1433
  826MOL0     N13867   5.318   1.303   8.892 -0.5366  0.1196  0.5760
  826MOL0     C13868   5.399   1.289   8.997 -0.4612 -0.2446  0.9916
  826MOL0     C13869   5.518   1.340   8.948  0.2860  0.8738 -0.2150
  826MOL0     C13870   5.638   1.362   9.041  0.0373  0.4274  0.1871
  826MOL0     C13871   5.739   1.251   9.021  0.4425  0.1668 -0.2596
  826MOL0     C13872   5.887   1.303   9.011 -0.6372 -0.1841 -0.4954
  826MOL0     C13873   5.933   1.339   9.159 -0.1064 -0.5181  1.0742
  826MOL0     O13874   5.938   1.215   9.235  0.2546  0.3300  0.1969
  826MOL0     C13875   6.051   1.135   9.253  0.1421 -0.2240 -0.2901
  826MOL0     C13876   6.023   1.004   9.289  0.6980 -0.7473 -0.8708
  826MOL0     C13877   6.125   0.921   9.327 -0.2591  0.1923  0.4752
  826MOL0     C13878   6.092   0.783   9.373  0.1286 -0.4388 -0.2855
  826MOL0     C13879   6.265   0.967   9.319 -0.2117 -0.2674 -0.6572
  826MOL0     C13880   6.393   0.891   9.352  0.6304  0.4162  0.1821
  826MOL0     O13881   6.491   0.917   9.266  0.3037 -0.4706 -0.1589
  826MOL0     C13882   6.617   0.868   9.276 -0.2238  0.5601  0.0293
  826MOL0     C13883   6.698   0.875   9.165 -2.0576 -0.4365 -0.6920
  826MOL0     C13884   6.824   0.820   9.174 -0.3156 -0.0566  1.2635
  826MOL0     C13885   6.871   0.748   9.285  0.6934  0.3559  0.0598
  826MOL0     O13886   7.000   0.683   9.275  0.4454 -0.4021  0.4696
  826MOL0     C13887   7.041   0.586   9.368  0.8298  0.1318  0.0569
  826MOL0     C13888   7.152   0.495   9.312  0.1313 -0.0425 -0.1710
  826MOL0     C13889   7.283   0.579   9.309 -0.7614  0.4902  0.3968
  826MOL0     C13890   7.392   0.506   9.243 -0.6643  0.0230 -0.0338
  826MOL0     C13891   7.510   0.605   9.215 -0.6523  0.3154  0.7253
  826MOL0     C13892   7.639   0.545   9.158 -0.6210  0.4019  0.4120
  826MOL0     C13893   7.752   0.644   9.175 -0.5914 -0.4659  0.4462
  826MOL0     C13894   7.873   0.620   9.081  0.2293 -0.2114 -1.2388
  826MOL0    Cl13895   8.015   0.686   9.155 -0.1432  0.0283 -0.2405
  826MOL0     C13896   6.789   0.741   9.392  0.4635 -0.5121  0.0516
  826MOL0     C13897   6.669   0.810   9.398  0.0420  1.2859 -0.3554
  826MOL0     O13898   6.384   0.799   9.438 -0.3271 -0.4397 -0.5049
  826MOL0     C13899   6.290   1.105   9.291  0.2715 -0.6050 -0.4668
  826MOL0     C13900   6.180   1.187   9.257  0.9709 -0.6698  0.8967
  826MOL0     N13901   5.514   1.360   8.812 -0.4173 -0.5589 -0.4987
  826MOL0     N13902   5.394   1.348   8.785  0.1842 -0.3281  0.5376
  826MOL0     C13903   4.177   1.588   9.275  0.5872 -0.1524 -0.9957
  826MOL0     C13904   4.059   1.548   9.329 -0.2193  0.3427 -0.6180
  826MOL0     C13905   3.671   1.362   9.444  0.1635  0.3593  0.9108
  826MOL0     C13906   3.683   1.241   9.514  0.1804  0.3782  1.0825
  826MOL0     C13907   3.578   1.181   9.566  0.3531  0.1502  0.3133
  826MOL0     C13908   3.453   1.243   9.559  0.5409  1.3343 -0.2467
  826MOL0     O13909   3.340   1.181   9.618 -0.2436  0.4317  1.1434
  826MOL0     C13910   3.311   1.037   9.597  0.5291  0.2896 -0.1712
  826MOL0     C13911   3.335   0.955   9.735 -0.7020 -1.1075  0.3940
  826MOL0     C13912   3.205   0.909   9.811  0.5748 -0.6127  0.3786
  826MOL0     C13913   3.126   1.025   9.856  0.4318 -0.1083  0.4957
  826MOL0     C13914   3.004   0.971   9.917 -0.6320 -0.3744 -0.3892
  826MOL0     C13915   2.909   0.922   9.974 -0.1053 -0.2624  0.0933
  826MOL0     C13916   3.435   1.362   9.485 -0.0770 -0.3107  0.7419
  826MOL0     C13917   3.543   1.422   9.436  0.5794 -0.8833 -0.4058
  826MOL0     C13918   3.521   1.560   9.372 -0.4887 -0.1463 -0.3175
  826MOL0     H13919   4.104   1.215   9.325 -0.7141  0.9456  0.8814
  826MOL0     H13920   4.304   1.282   9.224  1.2580  0.9296 -0.7594
  826MOL0     H13921   4.458   1.381   9.071  0.7357  0.6510  0.1521
  826MOL0     H13922   4.545   1.432   9.219  1.2824 -3.1762 -0.5578
  826MOL0     H13923   4.500   1.574   8.954  0.4132 -1.0229 -0.4796
  826MOL0     H13924   4.591   1.653   9.086 -0.6325  0.3481 -1.5270
  826MOL0     H13925   4.675   1.469   8.876 -2.1966  0.6976  1.1432
  826MOL0     H13926   4.758   1.596   8.965 -1.1023  2.2086 -0.2095
  826MOL0     H13927   4.778   1.445   9.168 -0.6465  1.2872 -0.2792
  826MOL0     H13928   4.690   1.316   9.093 -2.3639  1.4983 -1.4087
  826MOL0     H13929   4.883   1.289   8.925 -1.2610  1.3195 -1.0600
  826MOL0     H13930   4.932   1.279   9.092 -1.0627 -0.0701  0.0649
  826MOL0     H13931   4.972   1.499   8.893  2.1606  0.6553 -0.2679
  826MOL0     H13932   4.960   1.531   9.065 -1.8284  0.7745 -1.2452
  826MOL0     H13933   5.143   1.369   9.108  0.2823  4.0356  1.0775
  826MOL0     H13934   5.203   1.492   9.007 -0.6469  1.4910 -4.7519
  826MOL0     H13935   5.130   1.215   8.893  1.0738 -0.7644  0.2628
  826MOL0     H13936   5.135   1.366   8.808 -0.2771  1.7211  2.0164
  826MOL0     H13937   5.373   1.263   9.100  2.1194 -2.2401  1.2351
  826MOL0     H13938   5.599   1.363   9.143 -0.5995 -1.9288  0.0295
  826MOL0     H13939   5.668   1.466   9.025 -2.7368  1.3776  0.5664
  826MOL0     H13940   5.730   1.185   9.107  0.6691 -0.1918 -0.5114
  826MOL0     H13941   5.718   1.200   8.926  0.3059  2.8438 -1.7999
  826MOL0     H13942   5.950   1.218   8.980  1.2844 -0.0354  2.5248
  826MOL0     H13943   5.900   1.389   8.946  0.3562 -0.9334 -1.3336
  826MOL0     H13944   6.024   1.399   9.168 -0.3027 -0.3135  1.7810
  826MOL0     H13945   5.854   1.407   9.193 -3.6296 -2.2904 -2.7093
  826MOL0     H13946   5.920   0.980   9.313 -0.0325  2.8907  0.1973
  826MOL0     H13947   5.996   0.756   9.327 -1.7440  1.4959  2.2514
  826MOL0     H13948   6.083   0.790   9.481 -0.4825 -1.1610 -0.2749
  826MOL0     H13949   6.173   0.717   9.340 -0.1449 -0.8263 -0.1888
  826MOL0     H13950   6.673   0.941   9.083  0.4105  1.0814 -0.3126
  826MOL0     H13951   6.884   0.826   9.084 -2.8237  1.5150 -0.4372
  826MOL0     H13952   7.077   0.642   9.455 -0.4997  0.2026  0.5831
  826MOL0     H13953   6.961   0.515   9.390 -0.5475  0.1830 -4.0643
  826MOL0     H13954   7.162   0.416   9.387 -1.8127  1.3686  1.7150
  826MOL0     H13955   7.120   0.462   9.213  0.4341  1.2825 -0.7323
  826MOL0     H13956   7.313   0.612   9.409 -0.1615  1.6524 -0.1600
  826MOL0     H13957   7.271   0.659   9.236 -1.6384  1.8356  1.9472
  826MOL0     H13958   7.355   0.473   9.145 -1.4495  3.2692 -0.9336
  826MOL0     H13959   7.422   0.424   9.309 -0.7217  0.0089 -0.0260
  826MOL0     H13960   7.477   0.684   9.147  0.2944 -0.8311 -1.1449
  826MOL0     H13961   7.537   0.649   9.312 -0.9204  0.0729  0.9130
  826MOL0     H13962   7.626   0.519   9.052  3.8558  0.2400 -0.3077
  826MOL0     H13963   7.662   0.456   9.216 -3.9977 -2.0091 -1.5733
  826MOL0     H13964   7.793   0.634   9.276  3.7114 -0.0169 -1.0803
  826MOL0     H13965   7.712   0.746   9.167 -2.2854 -0.9385  2.1340
  826MOL0     H13966   7.871   0.670   8.983  0.8928  0.5270 -0.8883
  826MOL0     H13967   7.870   0.514   9.056 -1.4354 -0.6444  0.5577
  826MOL0     H13968   6.836   0.696   9.479  1.5477 -0.3042 -0.4049
  826MOL0     H13969   6.604   0.800   9.484  1.7088  0.8976  0.9116
  826MOL0     H13970   6.391   1.143   9.291  0.3468 -0.6819 -3.0088
  826MOL0     H13971   6.199   1.293   9.239  0.2195 -0.4443  1.4126
  826MOL0     H13972   4.205   1.693   9.275  0.8266 -0.1919 -2.2975
  826MOL0     H13973   3.987   1.628   9.346 -4.1944 -2.9316 -0.5684
  826MOL0     H13974   3.781   1.194   9.513  1.2597  2.2904 -2.5678
  826MOL0     H13975   3.591   1.086   9.616 -0.5516 -1.0262 -1.5694
  826MOL0     H13976   3.205   1.026   9.573  0.3154  2.3713 -0.3989
  826MOL0     H13977   3.362   0.992   9.511 -0.3825  1.1883 -1.2141
  826MOL0     H13978   3.404   1.018   9.791  2.4521 -1.5819 -2.5395
  826MOL0     H13979   3.388   0.864   9.704 -0.1426  0.1321 -2.6465
  826MOL0     H13980   3.150   0.839   9.748 -1.5317  0.6395  0.7315
  826MOL0     H13981   3.223   0.849   9.900 -3.8639 -1.9326  0.5805
  826MOL0     H13982   3.098   1.087   9.771 -1.4709  0.4856  1.4868
  826MOL0     H13983   3.175   1.077   9.939 -1.0230  1.8116  0.2291
  826MOL0     H13984   2.823   0.885  10.026  0.1122 -1.3449 -0.3025
  826MOL0     H13985   3.336   1.407   9.478 -0.3020 -0.8839  0.0849
  826MOL0     H13986   3.611   1.613   9.405  1.4160 -1.8371 -2.4981
  826MOL0     H13987   3.535   1.559   9.264 -1.0446 -1.9630 -0.3989
  826MOL0     H13988   3.432   1.614   9.406 -0.8058 -1.5949  1.2917
  827MOL0     O13989   3.152   9.986   9.180  0.4544 -0.0267  0.4238
  827MOL0     C13990   3.154   9.942   9.292 -0.1101 -0.0612 -0.8006
  827MOL0     O13991   3.266   9.929   9.368  0.1064 -0.6520  0.0727
  827MOL0     C13992   3.385   9.984   9.322  0.4181  0.8101 -0.5842
  827MOL0     C13993   3.505   9.922   9.357 -0.1020 -0.0615  0.0729
  827MOL0     C13994   3.630   9.984   9.320  1.1091 -0.1056  0.4011
  827MOL0     C13995   3.644  10.100   9.258 -0.3241  0.8191 -0.1986
  827MOL0     O13996   3.764  10.161   9.231 -0.3638  0.4530  0.2257
  827MOL0     C13997   3.778  10.303   9.228  0.5133  0.1938 -0.6144
  827MOL0     C13998   3.929  10.322   9.226 -0.1838  0.3149  0.1626
  827MOL0     C13999   3.998  10.289   9.101  1.1453 -0.5472 -0.7684
  827MOL0     C14000   4.150  10.312   9.112  0.3431 -0.0022 -0.1277
  827MOL0     C14001   4.206  10.268   8.976 -0.0063  0.0313 -0.3788
  827MOL0     C14002   4.350  10.271   8.972  0.0021  0.3945 -0.0172
  827MOL0     C14003   4.417  10.244   8.832  0.2066  0.3193 -0.3390
  827MOL0     C14004   4.444  10.092   8.829 -0.7539 -0.0836  0.3933
  827MOL0     N14005   4.473  10.053   8.686 -1.2499  0.4461 -0.2882
  827MOL0     C14006   4.592  10.011   8.635  0.5532  0.1723  0.3387
  827MOL0     C14007   4.569   9.990   8.502  0.8257  0.0416  0.1215
  827MOL0     C14008   4.673   9.929   8.408  0.0281 -0.2966  0.6555
  827MOL0     C14009   4.782   9.830   8.457 -0.4775 -0.2354  0.1597
  827MOL0     C14010   4.842   9.746   8.346 -0.0634  0.2652 -0.3682
  827MOL0     C14011   4.924   9.622   8.383 -0.5734  0.5691  0.9153
  827MOL0     O14012   5.036   9.665   8.466  0.4620 -0.7186  0.4511
  827MOL0     C14013   5.138   9.581   8.506 -0.4973  0.4791  0.7127
  827MOL0     C14014   5.163   9.452   8.453  1.1363  0.2750 -0.0634
  827MOL0     C14015   5.272   9.381   8.492  0.2920  0.9208  0.0551
  827MOL0     C14016   5.269   9.229   8.477  0.0390 -0.5241  0.0617
  827MOL0     C14017   5.371   9.439   8.581 -0.6084 -0.3590 -0.2996
  827MOL0     C14018   5.496   9.368   8.628 -0.6211  0.3054  1.1090
  827MOL0     O14019   5.563   9.424   8.736 -0.3322  0.5297 -0.4745
  827MOL0     C14020   5.662   9.343   8.778  0.5335  0.8603  0.2263
  827MOL0     C14021   5.786   9.340   8.716  0.4477 -0.0434 -0.1683
  827MOL0     C14022   5.885   9.251   8.766  0.0381 -0.7540  0.1178
  827MOL0     C14023   5.855   9.176   8.883  0.1362  0.2849 -0.0424
  827MOL0     O14024   5.942   9.084   8.937 -0.7027 -0.4543  0.7252
  827MOL0     C14025   6.068   9.146   8.971 -0.0520 -1.2116  0.0488
  827MOL0     C14026   6.152   9.046   9.045 -0.2165 -0.7834 -0.1478
  827MOL0     C14027   6.295   9.094   9.074 -0.4310 -0.5133 -0.0397
  827MOL0     C14028   6.312   9.157   9.211 -0.7310 -0.3353 -0.8568
  827MOL0     C14029   6.447   9.223   9.234 -0.4666 -0.3802  0.1909
  827MOL0     C14030   6.567   9.134   9.210 -0.3143  0.1502 -0.2257
  827MOL0     C14031   6.687   9.196   9.285 -0.2498 -0.2572  0.2961
  827MOL0     C14032   6.808   9.114   9.244  0.8855  0.1161  0.2861
  827MOL0    Cl14033   6.813   8.955   9.305 -0.0816 -0.4771 -0.3277
  827MOL0     C14034   5.725   9.173   8.942 -0.4961  0.5633 -0.4363
  827MOL0     C14035   5.634   9.265   8.896  0.4350 -0.7783 -0.4174
  827MOL0     O14036   5.538   9.273   8.562  0.6789  0.9440 -0.0298
  827MOL0     C14037   5.347   9.563   8.632 -0.3105  0.5039 -0.2775
  827MOL0     C14038   5.234   9.635   8.585  0.0663  0.4612 -0.0201
  827MOL0     N14039   4.438  10.021   8.474  0.2338 -0.5945  0.3408
  827MOL0     N14040   4.383  10.061   8.582 -0.7737 -0.6938 -0.2309
  827MOL0     C14041   3.519  10.170   9.228 -0.1713 -0.8012 -0.2262
  827MOL0     C14042   3.396  10.112   9.256 -0.0886  0.9544 -0.3476
  827MOL0     C14043   3.030   9.906   9.361  0.0162  0.1119 -0.2268
  827MOL0     C14044   3.040   9.812   9.462 -0.1441  0.7158  0.9888
  827MOL0     C14045   2.923   9.770   9.534  0.3008  0.0154 -0.0634
  827MOL0     C14046   2.801   9.817   9.508 -0.3734  0.3047 -0.3661
  827MOL0     O14047   2.698   9.779   9.590  0.7040 -0.2392 -0.8687
  827MOL0     C14048   2.657   9.866   9.691  0.0811  0.1504 -0.7506
  827MOL0     C14049   2.575   9.992   9.658 -0.0622  0.1220  0.3971
  827MOL0     C14050   2.433   9.951   9.616 -0.3475 -0.9508 -0.1518
  827MOL0     C14051   2.339  10.065   9.575  0.6593  1.3370 -0.8247
  827MOL0     C14052   2.325  10.149   9.691 -1.1105  0.3026 -0.1797
  827MOL0     C14053   2.318  10.214   9.788  0.6068 -0.2315 -0.0416
  827MOL0     C14054   2.792   9.908   9.405 -0.3039  0.9582  0.4686
  827MOL0     C14055   2.902   9.951   9.329  0.2946  0.2935 -0.3940
  827MOL0     C14056   2.884  10.064   9.236 -0.5860 -0.0507 -0.0072
  827MOL0     H14057   3.511   9.828   9.411  2.9263 -0.4701 -0.7883
  827MOL0     H14058   3.721   9.929   9.340  1.7168  1.3509  1.7652
  827MOL0     H14059   3.728  10.340   9.318  0.2928 -0.4392 -0.4687
  827MOL0     H14060   3.744  10.346   9.134  0.2731  1.5826  0.0746
  827MOL0     H14061   3.952  10.421   9.266 -1.1568  1.3630 -1.7563
  827MOL0     H14062   3.967  10.249   9.298 -1.9380  1.6861  2.6517
  827MOL0     H14063   3.983  10.182   9.087 -1.2767 -0.2653 -0.6807
  827MOL0     H14064   3.964  10.348   9.015  2.1320  1.5660  0.1989
  827MOL0     H14065   4.169  10.417   9.134  1.9401 -0.2091 -0.3606
  827MOL0     H14066   4.196  10.257   9.195  0.6990  0.5737  0.0640
  827MOL0     H14067   4.187  10.330   8.889  3.5212  1.0380 -0.5866
  827MOL0     H14068   4.173  10.164   8.962  2.0405 -0.7243 -0.0001
  827MOL0     H14069   4.381  10.368   9.012 -1.5462  1.5890 -1.5493
  827MOL0     H14070   4.382  10.196   9.045 -2.0410  1.4834  2.1208
  827MOL0     H14071   4.514  10.292   8.818 -0.9884  2.1661 -3.0561
  827MOL0     H14072   4.351  10.264   8.748 -0.4987 -2.3699 -0.5188
  827MOL0     H14073   4.527  10.062   8.893  0.9598 -1.3355 -2.2344
  827MOL0     H14074   4.358  10.033   8.863 -0.9998  0.2248  0.3046
  827MOL0     H14075   4.684   9.995   8.691 -0.0500 -0.2398  1.2339
  827MOL0     H14076   4.717  10.009   8.349 -1.1334 -1.2147 -1.5838
  827MOL0     H14077   4.618   9.873   8.332  1.3493  0.0062 -0.5599
  827MOL0     H14078   4.857   9.888   8.512 -0.9876 -0.8940  1.5976
  827MOL0     H14079   4.734   9.765   8.530  0.2655  0.3879  1.2227
  827MOL0     H14080   4.757   9.715   8.285 -1.4054  0.4689  1.3303
  827MOL0     H14081   4.915   9.811   8.298  0.1742  0.8757  0.7959
  827MOL0     H14082   4.864   9.555   8.445  1.5856 -3.9275 -1.3411
  827MOL0     H14083   4.961   9.568   8.295  0.1158 -1.2913  2.2872
  827MOL0     H14084   5.086   9.413   8.387 -1.9548  1.7631  2.3880
  827MOL0     H14085   5.164   9.199   8.462 -0.7865  2.4328 -0.8726
  827MOL0     H14086   5.310   9.187   8.569  0.6104 -0.1795 -0.0329
  827MOL0     H14087   5.327   9.190   8.393 -0.6518 -1.6265  0.0723
  827MOL0     H14088   5.806   9.402   8.629  0.9633  0.1132  0.0557
  827MOL0     H14089   5.983   9.247   8.719  0.7105  1.5849  1.1434
  827MOL0     H14090   6.127   9.172   8.882  0.6067 -0.3670  0.7192
  827MOL0     H14091   6.059   9.243   9.021 -1.3552 -1.0559 -0.4532
  827MOL0     H14092   6.100   8.985   9.120 -0.2471 -2.1942 -1.2687
  827MOL0     H14093   6.163   8.968   8.968 -0.9280 -1.3704  0.3250
  827MOL0     H14094   6.328   9.166   9.000 -0.9886  0.2653  0.4479
  827MOL0     H14095   6.364   9.009   9.063 -0.7942 -0.7452 -0.5482
  827MOL0     H14096   6.300   9.079   9.286  0.9324 -0.0707 -0.2882
  827MOL0     H14097   6.232   9.232   9.216 -0.6530 -0.2467 -0.9294
  827MOL0     H14098   6.462   9.309   9.168  1.4718  1.0149  2.2859
  827MOL0     H14099   6.452   9.266   9.335 -1.4939  6.3723 -2.0747
  827MOL0     H14100   6.584   9.127   9.102  1.0519 -1.6591  0.0605
  827MOL0     H14101   6.560   9.033   9.251  1.7558 -0.1982 -0.6000
  827MOL0     H14102   6.661   9.196   9.391  0.8966  1.7102  0.6185
  827MOL0     H14103   6.700   9.302   9.262  0.6859 -0.7243 -1.4879
  827MOL0     H14104   6.902   9.166   9.265  1.4525 -1.3125  1.4245
  827MOL0     H14105   6.798   9.103   9.136 -0.3252  1.5994  0.2241
  827MOL0     H14106   5.713   9.106   9.027 -1.1541 -1.3029 -1.9254
  827MOL0     H14107   5.536   9.273   8.944  0.8667 -0.0482  0.3792
  827MOL0     H14108   5.417   9.603   8.705  0.3619  0.0001 -0.6351
  827MOL0     H14109   5.213   9.728   8.637 -3.5349  0.2701 -0.8596
  827MOL0     H14110   3.509  10.263   9.174 -2.3999 -0.3190  0.8921
  827MOL0     H14111   3.307  10.167   9.223 -0.6077 -0.3554 -1.1994
  827MOL0     H14112   3.136   9.768   9.486 -0.6338 -1.0199 -0.0301
  827MOL0     H14113   2.937   9.698   9.614 -1.8958 -0.4560 -0.0601
  827MOL0     H14114   2.606   9.796   9.757 -0.1109  1.5414  0.6185
  827MOL0     H14115   2.747   9.901   9.742  0.0413 -0.6059 -0.1343
  827MOL0     H14116   2.626  10.043   9.576 -1.0648 -0.8186 -0.8568
  827MOL0     H14117   2.569  10.060   9.744  0.8173  2.4234 -1.2646
  827MOL0     H14118   2.445   9.890   9.526  0.6142  1.3975 -1.7099
  827MOL0     H14119   2.402   9.896   9.705  2.7095  1.4896  2.7032
  827MOL0     H14120   2.241  10.018   9.561 -0.3832  2.6071  1.6604
  827MOL0     H14121   2.379  10.115   9.486 -0.5325 -0.0973 -2.2386
  827MOL0     H14122   2.337  10.266   9.880  2.7634  0.6871 -0.9319
  827MOL0     H14123   2.702   9.961   9.378 -0.1524  2.6715  3.0125
  827MOL0     H14124   2.907  10.031   9.134  0.2091  0.3793  0.0258
  827MOL0     H14125   2.779  10.094   9.241 -0.3866  0.9746 -1.3509
  827MOL0     H14126   2.944  10.153   9.258  0.1732 -0.6612  0.4429
  828MOL0     O14127   0.591   5.943   9.509  0.0575  0.0196 -0.0399
  828MOL0     C14128   0.636   5.862   9.434  0.2125  0.1552 -0.5043
  828MOL0     O14129   0.767   5.855   9.403  0.6624  0.4522 -0.2974
  828MOL0     C14130   0.853   5.910   9.491 -0.3253  0.6534 -0.0653
  828MOL0     C14131   0.893   6.042   9.471 -1.0198  0.8642 -0.1085
  828MOL0     C14132   0.960   6.116   9.572  0.2013  0.1152  0.1319
  828MOL0     C14133   0.983   6.057   9.692 -0.4418 -0.7700 -0.0862
  828MOL0     O14134   1.036   6.137   9.789 -0.7748 -0.4577  0.2911
  828MOL0     C14135   1.165   6.085   9.834 -0.3871  0.4245 -0.5641
  828MOL0     C14136   1.252   6.198   9.896 -0.5605  0.1266  0.3209
  828MOL0     C14137   1.237   6.337   9.820  0.1295  0.7301 -1.0507
  828MOL0     C14138   1.307   6.457   9.886  0.2735  0.3431  0.3049
  828MOL0     C14139   1.209   6.550   9.955 -0.1842  0.0851  0.0021
  828MOL0     C14140   1.143   6.474  10.077 -0.1097  0.0329  0.1982
  828MOL0     C14141   1.096   6.565  10.185 -0.0915 -0.2996 -0.2512
  828MOL0     C14142   1.049   6.470  10.299  0.3470  0.3981 -0.3751
  828MOL0     N14143   0.958   6.547  10.381 -0.0686 -0.1476  0.5467
  828MOL0     C14144   0.994   6.658  10.464  0.3287  0.1699  0.0831
  828MOL0     C14145   0.869   6.706  10.492  0.4099  0.7741 -0.8502
  828MOL0     C14146   0.840   6.838  10.565 -0.9341 -0.2171  0.1748
  828MOL0     C14147   0.857   6.813  10.713 -0.1886  0.0984 -0.5556
  828MOL0     C14148   0.781   6.901  10.813  0.0913  0.1802  0.0405
  828MOL0     C14149   0.838   7.040  10.837  0.7717  0.1114  0.3814
  828MOL0     O14150   0.982   7.032  10.862 -0.2532 -0.2096  0.3251
  828MOL0     C14151   1.042   7.062  10.975  0.0750  0.2515 -0.3096
  828MOL0     C14152   0.987   7.054  11.105  0.2200  0.3903  0.2441
  828MOL0     C14153   1.055   7.082  11.217  0.1125  0.1665 -0.1848
  828MOL0     C14154   0.978   7.065  11.351 -0.4405  0.4434  0.5150
  828MOL0     C14155   1.197   7.105  11.204  0.0709 -0.0100  0.3129
  828MOL0     C14156   1.279   7.110  11.323 -0.5653  0.0166  0.4514
  828MOL0     O14157   1.387   7.029  11.317 -0.2122  0.2412 -0.0311
  828MOL0     C14158   1.461   7.021  11.431  0.3812 -0.7114  0.8182
  828MOL0     C14159   1.515   7.127  11.502 -0.2054 -0.4480  0.1881
  828MOL0     C14160   1.607   7.102  11.608  0.0633 -0.7824 -0.6926
  828MOL0     C14161   1.653   6.978  11.632 -0.3873 -0.0909 -0.2619
  828MOL0     O14162   1.739   6.942  11.739  0.6457 -0.2723  0.1359
  828MOL0     C14163   1.833   7.043  11.776 -0.4615 -0.3023 -0.5298
  828MOL0     C14164   1.933   6.957  11.861 -0.2991  0.2973 -0.0114
  828MOL0     C14165   2.030   7.038  11.954 -0.1267 -0.3941  0.0304
  828MOL0     C14166   2.174   6.992  11.941 -0.1159  0.0107  0.5364
  828MOL0     C14167   2.206   6.843  11.989 -0.1884  0.9298  0.1942
  828MOL0     C14168   2.164   6.820  12.135 -0.5643 -0.0911 -0.7195
  828MOL0     C14169   2.225   6.694  12.204 -0.1711  0.0611  0.3649
  828MOL0     C14170   2.158   6.677  12.339  0.0117  0.1321 -0.2125
  828MOL0    Cl14171   1.979   6.651  12.327  0.1095  0.1670  0.1620
  828MOL0     C14172   1.604   6.872  11.558  1.3619  0.6079 -0.1093
  828MOL0     C14173   1.501   6.891  11.465 -0.3417  1.4302  0.2594
  828MOL0     O14174   1.245   7.199  11.409  0.0498  0.3961 -0.4723
  828MOL0     C14175   1.261   7.105  11.082  0.7589  0.1539  0.5400
  828MOL0     C14176   1.180   7.086  10.965  0.4481  0.4304 -0.6918
  828MOL0     N14177   0.770   6.634  10.434  0.0367 -0.8370 -0.0531
  828MOL0     N14178   0.824   6.537  10.381  0.4303  0.4440  0.2165
  828MOL0     C14179   0.939   5.927   9.709 -0.9684  0.1849 -0.8411
  828MOL0     C14180   0.882   5.850   9.609 -0.0933  0.0503 -0.6056
  828MOL0     C14181   0.551   5.779   9.347 -0.7936 -0.4271 -0.5433
  828MOL0     C14182   0.572   5.639   9.339  0.1447 -1.2306  1.1861
  828MOL0     C14183   0.491   5.553   9.253 -0.8935 -0.1312 -0.2893
  828MOL0     C14184   0.384   5.603   9.183  0.7262  0.8119  0.4472
  828MOL0     O14185   0.314   5.524   9.090  0.4469  0.4310  0.8541
  828MOL0     C14186   0.219   5.584   8.999 -0.2695 -0.0664 -0.4804
  828MOL0     C14187   0.084   5.600   9.069  0.0069  0.4880 -0.0961
  828MOL0     C14188   0.041   5.454   9.104  1.3755  0.4897  0.2119
  828MOL0     C14189  -0.093   5.466   9.180  0.3884 -0.3005 -0.1042
  828MOL0     C14190  -0.209   5.454   9.090  0.2692  0.2471  1.3213
  828MOL0     C14191  -0.296   5.468   9.010  0.2021  0.0217  0.3643
  828MOL0     C14192   0.358   5.744   9.205 -0.2308 -0.5968  0.0882
  828MOL0     C14193   0.436   5.828   9.280 -0.0192  0.1455  0.2278
  828MOL0     C14194   0.397   5.968   9.290  0.0158 -0.0280 -0.1591
  828MOL0     H14195   0.854   6.083   9.378 -1.9015 -1.4581 -0.8314
  828MOL0     H14196   0.992   6.219   9.566 -2.7075  1.2905  2.6152
  828MOL0     H14197   1.224   6.031   9.759  3.2151 -1.0237  2.9744
  828MOL0     H14198   1.143   6.008   9.908  0.4112 -1.8698 -2.5628
  828MOL0     H14199   1.226   6.204  10.002 -0.1774  2.9318  0.3220
  828MOL0     H14200   1.356   6.166   9.883 -0.8418 -1.0123  0.6891
  828MOL0     H14201   1.287   6.323   9.724 -0.8923  1.0377 -1.6362
  828MOL0     H14202   1.132   6.353   9.797  0.5965  0.3350 -3.8073
  828MOL0     H14203   1.381   6.422   9.958  0.7441 -1.2815 -0.9314
  828MOL0     H14204   1.350   6.512   9.802  1.5532  0.4051  0.9896
  828MOL0     H14205   1.131   6.591   9.890  0.0679  1.1496  0.3488
  828MOL0     H14206   1.265   6.634   9.997  0.2060 -0.2409  0.1423
  828MOL0     H14207   1.066   6.403  10.046  0.0252 -1.4408  2.9216
  828MOL0     H14208   1.217   6.409  10.124 -0.7351  2.0373  4.3889
  828MOL0     H14209   1.014   6.628  10.150 -0.0375  1.1138  1.9061
  828MOL0     H14210   1.180   6.630  10.215 -1.4893  1.1621  0.6938
  828MOL0     H14211   0.994   6.387  10.253  0.9508  0.2559 -0.8494
  828MOL0     H14212   1.140   6.433  10.349  1.9285 -0.1871 -3.4628
  828MOL0     H14213   1.093   6.685  10.500 -0.4489  0.6930  1.8838
  828MOL0     H14214   0.732   6.850  10.555 -0.9914 -0.7427  0.0951
  828MOL0     H14215   0.895   6.918  10.515 -0.0052 -1.2823 -0.5908
  828MOL0     H14216   0.809   6.719  10.740 -0.6854  0.5703  0.2227
  828MOL0     H14217   0.963   6.795  10.735 -0.6410  0.9023  2.7333
  828MOL0     H14218   0.676   6.907  10.781 -0.1396 -2.8968 -0.1413
  828MOL0     H14219   0.766   6.841  10.903 -0.7422 -2.4791 -1.7172
  828MOL0     H14220   0.823   7.095  10.744 -1.4249 -0.9060  0.0614
  828MOL0     H14221   0.784   7.089  10.919 -0.0968  0.9673 -0.6756
  828MOL0     H14222   0.884   7.023  11.117  0.9955 -2.9443 -0.5374
  828MOL0     H14223   0.937   6.963  11.357 -0.0111  0.2346 -0.0210
  828MOL0     H14224   0.898   7.139  11.354 -1.6253 -0.6865 -1.4137
  828MOL0     H14225   1.050   7.074  11.433 -0.2291 -0.1964  0.4089
  828MOL0     H14226   1.508   7.229  11.468  0.4904 -0.5618 -0.3153
  828MOL0     H14227   1.635   7.184  11.673 -2.5396  0.1443 -0.6394
  828MOL0     H14228   1.885   7.092  11.693 -1.9812  2.3615  0.0012
  828MOL0     H14229   1.786   7.114  11.844 -3.0013 -1.8833 -0.5214
  828MOL0     H14230   1.881   6.900  11.938  1.1114 -2.0676 -0.7242
  828MOL0     H14231   1.981   6.882  11.798  0.5406 -0.7044  1.7356
  828MOL0     H14232   1.999   7.036  12.059  2.1920  0.1418  0.7842
  828MOL0     H14233   2.021   7.142  11.922  0.4942 -0.2996  0.1504
  828MOL0     H14234   2.228   7.055  12.012  2.1621 -0.2369 -0.8753
  828MOL0     H14235   2.203   7.017  11.839 -0.3714  1.1078  0.7219
  828MOL0     H14236   2.152   6.770  11.928 -0.6970  1.0734  0.4630
  828MOL0     H14237   2.314   6.830  11.979 -0.3851 -1.5918  0.7724
  828MOL0     H14238   2.055   6.811  12.138 -0.3842 -3.2280  0.7628
  828MOL0     H14239   2.189   6.905  12.200 -0.1245  0.2686 -1.3427
  828MOL0     H14240   2.333   6.684  12.217  0.1733 -1.2734 -2.6302
  828MOL0     H14241   2.199   6.616  12.132  0.0507  0.0936  0.2480
  828MOL0     H14242   2.158   6.766  12.403 -3.1532 -1.2131  1.9517
  828MOL0     H14243   2.210   6.598  12.395 -2.6730  1.0752  4.0713
  828MOL0     H14244   1.643   6.774  11.580  1.2667  1.3126  3.8238
  828MOL0     H14245   1.454   6.808  11.414  1.9476  0.4719 -0.3738
  828MOL0     H14246   1.368   7.125  11.077  1.4250 -3.0523 -1.3468
  828MOL0     H14247   1.224   7.077  10.866  0.1255  1.3410 -0.9285
  828MOL0     H14248   0.950   5.872   9.802  1.2671  0.4731 -0.8754
  828MOL0     H14249   0.853   5.748   9.631  0.9739  0.0959  1.2302
  828MOL0     H14250   0.652   5.594   9.396  2.3722  0.5554 -0.3338
  828MOL0     H14251   0.507   5.447   9.236 -1.1724 -0.0534 -1.0601
  828MOL0     H14252   0.244   5.685   8.964  0.5447 -0.1424 -0.1353
  828MOL0     H14253   0.210   5.527   8.906 -0.2734  0.3455 -0.7343
  828MOL0     H14254   0.007   5.644   9.005 -0.5832 -0.7556 -0.2662
  828MOL0     H14255   0.107   5.649   9.164  2.6219 -1.4884  0.4087
  828MOL0     H14256   0.039   5.391   9.015 -3.2682  0.1703  0.3480
  828MOL0     H14257   0.115   5.413   9.174  1.3519  0.0687 -0.0110
  828MOL0     H14258  -0.098   5.561   9.234 -0.4650  0.3002 -1.2152
  828MOL0     H14259  -0.105   5.385   9.253 -0.1679 -1.9467 -1.9424
  828MOL0     H14260  -0.374   5.471   8.937  0.0985 -1.4709  0.3784
  828MOL0     H14261   0.282   5.787   9.139 -1.1268 -1.5534  0.4705
  828MOL0     H14262   0.384   5.978   9.398  0.4630 -0.1664 -0.0916
  828MOL0     H14263   0.470   6.043   9.259  0.4730 -0.9192 -1.2940
  828MOL0     H14264   0.298   5.997   9.252  0.0394  0.0161 -0.1870
  829MOL0     O14265   2.744   4.110   9.978  0.1086  0.6375  0.0838
  829MOL0     C14266   2.767   4.171  10.084 -1.3959  0.1963  0.5232
  829MOL0     O14267   2.890   4.204  10.129 -0.5489  0.3418  0.4993
  829MOL0     C14268   3.002   4.177  10.046  0.4624 -0.0003 -0.7244
  829MOL0     C14269   3.022   4.248   9.927 -0.5274 -0.0673 -0.0365
  829MOL0     C14270   3.130   4.231   9.839  0.4118  0.3007  0.3702
  829MOL0     C14271   3.223   4.133   9.874 -0.4529 -0.5557  0.6562
  829MOL0     O14272   3.315   4.088   9.787 -0.9741  0.2692 -0.1067
  829MOL0     C14273   3.386   4.185   9.711 -0.4604 -0.2533  0.2991
  829MOL0     C14274   3.528   4.135   9.695 -0.4207 -0.8906 -0.7460
  829MOL0     C14275   3.600   4.125   9.835  1.1688 -0.0523  0.8191
  829MOL0     C14276   3.748   4.106   9.814  0.0132  0.3404 -0.1366
  829MOL0     C14277   3.824   4.228   9.789  0.3454 -0.2652 -0.5504
  829MOL0     C14278   3.975   4.199   9.801 -0.1207  0.1404  0.2997
  829MOL0     C14279   4.039   4.334   9.789  0.3175  0.1327  0.1789
  829MOL0     C14280   4.179   4.315   9.726  0.2338  0.4841  0.4098
  829MOL0     N14281   4.245   4.448   9.721 -0.3724 -0.9025  0.1062
  829MOL0     C14282   4.329   4.491   9.825 -0.2759 -0.1740 -0.6019
  829MOL0     C14283   4.371   4.607   9.779  0.0105  0.2617  0.0367
  829MOL0     C14284   4.451   4.709   9.846  0.2855  0.4891  1.5238
  829MOL0     C14285   4.574   4.735   9.768 -0.2790  0.3885  0.0391
  829MOL0     C14286   4.666   4.621   9.723  0.0912 -0.5864  0.0814
  829MOL0     C14287   4.723   4.542   9.839 -0.1539 -0.0578 -0.2656
  829MOL0     O14288   4.796   4.632   9.924  0.2813  0.4893  0.1055
  829MOL0     C14289   4.897   4.585  10.005 -0.1570 -0.6346  0.9633
  829MOL0     C14290   4.978   4.471   9.988  0.2483  0.1085 -0.2582
  829MOL0     C14291   5.068   4.434  10.082  0.2215  0.3302 -0.5273
  829MOL0     C14292   5.127   4.296  10.056 -0.3559 -0.5526 -0.5453
  829MOL0     C14293   5.068   4.504  10.208 -0.3186  0.0157  0.2169
  829MOL0     C14294   5.157   4.464  10.317 -0.3036  0.2138  0.2067
  829MOL0     O14295   5.114   4.491  10.444  0.3599 -0.2411  0.2530
  829MOL0     C14296   5.198   4.442  10.540  0.3353  0.2357 -0.7728
  829MOL0     C14297   5.222   4.523  10.648  0.0021  0.2763 -0.2668
  829MOL0     C14298   5.319   4.478  10.743  0.5528  0.6959  0.2370
  829MOL0     C14299   5.376   4.351  10.740 -0.1900 -0.2952 -0.1148
  829MOL0     O14300   5.462   4.325  10.839 -0.1003  0.2998 -0.1573
  829MOL0     C14301   5.528   4.192  10.841  0.4935 -0.4116  0.7467
  829MOL0     C14302   5.636   4.177  10.940 -1.1682 -0.3514  0.0411
  829MOL0     C14303   5.758   4.229  10.876  0.9358  0.2293 -0.1878
  829MOL0     C14304   5.878   4.202  10.962 -0.0461  0.4697  0.2866
  829MOL0     C14305   5.961   4.086  10.907  0.4757 -0.9650  0.4835
  829MOL0     C14306   6.098   4.082  10.972 -1.1096  0.4832  0.1482
  829MOL0     C14307   6.208   4.024  10.887  0.2669  0.2523 -0.8413
  829MOL0     C14308   6.346   4.038  10.954 -0.0748 -0.0903  0.0871
  829MOL0    Cl14309   6.462   3.960  10.839  0.6257 -0.2810  0.0621
  829MOL0     C14310   5.331   4.258  10.640 -0.0567 -0.2108 -0.3200
  829MOL0     C14311   5.244   4.305  10.545 -0.5369 -0.5498  0.1984
  829MOL0     O14312   5.272   4.425  10.292  0.2077 -0.2029  0.4223
  829MOL0     C14313   4.983   4.614  10.224  0.1883 -0.2223  0.4668
  829MOL0     C14314   4.904   4.658  10.115 -0.3354  0.9173 -0.3766
  829MOL0     N14315   4.311   4.632   9.661  0.6756  0.8892  0.9368
  829MOL0     N14316   4.246   4.531   9.614  0.1777 -0.9652  0.7292
  829MOL0     C14317   3.218   4.068   9.998 -0.1361 -0.4448  0.6755
  829MOL0     C14318   3.109   4.088  10.082  0.1873 -0.8481 -0.2766
  829MOL0     C14319   2.648   4.215  10.162  0.0952  0.0289 -0.0919
  829MOL0     C14320   2.665   4.294  10.272 -0.9922  0.6314 -0.9052
  829MOL0     C14321   2.560   4.330  10.366 -0.1716 -0.6746  0.5673
  829MOL0     C14322   2.426   4.298  10.334 -0.7016 -0.1074 -1.0338
  829MOL0     O14323   2.320   4.317  10.420 -0.2817 -0.5652  0.2850
  829MOL0     C14324   2.333   4.325  10.563 -0.0008 -0.0203  0.0816
  829MOL0     C14325   2.301   4.183  10.621 -0.5379  0.8083  0.7557
  829MOL0     C14326   2.151   4.164  10.624 -0.5539  0.0062 -0.6681
  829MOL0     C14327   2.106   4.033  10.693  0.5768  0.9360 -0.0186
  829MOL0     C14328   1.978   3.993  10.624  0.8942  0.5432 -1.1234
  829MOL0     C14329   1.855   3.999  10.587 -1.3181  0.3506  0.2521
  829MOL0     C14330   2.406   4.230  10.217 -0.0885  0.1042  0.2759
  829MOL0     C14331   2.515   4.181  10.134 -0.1101  0.2874 -0.0872
  829MOL0     C14332   2.459   4.093  10.020  0.2731 -0.4954 -0.0832
  829MOL0     H14333   2.937   4.308   9.895 -0.5837 -0.7365 -1.2323
  829MOL0     H14334   3.126   4.270   9.738 -1.7195 -1.8952 -0.4880
  829MOL0     H14335   3.378   4.281   9.763  0.2220  0.1501 -0.3220
  829MOL0     H14336   3.339   4.181   9.612 -3.1254  1.3699  1.3697
  829MOL0     H14337   3.526   4.036   9.648 -1.3398 -1.3892  0.2989
  829MOL0     H14338   3.585   4.194   9.622  1.8542 -1.8542  0.1515
  829MOL0     H14339   3.576   4.226   9.869 -0.8546  0.6661 -2.3621
  829MOL0     H14340   3.564   4.044   9.899 -2.5673 -1.0009 -2.1543
  829MOL0     H14341   3.784   4.061   9.908 -0.9795  1.4060  0.7829
  829MOL0     H14342   3.764   4.030   9.737 -1.0014  0.4416 -0.4654
  829MOL0     H14343   3.794   4.294   9.871 -0.7872 -3.7103  2.0787
  829MOL0     H14344   3.795   4.267   9.691  1.9081 -0.2137 -1.0147
  829MOL0     H14345   3.991   4.159   9.902 -1.5600 -0.5242  0.2948
  829MOL0     H14346   3.996   4.123   9.726 -1.0734 -1.9113  1.9946
  829MOL0     H14347   4.057   4.379   9.888  0.2208 -0.3117  0.4023
  829MOL0     H14348   3.969   4.400   9.738 -0.3280 -0.2388  0.5727
  829MOL0     H14349   4.236   4.244   9.787  0.0895 -2.9812 -3.0394
  829MOL0     H14350   4.166   4.265   9.629 -1.6295  0.8628  0.4341
  829MOL0     H14351   4.351   4.438   9.918  2.1622 -4.1327 -3.1175
  829MOL0     H14352   4.472   4.670   9.946 -0.6885  0.2619  1.6536
  829MOL0     H14353   4.389   4.798   9.860  0.4485  0.7150  0.8475
  829MOL0     H14354   4.541   4.788   9.679  0.7039  0.3601 -0.3527
  829MOL0     H14355   4.637   4.804   9.824  0.5302  1.0866 -1.6684
  829MOL0     H14356   4.602   4.556   9.662  0.0089 -1.0530  0.6634
  829MOL0     H14357   4.753   4.656   9.667  1.3588  1.3212  3.0454
  829MOL0     H14358   4.641   4.504   9.900 -0.7998  0.3302 -0.8875
  829MOL0     H14359   4.778   4.454   9.803 -0.7885  0.8655 -3.8623
  829MOL0     H14360   4.964   4.418   9.894 -1.8049 -1.9742  1.0843
  829MOL0     H14361   5.221   4.284  10.111 -0.4831  3.1244  0.7519
  829MOL0     H14362   5.156   4.276   9.952 -1.1459  0.6358 -1.0066
  829MOL0     H14363   5.054   4.224  10.096 -0.2681 -0.1111  0.4453
  829MOL0     H14364   5.177   4.622  10.651  2.7393  1.5854  0.5464
  829MOL0     H14365   5.351   4.547  10.821 -0.8273 -1.5085  2.9151
  829MOL0     H14366   5.451   4.116  10.859 -1.8451  1.3174 -1.2148
  829MOL0     H14367   5.559   4.162  10.740  0.2517  0.4193  0.4118
  829MOL0     H14368   5.603   4.235  11.026 -3.0151  0.6303 -1.2550
  829MOL0     H14369   5.646   4.076  10.980 -0.1797 -0.9340 -1.5992
  829MOL0     H14370   5.744   4.337  10.860 -1.4949 -0.0601 -0.3744
  829MOL0     H14371   5.765   4.194  10.773 -0.0332 -1.7076  0.3596
  829MOL0     H14372   5.848   4.170  11.062 -0.5657 -2.1291 -0.6310
  829MOL0     H14373   5.946   4.288  10.958  0.7579 -0.1195 -4.1676
  829MOL0     H14374   5.899   3.998  10.927 -1.0998  0.1688  0.7374
  829MOL0     H14375   5.973   4.110  10.800  3.2539 -0.6624  0.8042
  829MOL0     H14376   6.089   4.026  11.066 -0.1472 -0.7775 -0.4780
  829MOL0     H14377   6.127   4.180  11.011 -1.7028  1.1509 -1.0313
  829MOL0     H14378   6.191   4.068  10.789 -0.5731 -1.2423 -1.3911
  829MOL0     H14379   6.186   3.920  10.863  0.1387  0.0120  0.2456
  829MOL0     H14380   6.357   3.995  11.054  0.7948 -0.5486 -0.1911
  829MOL0     H14381   6.369   4.145  10.955 -0.2328 -0.0509  1.4561
  829MOL0     H14382   5.358   4.153  10.636 -1.4226 -0.6095  0.3518
  829MOL0     H14383   5.220   4.227  10.473  0.2885 -2.7362  2.1659
  829MOL0     H14384   4.970   4.671  10.316 -0.0072  0.0577  0.2678
  829MOL0     H14385   4.841   4.744  10.136  1.5981  1.5324  4.1006
  829MOL0     H14386   3.294   3.997  10.029  1.5912  0.6748 -0.8056
  829MOL0     H14387   3.093   4.035  10.176 -0.0557 -0.0079  0.1672
  829MOL0     H14388   2.764   4.329  10.299  0.7226 -3.6399 -0.8359
  829MOL0     H14389   2.579   4.391  10.454 -0.9248  0.5615 -0.0947
  829MOL0     H14390   2.431   4.352  10.603 -0.1424  0.6951 -0.0418
  829MOL0     H14391   2.268   4.399  10.610  2.5779  1.3149  1.8246
  829MOL0     H14392   2.332   4.177  10.726 -2.7053  0.5641  1.4251
  829MOL0     H14393   2.337   4.101  10.559 -1.3908  0.6021  0.5259
  829MOL0     H14394   2.112   4.240  10.691  0.4090 -1.4002  1.6053
  829MOL0     H14395   2.118   4.187  10.522  1.5325  1.9781 -0.9734
  829MOL0     H14396   2.083   4.042  10.799 -1.8788  0.4800 -0.4614
  829MOL0     H14397   2.190   3.965  10.671 -0.0651 -0.3926  1.4751
  829MOL0     H14398   1.763   4.001  10.533 -1.3144  0.7031  0.2584
  829MOL0     H14399   2.306   4.193  10.196 -0.6247 -0.0459  2.7452
  829MOL0     H14400   2.530   4.010  10.011 -0.9997 -1.5013 -1.4791
  829MOL0     H14401   2.365   4.044  10.047 -0.6513  0.2351 -1.7992
  829MOL0     H14402   2.457   4.138   9.921  2.6010  0.8873  0.4172
  830MOL0     O14403   7.376   3.344   1.132  0.3549  0.1157  0.0491
  830MOL0     C14404   7.286   3.270   1.089  0.2650 -0.3891 -0.2687
  830MOL0     O14405   7.308   3.141   1.049 -0.4897  0.3170 -0.1374
  830MOL0     C14406   7.438   3.104   1.049 -0.4345 -0.2797 -0.0482
  830MOL0     C14407   7.465   3.000   1.129 -0.0329  0.3256 -0.5942
  830MOL0     C14408   7.576   2.921   1.108 -0.3485 -0.3445 -0.4377
  830MOL0     C14409   7.673   2.956   1.012 -0.0250  0.1338  0.4055
  830MOL0     O14410   7.782   2.875   0.986 -0.2062 -0.2505  0.1844
  830MOL0     C14411   7.847   2.879   0.857 -0.1307 -0.8167 -0.0849
  830MOL0     C14412   7.948   2.766   0.828  0.1409 -0.0272 -0.1531
  830MOL0     C14413   8.081   2.798   0.891 -0.0948  0.0161 -0.3941
  830MOL0     C14414   8.185   2.697   0.857 -0.3047 -0.3365  0.2042
  830MOL0     C14415   8.313   2.742   0.931  0.7622  0.7189 -0.0591
  830MOL0     C14416   8.396   2.823   0.827  0.0667 -0.1782 -0.2530
  830MOL0     C14417   8.548   2.842   0.871  0.8743 -0.2637 -0.2181
  830MOL0     C14418   8.565   2.966   0.964  0.3894  0.6513 -0.4868
  830MOL0     N14419   8.704   2.980   0.990  0.6501 -0.1702 -0.0534
  830MOL0     C14420   8.772   2.897   1.072 -0.5765 -0.0335  0.0666
  830MOL0     C14421   8.901   2.947   1.061 -0.4660 -0.0513 -0.4802
  830MOL0     C14422   9.019   2.919   1.157 -0.4399  0.6611 -0.6044
  830MOL0     C14423   9.152   2.969   1.099  0.0316  0.1272  0.1011
  830MOL0     C14424   9.277   2.937   1.196 -0.1584 -0.6699  0.0692
  830MOL0     C14425   9.288   3.009   1.333  0.6787 -0.7984  0.1009
  830MOL0     O14426   9.390   2.938   1.411  0.2268  0.4823 -0.2553
  830MOL0     C14427   9.453   3.032   1.488 -0.4525  0.5127 -0.1763
  830MOL0     C14428   9.397   3.081   1.607  0.1220 -1.0830 -0.8097
  830MOL0     C14429   9.452   3.185   1.689 -0.1861  0.5176  0.5287
  830MOL0     C14430   9.358   3.238   1.794 -0.0973 -0.1422 -0.2775
  830MOL0     C14431   9.568   3.244   1.649 -0.1837  0.9915 -0.2316
  830MOL0     C14432   9.631   3.360   1.721 -0.4068  0.1324  0.9498
  830MOL0     O14433   9.768   3.363   1.723 -0.6336 -0.7527 -0.8467
  830MOL0     C14434   9.833   3.451   1.809 -0.5360 -0.1208 -0.6261
  830MOL0     C14435   9.835   3.454   1.950  0.3480  0.7622  0.3916
  830MOL0     C14436   9.929   3.539   2.015  0.6147  0.1176 -0.2256
  830MOL0     C14437  10.006   3.630   1.948 -0.3065 -0.7054 -1.3218
  830MOL0     O14438  10.072   3.729   2.017 -0.5003 -0.6945 -0.0641
  830MOL0     C14439  10.190   3.676   2.087 -0.4169  0.1484 -0.1779
  830MOL0     C14440  10.258   3.799   2.157  0.4511 -0.1609  0.5648
  830MOL0     C14441  10.395   3.762   2.207  0.0149 -0.4383  0.2105
  830MOL0     C14442  10.472   3.869   2.282 -0.1878 -0.7925  0.0841
  830MOL0     C14443  10.635   3.846   2.299 -0.0055  0.4405  0.8405
  830MOL0     C14444  10.644   3.734   2.391 -0.0610 -0.3282  1.1240
  830MOL0     C14445  10.784   3.703   2.431  0.5545  1.0398 -0.5775
  830MOL0     C14446  10.795   3.585   2.522 -0.4796 -0.5662 -0.7698
  830MOL0    Cl14447  10.710   3.599   2.669 -0.1023  0.2903 -0.2069
  830MOL0     C14448  10.001   3.635   1.808  0.5106  0.7678  0.6516
  830MOL0     C14449   9.919   3.540   1.744  0.2139 -0.0122  0.0470
  830MOL0     O14450   9.557   3.444   1.768 -0.6051 -0.1690  0.5776
  830MOL0     C14451   9.628   3.200   1.529 -0.4940 -0.2702 -0.4721
  830MOL0     C14452   9.573   3.098   1.448 -0.1962 -0.6006 -0.0528
  830MOL0     N14453   8.911   3.044   0.964  0.1050  0.5167  0.0367
  830MOL0     N14454   8.788   3.066   0.928 -0.3994 -0.3863 -0.3672
  830MOL0     C14455   7.650   3.077   0.939 -1.1456  0.8745 -0.4734
  830MOL0     C14456   7.536   3.153   0.958 -0.1209  0.3746 -1.3618
  830MOL0     C14457   7.137   3.321   1.096  0.3432  0.6505  0.8991
  830MOL0     C14458   7.027   3.240   1.123  0.1484 -0.0539  0.3888
  830MOL0     C14459   6.893   3.278   1.101 -0.4200 -0.0603  0.0408
  830MOL0     C14460   6.865   3.405   1.042 -0.7643 -0.7915 -0.3986
  830MOL0     O14461   6.738   3.446   1.014  0.1704  0.6094  0.5520
  830MOL0     C14462   6.626   3.372   1.073 -0.8658 -0.1597  1.3712
  830MOL0     C14463   6.493   3.430   1.015 -0.1285  0.9358 -0.6084
  830MOL0     C14464   6.376   3.375   1.082 -0.0326  0.2138  0.3300
  830MOL0     C14465   6.253   3.437   1.023  0.3282 -0.0814 -0.0187
  830MOL0     C14466   6.135   3.418   1.108  1.3458  0.5281 -0.1964
  830MOL0     C14467   6.041   3.399   1.175  1.1514 -0.5490 -0.3607
  830MOL0     C14468   6.974   3.486   1.013  0.7442  0.3921 -0.0060
  830MOL0     C14469   7.103   3.437   1.031 -0.1059  1.1397  0.6698
  830MOL0     C14470   7.216   3.507   0.953  0.4253  0.1834  0.6553
  830MOL0     H14471   7.387   2.966   1.196 -1.5745  3.9839 -0.2554
  830MOL0     H14472   7.591   2.828   1.163 -2.0054 -1.0503 -1.1124
  830MOL0     H14473   7.902   2.972   0.841  0.0313 -1.1947 -1.9232
  830MOL0     H14474   7.766   2.883   0.783 -0.4227 -1.1091  0.2141
  830MOL0     H14475   7.911   2.675   0.875  1.7468 -1.0087 -0.6853
  830MOL0     H14476   7.955   2.755   0.719  0.4031  0.5101 -0.1914
  830MOL0     H14477   8.118   2.896   0.859  0.9719 -0.4183 -0.5604
  830MOL0     H14478   8.058   2.804   0.997 -2.5166 -0.6709 -0.8218
  830MOL0     H14479   8.146   2.606   0.905 -2.9335 -0.1296 -1.3361
  830MOL0     H14480   8.192   2.683   0.749  1.4840 -0.0580  0.2479
  830MOL0     H14481   8.373   2.652   0.950 -0.0510 -0.1605 -1.3724
  830MOL0     H14482   8.299   2.800   1.022 -1.7981  0.0930  0.0297
  830MOL0     H14483   8.390   2.780   0.726 -2.3055 -0.4972 -0.0291
  830MOL0     H14484   8.356   2.924   0.817 -2.4635 -0.8547  2.0073
  830MOL0     H14485   8.606   2.856   0.779  1.7959 -1.0661  0.2210
  830MOL0     H14486   8.572   2.746   0.919 -0.8058 -0.8185 -0.4140
  830MOL0     H14487   8.525   3.050   0.908 -0.7625 -1.3434 -2.8698
  830MOL0     H14488   8.507   2.953   1.055  1.9414  3.7089  1.0847
  830MOL0     H14489   8.727   2.820   1.135 -1.4029  0.8663  0.5942
  830MOL0     H14490   9.030   2.811   1.173 -0.8020  0.7590  0.3600
  830MOL0     H14491   8.995   2.972   1.249 -0.8610  1.4270 -1.1435
  830MOL0     H14492   9.175   2.932   0.999  3.2963 -1.8306  1.4014
  830MOL0     H14493   9.154   3.078   1.086  0.7965 -0.2294 -3.8236
  830MOL0     H14494   9.281   2.829   1.205 -0.2053 -0.7783 -1.0235
  830MOL0     H14495   9.366   2.969   1.140 -1.4142 -1.0718 -2.3111
  830MOL0     H14496   9.304   3.116   1.318 -0.3253 -0.9263 -2.1602
  830MOL0     H14497   9.194   2.988   1.385  0.3192 -1.1892 -0.6894
  830MOL0     H14498   9.297   3.046   1.628 -0.5957  1.5118  0.5469
  830MOL0     H14499   9.262   3.186   1.798 -0.2443  0.0866 -0.7882
  830MOL0     H14500   9.337   3.345   1.783  4.5727  0.8945 -1.0989
  830MOL0     H14501   9.390   3.236   1.899 -1.2421  0.3785  0.0973
  830MOL0     H14502   9.777   3.385   2.011 -0.5394  1.6217  0.5351
  830MOL0     H14503   9.924   3.534   2.124 -1.1257 -2.4860 -0.3274
  830MOL0     H14504  10.151   3.607   2.163  1.2268  0.2688  0.8183
  830MOL0     H14505  10.254   3.620   2.019 -0.7786 -0.4576 -0.0263
  830MOL0     H14506  10.258   3.888   2.093  0.6833  0.9189  2.0180
  830MOL0     H14507  10.183   3.815   2.235 -2.9802 -0.6739 -2.3291
  830MOL0     H14508  10.464   3.746   2.123 -3.2489  0.7685 -2.9862
  830MOL0     H14509  10.383   3.682   2.280 -0.8189 -1.3129 -0.8545
  830MOL0     H14510  10.425   3.872   2.381 -2.3391 -0.4461 -0.8887
  830MOL0     H14511  10.465   3.967   2.235  0.3924 -0.9229 -0.2851
  830MOL0     H14512  10.668   3.828   2.196  0.4035 -0.3317  1.0959
  830MOL0     H14513  10.686   3.939   2.327  1.2116 -0.1059  0.4995
  830MOL0     H14514  10.605   3.646   2.338 -0.3680  0.9288 -0.8456
  830MOL0     H14515  10.591   3.758   2.483  0.4782 -0.0171  1.3567
  830MOL0     H14516  10.836   3.783   2.485 -0.3454  1.9532 -1.0370
  830MOL0     H14517  10.840   3.679   2.340 -2.7157 -0.4236 -2.3878
  830MOL0     H14518  10.900   3.572   2.551 -1.0719 -0.0769  1.8492
  830MOL0     H14519  10.756   3.501   2.463 -0.8032 -0.7397 -0.3210
  830MOL0     H14520  10.052   3.717   1.759 -1.0147  1.3699  0.0203
  830MOL0     H14521   9.928   3.545   1.636  1.1880  1.1836  0.1549
  830MOL0     H14522   9.710   3.257   1.485 -0.1885  0.0926  0.5369
  830MOL0     H14523   9.616   3.056   1.357  1.5028 -2.9317  1.6779
  830MOL0     H14524   7.725   3.111   0.868 -0.0501 -0.1962  0.1279
  830MOL0     H14525   7.503   3.242   0.904 -3.1184  0.1403 -0.1264
  830MOL0     H14526   7.047   3.139   1.158 -2.0237 -2.0973 -3.5410
  830MOL0     H14527   6.821   3.210   1.145  1.2386 -0.2092  2.7656
  830MOL0     H14528   6.638   3.272   1.030 -2.0158  0.7434 -1.2494
  830MOL0     H14529   6.624   3.370   1.182 -1.6033 -1.2327  1.3572
  830MOL0     H14530   6.484   3.434   0.906  1.8345 -0.3576 -0.8573
  830MOL0     H14531   6.494   3.536   1.045  0.8930  0.8095 -0.1755
  830MOL0     H14532   6.377   3.266   1.088 -0.0532  0.2869  2.0095
  830MOL0     H14533   6.378   3.410   1.185 -2.4193  2.3321 -0.2511
  830MOL0     H14534   6.237   3.387   0.927  1.0513 -0.9495  0.3011
  830MOL0     H14535   6.273   3.542   1.001  1.2110 -0.2350  0.0101
  830MOL0     H14536   5.971   3.382   1.254  0.0481  3.2074 -0.3392
  830MOL0     H14537   6.970   3.586   0.970 -1.5166 -0.7991 -2.8612
  830MOL0     H14538   7.167   3.573   0.881 -1.2321 -0.7210  0.8985
  830MOL0     H14539   7.285   3.552   1.025 -1.1874  1.9326  1.2241
  830MOL0     H14540   7.282   3.449   0.889  0.5024  1.4310 -0.4234
  831MOL0     O14541   5.175   3.218  10.965 -0.2215  0.2711 -0.3310
  831MOL0     C14542   5.191   3.131  11.049  0.4424  0.2514  0.2181
  831MOL0     O14543   5.127   3.129  11.167 -0.5485 -0.1585 -0.3985
  831MOL0     C14544   5.035   3.230  11.197 -0.1307 -0.4593 -0.1736
  831MOL0     C14545   5.007   3.359  11.143  0.6202 -0.2469 -0.2766
  831MOL0     C14546   4.923   3.451  11.205 -0.0512  0.1176 -0.4485
  831MOL0     C14547   4.846   3.415  11.321 -0.7751 -0.1535 -0.2886
  831MOL0     O14548   4.768   3.511  11.382  0.3491  0.0629  0.0527
  831MOL0     C14549   4.696   3.474  11.503 -0.3795 -0.3483  0.5730
  831MOL0     C14550   4.608   3.591  11.552  0.7516 -0.0562  0.1716
  831MOL0     C14551   4.515   3.531  11.657 -0.7045  0.1875  0.3215
  831MOL0     C14552   4.447   3.632  11.750  0.2474  0.2348 -0.3963
  831MOL0     C14553   4.344   3.706  11.671  0.3704 -0.0476  0.3723
  831MOL0     C14554   4.271   3.803  11.758  0.2897 -0.1887 -0.1991
  831MOL0     C14555   4.339   3.941  11.762 -0.0220  0.7170  0.3607
  831MOL0     C14556   4.247   4.055  11.811  0.2789 -0.2201 -0.1784
  831MOL0     N14557   4.120   4.083  11.741 -0.3715  0.0583 -0.9948
  831MOL0     C14558   4.060   4.202  11.752  0.0267  0.0015 -0.5956
  831MOL0     C14559   3.937   4.199  11.701  0.3489  0.4216 -1.4111
  831MOL0     C14560   3.841   4.311  11.716 -0.6600 -0.0913 -0.3769
  831MOL0     C14561   3.775   4.345  11.572  0.3847  0.7048 -0.4778
  831MOL0     C14562   3.646   4.424  11.591  0.1713 -0.1194 -0.6024
  831MOL0     C14563   3.567   4.440  11.460 -0.1720  0.4469  0.1732
  831MOL0     O14564   3.643   4.541  11.375  0.2137  0.4092 -0.0573
  831MOL0     C14565   3.627   4.672  11.392 -0.2929 -0.2772  0.5669
  831MOL0     C14566   3.558   4.723  11.505  1.2816 -0.0062 -0.0253
  831MOL0     C14567   3.531   4.862  11.512  0.1828 -0.2220  0.1929
  831MOL0     C14568   3.458   4.906  11.646 -0.6133 -0.2166  0.1320
  831MOL0     C14569   3.578   4.946  11.409 -0.5186 -0.6505 -0.1098
  831MOL0     C14570   3.568   5.100  11.409  0.4418 -0.3279  0.5931
  831MOL0     O14571   3.622   5.161  11.292 -0.1559 -0.0034  0.5676
  831MOL0     C14572   3.644   5.299  11.296  0.1378 -0.8106  0.1049
  831MOL0     C14573   3.539   5.396  11.308 -0.0372  0.1208 -0.7532
  831MOL0     C14574   3.572   5.529  11.336 -0.0009 -0.0666  0.6256
  831MOL0     C14575   3.710   5.573  11.339  1.0050  0.6505  0.4271
  831MOL0     O14576   3.756   5.697  11.344 -0.0573 -0.0087 -0.1800
  831MOL0     C14577   3.670   5.787  11.277 -0.0961  0.2750 -0.6305
  831MOL0     C14578   3.765   5.912  11.260  0.4735  0.5498 -0.0676
  831MOL0     C14579   3.684   6.026  11.182 -0.4964  0.4061 -0.4041
  831MOL0     C14580   3.778   6.150  11.156 -0.2324 -0.4459 -0.1649
  831MOL0     C14581   3.709   6.253  11.068 -0.2701 -0.7137 -0.6239
  831MOL0     C14582   3.580   6.327  11.115 -0.9344 -0.3727 -0.6214
  831MOL0     C14583   3.521   6.401  10.986  0.6492  0.3172  0.0006
  831MOL0     C14584   3.448   6.303  10.899 -0.0463  0.2106 -0.2417
  831MOL0    Cl14585   3.366   6.388  10.763  0.1038  0.4481  0.2218
  831MOL0     C14586   3.813   5.476  11.320  0.4663  0.4671  0.4743
  831MOL0     C14587   3.782   5.346  11.289 -0.1348 -0.0619 -0.5813
  831MOL0     O14588   3.517   5.159  11.501  0.3596 -1.5316  0.2970
  831MOL0     C14589   3.652   4.892  11.301 -0.6839  1.2305  0.0003
  831MOL0     C14590   3.687   4.758  11.299  1.0789 -0.1509  0.6688
  831MOL0     N14591   3.916   4.074  11.660 -0.0645 -0.0038  0.6075
  831MOL0     N14592   4.024   4.004  11.698  0.4142 -0.0408 -0.5059
  831MOL0     C14593   4.869   3.281  11.371 -0.2199 -0.2944 -0.4304
  831MOL0     C14594   4.960   3.195  11.313 -0.5960 -0.1857 -0.5440
  831MOL0     C14595   5.282   3.017  11.026 -0.2463  0.5436  0.3973
  831MOL0     C14596   5.389   3.047  10.934  0.1961  0.4879  0.8573
  831MOL0     C14597   5.490   2.957  10.912 -0.4818 -0.5379  0.7611
  831MOL0     C14598   5.489   2.828  10.971  0.3213 -0.4311 -0.3187
  831MOL0     O14599   5.584   2.733  10.959  0.0108  0.2436 -1.0730
  831MOL0     C14600   5.671   2.728  10.847  0.2903 -0.4201 -1.3130
  831MOL0     C14601   5.733   2.586  10.833 -0.2781 -0.4895  0.3904
  831MOL0     C14602   5.862   2.586  10.742 -0.1249  0.6243  0.0789
  831MOL0     C14603   5.904   2.455  10.696  0.7633  1.0716 -1.0591
  831MOL0     C14604   5.974   2.456  10.566 -0.4000 -0.8071  0.3822
  831MOL0     C14605   6.037   2.450  10.459 -0.4834 -0.3226 -0.1708
  831MOL0     C14606   5.384   2.794  11.060  0.5912  0.4596  0.1200
  831MOL0     C14607   5.281   2.888  11.086 -0.3961  0.0647 -0.5682
  831MOL0     C14608   5.174   2.846  11.183  0.0433  0.0027 -0.1648
  831MOL0     H14609   5.049   3.398  11.051  3.1260  3.2974  2.0813
  831MOL0     H14610   4.922   3.548  11.158  0.2053  0.9603  1.2243
  831MOL0     H14611   4.768   3.438  11.577 -0.8772 -1.1299  0.6861
  831MOL0     H14612   4.632   3.389  11.479  2.9367 -2.8916  0.0666
  831MOL0     H14613   4.671   3.673  11.587  0.6804  0.5849 -1.1163
  831MOL0     H14614   4.555   3.622  11.462 -0.5288 -1.4048  0.4270
  831MOL0     H14615   4.435   3.477  11.604 -1.0202 -0.0062  0.9853
  831MOL0     H14616   4.558   3.451  11.717 -0.4428 -0.5479 -0.8124
  831MOL0     H14617   4.394   3.577  11.828  0.4115 -0.2964 -0.6530
  831MOL0     H14618   4.521   3.701  11.791  0.9596 -1.1561  0.7329
  831MOL0     H14619   4.268   3.635  11.639  0.1808  1.4168 -2.8293
  831MOL0     H14620   4.396   3.748  11.584 -0.2407  0.9432  0.4694
  831MOL0     H14621   4.171   3.821  11.719 -0.0975  0.1525  0.9304
  831MOL0     H14622   4.247   3.760  11.855 -3.5109  1.1065 -0.4229
  831MOL0     H14623   4.368   3.977  11.663  0.8096 -0.8209  0.0091
  831MOL0     H14624   4.421   3.930  11.834 -0.3560 -0.5506  0.5653
  831MOL0     H14625   4.222   4.029  11.914  3.0043  1.3830  0.9806
  831MOL0     H14626   4.300   4.151  11.810 -0.2449  0.1156  1.3568
  831MOL0     H14627   4.111   4.293  11.782  1.6622 -0.2613 -2.3396
  831MOL0     H14628   3.891   4.405  11.742 -1.5215 -0.1450  1.6447
  831MOL0     H14629   3.761   4.296  11.788 -1.0275 -0.3813 -0.8331
  831MOL0     H14630   3.844   4.399  11.507  0.5365 -1.0865 -1.8551
  831MOL0     H14631   3.749   4.252  11.521  0.5848 -0.5744  1.6320
  831MOL0     H14632   3.580   4.366  11.655  0.1365 -0.9676 -1.3727
  831MOL0     H14633   3.672   4.517  11.641  0.6392  0.6243 -2.1642
  831MOL0     H14634   3.555   4.343  11.412  0.3749  1.6210 -2.4851
  831MOL0     H14635   3.469   4.466  11.501 -0.4962  0.8216 -0.8151
  831MOL0     H14636   3.511   4.663  11.581 -0.2062 -0.7082 -1.4399
  831MOL0     H14637   3.441   4.825  11.718  2.2477 -0.7596  0.3081
  831MOL0     H14638   3.366   4.962  11.628  0.0990  0.1779 -2.7301
  831MOL0     H14639   3.525   4.968  11.706  0.2308 -2.6525  1.8740
  831MOL0     H14640   3.436   5.361  11.306  0.2765 -0.7954 -1.3225
  831MOL0     H14641   3.488   5.597  11.346  1.0375  1.3103  0.2531
  831MOL0     H14642   3.618   5.742  11.191 -2.3934  2.0485 -0.2847
  831MOL0     H14643   3.588   5.811  11.346  1.7994  0.8131  1.5207
  831MOL0     H14644   3.811   5.932  11.357  2.4746  0.2280 -0.9018
  831MOL0     H14645   3.848   5.879  11.196  0.4882  0.3826  0.0403
  831MOL0     H14646   3.597   6.057  11.241 -0.5093 -0.7598  0.2051
  831MOL0     H14647   3.642   5.998  11.085 -1.9622 -0.0738  0.3423
  831MOL0     H14648   3.862   6.119  11.094  1.3770  0.3348  1.5283
  831MOL0     H14649   3.818   6.190  11.250 -1.6239 -2.3968  1.3521
  831MOL0     H14650   3.772   6.340  11.046 -0.1844 -0.2154  1.3583
  831MOL0     H14651   3.677   6.193  10.982 -3.0027 -0.5849  0.1962
  831MOL0     H14652   3.608   6.391  11.199  0.2039 -1.1820 -0.3607
  831MOL0     H14653   3.515   6.247  11.149 -1.1176  0.5828  1.3928
  831MOL0     H14654   3.606   6.443  10.932  0.5820  2.6966  1.6189
  831MOL0     H14655   3.466   6.490  11.018  0.7620  0.1030  0.8158
  831MOL0     H14656   3.375   6.246  10.957 -0.4167 -1.4093 -2.2231
  831MOL0     H14657   3.517   6.229  10.858 -0.9132  0.2820 -1.9136
  831MOL0     H14658   3.914   5.511  11.339 -0.9786  3.4651  3.9306
  831MOL0     H14659   3.870   5.284  11.275  0.6010  1.0772 -1.2208
  831MOL0     H14660   3.704   4.943  11.221  1.8677  1.5558  1.7657
  831MOL0     H14661   3.737   4.721  11.210  1.1108  1.8130 -0.1708
  831MOL0     H14662   4.810   3.248  11.456 -2.5118  0.6590 -1.5471
  831MOL0     H14663   4.966   3.091  11.345 -0.5258  0.3124  1.1784
  831MOL0     H14664   5.407   3.145  10.890 -0.5735  0.3490  0.2079
  831MOL0     H14665   5.578   2.987  10.856 -1.4425  1.1024  0.0327
  831MOL0     H14666   5.606   2.749  10.761 -0.0503 -2.5702 -1.6368
  831MOL0     H14667   5.757   2.794  10.858 -2.1393  2.6943  1.4465
  831MOL0     H14668   5.670   2.514  10.781 -1.1443 -0.8983  1.9247
  831MOL0     H14669   5.752   2.556  10.937 -0.1274 -2.2981 -0.1286
  831MOL0     H14670   5.840   2.639  10.649 -0.6585 -1.9494 -1.3474
  831MOL0     H14671   5.950   2.637  10.784  0.8081 -1.5256  0.8624
  831MOL0     H14672   5.817   2.389  10.692  1.1545  0.5778 -1.4951
  831MOL0     H14673   5.964   2.408  10.774 -1.9555 -1.0353 -0.0722
  831MOL0     H14674   6.084   2.450  10.363  1.7514  0.0293  0.8476
  831MOL0     H14675   5.389   2.693  11.099  2.9719  0.7641  0.7838
  831MOL0     H14676   5.076   2.845  11.134  0.1925  0.6943 -0.4941
  831MOL0     H14677   5.194   2.746  11.221  1.5696  0.4604  0.3271
  831MOL0     H14678   5.175   2.912  11.271  3.6168 -2.2901  1.7925
  832MOL0     O14679   3.775  10.160   4.820 -0.3703  0.3241  0.0601
  832MOL0     C14680   3.724  10.159   4.932 -0.1347 -0.7357  0.5930
  832MOL0     O14681   3.796  10.185   5.047 -0.2453 -0.1222 -0.0691
  832MOL0     C14682   3.932  10.196   5.041  0.5532 -0.2366 -0.1762
  832MOL0     C14683   3.995  10.318   5.067  0.5309  0.1690  0.6223
  832MOL0     C14684   4.130  10.333   5.070 -0.0080 -0.0554  0.4365
  832MOL0     C14685   4.206  10.218   5.048 -0.7666  0.4274 -0.6630
  832MOL0     O14686   4.348  10.219   5.038  0.5254  0.0941 -0.0070
  832MOL0     C14687   4.421  10.335   5.080 -0.8038 -0.1149  0.1773
  832MOL0     C14688   4.563  10.289   5.081 -0.3469  0.2268 -0.6351
  832MOL0     C14689   4.654  10.409   5.112  0.1762 -0.3206 -0.0225
  832MOL0     C14690   4.801  10.372   5.144  0.2289  0.4316  0.8098
  832MOL0     C14691   4.861  10.502   5.181  0.5968 -0.1364 -0.3031
  832MOL0     C14692   5.011  10.491   5.178 -0.5249  0.0848 -0.4188
  832MOL0     C14693   5.090  10.611   5.232  0.1014  0.3363 -0.3547
  832MOL0     C14694   5.065  10.636   5.387 -0.8319  0.4095  0.5122
  832MOL0     N14695   5.141  10.749   5.431  0.8375 -0.5093  0.2644
  832MOL0     C14696   5.279  10.768   5.430 -0.7843 -0.5717 -0.1187
  832MOL0     C14697   5.300  10.896   5.471  0.2257  0.2753 -0.4937
  832MOL0     C14698   5.437  10.963   5.491  1.0249  0.4463  0.1335
  832MOL0     C14699   5.456  11.039   5.625  0.7534  0.7469 -0.5412
  832MOL0     C14700   5.603  11.021   5.672 -1.0915 -0.2139 -0.5525
  832MOL0     C14701   5.611  11.110   5.794 -0.2785 -0.3745 -0.6063
  832MOL0     O14702   5.595  11.248   5.778  0.5291  0.4730 -0.1297
  832MOL0     C14703   5.691  11.321   5.708  0.6739  0.1125 -0.2205
  832MOL0     C14704   5.656  11.448   5.660  0.1863  0.2014 -0.0403
  832MOL0     C14705   5.746  11.542   5.610  0.4302  0.4407 -0.2987
  832MOL0     C14706   5.691  11.671   5.572 -0.0636  1.6401 -0.1850
  832MOL0     C14707   5.872  11.491   5.593  0.3299  0.0044 -0.9871
  832MOL0     C14708   5.979  11.569   5.527 -0.2721  0.0216 -0.4419
  832MOL0     O14709   6.098  11.548   5.576 -0.5876  0.4751  0.0032
  832MOL0     C14710   6.211  11.595   5.513  0.2575 -0.5256  0.7395
  832MOL0     C14711   6.296  11.675   5.590 -0.6026  0.3896  0.4436
  832MOL0     C14712   6.422  11.714   5.539 -0.5906 -0.4711  0.4820
  832MOL0     C14713   6.475  11.661   5.427 -0.0939  0.8042  0.1402
  832MOL0     O14714   6.596  11.695   5.381  0.3361 -0.0912 -0.3496
  832MOL0     C14715   6.612  11.719   5.238 -0.9199  0.8970 -0.6731
  832MOL0     C14716   6.738  11.805   5.235  0.4368  0.0429 -0.6588
  832MOL0     C14717   6.792  11.825   5.096 -0.4018 -0.5184  0.1548
  832MOL0     C14718   6.924  11.915   5.075  0.1330  0.3289 -0.4643
  832MOL0     C14719   6.982  11.900   4.931  0.1643  0.5602 -0.4040
  832MOL0     C14720   7.106  11.980   4.924  0.6386 -0.1789  0.4375
  832MOL0     C14721   7.081  12.132   4.889  1.0560 -1.2052 -0.1559
  832MOL0     C14722   7.211  12.211   4.868 -0.0718  0.0392  0.0405
  832MOL0    Cl14723   7.335  12.172   4.984  0.3792 -0.1515  0.5844
  832MOL0     C14724   6.388  11.583   5.346 -0.3786  0.0900  0.0584
  832MOL0     C14725   6.259  11.546   5.391  0.5811 -0.4466 -0.0913
  832MOL0     O14726   5.957  11.645   5.432 -0.1294 -0.1748  0.2930
  832MOL0     C14727   5.905  11.359   5.640 -0.1275 -0.1094 -0.5820
  832MOL0     C14728   5.811  11.273   5.685 -0.2724 -0.1842  0.6159
  832MOL0     N14729   5.171  10.949   5.513 -0.6039  0.6794 -0.0040
  832MOL0     N14730   5.082  10.863   5.475  0.1814 -0.2984  0.5930
  832MOL0     C14731   4.145  10.088   5.045 -0.0347  0.2781 -0.2186
  832MOL0     C14732   4.009  10.084   5.051 -0.3510  0.1659 -0.6604
  832MOL0     C14733   3.581  10.116   4.949  0.7945  0.4854 -0.0787
  832MOL0     C14734   3.502  10.112   4.835 -0.1192  0.5171  0.2376
  832MOL0     C14735   3.361  10.101   4.849 -0.2293  0.2982  0.1239
  832MOL0     C14736   3.299  10.072   4.970 -0.1185  0.8047  0.8550
  832MOL0     O14737   3.169  10.045   4.978  0.0246  0.2882 -0.3407
  832MOL0     C14738   3.130   9.923   5.045  1.1419  1.0557  1.0661
  832MOL0     C14739   2.988   9.894   4.996  0.8077  0.9087  0.1703
  832MOL0     C14740   2.899  10.027   5.017  0.0810  1.1423 -0.7506
  832MOL0     C14741   2.758   9.984   5.023 -0.1808  0.2017 -0.4013
  832MOL0     C14742   2.686  10.113   5.040 -0.0280 -0.4371  0.7641
  832MOL0     C14743   2.627  10.218   5.043  0.4929 -1.0179  0.6993
  832MOL0     C14744   3.381  10.055   5.082 -0.4050  0.6331 -0.5753
  832MOL0     C14745   3.522  10.074   5.075  0.2904 -1.0746  0.5501
  832MOL0     C14746   3.593  10.044   5.201  0.3101  0.0195 -0.5848
  832MOL0     H14747   3.938  10.408   5.088  1.4560  0.6060  1.3717
  832MOL0     H14748   4.173  10.433   5.069  0.9202 -0.3691 -2.7294
  832MOL0     H14749   4.392  10.369   5.180 -1.5315  1.6083 -0.5578
  832MOL0     H14750   4.395  10.408   5.002  0.9642 -0.4423 -0.7573
  832MOL0     H14751   4.581  10.213   5.158 -1.0265 -0.9208 -1.5689
  832MOL0     H14752   4.597  10.252   4.984 -2.6961  1.7570 -2.1381
  832MOL0     H14753   4.659  10.481   5.029  0.7780  3.0147  2.6803
  832MOL0     H14754   4.612  10.456   5.201 -1.0689 -2.9539  0.8872
  832MOL0     H14755   4.804  10.297   5.224  0.9520 -0.2532  0.1581
  832MOL0     H14756   4.845  10.319   5.059  0.8225  0.4704  1.0872
  832MOL0     H14757   4.820  10.535   5.277 -1.5230  0.6184 -1.3907
  832MOL0     H14758   4.838  10.581   5.109  1.3874 -2.2414 -3.0526
  832MOL0     H14759   5.038  10.406   5.241  0.0598  2.0144  2.1472
  832MOL0     H14760   5.057  10.460   5.084  1.5236 -0.7754  0.7849
  832MOL0     H14761   5.069  10.700   5.171 -1.1443 -0.6304 -1.4047
  832MOL0     H14762   5.196  10.588   5.220 -0.7520 -4.4323 -0.8874
  832MOL0     H14763   4.957  10.654   5.386 -0.7532  0.9165 -0.4416
  832MOL0     H14764   5.089  10.545   5.443  2.9814  1.2713  0.5105
  832MOL0     H14765   5.360  10.709   5.389  0.1160 -0.8837  1.9846
  832MOL0     H14766   5.454  11.033   5.408  0.6785 -3.2465 -3.3597
  832MOL0     H14767   5.510  10.883   5.480 -0.4073 -0.6481 -2.3194
  832MOL0     H14768   5.425  11.144   5.616  0.7195  0.8480  0.5855
  832MOL0     H14769   5.393  10.990   5.700  1.7459 -0.3987 -0.4237
  832MOL0     H14770   5.633  10.919   5.698  5.5375  0.9932 -1.7299
  832MOL0     H14771   5.674  11.051   5.594 -1.4161  1.0250 -0.3871
  832MOL0     H14772   5.525  11.078   5.854 -1.2466  0.1905 -1.6553
  832MOL0     H14773   5.701  11.086   5.852  0.7921  1.2942 -1.4654
  832MOL0     H14774   5.550  11.467   5.673 -0.8433 -3.2610 -2.1051
  832MOL0     H14775   5.589  11.652   5.539  0.3777  0.7285 -1.0668
  832MOL0     H14776   5.743  11.721   5.489 -1.8316  3.7713 -0.1123
  832MOL0     H14777   5.700  11.738   5.658 -0.8704 -0.9428  2.0298
  832MOL0     H14778   6.266  11.711   5.688  0.8209 -0.2954  1.1666
  832MOL0     H14779   6.499  11.781   5.577 -0.2599  0.5560 -1.8131
  832MOL0     H14780   6.629  11.632   5.174  0.0813  2.4663 -2.6603
  832MOL0     H14781   6.530  11.783   5.202  0.2625  3.3199  0.6752
  832MOL0     H14782   6.699  11.897   5.279  3.3786  0.2347  1.8884
  832MOL0     H14783   6.816  11.767   5.301 -1.2867 -2.0355  0.3118
  832MOL0     H14784   6.717  11.876   5.035  1.7628  0.6387 -1.6726
  832MOL0     H14785   6.817  11.727   5.053 -0.4213 -0.4294 -0.0607
  832MOL0     H14786   7.001  11.879   5.145 -0.5967 -1.3925 -0.5046
  832MOL0     H14787   6.896  12.014   5.111  0.8735 -0.1337  1.5250
  832MOL0     H14788   6.999  11.794   4.910  3.1772  0.3728  2.2778
  832MOL0     H14789   6.904  11.935   4.862 -2.6483  1.2909  2.8640
  832MOL0     H14790   7.184  11.940   4.858  2.5788  0.7484  2.0813
  832MOL0     H14791   7.161  11.974   5.018 -1.1917 -1.5452  1.4668
  832MOL0     H14792   7.032  12.174   4.978 -2.5795  0.8236 -2.8303
  832MOL0     H14793   7.017  12.154   4.803 -0.7240  1.6694  1.7163
  832MOL0     H14794   7.183  12.317   4.870 -1.2254 -0.2483  2.4009
  832MOL0     H14795   7.252  12.181   4.771 -2.1128 -2.5969 -0.1289
  832MOL0     H14796   6.419  11.553   5.247 -0.7756  3.3862 -1.1881
  832MOL0     H14797   6.204  11.480   5.325  0.0285 -1.3117  1.1938
  832MOL0     H14798   6.003  11.326   5.608 -0.2838 -0.9437 -0.2380
  832MOL0     H14799   5.834  11.171   5.714  2.0040 -0.5707 -2.1530
  832MOL0     H14800   4.202   9.996   5.041  0.0935  0.3263  0.4202
  832MOL0     H14801   3.960   9.989   5.069  1.5683 -0.4976  1.7161
  832MOL0     H14802   3.555  10.135   4.743  0.9850 -1.8843  0.2026
  832MOL0     H14803   3.293  10.105   4.764  0.8540 -0.0522 -0.7744
  832MOL0     H14804   3.195   9.839   5.021  3.0876  3.4285 -3.0177
  832MOL0     H14805   3.123   9.949   5.152 -0.5090  2.0099  0.7736
  832MOL0     H14806   2.938   9.816   5.054  0.8974 -0.9527 -2.0884
  832MOL0     H14807   2.991   9.879   4.887  0.8807  1.0600  0.1510
  832MOL0     H14808   2.917  10.066   5.118  2.5704  1.2909 -1.2021
  832MOL0     H14809   2.937  10.104   4.949  3.2742 -1.2319 -1.9374
  832MOL0     H14810   2.739   9.919   5.109 -0.4396 -1.4657 -1.6708
  832MOL0     H14811   2.730   9.930   4.932  1.0242 -0.2455 -0.5157
  832MOL0     H14812   2.563  10.304   5.038 -0.2963 -1.1252  4.9384
  832MOL0     H14813   3.345  10.027   5.180 -0.0391  1.5170 -0.1717
  832MOL0     H14814   3.681   9.990   5.165  0.3822  1.3032 -2.4949
  832MOL0     H14815   3.622  10.132   5.258  0.9277  0.1715 -1.1246
  832MOL0     H14816   3.538   9.980   5.270  0.5456  1.1690  0.6987
  833MOL0     O14817  10.855   3.607   5.810 -0.0172 -0.0039 -0.2936
  833MOL0     C14818  10.746   3.649   5.839  0.2376  0.7183  0.2824
  833MOL0     O14819  10.717   3.775   5.893  0.0250 -0.4691 -0.5009
  833MOL0     C14820  10.822   3.858   5.926  0.7466 -0.3344  0.0982
  833MOL0     C14821  10.946   3.874   5.856 -0.1924  0.7471 -0.1852
  833MOL0     C14822  11.039   3.968   5.907  0.1201  0.0257  0.6697
  833MOL0     C14823  11.011   4.041   6.021 -0.4141 -0.6602  0.5158
  833MOL0     O14824  11.100   4.124   6.085 -0.0304 -0.0054  0.2745
  833MOL0     C14825  11.223   4.152   6.024  0.1427  1.5624 -0.5902
  833MOL0     C14826  11.262   4.293   6.069 -0.5745  0.3663 -0.1670
  833MOL0     C14827  11.403   4.321   6.032 -0.9566 -0.1212  0.3351
  833MOL0     C14828  11.433   4.466   5.990  0.6010 -0.9463 -0.3053
  833MOL0     C14829  11.575   4.498   5.941 -0.9148 -0.8330  0.3004
  833MOL0     C14830  11.682   4.479   6.051 -0.4210  0.1661  0.4791
  833MOL0     C14831  11.820   4.554   6.022 -0.0642 -0.3434 -0.2435
  833MOL0     C14832  11.888   4.485   5.902  0.3195  0.4455  0.4925
  833MOL0     N14833  12.022   4.532   5.893  0.1828  0.0880  0.2917
  833MOL0     C14834  12.132   4.460   5.852 -0.3264 -0.4204  0.7348
  833MOL0     C14835  12.237   4.545   5.835  0.4401  0.6114 -0.3224
  833MOL0     C14836  12.380   4.512   5.813  0.1309  0.6214  0.0356
  833MOL0     C14837  12.452   4.432   5.923 -0.2027 -0.0247  0.3972
  833MOL0     C14838  12.588   4.402   5.862 -0.3306  0.6409 -0.1737
  833MOL0     C14839  12.662   4.317   5.964  0.4897  0.2904  0.0106
  833MOL0     O14840  12.805   4.319   5.937  0.6807  0.4967 -0.2443
  833MOL0     C14841  12.893   4.247   6.013 -0.0822 -0.1869 -0.2737
  833MOL0     C14842  13.022   4.248   5.968 -0.1852 -0.5836 -0.1967
  833MOL0     C14843  13.130   4.194   6.047  0.4696  0.4934  1.1712
  833MOL0     C14844  13.265   4.208   5.991  0.6565 -0.3691 -0.4140
  833MOL0     C14845  13.094   4.133   6.171 -0.1578 -0.2259  0.3170
  833MOL0     C14846  13.187   4.083   6.276  0.5040 -0.1271  0.6357
  833MOL0     O14847  13.136   4.084   6.400 -0.3255 -0.9476 -0.2819
  833MOL0     C14848  13.202   4.032   6.505 -0.4014 -0.1551 -0.0659
  833MOL0     C14849  13.160   3.905   6.552  0.4176 -1.0695  0.1946
  833MOL0     C14850  13.205   3.852   6.665 -0.4802  0.0926  0.0966
  833MOL0     C14851  13.307   3.920   6.730 -0.3052 -0.0988  0.0863
  833MOL0     O14852  13.364   3.887   6.849 -0.5110 -0.0853  0.3261
  833MOL0     C14853  13.341   3.761   6.909  0.0125  0.3172  0.5987
  833MOL0     C14854  13.230   3.774   7.025  0.9302 -0.4460  0.0179
  833MOL0     C14855  13.085   3.809   6.960 -0.2958 -0.1274 -0.7310
  833MOL0     C14856  12.976   3.829   7.059  0.2692 -0.1021 -0.0055
  833MOL0     C14857  12.853   3.894   7.004  0.0015 -0.2264 -0.1777
  833MOL0     C14858  12.800   3.836   6.871  0.7235 -0.0949  0.0022
  833MOL0     C14859  12.768   3.692   6.886  0.0183  0.2548 -0.3057
  833MOL0     C14860  12.721   3.648   6.747  0.1301 -0.0939  0.7832
  833MOL0    Cl14861  12.557   3.715   6.701 -0.2774  0.0200  0.3284
  833MOL0     C14862  13.357   4.041   6.680 -1.0990  0.5130 -0.8082
  833MOL0     C14863  13.307   4.103   6.563  0.8646 -0.4154 -0.0957
  833MOL0     O14864  13.302   4.051   6.254 -0.2367 -0.1075 -0.4000
  833MOL0     C14865  12.957   4.125   6.201 -0.4198  0.5652  0.0215
  833MOL0     C14866  12.864   4.174   6.119 -0.2117  0.2456 -0.8400
  833MOL0     N14867  12.185   4.671   5.847 -0.0529  0.2602  0.0650
  833MOL0     N14868  12.062   4.664   5.881  0.1429 -0.0410 -0.1045
  833MOL0     C14869  10.896   4.017   6.088  0.6732  0.1563  0.5814
  833MOL0     C14870  10.797   3.930   6.041 -0.1232  0.7330  0.4011
  833MOL0     C14871  10.616   3.557   5.845 -0.6605  0.2526  0.4910
  833MOL0     C14872  10.501   3.601   5.914 -0.4802  0.7197 -0.0554
  833MOL0     C14873  10.384   3.530   5.924 -0.5088  0.5188 -0.0751
  833MOL0     C14874  10.382   3.405   5.855 -0.7555  0.0449 -0.2175
  833MOL0     O14875  10.267   3.330   5.848  0.3886  0.3900  0.0991
  833MOL0     C14876  10.131   3.378   5.887 -0.9780 -0.1776  0.2398
  833MOL0     C14877  10.077   3.488   5.786  0.7149 -0.1062 -0.4359
  833MOL0     C14878   9.928   3.518   5.789 -0.3982 -0.4916  0.3206
  833MOL0     C14879   9.912   3.640   5.710  0.9395 -0.1442  0.9559
  833MOL0     C14880   9.978   3.766   5.751  0.0179 -0.1107  0.6003
  833MOL0     C14881  10.032   3.867   5.805  1.0758 -0.0401  0.6266
  833MOL0     C14882  10.496   3.348   5.803 -0.4450  0.0680 -1.1308
  833MOL0     C14883  10.620   3.425   5.801 -0.0853 -0.2651 -0.4710
  833MOL0     C14884  10.739   3.359   5.742 -0.0906  0.2193 -0.7306
  833MOL0     H14885  10.962   3.822   5.762 -2.9780 -0.8659  0.1011
  833MOL0     H14886  11.135   3.975   5.857  0.2945  1.6027  1.1620
  833MOL0     H14887  11.231   4.135   5.916  0.3788 -0.3963 -0.3036
  833MOL0     H14888  11.296   4.096   6.083 -0.2027  3.2170  1.5669
  833MOL0     H14889  11.199   4.372   6.027  0.1093  1.2190  0.3471
  833MOL0     H14890  11.239   4.312   6.175 -3.5209 -0.4667 -0.5684
  833MOL0     H14891  11.469   4.300   6.117 -1.4903  0.5351  0.9177
  833MOL0     H14892  11.435   4.251   5.953 -2.2336  1.2837 -1.5007
  833MOL0     H14893  11.355   4.501   5.921  1.6370 -0.6866 -1.3699
  833MOL0     H14894  11.417   4.536   6.072  0.2564 -0.1233 -1.0557
  833MOL0     H14895  11.584   4.603   5.911  0.3397 -0.8366  0.5895
  833MOL0     H14896  11.612   4.441   5.855  0.4536 -1.5694  1.3348
  833MOL0     H14897  11.661   4.514   6.153  2.1653  0.9227  0.8324
  833MOL0     H14898  11.696   4.371   6.056  3.5764  0.4238 -1.1561
  833MOL0     H14899  11.885   4.546   6.109  1.1440  0.9689 -0.9913
  833MOL0     H14900  11.807   4.661   6.003  0.8241 -0.4728 -1.7580
  833MOL0     H14901  11.880   4.376   5.897 -0.2457  0.5000 -4.5168
  833MOL0     H14902  11.829   4.515   5.815  0.3651 -3.5545 -1.1150
  833MOL0     H14903  12.129   4.351   5.852  0.5763 -0.4527  1.4621
  833MOL0     H14904  12.430   4.609   5.819  2.9461 -0.8158  1.5628
  833MOL0     H14905  12.391   4.461   5.717 -0.9390 -1.4866  0.9730
  833MOL0     H14906  12.452   4.479   6.022  0.4752 -0.1704  0.4720
  833MOL0     H14907  12.398   4.338   5.935 -1.5584  0.8910  1.8994
  833MOL0     H14908  12.589   4.355   5.763  2.0144 -1.7931  0.8828
  833MOL0     H14909  12.628   4.504   5.860  0.9628  0.2029  1.1300
  833MOL0     H14910  12.649   4.351   6.067  1.1483 -0.9366  0.5144
  833MOL0     H14911  12.629   4.213   5.962  0.5318  0.2566  0.7608
  833MOL0     H14912  13.061   4.290   5.876  1.4373 -0.2657  0.5993
  833MOL0     H14913  13.330   4.129   6.029 -0.0630 -0.2673  1.1492
  833MOL0     H14914  13.301   4.304   6.028  1.3864 -0.0181 -1.9864
  833MOL0     H14915  13.265   4.197   5.883 -0.7622  0.4703 -0.5326
  833MOL0     H14916  13.079   3.855   6.501 -1.7885  3.0811 -0.8599
  833MOL0     H14917  13.172   3.750   6.681 -0.8176 -0.2087 -2.1602
  833MOL0     H14918  13.319   3.684   6.834  4.4304  2.5831 -3.6471
  833MOL0     H14919  13.442   3.732   6.942  1.1931  3.9513  0.5789
  833MOL0     H14920  13.219   3.682   7.083 -1.2398 -0.3262 -0.1119
  833MOL0     H14921  13.260   3.856   7.092 -1.3719  1.1182 -0.7295
  833MOL0     H14922  13.067   3.723   6.895 -0.1840 -1.4129  0.8595
  833MOL0     H14923  13.093   3.899   6.899 -0.6013 -0.2695 -0.9804
  833MOL0     H14924  13.026   3.884   7.140  2.7729  0.8764 -2.0803
  833MOL0     H14925  12.947   3.730   7.096 -1.0769 -0.7739 -2.6182
  833MOL0     H14926  12.773   3.888   7.078  1.1970  2.7068  1.5510
  833MOL0     H14927  12.879   3.999   6.986  1.2693 -0.5057 -0.0544
  833MOL0     H14928  12.883   3.835   6.799  1.8400  2.6739  1.1037
  833MOL0     H14929  12.715   3.899   6.845  1.0394  0.4363  0.2337
  833MOL0     H14930  12.692   3.679   6.963  2.5138 -1.4356  2.0329
  833MOL0     H14931  12.854   3.636   6.923 -2.6592 -3.9283  0.2657
  833MOL0     H14932  12.711   3.539   6.746  0.9159 -0.1750  0.3434
  833MOL0     H14933  12.792   3.675   6.667 -1.8111  2.5275 -0.1944
  833MOL0     H14934  13.430   4.098   6.736 -0.7349  0.3788 -1.1466
  833MOL0     H14935  13.333   4.205   6.537 -0.6113  0.2691  0.9476
  833MOL0     H14936  12.934   4.073   6.293 -2.2079 -0.2439 -0.8279
  833MOL0     H14937  12.765   4.176   6.162 -0.1882 -1.5513 -0.6462
  833MOL0     H14938  10.874   4.077   6.176 -1.5827 -0.5370  0.5659
  833MOL0     H14939  10.707   3.919   6.100  0.7467  1.3072  1.8829
  833MOL0     H14940  10.515   3.691   5.973  2.1483  0.7297 -0.5668
  833MOL0     H14941  10.290   3.576   5.954 -2.7486 -2.4142 -2.0415
  833MOL0     H14942  10.068   3.288   5.883  0.5814 -1.3113  0.0163
  833MOL0     H14943  10.126   3.408   5.992 -0.7374 -2.6210  1.0268
  833MOL0     H14944  10.099   3.468   5.681  1.7052 -1.0625 -0.0601
  833MOL0     H14945  10.136   3.578   5.807 -1.3709  1.4863 -0.9570
  833MOL0     H14946   9.875   3.441   5.732 -0.9530  1.1283 -1.4420
  833MOL0     H14947   9.879   3.526   5.887  2.3044  0.1017  1.7575
  833MOL0     H14948   9.804   3.657   5.712  0.9995  0.1882  1.7008
  833MOL0     H14949   9.946   3.621   5.608 -0.2222 -0.2284  0.5814
  833MOL0     H14950  10.071   3.951   5.859  2.3808 -0.8980  1.0546
  833MOL0     H14951  10.490   3.251   5.755 -1.5583 -1.5798  2.0503
  833MOL0     H14952  10.757   3.375   5.635  1.2130 -2.4132 -0.9938
  833MOL0     H14953  10.829   3.378   5.801  0.2705 -1.1877 -0.8004
  833MOL0     H14954  10.719   3.253   5.760 -2.3900  0.5576 -1.0258
  834MOL0     O14955   6.578  10.674   9.145  0.6179  0.7241 -0.7353
  834MOL0     C14956   6.495  10.667   9.234  0.0580 -0.8204  0.1150
  834MOL0     O14957   6.521  10.639   9.366 -0.0504 -0.4938 -0.0377
  834MOL0     C14958   6.650  10.622   9.398 -0.3883  0.2005 -0.2839
  834MOL0     C14959   6.716  10.704   9.484  0.0823  0.1227  0.2674
  834MOL0     C14960   6.846  10.676   9.530 -0.3269  0.4992  0.4057
  834MOL0     C14961   6.911  10.559   9.493  0.9261 -0.6556 -0.4147
  834MOL0     O14962   7.038  10.537   9.527 -0.5671  0.8642  0.1378
  834MOL0     C14963   7.071  10.451   9.641 -0.5477 -0.9243  0.0567
  834MOL0     C14964   7.213  10.498   9.681  1.2859 -0.1510  0.5412
  834MOL0     C14965   7.272  10.404   9.787  0.0139  0.1443  0.7309
  834MOL0     C14966   7.424  10.426   9.802 -0.2422  0.6317 -0.0269
  834MOL0     C14967   7.483  10.332   9.911  0.1774 -0.2775 -0.3134
  834MOL0     C14968   7.642  10.328   9.912  0.7971  0.3786  0.2788
  834MOL0     C14969   7.691  10.222  10.014  0.8539  0.5452 -0.2759
  834MOL0     C14970   7.713  10.083   9.958  0.0411  0.8376 -0.2274
  834MOL0     N14971   7.771   9.991  10.052 -0.5098  0.6277 -0.4182
  834MOL0     C14972   7.799  10.006  10.187 -0.0175 -0.6306 -0.4191
  834MOL0     C14973   7.867   9.895  10.231  0.8725 -0.5089 -0.4732
  834MOL0     C14974   7.899   9.878  10.378  0.5043  0.1238  0.0016
  834MOL0     C14975   8.050   9.822  10.379  0.0328 -0.4985  0.1781
  834MOL0     C14976   8.139   9.940  10.328  1.4985  0.2055 -0.8827
  834MOL0     C14977   8.288   9.912  10.336 -0.2976  0.1235  0.5105
  834MOL0     O14978   8.338   9.886  10.468 -0.0137 -0.3614 -0.2825
  834MOL0     C14979   8.470   9.860  10.496 -0.2173 -0.5361  0.3975
  834MOL0     C14980   8.512   9.840  10.632 -0.5518  1.4766  0.9874
  834MOL0     C14981   8.650   9.831  10.673  0.2162  0.3308  1.1805
  834MOL0     C14982   8.666   9.837  10.825 -0.3658  0.9526 -0.3610
  834MOL0     C14983   8.746   9.818  10.571 -0.2372 -0.6202 -0.2103
  834MOL0     C14984   8.895   9.814  10.611  0.0784 -1.0044 -0.0492
  834MOL0     O14985   8.991   9.834  10.519 -0.3622 -0.0840  0.4755
  834MOL0     C14986   9.125   9.803  10.543  0.0465  0.6495 -0.7881
  834MOL0     C14987   9.196   9.807  10.671 -0.3561 -0.6644  0.0577
  834MOL0     C14988   9.336   9.773  10.675  1.1303 -0.5173  0.2530
  834MOL0     C14989   9.404   9.719  10.563  0.6725  0.0112  0.0896
  834MOL0     O14990   9.531   9.688  10.583 -0.2811  0.3987 -0.3501
  834MOL0     C14991   9.606   9.636  10.467  0.1943  0.4504 -0.8387
  834MOL0     C14992   9.757   9.611  10.511  0.2061 -0.1483  0.7333
  834MOL0     C14993   9.822   9.527  10.405 -0.2589  0.0792  0.4458
  834MOL0     C14994   9.951   9.465  10.452 -0.2135 -0.3873 -0.6096
  834MOL0     C14995  10.026   9.385  10.342 -0.2456  0.4413 -0.3995
  834MOL0     C14996  10.142   9.316  10.411  0.4537 -0.5286  0.2191
  834MOL0     C14997  10.252   9.254  10.307  0.0505  0.7847 -1.0315
  834MOL0     C14998  10.356   9.178  10.391  0.5852 -0.3676  0.1711
  834MOL0    Cl14999  10.517   9.161  10.303 -0.3256 -0.2407  0.0351
  834MOL0     C15000   9.331   9.708  10.447  0.2913  0.3649 -0.0825
  834MOL0     C15001   9.197   9.751  10.438 -0.4266  0.5791 -0.1577
  834MOL0     O15002   8.913   9.768  10.724 -0.8454  0.4728  0.0406
  834MOL0     C15003   8.707   9.816  10.439  0.3846 -0.1393  0.6155
  834MOL0     C15004   8.575   9.852  10.396 -0.2104  0.1731  0.0099
  834MOL0     N15005   7.877   9.814  10.119 -0.1522  0.4516 -0.8404
  834MOL0     N15006   7.829   9.870  10.014  0.8143  0.4929 -0.1653
  834MOL0     C15007   6.848  10.472   9.406 -0.1011 -0.0292  0.0371
  834MOL0     C15008   6.719  10.501   9.369  0.5793 -0.7529 -0.3852
  834MOL0     C15009   6.344  10.697   9.197  0.6977 -0.5388  0.7304
  834MOL0     C15010   6.257  10.720   9.310  0.3112  0.6952  0.6017
  834MOL0     C15011   6.120  10.736   9.290  0.2643 -0.1890 -0.5129
  834MOL0     C15012   6.063  10.731   9.154  0.2329  0.0624 -0.4877
  834MOL0     O15013   5.928  10.727   9.124  0.0887 -0.2119  0.3964
  834MOL0     C15014   5.826  10.761   9.216  0.0904 -0.4608 -0.1741
  834MOL0     C15015   5.684  10.745   9.160  0.0436  0.4626 -0.6960
  834MOL0     C15016   5.570  10.805   9.255  0.1853  0.0198  1.2568
  834MOL0     C15017   5.611  10.955   9.298  0.2402  0.4102  0.0843
  834MOL0     C15018   5.515  10.997   9.405  0.0865  0.2041 -0.7098
  834MOL0     C15019   5.446  11.028   9.505 -0.0341  0.6323  0.7147
  834MOL0     C15020   6.145  10.711   9.046 -0.2797  0.1434 -0.5995
  834MOL0     C15021   6.291  10.692   9.069  0.5134  0.3872  1.0029
  834MOL0     C15022   6.369  10.640   8.952  0.3010 -0.0199  0.5006
  834MOL0     H15023   6.664  10.792   9.520 -0.4111 -0.0496 -0.0254
  834MOL0     H15024   6.886  10.741   9.607  2.3189 -1.2760  0.6479
  834MOL0     H15025   7.065  10.344   9.619  1.3598 -0.8101 -1.3560
  834MOL0     H15026   7.015  10.476   9.732  3.4240 -1.4532  2.9616
  834MOL0     H15027   7.278  10.512   9.594 -0.1055  1.4278 -0.3175
  834MOL0     H15028   7.204  10.594   9.734  2.0405  0.7532 -0.8861
  834MOL0     H15029   7.233  10.409   9.889  2.7668  0.6754  1.8621
  834MOL0     H15030   7.250  10.304   9.748  1.2837 -0.2795  1.0598
  834MOL0     H15031   7.480  10.396   9.713  0.5286 -1.0523  0.9754
  834MOL0     H15032   7.457  10.527   9.827  2.0150 -0.4193  1.5839
  834MOL0     H15033   7.453  10.228   9.901  1.1574 -0.3777 -3.5170
  834MOL0     H15034   7.451  10.359  10.012  1.3217 -1.0607  0.2773
  834MOL0     H15035   7.679  10.308   9.811  0.3148 -1.3103  0.3957
  834MOL0     H15036   7.679  10.427   9.937 -0.2226  1.4973 -2.2102
  834MOL0     H15037   7.612  10.212  10.090 -0.9619  0.7242 -2.0472
  834MOL0     H15038   7.785  10.248  10.063  1.3457 -0.6059 -0.5824
  834MOL0     H15039   7.613  10.043   9.938  0.4873  0.4003 -1.7052
  834MOL0     H15040   7.769  10.098   9.866  0.2039  2.2341  0.0766
  834MOL0     H15041   7.760  10.086  10.250 -1.7518 -0.2586 -1.8815
  834MOL0     H15042   7.833   9.805  10.426  1.1881 -1.1974 -0.9994
  834MOL0     H15043   7.887   9.972  10.433 -1.3197  1.2541 -2.1977
  834MOL0     H15044   8.072   9.787  10.480 -1.7254  2.0094  1.5440
  834MOL0     H15045   8.055   9.745  10.302 -0.7972  0.6627 -1.1030
  834MOL0     H15046   8.124   9.962  10.221 -1.8911  3.1513  0.0227
  834MOL0     H15047   8.114  10.031  10.383  2.6942  0.3887 -0.6170
  834MOL0     H15048   8.302   9.822  10.276 -1.8472 -0.3481  0.8138
  834MOL0     H15049   8.337  10.000  10.294 -4.2747  2.3097 -0.0526
  834MOL0     H15050   8.438   9.825  10.710 -0.4042 -1.3328  0.7000
  834MOL0     H15051   8.589   9.895  10.878 -1.2969 -0.1819 -0.4259
  834MOL0     H15052   8.751   9.899  10.854 -0.8527  0.5410  2.2440
  834MOL0     H15053   8.665   9.734  10.863  1.1788  1.7774  2.1264
  834MOL0     H15054   9.142   9.851  10.754  1.2032  2.4164 -0.4225
  834MOL0     H15055   9.393   9.796  10.764 -0.9005 -0.0527  1.4850
  834MOL0     H15056   9.551   9.546  10.438  0.1781  0.6495 -1.4222
  834MOL0     H15057   9.598   9.696  10.376 -1.6607 -1.0532 -1.7511
  834MOL0     H15058   9.813   9.705  10.506  0.8317 -0.5080  0.9692
  834MOL0     H15059   9.762   9.568  10.611 -4.3571 -0.4264  1.0674
  834MOL0     H15060   9.855   9.590  10.322 -0.2299 -1.5248 -0.8136
  834MOL0     H15061   9.756   9.445  10.372  3.6090 -4.4087  2.6143
  834MOL0     H15062   9.936   9.401  10.540 -1.7738  0.3619 -0.3036
  834MOL0     H15063  10.018   9.545  10.484 -1.2817  1.1609 -2.1005
  834MOL0     H15064   9.953   9.312  10.305 -0.8823  0.7910  0.1389
  834MOL0     H15065  10.072   9.449  10.267 -1.7405 -1.7859 -3.4363
  834MOL0     H15066  10.106   9.234  10.474  1.0116 -0.2684  0.8735
  834MOL0     H15067  10.188   9.391  10.475 -1.5430  0.1691  0.9297
  834MOL0     H15068  10.308   9.331  10.253  1.4087 -0.6554 -1.7489
  834MOL0     H15069  10.212   9.178  10.239 -1.1685 -1.9063  2.3917
  834MOL0     H15070  10.304   9.083  10.404  1.2775 -1.3429 -3.2383
  834MOL0     H15071  10.377   9.236  10.482  1.2743  2.0843 -1.4327
  834MOL0     H15072   9.366   9.659  10.357 -2.0579  0.0721 -0.9061
  834MOL0     H15073   9.139   9.756  10.347  1.9085  0.1963 -1.7638
  834MOL0     H15074   8.766   9.792  10.351 -1.6658  0.4037 -0.9893
  834MOL0     H15075   8.569   9.869  10.289  1.3340  1.0123  0.0334
  834MOL0     H15076   6.902  10.383   9.376  1.2959  0.1169  1.9275
  834MOL0     H15077   6.671  10.438   9.295  1.2337 -1.1039 -0.5129
  834MOL0     H15078   6.303  10.728   9.408  1.6358  0.3178  0.0361
  834MOL0     H15079   6.065  10.739   9.384  3.1837  1.0282  1.2889
  834MOL0     H15080   5.833  10.693   9.301 -1.8899 -0.2555  0.2004
  834MOL0     H15081   5.847  10.865   9.241 -1.7893  0.0491 -0.5405
  834MOL0     H15082   5.661  10.639   9.146 -0.6001  0.5072 -0.0360
  834MOL0     H15083   5.667  10.791   9.062 -0.3436 -1.0154 -1.3562
  834MOL0     H15084   5.478  10.805   9.196  0.7361 -0.6273  0.3703
  834MOL0     H15085   5.557  10.744   9.345  0.4807 -2.6534 -0.4139
  834MOL0     H15086   5.608  11.021   9.211 -1.8227  0.1528 -0.0855
  834MOL0     H15087   5.709  10.969   9.344  0.2409  4.6242 -0.8382
  834MOL0     H15088   5.397  11.059   9.595  0.7139 -0.8639  1.6571
  834MOL0     H15089   6.104  10.698   8.946  2.9034 -0.9200 -1.8950
  834MOL0     H15090   6.305  10.633   8.864 -1.8518 -0.6013  2.0366
  834MOL0     H15091   6.445  10.716   8.935 -0.7275  0.8823 -0.1291
  834MOL0     H15092   6.410  10.539   8.967  0.3123  0.1207  1.4901
  835MOL0     O15093   3.375   1.242   7.264  0.2907  0.3749  0.0532
  835MOL0     C15094   3.363   1.226   7.387 -0.9989 -0.1678 -0.5073
  835MOL0     O15095   3.466   1.179   7.465  0.6379 -0.0023  0.0714
  835MOL0     C15096   3.599   1.212   7.453  0.0733  0.7568  0.4829
  835MOL0     C15097   3.691   1.133   7.517  0.4962 -0.0597 -0.4075
  835MOL0     C15098   3.828   1.160   7.495  0.1671  0.2971 -0.6744
  835MOL0     C15099   3.876   1.269   7.426 -0.2032 -0.2162  0.3177
  835MOL0     O15100   4.007   1.311   7.413 -0.1277  0.5073 -0.6231
  835MOL0     C15101   4.109   1.223   7.448 -0.0016 -0.2326 -0.5900
  835MOL0     C15102   4.247   1.271   7.395 -0.1081 -1.1837  0.6000
  835MOL0     C15103   4.362   1.188   7.442 -0.5214 -0.5845  0.0754
  835MOL0     C15104   4.354   1.055   7.368  0.6166  0.8639 -0.2283
  835MOL0     C15105   4.495   0.994   7.336  0.1916 -0.2336  0.3338
  835MOL0     C15106   4.486   0.862   7.260  0.2861  0.5598  1.1387
  835MOL0     C15107   4.628   0.796   7.239 -0.3858 -0.4901  0.2038
  835MOL0     C15108   4.696   0.851   7.114 -0.0525  0.5400 -0.9693
  835MOL0     N15109   4.841   0.807   7.123  0.5717  0.1812  1.3482
  835MOL0     C15110   4.950   0.894   7.103  1.4028 -0.1453 -0.5553
  835MOL0     C15111   5.052   0.825   7.147 -0.2225  0.2389  0.1445
  835MOL0     C15112   5.195   0.870   7.150  0.1686 -0.2120 -0.2653
  835MOL0     C15113   5.296   0.756   7.121 -0.4826  0.7292  0.6206
  835MOL0     C15114   5.437   0.821   7.131 -0.6975  0.2676 -0.0883
  835MOL0     C15115   5.529   0.700   7.143 -0.2060 -0.1583 -1.0100
  835MOL0     O15116   5.660   0.741   7.152 -0.3463 -0.3580 -0.1273
  835MOL0     C15117   5.758   0.647   7.171  0.5664  0.2079 -0.1112
  835MOL0     C15118   5.723   0.511   7.188 -0.6402 -0.1604 -0.3073
  835MOL0     C15119   5.823   0.410   7.199 -0.3049  0.5573 -0.6966
  835MOL0     C15120   5.773   0.266   7.219  0.0054 -0.1103  0.2808
  835MOL0     C15121   5.961   0.442   7.198  0.1579 -0.1761 -0.2035
  835MOL0     C15122   6.076   0.353   7.230  0.5034  0.7869 -0.0764
  835MOL0     O15123   6.199   0.418   7.215  0.2090  0.7381  0.3068
  835MOL0     C15124   6.303   0.342   7.168 -0.5567 -0.7201 -0.1603
  835MOL0     C15125   6.436   0.400   7.163  0.2335  0.9489  0.1432
  835MOL0     C15126   6.542   0.337   7.105 -0.0726  0.4731 -0.1357
  835MOL0     C15127   6.523   0.216   7.036  0.3812  0.9315  0.0519
  835MOL0     O15128   6.635   0.174   6.975 -0.2481 -0.0266 -0.2899
  835MOL0     C15129   6.642   0.037   6.926 -0.6284 -0.8119  0.1098
  835MOL0     C15130   6.789   0.001   6.901 -0.4251 -0.3302 -0.9901
  835MOL0     C15131   6.842   0.078   6.774 -0.5462 -0.1085  0.3814
  835MOL0     C15132   6.992   0.081   6.782 -0.1291 -0.7915 -0.2771
  835MOL0     C15133   7.050   0.134   6.648 -0.3117  0.3828 -0.5324
  835MOL0     C15134   7.040   0.033   6.528  0.2414 -1.0135 -0.0674
  835MOL0     C15135   7.168  -0.057   6.525  0.2847 -0.1408  0.6331
  835MOL0     C15136   7.184  -0.140   6.399  0.2011  0.2967  0.3430
  835MOL0    Cl15137   7.036  -0.251   6.399  0.4307  0.1705  0.0738
  835MOL0     C15138   6.396   0.159   7.031 -0.3648 -0.7044  0.1083
  835MOL0     C15139   6.292   0.222   7.101 -0.2969  0.0240  0.1615
  835MOL0     O15140   6.058   0.233   7.264 -0.7333  0.1195 -0.1895
  835MOL0     C15141   5.994   0.581   7.177 -0.4682 -0.2262  0.0803
  835MOL0     C15142   5.897   0.675   7.162 -1.1055 -0.0659 -0.3703
  835MOL0     N15143   5.014   0.700   7.185 -0.3916  0.5474  0.2821
  835MOL0     N15144   4.891   0.682   7.155  0.0669  0.1345 -0.1660
  835MOL0     C15145   3.774   1.348   7.362 -0.0506 -0.0296  0.2243
  835MOL0     C15146   3.638   1.324   7.383 -0.7503 -0.9506  0.2443
  835MOL0     C15147   3.231   1.250   7.453 -0.8452 -0.1400 -1.3355
  835MOL0     C15148   3.226   1.213   7.591 -0.1713  0.5206  0.9560
  835MOL0     C15149   3.106   1.245   7.664  0.8449  0.0060 -0.2256
  835MOL0     C15150   2.997   1.296   7.600 -0.1863 -0.7254  0.1080
  835MOL0     O15151   2.889   1.334   7.664  0.4759  0.2750 -0.3724
  835MOL0     C15152   2.871   1.317   7.808  0.2500  0.7430  0.1248
  835MOL0     C15153   2.728   1.352   7.847  0.0720  0.3219  0.1255
  835MOL0     C15154   2.622   1.252   7.780 -0.2004 -0.0647 -0.3372
  835MOL0     C15155   2.473   1.283   7.823  0.7355 -0.0886 -0.6482
  835MOL0     C15156   2.447   1.222   7.955  0.3735  0.3470  0.4826
  835MOL0     C15157   2.441   1.176   8.062  0.3620  0.0349 -0.0483
  835MOL0     C15158   2.999   1.333   7.461 -0.1229  0.2852 -0.7453
  835MOL0     C15159   3.118   1.304   7.387  0.0011  0.0691 -0.5449
  835MOL0     C15160   3.120   1.358   7.248 -0.3061  0.6967  0.1308
  835MOL0     H15161   3.666   1.044   7.573  1.5045  0.1171  0.3586
  835MOL0     H15162   3.897   1.085   7.534 -0.3923 -0.0947 -0.4137
  835MOL0     H15163   4.095   1.123   7.405  2.7457  0.2374 -2.8885
  835MOL0     H15164   4.119   1.221   7.557 -1.0516  4.3649 -0.1942
  835MOL0     H15165   4.237   1.264   7.286 -3.2001 -2.1458  0.8498
  835MOL0     H15166   4.268   1.376   7.420 -0.7836 -1.4050  2.2010
  835MOL0     H15167   4.454   1.237   7.409 -1.8304  0.5852 -2.1075
  835MOL0     H15168   4.373   1.169   7.549  1.0147 -0.1213  0.0261
  835MOL0     H15169   4.293   1.000   7.441  1.0922 -0.1104 -0.5454
  835MOL0     H15170   4.291   1.057   7.278 -2.2177  1.9924  1.6420
  835MOL0     H15171   4.527   0.977   7.439  0.4699 -2.2973 -0.0540
  835MOL0     H15172   4.565   1.060   7.283 -1.0906  1.5096  0.6985
  835MOL0     H15173   4.416   0.790   7.303  0.2583 -2.2266 -2.9814
  835MOL0     H15174   4.442   0.882   7.162  1.8335  0.2853  0.3549
  835MOL0     H15175   4.618   0.687   7.233 -1.8217 -0.3361 -0.8992
  835MOL0     H15176   4.690   0.816   7.326  1.5824  1.1174 -1.4624
  835MOL0     H15177   4.627   0.822   7.034 -0.3873  0.1528 -0.5392
  835MOL0     H15178   4.681   0.958   7.132 -0.2872  0.1996  1.0702
  835MOL0     H15179   4.944   1.000   7.081 -2.5603 -0.1727 -0.1919
  835MOL0     H15180   5.213   0.910   7.250  1.0146 -0.9259 -0.1220
  835MOL0     H15181   5.211   0.954   7.081  0.1805  3.1640  3.4740
  835MOL0     H15182   5.282   0.665   7.180  0.2714 -0.1711 -0.5278
  835MOL0     H15183   5.281   0.727   7.016 -1.2059 -0.2803  0.9855
  835MOL0     H15184   5.460   0.875   7.039  0.0108 -0.2151 -0.1997
  835MOL0     H15185   5.453   0.888   7.216  0.3160 -0.8888  0.6734
  835MOL0     H15186   5.496   0.645   7.232  2.0162  1.8802  1.2023
  835MOL0     H15187   5.515   0.649   7.047  1.9883 -0.0606 -1.4294
  835MOL0     H15188   5.618   0.484   7.180 -1.0882  1.1071  0.8587
  835MOL0     H15189   5.816   0.192   7.151  3.1063  1.0127  0.8466
  835MOL0     H15190   5.669   0.275   7.186  0.2290 -1.1050 -0.7331
  835MOL0     H15191   5.785   0.231   7.322  0.3269 -2.2124 -0.4218
  835MOL0     H15192   6.461   0.492   7.215  1.0748 -0.1326  1.7537
  835MOL0     H15193   6.636   0.393   7.106  0.4561 -0.3355 -1.3837
  835MOL0     H15194   6.611  -0.037   7.001 -1.3769 -0.6968 -0.0790
  835MOL0     H15195   6.591   0.011   6.833 -0.2799  3.1724 -1.3623
  835MOL0     H15196   6.852   0.020   6.988 -3.8315 -1.4561  1.9625
  835MOL0     H15197   6.794  -0.107   6.889 -1.0123 -0.5712  0.6789
  835MOL0     H15198   6.795   0.177   6.769 -1.8802 -0.7763 -1.2578
  835MOL0     H15199   6.802   0.026   6.687  2.1961  1.4206 -1.9906
  835MOL0     H15200   7.039  -0.014   6.808 -0.5118 -0.6307  1.0409
  835MOL0     H15201   7.019   0.157   6.855  1.4758 -0.8379 -0.7779
  835MOL0     H15202   7.007   0.232   6.626  2.1655  1.8616  0.8145
  835MOL0     H15203   7.153   0.164   6.668 -0.9714  1.5210  1.3499
  835MOL0     H15204   7.030   0.088   6.435 -0.3224 -1.6241 -0.3777
  835MOL0     H15205   6.948  -0.024   6.543 -0.0387 -0.1289  1.7835
  835MOL0     H15206   7.169  -0.129   6.608  1.5686 -2.4479 -1.2409
  835MOL0     H15207   7.253   0.009   6.540 -0.4091  1.2456 -1.2399
  835MOL0     H15208   7.271  -0.206   6.401  0.9760  1.2112 -1.2816
  835MOL0     H15209   7.191  -0.079   6.309  1.5052  1.8132  1.4094
  835MOL0     H15210   6.381   0.067   6.976  1.0519 -1.3527  0.7323
  835MOL0     H15211   6.198   0.172   7.083 -0.3749 -0.5640  2.0563
  835MOL0     H15212   6.097   0.617   7.170 -0.5860  0.2197  0.6169
  835MOL0     H15213   5.932   0.776   7.146 -0.7798 -0.0975  0.1570
  835MOL0     H15214   3.821   1.434   7.317 -0.5984  0.7775  1.1507
  835MOL0     H15215   3.571   1.382   7.320 -1.2130 -1.0809  0.6100
  835MOL0     H15216   3.316   1.193   7.648 -1.1058 -2.3570  1.5975
  835MOL0     H15217   3.095   1.239   7.772 -4.3955 -1.6000 -0.5471
  835MOL0     H15218   2.898   1.215   7.836 -0.2049  0.7596  0.6505
  835MOL0     H15219   2.944   1.378   7.863  1.3391  0.2491 -0.7373
  835MOL0     H15220   2.693   1.447   7.806  0.3152 -0.6374 -2.4770
  835MOL0     H15221   2.721   1.353   7.956 -1.4913 -2.9682  0.1862
  835MOL0     H15222   2.640   1.264   7.673  1.0239 -1.9051 -0.3860
  835MOL0     H15223   2.642   1.145   7.795 -1.7227 -0.1396  1.5067
  835MOL0     H15224   2.406   1.234   7.752  0.2191  0.2898 -0.4291
  835MOL0     H15225   2.449   1.390   7.824  2.8487  0.4686  1.7503
  835MOL0     H15226   2.432   1.145   8.165 -0.6193 -1.0358 -0.4319
  835MOL0     H15227   2.913   1.380   7.415 -1.0754  0.8072  1.4345
  835MOL0     H15228   3.031   1.420   7.228 -0.0621  0.7377 -0.8833
  835MOL0     H15229   3.207   1.417   7.218 -0.6172  0.7473 -0.7012
  835MOL0     H15230   3.115   1.269   7.184  2.6551  2.5604 -3.0697
  836MOL0     O15231   8.373   1.506   3.761  0.5485  0.5964  0.6330
  836MOL0     C15232   8.474   1.467   3.705 -0.6291  0.3286 -0.1945
  836MOL0     O15233   8.476   1.428   3.574 -0.8067 -0.6948  0.6985
  836MOL0     C15234   8.372   1.403   3.488 -0.1418  0.0974 -0.3112
  836MOL0     C15235   8.421   1.364   3.359  1.5752 -0.5416  0.8078
  836MOL0     C15236   8.326   1.331   3.252 -0.1467 -0.2342  0.1503
  836MOL0     C15237   8.188   1.345   3.278  0.7751  0.5625 -0.6013
  836MOL0     O15238   8.114   1.316   3.170 -0.0669  0.2109  0.1380
  836MOL0     C15239   7.973   1.328   3.191  0.6032 -0.1417 -0.0601
  836MOL0     C15240   7.909   1.328   3.048  0.1512  0.0419 -0.0535
  836MOL0     C15241   7.922   1.463   2.986 -0.7024 -0.9604  0.5833
  836MOL0     C15242   7.845   1.477   2.853 -0.1485 -0.4555 -1.3209
  836MOL0     C15243   7.841   1.618   2.794  1.0125 -0.3640 -0.3187
  836MOL0     C15244   7.767   1.724   2.874  0.7031  0.1723  0.8113
  836MOL0     C15245   7.768   1.865   2.800 -0.2102  0.1537 -0.5568
  836MOL0     C15246   7.647   1.886   2.707  0.2060  0.1257  0.6253
  836MOL0     N15247   7.518   1.903   2.777  0.0982  0.1740 -0.2142
  836MOL0     C15248   7.493   2.010   2.857 -1.1250 -0.4534  1.3267
  836MOL0     C15249   7.373   1.976   2.902 -0.5995 -0.9050  0.8999
  836MOL0     C15250   7.299   2.060   3.006 -0.9674 -1.4780  0.8494
  836MOL0     C15251   7.150   2.068   2.977 -0.6471  0.3259 -0.9279
  836MOL0     C15252   7.130   2.178   2.872  1.0520  0.7614  0.1648
  836MOL0     C15253   6.989   2.184   2.806 -0.1165 -0.2099  1.0003
  836MOL0     O15254   6.995   2.114   2.680  0.7812 -0.1095 -0.5493
  836MOL0     C15255   6.872   2.079   2.626  0.7324  0.7731  0.0427
  836MOL0     C15256   6.862   1.976   2.527  0.1411 -0.1161  0.5261
  836MOL0     C15257   6.736   1.938   2.472 -0.2977  0.0638 -0.2227
  836MOL0     C15258   6.740   1.833   2.371  0.2144  0.5857 -0.7636
  836MOL0     C15259   6.621   2.010   2.511 -0.1840 -0.4279 -0.2710
  836MOL0     C15260   6.495   2.007   2.440 -0.1680 -0.2717 -0.1493
  836MOL0     O15261   6.435   2.129   2.439  0.1634 -0.0707  0.5237
  836MOL0     C15262   6.317   2.156   2.376 -0.0153 -0.0532 -0.4533
  836MOL0     C15263   6.210   2.062   2.358 -0.5292 -0.4561 -0.5094
  836MOL0     C15264   6.083   2.118   2.331 -0.1506 -0.5914  0.3192
  836MOL0     C15265   6.058   2.261   2.317  0.0025  0.2184  0.2729
  836MOL0     O15266   5.930   2.305   2.301 -0.2334  0.3108 -0.0952
  836MOL0     C15267   5.887   2.434   2.326 -0.2481 -0.0187 -0.0056
  836MOL0     C15268   5.738   2.453   2.300  0.1384 -0.7171 -0.9029
  836MOL0     C15269   5.689   2.602   2.293  0.5499  1.1405  0.0773
  836MOL0     C15270   5.690   2.677   2.427  0.0056 -0.4519 -0.6833
  836MOL0     C15271   5.654   2.832   2.419  0.3239  0.3268  0.6465
  836MOL0     C15272   5.689   2.903   2.550  0.4028 -0.4357  0.2213
  836MOL0     C15273   5.713   3.049   2.516 -0.0428 -0.6208 -0.2454
  836MOL0     C15274   5.707   3.146   2.637  0.0292 -0.2800  0.6671
  836MOL0    Cl15275   5.871   3.167   2.719  0.2258  0.4713  0.0758
  836MOL0     C15276   6.163   2.343   2.327 -0.4083 -0.3358  0.3161
  836MOL0     C15277   6.288   2.294   2.365 -0.3829  0.4166 -0.5363
  836MOL0     O15278   6.448   1.904   2.394 -0.0552  0.7773 -0.1408
  836MOL0     C15279   6.637   2.113   2.603  0.2010 -0.6178 -0.5739
  836MOL0     C15280   6.752   2.134   2.664 -0.0220  0.5756  0.0415
  836MOL0     N15281   7.323   1.860   2.852 -0.3925  0.1781  0.6567
  836MOL0     N15282   7.419   1.807   2.779 -0.3212 -0.2882  0.0746
  836MOL0     C15283   8.141   1.385   3.409  0.5064 -0.7950  0.1685
  836MOL0     C15284   8.231   1.412   3.515  0.3295 -0.0533 -0.1899
  836MOL0     C15285   8.606   1.475   3.770 -0.3203 -0.6490  0.2163
  836MOL0     C15286   8.697   1.371   3.763  0.7925  0.3208 -0.1915
  836MOL0     C15287   8.828   1.380   3.813 -0.1580  0.0651 -0.1826
  836MOL0     C15288   8.849   1.487   3.887 -0.4017 -0.9336 -0.8381
  836MOL0     O15289   8.960   1.512   3.957 -0.4240 -0.0635  0.2134
  836MOL0     C15290   9.008   1.404   4.051 -0.1536  0.7246 -0.4122
  836MOL0     C15291   9.158   1.411   4.073  0.9458  0.0148  0.2517
  836MOL0     C15292   9.219   1.276   4.132  0.1470 -0.5251  0.9586
  836MOL0     C15293   9.193   1.255   4.282 -1.1730 -0.4436  0.8520
  836MOL0     C15294   9.205   1.108   4.314  0.3887 -0.2743  0.1729
  836MOL0     C15295   9.193   0.991   4.318 -0.4198 -0.3169 -0.7472
  836MOL0     C15296   8.752   1.583   3.909  0.0537 -0.3598  0.6450
  836MOL0     C15297   8.627   1.588   3.854  0.1169  0.8572  0.4474
  836MOL0     C15298   8.526   1.698   3.876 -0.1791  0.2430 -0.2779
  836MOL0     H15299   8.527   1.369   3.337  1.0161 -0.1290 -2.3665
  836MOL0     H15300   8.358   1.283   3.161  0.8380  1.1533 -0.2628
  836MOL0     H15301   7.939   1.420   3.238 -0.9809 -0.3488 -0.7221
  836MOL0     H15302   7.935   1.242   3.247 -1.2372 -1.5479 -3.2001
  836MOL0     H15303   7.943   1.255   2.975  1.3309  1.2705 -0.7847
  836MOL0     H15304   7.803   1.307   3.065  0.2968 -0.0352  0.8431
  836MOL0     H15305   7.872   1.540   3.046 -1.2141  0.3019 -1.3669
  836MOL0     H15306   8.026   1.497   2.989 -1.4114  1.4595  0.4366
  836MOL0     H15307   7.906   1.422   2.780  1.0014  0.2462 -0.9190
  836MOL0     H15308   7.747   1.431   2.865 -1.5254  2.5755  0.1003
  836MOL0     H15309   7.788   1.619   2.698  1.7805  0.4122 -0.7426
  836MOL0     H15310   7.943   1.656   2.782  0.6449  0.1134 -2.1936
  836MOL0     H15311   7.663   1.691   2.875  0.7225 -0.6743 -3.9513
  836MOL0     H15312   7.803   1.733   2.977  2.0593 -3.1141  0.7673
  836MOL0     H15313   7.860   1.881   2.742 -0.5778 -0.7181 -1.4024
  836MOL0     H15314   7.756   1.934   2.884 -2.3626 -1.1065  0.2492
  836MOL0     H15315   7.671   1.975   2.647  0.1295  0.0978  0.5526
  836MOL0     H15316   7.631   1.803   2.637  0.4331 -0.0163  0.7419
  836MOL0     H15317   7.563   2.087   2.890  0.2154 -2.5161  3.6490
  836MOL0     H15318   7.345   2.159   3.012  0.9143 -2.1415 -1.2795
  836MOL0     H15319   7.311   2.015   3.105  1.6983 -1.6284  0.5208
  836MOL0     H15320   7.124   1.975   2.926  1.1914 -0.9457  0.2942
  836MOL0     H15321   7.081   2.085   3.060  0.5699 -1.3517  0.5148
  836MOL0     H15322   7.167   2.276   2.904  0.5410  0.2642  2.4810
  836MOL0     H15323   7.202   2.157   2.792 -1.4073 -1.6103 -1.6042
  836MOL0     H15324   6.911   2.146   2.873 -1.6827 -3.0378 -2.1313
  836MOL0     H15325   6.977   2.289   2.777 -0.8763 -1.5878 -4.8450
  836MOL0     H15326   6.961   1.943   2.496  0.8709  1.2376  1.3489
  836MOL0     H15327   6.656   1.765   2.383 -0.3184  0.7621 -3.0769
  836MOL0     H15328   6.825   1.764   2.377 -1.7250 -1.8314  1.3349
  836MOL0     H15329   6.739   1.864   2.266  0.9225  3.4804  0.0008
  836MOL0     H15330   6.234   1.957   2.366  2.1200  0.1942  1.8149
  836MOL0     H15331   6.003   2.045   2.325  0.6745 -2.0926  4.4175
  836MOL0     H15332   5.904   2.459   2.431  0.0833 -1.2432  0.2511
  836MOL0     H15333   5.946   2.508   2.271  0.6755 -0.3382  0.5210
  836MOL0     H15334   5.716   2.422   2.197 -0.9675  0.2190 -0.9725
  836MOL0     H15335   5.680   2.408   2.381 -0.1662  1.9875  0.4917
  836MOL0     H15336   5.595   2.626   2.243  1.0734  2.5646 -0.2630
  836MOL0     H15337   5.761   2.655   2.229 -0.0751 -0.0431 -1.6584
  836MOL0     H15338   5.790   2.660   2.469 -0.7610 -2.5336  0.4491
  836MOL0     H15339   5.622   2.632   2.500  0.0014 -0.3702 -0.6355
  836MOL0     H15340   5.706   2.854   2.325 -1.0810 -1.3043 -0.5890
  836MOL0     H15341   5.549   2.846   2.391  0.5940 -0.5513 -0.9464
  836MOL0     H15342   5.784   2.862   2.584  1.2645 -0.3368 -1.9343
  836MOL0     H15343   5.605   2.902   2.620 -1.3113 -0.4703 -1.7253
  836MOL0     H15344   5.641   3.075   2.438  0.8511 -0.4340 -1.0260
  836MOL0     H15345   5.811   3.064   2.471  0.1502 -0.4209  0.2440
  836MOL0     H15346   5.633   3.110   2.709 -0.7549 -1.4207 -0.6409
  836MOL0     H15347   5.673   3.245   2.604 -1.0908 -1.3781 -1.7094
  836MOL0     H15348   6.151   2.451   2.331 -1.2666 -0.3987 -0.3447
  836MOL0     H15349   6.372   2.359   2.388  0.1389  0.2324 -1.8227
  836MOL0     H15350   6.555   2.178   2.633 -0.6162 -1.8979  0.0402
  836MOL0     H15351   6.745   2.218   2.733  1.6917  1.9787 -1.4011
  836MOL0     H15352   8.035   1.387   3.428 -0.1066 -3.1152 -2.3806
  836MOL0     H15353   8.195   1.440   3.613  0.5306 -2.5817  0.6722
  836MOL0     H15354   8.674   1.295   3.689  0.8286 -0.2822  0.4078
  836MOL0     H15355   8.900   1.307   3.779 -1.5184 -1.3344 -0.1776
  836MOL0     H15356   8.960   1.418   4.148 -0.2841 -2.1400  0.0119
  836MOL0     H15357   8.970   1.306   4.021 -4.0495  2.1772 -0.8287
  836MOL0     H15358   9.173   1.499   4.137  1.9817  1.0274 -1.3198
  836MOL0     H15359   9.206   1.421   3.976 -0.5301 -0.8976 -0.6125
  836MOL0     H15360   9.178   1.201   4.064 -2.0672  0.9835  0.5236
  836MOL0     H15361   9.327   1.270   4.116 -0.0349  0.7650 -1.1429
  836MOL0     H15362   9.091   1.286   4.306 -0.6862  2.6492 -0.6479
  836MOL0     H15363   9.262   1.311   4.346 -1.3337  0.3285  0.3602
  836MOL0     H15364   9.181   0.885   4.334 -1.1135  0.0905  1.8815
  836MOL0     H15365   8.776   1.652   3.990  0.4762 -1.3534  1.3884
  836MOL0     H15366   8.564   1.774   3.945  1.7054  0.3443 -1.3465
  836MOL0     H15367   8.502   1.735   3.776  2.6394 -0.2278 -1.2395
  836MOL0     H15368   8.440   1.657   3.929 -0.7305 -0.3141 -1.5605
  837MOL0     O15369   4.481   0.805   9.899 -0.8377  0.1614  0.6850
  837MOL0     C15370   4.436   0.719   9.974 -1.0840 -0.7872  0.9957
  837MOL0     O15371   4.510   0.602  10.003  0.1427  0.0635  0.6872
  837MOL0     C15372   4.627   0.578   9.940 -0.2129  0.3671  0.2682
  837MOL0     C15373   4.718   0.501  10.011 -0.2443  0.0113 -0.4186
  837MOL0     C15374   4.855   0.485   9.976 -0.2566 -0.0913 -0.4972
  837MOL0     C15375   4.906   0.543   9.864 -1.0052  0.1522  0.8396
  837MOL0     O15376   5.037   0.501   9.829 -0.0762 -0.5154  0.1309
  837MOL0     C15377   5.092   0.557   9.708  0.3293 -0.3305  0.2450
  837MOL0     C15378   5.211   0.483   9.663 -0.0352  0.7134 -0.3123
  837MOL0     C15379   5.256   0.517   9.532  0.1908 -0.5895  0.1868
  837MOL0     C15380   5.376   0.430   9.502 -0.2009  0.2556 -0.2854
  837MOL0     C15381   5.406   0.434   9.348  0.4210  0.9995 -0.2630
  837MOL0     C15382   5.489   0.320   9.304  0.2605  1.3659  0.3834
  837MOL0     C15383   5.418   0.184   9.313  0.4025 -0.0453 -0.7193
  837MOL0     C15384   5.494   0.065   9.362 -0.1591  0.5647  1.1786
  837MOL0     N15385   5.625   0.043   9.298 -0.7816 -0.4994 -0.2447
  837MOL0     C15386   5.649  -0.004   9.170  0.3374 -0.1112  0.2074
  837MOL0     C15387   5.777  -0.036   9.156 -0.0600 -0.1269  0.2609
  837MOL0     C15388   5.859  -0.068   9.036 -0.0281  0.5707  0.1270
  837MOL0     C15389   5.914   0.057   8.969  0.1890  0.4023 -0.2355
  837MOL0     C15390   6.000   0.022   8.848  0.5330 -0.7644 -0.1555
  837MOL0     C15391   6.149   0.014   8.882 -0.5378  0.2822  0.3497
  837MOL0     O15392   6.226   0.004   8.760  0.8651 -0.0642  0.5786
  837MOL0     C15393   6.354   0.025   8.754 -0.4962  0.1758 -0.2065
  837MOL0     C15394   6.433   0.012   8.873 -0.8833 -0.4696  0.2700
  837MOL0     C15395   6.582   0.028   8.855  1.3080 -0.4432 -0.0250
  837MOL0     C15396   6.649   0.036   8.988  0.3794  0.1596  0.3154
  837MOL0     C15397   6.643   0.061   8.735 -0.1018  0.3996  0.7822
  837MOL0     C15398   6.795   0.077   8.722  0.4155 -0.1166 -0.0301
  837MOL0     O15399   6.825   0.085   8.591  0.1672  0.0849 -0.0484
  837MOL0     C15400   6.959   0.074   8.538  0.2393 -0.0365 -0.0695
  837MOL0     C15401   6.982  -0.006   8.429 -0.0832 -0.2564 -0.0160
  837MOL0     C15402   7.109  -0.002   8.375  0.0371 -0.0074  0.2093
  837MOL0     C15403   7.205   0.101   8.409 -0.5236 -0.0971  0.7268
  837MOL0     O15404   7.328   0.111   8.340  0.7081  0.0564 -0.6818
  837MOL0     C15405   7.437   0.187   8.410 -0.0558 -0.6590 -0.4310
  837MOL0     C15406   7.545   0.196   8.296 -0.3102 -0.6058  0.5791
  837MOL0     C15407   7.612   0.061   8.290  0.1042  0.1668  0.0650
  837MOL0     C15408   7.725   0.064   8.185  0.2067  1.0741 -0.4003
  837MOL0     C15409   7.813  -0.063   8.192  0.1316 -0.0377  0.5226
  837MOL0     C15410   7.893  -0.063   8.322 -0.0726  0.3943 -0.4430
  837MOL0     C15411   8.006  -0.164   8.321  0.4119  0.2517  0.5892
  837MOL0     C15412   8.078  -0.173   8.457 -0.5710  0.7382  0.0038
  837MOL0    Cl15413   8.214  -0.278   8.429  0.1412  0.0988  0.4270
  837MOL0     C15414   7.167   0.183   8.505 -0.8593 -0.2795 -0.4607
  837MOL0     C15415   7.053   0.170   8.576  0.9135 -0.4788  0.1425
  837MOL0     O15416   6.872   0.092   8.810 -0.4323 -0.2119  0.5655
  837MOL0     C15417   6.554   0.060   8.625  0.3115  0.5101  0.5380
  837MOL0     C15418   6.414   0.043   8.633  0.2047 -0.6009  0.6128
  837MOL0     N15419   5.831   0.001   9.277  0.0708  0.0593  0.0823
  837MOL0     N15420   5.737   0.028   9.367  0.4186 -0.6227  0.7886
  837MOL0     C15421   4.810   0.601   9.776  0.4346 -0.3512 -0.1444
  837MOL0     C15422   4.666   0.614   9.810 -0.3634  0.5024  0.4306
  837MOL0     C15423   4.308   0.749  10.043 -0.1053 -0.5498  0.9551
  837MOL0     C15424   4.273   0.887  10.045  0.2780 -0.2061  0.5231
  837MOL0     C15425   4.163   0.932  10.123 -0.1283  0.4213 -0.6738
  837MOL0     C15426   4.085   0.836  10.196  0.0134  0.0098 -0.9562
  837MOL0     O15427   3.968   0.869  10.259  0.2186 -0.5094 -0.1635
  837MOL0     C15428   3.889   0.969  10.181 -0.0660  0.9167 -0.4852
  837MOL0     C15429   3.735   0.949  10.179 -0.5964  0.0763 -1.1167
  837MOL0     C15430   3.665   1.077  10.135  0.1111  0.2001  0.3171
  837MOL0     C15431   3.527   1.053  10.063 -0.0810 -0.7666  0.2377
  837MOL0     C15432   3.441   0.966  10.153 -0.5573 -0.1262 -0.5858
  837MOL0     C15433   3.361   0.889  10.205 -0.3761 -0.1134 -0.2412
  837MOL0     C15434   4.122   0.699  10.195 -0.4093 -0.1332  0.1761
  837MOL0     C15435   4.231   0.659  10.124  0.1502 -0.3103  0.0073
  837MOL0     C15436   4.258   0.508  10.142 -0.3204 -0.8422 -0.2263
  837MOL0     H15437   4.687   0.468  10.110  1.0947 -1.7196 -0.5255
  837MOL0     H15438   4.916   0.424  10.042 -0.1099 -1.8806 -2.2019
  837MOL0     H15439   5.118   0.663   9.711 -1.0889  0.0313  0.5192
  837MOL0     H15440   5.021   0.536   9.627  1.1337 -1.0628 -0.2964
  837MOL0     H15441   5.293   0.499   9.734 -1.8471  2.7370  1.5223
  837MOL0     H15442   5.193   0.376   9.674  2.4846  0.4528  3.2262
  837MOL0     H15443   5.175   0.501   9.460 -0.8314  0.7888  0.9710
  837MOL0     H15444   5.288   0.622   9.529 -1.4984 -0.0451 -2.8571
  837MOL0     H15445   5.466   0.465   9.553  0.2302 -1.4370  0.1890
  837MOL0     H15446   5.375   0.330   9.546  2.2568  0.2902  0.0187
  837MOL0     H15447   5.449   0.528   9.312  0.2496  1.0301 -0.3951
  837MOL0     H15448   5.309   0.425   9.296  0.1204 -2.0871  0.6409
  837MOL0     H15449   5.525   0.327   9.201 -3.1296 -2.8149 -1.3853
  837MOL0     H15450   5.569   0.307   9.378  0.1747 -0.9481  0.1400
  837MOL0     H15451   5.377   0.171   9.213  0.8864  3.0953 -1.4377
  837MOL0     H15452   5.337   0.188   9.385  1.3837  0.6098  0.3956
  837MOL0     H15453   5.504   0.083   9.469 -1.0971  1.4605  1.1205
  837MOL0     H15454   5.421  -0.014   9.344 -2.4600  2.9746 -0.7972
  837MOL0     H15455   5.575  -0.007   9.090  1.2963 -0.8604 -0.6802
  837MOL0     H15456   5.807  -0.136   8.969  3.9083 -3.4682  0.6342
  837MOL0     H15457   5.944  -0.120   9.083  0.6949 -0.2884 -2.0281
  837MOL0     H15458   5.831   0.123   8.939  0.4547  0.5632 -0.6263
  837MOL0     H15459   5.971   0.121   9.036 -2.1939  3.1343 -0.5936
  837MOL0     H15460   5.955  -0.068   8.806 -0.8608  0.1730 -0.7684
  837MOL0     H15461   5.988   0.100   8.772  1.3100  1.1867  1.6094
  837MOL0     H15462   6.182   0.110   8.921  0.3086 -0.1747  0.8032
  837MOL0     H15463   6.179  -0.067   8.950 -2.1570 -1.9940 -1.5093
  837MOL0     H15464   6.406  -0.021   8.973 -1.0250 -1.9466 -0.2242
  837MOL0     H15465   6.710   0.126   9.005  1.3717 -0.8093  2.2306
  837MOL0     H15466   6.722  -0.045   8.989 -1.5271 -1.6406  0.0139
  837MOL0     H15467   6.583   0.024   9.075  0.5525  0.7619  0.5340
  837MOL0     H15468   6.903  -0.077   8.404  0.2731 -0.3570 -0.8945
  837MOL0     H15469   7.133  -0.080   8.303 -1.5429 -0.3624  0.0278
  837MOL0     H15470   7.402   0.285   8.444  2.2264  0.8455 -2.1264
  837MOL0     H15471   7.489   0.159   8.502 -1.9365 -0.6728  0.6798
  837MOL0     H15472   7.506   0.234   8.201  0.7646  1.0693  0.7740
  837MOL0     H15473   7.614   0.274   8.328 -1.1117 -0.4401  2.0092
  837MOL0     H15474   7.547  -0.022   8.261 -0.0502  0.1523  0.4449
  837MOL0     H15475   7.656   0.038   8.388  0.2084 -1.5346 -0.3606
  837MOL0     H15476   7.790   0.151   8.201  1.0170  0.3133  0.6014
  837MOL0     H15477   7.681   0.072   8.085 -0.1399 -1.6878 -0.5533
  837MOL0     H15478   7.739  -0.144   8.194 -0.5890  0.5838 -0.0203
  837MOL0     H15479   7.883  -0.059   8.108 -0.2030  3.6695  0.2250
  837MOL0     H15480   7.821  -0.099   8.396 -3.1757  1.4929 -2.6958
  837MOL0     H15481   7.935   0.034   8.352  1.1930 -0.6899  1.4913
  837MOL0     H15482   8.081  -0.130   8.249  0.6697 -1.4378  0.0077
  837MOL0     H15483   7.967  -0.258   8.281 -0.6602  1.1299 -0.4920
  837MOL0     H15484   8.020  -0.212   8.541  0.2224 -2.1914 -0.6791
  837MOL0     H15485   8.108  -0.072   8.484  1.9815 -0.1384  0.6597
  837MOL0     H15486   7.220   0.277   8.518 -2.1853  0.5370 -0.8005
  837MOL0     H15487   7.018   0.247   8.644  1.0151  0.3932 -0.7608
  837MOL0     H15488   6.591   0.080   8.525 -1.3348 -1.8490 -0.6277
  837MOL0     H15489   6.343   0.040   8.550  1.3561  0.9278 -0.4864
  837MOL0     H15490   4.853   0.652   9.690  2.9323  1.8549  2.2303
  837MOL0     H15491   4.597   0.670   9.747  1.0023  0.6988 -0.9408
  837MOL0     H15492   4.334   0.957   9.989 -0.9449 -1.5664 -2.7406
  837MOL0     H15493   4.138   1.037  10.120  0.5445  0.7393  2.0361
  837MOL0     H15494   3.909   1.068  10.223 -0.2447  0.3826  0.9293
  837MOL0     H15495   3.918   0.974  10.076  0.5020 -0.4658 -0.4183
  837MOL0     H15496   3.706   0.916  10.280  3.6432  0.8234  0.5336
  837MOL0     H15497   3.717   0.858  10.122  1.2971  0.2680 -2.0930
  837MOL0     H15498   3.649   1.146  10.218  0.2618 -0.7906  1.1810
  837MOL0     H15499   3.718   1.139  10.062 -2.3222  0.6743 -1.1713
  837MOL0     H15500   3.549   1.000   9.970 -1.2595 -0.1908 -0.3964
  837MOL0     H15501   3.474   1.144  10.032 -0.9508 -1.4829 -0.4517
  837MOL0     H15502   3.291   0.811  10.232 -1.1385  0.7201  0.2325
  837MOL0     H15503   4.068   0.620  10.246  1.4783 -3.1729 -2.1712
  837MOL0     H15504   4.313   0.484  10.233 -1.7824 -0.6929  0.7326
  837MOL0     H15505   4.171   0.442  10.141 -0.9777 -0.0111  0.5292
  837MOL0     H15506   4.317   0.475  10.056  0.1279 -0.0612 -0.2296
  838MOL0     O15507   2.279   2.623   6.440  0.7439  0.4848  0.7555
  838MOL0     C15508   2.261   2.501   6.402 -0.1969 -0.2449 -0.6990
  838MOL0     O15509   2.351   2.396   6.416  0.5412 -0.1611  0.5472
  838MOL0     C15510   2.480   2.420   6.446  0.3037 -0.3792 -0.0288
  838MOL0     C15511   2.579   2.367   6.358 -0.5391  0.1563  0.3260
  838MOL0     C15512   2.716   2.374   6.385  0.2683 -0.6057 -0.0898
  838MOL0     C15513   2.758   2.444   6.503  0.3323 -0.0274 -0.1529
  838MOL0     O15514   2.889   2.453   6.543  0.9546  0.6277 -0.7876
  838MOL0     C15515   2.988   2.430   6.441 -0.3273  0.3733  0.0606
  838MOL0     C15516   3.126   2.481   6.491 -0.1573 -0.2079  1.1532
  838MOL0     C15517   3.253   2.445   6.420  0.1208 -0.0276 -0.2073
  838MOL0     C15518   3.360   2.560   6.426  0.0530 -1.0536  0.3718
  838MOL0     C15519   3.499   2.513   6.476  0.5909 -0.2911  0.0113
  838MOL0     C15520   3.511   2.488   6.627  0.3413 -0.3654 -0.5114
  838MOL0     C15521   3.654   2.441   6.647 -0.3415 -0.1097  0.1417
  838MOL0     C15522   3.745   2.566   6.647  0.6867  0.4891  0.6456
  838MOL0     N15523   3.865   2.543   6.723  0.3716 -0.0217  0.2750
  838MOL0     C15524   3.932   2.638   6.793 -0.2451 -0.1249 -0.7943
  838MOL0     C15525   4.055   2.588   6.820  0.0713 -0.9279  0.7467
  838MOL0     C15526   4.174   2.646   6.886  0.6524 -0.3365  0.5098
  838MOL0     C15527   4.179   2.582   7.028  0.3415 -1.1575 -0.2764
  838MOL0     C15528   4.269   2.662   7.114  0.7051 -0.3853  0.1823
  838MOL0     C15529   4.415   2.637   7.084  0.0137 -0.1022  0.0913
  838MOL0     O15530   4.500   2.755   7.114  0.0900  0.5436 -0.1376
  838MOL0     C15531   4.628   2.748   7.072  0.6414  0.0290  0.7726
  838MOL0     C15532   4.681   2.653   6.982 -0.0912 -0.0992  0.1442
  838MOL0     C15533   4.805   2.667   6.940 -0.1711  0.5464  0.7634
  838MOL0     C15534   4.846   2.573   6.824 -0.7705  0.4202  1.3952
  838MOL0     C15535   4.890   2.767   6.992  0.2149 -0.5866  0.7157
  838MOL0     C15536   5.037   2.782   6.950  0.1367 -0.0040  0.0494
  838MOL0     O15537   5.101   2.899   6.990 -0.0820  0.6510  0.7834
  838MOL0     C15538   5.214   2.937   6.930  0.7916  0.4910 -0.9664
  838MOL0     C15539   5.218   2.973   6.796  0.8579  0.5047  0.6039
  838MOL0     C15540   5.341   3.016   6.744 -0.0240  0.4708 -0.1947
  838MOL0     C15541   5.458   3.024   6.822 -0.1494  0.2261  0.3104
  838MOL0     O15542   5.573   3.085   6.773  0.5217 -0.5145 -0.3043
  838MOL0     C15543   5.641   3.024   6.673 -0.0026  0.4801 -0.9428
  838MOL0     C15544   5.736   2.906   6.715 -0.0799 -0.4746  0.1925
  838MOL0     C15545   5.823   2.943   6.844 -0.1199 -0.4171  0.6932
  838MOL0     C15546   5.905   2.823   6.889  0.1952  0.7830 -0.2720
  838MOL0     C15547   5.987   2.861   7.014  0.1589 -0.3749 -0.5315
  838MOL0     C15548   6.066   2.741   7.062  0.5415  0.2288 -0.5208
  838MOL0     C15549   6.190   2.769   7.150 -0.1423  0.3871 -0.4599
  838MOL0     C15550   6.318   2.707   7.083 -0.2733 -0.2720  0.5846
  838MOL0    Cl15551   6.317   2.529   7.054  0.2556 -0.0240 -0.2411
  838MOL0     C15552   5.446   3.003   6.956 -0.3418 -0.6189  0.8195
  838MOL0     C15553   5.332   2.956   7.012  0.3285  0.7810 -0.0259
  838MOL0     O15554   5.088   2.699   6.880  0.0507  0.5599 -0.2603
  838MOL0     C15555   4.832   2.864   7.087 -0.1702  0.2835 -0.4390
  838MOL0     C15556   4.700   2.860   7.121  0.6748  1.0231  0.4162
  838MOL0     N15557   4.059   2.463   6.760 -0.3143 -0.4158 -0.3436
  838MOL0     N15558   3.948   2.445   6.698  0.3786  0.0673 -0.1535
  838MOL0     C15559   2.663   2.495   6.585  0.6651  0.3709 -0.6394
  838MOL0     C15560   2.527   2.489   6.553 -0.4698  0.3231 -0.0126
  838MOL0     C15561   2.128   2.469   6.354 -0.4037  0.5557 -0.0548
  838MOL0     C15562   2.051   2.561   6.281  1.0879 -0.5018  0.2387
  838MOL0     C15563   1.939   2.534   6.208  0.3532 -0.7962 -0.7360
  838MOL0     C15564   1.899   2.400   6.205  0.0516 -0.2560 -1.3373
  838MOL0     O15565   1.799   2.356   6.120  0.4016  0.3208  0.2724
  838MOL0     C15566   1.740   2.226   6.116  1.1432 -0.0563 -0.1509
  838MOL0     C15567   1.655   2.207   5.994 -0.0343 -0.0881  0.3670
  838MOL0     C15568   1.532   2.291   5.978  0.0159 -0.1626 -0.0144
  838MOL0     C15569   1.472   2.278   5.842  0.0339  0.8463 -0.1525
  838MOL0     C15570   1.375   2.379   5.813 -0.2313 -0.6163  0.9204
  838MOL0     C15571   1.281   2.461   5.792 -0.2220 -0.8672  0.2084
  838MOL0     C15572   1.957   2.314   6.301 -0.9048  0.3218  0.6891
  838MOL0     C15573   2.068   2.339   6.370 -0.7817 -0.5661 -1.0539
  838MOL0     C15574   2.113   2.226   6.456  0.6448 -0.0642  0.2326
  838MOL0     H15575   2.555   2.317   6.265  2.6158  0.8480 -0.9747
  838MOL0     H15576   2.789   2.317   6.327  1.7603 -0.7333  1.7949
  838MOL0     H15577   2.954   2.483   6.352 -4.2006 -3.1601 -0.8702
  838MOL0     H15578   3.002   2.326   6.411 -0.7826  1.0757 -2.8527
  838MOL0     H15579   3.108   2.589   6.484  0.4828 -0.1383  0.4868
  838MOL0     H15580   3.150   2.443   6.590  4.1619 -0.6228  0.1200
  838MOL0     H15581   3.303   2.361   6.468 -2.4192 -2.4991 -1.5953
  838MOL0     H15582   3.221   2.422   6.318 -2.8056  1.1364  0.3319
  838MOL0     H15583   3.371   2.604   6.326  1.7812 -0.3520  0.8351
  838MOL0     H15584   3.323   2.645   6.484 -0.4702 -1.4109  0.5613
  838MOL0     H15585   3.571   2.592   6.453 -1.3447  1.4070 -0.5188
  838MOL0     H15586   3.518   2.424   6.415 -0.4406  0.3439 -1.3026
  838MOL0     H15587   3.481   2.584   6.670  0.6466  1.1575 -3.4277
  838MOL0     H15588   3.441   2.407   6.650 -0.6996 -0.4798 -3.6160
  838MOL0     H15589   3.685   2.370   6.569  0.7794 -1.6321  1.8746
  838MOL0     H15590   3.670   2.391   6.744  1.9812  1.8309  0.8566
  838MOL0     H15591   3.777   2.605   6.550  2.5001 -2.2154  0.0486
  838MOL0     H15592   3.692   2.647   6.699 -3.1130  1.0019 -3.3791
  838MOL0     H15593   3.884   2.725   6.838 -1.2799 -0.3722 -1.3792
  838MOL0     H15594   4.175   2.755   6.884  0.2572 -0.2222  2.9633
  838MOL0     H15595   4.259   2.611   6.826  2.5844  1.5879  1.9661
  838MOL0     H15596   4.075   2.577   7.061  0.1541 -2.7470 -1.0195
  838MOL0     H15597   4.214   2.478   7.032  1.0680 -0.8968  3.0428
  838MOL0     H15598   4.254   2.770   7.105  1.0907 -0.1360  2.0887
  838MOL0     H15599   4.255   2.631   7.218  0.9915 -2.6339 -0.3915
  838MOL0     H15600   4.439   2.550   7.145 -1.8364 -1.6968 -1.3518
  838MOL0     H15601   4.429   2.616   6.977  1.1373  2.6259 -0.3853
  838MOL0     H15602   4.615   2.576   6.944 -0.8889  0.6920 -0.1053
  838MOL0     H15603   4.882   2.637   6.744 -1.4576 -2.4768 -1.4651
  838MOL0     H15604   4.765   2.508   6.790  0.3865 -0.4885  0.3009
  838MOL0     H15605   4.929   2.510   6.857 -0.0966  0.0477 -0.8450
  838MOL0     H15606   5.128   2.974   6.736  2.5748 -2.6150 -2.4268
  838MOL0     H15607   5.358   3.050   6.642 -0.4267 -1.6465 -1.0346
  838MOL0     H15608   5.577   2.989   6.591  1.6865  0.0592 -2.1473
  838MOL0     H15609   5.709   3.098   6.630  1.8009  0.3064  1.4083
  838MOL0     H15610   5.669   2.822   6.734 -3.0653  0.5639 -4.2758
  838MOL0     H15611   5.799   2.875   6.631 -2.6482  2.2248 -3.0120
  838MOL0     H15612   5.753   2.970   6.923 -2.1098  1.4911 -1.5762
  838MOL0     H15613   5.901   3.019   6.831 -0.9729  0.8570  2.5766
  838MOL0     H15614   5.972   2.796   6.807  0.1701  0.2684 -0.1232
  838MOL0     H15615   5.848   2.733   6.913  1.7157  0.1200  0.9950
  838MOL0     H15616   6.070   2.929   6.993  0.8435 -0.2360  2.3053
  838MOL0     H15617   5.928   2.907   7.094  2.3109 -0.4835  1.1882
  838MOL0     H15618   6.094   2.688   6.971 -1.6474 -1.8754 -0.0556
  838MOL0     H15619   5.992   2.682   7.116  1.6893  1.4355  2.6460
  838MOL0     H15620   6.189   2.719   7.247  1.2376 -0.1741 -0.7229
  838MOL0     H15621   6.213   2.874   7.174  0.9349  0.2519 -0.8662
  838MOL0     H15622   6.404   2.750   7.136 -0.2576  2.2735 -1.2892
  838MOL0     H15623   6.325   2.751   6.983  3.2193  0.3255  0.9694
  838MOL0     H15624   5.538   3.017   7.012  0.7161  0.3458 -1.0715
  838MOL0     H15625   5.335   2.948   7.120  1.0722  3.7602  0.2643
  838MOL0     H15626   4.900   2.945   7.113  0.9558 -0.0742 -2.0928
  838MOL0     H15627   4.657   2.942   7.177  0.6706  1.5194 -0.2962
  838MOL0     H15628   2.696   2.545   6.675  3.8184  0.2082 -1.5847
  838MOL0     H15629   2.461   2.529   6.630  1.1640  1.1463  1.0321
  838MOL0     H15630   2.093   2.661   6.277  0.2659 -0.0452 -5.6631
  838MOL0     H15631   1.889   2.617   6.159  0.8433 -0.4810 -0.7080
  838MOL0     H15632   1.817   2.150   6.131 -0.9094 -2.2528 -0.2179
  838MOL0     H15633   1.671   2.218   6.201  0.9836 -1.7805 -0.4146
  838MOL0     H15634   1.629   2.105   6.021  2.3363 -0.4948  1.3907
  838MOL0     H15635   1.715   2.212   5.902 -0.7058  2.8995 -0.0084
  838MOL0     H15636   1.463   2.258   6.056  1.0058  1.5324  1.6914
  838MOL0     H15637   1.566   2.394   5.991 -2.5865  0.9806 -1.5571
  838MOL0     H15638   1.415   2.184   5.840  0.0176  0.8534 -0.0191
  838MOL0     H15639   1.557   2.274   5.773 -1.2223  0.6675 -1.7669
  838MOL0     H15640   1.211   2.538   5.768  2.0971  1.8582  1.5401
  838MOL0     H15641   1.932   2.209   6.298 -1.7639  0.4932  1.3052
  838MOL0     H15642   2.186   2.261   6.529  0.4461  2.6148 -0.7247
  838MOL0     H15643   2.025   2.182   6.503  0.5295 -0.0070  0.0736
  838MOL0     H15644   2.165   2.146   6.401  1.4347 -0.2274  1.1987
  839MOL0     O15645  10.920   1.117   0.061 -1.3827 -0.0392 -0.8855
  839MOL0     C15646  10.874   1.192   0.145 -0.9384  0.1120  0.0554
  839MOL0     O15647  10.866   1.321   0.141 -0.6149 -0.7067  0.3177
  839MOL0     C15648  10.923   1.388   0.030 -0.6839  0.3415  0.1786
  839MOL0     C15649  11.060   1.420   0.022  0.5163 -0.0555 -0.7454
  839MOL0     C15650  11.106   1.487  -0.095 -0.2343 -0.0463 -0.5064
  839MOL0     C15651  11.026   1.519  -0.198  0.3827  0.3730  1.2907
  839MOL0     O15652  11.076   1.573  -0.313 -0.5396 -0.3689  0.0964
  839MOL0     C15653  11.062   1.492  -0.441 -0.1828  0.3444  0.4073
  839MOL0     C15654  11.144   1.364  -0.429  0.3913 -0.0098  0.1643
  839MOL0     C15655  11.295   1.392  -0.416 -0.0946 -0.8359  0.3868
  839MOL0     C15656  11.361   1.454  -0.538  0.7625 -0.2204  0.1207
  839MOL0     C15657  11.509   1.481  -0.510 -0.3360  0.2781 -0.4992
  839MOL0     C15658  11.567   1.561  -0.633 -0.1241 -1.5667  0.2410
  839MOL0     C15659  11.712   1.609  -0.601  0.2692 -0.9594 -0.1104
  839MOL0     C15660  11.828   1.524  -0.635  0.2107 -0.2993  0.0762
  839MOL0     N15661  11.918   1.572  -0.747 -0.0594 -0.6101  0.1975
  839MOL0     C15662  12.004   1.680  -0.732  0.3478  0.5026  0.2058
  839MOL0     C15663  12.093   1.667  -0.835  0.6117 -0.0138  0.5690
  839MOL0     C15664  12.217   1.741  -0.854 -0.4272 -0.0468 -0.3230
  839MOL0     C15665  12.310   1.755  -0.731  0.1954  0.6432  0.4189
  839MOL0     C15666  12.432   1.847  -0.756 -0.9006  0.5969 -0.1936
  839MOL0     C15667  12.550   1.770  -0.817  0.2803  0.0287 -0.3759
  839MOL0     O15668  12.675   1.831  -0.783  0.0596 -0.1566  0.8180
  839MOL0     C15669  12.777   1.838  -0.883 -0.0634  0.1512 -0.2046
  839MOL0     C15670  12.909   1.819  -0.837  0.3260  0.4403  0.3302
  839MOL0     C15671  13.022   1.830  -0.919 -0.2150  0.3447 -0.3459
  839MOL0     C15672  13.163   1.820  -0.854 -0.3432  0.1222  0.2724
  839MOL0     C15673  13.003   1.843  -1.061  0.2620 -0.3942 -0.3972
  839MOL0     C15674  13.111   1.846  -1.165  0.8273  0.5417  1.2588
  839MOL0     O15675  13.235   1.812  -1.118  0.8193 -0.6937 -0.0055
  839MOL0     C15676  13.340   1.815  -1.198  0.1897 -1.0894 -0.5825
  839MOL0     C15677  13.352   1.721  -1.299  0.2977  0.0696  0.2630
  839MOL0     C15678  13.464   1.733  -1.379  0.5941  0.8412  0.2628
  839MOL0     C15679  13.565   1.826  -1.362 -0.6689  0.6231  0.0482
  839MOL0     O15680  13.668   1.825  -1.460  0.1580 -1.1714  0.0789
  839MOL0     C15681  13.729   1.955  -1.478  0.2733 -0.5087  0.3746
  839MOL0     C15682  13.817   1.933  -1.606 -0.2502  0.6914  0.1126
  839MOL0     C15683  13.738   1.954  -1.741 -0.9634 -0.2054  0.0354
  839MOL0     C15684  13.829   1.943  -1.861 -0.2983 -0.3310 -0.4672
  839MOL0     C15685  13.745   1.978  -1.986 -0.2050 -0.3297  0.4062
  839MOL0     C15686  13.650   1.869  -2.039 -0.0652  0.0036 -0.6143
  839MOL0     C15687  13.561   1.910  -2.156  0.7779  0.6996 -0.1094
  839MOL0     C15688  13.527   1.786  -2.245  0.3965 -0.3903 -0.5961
  839MOL0    Cl15689  13.421   1.669  -2.161 -0.0169 -0.0527  0.0100
  839MOL0     C15690  13.558   1.909  -1.243 -0.4321  0.6219  0.1620
  839MOL0     C15691  13.448   1.903  -1.164  0.1275 -0.3930  0.0401
  839MOL0     O15692  13.081   1.878  -1.283  0.2383 -0.0252 -0.3014
  839MOL0     C15693  12.872   1.870  -1.106 -0.3155 -0.5101  0.4990
  839MOL0     C15694  12.757   1.857  -1.020 -0.8222 -0.3862  0.5516
  839MOL0     N15695  12.061   1.559  -0.917 -0.3371  0.2787 -0.1351
  839MOL0     N15696  11.943   1.506  -0.864  0.4023 -0.5373  0.2822
  839MOL0     C15697  10.892   1.484  -0.195  0.2400 -0.9547  0.5931
  839MOL0     C15698  10.840   1.434  -0.072  0.1106 -0.2188  0.2502
  839MOL0     C15699  10.808   1.135   0.263  0.1102  0.7709  0.8884
  839MOL0     C15700  10.685   1.193   0.300 -0.0612  0.4217  0.4920
  839MOL0     C15701  10.606   1.140   0.396  0.8731  0.9286 -0.6243
  839MOL0     C15702  10.635   1.032   0.467  0.1954  0.2896 -0.0300
  839MOL0     O15703  10.553   0.963   0.552  0.4238 -0.0490 -0.7037
  839MOL0     C15704  10.424   1.013   0.590  0.1915 -0.1899 -0.0085
  839MOL0     C15705  10.325   0.964   0.476  0.1980 -0.2942  0.3318
  839MOL0     C15706  10.186   1.020   0.490 -0.5115  0.2997  0.0058
  839MOL0     C15707  10.178   1.172   0.489  0.8732 -0.3451 -0.8934
  839MOL0     C15708  10.239   1.248   0.374  0.6946  0.1190  0.7284
  839MOL0     C15709  10.278   1.294   0.270 -0.3425 -0.7466 -0.6520
  839MOL0     C15710  10.756   0.975   0.434  0.7663  0.2198  1.0966
  839MOL0     C15711  10.848   1.021   0.332  0.1494  0.1455 -0.8060
  839MOL0     C15712  10.952   0.927   0.293  0.0455  0.0153 -0.0175
  839MOL0     H15713  11.134   1.392   0.096  0.0562  0.9267  0.1147
  839MOL0     H15714  11.211   1.515  -0.101 -0.1136 -0.7250 -2.0869
  839MOL0     H15715  11.094   1.546  -0.531 -1.7780 -1.3888 -1.3066
  839MOL0     H15716  10.958   1.466  -0.459  0.1442  0.5900 -2.3208
  839MOL0     H15717  11.112   1.302  -0.344 -0.9767 -2.1348 -1.7903
  839MOL0     H15718  11.131   1.304  -0.519 -1.4829  0.3306  0.1885
  839MOL0     H15719  11.303   1.455  -0.327 -0.7815  1.4384 -1.0764
  839MOL0     H15720  11.342   1.296  -0.393 -2.1525 -2.0952 -0.4203
  839MOL0     H15721  11.345   1.401  -0.632 -1.5347  0.8801 -0.1754
  839MOL0     H15722  11.310   1.550  -0.556 -2.1864 -1.9155 -1.2086
  839MOL0     H15723  11.568   1.392  -0.487  1.6250  1.1696 -1.7759
  839MOL0     H15724  11.514   1.547  -0.423 -1.1247  1.6908 -1.4827
  839MOL0     H15725  11.574   1.507  -0.728  0.1582  0.8364 -1.1864
  839MOL0     H15726  11.495   1.641  -0.652 -0.0245 -1.7101 -0.8105
  839MOL0     H15727  11.704   1.633  -0.494 -0.0369  0.8951 -0.5133
  839MOL0     H15728  11.727   1.705  -0.652 -2.0061  0.5993  1.9081
  839MOL0     H15729  11.892   1.528  -0.546  0.2425  2.0526  0.0045
  839MOL0     H15730  11.798   1.420  -0.648 -1.6813  0.0114  1.5282
  839MOL0     H15731  12.015   1.759  -0.659 -2.5205  0.5822  0.6612
  839MOL0     H15732  12.182   1.839  -0.890 -0.9391 -0.1063  0.0100
  839MOL0     H15733  12.273   1.707  -0.942  0.3793  0.6568 -0.0979
  839MOL0     H15734  12.259   1.804  -0.648  1.0771 -0.4559  1.6657
  839MOL0     H15735  12.348   1.658  -0.696 -1.0202 -1.1415 -2.7646
  839MOL0     H15736  12.422   1.927  -0.830 -1.6540 -0.9747 -1.8676
  839MOL0     H15737  12.461   1.895  -0.662 -1.7782 -1.1614  1.0322
  839MOL0     H15738  12.554   1.674  -0.766  1.0103 -0.1743 -0.8133
  839MOL0     H15739  12.532   1.764  -0.925 -2.2173  1.8517 -0.1765
  839MOL0     H15740  12.917   1.801  -0.730  1.0602  0.7094  0.3233
  839MOL0     H15741  13.222   1.732  -0.879  1.3710  0.7266  1.9136
  839MOL0     H15742  13.157   1.815  -0.745  0.0390 -0.1599  0.2798
  839MOL0     H15743  13.221   1.903  -0.895 -3.1104  1.8780 -0.3820
  839MOL0     H15744  13.282   1.639  -1.314 -0.8779  0.7224  1.9002
  839MOL0     H15745  13.477   1.672  -1.467  0.2151  0.3151  0.5701
  839MOL0     H15746  13.650   2.028  -1.499 -0.5164 -0.1390  3.9718
  839MOL0     H15747  13.795   1.980  -1.395 -0.0569 -2.0285  1.1400
  839MOL0     H15748  13.899   2.006  -1.600  1.4795 -1.2438  1.8177
  839MOL0     H15749  13.859   1.832  -1.597 -1.5961 -0.0519 -1.4780
  839MOL0     H15750  13.674   2.043  -1.740  1.7830  1.9542 -1.3398
  839MOL0     H15751  13.674   1.866  -1.738  1.9946 -2.5095  1.1420
  839MOL0     H15752  13.866   1.841  -1.877  4.5063  0.5862  2.5246
  839MOL0     H15753  13.915   2.010  -1.851 -0.4318 -0.4184  1.9393
  839MOL0     H15754  13.703   2.077  -1.966  1.9276  0.5721  0.7439
  839MOL0     H15755  13.817   2.001  -2.065  1.4327 -0.6543  1.7388
  839MOL0     H15756  13.581   1.847  -1.956  0.0980  1.1735 -0.1468
  839MOL0     H15757  13.705   1.778  -2.063 -1.4004 -0.4165 -2.2641
  839MOL0     H15758  13.603   1.988  -2.220 -2.3770  3.5281  0.9834
  839MOL0     H15759  13.475   1.955  -2.106  1.3960  2.8994 -0.9194
  839MOL0     H15760  13.620   1.733  -2.267  0.0029  0.1266 -4.0578
  839MOL0     H15761  13.479   1.801  -2.342  1.5157 -4.5984 -1.9968
  839MOL0     H15762  13.631   1.987  -1.223  2.8264 -2.6778  2.5125
  839MOL0     H15763  13.433   1.978  -1.087 -0.0785 -0.4216  0.0304
  839MOL0     H15764  12.838   1.874  -1.209 -0.2019 -2.8509  0.3136
  839MOL0     H15765  12.657   1.881  -1.056 -1.2514 -1.7324  0.8091
  839MOL0     H15766  10.822   1.508  -0.274  1.9504 -0.2290 -0.7664
  839MOL0     H15767  10.735   1.413  -0.057  0.2056  0.4341  2.0685
  839MOL0     H15768  10.639   1.275   0.245 -0.4735 -0.5501 -0.6487
  839MOL0     H15769  10.506   1.182   0.406  0.4506 -0.4926  1.8819
  839MOL0     H15770  10.405   0.980   0.693  1.6249 -1.2982 -0.0791
  839MOL0     H15771  10.406   1.121   0.594 -1.3344 -0.4452  2.1054
  839MOL0     H15772  10.318   0.855   0.475  2.5758 -0.5574  2.2784
  839MOL0     H15773  10.350   1.004   0.377 -5.2238  0.9100 -0.8478
  839MOL0     H15774  10.128   0.978   0.407  1.7110 -0.6938 -1.1117
  839MOL0     H15775  10.149   0.983   0.586 -0.3163  1.9031  0.7312
  839MOL0     H15776  10.227   1.218   0.575  0.2367  3.0833 -2.1755
  839MOL0     H15777  10.074   1.198   0.510  0.5059  0.2364 -3.1503
  839MOL0     H15778  10.332   1.319   0.181  1.4147 -0.4629  0.4463
  839MOL0     H15779  10.773   0.878   0.479  2.3510 -0.5486 -0.9842
  839MOL0     H15780  10.978   0.928   0.187 -2.0280  0.8369 -0.5564
  839MOL0     H15781  11.040   0.953   0.353  0.0571 -0.4171  0.1569
  839MOL0     H15782  10.922   0.827   0.325  2.9545 -1.1772 -0.6423
  840MOL0     O15783   4.944   3.675   5.003  0.6051 -0.0595  0.3573
  840MOL0     C15784   4.929   3.559   5.005  0.0799  0.9744 -0.3882
  840MOL0     O15785   5.031   3.469   5.009  0.4210 -0.4532  0.1687
  840MOL0     C15786   5.156   3.522   5.003 -0.1710  0.5354 -0.2723
  840MOL0     C15787   5.211   3.619   5.094  0.2176  0.5999  1.1744
  840MOL0     C15788   5.349   3.650   5.097 -0.1633 -0.2583 -0.4601
  840MOL0     C15789   5.435   3.588   5.003 -0.7120 -0.1330 -0.7311
  840MOL0     O15790   5.569   3.633   5.005  0.6349  0.9584 -0.8689
  840MOL0     C15791   5.677   3.560   4.938  1.5630  0.4149 -0.3666
  840MOL0     C15792   5.810   3.633   4.974 -0.0418  0.4820  0.2778
  840MOL0     C15793   5.928   3.569   4.902  0.1049  0.0649  0.8539
  840MOL0     C15794   6.062   3.616   4.953  0.3352 -0.2529 -0.6148
  840MOL0     C15795   6.173   3.544   4.873 -0.8178  0.9941 -0.6456
  840MOL0     C15796   6.186   3.591   4.728  0.1777  0.3048 -0.4969
  840MOL0     C15797   6.288   3.513   4.643  0.7434 -0.3417  0.7982
  840MOL0     C15798   6.430   3.557   4.684  0.2798  0.2326  0.2359
  840MOL0     N15799   6.522   3.497   4.592 -0.0951 -0.4543  0.4077
  840MOL0     C15800   6.571   3.372   4.602 -0.1908 -0.1043 -0.7188
  840MOL0     C15801   6.640   3.343   4.489  0.6737 -0.6265  0.0270
  840MOL0     C15802   6.724   3.216   4.448  0.6866 -0.2970 -0.6509
  840MOL0     C15803   6.765   3.126   4.575 -0.0710  0.0771  0.9675
  840MOL0     C15804   6.876   3.036   4.526  0.1807  0.7242 -0.1263
  840MOL0     C15805   6.914   2.930   4.632 -0.4622 -0.1523  0.4841
  840MOL0     O15806   7.007   2.843   4.575 -0.6156  0.9661  0.7953
  840MOL0     C15807   7.150   2.840   4.598  0.8121 -0.2934 -0.0377
  840MOL0     C15808   7.231   2.753   4.519  0.4949  0.1957 -1.5616
  840MOL0     C15809   7.371   2.739   4.541  0.1410 -0.4221 -0.3255
  840MOL0     C15810   7.441   2.636   4.468 -0.1322 -0.3627 -0.4744
  840MOL0     C15811   7.443   2.832   4.626  0.6282 -0.7082  0.1168
  840MOL0     C15812   7.586   2.849   4.644  0.0199  0.8815  0.3276
  840MOL0     O15813   7.637   2.967   4.698  0.5197 -0.3374 -0.0394
  840MOL0     C15814   7.767   2.974   4.732  0.5700 -0.0217  0.0701
  840MOL0     C15815   7.864   2.956   4.631  0.1776  0.8045  0.1676
  840MOL0     C15816   8.002   2.937   4.666  0.1271 -0.6850 -0.5859
  840MOL0     C15817   8.039   2.943   4.799 -0.0699  0.4886 -0.2400
  840MOL0     O15818   8.174   2.926   4.818 -0.3227 -0.0942 -0.1748
  840MOL0     C15819   8.226   2.940   4.951 -0.3269 -0.1451 -0.1981
  840MOL0     C15820   8.372   2.907   4.961 -0.1555 -0.2697  0.1790
  840MOL0     C15821   8.441   3.000   5.061  0.0315 -0.2489  0.0063
  840MOL0     C15822   8.592   2.987   5.052  0.7017  0.8955  0.4123
  840MOL0     C15823   8.668   3.108   5.107 -0.0507  0.6594  0.8008
  840MOL0     C15824   8.801   3.068   5.173  0.0333 -0.9242  0.4170
  840MOL0     C15825   8.896   2.985   5.084  0.4634 -0.9401  1.1608
  840MOL0     C15826   9.027   2.954   5.157  0.4765  0.8220  0.3306
  840MOL0    Cl15827   9.102   3.102   5.239 -0.3069  0.1234  0.1049
  840MOL0     C15828   7.945   2.950   4.900 -0.2275  0.7031  0.6236
  840MOL0     C15829   7.812   2.969   4.867  0.7882  0.0635  0.5663
  840MOL0     O15830   7.654   2.744   4.635  0.3090 -0.2288  0.3559
  840MOL0     C15831   7.367   2.931   4.698 -0.4534  0.3443 -0.4197
  840MOL0     C15832   7.221   2.927   4.683  0.0929 -0.8035 -0.7608
  840MOL0     N15833   6.632   3.450   4.407  0.6883  0.1837 -0.8530
  840MOL0     N15834   6.562   3.541   4.465 -0.4156 -1.0919 -0.0579
  840MOL0     C15835   5.382   3.501   4.913 -0.3618  0.1766 -0.7489
  840MOL0     C15836   5.241   3.468   4.909  0.0557  0.2059 -0.0063
  840MOL0     C15837   4.791   3.514   5.029 -0.1853 -0.2125  1.6552
  840MOL0     C15838   4.781   3.398   5.099 -0.2903 -0.5149 -0.0368
  840MOL0     C15839   4.660   3.349   5.139 -0.1662 -0.7140 -0.0968
  840MOL0     C15840   4.539   3.421   5.117  0.2993 -0.5005  0.0896
  840MOL0     O15841   4.421   3.353   5.138 -0.4872  0.3163  0.0437
  840MOL0     C15842   4.306   3.429   5.143 -0.0208 -0.1655 -1.1024
  840MOL0     C15843   4.194   3.349   5.213 -0.2816  0.2180  0.1649
  840MOL0     C15844   4.213   3.365   5.361 -0.8075 -0.3171 -0.3447
  840MOL0     C15845   4.106   3.288   5.441  0.7588  0.2434  0.7689
  840MOL0     C15846   4.120   3.287   5.584 -0.2062  0.9903  0.3734
  840MOL0     C15847   4.134   3.266   5.700  0.1087  0.8385  0.6837
  840MOL0     C15848   4.545   3.543   5.048  0.7120  0.2192 -0.1988
  840MOL0     C15849   4.670   3.589   4.997 -0.5894 -0.5618  0.6363
  840MOL0     C15850   4.679   3.716   4.909 -0.9695 -0.0593 -0.2463
  840MOL0     H15851   5.137   3.650   5.167  0.7952  0.3554  1.8786
  840MOL0     H15852   5.402   3.714   5.168 -2.1797  1.4154 -0.3826
  840MOL0     H15853   5.659   3.562   4.830  0.6046 -0.3451 -0.2347
  840MOL0     H15854   5.682   3.459   4.977 -0.0815 -0.7278 -2.8238
  840MOL0     H15855   5.802   3.740   4.951 -1.4498  0.6580  1.4502
  840MOL0     H15856   5.827   3.629   5.082 -0.8506 -1.8099  0.3584
  840MOL0     H15857   5.923   3.460   4.910  1.2528 -0.0495  0.2239
  840MOL0     H15858   5.914   3.584   4.795 -0.2437  0.6286  0.9757
  840MOL0     H15859   6.077   3.724   4.961  1.7522 -0.3450 -1.7247
  840MOL0     H15860   6.070   3.579   5.056 -0.4509 -1.3027 -0.9085
  840MOL0     H15861   6.144   3.439   4.869  0.1560  0.7352 -2.7514
  840MOL0     H15862   6.272   3.552   4.920 -0.1007  1.8267 -2.1970
  840MOL0     H15863   6.087   3.577   4.683  1.1889 -1.7920 -2.2258
  840MOL0     H15864   6.205   3.699   4.732 -2.6406  0.8522  0.0609
  840MOL0     H15865   6.288   3.550   4.540 -0.9764  2.3742  1.6809
  840MOL0     H15866   6.272   3.405   4.653 -2.9434 -0.2844 -2.5107
  840MOL0     H15867   6.438   3.666   4.678 -1.5113  0.3730 -0.2234
  840MOL0     H15868   6.460   3.529   4.785 -0.9903  3.9757  1.8488
  840MOL0     H15869   6.557   3.301   4.683  1.4257 -0.0074 -0.3295
  840MOL0     H15870   6.818   3.240   4.397  1.4641 -1.6870  0.0751
  840MOL0     H15871   6.653   3.150   4.397  0.9605 -0.3578 -0.9560
  840MOL0     H15872   6.802   3.191   4.655 -0.4743  0.7654  0.6046
  840MOL0     H15873   6.679   3.078   4.621 -1.5274  2.0785  0.4972
  840MOL0     H15874   6.838   2.992   4.434  0.1667  4.2009 -1.9251
  840MOL0     H15875   6.968   3.085   4.494  0.4108  0.4754  0.1456
  840MOL0     H15876   6.948   2.985   4.721  2.9183 -0.4072 -0.4865
  840MOL0     H15877   6.835   2.858   4.655 -1.2029  0.7693  0.9000
  840MOL0     H15878   7.189   2.677   4.453 -0.9531  0.8393 -1.4153
  840MOL0     H15879   7.437   2.546   4.530  2.0936  1.1726  2.1315
  840MOL0     H15880   7.541   2.671   4.443 -0.5037  1.8500  0.8542
  840MOL0     H15881   7.389   2.621   4.373 -0.3860  0.8022 -0.5340
  840MOL0     H15882   7.835   2.952   4.527  0.0861  1.4877  0.1630
  840MOL0     H15883   8.070   2.928   4.581 -3.7325  0.0458 -4.0607
  840MOL0     H15884   8.219   3.046   4.976  0.2223 -0.5317  1.7699
  840MOL0     H15885   8.174   2.886   5.031  1.0277 -0.0904  0.7516
  840MOL0     H15886   8.378   2.804   4.996  0.6383 -0.4315 -0.4077
  840MOL0     H15887   8.424   2.910   4.865 -1.1636 -0.6746 -0.3966
  840MOL0     H15888   8.401   2.988   5.162 -2.2920 -0.3425 -0.8776
  840MOL0     H15889   8.425   3.103   5.028  0.2752 -1.2849 -3.8197
  840MOL0     H15890   8.624   2.957   4.952  0.0846 -3.0252  1.2092
  840MOL0     H15891   8.615   2.900   5.114  1.7700  3.1234  3.3560
  840MOL0     H15892   8.685   3.187   5.034 -1.7154  1.9126  1.6846
  840MOL0     H15893   8.604   3.142   5.190 -0.0263  0.3832  0.9328
  840MOL0     H15894   8.782   3.003   5.259  2.4779 -3.8627 -1.0789
  840MOL0     H15895   8.847   3.164   5.199 -1.6748 -0.3025  1.3135
  840MOL0     H15896   8.908   3.052   4.998 -0.2190  0.0541  1.8213
  840MOL0     H15897   8.852   2.890   5.053  0.8724 -0.9836  0.6998
  840MOL0     H15898   9.110   2.919   5.094  0.3019 -0.2905  0.6923
  840MOL0     H15899   9.010   2.871   5.226  0.0248  1.1337  0.5918
  840MOL0     H15900   7.965   2.940   5.007  1.3198  2.0233  0.5052
  840MOL0     H15901   7.734   2.975   4.942  1.3055  1.2080  1.0409
  840MOL0     H15902   7.420   3.004   4.758  2.2009  0.3469 -2.5827
  840MOL0     H15903   7.154   2.994   4.735  0.3936  0.2094 -1.6357
  840MOL0     H15904   5.438   3.461   4.830  1.0616  0.8555 -0.1478
  840MOL0     H15905   5.188   3.402   4.841 -3.7137  0.7899  2.0663
  840MOL0     H15906   4.865   3.337   5.129  0.4161 -0.6251 -2.0856
  840MOL0     H15907   4.649   3.259   5.198 -0.7410 -1.1760 -0.8940
  840MOL0     H15908   4.314   3.513   5.214 -0.9521 -0.1898 -0.9561
  840MOL0     H15909   4.262   3.461   5.048  0.5901  1.3783 -0.8952
  840MOL0     H15910   4.194   3.248   5.173  0.1198  1.0416 -2.0780
  840MOL0     H15911   4.099   3.395   5.186  1.2545  3.9193  0.4314
  840MOL0     H15912   4.310   3.326   5.392 -0.5337  1.0489  0.6332
  840MOL0     H15913   4.203   3.468   5.399  2.2160 -1.1152  3.2162
  840MOL0     H15914   4.113   3.185   5.407  1.9894  0.2959  0.8193
  840MOL0     H15915   4.002   3.319   5.434  0.8340  0.2515 -0.4119
  840MOL0     H15916   4.144   3.237   5.802 -0.7962  0.1723  0.5898
  840MOL0     H15917   4.453   3.598   5.029  0.0748 -0.6695  0.2522
  840MOL0     H15918   4.713   3.801   4.968 -3.1757  2.0353 -1.8168
  840MOL0     H15919   4.756   3.692   4.835  0.7505 -0.2064  1.5031
  840MOL0     H15920   4.585   3.744   4.861 -1.1296  1.0193  0.6665
  841MOL0     O15921   1.291   1.354   1.366 -0.6011 -0.4731  0.3019
  841MOL0     C15922   1.284   1.418   1.469  0.6156  0.3060  0.6054
  841MOL0     O15923   1.385   1.491   1.526 -0.3734  0.9001  0.6406
  841MOL0     C15924   1.499   1.526   1.452  0.0311  0.1619 -0.5372
  841MOL0     C15925   1.506   1.534   1.315 -0.0919  0.6736 -0.1626
  841MOL0     C15926   1.633   1.563   1.255  0.0091 -0.3816 -0.0255
  841MOL0     C15927   1.750   1.588   1.328  0.2754 -0.6410 -0.7714
  841MOL0     O15928   1.881   1.608   1.287 -0.1394  0.3289  0.3101
  841MOL0     C15929   1.924   1.569   1.154 -0.2469  0.1422  0.0683
  841MOL0     C15930   2.073   1.590   1.147 -0.5818  0.2294 -0.0485
  841MOL0     C15931   2.149   1.490   1.233  0.0138 -0.0090  0.5210
  841MOL0     C15932   2.239   1.576   1.329  0.5963 -0.3643  0.4843
  841MOL0     C15933   2.316   1.490   1.428  0.2286  0.8611 -0.5136
  841MOL0     C15934   2.393   1.552   1.538 -1.0377 -0.1076  0.5345
  841MOL0     C15935   2.307   1.635   1.637  0.1316 -0.2810 -0.5425
  841MOL0     C15936   2.232   1.544   1.724  0.0236 -0.0535  0.2583
  841MOL0     N15937   2.310   1.441   1.801  0.0279 -0.7430 -0.3247
  841MOL0     C15938   2.412   1.478   1.888  0.3985 -0.4904 -0.0505
  841MOL0     C15939   2.462   1.362   1.915 -0.2610  0.9049 -0.8032
  841MOL0     C15940   2.590   1.333   1.991 -0.2731  0.7744  1.0827
  841MOL0     C15941   2.711   1.396   1.921 -0.0652 -0.7797 -0.1845
  841MOL0     C15942   2.823   1.362   2.018 -0.4208  0.1885 -0.5301
  841MOL0     C15943   2.950   1.390   1.951  0.6441  0.1826  0.5341
  841MOL0     O15944   2.962   1.537   1.939  0.3122  0.3656 -0.1177
  841MOL0     C15945   3.082   1.593   1.903  0.7790 -0.5116 -0.2537
  841MOL0     C15946   3.194   1.535   1.834 -0.0116  0.1479 -0.1567
  841MOL0     C15947   3.296   1.608   1.779  0.7786 -1.0006  0.9053
  841MOL0     C15948   3.392   1.518   1.698 -0.1439 -0.6286  0.4813
  841MOL0     C15949   3.289   1.754   1.789  0.3491 -0.2566  0.6113
  841MOL0     C15950   3.392   1.834   1.708  0.3778 -0.9283  0.1052
  841MOL0     O15951   3.423   1.955   1.767 -0.2238 -0.2616  0.5207
  841MOL0     C15952   3.509   2.039   1.703 -0.6790 -0.0665  0.0945
  841MOL0     C15953   3.477   2.102   1.590 -0.4833 -0.2686 -0.5566
  841MOL0     C15954   3.577   2.176   1.521 -0.0450  0.4138 -0.8487
  841MOL0     C15955   3.704   2.188   1.576  0.6213  0.1642  0.2358
  841MOL0     O15956   3.801   2.264   1.520 -0.2139 -0.0574 -0.4643
  841MOL0     C15957   3.789   2.348   1.400 -0.4987  0.2751  0.3543
  841MOL0     C15958   3.913   2.429   1.379 -0.7819  0.0960  0.1676
  841MOL0     C15959   4.047   2.356   1.375  0.4845  0.2673 -0.4683
  841MOL0     C15960   4.043   2.235   1.276  0.6055 -0.2892 -0.5735
  841MOL0     C15961   4.034   2.100   1.358  0.2922 -0.1534 -0.4333
  841MOL0     C15962   4.043   1.991   1.253 -0.2197  0.6210  0.3394
  841MOL0     C15963   4.040   1.853   1.319 -0.1354 -1.0498 -0.0852
  841MOL0     C15964   4.073   1.743   1.210  0.2753 -0.3475 -0.3299
  841MOL0    Cl15965   4.090   1.577   1.283 -0.0472 -0.3346 -0.2295
  841MOL0     C15966   3.739   2.124   1.696  0.4019 -0.5708 -0.3700
  841MOL0     C15967   3.636   2.054   1.759 -0.0489 -0.4743  0.1645
  841MOL0     O15968   3.437   1.791   1.606 -0.1284  0.1029  0.1773
  841MOL0     C15969   3.183   1.809   1.860 -0.4426 -0.7579  0.9778
  841MOL0     C15970   3.092   1.727   1.929 -0.3417 -0.7375 -0.2249
  841MOL0     N15971   2.381   1.259   1.863 -0.1612 -0.2846 -0.4709
  841MOL0     N15972   2.286   1.312   1.794  0.1063  1.1424  0.1227
  841MOL0     C15973   1.734   1.583   1.467 -0.0866  0.2360  1.0177
  841MOL0     C15974   1.612   1.550   1.527  0.6565  0.8009 -0.1029
  841MOL0     C15975   1.162   1.397   1.547  0.0607  0.9281  0.1542
  841MOL0     C15976   1.052   1.334   1.489  0.5162  0.3829  0.2321
  841MOL0     C15977   0.935   1.303   1.567  0.3359  0.8774  0.1144
  841MOL0     C15978   0.916   1.350   1.692  1.1799 -0.8185 -0.4504
  841MOL0     O15979   0.814   1.324   1.776  0.4894 -0.4642 -0.3309
  841MOL0     C15980   0.715   1.217   1.741 -0.0077  0.1791 -0.8523
  841MOL0     C15981   0.644   1.182   1.875 -0.4882  0.2731  0.2313
  841MOL0     C15982   0.534   1.284   1.911  0.0804 -0.6513 -0.0643
  841MOL0     C15983   0.416   1.293   1.812 -0.5336  0.0644  0.8174
  841MOL0     C15984   0.328   1.171   1.799 -0.3074 -0.1133  0.4786
  841MOL0     C15985   0.251   1.085   1.787  0.4434  0.6605 -0.0302
  841MOL0     C15986   1.027   1.426   1.739 -0.0295 -0.0217  0.5843
  841MOL0     C15987   1.152   1.446   1.680 -0.2394 -0.7990  0.9428
  841MOL0     C15988   1.259   1.520   1.760  0.4941 -0.0423 -0.0117
  841MOL0     H15989   1.420   1.516   1.251 -0.6755  0.6496  0.6103
  841MOL0     H15990   1.637   1.567   1.147 -2.4219  1.1117 -0.1342
  841MOL0     H15991   1.874   1.631   1.079 -1.4077 -0.3230  0.4215
  841MOL0     H15992   1.891   1.468   1.130  0.5624  0.4731 -2.7056
  841MOL0     H15993   2.101   1.578   1.042  3.4905 -2.7903  1.1169
  841MOL0     H15994   2.078   1.693   1.183 -0.1583  0.1707  0.0687
  841MOL0     H15995   2.084   1.437   1.304  2.5337 -0.3857  2.7046
  841MOL0     H15996   2.207   1.419   1.172 -0.4134  0.7025 -0.7409
  841MOL0     H15997   2.311   1.630   1.268  0.4197 -1.1813 -0.4839
  841MOL0     H15998   2.171   1.650   1.372  1.1137  0.4635 -0.0887
  841MOL0     H15999   2.393   1.432   1.378 -0.4087 -0.4294 -0.0516
  841MOL0     H16000   2.244   1.419   1.471 -0.4958  2.8116  1.7870
  841MOL0     H16001   2.460   1.481   1.588  0.4489 -0.8224 -2.2660
  841MOL0     H16002   2.473   1.622   1.511 -1.6955  0.9471  1.2862
  841MOL0     H16003   2.235   1.699   1.586 -2.9685  0.0622  3.7586
  841MOL0     H16004   2.376   1.696   1.695  0.0658 -0.7835  0.0753
  841MOL0     H16005   2.180   1.602   1.801 -2.0630 -3.0560  1.3041
  841MOL0     H16006   2.155   1.499   1.661  0.7890 -0.1529 -0.6295
  841MOL0     H16007   2.459   1.574   1.908  1.6625 -1.2593  0.8290
  841MOL0     H16008   2.601   1.224   1.986  0.3717  0.8792 -1.0584
  841MOL0     H16009   2.593   1.372   2.092 -0.1076 -0.2689  1.4969
  841MOL0     H16010   2.722   1.352   1.821 -0.5655  1.3518 -1.2469
  841MOL0     H16011   2.700   1.504   1.905  0.0764 -0.8825 -1.0754
  841MOL0     H16012   2.800   1.419   2.109  0.1749  1.3492 -1.0808
  841MOL0     H16013   2.816   1.258   2.049  3.7575  0.9167  4.0429
  841MOL0     H16014   3.040   1.362   2.008  0.2411  2.3407  2.4046
  841MOL0     H16015   2.955   1.330   1.860 -1.6319 -1.9739  1.7093
  841MOL0     H16016   3.185   1.428   1.818 -0.2434 -0.0866  1.4019
  841MOL0     H16017   3.385   1.516   1.589  1.0723 -3.3703  0.3815
  841MOL0     H16018   3.385   1.414   1.731  1.8293  0.1348  3.7626
  841MOL0     H16019   3.491   1.553   1.727 -0.1338 -0.9129  0.7875
  841MOL0     H16020   3.380   2.079   1.547 -1.0921  1.1936 -0.0443
  841MOL0     H16021   3.548   2.215   1.424 -0.2197  3.1273  0.2023
  841MOL0     H16022   3.769   2.277   1.318  1.7339 -1.9997  1.6428
  841MOL0     H16023   3.699   2.411   1.405 -1.4383 -1.0507  0.8445
  841MOL0     H16024   3.920   2.481   1.283  0.8396  0.6412  0.5416
  841MOL0     H16025   3.902   2.507   1.455 -0.1228  0.3750 -0.0136
  841MOL0     H16026   4.089   2.318   1.469  0.1977 -0.9345 -0.8099
  841MOL0     H16027   4.122   2.430   1.346  2.0427  0.0251  2.5677
  841MOL0     H16028   4.137   2.236   1.219  0.7313  1.0042 -0.3762
  841MOL0     H16029   3.958   2.242   1.207  0.9744 -1.1819 -1.1533
  841MOL0     H16030   4.117   2.104   1.429  1.0499 -0.1809 -1.2923
  841MOL0     H16031   3.939   2.077   1.408  0.7122 -0.1630  0.3818
  841MOL0     H16032   4.136   2.012   1.199 -0.2356  3.0514  1.1471
  841MOL0     H16033   3.960   2.007   1.183 -0.0883  3.2823  0.6891
  841MOL0     H16034   3.939   1.834   1.355  0.2783 -1.2589  0.9961
  841MOL0     H16035   4.124   1.853   1.390  1.4386  1.0439 -1.7812
  841MOL0     H16036   4.165   1.777   1.162 -1.2069  1.7494 -1.8969
  841MOL0     H16037   3.999   1.746   1.129  1.7265 -1.1147 -1.7341
  841MOL0     H16038   3.835   2.123   1.747  1.6872  0.7457 -2.5567
  841MOL0     H16039   3.650   2.009   1.857 -1.6206  0.8647  1.0531
  841MOL0     H16040   3.172   1.917   1.869 -3.6692 -0.8373 -0.4148
  841MOL0     H16041   3.008   1.779   1.974  0.4067  1.1191 -0.8587
  841MOL0     H16042   1.817   1.591   1.536 -0.1456 -0.3009  1.1613
  841MOL0     H16043   1.612   1.527   1.633  0.5224 -0.4852 -0.3713
  841MOL0     H16044   1.068   1.292   1.390 -2.1295  3.0400 -1.4747
  841MOL0     H16045   0.870   1.235   1.511 -0.2630 -0.0198  1.8318
  841MOL0     H16046   0.641   1.251   1.669  1.1561  0.3012 -2.0307
  841MOL0     H16047   0.765   1.128   1.700  1.0696  0.0251  0.7116
  841MOL0     H16048   0.718   1.181   1.955  2.5390 -1.4961 -2.3282
  841MOL0     H16049   0.600   1.082   1.863 -3.9577  1.6478  0.5237
  841MOL0     H16050   0.496   1.260   2.011 -0.0633  1.7683  0.5044
  841MOL0     H16051   0.575   1.385   1.917 -0.5214 -0.3419 -0.9381
  841MOL0     H16052   0.452   1.326   1.714  1.5722  1.9261  2.1072
  841MOL0     H16053   0.346   1.372   1.837 -0.4756 -0.0931  1.5055
  841MOL0     H16054   0.170   1.016   1.774  0.9746  0.0908 -0.3424
  841MOL0     H16055   1.002   1.479   1.831 -1.6129  3.0462 -1.4383
  841MOL0     H16056   1.261   1.620   1.715 -0.7195  0.3853  0.8147
  841MOL0     H16057   1.236   1.521   1.867  4.3359 -0.7820  0.9775
  841MOL0     H16058   1.359   1.475   1.756  0.6438  0.3557 -0.8354
  842MOL0     O16059  10.183   3.204   8.733 -1.0800 -1.0198 -0.1808
  842MOL0     C16060  10.212   3.120   8.818  1.1324  0.1942  0.6298
  842MOL0     O16061  10.338   3.074   8.842  0.4027  0.0322 -0.2877
  842MOL0     C16062  10.429   3.122   8.748  0.4903 -0.5521 -0.4294
  842MOL0     C16063  10.469   3.054   8.633 -0.4777 -1.3692  0.4135
  842MOL0     C16064  10.565   3.107   8.545 -0.3696 -0.3401 -0.1059
  842MOL0     C16065  10.638   3.224   8.582  0.1848 -0.8853 -0.0340
  842MOL0     O16066  10.737   3.276   8.506  0.0708 -0.0174  0.2922
  842MOL0     C16067  10.859   3.198   8.484  0.4132  0.3784 -0.0112
  842MOL0     C16068  10.967   3.285   8.433  0.2800 -0.6912  0.1199
  842MOL0     C16069  11.100   3.222   8.426 -0.1434  0.4492  0.0447
  842MOL0     C16070  11.129   3.121   8.312  0.8176 -0.8428  0.5035
  842MOL0     C16071  11.273   3.064   8.317 -0.0761 -0.0995  0.6033
  842MOL0     C16072  11.299   2.944   8.218 -0.6412  0.3863 -1.4047
  842MOL0     C16073  11.439   2.876   8.231 -0.4330  0.2607  0.6456
  842MOL0     C16074  11.448   2.791   8.354  0.6556  0.0481 -0.1132
  842MOL0     N16075  11.583   2.722   8.352  0.3344 -0.1124 -0.7809
  842MOL0     C16076  11.600   2.597   8.299  0.4489  0.1439 -0.3582
  842MOL0     C16077  11.732   2.570   8.328 -0.1116  0.2668  0.0544
  842MOL0     C16078  11.817   2.453   8.290  0.0612 -0.0142 -0.2503
  842MOL0     C16079  11.903   2.488   8.172  0.7302 -0.0110 -0.0574
  842MOL0     C16080  12.044   2.539   8.208 -0.6658 -0.0208  0.3678
  842MOL0     C16081  12.130   2.585   8.089  0.2024 -0.1209 -0.8783
  842MOL0     O16082  12.141   2.496   7.986  0.2064  0.0878 -0.4518
  842MOL0     C16083  12.268   2.498   7.937  0.3016 -0.6753 -0.4116
  842MOL0     C16084  12.300   2.605   7.847  0.7903 -0.3369 -0.0988
  842MOL0     C16085  12.435   2.616   7.801 -0.4025  0.6213  0.6106
  842MOL0     C16086  12.466   2.730   7.711 -0.8118  0.4825 -0.5009
  842MOL0     C16087  12.530   2.514   7.837  0.3894  0.5829 -0.6149
  842MOL0     C16088  12.665   2.518   7.780 -0.6412  0.7143 -0.0431
  842MOL0     O16089  12.668   2.503   7.645 -0.9869  0.6634 -0.0420
  842MOL0     C16090  12.789   2.498   7.576  0.7028  0.0530 -0.0735
  842MOL0     C16091  12.811   2.607   7.486 -0.4066  0.5746  0.2522
  842MOL0     C16092  12.927   2.595   7.405  0.0794 -0.4021  0.9042
  842MOL0     C16093  13.019   2.488   7.417  0.4980  0.7918  0.2021
  842MOL0     O16094  13.137   2.475   7.342 -0.1974  0.0179 -0.5054
  842MOL0     C16095  13.192   2.593   7.283  0.1187 -0.0973  0.1698
  842MOL0     C16096  13.316   2.586   7.207 -0.1176 -0.1005  0.5789
  842MOL0     C16097  13.425   2.541   7.300 -0.4762  0.9389 -0.1951
  842MOL0     C16098  13.568   2.557   7.248  0.4104  0.3216 -0.2037
  842MOL0     C16099  13.676   2.506   7.343 -0.3646 -0.6268 -0.3075
  842MOL0     C16100  13.809   2.566   7.309 -0.1370 -0.6776 -0.4183
  842MOL0     C16101  13.921   2.513   7.401 -0.1155 -0.4845  0.1332
  842MOL0     C16102  14.035   2.456   7.325 -0.2703 -0.2309 -0.6468
  842MOL0    Cl16103  14.175   2.424   7.429  0.1457  0.2013 -0.0101
  842MOL0     C16104  12.986   2.377   7.504 -0.0929 -0.6187 -0.3166
  842MOL0     C16105  12.874   2.386   7.584  0.8407  0.2641 -0.1823
  842MOL0     O16106  12.762   2.539   7.852  0.5420  0.0420  0.0877
  842MOL0     C16107  12.501   2.430   7.950 -0.4016 -0.1076  0.3917
  842MOL0     C16108  12.373   2.423   7.998  0.6123 -0.1423  0.1817
  842MOL0     N16109  11.766   2.656   8.427 -0.6906  0.1848 -0.6427
  842MOL0     N16110  11.682   2.754   8.436 -1.0010  0.6647  0.2627
  842MOL0     C16111  10.595   3.298   8.697  0.2083 -0.3320  0.1930
  842MOL0     C16112  10.485   3.246   8.778 -0.2636 -0.1786  0.1760
  842MOL0     C16113  10.094   3.059   8.894 -0.1647 -0.9664  0.2179
  842MOL0     C16114   9.969   3.059   8.832 -0.4648 -1.3657 -1.1574
  842MOL0     C16115   9.854   3.013   8.903 -1.3523 -0.0704 -0.5123
  842MOL0     C16116   9.869   2.942   9.026 -0.5434 -0.5564 -0.2408
  842MOL0     O16117   9.754   2.874   9.074 -0.0502  0.1815 -0.6055
  842MOL0     C16118   9.732   2.890   9.212  0.7523  0.4170 -0.7385
  842MOL0     C16119   9.574   2.887   9.223  0.2584  0.3289 -0.2102
  842MOL0     C16120   9.505   3.003   9.150  0.2702 -0.2098  0.4071
  842MOL0     C16121   9.428   2.956   9.022  0.7120 -0.3802  0.1437
  842MOL0     C16122   9.292   2.907   9.057 -0.3768  0.5018 -0.2657
  842MOL0     C16123   9.184   2.852   9.072 -0.4523  0.6205  1.0874
  842MOL0     C16124   9.995   2.950   9.094  0.6349  0.2793  0.0846
  842MOL0     C16125  10.107   3.015   9.030  0.3902  0.4099  0.2066
  842MOL0     C16126  10.236   3.046   9.111 -0.5598 -0.0408  0.5943
  842MOL0     H16127  10.407   2.968   8.609  0.8157 -1.7376 -1.9966
  842MOL0     H16128  10.597   3.060   8.453  0.7405  2.3305 -1.2087
  842MOL0     H16129  10.837   3.119   8.411  1.8921 -1.5549  1.5204
  842MOL0     H16130  10.907   3.145   8.567  1.2046  0.5103 -0.3725
  842MOL0     H16131  10.934   3.303   8.330  0.9615  4.1909  0.4948
  842MOL0     H16132  10.966   3.384   8.481 -0.6281 -0.2015 -0.8606
  842MOL0     H16133  11.182   3.293   8.415 -0.2569  0.1791 -3.7771
  842MOL0     H16134  11.119   3.170   8.521  0.1065 -1.1467 -0.8505
  842MOL0     H16135  11.048   3.047   8.308 -1.0989  1.2176 -1.8607
  842MOL0     H16136  11.115   3.182   8.223  0.6079 -1.0378  0.4035
  842MOL0     H16137  11.283   3.027   8.420 -0.1307 -0.1009  0.6083
  842MOL0     H16138  11.348   3.141   8.296 -1.8308  0.9733 -2.2963
  842MOL0     H16139  11.216   2.874   8.234  0.9474 -1.0857  1.0793
  842MOL0     H16140  11.295   2.991   8.119  1.0853  1.3431 -1.0707
  842MOL0     H16141  11.514   2.955   8.227 -2.2084  2.0882  1.8001
  842MOL0     H16142  11.451   2.809   8.145  1.1209 -0.2572  1.2388
  842MOL0     H16143  11.444   2.860   8.439 -1.7017  0.9827 -0.9182
  842MOL0     H16144  11.365   2.721   8.370  1.3483 -0.5340  1.0744
  842MOL0     H16145  11.537   2.535   8.237 -1.0320  1.2239  0.0075
  842MOL0     H16146  11.740   2.385   8.253 -0.7438  0.9909 -0.4884
  842MOL0     H16147  11.881   2.404   8.364 -0.2408  2.2053  1.5839
  842MOL0     H16148  11.919   2.396   8.115  3.7448 -0.2649  1.0403
  842MOL0     H16149  11.846   2.563   8.116 -3.3220 -3.9372 -1.7767
  842MOL0     H16150  12.044   2.626   8.275  0.3945  0.7664 -0.6166
  842MOL0     H16151  12.101   2.453   8.245 -2.3064 -1.5368 -0.4421
  842MOL0     H16152  12.095   2.680   8.046  0.8859  1.0266  0.9864
  842MOL0     H16153  12.225   2.611   8.137  0.3105 -0.4631 -0.9041
  842MOL0     H16154  12.231   2.681   7.811  2.4927  0.6949 -1.3800
  842MOL0     H16155  12.386   2.804   7.695 -1.4559  0.1217  0.9211
  842MOL0     H16156  12.479   2.697   7.608 -3.0799  1.2483 -1.1034
  842MOL0     H16157  12.549   2.781   7.761 -0.7318 -1.9749  2.1571
  842MOL0     H16158  12.741   2.690   7.481 -1.3981 -0.2738 -0.3585
  842MOL0     H16159  12.940   2.684   7.344 -3.5346  0.2057  0.7993
  842MOL0     H16160  13.125   2.629   7.205  1.9516  0.8809 -1.0465
  842MOL0     H16161  13.207   2.663   7.367  0.5095  1.4625 -1.1437
  842MOL0     H16162  13.307   2.522   7.118 -2.3759  0.2949  0.4598
  842MOL0     H16163  13.341   2.685   7.170  2.0026 -1.4072 -1.8013
  842MOL0     H16164  13.404   2.435   7.320 -0.7439  0.9147 -0.5877
  842MOL0     H16165  13.410   2.584   7.399  1.2674  1.0121  0.0574
  842MOL0     H16166  13.581   2.665   7.259 -0.9695  0.3733  1.2155
  842MOL0     H16167  13.582   2.526   7.144 -0.9468  0.9446 -0.5936
  842MOL0     H16168  13.656   2.547   7.442 -1.3973  0.0871 -0.7924
  842MOL0     H16169  13.671   2.397   7.342  0.3726 -0.6627 -0.6890
  842MOL0     H16170  13.813   2.674   7.325 -2.0383 -1.0128  3.6362
  842MOL0     H16171  13.830   2.549   7.203  0.6585 -0.0212 -0.3794
  842MOL0     H16172  13.885   2.434   7.468 -0.4254 -0.8560 -0.4573
  842MOL0     H16173  13.950   2.596   7.465  1.1781 -0.7529 -0.0831
  842MOL0     H16174  14.055   2.532   7.248  1.5636 -1.5216 -1.5226
  842MOL0     H16175  14.005   2.370   7.264 -1.3443  1.4390 -2.6081
  842MOL0     H16176  13.046   2.290   7.526  1.0351  0.6967  2.3327
  842MOL0     H16177  12.846   2.304   7.650 -2.1987  0.8157 -0.6647
  842MOL0     H16178  12.571   2.366   8.002 -0.5352 -0.3850  0.2354
  842MOL0     H16179  12.343   2.363   8.084 -2.9318  1.7473  0.4471
  842MOL0     H16180  10.641   3.394   8.718 -0.5644  0.1855 -0.4224
  842MOL0     H16181  10.454   3.303   8.865  0.6706  1.3205 -0.4280
  842MOL0     H16182   9.956   3.105   8.734 -0.8227 -1.6445 -1.2454
  842MOL0     H16183   9.757   3.030   8.856 -2.1499 -0.9155  0.7714
  842MOL0     H16184   9.776   2.802   9.260 -0.2523 -1.6883 -3.4322
  842MOL0     H16185   9.783   2.973   9.262 -1.7455  2.0080 -0.6710
  842MOL0     H16186   9.555   2.900   9.330 -1.5267  0.6069 -0.5368
  842MOL0     H16187   9.540   2.791   9.184  1.6183  0.5273 -1.9908
  842MOL0     H16188   9.434   3.061   9.209  1.6210  3.2410 -1.1060
  842MOL0     H16189   9.574   3.082   9.123  0.8666 -0.4699  1.1353
  842MOL0     H16190   9.479   2.867   8.982 -1.0879 -1.5816  0.3860
  842MOL0     H16191   9.414   3.035   8.948 -1.0889 -0.9269 -0.1669
  842MOL0     H16192   9.085   2.811   9.060 -0.4964  0.9161  0.3801
  842MOL0     H16193   9.998   2.908   9.194 -0.1971 -1.8757 -0.7140
  842MOL0     H16194  10.272   3.147   9.089 -0.4962 -0.6556 -2.6147
  842MOL0     H16195  10.220   3.038   9.219  0.2372  0.8445  0.7854
  842MOL0     H16196  10.316   2.981   9.076 -1.6898 -0.8055 -0.7137
  843MOL0     O16197   5.210   8.799   9.438 -0.1467  0.3072 -0.5182
  843MOL0     C16198   5.172   8.868   9.346 -0.5890 -0.7470  0.1372
  843MOL0     O16199   5.244   8.926   9.243 -0.1594  0.4161 -0.3952
  843MOL0     C16200   5.380   8.934   9.268 -0.3202  0.2908  0.0586
  843MOL0     C16201   5.421   9.000   9.376  0.8599 -0.6449  0.8255
  843MOL0     C16202   5.560   9.019   9.398 -0.2393 -0.3063 -0.0508
  843MOL0     C16203   5.655   8.986   9.305 -0.7847 -0.1783 -0.2193
  843MOL0     O16204   5.787   9.026   9.314 -0.8200 -0.2279 -0.0633
  843MOL0     C16205   5.837   9.060   9.451 -0.2689 -0.1177 -0.7697
  843MOL0     C16206   5.986   9.062   9.456  0.0343 -0.5195 -0.1103
  843MOL0     C16207   6.044   9.102   9.591 -0.9805 -0.3618 -0.2887
  843MOL0     C16208   6.198   9.096   9.579  0.5880  0.6721 -0.2339
  843MOL0     C16209   6.272   9.122   9.708 -0.2692  0.5739  0.9862
  843MOL0     C16210   6.419   9.111   9.678 -0.1216 -0.5648 -0.3854
  843MOL0     C16211   6.514   9.137   9.798  0.1295  0.4769  0.1687
  843MOL0     C16212   6.664   9.122   9.755 -1.0466  0.0366 -0.8733
  843MOL0     N16213   6.759   9.149   9.866  0.9158 -0.2878  0.0546
  843MOL0     C16214   6.816   9.054   9.943  0.0528  0.7460  0.4679
  843MOL0     C16215   6.922   9.112   9.993 -0.0900 -0.0542  0.0693
  843MOL0     C16216   7.006   9.048  10.091  0.2476  0.1474 -0.2093
  843MOL0     C16217   7.154   9.049  10.052  0.0973 -0.2446  0.1135
  843MOL0     C16218   7.236   9.008  10.181  0.4024 -0.2276  0.5130
  843MOL0     C16219   7.386   9.053  10.176 -0.2825  0.4166  0.1727
  843MOL0     O16220   7.460   9.008  10.290 -0.5929  0.2421 -0.1467
  843MOL0     C16221   7.596   9.023  10.295 -0.0487  0.4041 -0.8619
  843MOL0     C16222   7.673   9.080  10.196 -0.0791 -0.0050 -0.0222
  843MOL0     C16223   7.809   9.092  10.209 -0.2072 -0.2500 -0.4042
  843MOL0     C16224   7.883   9.151  10.095  0.4238  0.0390 -0.1202
  843MOL0     C16225   7.874   9.061  10.337  0.2267 -0.2375  0.4413
  843MOL0     C16226   8.019   9.084  10.363  0.3100  0.9574  0.2434
  843MOL0     O16227   8.066   9.007  10.466  0.0817 -0.2904  0.3446
  843MOL0     C16228   8.196   9.016  10.522  0.2276  0.4027  0.5082
  843MOL0     C16229   8.254   8.896  10.575  0.2065 -0.0162  0.7011
  843MOL0     C16230   8.388   8.900  10.628 -0.2661 -0.2669 -0.3248
  843MOL0     C16231   8.453   9.029  10.624  0.0940 -0.0627 -0.2081
  843MOL0     O16232   8.586   9.018  10.666 -0.6529  0.1154 -0.1436
  843MOL0     C16233   8.669   9.064  10.564 -0.9148  0.5893  0.5032
  843MOL0     C16234   8.821   9.031  10.597 -0.0211 -0.6595  0.2056
  843MOL0     C16235   8.912   9.085  10.475  0.2834  0.0996  0.5701
  843MOL0     C16236   8.903   9.012  10.342 -0.2794  0.5686 -0.4559
  843MOL0     C16237   9.005   9.067  10.233  0.4864 -0.7930  0.1658
  843MOL0     C16238   8.968   9.034  10.089 -0.0703  0.3597  0.2465
  843MOL0     C16239   9.034   8.910  10.023  0.1430  0.9821  0.8842
  843MOL0     C16240   9.006   8.896   9.870  0.2906 -0.6161 -0.8533
  843MOL0    Cl16241   9.089   9.034   9.787  0.3915  0.2567  0.4489
  843MOL0     C16242   8.390   9.143  10.581  0.3185 -0.2366 -1.0570
  843MOL0     C16243   8.259   9.135  10.538  0.8530 -1.3399 -0.7046
  843MOL0     O16244   8.088   9.166  10.305 -0.3128 -0.0307 -0.1616
  843MOL0     C16245   7.795   9.001  10.432  0.1869 -0.0715 -0.1849
  843MOL0     C16246   7.660   8.976  10.411  0.6416 -0.5979 -1.1404
  843MOL0     N16247   6.921   9.246   9.966  0.3675 -0.3658  0.3098
  843MOL0     N16248   6.823   9.270   9.880 -0.1694 -0.0339  0.1330
  843MOL0     C16249   5.612   8.924   9.190 -0.0879  0.9230  0.1789
  843MOL0     C16250   5.475   8.896   9.171  0.0868 -1.1374 -0.5550
  843MOL0     C16251   5.030   8.872   9.322  0.4786  1.2232 -0.4527
  843MOL0     C16252   4.971   9.000   9.302  0.5618  0.3461 -0.5909
  843MOL0     C16253   4.831   9.009   9.282 -0.2537  0.4889 -1.3694
  843MOL0     C16254   4.747   8.899   9.276 -0.4853  0.1237 -0.3570
  843MOL0     O16255   4.613   8.899   9.249  0.6926 -0.3225  0.0113
  843MOL0     C16256   4.541   9.015   9.197 -0.3796  0.6122  0.5272
  843MOL0     C16257   4.535   9.028   9.043 -0.3106 -0.7792  0.1558
  843MOL0     C16258   4.669   9.058   8.980  0.3852 -0.7134 -0.3618
  843MOL0     C16259   4.653   9.055   8.824 -0.7933  0.4693  0.4592
  843MOL0     C16260   4.787   9.059   8.762 -0.3699  0.2292  0.1514
  843MOL0     C16261   4.889   9.068   8.692  0.7414  0.2476 -0.1036
  843MOL0     C16262   4.806   8.777   9.292  0.6709 -0.0892  0.5097
  843MOL0     C16263   4.940   8.761   9.324  0.5690 -0.2483  0.5327
  843MOL0     C16264   4.989   8.620   9.340  0.1496  0.4566  0.5689
  843MOL0     H16265   5.360   9.045   9.453  1.2069  0.7973  0.2788
  843MOL0     H16266   5.587   9.071   9.489 -0.3332 -0.1156 -0.1318
  843MOL0     H16267   5.809   8.982   9.523  2.3299  0.3363  0.8953
  843MOL0     H16268   5.787   9.152   9.483  0.3567  0.5673 -1.7358
  843MOL0     H16269   6.021   8.965   9.421  0.1321 -0.2783 -0.6949
  843MOL0     H16270   6.015   9.147   9.392 -1.3701 -2.5482 -3.7591
  843MOL0     H16271   6.007   9.204   9.606 -0.6608 -0.1876 -0.6887
  843MOL0     H16272   6.012   9.037   9.673  0.5455  0.5444  1.1024
  843MOL0     H16273   6.219   8.993   9.551 -1.7479  0.1655 -0.3603
  843MOL0     H16274   6.231   9.161   9.498  0.3689  1.3246  0.1809
  843MOL0     H16275   6.245   9.047   9.783  0.7994  0.8199  1.6428
  843MOL0     H16276   6.234   9.220   9.737 -4.5637 -0.2822 -0.9462
  843MOL0     H16277   6.437   9.008   9.645  3.4157  0.0285 -0.7585
  843MOL0     H16278   6.443   9.188   9.603  0.4838 -1.0579 -0.7113
  843MOL0     H16279   6.493   9.060   9.873 -1.1818  0.0896 -0.5506
  843MOL0     H16280   6.492   9.236   9.837 -3.5291  0.7074 -1.9910
  843MOL0     H16281   6.678   9.022   9.713  2.1373  0.1666 -0.3587
  843MOL0     H16282   6.685   9.181   9.665  1.9745  0.9396  0.3075
  843MOL0     H16283   6.782   8.951   9.939  1.2382  0.3697 -0.9019
  843MOL0     H16284   6.970   8.946  10.106  0.2090  0.2500  0.4478
  843MOL0     H16285   6.981   9.098  10.185 -0.8549  1.0397 -0.9450
  843MOL0     H16286   7.184   8.977   9.976  3.0682 -1.8725  2.6078
  843MOL0     H16287   7.181   9.152  10.027  2.5025  0.0712  3.3466
  843MOL0     H16288   7.186   9.053  10.268 -0.8018 -3.1225  1.4329
  843MOL0     H16289   7.222   8.900  10.190 -1.0830 -0.3245 -2.1915
  843MOL0     H16290   7.433   9.007  10.089 -1.2894  2.6025 -1.6271
  843MOL0     H16291   7.392   9.162  10.168 -0.3433  0.4240  0.2210
  843MOL0     H16292   7.636   9.126  10.105  2.0616  0.4461 -0.7038
  843MOL0     H16293   7.907   9.258  10.096  1.3999 -0.0293 -3.4302
  843MOL0     H16294   7.828   9.136  10.002  1.8501 -0.2746 -0.9430
  843MOL0     H16295   7.978   9.099  10.084 -1.3077 -3.2151 -0.6684
  843MOL0     H16296   8.195   8.805  10.579 -1.5659  1.0487 -0.1131
  843MOL0     H16297   8.445   8.819  10.673  0.4283  1.0557  1.2519
  843MOL0     H16298   8.640   9.010  10.473 -0.9026  3.3129 -1.2355
  843MOL0     H16299   8.663   9.173  10.552  1.4474  0.4951 -3.3642
  843MOL0     H16300   8.839   9.078  10.694  0.5910 -0.9288  0.2311
  843MOL0     H16301   8.827   8.922  10.606  0.9876 -0.5314  1.3228
  843MOL0     H16302   9.016   9.089  10.509  0.2843  1.4982  0.4847
  843MOL0     H16303   8.883   9.187  10.448 -0.1224  0.0765  0.9187
  843MOL0     H16304   8.800   9.023  10.308 -0.8056  0.2042  0.9692
  843MOL0     H16305   8.927   8.910  10.371 -0.1747  0.3696 -1.2131
  843MOL0     H16306   9.015   9.175  10.247  0.8673 -1.1659  3.5062
  843MOL0     H16307   9.102   9.019  10.247  0.9372 -0.0469 -0.3056
  843MOL0     H16308   8.988   9.124  10.030  1.0993 -2.2076 -3.6623
  843MOL0     H16309   8.860   9.048  10.078  0.1807  2.4683  0.0471
  843MOL0     H16310   8.997   8.819  10.072  6.2691 -1.9821  0.9986
  843MOL0     H16311   9.141   8.902  10.047  0.1619  2.0384  1.1667
  843MOL0     H16312   8.899   8.904   9.848  0.5383  1.1289 -1.5690
  843MOL0     H16313   9.034   8.798   9.830  3.3408  0.2628 -1.1521
  843MOL0     H16314   8.453   9.231  10.583 -1.0033  0.7150 -0.2434
  843MOL0     H16315   8.218   9.225  10.494  1.7911 -0.5932 -0.0958
  843MOL0     H16316   7.831   8.970  10.530 -2.1251  0.1747  0.8174
  843MOL0     H16317   7.610   8.921  10.490  0.7021  1.5881  0.5461
  843MOL0     H16318   5.688   8.893   9.119 -0.3254 -2.1430  1.1117
  843MOL0     H16319   5.453   8.847   9.077  2.9691 -0.5220 -1.6621
  843MOL0     H16320   5.039   9.083   9.291  0.7533  0.3292  0.3737
  843MOL0     H16321   4.799   9.111   9.262  1.9052  0.8261 -3.4702
  843MOL0     H16322   4.440   9.017   9.237 -1.0253  0.5630 -1.0434
  843MOL0     H16323   4.588   9.106   9.236 -0.6199  0.6482  0.7296
  843MOL0     H16324   4.468   9.112   9.025 -1.5367 -1.4602  1.2513
  843MOL0     H16325   4.488   8.945   8.989 -1.8114  0.6455 -0.8288
  843MOL0     H16326   4.714   9.146   9.027  0.9300 -1.9520  1.5640
  843MOL0     H16327   4.739   8.984   9.019  1.8812 -0.0293 -1.6188
  843MOL0     H16328   4.590   9.131   8.776 -0.8495 -0.6184 -1.2719
  843MOL0     H16329   4.605   8.960   8.798  2.8104 -0.8369 -2.3696
  843MOL0     H16330   4.985   9.077   8.645  0.4765  0.2923 -0.6446
  843MOL0     H16331   4.746   8.690   9.266  0.9329  0.8471 -4.1469
  843MOL0     H16332   5.027   8.612   9.442  1.4558 -0.2681  0.0494
  843MOL0     H16333   4.927   8.533   9.316  0.3453  0.6934 -0.8959
  843MOL0     H16334   5.083   8.612   9.285 -0.2044  1.2715 -0.1837
  844MOL0     O16335   1.047   7.043   9.677  0.2819  0.5410 -0.6594
  844MOL0     C16336   1.130   7.110   9.733 -0.9599 -0.2935 -0.2435
  844MOL0     O16337   1.216   7.209   9.682 -0.4798 -0.7665 -0.0359
  844MOL0     C16338   1.230   7.207   9.544 -0.8880 -0.7399 -0.5630
  844MOL0     C16339   1.221   7.327   9.481  0.1123  0.0718  0.5588
  844MOL0     C16340   1.250   7.329   9.339  0.9090  0.0042 -0.3103
  844MOL0     C16341   1.282   7.215   9.269  0.5828  0.2428  0.5949
  844MOL0     O16342   1.315   7.238   9.134  0.2203 -0.7984  0.4323
  844MOL0     C16343   1.269   7.140   9.036  0.0310 -0.2702 -0.6994
  844MOL0     C16344   1.253   7.200   8.897 -0.2631  0.8034  0.3891
  844MOL0     C16345   1.379   7.220   8.828 -0.2507 -0.0401  0.4334
  844MOL0     C16346   1.372   7.292   8.700 -0.5552 -0.6627  0.0797
  844MOL0     C16347   1.510   7.340   8.647 -0.8589 -1.3117 -0.8442
  844MOL0     C16348   1.590   7.226   8.593 -0.4223  0.0100  0.1544
  844MOL0     C16349   1.710   7.257   8.512 -0.4155  0.7867 -0.8596
  844MOL0     C16350   1.757   7.142   8.414  0.2053  0.3295 -0.6523
  844MOL0     N16351   1.859   7.196   8.319 -0.1884  0.1510  0.0277
  844MOL0     C16352   1.985   7.149   8.312  0.6968  0.0287  0.3665
  844MOL0     C16353   2.044   7.196   8.197 -0.4182 -0.0454  0.3885
  844MOL0     C16354   2.177   7.155   8.143 -0.3466  0.9260 -0.3535
  844MOL0     C16355   2.262   7.283   8.123  0.4659  0.1636 -0.5068
  844MOL0     C16356   2.383   7.228   8.054  0.3046  0.0468 -0.2231
  844MOL0     C16357   2.474   7.340   8.007  0.3604  0.1434  0.4207
  844MOL0     O16358   2.523   7.425   8.109 -0.2263 -0.4180  0.4301
  844MOL0     C16359   2.641   7.476   8.080 -0.5382 -1.0210 -0.7577
  844MOL0     C16360   2.710   7.528   8.191 -0.0033  0.4215  0.1495
  844MOL0     C16361   2.832   7.595   8.181 -0.1457 -1.3999 -1.7181
  844MOL0     C16362   2.883   7.672   8.310  0.9117 -0.0503  0.4560
  844MOL0     C16363   2.905   7.605   8.067  0.9611 -0.2000  0.4360
  844MOL0     C16364   3.037   7.671   8.056  0.7477 -0.2578 -0.3695
  844MOL0     O16365   3.139   7.587   8.098  0.7928  1.3330  0.2305
  844MOL0     C16366   3.276   7.606   8.092 -0.4699  0.3733 -0.4678
  844MOL0     C16367   3.338   7.733   8.068  0.1103  0.1700 -0.8467
  844MOL0     C16368   3.476   7.743   8.062 -1.0838  0.3486  0.0394
  844MOL0     C16369   3.562   7.625   8.073 -0.8523 -0.7183  0.0957
  844MOL0     O16370   3.698   7.645   8.072  0.3027 -0.6869 -0.0969
  844MOL0     C16371   3.757   7.659   7.938  0.2982 -0.7255  0.3163
  844MOL0     C16372   3.852   7.782   7.934 -0.7615 -0.2121 -0.0177
  844MOL0     C16373   3.944   7.788   7.811 -0.6045 -0.0769  0.3614
  844MOL0     C16374   4.056   7.891   7.819  0.1969  0.0415 -0.6175
  844MOL0     C16375   4.155   7.871   7.707  0.3842 -0.1773  0.7766
  844MOL0     C16376   4.267   7.968   7.742  0.1208  0.2194  0.7173
  844MOL0     C16377   4.338   7.994   7.603 -0.1050  0.2401  0.0502
  844MOL0     C16378   4.493   8.035   7.615 -0.2973 -0.2188 -0.5248
  844MOL0    Cl16379   4.505   8.177   7.708 -0.0266  0.0646  0.3357
  844MOL0     C16380   3.503   7.498   8.089 -0.6272 -1.1068 -0.9187
  844MOL0     C16381   3.365   7.488   8.111  0.6071 -0.3891  0.3258
  844MOL0     O16382   3.050   7.788   8.011  0.0960  0.4293  0.4518
  844MOL0     C16383   2.839   7.543   7.953  0.3312 -0.2215 -0.5063
  844MOL0     C16384   2.716   7.480   7.962 -0.7060 -0.4571  0.9083
  844MOL0     N16385   1.951   7.280   8.144 -0.3977  0.0366 -0.8668
  844MOL0     N16386   1.843   7.276   8.212  0.2927  0.5859  0.1898
  844MOL0     C16387   1.301   7.098   9.342 -0.2289  0.0291  1.0134
  844MOL0     C16388   1.278   7.091   9.476 -0.9548  0.3825  0.1398
  844MOL0     C16389   1.137   7.109   9.883 -0.8467 -0.0747  0.8048
  844MOL0     C16390   1.219   7.207   9.957 -0.1590  0.0615  0.0893
  844MOL0     C16391   1.239   7.205  10.097 -0.2680  0.2192  0.3015
  844MOL0     C16392   1.170   7.116  10.170  0.0913 -0.1702 -0.5457
  844MOL0     O16393   1.181   7.133  10.310 -0.7782 -0.6040 -0.1924
  844MOL0     C16394   1.091   7.069  10.410 -0.2150 -0.1235  0.2592
  844MOL0     C16395   1.151   7.090  10.552 -0.4535  0.2282  0.3249
  844MOL0     C16396   1.259   6.982  10.586 -0.7311 -0.8549  0.6864
  844MOL0     C16397   1.412   7.012  10.550  0.0693  0.7437 -0.1647
  844MOL0     C16398   1.446   7.133  10.623 -1.0155  0.6399  0.3344
  844MOL0     C16399   1.492   7.221  10.684 -0.6707 -0.2861  1.0722
  844MOL0     C16400   1.081   7.020  10.109 -0.5354 -0.1588  0.1413
  844MOL0     C16401   1.069   7.014   9.968 -0.3927  0.1310  0.9583
  844MOL0     C16402   0.979   6.911   9.913  0.5246  0.1448  0.6068
  844MOL0     H16403   1.199   7.418   9.537  2.5669  0.0638  1.6392
  844MOL0     H16404   1.240   7.427   9.295  2.2083  0.8208  1.1043
  844MOL0     H16405   1.169   7.113   9.071  0.1256  2.0185  1.6723
  844MOL0     H16406   1.341   7.058   9.037 -3.9806 -4.1346 -0.6487
  844MOL0     H16407   1.184   7.149   8.830  2.1947  0.4106 -2.0040
  844MOL0     H16408   1.204   7.298   8.906 -2.1596 -0.0112 -0.6036
  844MOL0     H16409   1.451   7.279   8.886 -2.6637  1.7810  1.7516
  844MOL0     H16410   1.419   7.122   8.803  1.8211  0.8960 -0.1785
  844MOL0     H16411   1.321   7.217   8.639  0.5354 -0.1107 -1.5989
  844MOL0     H16412   1.299   7.373   8.710  0.3882 -0.0235  2.7769
  844MOL0     H16413   1.570   7.382   8.729  0.2676  2.1910 -3.2026
  844MOL0     H16414   1.497   7.415   8.568  2.0032 -1.5208 -1.6247
  844MOL0     H16415   1.628   7.163   8.674 -0.0160 -1.7692 -1.3524
  844MOL0     H16416   1.526   7.164   8.529  1.0518  1.7066 -3.2488
  844MOL0     H16417   1.795   7.298   8.567 -1.1127  2.4946 -1.0130
  844MOL0     H16418   1.674   7.332   8.441 -0.6927  1.0174 -0.4748
  844MOL0     H16419   1.797   7.061   8.476  0.7726  0.4347 -0.8712
  844MOL0     H16420   1.678   7.101   8.351  1.2205 -0.5540 -1.3717
  844MOL0     H16421   2.036   7.078   8.377 -2.0311 -0.2612  2.3862
  844MOL0     H16422   2.157   7.118   8.043 -1.8927  0.7092  0.0013
  844MOL0     H16423   2.210   7.077   8.212  3.4983  1.5518 -1.2684
  844MOL0     H16424   2.212   7.365   8.070 -0.4672 -0.8785 -1.3149
  844MOL0     H16425   2.280   7.328   8.221  0.2920 -0.6086 -0.1154
  844MOL0     H16426   2.434   7.164   8.127  0.2039 -2.7070 -2.4041
  844MOL0     H16427   2.365   7.165   7.967  2.5028  0.0508 -0.7290
  844MOL0     H16428   2.542   7.291   7.937  0.0497 -1.9933  1.5122
  844MOL0     H16429   2.418   7.405   7.939  2.7874  1.6671 -0.2418
  844MOL0     H16430   2.673   7.509   8.292 -1.1500  2.3271  0.1364
  844MOL0     H16431   2.812   7.671   8.394  1.3600  4.5358  1.1217
  844MOL0     H16432   2.904   7.775   8.280  3.0557 -0.9008 -1.2495
  844MOL0     H16433   2.978   7.627   8.339  0.4209 -2.2737 -1.0872
  844MOL0     H16434   3.286   7.828   8.056  0.7410  0.8148  1.2183
  844MOL0     H16435   3.527   7.838   8.050  0.6339 -0.3004  1.7294
  844MOL0     H16436   3.814   7.568   7.919  0.6033 -1.2671  3.4549
  844MOL0     H16437   3.683   7.665   7.857  0.2990  2.2877  0.4106
  844MOL0     H16438   3.796   7.875   7.944  0.6075  0.7881 -1.1567
  844MOL0     H16439   3.923   7.763   8.014 -1.0150  0.3200  0.3361
  844MOL0     H16440   3.902   7.801   7.711 -2.4230  3.7983  1.4477
  844MOL0     H16441   3.992   7.690   7.806  0.2467  0.2834  1.1915
  844MOL0     H16442   4.114   7.879   7.911  4.4071 -0.1227 -3.0234
  844MOL0     H16443   4.009   7.990   7.813 -1.5823 -0.6946  0.4630
  844MOL0     H16444   4.192   7.768   7.707  1.2017  0.0720 -0.9753
  844MOL0     H16445   4.116   7.896   7.607 -3.0145 -1.0169  1.7621
  844MOL0     H16446   4.336   7.938   7.821  0.1022 -0.0080  0.6464
  844MOL0     H16447   4.224   8.062   7.778 -1.9967 -0.1481 -0.6715
  844MOL0     H16448   4.282   8.065   7.541 -0.7263 -0.3599 -0.0831
  844MOL0     H16449   4.332   7.898   7.550 -1.3907 -0.5317  1.5221
  844MOL0     H16450   4.532   8.054   7.515  1.8462 -0.7952  0.1397
  844MOL0     H16451   4.542   7.952   7.668 -3.1177 -2.3434 -1.0403
  844MOL0     H16452   3.573   7.416   8.101  1.0871  0.7146  6.6882
  844MOL0     H16453   3.317   7.394   8.137  0.7291 -0.8515 -1.0861
  844MOL0     H16454   2.893   7.548   7.859  2.2306  1.0849  0.5731
  844MOL0     H16455   2.677   7.445   7.867 -1.3248  2.9877 -0.2436
  844MOL0     H16456   1.346   7.018   9.285 -0.6259 -0.0021  0.7373
  844MOL0     H16457   1.302   7.004   9.536  0.7501  0.9296  0.2963
  844MOL0     H16458   1.279   7.287   9.915 -1.6374  1.4015  0.4595
  844MOL0     H16459   1.305   7.278  10.142  0.8703  0.6462 -1.9479
  844MOL0     H16460   0.990   7.109  10.400 -0.6394 -1.5431 -1.6516
  844MOL0     H16461   1.095   6.965  10.379  2.4738  0.2259 -0.9105
  844MOL0     H16462   1.062   7.080  10.614 -2.8652 -0.4395 -2.9617
  844MOL0     H16463   1.189   7.192  10.562 -0.2752  0.2533 -0.5408
  844MOL0     H16464   1.251   6.957  10.692 -0.1436  1.5637  1.3456
  844MOL0     H16465   1.220   6.890  10.541  1.3865 -1.4436 -0.0995
  844MOL0     H16466   1.414   7.031  10.442  0.7285  2.1556  0.0769
  844MOL0     H16467   1.487   6.937  10.575  0.4307  0.5232 -1.8278
  844MOL0     H16468   1.526   7.310  10.733 -2.4980  0.0097  1.9134
  844MOL0     H16469   1.022   6.954  10.171 -1.0828 -1.1394 -1.3547
  844MOL0     H16470   0.940   6.859  10.001  1.4803 -0.9090  0.4233
  844MOL0     H16471   0.891   6.943   9.856  1.0095 -0.0699 -0.2858
  844MOL0     H16472   1.034   6.842   9.849  0.5703 -0.4878  1.3180
  845MOL0     O16473  11.070   5.799   8.180  0.5696  0.8259 -0.0763
  845MOL0     C16474  10.972   5.869   8.215  0.1129  0.5402  0.7499
  845MOL0     O16475  10.978   5.982   8.282  0.1759 -0.5747  0.3359
  845MOL0     C16476  11.104   6.013   8.330 -0.2569  0.0169 -0.2498
  845MOL0     C16477  11.118   6.016   8.472  0.7290  0.8859  1.2235
  845MOL0     C16478  11.234   6.063   8.535 -0.6798  0.0141  0.2976
  845MOL0     C16479  11.338   6.113   8.443 -0.1005  0.2437 -0.9000
  845MOL0     O16480  11.461   6.166   8.476 -0.2907  0.4124 -0.5677
  845MOL0     C16481  11.492   6.209   8.608  0.5061  0.3966  0.5287
  845MOL0     C16482  11.627   6.282   8.609  0.6279  0.0275 -0.6917
  845MOL0     C16483  11.731   6.200   8.542  0.5217 -0.0999  0.0376
  845MOL0     C16484  11.872   6.271   8.553  0.8891  0.9703  0.3268
  845MOL0     C16485  11.974   6.169   8.486  0.2592  0.4321 -0.3252
  845MOL0     C16486  12.115   6.218   8.511 -0.0741  0.1430 -0.3594
  845MOL0     C16487  12.224   6.124   8.461  0.5460  0.6555  0.1598
  845MOL0     C16488  12.300   6.040   8.565 -0.4038 -1.1687 -0.9562
  845MOL0     N16489  12.421   5.984   8.508 -0.1202 -0.2855 -0.2277
  845MOL0     C16490  12.531   6.051   8.457 -0.0828  0.6021 -0.1489
  845MOL0     C16491  12.632   5.957   8.446 -0.3162  0.0964  0.0659
  845MOL0     C16492  12.773   5.960   8.383 -0.4723 -0.0050 -0.4489
  845MOL0     C16493  12.773   5.962   8.229  0.5712 -0.5962 -0.1225
  845MOL0     C16494  12.912   5.950   8.163  0.1086 -0.0427 -0.0127
  845MOL0     C16495  12.881   5.955   8.012 -1.1510 -0.8068 -0.5779
  845MOL0     O16496  12.995   5.883   7.951  0.2519  0.4095  0.3347
  845MOL0     C16497  12.986   5.749   7.915 -0.0273  0.0860 -0.0058
  845MOL0     C16498  13.079   5.714   7.815 -0.3222 -0.3446  0.4130
  845MOL0     C16499  13.101   5.583   7.773  0.3877  0.1010  0.6168
  845MOL0     C16500  13.225   5.550   7.690 -0.0534 -0.2739  0.3383
  845MOL0     C16501  13.014   5.489   7.830  0.3833  0.0567 -0.3708
  845MOL0     C16502  13.034   5.339   7.811 -0.3419 -0.3733 -0.4921
  845MOL0     O16503  13.109   5.303   7.701 -0.5689  0.0171  0.2866
  845MOL0     C16504  13.139   5.169   7.675 -0.5706  0.2658  1.2521
  845MOL0     C16505  13.266   5.130   7.629  0.2975  0.4692 -0.4425
  845MOL0     C16506  13.303   4.997   7.611 -0.5894 -0.2707  0.0730
  845MOL0     C16507  13.209   4.896   7.619  0.5104  0.2291  0.2608
  845MOL0     O16508  13.253   4.766   7.594 -0.3162 -0.2555 -1.0168
  845MOL0     C16509  13.192   4.665   7.670 -0.2030 -0.0821  0.2580
  845MOL0     C16510  13.263   4.533   7.646  0.6349 -0.0656  0.0133
  845MOL0     C16511  13.409   4.549   7.659  0.1254 -0.8972  0.1754
  845MOL0     C16512  13.483   4.422   7.627 -0.7299 -0.0388 -0.3608
  845MOL0     C16513  13.635   4.440   7.646  0.2811 -0.0166 -0.2202
  845MOL0     C16514  13.681   4.438   7.799  0.1796 -0.6993 -0.4309
  845MOL0     C16515  13.833   4.448   7.810  0.0599 -0.2869 -0.7796
  845MOL0     C16516  13.883   4.419   7.949 -0.0021 -0.3571 -0.0593
  845MOL0    Cl16517  13.772   4.488   8.080 -0.5895  0.1701 -0.0915
  845MOL0     C16518  13.081   4.927   7.665  0.2027  0.0311 -0.1048
  845MOL0     C16519  13.054   5.065   7.697  0.2646  0.4707 -0.1813
  845MOL0     O16520  12.999   5.264   7.901 -0.7637 -0.4230 -0.8960
  845MOL0     C16521  12.912   5.522   7.913  0.9187 -0.0450 -0.3624
  845MOL0     C16522  12.892   5.652   7.960 -0.2068 -0.1912 -0.3302
  845MOL0     N16523  12.589   5.846   8.513 -0.3504  0.3350  0.3627
  845MOL0     N16524  12.469   5.867   8.556 -0.3196 -0.8655 -0.3983
  845MOL0     C16525  11.321   6.110   8.304 -1.0480 -0.8202 -0.2100
  845MOL0     C16526  11.212   6.049   8.246  0.5726 -0.1806  0.3900
  845MOL0     C16527  10.831   5.824   8.168 -0.1735 -0.0682  0.3821
  845MOL0     C16528  10.799   5.690   8.190 -0.5640 -1.1581 -0.6118
  845MOL0     C16529  10.675   5.640   8.163  1.0650  0.8176  1.0198
  845MOL0     C16530  10.578   5.734   8.119  0.9018 -0.7018 -0.3024
  845MOL0     O16531  10.451   5.672   8.110 -0.0682  0.6011 -0.4552
  845MOL0     C16532  10.335   5.748   8.086 -0.0984  1.0370  0.6273
  845MOL0     C16533  10.201   5.675   8.104  0.9107 -0.6794 -0.9813
  845MOL0     C16534  10.086   5.770   8.155 -0.0847 -0.1097  0.2842
  845MOL0     C16535   9.953   5.704   8.160  0.4698  0.2041  0.7978
  845MOL0     C16536   9.897   5.670   8.027 -0.0749 -0.6550 -0.8553
  845MOL0     C16537   9.835   5.645   7.927 -0.3221 -0.0003  0.7229
  845MOL0     C16538  10.602   5.875   8.105  0.2955 -0.6195  0.0147
  845MOL0     C16539  10.731   5.910   8.123  0.4116 -0.6474  0.6334
  845MOL0     C16540  10.768   6.058   8.097  0.2869 -0.0977  0.8710
  845MOL0     H16541  11.043   5.964   8.532  1.7959  0.5925  2.3214
  845MOL0     H16542  11.248   6.050   8.641 -0.6596 -4.4741 -0.0615
  845MOL0     H16543  11.498   6.130   8.684  3.2972  0.5618  0.5926
  845MOL0     H16544  11.414   6.278   8.642 -1.1727 -1.7974  1.3902
  845MOL0     H16545  11.609   6.375   8.554 -2.3807 -0.8995 -1.5165
  845MOL0     H16546  11.656   6.305   8.712  0.8121  0.1723 -0.7773
  845MOL0     H16547  11.745   6.104   8.592 -1.9876  0.5240  2.1703
  845MOL0     H16548  11.698   6.195   8.438 -1.1649  2.5166  0.3499
  845MOL0     H16549  11.880   6.364   8.495 -0.2154  0.4857 -0.6383
  845MOL0     H16550  11.890   6.289   8.659  3.3834  3.4981 -0.3854
  845MOL0     H16551  11.954   6.154   8.380  1.1374 -1.8627 -0.2190
  845MOL0     H16552  11.960   6.071   8.533 -1.2840  1.0451  0.5679
  845MOL0     H16553  12.132   6.316   8.467 -0.1783  0.0148 -0.6906
  845MOL0     H16554  12.126   6.246   8.616 -2.6751  0.1851 -0.0285
  845MOL0     H16555  12.292   6.200   8.420  1.0015  0.5354  0.6753
  845MOL0     H16556  12.189   6.059   8.379  0.3516  0.1686  0.6235
  845MOL0     H16557  12.335   6.095   8.653  1.8169 -2.8207 -0.7026
  845MOL0     H16558  12.242   5.956   8.604 -0.8928 -2.0409 -3.3782
  845MOL0     H16559  12.537   6.156   8.432 -0.1297  1.2876  2.5020
  845MOL0     H16560  12.828   5.876   8.426 -0.0811  1.7025  2.7243
  845MOL0     H16561  12.820   6.051   8.422 -0.4677  0.1408 -0.7890
  845MOL0     H16562  12.710   5.878   8.201 -1.8583  0.5875  1.4702
  845MOL0     H16563  12.725   6.054   8.196 -0.0697 -1.3262 -1.2745
  845MOL0     H16564  12.985   6.027   8.193  1.9427 -1.9635  0.6700
  845MOL0     H16565  12.953   5.854   8.195  0.4105  0.0783 -0.0285
  845MOL0     H16566  12.787   5.907   7.983 -1.2183 -0.5135 -0.8471
  845MOL0     H16567  12.882   6.060   7.980 -0.3103  0.1098  2.2079
  845MOL0     H16568  13.151   5.791   7.790  1.4633 -1.8043  0.8644
  845MOL0     H16569  13.210   5.509   7.590  1.5736  0.1731 -0.1129
  845MOL0     H16570  13.293   5.483   7.742  1.6251  0.1405 -1.2126
  845MOL0     H16571  13.293   5.634   7.672  1.3139 -1.2517  0.8442
  845MOL0     H16572  13.338   5.208   7.607  2.6663 -1.3266  0.5337
  845MOL0     H16573  13.402   4.977   7.571 -0.6539  1.7127 -1.2704
  845MOL0     H16574  13.192   4.690   7.776  1.5803  2.0784 -0.1727
  845MOL0     H16575  13.091   4.656   7.627  0.2120 -0.7811 -0.6019
  845MOL0     H16576  13.233   4.449   7.709 -0.7226 -0.0156 -0.5407
  845MOL0     H16577  13.240   4.502   7.543  0.3249  2.0284 -0.6043
  845MOL0     H16578  13.426   4.583   7.761  1.8350  2.2344 -1.0364
  845MOL0     H16579  13.445   4.628   7.592  0.2986 -0.8002  0.3824
  845MOL0     H16580  13.474   4.399   7.521  2.0013 -1.2917 -0.4274
  845MOL0     H16581  13.457   4.338   7.693 -0.7531  1.3191  1.4412
  845MOL0     H16582  13.690   4.357   7.600 -1.1284  0.3441 -2.6969
  845MOL0     H16583  13.658   4.542   7.613 -2.6083  1.0888  0.8875
  845MOL0     H16584  13.651   4.346   7.852 -0.8701  0.5294  1.2359
  845MOL0     H16585  13.653   4.524   7.861  2.5485  1.1944 -1.8519
  845MOL0     H16586  13.876   4.541   7.773  0.8023  0.1375  1.0643
  845MOL0     H16587  13.878   4.363   7.756 -0.0606 -0.8135 -0.0663
  845MOL0     H16588  13.984   4.458   7.967  0.7373 -1.5990 -1.3384
  845MOL0     H16589  13.881   4.313   7.974  1.8276 -0.2939  0.5138
  845MOL0     H16590  13.007   4.848   7.677 -0.7717  0.4071 -2.9206
  845MOL0     H16591  12.956   5.093   7.733  1.1628  2.6182  0.7499
  845MOL0     H16592  12.845   5.444   7.947  1.0046 -0.7391 -1.7284
  845MOL0     H16593  12.807   5.679   8.022  0.6670  0.6216  0.5574
  845MOL0     H16594  11.402   6.142   8.239  0.6578 -2.2828  1.0647
  845MOL0     H16595  11.186   6.058   8.140 -3.7896  0.8908  1.3373
  845MOL0     H16596  10.879   5.622   8.218 -0.9025 -0.7177  1.6157
  845MOL0     H16597  10.634   5.541   8.182  1.8456 -0.2580 -2.2980
  845MOL0     H16598  10.345   5.829   8.159 -1.7824  2.9791 -1.1687
  845MOL0     H16599  10.336   5.792   7.986 -1.5293 -1.5390 -0.6434
  845MOL0     H16600  10.217   5.590   8.171 -0.8037 -0.4012 -0.1791
  845MOL0     H16601  10.174   5.638   8.005 -2.2105  1.5249 -1.0698
  845MOL0     H16602  10.108   5.811   8.254  1.4723 -2.6616  1.0851
  845MOL0     H16603  10.079   5.845   8.075 -0.5730  0.1495  0.5646
  845MOL0     H16604   9.891   5.777   8.211  0.1062  0.8912 -0.5698
  845MOL0     H16605   9.931   5.613   8.216 -4.2730  1.4888  1.3705
  845MOL0     H16606   9.789   5.618   7.835 -0.1789 -1.0827  0.9534
  845MOL0     H16607  10.536   5.956   8.076  1.2095 -1.2148 -4.5809
  845MOL0     H16608  10.699   6.100   8.023  0.4443  0.9731  1.3225
  845MOL0     H16609  10.758   6.113   8.190 -1.2278 -2.0713  1.9608
  845MOL0     H16610  10.868   6.052   8.053  1.0393  0.5825  2.4193
  846MOL0     O16611  10.849  10.291   5.033 -0.8166  0.7237  0.4946
  846MOL0     C16612  10.792  10.307   4.927 -0.1545 -0.4697  0.2773
  846MOL0     O16613  10.858  10.337   4.808 -0.1341  0.1204  0.2314
  846MOL0     C16614  11.000  10.361   4.815  0.4041  0.2297  0.6559
  846MOL0     C16615  11.077  10.286   4.732 -0.2773 -0.6427  0.8647
  846MOL0     C16616  11.218  10.307   4.731 -0.3578  0.5289  0.1167
  846MOL0     C16617  11.281  10.410   4.799  0.4089 -0.0643 -0.7737
  846MOL0     O16618  11.418  10.421   4.781  0.1536  0.4309  0.6135
  846MOL0     C16619  11.492  10.530   4.838  0.1903  0.2327 -1.1534
  846MOL0     C16620  11.643  10.497   4.812  0.6902  0.7799  0.9223
  846MOL0     C16621  11.731  10.594   4.883  0.1439 -0.2767  0.7828
  846MOL0     C16622  11.873  10.547   4.857 -1.0001  0.8855 -0.4975
  846MOL0     C16623  11.969  10.659   4.906  1.0493 -0.1790 -0.4384
  846MOL0     C16624  12.108  10.639   4.852 -0.5812  0.4519 -0.3386
  846MOL0     C16625  12.139  10.656   4.705 -0.8972  0.8562  0.0105
  846MOL0     C16626  12.293  10.687   4.692  0.3737  0.3893  0.3481
  846MOL0     N16627  12.322  10.749   4.561 -0.1416 -0.0420 -0.1164
  846MOL0     C16628  12.266  10.870   4.528 -0.4843 -0.0785  0.1529
  846MOL0     C16629  12.363  10.921   4.447  0.1410  0.1477 -0.6546
  846MOL0     C16630  12.357  11.043   4.364 -0.1970 -0.0962  0.7795
  846MOL0     C16631  12.295  11.166   4.453 -0.2208  0.5775  0.4190
  846MOL0     C16632  12.271  11.284   4.368 -0.3135  0.0632  0.2881
  846MOL0     C16633  12.398  11.355   4.319 -0.1951  0.3527 -0.4497
  846MOL0     O16634  12.438  11.299   4.199  0.2517  0.6492  0.2010
  846MOL0     C16635  12.563  11.321   4.139  0.0737  0.1432 -0.5170
  846MOL0     C16636  12.599  11.228   4.035  0.6862  0.1627 -0.8759
  846MOL0     C16637  12.712  11.251   3.956  0.1463 -0.0982  0.2575
  846MOL0     C16638  12.724  11.183   3.816 -0.9282 -0.7779 -0.0058
  846MOL0     C16639  12.800  11.356   3.987  0.8307 -0.3075 -0.6153
  846MOL0     C16640  12.935  11.381   3.917  0.5191  0.3414  0.4203
  846MOL0     O16641  12.995  11.276   3.858  1.0172 -0.4043  0.9330
  846MOL0     C16642  13.103  11.284   3.785  0.1939 -0.7970 -0.5176
  846MOL0     C16643  13.105  11.369   3.678 -0.9219  0.2364  0.1124
  846MOL0     C16644  13.213  11.378   3.585 -0.0605 -0.0343 -0.1128
  846MOL0     C16645  13.327  11.293   3.607  0.7968  0.0516  0.2170
  846MOL0     O16646  13.436  11.310   3.525  0.3462  0.8822  0.6411
  846MOL0     C16647  13.427  11.253   3.389 -0.1242  0.3700 -0.6608
  846MOL0     C16648  13.553  11.287   3.312 -0.0406 -0.1023 -0.1396
  846MOL0     C16649  13.594  11.437   3.331  0.6347 -0.0764  0.2996
  846MOL0     C16650  13.724  11.460   3.249  0.0951 -1.0251  0.0318
  846MOL0     C16651  13.746  11.614   3.238 -0.5553 -0.2468 -0.1773
  846MOL0     C16652  13.878  11.646   3.167  0.5872  0.0493  0.2493
  846MOL0     C16653  13.863  11.641   3.019  0.1560 -0.1928  0.1267
  846MOL0     C16654  13.993  11.677   2.936  0.2976  0.2285 -0.5484
  846MOL0    Cl16655  14.122  11.550   2.942  0.1743 -0.1357 -0.1658
  846MOL0     C16656  13.327  11.211   3.718  0.3244 -0.2052  0.4993
  846MOL0     C16657  13.215  11.201   3.810  0.1306 -0.7896 -0.4079
  846MOL0     O16658  12.972  11.498   3.928 -0.1674  0.6574 -0.3694
  846MOL0     C16659  12.766  11.438   4.098  0.8122 -0.3123 -0.7663
  846MOL0     C16660  12.651  11.421   4.170 -0.2568  0.2396  0.5390
  846MOL0     N16661  12.470  10.832   4.436  0.0886 -1.4353  0.6392
  846MOL0     N16662  12.445  10.723   4.504 -0.2197 -0.4213  0.1421
  846MOL0     C16663  11.192  10.492   4.869 -0.3388 -1.1853  0.2087
  846MOL0     C16664  11.056  10.464   4.886 -0.0110 -0.0081 -0.0319
  846MOL0     C16665  10.646  10.280   4.914 -0.6382 -0.8625  0.0420
  846MOL0     C16666  10.600  10.233   4.783 -0.4000  0.4784 -0.3367
  846MOL0     C16667  10.463  10.210   4.762 -0.1712  0.2089 -0.7363
  846MOL0     C16668  10.375  10.205   4.871 -0.0513  0.4774  0.3860
  846MOL0     O16669  10.243  10.171   4.861 -0.0681 -0.0571  0.3713
  846MOL0     C16670  10.167  10.199   4.737 -0.3275  0.4240 -0.3295
  846MOL0     C16671  10.026  10.193   4.782  0.3278 -0.7232  0.4386
  846MOL0     C16672   9.967  10.061   4.816 -0.0335  0.5731  0.8203
  846MOL0     C16673   9.814  10.066   4.856  0.1647  0.3788 -0.4859
  846MOL0     C16674   9.724  10.097   4.748 -0.1976  0.3182  0.4781
  846MOL0     C16675   9.658  10.122   4.656 -0.1792  0.0107  0.3186
  846MOL0     C16676  10.429  10.235   5.001 -0.3496 -0.1513 -0.3823
  846MOL0     C16677  10.555  10.290   5.019  0.0185  0.1959  0.5221
  846MOL0     C16678  10.588  10.340   5.157 -0.5141  0.0011 -0.4453
  846MOL0     H16679  11.031  10.215   4.664 -2.4533  3.1634 -2.0031
  846MOL0     H16680  11.278  10.243   4.666 -0.9259  0.9848 -0.8855
  846MOL0     H16681  11.473  10.538   4.946 -1.0409  0.9544 -1.3933
  846MOL0     H16682  11.461  10.628   4.800  0.3167 -0.2282 -2.4992
  846MOL0     H16683  11.657  10.396   4.851 -0.0346  1.0996  2.0564
  846MOL0     H16684  11.661  10.500   4.704 -0.8465  0.4039  0.6369
  846MOL0     H16685  11.716  10.692   4.837 -0.1717 -0.6567  0.0598
  846MOL0     H16686  11.712  10.603   4.991  1.6425  2.4832  0.9234
  846MOL0     H16687  11.900  10.457   4.913 -0.5589  1.9352  1.0393
  846MOL0     H16688  11.884  10.533   4.749 -1.3266  0.7448 -0.5141
  846MOL0     H16689  11.959  10.668   5.015 -1.5122  0.7748 -0.6791
  846MOL0     H16690  11.925  10.755   4.876  0.2115 -0.2172  0.5971
  846MOL0     H16691  12.167  10.718   4.900 -0.2078  0.8600 -1.4391
  846MOL0     H16692  12.149  10.542   4.880  1.1217  1.2976  0.2562
  846MOL0     H16693  12.074  10.728   4.654 -1.5713 -0.1757 -0.6391
  846MOL0     H16694  12.111  10.560   4.661  1.3805  1.1136 -2.2055
  846MOL0     H16695  12.323  10.764   4.764 -1.3977  0.5948  0.9333
  846MOL0     H16696  12.353  10.597   4.709 -2.4738 -2.1786 -2.0039
  846MOL0     H16697  12.172  10.913   4.563 -1.4495  1.7739 -4.1419
  846MOL0     H16698  12.287  11.024   4.282  0.3084 -0.4260  0.4161
  846MOL0     H16699  12.449  11.072   4.312 -1.7053  1.5991 -1.0936
  846MOL0     H16700  12.200  11.143   4.504 -0.5523  0.7445 -0.1168
  846MOL0     H16701  12.367  11.195   4.530 -0.0980 -2.6441  1.6799
  846MOL0     H16702  12.215  11.240   4.285 -1.3401  0.6600  0.6517
  846MOL0     H16703  12.211  11.360   4.418 -0.3008  0.6381 -0.5515
  846MOL0     H16704  12.384  11.463   4.307 -0.4289  0.4996  1.0179
  846MOL0     H16705  12.481  11.333   4.387  1.2760  0.9411 -1.9589
  846MOL0     H16706  12.523  11.155   4.009  0.3060  0.7413 -1.4215
  846MOL0     H16707  12.638  11.115   3.811 -1.6764  0.0181  1.4266
  846MOL0     H16708  12.811  11.121   3.792 -1.3405 -1.5384  0.4426
  846MOL0     H16709  12.712  11.262   3.741 -1.9468 -1.6348 -0.7763
  846MOL0     H16710  13.008  11.416   3.670 -1.5336 -0.8999  0.6921
  846MOL0     H16711  13.205  11.430   3.490 -0.5738  0.4058  0.1678
  846MOL0     H16712  13.418  11.144   3.394 -0.8776  0.1757 -3.8430
  846MOL0     H16713  13.347  11.293   3.326 -0.2521 -0.7584 -1.2366
  846MOL0     H16714  13.637  11.232   3.355  0.8531  2.6449  1.8773
  846MOL0     H16715  13.527  11.270   3.207 -4.0286 -1.3658  0.8645
  846MOL0     H16716  13.612  11.468   3.434  3.4779  1.1012 -0.4375
  846MOL0     H16717  13.513  11.502   3.297  0.3351 -0.2697  0.6509
  846MOL0     H16718  13.705  11.424   3.148 -0.1701 -1.3953  0.2107
  846MOL0     H16719  13.812  11.416   3.297  1.3765  1.8450  0.5092
  846MOL0     H16720  13.656  11.663   3.200  0.7333  2.3162 -0.1772
  846MOL0     H16721  13.747  11.652   3.341 -3.1478 -0.5167  0.0009
  846MOL0     H16722  13.955  11.571   3.188 -0.6802 -2.1492 -2.3922
  846MOL0     H16723  13.908  11.745   3.201 -0.6030  1.2662 -2.0225
  846MOL0     H16724  13.788  11.712   2.984  0.8471 -0.4313 -1.9812
  846MOL0     H16725  13.834  11.539   2.993  3.2212 -1.2724  0.4647
  846MOL0     H16726  14.033  11.760   2.994  2.1134 -0.5716 -0.5768
  846MOL0     H16727  13.972  11.708   2.833 -1.0348 -2.4828 -1.1812
  846MOL0     H16728  13.415  11.152   3.741 -0.4317 -1.4991  0.1790
  846MOL0     H16729  13.218  11.136   3.896 -0.5044 -0.4846 -0.1479
  846MOL0     H16730  12.820  11.526   4.133 -2.3292  1.1016  0.9923
  846MOL0     H16731  12.621  11.493   4.246  0.4307 -0.6793  1.7056
  846MOL0     H16732  11.230  10.583   4.915 -0.1557 -1.4243  0.5314
  846MOL0     H16733  10.998  10.519   4.959 -1.6433 -0.0653 -1.2318
  846MOL0     H16734  10.662  10.238   4.694  0.0836  3.5608  0.0356
  846MOL0     H16735  10.426  10.183   4.664 -1.4398 -0.2388 -0.1451
  846MOL0     H16736  10.188  10.304   4.713 -0.1276  1.3366  3.2289
  846MOL0     H16737  10.189  10.135   4.652  1.9520 -1.8435  1.7938
  846MOL0     H16738   9.966  10.241   4.705  0.5257 -1.8220 -0.4242
  846MOL0     H16739  10.014  10.254   4.873 -1.4706 -0.0977 -0.1737
  846MOL0     H16740   9.989   9.981   4.745  3.5374  0.6934  1.6027
  846MOL0     H16741  10.024  10.027   4.904  1.0157  1.2074  0.4058
  846MOL0     H16742   9.795  10.134   4.940 -2.6143 -0.5269 -0.2926
  846MOL0     H16743   9.791   9.965   4.890  0.4129  0.3949 -0.2662
  846MOL0     H16744   9.613  10.166   4.569  0.6586 -1.3024 -0.8183
  846MOL0     H16745  10.354  10.221   5.078 -1.7414  1.5833 -1.3446
  846MOL0     H16746  10.639  10.265   5.218 -0.5311  1.1708  1.0744
  846MOL0     H16747  10.649  10.430   5.143  0.8193 -0.7065  0.6099
  846MOL0     H16748  10.502  10.373   5.216 -0.8441 -0.9160 -0.3918
  847MOL0     O16749   2.721   9.779   3.284  0.2413  0.5123  0.3727
  847MOL0     C16750   2.731   9.667   3.327 -0.3121  0.1669  0.2370
  847MOL0     O16751   2.840   9.612   3.385 -0.2163 -0.1865 -0.4987
  847MOL0     C16752   2.953   9.671   3.351  0.5620  0.4829  0.3132
  847MOL0     C16753   3.000   9.780   3.430 -0.4872 -0.7043  0.2052
  847MOL0     C16754   3.121   9.840   3.392 -0.1598 -0.4058  0.9354
  847MOL0     C16755   3.195   9.791   3.290  0.1123 -0.7022  0.3645
  847MOL0     O16756   3.312   9.851   3.241  0.8054 -0.0714  0.2916
  847MOL0     C16757   3.365   9.966   3.307 -0.6653 -0.3646  0.1474
  847MOL0     C16758   3.491  10.016   3.233 -0.2249 -0.6029  0.4520
  847MOL0     C16759   3.597   9.913   3.199 -0.4818 -0.1643  0.0950
  847MOL0     C16760   3.726   9.975   3.145  0.7537 -0.3282 -0.4005
  847MOL0     C16761   3.822   9.875   3.089  0.4140  0.3642 -0.1655
  847MOL0     C16762   3.939   9.937   3.015 -0.3438 -0.9828  0.4039
  847MOL0     C16763   4.046   9.837   2.980  0.6718  0.1581 -0.0550
  847MOL0     C16764   4.173   9.911   2.928 -0.2092 -0.2620 -0.8348
  847MOL0     N16765   4.148   9.989   2.807  0.4797 -0.6672  0.3035
  847MOL0     C16766   4.165  10.124   2.806 -0.4611 -0.7568  0.2746
  847MOL0     C16767   4.120  10.162   2.679 -0.5315  0.4358  0.0781
  847MOL0     C16768   4.121  10.307   2.619 -0.7733 -0.1221  0.4291
  847MOL0     C16769   4.264  10.355   2.595  0.7026 -0.3552 -0.6780
  847MOL0     C16770   4.328  10.426   2.722 -0.0886  0.3681  0.0469
  847MOL0     C16771   4.439  10.518   2.694  0.0041  0.2962 -0.2898
  847MOL0     O16772   4.543  10.457   2.616 -0.0533 -0.5806 -0.0504
  847MOL0     C16773   4.644  10.381   2.665  0.2537  0.4494 -0.9298
  847MOL0     C16774   4.725  10.336   2.567 -0.0249 -0.4553  0.6515
  847MOL0     C16775   4.851  10.279   2.597  0.1424 -0.0226  0.3627
  847MOL0     C16776   4.937  10.252   2.476  0.2616 -0.4722 -0.5883
  847MOL0     C16777   4.891  10.277   2.733  0.1452  1.2131  0.3653
  847MOL0     C16778   5.029  10.231   2.766 -0.0678 -0.4423 -0.0291
  847MOL0     O16779   5.125  10.269   2.682  0.9905  0.6242 -0.1895
  847MOL0     C16780   5.243  10.203   2.666  0.5527 -0.3259 -0.2788
  847MOL0     C16781   5.331  10.273   2.593 -0.3176 -0.0897  0.1477
  847MOL0     C16782   5.461  10.236   2.585  0.4687 -0.3075 -0.3211
  847MOL0     C16783   5.507  10.117   2.645  0.4765  0.4662 -0.2362
  847MOL0     O16784   5.642  10.089   2.631  0.1657 -1.1071 -0.2799
  847MOL0     C16785   5.704   9.989   2.722 -0.3136 -0.0592  0.6218
  847MOL0     C16786   5.856   9.992   2.699 -0.0338  0.1595 -0.6206
  847MOL0     C16787   5.881   9.945   2.554 -0.3653  0.2798  0.2420
  847MOL0     C16788   6.026   9.955   2.513 -0.4908 -0.4486 -0.3652
  847MOL0     C16789   6.034   9.979   2.363  0.6859 -0.4833  0.0431
  847MOL0     C16790   6.167   9.935   2.312 -0.5604 -0.2437 -0.6302
  847MOL0     C16791   6.194   9.957   2.165 -0.2257  1.0940  0.1286
  847MOL0     C16792   6.317   9.875   2.131  0.4598 -1.0071  1.0768
  847MOL0    Cl16793   6.282   9.701   2.121 -0.1979 -0.1953  0.0493
  847MOL0     C16794   5.416  10.042   2.721  0.7808  0.4348 -0.4955
  847MOL0     C16795   5.278  10.078   2.725 -0.9365  0.4675 -0.7314
  847MOL0     O16796   5.046  10.164   2.867  0.4418  0.4137 -0.8804
  847MOL0     C16797   4.793  10.316   2.831 -0.4353  0.5338  0.7993
  847MOL0     C16798   4.674  10.366   2.796 -0.3722  0.1043 -0.5913
  847MOL0     N16799   4.091  10.052   2.613  0.3098  0.7410 -0.4963
  847MOL0     N16800   4.108   9.946   2.685 -0.3590  0.2239  0.3425
  847MOL0     C16801   3.139   9.697   3.203 -0.5434  0.0166 -0.2817
  847MOL0     C16802   3.023   9.631   3.237  0.6713 -0.1194  0.0988
  847MOL0     C16803   2.615   9.581   3.319  0.6242  0.2421 -0.6519
  847MOL0     C16804   2.505   9.620   3.235  0.0966  0.0367  0.1006
  847MOL0     C16805   2.392   9.546   3.229  0.1114 -0.7604  0.5148
  847MOL0     C16806   2.380   9.431   3.302 -0.7387 -0.4500  0.3581
  847MOL0     O16807   2.251   9.368   3.289 -0.5265 -0.2090  0.1324
  847MOL0     C16808   2.232   9.244   3.359  0.0985 -0.1573 -0.1822
  847MOL0     C16809   2.085   9.189   3.345 -0.0426  0.6413 -0.3046
  847MOL0     C16810   2.016   9.131   3.465  0.0437 -0.1328  0.8654
  847MOL0     C16811   2.102   9.022   3.524 -0.7770 -0.6170  0.6970
  847MOL0     C16812   2.041   8.970   3.639 -0.5710  0.0447  0.4749
  847MOL0     C16813   1.986   8.942   3.747  0.0478  0.1952  0.6079
  847MOL0     C16814   2.480   9.401   3.399  0.1057 -0.1739  0.6954
  847MOL0     C16815   2.592   9.475   3.414  0.2134 -0.5133  0.3812
  847MOL0     C16816   2.688   9.424   3.531  0.8612  0.5993  0.2387
  847MOL0     H16817   2.951   9.816   3.520  0.0433 -0.0084  0.2251
  847MOL0     H16818   3.148   9.924   3.455  2.6291 -0.7380  0.2989
  847MOL0     H16819   3.374   9.939   3.412 -1.1862  0.3508  0.3848
  847MOL0     H16820   3.301  10.054   3.299  0.5577  0.5769  0.3630
  847MOL0     H16821   3.451  10.050   3.137  0.1472 -2.1506 -0.2875
  847MOL0     H16822   3.531  10.100   3.290  0.3358  0.0816 -0.9100
  847MOL0     H16823   3.610   9.857   3.292 -0.6503  0.2141  0.3472
  847MOL0     H16824   3.548   9.865   3.114 -0.5201  0.7362 -0.4096
  847MOL0     H16825   3.700  10.061   3.083 -1.1190 -0.2371  0.4534
  847MOL0     H16826   3.776  10.017   3.232  1.4861 -3.1124  0.6483
  847MOL0     H16827   3.774   9.802   3.024  0.2499 -0.7566  1.1662
  847MOL0     H16828   3.860   9.823   3.178 -0.5482 -0.4981 -0.2491
  847MOL0     H16829   3.898   9.991   2.929 -0.6439 -0.8765  0.6114
  847MOL0     H16830   3.988  10.008   3.082 -1.4865 -0.9325  1.2196
  847MOL0     H16831   4.005   9.778   2.898  1.0191 -1.5349  0.9386
  847MOL0     H16832   4.071   9.768   3.061 -1.4034 -0.3323  0.2334
  847MOL0     H16833   4.215   9.968   3.011  1.9362 -2.7622 -0.0449
  847MOL0     H16834   4.242   9.833   2.892  1.4411  1.6469 -2.0221
  847MOL0     H16835   4.183  10.193   2.888 -2.2209  2.1665 -1.6494
  847MOL0     H16836   4.066  10.378   2.681 -3.1794 -0.6249 -1.0154
  847MOL0     H16837   4.062  10.295   2.529  0.2837  0.5111 -0.3720
  847MOL0     H16838   4.323  10.267   2.567  0.0572 -1.5836  1.5709
  847MOL0     H16839   4.258  10.430   2.516  0.5156  0.1249 -0.2131
  847MOL0     H16840   4.249  10.477   2.779  0.0936 -1.2009  1.8121
  847MOL0     H16841   4.369  10.353   2.793 -0.0228 -0.9577 -1.2998
  847MOL0     H16842   4.406  10.609   2.645 -1.4454  0.2493  0.5293
  847MOL0     H16843   4.478  10.559   2.788  0.9722 -0.6728 -0.2463
  847MOL0     H16844   4.702  10.349   2.462  0.3934  0.5590  0.6727
  847MOL0     H16845   4.998  10.342   2.466 -2.0796  1.5848  1.8534
  847MOL0     H16846   4.864  10.231   2.397 -2.3622  2.9573  0.6748
  847MOL0     H16847   4.998  10.162   2.488 -0.2857 -0.9659 -1.4368
  847MOL0     H16848   5.296  10.365   2.546  1.1309 -1.0401 -2.9971
  847MOL0     H16849   5.531  10.296   2.528  0.2030 -0.7932 -1.1844
  847MOL0     H16850   5.673  10.012   2.825 -0.9623  2.1923 -0.0169
  847MOL0     H16851   5.668   9.888   2.700 -1.1708 -0.1885  2.4211
  847MOL0     H16852   5.890  10.091   2.729 -3.3015  1.1534  0.2111
  847MOL0     H16853   5.905   9.926   2.771  0.1275  1.6315  0.6606
  847MOL0     H16854   5.811  10.004   2.494 -2.7395  0.1792  2.7217
  847MOL0     H16855   5.844   9.844   2.534 -0.2650 -0.0106  1.4519
  847MOL0     H16856   6.078   9.866   2.550 -1.7452 -1.0958 -0.0965
  847MOL0     H16857   6.067  10.048   2.554  0.0419  1.4970 -4.7845
  847MOL0     H16858   5.959   9.912   2.319 -0.5826 -0.2061  1.6395
  847MOL0     H16859   6.005  10.084   2.352  0.1827 -0.4751  1.1952
  847MOL0     H16860   6.168   9.829   2.336  3.2102 -0.0055  0.8800
  847MOL0     H16861   6.246   9.975   2.376 -0.5242 -1.0363 -0.1751
  847MOL0     H16862   6.223  10.060   2.142  1.8414  0.3528 -0.8178
  847MOL0     H16863   6.109   9.919   2.109 -1.1025 -0.6565  2.4521
  847MOL0     H16864   6.391   9.901   2.208 -0.1758  3.0307  0.5307
  847MOL0     H16865   6.363   9.906   2.037  0.5881 -0.5645  1.2797
  847MOL0     H16866   5.445   9.943   2.753  1.5387  1.2941  1.6574
  847MOL0     H16867   5.204  10.013   2.770 -0.4318  0.6855  0.4526
  847MOL0     H16868   4.818  10.312   2.936  1.1821 -1.2481  0.4190
  847MOL0     H16869   4.609  10.395   2.878 -0.4535 -2.4924  0.3743
  847MOL0     H16870   3.192   9.674   3.111  0.1934  3.1128 -0.7342
  847MOL0     H16871   2.976   9.560   3.170  0.7408  0.2992 -0.4007
  847MOL0     H16872   2.526   9.712   3.181  2.7931 -0.4166  0.2422
  847MOL0     H16873   2.313   9.566   3.158  0.5101 -1.7641 -0.2445
  847MOL0     H16874   2.296   9.158   3.338 -0.5356 -1.4597  2.7445
  847MOL0     H16875   2.243   9.269   3.465  0.3024 -2.3712  0.3560
  847MOL0     H16876   2.089   9.124   3.258 -0.6865  1.6431 -1.0990
  847MOL0     H16877   2.020   9.266   3.304 -0.2983  0.1535 -0.8311
  847MOL0     H16878   1.972   9.205   3.532 -3.1383  0.1963 -1.3591
  847MOL0     H16879   1.923   9.087   3.430 -0.5797 -0.2457  2.5810
  847MOL0     H16880   2.208   9.040   3.544 -0.6325 -0.6487 -0.0306
  847MOL0     H16881   2.103   8.942   3.450 -0.9327  0.6808 -0.7628
  847MOL0     H16882   1.931   8.912   3.834 -1.4302 -0.2894 -0.4497
  847MOL0     H16883   2.461   9.311   3.457  1.6311 -0.7076  0.4286
  847MOL0     H16884   2.760   9.367   3.472 -0.5503 -0.4461 -0.5541
  847MOL0     H16885   2.739   9.488   3.603  0.3940 -2.6160  3.7889
  847MOL0     H16886   2.641   9.349   3.596  0.0558  1.7070  0.9675
  848MOL0     O16887   3.951  10.500   9.717  0.1301  0.5758  0.0554
  848MOL0     C16888   3.908  10.389   9.684  1.0065 -0.3607  0.7929
  848MOL0     O16889   3.986  10.290   9.637  0.3990  0.2788 -0.3619
  848MOL0     C16890   4.109  10.316   9.581 -0.5924 -0.1965 -0.5536
  848MOL0     C16891   4.195  10.212   9.601 -0.2055  0.4889  0.7384
  848MOL0     C16892   4.326  10.222   9.545  0.2886 -0.6070  0.0461
  848MOL0     C16893   4.366  10.335   9.475 -0.3607  0.0026  0.1469
  848MOL0     O16894   4.488  10.347   9.411  0.2700 -0.5166  0.3926
  848MOL0     C16895   4.594  10.256   9.438 -0.1842 -0.3153  1.3696
  848MOL0     C16896   4.710  10.289   9.343 -0.3589  0.2900  0.6624
  848MOL0     C16897   4.667  10.267   9.193  0.1774  0.4945  0.2377
  848MOL0     C16898   4.797  10.251   9.112 -0.6277 -0.5788 -0.8200
  848MOL0     C16899   4.787  10.278   8.962  1.3371 -0.8137  0.0229
  848MOL0     C16900   4.909  10.229   8.878 -0.1632 -0.4583  0.2443
  848MOL0     C16901   5.012  10.342   8.846 -0.7015  1.0524  0.3379
  848MOL0     C16902   5.052  10.433   8.961  0.3700 -0.9301  1.0352
  848MOL0     N16903   5.149  10.542   8.918  0.2766  0.2354 -0.2218
  848MOL0     C16904   5.164  10.605   8.795 -0.0180  0.1511 -0.1504
  848MOL0     C16905   5.250  10.714   8.816  0.6838 -0.0050  0.6875
  848MOL0     C16906   5.301  10.811   8.716 -0.4972  0.3540  0.2055
  848MOL0     C16907   5.462  10.824   8.706 -0.1726 -0.0443  0.2259
  848MOL0     C16908   5.507  10.927   8.616  0.6039 -0.1030 -0.1100
  848MOL0     C16909   5.663  10.941   8.606  0.0646 -0.3215  0.1518
  848MOL0     O16910   5.719  10.958   8.731 -0.0115 -0.1219 -0.1322
  848MOL0     C16911   5.842  11.009   8.750 -0.0769 -1.0618 -0.4978
  848MOL0     C16912   5.924  11.075   8.657  0.3455 -0.2901  0.4528
  848MOL0     C16913   6.057  11.096   8.683 -0.0801 -1.3554 -0.0476
  848MOL0     C16914   6.136  11.152   8.571  0.1936  0.4296 -0.0073
  848MOL0     C16915   6.110  11.065   8.812 -0.5588  0.2831  0.5462
  848MOL0     C16916   6.260  11.051   8.834 -0.5904 -0.3743 -0.2091
  848MOL0     O16917   6.353  11.063   8.736 -0.2395  0.4543  0.2792
  848MOL0     C16918   6.491  11.070   8.762  1.1994  0.4595 -0.5811
  848MOL0     C16919   6.554  11.121   8.658 -0.5747 -0.4736  0.8053
  848MOL0     C16920   6.693  11.138   8.658 -0.0499  0.9977  0.8933
  848MOL0     C16921   6.770  11.077   8.759  0.3330  0.8190 -0.7441
  848MOL0     O16922   6.906  11.060   8.761  0.1724  0.3146 -0.5751
  848MOL0     C16923   6.974  11.127   8.655 -0.5305 -0.0282  0.3114
  848MOL0     C16924   7.121  11.096   8.680 -1.0114 -0.2220  0.5391
  848MOL0     C16925   7.221  11.167   8.585 -0.1773 -0.2056  0.7888
  848MOL0     C16926   7.350  11.094   8.581 -0.2619 -1.0616  0.4751
  848MOL0     C16927   7.465  11.155   8.482 -0.0226 -0.0487  0.1840
  848MOL0     C16928   7.576  11.055   8.479  0.6092  0.3114 -0.3645
  848MOL0     C16929   7.652  11.040   8.620  0.1239 -1.1946 -0.8189
  848MOL0     C16930   7.798  11.012   8.601  1.1598  0.2036  0.4509
  848MOL0    Cl16931   7.899  11.062   8.735 -0.0606  0.4783  0.1897
  848MOL0     C16932   6.706  11.017   8.866 -0.0406 -0.1093 -0.2022
  848MOL0     C16933   6.563  11.009   8.868 -0.7625 -0.1815  0.5329
  848MOL0     O16934   6.286  11.031   8.957  0.3731  0.0686  0.1905
  848MOL0     C16935   6.025  11.013   8.905  0.5298 -0.7365 -0.7189
  848MOL0     C16936   5.891  10.984   8.877  0.3314  0.0508  1.1480
  848MOL0     N16937   5.288  10.714   8.948  0.8839 -0.5624 -0.2500
  848MOL0     N16938   5.224  10.615   9.005 -0.0170  0.4282 -0.1140
  848MOL0     C16939   4.276  10.436   9.473 -0.2603  0.1442  0.7234
  848MOL0     C16940   4.143  10.431   9.509 -0.8490  0.1549 -0.1927
  848MOL0     C16941   3.760  10.364   9.692  0.4372 -0.1628  0.0822
  848MOL0     C16942   3.718  10.249   9.620  0.8791 -0.1906 -0.1939
  848MOL0     C16943   3.585  10.213   9.614  0.4227  0.5833  0.2289
  848MOL0     C16944   3.492  10.299   9.676  0.5548  0.5274  0.1224
  848MOL0     O16945   3.357  10.277   9.680  0.7285 -0.1761  0.4792
  848MOL0     C16946   3.308  10.143   9.675 -0.7717  0.1966  0.5831
  848MOL0     C16947   3.154  10.143   9.655  0.8908 -0.8961  0.6493
  848MOL0     C16948   3.080  10.246   9.748 -0.3921  0.2776 -0.4236
  848MOL0     C16949   2.941  10.205   9.791 -0.2320  0.0632  0.8679
  848MOL0     C16950   2.875  10.312   9.875 -0.0536  0.7090 -0.3151
  848MOL0     C16951   2.821  10.392   9.947 -0.4784  1.0377 -0.5444
  848MOL0     C16952   3.531  10.415   9.739  0.2077 -0.2295 -0.6018
  848MOL0     C16953   3.666  10.453   9.750  0.1085 -0.3428 -0.1259
  848MOL0     C16954   3.697  10.584   9.817  0.6100  0.6104 -0.0688
  848MOL0     H16955   4.167  10.124   9.657  1.1626  0.0960  0.8517
  848MOL0     H16956   4.397  10.141   9.557  1.9298  0.9300  1.1970
  848MOL0     H16957   4.551  10.156   9.423 -0.1079 -0.0014 -1.3701
  848MOL0     H16958   4.629  10.285   9.538  1.6372  3.8320 -0.2667
  848MOL0     H16959   4.722  10.398   9.342 -1.3213  0.4680  2.9486
  848MOL0     H16960   4.806  10.239   9.361  0.1153  0.3481 -1.4740
  848MOL0     H16961   4.611  10.174   9.179  0.2618 -0.0304  2.9633
  848MOL0     H16962   4.613  10.353   9.152  1.7862  1.1301 -0.6509
  848MOL0     H16963   4.869  10.321   9.155 -1.6504  0.5143 -0.8138
  848MOL0     H16964   4.842  10.154   9.134 -1.5953 -0.8776 -0.1033
  848MOL0     H16965   4.756  10.381   8.941  0.3221 -0.3336  3.3058
  848MOL0     H16966   4.701  10.220   8.930  0.7298 -0.3614  0.7977
  848MOL0     H16967   4.963  10.141   8.913 -0.5923 -0.1809  1.7085
  848MOL0     H16968   4.859  10.201   8.785 -1.2151 -0.5219  0.8145
  848MOL0     H16969   4.969  10.404   8.767  0.4076  1.2245 -0.1500
  848MOL0     H16970   5.104  10.304   8.802 -0.4466  2.1548 -0.1145
  848MOL0     H16971   4.961  10.488   8.985  0.2807  1.5406 -3.7359
  848MOL0     H16972   5.085  10.372   9.046  1.1325  1.2874  2.3940
  848MOL0     H16973   5.133  10.574   8.695  0.7791  2.1023 -1.0541
  848MOL0     H16974   5.253  10.905   8.743 -0.0404 -0.2694  3.5607
  848MOL0     H16975   5.265  10.782   8.616 -1.7566  2.3100  0.0538
  848MOL0     H16976   5.493  10.852   8.807 -2.4579  0.6942  0.7900
  848MOL0     H16977   5.500  10.723   8.687 -0.5848  0.2704 -2.8673
  848MOL0     H16978   5.463  10.908   8.517  0.9385 -0.6895 -0.1532
  848MOL0     H16979   5.468  11.022   8.651  1.3572 -0.6296  2.3482
  848MOL0     H16980   5.697  10.848   8.560 -1.6513  0.5451 -3.2406
  848MOL0     H16981   5.676  11.021   8.532 -0.7191 -2.2194 -2.1544
  848MOL0     H16982   5.900  11.116   8.559  0.0429 -0.4318  0.4690
  848MOL0     H16983   6.157  11.076   8.495 -0.5619 -1.6345  1.7392
  848MOL0     H16984   6.224  11.206   8.608 -1.1719  1.2847  2.1808
  848MOL0     H16985   6.076  11.226   8.517  1.3167  0.6125 -1.0583
  848MOL0     H16986   6.501  11.158   8.571 -1.3294 -1.4182  0.8411
  848MOL0     H16987   6.744  11.199   8.584  0.0812 -1.3183 -1.0409
  848MOL0     H16988   6.953  11.093   8.554 -0.0021  1.3016 -0.2654
  848MOL0     H16989   6.963  11.235   8.670  1.1637 -0.0026  1.6845
  848MOL0     H16990   7.141  11.137   8.779 -0.0775  3.3266 -0.9709
  848MOL0     H16991   7.143  10.989   8.672  2.1196  0.2703  1.1434
  848MOL0     H16992   7.234  11.272   8.612  0.1794 -0.2712  0.8741
  848MOL0     H16993   7.181  11.163   8.483  4.1518  0.6843 -1.1915
  848MOL0     H16994   7.330  10.995   8.539  1.2009 -1.0396 -0.3474
  848MOL0     H16995   7.384  11.077   8.683  1.1315  2.0927  0.6600
  848MOL0     H16996   7.431  11.173   8.380  2.0532  3.5613 -0.0626
  848MOL0     H16997   7.490  11.254   8.521 -1.4864 -0.2178  1.6679
  848MOL0     H16998   7.651  11.083   8.404  3.7466 -1.1593  1.9982
  848MOL0     H16999   7.533  10.958   8.451  0.1799 -0.1850  1.8183
  848MOL0     H17000   7.599  10.963   8.677 -2.3872  2.1411  1.7631
  848MOL0     H17001   7.643  11.132   8.678 -0.2429 -1.8097  0.1330
  848MOL0     H17002   7.830  11.074   8.517 -0.6601  0.1288 -0.3315
  848MOL0     H17003   7.814  10.908   8.572 -0.3885 -0.2241  1.0171
  848MOL0     H17004   6.763  10.970   8.947  0.6317  1.6693  0.4062
  848MOL0     H17005   6.521  10.957   8.953  1.7397 -0.2240  1.8513
  848MOL0     H17006   6.067  10.977   8.998  0.4747  0.7813 -0.0648
  848MOL0     H17007   5.833  10.940   8.958  0.2169 -0.3067  0.8767
  848MOL0     H17008   4.308  10.515   9.405  0.1370 -0.6171  0.0006
  848MOL0     H17009   4.077  10.514   9.486 -2.4198 -0.5624  1.5375
  848MOL0     H17010   3.779  10.180   9.563 -1.0046  1.4183 -4.6277
  848MOL0     H17011   3.556  10.121   9.563  1.6573 -0.4269  1.2709
  848MOL0     H17012   3.349  10.075   9.599 -0.5851  2.0523 -1.0661
  848MOL0     H17013   3.331  10.102   9.774  1.0041  1.7425  0.8781
  848MOL0     H17014   3.115  10.042   9.667 -0.9885 -0.4325 -1.0603
  848MOL0     H17015   3.125  10.177   9.555  1.6908  1.2853  1.1089
  848MOL0     H17016   3.137  10.269   9.838 -0.4898  0.6236 -0.4487
  848MOL0     H17017   3.070  10.339   9.692 -2.0941 -0.8035 -2.0240
  848MOL0     H17018   2.944  10.114   9.853  0.1393 -0.2052  0.4674
  848MOL0     H17019   2.885  10.185   9.699 -1.5742  1.5301  1.3438
  848MOL0     H17020   2.765  10.447  10.020 -2.5504  1.9564 -2.6809
  848MOL0     H17021   3.456  10.471   9.794 -0.8484 -0.7423 -1.4979
  848MOL0     H17022   3.785  10.573   9.880  0.5887  0.5212 -0.0539
  848MOL0     H17023   3.707  10.664   9.743  0.0002  0.5389 -0.2333
  848MOL0     H17024   3.620  10.619   9.887 -0.8776 -4.2038  1.1033
  849MOL0     O17025   9.416   3.141   0.006 -0.1609  0.3685  0.3397
  849MOL0     C17026   9.401   3.156   0.129  0.1495  0.2074  0.7039
  849MOL0     O17027   9.300   3.097   0.206 -0.2450 -0.3057 -0.4448
  849MOL0     C17028   9.205   3.021   0.146  0.0744 -0.0456 -0.1723
  849MOL0     C17029   9.138   3.053   0.028 -0.3629 -0.1595  0.4830
  849MOL0     C17030   9.031   2.982  -0.012  0.8839 -0.0650  0.4224
  849MOL0     C17031   8.987   2.873   0.063 -0.6289 -0.0047  0.6575
  849MOL0     O17032   8.869   2.808   0.034  0.1124 -1.1006  0.6104
  849MOL0     C17033   8.779   2.858  -0.073 -0.2946  0.4907  0.0962
  849MOL0     C17034   8.658   2.777  -0.089 -0.0184  0.6064 -0.1598
  849MOL0     C17035   8.566   2.799   0.030  0.1472  0.0226  0.0262
  849MOL0     C17036   8.424   2.750   0.003 -0.1642  0.3699 -0.4095
  849MOL0     C17037   8.329   2.860  -0.008  0.7750  0.0455  0.9241
  849MOL0     C17038   8.201   2.817  -0.081 -0.7087 -0.2203 -0.2476
  849MOL0     C17039   8.095   2.783   0.019  0.6618  0.9161  0.1866
  849MOL0     C17040   7.963   2.763  -0.057 -0.1506  0.5159  0.5193
  849MOL0     N17041   7.964   2.646  -0.143 -0.4564  0.2401 -0.2868
  849MOL0     C17042   7.946   2.515  -0.101 -0.4915 -0.9383 -0.9459
  849MOL0     C17043   7.952   2.445  -0.218 -0.4133  1.1213 -0.0580
  849MOL0     C17044   7.964   2.302  -0.235 -0.5672  0.0111 -0.1423
  849MOL0     C17045   8.108   2.255  -0.282  0.1570 -0.4734  0.0276
  849MOL0     C17046   8.211   2.248  -0.170 -0.2918  0.5851 -0.0751
  849MOL0     C17047   8.352   2.222  -0.234  0.0554  0.4741  0.0789
  849MOL0     O17048   8.396   2.347  -0.287 -0.0383  0.2425 -0.0926
  849MOL0     C17049   8.522   2.362  -0.309 -0.5365  0.0428  0.4924
  849MOL0     C17050   8.625   2.260  -0.322  0.3669  0.1240 -0.0641
  849MOL0     C17051   8.761   2.280  -0.351 -0.6043  0.8172  0.6040
  849MOL0     C17052   8.860   2.169  -0.364 -0.0820  0.1166  0.0477
  849MOL0     C17053   8.796   2.418  -0.378 -0.3821 -0.2805  0.1744
  849MOL0     C17054   8.933   2.460  -0.407  0.9119  0.1351  0.1297
  849MOL0     O17055   8.974   2.577  -0.349  0.8678  0.2770 -0.1254
  849MOL0     C17056   9.103   2.610  -0.323  0.3344  0.4581  0.5460
  849MOL0     C17057   9.204   2.513  -0.321 -0.4608  0.4564  1.1064
  849MOL0     C17058   9.345   2.546  -0.305  0.0577  0.0079 -0.2470
  849MOL0     C17059   9.390   2.675  -0.277  0.0077 -0.6540  0.1228
  849MOL0     O17060   9.523   2.693  -0.267  0.1111 -0.0094 -0.3286
  849MOL0     C17061   9.582   2.819  -0.245  0.1513  0.2968  0.4282
  849MOL0     C17062   9.731   2.817  -0.292 -0.1748  0.5652 -0.6096
  849MOL0     C17063   9.814   2.944  -0.255  0.2036  0.2100  0.2928
  849MOL0     C17064   9.946   2.945  -0.335  0.2550  0.0833  0.1333
  849MOL0     C17065  10.066   2.884  -0.258 -1.0317  0.4102 -0.0998
  849MOL0     C17066  10.202   2.916  -0.312 -0.3970 -0.1097  0.3769
  849MOL0     C17067  10.246   3.052  -0.284  0.4847 -0.4092 -0.4963
  849MOL0     C17068  10.388   3.079  -0.323  0.4497 -0.2324  0.3241
  849MOL0    Cl17069  10.505   3.014  -0.206 -0.2960  0.2076  0.2809
  849MOL0     C17070   9.290   2.774  -0.274 -0.0374  0.0407 -0.4698
  849MOL0     C17071   9.147   2.743  -0.292  0.7031 -0.7063 -0.4730
  849MOL0     O17072   8.988   2.403  -0.493 -0.2194 -0.1206 -0.2120
  849MOL0     C17073   8.698   2.518  -0.359 -0.1475 -0.9481 -0.0469
  849MOL0     C17074   8.567   2.490  -0.325  1.0773 -0.3415  0.0124
  849MOL0     N17075   7.970   2.538  -0.321  0.9040  0.3270 -0.2128
  849MOL0     N17076   7.958   2.655  -0.275 -0.0816  0.3805 -0.1072
  849MOL0     C17077   9.049   2.838   0.185  0.4597  0.0664  0.3981
  849MOL0     C17078   9.169   2.915   0.217  0.8270  0.9696  0.4351
  849MOL0     C17079   9.494   3.253   0.209  0.0714 -0.0057 -0.2516
  849MOL0     C17080   9.633   3.263   0.172  0.2647  0.6815  0.2372
  849MOL0     C17081   9.717   3.356   0.235  0.3634  0.2150 -1.2241
  849MOL0     C17082   9.668   3.434   0.343  0.0376  0.7450  0.0023
  849MOL0     O17083   9.752   3.527   0.406  1.0406  0.5108  0.6509
  849MOL0     C17084   9.689   3.638   0.463 -0.1336  0.0397 -0.3499
  849MOL0     C17085   9.649   3.744   0.366 -0.2557 -0.8438  0.9793
  849MOL0     C17086   9.744   3.763   0.240  0.9392 -0.2888 -0.6471
  849MOL0     C17087   9.868   3.851   0.265  0.9508 -1.2748 -0.0235
  849MOL0     C17088   9.954   3.803   0.381 -0.0259 -0.5018  0.8471
  849MOL0     C17089  10.022   3.749   0.469  0.0848 -0.5574 -1.2840
  849MOL0     C17090   9.536   3.419   0.378 -0.3295  0.1380  0.6038
  849MOL0     C17091   9.447   3.336   0.307 -0.0397 -0.2132 -0.0878
  849MOL0     C17092   9.301   3.343   0.338  0.3694 -1.0006 -0.0315
  849MOL0     H17093   9.159   3.145  -0.026 -0.8556  1.3535  2.7281
  849MOL0     H17094   8.997   3.017  -0.109 -0.2021  4.1439  2.0976
  849MOL0     H17095   8.834   2.858  -0.168 -1.2743  1.0272 -0.4895
  849MOL0     H17096   8.756   2.963  -0.056 -0.2873  0.7642 -1.4121
  849MOL0     H17097   8.599   2.806  -0.176 -0.5138 -0.5930 -0.2383
  849MOL0     H17098   8.692   2.673  -0.098 -1.9301  0.0910 -2.5341
  849MOL0     H17099   8.607   2.741   0.114 -1.8626  1.9382  2.5107
  849MOL0     H17100   8.570   2.904   0.057  2.1593  0.9368 -3.3123
  849MOL0     H17101   8.434   2.698  -0.093  2.2448  2.1155 -1.2063
  849MOL0     H17102   8.385   2.692   0.087  0.0992  2.5950  1.3441
  849MOL0     H17103   8.375   2.930  -0.079  0.2955 -1.2863 -0.7429
  849MOL0     H17104   8.299   2.897   0.090  0.5947 -1.3417  1.4027
  849MOL0     H17105   8.166   2.895  -0.149  1.1807  1.5886  0.7335
  849MOL0     H17106   8.223   2.726  -0.137 -0.7544 -1.0047  0.9750
  849MOL0     H17107   8.064   2.855   0.096  1.4987  1.7958 -0.2710
  849MOL0     H17108   8.111   2.690   0.074 -0.9164  0.8032  0.4877
  849MOL0     H17109   7.876   2.763   0.009 -1.5131  1.1534 -1.1920
  849MOL0     H17110   7.949   2.846  -0.127  1.5976 -0.5368 -1.1749
  849MOL0     H17111   7.962   2.461  -0.008  2.0517  0.1039 -0.7013
  849MOL0     H17112   7.900   2.281  -0.322  1.7329 -0.0493 -1.9311
  849MOL0     H17113   7.930   2.240  -0.152 -1.0951 -0.1050 -0.4425
  849MOL0     H17114   8.096   2.154  -0.323  0.2045 -1.0761  1.4234
  849MOL0     H17115   8.138   2.301  -0.376 -0.7705  1.9588  0.8476
  849MOL0     H17116   8.219   2.340  -0.112 -2.9271 -0.9390  3.0477
  849MOL0     H17117   8.185   2.169  -0.098 -0.3612  0.9966  0.3582
  849MOL0     H17118   8.420   2.195  -0.152  2.4563 -0.5818 -2.1381
  849MOL0     H17119   8.358   2.140  -0.305 -1.2661 -0.2238  0.7339
  849MOL0     H17120   8.579   2.162  -0.317 -0.4362  0.4500 -0.8579
  849MOL0     H17121   8.948   2.193  -0.303 -0.2598 -1.3777  0.9443
  849MOL0     H17122   8.894   2.163  -0.467 -1.7500 -0.5197 -0.4930
  849MOL0     H17123   8.809   2.080  -0.327 -1.9787  1.3510  0.5803
  849MOL0     H17124   9.176   2.408  -0.322 -1.4786  0.5643  4.5912
  849MOL0     H17125   9.419   2.467  -0.316  1.1095  1.0735 -1.1535
  849MOL0     H17126   9.527   2.896  -0.301 -0.2144 -1.4693 -1.8255
  849MOL0     H17127   9.576   2.819  -0.136 -0.8507  1.6686  0.3885
  849MOL0     H17128   9.788   2.732  -0.252 -2.0503 -1.1576 -1.3888
  849MOL0     H17129   9.736   2.790  -0.398 -0.4670 -3.4249  0.2016
  849MOL0     H17130   9.833   2.948  -0.148 -1.8942  1.3529  0.6801
  849MOL0     H17131   9.756   3.033  -0.282  0.0517 -0.4994 -2.0044
  849MOL0     H17132   9.960   3.052  -0.351  1.2516 -0.3322 -2.0870
  849MOL0     H17133   9.933   2.898  -0.433  0.5546  0.7201 -0.2166
  849MOL0     H17134  10.068   2.915  -0.153  1.0750  0.6797 -0.1879
  849MOL0     H17135  10.056   2.775  -0.266 -1.7949  0.3390  1.4679
  849MOL0     H17136  10.198   2.912  -0.421  0.6718  0.2858  0.3097
  849MOL0     H17137  10.274   2.844  -0.273 -1.4442 -1.7558 -0.5784
  849MOL0     H17138  10.239   3.069  -0.176 -2.3387  1.2462 -0.8342
  849MOL0     H17139  10.177   3.121  -0.333 -0.1128 -0.7647 -0.1726
  849MOL0     H17140  10.410   3.185  -0.338 -1.2869  0.0743 -0.2355
  849MOL0     H17141  10.419   3.034  -0.418  0.3492 -1.3951  0.8200
  849MOL0     H17142   9.315   2.879  -0.258  2.1360 -0.5631  0.4192
  849MOL0     H17143   9.078   2.826  -0.287  2.3494  0.6752  0.1224
  849MOL0     H17144   8.730   2.622  -0.362  1.1126 -1.3029  0.2622
  849MOL0     H17145   8.491   2.566  -0.315 -0.3465 -1.8627  1.3731
  849MOL0     H17146   9.017   2.759   0.253  0.3133  0.2173  0.5061
  849MOL0     H17147   9.207   2.902   0.318 -3.2401 -1.4032  1.9349
  849MOL0     H17148   9.672   3.201   0.092 -1.3769  0.8364 -0.7167
  849MOL0     H17149   9.824   3.358   0.218  1.1528 -0.4916  2.6254
  849MOL0     H17150   9.612   3.624   0.540  1.1269 -1.1750  0.7171
  849MOL0     H17151   9.775   3.677   0.517  1.1111  0.7236 -2.6941
  849MOL0     H17152   9.653   3.828   0.435  0.7423 -1.7871  2.1155
  849MOL0     H17153   9.550   3.714   0.331  0.0813  0.2094 -1.0346
  849MOL0     H17154   9.793   3.666   0.223  0.9098 -0.6114  0.9956
  849MOL0     H17155   9.687   3.788   0.150  1.7227 -0.5360 -1.2336
  849MOL0     H17156   9.843   3.957   0.271  1.8099 -1.1251  1.6134
  849MOL0     H17157   9.940   3.847   0.183  3.4943  1.6141  1.8139
  849MOL0     H17158  10.087   3.709   0.545 -0.7192  2.8338  1.4855
  849MOL0     H17159   9.499   3.476   0.462  0.5704 -1.1265  1.9053
  849MOL0     H17160   9.272   3.444   0.369 -1.6730 -2.0228  1.6351
  849MOL0     H17161   9.239   3.323   0.251 -3.6245 -2.1522  2.8001
  849MOL0     H17162   9.288   3.280   0.427  1.6198  3.9488  4.1499
  850MOL0     O17163  10.258   3.201   2.754 -1.3658 -0.1045  0.8974
  850MOL0     C17164  10.222   3.094   2.797 -0.3616 -0.5883 -0.4953
  850MOL0     O17165  10.248   2.970   2.740 -0.0875 -0.1273  0.6306
  850MOL0     C17166  10.339   2.951   2.637  0.7795  0.0954  0.4766
  850MOL0     C17167  10.401   2.830   2.637  1.1747 -0.2502 -0.4234
  850MOL0     C17168  10.502   2.806   2.541 -0.7560 -0.6360  0.0191
  850MOL0     C17169  10.533   2.898   2.439  0.2768 -0.4574  0.4295
  850MOL0     O17170  10.633   2.880   2.349 -0.1405 -0.4782  0.2620
  850MOL0     C17171  10.629   2.768   2.270  0.1536 -0.2247  0.3235
  850MOL0     C17172  10.778   2.752   2.209 -0.4176  0.5164  0.8465
  850MOL0     C17173  10.811   2.877   2.115  0.0545  0.1008  0.2476
  850MOL0     C17174  10.925   2.842   2.025 -1.2745 -0.4605 -0.3343
  850MOL0     C17175  11.057   2.843   2.112  0.0872  0.0620 -0.1929
  850MOL0     C17176  11.184   2.800   2.029  0.0388 -0.4355  0.1220
  850MOL0     C17177  11.313   2.799   2.112  0.3672  0.5317 -0.7998
  850MOL0     C17178  11.356   2.929   2.189  0.9643 -0.2784  0.5790
  850MOL0     N17179  11.505   2.934   2.191 -0.0237  0.8155 -0.2784
  850MOL0     C17180  11.577   2.956   2.077  0.1267 -0.8303 -0.3752
  850MOL0     C17181  11.706   2.953   2.118 -0.6280 -0.3993 -0.3742
  850MOL0     C17182  11.825   2.971   2.022  0.1536 -0.0882 -0.2787
  850MOL0     C17183  11.950   2.998   2.109 -0.1866 -0.2889 -0.8817
  850MOL0     C17184  12.063   2.963   2.016 -0.4892  0.2872  0.3728
  850MOL0     C17185  12.192   2.991   2.088  0.1020 -0.1678  0.4230
  850MOL0     O17186  12.193   2.935   2.217  0.1103  1.1807 -0.2924
  850MOL0     C17187  12.316   2.903   2.272 -0.1447  0.6217 -0.5920
  850MOL0     C17188  12.324   2.806   2.372 -0.3522  0.4267  0.2205
  850MOL0     C17189  12.444   2.773   2.445  0.2128  0.2611 -0.1718
  850MOL0     C17190  12.436   2.661   2.553  0.3892  0.0556  0.4904
  850MOL0     C17191  12.555   2.855   2.413 -0.0199 -0.6528 -0.2051
  850MOL0     C17192  12.677   2.852   2.497  1.4900  0.3270 -1.0121
  850MOL0     O17193  12.760   2.959   2.480 -0.4953  0.1818 -0.1501
  850MOL0     C17194  12.901   2.954   2.507  0.7336  0.5872  0.8985
  850MOL0     C17195  12.962   3.076   2.491  0.6549  0.0929 -0.6984
  850MOL0     C17196  13.096   3.086   2.480 -0.0397 -0.5721  0.6960
  850MOL0     C17197  13.176   2.972   2.496 -0.9035  0.3604 -0.0603
  850MOL0     O17198  13.314   2.979   2.491 -0.2491  0.1223 -0.3415
  850MOL0     C17199  13.373   3.114   2.504 -0.4319  0.2368 -0.1517
  850MOL0     C17200  13.522   3.083   2.519  0.9038  0.5107  0.2361
  850MOL0     C17201  13.608   3.217   2.538  1.1089 -0.0812  1.6197
  850MOL0     C17202  13.590   3.282   2.678 -0.2031  0.3732  0.1963
  850MOL0     C17203  13.696   3.380   2.702 -0.4289  0.1608  1.4059
  850MOL0     C17204  13.640   3.489   2.795 -0.3113 -0.3692  0.1852
  850MOL0     C17205  13.754   3.592   2.816  0.2755  0.7206 -0.8531
  850MOL0     C17206  13.744   3.671   2.955  0.1938  0.3006 -0.6535
  850MOL0    Cl17207  13.587   3.748   2.965 -0.5810  0.3027  0.1313
  850MOL0     C17208  13.113   2.849   2.512 -0.0094  0.5508 -0.0917
  850MOL0     C17209  12.978   2.837   2.522 -0.8087  0.0375  0.0957
  850MOL0     O17210  12.696   2.756   2.572  0.0555  0.3653  0.0744
  850MOL0     C17211  12.550   2.957   2.311  0.3143 -0.1211  0.3653
  850MOL0     C17212  12.431   2.977   2.251  1.0651  0.7871  0.2677
  850MOL0     N17213  11.711   2.902   2.247 -1.1989  0.1953 -0.0141
  850MOL0     N17214  11.589   2.904   2.294  0.1535  0.6526  0.1033
  850MOL0     C17215  10.458   3.014   2.425 -0.0478 -0.3848 -0.3342
  850MOL0     C17216  10.363   3.042   2.526  0.4923 -0.4278 -0.1476
  850MOL0     C17217  10.150   3.099   2.925  0.3046  0.0664  0.3742
  850MOL0     C17218  10.129   2.982   2.996 -0.2134  0.3172  0.1771
  850MOL0     C17219  10.058   2.978   3.118  0.7296 -0.4543 -0.1820
  850MOL0     C17220   9.994   3.093   3.167  0.6739 -0.2254  0.1003
  850MOL0     O17221   9.923   3.088   3.284  0.1410 -0.4065 -0.0080
  850MOL0     C17222   9.840   2.969   3.326  0.0657 -0.4520 -0.0935
  850MOL0     C17223   9.757   3.011   3.447 -0.2852  1.1289 -0.3382
  850MOL0     C17224   9.656   2.903   3.507 -0.0380 -0.0691  0.4359
  850MOL0     C17225   9.529   2.869   3.421 -0.4601 -0.6927 -0.3502
  850MOL0     C17226   9.433   2.785   3.485 -0.3008 -0.0215 -0.1409
  850MOL0     C17227   9.336   2.728   3.535 -0.1899 -0.9938  0.1507
  850MOL0     C17228  10.018   3.213   3.108  0.1541  0.2434  0.8894
  850MOL0     C17229  10.088   3.219   2.982  0.5689 -0.8830  1.0876
  850MOL0     C17230  10.087   3.354   2.902  0.1239  0.3583  0.2062
  850MOL0     H17231  10.367   2.749   2.700 -0.5655  0.8167  0.0816
  850MOL0     H17232  10.554   2.711   2.550  1.1803  0.4210  0.4076
  850MOL0     H17233  10.561   2.777   2.184  1.1814 -2.5040 -0.8410
  850MOL0     H17234  10.599   2.689   2.340  0.6714  0.0633  0.8708
  850MOL0     H17235  10.846   2.751   2.295  0.1884 -0.6679  0.3809
  850MOL0     H17236  10.790   2.657   2.156  0.3114 -0.2487  2.2931
  850MOL0     H17237  10.721   2.903   2.059 -0.2125 -1.0422  0.1232
  850MOL0     H17238  10.844   2.957   2.181  2.7068  0.5532 -1.4676
  850MOL0     H17239  10.907   2.742   1.983  2.3520 -1.8396  1.0078
  850MOL0     H17240  10.943   2.916   1.946  1.5949 -0.9938 -0.3030
  850MOL0     H17241  11.051   2.776   2.199 -1.4859  2.5223  1.7243
  850MOL0     H17242  11.077   2.941   2.155 -0.2898  1.1654 -2.4121
  850MOL0     H17243  11.164   2.702   1.984 -0.8872  1.4421 -4.1245
  850MOL0     H17244  11.204   2.874   1.951 -1.1208  0.2158  0.4220
  850MOL0     H17245  11.390   2.768   2.040 -0.3325  1.5115 -2.0198
  850MOL0     H17246  11.307   2.724   2.191 -0.9935  1.8691  0.4215
  850MOL0     H17247  11.318   3.007   2.123 -1.1935 -2.8156 -1.4404
  850MOL0     H17248  11.318   2.931   2.292 -2.1599 -0.5990 -0.4657
  850MOL0     H17249  11.542   2.987   1.979 -2.1579  1.3074  1.0007
  850MOL0     H17250  11.810   3.058   1.958  0.8060  2.7650  3.1162
  850MOL0     H17251  11.842   2.879   1.966 -0.1944 -0.7113  0.6129
  850MOL0     H17252  11.963   3.100   2.147  0.1744 -1.4512  2.3994
  850MOL0     H17253  11.961   2.929   2.194 -0.8376  0.5167 -0.1260
  850MOL0     H17254  12.064   2.859   1.983  0.8807  0.8376 -1.4582
  850MOL0     H17255  12.057   3.015   1.920 -0.8680 -1.7927 -0.7947
  850MOL0     H17256  12.268   2.937   2.032 -0.6091  0.7153 -1.4646
  850MOL0     H17257  12.217   3.098   2.079  0.7465 -0.5083 -3.0939
  850MOL0     H17258  12.237   2.742   2.390 -0.0261 -0.5557 -1.4207
  850MOL0     H17259  12.341   2.607   2.551 -1.5674  3.0852 -3.1857
  850MOL0     H17260  12.456   2.697   2.654 -2.2068  0.9549  0.7371
  850MOL0     H17261  12.507   2.584   2.523 -1.1222 -1.3802  0.4920
  850MOL0     H17262  12.903   3.165   2.474  0.5095  0.0899 -0.2283
  850MOL0     H17263  13.132   3.187   2.464 -0.8787 -0.5060 -1.1008
  850MOL0     H17264  13.352   3.179   2.418  0.0298  1.9434  0.9818
  850MOL0     H17265  13.336   3.162   2.595  1.4244 -0.2149  0.9060
  850MOL0     H17266  13.547   3.029   2.611 -1.5581 -0.4408  0.4164
  850MOL0     H17267  13.555   3.029   2.430  2.7333  0.8567  0.6500
  850MOL0     H17268  13.581   3.291   2.463  2.3849 -1.5799 -0.4206
  850MOL0     H17269  13.715   3.208   2.519  0.7610 -0.4726 -0.3527
  850MOL0     H17270  13.592   3.212   2.762 -1.0744 -1.7083 -1.4227
  850MOL0     H17271  13.493   3.332   2.683 -0.3293  0.0166  1.7407
  850MOL0     H17272  13.789   3.333   2.736 -0.6765 -0.1587  1.6466
  850MOL0     H17273  13.711   3.443   2.615  0.9831 -1.2698  0.5530
  850MOL0     H17274  13.606   3.444   2.889  1.4357 -0.8893  0.6113
  850MOL0     H17275  13.560   3.546   2.747 -0.2543  1.4213  2.1081
  850MOL0     H17276  13.752   3.664   2.733  2.0061  0.8416 -0.8167
  850MOL0     H17277  13.852   3.546   2.800  0.3174  0.1589  0.8867
  850MOL0     H17278  13.812   3.754   2.972 -1.5255  1.3687  1.5280
  850MOL0     H17279  13.765   3.600   3.036  1.8363  0.9061 -0.5085
  850MOL0     H17280  13.168   2.756   2.513 -0.9186 -0.1054 -2.7669
  850MOL0     H17281  12.947   2.733   2.522  2.8031 -1.2022 -1.8543
  850MOL0     H17282  12.633   3.025   2.296 -0.5322  0.7810 -0.4496
  850MOL0     H17283  12.427   3.054   2.175  0.7292  0.1574 -0.3705
  850MOL0     H17284  10.460   3.073   2.335  0.3379  1.3343  0.7531
  850MOL0     H17285  10.293   3.125   2.520 -2.7777 -3.0380 -0.7257
  850MOL0     H17286  10.167   2.887   2.958 -2.0012 -0.6225  0.6302
  850MOL0     H17287  10.038   2.881   3.162 -0.8370 -0.2690 -0.4449
  850MOL0     H17288   9.775   2.943   3.242  1.1167 -1.4402 -0.6288
  850MOL0     H17289   9.902   2.880   3.342  1.3075 -0.6757 -4.6881
  850MOL0     H17290   9.701   3.099   3.413 -0.5592  1.0914  0.0148
  850MOL0     H17291   9.821   3.044   3.530 -1.7660 -0.0912  1.3721
  850MOL0     H17292   9.708   2.809   3.525 -0.6158 -0.3108  0.8822
  850MOL0     H17293   9.618   2.950   3.598 -1.0350  2.5469 -1.2069
  850MOL0     H17294   9.568   2.825   3.329  0.3273 -2.5491  0.8111
  850MOL0     H17295   9.486   2.967   3.400  4.7440  1.8000 -0.9717
  850MOL0     H17296   9.249   2.681   3.577  1.7632 -2.3706  2.9932
  850MOL0     H17297   9.978   3.308   3.141 -0.4687  0.0067  0.8207
  850MOL0     H17298  10.186   3.399   2.891  0.5485 -0.5160  0.3267
  850MOL0     H17299  10.019   3.358   2.816 -0.1486 -0.8590  0.3479
  850MOL0     H17300  10.046   3.441   2.954 -0.2301  1.4803 -1.8655
  851MOL0     O17301   0.498   8.834  10.954  0.3972 -0.7382  0.6016
  851MOL0     C17302   0.433   8.824  10.850  0.5985 -0.5424 -0.5324
  851MOL0     O17303   0.482   8.837  10.726 -0.3989 -0.6102 -0.5358
  851MOL0     C17304   0.614   8.867  10.707 -0.6664  0.6678  0.3105
  851MOL0     C17305   0.651   8.956  10.616  1.1366 -1.0166  1.0412
  851MOL0     C17306   0.785   8.973  10.576  0.6393  0.1529 -0.4096
  851MOL0     C17307   0.881   8.888  10.623  0.5474  0.4912 -1.7120
  851MOL0     O17308   1.009   8.906  10.577  0.5513  0.4992  0.1105
  851MOL0     C17309   1.126   8.863  10.651  0.2996  0.5366 -0.3848
  851MOL0     C17310   1.256   8.907  10.580 -0.0020  0.5155 -0.4535
  851MOL0     C17311   1.265   9.061  10.564 -0.0908 -0.7424  0.4088
  851MOL0     C17312   1.401   9.109  10.516 -0.3090  0.2880  0.1928
  851MOL0     C17313   1.418   9.256  10.547 -0.4298 -0.4750  0.6064
  851MOL0     C17314   1.554   9.304  10.509  0.4139 -0.4678 -0.6622
  851MOL0     C17315   1.554   9.462  10.488 -0.5612  0.3342  0.2032
  851MOL0     C17316   1.704   9.504  10.450 -0.1329  1.1424  0.3226
  851MOL0     N17317   1.790   9.475  10.568  0.0370  0.6151 -0.0344
  851MOL0     C17318   1.883   9.370  10.578 -0.5323 -0.4302 -0.6924
  851MOL0     C17319   1.975   9.416  10.657 -0.8386 -0.8772 -1.0395
  851MOL0     C17320   2.098   9.330  10.690  0.2863 -0.0276 -0.9849
  851MOL0     C17321   2.237   9.403  10.690  0.4244  1.5688 -0.6626
  851MOL0     C17322   2.346   9.304  10.643 -0.1887 -1.1921  0.2859
  851MOL0     C17323   2.487   9.365  10.671  1.1215  0.2182 -0.4327
  851MOL0     O17324   2.524   9.448  10.566 -0.1830  0.2392  0.3068
  851MOL0     C17325   2.665   9.458  10.558 -0.9760  0.3504  0.6296
  851MOL0     C17326   2.712   9.507  10.441  0.3008 -0.5467  0.9370
  851MOL0     C17327   2.849   9.535  10.433 -0.6182 -0.5244  0.3925
  851MOL0     C17328   2.887   9.601  10.297 -0.3796  0.1693  1.3868
  851MOL0     C17329   2.945   9.504  10.533  0.5703  0.0877 -0.0753
  851MOL0     C17330   3.096   9.533  10.537  0.1722  0.5011 -0.2322
  851MOL0     O17331   3.158   9.505  10.656 -0.1174  0.2481 -0.4415
  851MOL0     C17332   3.286   9.464  10.657 -1.0458 -0.5776 -0.3251
  851MOL0     C17333   3.395   9.551  10.635 -0.6440 -1.0298  0.0221
  851MOL0     C17334   3.527   9.512  10.645  0.1980 -0.6026 -1.1557
  851MOL0     C17335   3.565   9.378  10.677 -0.5425  0.7399 -1.7035
  851MOL0     O17336   3.696   9.337  10.670  0.6947 -0.4763 -0.0417
  851MOL0     C17337   3.729   9.201  10.689  0.3638  0.5502 -0.0261
  851MOL0     C17338   3.871   9.177  10.629  0.2239 -0.0587 -0.3974
  851MOL0     C17339   3.932   9.048  10.684 -0.2773  0.4186 -0.0136
  851MOL0     C17340   4.068   9.029  10.626 -0.0457  0.0970  0.1085
  851MOL0     C17341   4.136   8.898  10.650  0.1393  0.7229 -0.5602
  851MOL0     C17342   4.278   8.888  10.586  0.6342  0.0596 -0.0336
  851MOL0     C17343   4.315   8.740  10.565 -0.2991 -0.8367 -0.5300
  851MOL0     C17344   4.311   8.699  10.413 -1.1547 -0.2332 -0.6851
  851MOL0    Cl17345   4.144   8.710  10.353  0.1196 -0.7065 -0.0434
  851MOL0     C17346   3.457   9.285  10.692 -0.0719 -0.4105 -0.3727
  851MOL0     C17347   3.322   9.331  10.692  1.1003 -0.8134 -0.3366
  851MOL0     O17348   3.149   9.560  10.430 -0.1348 -0.2293 -0.0130
  851MOL0     C17349   2.889   9.445  10.646 -0.2923  0.0297  0.5410
  851MOL0     C17350   2.756   9.426  10.658  0.0717 -0.8593  0.1716
  851MOL0     N17351   1.939   9.538  10.703  0.0259 -0.1508 -0.1136
  851MOL0     N17352   1.824   9.578  10.648 -0.0820 -0.2331  0.1648
  851MOL0     C17353   0.845   8.790  10.724 -0.0943 -0.9951  0.2492
  851MOL0     C17354   0.710   8.784  10.763  0.3871  0.2485 -0.8459
  851MOL0     C17355   0.286   8.806  10.862  0.7970 -0.7925 -0.3016
  851MOL0     C17356   0.235   8.716  10.967 -0.4131 -0.3099 -0.2840
  851MOL0     C17357   0.098   8.682  10.975  0.1726  0.1928  0.0294
  851MOL0     C17358   0.012   8.729  10.876 -0.5543  0.4133 -0.8271
  851MOL0     O17359  -0.113   8.686  10.856  0.0242  0.6181 -0.0781
  851MOL0     C17360  -0.212   8.717  10.960  0.3566  0.8541  0.8023
  851MOL0     C17361  -0.354   8.683  10.894 -0.2863 -0.9519  0.6489
  851MOL0     C17362  -0.477   8.739  10.974 -0.2387  1.1615  0.1888
  851MOL0     C17363  -0.501   8.651  11.100 -0.0099 -0.2834  0.8255
  851MOL0     C17364  -0.546   8.723  11.225  1.1099  0.0199  0.1483
  851MOL0     C17365  -0.593   8.783  11.320  0.5232  0.5839  0.1118
  851MOL0     C17366   0.058   8.818  10.777 -0.1100  0.4583  0.2796
  851MOL0     C17367   0.191   8.859  10.772  0.4348  0.4558  0.0524
  851MOL0     C17368   0.221   8.980  10.678  0.1621  0.7049 -0.6164
  851MOL0     H17369   0.573   9.012  10.565 -0.5728 -1.5453  2.9043
  851MOL0     H17370   0.819   9.058  10.517 -0.0511  0.2164 -0.7308
  851MOL0     H17371   1.128   8.754  10.661  1.2209  0.5021 -0.8048
  851MOL0     H17372   1.120   8.915  10.747  1.7729  0.1872 -0.0815
  851MOL0     H17373   1.345   8.880  10.637 -0.1766  1.8524  0.5056
  851MOL0     H17374   1.253   8.842  10.492  0.1262 -0.5241  0.2883
  851MOL0     H17375   1.192   9.095  10.490 -0.5669 -2.0495  0.2437
  851MOL0     H17376   1.246   9.105  10.662  0.7117 -0.4379  0.4346
  851MOL0     H17377   1.484   9.057  10.563  0.2386 -0.4865 -1.5461
  851MOL0     H17378   1.401   9.086  10.409  0.4545 -0.4283  0.3333
  851MOL0     H17379   1.409   9.280  10.653  3.4224  1.2319  0.7146
  851MOL0     H17380   1.345   9.311  10.487 -0.4554 -0.2548  0.8435
  851MOL0     H17381   1.622   9.270  10.588 -3.2979 -1.4753  2.4144
  851MOL0     H17382   1.579   9.261  10.411 -0.4418  1.3550 -1.7362
  851MOL0     H17383   1.515   9.512  10.577 -1.3801  0.6268 -0.3137
  851MOL0     H17384   1.478   9.485  10.413 -0.9388  0.3989  0.6075
  851MOL0     H17385   1.729   9.440  10.364 -2.2700  2.5453 -1.4683
  851MOL0     H17386   1.703   9.608  10.416 -3.2649  1.1540  0.1149
  851MOL0     H17387   1.868   9.271  10.538 -0.7948 -0.2578 -1.0359
  851MOL0     H17388   2.104   9.252  10.614 -1.4909 -1.7267  0.5076
  851MOL0     H17389   2.081   9.276  10.784 -1.8582 -2.3166 -2.5689
  851MOL0     H17390   2.231   9.496  10.632 -0.9599  2.0010  0.1306
  851MOL0     H17391   2.263   9.431  10.792  0.2092 -0.4471 -0.0026
  851MOL0     H17392   2.347   9.220  10.713  1.9268 -1.6378 -0.2217
  851MOL0     H17393   2.336   9.269  10.540  2.0483 -3.8766  0.8690
  851MOL0     H17394   2.491   9.413  10.769 -0.2138  0.8452 -0.6599
  851MOL0     H17395   2.556   9.280  10.673 -1.0624 -1.6811 -0.7263
  851MOL0     H17396   2.636   9.533  10.368 -2.2809 -3.4943  2.3313
  851MOL0     H17397   2.947   9.690  10.318 -1.6403  0.9026  1.9915
  851MOL0     H17398   2.800   9.634  10.241 -0.1771 -2.4719 -0.6768
  851MOL0     H17399   2.954   9.536  10.241 -0.3828  0.0616  1.5048
  851MOL0     H17400   3.360   9.649  10.604  3.9699  0.2879 -1.9916
  851MOL0     H17401   3.609   9.579  10.622  0.9959 -1.2766 -0.3468
  851MOL0     H17402   3.733   9.188  10.797  0.8787  0.9610  0.0046
  851MOL0     H17403   3.655   9.139  10.638  0.2268  0.3210  0.4514
  851MOL0     H17404   3.856   9.173  10.520 -1.5619 -0.9511 -0.1578
  851MOL0     H17405   3.939   9.254  10.665  0.9705 -1.1115  0.4905
  851MOL0     H17406   3.876   8.956  10.665 -0.2593  0.1069  1.3456
  851MOL0     H17407   3.937   9.048  10.794  0.5885  1.2629 -0.0401
  851MOL0     H17408   4.128   9.105  10.678  0.0852 -2.0779  3.4880
  851MOL0     H17409   4.070   9.057  10.521 -1.7122 -1.7168 -0.4491
  851MOL0     H17410   4.143   8.877  10.757  0.6769  0.3306 -0.6653
  851MOL0     H17411   4.079   8.818  10.603  0.0629 -1.1979  2.5405
  851MOL0     H17412   4.350   8.940  10.649 -0.8276  1.6816  0.3863
  851MOL0     H17413   4.280   8.927  10.484  2.3885 -3.1641 -1.3974
  851MOL0     H17414   4.256   8.674  10.629 -0.0971  1.0377  1.6962
  851MOL0     H17415   4.419   8.733  10.599 -0.0945  1.0508 -0.6709
  851MOL0     H17416   4.359   8.600  10.410  1.4974  0.8526  1.4782
  851MOL0     H17417   4.376   8.771  10.362  0.8994  0.8632  3.1477
  851MOL0     H17418   3.477   9.182  10.722  0.6955 -0.3366 -0.6239
  851MOL0     H17419   3.237   9.264  10.702  0.7999 -0.4235 -0.2684
  851MOL0     H17420   2.945   9.415  10.734  0.5557 -0.1889 -0.0625
  851MOL0     H17421   2.721   9.393  10.755  0.3292 -1.4183  0.0785
  851MOL0     H17422   0.923   8.727  10.765 -0.9508  0.1243  4.0041
  851MOL0     H17423   0.690   8.702  10.831  1.6947  0.6899  0.1181
  851MOL0     H17424   0.302   8.672  11.041  0.6805  0.5718 -0.7271
  851MOL0     H17425   0.059   8.631  11.062  1.0089 -1.1066 -0.3282
  851MOL0     H17426  -0.200   8.652  11.048  2.3494  0.2333  0.1379
  851MOL0     H17427  -0.192   8.823  10.976  4.5732  0.5191 -0.9268
  851MOL0     H17428  -0.361   8.574  10.885 -0.6622 -0.8898  0.1886
  851MOL0     H17429  -0.366   8.723  10.794  0.0634 -3.3805 -0.4514
  851MOL0     H17430  -0.466   8.840  11.013 -1.3807  1.5039 -0.3151
  851MOL0     H17431  -0.559   8.750  10.902 -0.7949  1.8797  0.9195
  851MOL0     H17432  -0.405   8.605  11.123  0.7233 -0.6318 -2.4787
  851MOL0     H17433  -0.575   8.576  11.071 -1.5354  1.6084 -0.4736
  851MOL0     H17434  -0.627   8.842  11.403  0.0748 -0.2165  0.5100
  851MOL0     H17435   0.001   8.856  10.693  1.5231  0.5555 -0.8153
  851MOL0     H17436   0.322   9.012  10.706 -0.4910  0.8809  1.7357
  851MOL0     H17437   0.203   8.946  10.576  0.4338 -1.3817 -0.0271
  851MOL0     H17438   0.156   9.065  10.701 -2.2585 -1.3291  0.6218
  852MOL0     O17439   6.473   3.152   7.022 -0.4140 -0.0113  0.3391
  852MOL0     C17440   6.456   3.196   6.907  1.1794  0.2940 -0.0481
  852MOL0     O17441   6.332   3.232   6.857  0.1797  0.5936  0.2672
  852MOL0     C17442   6.213   3.244   6.932 -0.3334  0.2007  0.3760
  852MOL0     C17443   6.111   3.318   6.865 -0.1755 -0.1444 -0.0549
  852MOL0     C17444   5.990   3.340   6.931  0.2306 -0.3156  0.2238
  852MOL0     C17445   5.968   3.295   7.059  0.2561  0.1995 -0.5975
  852MOL0     O17446   5.856   3.315   7.136  0.7893  0.4743 -0.0389
  852MOL0     C17447   5.728   3.333   7.065 -1.5337  0.7387 -0.1247
  852MOL0     C17448   5.613   3.324   7.164 -0.5937 -0.0498 -0.2868
  852MOL0     C17449   5.479   3.357   7.099  0.4825 -0.8199 -0.3310
  852MOL0     C17450   5.373   3.347   7.203 -0.2254  1.2177 -0.2137
  852MOL0     C17451   5.231   3.367   7.162 -0.6217  0.5738  0.9213
  852MOL0     C17452   5.139   3.395   7.276  0.0895 -0.0817 -0.7048
  852MOL0     C17453   4.985   3.372   7.239  0.3675  0.3606 -0.1383
  852MOL0     C17454   4.948   3.424   7.096  0.2816 -0.4930  0.2332
  852MOL0     N17455   4.800   3.410   7.084  0.3181 -0.1995 -0.7013
  852MOL0     C17456   4.744   3.286   7.053  0.4160 -0.5333 -0.0166
  852MOL0     C17457   4.613   3.314   7.036  0.5242  0.1707  0.0352
  852MOL0     C17458   4.518   3.205   7.005 -0.0852 -0.3522 -0.0714
  852MOL0     C17459   4.457   3.186   6.871 -0.0135 -0.0633 -0.3697
  852MOL0     C17460   4.306   3.168   6.858  0.0488 -0.1688 -0.5873
  852MOL0     C17461   4.270   3.138   6.713 -0.1553 -0.8397  0.3986
  852MOL0     O17462   4.349   3.225   6.632 -0.0683  0.1896  0.1265
  852MOL0     C17463   4.337   3.214   6.499 -0.6419 -0.0601  0.6473
  852MOL0     C17464   4.233   3.142   6.432 -0.0699  0.3301  0.0094
  852MOL0     C17465   4.227   3.127   6.287 -0.6640 -0.5686 -0.2874
  852MOL0     C17466   4.107   3.066   6.233  0.5572  0.5663  0.4002
  852MOL0     C17467   4.336   3.190   6.208  0.1185 -0.1264  0.0177
  852MOL0     C17468   4.357   3.179   6.065 -1.1949 -1.3611  0.5232
  852MOL0     O17469   4.475   3.237   6.014 -0.3692  0.0747  0.5459
  852MOL0     C17470   4.517   3.202   5.884  0.5768  0.7099 -0.4412
  852MOL0     C17471   4.574   3.069   5.867  0.4758 -0.5303  0.1924
  852MOL0     C17472   4.607   3.030   5.739 -0.6145 -0.4435  0.0695
  852MOL0     C17473   4.597   3.119   5.631  0.5511  0.0339 -0.8195
  852MOL0     O17474   4.647   3.097   5.508 -0.2735 -0.0155  1.0311
  852MOL0     C17475   4.711   2.972   5.456  0.1502 -0.5799 -0.0152
  852MOL0     C17476   4.620   2.872   5.390 -0.0820  0.7309  0.4789
  852MOL0     C17477   4.562   2.931   5.265  0.1411  0.7610  0.4248
  852MOL0     C17478   4.434   2.849   5.226 -0.2112  1.2541  0.9848
  852MOL0     C17479   4.375   2.895   5.096 -0.5043  0.8060  1.1849
  852MOL0     C17480   4.250   2.811   5.071  0.6950 -0.0473  0.6091
  852MOL0     C17481   4.200   2.833   4.930 -0.8658  0.8229 -0.1670
  852MOL0     C17482   4.237   2.716   4.839  0.2265 -1.1538 -0.4107
  852MOL0    Cl17483   4.412   2.713   4.811 -0.4277 -0.5444 -0.3732
  852MOL0     C17484   4.534   3.232   5.647 -0.2811 -0.3166 -0.4141
  852MOL0     C17485   4.503   3.287   5.776  0.4920 -0.1400  0.1701
  852MOL0     O17486   4.273   3.122   5.991 -0.2340  0.1573 -0.1292
  852MOL0     C17487   4.429   3.267   6.279  0.3674 -0.2768  0.0725
  852MOL0     C17488   4.430   3.274   6.419  0.3852 -1.0598 -0.4634
  852MOL0     N17489   4.579   3.448   7.068 -0.0651 -0.0485 -0.9562
  852MOL0     N17490   4.697   3.505   7.091  0.1501  0.3032 -0.3228
  852MOL0     C17491   6.065   3.214   7.117  0.5305  0.8555  0.0521
  852MOL0     C17492   6.187   3.188   7.055  0.1864 -0.3396 -0.3300
  852MOL0     C17493   6.583   3.226   6.835  0.3874  0.4015 -0.1508
  852MOL0     C17494   6.697   3.157   6.876  0.2751  0.7106  0.0402
  852MOL0     C17495   6.819   3.182   6.814 -0.6147 -1.1455  0.5524
  852MOL0     C17496   6.833   3.265   6.701  0.2040  0.1652 -0.1550
  852MOL0     O17497   6.963   3.286   6.649  0.3973  0.4402 -0.1089
  852MOL0     C17498   6.962   3.350   6.522  0.1552  0.3913  0.2273
  852MOL0     C17499   7.104   3.378   6.483 -0.3004 -0.2545  0.4244
  852MOL0     C17500   7.160   3.491   6.564  0.1313 -0.1571 -0.8037
  852MOL0     C17501   7.102   3.629   6.526 -0.9390 -0.2480  0.0472
  852MOL0     C17502   6.992   3.683   6.604 -0.0827  0.3066 -0.2283
  852MOL0     C17503   6.896   3.732   6.667 -0.5417 -0.2580  0.1608
  852MOL0     C17504   6.712   3.324   6.655  0.3657  0.0186 -0.2442
  852MOL0     C17505   6.591   3.307   6.722 -0.1409 -0.5896  0.5666
  852MOL0     C17506   6.471   3.389   6.666  0.3720 -0.0209  0.9500
  852MOL0     H17507   6.130   3.346   6.762  3.2742 -0.4489  0.3586
  852MOL0     H17508   5.906   3.390   6.883 -1.5203 -2.5691  0.7699
  852MOL0     H17509   5.718   3.253   6.990  1.6438 -1.7124  1.7645
  852MOL0     H17510   5.730   3.424   7.004 -2.6339  0.2668 -0.8996
  852MOL0     H17511   5.602   3.225   7.208 -1.1513  0.9510  1.9526
  852MOL0     H17512   5.626   3.403   7.239  3.2437  1.3449 -2.1684
  852MOL0     H17513   5.487   3.456   7.053  2.9953 -1.9943 -2.6667
  852MOL0     H17514   5.461   3.283   7.021 -0.4083  1.7008 -2.6711
  852MOL0     H17515   5.387   3.248   7.247  1.1507  1.8875  0.9605
  852MOL0     H17516   5.397   3.406   7.293  0.6812 -0.0786  0.4209
  852MOL0     H17517   5.189   3.275   7.122  1.4589  0.3330 -0.8643
  852MOL0     H17518   5.214   3.441   7.083 -0.5308  0.6854  1.0055
  852MOL0     H17519   5.159   3.330   7.361 -0.3388  0.8381  0.1206
  852MOL0     H17520   5.154   3.501   7.301  1.4263 -0.0832 -1.4255
  852MOL0     H17521   4.919   3.410   7.317 -0.0604 -3.6060  1.6725
  852MOL0     H17522   4.981   3.263   7.242 -0.2688  0.4028  1.3560
  852MOL0     H17523   4.981   3.528   7.093  1.4040 -0.8162  0.8190
  852MOL0     H17524   4.993   3.367   7.014 -0.0267 -0.1139 -0.2082
  852MOL0     H17525   4.799   3.193   7.048  1.7476  0.2742 -0.8160
  852MOL0     H17526   4.435   3.204   7.076  0.5780 -0.1913  0.7220
  852MOL0     H17527   4.568   3.112   7.035 -1.3919 -1.7566 -1.9291
  852MOL0     H17528   4.492   3.268   6.808  1.9644 -2.0117 -1.9754
  852MOL0     H17529   4.498   3.092   6.833  0.4509  1.0040 -2.6527
  852MOL0     H17530   4.276   3.077   6.911  1.1844 -0.6018 -0.6725
  852MOL0     H17531   4.252   3.258   6.889 -0.1951 -1.0725  1.8351
  852MOL0     H17532   4.297   3.034   6.689 -2.5333 -1.1733 -1.1115
  852MOL0     H17533   4.164   3.149   6.688 -0.4274 -3.2292  0.2536
  852MOL0     H17534   4.150   3.096   6.485 -0.7719  2.2378  0.6343
  852MOL0     H17535   4.021   3.099   6.292 -0.6164  0.1202 -0.9900
  852MOL0     H17536   4.125   2.958   6.237  0.7210  0.2857 -3.6195
  852MOL0     H17537   4.081   3.097   6.131 -3.9100  0.4401  1.3001
  852MOL0     H17538   4.581   2.993   5.944 -0.1442  0.9173  1.7243
  852MOL0     H17539   4.661   2.936   5.725 -1.5794 -0.8909 -0.7629
  852MOL0     H17540   4.785   2.990   5.377  1.6820  0.4327  1.5618
  852MOL0     H17541   4.767   2.920   5.535  0.4011 -1.7930 -0.9532
  852MOL0     H17542   4.685   2.786   5.372 -0.3843 -0.2236  3.3513
  852MOL0     H17543   4.554   2.830   5.466  1.3391  0.6745  1.7272
  852MOL0     H17544   4.638   2.932   5.187 -0.6583 -3.5978 -0.6574
  852MOL0     H17545   4.528   3.034   5.279 -2.8384  0.3991 -2.8194
  852MOL0     H17546   4.362   2.855   5.308 -0.7180 -1.5158  0.8610
  852MOL0     H17547   4.465   2.745   5.208 -1.2839  1.3064 -1.7252
  852MOL0     H17548   4.345   3.000   5.100 -1.4666  0.5809  0.3802
  852MOL0     H17549   4.445   2.883   5.014  1.4248 -0.6259  2.9327
  852MOL0     H17550   4.165   2.841   5.132  0.0914  2.1522 -1.1831
  852MOL0     H17551   4.272   2.706   5.090  0.3333 -0.3507 -0.5375
  852MOL0     H17552   4.253   2.915   4.881  0.0287  0.3231 -0.0550
  852MOL0     H17553   4.092   2.847   4.936 -0.7180  1.6345  1.1697
  852MOL0     H17554   4.193   2.720   4.739  2.2425  3.3410 -1.3556
  852MOL0     H17555   4.208   2.618   4.879 -1.0390 -0.4610  0.4754
  852MOL0     H17556   4.522   3.295   5.559  1.2581 -1.9153 -1.8354
  852MOL0     H17557   4.452   3.381   5.795 -3.3035 -2.0676  0.5109
  852MOL0     H17558   4.507   3.330   6.235 -1.2197  1.2632 -0.6600
  852MOL0     H17559   4.500   3.342   6.466  0.2332 -0.9069 -0.4583
  852MOL0     H17560   6.043   3.168   7.213  0.0791  1.4431  0.2307
  852MOL0     H17561   6.268   3.132   7.102  2.3801  0.9500 -2.3273
  852MOL0     H17562   6.684   3.079   6.951 -2.3790 -0.7023 -1.7261
  852MOL0     H17563   6.904   3.126   6.852  0.4683  1.1715  1.7805
  852MOL0     H17564   6.933   3.275   6.448  1.4611 -0.0306  0.1107
  852MOL0     H17565   6.898   3.437   6.509  0.8305  0.7410 -0.8015
  852MOL0     H17566   7.105   3.409   6.378 -3.0425 -1.1346  0.0416
  852MOL0     H17567   7.169   3.291   6.498  1.3583  0.4279 -2.1489
  852MOL0     H17568   7.152   3.485   6.673 -1.8473  1.5776 -0.7718
  852MOL0     H17569   7.268   3.487   6.549  0.1021 -2.1965 -0.7483
  852MOL0     H17570   7.076   3.635   6.420 -1.8078  0.2371  0.2785
  852MOL0     H17571   7.185   3.700   6.533  1.1353 -1.9703 -3.7303
  852MOL0     H17572   6.808   3.763   6.720  0.2690  2.4084  0.0632
  852MOL0     H17573   6.701   3.398   6.576 -0.9278 -0.4782 -0.5594
  852MOL0     H17574   6.403   3.321   6.614  0.5447  0.1065  0.5528
  852MOL0     H17575   6.409   3.438   6.742 -2.7068 -0.3788 -1.1282
  852MOL0     H17576   6.500   3.461   6.589  1.9152 -0.8506  0.7175
  853MOL0     O17577   4.990   9.011  10.894  0.3638  0.7408  0.0226
  853MOL0     C17578   5.086   9.041  10.825  0.4348 -0.1516  0.3899
  853MOL0     O17579   5.122   9.168  10.781  0.0624 -0.5306 -0.0620
  853MOL0     C17580   5.020   9.264  10.793  0.3690  0.2128  0.6010
  853MOL0     C17581   5.024   9.349  10.900 -0.3439 -0.7604 -0.3463
  853MOL0     C17582   4.923   9.442  10.930  0.4661 -0.5725  0.6034
  853MOL0     C17583   4.822   9.463  10.829 -0.0924 -0.3016 -0.2091
  853MOL0     O17584   4.739   9.573  10.862 -0.1129  0.7200  0.2643
  853MOL0     C17585   4.620   9.587  10.784 -0.3745 -0.1474  0.0601
  853MOL0     C17586   4.568   9.722  10.833  0.4940 -0.5016 -0.5058
  853MOL0     C17587   4.426   9.753  10.775 -0.2864  0.0199  0.7855
  853MOL0     C17588   4.449   9.824  10.638  0.8959 -0.8900  0.0602
  853MOL0     C17589   4.331   9.808  10.541 -0.0570 -0.1966  0.3464
  853MOL0     C17590   4.357   9.882  10.410 -0.1532 -0.3511 -0.5413
  853MOL0     C17591   4.215   9.907  10.333 -0.3823  0.6975 -1.2996
  853MOL0     C17592   4.207  10.029  10.222  0.1402 -0.1516 -0.2355
  853MOL0     N17593   4.247  10.162  10.280 -0.1775  0.3304 -0.7480
  853MOL0     C17594   4.182  10.243  10.372 -0.3389 -0.3972 -0.0850
  853MOL0     C17595   4.276  10.328  10.436 -0.8978  0.5400  0.2928
  853MOL0     C17596   4.249  10.443  10.539 -0.0117  0.0339 -0.5878
  853MOL0     C17597   4.339  10.562  10.513 -0.7313 -0.2028  0.3831
  853MOL0     C17598   4.354  10.634  10.645 -0.2025 -0.0688 -0.1704
  853MOL0     C17599   4.466  10.738  10.637  0.6622 -0.2002 -0.5011
  853MOL0     O17600   4.587  10.658  10.624  0.3747  0.1087  0.3835
  853MOL0     C17601   4.708  10.710  10.597  0.1368 -0.0372  0.3163
  853MOL0     C17602   4.820  10.637  10.627  0.5901 -1.1368  0.4924
  853MOL0     C17603   4.947  10.692  10.604 -0.0161 -0.2361 -0.1512
  853MOL0     C17604   5.053  10.582  10.617  0.1173 -0.2370 -0.2126
  853MOL0     C17605   4.966  10.825  10.567 -0.0373  0.9496  0.6723
  853MOL0     C17606   5.086  10.900  10.532 -0.1275  0.1220  0.3157
  853MOL0     O17607   5.191  10.836  10.470 -0.4261  0.4217 -0.5898
  853MOL0     C17608   5.320  10.885  10.453  0.0778  0.7488 -0.4097
  853MOL0     C17609   5.384  10.973  10.538 -0.3030 -0.0555 -0.2092
  853MOL0     C17610   5.519  11.011  10.517  0.7135  0.7740 -0.5514
  853MOL0     C17611   5.598  10.946  10.428 -0.0124  0.1122  0.4316
  853MOL0     O17612   5.730  10.970  10.421 -0.4841  0.1042  0.3184
  853MOL0     C17613   5.808  10.927  10.307 -0.6476  0.2974 -1.2738
  853MOL0     C17614   5.948  10.995  10.326 -0.0637  0.3273  0.1443
  853MOL0     C17615   6.049  10.946  10.222  0.4768 -0.3745  0.3233
  853MOL0     C17616   6.173  11.035  10.226 -0.3877  0.3946 -1.0873
  853MOL0     C17617   6.272  11.004  10.118 -1.4339  0.2962 -0.3241
  853MOL0     C17618   6.228  11.086   9.991 -0.0443  0.4179 -0.3500
  853MOL0     C17619   6.344  11.086   9.892 -0.0480  0.3244  0.4869
  853MOL0     C17620   6.302  11.136   9.755  0.5841  0.0498  0.3232
  853MOL0    Cl17621   6.259  11.309   9.772 -0.6789 -0.1513 -0.1179
  853MOL0     C17622   5.535  10.844  10.349 -0.2100  0.2489  0.1744
  853MOL0     C17623   5.393  10.818  10.356 -1.1529 -0.7166 -0.3071
  853MOL0     O17624   5.081  11.022  10.555 -0.6340  0.3843  0.0354
  853MOL0     C17625   4.847  10.899  10.560 -0.3352 -0.1701 -0.0355
  853MOL0     C17626   4.721  10.844  10.573 -0.7361 -0.4146 -0.4347
  853MOL0     N17627   4.395  10.287  10.374 -0.2902 -0.4825 -0.4739
  853MOL0     N17628   4.381  10.192  10.296 -0.1755  0.3540  0.2037
  853MOL0     C17629   4.824   9.386  10.714 -0.3620  0.0606  0.2323
  853MOL0     C17630   4.918   9.287  10.699 -0.8455 -0.4807  0.4882
  853MOL0     C17631   5.173   8.944  10.761 -0.0352  0.0562 -0.0500
  853MOL0     C17632   5.307   8.979  10.724  0.6685  0.1336  0.4825
  853MOL0     C17633   5.405   8.885  10.699  0.5649  0.0656 -0.2528
  853MOL0     C17634   5.377   8.751  10.701  1.0926  0.0664  0.0802
  853MOL0     O17635   5.460   8.649  10.656  0.1129  0.3807 -0.4269
  853MOL0     C17636   5.540   8.685  10.547  0.8871  0.2591 -0.3909
  853MOL0     C17637   5.577   8.561  10.467 -0.3104 -0.1288  0.2073
  853MOL0     C17638   5.693   8.500  10.535  0.6073 -0.7809  0.0801
  853MOL0     C17639   5.755   8.387  10.453 -0.0855 -0.0961 -0.1394
  853MOL0     C17640   5.851   8.315  10.532  0.2483  0.8801 -0.2223
  853MOL0     C17641   5.931   8.259  10.606 -0.1987 -0.1620 -1.1188
  853MOL0     C17642   5.252   8.709  10.749  0.6154 -0.0752  0.6628
  853MOL0     C17643   5.145   8.800  10.775 -0.4749 -0.5242  0.4758
  853MOL0     C17644   5.006   8.740  10.810 -0.8464 -0.0487  0.2953
  853MOL0     H17645   5.105   9.339  10.971 -1.1707  0.5086  0.8450
  853MOL0     H17646   4.915   9.502  11.020  1.8703  1.1276 -0.3532
  853MOL0     H17647   4.547   9.506  10.789 -1.1048  0.3762 -1.6342
  853MOL0     H17648   4.645   9.597  10.678 -0.2664  4.2804  0.3217
  853MOL0     H17649   4.566   9.730  10.942  3.4723  1.8416 -0.4971
  853MOL0     H17650   4.647   9.793  10.807  0.1193  1.1521  2.4297
  853MOL0     H17651   4.361   9.665  10.777 -0.5864  0.2541  1.7935
  853MOL0     H17652   4.382   9.827  10.842 -2.3004  1.0486 -1.5082
  853MOL0     H17653   4.457   9.931  10.655  2.1918 -1.0394  0.5444
  853MOL0     H17654   4.544   9.794  10.593  1.5371 -0.1224  0.8594
  853MOL0     H17655   4.240   9.844  10.589 -1.5142 -0.8846 -1.7634
  853MOL0     H17656   4.323   9.701  10.522 -0.0082  0.0899 -1.4112
  853MOL0     H17657   4.403   9.978  10.435  0.8250 -0.8104 -0.5328
  853MOL0     H17658   4.416   9.822  10.341 -1.0920 -2.5285  0.4557
  853MOL0     H17659   4.140   9.919  10.411  1.3784 -1.3800  0.8758
  853MOL0     H17660   4.197   9.809  10.287 -1.9629 -1.2718  3.0259
  853MOL0     H17661   4.282  10.001  10.147  1.0131  0.7971  0.2595
  853MOL0     H17662   4.115  10.035  10.164 -0.0246 -1.1888 -0.0997
  853MOL0     H17663   4.077  10.247  10.400 -0.0376  2.7069  0.9585
  853MOL0     H17664   4.260  10.403  10.641 -1.4423  0.5041 -0.2231
  853MOL0     H17665   4.141  10.461  10.541 -0.0810 -0.3385 -0.8302
  853MOL0     H17666   4.433  10.531  10.466  0.7452  1.4798  2.1034
  853MOL0     H17667   4.289  10.628  10.441  1.1175 -1.3187 -2.0657
  853MOL0     H17668   4.252  10.673  10.652 -0.7455 -0.9954 -2.2564
  853MOL0     H17669   4.385  10.566  10.725  1.4343 -1.3538 -1.8270
  853MOL0     H17670   4.448  10.817  10.564 -2.5626  0.8641  1.2751
  853MOL0     H17671   4.477  10.791  10.732  0.8889  0.6330 -0.9852
  853MOL0     H17672   4.805  10.529  10.630  5.2166 -2.1899 -2.5313
  853MOL0     H17673   5.031  10.509  10.539  1.0934  0.8904 -1.6015
  853MOL0     H17674   5.033  10.528  10.709 -2.5911 -0.6714 -0.9646
  853MOL0     H17675   5.155  10.623  10.618  0.5272 -1.2389  0.6520
  853MOL0     H17676   5.318  11.004  10.618  1.5444 -0.6804  1.6393
  853MOL0     H17677   5.567  11.079  10.587  1.5895 -1.0754  0.7262
  853MOL0     H17678   5.813  10.818  10.305 -1.6392  0.1715  0.6536
  853MOL0     H17679   5.755  10.953  10.215 -1.0342 -1.2556 -1.5246
  853MOL0     H17680   5.935  11.103  10.315 -1.1683  0.1925  0.0391
  853MOL0     H17681   5.978  10.966  10.427  2.7550  0.7719 -0.4667
  853MOL0     H17682   5.995  10.963  10.128  2.3304  0.8566 -0.5800
  853MOL0     H17683   6.063  10.838  10.229 -2.2526 -1.0945 -2.6960
  853MOL0     H17684   6.211  11.011  10.326 -2.6535 -1.5832 -0.6060
  853MOL0     H17685   6.138  11.138  10.220 -3.9710 -0.7539 -2.1419
  853MOL0     H17686   6.372  11.040  10.143 -1.6665  1.8790 -1.4841
  853MOL0     H17687   6.270  10.897  10.093 -1.5062 -0.6226  3.1218
  853MOL0     H17688   6.203  11.190  10.015 -0.0940 -0.1575  2.4196
  853MOL0     H17689   6.138  11.032   9.959  0.8123 -3.3279  2.6882
  853MOL0     H17690   6.378  10.982   9.882  1.3020  0.9210 -1.8677
  853MOL0     H17691   6.421  11.150   9.934  0.2115 -2.0128  3.9707
  853MOL0     H17692   6.215  11.085   9.712  0.6563 -0.2211  0.4947
  853MOL0     H17693   6.377  11.126   9.676 -0.3021  1.0960 -0.6861
  853MOL0     H17694   5.596  10.782  10.284 -0.3882  0.4518 -0.1883
  853MOL0     H17695   5.345  10.733  10.310  1.5486 -1.4613 -2.0097
  853MOL0     H17696   4.856  11.000  10.522  1.4463  0.0332  0.8536
  853MOL0     H17697   4.639  10.906  10.539  0.1787  1.9444  1.3534
  853MOL0     H17698   4.754   9.411  10.635 -2.3626  0.7345  2.0900
  853MOL0     H17699   4.918   9.221  10.613 -0.1488 -0.4883  0.4887
  853MOL0     H17700   5.339   9.083  10.730 -1.6648  0.8251  3.8467
  853MOL0     H17701   5.502   8.927  10.672  0.2997 -0.2181 -1.7328
  853MOL0     H17702   5.482   8.758  10.489 -0.8394 -0.1083  0.8029
  853MOL0     H17703   5.630   8.734  10.585  2.0213  0.1837 -2.7953
  853MOL0     H17704   5.602   8.580  10.362  0.3543 -0.5170  0.2852
  853MOL0     H17705   5.492   8.493  10.460 -2.5689  2.6256 -1.8193
  853MOL0     H17706   5.777   8.568  10.557  1.1336 -2.1881  2.8048
  853MOL0     H17707   5.655   8.456  10.627  1.9423 -5.2563 -1.2500
  853MOL0     H17708   5.806   8.440  10.372 -0.3367  0.6864  0.2086
  853MOL0     H17709   5.683   8.310  10.425  1.4485 -1.9036  0.6166
  853MOL0     H17710   6.000   8.219  10.678 -2.7214 -1.0874  0.9504
  853MOL0     H17711   5.210   8.609  10.755  1.0371 -0.4235 -1.3197
  853MOL0     H17712   5.001   8.652  10.745  1.5444  0.2282 -0.3687
  853MOL0     H17713   4.993   8.717  10.917 -0.6357  0.4968  0.4397
  853MOL0     H17714   4.928   8.809  10.778  0.5875  2.9850  2.7920
  854MOL0     O17715   1.481   2.066   0.427 -0.0877  0.6554  0.3538
  854MOL0     C17716   1.464   1.947   0.462 -0.2888 -0.4747 -0.0732
  854MOL0     O17717   1.571   1.863   0.473 -0.3281 -0.5642  0.0185
  854MOL0     C17718   1.695   1.889   0.429 -0.1579  0.6048 -0.2970
  854MOL0     C17719   1.796   1.901   0.520  0.0190 -0.0043 -0.1756
  854MOL0     C17720   1.926   1.936   0.479 -0.1325  0.7753  0.1996
  854MOL0     C17721   1.956   1.945   0.337  0.1101 -0.1489 -0.2864
  854MOL0     O17722   2.083   1.969   0.293  0.2996  0.2952  0.8222
  854MOL0     C17723   2.115   2.114   0.266  0.1964  0.4031 -1.1558
  854MOL0     C17724   2.196   2.162   0.391 -0.8309 -0.1750  0.5661
  854MOL0     C17725   2.264   2.293   0.349 -0.0304  0.4898 -0.0231
  854MOL0     C17726   2.389   2.315   0.437  0.6041  0.5445 -0.1576
  854MOL0     C17727   2.443   2.458   0.426 -0.0945 -0.0953 -0.3083
  854MOL0     C17728   2.454   2.511   0.285  0.2357 -0.1459 -0.4580
  854MOL0     C17729   2.569   2.456   0.207 -0.1516 -0.1737  0.4746
  854MOL0     C17730   2.526   2.406   0.069  0.6672 -0.5923 -0.7368
  854MOL0     N17731   2.639   2.333   0.011 -1.1512  0.0887 -0.0282
  854MOL0     C17732   2.758   2.399  -0.003  0.0956 -0.3938 -0.3416
  854MOL0     C17733   2.822   2.319  -0.090  1.0968 -0.1155  0.8891
  854MOL0     C17734   2.957   2.356  -0.149  0.0206  0.3571 -0.3376
  854MOL0     C17735   3.073   2.265  -0.112  0.5912 -0.1723 -0.6224
  854MOL0     C17736   3.112   2.285   0.033 -0.0062  0.3558 -0.1376
  854MOL0     C17737   3.195   2.167   0.071  0.2025 -1.3631  0.0998
  854MOL0     O17738   3.251   2.197   0.200  0.9284 -0.4682  0.3409
  854MOL0     C17739   3.203   2.108   0.296  0.4334 -0.5754 -0.0673
  854MOL0     C17740   3.306   2.045   0.362 -0.0576 -0.4602  0.1237
  854MOL0     C17741   3.280   1.966   0.473  0.5696 -0.7151  0.5838
  854MOL0     C17742   3.404   1.908   0.539  0.6391  0.2524 -0.4296
  854MOL0     C17743   3.148   1.930   0.514  0.4928 -0.6114  0.2698
  854MOL0     C17744   3.116   1.853   0.629 -0.0470 -0.0212  0.0345
  854MOL0     O17745   3.204   1.760   0.673  0.6931 -0.2535  0.0259
  854MOL0     C17746   3.190   1.733   0.805 -0.4404 -0.0101  0.7328
  854MOL0     C17747   3.089   1.650   0.855 -0.3896  1.3219 -0.1084
  854MOL0     C17748   3.078   1.622   0.994  0.2758 -0.5018  1.1780
  854MOL0     C17749   3.182   1.667   1.077  0.0553  0.6144  0.8213
  854MOL0     O17750   3.166   1.640   1.214  0.6754 -0.3039  0.7398
  854MOL0     C17751   3.249   1.703   1.312 -1.3010 -0.5677 -0.1773
  854MOL0     C17752   3.204   1.845   1.341 -0.4557 -0.0836 -0.6689
  854MOL0     C17753   3.086   1.845   1.440 -0.0143 -0.0721  0.2336
  854MOL0     C17754   3.025   1.979   1.461  0.0510  0.3194  0.0962
  854MOL0     C17755   2.979   2.000   1.604 -0.2807 -0.9483  0.1030
  854MOL0     C17756   2.871   1.902   1.658  0.2950  0.1307  0.0249
  854MOL0     C17757   2.744   1.917   1.571  0.1663 -0.3582 -0.2536
  854MOL0     C17758   2.616   1.874   1.654  0.3545 -0.2574 -0.3300
  854MOL0    Cl17759   2.580   1.997   1.784  0.2119 -0.2052 -0.3686
  854MOL0     C17760   3.285   1.745   1.029  0.6047 -0.6344 -0.4588
  854MOL0     C17761   3.289   1.776   0.894 -0.6039 -0.6015  0.8584
  854MOL0     O17762   3.004   1.874   0.677 -0.0064  0.4401 -0.1369
  854MOL0     C17763   3.038   1.983   0.431 -1.0524  0.0605 -0.2332
  854MOL0     C17764   3.065   2.078   0.332 -0.1073 -0.6694  0.5866
  854MOL0     N17765   2.748   2.208  -0.111 -0.2698 -0.6137 -0.1710
  854MOL0     N17766   2.641   2.214  -0.045  0.2358  0.0965 -0.5538
  854MOL0     C17767   1.851   1.928   0.244  0.0945 -0.6834 -1.1720
  854MOL0     C17768   1.719   1.906   0.299  0.1904  0.6693  0.8050
  854MOL0     C17769   1.342   1.897   0.528 -0.1424 -0.9914  0.9132
  854MOL0     C17770   1.343   1.778   0.595 -0.4620 -0.2628 -0.8620
  854MOL0     C17771   1.230   1.730   0.661  0.3467  0.3949  0.7899
  854MOL0     C17772   1.105   1.796   0.648  0.2623 -0.2970 -0.4393
  854MOL0     O17773   0.976   1.750   0.684 -0.2524 -0.1468  0.5697
  854MOL0     C17774   0.952   1.608   0.685 -0.6685  0.2899  0.0451
  854MOL0     C17775   0.799   1.595   0.706  0.6144  0.5390  1.1877
  854MOL0     C17776   0.752   1.478   0.784  0.2444  0.2787 -0.5740
  854MOL0     C17777   0.663   1.394   0.703  0.2957 -0.4350  0.4344
  854MOL0     C17778   0.588   1.306   0.798 -0.2270  0.3521  0.4324
  854MOL0     C17779   0.511   1.231   0.857  0.0178 -0.0742 -0.0303
  854MOL0     C17780   1.107   1.922   0.591  0.8161  0.1359  0.5628
  854MOL0     C17781   1.217   1.978   0.523 -0.2056 -0.5815  0.3750
  854MOL0     C17782   1.203   2.098   0.429  0.0638  0.7857  0.5499
  854MOL0     H17783   1.769   1.889   0.625 -1.4443 -1.0575 -0.6367
  854MOL0     H17784   2.005   1.961   0.548  0.6486  1.2671 -0.8462
  854MOL0     H17785   2.027   2.178   0.278  0.7111  0.8633  0.4574
  854MOL0     H17786   2.168   2.123   0.171  1.3962 -0.5057 -0.6008
  854MOL0     H17787   2.131   2.169   0.479 -0.7742  0.2466  0.5798
  854MOL0     H17788   2.276   2.091   0.412  1.4593  2.1370  0.1914
  854MOL0     H17789   2.271   2.304   0.241 -1.6825 -0.0020 -0.2096
  854MOL0     H17790   2.196   2.372   0.383  0.1910  0.2093  1.1237
  854MOL0     H17791   2.366   2.284   0.540 -0.7185  0.7393 -0.3892
  854MOL0     H17792   2.469   2.244   0.411  0.3076 -1.3060  3.3588
  854MOL0     H17793   2.542   2.462   0.473 -1.2176 -0.6621  2.2465
  854MOL0     H17794   2.377   2.519   0.489 -1.0194 -1.4909  0.1030
  854MOL0     H17795   2.355   2.516   0.239 -1.3212  0.1143  2.6374
  854MOL0     H17796   2.487   2.615   0.279  2.8095 -0.8900 -0.0800
  854MOL0     H17797   2.615   2.373   0.263  1.6047 -0.9666 -1.9867
  854MOL0     H17798   2.645   2.534   0.197 -0.9350  0.3205 -2.5097
  854MOL0     H17799   2.442   2.340   0.092  0.1252  1.5109  4.8568
  854MOL0     H17800   2.496   2.486  -0.001 -1.0731 -0.2432  0.3522
  854MOL0     H17801   2.785   2.494   0.043 -2.1301 -0.9843  2.4549
  854MOL0     H17802   2.995   2.458  -0.141  2.5717 -0.2917 -2.8124
  854MOL0     H17803   2.940   2.342  -0.257  0.2200  2.0761 -0.6224
  854MOL0     H17804   3.037   2.161  -0.111 -1.5502  0.5099  0.1727
  854MOL0     H17805   3.152   2.273  -0.186  0.4423 -0.9159 -0.8759
  854MOL0     H17806   3.177   2.373   0.039  0.9761 -0.0765 -2.8187
  854MOL0     H17807   3.022   2.296   0.093 -0.3401 -1.5021 -0.2143
  854MOL0     H17808   3.140   2.072   0.075 -1.5468 -0.3545  1.1565
  854MOL0     H17809   3.282   2.151   0.006 -1.1510 -1.9841 -1.6326
  854MOL0     H17810   3.410   2.063   0.338 -0.2473  0.4884 -0.0051
  854MOL0     H17811   3.390   1.933   0.644  0.0029  1.2085 -0.7204
  854MOL0     H17812   3.493   1.960   0.500  0.9952 -1.0523 -1.4524
  854MOL0     H17813   3.419   1.802   0.520  0.6617 -0.5301  3.2632
  854MOL0     H17814   3.018   1.611   0.783 -0.4122 -0.2709  0.7391
  854MOL0     H17815   3.008   1.546   1.027  0.3658 -0.5161  1.3379
  854MOL0     H17816   3.243   1.647   1.406 -1.6710 -1.3672 -0.6643
  854MOL0     H17817   3.354   1.707   1.283 -0.8512  1.0533  1.4679
  854MOL0     H17818   3.289   1.896   1.387 -0.7098 -0.5963  0.4060
  854MOL0     H17819   3.184   1.907   1.253 -0.4455  2.2559  0.8701
  854MOL0     H17820   3.128   1.803   1.532 -2.5166 -0.4417  1.2663
  854MOL0     H17821   3.009   1.778   1.402 -1.8391  1.2012  1.4881
  854MOL0     H17822   2.941   1.983   1.391 -0.4878 -1.4071  0.6019
  854MOL0     H17823   3.096   2.056   1.428 -0.2120  0.5106 -0.0251
  854MOL0     H17824   3.064   1.995   1.672 -1.2948 -0.4329  1.4722
  854MOL0     H17825   2.937   2.101   1.611  1.5265  0.1588 -3.0677
  854MOL0     H17826   2.853   1.921   1.764  2.5457 -3.2686  1.1984
  854MOL0     H17827   2.905   1.798   1.656 -1.2458 -0.4548 -3.4032
  854MOL0     H17828   2.754   1.865   1.476  1.5791  2.1950 -1.5987
  854MOL0     H17829   2.743   2.024   1.550  1.9705  0.0985  1.6212
  854MOL0     H17830   2.639   1.782   1.708  1.3930 -0.7585 -1.5841
  854MOL0     H17831   2.536   1.855   1.582  1.5870  1.4577 -2.2530
  854MOL0     H17832   3.360   1.787   1.095  0.3613  0.1853 -0.6927
  854MOL0     H17833   3.365   1.842   0.852  0.5849 -0.6069  2.8822
  854MOL0     H17834   2.932   1.969   0.449 -1.4819  0.5843 -2.1791
  854MOL0     H17835   2.980   2.125   0.282  1.4455  1.4207 -0.2470
  854MOL0     H17836   1.864   1.929   0.136 -2.1143 -1.3898 -1.4905
  854MOL0     H17837   1.635   1.894   0.232 -0.5978 -1.3672  2.0736
  854MOL0     H17838   1.438   1.727   0.601  0.7908  2.1182  1.5764
  854MOL0     H17839   1.247   1.641   0.720  0.6208 -1.2500 -1.6298
  854MOL0     H17840   0.980   1.556   0.593  4.1442 -1.2986  2.0637
  854MOL0     H17841   1.010   1.565   0.767  0.6197 -0.6785 -1.3287
  854MOL0     H17842   0.767   1.586   0.602  2.5875 -3.3231  0.7645
  854MOL0     H17843   0.754   1.689   0.741 -0.8753  0.5699 -0.6477
  854MOL0     H17844   0.835   1.424   0.832 -1.4226  0.1122  2.3649
  854MOL0     H17845   0.702   1.530   0.866  1.4634  0.8651 -0.1666
  854MOL0     H17846   0.720   1.340   0.627 -1.2022  1.4081 -2.1746
  854MOL0     H17847   0.587   1.449   0.647  0.6731  0.1287  0.4660
  854MOL0     H17848   0.447   1.175   0.923 -0.0807  0.7114  0.5663
  854MOL0     H17849   1.018   1.984   0.587 -0.3450 -1.3876  1.6010
  854MOL0     H17850   1.257   2.181   0.476  3.6917 -0.3724 -1.2173
  854MOL0     H17851   1.231   2.063   0.330 -0.6559 -1.0857  0.9681
  854MOL0     H17852   1.099   2.133   0.425 -0.0943  0.5485  1.9407
  855MOL0     O17853   0.617  10.658   6.090  0.1184  0.0857  0.8295
  855MOL0     C17854   0.641  10.623   5.971  0.1168  0.4218 -0.3249
  855MOL0     O17855   0.721  10.690   5.885  0.1340  0.6005 -0.6675
  855MOL0     C17856   0.802  10.781   5.945 -0.2635  0.1021 -0.0345
  855MOL0     C17857   0.918  10.746   6.008 -0.2821 -0.2520 -0.1831
  855MOL0     C17858   0.999  10.838   6.076 -0.7757  0.5233 -0.3974
  855MOL0     C17859   0.951  10.970   6.087 -0.7075  0.1795 -0.5379
  855MOL0     O17860   1.017  11.071   6.148  0.3647  0.4973 -0.9398
  855MOL0     C17861   1.143  11.044   6.205  0.7745 -0.5118  0.1789
  855MOL0     C17862   1.217  11.178   6.218 -0.8299  0.0440  0.8787
  855MOL0     C17863   1.359  11.140   6.266 -0.8908 -0.3456 -0.1750
  855MOL0     C17864   1.460  11.254   6.250 -1.0562 -0.5957 -0.1675
  855MOL0     C17865   1.605  11.219   6.292  0.0186  0.1293  0.4092
  855MOL0     C17866   1.675  11.108   6.219  0.3109  0.6941  0.6091
  855MOL0     C17867   1.824  11.087   6.247 -0.7283 -0.3745  0.2386
  855MOL0     C17868   1.882  10.954   6.196 -0.1951  0.6092  0.2294
  855MOL0     N17869   2.020  10.961   6.253  0.1984  0.3999  0.0656
  855MOL0     C17870   2.082  10.874   6.345  0.6347 -0.1181  0.4356
  855MOL0     C17871   2.210  10.931   6.359  0.4524  0.2317 -0.4428
  855MOL0     C17872   2.323  10.855   6.430  0.8558 -0.3734 -0.6108
  855MOL0     C17873   2.452  10.828   6.362 -0.1759  0.1137 -0.4720
  855MOL0     C17874   2.550  10.943   6.383 -0.2617  0.7106 -0.4898
  855MOL0     C17875   2.685  10.916   6.331 -0.4726 -0.0114 -0.6524
  855MOL0     O17876   2.736  10.815   6.425 -0.7597  0.1095 -0.1719
  855MOL0     C17877   2.875  10.809   6.454 -0.3239 -0.3202  0.1482
  855MOL0     C17878   2.930  10.750   6.570 -0.4144 -0.4459  0.0324
  855MOL0     C17879   3.066  10.771   6.604  0.2276  1.0358  0.0784
  855MOL0     C17880   3.109  10.697   6.732  0.3494 -0.2940  0.2501
  855MOL0     C17881   3.159  10.833   6.517  0.9305 -0.7442 -0.3088
  855MOL0     C17882   3.309  10.841   6.534 -0.9100  0.7050  0.1689
  855MOL0     O17883   3.383  10.901   6.432  0.8628  0.5639 -0.0263
  855MOL0     C17884   3.518  10.906   6.427 -0.7335 -0.4663  1.0034
  855MOL0     C17885   3.576  11.005   6.346  0.4017  0.1731 -0.8993
  855MOL0     C17886   3.713  11.012   6.334  0.1125  0.0119  0.6009
  855MOL0     C17887   3.803  10.929   6.402  0.2000 -0.2557 -0.2231
  855MOL0     O17888   3.939  10.940   6.389  0.2768  0.1637  0.0263
  855MOL0     C17889   4.021  10.826   6.409  0.1542 -0.7059  0.4226
  855MOL0     C17890   4.162  10.864   6.341 -0.4300 -0.4309  0.2064
  855MOL0     C17891   4.280  10.761   6.378  0.8352 -0.2292  0.8212
  855MOL0     C17892   4.410  10.787   6.306  0.4278  0.1674  0.2368
  855MOL0     C17893   4.462  10.923   6.342 -0.1476 -0.8337  0.7792
  855MOL0     C17894   4.603  10.955   6.298 -0.9066 -0.9695 -0.0611
  855MOL0     C17895   4.703  10.848   6.334  1.1788  0.8116 -0.0751
  855MOL0     C17896   4.857  10.885   6.315 -0.2616 -0.0936 -0.1958
  855MOL0    Cl17897   4.958  10.815   6.439 -0.2134 -0.5996  0.2201
  855MOL0     C17898   3.749  10.826   6.475  0.2379 -0.3218 -0.2778
  855MOL0     C17899   3.611  10.822   6.482  0.6720  0.3615  0.0568
  855MOL0     O17900   3.361  10.811   6.644  0.0664  0.8952  0.1190
  855MOL0     C17901   3.103  10.872   6.395 -0.2963 -0.3241 -1.2824
  855MOL0     C17902   2.964  10.864   6.365  0.1927 -0.0622 -0.2466
  855MOL0     N17903   2.222  11.036   6.271  0.7303  0.3455 -0.3500
  855MOL0     N17904   2.107  11.055   6.219  0.1283  0.1713 -0.8149
  855MOL0     C17905   0.845  11.009   6.014  1.1291 -0.2045 -0.4147
  855MOL0     C17906   0.766  10.909   5.946 -0.7009 -0.0664 -0.5883
  855MOL0     C17907   0.570  10.507   5.914  0.5651 -0.0686 -0.3034
  855MOL0     C17908   0.547  10.399   5.999  0.6810 -0.0988  0.0010
  855MOL0     C17909   0.468  10.289   5.958  1.0834 -0.7487  0.7322
  855MOL0     C17910   0.428  10.288   5.826  0.4586  0.0702  0.4109
  855MOL0     O17911   0.349  10.187   5.766 -0.6562 -0.6764  0.1395
  855MOL0     C17912   0.275  10.089   5.843 -0.6344  0.4584  0.1653
  855MOL0     C17913   0.205   9.977   5.761 -0.3559 -0.1145  0.0669
  855MOL0     C17914   0.104  10.036   5.663  0.0410  0.6522  0.1523
  855MOL0     C17915   0.004   9.941   5.594  0.1340 -0.0519  0.4050
  855MOL0     C17916  -0.102   9.905   5.691  0.2286 -0.0613  0.7534
  855MOL0     C17917  -0.199   9.876   5.758 -0.7328  0.3757 -0.0729
  855MOL0     C17918   0.443  10.399   5.741  0.1772  0.2726  0.0861
  855MOL0     C17919   0.522  10.513   5.780  0.8462  0.0285  0.2878
  855MOL0     C17920   0.554  10.609   5.664 -0.6769  0.8752 -0.3448
  855MOL0     H17921   0.953  10.644   5.996  0.0634 -0.4901  2.3076
  855MOL0     H17922   1.093  10.806   6.120 -1.0818 -0.1064 -0.1936
  855MOL0     H17923   1.204  10.973   6.148 -0.2370 -2.5132  1.4738
  855MOL0     H17924   1.121  11.008   6.306  1.8065  1.1723  1.0450
  855MOL0     H17925   1.216  11.213   6.114 -1.2116  1.0571  1.2138
  855MOL0     H17926   1.163  11.254   6.275  0.8522  0.4014  2.0688
  855MOL0     H17927   1.379  11.089   6.361  1.8081  0.6194 -0.1285
  855MOL0     H17928   1.400  11.075   6.188 -0.1147  3.1154 -2.8448
  855MOL0     H17929   1.459  11.287   6.146  0.3589 -1.5455 -0.5110
  855MOL0     H17930   1.415  11.335   6.309 -2.5712 -2.0783  0.8199
  855MOL0     H17931   1.594  11.181   6.394  1.4216  0.7652  0.8228
  855MOL0     H17932   1.669  11.307   6.293 -0.1706  0.2640  0.9147
  855MOL0     H17933   1.622  11.019   6.253  1.2199 -0.0021  0.2479
  855MOL0     H17934   1.662  11.117   6.111  3.0281 -0.0817  0.1414
  855MOL0     H17935   1.828  11.102   6.355 -0.1057 -0.0509  0.1717
  855MOL0     H17936   1.882  11.167   6.201  2.3543 -2.0386  0.9568
  855MOL0     H17937   1.834  10.868   6.243  2.1947 -0.0611  1.6061
  855MOL0     H17938   1.886  10.963   6.087 -2.2703 -1.5765 -0.0976
  855MOL0     H17939   2.045  10.791   6.404 -0.7599  1.6296  2.1462
  855MOL0     H17940   2.289  10.758   6.467  3.5563 -1.3457 -0.4534
  855MOL0     H17941   2.348  10.900   6.526  0.4198  0.2611 -0.7884
  855MOL0     H17942   2.490  10.733   6.401  0.4325  1.3290  2.0708
  855MOL0     H17943   2.434  10.825   6.254 -0.6445 -0.1980 -0.3881
  855MOL0     H17944   2.510  11.027   6.325 -0.1561 -0.1958 -1.9368
  855MOL0     H17945   2.557  10.963   6.490  1.4897 -1.9924 -0.0096
  855MOL0     H17946   2.677  10.897   6.223 -0.2369  0.3708 -0.7379
  855MOL0     H17947   2.743  11.008   6.336 -0.2400 -0.0118 -2.5867
  855MOL0     H17948   2.860  10.703   6.638 -1.6506 -1.8023 -2.0374
  855MOL0     H17949   3.143  10.767   6.809 -0.7720  2.4250 -1.5655
  855MOL0     H17950   3.193  10.628   6.720 -0.1286 -1.0540  1.1640
  855MOL0     H17951   3.029  10.637   6.776 -1.7986  2.6139  0.6406
  855MOL0     H17952   3.506  11.072   6.296  1.1179  1.1088 -0.6772
  855MOL0     H17953   3.760  11.093   6.279  1.6762 -1.2150  0.0600
  855MOL0     H17954   4.037  10.804   6.515  1.0633 -1.1953  0.1950
  855MOL0     H17955   3.982  10.738   6.358  1.8752 -2.5500  2.0959
  855MOL0     H17956   4.148  10.867   6.232 -3.0601 -2.7358  0.3622
  855MOL0     H17957   4.188  10.968   6.360  2.5073 -0.3688 -3.1126
  855MOL0     H17958   4.246  10.661   6.351 -1.1792  0.4564  0.6842
  855MOL0     H17959   4.297  10.768   6.486  1.7228  0.0361  0.6780
  855MOL0     H17960   4.392  10.780   6.198 -2.1656 -1.5152  0.6851
  855MOL0     H17961   4.479  10.706   6.331  0.3245  0.1860  0.5962
  855MOL0     H17962   4.400  11.000   6.295  1.9169 -0.0758 -0.8381
  855MOL0     H17963   4.465  10.932   6.451 -1.5048  0.3721  0.7560
  855MOL0     H17964   4.645  11.044   6.347  1.3296 -0.3809 -2.8112
  855MOL0     H17965   4.600  10.981   6.192  0.8023  0.5573  0.2128
  855MOL0     H17966   4.675  10.756   6.282 -2.1142 -0.1419  2.9580
  855MOL0     H17967   4.683  10.814   6.436 -0.7936 -1.7293 -1.1799
  855MOL0     H17968   4.858  10.994   6.315 -0.3749 -0.0829 -1.3496
  855MOL0     H17969   4.880  10.858   6.212 -0.8028 -0.2622 -0.2777
  855MOL0     H17970   3.813  10.762   6.535  0.0130  0.1821  0.5146
  855MOL0     H17971   3.569  10.737   6.535 -1.5994  1.3107 -0.1302
  855MOL0     H17972   3.176  10.928   6.337 -0.6092  2.6870  0.9944
  855MOL0     H17973   2.934  10.882   6.262 -2.2687 -1.7366  0.1156
  855MOL0     H17974   0.802  11.109   6.016 -0.6309 -0.9455  1.2224
  855MOL0     H17975   0.677  10.935   5.889 -0.1225 -0.9190 -1.9303
  855MOL0     H17976   0.574  10.418   6.102 -0.5822  2.9725 -0.1282
  855MOL0     H17977   0.439  10.200   6.012 -3.9669 -0.3502 -0.8335
  855MOL0     H17978   0.349  10.050   5.914 -0.4712 -0.3362 -0.4269
  855MOL0     H17979   0.190  10.139   5.891 -1.6300  0.7523 -1.7918
  855MOL0     H17980   0.162   9.909   5.835  1.7221 -3.5190 -1.5595
  855MOL0     H17981   0.282   9.927   5.701 -0.8200 -0.5319 -0.1824
  855MOL0     H17982   0.050  10.122   5.702  0.6287  0.7903  0.6791
  855MOL0     H17983   0.167  10.085   5.588  1.1577  0.2767  0.8188
  855MOL0     H17984   0.067   9.854   5.572  1.7113  0.9010  1.0060
  855MOL0     H17985  -0.027   9.992   5.503  0.7881 -1.5414 -0.6908
  855MOL0     H17986  -0.281   9.850   5.821  0.1857 -1.1958  0.5301
  855MOL0     H17987   0.396  10.405   5.643  0.0617 -1.0390  0.0413
  855MOL0     H17988   0.469  10.613   5.594 -2.7489 -3.5158  1.5279
  855MOL0     H17989   0.565  10.706   5.712  0.7510 -0.6671  2.6764
  855MOL0     H17990   0.647  10.574   5.620  0.9171  2.4030  1.6277
  856MOL0     O17991   6.060   4.434   0.893  0.3663  0.6841 -0.2280
  856MOL0     C17992   6.040   4.339   0.975 -0.1242  0.1497 -0.5931
  856MOL0     O17993   6.133   4.245   1.011 -0.1651 -0.0833  0.3863
  856MOL0     C17994   6.254   4.223   0.945  0.4713  0.6541 -0.6624
  856MOL0     C17995   6.362   4.170   1.011  0.3605 -0.2897 -0.5529
  856MOL0     C17996   6.481   4.149   0.949 -0.6594  0.1782  0.3138
  856MOL0     C17997   6.492   4.163   0.807 -0.1027  0.3162 -0.1259
  856MOL0     O17998   6.609   4.173   0.732 -0.2855 -0.5900  0.2110
  856MOL0     C17999   6.731   4.142   0.791 -0.4725 -0.3234  0.7519
  856MOL0     C18000   6.841   4.213   0.701  0.5472  0.1059 -0.0362
  856MOL0     C18001   6.981   4.196   0.753  0.3401  0.1478  0.4024
  856MOL0     C18002   7.093   4.230   0.659 -0.3464 -0.8317  0.3122
  856MOL0     C18003   7.227   4.233   0.714  0.2980 -0.0538 -0.3807
  856MOL0     C18004   7.328   4.322   0.627  0.2131 -0.3139 -0.9236
  856MOL0     C18005   7.469   4.303   0.690 -0.1815  0.2829 -0.3749
  856MOL0     C18006   7.544   4.171   0.672  0.3294  0.6879 -0.2673
  856MOL0     N18007   7.674   4.186   0.607  0.1032 -0.1181  0.3731
  856MOL0     C18008   7.779   4.218   0.686 -0.3649 -1.0485  0.6186
  856MOL0     C18009   7.890   4.176   0.623  0.0959 -0.1142 -0.3661
  856MOL0     C18010   8.019   4.172   0.698  0.3939 -0.7480 -0.2665
  856MOL0     C18011   8.096   4.039   0.693  0.4925 -0.0607  1.0345
  856MOL0     C18012   8.195   4.034   0.568 -0.4098  0.0197 -0.0483
  856MOL0     C18013   8.298   3.921   0.581 -0.2651  0.6650 -0.6893
  856MOL0     O18014   8.364   3.938   0.708  0.0801  0.6675  0.5822
  856MOL0     C18015   8.500   3.964   0.708 -0.7112 -0.1136 -0.0943
  856MOL0     C18016   8.589   3.925   0.610 -0.8235  0.4015 -0.0317
  856MOL0     C18017   8.729   3.934   0.619 -0.0215 -0.0501  0.1581
  856MOL0     C18018   8.810   3.893   0.502 -0.3714 -0.0841 -0.2021
  856MOL0     C18019   8.781   3.991   0.743 -0.4251  1.2167  0.0624
  856MOL0     C18020   8.931   4.008   0.761 -0.3387 -0.5889  0.3437
  856MOL0     O18021   9.007   4.040   0.651 -0.2932  0.2250 -0.0172
  856MOL0     C18022   9.141   4.053   0.650 -0.7620  0.1366  0.6468
  856MOL0     C18023   9.208   4.015   0.534  0.3927 -0.7132  0.2515
  856MOL0     C18024   9.341   4.038   0.516 -0.2761  0.0594  0.1915
  856MOL0     C18025   9.411   4.104   0.607 -0.8484 -0.4511 -0.5689
  856MOL0     O18026   9.550   4.119   0.585  0.3664 -0.1231  1.0078
  856MOL0     C18027   9.637   4.145   0.693 -0.0150 -0.4082  0.2428
  856MOL0     C18028   9.788   4.130   0.661  0.5798  0.3972 -0.1355
  856MOL0     C18029   9.859   4.264   0.625 -0.5573  0.8496 -0.0530
  856MOL0     C18030  10.005   4.227   0.596 -0.0499 -0.2917  0.5159
  856MOL0     C18031  10.100   4.338   0.616  0.0979  0.0324 -0.3810
  856MOL0     C18032  10.238   4.280   0.621  0.5463 -0.0543  0.3265
  856MOL0     C18033  10.340   4.379   0.666  0.2664 -0.3951 -0.8139
  856MOL0     C18034  10.480   4.343   0.625 -0.0431 -0.8358  0.2002
  856MOL0    Cl18035  10.533   4.185   0.698  0.1450  0.0786 -0.3306
  856MOL0     C18036   9.347   4.154   0.726  0.2328 -0.4865 -0.7442
  856MOL0     C18037   9.209   4.124   0.745 -0.7986 -0.5889  0.0276
  856MOL0     O18038   8.980   4.006   0.878  0.1414  0.3438 -0.1350
  856MOL0     C18039   8.698   4.038   0.839 -0.1090  0.0156  0.1019
  856MOL0     C18040   8.556   4.017   0.825 -0.1988 -0.1354 -0.3257
  856MOL0     N18041   7.851   4.134   0.496  0.8820 -0.5805 -0.3426
  856MOL0     N18042   7.721   4.143   0.487 -0.5338 -0.5124  0.3407
  856MOL0     C18043   6.376   4.209   0.739 -0.8537  0.8685 -0.6335
  856MOL0     C18044   6.262   4.235   0.807 -0.0974  0.2029 -0.3040
  856MOL0     C18045   5.920   4.335   1.055  0.0434 -0.0680  0.3094
  856MOL0     C18046   5.904   4.261   1.177 -0.7398  0.2613  0.6539
  856MOL0     C18047   5.798   4.259   1.255 -0.0676  0.1608  0.4742
  856MOL0     C18048   5.683   4.335   1.224  0.0323  0.6085 -0.7222
  856MOL0     O18049   5.575   4.306   1.307  0.7170 -0.1968 -0.2710
  856MOL0     C18050   5.448   4.346   1.260 -0.6731  0.3958 -0.3636
  856MOL0     C18051   5.330   4.275   1.337 -0.2236 -0.6635  0.0265
  856MOL0     C18052   5.186   4.334   1.305 -0.1181  0.5871 -0.6305
  856MOL0     C18053   5.052   4.284   1.365  0.5395  0.0574  0.9286
  856MOL0     C18054   5.066   4.278   1.509  0.2366 -0.2327  0.2331
  856MOL0     C18055   5.068   4.267   1.632 -0.1935  0.9646 -0.6083
  856MOL0     C18056   5.696   4.404   1.103  0.5115  0.0881  0.7139
  856MOL0     C18057   5.806   4.408   1.016 -0.3491 -0.0092  0.1801
  856MOL0     C18058   5.789   4.472   0.878 -0.4660  0.2136  0.2500
  856MOL0     H18059   6.348   4.161   1.118  0.5931 -2.0451 -0.6356
  856MOL0     H18060   6.562   4.110   1.011 -0.6314 -1.3624 -0.6605
  856MOL0     H18061   6.736   4.032   0.797 -1.9631 -0.3599  2.0858
  856MOL0     H18062   6.740   4.175   0.895  2.5593 -1.7901  1.0772
  856MOL0     H18063   6.822   4.156   0.610 -2.4498 -0.2533  0.6901
  856MOL0     H18064   6.813   4.319   0.703 -3.3205 -0.7292 -1.0871
  856MOL0     H18065   7.001   4.261   0.838 -1.4329 -0.5877  1.4451
  856MOL0     H18066   6.983   4.091   0.783 -1.8831  0.1816  0.8838
  856MOL0     H18067   7.087   4.157   0.578 -2.1208 -1.0255  0.5698
  856MOL0     H18068   7.069   4.323   0.607 -2.0256  0.2889  2.8602
  856MOL0     H18069   7.264   4.130   0.713 -0.4884 -0.3482 -1.5660
  856MOL0     H18070   7.219   4.261   0.820 -0.1786 -3.1918  0.5407
  856MOL0     H18071   7.313   4.289   0.523 -1.2119 -2.4237 -0.1265
  856MOL0     H18072   7.313   4.430   0.629 -1.2363 -0.4990  1.1410
  856MOL0     H18073   7.474   4.332   0.795  2.5405  2.3128 -0.9421
  856MOL0     H18074   7.541   4.373   0.646 -0.1030  0.7522  0.4812
  856MOL0     H18075   7.565   4.138   0.774  0.9910  0.9443 -0.3165
  856MOL0     H18076   7.474   4.095   0.636 -0.4040  2.4623 -2.8975
  856MOL0     H18077   7.754   4.241   0.790 -1.1505  1.4355 -0.0643
  856MOL0     H18078   7.989   4.187   0.802  0.2127 -0.7811 -0.3147
  856MOL0     H18079   8.080   4.254   0.659  1.4384 -2.1954 -1.8644
  856MOL0     H18080   8.159   4.046   0.782  2.5351 -0.6948 -0.2734
  856MOL0     H18081   8.040   3.945   0.690 -0.4261  0.5042 -0.5094
  856MOL0     H18082   8.134   4.012   0.480  0.8577  0.6045 -1.1068
  856MOL0     H18083   8.240   4.132   0.557  0.3837 -0.0570  2.0499
  856MOL0     H18084   8.239   3.829   0.579  0.9836 -0.3058  1.9988
  856MOL0     H18085   8.363   3.917   0.493  1.2665  0.3805  0.4171
  856MOL0     H18086   8.549   3.879   0.520  1.2670 -2.1021  0.2360
  856MOL0     H18087   8.907   3.853   0.530  2.2190  4.5727 -1.3676
  856MOL0     H18088   8.837   3.986   0.450  2.0945  0.2558  1.5289
  856MOL0     H18089   8.753   3.826   0.437  3.3743 -2.9639 -0.8506
  856MOL0     H18090   9.146   3.979   0.452 -1.8491  4.2441 -0.5380
  856MOL0     H18091   9.389   4.020   0.420 -2.1870  0.8153 -0.9462
  856MOL0     H18092   9.624   4.246   0.734  1.7918  0.1025 -0.3221
  856MOL0     H18093   9.618   4.075   0.775  3.0527 -2.0078 -0.2479
  856MOL0     H18094   9.831   4.087   0.752 -0.3630 -0.2099  0.0423
  856MOL0     H18095   9.796   4.058   0.579  0.7381  0.7751 -0.4504
  856MOL0     H18096   9.854   4.342   0.701 -0.3636  0.7505  0.0620
  856MOL0     H18097   9.810   4.314   0.541  0.0356  0.8255 -0.4179
  856MOL0     H18098  10.015   4.178   0.498  1.8422  0.5086  0.2668
  856MOL0     H18099  10.039   4.146   0.661  1.6338  0.2767  0.3724
  856MOL0     H18100  10.091   4.420   0.543 -0.9946  0.4755  0.2237
  856MOL0     H18101  10.070   4.382   0.712 -2.4366 -2.9619  0.3497
  856MOL0     H18102  10.269   4.242   0.523  0.3640  1.4231 -0.3234
  856MOL0     H18103  10.245   4.200   0.695  0.6000  0.3040  0.7150
  856MOL0     H18104  10.345   4.385   0.775  1.4719 -1.2670 -0.7918
  856MOL0     H18105  10.313   4.476   0.624 -0.1257 -0.7821 -1.4922
  856MOL0     H18106  10.546   4.424   0.656 -0.1582 -1.0330  0.9843
  856MOL0     H18107  10.496   4.339   0.517  3.4308 -1.8545  0.6451
  856MOL0     H18108   9.413   4.203   0.797 -0.5282  0.8932 -0.9572
  856MOL0     H18109   9.154   4.165   0.830 -0.2040  0.3510 -0.0260
  856MOL0     H18110   8.738   4.084   0.929  3.3646 -2.3905 -0.0046
  856MOL0     H18111   8.491   4.059   0.902  1.9413  3.1376 -0.0708
  856MOL0     H18112   6.383   4.199   0.631  2.3303  0.2513 -0.4519
  856MOL0     H18113   6.182   4.269   0.742  0.6124 -3.2758 -3.2758
  856MOL0     H18114   5.992   4.218   1.225  1.5486  2.4735 -1.2741
  856MOL0     H18115   5.794   4.195   1.343 -0.1387 -0.4857  0.0024
  856MOL0     H18116   5.431   4.454   1.269 -1.7548  0.2012  0.1249
  856MOL0     H18117   5.431   4.316   1.156 -0.5431 -1.5793  0.1459
  856MOL0     H18118   5.338   4.293   1.445 -2.3858  0.2181  0.0962
  856MOL0     H18119   5.330   4.172   1.299  0.4613 -0.8473  0.5094
  856MOL0     H18120   5.192   4.438   1.338 -2.2967  1.2354 -2.0262
  856MOL0     H18121   5.188   4.340   1.195 -0.4378  0.8773 -0.6223
  856MOL0     H18122   5.032   4.186   1.322 -0.0431  0.5107  0.1201
  856MOL0     H18123   4.968   4.347   1.331  0.6269  0.1465  0.8769
  856MOL0     H18124   5.067   4.253   1.738 -1.0203 -0.2240 -0.7550
  856MOL0     H18125   5.609   4.452   1.061  0.1355  1.2714  2.7408
  856MOL0     H18126   5.822   4.402   0.801  0.7256 -2.0725  2.6882
  856MOL0     H18127   5.684   4.483   0.848 -0.5470 -0.8923  0.0862
  856MOL0     H18128   5.836   4.571   0.875  0.4691 -0.1718 -4.0186
  857MOL0     O18129  11.247   6.759   7.963 -0.3154  0.7025  0.0245
  857MOL0     C18130  11.243   6.884   7.953 -0.0706  0.2771  0.1969
  857MOL0     O18131  11.332   6.961   7.892 -1.0431 -0.3118 -0.7697
  857MOL0     C18132  11.448   6.898   7.841  0.3075  0.6626  0.4292
  857MOL0     C18133  11.559   6.865   7.913  0.6522 -0.0917 -0.6192
  857MOL0     C18134  11.657   6.781   7.864  0.0150 -0.3136 -0.5322
  857MOL0     C18135  11.658   6.735   7.733  0.5553  0.3344  0.1789
  857MOL0     O18136  11.749   6.646   7.682  0.0457 -0.6107  0.6562
  857MOL0     C18137  11.885   6.685   7.709  0.8963  0.5484  0.7103
  857MOL0     C18138  11.954   6.566   7.777 -0.0470 -0.7297 -0.6818
  857MOL0     C18139  11.966   6.432   7.704 -0.4632  0.6154  0.3268
  857MOL0     C18140  12.051   6.322   7.781 -0.2773  0.8489  0.0438
  857MOL0     C18141  12.190   6.317   7.716 -0.0811  0.3128 -1.0783
  857MOL0     C18142  12.277   6.230   7.790 -0.1420  0.3506 -0.0564
  857MOL0     C18143  12.427   6.231   7.732  0.0340 -1.0472 -0.1680
  857MOL0     C18144  12.440   6.159   7.597  0.0690 -0.5115  0.2785
  857MOL0     N18145  12.572   6.135   7.539 -0.3039  0.1689  0.5064
  857MOL0     C18146  12.684   6.103   7.618  0.5803 -0.2866 -0.3504
  857MOL0     C18147  12.780   6.066   7.527 -0.3195  0.0143  1.3004
  857MOL0     C18148  12.926   6.032   7.556 -0.0303 -0.3925  0.4016
  857MOL0     C18149  13.013   5.960   7.448 -0.2583 -0.2466 -0.6088
  857MOL0     C18150  13.136   5.889   7.499  0.1638  0.4458 -0.1412
  857MOL0     C18151  13.211   5.839   7.378 -0.8321  0.1196 -0.2811
  857MOL0     O18152  13.314   5.741   7.394  0.1695  0.1277 -0.0193
  857MOL0     C18153  13.445   5.765   7.435  0.6331  0.1734  0.0635
  857MOL0     C18154  13.537   5.658   7.452  1.0848  0.4100 -0.2244
  857MOL0     C18155  13.663   5.670   7.503  0.2155 -0.1316 -0.6505
  857MOL0     C18156  13.751   5.546   7.548  0.3385  0.1486  0.7123
  857MOL0     C18157  13.705   5.806   7.525 -0.0789 -0.0914  0.0795
  857MOL0     C18158  13.841   5.836   7.576  0.9942 -0.8749  0.7233
  857MOL0     O18159  13.859   5.959   7.639  0.5222 -0.2189 -0.2522
  857MOL0     C18160  13.989   5.987   7.676 -0.5299 -0.8104 -0.9833
  857MOL0     C18161  14.095   5.992   7.585 -0.3244 -0.4486 -0.4876
  857MOL0     C18162  14.216   6.051   7.618 -1.0886 -0.4509 -0.5042
  857MOL0     C18163  14.230   6.115   7.745 -0.0283  0.0740 -0.0507
  857MOL0     O18164  14.346   6.174   7.793  0.3847  0.4867 -0.1839
  857MOL0     C18165  14.451   6.211   7.700 -0.1668  0.5196 -0.2522
  857MOL0     C18166  14.540   6.316   7.767 -0.5013 -0.5792 -0.2924
  857MOL0     C18167  14.645   6.368   7.670  0.9351  0.4243 -0.2005
  857MOL0     C18168  14.751   6.451   7.744 -0.3501  0.5396  0.4841
  857MOL0     C18169  14.720   6.585   7.818 -0.9183  0.4284 -0.0792
  857MOL0     C18170  14.827   6.623   7.923 -0.4516  0.2890  0.4578
  857MOL0     C18171  14.831   6.564   8.065  0.7816 -0.3213 -0.9932
  857MOL0     C18172  14.972   6.553   8.124 -1.0099 -0.3323 -0.5954
  857MOL0    Cl18173  15.082   6.680   8.079 -0.2798 -0.2551  0.3051
  857MOL0     C18174  14.127   6.092   7.838 -0.9448  0.3970  0.2493
  857MOL0     C18175  14.011   6.026   7.805  0.4610  0.3766  0.5408
  857MOL0     O18176  13.926   5.761   7.563 -0.7194 -0.5755  0.1622
  857MOL0     C18177  13.617   5.917   7.505 -0.3573 -0.4477 -0.5609
  857MOL0     C18178  13.483   5.895   7.463 -0.1456 -0.0549 -0.6846
  857MOL0     N18179  12.730   6.068   7.401  0.5642 -0.0786  0.0369
  857MOL0     N18180  12.610   6.114   7.410 -0.2346 -1.3507  0.4100
  857MOL0     C18181  11.541   6.760   7.662 -0.7907  0.0528 -0.2819
  857MOL0     C18182  11.437   6.841   7.711  1.0787 -0.2005  0.3161
  857MOL0     C18183  11.127   6.950   8.027  1.1349  0.5853  0.2743
  857MOL0     C18184  11.062   7.061   7.968  0.2026  0.0047 -0.7034
  857MOL0     C18185  10.948   7.131   8.014 -0.2356  0.5169  0.4236
  857MOL0     C18186  10.894   7.089   8.126  0.0635 -0.2566 -0.4521
  857MOL0     O18187  10.779   7.147   8.176  0.2743  0.3603  0.2866
  857MOL0     C18188  10.764   7.162   8.317 -0.4472 -0.2163  0.3956
  857MOL0     C18189  10.611   7.167   8.357  0.2108  0.5992 -0.3100
  857MOL0     C18190  10.518   7.265   8.279 -0.2324  0.4860  0.1116
  857MOL0     C18191  10.564   7.414   8.296  0.2158 -0.1758  0.2547
  857MOL0     C18192  10.562   7.447   8.437 -0.8631 -0.3290 -0.2248
  857MOL0     C18193  10.548   7.473   8.553  0.0420 -0.5277  0.2731
  857MOL0     C18194  10.944   6.974   8.192  0.5984  0.0333  0.5445
  857MOL0     C18195  11.056   6.903   8.142  0.8564 -0.1167  0.9434
  857MOL0     C18196  11.101   6.772   8.213  0.4230  0.2965  0.0070
  857MOL0     H18197  11.572   6.901   8.015  0.9372  1.0654 -1.0539
  857MOL0     H18198  11.746   6.759   7.922  0.7437  1.5617 -0.8599
  857MOL0     H18199  11.898   6.782   7.758  1.6267  0.3856  0.8583
  857MOL0     H18200  11.940   6.707   7.617  2.6182  1.7284  1.9564
  857MOL0     H18201  12.055   6.605   7.798 -0.1912 -1.0485  0.7008
  857MOL0     H18202  11.900   6.550   7.870  0.5136  3.0283  0.4737
  857MOL0     H18203  11.866   6.389   7.700  0.1159 -0.8762  1.0251
  857MOL0     H18204  11.987   6.440   7.597  0.7387 -0.7207  0.4391
  857MOL0     H18205  12.047   6.354   7.886  2.2077  1.7451 -0.0597
  857MOL0     H18206  11.992   6.231   7.777 -4.2571  3.2484 -2.1396
  857MOL0     H18207  12.233   6.418   7.724  0.6359 -0.1231  2.0710
  857MOL0     H18208  12.190   6.283   7.612  2.1511  0.8660 -1.3047
  857MOL0     H18209  12.287   6.268   7.892  0.9265 -2.1296  0.8611
  857MOL0     H18210  12.234   6.129   7.791  0.7257 -0.0331 -0.6116
  857MOL0     H18211  12.488   6.177   7.804  2.8041  2.2658  0.1910
  857MOL0     H18212  12.462   6.334   7.719  2.1157 -1.0245  4.0858
  857MOL0     H18213  12.403   6.058   7.618 -3.6863  0.8262  0.7260
  857MOL0     H18214  12.369   6.201   7.525 -2.5752  0.2684  3.1489
  857MOL0     H18215  12.684   6.117   7.726 -1.5478  0.3301 -0.3783
  857MOL0     H18216  12.924   5.968   7.645  1.1841  0.7286  1.2625
  857MOL0     H18217  12.979   6.123   7.585  0.0944 -0.7170  1.2273
  857MOL0     H18218  12.959   5.884   7.391 -1.4854  1.1258 -1.3444
  857MOL0     H18219  13.044   6.035   7.374  1.0084 -0.6417 -0.5066
  857MOL0     H18220  13.200   5.954   7.558  0.2924  1.6604 -1.5535
  857MOL0     H18221  13.104   5.799   7.552 -1.3362 -0.9400 -3.1102
  857MOL0     H18222  13.142   5.791   7.308 -0.3733 -2.9212  1.1952
  857MOL0     H18223  13.249   5.926   7.322  0.1043  0.3917  0.7413
  857MOL0     H18224  13.484   5.566   7.427 -0.3259  0.4744  2.2111
  857MOL0     H18225  13.845   5.561   7.494 -0.4992  3.6354 -0.0150
  857MOL0     H18226  13.702   5.457   7.510 -2.9629  2.1026  0.0288
  857MOL0     H18227  13.767   5.537   7.656  0.4626  0.5214  0.7275
  857MOL0     H18228  14.078   5.963   7.481 -0.0210 -0.2738 -0.5864
  857MOL0     H18229  14.294   6.046   7.542 -1.6393  0.4767 -1.1585
  857MOL0     H18230  14.519   6.128   7.680 -0.3153  0.8185 -2.2095
  857MOL0     H18231  14.397   6.242   7.610 -0.9567  0.5239  0.2139
  857MOL0     H18232  14.483   6.400   7.808  2.3146 -0.1833  3.3193
  857MOL0     H18233  14.586   6.260   7.849 -2.1794 -1.2332  0.2681
  857MOL0     H18234  14.606   6.437   7.594 -1.8006 -0.7215  0.0465
  857MOL0     H18235  14.696   6.284   7.623 -0.3218  0.1577 -1.1172
  857MOL0     H18236  14.830   6.477   7.673 -0.4201  0.4392  0.3689
  857MOL0     H18237  14.806   6.384   7.811 -0.2473  0.1589  0.0271
  857MOL0     H18238  14.713   6.661   7.741  0.9842  0.7283 -0.0141
  857MOL0     H18239  14.629   6.567   7.875  0.5356  0.1926  2.3308
  857MOL0     H18240  14.837   6.731   7.936  1.2345  0.5063 -1.9523
  857MOL0     H18241  14.919   6.591   7.873  1.6632  2.6821  2.5606
  857MOL0     H18242  14.792   6.462   8.073  2.1503 -0.7980  0.0640
  857MOL0     H18243  14.763   6.627   8.123  0.3476  0.3720 -2.2133
  857MOL0     H18244  15.020   6.462   8.086  0.4121  0.6654 -1.2548
  857MOL0     H18245  14.979   6.533   8.231  0.8830  1.8016 -0.2516
  857MOL0     H18246  14.133   6.135   7.937 -2.4933  0.4650  0.3263
  857MOL0     H18247  13.930   6.007   7.874 -0.4033  0.7922 -0.3298
  857MOL0     H18248  13.642   6.022   7.518  0.4817 -0.2508 -3.2074
  857MOL0     H18249  13.410   5.975   7.465  0.3344  0.4325  2.9769
  857MOL0     H18250  11.534   6.716   7.563  2.4610 -2.0515  0.2502
  857MOL0     H18251  11.347   6.856   7.652  3.7715  1.8808 -3.7521
  857MOL0     H18252  11.106   7.091   7.874  0.1059 -1.5843 -1.2744
  857MOL0     H18253  10.904   7.216   7.963  1.3582  1.7296  0.9781
  857MOL0     H18254  10.795   7.068   8.365 -1.2652 -1.4886 -1.4705
  857MOL0     H18255  10.823   7.251   8.341  1.4824 -0.5095 -2.7544
  857MOL0     H18256  10.606   7.192   8.464  2.6551 -1.1585  0.2762
  857MOL0     H18257  10.577   7.063   8.357  2.0252 -0.0844  2.2911
  857MOL0     H18258  10.521   7.235   8.173  1.2285  0.5879  0.0993
  857MOL0     H18259  10.414   7.252   8.310  0.7798 -0.2960  3.5271
  857MOL0     H18260  10.489   7.478   8.250 -0.5203 -1.6945 -0.7376
  857MOL0     H18261  10.660   7.442   8.251 -1.0597  0.3449 -2.2600
  857MOL0     H18262  10.546   7.498   8.657  1.4392  0.3459  0.1145
  857MOL0     H18263  10.892   6.921   8.270  1.0035  1.1487  1.6168
  857MOL0     H18264  11.200   6.787   8.257  1.2103  1.3416 -2.0196
  857MOL0     H18265  11.041   6.745   8.301 -0.7366 -5.6068 -2.0916
  857MOL0     H18266  11.101   6.683   8.150 -0.6180  0.5123 -0.3221
  858MOL0     O18267   0.811   1.335   5.757 -0.0248  0.2024 -0.1558
  858MOL0     C18268   0.685   1.320   5.742 -0.4865  0.4681 -0.8624
  858MOL0     O18269   0.623   1.323   5.624  0.0945  0.3552  0.1592
  858MOL0     C18270   0.693   1.337   5.504  0.0720 -1.1807  1.5752
  858MOL0     C18271   0.793   1.432   5.485  0.4439 -0.2516 -0.3841
  858MOL0     C18272   0.854   1.451   5.358  0.2007 -0.1693  0.3658
  858MOL0     C18273   0.806   1.381   5.248 -0.2615 -0.0846 -0.0298
  858MOL0     O18274   0.848   1.385   5.119 -0.3854 -0.0630  0.3429
  858MOL0     C18275   0.862   1.520   5.074  0.0098  0.4204  0.2690
  858MOL0     C18276   0.889   1.524   4.930  0.3716 -0.6134 -0.9360
  858MOL0     C18277   0.884   1.668   4.874  0.4896 -0.2029  0.2988
  858MOL0     C18278   0.883   1.655   4.718 -0.7454  0.5543 -0.1941
  858MOL0     C18279   0.904   1.790   4.664  0.2101  0.5604 -0.6947
  858MOL0     C18280   0.891   1.778   4.510 -0.4431  1.1279  0.3258
  858MOL0     C18281   0.944   1.887   4.414 -0.0574 -0.7454  0.2361
  858MOL0     C18282   1.091   1.936   4.457  0.2135  0.0431  0.0303
  858MOL0     N18283   1.185   1.826   4.449  0.1680  0.0919 -0.5907
  858MOL0     C18284   1.236   1.784   4.327 -1.1167 -1.0356  0.2679
  858MOL0     C18285   1.339   1.699   4.359 -0.1054 -0.0854  0.0359
  858MOL0     C18286   1.442   1.655   4.260  0.9241 -0.0865  0.0922
  858MOL0     C18287   1.582   1.644   4.314 -0.7559 -0.2094 -0.5253
  858MOL0     C18288   1.680   1.561   4.225  0.2463  0.2115  1.3046
  858MOL0     C18289   1.827   1.558   4.285 -0.0280 -0.2322 -0.2487
  858MOL0     O18290   1.924   1.522   4.180  0.9794 -0.2842 -0.2636
  858MOL0     C18291   2.051   1.511   4.216 -1.2712 -0.4687 -0.5913
  858MOL0     C18292   2.142   1.468   4.123  0.4659 -0.1165  0.3033
  858MOL0     C18293   2.276   1.438   4.149 -0.4879  0.1071  0.7463
  858MOL0     C18294   2.359   1.384   4.037 -0.3551  0.7121  0.6045
  858MOL0     C18295   2.329   1.472   4.279 -0.7350 -0.5182 -1.3245
  858MOL0     C18296   2.469   1.452   4.322  0.8179 -0.1453 -0.8243
  858MOL0     O18297   2.488   1.472   4.455  0.5400  0.0393  0.6328
  858MOL0     C18298   2.605   1.479   4.521 -0.0923  1.2164 -0.5968
  858MOL0     C18299   2.610   1.582   4.617  0.6229 -0.5005  0.2267
  858MOL0     C18300   2.724   1.607   4.686 -0.6062 -0.4183 -0.2847
  858MOL0     C18301   2.839   1.522   4.666 -0.8308  0.2838 -0.6406
  858MOL0     O18302   2.946   1.522   4.751 -0.4629 -0.2724  0.2954
  858MOL0     C18303   2.976   1.630   4.832 -0.1170 -0.4568 -0.3411
  858MOL0     C18304   3.126   1.631   4.859  0.4084 -0.1637 -0.2566
  858MOL0     C18305   3.175   1.519   4.949 -0.6558 -0.1996 -0.7797
  858MOL0     C18306   3.328   1.511   4.955 -0.9467  0.3589  0.5393
  858MOL0     C18307   3.370   1.372   5.006 -0.4123 -0.2788  0.1514
  858MOL0     C18308   3.523   1.359   5.033 -0.4827 -0.1729  0.8147
  858MOL0     C18309   3.567   1.209   5.063  0.0942  0.9327 -0.5384
  858MOL0     C18310   3.552   1.119   4.941 -0.1644 -0.2478 -0.4414
  858MOL0    Cl18311   3.662   0.978   4.956 -0.2587  0.5436  0.2114
  858MOL0     C18312   2.836   1.427   4.572 -0.6222 -0.2382  0.0088
  858MOL0     C18313   2.721   1.410   4.494  0.3580  0.4184 -0.3364
  858MOL0     O18314   2.556   1.428   4.237  1.5176  0.1495  0.3191
  858MOL0     C18315   2.241   1.518   4.380  0.1346  0.3525 -0.4444
  858MOL0     C18316   2.104   1.539   4.348 -0.0508  1.0385  0.3909
  858MOL0     N18317   1.344   1.702   4.499 -0.8355 -0.0997  0.1130
  858MOL0     N18318   1.260   1.772   4.551 -0.1488  0.7785 -0.5029
  858MOL0     C18319   0.692   1.306   5.265 -0.0175 -0.2044 -0.0669
  858MOL0     C18320   0.640   1.276   5.390  0.6105  0.1854  0.1672
  858MOL0     C18321   0.592   1.311   5.865  0.4648  0.4956 -0.2520
  858MOL0     C18322   0.651   1.341   5.988  0.2370  0.8469 -0.2632
  858MOL0     C18323   0.584   1.330   6.104  0.1944  0.1575  0.0099
  858MOL0     C18324   0.451   1.287   6.112  0.1860  1.0311 -0.1589
  858MOL0     O18325   0.387   1.268   6.236 -0.6649  0.0159 -0.9244
  858MOL0     C18326   0.452   1.184   6.330 -0.5131  0.2867 -0.9774
  858MOL0     C18327   0.452   1.252   6.468 -0.0776  0.7921 -0.2137
  858MOL0     C18328   0.311   1.294   6.517 -0.6389  0.0451 -0.6231
  858MOL0     C18329   0.311   1.272   6.673  0.0130 -0.4842  0.4862
  858MOL0     C18330   0.198   1.342   6.732 -0.0838  1.3458 -0.2688
  858MOL0     C18331   0.092   1.373   6.791  0.0994 -1.0490  0.2340
  858MOL0     C18332   0.382   1.259   5.990 -0.5076 -0.4370 -0.2714
  858MOL0     C18333   0.451   1.282   5.868 -0.9466 -0.8691  0.4118
  858MOL0     C18334   0.380   1.274   5.737  0.2587  0.5268  0.9261
  858MOL0     H18335   0.822   1.508   5.557  0.8506  0.7266 -1.5596
  858MOL0     H18336   0.938   1.519   5.347 -0.7230  0.7492 -1.4953
  858MOL0     H18337   0.943   1.575   5.123  2.6902 -1.0875 -2.1981
  858MOL0     H18338   0.766   1.572   5.086 -0.9755 -1.0954 -0.7052
  858MOL0     H18339   0.990   1.485   4.911  0.6799 -0.6392  0.5888
  858MOL0     H18340   0.809   1.466   4.883 -2.8463  0.9146  2.1499
  858MOL0     H18341   0.792   1.715   4.911  0.4367  1.7623 -2.0980
  858MOL0     H18342   0.962   1.737   4.908 -1.0397  1.2073  1.1285
  858MOL0     H18343   0.970   1.597   4.684 -0.0168 -0.4936  3.0805
  858MOL0     H18344   0.788   1.613   4.687 -0.7364 -1.1919  1.9426
  858MOL0     H18345   0.999   1.836   4.693 -0.9773  1.8653  1.3494
  858MOL0     H18346   0.828   1.861   4.696  0.1268  0.2883 -0.2877
  858MOL0     H18347   0.912   1.676   4.477  0.1762  0.7666  1.7920
  858MOL0     H18348   0.782   1.784   4.498 -0.9025 -1.3931  2.3521
  858MOL0     H18349   0.878   1.972   4.434  1.5186  0.1369  2.1269
  858MOL0     H18350   0.942   1.868   4.307  1.5150  2.1054 -0.4265
  858MOL0     H18351   1.124   2.011   4.384  2.0204 -0.3501  0.3927
  858MOL0     H18352   1.087   1.971   4.561  1.2947  0.0498  0.0746
  858MOL0     H18353   1.211   1.811   4.225  0.2924 -2.9154 -0.6458
  858MOL0     H18354   1.446   1.719   4.172 -0.8720 -3.1386 -2.4211
  858MOL0     H18355   1.400   1.566   4.213 -3.4802  0.8662  1.6860
  858MOL0     H18356   1.626   1.745   4.318  0.6018 -0.7371 -1.4153
  858MOL0     H18357   1.588   1.603   4.415 -1.1725 -1.4638 -1.0016
  858MOL0     H18358   1.643   1.459   4.214  0.1403  0.2589  1.2250
  858MOL0     H18359   1.678   1.608   4.127 -1.5573  0.0348  1.2284
  858MOL0     H18360   1.852   1.657   4.324 -0.4821  0.0029 -0.5445
  858MOL0     H18361   1.829   1.482   4.364 -3.3500 -1.7834 -1.4415
  858MOL0     H18362   2.097   1.461   4.024  1.0147 -0.9484  0.1062
  858MOL0     H18363   2.303   1.381   3.943  1.4082  0.3763 -0.4723
  858MOL0     H18364   2.387   1.280   4.054 -0.3928  0.7543  0.9385
  858MOL0     H18365   2.445   1.449   4.018 -0.1437 -0.2227 -2.0613
  858MOL0     H18366   2.518   1.637   4.637 -0.0032 -1.7873  1.0097
  858MOL0     H18367   2.723   1.692   4.752 -0.4435  0.6979 -1.6778
  858MOL0     H18368   2.969   1.720   4.772  1.3147 -0.8478 -1.1669
  858MOL0     H18369   2.912   1.626   4.920 -0.2946 -0.5639 -0.4751
  858MOL0     H18370   3.176   1.623   4.762 -3.0300 -1.1513 -2.1250
  858MOL0     H18371   3.148   1.722   4.916 -2.4831 -1.5207  3.4617
  858MOL0     H18372   3.147   1.422   4.906  1.5359  0.4167 -3.9409
  858MOL0     H18373   3.142   1.544   5.051 -0.4313  1.3393 -1.0639
  858MOL0     H18374   3.373   1.581   5.027  1.2435 -3.2953  3.0766
  858MOL0     H18375   3.370   1.532   4.857 -2.9986 -1.8392 -0.9222
  858MOL0     H18376   3.323   1.335   5.097 -0.9193 -2.6973 -1.0143
  858MOL0     H18377   3.354   1.290   4.935  0.8500 -0.8733  0.5187
  858MOL0     H18378   3.544   1.415   5.125  0.4430 -0.0210  0.5283
  858MOL0     H18379   3.590   1.386   4.951 -1.6619 -0.1872 -0.1764
  858MOL0     H18380   3.510   1.174   5.150  0.8022 -0.5374 -0.6434
  858MOL0     H18381   3.669   1.201   5.102 -1.0576 -0.1732  2.5194
  858MOL0     H18382   3.582   1.169   4.848  1.5677 -3.7382 -1.9425
  858MOL0     H18383   3.449   1.084   4.940 -0.1400 -0.7295  3.0164
  858MOL0     H18384   2.916   1.354   4.565 -3.5058 -3.9614  1.6669
  858MOL0     H18385   2.711   1.320   4.433 -1.7479 -1.2983  2.3473
  858MOL0     H18386   2.270   1.531   4.483 -0.4328 -0.7555 -0.1292
  858MOL0     H18387   2.056   1.578   4.437  1.3591  0.9079  1.2336
  858MOL0     H18388   0.653   1.269   5.171  1.3038  1.8020 -1.4545
  858MOL0     H18389   0.555   1.210   5.407  0.8967 -0.0846  0.5526
  858MOL0     H18390   0.754   1.370   6.006  1.3311 -2.3519 -0.6372
  858MOL0     H18391   0.640   1.358   6.192 -0.5433 -2.0915  1.2884
  858MOL0     H18392   0.406   1.085   6.335 -0.6311  0.3682 -0.3672
  858MOL0     H18393   0.556   1.161   6.306 -1.2183 -0.5270 -3.5588
  858MOL0     H18394   0.520   1.337   6.473 -0.3105  0.9392  3.5545
  858MOL0     H18395   0.500   1.187   6.542  1.2827  1.0707 -0.8242
  858MOL0     H18396   0.294   1.401   6.497  0.0463  0.4607  0.8484
  858MOL0     H18397   0.229   1.236   6.475 -3.4336  1.9712  1.7045
  858MOL0     H18398   0.400   1.308   6.725 -1.5624  1.0181  2.2800
  858MOL0     H18399   0.298   1.165   6.690  2.6936 -0.8522  0.6047
  858MOL0     H18400   0.010   1.404   6.852 -2.9833 -2.6906 -2.7151
  858MOL0     H18401   0.277   1.237   5.982 -0.4594  0.1015 -4.0943
  858MOL0     H18402   0.275   1.245   5.751 -0.0988  0.0953 -2.0254
  858MOL0     H18403   0.382   1.374   5.693  0.9778  0.4603  0.7958
  858MOL0     H18404   0.423   1.204   5.664 -1.2068 -0.8420  1.3339
  859MOL0     O18405  10.160  11.007  10.076  0.5707 -0.1183 -0.2601
  859MOL0     C18406  10.253  11.085  10.089  0.3819  0.8384 -0.3443
  859MOL0     O18407  10.280  11.162  10.207 -0.0499 -0.3422 -0.1906
  859MOL0     C18408  10.220  11.129  10.329  0.1720  0.1732 -0.7089
  859MOL0     C18409  10.304  11.138  10.445  0.4797 -0.1724  0.7465
  859MOL0     C18410  10.265  11.088  10.567 -0.2067  0.1984  0.1460
  859MOL0     C18411  10.133  11.044  10.589 -0.0253 -0.2224  0.5020
  859MOL0     O18412  10.096  11.008  10.714 -0.3088 -0.3595 -0.9484
  859MOL0     C18413   9.958  10.981  10.734 -0.6787 -0.0181  0.1013
  859MOL0     C18414   9.937  10.942  10.870  0.3128 -0.6675 -0.1090
  859MOL0     C18415   9.808  10.860  10.900  0.5647 -0.1641 -0.6138
  859MOL0     C18416   9.807  10.831  11.046  0.4424 -0.6145 -0.3798
  859MOL0     C18417   9.675  10.755  11.091 -0.3807 -0.0328 -0.0012
  859MOL0     C18418   9.699  10.692  11.238 -0.1819 -0.0031  0.1160
  859MOL0     C18419   9.578  10.608  11.278 -0.0432 -0.3277  0.0511
  859MOL0     C18420   9.565  10.465  11.213  0.5297  0.3566  0.2057
  859MOL0     N18421   9.680  10.376  11.247  0.5850  0.6446 -0.0179
  859MOL0     C18422   9.697  10.300  11.367 -0.5874  0.5993  0.4475
  859MOL0     C18423   9.804  10.221  11.339  0.2557  0.0120 -0.5281
  859MOL0     C18424   9.891  10.166  11.440 -0.0856 -0.2547 -1.3330
  859MOL0     C18425  10.035  10.217  11.426 -0.4743  0.9186 -0.0901
  859MOL0     C18426  10.054  10.355  11.474 -0.2096  0.1632 -0.1485
  859MOL0     C18427  10.195  10.403  11.439 -0.4521  0.3604 -0.7818
  859MOL0     O18428  10.296  10.344  11.518 -0.2363  0.4831 -0.2121
  859MOL0     C18429  10.426  10.390  11.508  0.3053 -0.0630 -0.2695
  859MOL0     C18430  10.475  10.464  11.402  0.2892 -0.8900  0.2996
  859MOL0     C18431  10.610  10.507  11.387  0.7844  0.1672  0.0852
  859MOL0     C18432  10.650  10.551  11.251 -0.1720 -0.1131  0.6390
  859MOL0     C18433  10.699  10.493  11.503 -0.0469 -0.8764 -0.3550
  859MOL0     C18434  10.838  10.540  11.503  0.2812  0.0980 -0.1987
  859MOL0     O18435  10.911  10.494  11.603  0.0693 -0.5015  0.6416
  859MOL0     C18436  11.047  10.535  11.610  0.7494  0.6467 -0.3681
  859MOL0     C18437  11.075  10.661  11.664  0.3303 -0.4643  0.2220
  859MOL0     C18438  11.209  10.693  11.695  0.5235  0.3776 -0.1963
  859MOL0     C18439  11.316  10.598  11.683  0.8993  0.1494  0.5113
  859MOL0     O18440  11.438  10.622  11.742 -0.4683 -0.6259  0.2562
  859MOL0     C18441  11.480  10.549  11.856  0.2425 -0.0181 -0.3392
  859MOL0     C18442  11.595  10.447  11.816 -0.1252 -0.5482 -0.3208
  859MOL0     C18443  11.665  10.408  11.950 -0.2891  0.1822  0.0445
  859MOL0     C18444  11.794  10.326  11.938  0.2522  0.5001  0.0838
  859MOL0     C18445  11.865  10.339  12.072 -0.1292  0.3762  0.3370
  859MOL0     C18446  12.014  10.307  12.049  1.0961 -0.4795 -0.4598
  859MOL0     C18447  12.084  10.335  12.179  0.7226 -0.0137 -0.0551
  859MOL0     C18448  12.231  10.349  12.168  0.0676  0.8909  0.4292
  859MOL0    Cl18449  12.304  10.206  12.079  0.1639 -0.2555  0.2289
  859MOL0     C18450  11.285  10.474  11.638 -0.1583 -0.2797  0.5203
  859MOL0     C18451  11.151  10.439  11.604  0.0025 -0.5692 -0.7915
  859MOL0     O18452  10.886  10.614  11.415 -0.0412 -1.0014  0.1482
  859MOL0     C18453  10.647  10.411  11.617 -0.1868 -0.4601 -0.7623
  859MOL0     C18454  10.517  10.359  11.607  0.2419 -0.1619  0.3093
  859MOL0     N18455   9.837  10.230  11.201 -0.2500 -0.1644 -0.5076
  859MOL0     N18456   9.760  10.321  11.151  0.0865 -1.3078 -0.4250
  859MOL0     C18457  10.051  11.056  10.476 -0.8445  0.1094 -0.1383
  859MOL0     C18458  10.095  11.088  10.352 -0.0889 -0.6487  0.1836
  859MOL0     C18459  10.345  11.098   9.974 -0.5056 -1.2100  0.1925
  859MOL0     C18460  10.312  11.062   9.845  0.1957 -0.3036  0.2214
  859MOL0     C18461  10.395  11.085   9.729  0.3756  0.4357 -0.7114
  859MOL0     C18462  10.514  11.156   9.745  0.8404  0.7035  0.3233
  859MOL0     O18463  10.587  11.197   9.635 -0.0757 -0.7011 -0.0911
  859MOL0     C18464  10.533  11.172   9.509 -0.0302  0.1601  0.2431
  859MOL0     C18465  10.582  11.274   9.404  0.3009 -0.1757  0.7606
  859MOL0     C18466  10.547  11.225   9.262  0.4945 -0.0164 -0.7241
  859MOL0     C18467  10.396  11.220   9.226  0.5537  1.1046  0.1274
  859MOL0     C18468  10.341  11.080   9.204  0.0929 -0.3759 -0.7690
  859MOL0     C18469  10.290  10.970   9.169  0.1722 -0.7058  0.5664
  859MOL0     C18470  10.558  11.178   9.872 -0.4294 -0.5579 -0.2807
  859MOL0     C18471  10.477  11.160   9.990  0.0842 -0.2727 -0.7992
  859MOL0     C18472  10.534  11.210  10.123 -0.0188  0.0986  0.6462
  859MOL0     H18473  10.398  11.188  10.426 -0.3927  0.9434 -1.0269
  859MOL0     H18474  10.334  11.083  10.651 -1.6633 -0.9791  1.3355
  859MOL0     H18475   9.916  10.895  10.682 -1.9463  0.2450  0.6428
  859MOL0     H18476   9.901  11.071  10.709  3.3772  2.6038 -0.7415
  859MOL0     H18477  10.027  10.889  10.902 -1.4196 -2.5780  2.0230
  859MOL0     H18478   9.927  11.032  10.931 -2.5115 -0.7300 -0.3351
  859MOL0     H18479   9.719  10.920  10.877  1.4887  1.8667  0.8079
  859MOL0     H18480   9.807  10.772  10.836 -1.8163  0.7707 -2.0373
  859MOL0     H18481   9.896  10.774  11.072  0.3279  0.8980  4.2797
  859MOL0     H18482   9.820  10.912  11.118  0.2706 -1.8477  1.0878
  859MOL0     H18483   9.668  10.669  11.023  1.7535  1.5257 -2.3519
  859MOL0     H18484   9.589  10.822  11.085 -1.1366 -0.8427  1.2096
  859MOL0     H18485   9.791  10.632  11.244  0.3914  0.4808 -2.3660
  859MOL0     H18486   9.712  10.773  11.309 -0.5270 -3.3856  4.4414
  859MOL0     H18487   9.494  10.666  11.240  2.1106  1.9423 -1.5297
  859MOL0     H18488   9.586  10.610  11.387  0.5096  2.4888  0.0239
  859MOL0     H18489   9.475  10.423  11.259  0.6901 -4.2735 -2.9698
  859MOL0     H18490   9.554  10.470  11.104 -1.0184  0.6623  0.3641
  859MOL0     H18491   9.648  10.304  11.463 -0.2138  1.4628  0.6103
  859MOL0     H18492   9.879  10.059  11.421 -0.8840 -0.1538 -1.4210
  859MOL0     H18493   9.846  10.182  11.538  1.2593  0.6797 -0.8328
  859MOL0     H18494  10.100  10.160  11.493  0.4236  2.1043  0.0896
  859MOL0     H18495  10.074  10.193  11.327 -0.8363 -1.0481  0.1939
  859MOL0     H18496   9.985  10.413  11.411  0.1981  2.4650  1.3905
  859MOL0     H18497  10.048  10.356  11.583  0.5430 -2.7120 -0.0068
  859MOL0     H18498  10.206  10.378  11.333 -0.9692  0.2864 -0.8232
  859MOL0     H18499  10.207  10.512  11.449  2.9476  0.3051 -2.7122
  859MOL0     H18500  10.400  10.499  11.332 -1.5788  1.4194  3.2126
  859MOL0     H18501  10.640  10.659  11.239  2.9371  0.0834 -1.3556
  859MOL0     H18502  10.589  10.498  11.177 -0.8002  2.0410 -0.4547
  859MOL0     H18503  10.757  10.535  11.231 -0.0602  0.0156  1.1017
  859MOL0     H18504  11.002  10.741  11.676 -1.0689 -1.7215  0.3777
  859MOL0     H18505  11.238  10.788  11.738  1.9858 -0.9771  2.0319
  859MOL0     H18506  11.530  10.621  11.923 -2.7754  2.8657 -0.9391
  859MOL0     H18507  11.400  10.491  11.902 -1.4032  1.2393 -1.5385
  859MOL0     H18508  11.545  10.359  11.774  0.7507 -0.9470 -0.5512
  859MOL0     H18509  11.664  10.494  11.745  0.2847  2.8322  2.0748
  859MOL0     H18510  11.599  10.341  12.006 -0.9592  0.6110 -0.2169
  859MOL0     H18511  11.675  10.503  12.003  0.1615  0.9770 -1.4258
  859MOL0     H18512  11.858  10.381  11.869 -0.2400 -0.8723 -1.5426
  859MOL0     H18513  11.781  10.222  11.906 -0.2791 -0.0467  1.9461
  859MOL0     H18514  11.851  10.436  12.120  0.2623  0.3878  0.4321
  859MOL0     H18515  11.825  10.268  12.145  0.4467  1.1522  1.4324
  859MOL0     H18516  12.060  10.370  11.973  0.6206  0.5077  0.0589
  859MOL0     H18517  12.022  10.202  12.018  0.1429 -1.3393  1.9475
  859MOL0     H18518  12.059  10.247  12.239 -0.9691 -0.0799 -0.7986
  859MOL0     H18519  12.041  10.421  12.231 -0.3051 -1.6953  2.0345
  859MOL0     H18520  12.272  10.339  12.269  1.0602  0.2210 -0.0219
  859MOL0     H18521  12.263  10.445  12.126  0.7264 -0.4517 -2.3809
  859MOL0     H18522  11.354  10.391  11.629 -0.6243 -0.6788  0.6012
  859MOL0     H18523  11.134  10.335  11.579 -0.9321 -0.0900 -2.3031
  859MOL0     H18524  10.715  10.396  11.700  1.7907 -0.3006 -2.2682
  859MOL0     H18525  10.482  10.296  11.688  0.4111  0.1321  0.6170
  859MOL0     H18526   9.947  11.029  10.493  0.0509 -1.8484  3.3564
  859MOL0     H18527  10.023  11.085  10.270 -2.5200 -0.4202  2.1993
  859MOL0     H18528  10.212  11.020   9.836 -0.1562 -0.2007  2.7925
  859MOL0     H18529  10.355  11.038   9.640 -2.9996 -3.2971  2.3635
  859MOL0     H18530  10.565  11.073   9.477 -3.2827 -0.9955  0.1963
  859MOL0     H18531  10.426  11.195   9.502  0.4195  2.1801 -0.8216
  859MOL0     H18532  10.692  11.278   9.406  0.3706 -1.4886  0.3793
  859MOL0     H18533  10.555  11.378   9.422  3.3112  0.8386  0.0920
  859MOL0     H18534  10.587  11.287   9.181  2.1079 -1.8375 -1.4025
  859MOL0     H18535  10.598  11.128   9.257  0.5915 -0.1509  1.6682
  859MOL0     H18536  10.369  11.280   9.139 -1.5949 -2.1476 -1.6685
  859MOL0     H18537  10.334  11.270   9.301 -2.6712  0.7677 -2.0777
  859MOL0     H18538  10.222  10.903   9.119  0.2575 -0.8909  0.6955
  859MOL0     H18539  10.658  11.219   9.877 -0.7700  0.5531 -1.9735
  859MOL0     H18540  10.485  11.303  10.153  1.3977  0.2565  2.6960
  859MOL0     H18541  10.522  11.143  10.209  0.3549 -0.8573 -0.0266
  859MOL0     H18542  10.638  11.238  10.110 -0.5983  2.7361  1.2057
  860MOL0     O18543   2.459   8.329   2.685  0.6084 -0.5535  0.1645
  860MOL0     C18544   2.343   8.372   2.689  0.2517 -0.1225  0.1081
  860MOL0     O18545   2.309   8.505   2.699  0.1146 -0.4003 -0.0872
  860MOL0     C18546   2.402   8.606   2.710  0.7619 -0.6741  0.4635
  860MOL0     C18547   2.462   8.632   2.831  0.7662  0.2557  0.3108
  860MOL0     C18548   2.562   8.731   2.836 -0.3905  0.0926  0.0098
  860MOL0     C18549   2.592   8.818   2.729  0.2020 -1.1149 -1.4641
  860MOL0     O18550   2.686   8.920   2.741  0.1593 -0.1609  0.1401
  860MOL0     C18551   2.720   8.957   2.875  0.0765 -0.3985  0.4374
  860MOL0     C18552   2.819   9.070   2.891  0.0673 -0.2634  0.5627
  860MOL0     C18553   2.966   9.026   2.847  0.3312  0.1537 -0.5078
  860MOL0     C18554   2.997   9.049   2.704 -0.2184 -0.0457  0.3512
  860MOL0     C18555   3.135   8.997   2.664  0.1162  0.6245  0.3221
  860MOL0     C18556   3.251   9.087   2.709 -0.1247 -0.1462  0.0078
  860MOL0     C18557   3.387   9.033   2.674 -1.2409 -1.1932  0.7334
  860MOL0     C18558   3.507   9.139   2.680  0.4591 -0.3543  0.8636
  860MOL0     N18559   3.619   9.102   2.589  0.7503 -0.1186  0.6829
  860MOL0     C18560   3.678   8.977   2.584 -0.1577  0.0779  0.5748
  860MOL0     C18561   3.788   8.986   2.505 -0.3536  0.3942  0.7699
  860MOL0     C18562   3.881   8.867   2.484  0.0146 -0.2732 -0.1282
  860MOL0     C18563   4.014   8.893   2.551 -0.3821  0.2817 -0.2888
  860MOL0     C18564   4.030   8.883   2.696 -0.0582 -0.0894 -0.1637
  860MOL0     C18565   3.954   8.752   2.760  0.1990  0.0587  0.1105
  860MOL0     O18566   3.992   8.630   2.688 -0.3396 -0.1989 -0.2188
  860MOL0     C18567   4.124   8.591   2.684  0.2635 -0.4160 -0.0251
  860MOL0     C18568   4.161   8.486   2.601  0.5096  0.2229 -1.0692
  860MOL0     C18569   4.289   8.437   2.595  0.2576 -0.0697 -0.4352
  860MOL0     C18570   4.318   8.309   2.516  0.3068 -0.0407 -0.0451
  860MOL0     C18571   4.396   8.503   2.676  0.0445 -0.0068 -0.2041
  860MOL0     C18572   4.544   8.469   2.686  0.0536 -0.8737 -0.3135
  860MOL0     O18573   4.626   8.545   2.779  0.5887  0.0767 -0.2242
  860MOL0     C18574   4.756   8.489   2.799  0.2847 -0.0203 -0.8695
  860MOL0     C18575   4.861   8.493   2.708  0.0836  0.2768 -0.7574
  860MOL0     C18576   4.994   8.451   2.737  0.7969 -0.0279  0.4546
  860MOL0     C18577   5.022   8.403   2.868 -0.2205  0.5340  0.3594
  860MOL0     O18578   5.143   8.343   2.892 -0.5273 -0.6807 -0.1715
  860MOL0     C18579   5.197   8.357   3.020  0.0211 -0.5200  0.4195
  860MOL0     C18580   5.347   8.306   3.021 -0.6795  0.2257 -0.3113
  860MOL0     C18581   5.404   8.287   3.161  0.5101  0.5340 -0.1095
  860MOL0     C18582   5.550   8.245   3.145 -0.0451 -0.2512 -0.5270
  860MOL0     C18583   5.626   8.204   3.267 -0.4654  0.2377 -0.3056
  860MOL0     C18584   5.778   8.184   3.244  0.1732 -0.0492  0.4266
  860MOL0     C18585   5.826   8.110   3.367 -0.1426  0.7114 -0.0035
  860MOL0     C18586   5.967   8.045   3.334 -0.9101  0.0156 -0.1444
  860MOL0    Cl18587   5.945   7.907   3.213  0.0790  0.0556 -0.1626
  860MOL0     C18588   4.918   8.403   2.961  0.8266 -1.5375 -0.6679
  860MOL0     C18589   4.785   8.440   2.925 -0.0694 -0.0851  0.2517
  860MOL0     O18590   4.580   8.364   2.632 -0.1510  0.4046  0.1314
  860MOL0     C18591   4.358   8.607   2.752 -0.1970 -0.1766 -0.2673
  860MOL0     C18592   4.226   8.645   2.757 -0.0182 -0.0698 -0.5138
  860MOL0     N18593   3.798   9.112   2.468  0.2681  0.3796  0.2506
  860MOL0     N18594   3.687   9.183   2.501  0.0046  0.1491  0.1582
  860MOL0     C18595   2.529   8.793   2.610  0.5435 -0.1053 -0.1228
  860MOL0     C18596   2.432   8.685   2.595 -0.4217 -0.3656  0.0650
  860MOL0     C18597   2.223   8.276   2.697  0.2444 -0.1497 -0.0826
  860MOL0     C18598   2.105   8.328   2.755  0.2842 -0.1984 -0.6369
  860MOL0     C18599   1.993   8.251   2.778 -0.0553 -0.2553 -0.3624
  860MOL0     C18600   1.994   8.119   2.740  1.3411  0.3139  0.1043
  860MOL0     O18601   1.899   8.029   2.774 -0.5651 -0.3750  0.0532
  860MOL0     C18602   1.781   8.066   2.840 -0.1634  0.5842 -0.8546
  860MOL0     C18603   1.680   8.162   2.768  0.1040 -0.7089 -0.2354
  860MOL0     C18604   1.557   8.097   2.700 -0.1649  0.3849 -0.3265
  860MOL0     C18605   1.603   7.982   2.605 -0.4517  0.4649  0.5414
  860MOL0     C18606   1.690   8.023   2.486  0.7346  0.0550 -0.0791
  860MOL0     C18607   1.759   8.046   2.383  0.1004  0.2786  0.2038
  860MOL0     C18608   2.098   8.060   2.673 -0.6190 -0.2493 -0.2599
  860MOL0     C18609   2.215   8.134   2.657  0.2252 -0.0214 -0.2679
  860MOL0     C18610   2.336   8.056   2.601  0.1793  1.1002 -0.0407
  860MOL0     H18611   2.432   8.576   2.919 -0.2668  1.4514  0.7485
  860MOL0     H18612   2.599   8.754   2.935 -1.1554 -0.2429  0.3835
  860MOL0     H18613   2.769   8.873   2.925 -2.4187 -0.1411  3.6749
  860MOL0     H18614   2.632   8.990   2.931  0.8008  2.4293  0.0737
  860MOL0     H18615   2.789   9.151   2.824 -2.9737 -0.8055  1.1327
  860MOL0     H18616   2.832   9.113   2.991  0.2294  0.9382  0.0511
  860MOL0     H18617   3.031   9.089   2.910  1.3313 -0.4760 -0.8955
  860MOL0     H18618   2.981   8.921   2.871  0.0935 -0.4180 -2.6983
  860MOL0     H18619   2.926   9.002   2.636  2.4508 -2.7337 -0.8229
  860MOL0     H18620   2.991   9.157   2.692 -0.5215 -0.2975 -2.4713
  860MOL0     H18621   3.136   8.987   2.555  0.6343  0.9378  0.2914
  860MOL0     H18622   3.139   8.899   2.714 -2.0913  1.7061  2.8614
  860MOL0     H18623   3.237   9.188   2.668 -1.2731 -1.0785 -2.0166
  860MOL0     H18624   3.241   9.079   2.818  0.4371 -1.4443 -0.0205
  860MOL0     H18625   3.376   8.998   2.571 -1.5929 -0.2249  0.4332
  860MOL0     H18626   3.412   8.951   2.741  0.9771 -3.3816 -2.4866
  860MOL0     H18627   3.479   9.239   2.644  1.4546 -0.8164 -1.3134
  860MOL0     H18628   3.535   9.151   2.785 -0.5759 -2.0497  1.3757
  860MOL0     H18629   3.658   8.893   2.650  1.2042  1.8604  3.4491
  860MOL0     H18630   3.898   8.863   2.376  0.1895  3.5325 -0.3756
  860MOL0     H18631   3.843   8.770   2.517  1.0080 -0.3327  0.9223
  860MOL0     H18632   4.087   8.822   2.512  1.3905  1.2105  1.1496
  860MOL0     H18633   4.053   8.991   2.522 -0.4868  0.0245 -1.3181
  860MOL0     H18634   4.134   8.895   2.726 -0.3816  1.8936  0.2800
  860MOL0     H18635   3.980   8.971   2.737 -0.4139 -0.6409  0.6367
  860MOL0     H18636   3.975   8.733   2.865  1.8216  1.3422  0.0566
  860MOL0     H18637   3.847   8.774   2.759  0.6023  2.3516  0.8963
  860MOL0     H18638   4.093   8.426   2.542  0.8888 -1.1377 -0.1722
  860MOL0     H18639   4.222   8.258   2.503 -0.3219  0.2889  2.7220
  860MOL0     H18640   4.382   8.242   2.574  1.1351  1.0526  0.3262
  860MOL0     H18641   4.364   8.334   2.420 -0.0495  0.4981 -0.0792
  860MOL0     H18642   4.837   8.542   2.615 -0.4224 -0.2573 -0.9130
  860MOL0     H18643   5.073   8.450   2.663  0.1733  1.3403 -0.2526
  860MOL0     H18644   5.184   8.460   3.056 -2.8694 -0.9208  0.8195
  860MOL0     H18645   5.145   8.289   3.089  0.4903 -2.2836 -0.9029
  860MOL0     H18646   5.336   8.203   2.984 -2.1155 -0.0592  0.7730
  860MOL0     H18647   5.421   8.357   2.959  2.1954 -2.0966  0.9484
  860MOL0     H18648   5.342   8.212   3.212 -0.6829  0.2644 -1.8351
  860MOL0     H18649   5.403   8.381   3.216  0.3217 -1.2220  3.1176
  860MOL0     H18650   5.606   8.326   3.096  1.2020 -0.3572  0.6420
  860MOL0     H18651   5.551   8.159   3.078 -0.7078 -0.9275  0.3092
  860MOL0     H18652   5.612   8.272   3.352  2.0442  1.4289 -0.7545
  860MOL0     H18653   5.589   8.108   3.305  0.8431 -0.0795  0.2167
  860MOL0     H18654   5.832   8.278   3.226 -0.2166 -0.4267 -3.4087
  860MOL0     H18655   5.791   8.126   3.153  2.6455 -0.4803  0.9696
  860MOL0     H18656   5.775   8.018   3.397  1.2809 -0.1208 -0.0482
  860MOL0     H18657   5.839   8.179   3.451 -0.6082 -1.0275  1.5406
  860MOL0     H18658   6.016   8.014   3.427  3.2945 -0.6987 -2.3556
  860MOL0     H18659   6.038   8.115   3.290 -0.1691 -2.1335 -2.5735
  860MOL0     H18660   4.936   8.379   3.065  1.1756 -0.0082 -0.3563
  860MOL0     H18661   4.711   8.425   3.004  1.5999  0.2115  1.9383
  860MOL0     H18662   4.418   8.656   2.828  1.2189  1.8138 -2.5086
  860MOL0     H18663   4.203   8.721   2.831  1.8872  1.0692 -1.0230
  860MOL0     H18664   2.554   8.854   2.523  0.4103 -0.1196 -0.1709
  860MOL0     H18665   2.380   8.676   2.500 -0.3495  1.5085 -0.1874
  860MOL0     H18666   2.107   8.432   2.786  1.5239 -0.2074 -0.6407
  860MOL0     H18667   1.915   8.287   2.845  1.5529 -0.6764  1.8459
  860MOL0     H18668   1.724   7.975   2.858 -1.1731  1.4273  0.3339
  860MOL0     H18669   1.811   8.112   2.934 -0.9736 -1.2472  0.3415
  860MOL0     H18670   1.729   8.232   2.700 -4.0375  3.2628  0.4553
  860MOL0     H18671   1.638   8.227   2.845 -1.1200 -0.5080 -1.0534
  860MOL0     H18672   1.489   8.061   2.778  0.6257  1.7471  1.0536
  860MOL0     H18673   1.490   8.164   2.647 -1.9780 -0.8848  0.2484
  860MOL0     H18674   1.510   7.941   2.565 -0.5705  1.9729 -0.8142
  860MOL0     H18675   1.658   7.904   2.658  1.5158  0.4827 -1.3315
  860MOL0     H18676   1.808   8.065   2.290  1.4562 -0.7353  0.6851
  860MOL0     H18677   2.097   7.956   2.645  1.2822 -1.2398  2.8529
  860MOL0     H18678   2.358   8.080   2.496 -2.6710  1.2114 -0.7051
  860MOL0     H18679   2.415   8.076   2.673 -2.1976 -0.3722  3.2011
  860MOL0     H18680   2.317   7.949   2.611  0.2773  1.3414  5.1746
  861MOL0     O18681   9.234   6.769   0.482  0.0333  0.4040  0.2459
  861MOL0     C18682   9.168   6.734   0.583  1.0640  0.4350 -0.0840
  861MOL0     O18683   9.121   6.603   0.604 -0.4076 -0.4037  0.3759
  861MOL0     C18684   9.154   6.499   0.516  0.4838 -0.4088  0.9245
  861MOL0     C18685   9.053   6.420   0.484 -0.2623  1.2645  0.0935
  861MOL0     C18686   9.073   6.309   0.403 -0.8758 -0.1400  0.1860
  861MOL0     C18687   9.207   6.282   0.350 -0.6399 -0.0442  0.2609
  861MOL0     O18688   9.232   6.176   0.269  0.0046  0.1818 -0.3462
  861MOL0     C18689   9.381   6.151   0.244  1.1634  0.4635  0.0343
  861MOL0     C18690   9.396   6.023   0.161 -0.0553  0.0417  0.1635
  861MOL0     C18691   9.332   5.903   0.235  0.2946  0.1214  0.0926
  861MOL0     C18692   9.403   5.773   0.201  0.4587  0.2075  0.0906
  861MOL0     C18693   9.533   5.742   0.290 -0.0643  0.0753  0.0720
  861MOL0     C18694   9.555   5.589   0.314 -0.1089  0.0567 -0.1303
  861MOL0     C18695   9.700   5.554   0.341  0.0819 -0.1961 -0.0312
  861MOL0     C18696   9.783   5.544   0.210 -0.0305  0.0996 -0.1113
  861MOL0     N18697   9.927   5.547   0.233  0.0797  0.0925  1.0107
  861MOL0     C18698   9.998   5.637   0.308 -0.0863 -0.2237  0.1467
  861MOL0     C18699  10.132   5.592   0.301  0.1108 -0.9475 -1.0562
  861MOL0     C18700  10.265   5.664   0.332  0.6480 -0.2690  0.3614
  861MOL0     C18701  10.242   5.797   0.413  0.6727  0.8556  0.6894
  861MOL0     C18702  10.370   5.860   0.467 -0.6383 -0.9319 -0.4101
  861MOL0     C18703  10.338   5.992   0.537 -0.9746 -0.0818 -0.0984
  861MOL0     O18704  10.468   6.048   0.560 -0.3045 -0.4274  0.1370
  861MOL0     C18705  10.529   6.045   0.685  0.5966  0.1028  0.1050
  861MOL0     C18706  10.457   6.045   0.808 -0.2850  0.3019 -0.3064
  861MOL0     C18707  10.517   6.055   0.931 -0.6722 -0.5325  0.1361
  861MOL0     C18708  10.439   6.071   1.060  0.3132 -0.0036  0.1185
  861MOL0     C18709  10.657   6.063   0.931 -0.5034  0.3375  0.2764
  861MOL0     C18710  10.745   6.059   1.053  0.1725  0.3530  0.9099
  861MOL0     O18711  10.767   5.936   1.104 -0.0772 -0.0210 -0.9633
  861MOL0     C18712  10.837   5.925   1.224  0.6351 -0.1095 -1.1174
  861MOL0     C18713  10.826   6.008   1.339 -0.0580 -0.4027 -0.5596
  861MOL0     C18714  10.885   5.973   1.465 -0.1420 -0.2271  0.2751
  861MOL0     C18715  10.949   5.849   1.474  0.1914  1.1714 -0.4327
  861MOL0     O18716  10.983   5.790   1.596  0.2722  0.2773 -0.0701
  861MOL0     C18717  11.032   5.885   1.690 -1.0148 -0.9148 -0.3691
  861MOL0     C18718  11.179   5.844   1.719  0.0139 -0.4522  0.6173
  861MOL0     C18719  11.226   5.913   1.849  0.2272  0.3212 -0.1222
  861MOL0     C18720  11.380   5.924   1.864  0.3546 -0.2186  0.3713
  861MOL0     C18721  11.425   5.975   2.001 -0.5619 -0.4936  0.3471
  861MOL0     C18722  11.578   5.953   2.005  0.0514 -1.0552  0.1621
  861MOL0     C18723  11.632   5.994   2.143 -0.8429 -0.5706  0.5553
  861MOL0     C18724  11.786   5.990   2.140  0.7184  0.0109  0.1779
  861MOL0    Cl18725  11.829   6.001   2.304 -0.0383 -0.0066  0.1154
  861MOL0     C18726  10.959   5.762   1.365 -0.9226  0.1744 -0.0679
  861MOL0     C18727  10.906   5.803   1.238  0.5714  0.4947 -0.8855
  861MOL0     O18728  10.804   6.160   1.088  0.6164  0.0028  0.0365
  861MOL0     C18729  10.729   6.063   0.812  0.1136 -0.4477  0.2015
  861MOL0     C18730  10.666   6.055   0.689  0.0921 -0.0913 -1.4978
  861MOL0     N18731  10.133   5.487   0.216 -0.3112 -0.3267  0.4942
  861MOL0     N18732  10.015   5.458   0.177 -0.4415  0.1233 -0.6610
  861MOL0     C18733   9.308   6.373   0.382  0.7612  0.1856  0.4899
  861MOL0     C18734   9.279   6.485   0.460 -0.3315 -0.3590 -0.3078
  861MOL0     C18735   9.141   6.835   0.689  0.1317 -0.2471 -0.1509
  861MOL0     C18736   9.056   6.805   0.797  0.0787 -0.0456  0.5065
  861MOL0     C18737   9.010   6.889   0.899 -1.0289 -0.6202  0.0361
  861MOL0     C18738   9.068   7.014   0.901  0.6626  0.1054  0.2583
  861MOL0     O18739   9.044   7.097   1.009 -0.3184 -0.2067  1.5296
  861MOL0     C18740   8.926   7.182   0.980 -1.2015 -0.1536  0.1827
  861MOL0     C18741   8.836   7.201   1.102  0.2165 -0.6084 -0.0402
  861MOL0     C18742   8.738   7.083   1.110  0.0493  0.3671 -0.1799
  861MOL0     C18743   8.616   7.125   1.022  0.8345 -0.6023  0.6072
  861MOL0     C18744   8.534   7.003   1.029 -0.4853 -0.1697 -0.2242
  861MOL0     C18745   8.444   6.918   1.024 -0.9646 -0.5342 -0.8816
  861MOL0     C18746   9.168   7.051   0.800  0.3909  0.4204  0.5424
  861MOL0     C18747   9.198   6.967   0.696 -0.4946 -0.5826  0.0644
  861MOL0     C18748   9.304   7.017   0.592 -0.2567 -0.4694 -0.4110
  861MOL0     H18749   8.953   6.443   0.521 -0.2356  0.4225  0.7370
  861MOL0     H18750   8.985   6.250   0.376 -0.0760 -0.7052 -1.2914
  861MOL0     H18751   9.433   6.132   0.339 -3.2152 -0.0811  2.6383
  861MOL0     H18752   9.429   6.228   0.184  2.5740  0.2901  0.9014
  861MOL0     H18753   9.354   6.036   0.061  2.7607  1.9570 -0.8940
  861MOL0     H18754   9.499   6.002   0.130 -0.5270 -1.4660 -0.4247
  861MOL0     H18755   9.338   5.918   0.343  1.6637  2.0999 -0.2164
  861MOL0     H18756   9.225   5.898   0.210  0.1208 -3.2270  1.1032
  861MOL0     H18757   9.332   5.695   0.231 -0.6954  0.2107 -2.3902
  861MOL0     H18758   9.418   5.766   0.093 -1.4764 -1.2118 -0.1375
  861MOL0     H18759   9.517   5.779   0.392  4.0749  1.2678  0.4587
  861MOL0     H18760   9.629   5.781   0.255  0.6500 -2.1313 -0.6465
  861MOL0     H18761   9.495   5.549   0.397  0.7348  2.1834  1.6397
  861MOL0     H18762   9.513   5.536   0.228 -2.3874  2.5297 -0.6776
  861MOL0     H18763   9.699   5.455   0.387  4.3137 -1.7581 -2.7168
  861MOL0     H18764   9.735   5.632   0.411 -2.9311  2.0893 -0.8642
  861MOL0     H18765   9.753   5.452   0.158 -1.8315  0.0921  0.8554
  861MOL0     H18766   9.749   5.625   0.145  0.5083 -0.0766 -0.6277
  861MOL0     H18767   9.959   5.722   0.363 -0.2591 -0.8051  0.9356
  861MOL0     H18768  10.326   5.686   0.244 -1.1887 -3.0015 -1.7784
  861MOL0     H18769  10.324   5.597   0.395  0.6681 -1.1883 -0.5977
  861MOL0     H18770  10.201   5.862   0.336 -0.0869 -0.8593 -0.4299
  861MOL0     H18771  10.170   5.781   0.494 -1.9524 -0.2499 -1.6887
  861MOL0     H18772  10.413   5.782   0.531  0.1703 -0.5006 -0.4261
  861MOL0     H18773  10.434   5.875   0.381 -0.7351 -1.4979 -0.5819
  861MOL0     H18774  10.273   6.059   0.479 -0.8247 -0.7040 -0.9972
  861MOL0     H18775  10.272   5.976   0.624  2.4884 -1.6578  2.4548
  861MOL0     H18776  10.348   6.036   0.806 -0.5358  2.4935  0.5439
  861MOL0     H18777  10.429   5.971   1.102  1.0829 -0.1237  0.0424
  861MOL0     H18778  10.339   6.110   1.041  0.4672 -0.1343 -1.0921
  861MOL0     H18779  10.490   6.137   1.131 -1.1004  1.5177 -0.2126
  861MOL0     H18780  10.773   6.101   1.357  1.8606  0.3150  1.8081
  861MOL0     H18781  10.873   6.046   1.544 -1.0125 -0.4900  0.4036
  861MOL0     H18782  11.040   5.991   1.662  1.4262 -0.4605  1.6739
  861MOL0     H18783  10.978   5.862   1.782  2.0544 -3.1541  1.0815
  861MOL0     H18784  11.184   5.736   1.736 -0.8099 -0.3509  1.5323
  861MOL0     H18785  11.243   5.868   1.632 -0.4160  1.5701  0.8035
  861MOL0     H18786  11.192   5.844   1.927  0.5869 -0.5660 -0.7372
  861MOL0     H18787  11.189   6.016   1.855 -0.0013  0.1939  0.7414
  861MOL0     H18788  11.430   5.989   1.791 -0.7219 -0.9236 -1.0284
  861MOL0     H18789  11.422   5.824   1.850 -0.3934 -0.7103  1.4850
  861MOL0     H18790  11.395   6.077   2.028  1.8960 -0.1225  2.0469
  861MOL0     H18791  11.383   5.906   2.074 -2.9466  0.8558  0.3506
  861MOL0     H18792  11.625   6.013   1.927 -1.0263 -0.8306 -0.3383
  861MOL0     H18793  11.605   5.850   1.980  1.6796 -0.7885  0.7061
  861MOL0     H18794  11.579   5.929   2.214  0.4116  0.2581  2.3143
  861MOL0     H18795  11.592   6.094   2.163 -1.3196 -0.0043 -2.7412
  861MOL0     H18796  11.814   6.088   2.101 -0.9061  0.3546 -0.2135
  861MOL0     H18797  11.840   5.912   2.085 -0.8563  0.2967 -1.8956
  861MOL0     H18798  11.008   5.666   1.380 -0.7700  0.1457 -0.6972
  861MOL0     H18799  10.907   5.732   1.155  0.6866  0.4883 -0.8783
  861MOL0     H18800  10.836   6.076   0.829  0.0442  1.2441 -0.4582
  861MOL0     H18801  10.734   6.051   0.604  4.2940 -0.2869  1.5428
  861MOL0     H18802   9.403   6.375   0.329  1.5785  2.0458  1.9170
  861MOL0     H18803   9.356   6.557   0.483  1.1607 -2.8978  3.5213
  861MOL0     H18804   9.017   6.704   0.795  3.2099 -1.3720  0.0425
  861MOL0     H18805   8.929   6.869   0.968 -1.8825 -0.1092 -0.7839
  861MOL0     H18806   8.964   7.281   0.955  2.1182 -0.9270  1.5820
  861MOL0     H18807   8.872   7.150   0.890  1.6129 -0.5514 -1.4864
  861MOL0     H18808   8.787   7.298   1.095  2.3233  0.4956 -0.3409
  861MOL0     H18809   8.899   7.209   1.191  1.1321 -0.5197 -0.6797
  861MOL0     H18810   8.789   6.996   1.068  1.8569  0.7260  1.1188
  861MOL0     H18811   8.705   7.059   1.212  3.0852 -1.9963  0.3890
  861MOL0     H18812   8.650   7.136   0.919 -0.8858  0.8440  0.1631
  861MOL0     H18813   8.548   7.207   1.045 -3.9917 -3.5844 -1.5896
  861MOL0     H18814   8.363   6.849   1.033 -1.8091  0.6582  2.1681
  861MOL0     H18815   9.223   7.145   0.806  0.1667  0.5269  0.9914
  861MOL0     H18816   9.397   6.959   0.600 -0.4255 -0.5702  0.9663
  861MOL0     H18817   9.267   7.009   0.489 -1.3265 -1.0010 -0.0007
  861MOL0     H18818   9.327   7.123   0.606  3.3736 -1.1841  0.0903
  862MOL0     O18819   4.425   0.622   4.038  0.1816  0.0987  0.0536
  862MOL0     C18820   4.378   0.711   3.974 -0.1447 -0.0434  0.0456
  862MOL0     O18821   4.443   0.772   3.869 -0.5098  0.1467  0.7569
  862MOL0     C18822   4.579   0.760   3.826  0.0974 -0.0531 -0.6577
  862MOL0     C18823   4.622   0.861   3.744 -0.1640  0.3975  0.6913
  862MOL0     C18824   4.757   0.876   3.709  0.8013  0.0142 -1.3545
  862MOL0     C18825   4.844   0.780   3.739 -0.3098  0.0263 -0.3804
  862MOL0     O18826   4.977   0.798   3.703 -0.5402 -1.5247 -0.6317
  862MOL0     C18827   5.065   0.688   3.713 -0.8525  0.1179  0.0771
  862MOL0     C18828   5.208   0.709   3.646  0.0838  0.0838  0.3997
  862MOL0     C18829   5.270   0.841   3.695 -0.2519  0.0615 -0.5036
  862MOL0     C18830   5.320   0.846   3.841 -0.1279 -0.0780 -0.9638
  862MOL0     C18831   5.417   0.970   3.866 -0.5114 -0.1381 -0.5680
  862MOL0     C18832   5.549   0.959   3.800  1.0249 -0.8989  0.2338
  862MOL0     C18833   5.644   1.073   3.847  0.4408  0.2894  0.4387
  862MOL0     C18834   5.781   1.048   3.789 -0.1159 -0.1410  0.8234
  862MOL0     N18835   5.861   1.165   3.824  0.4851  1.1353 -0.0539
  862MOL0     C18836   5.848   1.291   3.768  0.3537 -0.0942  0.1006
  862MOL0     C18837   5.916   1.370   3.841 -0.5027 -0.2697 -1.4458
  862MOL0     C18838   5.939   1.505   3.793  0.3306 -0.5612 -0.3311
  862MOL0     C18839   6.042   1.586   3.860  0.4550 -0.5093 -0.2596
  862MOL0     C18840   6.087   1.715   3.779 -0.1387 -0.0126  0.2165
  862MOL0     C18841   6.122   1.704   3.637 -0.2345  0.4456  0.3645
  862MOL0     O18842   6.224   1.610   3.620  0.3916 -0.3774  0.3274
  862MOL0     C18843   6.358   1.649   3.640 -1.2059  0.2920  0.0356
  862MOL0     C18844   6.409   1.778   3.648  0.2747  0.9947 -0.6711
  862MOL0     C18845   6.544   1.803   3.650  0.2966  0.4604 -0.8770
  862MOL0     C18846   6.586   1.950   3.672  0.9036  0.1488 -0.0742
  862MOL0     C18847   6.637   1.698   3.656 -0.5676  0.4755 -0.3963
  862MOL0     C18848   6.784   1.711   3.669  0.0389  0.0302  0.5919
  862MOL0     O18849   6.858   1.600   3.669 -0.6500  0.0767  0.0801
  862MOL0     C18850   6.987   1.594   3.704 -0.1441 -0.7457 -0.0706
  862MOL0     C18851   7.026   1.597   3.837  0.1027 -0.1955 -0.8226
  862MOL0     C18852   7.163   1.582   3.878 -0.5194  0.7564  0.1029
  862MOL0     C18853   7.264   1.571   3.778  0.5214  0.0592 -0.8916
  862MOL0     O18854   7.389   1.552   3.829 -1.1127 -0.6309  0.1739
  862MOL0     C18855   7.469   1.443   3.786  0.3429  0.1893  0.1252
  862MOL0     C18856   7.603   1.440   3.856  0.0552  0.5462  0.3050
  862MOL0     C18857   7.699   1.530   3.768  0.6249 -1.0183  0.0766
  862MOL0     C18858   7.821   1.570   3.850  0.4283  0.6305  0.4898
  862MOL0     C18859   7.925   1.637   3.755  0.5337 -0.5155 -0.1929
  862MOL0     C18860   8.055   1.684   3.840  0.1895  0.7647  0.9345
  862MOL0     C18861   8.035   1.820   3.900 -0.4699 -0.2068 -0.0971
  862MOL0     C18862   8.173   1.871   3.946  0.8828 -0.3486 -0.4272
  862MOL0    Cl18863   8.215   1.765   4.086  0.5343  0.0250  0.5535
  862MOL0     C18864   7.229   1.568   3.646  0.7319  0.2587  0.3575
  862MOL0     C18865   7.093   1.578   3.614 -0.1682  0.0439  0.4747
  862MOL0     O18866   6.827   1.820   3.709 -0.3449 -0.1205  1.3422
  862MOL0     C18867   6.591   1.570   3.642  0.1996 -0.0339 -0.4897
  862MOL0     C18868   6.453   1.547   3.629  0.0804 -0.4312  0.0003
  862MOL0     N18869   5.967   1.298   3.946 -0.2328  0.6922  0.0553
  862MOL0     N18870   5.937   1.168   3.938 -0.3619  0.0049  0.5192
  862MOL0     C18871   4.799   0.665   3.824 -1.4356 -1.0828  0.7537
  862MOL0     C18872   4.666   0.658   3.872  0.4044 -0.3840  0.4119
  862MOL0     C18873   4.256   0.770   4.031 -0.4291 -1.1734  0.6044
  862MOL0     C18874   4.189   0.869   3.950 -0.4398  0.7903 -0.1893
  862MOL0     C18875   4.064   0.925   3.981 -0.0970 -0.0555 -0.2196
  862MOL0     C18876   3.993   0.876   4.085 -0.1581 -0.0702 -0.3962
  862MOL0     O18877   3.869   0.925   4.116 -0.5052  0.4183  0.2113
  862MOL0     C18878   3.794   0.906   4.231 -0.1267 -0.0462 -0.5188
  862MOL0     C18879   3.845   0.990   4.357 -0.0588 -0.0728  0.1708
  862MOL0     C18880   3.878   1.136   4.315  0.2910  0.0944  0.7272
  862MOL0     C18881   3.926   1.236   4.427 -0.2693 -0.1977 -0.3152
  862MOL0     C18882   3.810   1.297   4.500 -0.0462  0.1928 -0.1791
  862MOL0     C18883   3.727   1.333   4.583  0.0837  0.9954  0.8610
  862MOL0     C18884   4.053   0.786   4.175 -0.6296 -0.0999  0.5918
  862MOL0     C18885   4.189   0.741   4.150  1.3934  0.4571  0.1932
  862MOL0     C18886   4.245   0.636   4.245  0.4557 -0.2160  0.2891
  862MOL0     H18887   4.545   0.929   3.707  0.0259  0.0262 -0.4421
  862MOL0     H18888   4.786   0.971   3.664  0.0356  1.8818  1.7474
  862MOL0     H18889   5.011   0.599   3.678 -1.2815  0.8965 -1.3313
  862MOL0     H18890   5.086   0.671   3.819  0.1649 -1.4321 -0.3361
  862MOL0     H18891   5.274   0.625   3.672 -2.0437 -1.2032  1.9769
  862MOL0     H18892   5.186   0.704   3.539 -1.3365 -3.1748  0.7113
  862MOL0     H18893   5.353   0.867   3.629 -0.4854  5.7259  0.9175
  862MOL0     H18894   5.197   0.922   3.686 -4.1543 -3.2190 -1.7061
  862MOL0     H18895   5.241   0.854   3.916 -0.5935 -0.5844 -1.3946
  862MOL0     H18896   5.378   0.755   3.859  0.0726 -0.8182 -4.4769
  862MOL0     H18897   5.432   0.989   3.973  0.3603 -1.1413 -0.4960
  862MOL0     H18898   5.364   1.060   3.834 -0.9255 -0.4609 -0.8075
  862MOL0     H18899   5.584   0.859   3.827 -0.7421 -1.0949  1.9770
  862MOL0     H18900   5.536   0.974   3.692  0.2094  0.6933  0.5256
  862MOL0     H18901   5.645   1.070   3.956 -0.0665 -0.1967  0.4329
  862MOL0     H18902   5.607   1.172   3.815  0.0288  0.3623  1.1211
  862MOL0     H18903   5.828   0.954   3.820 -1.1375 -1.6822 -1.9847
  862MOL0     H18904   5.768   1.042   3.681  1.9797  1.7663  0.3766
  862MOL0     H18905   5.792   1.319   3.679 -0.3121 -1.8863 -0.0950
  862MOL0     H18906   5.846   1.562   3.795  1.9409  2.2401 -0.3110
  862MOL0     H18907   5.963   1.486   3.688 -2.7738 -2.7890 -0.7902
  862MOL0     H18908   6.012   1.623   3.958 -0.1461 -1.9305  0.1171
  862MOL0     H18909   6.130   1.525   3.881  0.9617  0.0422 -0.7090
  862MOL0     H18910   5.993   1.770   3.794 -1.8912 -2.8113  0.3004
  862MOL0     H18911   6.165   1.769   3.833  0.3545  2.0504 -2.3614
  862MOL0     H18912   6.040   1.669   3.573  0.2085  1.2342 -0.6788
  862MOL0     H18913   6.150   1.802   3.597 -0.2612  0.8313  1.2803
  862MOL0     H18914   6.338   1.860   3.655  0.3351  0.9910  0.1173
  862MOL0     H18915   6.663   1.977   3.598  1.2872  2.4392  1.0658
  862MOL0     H18916   6.626   1.972   3.771  0.7217  2.6001 -0.4878
  862MOL0     H18917   6.500   2.016   3.659 -0.6948 -1.8314  0.0748
  862MOL0     H18918   6.945   1.597   3.910  2.3258 -1.5370  1.8264
  862MOL0     H18919   7.191   1.563   3.981  0.6810  3.8541  0.4475
  862MOL0     H18920   7.410   1.353   3.807  0.0184  0.0744 -1.1814
  862MOL0     H18921   7.491   1.446   3.679  0.0471 -0.4122  0.0413
  862MOL0     H18922   7.598   1.462   3.963 -1.9426 -0.7207  0.5359
  862MOL0     H18923   7.634   1.335   3.857 -0.4565  0.3560 -1.1229
  862MOL0     H18924   7.651   1.625   3.740 -0.1782 -0.8255  1.9637
  862MOL0     H18925   7.731   1.472   3.681  0.0223 -0.9712 -0.1826
  862MOL0     H18926   7.859   1.486   3.909 -0.5570 -0.7317 -0.7323
  862MOL0     H18927   7.795   1.645   3.925 -1.2175  0.4245  0.1576
  862MOL0     H18928   7.955   1.579   3.668  2.0985  2.3675 -1.7419
  862MOL0     H18929   7.881   1.722   3.701 -0.3339 -0.9817 -0.2352
  862MOL0     H18930   8.146   1.685   3.780 -0.5248  1.6682 -0.1870
  862MOL0     H18931   8.058   1.599   3.909 -3.4059 -1.1238 -0.9193
  862MOL0     H18932   7.972   1.787   3.984  1.4519 -4.4487 -0.0970
  862MOL0     H18933   7.974   1.887   3.838 -0.1220 -0.6360 -0.9141
  862MOL0     H18934   8.155   1.974   3.979 -2.0850 -1.1773  0.8248
  862MOL0     H18935   8.249   1.871   3.867  1.1643  0.7965 -0.1842
  862MOL0     H18936   7.315   1.558   3.581 -0.4776 -0.6536 -1.1725
  862MOL0     H18937   7.074   1.574   3.507 -0.0198 -1.3471  0.4922
  862MOL0     H18938   6.647   1.479   3.662 -2.3385 -1.6216 -0.2223
  862MOL0     H18939   6.439   1.441   3.610 -0.4447 -0.3906  0.1452
  862MOL0     H18940   4.877   0.599   3.860  2.1243  1.8282 -0.9465
  862MOL0     H18941   4.652   0.584   3.950  1.3072 -1.7254 -0.6493
  862MOL0     H18942   4.236   0.894   3.855  1.8546 -1.6284  0.1900
  862MOL0     H18943   4.017   0.991   3.910 -0.2119  2.1981  1.8063
  862MOL0     H18944   3.697   0.948   4.205 -0.5816 -1.6331 -1.5075
  862MOL0     H18945   3.794   0.801   4.261  0.6721 -0.4088 -1.7007
  862MOL0     H18946   3.943   0.953   4.389 -0.6175 -2.5810 -0.7510
  862MOL0     H18947   3.768   0.985   4.436  3.2053 -2.2628  3.5743
  862MOL0     H18948   3.958   1.152   4.243 -1.3803  3.0378 -0.6571
  862MOL0     H18949   3.786   1.181   4.277  0.4012  1.3860  1.8991
  862MOL0     H18950   3.994   1.315   4.396 -2.0750  3.0672  3.2349
  862MOL0     H18951   3.981   1.172   4.496  0.8200 -3.0523 -3.5226
  862MOL0     H18952   3.648   1.371   4.645 -1.8143 -2.2500  0.6623
  862MOL0     H18953   3.994   0.739   4.253 -0.3778 -0.1319  0.7626
  862MOL0     H18954   4.173   0.614   4.325  0.6574 -0.0511  0.5200
  862MOL0     H18955   4.260   0.540   4.194  1.7010 -0.0522  0.3224
  862MOL0     H18956   4.346   0.661   4.278  1.0556 -3.1821  1.0442
  863MOL0     O18957   5.107   2.647   1.745 -0.9901 -0.4926  0.1139
  863MOL0     C18958   5.048   2.579   1.826 -0.0513  0.4181 -0.7702
  863MOL0     O18959   5.102   2.497   1.927 -0.1855 -0.6636  0.2615
  863MOL0     C18960   5.240   2.463   1.924  0.1467  0.3824  0.6521
  863MOL0     C18961   5.317   2.449   1.806 -0.0005  0.0739  0.2039
  863MOL0     C18962   5.446   2.411   1.807 -0.7821  0.2735 -0.1372
  863MOL0     C18963   5.510   2.382   1.932 -0.1951 -0.1801  0.5162
  863MOL0     O18964   5.640   2.341   1.951 -0.6770 -0.5077  0.1454
  863MOL0     C18965   5.724   2.315   1.832 -0.2759  0.0131  0.3803
  863MOL0     C18966   5.881   2.318   1.865  0.4549 -0.2841 -0.3276
  863MOL0     C18967   5.922   2.455   1.900  0.3138  0.7005  0.3542
  863MOL0     C18968   6.075   2.449   1.945 -0.1178 -0.0282  0.0759
  863MOL0     C18969   6.133   2.590   1.962  0.9269 -0.0608 -0.0285
  863MOL0     C18970   6.278   2.589   2.031  0.6991  0.9791  0.2259
  863MOL0     C18971   6.399   2.551   1.939  0.6501  0.6709  0.3968
  863MOL0     C18972   6.530   2.563   2.013  0.6748 -0.3322  0.2644
  863MOL0     N18973   6.646   2.531   1.927 -0.3476 -0.4318  0.2902
  863MOL0     C18974   6.683   2.586   1.807 -0.6489 -0.0905  0.4718
  863MOL0     C18975   6.804   2.546   1.776  0.5748  0.0737  0.1892
  863MOL0     C18976   6.886   2.596   1.662  0.5355 -0.6676 -0.5269
  863MOL0     C18977   7.008   2.507   1.635 -0.0566 -0.5645 -0.2762
  863MOL0     C18978   7.113   2.591   1.556  0.4325 -0.4857 -0.3594
  863MOL0     C18979   7.257   2.555   1.589 -0.7238  0.1708  0.4779
  863MOL0     O18980   7.356   2.646   1.534  0.6804  0.2200 -0.4043
  863MOL0     C18981   7.488   2.631   1.557 -0.4932 -0.8669  0.4275
  863MOL0     C18982   7.566   2.722   1.486 -0.4133  0.0937  0.1645
  863MOL0     C18983   7.704   2.714   1.481 -0.3614 -0.7067 -0.7725
  863MOL0     C18984   7.780   2.818   1.405 -0.0423  0.3441  1.2304
  863MOL0     C18985   7.761   2.606   1.554 -0.9121 -1.1792  0.2484
  863MOL0     C18986   7.914   2.608   1.575 -0.1823 -0.5613 -0.8324
  863MOL0     O18987   7.973   2.490   1.564  0.6057 -0.3987 -0.2143
  863MOL0     C18988   8.100   2.466   1.596  0.6972  0.1808 -0.1085
  863MOL0     C18989   8.137   2.326   1.605 -0.1800  0.4067 -0.1009
  863MOL0     C18990   8.270   2.286   1.628  0.1938  0.4213  0.4104
  863MOL0     C18991   8.365   2.385   1.635 -0.0059 -0.4476 -0.2701
  863MOL0     O18992   8.497   2.345   1.644 -0.7792  0.3362  0.3201
  863MOL0     C18993   8.573   2.384   1.760 -0.1592 -0.7409 -0.2377
  863MOL0     C18994   8.691   2.456   1.708  0.0145  0.3239 -0.4358
  863MOL0     C18995   8.777   2.505   1.828 -0.6407  0.2265 -0.6722
  863MOL0     C18996   8.914   2.565   1.772  0.3590  0.9428  0.0146
  863MOL0     C18997   9.032   2.586   1.874 -0.1115  0.3588 -0.0860
  863MOL0     C18998   9.109   2.461   1.943  0.6236 -0.0590  0.7441
  863MOL0     C18999   9.169   2.367   1.840  0.2811 -0.2297  0.2925
  863MOL0     C19000   9.254   2.269   1.920  0.6384 -0.2667  0.5839
  863MOL0    Cl19001   9.167   2.157   2.023  0.2544  0.4637 -0.5332
  863MOL0     C19002   8.336   2.519   1.616  0.0678  0.1214 -0.3964
  863MOL0     C19003   8.203   2.559   1.607 -0.1275 -0.3885  0.6327
  863MOL0     O19004   7.958   2.710   1.611 -0.5540  0.3700 -0.3162
  863MOL0     C19005   7.679   2.520   1.628 -0.5976 -0.4360 -0.2533
  863MOL0     C19006   7.545   2.531   1.637  0.5979  1.1951  0.8125
  863MOL0     N19007   6.852   2.464   1.878 -0.3337  0.4190 -0.5095
  863MOL0     N19008   6.756   2.458   1.971 -0.1135 -0.4861  0.9200
  863MOL0     C19009   5.437   2.400   2.050  0.4980  0.0975 -0.6811
  863MOL0     C19010   5.305   2.436   2.046 -0.1218  0.1368 -0.0088
  863MOL0     C19011   4.905   2.557   1.809  1.5309  0.7097 -0.3447
  863MOL0     C19012   4.837   2.460   1.900  0.2963  0.3911  0.1564
  863MOL0     C19013   4.696   2.459   1.904 -0.1924 -0.1337 -0.6875
  863MOL0     C19014   4.621   2.533   1.815  0.2603  0.6931  0.1793
  863MOL0     O19015   4.485   2.543   1.810  0.2737  0.3294 -0.4443
  863MOL0     C19016   4.407   2.468   1.907 -0.4118  0.2363  0.4701
  863MOL0     C19017   4.252   2.478   1.896  0.1751  0.6156  0.3816
  863MOL0     C19018   4.198   2.405   1.770 -0.2470 -0.2135 -0.1084
  863MOL0     C19019   4.048   2.378   1.780 -0.7701 -0.3818  0.5135
  863MOL0     C19020   3.982   2.512   1.770 -0.7928 -0.3901  0.1264
  863MOL0     C19021   3.965   2.633   1.753  0.3916  0.7248  0.0976
  863MOL0     C19022   4.689   2.593   1.708 -0.2772  0.1293 -0.1942
  863MOL0     C19023   4.826   2.626   1.715 -0.1851  1.2933 -0.1827
  863MOL0     C19024   4.871   2.732   1.613  0.4182 -0.2613  0.2355
  863MOL0     H19025   5.265   2.466   1.712 -1.2758 -3.1289  0.1995
  863MOL0     H19026   5.500   2.394   1.714 -0.5964  0.7278 -0.1153
  863MOL0     H19027   5.709   2.383   1.747  1.2273 -0.0577  0.0404
  863MOL0     H19028   5.695   2.216   1.796 -2.0327  0.1508  1.3032
  863MOL0     H19029   5.896   2.246   1.946 -0.7402  2.6375  2.7267
  863MOL0     H19030   5.940   2.281   1.780  3.5548  0.6565  1.2572
  863MOL0     H19031   5.895   2.520   1.816  0.0655 -2.8400 -2.5331
  863MOL0     H19032   5.861   2.488   1.985  3.1449  0.8502  2.4888
  863MOL0     H19033   6.102   2.391   2.034  1.5971  2.1620  1.0884
  863MOL0     H19034   6.123   2.403   1.859 -0.3416  0.6514 -0.4172
  863MOL0     H19035   6.069   2.651   2.025 -3.3361  0.1750 -4.0305
  863MOL0     H19036   6.136   2.641   1.865 -2.0900 -1.1968 -0.8463
  863MOL0     H19037   6.292   2.691   2.069  1.2363  1.0002 -0.0202
  863MOL0     H19038   6.280   2.524   2.119 -0.7199  0.9734  0.2712
  863MOL0     H19039   6.404   2.617   1.853 -0.1173 -0.2057 -0.3410
  863MOL0     H19040   6.381   2.448   1.906 -2.1694  0.6959  1.5718
  863MOL0     H19041   6.559   2.657   2.061 -0.7438  0.6639 -0.7666
  863MOL0     H19042   6.536   2.493   2.097  0.8877  1.6105  1.9520
  863MOL0     H19043   6.630   2.657   1.745 -1.0614 -1.0026 -0.2446
  863MOL0     H19044   6.916   2.698   1.685  1.4312 -0.8925 -0.6446
  863MOL0     H19045   6.810   2.604   1.584 -2.2002  0.8306  2.1023
  863MOL0     H19046   7.061   2.470   1.724 -1.4230 -2.4732 -0.1979
  863MOL0     H19047   6.986   2.420   1.573  2.0536 -0.3400 -1.4497
  863MOL0     H19048   7.086   2.581   1.451  1.4547 -0.8536 -0.5936
  863MOL0     H19049   7.100   2.695   1.589 -0.9204 -1.1304  1.3029
  863MOL0     H19050   7.280   2.565   1.695  0.0361  2.4435  0.1468
  863MOL0     H19051   7.279   2.453   1.553  1.7887  0.9694 -0.5311
  863MOL0     H19052   7.513   2.797   1.428  0.9238  0.8328 -0.1449
  863MOL0     H19053   7.834   2.899   1.455 -0.3176  0.5409  1.2130
  863MOL0     H19054   7.708   2.877   1.348  2.3952  3.2638  0.9067
  863MOL0     H19055   7.851   2.771   1.336  1.0566  0.3523  2.3066
  863MOL0     H19056   8.059   2.258   1.574 -1.8328  2.0259  0.3179
  863MOL0     H19057   8.293   2.180   1.634  0.8682  0.6275  1.7552
  863MOL0     H19058   8.519   2.444   1.835 -0.7635  1.4584 -2.2887
  863MOL0     H19059   8.594   2.286   1.803 -3.7180 -0.9176  1.4675
  863MOL0     H19060   8.745   2.379   1.651 -0.7982 -0.9612  0.4758
  863MOL0     H19061   8.658   2.543   1.650  1.9393 -1.6404 -4.9761
  863MOL0     H19062   8.793   2.425   1.900 -2.8118  0.2360 -0.1278
  863MOL0     H19063   8.736   2.589   1.885 -0.7258  0.5486 -1.2007
  863MOL0     H19064   8.892   2.656   1.715  1.9136 -0.9108 -3.9176
  863MOL0     H19065   8.944   2.492   1.696 -1.8891  0.3425 -0.3833
  863MOL0     H19066   9.112   2.634   1.818  0.5587 -4.0397 -3.4753
  863MOL0     H19067   8.991   2.645   1.956 -0.1412  0.6880 -0.3379
  863MOL0     H19068   9.030   2.422   2.008  1.0834 -1.6032  0.4021
  863MOL0     H19069   9.181   2.497   2.018  1.7262 -2.9981  1.2039
  863MOL0     H19070   9.241   2.423   1.780 -0.4881 -0.1392 -0.5646
  863MOL0     H19071   9.093   2.323   1.775  1.1344 -2.6026  0.7855
  863MOL0     H19072   9.312   2.325   1.994 -2.2047 -0.1524  2.8923
  863MOL0     H19073   9.311   2.212   1.846 -0.3057 -1.5289  0.8039
  863MOL0     H19074   8.426   2.579   1.619  1.0016 -1.1659 -1.7498
  863MOL0     H19075   8.191   2.665   1.589  0.4772 -0.5076 -0.5692
  863MOL0     H19076   7.733   2.441   1.678 -1.1952 -1.1373 -0.7007
  863MOL0     H19077   7.486   2.451   1.679  3.4602 -1.4726  0.0862
  863MOL0     H19078   5.480   2.380   2.148 -0.6975  0.4846 -0.0591
  863MOL0     H19079   5.246   2.436   2.137 -0.0726  0.7906  0.0268
  863MOL0     H19080   4.898   2.398   1.964 -0.0482  1.5367  1.6391
  863MOL0     H19081   4.640   2.396   1.973 -1.6818  0.8475 -0.9799
  863MOL0     H19082   4.429   2.363   1.890 -0.9379  0.1215  0.4874
  863MOL0     H19083   4.438   2.490   2.009 -1.6859 -1.3029  1.2352
  863MOL0     H19084   4.210   2.578   1.915 -0.2944  0.5312 -0.1832
  863MOL0     H19085   4.209   2.427   1.983  1.7556 -0.6156  0.4843
  863MOL0     H19086   4.214   2.467   1.681  0.7411  0.9831  0.8514
  863MOL0     H19087   4.253   2.311   1.756 -0.0952 -0.0662 -0.5254
  863MOL0     H19088   4.030   2.319   1.871 -0.8969 -1.0952  0.0374
  863MOL0     H19089   4.017   2.317   1.694  0.7311 -0.5354  0.0615
  863MOL0     H19090   3.961   2.740   1.753  4.1791  1.0134  0.8292
  863MOL0     H19091   4.622   2.648   1.643  0.4879  0.1402 -0.9900
  863MOL0     H19092   4.964   2.706   1.563 -0.8566 -4.4407 -0.4304
  863MOL0     H19093   4.801   2.735   1.529  1.7437 -1.1326 -0.9439
  863MOL0     H19094   4.875   2.829   1.663  0.0122 -0.2610  0.2784
  864MOL0     O19095   9.239   8.736   4.019 -0.3758 -0.5084  1.2833
  864MOL0     C19096   9.213   8.854   4.003 -1.0462  0.4620  0.0185
  864MOL0     O19097   9.196   8.908   3.878 -0.0215  0.0219 -0.3533
  864MOL0     C19098   9.283   8.845   3.788 -0.5484  0.4165  1.1662
  864MOL0     C19099   9.421   8.866   3.787  0.0471  0.3132 -0.7473
  864MOL0     C19100   9.500   8.797   3.699  0.3488 -0.8413  0.2438
  864MOL0     C19101   9.457   8.687   3.621  0.3772 -0.3794  0.7181
  864MOL0     O19102   9.541   8.598   3.553  0.7502  0.4776  0.3312
  864MOL0     C19103   9.675   8.642   3.519 -0.1445 -0.1224 -0.1987
  864MOL0     C19104   9.675   8.759   3.413 -0.4062  0.5257  0.2236
  864MOL0     C19105   9.622   8.695   3.281 -0.2398 -0.7197  0.2056
  864MOL0     C19106   9.656   8.794   3.161 -0.1589  0.5804  0.0626
  864MOL0     C19107   9.623   8.717   3.033  0.3096 -0.0323 -0.1026
  864MOL0     C19108   9.660   8.796   2.909 -1.2314 -0.4853 -0.7438
  864MOL0     C19109   9.610   8.713   2.787 -0.1090 -0.0620  0.4412
  864MOL0     C19110   9.697   8.579   2.776 -0.0116  0.7572 -0.0863
  864MOL0     N19111   9.696   8.540   2.633  0.7594 -0.1666  0.1590
  864MOL0     C19112   9.810   8.528   2.562 -0.7175 -0.1882 -0.5349
  864MOL0     C19113   9.777   8.506   2.433  0.5846 -0.8424 -1.1616
  864MOL0     C19114   9.869   8.489   2.314 -0.3187 -0.6331 -1.3087
  864MOL0     C19115   9.823   8.566   2.188 -0.8272 -0.2136  0.7274
  864MOL0     C19116   9.915   8.525   2.073  0.2625  0.8542  0.0774
  864MOL0     C19117  10.052   8.592   2.057  0.9906 -0.0817  0.0940
  864MOL0     O19118  10.128   8.582   2.180  0.1081  0.7756  0.5250
  864MOL0     C19119  10.266   8.562   2.176  0.6859 -0.1160  0.3343
  864MOL0     C19120  10.322   8.458   2.241 -0.9496  1.1074 -0.0864
  864MOL0     C19121  10.461   8.431   2.240 -0.1985  0.1908 -0.0352
  864MOL0     C19122  10.512   8.318   2.325  0.5169  0.0105  0.7359
  864MOL0     C19123  10.545   8.501   2.146  0.1799  0.5177 -0.6153
  864MOL0     C19124  10.689   8.474   2.111  0.1565 -0.3604 -0.1555
  864MOL0     O19125  10.752   8.572   2.034  0.1677  0.1649  0.2360
  864MOL0     C19126  10.875   8.548   1.971 -0.6093  0.3678  0.7453
  864MOL0     C19127  10.979   8.639   2.000  0.5202 -0.0534  0.2319
  864MOL0     C19128  11.108   8.606   1.948  0.4359 -1.0306 -0.2687
  864MOL0     C19129  11.126   8.498   1.861 -0.4199 -0.6704  0.1846
  864MOL0     O19130  11.261   8.465   1.835 -0.3095  0.1308  0.1463
  864MOL0     C19131  11.288   8.323   1.838  0.3634 -0.9381 -0.5976
  864MOL0     C19132  11.287   8.253   1.977 -0.2206  0.1471 -0.3318
  864MOL0     C19133  11.402   8.284   2.074 -0.1116 -0.1384 -0.7882
  864MOL0     C19134  11.410   8.163   2.168 -0.1738 -0.3959 -0.5975
  864MOL0     C19135  11.506   8.206   2.281 -0.0639  0.4572 -0.0910
  864MOL0     C19136  11.541   8.098   2.378 -0.5768  0.6362 -0.0611
  864MOL0     C19137  11.625   8.142   2.501 -0.1021  0.8824  0.5310
  864MOL0     C19138  11.717   8.036   2.547 -0.5403 -0.8468 -1.3682
  864MOL0    Cl19139  11.744   8.067   2.718 -0.1014  0.1537  0.4274
  864MOL0     C19140  11.023   8.416   1.829  0.1951  0.4943 -0.6196
  864MOL0     C19141  10.896   8.439   1.882 -0.0931 -0.5426 -0.3554
  864MOL0     O19142  10.731   8.363   2.137 -1.0100 -0.4659 -0.4609
  864MOL0     C19143  10.489   8.616   2.093  0.4473 -0.4353 -0.4517
  864MOL0     C19144  10.352   8.640   2.094  0.7175 -0.4516  0.8579
  864MOL0     N19145   9.634   8.504   2.429 -0.2926 -0.1492  0.2179
  864MOL0     N19146   9.597   8.525   2.545 -0.0389 -0.5224 -0.2100
  864MOL0     C19147   9.319   8.661   3.627 -0.1634 -0.0971  0.3598
  864MOL0     C19148   9.238   8.742   3.704 -0.7525  0.2419  0.0261
  864MOL0     C19149   9.186   8.945   4.110  0.2692  0.3652  0.2369
  864MOL0     C19150   9.195   9.082   4.078  0.0698 -0.6398 -0.3609
  864MOL0     C19151   9.157   9.176   4.174  0.1022 -0.1396 -0.2731
  864MOL0     C19152   9.104   9.146   4.291 -0.4837  0.4304  0.2883
  864MOL0     O19153   9.067   9.248   4.368 -0.7611 -0.4190 -0.2737
  864MOL0     C19154   9.039   9.232   4.509 -0.4217  0.2999  0.2291
  864MOL0     C19155   8.893   9.187   4.529 -0.4182  0.2362 -0.8797
  864MOL0     C19156   8.876   9.163   4.681 -0.7692  0.0739 -0.0425
  864MOL0     C19157   8.957   9.031   4.722 -0.0631 -0.5252 -0.0316
  864MOL0     C19158   8.905   8.950   4.829 -0.1321  0.1890  0.2638
  864MOL0     C19159   8.868   8.899   4.933 -0.1568  0.0986  0.3452
  864MOL0     C19160   9.086   9.010   4.323 -0.2143  0.2037  0.4758
  864MOL0     C19161   9.133   8.909   4.237  0.0914  0.9121 -0.1676
  864MOL0     C19162   9.096   8.770   4.279  0.0704 -0.3139  0.7428
  864MOL0     H19163   9.477   8.917   3.864 -0.5427 -2.5750  1.7667
  864MOL0     H19164   9.603   8.828   3.706  0.7333 -1.1247 -2.6676
  864MOL0     H19165   9.732   8.556   3.482  1.2006 -0.1352  1.7629
  864MOL0     H19166   9.729   8.667   3.610 -4.0501 -1.5184  2.8027
  864MOL0     H19167   9.607   8.838   3.445 -1.0838  1.0435 -2.3065
  864MOL0     H19168   9.777   8.800   3.409 -0.1524  0.1299  1.8230
  864MOL0     H19169   9.677   8.602   3.263  0.6291  0.0608 -1.4091
  864MOL0     H19170   9.516   8.671   3.290 -0.3114 -0.4850  0.0037
  864MOL0     H19171   9.598   8.885   3.180 -1.3777  0.2066 -1.6261
  864MOL0     H19172   9.761   8.822   3.152 -0.2331  1.0490  0.5902
  864MOL0     H19173   9.518   8.684   3.031  0.0782  0.5506  1.3200
  864MOL0     H19174   9.678   8.623   3.042 -0.9639 -0.7145  1.1769
  864MOL0     H19175   9.610   8.893   2.919 -0.4370 -0.1421 -0.0037
  864MOL0     H19176   9.767   8.813   2.898 -1.0231 -1.3330 -0.1520
  864MOL0     H19177   9.634   8.782   2.705  0.7656  0.1317  0.8501
  864MOL0     H19178   9.502   8.702   2.797 -0.1686  1.7665  2.6944
  864MOL0     H19179   9.803   8.581   2.801  1.6047 -1.1529 -5.5006
  864MOL0     H19180   9.637   8.504   2.827 -0.3676 -2.0513 -4.2112
  864MOL0     H19181   9.910   8.536   2.603 -1.1093  0.0637  0.4018
  864MOL0     H19182   9.881   8.381   2.300 -2.7831 -1.0910 -0.3119
  864MOL0     H19183   9.965   8.531   2.344 -0.1340 -0.4652 -2.1006
  864MOL0     H19184   9.719   8.536   2.170 -1.3703  2.3308 -0.9200
  864MOL0     H19185   9.836   8.673   2.206 -0.0501 -0.4416  1.5702
  864MOL0     H19186   9.935   8.417   2.073 -3.3087 -0.0132  3.1909
  864MOL0     H19187   9.854   8.545   1.985 -1.3367 -1.0627  0.6634
  864MOL0     H19188  10.097   8.555   1.965 -0.4727  3.2636 -2.1985
  864MOL0     H19189  10.034   8.697   2.032  0.1631 -0.4075 -0.7277
  864MOL0     H19190  10.258   8.391   2.297 -0.4365  2.1105  1.7922
  864MOL0     H19191  10.619   8.320   2.346  0.8613 -3.3839 -0.1956
  864MOL0     H19192  10.490   8.226   2.271 -0.8957  1.8323 -2.0120
  864MOL0     H19193  10.450   8.322   2.416 -1.0884  0.9161 -0.3392
  864MOL0     H19194  10.976   8.724   2.068 -0.8620 -1.1227  1.5944
  864MOL0     H19195  11.188   8.677   1.966  0.0759 -0.3402 -1.3001
  864MOL0     H19196  11.218   8.262   1.780  1.0685 -1.3678 -1.0069
  864MOL0     H19197  11.389   8.321   1.796  0.9686 -0.2202  0.7561
  864MOL0     H19198  11.189   8.261   2.025 -0.2500  2.4375 -0.6833
  864MOL0     H19199  11.300   8.149   1.946  2.1614 -0.3117  1.7929
  864MOL0     H19200  11.395   8.386   2.114  3.7646 -0.6030  1.5766
  864MOL0     H19201  11.494   8.286   2.016 -0.4934 -2.5903 -1.5622
  864MOL0     H19202  11.467   8.079   2.126  1.8777 -0.4130  1.9687
  864MOL0     H19203  11.312   8.138   2.208 -0.6469  0.6254 -1.0731
  864MOL0     H19204  11.601   8.230   2.231  0.3541 -1.9961 -0.5854
  864MOL0     H19205  11.463   8.295   2.328 -0.5073  0.3640 -0.3182
  864MOL0     H19206  11.589   8.020   2.318 -0.0917  1.7928 -1.2494
  864MOL0     H19207  11.453   8.055   2.426  0.1694 -3.0159 -1.6194
  864MOL0     H19208  11.558   8.176   2.581 -1.2309  0.1031 -0.0661
  864MOL0     H19209  11.685   8.230   2.475  2.2283 -0.9217 -0.5668
  864MOL0     H19210  11.812   8.061   2.498  0.5722  0.5571  1.2738
  864MOL0     H19211  11.681   7.937   2.519  0.6890 -0.9805 -2.6072
  864MOL0     H19212  11.024   8.324   1.772 -3.0268 -0.1502  0.1846
  864MOL0     H19213  10.812   8.379   1.850  0.9194 -1.6011 -1.0969
  864MOL0     H19214  10.540   8.695   2.040 -1.5766  0.0677 -1.7569
  864MOL0     H19215  10.309   8.717   2.031  2.0346 -2.0645 -2.2265
  864MOL0     H19216   9.274   8.570   3.587  1.6890 -1.5037  1.2839
  864MOL0     H19217   9.131   8.723   3.704 -0.4801 -1.4380 -1.1221
  864MOL0     H19218   9.226   9.127   3.984 -2.4914  3.0301  0.3275
  864MOL0     H19219   9.169   9.278   4.139 -3.6983  0.2077 -1.0543
  864MOL0     H19220   9.116   9.167   4.552 -0.4188  1.4239  2.0418
  864MOL0     H19221   9.050   9.335   4.545 -2.7951  1.9470 -3.1904
  864MOL0     H19222   8.872   9.093   4.478  1.1769 -0.8821  0.3822
  864MOL0     H19223   8.827   9.264   4.487  1.3763  1.1118 -2.2557
  864MOL0     H19224   8.918   9.247   4.737 -0.9214 -0.0880  0.3221
  864MOL0     H19225   8.770   9.149   4.706 -0.2859 -0.2070  2.0561
  864MOL0     H19226   9.057   9.052   4.761 -0.8031  0.1737  1.6044
  864MOL0     H19227   8.976   8.961   4.639 -3.6880 -0.0194 -1.4736
  864MOL0     H19228   8.841   8.844   5.021 -0.1077  0.4200  0.5660
  864MOL0     H19229   9.028   8.974   4.407 -1.3876 -0.4286 -0.5660
  864MOL0     H19230   9.053   8.712   4.196  3.8102  1.2834 -2.6425
  864MOL0     H19231   9.187   8.722   4.317  1.3100  2.0462  0.8898
  864MOL0     H19232   9.022   8.774   4.360 -0.2605 -1.0406  0.4861
  865MOL0     O19233   4.784   5.763  10.631  0.5020  0.4144 -0.8896
  865MOL0     C19234   4.794   5.875  10.587  0.4152 -0.3346  0.1228
  865MOL0     O19235   4.910   5.950  10.591  0.6489 -1.2400  0.1987
  865MOL0     C19236   5.033   5.892  10.619  0.3128  0.6027 -0.3916
  865MOL0     C19237   5.113   5.843  10.512 -0.1134  0.8082 -0.2968
  865MOL0     C19238   5.241   5.799  10.531 -0.9112 -0.1701 -0.0475
  865MOL0     C19239   5.292   5.786  10.664 -0.4740  0.6144  0.3054
  865MOL0     O19240   5.419   5.740  10.683 -0.7929 -0.1837  0.5248
  865MOL0     C19241   5.453   5.622  10.606  0.0405  1.0765  0.2442
  865MOL0     C19242   5.555   5.653  10.490  0.5282 -0.2589  0.2221
  865MOL0     C19243   5.618   5.522  10.444  0.5782 -0.5992 -0.6148
  865MOL0     C19244   5.711   5.557  10.328  0.0174  0.0498  0.1158
  865MOL0     C19245   5.764   5.425  10.260 -0.3157 -0.3775 -0.0437
  865MOL0     C19246   5.842   5.460  10.126  0.3795  0.0661 -0.2516
  865MOL0     C19247   5.863   5.325  10.053  0.3019  0.1091  0.5091
  865MOL0     C19248   5.953   5.363   9.928  0.1879 -0.6749 -0.4926
  865MOL0     N19249   5.968   5.244   9.842  0.6584 -0.1409  0.4412
  865MOL0     C19250   6.043   5.127   9.871 -0.1010  0.0698 -0.0681
  865MOL0     C19251   6.012   5.045   9.771 -0.0287 -0.1405 -0.7737
  865MOL0     C19252   6.054   4.904   9.754 -0.0403 -1.0421 -0.8213
  865MOL0     C19253   6.203   4.896   9.707 -0.5757  0.0745  0.7735
  865MOL0     C19254   6.253   4.756   9.713 -0.0672 -0.0088  0.0996
  865MOL0     C19255   6.406   4.739   9.722  0.2002  0.4294 -0.7530
  865MOL0     O19256   6.440   4.603   9.718  0.0827  0.5998 -0.3020
  865MOL0     C19257   6.570   4.562   9.700 -0.7333  0.5905  0.5259
  865MOL0     C19258   6.682   4.642   9.673 -0.4172  0.2836  0.8335
  865MOL0     C19259   6.811   4.591   9.664  0.2671  0.1305 -0.4717
  865MOL0     C19260   6.916   4.686   9.621  0.6345 -0.1663  0.1231
  865MOL0     C19261   6.829   4.443   9.691 -0.0098  0.4880  0.3386
  865MOL0     C19262   6.956   4.371   9.692 -0.0461  0.1946  1.1970
  865MOL0     O19263   6.946   4.240   9.695 -0.3178  0.6885 -0.6583
  865MOL0     C19264   7.061   4.178   9.663 -0.2667 -0.0060  0.3652
  865MOL0     C19265   7.149   4.123   9.755 -0.6299 -1.3533 -0.8975
  865MOL0     C19266   7.266   4.056   9.716  0.4949  0.3431  1.2863
  865MOL0     C19267   7.287   4.027   9.582 -0.1058  0.2261  0.1238
  865MOL0     O19268   7.403   3.968   9.544  0.6906  0.3155  0.0867
  865MOL0     C19269   7.444   3.962   9.407 -0.2958  0.7449 -0.1803
  865MOL0     C19270   7.582   3.901   9.385  0.4643  0.7869  0.4029
  865MOL0     C19271   7.586   3.745   9.415 -0.1269 -0.1171  0.7845
  865MOL0     C19272   7.618   3.722   9.569  0.3328 -0.0408  0.2971
  865MOL0     C19273   7.747   3.786   9.619  0.7637  1.0383 -0.5055
  865MOL0     C19274   7.793   3.720   9.748  0.7384  0.2283  0.2193
  865MOL0     C19275   7.934   3.752   9.794 -0.6543  0.6761 -0.6116
  865MOL0     C19276   7.941   3.692   9.928 -0.1834 -0.1426 -0.6615
  865MOL0    Cl19277   7.961   3.516   9.898  0.5160  0.0004 -0.1783
  865MOL0     C19278   7.192   4.077   9.486 -0.1671  0.4659 -0.2916
  865MOL0     C19279   7.076   4.156   9.530 -0.4146  0.3411  0.2757
  865MOL0     O19280   7.062   4.437   9.694  0.3371  0.0880 -0.1418
  865MOL0     C19281   6.711   4.370   9.717  0.4855  0.0897  0.0049
  865MOL0     C19282   6.578   4.425   9.708 -0.6137 -0.1400 -1.1370
  865MOL0     N19283   5.933   5.119   9.679  0.0362 -0.2639  0.2555
  865MOL0     N19284   5.909   5.233   9.724  0.4176 -1.0800  0.2815
  865MOL0     C19285   5.212   5.823  10.769 -0.3209 -0.6713  0.8175
  865MOL0     C19286   5.084   5.879  10.746 -0.2869 -0.1082  0.0356
  865MOL0     C19287   4.667   5.929  10.534  0.0451 -0.3333 -0.2643
  865MOL0     C19288   4.678   6.059  10.482 -0.0607  0.1368 -0.3562
  865MOL0     C19289   4.565   6.137  10.465  0.1032 -0.3246  0.8920
  865MOL0     C19290   4.435   6.093  10.484 -0.3708  0.0320  0.6950
  865MOL0     O19291   4.339   6.186  10.458  0.5391 -0.2991 -0.2531
  865MOL0     C19292   4.203   6.165  10.490 -0.9754  0.5822  0.0140
  865MOL0     C19293   4.121   6.297  10.488 -0.6701  0.9212  0.0709
  865MOL0     C19294   4.136   6.351  10.628 -0.0857  0.6523  0.1673
  865MOL0     C19295   4.055   6.482  10.629 -0.0584  0.1912 -0.1346
  865MOL0     C19296   3.913   6.442  10.656  0.2344 -0.6807  0.8646
  865MOL0     C19297   3.793   6.434  10.680 -0.4424  0.4536  0.4176
  865MOL0     C19298   4.424   5.963  10.519 -0.3190  1.0149 -0.5860
  865MOL0     C19299   4.537   5.872  10.546 -0.6504 -0.0971 -0.7726
  865MOL0     C19300   4.502   5.730  10.593 -0.3580 -0.6026 -0.5318
  865MOL0     H19301   5.066   5.848  10.415 -0.2975 -0.5918 -0.2975
  865MOL0     H19302   5.296   5.781  10.439 -1.2096  0.0560 -0.2725
  865MOL0     H19303   5.365   5.569  10.568  0.0123  1.5417 -0.3472
  865MOL0     H19304   5.501   5.545  10.667 -3.7150 -0.8445  1.0374
  865MOL0     H19305   5.503   5.716  10.418 -0.4370 -0.7080  0.4994
  865MOL0     H19306   5.633   5.719  10.529  2.8773 -1.2489 -2.4794
  865MOL0     H19307   5.675   5.481  10.528  2.2562  0.7945 -1.0179
  865MOL0     H19308   5.541   5.453  10.407 -1.4786  0.5763  1.2467
  865MOL0     H19309   5.656   5.614  10.252 -1.4604 -0.1616  0.9880
  865MOL0     H19310   5.795   5.622  10.355 -0.7439  2.5964 -2.9804
  865MOL0     H19311   5.676   5.364  10.236 -0.9226 -0.1615  1.4878
  865MOL0     H19312   5.820   5.354  10.322 -0.6497 -0.5255  0.0901
  865MOL0     H19313   5.785   5.521  10.055  0.1235  2.0231  1.5229
  865MOL0     H19314   5.934   5.515  10.149  2.6274 -4.3279  2.4779
  865MOL0     H19315   5.770   5.288  10.010 -0.3582  3.9639 -1.8731
  865MOL0     H19316   5.909   5.253  10.121  0.9317  0.8245  0.8603
  865MOL0     H19317   5.907   5.450   9.881  1.5418  0.1370 -0.3370
  865MOL0     H19318   6.053   5.391   9.962 -0.3471 -1.0822  1.5434
  865MOL0     H19319   6.102   5.116   9.962 -0.5802 -1.1904  0.1139
  865MOL0     H19320   5.984   4.851   9.689 -2.1335 -0.3396  0.7457
  865MOL0     H19321   6.038   4.850   9.848  2.5728  1.4718  1.2908
  865MOL0     H19322   6.207   4.941   9.607  3.3859  2.4482  1.7866
  865MOL0     H19323   6.279   4.954   9.762  2.7414 -0.9551 -2.3136
  865MOL0     H19324   6.206   4.709   9.801  2.5354 -2.8110  0.1813
  865MOL0     H19325   6.222   4.705   9.622  2.6981  0.1197 -1.0112
  865MOL0     H19326   6.450   4.793   9.638  1.4080  2.2718  0.9634
  865MOL0     H19327   6.444   4.791   9.811  2.4210  2.2011 -2.6118
  865MOL0     H19328   6.665   4.747   9.651 -1.2189 -0.0491 -0.2598
  865MOL0     H19329   6.979   4.724   9.703  0.7891 -1.5258  0.6556
  865MOL0     H19330   6.875   4.766   9.559  2.9323  1.2139  0.2130
  865MOL0     H19331   6.989   4.640   9.554  1.4086  0.5097  0.4774
  865MOL0     H19332   7.132   4.155   9.857  0.8270  2.1190 -1.5807
  865MOL0     H19333   7.338   4.027   9.792  1.5594 -0.1294  0.1315
  865MOL0     H19334   7.369   3.906   9.351 -0.5836 -1.0669  1.8951
  865MOL0     H19335   7.458   4.063   9.367  0.3747  0.6597 -0.1809
  865MOL0     H19336   7.584   3.908   9.275 -2.0185 -1.6974  0.0911
  865MOL0     H19337   7.662   3.962   9.429 -0.0834  0.7490  1.4770
  865MOL0     H19338   7.667   3.696   9.360  1.4245  0.3531  2.5751
  865MOL0     H19339   7.496   3.688   9.391 -0.8999  0.6901  1.6747
  865MOL0     H19340   7.615   3.613   9.579 -3.4565 -0.2117 -1.1147
  865MOL0     H19341   7.543   3.756   9.641  2.1618 -0.0814  2.3318
  865MOL0     H19342   7.818   3.784   9.535  0.6570 -0.0102 -0.5821
  865MOL0     H19343   7.722   3.888   9.648  1.2431  1.2863 -0.9400
  865MOL0     H19344   7.771   3.614   9.733 -3.9168  1.0591 -0.4662
  865MOL0     H19345   7.724   3.745   9.830 -2.9465 -3.6762 -1.3193
  865MOL0     H19346   7.960   3.857   9.779 -0.9310  0.7089 -0.8772
  865MOL0     H19347   8.011   3.700   9.737  1.0669 -1.3405  3.1804
  865MOL0     H19348   7.853   3.718   9.988 -0.3813  2.2473 -1.8573
  865MOL0     H19349   8.024   3.729   9.990  0.1269 -0.9355 -0.5886
  865MOL0     H19350   7.205   4.045   9.383 -1.8765 -0.8769 -0.1348
  865MOL0     H19351   7.005   4.207   9.466 -1.1044  2.8885  2.8737
  865MOL0     H19352   6.716   4.262   9.725 -1.8955 -0.1361 -0.7070
  865MOL0     H19353   6.491   4.359   9.713 -0.1038 -0.7382  0.4158
  865MOL0     H19354   5.251   5.807  10.868  2.7729 -0.9943 -0.3601
  865MOL0     H19355   5.030   5.921  10.831  0.2031  1.0011 -0.1767
  865MOL0     H19356   4.768   6.117  10.462 -1.9989  2.6947 -2.4265
  865MOL0     H19357   4.583   6.243  10.447 -1.0034 -0.4134 -1.0241
  865MOL0     H19358   4.168   6.098  10.411  1.2828  0.6117 -1.0905
  865MOL0     H19359   4.176   6.104  10.577 -1.2275 -2.1904 -1.8540
  865MOL0     H19360   4.018   6.268  10.463 -0.3696  0.8336 -1.1191
  865MOL0     H19361   4.151   6.377  10.420 -2.9515  0.9413 -1.0009
  865MOL0     H19362   4.099   6.281  10.703  0.4875  2.1412  1.8836
  865MOL0     H19363   4.240   6.380  10.648 -0.2406  3.2343 -2.2001
  865MOL0     H19364   4.054   6.551  10.544  0.6824  1.2978  0.7265
  865MOL0     H19365   4.093   6.542  10.712 -0.6023 -1.2295  1.1827
  865MOL0     H19366   3.689   6.418  10.697  0.3120 -2.1131  3.5087
  865MOL0     H19367   4.329   5.913  10.537 -0.3638  1.1617 -0.4117
  865MOL0     H19368   4.396   5.706  10.577  0.0808 -2.2245 -1.2466
  865MOL0     H19369   4.567   5.655  10.547 -1.1419 -0.6160 -1.6583
  865MOL0     H19370   4.514   5.737  10.701  2.0281 -1.1961 -0.7106
  866MOL0     O19371   2.806   4.110   1.747  0.5331  0.4701 -0.1922
  866MOL0     C19372   2.850   4.215   1.694 -0.4420  0.0251 -0.1951
  866MOL0     O19373   2.964   4.286   1.737  0.4689  0.4911  0.3605
  866MOL0     C19374   3.033   4.243   1.854  0.2519  0.0657  1.1841
  866MOL0     C19375   3.164   4.197   1.832 -0.1959  0.0213 -1.1346
  866MOL0     C19376   3.251   4.179   1.939 -0.4195 -0.6488  0.1522
  866MOL0     C19377   3.209   4.204   2.074 -0.1261 -0.1810 -0.3003
  866MOL0     O19378   3.308   4.206   2.174  0.7310 -0.0752  0.3758
  866MOL0     C19379   3.292   4.303   2.278  0.2857  0.2891  0.1639
  866MOL0     C19380   3.401   4.282   2.387 -0.1228  0.3999 -0.1396
  866MOL0     C19381   3.543   4.322   2.347  0.1985  1.0938 -0.2578
  866MOL0     C19382   3.648   4.290   2.461 -0.2289  0.4085 -0.5481
  866MOL0     C19383   3.791   4.308   2.407 -0.6208 -0.2876 -0.6595
  866MOL0     C19384   3.844   4.458   2.387  0.1227 -0.5572 -0.0010
  866MOL0     C19385   3.825   4.558   2.499 -0.2088  0.1644 -0.1770
  866MOL0     C19386   3.889   4.698   2.485  0.0573  0.3447  0.0405
  866MOL0     N19387   4.031   4.697   2.529 -1.5406 -0.1138 -0.8564
  866MOL0     C19388   4.069   4.760   2.643  0.8758  0.2950  0.2056
  866MOL0     C19389   4.195   4.708   2.673 -0.3395 -0.6032 -0.2519
  866MOL0     C19390   4.280   4.727   2.797  1.1622 -0.5488  0.3054
  866MOL0     C19391   4.337   4.593   2.853 -0.1888 -0.0913 -0.4266
  866MOL0     C19392   4.442   4.611   2.966 -0.4258  0.2194 -0.6576
  866MOL0     C19393   4.565   4.689   2.923  0.0020  0.3561 -0.2512
  866MOL0     O19394   4.637   4.597   2.842 -0.2817 -0.1069 -0.0671
  866MOL0     C19395   4.768   4.622   2.816 -0.1059  0.1778  0.9952
  866MOL0     C19396   4.833   4.538   2.727 -0.6680  0.5201 -0.7850
  866MOL0     C19397   4.965   4.555   2.674 -0.3468  0.0382  0.1679
  866MOL0     C19398   5.014   4.446   2.578 -0.1409  0.1090  0.6890
  866MOL0     C19399   5.035   4.677   2.701  0.8789 -0.4417 -0.3948
  866MOL0     C19400   5.167   4.717   2.640 -0.0163 -0.3163  0.6113
  866MOL0     O19401   5.219   4.632   2.549  0.0392  0.1366 -0.3501
  866MOL0     C19402   5.339   4.671   2.498 -0.4887  0.2752 -1.4436
  866MOL0     C19403   5.350   4.723   2.370  1.0486 -0.9917 -0.5831
  866MOL0     C19404   5.476   4.770   2.323  0.1541  0.3933 -0.0097
  866MOL0     C19405   5.592   4.741   2.397 -0.6155  0.3482 -0.1315
  866MOL0     O19406   5.706   4.785   2.339 -0.0606  0.4238 -0.1295
  866MOL0     C19407   5.825   4.756   2.400  0.1967  0.3820  0.2475
  866MOL0     C19408   5.950   4.829   2.343  0.6303  0.7371  0.8647
  866MOL0     C19409   5.970   4.972   2.394 -0.3837 -0.7473  0.1548
  866MOL0     C19410   6.071   5.055   2.311  0.6050  0.4716  0.0461
  866MOL0     C19411   6.217   5.033   2.358  0.2758  0.6233 -0.8830
  866MOL0     C19412   6.306   5.101   2.257 -0.0269  0.1190  0.0737
  866MOL0     C19413   6.322   5.021   2.126  0.7437 -0.4485  0.0148
  866MOL0     C19414   6.456   4.953   2.130  0.2528  0.1763  0.1398
  866MOL0    Cl19415   6.456   4.834   2.253 -0.1035  0.0105  0.0070
  866MOL0     C19416   5.585   4.679   2.520  0.1628 -0.0426 -0.4399
  866MOL0     C19417   5.452   4.647   2.574 -0.1380  0.1061  0.3205
  866MOL0     O19418   5.214   4.824   2.672  0.3783 -0.2613  0.1407
  866MOL0     C19419   4.972   4.763   2.804  1.0946 -0.3549  0.2422
  866MOL0     C19420   4.840   4.736   2.853 -0.1235 -0.4713 -0.0149
  866MOL0     N19421   4.237   4.644   2.559 -0.6214 -1.4487 -0.0764
  866MOL0     N19422   4.141   4.636   2.472 -0.2012  1.1773  0.5043
  866MOL0     C19423   3.072   4.233   2.095 -0.3769 -0.4569  0.6967
  866MOL0     C19424   2.993   4.251   1.986 -0.0367  0.3936  0.4902
  866MOL0     C19425   2.793   4.250   1.562  0.1429  0.0446  0.1755
  866MOL0     C19426   2.851   4.365   1.500  0.2897 -0.1270  0.1517
  866MOL0     C19427   2.811   4.416   1.376 -0.9412  0.2305  0.0279
  866MOL0     C19428   2.714   4.343   1.306  0.2399  0.2111 -0.3103
  866MOL0     O19429   2.693   4.371   1.181  1.2170  0.2439  0.7060
  866MOL0     C19430   2.596   4.295   1.105  0.2967 -0.4149 -0.2112
  866MOL0     C19431   2.597   4.347   0.961  0.3057  0.0418 -0.0344
  866MOL0     C19432   2.504   4.477   0.949 -0.1993  0.8614 -0.4459
  866MOL0     C19433   2.502   4.543   0.813  0.1945  0.3886  1.1466
  866MOL0     C19434   2.616   4.630   0.782  0.0159  0.6615  0.1315
  866MOL0     C19435   2.705   4.708   0.766 -0.6305  1.0027  0.2828
  866MOL0     C19436   2.658   4.225   1.362  0.3239 -0.2735  0.1301
  866MOL0     C19437   2.706   4.171   1.481  1.0742  0.2195 -0.7528
  866MOL0     C19438   2.659   4.032   1.523 -0.3174 -0.2961  1.0520
  866MOL0     H19439   3.190   4.194   1.726  0.9421  1.9916 -0.9564
  866MOL0     H19440   3.357   4.164   1.920  0.6251  2.4455  2.5620
  866MOL0     H19441   3.196   4.294   2.328  0.0126 -1.8223 -0.6382
  866MOL0     H19442   3.304   4.404   2.237 -1.5732 -0.1097 -1.5247
  866MOL0     H19443   3.379   4.361   2.459  3.4946 -0.0898  1.7260
  866MOL0     H19444   3.398   4.181   2.428  0.3564 -0.1687 -1.4520
  866MOL0     H19445   3.569   4.265   2.257  0.3001 -1.7987  1.4840
  866MOL0     H19446   3.551   4.430   2.329 -1.2860  1.3345  0.4249
  866MOL0     H19447   3.631   4.356   2.546  0.1406 -0.9944  0.6719
  866MOL0     H19448   3.635   4.189   2.501 -3.9699  0.6527 -0.7874
  866MOL0     H19449   3.814   4.252   2.316  3.4808 -1.4465  0.8397
  866MOL0     H19450   3.855   4.255   2.478  0.9057  1.3239 -0.7545
  866MOL0     H19451   3.950   4.462   2.363 -0.2140  0.2274 -1.5020
  866MOL0     H19452   3.800   4.490   2.292 -0.4126  0.3745  0.5470
  866MOL0     H19453   3.853   4.515   2.596 -2.6345  0.3452  0.6675
  866MOL0     H19454   3.717   4.574   2.507 -0.8071 -1.3390 -3.7182
  866MOL0     H19455   3.875   4.729   2.381  0.3419 -2.0980 -0.8056
  866MOL0     H19456   3.832   4.771   2.543  1.0688  1.8247 -0.7555
  866MOL0     H19457   4.012   4.822   2.712 -1.0420  0.6654 -1.6208
  866MOL0     H19458   4.227   4.789   2.869  1.1922  0.3272 -0.4053
  866MOL0     H19459   4.360   4.796   2.768  0.9133 -0.5760 -0.4600
  866MOL0     H19460   4.253   4.538   2.898  2.0208 -0.8714  3.1775
  866MOL0     H19461   4.383   4.522   2.784  0.4771  0.7625 -0.8760
  866MOL0     H19462   4.401   4.670   3.048  1.0781  2.6778 -1.5434
  866MOL0     H19463   4.468   4.511   3.003 -0.5235 -0.0175 -1.2219
  866MOL0     H19464   4.538   4.777   2.863 -1.3105  0.8108  0.9803
  866MOL0     H19465   4.628   4.725   3.005 -1.0166 -1.5650  1.4410
  866MOL0     H19466   4.776   4.451   2.697 -0.2322 -0.6917  1.6472
  866MOL0     H19467   4.940   4.365   2.572 -0.2828  0.0750  2.4936
  866MOL0     H19468   5.104   4.398   2.620 -0.3237 -1.8752 -0.9849
  866MOL0     H19469   5.041   4.480   2.478  1.5235  1.2914  1.4920
  866MOL0     H19470   5.257   4.724   2.315 -0.4952 -1.5874  1.8664
  866MOL0     H19471   5.487   4.817   2.226  0.6541 -0.9578 -0.6266
  866MOL0     H19472   5.815   4.776   2.507  0.7009 -0.2367  0.4174
  866MOL0     H19473   5.835   4.648   2.384 -0.5654  0.4362 -0.6390
  866MOL0     H19474   6.032   4.765   2.376 -0.1914  0.3878  2.3512
  866MOL0     H19475   5.943   4.831   2.234 -1.4271  0.8402  0.9574
  866MOL0     H19476   6.006   4.978   2.497 -0.2753  0.5544  0.0576
  866MOL0     H19477   5.875   5.025   2.395 -0.5683 -1.0836  0.6136
  866MOL0     H19478   6.040   5.154   2.346 -1.3290 -0.2124  0.4025
  866MOL0     H19479   6.066   5.052   2.202  2.4540  3.2431 -0.2178
  866MOL0     H19480   6.218   5.072   2.460 -1.5760  0.5846 -0.8216
  866MOL0     H19481   6.243   4.927   2.364 -0.0386  0.6315  2.3619
  866MOL0     H19482   6.405   5.104   2.303 -0.2803  0.2422  0.6131
  866MOL0     H19483   6.271   5.204   2.246 -2.4380 -0.4733  1.5086
  866MOL0     H19484   6.317   5.088   2.041  1.6838  1.0700  1.1163
  866MOL0     H19485   6.242   4.946   2.124 -0.5701  0.8575  0.9295
  866MOL0     H19486   6.543   5.018   2.137  0.1811  0.1466  1.5091
  866MOL0     H19487   6.467   4.897   2.037 -1.2707 -1.6809  1.0063
  866MOL0     H19488   5.662   4.655   2.593 -1.2571 -1.3878  0.6632
  866MOL0     H19489   5.444   4.607   2.674  0.1640  2.2780  1.2732
  866MOL0     H19490   5.021   4.849   2.849 -0.1946 -0.3952  1.8453
  866MOL0     H19491   4.798   4.813   2.916 -0.4517 -2.2501  2.0437
  866MOL0     H19492   3.015   4.253   2.186  0.4856  0.9457  0.9683
  866MOL0     H19493   2.893   4.286   2.009  1.2078  3.4482  1.7860
  866MOL0     H19494   2.925   4.432   1.543  0.7610 -0.0833 -0.6826
  866MOL0     H19495   2.865   4.489   1.316 -0.1322 -1.7263 -1.7565
  866MOL0     H19496   2.619   4.189   1.098 -0.9850 -0.6294 -1.9244
  866MOL0     H19497   2.493   4.299   1.142  0.2383  1.8495 -0.4495
  866MOL0     H19498   2.551   4.269   0.899 -1.3963 -1.1039  2.4985
  866MOL0     H19499   2.702   4.361   0.936  0.3109  1.0321  0.4895
  866MOL0     H19500   2.400   4.450   0.969  0.1344  0.4441  0.8193
  866MOL0     H19501   2.530   4.554   1.022 -3.8573  2.1218 -0.2635
  866MOL0     H19502   2.414   4.608   0.805 -0.0623  0.1495  1.9035
  866MOL0     H19503   2.491   4.463   0.739 -2.7188 -1.4737  3.3511
  866MOL0     H19504   2.784   4.780   0.757 -0.0109  0.1844 -1.0065
  866MOL0     H19505   2.571   4.182   1.315 -0.9012  1.7502  0.3993
  866MOL0     H19506   2.607   3.976   1.444  0.9569 -0.2641  0.1562
  866MOL0     H19507   2.750   3.976   1.546  0.0536 -0.1691 -0.0461
  866MOL0     H19508   2.590   4.030   1.608 -0.6180  2.3756  0.9664
  867MOL0     O19509   7.010   9.492   6.525 -0.6182  0.3738 -0.6560
  867MOL0     C19510   7.003   9.542   6.637 -0.2708  0.9939  0.2563
  867MOL0     O19511   7.086   9.638   6.688  0.8695  0.1617 -0.5220
  867MOL0     C19512   7.207   9.632   6.636  0.1222 -0.6717 -1.0736
  867MOL0     C19513   7.310   9.548   6.690 -0.0383 -0.3239  0.1129
  867MOL0     C19514   7.439   9.540   6.628  0.4039 -0.8498  0.6061
  867MOL0     C19515   7.468   9.624   6.513 -0.2592 -0.2623 -0.1290
  867MOL0     O19516   7.600   9.620   6.461  0.1521 -0.0061  0.3667
  867MOL0     C19517   7.638   9.722   6.359 -0.3216  0.7266 -0.6599
  867MOL0     C19518   7.799   9.727   6.350  0.2440 -0.0556 -0.4519
  867MOL0     C19519   7.859   9.833   6.432  0.7222 -0.3249 -0.3227
  867MOL0     C19520   8.011   9.806   6.424  0.7119  0.0731 -0.3859
  867MOL0     C19521   8.087   9.899   6.517 -0.6689 -0.2612  0.2867
  867MOL0     C19522   8.225   9.847   6.557  0.4244 -1.0455 -1.1659
  867MOL0     C19523   8.298   9.965   6.630 -0.6011 -0.2622  0.6846
  867MOL0     C19524   8.397   9.928   6.737  0.4510  0.6631 -0.1441
  867MOL0     N19525   8.528   9.883   6.677  0.2568  0.1546 -0.9637
  867MOL0     C19526   8.588   9.754   6.685  0.6300 -0.9150  0.3340
  867MOL0     C19527   8.704   9.766   6.628 -0.1814  0.4705 -0.4642
  867MOL0     C19528   8.798   9.646   6.623 -0.2986  0.7979  0.5816
  867MOL0     C19529   8.864   9.645   6.476  0.0662 -0.2413 -0.5571
  867MOL0     C19530   8.938   9.510   6.463 -0.0300 -0.7104  0.5951
  867MOL0     C19531   9.013   9.506   6.330 -0.5637  0.1199  0.4216
  867MOL0     O19532   9.085   9.381   6.318 -0.8498  0.7018 -0.0566
  867MOL0     C19533   9.222   9.391   6.355 -0.3830  0.4886 -0.7794
  867MOL0     C19534   9.278   9.478   6.452 -0.1409 -0.3043 -0.1579
  867MOL0     C19535   9.415   9.484   6.488  0.6728  0.1072  0.1859
  867MOL0     C19536   9.452   9.597   6.581  0.2657  0.9352  0.5186
  867MOL0     C19537   9.504   9.391   6.426 -0.0126  0.9796  0.1278
  867MOL0     C19538   9.653   9.381   6.432  0.3070 -0.5478  0.6304
  867MOL0     O19539   9.718   9.276   6.367  0.0056  0.0035  0.2991
  867MOL0     C19540   9.853   9.251   6.395 -0.5695 -1.3637  0.6956
  867MOL0     C19541   9.889   9.119   6.414  0.2798 -0.3405  0.1226
  867MOL0     C19542  10.019   9.083   6.438  0.7144  0.2043  0.0954
  867MOL0     C19543  10.123   9.177   6.441 -0.3968 -0.3540 -0.1102
  867MOL0     O19544  10.250   9.125   6.458  0.8664 -0.2774 -0.0817
  867MOL0     C19545  10.359   9.205   6.445 -0.9373 -1.1159 -0.0137
  867MOL0     C19546  10.486   9.123   6.451  0.3950  0.9187  0.3968
  867MOL0     C19547  10.478   8.992   6.369 -0.2199  0.2080  0.2561
  867MOL0     C19548  10.605   8.904   6.390  0.2675 -0.5685 -0.1865
  867MOL0     C19549  10.605   8.807   6.273 -0.1028 -0.4174 -0.1219
  867MOL0     C19550  10.720   8.710   6.275 -0.4097  0.2513 -0.1904
  867MOL0     C19551  10.735   8.635   6.142  0.0915 -0.6101 -0.4013
  867MOL0     C19552  10.874   8.631   6.084  0.9253 -0.3198 -0.0877
  867MOL0    Cl19553  10.878   8.566   5.918 -0.0213 -0.2768 -0.2538
  867MOL0     C19554  10.097   9.307   6.415 -0.2054  1.2747 -0.7526
  867MOL0     C19555   9.961   9.340   6.398 -0.3756 -0.3794  0.0929
  867MOL0     O19556   9.706   9.474   6.490 -0.2555  0.0390 -0.4392
  867MOL0     C19557   9.445   9.300   6.335  1.1152  0.3966 -0.6332
  867MOL0     C19558   9.309   9.294   6.300 -0.1765 -0.0594 -0.2821
  867MOL0     N19559   8.722   9.897   6.600 -0.1468 -0.4674 -0.5338
  867MOL0     N19560   8.621   9.973   6.632 -0.3572  1.1008  0.2312
  867MOL0     C19561   7.367   9.697   6.466  0.5487  0.0248  0.8100
  867MOL0     C19562   7.238   9.704   6.520  0.2581  0.5939 -0.6929
  867MOL0     C19563   6.891   9.490   6.722  0.0158  0.0948 -0.9237
  867MOL0     C19564   6.863   9.539   6.854 -1.0922  0.8528  0.4176
  867MOL0     C19565   6.770   9.485   6.946 -0.4738 -0.0354  0.2480
  867MOL0     C19566   6.679   9.392   6.903  0.0802  0.0747  0.1002
  867MOL0     O19567   6.580   9.354   6.990  0.4924 -0.4928  0.6789
  867MOL0     C19568   6.549   9.212   7.011 -1.1947 -0.4747  0.5191
  867MOL0     C19569   6.473   9.181   7.138 -0.4902  0.2805 -0.5864
  867MOL0     C19570   6.382   9.297   7.174  0.0407 -0.2264 -0.2563
  867MOL0     C19571   6.269   9.244   7.267  1.2216  0.8320 -0.0406
  867MOL0     C19572   6.178   9.156   7.190 -0.1187 -0.5408  0.2691
  867MOL0     C19573   6.097   9.086   7.123  0.0173  0.5443 -0.3810
  867MOL0     C19574   6.707   9.337   6.780 -0.0903  0.0992  0.5506
  867MOL0     C19575   6.801   9.380   6.689 -0.9082 -0.6847 -0.2518
  867MOL0     C19576   6.812   9.302   6.560  0.4594 -0.0674  0.4755
  867MOL0     H19577   7.292   9.490   6.780  1.1166  0.5414  0.9239
  867MOL0     H19578   7.513   9.471   6.667  1.0546  0.8204  2.4893
  867MOL0     H19579   7.604   9.822   6.387  0.6963  1.2439 -1.1993
  867MOL0     H19580   7.588   9.694   6.266 -0.7630  0.7924 -0.4450
  867MOL0     H19581   7.843   9.629   6.373 -0.5970 -0.4802 -0.5973
  867MOL0     H19582   7.827   9.750   6.247  2.4606  2.4436  0.5998
  867MOL0     H19583   7.825   9.934   6.406 -0.9742 -0.9550 -0.6415
  867MOL0     H19584   7.812   9.819   6.530  0.4885 -1.0062 -0.5305
  867MOL0     H19585   8.026   9.700   6.443 -3.0339 -0.5555 -0.1757
  867MOL0     H19586   8.057   9.822   6.326  0.7158 -1.2245 -0.6093
  867MOL0     H19587   8.030   9.916   6.609 -1.1636  0.7835 -0.1969
  867MOL0     H19588   8.080   9.998   6.471 -1.8149 -0.2855  0.3804
  867MOL0     H19589   8.216   9.759   6.622 -2.5352 -0.6037 -0.8399
  867MOL0     H19590   8.287   9.819   6.472  1.2530 -3.6750  0.2025
  867MOL0     H19591   8.220  10.028   6.675 -0.9993 -0.0995 -0.2122
  867MOL0     H19592   8.349  10.040   6.568 -2.3375  3.7718  3.6269
  867MOL0     H19593   8.416  10.019   6.794 -1.9754  2.0015 -1.3076
  867MOL0     H19594   8.351   9.849   6.797 -0.2112 -0.8458 -2.4968
  867MOL0     H19595   8.546   9.660   6.721  1.0925 -0.6256  1.6798
  867MOL0     H19596   8.733   9.563   6.653 -1.3784  1.1902 -0.5685
  867MOL0     H19597   8.884   9.666   6.688  1.9459 -1.8570 -1.3195
  867MOL0     H19598   8.792   9.641   6.394 -0.5725  1.7661 -0.1384
  867MOL0     H19599   8.922   9.737   6.470 -2.4590  1.6971  1.8573
  867MOL0     H19600   9.011   9.516   6.544  2.4363 -1.6670 -1.4359
  867MOL0     H19601   8.868   9.427   6.473 -2.4196  1.1385  0.2088
  867MOL0     H19602   8.943   9.512   6.247  0.0414 -2.1741 -0.3119
  867MOL0     H19603   9.071   9.599   6.334 -0.8465  0.4377 -1.7040
  867MOL0     H19604   9.201   9.543   6.493  0.2125 -0.3050  0.5283
  867MOL0     H19605   9.544   9.649   6.551 -0.0400  0.7909 -0.6935
  867MOL0     H19606   9.465   9.559   6.683 -1.5690 -0.0214  0.4285
  867MOL0     H19607   9.373   9.670   6.563 -1.4950 -1.1602 -0.8163
  867MOL0     H19608   9.811   9.044   6.410 -1.0531  1.0655 -2.5265
  867MOL0     H19609  10.041   8.980   6.464 -0.8526 -0.2613 -0.3140
  867MOL0     H19610  10.355   9.255   6.347  0.4204 -0.1565  0.3890
  867MOL0     H19611  10.358   9.288   6.516 -0.9091 -0.7784 -0.4011
  867MOL0     H19612  10.575   9.178   6.419  1.6184 -1.4002 -0.3434
  867MOL0     H19613  10.503   9.088   6.554  0.4618  1.2606  0.5041
  867MOL0     H19614  10.476   9.024   6.265 -0.1787  0.3755  0.3063
  867MOL0     H19615  10.389   8.935   6.398  0.0351  0.0221  0.7029
  867MOL0     H19616  10.601   8.854   6.487 -0.7544 -1.7955 -0.8364
  867MOL0     H19617  10.693   8.969   6.378 -0.5187  0.3310 -1.3646
  867MOL0     H19618  10.521   8.738   6.284 -0.6326 -0.2970 -2.8361
  867MOL0     H19619  10.598   8.861   6.178 -0.0440  1.0575  0.6718
  867MOL0     H19620  10.699   8.641   6.356 -1.0545  1.2910  0.5522
  867MOL0     H19621  10.814   8.762   6.292 -0.0805 -0.7636  1.1889
  867MOL0     H19622  10.669   8.682   6.068  2.4860 -0.5864 -2.6840
  867MOL0     H19623  10.694   8.534   6.148  0.1134 -0.5559  1.1726
  867MOL0     H19624  10.941   8.583   6.156  2.7242 -1.6832 -2.5242
  867MOL0     H19625  10.910   8.734   6.076 -1.2502  0.8113  2.7832
  867MOL0     H19626  10.174   9.383   6.416  0.6038  0.6131 -3.5226
  867MOL0     H19627   9.938   9.443   6.374 -0.2375  0.3847  2.8074
  867MOL0     H19628   9.506   9.236   6.271 -1.3718  1.2409 -4.1447
  867MOL0     H19629   9.285   9.233   6.213  0.7749 -1.7028  0.5464
  867MOL0     H19630   7.374   9.748   6.370 -0.9586 -3.1147 -1.1465
  867MOL0     H19631   7.149   9.754   6.482 -0.6870  1.5950  2.5546
  867MOL0     H19632   6.929   9.621   6.880  1.9746 -0.5660 -2.1603
  867MOL0     H19633   6.770   9.521   7.049  1.5709  0.1848  0.2134
  867MOL0     H19634   6.484   9.178   6.930 -5.3731  1.1290  2.9012
  867MOL0     H19635   6.645   9.159   7.009 -0.7914  0.1962 -2.7491
  867MOL0     H19636   6.554   9.162   7.210  0.2093  1.6990 -0.9701
  867MOL0     H19637   6.429   9.082   7.119  1.1225 -1.0759  2.0899
  867MOL0     H19638   6.454   9.359   7.229  0.3110 -2.5402  2.2109
  867MOL0     H19639   6.327   9.346   7.094 -1.8045  0.1144  1.1713
  867MOL0     H19640   6.199   9.321   7.300  0.9015 -0.2577  1.9868
  867MOL0     H19641   6.309   9.193   7.355 -1.0949  0.2381  0.7521
  867MOL0     H19642   6.027   9.041   7.055 -1.2999  0.4303  0.9982
  867MOL0     H19643   6.635   9.267   6.738 -0.4693  1.0479 -0.4022
  867MOL0     H19644   6.750   9.213   6.572  1.1043 -0.2161  3.5991
  867MOL0     H19645   6.776   9.359   6.474  1.1190 -0.4743 -0.0797
  867MOL0     H19646   6.910   9.273   6.523 -0.6604  0.2243 -3.0797
  868MOL0     O19647   2.529   1.362   0.619  0.7015 -0.5642 -0.1923
  868MOL0     C19648   2.447   1.448   0.652  0.2080 -0.3661 -0.3429
  868MOL0     O19649   2.342   1.438   0.743 -0.3965  0.5941 -0.1408
  868MOL0     C19650   2.354   1.318   0.815  0.5490  0.4063 -0.1481
  868MOL0     C19651   2.475   1.281   0.881 -0.0642  0.3870 -0.7281
  868MOL0     C19652   2.476   1.163   0.961  0.1745 -0.5918  0.0231
  868MOL0     C19653   2.365   1.077   0.972  0.7881  0.0402 -0.9389
  868MOL0     O19654   2.382   0.971   1.054  1.0788 -0.1789  0.0396
  868MOL0     C19655   2.301   0.857   1.026 -0.2690  0.4982  0.1279
  868MOL0     C19656   2.326   0.732   1.099 -0.2992  0.0073  0.3899
  868MOL0     C19657   2.463   0.661   1.052 -0.1453 -0.3502  0.2318
  868MOL0     C19658   2.442   0.586   0.911  0.6094 -0.1345  0.1651
  868MOL0     C19659   2.561   0.505   0.870 -0.6971  0.5684  0.1457
  868MOL0     C19660   2.541   0.407   0.764 -1.3411  0.1913  0.3575
  868MOL0     C19661   2.678   0.332   0.736 -0.1153 -0.5827 -0.3195
  868MOL0     C19662   2.664   0.237   0.616  0.5826 -0.1568  0.2091
  868MOL0     N19663   2.770   0.140   0.612 -0.2931  0.1086  0.0489
  868MOL0     C19664   2.909   0.167   0.589  0.9897  0.1460 -0.3047
  868MOL0     C19665   2.966   0.044   0.613  0.4926 -0.2674 -0.6293
  868MOL0     C19666   3.113   0.003   0.600 -0.1535  0.8206  0.3483
  868MOL0     C19667   3.189  -0.029   0.730 -0.5113 -0.5745 -1.1926
  868MOL0     C19668   3.328  -0.083   0.703 -1.5494  0.6445  0.0921
  868MOL0     C19669   3.434  -0.046   0.814  0.3471 -0.6687 -0.3989
  868MOL0     O19670   3.560  -0.117   0.823  0.8217 -0.6712 -0.4482
  868MOL0     C19671   3.666  -0.078   0.738  0.1133 -0.0533 -0.0437
  868MOL0     C19672   3.791  -0.137   0.749 -0.9425 -0.2776 -0.9091
  868MOL0     C19673   3.894  -0.124   0.659 -0.3426 -0.0648  0.1113
  868MOL0     C19674   4.029  -0.192   0.693 -0.8780 -0.3526  0.4234
  868MOL0     C19675   3.878  -0.040   0.550  0.0024 -0.0395 -0.0644
  868MOL0     C19676   3.985  -0.024   0.443 -0.3229  0.9090 -0.5152
  868MOL0     O19677   3.958   0.074   0.350  0.4497 -0.4256 -0.1564
  868MOL0     C19678   4.051   0.111   0.255 -0.8574  0.0127 -0.0639
  868MOL0     C19679   4.038   0.077   0.116 -0.1881 -0.6773 -0.2579
  868MOL0     C19680   4.135   0.132   0.033 -0.5003  0.2171  0.1303
  868MOL0     C19681   4.233   0.227   0.072  0.3099  0.4476  0.3559
  868MOL0     O19682   4.325   0.265  -0.019 -0.2102  0.2677  0.2615
  868MOL0     C19683   4.439   0.171  -0.028  0.2548  0.2641 -0.4920
  868MOL0     C19684   4.556   0.212   0.058  0.9568  0.5384  0.2468
  868MOL0     C19685   4.677   0.135   0.014  0.2552  1.3717 -0.2369
  868MOL0     C19686   4.682  -0.003   0.091 -0.2496  0.2712 -0.3852
  868MOL0     C19687   4.798  -0.085   0.027  1.2579 -0.2430  0.4247
  868MOL0     C19688   4.828  -0.212   0.119 -0.2856 -0.9868 -0.3378
  868MOL0     C19689   4.955  -0.289   0.089  0.3661  0.5887 -0.0781
  868MOL0     C19690   4.954  -0.356  -0.054 -0.3275 -0.2184  0.4916
  868MOL0    Cl19691   5.096  -0.461  -0.061 -0.2644 -0.4293  0.4978
  868MOL0     C19692   4.230   0.274   0.205 -0.4096 -0.2233 -0.0594
  868MOL0     C19693   4.143   0.206   0.294  0.3452  0.2546  0.8221
  868MOL0     O19694   4.079  -0.103   0.445  0.7332 -0.2196  0.0025
  868MOL0     C19695   3.758   0.038   0.546  0.0435  0.1998  0.1488
  868MOL0     C19696   3.652   0.021   0.643 -0.6189  0.1578  0.6326
  868MOL0     N19697   2.872  -0.049   0.647  0.4361  0.2406  0.2131
  868MOL0     N19698   2.752   0.003   0.635  0.7426  0.2063 -0.1481
  868MOL0     C19699   2.246   1.111   0.896 -0.4193 -0.9242 -0.8131
  868MOL0     C19700   2.247   1.227   0.815  0.3023 -0.3765 -0.0477
  868MOL0     C19701   2.453   1.591   0.596 -0.4735  0.8857  0.7926
  868MOL0     C19702   2.334   1.660   0.556 -0.1643 -0.1593  0.6984
  868MOL0     C19703   2.351   1.782   0.483  0.2848  1.0249  1.0457
  868MOL0     C19704   2.468   1.835   0.452 -0.3117 -0.1849  0.0138
  868MOL0     O19705   2.465   1.954   0.371  1.0413  1.2777  0.7465
  868MOL0     C19706   2.572   1.997   0.291  0.6853  0.2009 -0.1948
  868MOL0     C19707   2.561   1.923   0.148 -0.6268 -0.3197 -0.2966
  868MOL0     C19708   2.425   1.964   0.072  0.0606  0.3326  0.4891
  868MOL0     C19709   2.417   1.911  -0.071  0.3206  0.4994 -0.7510
  868MOL0     C19710   2.275   1.878  -0.097  0.3988 -1.0195  0.2088
  868MOL0     C19711   2.160   1.848  -0.109  0.8139  0.0125  0.1846
  868MOL0     C19712   2.581   1.769   0.502  0.0637 -0.5215 -0.0405
  868MOL0     C19713   2.581   1.647   0.579  0.5726  0.1955  0.2455
  868MOL0     C19714   2.710   1.593   0.635 -0.3283  0.5216 -0.4571
  868MOL0     H19715   2.565   1.340   0.878  0.7123 -0.7394 -0.3963
  868MOL0     H19716   2.563   1.147   1.025  0.1331  3.1053  1.2217
  868MOL0     H19717   2.321   0.840   0.919  0.2971  2.6020 -0.1349
  868MOL0     H19718   2.196   0.883   1.040 -0.3124  0.3431  0.0916
  868MOL0     H19719   2.349   0.773   1.198  0.6770 -2.6267  1.3612
  868MOL0     H19720   2.244   0.660   1.092  0.5570 -0.8059 -3.0524
  868MOL0     H19721   2.544   0.734   1.044  0.7890 -1.1581  1.8575
  868MOL0     H19722   2.495   0.595   1.133  0.8191  0.7549  0.7817
  868MOL0     H19723   2.356   0.519   0.921  0.5225  0.1267  1.2464
  868MOL0     H19724   2.421   0.661   0.834 -0.0379 -0.2966  0.1852
  868MOL0     H19725   2.598   0.452   0.958  0.9346  0.1371 -0.7582
  868MOL0     H19726   2.642   0.574   0.842 -0.1152 -0.9825 -2.3345
  868MOL0     H19727   2.474   0.331   0.805  1.2610 -2.0587  0.7198
  868MOL0     H19728   2.496   0.444   0.672  2.1342  1.3228 -1.0674
  868MOL0     H19729   2.702   0.284   0.832 -4.0451  1.2410  1.8167
  868MOL0     H19730   2.762   0.395   0.704 -0.2261  0.8785  1.9911
  868MOL0     H19731   2.567   0.188   0.628  0.2214  0.0713 -1.5636
  868MOL0     H19732   2.665   0.292   0.521 -1.4800  0.4338  0.4840
  868MOL0     H19733   2.956   0.260   0.559 -1.6294  0.8033 -2.8266
  868MOL0     H19734   3.170   0.070   0.535  0.6590 -0.6415 -0.5046
  868MOL0     H19735   3.115  -0.089   0.540  1.3941  0.7095  0.5339
  868MOL0     H19736   3.208   0.063   0.786  1.1230 -2.1997  1.0983
  868MOL0     H19737   3.144  -0.095   0.806  2.8502 -0.2646  1.2666
  868MOL0     H19738   3.313  -0.191   0.705 -3.2837  0.8528  0.7726
  868MOL0     H19739   3.371  -0.056   0.606 -3.8027 -0.0215 -1.1714
  868MOL0     H19740   3.462   0.060   0.806  1.8946 -1.0581 -0.3579
  868MOL0     H19741   3.383  -0.058   0.910  2.6631  0.2340  1.0528
  868MOL0     H19742   3.793  -0.205   0.833 -1.3984  2.2865  1.3483
  868MOL0     H19743   4.108  -0.119   0.710  0.2740 -0.9083 -2.1099
  868MOL0     H19744   4.056  -0.271   0.621 -2.0227 -0.3810  0.0065
  868MOL0     H19745   4.024  -0.241   0.791  0.1280 -0.8531  0.2358
  868MOL0     H19746   3.962   0.008   0.078 -0.6709  0.6554 -1.8334
  868MOL0     H19747   4.144   0.102  -0.071 -0.5078 -0.0218  0.1968
  868MOL0     H19748   4.408   0.069  -0.002  0.4083  0.6150  1.1956
  868MOL0     H19749   4.476   0.185  -0.130 -0.3412 -1.8566 -1.0598
  868MOL0     H19750   4.572   0.320   0.047 -0.1369  1.1190  3.2794
  868MOL0     H19751   4.530   0.189   0.162  1.3908  1.3572  0.5519
  868MOL0     H19752   4.764   0.194   0.046  1.2568 -0.5023  0.6567
  868MOL0     H19753   4.686   0.128  -0.095 -4.7747 -2.6494 -0.7861
  868MOL0     H19754   4.595  -0.061   0.059  1.2139 -1.1092 -2.1107
  868MOL0     H19755   4.678   0.003   0.200  1.0886  0.3573 -0.3243
  868MOL0     H19756   4.776  -0.125  -0.072  0.0826  0.4492  0.3988
  868MOL0     H19757   4.889  -0.027   0.012  1.0436 -0.1131 -0.3943
  868MOL0     H19758   4.739  -0.275   0.111 -1.4491  0.6019 -0.3112
  868MOL0     H19759   4.823  -0.179   0.223 -0.1862 -0.7541 -0.4048
  868MOL0     H19760   4.956  -0.372   0.161  0.1466 -1.5112 -2.3668
  868MOL0     H19761   5.042  -0.224   0.099  0.7002 -0.0008  1.0034
  868MOL0     H19762   4.963  -0.273  -0.125 -2.6846  2.4307  3.0333
  868MOL0     H19763   4.862  -0.411  -0.073 -0.3210  0.0585 -0.4131
  868MOL0     H19764   4.292   0.358   0.233 -1.7273  1.2567 -1.3843
  868MOL0     H19765   4.144   0.241   0.396 -2.3299 -0.3942  1.1297
  868MOL0     H19766   3.739   0.111   0.468 -2.1776 -1.5105 -1.0401
  868MOL0     H19767   3.560   0.076   0.626 -0.8327 -0.2228  0.5335
  868MOL0     H19768   2.155   1.051   0.906 -0.1031 -1.4619 -1.1137
  868MOL0     H19769   2.160   1.254   0.756  0.7506  0.9312 -0.1477
  868MOL0     H19770   2.232   1.624   0.564 -0.8056  1.3124 -0.3526
  868MOL0     H19771   2.266   1.836   0.443  1.2963  2.7395  1.1007
  868MOL0     H19772   2.572   2.105   0.276  3.5395  0.5278  1.4584
  868MOL0     H19773   2.668   1.967   0.335  0.9838  0.2102 -0.8394
  868MOL0     H19774   2.571   1.817   0.173  0.3907  0.0253  0.8548
  868MOL0     H19775   2.649   1.949   0.088 -0.3660  0.5219  0.4291
  868MOL0     H19776   2.344   1.916   0.129  1.3836 -2.3264  0.2796
  868MOL0     H19777   2.418   2.073   0.062 -2.4943  0.0756 -1.6539
  868MOL0     H19778   2.476   1.819  -0.086 -0.7395 -0.2855 -0.2024
  868MOL0     H19779   2.469   1.987  -0.131  1.5608  1.1372  1.0441
  868MOL0     H19780   2.061   1.810  -0.127  0.7900  0.5267 -0.8518
  868MOL0     H19781   2.676   1.820   0.489  0.5777 -1.7566 -1.3317
  868MOL0     H19782   2.691   1.543   0.730  1.5700  0.0209 -0.3060
  868MOL0     H19783   2.756   1.519   0.569 -1.1652  0.1779 -0.6637
  868MOL0     H19784   2.781   1.674   0.653  0.1476 -0.4782  2.9557
  869MOL0     O19785   4.091   8.392   9.521  0.3643  0.1395 -0.3603
  869MOL0     C19786   4.078   8.331   9.627  0.2029 -0.7099  0.7271
  869MOL0     O19787   4.177   8.274   9.707 -0.2061  0.4225  0.9204
  869MOL0     C19788   4.301   8.322   9.709  0.4056 -0.4732 -0.1929
  869MOL0     C19789   4.401   8.231   9.747  0.2607 -0.4022 -0.6423
  869MOL0     C19790   4.537   8.271   9.744  0.1316  0.1280 -0.2241
  869MOL0     C19791   4.559   8.405   9.700 -0.2409 -0.2625 -0.2876
  869MOL0     O19792   4.691   8.442   9.711 -0.1123  0.2428  0.2736
  869MOL0     C19793   4.713   8.566   9.779 -0.1520 -0.2554 -0.0920
  869MOL0     C19794   4.871   8.595   9.777 -0.2356  0.3231  0.4856
  869MOL0     C19795   4.922   8.718   9.851  0.4649 -0.1383 -0.7704
  869MOL0     C19796   4.917   8.686  10.000 -0.0864  0.1192 -0.2779
  869MOL0     C19797   5.000   8.802  10.069 -1.2132  0.6044  0.8182
  869MOL0     C19798   5.150   8.758  10.094  0.5028  0.2574 -0.2973
  869MOL0     C19799   5.241   8.880  10.124 -0.1403 -1.0794  0.8699
  869MOL0     C19800   5.371   8.847  10.180 -1.6811  0.7664  0.6900
  869MOL0     N19801   5.439   8.724  10.127  0.2003 -0.6729  0.2961
  869MOL0     C19802   5.552   8.735  10.050  0.1055  0.1125 -0.3654
  869MOL0     C19803   5.598   8.610  10.043  0.7498 -0.0300  0.7474
  869MOL0     C19804   5.705   8.550   9.961  1.5263 -0.0639 -0.0982
  869MOL0     C19805   5.840   8.573  10.018 -0.3539  0.3059  0.0480
  869MOL0     C19806   5.951   8.522   9.926 -0.4748  0.4372 -0.1873
  869MOL0     C19807   5.988   8.618   9.811 -0.4527 -0.2502 -0.6996
  869MOL0     O19808   6.064   8.731   9.852 -0.4648 -0.3094  0.8551
  869MOL0     C19809   6.197   8.718   9.838 -0.9986 -0.6902 -0.0555
  869MOL0     C19810   6.284   8.737   9.944  0.0967  0.2529 -0.0017
  869MOL0     C19811   6.420   8.753   9.930 -0.6860  0.2752 -0.0331
  869MOL0     C19812   6.505   8.791  10.061 -0.1300 -0.3318  0.4232
  869MOL0     C19813   6.476   8.718   9.806  0.2346 -0.5141  0.7390
  869MOL0     C19814   6.624   8.716   9.781  0.6837 -0.3337 -0.4379
  869MOL0     O19815   6.667   8.703   9.654 -0.3667 -0.0364 -0.1515
  869MOL0     C19816   6.797   8.652   9.646 -0.9417 -0.5800  0.1916
  869MOL0     C19817   6.831   8.520   9.679 -0.1368  0.0579  0.7239
  869MOL0     C19818   6.968   8.487   9.674  0.2121 -0.6795  0.9409
  869MOL0     C19819   7.073   8.579   9.634  0.1206  0.4368  0.1563
  869MOL0     O19820   7.206   8.548   9.606  0.3521  0.5307 -0.1851
  869MOL0     C19821   7.262   8.414   9.637 -0.8051 -0.0076  0.1266
  869MOL0     C19822   7.397   8.427   9.711 -0.0687  0.3288  0.4084
  869MOL0     C19823   7.508   8.495   9.625 -0.8554  0.5928  0.4137
  869MOL0     C19824   7.644   8.456   9.688 -0.6779 -0.6041 -0.7119
  869MOL0     C19825   7.758   8.451   9.592 -0.7482 -0.1985  0.7377
  869MOL0     C19826   7.891   8.409   9.665  0.3463  0.0245 -0.2825
  869MOL0     C19827   8.004   8.393   9.570 -0.1612 -0.4701  0.6060
  869MOL0     C19828   8.116   8.328   9.645 -0.3240  0.4437 -0.1965
  869MOL0    Cl19829   8.073   8.162   9.691 -0.4907  0.3321 -0.0224
  869MOL0     C19830   7.027   8.704   9.601 -0.4075 -0.2297 -0.0478
  869MOL0     C19831   6.895   8.742   9.606  0.0479  0.5538  0.1353
  869MOL0     O19832   6.695   8.718   9.882 -0.2418 -0.6602  0.3054
  869MOL0     C19833   6.393   8.687   9.701 -0.2139 -0.2631  0.9442
  869MOL0     C19834   6.260   8.699   9.712  0.0254 -0.4639  0.1193
  869MOL0     N19835   5.509   8.531  10.112  0.5028  0.1199  0.2573
  869MOL0     N19836   5.426   8.601  10.170  0.1799  0.3860 -0.3461
  869MOL0     C19837   4.458   8.491   9.653  0.6942  0.0020  0.2615
  869MOL0     C19838   4.329   8.453   9.670 -0.2228 -0.3555  0.2912
  869MOL0     C19839   3.940   8.300   9.662 -0.0125  0.3326 -0.1391
  869MOL0     C19840   3.911   8.206   9.761  0.8418  0.2649 -0.0656
  869MOL0     C19841   3.782   8.171   9.800 -0.0178  0.6019 -0.1606
  869MOL0     C19842   3.671   8.217   9.749  1.0526  0.9960 -0.2750
  869MOL0     O19843   3.539   8.175   9.774 -0.8180  0.1082  0.1799
  869MOL0     C19844   3.510   8.056   9.850 -0.1770  0.7286  0.3844
  869MOL0     C19845   3.554   7.939   9.763 -0.4764 -0.0590  0.2337
  869MOL0     C19846   3.449   7.916   9.649 -0.1424  0.4125 -0.7899
  869MOL0     C19847   3.468   7.784   9.570  0.4210  0.2054  0.0575
  869MOL0     C19848   3.576   7.783   9.481 -0.1116  0.0744 -0.3585
  869MOL0     C19849   3.673   7.762   9.415 -0.1944 -0.1996 -0.4229
  869MOL0     C19850   3.690   8.313   9.657  0.6659  0.5817  0.1579
  869MOL0     C19851   3.820   8.354   9.620 -0.4850 -0.8841  0.1166
  869MOL0     C19852   3.815   8.476   9.526 -0.2565  0.6318 -0.2813
  869MOL0     H19853   4.382   8.127   9.772  0.8309  0.4482  4.2270
  869MOL0     H19854   4.621   8.207   9.765  1.9485  2.7000  0.9458
  869MOL0     H19855   4.679   8.559   9.882  2.1818  1.3605  0.8812
  869MOL0     H19856   4.661   8.649   9.730 -4.8265 -1.8203  1.6523
  869MOL0     H19857   4.931   8.508   9.806  3.0623  0.9196 -3.6210
  869MOL0     H19858   4.908   8.594   9.674  2.6243  0.9616  1.4356
  869MOL0     H19859   5.024   8.740   9.821  0.5656  2.8544  1.3446
  869MOL0     H19860   4.854   8.799   9.822 -0.0717 -0.5227 -0.6193
  869MOL0     H19861   4.818   8.703  10.041  0.8052 -2.4594  3.4684
  869MOL0     H19862   4.954   8.584  10.015  1.3713  0.6831  0.1346
  869MOL0     H19863   4.950   8.828  10.163  1.1383  2.6470  1.6186
  869MOL0     H19864   5.002   8.887   9.999  2.7726 -0.0276 -0.0857
  869MOL0     H19865   5.142   8.695  10.184  0.9827  1.1982  0.4267
  869MOL0     H19866   5.183   8.697  10.009 -1.1763 -0.0635 -0.7603
  869MOL0     H19867   5.191   8.945  10.196 -0.9140  1.0696 -1.4181
  869MOL0     H19868   5.248   8.942  10.034  1.3989  0.5316  2.0305
  869MOL0     H19869   5.434   8.935  10.167  0.7845 -0.8094  1.4182
  869MOL0     H19870   5.355   8.825  10.286 -1.2567 -0.1983  0.5678
  869MOL0     H19871   5.595   8.824  10.004  0.6719 -0.0852 -0.2277
  869MOL0     H19872   5.698   8.594   9.861  3.8558  2.1982  0.6260
  869MOL0     H19873   5.689   8.441   9.960  0.3598  0.0979 -0.3568
  869MOL0     H19874   5.851   8.679  10.041 -3.3910  0.5563  0.8023
  869MOL0     H19875   5.844   8.526  10.117  0.9975  0.1751 -0.0568
  869MOL0     H19876   6.042   8.511   9.986  0.5828  0.1854 -1.7960
  869MOL0     H19877   5.919   8.420   9.900  0.0996 -0.8862  3.6429
  869MOL0     H19878   6.039   8.564   9.731  0.5163 -0.2139 -0.1251
  869MOL0     H19879   5.894   8.649   9.764 -1.1270  0.6776  1.1231
  869MOL0     H19880   6.251   8.741  10.047 -1.2447 -1.3250 -0.3313
  869MOL0     H19881   6.561   8.884  10.046 -0.8024  0.3389  1.8373
  869MOL0     H19882   6.573   8.710  10.088 -1.4063 -2.8128 -3.0595
  869MOL0     H19883   6.439   8.805  10.147  0.7725 -0.4719  1.1497
  869MOL0     H19884   6.758   8.443   9.702 -1.7511  1.4790  0.5318
  869MOL0     H19885   6.988   8.384   9.701  1.7228 -0.3497  1.1784
  869MOL0     H19886   7.205   8.344   9.699 -1.5640 -1.2224 -1.8205
  869MOL0     H19887   7.269   8.369   9.537 -2.7700 -0.7883  0.2932
  869MOL0     H19888   7.383   8.491   9.798  2.7033 -1.7762  2.5919
  869MOL0     H19889   7.427   8.328   9.747  0.6019  0.6480  0.7399
  869MOL0     H19890   7.489   8.601   9.605  0.9750  1.0589  0.9493
  869MOL0     H19891   7.502   8.436   9.533  1.5461 -1.0441  1.2099
  869MOL0     H19892   7.632   8.352   9.718 -3.1465  0.0978  1.0588
  869MOL0     H19893   7.659   8.506   9.784 -1.5353 -0.4841 -0.6283
  869MOL0     H19894   7.736   8.382   9.511 -2.8622  0.2353  0.8739
  869MOL0     H19895   7.775   8.553   9.556 -0.4678  0.0295  1.4906
  869MOL0     H19896   7.884   8.318   9.725  1.6381  1.2315  1.8602
  869MOL0     H19897   7.925   8.477   9.745  3.5682 -0.3434 -1.2007
  869MOL0     H19898   8.032   8.495   9.540 -0.9522 -0.3464  0.2691
  869MOL0     H19899   7.963   8.332   9.489  0.1796  1.1436 -0.8414
  869MOL0     H19900   8.133   8.384   9.738 -1.6723 -1.0773  1.0459
  869MOL0     H19901   8.204   8.325   9.580 -0.1602  1.4203 -0.0398
  869MOL0     H19902   7.094   8.779   9.561  1.0071 -0.1649  2.2695
  869MOL0     H19903   6.873   8.842   9.570  1.6224  1.3668  1.2941
  869MOL0     H19904   6.432   8.660   9.603 -1.9077 -0.4012  0.2657
  869MOL0     H19905   6.204   8.677   9.621  2.4582 -1.8256 -1.1320
  869MOL0     H19906   4.489   8.582   9.603 -0.0768 -0.4560 -1.1069
  869MOL0     H19907   4.250   8.521   9.640 -3.4106 -3.0403  2.0165
  869MOL0     H19908   3.981   8.143   9.814  0.6448 -0.2460 -0.4061
  869MOL0     H19909   3.777   8.085   9.866 -2.2291  0.8192  0.0113
  869MOL0     H19910   3.562   8.058   9.947  1.1328  2.6763 -0.2997
  869MOL0     H19911   3.405   8.057   9.880 -0.1589  0.1382  0.4711
  869MOL0     H19912   3.550   7.853   9.830 -4.0116  0.4944  0.9214
  869MOL0     H19913   3.654   7.952   9.722 -0.2742 -1.2270  0.3332
  869MOL0     H19914   3.348   7.929   9.691 -0.6207  1.0475 -2.0833
  869MOL0     H19915   3.474   8.000   9.584 -0.0360 -0.4936 -1.9488
  869MOL0     H19916   3.376   7.761   9.515  0.5636 -0.5109  0.1045
  869MOL0     H19917   3.475   7.701   9.641 -1.8342 -0.9225 -0.8864
  869MOL0     H19918   3.768   7.737   9.371 -0.2692  1.8475 -1.8864
  869MOL0     H19919   3.596   8.360   9.628 -0.2123  0.0435  1.9397
  869MOL0     H19920   3.902   8.539   9.546  0.4206 -0.7461  1.3397
  869MOL0     H19921   3.821   8.446   9.420 -2.2222 -1.5531  0.1395
  869MOL0     H19922   3.721   8.531   9.537  0.2021  2.1488 -2.9245
  870MOL0     O19923   1.327   4.172   9.489 -0.0552  0.6337 -0.4020
  870MOL0     C19924   1.237   4.226   9.555 -0.4744  0.0484 -0.7950
  870MOL0     O19925   1.265   4.335   9.639  0.2320 -0.0531 -0.5929
  870MOL0     C19926   1.357   4.425   9.606 -0.4868  0.4633 -0.0923
  870MOL0     C19927   1.377   4.474   9.479 -1.2513  0.2023  0.2527
  870MOL0     C19928   1.481   4.571   9.458 -0.1637 -1.3574 -0.7786
  870MOL0     C19929   1.550   4.631   9.568  0.5978  0.2452  0.8362
  870MOL0     O19930   1.634   4.740   9.550  0.9675  0.0089 -0.5893
  870MOL0     C19931   1.561   4.856   9.586 -0.9690 -0.5337  0.7053
  870MOL0     C19932   1.662   4.966   9.563 -0.4133  0.6639  0.2343
  870MOL0     C19933   1.586   5.098   9.592  0.4204  0.2688  0.2409
  870MOL0     C19934   1.688   5.203   9.595  0.0265 -0.2151  0.5802
  870MOL0     C19935   1.640   5.339   9.658 -0.0808 -1.1764  1.1716
  870MOL0     C19936   1.749   5.452   9.621  0.1071  0.7146  0.4914
  870MOL0     C19937   1.887   5.423   9.674  0.5209  0.1176 -0.0615
  870MOL0     C19938   1.981   5.543   9.657  0.5984  0.1736 -0.3411
  870MOL0     N19939   2.125   5.504   9.658  0.2940  0.5240 -0.0548
  870MOL0     C19940   2.186   5.395   9.598 -0.1603 -0.6964 -0.9212
  870MOL0     C19941   2.308   5.396   9.659  0.2095  0.3939  1.1642
  870MOL0     C19942   2.410   5.284   9.658  0.3924 -0.3006  0.0476
  870MOL0     C19943   2.556   5.333   9.685  0.1251  0.9443 -0.0142
  870MOL0     C19944   2.603   5.441   9.586  0.4102 -0.5373  0.1426
  870MOL0     C19945   2.612   5.395   9.441 -0.0603 -0.7438  0.4443
  870MOL0     O19946   2.662   5.500   9.349  0.2182 -0.5381 -0.2392
  870MOL0     C19947   2.655   5.485   9.213 -0.0116  0.8990 -0.0640
  870MOL0     C19948   2.708   5.588   9.148  0.1167 -0.5202  0.1627
  870MOL0     C19949   2.707   5.590   9.003 -0.2728 -0.1486  0.0265
  870MOL0     C19950   2.778   5.704   8.933  0.3452  0.6556 -0.4778
  870MOL0     C19951   2.635   5.489   8.935  1.0658  0.3649  0.0559
  870MOL0     C19952   2.611   5.492   8.787  0.0197  0.1324  0.0053
  870MOL0     O19953   2.511   5.410   8.745  0.5033 -0.0575 -0.3449
  870MOL0     C19954   2.431   5.438   8.637 -0.2408  0.4576  0.4892
  870MOL0     C19955   2.409   5.557   8.570 -0.2350  1.1463  0.3209
  870MOL0     C19956   2.321   5.569   8.458 -0.0584  0.3439 -0.8223
  870MOL0     C19957   2.272   5.444   8.406 -0.1056  0.6967  0.6951
  870MOL0     O19958   2.183   5.450   8.290  0.1458  0.7665 -0.8417
  870MOL0     C19959   2.078   5.351   8.272  0.4605 -0.8135 -0.9620
  870MOL0     C19960   1.977   5.404   8.171 -0.5845  0.6474  0.0055
  870MOL0     C19961   2.036   5.435   8.034 -0.0534 -0.5789 -0.2957
  870MOL0     C19962   2.049   5.308   7.940 -0.8705  0.2091 -0.8615
  870MOL0     C19963   2.139   5.335   7.823  0.6078  0.3189  0.6423
  870MOL0     C19964   2.183   5.199   7.768  0.2494  0.5851 -0.1662
  870MOL0     C19965   2.311   5.150   7.831 -0.7315 -0.4940 -0.3556
  870MOL0     C19966   2.339   5.009   7.796 -0.0031 -0.1859 -0.4710
  870MOL0    Cl19967   2.490   4.962   7.879 -0.2768 -0.1405  0.1845
  870MOL0     C19968   2.296   5.326   8.476 -0.0455  0.6641 -0.6473
  870MOL0     C19969   2.374   5.323   8.594 -0.1686  1.1534 -0.3553
  870MOL0     O19970   2.681   5.561   8.715 -0.0291 -0.2250  0.6963
  870MOL0     C19971   2.579   5.385   9.013  0.0925  0.5217  0.3647
  870MOL0     C19972   2.590   5.376   9.154 -0.2394  0.6594  0.2351
  870MOL0     N19973   2.317   5.494   9.747 -0.1944 -0.3713 -0.0417
  870MOL0     N19974   2.212   5.558   9.753  0.3302  0.1251 -0.4101
  870MOL0     C19975   1.517   4.587   9.697  0.1794  0.3138 -0.8867
  870MOL0     C19976   1.410   4.486   9.715 -0.2214 -0.4114 -0.4904
  870MOL0     C19977   1.103   4.181   9.554  0.0099 -0.6058 -0.0466
  870MOL0     C19978   1.022   4.188   9.673 -0.2123 -0.1344 -0.1313
  870MOL0     C19979   0.885   4.181   9.665  0.7475  0.2624 -0.2416
  870MOL0     C19980   0.830   4.141   9.545  0.3741  0.8379 -0.7857
  870MOL0     O19981   0.697   4.127   9.535  0.0182  0.2850 -0.3508
  870MOL0     C19982   0.621   4.107   9.656  0.4682  0.3488 -0.3634
  870MOL0     C19983   0.470   4.076   9.613 -0.7197 -0.4218 -0.3593
  870MOL0     C19984   0.467   3.944   9.541  0.3846 -0.6446 -0.0121
  870MOL0     C19985   0.318   3.892   9.547 -0.6616  0.3216  0.2956
  870MOL0     C19986   0.225   3.957   9.453 -0.2687 -0.6615 -0.3265
  870MOL0     C19987   0.148   4.017   9.375  0.2572  0.8585  0.7037
  870MOL0     C19988   0.908   4.135   9.431  0.0592 -0.3530 -0.8684
  870MOL0     C19989   1.044   4.148   9.433  0.2056  0.1620  0.3437
  870MOL0     C19990   1.117   4.152   9.299  0.0077 -0.6709  0.4790
  870MOL0     H19991   1.316   4.436   9.398  2.0066 -1.8331 -1.4397
  870MOL0     H19992   1.490   4.614   9.358 -2.0120 -0.9023 -0.7848
  870MOL0     H19993   1.528   4.861   9.690 -2.9300  1.4241  0.0556
  870MOL0     H19994   1.473   4.864   9.522 -2.3147 -3.1416  2.0897
  870MOL0     H19995   1.744   4.937   9.630  0.6801 -0.7887 -1.6357
  870MOL0     H19996   1.693   4.975   9.459 -0.7960  0.1715  0.0740
  870MOL0     H19997   1.497   5.111   9.529 -0.9035  0.0083  1.9639
  870MOL0     H19998   1.532   5.103   9.687 -1.6428  0.3532 -0.8821
  870MOL0     H19999   1.773   5.172   9.656 -0.1052  2.9526  2.6197
  870MOL0     H20000   1.731   5.217   9.495 -2.3449 -0.4837 -0.5479
  870MOL0     H20001   1.630   5.332   9.767 -1.8981  1.3309  1.2623
  870MOL0     H20002   1.548   5.378   9.613  0.2560 -0.2593  1.2557
  870MOL0     H20003   1.757   5.467   9.513 -0.0839  1.0396  0.5223
  870MOL0     H20004   1.714   5.549   9.657 -0.8843  0.7832 -0.5985
  870MOL0     H20005   1.939   5.339   9.626  0.5681  1.2154 -1.9969
  870MOL0     H20006   1.885   5.411   9.783 -0.7460 -1.2465 -0.2028
  870MOL0     H20007   1.968   5.590   9.559  0.7048  0.9780  0.0297
  870MOL0     H20008   1.966   5.614   9.738  1.6695 -1.2582  1.1985
  870MOL0     H20009   2.143   5.320   9.532 -0.5826 -0.2695 -1.1356
  870MOL0     H20010   2.405   5.214   9.574  4.5751 -3.4707  2.0693
  870MOL0     H20011   2.383   5.219   9.743 -1.5635 -3.5567 -2.7887
  870MOL0     H20012   2.573   5.369   9.787  0.8218  0.4172  0.0594
  870MOL0     H20013   2.625   5.249   9.671 -2.3018 -1.0836 -0.6880
  870MOL0     H20014   2.540   5.531   9.588  1.9538  0.5635  1.7053
  870MOL0     H20015   2.695   5.489   9.620 -1.3273  1.0124  3.0498
  870MOL0     H20016   2.673   5.304   9.437 -2.4835 -2.4074 -1.5043
  870MOL0     H20017   2.510   5.375   9.408 -0.2426  1.0911 -0.2445
  870MOL0     H20018   2.769   5.663   9.197  3.0931 -1.7024 -1.4980
  870MOL0     H20019   2.836   5.661   8.851  0.8645  0.1763  0.1180
  870MOL0     H20020   2.850   5.766   8.988  1.8770 -1.0384 -0.4630
  870MOL0     H20021   2.698   5.762   8.889  1.4267  2.5694 -0.0158
  870MOL0     H20022   2.463   5.641   8.614  1.5482 -0.4184  1.3026
  870MOL0     H20023   2.285   5.659   8.410 -1.3347  0.2733 -0.0316
  870MOL0     H20024   2.112   5.260   8.221  0.8452 -0.9008 -0.5627
  870MOL0     H20025   2.026   5.332   8.367 -0.5679  3.5013 -0.4533
  870MOL0     H20026   1.898   5.329   8.164 -1.4183  1.4451  0.6757
  870MOL0     H20027   1.938   5.500   8.207  0.2940 -0.1317  3.4697
  870MOL0     H20028   2.133   5.487   8.038 -2.1520  3.7561  2.6302
  870MOL0     H20029   1.976   5.513   7.985 -0.0811  1.8068  3.1827
  870MOL0     H20030   1.950   5.276   7.906 -0.0736 -3.3702 -0.2027
  870MOL0     H20031   2.086   5.224   7.999 -3.8868 -1.0805 -0.6277
  870MOL0     H20032   2.086   5.391   7.745  0.1465 -2.7946 -1.4885
  870MOL0     H20033   2.225   5.396   7.854  0.3073  0.6657  0.8007
  870MOL0     H20034   2.189   5.203   7.659  0.7425  3.7778 -0.1110
  870MOL0     H20035   2.101   5.129   7.785  0.0994  0.4993 -1.2161
  870MOL0     H20036   2.306   5.148   7.940 -1.0665 -1.5483 -0.3798
  870MOL0     H20037   2.385   5.223   7.797  0.9118 -1.8923  0.0924
  870MOL0     H20038   2.355   4.993   7.688  0.6559  0.9388 -0.5594
  870MOL0     H20039   2.258   4.939   7.819  0.3236 -0.8507 -1.2786
  870MOL0     H20040   2.248   5.234   8.446 -2.5946  1.6998 -0.0008
  870MOL0     H20041   2.398   5.228   8.639  1.6313  1.7632  0.0737
  870MOL0     H20042   2.541   5.297   8.962 -2.8084 -0.2247  3.4105
  870MOL0     H20043   2.560   5.283   9.200  2.8444 -0.7993 -0.4664
  870MOL0     H20044   1.568   4.631   9.782 -2.7674  2.6453 -0.1120
  870MOL0     H20045   1.379   4.461   9.816  0.1539 -0.2284 -0.3246
  870MOL0     H20046   1.058   4.210   9.773 -0.4898 -1.5644  0.3047
  870MOL0     H20047   0.838   4.206   9.759 -1.2157 -0.3482 -1.0196
  870MOL0     H20048   0.664   4.024   9.713  1.2374  0.3811 -0.8713
  870MOL0     H20049   0.626   4.200   9.713  3.6110 -0.2045  0.4672
  870MOL0     H20050   0.427   4.155   9.551 -1.6778  0.8275  1.8129
  870MOL0     H20051   0.404   4.073   9.699  0.0366 -3.0616  0.2149
  870MOL0     H20052   0.500   3.961   9.438  1.3099  0.1392  0.3936
  870MOL0     H20053   0.529   3.868   9.589  0.2741 -0.6255  0.1624
  870MOL0     H20054   0.282   3.909   9.648 -0.2347 -0.5382  0.5987
  870MOL0     H20055   0.312   3.787   9.517  2.4585  0.0259  0.2988
  870MOL0     H20056   0.080   4.059   9.304 -1.7815 -0.9630  1.4901
  870MOL0     H20057   0.861   4.115   9.336 -0.8345 -0.0387 -0.5012
  870MOL0     H20058   1.184   4.065   9.293 -1.6822 -1.9269 -2.5260
  870MOL0     H20059   1.045   4.145   9.217 -1.5613 -1.2751  1.8603
  870MOL0     H20060   1.178   4.242   9.291  0.3733 -0.9637 -0.1899
  871MOL0     O20061   4.602   5.149   8.294  0.6478 -0.7962  0.1726
  871MOL0     C20062   4.565   5.038   8.297 -0.6073 -0.3231 -0.2673
  871MOL0     O20063   4.650   4.932   8.300  0.0396 -0.5873 -0.6375
  871MOL0     C20064   4.786   4.941   8.270  0.5763 -0.2401  0.4206
  871MOL0     C20065   4.831   5.027   8.167 -0.5230  0.7397 -0.8109
  871MOL0     C20066   4.968   5.035   8.130  0.2911  0.2763 -0.2937
  871MOL0     C20067   5.059   4.956   8.196  0.2448  0.8098  0.1261
  871MOL0     O20068   5.196   4.971   8.182  0.1637 -0.1892  0.5157
  871MOL0     C20069   5.227   4.967   8.037 -0.2420  0.2536  0.4493
  871MOL0     C20070   5.377   4.967   8.004  1.3373 -0.4684  0.2693
  871MOL0     C20071   5.462   4.854   8.061  0.6795  0.3925  0.1097
  871MOL0     C20072   5.610   4.876   8.043 -0.2477 -0.4957 -0.3388
  871MOL0     C20073   5.648   4.861   7.903  0.1080  0.7069  0.3188
  871MOL0     C20074   5.792   4.904   7.875  0.0788  0.0520  0.0249
  871MOL0     C20075   5.828   4.894   7.732  0.2522  0.2812 -0.1672
  871MOL0     C20076   5.926   5.005   7.696 -0.5386  0.1630  0.9481
  871MOL0     N20077   5.953   4.983   7.552 -0.2246 -0.6037  0.9890
  871MOL0     C20078   6.018   4.868   7.504  0.3292  0.2637  0.7039
  871MOL0     C20079   6.014   4.886   7.369  0.3231  0.3028  0.0540
  871MOL0     C20080   6.083   4.790   7.266  0.1821  0.1629  0.1799
  871MOL0     C20081   6.232   4.839   7.250  0.4056  0.0321  0.3621
  871MOL0     C20082   6.311   4.776   7.126 -0.2293  0.2871 -0.4731
  871MOL0     C20083   6.455   4.818   7.111  0.4397 -0.4799 -0.0739
  871MOL0     O20084   6.529   4.718   7.194  0.2348  0.2103  0.0058
  871MOL0     C20085   6.665   4.706   7.193  0.2397 -0.4600  0.0454
  871MOL0     C20086   6.738   4.817   7.141 -0.0779  0.1159  0.0672
  871MOL0     C20087   6.879   4.804   7.119  0.9194  1.0337  0.0999
  871MOL0     C20088   6.946   4.916   7.043 -0.8883  0.1493 -0.4956
  871MOL0     C20089   6.948   4.683   7.167  0.1474  0.0140 -0.0420
  871MOL0     C20090   7.101   4.664   7.169 -0.3688  0.1271  0.1947
  871MOL0     O20091   7.174   4.748   7.100 -0.5401 -0.1656 -0.4407
  871MOL0     C20092   7.297   4.720   7.078 -0.8208 -0.1944 -0.0353
  871MOL0     C20093   7.398   4.720   7.176 -0.6401 -0.2012 -0.2907
  871MOL0     C20094   7.532   4.713   7.132 -0.5046  0.6298  0.0637
  871MOL0     C20095   7.574   4.684   7.004  0.2054 -0.1841 -0.0288
  871MOL0     O20096   7.712   4.673   6.982 -0.0150 -0.5162  0.8014
  871MOL0     C20097   7.770   4.600   6.871  0.9436 -0.7715 -0.4635
  871MOL0     C20098   7.918   4.558   6.905 -0.1978  0.0228  0.3151
  871MOL0     C20099   7.952   4.519   7.056  0.4303  0.1416  0.3175
  871MOL0     C20100   8.105   4.490   7.071  0.5224 -0.3303  0.0615
  871MOL0     C20101   8.136   4.345   7.064 -0.7290  1.2021  0.0518
  871MOL0     C20102   8.286   4.302   7.058 -0.0294  0.2739  0.2428
  871MOL0     C20103   8.349   4.331   6.918 -0.9138 -0.3188  0.2471
  871MOL0     C20104   8.497   4.301   6.906  0.2124 -0.5497  0.1129
  871MOL0    Cl20105   8.568   4.397   6.775  0.0649  0.0935 -0.1775
  871MOL0     C20106   7.472   4.685   6.902 -0.2621  0.0346 -0.0264
  871MOL0     C20107   7.338   4.709   6.947 -0.3027  0.6287  0.2208
  871MOL0     O20108   7.141   4.566   7.239 -0.5884 -0.5349 -0.4820
  871MOL0     C20109   6.865   4.591   7.219 -0.4637  0.2036  0.0541
  871MOL0     C20110   6.730   4.593   7.228 -0.3231  0.3261 -0.7435
  871MOL0     N20111   5.960   5.006   7.335  0.4774 -0.7871  0.1358
  871MOL0     N20112   5.926   5.067   7.447 -0.5711 -0.2520  0.7640
  871MOL0     C20113   5.016   4.868   8.297  0.6837  0.0589 -0.0164
  871MOL0     C20114   4.882   4.868   8.338 -1.0918  0.5186 -0.2961
  871MOL0     C20115   4.429   5.004   8.326  0.9641 -0.4088  0.0954
  871MOL0     C20116   4.395   4.884   8.389  0.8423  0.9669  0.8254
  871MOL0     C20117   4.270   4.849   8.430 -0.4402  0.0375 -0.0918
  871MOL0     C20118   4.161   4.938   8.393  0.8159 -0.0269 -0.3086
  871MOL0     O20119   4.043   4.888   8.430  0.3633 -0.4125  0.4683
  871MOL0     C20120   3.929   4.980   8.409 -0.0877 -0.6019 -0.1033
  871MOL0     C20121   3.786   4.913   8.445 -0.4516 -1.0341 -0.2355
  871MOL0     C20122   3.807   4.827   8.579 -0.0750 -0.1897  0.1430
  871MOL0     C20123   3.683   4.729   8.581 -0.8865 -0.5397  0.5760
  871MOL0     C20124   3.685   4.608   8.489 -0.5332 -0.0081 -0.6559
  871MOL0     C20125   3.684   4.516   8.404  0.2771 -0.7940 -0.8600
  871MOL0     C20126   4.186   5.058   8.328 -0.2679  0.5267 -0.2040
  871MOL0     C20127   4.318   5.094   8.293 -0.8826 -0.9105 -1.0281
  871MOL0     C20128   4.338   5.224   8.219  0.0413  0.5409 -0.0424
  871MOL0     H20129   4.769   5.089   8.104  3.1949  0.4419 -5.3047
  871MOL0     H20130   4.996   5.110   8.057  1.2073  0.5780  0.3588
  871MOL0     H20131   5.194   5.052   7.977  2.2242  0.0379 -1.4073
  871MOL0     H20132   5.191   4.877   7.985 -0.1870  1.3900 -1.6912
  871MOL0     H20133   5.368   4.957   7.896 -1.1786  0.2413  0.3426
  871MOL0     H20134   5.419   5.065   8.027  2.2435 -0.7903  0.0254
  871MOL0     H20135   5.440   4.870   8.167 -0.6379  0.9961 -0.2219
  871MOL0     H20136   5.424   4.763   8.014 -1.1017  1.0885  0.1129
  871MOL0     H20137   5.647   4.971   8.082 -0.0667 -1.2540  1.4161
  871MOL0     H20138   5.657   4.804   8.110 -2.1164  0.9475  2.7143
  871MOL0     H20139   5.586   4.921   7.835  0.1892  1.9288  1.3001
  871MOL0     H20140   5.631   4.760   7.864  0.8306  1.4341 -2.0514
  871MOL0     H20141   5.805   5.009   7.904 -0.1187  0.5020 -1.4208
  871MOL0     H20142   5.859   4.837   7.930 -1.6875  0.0188  2.2663
  871MOL0     H20143   5.744   4.905   7.664 -0.2387  0.9459  0.5264
  871MOL0     H20144   5.875   4.796   7.718  0.7508  0.4315  0.3940
  871MOL0     H20145   5.880   5.102   7.717 -3.5171 -0.6294 -1.2355
  871MOL0     H20146   6.017   4.991   7.755 -0.8810  0.6702  1.6228
  871MOL0     H20147   6.058   4.783   7.557 -3.2971 -1.5117  0.9464
  871MOL0     H20148   6.038   4.795   7.167  2.5315 -0.1477 -0.9648
  871MOL0     H20149   6.086   4.693   7.316  0.0934  0.5244  0.8998
  871MOL0     H20150   6.226   4.944   7.220  0.2425 -0.5237 -1.7160
  871MOL0     H20151   6.292   4.824   7.340  1.4592 -1.8595 -0.5720
  871MOL0     H20152   6.296   4.668   7.112  0.9607 -0.2564  1.8609
  871MOL0     H20153   6.260   4.830   7.045 -2.2557 -0.7043  0.0588
  871MOL0     H20154   6.494   4.832   7.010  2.1838 -1.2394  0.4446
  871MOL0     H20155   6.461   4.908   7.173 -0.7509 -0.0352 -0.5732
  871MOL0     H20156   6.675   4.898   7.106 -3.2363 -2.2184 -0.0705
  871MOL0     H20157   7.018   4.888   6.966 -0.0089 -1.3455  0.8122
  871MOL0     H20158   7.003   4.980   7.111  0.9846 -0.8456 -1.0681
  871MOL0     H20159   6.863   4.973   7.001 -0.6864  2.0237  1.4672
  871MOL0     H20160   7.369   4.737   7.279 -0.7640 -1.4010 -0.1174
  871MOL0     H20161   7.601   4.710   7.215 -0.8625 -0.8311  0.3439
  871MOL0     H20162   7.714   4.506   6.864  0.0713 -0.5621  2.5190
  871MOL0     H20163   7.766   4.650   6.774 -0.8804 -0.6690 -0.3640
  871MOL0     H20164   7.937   4.469   6.845 -0.7449  0.6725 -0.8740
  871MOL0     H20165   7.983   4.639   6.869  1.0097 -0.8448  0.4832
  871MOL0     H20166   7.896   4.429   7.084 -0.2545 -0.6066 -3.0967
  871MOL0     H20167   7.933   4.602   7.125  3.6277 -1.0041  2.8095
  871MOL0     H20168   8.139   4.533   7.165  1.3877 -0.8054 -0.0268
  871MOL0     H20169   8.161   4.544   6.995 -0.6504  3.8516  1.9240
  871MOL0     H20170   8.102   4.293   7.154 -0.7079 -1.9330 -1.6142
  871MOL0     H20171   8.080   4.291   6.988 -2.4583  1.1950  1.2589
  871MOL0     H20172   8.272   4.195   7.077 -3.6093  0.6475  0.3788
  871MOL0     H20173   8.344   4.355   7.134 -1.4607  1.4423  0.5659
  871MOL0     H20174   8.344   4.437   6.891 -1.5464 -0.4342 -0.1014
  871MOL0     H20175   8.291   4.271   6.847 -1.7270  0.5606  0.1512
  871MOL0     H20176   8.521   4.197   6.881  2.5907  0.3698 -1.8212
  871MOL0     H20177   8.559   4.319   6.994  2.1140 -1.6069 -0.9443
  871MOL0     H20178   7.507   4.690   6.800 -0.9782 -2.6970 -0.4693
  871MOL0     H20179   7.260   4.734   6.876 -0.0611 -1.1337 -0.7145
  871MOL0     H20180   6.901   4.495   7.253 -1.1097  0.0226  0.2323
  871MOL0     H20181   6.673   4.508   7.265 -1.0177 -0.5808 -3.6156
  871MOL0     H20182   5.084   4.807   8.356 -0.4438 -1.0190  0.2129
  871MOL0     H20183   4.845   4.805   8.419  0.6606 -1.6034 -1.0418
  871MOL0     H20184   4.468   4.809   8.416  0.2684  1.0221  2.6553
  871MOL0     H20185   4.243   4.760   8.485 -1.1502  1.5405  2.1281
  871MOL0     H20186   3.939   5.073   8.466 -1.7553  0.7375 -1.8732
  871MOL0     H20187   3.930   5.004   8.303  2.0128 -0.8081 -0.1718
  871MOL0     H20188   3.762   4.843   8.365  1.7063  0.2553 -2.1415
  871MOL0     H20189   3.703   4.982   8.458 -2.9535 -3.9042  0.1967
  871MOL0     H20190   3.900   4.771   8.573 -0.6788 -1.1291 -0.8291
  871MOL0     H20191   3.812   4.890   8.668 -0.1647 -1.7856  1.3055
  871MOL0     H20192   3.597   4.790   8.552 -1.3705  0.1444  3.1375
  871MOL0     H20193   3.664   4.692   8.683  1.6848 -1.6291  0.7332
  871MOL0     H20194   3.669   4.431   8.341  1.4714  0.0937 -2.4163
  871MOL0     H20195   4.107   5.126   8.299  1.4167  2.9758  0.6920
  871MOL0     H20196   4.407   5.216   8.135  0.0994 -2.2745  0.2079
  871MOL0     H20197   4.246   5.255   8.169 -0.1702 -1.5630 -1.0383
  871MOL0     H20198   4.366   5.307   8.285 -1.3113  1.2357 -0.2920
  872MOL0     O20199   9.320   5.391   6.925  1.2678  0.0195  0.0466
  872MOL0     C20200   9.318   5.440   7.036  0.8619  0.1505 -0.1429
  872MOL0     O20201   9.406   5.531   7.094 -0.0002  0.8130  0.4228
  872MOL0     C20202   9.530   5.550   7.040 -0.1989 -0.0599 -0.3272
  872MOL0     C20203   9.580   5.677   7.050  1.0283  0.3835 -0.5155
  872MOL0     C20204   9.704   5.708   7.007  0.0304 -0.3759 -0.1536
  872MOL0     C20205   9.784   5.606   6.948  0.6811  0.7027  0.9674
  872MOL0     O20206   9.906   5.620   6.887 -0.6615  0.1983 -1.0538
  872MOL0     C20207   9.930   5.743   6.808  1.2237 -0.0190 -0.5298
  872MOL0     C20208  10.078   5.774   6.806 -0.3050  0.4270 -0.4600
  872MOL0     C20209  10.107   5.917   6.780 -0.1557 -0.6655  0.8056
  872MOL0     C20210  10.036   5.964   6.647  0.2171  0.3224 -0.5450
  872MOL0     C20211  10.087   6.082   6.574  0.2762  0.0648  0.0227
  872MOL0     C20212  10.075   6.221   6.646 -0.8793  0.0213  0.1673
  872MOL0     C20213  10.141   6.332   6.564  0.5978  0.6469 -0.1312
  872MOL0     C20214  10.163   6.457   6.651  0.2324  0.0835 -0.9462
  872MOL0     N20215  10.307   6.467   6.686  0.7169  0.1574 -0.4098
  872MOL0     C20216  10.400   6.511   6.600  0.5566  0.5266  0.1793
  872MOL0     C20217  10.518   6.505   6.665 -0.6594  0.1349  0.3493
  872MOL0     C20218  10.644   6.538   6.589 -0.1689  0.0857 -0.5643
  872MOL0     C20219  10.749   6.588   6.693 -0.5985 -1.2201  0.2420
  872MOL0     C20220  10.801   6.473   6.777 -0.1235  0.2845 -0.0437
  872MOL0     C20221  10.952   6.449   6.743  0.4726  0.1465 -0.2721
  872MOL0     O20222  11.020   6.549   6.817 -0.4332 -0.7180  0.1531
  872MOL0     C20223  11.154   6.568   6.794  0.3658  1.1271 -0.3536
  872MOL0     C20224  11.216   6.669   6.868  0.0691  0.2048 -0.0953
  872MOL0     C20225  11.342   6.716   6.834  0.6845 -0.7321  1.1896
  872MOL0     C20226  11.405   6.819   6.926  0.8062  0.2262  0.5703
  872MOL0     C20227  11.412   6.667   6.721  0.4209 -0.8063 -0.7254
  872MOL0     C20228  11.542   6.714   6.679 -1.3635  0.6391  0.7505
  872MOL0     O20229  11.634   6.612   6.652  0.1628 -0.5398  0.1502
  872MOL0     C20230  11.761   6.655   6.619  0.0030 -0.4123 -0.0373
  872MOL0     C20231  11.780   6.708   6.495 -0.1620  0.4546  0.1190
  872MOL0     C20232  11.902   6.760   6.458 -0.7000  0.5624  0.3918
  872MOL0     C20233  12.018   6.738   6.534  0.0773 -0.1092  0.1195
  872MOL0     O20234  12.129   6.805   6.490  0.8970 -0.1214  0.5201
  872MOL0     C20235  12.240   6.720   6.457  0.1573  0.0990 -0.1712
  872MOL0     C20236  12.364   6.728   6.553  0.1911 -0.1953 -0.3008
  872MOL0     C20237  12.473   6.648   6.493 -0.3303 -1.3578 -0.5304
  872MOL0     C20238  12.583   6.618   6.599  0.2897  0.2812 -0.9560
  872MOL0     C20239  12.692   6.536   6.534 -0.5876 -0.9824 -0.4229
  872MOL0     C20240  12.788   6.458   6.618  0.0476 -0.7256  0.4511
  872MOL0     C20241  12.911   6.413   6.535  0.5610 -0.1690 -1.0622
  872MOL0     C20242  13.003   6.342   6.634 -0.4810 -0.2636  1.6446
  872MOL0    Cl20243  13.074   6.446   6.750  0.2550  0.2877  0.4531
  872MOL0     C20244  12.009   6.667   6.650 -0.1215  0.9061  0.4804
  872MOL0     C20245  11.884   6.616   6.692 -0.6144 -0.2542 -0.0312
  872MOL0     O20246  11.559   6.834   6.668 -0.2779  0.0030  0.1757
  872MOL0     C20247  11.357   6.551   6.657 -0.0793 -0.1704 -0.5626
  872MOL0     C20248  11.228   6.502   6.692 -0.5588  0.7860  0.0834
  872MOL0     N20249  10.495   6.462   6.787  0.5289 -0.2459  0.3913
  872MOL0     N20250  10.371   6.442   6.802  0.2885 -0.6822 -0.5708
  872MOL0     C20251   9.735   5.472   6.947  0.3261  0.3301  0.4813
  872MOL0     C20252   9.607   5.444   6.990 -0.3517  0.2733  0.7461
  872MOL0     C20253   9.219   5.382   7.128  0.2809 -0.8323 -0.1570
  872MOL0     C20254   9.227   5.418   7.269  0.6743 -0.0980  0.5070
  872MOL0     C20255   9.124   5.382   7.355 -0.1324  0.5470 -0.0716
  872MOL0     C20256   9.025   5.304   7.311  0.3755  0.6130 -0.2736
  872MOL0     O20257   8.930   5.258   7.403  0.3024 -0.6334 -0.1120
  872MOL0     C20258   8.867   5.352   7.491 -0.5432 -0.2248  0.0050
  872MOL0     C20259   8.742   5.303   7.567  0.1332  0.1435  0.0702
  872MOL0     C20260   8.764   5.169   7.652 -0.8769 -0.6061 -0.0039
  872MOL0     C20261   8.633   5.129   7.733  0.4306  0.2555 -0.5716
  872MOL0     C20262   8.658   5.018   7.834  0.4119  0.3007  0.0697
  872MOL0     C20263   8.680   4.921   7.903  0.0132 -0.3686  0.9072
  872MOL0     C20264   9.016   5.264   7.180  0.3996 -1.2101  0.5859
  872MOL0     C20265   9.102   5.315   7.081 -0.0674 -1.4638 -0.1381
  872MOL0     C20266   9.081   5.261   6.945 -0.6970 -0.0170  0.0048
  872MOL0     H20267   9.531   5.764   7.094 -0.1898  1.4532 -3.7078
  872MOL0     H20268   9.741   5.810   7.009  1.3969 -0.8499  1.7658
  872MOL0     H20269   9.863   5.826   6.833 -0.7329 -0.8692 -2.5915
  872MOL0     H20270   9.898   5.717   6.707  0.1645 -0.7935 -0.0079
  872MOL0     H20271  10.131   5.758   6.900  1.8499 -0.1932 -1.7083
  872MOL0     H20272  10.124   5.708   6.732 -3.4265 -0.6888 -1.5838
  872MOL0     H20273  10.071   5.977   6.864 -0.6306 -1.1645  0.9669
  872MOL0     H20274  10.213   5.939   6.765 -0.5302  0.7532 -0.0002
  872MOL0     H20275  10.045   5.880   6.577  0.7424 -1.5407  1.6508
  872MOL0     H20276   9.929   5.980   6.662  0.1076 -1.2813  0.6942
  872MOL0     H20277  10.026   6.089   6.483 -3.7544 -0.2022  2.4725
  872MOL0     H20278  10.188   6.059   6.539  0.6920 -0.4828  1.4982
  872MOL0     H20279   9.967   6.227   6.660 -1.2251 -3.1163 -0.4670
  872MOL0     H20280  10.128   6.211   6.742 -0.5852 -1.1242 -0.1026
  872MOL0     H20281  10.080   6.349   6.475  1.5360 -0.6078 -1.0600
  872MOL0     H20282  10.243   6.306   6.533  1.2013  3.8959 -1.2195
  872MOL0     H20283  10.139   6.548   6.595  0.9203 -0.6555 -2.5062
  872MOL0     H20284  10.089   6.464   6.731 -0.2312  1.1384 -1.4346
  872MOL0     H20285  10.393   6.543   6.497  4.5975  1.3242 -0.0248
  872MOL0     H20286  10.615   6.618   6.520 -0.5541  0.8282  0.4262
  872MOL0     H20287  10.668   6.449   6.531  1.5576 -0.4416  0.8697
  872MOL0     H20288  10.831   6.642   6.646 -0.7011  0.1984  1.6151
  872MOL0     H20289  10.708   6.666   6.758 -2.1453 -2.3631  0.6998
  872MOL0     H20290  10.782   6.490   6.883 -1.0058  0.8423 -0.2821
  872MOL0     H20291  10.751   6.383   6.738 -0.0991  0.9777 -1.7463
  872MOL0     H20292  10.980   6.347   6.771  1.7098 -0.2266 -2.6355
  872MOL0     H20293  10.965   6.452   6.635  1.9626  1.1198 -0.0935
  872MOL0     H20294  11.150   6.713   6.943 -1.7129  1.2609 -2.1758
  872MOL0     H20295  11.505   6.782   6.953  2.3863  2.4205 -1.8837
  872MOL0     H20296  11.350   6.842   7.018  1.9279  0.0957  1.2917
  872MOL0     H20297  11.412   6.913   6.871 -0.8354 -1.2335 -2.3257
  872MOL0     H20298  11.692   6.716   6.433 -0.8361 -0.2324  0.9676
  872MOL0     H20299  11.902   6.806   6.360 -3.0887 -2.3441 -1.1114
  872MOL0     H20300  12.212   6.616   6.438 -0.6101  0.4108 -0.8105
  872MOL0     H20301  12.263   6.756   6.356 -4.1567 -0.8326 -1.7075
  872MOL0     H20302  12.405   6.827   6.577 -1.0610 -0.5032  4.0662
  872MOL0     H20303  12.341   6.698   6.656  1.8905  0.6265  0.3504
  872MOL0     H20304  12.511   6.711   6.412 -1.4101  2.1285  1.4660
  872MOL0     H20305  12.436   6.554   6.450  1.6400 -2.1273 -0.6456
  872MOL0     H20306  12.530   6.568   6.681  0.1350 -0.4355 -1.4839
  872MOL0     H20307  12.626   6.706   6.647 -0.3567 -0.3859  0.9454
  872MOL0     H20308  12.652   6.469   6.458  2.0200 -1.7936 -1.1490
  872MOL0     H20309  12.756   6.605   6.479  0.3246 -2.2509 -0.9935
  872MOL0     H20310  12.735   6.371   6.659 -3.7155 -0.7248 -3.6739
  872MOL0     H20311  12.830   6.530   6.689  1.2627 -0.4094 -0.5592
  872MOL0     H20312  12.953   6.501   6.487 -0.7707  2.2178  1.7844
  872MOL0     H20313  12.860   6.354   6.459 -0.5099 -0.2844 -0.2888
  872MOL0     H20314  13.079   6.289   6.576 -1.8066  0.2214 -0.6758
  872MOL0     H20315  12.957   6.265   6.698  0.0730  0.7914  3.3641
  872MOL0     H20316  12.094   6.647   6.716 -0.7669 -0.8524  0.8283
  872MOL0     H20317  11.880   6.547   6.776 -0.3073 -0.5686 -0.2736
  872MOL0     H20318  11.404   6.486   6.584 -1.1088 -2.0291  0.3454
  872MOL0     H20319  11.189   6.418   6.635  0.6868  0.1433  0.1413
  872MOL0     H20320   9.793   5.394   6.897  1.5423  2.5182 -1.7483
  872MOL0     H20321   9.572   5.342   6.981  1.5851 -0.3832  0.0575
  872MOL0     H20322   9.303   5.484   7.308  0.7759  0.0209  0.1050
  872MOL0     H20323   9.127   5.405   7.461  0.3609  0.0497  0.0245
  872MOL0     H20324   8.935   5.404   7.559 -2.8461  0.6316  1.8222
  872MOL0     H20325   8.844   5.437   7.426 -1.0292  1.8667  2.6996
  872MOL0     H20326   8.667   5.286   7.490  0.4244  2.2170 -0.7213
  872MOL0     H20327   8.707   5.382   7.634  3.3546  0.1033  2.0407
  872MOL0     H20328   8.788   5.086   7.586  1.9993  0.3268 -0.2682
  872MOL0     H20329   8.858   5.177   7.708 -1.2872  1.2179  0.5010
  872MOL0     H20330   8.556   5.086   7.668 -0.2501 -2.1930  1.6570
  872MOL0     H20331   8.585   5.216   7.777 -2.0445  0.6831 -3.7572
  872MOL0     H20332   8.695   4.838   7.969 -0.0444 -1.9555 -1.0027
  872MOL0     H20333   8.942   5.194   7.143 -1.1649  0.5539  0.2327
  872MOL0     H20334   8.992   5.199   6.935 -0.6944 -0.0570  0.2235
  872MOL0     H20335   9.070   5.341   6.871  0.1601 -0.8950 -1.1165
  872MOL0     H20336   9.170   5.203   6.918  1.5493  2.4209  1.6874
  873MOL0     O20337   5.113   7.050   6.501  0.1535  0.2196 -0.1808
  873MOL0     C20338   5.082   7.068   6.387 -0.6197  0.1277  0.2213
  873MOL0     O20339   5.079   7.201   6.331  0.4112  0.8750  0.2837
  873MOL0     C20340   5.124   7.295   6.413 -0.4043 -0.2197 -0.4186
  873MOL0     C20341   5.051   7.351   6.515  0.3869  0.0444  0.2008
  873MOL0     C20342   5.100   7.453   6.598 -0.5579 -0.8438  1.9431
  873MOL0     C20343   5.229   7.504   6.575 -0.3779 -0.3952  0.1468
  873MOL0     O20344   5.264   7.607   6.657 -0.1002 -0.4016  0.7750
  873MOL0     C20345   5.410   7.615   6.683  0.0026 -0.2976 -1.0183
  873MOL0     C20346   5.448   7.731   6.770  0.0072  0.5143  0.1403
  873MOL0     C20347   5.602   7.749   6.787  0.0691  0.1550 -0.0484
  873MOL0     C20348   5.633   7.870   6.887 -1.0097 -0.0387  0.2200
  873MOL0     C20349   5.615   7.999   6.811 -0.2210  0.5908  0.7609
  873MOL0     C20350   5.663   8.126   6.890 -0.3377  0.3609 -0.0693
  873MOL0     C20351   5.605   8.159   7.033  1.2125  0.2713  0.3726
  873MOL0     C20352   5.695   8.253   7.111  0.2954  0.4041  0.2647
  873MOL0     N20353   5.755   8.367   7.036  0.2385 -0.7237 -0.9863
  873MOL0     C20354   5.880   8.381   6.995  0.6989  0.5881  0.7359
  873MOL0     C20355   5.884   8.502   6.923 -0.2896  0.3163 -0.2094
  873MOL0     C20356   6.008   8.551   6.862 -0.5524 -0.1941  0.2684
  873MOL0     C20357   6.081   8.636   6.964  0.0475 -0.0471 -0.3493
  873MOL0     C20358   6.201   8.695   6.903  0.5451 -0.0560 -0.5115
  873MOL0     C20359   6.323   8.610   6.871  0.2468 -0.6808 -0.3380
  873MOL0     O20360   6.360   8.519   6.971 -0.6250  0.0312 -0.0310
  873MOL0     C20361   6.464   8.433   6.954  0.3685 -0.2542 -0.1511
  873MOL0     C20362   6.533   8.422   6.835  0.6721 -0.3051 -0.0342
  873MOL0     C20363   6.644   8.332   6.812  1.0506  0.5173  0.5937
  873MOL0     C20364   6.699   8.326   6.669  0.2642 -0.1013  0.0290
  873MOL0     C20365   6.687   8.254   6.921 -0.1144 -0.3853 -0.2079
  873MOL0     C20366   6.805   8.166   6.914  0.4811  0.1348 -0.7678
  873MOL0     O20367   6.798   8.040   6.982 -0.4151 -0.2141 -0.0500
  873MOL0     C20368   6.923   7.972   6.996 -0.6698 -0.1087  0.5326
  873MOL0     C20369   6.922   7.833   6.999 -0.0589 -0.4225 -0.7391
  873MOL0     C20370   7.032   7.761   7.046 -0.3494  0.0298  0.1425
  873MOL0     C20371   7.153   7.826   7.081  0.3759 -0.1161  0.0462
  873MOL0     O20372   7.262   7.746   7.114  0.1815  0.4879  0.5770
  873MOL0     C20373   7.385   7.810   7.152  0.4798 -0.5343  0.5778
  873MOL0     C20374   7.477   7.694   7.200 -0.2210 -0.7598  0.0684
  873MOL0     C20375   7.530   7.622   7.073  0.0158 -0.0168 -0.7297
  873MOL0     C20376   7.651   7.538   7.114  0.1546 -0.7848 -0.8887
  873MOL0     C20377   7.733   7.512   6.987 -0.2077  0.3801  0.2950
  873MOL0     C20378   7.865   7.437   7.015 -0.0441 -0.2796 -0.3296
  873MOL0     C20379   7.963   7.402   6.906  0.1709  0.4082  0.3437
  873MOL0     C20380   8.107   7.444   6.939 -0.0976 -0.1086  0.8229
  873MOL0    Cl20381   8.117   7.623   6.977  0.1711 -0.1543  0.1205
  873MOL0     C20382   7.158   7.965   7.071  0.0653  0.6615  0.3782
  873MOL0     C20383   7.039   8.039   7.039  0.0441 -0.1157  1.0712
  873MOL0     O20384   6.899   8.197   6.848 -0.4248 -0.0457  0.6635
  873MOL0     C20385   6.615   8.270   7.043 -0.2733  0.3462 -0.4067
  873MOL0     C20386   6.504   8.353   7.052 -0.1377  0.2979 -0.5464
  873MOL0     N20387   5.755   8.549   6.913 -0.2368  0.1309  0.5468
  873MOL0     N20388   5.680   8.466   6.976 -0.2024  0.1208 -0.0850
  873MOL0     C20389   5.305   7.449   6.477  0.1753  0.0836 -0.1311
  873MOL0     C20390   5.255   7.349   6.393 -0.2952  0.1820  0.1884
  873MOL0     C20391   5.036   6.955   6.305  0.0103  0.5351  0.0313
  873MOL0     C20392   4.991   6.843   6.382 -0.4571 -0.1279 -0.0533
  873MOL0     C20393   4.951   6.732   6.318 -0.1964  0.1964 -0.3492
  873MOL0     C20394   4.952   6.724   6.179  0.1613 -0.1493  0.5889
  873MOL0     O20395   4.907   6.607   6.114 -0.1106 -0.6278 -0.4028
  873MOL0     C20396   4.986   6.492   6.141 -0.5186  0.0580  0.9054
  873MOL0     C20397   4.929   6.403   6.247 -0.2724  0.3588 -0.7539
  873MOL0     C20398   4.986   6.258   6.239 -0.1074 -0.3578 -0.2556
  873MOL0     C20399   4.965   6.163   6.364 -0.7490  0.1846  0.1803
  873MOL0     C20400   4.821   6.131   6.393 -0.2410 -0.4057 -0.3105
  873MOL0     C20401   4.711   6.113   6.428  0.1228  0.1758  0.0642
  873MOL0     C20402   4.993   6.830   6.106  0.4766 -0.6067  0.6328
  873MOL0     C20403   5.043   6.950   6.162  0.4884 -0.4295 -1.0730
  873MOL0     C20404   5.074   7.070   6.074 -0.2593 -0.1388 -0.5559
  873MOL0     H20405   4.958   7.301   6.541  1.4371 -2.2673 -0.1742
  873MOL0     H20406   5.040   7.497   6.677 -1.7392 -1.4593  1.4128
  873MOL0     H20407   5.475   7.631   6.596 -0.0080  0.3759 -0.9096
  873MOL0     H20408   5.449   7.529   6.738 -0.4713  0.5275  0.6712
  873MOL0     H20409   5.413   7.825   6.727 -0.9025  0.3595  0.5332
  873MOL0     H20410   5.404   7.711   6.868  1.8918 -2.2972  0.5454
  873MOL0     H20411   5.634   7.653   6.827 -1.6809 -1.9639 -3.2894
  873MOL0     H20412   5.653   7.770   6.693 -0.8561  0.2210 -0.5546
  873MOL0     H20413   5.572   7.867   6.978  0.4451 -1.4914  1.2280
  873MOL0     H20414   5.734   7.853   6.926 -1.6138 -4.2213  0.4655
  873MOL0     H20415   5.509   8.011   6.787 -0.0109 -0.4463 -0.8122
  873MOL0     H20416   5.686   7.994   6.728 -0.7557  2.0051  0.1843
  873MOL0     H20417   5.772   8.117   6.897 -0.4308 -0.4758  0.5468
  873MOL0     H20418   5.638   8.216   6.834 -1.5100 -0.7249 -1.3600
  873MOL0     H20419   5.595   8.062   7.083 -2.3918  1.6838  2.7761
  873MOL0     H20420   5.510   8.211   7.027  1.7105  1.1473 -0.1258
  873MOL0     H20421   5.638   8.288   7.197 -0.6465  0.9819 -0.5825
  873MOL0     H20422   5.781   8.196   7.147 -1.9452 -4.4537 -1.2393
  873MOL0     H20423   5.956   8.306   7.017 -1.3788 -2.9571 -2.9220
  873MOL0     H20424   5.986   8.608   6.771 -1.2893 -1.3929 -0.3330
  873MOL0     H20425   6.071   8.467   6.833 -1.0246 -0.8638  1.1511
  873MOL0     H20426   6.018   8.716   7.007  0.8204 -0.4000  1.5656
  873MOL0     H20427   6.110   8.566   7.044 -0.3377 -0.4444 -0.5520
  873MOL0     H20428   6.172   8.749   6.812  1.0460  0.4139 -0.3936
  873MOL0     H20429   6.243   8.774   6.965 -0.4260  0.3640 -0.3853
  873MOL0     H20430   6.300   8.551   6.782  2.9487  0.9404 -2.2467
  873MOL0     H20431   6.396   8.681   6.832 -1.0538 -0.6656 -2.9280
  873MOL0     H20432   6.504   8.488   6.754  4.3185  1.9388  0.2527
  873MOL0     H20433   6.652   8.408   6.613  2.2358  2.5569  1.9919
  873MOL0     H20434   6.689   8.220   6.644 -0.4445 -0.2372  0.8649
  873MOL0     H20435   6.805   8.354   6.678  0.0917  1.0674 -1.1225
  873MOL0     H20436   6.826   7.787   6.980  0.0681 -1.3222  0.5909
  873MOL0     H20437   7.037   7.652   7.043  0.8336  0.0885 -1.1424
  873MOL0     H20438   7.425   7.865   7.066  0.2335  0.1783  0.9048
  873MOL0     H20439   7.374   7.883   7.232 -0.4375  0.3842 -0.3401
  873MOL0     H20440   7.564   7.740   7.247  1.0799 -3.1174  0.1223
  873MOL0     H20441   7.433   7.640   7.284  1.8906  0.3513  2.0160
  873MOL0     H20442   7.558   7.710   7.013  1.0460  0.8249  0.9240
  873MOL0     H20443   7.446   7.568   7.029 -1.1350  1.3496 -0.3147
  873MOL0     H20444   7.603   7.446   7.150 -1.0344 -0.5554 -1.7935
  873MOL0     H20445   7.707   7.581   7.197 -1.2534 -2.1349  0.8393
  873MOL0     H20446   7.676   7.454   6.914  1.2372 -0.7379  0.0160
  873MOL0     H20447   7.763   7.609   6.948 -2.6478  1.0748 -0.0528
  873MOL0     H20448   7.852   7.351   7.081  3.8812 -0.4220  0.4936
  873MOL0     H20449   7.906   7.510   7.085  0.1658  0.0602 -0.7965
  873MOL0     H20450   7.927   7.448   6.813  1.3151  0.9534  0.1589
  873MOL0     H20451   7.962   7.294   6.889 -2.9566  0.3082  0.5722
  873MOL0     H20452   8.168   7.413   6.854  0.3985  1.3265  0.6250
  873MOL0     H20453   8.150   7.389   7.022 -0.2685 -1.6923 -0.0914
  873MOL0     H20454   7.239   8.030   7.102 -1.4220  3.4022 -1.1044
  873MOL0     H20455   7.049   8.147   7.048  1.8277 -0.1375 -0.1118
  873MOL0     H20456   6.648   8.218   7.132 -0.9400  0.4964 -0.0722
  873MOL0     H20457   6.471   8.368   7.154  0.2572  3.0555 -0.7543
  873MOL0     H20458   5.407   7.482   6.465 -0.2747  1.6299 -0.0451
  873MOL0     H20459   5.316   7.294   6.322  0.0389  1.3326 -0.4354
  873MOL0     H20460   4.999   6.831   6.489  0.6794  1.1532  0.0370
  873MOL0     H20461   4.909   6.647   6.369  1.2017  0.3323  1.1119
  873MOL0     H20462   4.981   6.445   6.042  0.3118 -0.0510  0.9115
  873MOL0     H20463   5.090   6.508   6.172 -0.2283  0.8313 -0.3728
  873MOL0     H20464   4.821   6.400   6.235 -0.8277  2.1498  2.5692
  873MOL0     H20465   4.946   6.433   6.351  0.0748 -0.5133 -0.5526
  873MOL0     H20466   4.948   6.205   6.151  0.3531  0.0546 -0.7085
  873MOL0     H20467   5.092   6.279   6.222 -0.1007 -1.7522 -2.3307
  873MOL0     H20468   4.998   6.206   6.459 -0.4140  2.9249 -1.0835
  873MOL0     H20469   5.014   6.067   6.343  0.3937  0.6313  0.7106
  873MOL0     H20470   4.611   6.099   6.464 -0.1831  2.5897  0.2750
  873MOL0     H20471   4.983   6.831   5.998 -1.5880  0.4635  0.7768
  873MOL0     H20472   4.997   7.143   6.098  0.2083 -0.3524  1.8505
  873MOL0     H20473   5.173   7.111   6.097  0.7215  0.4947 -4.8868
  873MOL0     H20474   5.072   7.049   5.966  2.9293 -0.8700 -0.5728
  874MOL0     O20475   0.488   7.616   3.514 -0.0991  0.0499 -0.6497
  874MOL0     C20476   0.409   7.685   3.581  0.4259  0.3664 -0.3873
  874MOL0     O20477   0.433   7.814   3.619 -0.9169  0.0285 -0.0481
  874MOL0     C20478   0.550   7.874   3.592 -0.1402  0.1067 -1.1574
  874MOL0     C20479   0.643   7.851   3.484 -0.7481  0.1597 -0.2053
  874MOL0     C20480   0.767   7.916   3.465  0.3878 -1.3212  0.1713
  874MOL0     C20481   0.800   8.019   3.553 -0.1822 -1.1368  0.3856
  874MOL0     O20482   0.921   8.076   3.535 -0.3507 -1.1684 -0.3830
  874MOL0     C20483   0.927   8.215   3.544 -0.3083 -0.0342 -0.0403
  874MOL0     C20484   1.079   8.254   3.510 -0.3012 -0.2850 -0.7450
  874MOL0     C20485   1.103   8.408   3.508  0.1891 -0.3110 -0.5916
  874MOL0     C20486   1.130   8.460   3.652 -0.1556  0.3654  0.1854
  874MOL0     C20487   1.114   8.612   3.664  0.1672 -0.4538  0.4126
  874MOL0     C20488   1.110   8.680   3.804  0.6877 -0.1211  0.0190
  874MOL0     C20489   1.240   8.642   3.873 -0.4342  0.1274 -0.2303
  874MOL0     C20490   1.264   8.709   4.011  0.5117 -0.6945  0.3085
  874MOL0     N20491   1.377   8.648   4.088 -0.2639  0.0468  0.8297
  874MOL0     C20492   1.377   8.588   4.211 -0.6934 -0.1221  0.0561
  874MOL0     C20493   1.493   8.521   4.212  0.2383  0.2219 -0.6968
  874MOL0     C20494   1.543   8.419   4.322  0.0994 -1.2941  0.3605
  874MOL0     C20495   1.498   8.278   4.298 -0.2177 -0.6777  0.3516
  874MOL0     C20496   1.561   8.219   4.172  0.2823 -0.0231 -0.3436
  874MOL0     C20497   1.484   8.109   4.113  0.2658  0.1107 -0.2738
  874MOL0     O20498   1.472   7.989   4.189  0.0204 -0.0934 -0.3176
  874MOL0     C20499   1.565   7.900   4.216 -0.9309  0.2615 -0.4653
  874MOL0     C20500   1.545   7.799   4.312 -0.4918 -0.1780  0.6303
  874MOL0     C20501   1.652   7.708   4.352 -0.6705 -0.4405  0.4496
  874MOL0     C20502   1.620   7.617   4.476 -0.2967 -0.3081  0.0810
  874MOL0     C20503   1.774   7.707   4.277 -0.3311  0.5485  0.0940
  874MOL0     C20504   1.892   7.610   4.291  0.2193  0.2493 -0.1976
  874MOL0     O20505   2.005   7.642   4.234 -0.1966  0.2075 -0.2330
  874MOL0     C20506   2.093   7.536   4.221 -0.9025  0.2261 -0.5514
  874MOL0     C20507   2.083   7.432   4.133  0.5123  0.2523  0.2804
  874MOL0     C20508   2.188   7.336   4.106  0.5577  0.0682  0.2139
  874MOL0     C20509   2.306   7.347   4.175  0.2741 -0.2399 -0.6979
  874MOL0     O20510   2.412   7.261   4.131  0.1453  0.0197  0.4380
  874MOL0     C20511   2.546   7.303   4.171  0.2375  0.3187  0.0167
  874MOL0     C20512   2.650   7.239   4.078 -0.8301  0.4363  0.1839
  874MOL0     C20513   2.663   7.089   4.082  0.2585  0.9525 -0.2378
  874MOL0     C20514   2.751   7.045   3.969 -0.5003 -0.5417  0.0466
  874MOL0     C20515   2.901   7.046   4.010 -0.2803  0.2383  1.0299
  874MOL0     C20516   2.984   7.042   3.882 -0.0140  0.4906 -0.2449
  874MOL0     C20517   3.131   7.044   3.918 -1.3542  0.2270  0.8434
  874MOL0     C20518   3.194   7.044   3.779 -0.3088 -0.6249 -0.3899
  874MOL0    Cl20519   3.359   7.065   3.810 -0.3575  0.0773 -0.3613
  874MOL0     C20520   2.317   7.450   4.272 -0.3594 -0.6877  0.1316
  874MOL0     C20521   2.210   7.540   4.296  0.2409 -0.7866  0.4021
  874MOL0     O20522   1.867   7.502   4.344 -0.9347  0.4298 -0.2452
  874MOL0     C20523   1.785   7.804   4.178  0.6732  0.5201 -0.5321
  874MOL0     C20524   1.689   7.902   4.150  0.4483  0.6109 -0.2009
  874MOL0     N20525   1.567   8.544   4.093 -0.1543  0.4123  0.3132
  874MOL0     N20526   1.492   8.619   4.022 -0.0161  0.0677  0.8571
  874MOL0     C20527   0.712   8.045   3.654  0.6542 -0.2686 -0.0904
  874MOL0     C20528   0.592   7.977   3.682  0.2524 -0.8501  0.2205
  874MOL0     C20529   0.279   7.628   3.621  0.6631  0.2794 -0.3818
  874MOL0     C20530   0.252   7.498   3.587  0.8748 -0.4294  0.3122
  874MOL0     C20531   0.132   7.438   3.607 -0.2793 -0.7024  0.4704
  874MOL0     C20532   0.026   7.495   3.660  0.5966  0.2032  0.5947
  874MOL0     O20533  -0.091   7.418   3.678  0.1785  0.1029  0.2661
  874MOL0     C20534  -0.209   7.473   3.713  1.1925  0.8621 -0.1494
  874MOL0     C20535  -0.328   7.377   3.692  0.4717  0.8025 -0.4769
  874MOL0     C20536  -0.452   7.395   3.777  0.5431  0.1918 -0.1288
  874MOL0     C20537  -0.421   7.368   3.931 -0.1786 -0.0023 -0.1318
  874MOL0     C20538  -0.549   7.357   4.010 -0.7015  0.4834 -0.2832
  874MOL0     C20539  -0.648   7.355   4.073  0.2945  0.2698  0.2061
  874MOL0     C20540   0.040   7.633   3.694 -0.3308  0.1545 -0.2818
  874MOL0     C20541   0.163   7.696   3.677 -0.4669 -0.3496  0.1556
  874MOL0     C20542   0.167   7.850   3.703  0.8016 -0.3125 -0.5366
  874MOL0     H20543   0.617   7.780   3.407  0.5174 -2.3945  1.5718
  874MOL0     H20544   0.840   7.894   3.388  1.7304 -0.2817  1.0958
  874MOL0     H20545   0.896   8.248   3.643 -0.7968 -1.0441  0.1601
  874MOL0     H20546   0.864   8.266   3.470  0.5596 -0.0467 -0.8083
  874MOL0     H20547   1.143   8.204   3.583 -2.5588 -2.5439 -0.1699
  874MOL0     H20548   1.110   8.213   3.412 -0.1657 -0.4039 -0.6537
  874MOL0     H20549   1.185   8.435   3.441  0.3588  0.9949  0.1210
  874MOL0     H20550   1.012   8.453   3.468 -0.6160  0.1870  1.6258
  874MOL0     H20551   1.060   8.410   3.721  0.2662 -0.9462 -0.3030
  874MOL0     H20552   1.230   8.433   3.687 -0.3023  0.0181  0.3467
  874MOL0     H20553   1.025   8.643   3.609 -0.0644 -2.3364 -0.3562
  874MOL0     H20554   1.201   8.647   3.609 -1.0291  1.5552 -0.2902
  874MOL0     H20555   1.107   8.790   3.809 -2.3904 -0.1286  0.3912
  874MOL0     H20556   1.020   8.649   3.859  0.9107  0.1784  0.5565
  874MOL0     H20557   1.327   8.653   3.808 -0.1777 -1.4571 -0.1867
  874MOL0     H20558   1.230   8.534   3.891  3.5870 -0.3493  0.1969
  874MOL0     H20559   1.279   8.817   4.003  4.1944 -1.1492 -0.9200
  874MOL0     H20560   1.174   8.684   4.068 -0.9508  1.9436 -0.6388
  874MOL0     H20561   1.308   8.596   4.294  0.8097  1.9767  1.2089
  874MOL0     H20562   1.498   8.449   4.417 -0.8047  0.1590 -0.4991
  874MOL0     H20563   1.652   8.417   4.331  0.1361 -2.4452 -0.1159
  874MOL0     H20564   1.534   8.213   4.378  3.5600 -0.3400 -0.8525
  874MOL0     H20565   1.389   8.278   4.304 -0.3419  2.9991  0.0589
  874MOL0     H20566   1.571   8.295   4.094  0.6793 -0.0320 -0.3041
  874MOL0     H20567   1.660   8.185   4.203  0.5372  2.5253  2.0125
  874MOL0     H20568   1.381   8.140   4.098  0.5606  0.8749 -0.7950
  874MOL0     H20569   1.525   8.093   4.013  0.2063 -1.4167 -0.0713
  874MOL0     H20570   1.462   7.806   4.382 -1.3816 -0.4949 -0.3704
  874MOL0     H20571   1.526   7.645   4.525 -1.0041  2.2176 -2.5016
  874MOL0     H20572   1.699   7.623   4.551  0.4313 -2.4617 -0.4358
  874MOL0     H20573   1.613   7.513   4.444 -1.3115  0.3756 -2.0925
  874MOL0     H20574   2.000   7.428   4.063  0.5234  0.9527  0.2172
  874MOL0     H20575   2.189   7.269   4.020 -0.4102  0.3808 -0.0601
  874MOL0     H20576   2.560   7.411   4.172  3.5464 -0.0160 -0.6559
  874MOL0     H20577   2.585   7.276   4.270  0.2869  1.3496  0.2922
  874MOL0     H20578   2.619   7.264   3.976 -2.0701 -3.0989 -0.4453
  874MOL0     H20579   2.746   7.286   4.103 -1.1488  1.2784 -0.1534
  874MOL0     H20580   2.560   7.060   4.060  0.6185 -0.3156 -0.2936
  874MOL0     H20581   2.695   7.052   4.180 -2.1601  0.8920  0.5989
  874MOL0     H20582   2.735   7.105   3.878 -1.2560 -0.1298  0.4438
  874MOL0     H20583   2.732   6.942   3.938  2.0900 -1.6311  1.7600
  874MOL0     H20584   2.924   7.134   4.071 -1.4550 -1.1396  3.5917
  874MOL0     H20585   2.931   6.960   4.069 -0.3441 -1.2880 -1.0424
  874MOL0     H20586   2.961   7.140   3.840  2.4741  0.9176 -0.7537
  874MOL0     H20587   2.961   6.959   3.815  3.1187 -1.1409  0.4949
  874MOL0     H20588   3.159   6.954   3.975 -0.6917  0.3902  0.7833
  874MOL0     H20589   3.159   7.139   3.963 -0.6901 -0.3845  1.7501
  874MOL0     H20590   3.151   7.119   3.712 -1.3087 -0.1972  0.6922
  874MOL0     H20591   3.170   6.945   3.740  1.2902 -1.0705 -0.2966
  874MOL0     H20592   2.416   7.460   4.314 -0.1708 -3.9339  0.7658
  874MOL0     H20593   2.210   7.629   4.357  0.8282 -1.7592  1.8758
  874MOL0     H20594   1.887   7.829   4.151  0.1836  1.8824 -1.2166
  874MOL0     H20595   1.724   7.985   4.091  3.2736  0.7878  1.5137
  874MOL0     H20596   0.739   8.123   3.725  2.6513 -0.2329 -0.8308
  874MOL0     H20597   0.547   8.003   3.777  3.1462 -2.2631  2.1105
  874MOL0     H20598   0.334   7.446   3.537  1.9077 -1.1087  2.5912
  874MOL0     H20599   0.113   7.334   3.582  0.1475 -0.4413 -1.0559
  874MOL0     H20600  -0.198   7.493   3.820  3.2840  0.7682 -0.3020
  874MOL0     H20601  -0.225   7.570   3.665 -2.7263  0.0880 -0.7469
  874MOL0     H20602  -0.292   7.276   3.708  2.0419  1.1364 -1.6925
  874MOL0     H20603  -0.355   7.383   3.586  2.5772 -2.4368 -1.3238
  874MOL0     H20604  -0.480   7.499   3.762  1.4213  0.3883 -0.4491
  874MOL0     H20605  -0.530   7.325   3.744 -0.8977  1.7895 -0.2808
  874MOL0     H20606  -0.363   7.459   3.947  1.1005 -0.7875 -0.1291
  874MOL0     H20607  -0.370   7.272   3.944 -0.3738  0.0794  1.4472
  874MOL0     H20608  -0.738   7.381   4.124 -0.3248  0.8712 -1.1310
  874MOL0     H20609  -0.039   7.697   3.732  0.3653  0.3785  0.8389
  874MOL0     H20610   0.183   7.911   3.614 -0.9294 -0.2014 -0.7974
  874MOL0     H20611   0.066   7.873   3.739  1.6147  0.4847  1.3984
  874MOL0     H20612   0.232   7.874   3.788 -0.5464 -1.0183  0.7339
  875MOL0     O20613  10.580   1.126   5.799  0.1814  0.1189 -0.2640
  875MOL0     C20614  10.594   1.188   5.697 -0.3769 -0.2572 -0.1945
  875MOL0     O20615  10.687   1.172   5.602 -0.5232 -0.2504  0.2048
  875MOL0     C20616  10.790   1.100   5.637 -0.5129  0.4231  0.4181
  875MOL0     C20617  10.788   0.960   5.665 -0.9198  0.1109  0.0166
  875MOL0     C20618  10.901   0.894   5.694 -0.0159 -0.3017 -0.2732
  875MOL0     C20619  11.024   0.960   5.704  0.1515 -0.4331 -1.7167
  875MOL0     O20620  11.142   0.904   5.759 -0.2671 -0.4330  0.4118
  875MOL0     C20621  11.131   0.802   5.858  1.0737 -0.0230 -0.1916
  875MOL0     C20622  11.253   0.806   5.952 -0.7873  0.3945 -0.4373
  875MOL0     C20623  11.279   0.660   6.003  0.2472 -0.5525 -0.2262
  875MOL0     C20624  11.394   0.598   5.918  0.6650 -0.4371 -0.6626
  875MOL0     C20625  11.436   0.465   5.982 -0.1314  0.3934 -0.1294
  875MOL0     C20626  11.562   0.409   5.919  0.2780 -0.0229  0.1301
  875MOL0     C20627  11.689   0.494   5.943 -0.5947  0.5133  0.2142
  875MOL0     C20628  11.804   0.396   5.938  0.1175  0.3270 -0.3326
  875MOL0     N20629  11.935   0.473   5.967 -0.1294  0.7742  1.0483
  875MOL0     C20630  11.988   0.516   6.082 -0.1885 -0.0985 -0.2869
  875MOL0     C20631  12.114   0.557   6.049 -0.2928  0.0081  1.3028
  875MOL0     C20632  12.226   0.584   6.145 -0.5162  0.3968 -0.0074
  875MOL0     C20633  12.349   0.652   6.069  0.3615 -0.6056 -0.1312
  875MOL0     C20634  12.452   0.715   6.151  0.0520  1.6420 -0.6828
  875MOL0     C20635  12.571   0.752   6.075  0.0791 -0.5499 -0.6044
  875MOL0     O20636  12.643   0.626   6.050  0.1310 -0.2532 -0.0082
  875MOL0     C20637  12.760   0.634   5.981 -0.1350 -0.2553  0.6104
  875MOL0     C20638  12.808   0.757   5.920 -0.5654  0.3843  0.1570
  875MOL0     C20639  12.929   0.761   5.849 -0.3936  0.3753  0.3849
  875MOL0     C20640  12.980   0.898   5.811 -0.2290  0.0703 -0.2485
  875MOL0     C20641  12.995   0.634   5.823  0.3009  0.2939  0.5720
  875MOL0     C20642  13.120   0.617   5.736 -0.6116  0.3857  0.6447
  875MOL0     O20643  13.160   0.713   5.653  0.5844  0.2217 -0.5961
  875MOL0     C20644  13.295   0.737   5.654 -0.1725 -0.3021 -0.2883
  875MOL0     C20645  13.362   0.719   5.529  0.5998  0.8519  0.9578
  875MOL0     C20646  13.504   0.731   5.526  0.0505 -0.0906  0.0926
  875MOL0     C20647  13.573   0.782   5.641 -0.6879 -0.1208  0.0302
  875MOL0     O20648  13.702   0.810   5.633  0.1322 -0.3416  0.3412
  875MOL0     C20649  13.785   0.737   5.713 -0.5648  0.5298 -0.8640
  875MOL0     C20650  13.937   0.762   5.673  0.4963 -0.4268  0.3510
  875MOL0     C20651  14.039   0.703   5.774 -0.0433 -0.6909  0.6033
  875MOL0     C20652  14.055   0.548   5.774  0.2727 -0.7434  0.2598
  875MOL0     C20653  14.186   0.507   5.847  0.1902 -0.7209 -0.4010
  875MOL0     C20654  14.214   0.364   5.810  0.1566 -0.3832  0.2607
  875MOL0     C20655  14.332   0.299   5.876  0.7453 -0.4704 -0.7201
  875MOL0     C20656  14.443   0.259   5.778  1.2107 -0.5218  0.4015
  875MOL0    Cl20657  14.593   0.194   5.860  0.2655 -0.2714 -0.0859
  875MOL0     C20658  13.502   0.795   5.762  0.8805 -0.6643  0.1044
  875MOL0     C20659  13.370   0.760   5.771 -0.2244 -0.1808  0.7331
  875MOL0     O20660  13.179   0.508   5.748 -0.3638  0.3345  0.8517
  875MOL0     C20661  12.939   0.517   5.873 -0.2463 -0.0156 -0.1970
  875MOL0     C20662  12.820   0.510   5.944  0.7684 -0.0783 -0.7745
  875MOL0     N20663  12.127   0.546   5.908  0.1390  0.7581  0.0226
  875MOL0     N20664  12.019   0.494   5.863  0.1478  0.6865  0.0974
  875MOL0     C20665  11.030   1.097   5.677  0.7054 -0.5391 -0.2661
  875MOL0     C20666  10.914   1.166   5.646  0.7763  0.0687  0.5945
  875MOL0     C20667  10.486   1.284   5.657 -0.1211  0.6831 -1.0993
  875MOL0     C20668  10.360   1.257   5.723  0.2136 -0.1120  0.9590
  875MOL0     C20669  10.242   1.320   5.675 -0.4765 -0.2540  0.9297
  875MOL0     C20670  10.245   1.426   5.581  1.7731  0.0752 -0.1755
  875MOL0     O20671  10.128   1.485   5.547 -0.4266 -0.0649  0.5198
  875MOL0     C20672  10.121   1.585   5.448  0.3790 -0.5050  0.0294
  875MOL0     C20673   9.974   1.578   5.406  0.0425  0.2437  0.0400
  875MOL0     C20674   9.878   1.619   5.522  0.1235  0.7970  0.2354
  875MOL0     C20675   9.719   1.632   5.485 -0.2879 -0.4366 -0.3135
  875MOL0     C20676   9.664   1.498   5.459 -1.4698  0.1841 -0.7361
  875MOL0     C20677   9.617   1.394   5.432  0.2777 -0.4354 -0.1673
  875MOL0     C20678  10.376   1.452   5.534  0.2896  0.1558 -0.6099
  875MOL0     C20679  10.495   1.385   5.567 -0.5122 -0.4152  0.9565
  875MOL0     C20680  10.624   1.427   5.496 -0.1781  0.3143  0.1751
  875MOL0     H20681  10.694   0.910   5.645 -0.4173 -1.8802  2.1751
  875MOL0     H20682  10.900   0.788   5.717  1.0925 -0.3805 -0.5405
  875MOL0     H20683  11.123   0.707   5.804  0.3037 -1.3754  2.1515
  875MOL0     H20684  11.040   0.814   5.918  1.5894 -0.8921  0.8191
  875MOL0     H20685  11.346   0.839   5.904  0.0234  1.0127  1.4763
  875MOL0     H20686  11.227   0.860   6.043  1.3406  0.2995  0.2724
  875MOL0     H20687  11.304   0.670   6.110 -4.6591  0.2506  1.0960
  875MOL0     H20688  11.189   0.600   5.991  0.1420 -0.3127 -0.6487
  875MOL0     H20689  11.364   0.573   5.816  0.0576  1.0922 -0.8911
  875MOL0     H20690  11.485   0.658   5.914  1.1488 -1.1484 -0.5304
  875MOL0     H20691  11.353   0.397   5.960 -0.4185  0.6064  0.2813
  875MOL0     H20692  11.453   0.483   6.089  1.9713 -0.8802 -0.1893
  875MOL0     H20693  11.579   0.308   5.957  0.9097  0.2953  0.7087
  875MOL0     H20694  11.551   0.391   5.812 -1.0499  0.6223  0.1353
  875MOL0     H20695  11.690   0.533   6.045  0.2672  0.4111  0.2488
  875MOL0     H20696  11.697   0.582   5.877 -0.0943  0.0760 -0.3240
  875MOL0     H20697  11.787   0.322   6.017 -0.7655  0.3277 -0.5070
  875MOL0     H20698  11.789   0.357   5.837 -4.1477  0.9429 -0.1496
  875MOL0     H20699  11.946   0.497   6.180  0.4007  0.3309  0.0570
  875MOL0     H20700  12.256   0.488   6.188 -1.3465  0.2907  0.3603
  875MOL0     H20701  12.200   0.649   6.230  2.3184  0.0596  1.2038
  875MOL0     H20702  12.399   0.570   6.017  0.8911  0.3522 -1.1767
  875MOL0     H20703  12.308   0.727   6.001  1.4509  0.1076 -0.0184
  875MOL0     H20704  12.416   0.805   6.203  2.0861  0.7156  2.6510
  875MOL0     H20705  12.470   0.650   6.237 -2.4725  2.8711  0.8975
  875MOL0     H20706  12.542   0.793   5.978  0.6608 -1.4945 -1.1911
  875MOL0     H20707  12.624   0.832   6.128 -0.6151  0.8185 -1.8977
  875MOL0     H20708  12.764   0.856   5.932  0.2969  0.8545 -0.4303
  875MOL0     H20709  13.008   0.904   5.705  1.1889  1.9067  0.1845
  875MOL0     H20710  13.069   0.918   5.870  0.9879  0.4309 -2.1070
  875MOL0     H20711  12.895   0.967   5.823 -1.6088 -0.9822 -3.0210
  875MOL0     H20712  13.314   0.681   5.439  1.5193 -0.1625  0.8623
  875MOL0     H20713  13.562   0.698   5.441 -1.1322 -1.3251 -0.2668
  875MOL0     H20714  13.771   0.760   5.819 -1.2752  1.2650 -1.1067
  875MOL0     H20715  13.773   0.630   5.694  2.1779 -0.1233  0.5220
  875MOL0     H20716  13.954   0.734   5.568 -1.4607  1.1365 -0.4559
  875MOL0     H20717  13.943   0.870   5.664 -1.3238 -0.2421  1.0047
  875MOL0     H20718  14.019   0.737   5.876  1.1015 -0.0759  0.6352
  875MOL0     H20719  14.135   0.745   5.743 -0.4801  0.2996  0.5632
  875MOL0     H20720  14.052   0.516   5.669 -1.9999  1.3378 -0.4017
  875MOL0     H20721  13.972   0.503   5.828  2.7954 -1.9470  3.4921
  875MOL0     H20722  14.274   0.565   5.817  0.6859  0.3206  2.7636
  875MOL0     H20723  14.176   0.517   5.955 -0.1255  2.1083 -0.6271
  875MOL0     H20724  14.220   0.371   5.701 -0.6963  0.3023  0.2460
  875MOL0     H20725  14.129   0.298   5.827  0.6060 -1.6386 -1.8823
  875MOL0     H20726  14.297   0.218   5.941 -0.8976  1.5437  1.0997
  875MOL0     H20727  14.372   0.376   5.943 -0.3009  0.4548 -1.1263
  875MOL0     H20728  14.463   0.348   5.717 -1.9112  1.8021  2.4839
  875MOL0     H20729  14.398   0.181   5.716  2.3755 -1.1741  0.3464
  875MOL0     H20730  13.554   0.823   5.853  0.7812 -0.1644  0.0056
  875MOL0     H20731  13.308   0.762   5.860 -3.6367  0.9292 -1.4384
  875MOL0     H20732  12.989   0.422   5.858  1.5104  0.2253  3.1683
  875MOL0     H20733  12.797   0.412   5.985  0.2673 -1.7510 -4.6058
  875MOL0     H20734  11.124   1.147   5.701  1.3832 -1.9999  0.2159
  875MOL0     H20735  10.922   1.270   5.615  1.5894  0.0990  0.8788
  875MOL0     H20736  10.351   1.181   5.800  0.7023 -0.7295  0.4202
  875MOL0     H20737  10.148   1.291   5.721 -0.3746 -2.4651 -0.1671
  875MOL0     H20738  10.149   1.682   5.490  2.4280 -0.8268 -0.4696
  875MOL0     H20739  10.178   1.564   5.356 -1.1940  0.8117 -1.3029
  875MOL0     H20740   9.953   1.478   5.366  3.0090 -0.8148  0.8833
  875MOL0     H20741   9.962   1.635   5.314 -1.8304 -0.8718 -0.4751
  875MOL0     H20742   9.883   1.553   5.608  1.4310  1.1568  0.4592
  875MOL0     H20743   9.901   1.722   5.553 -0.7769  2.1855 -3.1849
  875MOL0     H20744   9.695   1.705   5.407 -1.1937 -0.2450  0.1342
  875MOL0     H20745   9.675   1.674   5.576  1.1579  0.6150 -0.0539
  875MOL0     H20746   9.557   1.313   5.398  0.9300 -0.9299 -0.1501
  875MOL0     H20747  10.382   1.528   5.457  0.0590  1.0390  0.2311
  875MOL0     H20748  10.705   1.442   5.568 -2.0319  2.3042  2.0174
  875MOL0     H20749  10.636   1.343   5.427 -2.6457  1.0315 -1.2690
  875MOL0     H20750  10.611   1.524   5.446 -0.1063  1.1267  1.6705
  876MOL0     O20751   5.632   7.313   5.954 -0.2963 -0.2061 -0.4982
  876MOL0     C20752   5.575   7.252   6.038  0.3697 -0.1119 -0.6911
  876MOL0     O20753   5.580   7.282   6.170 -0.0044 -0.2760  0.3188
  876MOL0     C20754   5.599   7.414   6.216 -0.7445  0.5328  0.1654
  876MOL0     C20755   5.686   7.439   6.319  0.0982 -0.7202 -0.1117
  876MOL0     C20756   5.690   7.569   6.374  0.8502 -0.5104  0.0209
  876MOL0     C20757   5.623   7.681   6.325 -0.2506 -0.4944 -0.5362
  876MOL0     O20758   5.639   7.802   6.388  0.5930 -0.7586  0.4639
  876MOL0     C20759   5.536   7.895   6.363  0.6658 -0.3086  0.2422
  876MOL0     C20760   5.532   8.002   6.465 -0.0542 -0.2180 -0.1105
  876MOL0     C20761   5.431   8.102   6.412  0.4887 -0.6305 -0.9098
  876MOL0     C20762   5.420   8.218   6.517  0.0497  0.5194 -0.3644
  876MOL0     C20763   5.304   8.308   6.472  0.4542  0.6550  0.0089
  876MOL0     C20764   5.298   8.445   6.556 -0.1010  0.0456 -0.5122
  876MOL0     C20765   5.227   8.417   6.693 -0.9458  0.2103 -0.0306
  876MOL0     C20766   5.191   8.544   6.778  0.3064  0.6608 -0.2203
  876MOL0     N20767   5.168   8.486   6.914  0.3648 -0.8194  0.4944
  876MOL0     C20768   5.270   8.459   7.009 -0.3759 -0.3292  0.2997
  876MOL0     C20769   5.210   8.445   7.126  0.1394 -0.4247 -0.7690
  876MOL0     C20770   5.283   8.418   7.251 -0.2572 -1.0134 -0.5704
  876MOL0     C20771   5.334   8.546   7.324  0.9126 -0.1320  0.3124
  876MOL0     C20772   5.375   8.531   7.474 -0.1640 -0.9136 -0.3612
  876MOL0     C20773   5.495   8.459   7.493  0.0206 -0.0280  0.0638
  876MOL0     O20774   5.603   8.524   7.418  1.2255  0.2521  0.5118
  876MOL0     C20775   5.730   8.488   7.426 -0.1781  0.7860  0.5176
  876MOL0     C20776   5.766   8.386   7.515  0.9317  0.6224  0.4940
  876MOL0     C20777   5.906   8.354   7.512 -0.1031  1.4253 -0.3756
  876MOL0     C20778   5.950   8.252   7.615  0.3450 -0.9558  0.0373
  876MOL0     C20779   5.998   8.402   7.417  0.5415  0.3331  0.4597
  876MOL0     C20780   6.143   8.364   7.404 -0.6084  0.6404  1.2396
  876MOL0     O20781   6.218   8.344   7.518 -0.0702 -0.0708  0.4442
  876MOL0     C20782   6.349   8.297   7.492  0.7939  1.0034  0.4456
  876MOL0     C20783   6.399   8.160   7.515  0.3282 -1.0314  0.1891
  876MOL0     C20784   6.528   8.136   7.501 -0.2378  0.9226  0.3230
  876MOL0     C20785   6.623   8.236   7.473 -0.1809 -0.8867 -0.3582
  876MOL0     O20786   6.759   8.225   7.468  0.0483 -0.2222 -0.4934
  876MOL0     C20787   6.819   8.108   7.522 -0.0233 -0.6050  0.2756
  876MOL0     C20788   6.968   8.096   7.476 -0.1899 -0.2788  0.0810
  876MOL0     C20789   7.045   7.974   7.516  0.0072 -0.1999  0.1737
  876MOL0     C20790   7.192   7.968   7.473  0.3143 -0.6565 -0.2555
  876MOL0     C20791   7.270   8.086   7.535  0.3339  0.1592  0.4115
  876MOL0     C20792   7.411   8.086   7.487  0.7898  0.6710  0.2315
  876MOL0     C20793   7.490   7.992   7.577 -0.9121  1.0304  0.6579
  876MOL0     C20794   7.636   7.964   7.518 -0.3995  0.3333  0.2891
  876MOL0    Cl20795   7.706   7.826   7.610 -0.3933 -0.4007  0.2906
  876MOL0     C20796   6.572   8.366   7.447  0.2694  0.2385 -0.0849
  876MOL0     C20797   6.438   8.397   7.450 -0.0924  0.3112  0.1956
  876MOL0     O20798   6.183   8.352   7.288 -0.2414 -0.2833  0.4854
  876MOL0     C20799   5.957   8.505   7.330 -0.6070 -0.2132 -0.2600
  876MOL0     C20800   5.826   8.548   7.340 -0.7300 -0.2661 -0.1184
  876MOL0     N20801   5.072   8.442   7.104 -0.6624  0.4371 -0.1055
  876MOL0     N20802   5.049   8.460   6.976  0.0511  0.7657 -0.8648
  876MOL0     C20803   5.541   7.650   6.208  0.2090 -0.3529 -0.7738
  876MOL0     C20804   5.534   7.523   6.149  0.2096 -0.3296 -0.6254
  876MOL0     C20805   5.488   7.137   5.990 -0.0331 -0.0295 -0.0080
  876MOL0     C20806   5.451   7.039   6.081  0.0388  0.2575  0.6290
  876MOL0     C20807   5.385   6.920   6.037  0.5546 -0.7645 -0.1056
  876MOL0     C20808   5.343   6.913   5.911  0.6142 -0.6310  0.9640
  876MOL0     O20809   5.259   6.815   5.878 -0.0417  0.0973 -0.4397
  876MOL0     C20810   5.235   6.775   5.739 -0.2254 -0.6443 -0.5483
  876MOL0     C20811   5.105   6.685   5.735 -0.0050 -0.0405 -0.1898
  876MOL0     C20812   5.139   6.547   5.796 -0.2444  0.4476  0.7143
  876MOL0     C20813   5.029   6.448   5.767  0.6401 -0.1523  0.0968
  876MOL0     C20814   5.052   6.317   5.819 -0.1188  1.0145 -0.7493
  876MOL0     C20815   5.066   6.195   5.857 -0.0024 -0.4955  0.1986
  876MOL0     C20816   5.385   7.005   5.815  0.7111  0.9016 -0.1159
  876MOL0     C20817   5.441   7.117   5.858  0.3322  0.3021  0.1781
  876MOL0     C20818   5.459   7.220   5.743 -0.0056  0.6343 -0.8270
  876MOL0     H20819   5.751   7.362   6.360 -0.0111 -0.2513  0.9735
  876MOL0     H20820   5.757   7.585   6.458  1.1300 -1.4766 -0.0073
  876MOL0     H20821   5.438   7.847   6.375  1.1107 -0.5839  5.2932
  876MOL0     H20822   5.550   7.929   6.260 -1.3211 -2.4496 -0.8384
  876MOL0     H20823   5.501   7.952   6.557 -1.2275 -2.7259 -1.7742
  876MOL0     H20824   5.632   8.044   6.478  0.9412 -1.3459 -3.2620
  876MOL0     H20825   5.472   8.150   6.323  1.7218 -0.9576 -0.5411
  876MOL0     H20826   5.334   8.058   6.387 -0.5424  1.1498 -0.2535
  876MOL0     H20827   5.401   8.189   6.621 -0.4655 -0.3909 -0.7019
  876MOL0     H20828   5.511   8.278   6.508 -1.0548  1.9607 -3.5427
  876MOL0     H20829   5.215   8.246   6.463  0.1059  1.1198  0.2451
  876MOL0     H20830   5.329   8.339   6.370  2.1861 -1.6869 -0.3766
  876MOL0     H20831   5.397   8.485   6.582 -0.4048 -1.1120  2.9017
  876MOL0     H20832   5.237   8.511   6.493 -1.6542 -0.3058  0.5855
  876MOL0     H20833   5.293   8.351   6.751 -1.1924  0.9759  1.1816
  876MOL0     H20834   5.141   8.354   6.671  1.0881 -2.1324 -1.8856
  876MOL0     H20835   5.269   8.618   6.799  0.6726 -0.4679  3.0028
  876MOL0     H20836   5.102   8.595   6.742 -0.8231 -0.2431  1.2004
  876MOL0     H20837   5.377   8.447   6.999 -0.2021 -3.6931  3.7860
  876MOL0     H20838   5.360   8.340   7.243 -1.1246 -1.8232 -1.1573
  876MOL0     H20839   5.218   8.368   7.322  1.9900  2.0901  4.1954
  876MOL0     H20840   5.413   8.597   7.269 -0.2604  1.1248 -0.2574
  876MOL0     H20841   5.258   8.624   7.315  0.9066 -0.1709  0.0395
  876MOL0     H20842   5.387   8.634   7.507 -2.3251 -0.6367 -0.2432
  876MOL0     H20843   5.290   8.491   7.530 -0.1151  0.1905  0.5400
  876MOL0     H20844   5.517   8.466   7.600 -1.8168  0.0189  0.4670
  876MOL0     H20845   5.488   8.353   7.468 -0.4227  0.7581 -3.6914
  876MOL0     H20846   5.701   8.335   7.586  1.5502 -0.6184  0.1822
  876MOL0     H20847   5.868   8.188   7.650 -0.3536  0.7154  1.6351
  876MOL0     H20848   5.978   8.310   7.703  2.2353  2.7301 -2.7380
  876MOL0     H20849   6.043   8.201   7.587  1.3489 -0.5020  2.3526
  876MOL0     H20850   6.330   8.080   7.539 -0.2688 -0.8896 -0.9701
  876MOL0     H20851   6.556   8.032   7.515  0.2255  1.0583  0.4386
  876MOL0     H20852   6.808   8.124   7.630 -0.1316  1.3493  0.0141
  876MOL0     H20853   6.759   8.024   7.487  0.5996 -0.8801 -0.1326
  876MOL0     H20854   6.966   8.104   7.367  1.0466 -0.5454  0.0313
  876MOL0     H20855   7.018   8.186   7.511 -2.3109 -0.1506  3.2581
  876MOL0     H20856   7.004   7.882   7.472 -5.4956  2.1335 -0.2726
  876MOL0     H20857   7.045   7.964   7.625  0.0454 -1.3681  0.0816
  876MOL0     H20858   7.191   7.966   7.364 -0.5292  3.0766 -0.4455
  876MOL0     H20859   7.246   7.880   7.508  3.0025  2.1087  3.5491
  876MOL0     H20860   7.227   8.182   7.502 -2.3732 -1.0321  0.2490
  876MOL0     H20861   7.262   8.070   7.643 -0.3414  0.3259  0.3872
  876MOL0     H20862   7.461   8.183   7.478 -0.9971  1.5583 -0.7021
  876MOL0     H20863   7.409   8.037   7.389 -0.4130  1.9758 -0.4314
  876MOL0     H20864   7.453   7.895   7.612  0.2096  0.3680  0.0674
  876MOL0     H20865   7.516   8.043   7.670 -1.5464  1.6027  0.5336
  876MOL0     H20866   7.705   8.048   7.532 -0.3033  0.0876  1.3895
  876MOL0     H20867   7.633   7.934   7.413  0.1084 -1.3217  0.7019
  876MOL0     H20868   6.644   8.448   7.444  0.2057  0.2565 -1.5029
  876MOL0     H20869   6.405   8.500   7.435 -1.2860 -0.0334  0.3885
  876MOL0     H20870   6.027   8.551   7.261  0.3658 -0.7949  0.3208
  876MOL0     H20871   5.791   8.627   7.275 -2.4429 -1.8276 -1.1845
  876MOL0     H20872   5.485   7.733   6.167  2.8456  2.1471  0.3305
  876MOL0     H20873   5.466   7.495   6.069  2.8202 -1.9002 -2.4251
  876MOL0     H20874   5.474   7.044   6.187 -0.4488 -1.7378  0.8689
  876MOL0     H20875   5.347   6.847   6.109 -2.2416  0.3564 -0.3405
  876MOL0     H20876   5.201   6.861   5.680  0.4804  1.8190  2.3915
  876MOL0     H20877   5.321   6.724   5.695  0.8642  0.0062  0.7768
  876MOL0     H20878   5.071   6.675   5.631  1.7765  1.7815 -1.0155
  876MOL0     H20879   5.029   6.736   5.795  0.0537  1.3784 -1.2611
  876MOL0     H20880   5.226   6.503   5.747 -1.5648 -0.9341 -0.5071
  876MOL0     H20881   5.158   6.563   5.902  0.0500  0.4568  0.6614
  876MOL0     H20882   5.011   6.440   5.660 -0.6069 -1.4178  0.3711
  876MOL0     H20883   4.931   6.480   5.804 -0.2991 -0.6864 -1.8363
  876MOL0     H20884   5.075   6.093   5.889  0.0136 -1.0899 -1.6039
  876MOL0     H20885   5.370   6.992   5.709  0.5786  2.5377 -0.3220
  876MOL0     H20886   5.442   7.316   5.792 -4.7032  0.2982 -1.3453
  876MOL0     H20887   5.563   7.210   5.710 -0.0388 -2.1565 -0.3515
  876MOL0     H20888   5.396   7.207   5.654  0.2506 -3.8065 -0.5498
  877MOL0     O20889  10.459   7.124   8.728  0.6158  1.1754 -0.0984
  877MOL0     C20890  10.378   7.084   8.805  0.3599  0.3101 -1.2522
  877MOL0     O20891  10.401   7.018   8.925 -0.3285  0.1129  0.4380
  877MOL0     C20892  10.535   6.979   8.956  1.1560 -0.1439 -0.2625
  877MOL0     C20893  10.575   6.850   8.907  0.5263 -0.0593 -0.3168
  877MOL0     C20894  10.698   6.796   8.943  0.1667 -0.5901 -0.6998
  877MOL0     C20895  10.780   6.864   9.033 -0.0908  0.5940 -0.3650
  877MOL0     O20896  10.906   6.804   9.054 -0.6882  0.1150  0.5689
  877MOL0     C20897  11.003   6.889   9.132  0.1360  0.6115 -0.9647
  877MOL0     C20898  11.129   6.809   9.162  0.4528 -0.0726 -0.0039
  877MOL0     C20899  11.241   6.907   9.208 -0.5477  0.5946  0.4541
  877MOL0     C20900  11.381   6.837   9.203 -1.0524 -0.0363  0.1202
  877MOL0     C20901  11.484   6.946   9.242 -0.6588 -0.7993 -0.2814
  877MOL0     C20902  11.633   6.898   9.246  0.1382  0.1503  0.0557
  877MOL0     C20903  11.697   6.859   9.105  0.1412 -0.0039 -0.7644
  877MOL0     C20904  11.769   6.720   9.110  0.6859  0.2872  0.2097
  877MOL0     N20905  11.819   6.672   8.985 -0.8099  1.0243  0.3669
  877MOL0     C20906  11.950   6.703   8.948  0.1344 -0.0035 -0.2476
  877MOL0     C20907  11.951   6.659   8.824 -0.9390 -0.3325  0.3629
  877MOL0     C20908  12.064   6.667   8.732  0.0774 -0.5516 -0.1885
  877MOL0     C20909  12.148   6.547   8.753  0.1558 -0.2528 -0.2824
  877MOL0     C20910  12.237   6.560   8.870 -0.7212 -0.5323 -0.5613
  877MOL0     C20911  12.369   6.626   8.839 -0.9850 -0.3729  0.0378
  877MOL0     O20912  12.363   6.763   8.798  0.6114 -0.4659  0.6739
  877MOL0     C20913  12.448   6.799   8.695  0.4450  0.4412  0.2656
  877MOL0     C20914  12.418   6.785   8.561 -0.7126  0.2227 -0.2570
  877MOL0     C20915  12.512   6.809   8.459 -0.1228  0.4727 -0.5693
  877MOL0     C20916  12.464   6.782   8.312 -0.2678 -0.2032 -1.0339
  877MOL0     C20917  12.641   6.850   8.495 -0.5273 -0.3919  0.4031
  877MOL0     C20918  12.758   6.873   8.403 -0.3774 -0.5509  0.1738
  877MOL0     O20919  12.740   6.848   8.269 -0.4621 -0.1486 -0.0516
  877MOL0     C20920  12.852   6.846   8.196 -0.0364 -0.3683  0.7342
  877MOL0     C20921  12.913   6.730   8.137  0.2576 -0.5245  0.7902
  877MOL0     C20922  13.033   6.741   8.064  0.2775 -0.1085  0.8313
  877MOL0     C20923  13.085   6.875   8.031 -1.4260  0.8081  0.0476
  877MOL0     O20924  13.197   6.867   7.956 -0.3366  0.0289 -0.3239
  877MOL0     C20925  13.258   6.989   7.902 -0.0656  0.3130 -0.7736
  877MOL0     C20926  13.383   6.951   7.831 -0.7242  0.5004 -0.5875
  877MOL0     C20927  13.432   7.063   7.742 -0.6972 -0.8270  0.5054
  877MOL0     C20928  13.541   6.991   7.647  0.5062  0.2205  0.1794
  877MOL0     C20929  13.599   7.079   7.541  0.5027 -0.4402 -0.1928
  877MOL0     C20930  13.670   7.199   7.606 -0.3501 -1.4249  0.6210
  877MOL0     C20931  13.759   7.267   7.500  0.7780 -0.6009  0.0173
  877MOL0     C20932  13.822   7.400   7.554  0.2722 -0.4205 -0.6905
  877MOL0    Cl20933  13.966   7.445   7.466  0.0702  0.2589  0.1254
  877MOL0     C20934  13.030   6.989   8.096  0.1699 -0.2961  0.3337
  877MOL0     C20935  12.912   6.972   8.173 -0.1918 -0.2262 -0.2028
  877MOL0     O20936  12.868   6.903   8.450 -0.1208  0.0796 -0.0038
  877MOL0     C20937  12.663   6.875   8.634 -0.1171 -0.4966 -0.2123
  877MOL0     C20938  12.573   6.850   8.732  0.0775 -0.1004 -0.0617
  877MOL0     N20939  11.833   6.602   8.788  0.0548 -0.8637  0.3516
  877MOL0     N20940  11.747   6.613   8.885 -0.3303  0.0263  0.1056
  877MOL0     C20941  10.734   6.977   9.093  0.7139 -0.5998  0.3658
  877MOL0     C20942  10.609   7.036   9.058  1.2356 -0.9563  0.3187
  877MOL0     C20943  10.232   7.098   8.780 -0.9602 -0.5788 -0.4050
  877MOL0     C20944  10.137   7.032   8.858  0.4481  0.3998  0.1549
  877MOL0     C20945  10.000   7.059   8.854 -0.2928  0.3622  0.1218
  877MOL0     C20946   9.948   7.151   8.759  0.0427 -0.1584 -0.4440
  877MOL0     O20947   9.810   7.168   8.751  0.0057  0.0335 -0.0411
  877MOL0     C20948   9.756   7.247   8.640  0.1464 -0.2296 -0.6954
  877MOL0     C20949   9.602   7.229   8.636 -0.2253  0.3414 -0.5413
  877MOL0     C20950   9.543   7.268   8.771 -0.0295 -0.8275 -0.1297
  877MOL0     C20951   9.389   7.257   8.762  0.1844  0.8619  0.5014
  877MOL0     C20952   9.348   7.231   8.898  0.7942  0.1592  0.1518
  877MOL0     C20953   9.301   7.230   9.011  0.2011  0.8583 -0.0482
  877MOL0     C20954  10.039   7.220   8.677 -1.1018  0.1837 -0.3230
  877MOL0     C20955  10.175   7.195   8.685 -0.0172  1.0870 -0.4459
  877MOL0     C20956  10.261   7.297   8.613 -0.1665  0.3845 -0.3384
  877MOL0     H20957  10.508   6.784   8.853 -1.8316 -1.1168  3.5070
  877MOL0     H20958  10.724   6.695   8.915  0.7488 -0.8182  0.5739
  877MOL0     H20959  10.968   6.903   9.234 -0.1577  1.1002 -1.1341
  877MOL0     H20960  11.031   6.976   9.072 -0.8737  1.1512 -0.6748
  877MOL0     H20961  11.111   6.739   9.244  1.1899  2.1952  2.2296
  877MOL0     H20962  11.149   6.747   9.074  0.8987  0.1799 -0.0836
  877MOL0     H20963  11.251   6.996   9.145  1.6075  1.0150  1.2986
  877MOL0     H20964  11.225   6.947   9.308 -3.0936  1.9584 -0.4215
  877MOL0     H20965  11.385   6.761   9.283  0.0476  0.2401  0.3529
  877MOL0     H20966  11.392   6.776   9.113 -0.8664 -1.0871  0.8347
  877MOL0     H20967  11.465   6.996   9.337  0.8389 -0.2330 -0.2652
  877MOL0     H20968  11.484   7.021   9.162  2.3256 -0.5876 -0.1933
  877MOL0     H20969  11.686   6.985   9.287 -1.5734  0.1025  2.5863
  877MOL0     H20970  11.639   6.815   9.317 -0.9647 -0.3469 -0.4029
  877MOL0     H20971  11.773   6.930   9.072  3.4774 -2.1858  1.5993
  877MOL0     H20972  11.616   6.860   9.031  2.4373  2.5273 -3.4932
  877MOL0     H20973  11.854   6.722   9.178  0.3514  0.1189  0.6409
  877MOL0     H20974  11.691   6.645   9.129  1.9331 -1.5171 -1.4757
  877MOL0     H20975  12.032   6.753   8.999  0.0355 -0.2884  0.1888
  877MOL0     H20976  12.119   6.761   8.745  0.9378 -0.9711 -0.6565
  877MOL0     H20977  12.029   6.676   8.629  1.2486  0.7239 -0.5132
  877MOL0     H20978  12.085   6.458   8.765 -1.2843  0.7061 -0.5815
  877MOL0     H20979  12.206   6.542   8.660  0.8426  2.4284 -0.0669
  877MOL0     H20980  12.207   6.623   8.954  0.0036 -0.1966 -0.5447
  877MOL0     H20981  12.249   6.460   8.913 -0.0083  0.1206  0.8546
  877MOL0     H20982  12.432   6.622   8.928  2.3601  1.8428 -1.9714
  877MOL0     H20983  12.416   6.567   8.760 -2.2035 -2.0982  0.5538
  877MOL0     H20984  12.317   6.768   8.526 -1.5025  1.5554  1.2166
  877MOL0     H20985  12.521   6.704   8.260  1.8766 -0.0167  0.8774
  877MOL0     H20986  12.486   6.875   8.257 -0.8275  0.3394 -0.3488
  877MOL0     H20987  12.359   6.754   8.308 -0.8662  1.9759 -2.3445
  877MOL0     H20988  12.860   6.636   8.143 -2.0399  0.6304 -0.3821
  877MOL0     H20989  13.071   6.650   8.018  0.2162  1.5035 -2.7259
  877MOL0     H20990  13.182   7.028   7.833 -0.3770 -0.3071 -0.7902
  877MOL0     H20991  13.269   7.068   7.976 -0.9239  0.0554 -0.3620
  877MOL0     H20992  13.452   6.917   7.907  0.0043 -2.9329 -2.5673
  877MOL0     H20993  13.364   6.864   7.767 -0.0355  0.3792 -0.6311
  877MOL0     H20994  13.478   7.154   7.782  2.0379 -1.4152 -1.0373
  877MOL0     H20995  13.349   7.092   7.676 -0.5444  0.4682  0.8565
  877MOL0     H20996  13.511   6.896   7.602  0.5429  0.3181 -0.0531
  877MOL0     H20997  13.626   6.965   7.711 -0.5126  2.4773  2.6211
  877MOL0     H20998  13.668   7.032   7.470  0.4256  1.6994 -1.7655
  877MOL0     H20999  13.518   7.121   7.481  0.4479  1.5057  1.1674
  877MOL0     H21000  13.736   7.166   7.687  3.4724 -4.0732 -3.1643
  877MOL0     H21001  13.593   7.271   7.637  0.0954 -1.8897  2.9931
  877MOL0     H21002  13.695   7.294   7.416 -1.1088  0.9938  1.8362
  877MOL0     H21003  13.840   7.202   7.466 -2.0037 -2.5272 -3.5547
  877MOL0     H21004  13.864   7.391   7.655  2.3824  0.1412 -1.4527
  877MOL0     H21005  13.745   7.477   7.549  0.7726  0.0862 -0.7007
  877MOL0     H21006  13.081   7.084   8.105  2.0403 -1.4036  2.3834
  877MOL0     H21007  12.870   7.052   8.233  1.5761 -1.4300  2.8760
  877MOL0     H21008  12.761   6.920   8.647 -0.0672 -0.4032 -0.8485
  877MOL0     H21009  12.578   6.872   8.839 -4.1618 -0.8026  0.4511
  877MOL0     H21010  10.792   7.036   9.162  1.2615  1.0290 -1.3862
  877MOL0     H21011  10.564   7.123   9.104  2.2557 -1.1495  1.7502
  877MOL0     H21012  10.174   6.961   8.931  1.2612  0.6661  0.0177
  877MOL0     H21013   9.930   7.004   8.916 -0.5514 -0.0063 -0.4855
  877MOL0     H21014   9.783   7.350   8.666 -1.8382  0.6400 -1.8469
  877MOL0     H21015   9.800   7.224   8.543  0.4919 -0.7196 -0.4285
  877MOL0     H21016   9.574   7.125   8.617  0.3423 -0.5038  2.6884
  877MOL0     H21017   9.567   7.289   8.551 -0.5817 -1.1554 -1.4928
  877MOL0     H21018   9.582   7.193   8.840  1.2546 -0.5254 -0.5037
  877MOL0     H21019   9.574   7.368   8.804 -1.8323  0.3596 -1.8059
  877MOL0     H21020   9.360   7.167   8.707 -2.6620 -0.7860  4.2070
  877MOL0     H21021   9.334   7.344   8.725 -1.5799 -0.8779 -1.2446
  877MOL0     H21022   9.266   7.227   9.113  1.1600 -2.9375  0.3375
  877MOL0     H21023   9.995   7.293   8.609 -0.6250  1.3669  0.5916
  877MOL0     H21024  10.334   7.259   8.541  0.5182  0.5281  0.2679
  877MOL0     H21025  10.196   7.362   8.555  1.3091  1.9630 -0.3177
  877MOL0     H21026  10.312   7.362   8.685 -0.7437  0.7032 -0.2071
  878MOL0     O21027   2.918   3.320   1.492  0.7114  0.4576  0.2475
  878MOL0     C21028   2.826   3.349   1.417  0.1041 -0.5041 -0.1638
  878MOL0     O21029   2.851   3.414   1.303  0.5254 -0.7805 -0.1451
  878MOL0     C21030   2.981   3.434   1.258  0.7830  0.1303 -1.0459
  878MOL0     C21031   3.043   3.368   1.150  0.1345  0.2947 -0.3128
  878MOL0     C21032   3.179   3.376   1.109  0.9065 -0.5412 -0.6952
  878MOL0     C21033   3.258   3.457   1.194 -0.2987 -0.5190 -0.0974
  878MOL0     O21034   3.390   3.476   1.173  0.2860  0.0318  0.3172
  878MOL0     C21035   3.463   3.437   1.050  0.2217 -0.7363  0.0811
  878MOL0     C21036   3.597   3.372   1.105 -0.2507 -0.3686  0.3985
  878MOL0     C21037   3.680   3.333   0.982  0.0759  0.5076  0.5364
  878MOL0     C21038   3.620   3.238   0.872  0.4852  0.2950 -0.8343
  878MOL0     C21039   3.574   3.101   0.927  0.4381 -0.1981 -0.3721
  878MOL0     C21040   3.692   3.028   0.989  0.6924 -0.0594 -0.0703
  878MOL0     C21041   3.793   2.990   0.875 -0.4400  1.0437  0.4711
  878MOL0     C21042   3.828   2.855   0.828 -0.6211 -0.7374  0.6565
  878MOL0     N21043   3.897   2.776   0.927  0.1607  0.1487 -0.6743
  878MOL0     C21044   4.032   2.777   0.954 -0.5739  0.5813 -0.2643
  878MOL0     C21045   4.049   2.717   1.070 -0.0974 -0.3234 -0.1033
  878MOL0     C21046   4.180   2.680   1.133 -0.1012  0.0316 -0.1242
  878MOL0     C21047   4.232   2.537   1.095  0.3667  0.3156 -0.2619
  878MOL0     C21048   4.291   2.547   0.951 -0.5817  0.3858 -0.7700
  878MOL0     C21049   4.371   2.423   0.910 -0.1346  0.6159 -0.1734
  878MOL0     O21050   4.407   2.425   0.770 -0.4682  1.0828 -0.3215
  878MOL0     C21051   4.474   2.312   0.723 -0.4925 -0.1516  0.5247
  878MOL0     C21052   4.527   2.317   0.593 -0.6310  0.2619  0.1349
  878MOL0     C21053   4.589   2.208   0.525  0.4090 -0.4807 -0.1076
  878MOL0     C21054   4.620   2.218   0.381 -0.3382  0.1330 -0.2217
  878MOL0     C21055   4.610   2.090   0.605  0.2331 -0.9058  0.1857
  878MOL0     C21056   4.682   1.970   0.553 -0.0193 -0.6580 -0.1613
  878MOL0     O21057   4.731   1.883   0.649  0.3491  0.1560  0.3172
  878MOL0     C21058   4.801   1.769   0.610  0.0405 -0.4327 -0.0391
  878MOL0     C21059   4.857   1.731   0.480  0.5874 -0.3307 -0.5462
  878MOL0     C21060   4.934   1.604   0.465  0.4358 -0.4028 -0.2609
  878MOL0     C21061   4.956   1.520   0.577 -0.1870 -0.1763  0.8012
  878MOL0     O21062   5.034   1.411   0.560  0.0290  0.6015  0.0887
  878MOL0     C21063   5.161   1.399   0.625 -0.8378  0.2979  0.2093
  878MOL0     C21064   5.248   1.295   0.548  0.1536 -0.1931 -0.4201
  878MOL0     C21065   5.215   1.155   0.585  0.7212 -0.3181  0.2172
  878MOL0     C21066   5.275   1.049   0.495 -0.5004  0.1363  0.2700
  878MOL0     C21067   5.182   0.930   0.473  0.1182 -0.5784 -0.3342
  878MOL0     C21068   5.262   0.811   0.419  0.2117  0.3057 -0.0211
  878MOL0     C21069   5.160   0.704   0.383  0.2382 -0.1328  0.4135
  878MOL0     C21070   5.204   0.574   0.439 -0.3099 -0.4577 -0.0119
  878MOL0    Cl21071   5.227   0.588   0.621 -0.5824 -0.0030  0.2329
  878MOL0     C21072   4.913   1.562   0.703  0.1800 -0.2479  0.9753
  878MOL0     C21073   4.821   1.675   0.715 -0.4508  0.4106  0.2052
  878MOL0     O21074   4.688   1.956   0.431  0.9705  0.3877  0.1576
  878MOL0     C21075   4.565   2.084   0.735 -0.0403 -0.4782 -0.2276
  878MOL0     C21076   4.504   2.194   0.794 -0.6964 -0.3983 -0.4251
  878MOL0     N21077   3.922   2.674   1.105 -0.2743  0.4249 -0.4649
  878MOL0     N21078   3.828   2.713   1.019  0.5599 -0.0372  0.2722
  878MOL0     C21079   3.199   3.539   1.295 -0.3513  0.0864 -0.6123
  878MOL0     C21080   3.060   3.524   1.325 -0.4805 -0.2282 -0.1188
  878MOL0     C21081   2.682   3.309   1.450  0.5060  0.2491  0.1423
  878MOL0     C21082   2.574   3.323   1.351  0.0358 -0.1143 -1.2090
  878MOL0     C21083   2.437   3.275   1.370 -0.0144  0.1299 -0.1353
  878MOL0     C21084   2.414   3.202   1.486  0.0133 -0.7025 -0.2059
  878MOL0     O21085   2.290   3.137   1.517 -0.5685 -0.0758  0.2352
  878MOL0     C21086   2.182   3.153   1.419  0.1169  0.1660  0.5722
  878MOL0     C21087   2.101   3.292   1.429 -0.7747  0.6508 -0.6240
  878MOL0     C21088   2.040   3.318   1.566 -0.2378  0.2053 -1.0402
  878MOL0     C21089   1.921   3.418   1.560  0.4936  0.2103  0.5945
  878MOL0     C21090   1.939   3.522   1.657 -0.8039  0.6453 -0.9210
  878MOL0     C21091   1.937   3.617   1.734  0.0762  0.5106 -0.4406
  878MOL0     C21092   2.513   3.193   1.587 -0.0552 -0.5307 -0.2259
  878MOL0     C21093   2.647   3.240   1.566  0.5064 -0.3823 -0.5739
  878MOL0     C21094   2.729   3.231   1.685 -0.4520 -0.1855 -0.2050
  878MOL0     H21095   2.975   3.311   1.087  2.4780 -1.0780 -1.7199
  878MOL0     H21096   3.217   3.327   1.020  0.0446 -2.1320 -0.2470
  878MOL0     H21097   3.484   3.520   0.983  0.7831  2.2926  3.6665
  878MOL0     H21098   3.417   3.357   0.991  1.0241  0.1788 -1.8624
  878MOL0     H21099   3.659   3.440   1.163 -0.0429 -0.3022  0.0952
  878MOL0     H21100   3.574   3.282   1.163  0.7144 -1.9109 -1.4846
  878MOL0     H21101   3.702   3.422   0.922 -1.1194  0.4483 -0.0011
  878MOL0     H21102   3.776   3.288   1.012  1.4602  2.2898 -0.9845
  878MOL0     H21103   3.538   3.291   0.822 -0.9248  0.4483  1.4923
  878MOL0     H21104   3.700   3.225   0.798  0.9171 -4.9139  0.1614
  878MOL0     H21105   3.531   3.039   0.847  3.0603  0.0513 -2.0897
  878MOL0     H21106   3.497   3.121   1.002  0.0969  1.0870 -1.0326
  878MOL0     H21107   3.735   3.094   1.065 -0.9160  0.3121  0.5472
  878MOL0     H21108   3.652   2.935   1.029  1.8025 -0.0224  1.1858
  878MOL0     H21109   3.883   3.049   0.893  0.8855 -0.6370 -0.3995
  878MOL0     H21110   3.751   3.020   0.779  1.2294  0.4254 -0.5065
  878MOL0     H21111   3.737   2.796   0.816 -2.8782  1.8232  3.4730
  878MOL0     H21112   3.886   2.865   0.736  0.3718  0.9320  1.4046
  878MOL0     H21113   4.116   2.803   0.890 -0.7578  1.0646 -0.3112
  878MOL0     H21114   4.160   2.672   1.241 -0.4321  1.7985 -0.0167
  878MOL0     H21115   4.257   2.754   1.113 -1.0287  1.2587  0.6572
  878MOL0     H21116   4.306   2.495   1.164 -0.7451 -1.6447 -0.1868
  878MOL0     H21117   4.145   2.470   1.095  0.1377  0.5804 -1.6873
  878MOL0     H21118   4.205   2.555   0.883  0.7579  0.0040 -2.5717
  878MOL0     H21119   4.365   2.627   0.944  0.7709 -0.8885 -1.5222
  878MOL0     H21120   4.462   2.419   0.971 -0.2852  2.6846  0.2522
  878MOL0     H21121   4.306   2.336   0.925  1.4873 -1.4989 -4.0820
  878MOL0     H21122   4.526   2.413   0.541 -0.3435  1.2164  1.8353
  878MOL0     H21123   4.583   2.308   0.332 -0.6662 -0.2378 -0.6635
  878MOL0     H21124   4.578   2.130   0.331 -0.0828 -0.5819  0.7651
  878MOL0     H21125   4.729   2.218   0.374 -0.3447  3.3647 -2.0182
  878MOL0     H21126   4.858   1.804   0.400  0.9587 -1.3546 -1.4978
  878MOL0     H21127   4.981   1.589   0.368 -4.8860  0.9131 -3.4670
  878MOL0     H21128   5.215   1.494   0.622  2.3454 -1.3642  0.1547
  878MOL0     H21129   5.145   1.368   0.728 -2.0632  1.6464  0.4486
  878MOL0     H21130   5.220   1.310   0.444  0.8948  1.8361 -0.3773
  878MOL0     H21131   5.356   1.304   0.566 -0.0299  2.3415 -0.3157
  878MOL0     H21132   5.105   1.148   0.583  0.6819 -0.3596  1.4856
  878MOL0     H21133   5.245   1.137   0.689  1.8825  0.6931  0.0712
  878MOL0     H21134   5.360   1.008   0.550 -0.7365  0.9461  1.2724
  878MOL0     H21135   5.304   1.092   0.398 -1.0603 -1.5088 -0.6655
  878MOL0     H21136   5.135   0.889   0.563 -1.2001 -0.6772 -1.0506
  878MOL0     H21137   5.114   0.966   0.396 -0.1262  2.1692  1.0306
  878MOL0     H21138   5.333   0.774   0.493 -0.6854  0.9108  1.1914
  878MOL0     H21139   5.330   0.840   0.339  1.1504  0.3599  0.7771
  878MOL0     H21140   5.153   0.701   0.274  2.1097  1.3955  0.1935
  878MOL0     H21141   5.059   0.728   0.419  0.1607 -0.0269  0.1290
  878MOL0     H21142   5.301   0.559   0.391  0.1032  3.1566 -0.5867
  878MOL0     H21143   5.134   0.490   0.432 -0.5088 -0.6008  2.7004
  878MOL0     H21144   4.946   1.500   0.786  1.4592  0.6171  1.1282
  878MOL0     H21145   4.779   1.701   0.811  2.5263 -0.6138  1.9337
  878MOL0     H21146   4.570   1.994   0.796  2.8840  0.1305  0.5778
  878MOL0     H21147   4.469   2.178   0.896  1.5721 -2.0072  0.1852
  878MOL0     H21148   3.264   3.610   1.346 -1.8304  1.2151 -0.2430
  878MOL0     H21149   3.015   3.588   1.400 -1.7308 -1.0108 -0.1587
  878MOL0     H21150   2.595   3.365   1.254 -0.6353  1.5937 -0.6534
  878MOL0     H21151   2.364   3.299   1.293  1.1437  2.3584 -0.6332
  878MOL0     H21152   2.229   3.152   1.321  0.3634 -0.0541  0.6924
  878MOL0     H21153   2.108   3.073   1.429 -1.0984  1.3696  1.7028
  878MOL0     H21154   2.018   3.291   1.358 -2.8422  0.4872  1.6280
  878MOL0     H21155   2.170   3.373   1.404  0.8724 -0.3171  0.6123
  878MOL0     H21156   2.006   3.225   1.612  0.8664 -0.1748 -0.9589
  878MOL0     H21157   2.121   3.358   1.627 -2.8511  2.7695  1.0429
  878MOL0     H21158   1.827   3.363   1.573 -0.1963  1.4525  0.9700
  878MOL0     H21159   1.921   3.450   1.456  0.0282 -0.8995  0.2345
  878MOL0     H21160   1.916   3.701   1.797 -3.3179  1.1952 -2.2548
  878MOL0     H21161   2.489   3.140   1.679 -0.0407  0.1171  0.1504
  878MOL0     H21162   2.789   3.139   1.678  0.1117  0.1419  0.2100
  878MOL0     H21163   2.781   3.327   1.688 -2.4808  1.0607 -2.2442
  878MOL0     H21164   2.674   3.233   1.779  3.4893 -2.4887  2.4816
  879MOL0     O21165   5.446   9.428  11.242  0.2293  0.4684  0.5348
  879MOL0     C21166   5.372   9.475  11.157 -0.2875 -0.0336 -0.9218
  879MOL0     O21167   5.396   9.458  11.026 -0.1480  0.1762 -0.5186
  879MOL0     C21168   5.460   9.339  10.987  0.3770 -0.4167 -0.0086
  879MOL0     C21169   5.566   9.367  10.899 -0.5906  0.2542  0.7952
  879MOL0     C21170   5.645   9.258  10.846 -0.4053  0.1999  1.0467
  879MOL0     C21171   5.599   9.130  10.884 -0.1089 -0.1197  1.1874
  879MOL0     O21172   5.686   9.028  10.831  0.4100  0.0038  0.5708
  879MOL0     C21173   5.702   8.907  10.915 -0.2238  0.4208 -0.3580
  879MOL0     C21174   5.846   8.868  10.877  0.7544  0.1030  0.4902
  879MOL0     C21175   5.957   8.937  10.956 -0.2989 -0.3146  0.0812
  879MOL0     C21176   6.087   8.876  10.934 -0.0981 -0.1269  0.4740
  879MOL0     C21177   6.188   8.945  11.025  1.2839 -0.5276 -0.1188
  879MOL0     C21178   6.325   8.899  10.974 -0.0185  0.7933  0.0344
  879MOL0     C21179   6.428   8.939  11.083 -0.2517 -0.5865 -0.7645
  879MOL0     C21180   6.549   8.855  11.066  1.3499  0.4974  0.3835
  879MOL0     N21181   6.662   8.894  11.148 -0.2122  0.4246  0.1081
  879MOL0     C21182   6.737   9.009  11.135  0.1524  0.3691  0.4785
  879MOL0     C21183   6.815   9.008  11.248 -0.5276 -0.2169 -0.3018
  879MOL0     C21184   6.935   9.092  11.272 -0.0429 -0.3915  0.5182
  879MOL0     C21185   7.040   9.031  11.357  0.1856  1.2993  0.1818
  879MOL0     C21186   7.170   9.126  11.374 -0.9145  1.0637  0.0566
  879MOL0     C21187   7.294   9.058  11.443  0.1482  0.6149  0.3148
  879MOL0     O21188   7.257   9.005  11.569 -0.9997  0.9045  0.4776
  879MOL0     C21189   7.359   8.952  11.652  0.7080 -0.2304 -0.1463
  879MOL0     C21190   7.496   8.954  11.622  0.3952  0.3930 -0.0399
  879MOL0     C21191   7.585   8.900  11.713  0.4897  0.4712 -0.2361
  879MOL0     C21192   7.734   8.909  11.673  0.7645  0.1150  0.3366
  879MOL0     C21193   7.538   8.846  11.835 -0.9024 -0.0586  0.7992
  879MOL0     C21194   7.637   8.794  11.926 -0.7968 -0.0370  0.7358
  879MOL0     O21195   7.619   8.834  12.054 -0.5138 -0.2252  0.0549
  879MOL0     C21196   7.710   8.806  12.149 -0.5390 -0.5183 -0.5532
  879MOL0     C21197   7.681   8.729  12.258  0.2368 -0.5049  0.5152
  879MOL0     C21198   7.774   8.715  12.357 -0.3621 -0.3308  0.1783
  879MOL0     C21199   7.899   8.764  12.343  0.1542  0.8904 -0.6071
  879MOL0     O21200   7.997   8.718  12.434  0.4391 -0.4254  0.2370
  879MOL0     C21201   8.122   8.799  12.452 -0.3695  0.4548 -0.1672
  879MOL0     C21202   8.163   8.810  12.606 -1.0209  0.0631  1.7825
  879MOL0     C21203   8.126   8.680  12.685  0.5215  1.3130  0.2804
  879MOL0     C21204   7.980   8.665  12.729  0.1857 -0.3598  1.4312
  879MOL0     C21205   7.962   8.529  12.802  0.2630  0.1116  0.7003
  879MOL0     C21206   7.809   8.509  12.822  0.1064 -0.9407 -0.5893
  879MOL0     C21207   7.752   8.614  12.922  0.1118 -0.3990  0.0322
  879MOL0     C21208   7.606   8.588  12.966  0.3867 -0.0780 -1.0463
  879MOL0    Cl21209   7.547   8.434  13.044  0.0389 -0.1521 -0.4803
  879MOL0     C21210   7.928   8.853  12.236 -0.3508 -0.3355  0.1430
  879MOL0     C21211   7.832   8.870  12.137  0.6153 -0.3154  0.1825
  879MOL0     O21212   7.723   8.708  11.887 -0.4047 -0.3486 -0.5935
  879MOL0     C21213   7.401   8.851  11.872 -0.0865 -0.2181  0.1259
  879MOL0     C21214   7.314   8.895  11.777 -0.7509 -0.8164 -0.9335
  879MOL0     N21215   6.784   8.901  11.326 -0.0268 -0.0671  0.1224
  879MOL0     N21216   6.699   8.830  11.259  0.0137  0.9290  1.0099
  879MOL0     C21217   5.489   9.104  10.967  0.3766 -0.2097 -0.5758
  879MOL0     C21218   5.412   9.212  11.010 -0.1726  0.2621 -0.5771
  879MOL0     C21219   5.257   9.556  11.208 -0.1222 -0.5266 -0.4584
  879MOL0     C21220   5.170   9.483  11.287  0.2029  0.0164 -0.2630
  879MOL0     C21221   5.055   9.547  11.345 -0.1771 -0.2625  0.4713
  879MOL0     C21222   5.019   9.680  11.303  0.5196 -0.4284 -0.4519
  879MOL0     O21223   4.898   9.726  11.341  0.1613 -0.2622 -0.4069
  879MOL0     C21224   4.785   9.699  11.259  0.3861  0.6442  0.4491
  879MOL0     C21225   4.759   9.815  11.156 -0.5703  0.2088  0.2794
  879MOL0     C21226   4.719   9.939  11.234 -0.1185 -0.9697  0.0199
  879MOL0     C21227   4.662  10.046  11.128 -0.2838  0.4568 -0.8103
  879MOL0     C21228   4.613  10.161  11.209 -0.4198 -0.4910 -0.7100
  879MOL0     C21229   4.554  10.245  11.280 -0.0297  0.7261  0.7863
  879MOL0     C21230   5.103   9.745  11.209 -0.8102 -0.2383 -0.0095
  879MOL0     C21231   5.229   9.693  11.162  0.0279  0.4062 -0.6860
  879MOL0     C21232   5.318   9.792  11.083 -0.1318 -0.3403 -0.0309
  879MOL0     H21233   5.613   9.465  10.894  1.7423 -0.7981  0.5618
  879MOL0     H21234   5.725   9.266  10.773 -0.2785  1.5596  1.3114
  879MOL0     H21235   5.636   8.828  10.879  1.4045 -0.1759 -2.2330
  879MOL0     H21236   5.698   8.931  11.022 -0.8634 -1.7589  0.1640
  879MOL0     H21237   5.854   8.763  10.904 -2.4426 -0.4608 -0.3310
  879MOL0     H21238   5.859   8.888  10.770 -2.9555 -1.6271 -0.4278
  879MOL0     H21239   5.946   9.042  10.931 -1.8207 -0.3517  0.5142
  879MOL0     H21240   5.939   8.914  11.062  0.1757  2.3044  0.7931
  879MOL0     H21241   6.095   8.771  10.967  0.4976 -0.4923 -0.7838
  879MOL0     H21242   6.118   8.884  10.830 -1.2474 -0.4712  0.0870
  879MOL0     H21243   6.172   8.908  11.127 -1.1818 -0.1650 -0.2954
  879MOL0     H21244   6.173   9.052  11.038 -0.9736 -0.8341  0.3846
  879MOL0     H21245   6.328   8.790  10.981  3.2850  0.8700  3.3569
  879MOL0     H21246   6.349   8.940  10.876 -0.0820 -1.9180 -1.1955
  879MOL0     H21247   6.383   8.926  11.182 -0.4986 -1.5951 -0.9903
  879MOL0     H21248   6.459   9.043  11.070 -0.0024 -0.8625 -2.6261
  879MOL0     H21249   6.539   8.746  11.072  2.0518  0.4398  0.6525
  879MOL0     H21250   6.575   8.876  10.962  0.9975 -2.7941 -0.4896
  879MOL0     H21251   6.748   9.073  11.048 -0.4720  1.8710  1.4555
  879MOL0     H21252   6.908   9.185  11.323  4.0871  1.8766 -1.0069
  879MOL0     H21253   6.977   9.122  11.176 -2.7915  1.9288 -0.0872
  879MOL0     H21254   7.003   9.012  11.459 -1.6023 -0.3141 -0.6869
  879MOL0     H21255   7.070   8.936  11.312  0.1488  1.5142 -0.3063
  879MOL0     H21256   7.193   9.164  11.273  0.2066  2.3624  0.7664
  879MOL0     H21257   7.154   9.219  11.430 -3.1768  1.6588 -1.4463
  879MOL0     H21258   7.323   8.978  11.375  2.0851 -0.7637  2.5977
  879MOL0     H21259   7.379   9.127  11.451  3.0402 -2.4388 -1.6048
  879MOL0     H21260   7.526   8.990  11.524  0.1018  0.1153 -0.2352
  879MOL0     H21261   7.754   8.957  11.577  2.0231  0.4911  0.7657
  879MOL0     H21262   7.784   8.812  11.669  2.1294  0.8083 -0.1340
  879MOL0     H21263   7.788   8.957  11.756 -0.0451  1.4699  0.1048
  879MOL0     H21264   7.580   8.689  12.265 -0.5630  1.7279  3.3524
  879MOL0     H21265   7.740   8.657  12.442  2.3516 -1.0023  0.8982
  879MOL0     H21266   8.206   8.767  12.390  0.2777 -1.7378  1.6939
  879MOL0     H21267   8.116   8.902  12.417  0.5095  0.0145 -1.7047
  879MOL0     H21268   8.272   8.812  12.601 -1.0883  0.3844 -0.1221
  879MOL0     H21269   8.116   8.899  12.649 -1.0031  0.0780  1.7714
  879MOL0     H21270   8.188   8.677  12.775  1.5196  1.0547 -0.3920
  879MOL0     H21271   8.152   8.597  12.619  2.6164  2.5727 -0.5771
  879MOL0     H21272   7.914   8.693  12.646  2.4069  0.8815 -0.0151
  879MOL0     H21273   7.978   8.750  12.797  0.6621  0.2015  0.7499
  879MOL0     H21274   7.991   8.448  12.734  1.3632  2.3714 -1.7201
  879MOL0     H21275   8.028   8.521  12.889 -0.5678  1.0831  1.4412
  879MOL0     H21276   7.779   8.406  12.842  1.7673 -1.6383 -1.4366
  879MOL0     H21277   7.764   8.538  12.727 -3.2137  1.4388  1.4747
  879MOL0     H21278   7.769   8.709  12.871  1.3447 -0.5461  0.1363
  879MOL0     H21279   7.810   8.619  13.015  1.1200  1.2341 -0.6546
  879MOL0     H21280   7.541   8.614  12.882 -0.8304  2.9621  0.6826
  879MOL0     H21281   7.589   8.657  13.049  3.1030 -1.6754  1.0048
  879MOL0     H21282   8.024   8.898  12.212 -0.7214  1.3847  1.6448
  879MOL0     H21283   7.863   8.932  12.054 -1.6617  1.3141  0.4599
  879MOL0     H21284   7.370   8.810  11.968 -0.1329  0.9862  0.6307
  879MOL0     H21285   7.208   8.891  11.799 -1.3034  2.7603 -2.2278
  879MOL0     H21286   5.450   9.006  10.992 -0.6179  0.8421  2.3457
  879MOL0     H21287   5.329   9.187  11.075  1.6108 -3.4098  0.5706
  879MOL0     H21288   5.186   9.381  11.319 -1.3747 -0.7786 -1.8395
  879MOL0     H21289   4.985   9.491  11.405  0.3709  0.9021  2.2968
  879MOL0     H21290   4.796   9.609  11.198 -0.3621  1.2834 -0.6684
  879MOL0     H21291   4.693   9.675  11.313 -0.2377 -0.8345 -1.1436
  879MOL0     H21292   4.680   9.779  11.091  0.9910 -3.3984  0.1197
  879MOL0     H21293   4.843   9.844  11.092 -0.1495  2.1367  1.5891
  879MOL0     H21294   4.646   9.912  11.311 -0.0609 -2.7284 -0.5123
  879MOL0     H21295   4.804   9.997  11.273 -2.4097  2.6381  0.1899
  879MOL0     H21296   4.576  10.000  11.079  0.6228  0.6521 -2.6520
  879MOL0     H21297   4.731  10.077  11.049 -1.1775  0.4452 -1.6141
  879MOL0     H21298   4.495  10.316  11.335  2.0394  2.9370  0.3422
  879MOL0     H21299   5.066   9.845  11.189  1.1722  0.4352 -0.5106
  879MOL0     H21300   5.260   9.857  11.017  1.2597  0.0635 -0.8840
  879MOL0     H21301   5.366   9.866  11.147  0.4183  0.1893 -1.0379
  879MOL0     H21302   5.394   9.744  11.022 -1.7147  1.9569 -4.1885
  880MOL0     O21303   0.462   9.991   6.117 -0.3816 -0.0018 -0.5840
  880MOL0     C21304   0.492   9.995   6.244  0.9709 -0.1221  0.3246
  880MOL0     O21305   0.606  10.045   6.296 -0.3584 -0.3811 -0.1022
  880MOL0     C21306   0.696  10.102   6.224 -0.3775 -0.9154  1.5288
  880MOL0     C21307   0.735  10.058   6.090  0.1538  0.3614  0.6515
  880MOL0     C21308   0.831  10.126   6.014 -0.2858 -0.7800 -0.6710
  880MOL0     C21309   0.879  10.250   6.051  0.8237  0.1827  0.0836
  880MOL0     O21310   0.956  10.337   5.971 -0.4239 -0.4288 -0.3559
  880MOL0     C21311   1.021  10.297   5.853  0.9073  0.7379  0.1586
  880MOL0     C21312   0.917  10.299   5.732 -0.3960 -0.5590 -0.2207
  880MOL0     C21313   0.961  10.396   5.615  0.2467 -0.1005  1.3390
  880MOL0     C21314   0.970  10.550   5.660 -0.2161 -0.7064  0.5014
  880MOL0     C21315   1.030  10.649   5.552  0.0894  0.0268 -0.5795
  880MOL0     C21316   1.031  10.788   5.619 -0.6699 -0.7562  0.2202
  880MOL0     C21317   1.110  10.886   5.549  0.8778  0.0764  1.2121
  880MOL0     C21318   1.062  10.907   5.402 -0.5520  0.4297 -0.6188
  880MOL0     N21319   1.158  11.007   5.337 -0.2596  0.7796  0.2719
  880MOL0     C21320   1.181  11.132   5.389 -0.4635 -0.0007  0.0215
  880MOL0     C21321   1.249  11.200   5.299 -0.3966 -0.0605 -0.4191
  880MOL0     C21322   1.302  11.337   5.314  0.5313  0.3432  0.7130
  880MOL0     C21323   1.455  11.342   5.327  0.4149  0.5848  0.5914
  880MOL0     C21324   1.523  11.325   5.196  0.1219  0.1156 -1.0853
  880MOL0     C21325   1.673  11.324   5.215  0.2279 -0.1646  0.6625
  880MOL0     O21326   1.741  11.342   5.095  0.1323 -0.4907 -0.2478
  880MOL0     C21327   1.875  11.376   5.087  0.9451  0.0852 -0.2678
  880MOL0     C21328   1.963  11.347   5.186  0.5842 -0.3835  0.1823
  880MOL0     C21329   2.098  11.380   5.184  0.0579 -0.1230 -0.2998
  880MOL0     C21330   2.183  11.355   5.302 -0.9341  0.2331 -0.7550
  880MOL0     C21331   2.149  11.453   5.076 -0.2570 -0.6205  0.3500
  880MOL0     C21332   2.291  11.495   5.055 -1.1890 -0.2093  0.0224
  880MOL0     O21333   2.315  11.624   5.030  0.2778  0.1056  0.0311
  880MOL0     C21334   2.438  11.683   5.046  0.2726 -0.7842  0.1831
  880MOL0     C21335   2.473  11.779   4.944 -0.0987 -0.3868 -0.1927
  880MOL0     C21336   2.604  11.816   4.946 -0.6096 -0.6105  0.5843
  880MOL0     C21337   2.687  11.791   5.054  0.5572  1.1378  0.9959
  880MOL0     O21338   2.818  11.805   5.056 -0.0255 -0.5273 -0.2052
  880MOL0     C21339   2.872  11.898   4.961 -0.1227 -0.2685  0.2991
  880MOL0     C21340   3.026  11.914   4.997 -0.9877  0.6261 -0.3914
  880MOL0     C21341   3.068  12.064   5.008  0.0739  0.8686 -0.0331
  880MOL0     C21342   3.213  12.068   5.061 -0.0309  0.4644 -0.6043
  880MOL0     C21343   3.244  12.204   5.115 -0.1628 -0.0510 -0.2937
  880MOL0     C21344   3.392  12.195   5.174 -0.1122 -0.6068  0.6986
  880MOL0     C21345   3.423  12.110   5.292  0.9688  0.7626 -0.3384
  880MOL0     C21346   3.541  12.173   5.370  0.6390  0.4579  0.8711
  880MOL0    Cl21347   3.689  12.207   5.263  0.1999 -0.0315 -0.3405
  880MOL0     C21348   2.644  11.717   5.157  0.5963 -0.3282  0.2783
  880MOL0     C21349   2.521  11.654   5.152  0.5432 -0.1291  0.1353
  880MOL0     O21350   2.380  11.405   5.062 -0.1123 -0.2180  0.5532
  880MOL0     C21351   2.063  11.485   4.967  0.1064 -0.1948 -0.6328
  880MOL0     C21352   1.922  11.444   4.977 -0.8023 -1.0382 -0.6512
  880MOL0     N21353   1.271  11.107   5.197  0.3657 -0.2405  0.0665
  880MOL0     N21354   1.210  10.996   5.213 -0.1333  0.6661 -0.2429
  880MOL0     C21355   0.837  10.295   6.182 -0.4963  0.0761 -0.2326
  880MOL0     C21356   0.760  10.218   6.270 -0.3154  0.6811  0.7099
  880MOL0     C21357   0.384   9.970   6.345  0.1824  0.0795 -0.6260
  880MOL0     C21358   0.369  10.059   6.457 -0.2664 -0.2564  0.1610
  880MOL0     C21359   0.271  10.043   6.552 -0.2091  0.4485  0.1304
  880MOL0     C21360   0.185   9.939   6.543 -0.3702  0.3276  0.4064
  880MOL0     O21361   0.080   9.904   6.624  0.0078 -0.7330 -0.2886
  880MOL0     C21362  -0.009  10.007   6.674 -0.1695  0.7538 -1.0169
  880MOL0     C21363  -0.085  10.098   6.573  0.3215 -0.3819 -0.4801
  880MOL0     C21364  -0.178  10.018   6.484 -0.5767  0.1212 -0.0356
  880MOL0     C21365  -0.277   9.929   6.562  0.4969 -0.3091 -0.9024
  880MOL0     C21366  -0.401   9.919   6.490  0.4191 -0.9786  0.1755
  880MOL0     C21367  -0.511   9.903   6.438  0.4103  0.8073  0.8101
  880MOL0     C21368   0.196   9.855   6.432  0.1797  0.0302 -0.0882
  880MOL0     C21369   0.288   9.871   6.328  0.1247  0.7914  0.1989
  880MOL0     C21370   0.313   9.752   6.228 -0.7224 -0.5280 -0.4127
  880MOL0     H21371   0.689   9.971   6.044 -1.0552  0.8230  0.9318
  880MOL0     H21372   0.874  10.086   5.923 -3.2833 -1.9112 -1.7019
  880MOL0     H21373   1.066  10.198   5.863  0.6615  0.4773 -1.0618
  880MOL0     H21374   1.100  10.371   5.840  2.1499 -0.5271  0.3068
  880MOL0     H21375   0.895  10.200   5.690 -0.0010 -0.0149 -1.7930
  880MOL0     H21376   0.822  10.337   5.773 -1.2164 -0.0351 -2.4345
  880MOL0     H21377   1.058  10.359   5.580 -0.2335  1.8935 -2.5530
  880MOL0     H21378   0.896  10.394   5.528  2.5000  0.2076 -0.4398
  880MOL0     H21379   0.865  10.576   5.672  0.1038  1.3237 -0.6344
  880MOL0     H21380   1.020  10.549   5.758 -1.2380  1.4216  1.0986
  880MOL0     H21381   0.963  10.641   5.466 -0.6336  4.3041 -0.6435
  880MOL0     H21382   1.125  10.606   5.518 -0.8525 -1.3521 -1.5563
  880MOL0     H21383   0.926  10.816   5.637 -0.6192 -2.0199  3.1916
  880MOL0     H21384   1.071  10.781   5.721 -1.7727 -0.5320  0.6905
  880MOL0     H21385   1.213  10.850   5.546 -0.0041 -2.7146  0.6531
  880MOL0     H21386   1.108  10.983   5.599 -1.3773  0.5897  0.2621
  880MOL0     H21387   1.080  10.811   5.352  0.0336 -0.1752  0.7079
  880MOL0     H21388   0.960  10.944   5.388 -1.7033 -1.5073  1.8285
  880MOL0     H21389   1.141  11.161   5.486  1.3755  0.4293  0.7027
  880MOL0     H21390   1.245  11.367   5.403 -1.7359 -1.0235 -0.1957
  880MOL0     H21391   1.271  11.380   5.219  2.6352 -1.6259 -0.9522
  880MOL0     H21392   1.480  11.439   5.373  0.7238 -0.5597  2.9938
  880MOL0     H21393   1.480  11.266   5.401  1.1252 -2.6108 -2.6400
  880MOL0     H21394   1.497  11.225   5.159  0.5205 -0.0081 -1.0445
  880MOL0     H21395   1.498  11.405   5.126 -2.3111  1.4425  1.1144
  880MOL0     H21396   1.704  11.405   5.282  1.5081 -0.9326  1.0334
  880MOL0     H21397   1.714  11.231   5.257  0.5764 -0.3645 -0.1045
  880MOL0     H21398   1.925  11.291   5.271  1.0921  0.0539  0.7047
  880MOL0     H21399   2.140  11.394   5.395  1.6998  1.2742  0.1297
  880MOL0     H21400   2.281  11.404   5.296 -0.7952  0.0485 -0.0898
  880MOL0     H21401   2.195  11.247   5.304 -3.3184 -0.0900 -0.3787
  880MOL0     H21402   2.409  11.807   4.861 -1.1454 -1.4939  0.2104
  880MOL0     H21403   2.629  11.890   4.870 -1.9871  0.3527  1.0103
  880MOL0     H21404   2.863  11.869   4.855 -2.0770  2.0901 -0.2700
  880MOL0     H21405   2.823  11.995   4.971 -0.9268 -0.5830 -0.4264
  880MOL0     H21406   3.057  11.861   5.088  0.2364 -1.7075 -2.0478
  880MOL0     H21407   3.065  11.850   4.917  0.0069 -0.1238  0.6560
  880MOL0     H21408   3.009  12.114   5.085  1.2756  2.5920 -0.1830
  880MOL0     H21409   3.058  12.126   4.919 -2.9092  0.0001 -0.4248
  880MOL0     H21410   3.286  12.041   4.985 -1.3743  1.2158 -2.2239
  880MOL0     H21411   3.218  12.003   5.149  1.2165 -2.4048 -2.6359
  880MOL0     H21412   3.241  12.281   5.037  1.6766  0.6193  0.2525
  880MOL0     H21413   3.177  12.223   5.198  0.3573 -2.7425  0.8434
  880MOL0     H21414   3.411  12.302   5.186 -0.8794 -0.7234  3.6610
  880MOL0     H21415   3.460  12.173   5.091 -2.4944 -0.6107 -1.3370
  880MOL0     H21416   3.451  12.009   5.259  2.0154  1.6447 -2.3109
  880MOL0     H21417   3.346  12.093   5.368 -0.0081  0.5137 -1.3683
  880MOL0     H21418   3.563  12.113   5.459 -0.2924  0.2605  0.9784
  880MOL0     H21419   3.508  12.272   5.402  0.1163  0.3787  0.5913
  880MOL0     H21420   2.707  11.697   5.242  1.7588  0.8403 -0.2752
  880MOL0     H21421   2.498  11.588   5.235 -0.5212  0.9403  0.7339
  880MOL0     H21422   2.090  11.550   4.884 -1.5092  0.9791 -0.2986
  880MOL0     H21423   1.861  11.472   4.891  1.0137 -2.1499 -2.3953
  880MOL0     H21424   0.883  10.390   6.205  1.2571  0.0651 -3.2199
  880MOL0     H21425   0.743  10.242   6.374  2.4098 -2.0625  1.9336
  880MOL0     H21426   0.433  10.145   6.475 -3.5607  2.6195 -0.8337
  880MOL0     H21427   0.264  10.109   6.638 -0.0695 -0.8374  1.1544
  880MOL0     H21428  -0.085   9.967   6.742 -0.2992  0.3038 -1.4245
  880MOL0     H21429   0.055  10.065   6.742 -1.5658  0.5515  0.5414
  880MOL0     H21430  -0.013  10.153   6.512 -0.7386 -0.6624 -2.0777
  880MOL0     H21431  -0.135  10.184   6.620  1.2599  1.4793 -2.6794
  880MOL0     H21432  -0.232  10.085   6.417 -1.2942 -1.6983 -1.3823
  880MOL0     H21433  -0.112   9.950   6.428 -1.3339 -0.1341 -0.6425
  880MOL0     H21434  -0.303   9.979   6.656 -2.6459 -2.9264 -0.1907
  880MOL0     H21435  -0.247   9.828   6.588  0.8078  0.5064  2.3330
  880MOL0     H21436  -0.603   9.879   6.390  1.3964 -1.6019 -0.0435
  880MOL0     H21437   0.125   9.775   6.416 -0.7933  0.9172 -0.2829
  880MOL0     H21438   0.290   9.793   6.129  0.9288  2.7622  0.4442
  880MOL0     H21439   0.417   9.719   6.222 -1.2319 -2.8635  1.6785
  880MOL0     H21440   0.254   9.663   6.252 -1.0186 -0.0509  0.6412
  881MOL0     O21441   1.537   2.903   5.567 -0.4069 -0.0448  0.2753
  881MOL0     C21442   1.429   2.849   5.547 -0.3784 -0.5504 -1.2845
  881MOL0     O21443   1.365   2.778   5.642 -0.4058  0.4824  0.5002
  881MOL0     C21444   1.408   2.790   5.773  0.7852 -0.4718  0.1794
  881MOL0     C21445   1.330   2.863   5.865 -0.0697 -0.1003 -0.2304
  881MOL0     C21446   1.366   2.888   5.996 -0.0819  0.0623  0.9104
  881MOL0     C21447   1.477   2.825   6.050 -0.5687  0.4324  0.4473
  881MOL0     O21448   1.507   2.849   6.192  0.3484  0.3827  0.0680
  881MOL0     C21449   1.639   2.805   6.227 -0.2489  1.1372 -0.5183
  881MOL0     C21450   1.653   2.787   6.377 -0.3238 -0.2720 -0.3788
  881MOL0     C21451   1.627   2.921   6.448 -0.8591 -0.3463 -0.0336
  881MOL0     C21452   1.755   3.015   6.438 -0.5302  0.6679  0.6396
  881MOL0     C21453   1.885   2.970   6.506 -0.2175 -0.0446 -0.5691
  881MOL0     C21454   1.902   2.983   6.648  0.2213 -1.6893 -0.6915
  881MOL0     C21455   2.042   2.941   6.688 -0.4050 -0.2007 -0.0428
  881MOL0     C21456   2.077   2.791   6.685 -0.3940  0.8059 -0.0824
  881MOL0     N21457   2.197   2.768   6.749  0.8360 -0.1139 -0.6271
  881MOL0     C21458   2.317   2.796   6.694  0.0364 -0.5961 -0.8558
  881MOL0     C21459   2.404   2.795   6.799 -0.1028 -0.1587 -0.1589
  881MOL0     C21460   2.555   2.804   6.777  0.8034 -0.0716  0.4849
  881MOL0     C21461   2.620   2.853   6.904  0.1119 -0.0897 -0.6391
  881MOL0     C21462   2.756   2.910   6.873 -0.5922 -0.3332 -0.0458
  881MOL0     C21463   2.831   2.969   6.991  0.8776 -0.1787  0.3989
  881MOL0     O21464   2.939   3.053   6.948 -0.3693  0.0233 -0.0048
  881MOL0     C21465   3.061   3.002   6.904 -0.1509  0.3399 -0.5624
  881MOL0     C21466   3.095   2.871   6.907  0.2951  0.6475 -0.9060
  881MOL0     C21467   3.225   2.826   6.885  0.2334  0.3911 -0.5208
  881MOL0     C21468   3.242   2.676   6.865 -0.7202  0.2345  0.2469
  881MOL0     C21469   3.330   2.921   6.859  0.5700 -0.2791  1.1184
  881MOL0     C21470   3.471   2.891   6.814 -0.7647 -0.1608  0.6107
  881MOL0     O21471   3.533   2.983   6.725  0.7835  0.2974  0.0159
  881MOL0     C21472   3.646   2.947   6.665 -0.1732 -0.2326 -0.3482
  881MOL0     C21473   3.763   2.971   6.734  0.5106  0.1750 -0.3797
  881MOL0     C21474   3.884   2.942   6.673  0.2945  0.1819  0.7495
  881MOL0     C21475   3.894   2.891   6.543 -0.1139 -0.4490 -1.0912
  881MOL0     O21476   4.023   2.871   6.497 -0.9674  0.1823  0.7974
  881MOL0     C21477   4.069   2.735   6.484 -1.1199 -0.5394 -0.6082
  881MOL0     C21478   4.220   2.758   6.489 -1.6268  0.7488 -0.0682
  881MOL0     C21479   4.310   2.626   6.492  0.0340 -0.5439  0.6761
  881MOL0     C21480   4.439   2.649   6.575 -0.0770 -0.1288 -0.7190
  881MOL0     C21481   4.516   2.781   6.545  0.4155  0.1162 -0.3782
  881MOL0     C21482   4.556   2.799   6.399 -0.9828 -0.5970  0.2311
  881MOL0     C21483   4.620   2.932   6.362 -0.1745 -0.2912 -0.9363
  881MOL0     C21484   4.662   2.924   6.214  0.5365 -0.3974 -0.0874
  881MOL0    Cl21485   4.731   3.087   6.175  0.1292 -0.4331  0.1220
  881MOL0     C21486   3.779   2.869   6.470  0.3008  0.0831  0.0070
  881MOL0     C21487   3.648   2.895   6.533 -0.7873 -0.2253 -0.6068
  881MOL0     O21488   3.523   2.787   6.860 -0.4763  0.1256 -0.3880
  881MOL0     C21489   3.286   3.056   6.857 -0.1737 -0.1886  0.1686
  881MOL0     C21490   3.160   3.092   6.874 -0.1450 -0.8042  0.1400
  881MOL0     N21491   2.333   2.749   6.901 -0.3876  0.5059  0.2585
  881MOL0     N21492   2.210   2.753   6.881 -0.4353  0.2003 -1.1004
  881MOL0     C21493   1.567   2.763   5.961  0.7816 -0.2774 -0.4897
  881MOL0     C21494   1.535   2.736   5.825  0.5974 -0.1779  0.2255
  881MOL0     C21495   1.351   2.883   5.423 -0.6533 -0.7053  0.5412
  881MOL0     C21496   1.215   2.860   5.429 -0.1328 -0.1324  0.6148
  881MOL0     C21497   1.128   2.886   5.327 -1.0148 -0.9199  0.2342
  881MOL0     C21498   1.185   2.913   5.202 -0.3090  0.2566  0.3780
  881MOL0     O21499   1.127   2.933   5.082 -0.2527 -0.1288  0.0663
  881MOL0     C21500   0.984   2.925   5.062 -0.5668 -0.2904 -0.5807
  881MOL0     C21501   0.942   2.787   5.026 -0.3814 -0.0691 -0.2706
  881MOL0     C21502   0.788   2.779   5.029 -0.7261 -0.7075  0.6138
  881MOL0     C21503   0.727   2.671   4.941  0.1084  0.3244  0.9789
  881MOL0     C21504   0.596   2.638   4.970  0.9568  0.1544  0.1596
  881MOL0     C21505   0.486   2.604   5.018  0.6052  0.5540 -0.3566
  881MOL0     C21506   1.321   2.945   5.190  0.3688  0.5211 -0.1869
  881MOL0     C21507   1.405   2.930   5.302  0.2296 -0.0871  0.0394
  881MOL0     C21508   1.554   2.978   5.287 -0.6866 -0.2453  0.2297
  881MOL0     H21509   1.242   2.910   5.821 -1.4006 -2.5978 -0.3856
  881MOL0     H21510   1.299   2.944   6.060 -0.4974  0.0789  0.4715
  881MOL0     H21511   1.727   2.863   6.196  1.0514 -0.1260  0.6582
  881MOL0     H21512   1.656   2.707   6.183  1.0318  1.9347 -1.9230
  881MOL0     H21513   1.573   2.717   6.406 -0.5566  0.3527  0.5345
  881MOL0     H21514   1.748   2.745   6.409 -0.2041 -3.3395 -4.0462
  881MOL0     H21515   1.540   2.977   6.412  0.2427  1.8780  0.5381
  881MOL0     H21516   1.610   2.894   6.553 -2.7162  0.6837 -0.0282
  881MOL0     H21517   1.769   3.024   6.330 -3.0402 -2.9767 -0.1837
  881MOL0     H21518   1.726   3.116   6.470 -0.5824  1.3451 -1.3862
  881MOL0     H21519   1.966   3.023   6.455  0.2483 -2.7929 -2.9852
  881MOL0     H21520   1.905   2.865   6.481 -1.9319 -0.2021 -1.4415
  881MOL0     H21521   1.880   3.088   6.668 -1.0188 -1.7408 -1.6790
  881MOL0     H21522   1.832   2.934   6.717  2.3536 -2.5505  0.9840
  881MOL0     H21523   2.061   2.968   6.792 -0.5688 -2.7783  0.7333
  881MOL0     H21524   2.115   2.996   6.627 -0.1006 -1.0880 -0.4921
  881MOL0     H21525   2.004   2.728   6.736 -0.2784  0.9280  0.2364
  881MOL0     H21526   2.090   2.756   6.582  1.0328  0.4409  0.1940
  881MOL0     H21527   2.345   2.811   6.590  0.4799 -1.6936 -0.9145
  881MOL0     H21528   2.564   2.884   6.704 -0.9353  0.0957  0.4139
  881MOL0     H21529   2.597   2.710   6.738 -0.1455 -0.4400  0.3190
  881MOL0     H21530   2.556   2.934   6.940 -0.9326 -1.0147 -0.3455
  881MOL0     H21531   2.616   2.777   6.983  1.1617  2.5014  2.0719
  881MOL0     H21532   2.824   2.840   6.823  2.0881  3.1896 -1.7458
  881MOL0     H21533   2.739   2.992   6.802  2.8852 -0.1967 -0.8927
  881MOL0     H21534   2.766   3.032   7.051  1.2180  0.0483  0.5327
  881MOL0     H21535   2.852   2.889   7.062 -4.4078 -1.7488  0.6446
  881MOL0     H21536   3.025   2.788   6.919 -1.4087  1.4904 -3.8567
  881MOL0     H21537   3.151   2.618   6.881 -0.4321  0.3216  2.4130
  881MOL0     H21538   3.318   2.638   6.934  1.1354 -0.3648 -1.9914
  881MOL0     H21539   3.279   2.652   6.764  4.0188 -1.2380  2.0549
  881MOL0     H21540   3.739   3.015   6.831 -2.7208 -1.3318 -0.3759
  881MOL0     H21541   3.970   2.976   6.729  0.9954 -1.0326  0.4299
  881MOL0     H21542   4.037   2.673   6.568 -1.0478 -0.0857 -0.2372
  881MOL0     H21543   4.037   2.685   6.392 -1.9200 -2.8711  0.8610
  881MOL0     H21544   4.242   2.821   6.403 -1.9253  3.3372  1.6313
  881MOL0     H21545   4.235   2.813   6.582  0.7282 -0.3371  0.2505
  881MOL0     H21546   4.331   2.601   6.387 -1.6850  0.6792 -0.0113
  881MOL0     H21547   4.251   2.541   6.525  1.5592 -1.7259  0.4897
  881MOL0     H21548   4.504   2.562   6.562  1.8402  1.3156 -1.2173
  881MOL0     H21549   4.399   2.646   6.677 -0.2230 -0.9481 -0.7896
  881MOL0     H21550   4.442   2.858   6.566 -2.8805 -3.4818  2.6117
  881MOL0     H21551   4.597   2.805   6.615 -0.0251  0.7136 -0.0730
  881MOL0     H21552   4.471   2.784   6.332 -1.7669  0.9380  0.8442
  881MOL0     H21553   4.632   2.724   6.374 -1.3220  0.0661 -3.2694
  881MOL0     H21554   4.705   2.948   6.429 -3.0228 -1.0267  3.2306
  881MOL0     H21555   4.548   3.013   6.374  2.2662  1.5746  3.4043
  881MOL0     H21556   4.572   2.902   6.155 -0.5809 -0.5612  1.6124
  881MOL0     H21557   4.737   2.846   6.202 -0.1584 -0.8512 -2.0051
  881MOL0     H21558   3.798   2.819   6.376 -0.1464 -2.4984  1.1916
  881MOL0     H21559   3.553   2.856   6.499 -1.5304  0.8974  0.0833
  881MOL0     H21560   3.367   3.127   6.844  0.5609 -0.8477  0.9809
  881MOL0     H21561   3.120   3.191   6.857 -5.0105 -2.4871  0.2233
  881MOL0     H21562   1.669   2.735   5.985  0.8608  0.5031  0.1028
  881MOL0     H21563   1.608   2.687   5.761  0.7953  0.4944 -0.0713
  881MOL0     H21564   1.170   2.843   5.526 -5.0383  2.5636 -0.8431
  881MOL0     H21565   1.021   2.878   5.346 -0.8348  1.9887  3.3724
  881MOL0     H21566   0.936   2.972   5.148 -0.1596  2.0716 -1.5482
  881MOL0     H21567   0.980   2.977   4.965  1.7683 -1.5989 -1.4742
  881MOL0     H21568   0.984   2.711   5.094  2.8350  2.4854  0.8662
  881MOL0     H21569   0.974   2.773   4.923 -0.1283 -0.4092 -0.1492
  881MOL0     H21570   0.756   2.779   5.134 -0.0891  2.6057  0.8926
  881MOL0     H21571   0.755   2.877   4.995  0.5435 -0.8731 -1.2847
  881MOL0     H21572   0.784   2.578   4.949  1.4188  0.8213 -1.5429
  881MOL0     H21573   0.724   2.701   4.835 -0.3150 -2.3712  0.1679
  881MOL0     H21574   0.402   2.578   5.077  2.4191 -0.9332  1.7266
  881MOL0     H21575   1.359   2.971   5.092 -1.0528 -0.9825 -1.1855
  881MOL0     H21576   1.625   2.896   5.300 -1.4929 -1.0312 -0.2219
  881MOL0     H21577   1.573   3.016   5.186 -0.0275  0.2356  0.5257
  881MOL0     H21578   1.581   3.048   5.367  1.4523 -2.6591  1.7656
  882MOL0     O21579   7.116   1.426  10.639  0.6143  0.3613 -0.2139
  882MOL0     C21580   7.043   1.422  10.734 -0.2349 -0.4138 -0.3242
  882MOL0     O21581   7.080   1.426  10.865 -0.2912  0.0568 -0.7435
  882MOL0     C21582   7.213   1.408  10.904 -0.1826  0.3125 -0.1134
  882MOL0     C21583   7.237   1.447  11.036  0.5659 -0.3174  0.1259
  882MOL0     C21584   7.358   1.440  11.096 -0.3287 -1.0817  0.9516
  882MOL0     C21585   7.471   1.399  11.016  0.7337 -0.7372 -0.4702
  882MOL0     O21586   7.597   1.389  11.088  0.4874 -0.6653  0.2875
  882MOL0     C21587   7.706   1.456  11.032 -0.0754  0.2234 -0.6638
  882MOL0     C21588   7.837   1.373  11.038  0.4928  0.4971 -0.5480
  882MOL0     C21589   7.954   1.471  11.008 -0.3337 -0.5765 -0.4487
  882MOL0     C21590   8.087   1.402  10.987 -0.2831  0.5450 -0.4214
  882MOL0     C21591   8.204   1.494  11.024 -0.5371 -0.4830  0.6212
  882MOL0     C21592   8.329   1.445  10.973  0.1242 -0.0824 -0.0490
  882MOL0     C21593   8.339   1.472  10.821  0.2182 -0.2404  0.4750
  882MOL0     C21594   8.492   1.462  10.784  0.0760 -0.2413  0.0267
  882MOL0     N21595   8.505   1.433  10.640 -0.1542  0.2596 -0.2543
  882MOL0     C21596   8.525   1.309  10.592 -0.8047  0.8887  0.6201
  882MOL0     C21597   8.535   1.331  10.464 -0.3619  1.6298  0.0184
  882MOL0     C21598   8.546   1.222  10.350  0.0273 -0.1292 -1.1285
  882MOL0     C21599   8.675   1.138  10.353  0.1758  0.5068 -0.8009
  882MOL0     C21600   8.798   1.209  10.325 -0.0704  0.3708  0.4675
  882MOL0     C21601   8.929   1.130  10.334  0.3570  0.1867 -0.0545
  882MOL0     O21602   8.955   1.079  10.199  0.2651 -0.8674 -0.2420
  882MOL0     C21603   9.070   1.010  10.169  0.4575 -0.3553 -0.6923
  882MOL0     C21604   9.107   1.001  10.032 -0.2901  0.4785 -0.1043
  882MOL0     C21605   9.230   0.936   9.996 -0.8403 -0.1404 -0.1532
  882MOL0     C21606   9.258   0.925   9.850 -1.0775  0.2193  0.4730
  882MOL0     C21607   9.307   0.877  10.095 -0.0180  0.5918 -0.5787
  882MOL0     C21608   9.427   0.807  10.054  0.9236 -0.3739  0.6655
  882MOL0     O21609   9.528   0.867  10.099  0.6147  0.6237 -0.0296
  882MOL0     C21610   9.653   0.816  10.065 -0.3440 -0.0276 -1.1748
  882MOL0     C21611   9.702   0.696  10.132  0.0260 -0.9753  0.2215
  882MOL0     C21612   9.837   0.661  10.103  0.2504  0.3427  0.8039
  882MOL0     C21613   9.922   0.744  10.020 -0.3170  1.0317 -0.2790
  882MOL0     O21614  10.046   0.697  10.005  0.6682 -0.5917 -0.6870
  882MOL0     C21615  10.144   0.772   9.939  0.1413 -0.3118  0.6640
  882MOL0     C21616  10.263   0.673   9.965 -0.0076  0.3498 -0.1661
  882MOL0     C21617  10.399   0.735   9.936  0.0987  1.0797  0.0195
  882MOL0     C21618  10.507   0.631   9.951  0.7101  1.2891 -0.2628
  882MOL0     C21619  10.642   0.680   9.901  0.1603  0.2732 -0.1135
  882MOL0     C21620  10.723   0.781   9.991  0.6577  0.3191  0.1123
  882MOL0     C21621  10.862   0.804   9.919 -0.5048  0.1352 -0.7671
  882MOL0     C21622  10.962   0.688   9.920  0.6903 -0.4998 -0.5519
  882MOL0    Cl21623  11.110   0.752   9.845 -0.0326  0.0871  0.1207
  882MOL0     C21624   9.870   0.870   9.979 -0.8526 -0.3045  0.0154
  882MOL0     C21625   9.736   0.909  10.009  0.4888  0.0566  0.4928
  882MOL0     O21626   9.419   0.706   9.981 -0.3504 -0.5983 -0.1063
  882MOL0     C21627   9.263   0.874  10.228  0.1111  0.1424 -0.6115
  882MOL0     C21628   9.145   0.943  10.272  0.7136 -0.3920  0.5159
  882MOL0     N21629   8.541   1.465  10.435  0.8887 -0.4348 -0.3653
  882MOL0     N21630   8.507   1.526  10.543 -0.2307  0.2712  0.3692
  882MOL0     C21631   7.453   1.351  10.883 -0.0665 -1.1086 -0.4564
  882MOL0     C21632   7.323   1.349  10.836 -0.4669  0.0720 -0.1839
  882MOL0     C21633   6.896   1.454  10.716 -0.5337 -0.1040 -0.2876
  882MOL0     C21634   6.831   1.535  10.808  0.1222 -0.2994 -0.1277
  882MOL0     C21635   6.699   1.561  10.790 -0.6259 -0.3303  0.4256
  882MOL0     C21636   6.626   1.521  10.669  0.0425  0.3423 -0.3506
  882MOL0     O21637   6.492   1.555  10.639  0.2905 -0.2376  0.1125
  882MOL0     C21638   6.426   1.649  10.722 -0.5018  0.0659  0.2271
  882MOL0     C21639   6.306   1.697  10.651  0.3920 -0.7065  0.4806
  882MOL0     C21640   6.205   1.773  10.740  0.5837  0.1795  0.7942
  882MOL0     C21641   6.099   1.848  10.674 -0.4621  0.0896  0.0081
  882MOL0     C21642   6.137   1.989  10.648 -0.3540  0.0572 -0.1201
  882MOL0     C21643   6.160   2.104  10.616  0.4952  0.4760 -0.0612
  882MOL0     C21644   6.695   1.444  10.577  0.3796 -0.0231 -0.4526
  882MOL0     C21645   6.830   1.412  10.597  0.0184  0.2269 -0.4109
  882MOL0     C21646   6.900   1.325  10.502 -0.5960  1.0245 -0.3217
  882MOL0     H21647   7.150   1.494  11.081  2.1829  1.4840  1.5598
  882MOL0     H21648   7.366   1.482  11.196  0.7422  1.0725  0.0387
  882MOL0     H21649   7.724   1.551  11.084  2.6374 -0.0369 -1.0238
  882MOL0     H21650   7.675   1.465  10.927  0.2945 -1.0136 -0.8957
  882MOL0     H21651   7.855   1.338  11.140  1.0953  1.4162 -0.3275
  882MOL0     H21652   7.834   1.289  10.968  1.5166  1.3397 -1.6566
  882MOL0     H21653   7.930   1.535  10.922  2.1786  0.1035 -0.7187
  882MOL0     H21654   7.980   1.535  11.093  1.7168 -1.1024 -0.6293
  882MOL0     H21655   8.096   1.314  11.052 -0.1096  3.0861  3.3110
  882MOL0     H21656   8.094   1.380  10.880  2.2923  1.3049 -0.4878
  882MOL0     H21657   8.210   1.502  11.133 -1.2753 -1.1344  0.7179
  882MOL0     H21658   8.191   1.597  10.992 -0.6639 -0.2531  1.4052
  882MOL0     H21659   8.403   1.499  11.032  0.6544  0.8108 -1.4757
  882MOL0     H21660   8.337   1.337  10.983  0.6383 -0.0950 -0.5846
  882MOL0     H21661   8.302   1.569  10.786  1.8116  0.0077 -0.5758
  882MOL0     H21662   8.292   1.384  10.777 -2.5196 -0.0549  2.6868
  882MOL0     H21663   8.537   1.557  10.813 -2.9487  0.8734  1.4978
  882MOL0     H21664   8.531   1.380  10.846 -0.9706  0.6616  1.9826
  882MOL0     H21665   8.528   1.212  10.642  0.2034 -0.2674 -1.5383
  882MOL0     H21666   8.531   1.274  10.255  0.2585 -1.7560 -2.1023
  882MOL0     H21667   8.473   1.140  10.353  2.5335 -2.5099 -1.0691
  882MOL0     H21668   8.689   1.111  10.458  2.3748  0.9725 -0.9284
  882MOL0     H21669   8.666   1.046  10.295  2.8722 -0.0286 -0.5236
  882MOL0     H21670   8.804   1.249  10.224  1.1362 -1.9791 -0.4604
  882MOL0     H21671   8.797   1.300  10.386  1.1301  2.7017 -2.7390
  882MOL0     H21672   9.007   1.202  10.359  0.7163 -0.1196 -0.2832
  882MOL0     H21673   8.938   1.054  10.413  1.6986  0.2321 -0.1495
  882MOL0     H21674   9.049   1.049   9.953  1.2835  2.2700 -0.2500
  882MOL0     H21675   9.231   0.823   9.820 -0.1784  0.0906  0.0534
  882MOL0     H21676   9.360   0.950   9.819 -0.8182 -3.2528 -2.0413
  882MOL0     H21677   9.206   1.004   9.795  1.7884  1.1346 -1.1998
  882MOL0     H21678   9.634   0.634  10.190  0.9820 -2.7258 -0.4385
  882MOL0     H21679   9.870   0.565  10.140  1.5686  0.8084  0.8924
  882MOL0     H21680  10.117   0.780   9.834 -3.7959  0.0251  1.5556
  882MOL0     H21681  10.173   0.869   9.980 -0.6047  0.5670 -0.8348
  882MOL0     H21682  10.273   0.636  10.068  1.3032 -0.6153 -0.6126
  882MOL0     H21683  10.238   0.589   9.901 -1.1929 -0.7759  1.6817
  882MOL0     H21684  10.416   0.818  10.006  1.4270 -0.2726  1.3742
  882MOL0     H21685  10.392   0.775   9.834  2.1584  1.2711 -0.0819
  882MOL0     H21686  10.476   0.541   9.895  0.2118  0.1691  1.7189
  882MOL0     H21687  10.516   0.593  10.053  1.9224  0.8009 -0.5402
  882MOL0     H21688  10.703   0.589   9.899 -0.9109 -0.5557  1.8050
  882MOL0     H21689  10.647   0.716   9.798 -1.1165  1.2677  0.1499
  882MOL0     H21690  10.742   0.744  10.092  0.8732 -3.3754 -1.1432
  882MOL0     H21691  10.658   0.869  10.004 -3.7849 -2.7751  1.2082
  882MOL0     H21692  10.911   0.886   9.973 -1.4879 -1.7117  3.4034
  882MOL0     H21693  10.842   0.819   9.813  1.9733 -1.3295 -1.5164
  882MOL0     H21694  10.931   0.597   9.866  2.3317 -1.4560  0.0666
  882MOL0     H21695  10.982   0.658  10.023 -2.1450 -0.3356  0.1424
  882MOL0     H21696   9.930   0.942   9.924 -1.2235  1.4861  1.8238
  882MOL0     H21697   9.688   1.004   9.988  0.9450 -0.0678 -1.2087
  882MOL0     H21698   9.302   0.819  10.313 -2.3089 -0.5748  0.1305
  882MOL0     H21699   9.113   0.946  10.376 -2.1188 -0.1498 -0.2627
  882MOL0     H21700   7.535   1.297  10.836  0.9658 -0.9688  1.1224
  882MOL0     H21701   7.293   1.299  10.745 -1.6901 -1.0935  0.8147
  882MOL0     H21702   6.884   1.572  10.895 -0.9892 -0.4448  0.6273
  882MOL0     H21703   6.643   1.618  10.863 -1.9111 -2.9506  1.6337
  882MOL0     H21704   6.394   1.595  10.811 -1.1266 -0.6556 -0.4188
  882MOL0     H21705   6.487   1.735  10.752 -2.4698  1.2680  0.9970
  882MOL0     H21706   6.255   1.609  10.611  0.9940  0.0251 -2.1091
  882MOL0     H21707   6.320   1.761  10.563 -3.6066 -0.3331 -0.0948
  882MOL0     H21708   6.168   1.708  10.821 -2.4791  1.8850  0.9113
  882MOL0     H21709   6.260   1.843  10.804 -0.1048  2.2290 -0.7533
  882MOL0     H21710   6.026   1.856  10.755  0.5780 -1.0099  1.0919
  882MOL0     H21711   6.049   1.808  10.585 -0.3797  2.4477 -1.1822
  882MOL0     H21712   6.169   2.208  10.595 -2.8427  1.4192  2.2583
  882MOL0     H21713   6.649   1.422  10.482 -0.5114  1.0927 -0.2932
  882MOL0     H21714   6.956   1.246  10.554  0.7273  0.8558 -1.8999
  882MOL0     H21715   6.831   1.272  10.436 -0.4961  2.2880 -1.4888
  882MOL0     H21716   6.973   1.381  10.443  0.8784 -0.1866  0.2842
  883MOL0     O21717   8.725   2.230   6.435 -0.2276 -0.1075 -0.6461
  883MOL0     C21718   8.685   2.306   6.520 -0.0536 -0.0475 -0.2405
  883MOL0     O21719   8.761   2.336   6.635 -0.1781 -0.5457 -0.5546
  883MOL0     C21720   8.890   2.292   6.644 -0.9403  0.0505 -0.8669
  883MOL0     C21721   8.919   2.171   6.706 -0.0327  0.7513  0.6557
  883MOL0     C21722   9.053   2.128   6.712  0.1783  0.7465 -0.2093
  883MOL0     C21723   9.153   2.198   6.646 -0.1489  0.0688  0.1910
  883MOL0     O21724   9.287   2.162   6.660  0.9949 -0.7131  0.0842
  883MOL0     C21725   9.316   2.026   6.640  0.0657 -0.2969  0.8185
  883MOL0     C21726   9.447   2.004   6.566  0.0325  0.0281 -0.3894
  883MOL0     C21727   9.557   2.064   6.662  0.0164  0.0119  0.1560
  883MOL0     C21728   9.699   2.028   6.609 -0.4126 -0.3163 -0.0542
  883MOL0     C21729   9.811   2.102   6.684  0.1861  0.2783 -0.0558
  883MOL0     C21730   9.823   2.057   6.829  0.1981  0.6685  0.5586
  883MOL0     C21731   9.948   2.120   6.899 -0.4572  0.3515 -0.0136
  883MOL0     C21732   9.916   2.268   6.936  0.4197 -0.2272  0.6897
  883MOL0     N21733  10.043   2.344   6.974 -0.9470  0.2780  0.0748
  883MOL0     C21734  10.145   2.384   6.876  0.6998  0.5016 -1.0119
  883MOL0     C21735  10.239   2.436   6.956 -0.5051  0.3861 -0.3777
  883MOL0     C21736  10.368   2.474   6.900 -0.2557 -0.8059 -0.7906
  883MOL0     C21737  10.370   2.631   6.876 -0.1480 -0.1410 -0.4807
  883MOL0     C21738  10.484   2.687   6.794 -0.3286 -0.0986  0.0223
  883MOL0     C21739  10.617   2.667   6.862  0.8471 -0.2466 -0.7849
  883MOL0     O21740  10.651   2.528   6.831 -0.7526  0.1320 -0.1648
  883MOL0     C21741  10.768   2.465   6.880 -0.1734  0.6216 -0.4102
  883MOL0     C21742  10.769   2.327   6.895 -0.2951  0.2729  0.6377
  883MOL0     C21743  10.879   2.259   6.946  0.1947  0.3964 -0.1610
  883MOL0     C21744  10.877   2.101   6.946  0.1932  0.0230  0.1291
  883MOL0     C21745  10.988   2.340   6.995  0.7567  0.2587  0.8117
  883MOL0     C21746  11.103   2.264   7.058 -0.3506 -0.0753  0.0624
  883MOL0     O21747  11.227   2.316   7.037 -0.0982 -0.1474  1.0579
  883MOL0     C21748  11.334   2.234   7.000 -0.5694 -0.0385  0.2450
  883MOL0     C21749  11.451   2.297   6.958  0.1859 -0.0881  0.0819
  883MOL0     C21750  11.563   2.240   6.905 -0.2095 -0.2948  0.0973
  883MOL0     C21751  11.572   2.101   6.905  0.3338 -1.0939  0.9359
  883MOL0     O21752  11.684   2.034   6.875 -0.7459  0.6816 -0.4863
  883MOL0     C21753  11.796   2.096   6.803  0.2363 -0.2350 -0.1443
  883MOL0     C21754  11.904   2.157   6.900 -0.5758 -0.7639 -0.1594
  883MOL0     C21755  12.035   2.196   6.838 -0.4349  0.1943 -0.1916
  883MOL0     C21756  12.131   2.084   6.802 -0.1944  0.0835 -0.6438
  883MOL0     C21757  12.254   2.143   6.741 -0.0753 -0.5539 -0.1403
  883MOL0     C21758  12.350   2.026   6.677  0.3121 -0.6764  0.6394
  883MOL0     C21759  12.300   1.975   6.545 -0.2024 -0.8204 -0.1625
  883MOL0     C21760  12.393   1.880   6.474 -0.2157  0.3875  0.6045
  883MOL0    Cl21761  12.434   1.721   6.560 -0.2864 -0.4877  0.1675
  883MOL0     C21762  11.455   2.030   6.943  0.7357  0.1295  0.4155
  883MOL0     C21763  11.335   2.095   6.987 -0.3637  0.5718  0.0684
  883MOL0     O21764  11.085   2.166   7.140  0.0390 -0.7560  0.4838
  883MOL0     C21765  10.985   2.478   6.970  1.4331 -0.2817 -0.1244
  883MOL0     C21766  10.873   2.543   6.928  0.8161 -0.5997  0.2313
  883MOL0     N21767  10.200   2.430   7.088  0.6700  0.4966 -0.2667
  883MOL0     N21768  10.081   2.382   7.100  0.3635 -0.2636 -1.2481
  883MOL0     C21769   9.130   2.319   6.576  0.1214  0.1295 -0.4293
  883MOL0     C21770   8.996   2.361   6.575  0.8340  0.0121  0.2292
  883MOL0     C21771   8.547   2.336   6.512  0.8403 -0.6205  0.7881
  883MOL0     C21772   8.478   2.348   6.635 -0.6507 -0.2656 -0.3225
  883MOL0     C21773   8.336   2.351   6.640 -0.3147  0.1751  0.5007
  883MOL0     C21774   8.255   2.348   6.527 -0.2316 -0.2718  0.0530
  883MOL0     O21775   8.122   2.329   6.541 -0.9609  0.7497  0.3864
  883MOL0     C21776   8.034   2.328   6.425  0.8258  0.3883  0.3050
  883MOL0     C21777   7.901   2.295   6.468  0.2753  0.4082 -0.0989
  883MOL0     C21778   7.788   2.323   6.372  0.6025  0.2183  0.6787
  883MOL0     C21779   7.644   2.318   6.417  0.1762  0.6125 -0.8484
  883MOL0     C21780   7.556   2.397   6.335 -0.6498 -0.9503  0.4878
  883MOL0     C21781   7.485   2.457   6.255  0.2258  0.1531 -0.1720
  883MOL0     C21782   8.321   2.354   6.405 -0.9107  0.1556 -0.5933
  883MOL0     C21783   8.465   2.352   6.393  0.3916 -0.4864  1.0454
  883MOL0     C21784   8.530   2.352   6.257 -0.4677  0.2729  0.3982
  883MOL0     H21785   8.836   2.117   6.750  0.5094 -1.1580 -0.5606
  883MOL0     H21786   9.069   2.035   6.765  2.6739  0.4031 -1.3963
  883MOL0     H21787   9.236   1.992   6.575 -2.0131  0.3123  2.9170
  883MOL0     H21788   9.306   1.963   6.729 -2.3485 -2.4265 -0.8514
  883MOL0     H21789   9.462   1.897   6.551  2.1882 -0.1311  2.1553
  883MOL0     H21790   9.447   2.058   6.471 -2.9827  4.3339  1.7021
  883MOL0     H21791   9.549   2.173   6.671 -0.4729 -0.0695  0.7647
  883MOL0     H21792   9.540   2.040   6.768 -0.1799 -0.2357  0.0665
  883MOL0     H21793   9.720   1.921   6.608 -0.6141 -0.3830 -2.0987
  883MOL0     H21794   9.713   2.059   6.505  1.6058 -0.8557  0.0031
  883MOL0     H21795   9.791   2.209   6.687  2.3886  0.7118  1.2674
  883MOL0     H21796   9.907   2.090   6.632 -0.7036  0.2239 -1.7549
  883MOL0     H21797   9.735   2.090   6.885  0.2655 -0.2324  1.2071
  883MOL0     H21798   9.836   1.949   6.827 -1.5834  0.4086 -2.2711
  883MOL0     H21799  10.035   2.096   6.837 -0.9727 -2.8110  0.3557
  883MOL0     H21800   9.969   2.077   6.997  0.1940 -2.1469 -1.1797
  883MOL0     H21801   9.879   2.320   6.847  0.3775 -0.6590  0.4566
  883MOL0     H21802   9.845   2.278   7.019  2.0023 -2.1716  2.3759
  883MOL0     H21803  10.142   2.376   6.768 -2.4456 -0.6202 -0.9335
  883MOL0     H21804  10.384   2.430   6.801 -0.9256  0.0831 -1.3147
  883MOL0     H21805  10.443   2.445   6.974 -0.2312 -1.0510 -0.9094
  883MOL0     H21806  10.273   2.661   6.834  0.1630 -0.3988 -1.4038
  883MOL0     H21807  10.377   2.681   6.973  0.8342  0.5866 -0.9113
  883MOL0     H21808  10.483   2.657   6.689  1.3069 -0.1963  0.0104
  883MOL0     H21809  10.461   2.793   6.799  0.4920  0.1802 -1.5560
  883MOL0     H21810  10.693   2.739   6.832  1.5975 -1.2405 -1.3521
  883MOL0     H21811  10.612   2.675   6.971 -1.7808 -2.8130 -0.5877
  883MOL0     H21812  10.688   2.273   6.849  0.9537 -0.8721 -0.2808
  883MOL0     H21813  10.783   2.075   6.898 -0.2737  1.2333  0.3509
  883MOL0     H21814  10.878   2.050   7.043 -2.3672  2.7775  1.7645
  883MOL0     H21815  10.950   2.066   6.872  0.3601  0.1503  0.2320
  883MOL0     H21816  11.453   2.405   6.965 -2.0428  0.0996 -1.2908
  883MOL0     H21817  11.645   2.307   6.880 -2.2440  2.9187  1.2842
  883MOL0     H21818  11.844   2.016   6.746  2.3628 -0.0807  1.3010
  883MOL0     H21819  11.770   2.168   6.725  1.7745  0.6104  0.0638
  883MOL0     H21820  11.860   2.252   6.932 -1.2347 -0.9553 -0.4630
  883MOL0     H21821  11.913   2.074   6.971 -1.3352  0.1476  1.0303
  883MOL0     H21822  12.092   2.245   6.917  4.3401 -0.7792 -2.6627
  883MOL0     H21823  12.006   2.261   6.755 -2.6513  3.7697  3.0504
  883MOL0     H21824  12.076   2.012   6.740 -3.6292  0.0817  2.1135
  883MOL0     H21825  12.156   2.033   6.896 -0.3355  0.4853 -0.3851
  883MOL0     H21826  12.221   2.215   6.666 -1.8246  0.1443  1.2431
  883MOL0     H21827  12.321   2.195   6.810  1.5528  0.7218 -2.5264
  883MOL0     H21828  12.371   1.948   6.750  1.3561  0.4191  1.5511
  883MOL0     H21829  12.443   2.078   6.650 -1.4454  1.1399 -2.5162
  883MOL0     H21830  12.277   2.063   6.483 -0.0913 -1.2135 -0.7725
  883MOL0     H21831  12.202   1.928   6.556 -1.5457  2.2993  3.0059
  883MOL0     H21832  12.484   1.932   6.442 -0.0340  0.0988  0.6478
  883MOL0     H21833  12.346   1.839   6.384  1.0238  2.1943 -0.9509
  883MOL0     H21834  11.461   1.922   6.933  0.4543 -0.0671  2.1061
  883MOL0     H21835  11.251   2.033   7.014 -0.7145 -0.3926 -2.8495
  883MOL0     H21836  11.068   2.541   7.000  0.6228  0.7605 -0.0314
  883MOL0     H21837  10.868   2.650   6.910 -0.8337 -0.3437  1.8590
  883MOL0     H21838   9.208   2.376   6.526 -2.9904  3.3049 -2.1349
  883MOL0     H21839   8.958   2.449   6.524 -0.7256  0.7255  2.4375
  883MOL0     H21840   8.523   2.347   6.734 -0.3412  1.4335 -0.4139
  883MOL0     H21841   8.292   2.351   6.739 -0.3025 -0.6883  0.5158
  883MOL0     H21842   8.037   2.434   6.400  2.5162  0.4810  0.7707
  883MOL0     H21843   8.070   2.273   6.338  2.7313  0.7411  0.8264
  883MOL0     H21844   7.869   2.342   6.561 -3.5365 -0.4616 -0.7841
  883MOL0     H21845   7.909   2.188   6.485 -1.8981  0.4219  1.3944
  883MOL0     H21846   7.812   2.420   6.329 -0.6743  0.2477 -0.0258
  883MOL0     H21847   7.784   2.250   6.290 -2.9491 -0.4028  1.2489
  883MOL0     H21848   7.635   2.366   6.515 -2.5346  1.0892 -1.2508
  883MOL0     H21849   7.601   2.217   6.420 -1.9087  1.4156 -1.4867
  883MOL0     H21850   7.420   2.509   6.187 -1.3026  1.6606  2.2707
  883MOL0     H21851   8.265   2.343   6.312  0.9197 -0.0666 -1.7296
  883MOL0     H21852   8.455   2.376   6.181 -1.7972 -0.5643  1.4044
  883MOL0     H21853   8.602   2.435   6.256 -0.4078  0.2753  1.8301
  883MOL0     H21854   8.569   2.254   6.227 -2.1785 -0.6312  0.9733
  884MOL0     O21855   4.506   4.568  11.371 -1.0855 -0.3926  0.0882
  884MOL0     C21856   4.437   4.624  11.450  0.5125 -0.6894 -0.8500
  884MOL0     O21857   4.299   4.640  11.439 -0.5889 -0.4969 -0.3891
  884MOL0     C21858   4.231   4.588  11.321  0.1034 -0.4670 -0.3408
  884MOL0     C21859   4.270   4.629  11.185 -0.3064  0.0227 -0.8937
  884MOL0     C21860   4.201   4.571  11.081  0.4350  0.0098 -0.0138
  884MOL0     C21861   4.094   4.474  11.102 -0.3950 -0.4310 -0.6517
  884MOL0     O21862   4.041   4.421  10.988  0.7171  0.3737 -0.0559
  884MOL0     C21863   3.897   4.393  10.994  0.0659 -0.6608 -0.1851
  884MOL0     C21864   3.811   4.518  11.023 -0.8171  0.2503 -0.0087
  884MOL0     C21865   3.667   4.489  11.003  0.4076 -0.0607  0.6777
  884MOL0     C21866   3.618   4.360  11.071  0.2867  0.3365 -0.1407
  884MOL0     C21867   3.464   4.348  11.076 -0.9496 -0.3382  0.4637
  884MOL0     C21868   3.405   4.224  11.131 -0.0844 -0.5027 -0.3415
  884MOL0     C21869   3.255   4.246  11.134 -0.3594 -0.2341 -0.2030
  884MOL0     C21870   3.184   4.143  11.229  0.0838  0.4489 -0.6254
  884MOL0     N21871   3.243   4.149  11.366 -0.1419 -0.2556  0.0400
  884MOL0     C21872   3.306   4.041  11.423 -0.7731  0.1147 -0.2255
  884MOL0     C21873   3.343   4.097  11.547  0.0199  0.8560  0.4160
  884MOL0     C21874   3.413   4.018  11.653 -0.0960  0.0209 -0.8446
  884MOL0     C21875   3.341   4.005  11.787 -0.8593 -0.9806  0.0339
  884MOL0     C21876   3.444   3.966  11.899 -0.0452 -0.2210 -0.5332
  884MOL0     C21877   3.487   3.821  11.907  1.5280 -0.1240 -0.1756
  884MOL0     O21878   3.368   3.750  11.937  0.3583  0.0449  0.1871
  884MOL0     C21879   3.390   3.618  11.941  0.4519  0.0974  0.8212
  884MOL0     C21880   3.291   3.548  12.017  0.0018 -1.0049 -0.3916
  884MOL0     C21881   3.273   3.408  12.021 -0.5245 -0.2519  0.3069
  884MOL0     C21882   3.156   3.350  12.093  1.2817  0.1629  0.5956
  884MOL0     C21883   3.385   3.331  11.961  0.0052  0.3288 -0.3816
  884MOL0     C21884   3.399   3.180  11.971  0.2703  0.0630  0.1296
  884MOL0     O21885   3.480   3.121  11.879  0.4177  0.0675 -0.1088
  884MOL0     C21886   3.476   2.986  11.863 -0.1520 -0.3281  0.6587
  884MOL0     C21887   3.422   2.931  11.745 -0.0964  0.7349  0.0384
  884MOL0     C21888   3.419   2.791  11.723  0.6651  0.5159 -1.0491
  884MOL0     C21889   3.450   2.698  11.823 -0.4116 -0.3922  0.8367
  884MOL0     O21890   3.418   2.569  11.783 -0.3882  0.5241  0.6865
  884MOL0     C21891   3.437   2.459  11.868  1.3886 -0.3577  0.0443
  884MOL0     C21892   3.322   2.451  11.960  0.2850 -0.3057 -1.1332
  884MOL0     C21893   3.306   2.318  12.029  0.6703 -0.4209 -0.3580
  884MOL0     C21894   3.216   2.332  12.152 -0.2500  0.2827 -0.5904
  884MOL0     C21895   3.215   2.203  12.228 -0.0211 -0.5532 -0.2243
  884MOL0     C21896   3.086   2.199  12.312  0.2773  0.5275 -0.4132
  884MOL0     C21897   3.106   2.094  12.430 -1.2228 -0.3067  0.0535
  884MOL0     C21898   2.973   2.045  12.491  0.7036 -0.3708 -1.0268
  884MOL0    Cl21899   2.897   2.184  12.574 -0.2197  0.0150 -0.0067
  884MOL0     C21900   3.510   2.745  11.943  0.0087  0.4016  0.7050
  884MOL0     C21901   3.525   2.886  11.958 -0.7125  0.1854  0.8476
  884MOL0     O21902   3.346   3.122  12.065  0.0579 -1.4537  0.7027
  884MOL0     C21903   3.482   3.398  11.890 -0.2451 -0.6391  0.1346
  884MOL0     C21904   3.485   3.537  11.878 -0.6138 -0.0568  0.2750
  884MOL0     N21905   3.298   4.228  11.560 -0.4359 -0.2084  0.3938
  884MOL0     N21906   3.247   4.260  11.444 -0.1887  0.9138  1.1299
  884MOL0     C21907   4.051   4.447  11.233 -0.4391  0.3941  0.0632
  884MOL0     C21908   4.126   4.501  11.342  0.5514  0.8297 -0.1259
  884MOL0     C21909   4.497   4.670  11.579 -0.3919 -0.3537  0.5529
  884MOL0     C21910   4.419   4.763  11.648 -0.0522  0.5141 -0.4231
  884MOL0     C21911   4.462   4.819  11.771  0.4490 -0.1168  0.6737
  884MOL0     C21912   4.584   4.780  11.826 -0.6866  0.4809  0.1000
  884MOL0     O21913   4.633   4.834  11.947  0.0350 -0.7227 -0.1474
  884MOL0     C21914   4.546   4.814  12.058 -0.4253 -0.3125 -0.0275
  884MOL0     C21915   4.630   4.847  12.186 -0.2625  0.3103 -0.6669
  884MOL0     C21916   4.635   4.998  12.201 -0.3464 -0.0310 -0.0463
  884MOL0     C21917   4.716   5.048  12.324  0.1228  0.7285 -0.4392
  884MOL0     C21918   4.659   5.169  12.379 -0.4781 -0.7285 -0.0414
  884MOL0     C21919   4.591   5.266  12.418 -0.4654 -0.3387  0.6059
  884MOL0     C21920   4.656   4.688  11.756  0.2590 -0.6011 -0.6756
  884MOL0     C21921   4.628   4.631  11.634 -0.3428 -0.2092  0.1208
  884MOL0     C21922   4.717   4.527  11.579 -0.3524  0.7770  0.4473
  884MOL0     H21923   4.355   4.695  11.171  1.3156 -1.9009 -0.6161
  884MOL0     H21924   4.223   4.596  10.977 -1.7679 -1.1323 -0.8218
  884MOL0     H21925   3.882   4.316  11.070 -3.6136 -0.0627 -0.1369
  884MOL0     H21926   3.849   4.355  10.903 -3.5357 -1.3741  1.8478
  884MOL0     H21927   3.830   4.542  11.128  1.2820  1.3513 -0.5681
  884MOL0     H21928   3.856   4.603  10.969  0.2185  0.5477  1.2818
  884MOL0     H21929   3.610   4.574  11.043  0.2935  0.8572 -1.3114
  884MOL0     H21930   3.656   4.469  10.896  0.2051  0.1687  0.6541
  884MOL0     H21931   3.663   4.274  11.020  1.5868  1.7807 -1.5247
  884MOL0     H21932   3.647   4.359  11.177 -1.3881 -0.6078  0.3349
  884MOL0     H21933   3.430   4.346  10.972 -3.4779 -0.2560  1.2195
  884MOL0     H21934   3.419   4.441  11.112  4.3496  2.2192  1.4547
  884MOL0     H21935   3.426   4.132  11.076  1.5424 -1.3721  1.5912
  884MOL0     H21936   3.431   4.203  11.235 -2.1107 -1.2555  0.0613
  884MOL0     H21937   3.213   4.236  11.033 -1.1182  1.2995 -0.0818
  884MOL0     H21938   3.226   4.345  11.172  0.1480 -0.0718 -0.2368
  884MOL0     H21939   3.076   4.153  11.240  0.2758  1.9551  0.1111
  884MOL0     H21940   3.196   4.043  11.187  0.3037 -0.4500  1.4344
  884MOL0     H21941   3.319   3.944  11.376  0.9446  0.5573 -0.7334
  884MOL0     H21942   3.509   4.071  11.651 -0.1449  0.0937 -1.9043
  884MOL0     H21943   3.448   3.921  11.614 -2.9109 -0.5233 -2.2733
  884MOL0     H21944   3.306   4.106  11.805  1.0642  0.2644 -2.5094
  884MOL0     H21945   3.250   3.943  11.783 -2.1488  0.8689 -0.3017
  884MOL0     H21946   3.532   4.032  11.890 -1.7670  2.3462  0.1874
  884MOL0     H21947   3.397   3.986  11.996 -1.0759 -0.7753 -0.9142
  884MOL0     H21948   3.534   3.793  11.812  2.9386 -2.9325  1.2252
  884MOL0     H21949   3.556   3.817  11.992 -1.2976  2.0557  2.4469
  884MOL0     H21950   3.215   3.610  12.063  0.9038  0.5291 -0.8766
  884MOL0     H21951   3.181   3.318  12.194 -1.1021 -2.6578  0.4196
  884MOL0     H21952   3.118   3.270  12.028  0.0946  1.9095 -0.9572
  884MOL0     H21953   3.083   3.431  12.101  1.6685  0.4007  1.9602
  884MOL0     H21954   3.384   2.998  11.668  3.7292  1.8137 -1.1560
  884MOL0     H21955   3.364   2.755  11.637 -1.9382  0.9812  0.3010
  884MOL0     H21956   3.427   2.367  11.809  1.3055  0.1490 -0.7409
  884MOL0     H21957   3.540   2.469  11.905  1.8922  4.1532 -1.9075
  884MOL0     H21958   3.345   2.530  12.032  1.5041 -2.0082  0.4368
  884MOL0     H21959   3.230   2.458  11.900  0.5894  0.4644 -1.5195
  884MOL0     H21960   3.405   2.281  12.058  1.9309  3.1401  0.4458
  884MOL0     H21961   3.254   2.254  11.958 -0.7928  1.0563 -0.6918
  884MOL0     H21962   3.112   2.358  12.131  0.0641  5.4980  2.5037
  884MOL0     H21963   3.242   2.413  12.221  0.1427 -0.6798  0.4371
  884MOL0     H21964   3.213   2.118  12.159  0.2631  1.1917 -2.5020
  884MOL0     H21965   3.300   2.217  12.294 -0.7611  2.1283  0.2634
  884MOL0     H21966   2.994   2.182  12.253  0.3089  0.8447 -0.5549
  884MOL0     H21967   3.079   2.295  12.362 -0.6294 -0.2436  1.0113
  884MOL0     H21968   3.171   2.131  12.510 -0.6795 -0.9540 -0.0759
  884MOL0     H21969   3.149   2.002  12.390  0.4993  0.8615 -0.8529
  884MOL0     H21970   2.986   1.959  12.556  0.0371 -0.1771 -0.6237
  884MOL0     H21971   2.897   2.007  12.422  3.1543 -4.5770 -1.7534
  884MOL0     H21972   3.524   2.683  12.030 -4.2963 -2.8963 -0.5485
  884MOL0     H21973   3.575   2.925  12.046 -0.4841  1.4172  0.1994
  884MOL0     H21974   3.556   3.343  11.833 -1.0429 -0.7583 -0.7984
  884MOL0     H21975   3.554   3.570  11.801 -0.8073 -0.2514  0.0157
  884MOL0     H21976   3.971   4.375  11.251  0.2815 -0.7610 -1.1888
  884MOL0     H21977   4.097   4.458  11.437 -0.7493 -0.3387 -1.0043
  884MOL0     H21978   4.327   4.795  11.601 -0.8203 -0.4786  0.3462
  884MOL0     H21979   4.418   4.909  11.812  1.4374  1.4697 -1.5497
  884MOL0     H21980   4.459   4.880  12.045 -0.6747 -0.5812  0.2525
  884MOL0     H21981   4.506   4.713  12.071  1.5280 -0.7829  4.8690
  884MOL0     H21982   4.732   4.810  12.182  0.0337  0.7035  1.6257
  884MOL0     H21983   4.586   4.807  12.278 -0.5089  0.4471 -0.7242
  884MOL0     H21984   4.686   5.028  12.109  1.3382 -0.8057  0.5873
  884MOL0     H21985   4.536   5.044  12.197 -0.1637  0.2753 -2.1396
  884MOL0     H21986   4.821   5.064  12.300  0.5726 -1.4207 -0.0973
  884MOL0     H21987   4.715   4.971  12.402 -2.3728  0.2257 -0.8741
  884MOL0     H21988   4.534   5.350  12.451 -0.5859 -0.5366  0.9029
  884MOL0     H21989   4.753   4.661  11.797 -0.9558 -0.6349  2.4843
  884MOL0     H21990   4.670   4.460  11.506  0.8242  0.3461  0.0613
  884MOL0     H21991   4.805   4.570  11.530 -1.4523  0.8511 -1.5844
  884MOL0     H21992   4.756   4.462  11.658 -0.4211 -2.3493 -1.8834
  885MOL0     O21993   7.927   8.809   4.307  1.0114 -0.1202 -0.0054
  885MOL0     C21994   7.897   8.925   4.338  0.4000  0.3894  0.3524
  885MOL0     O21995   7.902   8.980   4.462  0.3167 -0.7161 -0.6104
  885MOL0     C21996   7.880   8.897   4.561 -0.6084  0.4281 -0.1943
  885MOL0     C21997   7.947   8.917   4.686  0.0660  0.3164 -0.5437
  885MOL0     C21998   7.900   8.855   4.802  0.0293 -0.9447  0.3699
  885MOL0     C21999   7.789   8.780   4.809 -0.2569 -0.0799 -0.4280
  885MOL0     O22000   7.759   8.745   4.937  0.0354  0.1683 -0.4700
  885MOL0     C22001   7.691   8.621   4.963  0.3692  0.1487 -0.4531
  885MOL0     C22002   7.637   8.604   5.105 -0.1980 -0.3372  0.5893
  885MOL0     C22003   7.667   8.710   5.213  1.0117 -0.7357  0.0083
  885MOL0     C22004   7.609   8.669   5.353 -0.3895  1.3256  0.7696
  885MOL0     C22005   7.609   8.781   5.453  0.1013  0.0337  0.2868
  885MOL0     C22006   7.480   8.873   5.447 -0.8313  0.5735 -0.0482
  885MOL0     C22007   7.482   8.990   5.547 -0.7565  0.2027 -0.6446
  885MOL0     C22008   7.585   9.100   5.507 -0.4961 -1.4713  0.9745
  885MOL0     N22009   7.547   9.234   5.552  0.2816  0.3205  0.3930
  885MOL0     C22010   7.434   9.296   5.503 -1.0028  0.0583 -0.0622
  885MOL0     C22011   7.430   9.414   5.572  0.2895  0.4591 -0.1878
  885MOL0     C22012   7.315   9.506   5.569  0.7253  0.0242 -1.1892
  885MOL0     C22013   7.254   9.498   5.716 -0.1771  0.0457 -0.3337
  885MOL0     C22014   7.193   9.366   5.740  0.6270  0.1823 -0.2535
  885MOL0     C22015   7.160   9.344   5.889 -0.9109  0.4878 -0.1257
  885MOL0     O22016   7.137   9.206   5.916 -0.3421  0.6588 -0.1831
  885MOL0     C22017   7.244   9.117   5.910 -0.5309  0.4630  0.0109
  885MOL0     C22018   7.204   8.987   5.895  0.2254 -0.1406  0.3791
  885MOL0     C22019   7.303   8.883   5.892 -0.5353 -0.6822  0.2117
  885MOL0     C22020   7.257   8.743   5.882  0.2376  0.4710  0.6079
  885MOL0     C22021   7.439   8.918   5.895  0.9884 -0.3875 -0.1198
  885MOL0     C22022   7.556   8.825   5.881  1.0748  0.0015  0.1964
  885MOL0     O22023   7.533   8.693   5.900 -0.6774  0.2524  0.3877
  885MOL0     C22024   7.648   8.615   5.891  0.5265  0.0044  0.4193
  885MOL0     C22025   7.652   8.530   5.777 -0.2375 -1.2208  0.0070
  885MOL0     C22026   7.760   8.449   5.752 -0.2348 -0.6403  0.3105
  885MOL0     C22027   7.855   8.445   5.851  0.2858  0.1444  0.0033
  885MOL0     O22028   7.954   8.350   5.829  0.6677 -0.2398 -0.1722
  885MOL0     C22029   8.089   8.371   5.884 -0.7501  0.1819  0.4071
  885MOL0     C22030   8.174   8.258   5.837  0.6552 -0.1740  0.4612
  885MOL0     C22031   8.192   8.234   5.688 -0.1343 -0.0244 -0.4132
  885MOL0     C22032   8.287   8.330   5.621  0.1622  0.3395 -0.3711
  885MOL0     C22033   8.314   8.313   5.472  0.4429 -0.8642  0.1844
  885MOL0     C22034   8.191   8.366   5.392 -0.1142 -0.0660 -0.2469
  885MOL0     C22035   8.232   8.462   5.284 -0.5080  0.2262  0.8219
  885MOL0     C22036   8.138   8.565   5.250  0.3436 -0.1002  0.0036
  885MOL0    Cl22037   7.983   8.493   5.183 -0.1293  0.2396 -0.6156
  885MOL0     C22038   7.854   8.524   5.970  0.4515 -0.3812 -0.0869
  885MOL0     C22039   7.745   8.608   5.989  0.2012  0.6005  0.7511
  885MOL0     O22040   7.666   8.874   5.853  0.5012 -1.4371  0.7723
  885MOL0     C22041   7.474   9.054   5.912  0.5558  0.1392  0.1559
  885MOL0     C22042   7.382   9.148   5.921  0.1879  0.0870  0.0005
  885MOL0     N22043   7.543   9.430   5.643 -0.6522  0.4458  0.0161
  885MOL0     N22044   7.610   9.313   5.634  0.7574  0.1020  0.2029
  885MOL0     C22045   7.726   8.755   4.689  0.6237  0.3478  0.2168
  885MOL0     C22046   7.775   8.814   4.568  0.4997  1.0759  0.0255
  885MOL0     C22047   7.852   9.018   4.227 -0.5297 -0.4100 -0.6815
  885MOL0     C22048   7.838   9.157   4.260 -0.6843 -0.3077 -0.1390
  885MOL0     C22049   7.782   9.241   4.160  0.0171  0.4795 -1.6639
  885MOL0     C22050   7.758   9.195   4.038 -0.2431  0.1800  0.1536
  885MOL0     O22051   7.702   9.272   3.933 -0.0093 -0.7860 -0.1093
  885MOL0     C22052   7.654   9.402   3.968  0.5805 -0.0486 -0.2325
  885MOL0     C22053   7.516   9.398   4.034 -0.6950 -0.2830 -1.0407
  885MOL0     C22054   7.424   9.312   3.952 -0.6157  0.6447 -0.2300
  885MOL0     C22055   7.277   9.331   3.995  0.7910  0.5339  0.3633
  885MOL0     C22056   7.240   9.265   4.120  0.2005 -0.6387  0.6347
  885MOL0     C22057   7.217   9.200   4.214  0.7486  0.0540  0.0929
  885MOL0     C22058   7.776   9.062   4.000 -0.3481 -0.1722 -0.0488
  885MOL0     C22059   7.815   8.970   4.102  0.3621  0.0463 -0.1094
  885MOL0     C22060   7.821   8.829   4.049 -0.4502  0.1796 -0.3373
  885MOL0     H22061   8.029   8.987   4.696 -0.1101  0.2995  1.4029
  885MOL0     H22062   7.943   8.875   4.900  1.1516  2.5020 -0.6795
  885MOL0     H22063   7.747   8.531   4.936 -2.3870 -1.9137  0.2431
  885MOL0     H22064   7.610   8.613   4.890  1.0525 -1.6040 -1.0842
  885MOL0     H22065   7.529   8.604   5.095 -0.4368 -0.3746  2.7950
  885MOL0     H22066   7.664   8.505   5.142  2.6146  1.0862  2.7108
  885MOL0     H22067   7.773   8.739   5.213  0.4086  1.7548 -0.9802
  885MOL0     H22068   7.609   8.799   5.187  2.0562  0.3035  1.0844
  885MOL0     H22069   7.507   8.634   5.335 -0.1785  0.6626  0.8232
  885MOL0     H22070   7.663   8.584   5.394 -3.9839 -1.8178 -0.4209
  885MOL0     H22071   7.693   8.850   5.437  0.4119 -0.1545  1.0422
  885MOL0     H22072   7.618   8.727   5.547  0.8896 -0.5612 -0.1173
  885MOL0     H22073   7.483   8.910   5.344 -1.6673 -1.0554 -0.6778
  885MOL0     H22074   7.389   8.813   5.448 -1.8068  1.2869 -6.0425
  885MOL0     H22075   7.513   8.956   5.647 -0.4457  0.1073 -0.7722
  885MOL0     H22076   7.383   9.035   5.559 -1.8288 -2.0198 -0.5282
  885MOL0     H22077   7.682   9.065   5.542  1.4889  2.6749  0.2741
  885MOL0     H22078   7.599   9.100   5.399 -1.2530  0.1451  0.8364
  885MOL0     H22079   7.359   9.257   5.436 -0.3099 -0.6889 -0.4101
  885MOL0     H22080   7.246   9.447   5.508  0.2854 -1.7403  0.9013
  885MOL0     H22081   7.335   9.605   5.528 -0.0495  1.2567  1.2248
  885MOL0     H22082   7.335   9.508   5.789  0.9646 -0.0319 -1.5611
  885MOL0     H22083   7.191   9.588   5.721  3.9629  3.3403 -1.4769
  885MOL0     H22084   7.096   9.355   5.689  0.1329  0.0232  0.7094
  885MOL0     H22085   7.264   9.289   5.709  1.0010  0.4022  0.0572
  885MOL0     H22086   7.239   9.389   5.950 -3.2652  3.3983  1.0132
  885MOL0     H22087   7.073   9.407   5.910 -0.5773  0.7520  0.5069
  885MOL0     H22088   7.097   8.972   5.885  0.1660  0.7827 -0.3999
  885MOL0     H22089   7.307   8.693   5.798 -0.4111  1.2624 -0.2729
  885MOL0     H22090   7.148   8.746   5.873  0.0669  3.5165  2.3983
  885MOL0     H22091   7.284   8.693   5.975  2.3026 -1.7183 -1.0256
  885MOL0     H22092   7.564   8.533   5.714 -1.1726 -0.6461  1.2901
  885MOL0     H22093   7.773   8.392   5.660 -2.7365  0.0805 -0.5674
  885MOL0     H22094   8.127   8.468   5.853 -1.4622 -0.0046 -1.1645
  885MOL0     H22095   8.077   8.360   5.993 -1.0443 -0.6887  0.2998
  885MOL0     H22096   8.271   8.267   5.886  1.2746  2.3872 -1.0252
  885MOL0     H22097   8.130   8.165   5.872  0.3485 -0.1548  0.1316
  885MOL0     H22098   8.097   8.246   5.635 -1.2569  1.4720  1.7898
  885MOL0     H22099   8.230   8.132   5.675  1.9530  0.4165  1.5897
  885MOL0     H22100   8.388   8.309   5.658 -0.2826  0.3607  0.8984
  885MOL0     H22101   8.246   8.429   5.641 -2.7064 -0.2581 -2.6290
  885MOL0     H22102   8.403   8.370   5.443  0.0181 -0.4220 -0.2640
  885MOL0     H22103   8.339   8.209   5.446  0.3862 -0.7545 -0.3146
  885MOL0     H22104   8.119   8.416   5.457  1.4228  1.1264  0.6107
  885MOL0     H22105   8.146   8.269   5.367  2.2034 -0.9188 -1.4084
  885MOL0     H22106   8.252   8.391   5.203  0.4329  0.5591  0.7456
  885MOL0     H22107   8.318   8.525   5.307 -1.1025  0.9251  1.1796
  885MOL0     H22108   8.181   8.630   5.173 -0.6551  0.1941 -0.3268
  885MOL0     H22109   8.114   8.629   5.335 -4.3038  0.6867 -1.5738
  885MOL0     H22110   7.934   8.512   6.042  0.2181  0.0057  0.2392
  885MOL0     H22111   7.738   8.671   6.077 -1.5608  1.7063 -0.1303
  885MOL0     H22112   7.579   9.081   5.914  0.6567 -0.2679  0.7425
  885MOL0     H22113   7.422   9.249   5.926 -2.4589  1.1924  0.9244
  885MOL0     H22114   7.646   8.682   4.687 -1.7534  2.6486  2.7343
  885MOL0     H22115   7.724   8.779   4.478  0.1578 -0.7699  0.8920
  885MOL0     H22116   7.871   9.206   4.350  1.7426  1.7428 -2.0012
  885MOL0     H22117   7.769   9.345   4.189  0.6223 -0.1466  1.1559
  885MOL0     H22118   7.722   9.450   4.039  0.8569 -2.6830  1.4410
  885MOL0     H22119   7.643   9.469   3.883 -0.6619  3.1845  2.2695
  885MOL0     H22120   7.477   9.499   4.050 -1.5416 -0.8608  0.9681
  885MOL0     H22121   7.538   9.363   4.136  0.3501  2.3171 -0.2931
  885MOL0     H22122   7.437   9.342   3.847  3.2009  1.1344  0.2271
  885MOL0     H22123   7.435   9.203   3.958 -2.0548  0.4370 -1.0078
  885MOL0     H22124   7.213   9.294   3.915 -0.3449 -0.1881  1.5813
  885MOL0     H22125   7.252   9.436   4.011 -1.2630 -0.0509  1.3697
  885MOL0     H22126   7.161   9.152   4.292 -5.0166  0.7090 -3.0646
  885MOL0     H22127   7.756   9.030   3.899 -0.1719 -0.1723 -0.0824
  885MOL0     H22128   7.923   8.798   4.022  0.1412  1.2953  0.5120
  885MOL0     H22129   7.784   8.752   4.116  1.3734 -3.3341 -3.0488
  885MOL0     H22130   7.759   8.816   3.960 -0.6672 -1.8083  0.0683
  886MOL0     O22131   5.475   9.318   3.405 -0.1689 -0.0879  0.6705
  886MOL0     C22132   5.441   9.356   3.288 -0.8976  0.1815  1.3166
  886MOL0     O22133   5.495   9.313   3.167 -0.1073  0.0364 -0.1659
  886MOL0     C22134   5.615   9.249   3.170  0.2592 -0.1745 -0.5382
  886MOL0     C22135   5.611   9.111   3.178  0.2318  0.0264  0.7655
  886MOL0     C22136   5.737   9.039   3.169 -0.1875  0.5241 -0.5062
  886MOL0     C22137   5.863   9.111   3.165 -0.5562 -0.4315  0.3231
  886MOL0     O22138   5.998   9.067   3.175  0.3124  0.2419  0.0634
  886MOL0     C22139   6.020   8.920   3.190  0.6670 -0.0676  0.6221
  886MOL0     C22140   6.154   8.879   3.126 -1.1241  0.4251  0.3944
  886MOL0     C22141   6.262   8.979   3.158 -0.7356 -0.3027  0.0221
  886MOL0     C22142   6.396   8.924   3.123  0.8407 -0.0198  0.5929
  886MOL0     C22143   6.508   9.025   3.164  0.0522 -0.2131  0.7153
  886MOL0     C22144   6.627   9.000   3.078  0.5713  0.4484  0.3108
  886MOL0     C22145   6.745   9.090   3.131 -0.0869  1.0346 -0.2687
  886MOL0     C22146   6.879   9.047   3.057  0.1199  0.0987  0.7291
  886MOL0     N22147   6.874   9.070   2.913 -0.6047  0.1911 -0.7130
  886MOL0     C22148   6.960   9.008   2.825  0.4790  0.2093 -0.3406
  886MOL0     C22149   6.975   9.089   2.720 -0.8519  0.9813  0.2146
  886MOL0     C22150   7.045   9.037   2.593  0.3674  0.4544  0.1558
  886MOL0     C22151   7.138   9.148   2.550 -1.2389 -0.1840 -0.1046
  886MOL0     C22152   7.226   9.096   2.439  0.0110 -0.5140 -0.3682
  886MOL0     C22153   7.327   9.208   2.396  1.1898  0.4998 -0.2360
  886MOL0     O22154   7.386   9.262   2.514  0.4084 -0.1739 -0.3804
  886MOL0     C22155   7.524   9.277   2.527  0.3820  0.2166  0.7623
  886MOL0     C22156   7.563   9.351   2.632 -0.4195  0.2352 -0.1451
  886MOL0     C22157   7.701   9.377   2.656  0.7693  0.0588 -0.3713
  886MOL0     C22158   7.729   9.466   2.768  0.1500 -1.0074  0.0921
  886MOL0     C22159   7.806   9.322   2.573  1.2599 -0.1140  0.9199
  886MOL0     C22160   7.951   9.315   2.607  0.6179  0.0647  0.1550
  886MOL0     O22161   8.035   9.255   2.518 -0.1868  0.3563 -0.3224
  886MOL0     C22162   8.167   9.263   2.521  0.6814  0.1053 -0.0782
  886MOL0     C22163   8.244   9.163   2.462 -1.2685 -0.4670 -0.2613
  886MOL0     C22164   8.382   9.170   2.472  0.0163 -0.0828  0.1706
  886MOL0     C22165   8.451   9.278   2.529 -0.3903 -0.3766  0.5059
  886MOL0     O22166   8.584   9.291   2.519 -0.3636 -0.0188 -0.0800
  886MOL0     C22167   8.663   9.170   2.547  0.3235  0.2030  0.2888
  886MOL0     C22168   8.708   9.160   2.703  0.6238 -0.1358 -0.0595
  886MOL0     C22169   8.821   9.253   2.738  0.3480 -0.1097 -0.4572
  886MOL0     C22170   8.798   9.407   2.724 -0.2799  0.5250  0.3934
  886MOL0     C22171   8.906   9.482   2.811  0.3007  0.1404 -0.0982
  886MOL0     C22172   9.059   9.449   2.781  0.1247  0.3042 -1.2231
  886MOL0     C22173   9.099   9.491   2.645 -0.9617  0.5220 -0.1401
  886MOL0     C22174   9.254   9.517   2.645  0.0570 -0.2742  0.2457
  886MOL0    Cl22175   9.345   9.367   2.672  0.3747  0.2797 -0.1464
  886MOL0     C22176   8.379   9.375   2.584  0.1319 -0.6060 -0.0125
  886MOL0     C22177   8.239   9.368   2.578 -0.4297  0.0612  0.7107
  886MOL0     O22178   7.982   9.351   2.720  0.2068 -0.1990 -0.5782
  886MOL0     C22179   7.756   9.255   2.454 -0.3430 -0.6189  0.4171
  886MOL0     C22180   7.623   9.230   2.434  0.6809  0.5720 -0.2137
  886MOL0     N22181   6.909   9.200   2.751  0.1078  0.2827  0.0608
  886MOL0     N22182   6.845   9.188   2.868  0.8313 -0.0062 -0.1186
  886MOL0     C22183   5.858   9.250   3.162  0.3426 -0.2113 -0.8398
  886MOL0     C22184   5.738   9.310   3.153 -0.4899  0.1520  0.7039
  886MOL0     C22185   5.321   9.443   3.281  0.4635  1.0737 -0.1878
  886MOL0     C22186   5.257   9.455   3.153  0.1309  0.2737  0.3890
  886MOL0     C22187   5.143   9.530   3.144  0.3050 -0.2315 -1.0048
  886MOL0     C22188   5.072   9.590   3.255  0.1893  0.4088  0.3083
  886MOL0     O22189   4.961   9.663   3.234 -0.1658  0.4947  1.3808
  886MOL0     C22190   4.846   9.629   3.314  0.2138  0.1785  0.2186
  886MOL0     C22191   4.703   9.628   3.243 -0.2410 -0.2865 -0.2548
  886MOL0     C22192   4.672   9.769   3.195  0.1842 -0.3826 -0.5855
  886MOL0     C22193   4.551   9.767   3.110  0.2775  0.3282 -0.2995
  886MOL0     C22194   4.534   9.896   3.041  0.3390 -0.2403 -0.5752
  886MOL0     C22195   4.524  10.004   2.988  1.3455  0.1654  0.7130
  886MOL0     C22196   5.130   9.573   3.385  1.1409 -0.2967  0.0493
  886MOL0     C22197   5.246   9.497   3.392 -0.0733 -0.4557 -0.2945
  886MOL0     C22198   5.295   9.494   3.532 -0.0564 -0.5009 -0.1974
  886MOL0     H22199   5.516   9.060   3.189  0.2276  0.3298  2.2914
  886MOL0     H22200   5.740   8.932   3.156 -0.1929  0.5935 -1.1078
  886MOL0     H22201   5.944   8.855   3.144  0.6008  0.5072 -0.0923
  886MOL0     H22202   6.020   8.901   3.298 -1.4226  0.8441  0.8409
  886MOL0     H22203   6.174   8.777   3.159 -0.5473  0.6426  0.7395
  886MOL0     H22204   6.152   8.880   3.017  2.9857 -0.4145  0.1726
  886MOL0     H22205   6.244   9.077   3.112  1.7440 -0.0203 -0.4595
  886MOL0     H22206   6.261   9.016   3.261  0.0231  4.5118 -1.4418
  886MOL0     H22207   6.406   8.826   3.172  1.5162  0.5022  1.5438
  886MOL0     H22208   6.398   8.909   3.015 -0.0172 -0.7554  0.6605
  886MOL0     H22209   6.535   9.016   3.270  0.5604  0.3532  0.6405
  886MOL0     H22210   6.482   9.131   3.155 -1.1971 -0.6811 -2.9951
  886MOL0     H22211   6.647   8.893   3.082  0.5769  0.3997 -0.7899
  886MOL0     H22212   6.593   9.014   2.975  1.1625 -1.2382 -0.1351
  886MOL0     H22213   6.750   9.073   3.239 -1.0503 -0.2263 -0.3988
  886MOL0     H22214   6.711   9.194   3.125  1.8055  1.7357  0.3737
  886MOL0     H22215   6.962   9.112   3.085  0.9513 -1.2609  1.5481
  886MOL0     H22216   6.913   8.946   3.082 -4.1102 -2.6258 -2.9176
  886MOL0     H22217   7.013   8.914   2.841  0.8113  0.1343 -1.6908
  886MOL0     H22218   6.956   9.006   2.537 -0.3551 -0.6500  1.8653
  886MOL0     H22219   7.105   8.949   2.617  1.0149 -0.0410 -2.8874
  886MOL0     H22220   7.076   9.232   2.516  0.8871  1.0682 -1.1039
  886MOL0     H22221   7.194   9.170   2.641 -0.8589 -0.5385 -0.2464
  886MOL0     H22222   7.281   9.003   2.457  0.0948 -0.5826 -0.9523
  886MOL0     H22223   7.163   9.077   2.351  1.2042 -2.4222 -0.8785
  886MOL0     H22224   7.399   9.161   2.329 -0.6461 -0.3801 -1.6691
  886MOL0     H22225   7.274   9.282   2.335  0.5819 -0.1183 -0.4800
  886MOL0     H22226   7.483   9.386   2.697  0.3610  3.6975 -0.8559
  886MOL0     H22227   7.777   9.423   2.856 -0.2280 -1.2052  0.2033
  886MOL0     H22228   7.635   9.502   2.811  1.1498  1.8644  0.0859
  886MOL0     H22229   7.787   9.552   2.733 -0.3781 -0.0723  1.4593
  886MOL0     H22230   8.205   9.071   2.419  1.2829 -0.9065 -1.8935
  886MOL0     H22231   8.430   9.090   2.417 -2.1681 -2.5494  1.6193
  886MOL0     H22232   8.611   9.076   2.523 -1.3539  0.8775  1.1076
  886MOL0     H22233   8.756   9.167   2.490 -0.7594 -0.5552 -1.4942
  886MOL0     H22234   8.618   9.172   2.763 -0.7599 -1.5534 -1.7590
  886MOL0     H22235   8.749   9.062   2.727  1.8810  0.4216  0.1815
  886MOL0     H22236   8.915   9.221   2.692  1.0316 -0.0196  0.8281
  886MOL0     H22237   8.836   9.239   2.846 -2.4839 -1.9767 -0.2019
  886MOL0     H22238   8.697   9.433   2.757 -0.9887 -0.6590 -0.7516
  886MOL0     H22239   8.822   9.444   2.624 -1.1789  0.4122  0.1261
  886MOL0     H22240   8.902   9.590   2.791  2.8572  0.1983 -0.6400
  886MOL0     H22241   8.880   9.470   2.917 -2.1179  2.9913 -0.2404
  886MOL0     H22242   9.064   9.340   2.790 -2.2048  0.2523  0.5814
  886MOL0     H22243   9.117   9.501   2.857 -1.3604  0.4128 -0.1117
  886MOL0     H22244   9.053   9.585   2.615  1.1193  0.5052 -4.0333
  886MOL0     H22245   9.091   9.405   2.577 -0.6920 -1.0938  1.7621
  886MOL0     H22246   9.300   9.581   2.720  1.7245 -1.8371  0.6355
  886MOL0     H22247   9.268   9.556   2.543 -0.3935 -2.7792 -0.8603
  886MOL0     H22248   8.420   9.459   2.639 -1.0804 -0.9807  1.5223
  886MOL0     H22249   8.194   9.461   2.609  1.0872  0.8185  0.7492
  886MOL0     H22250   7.824   9.221   2.377 -0.3083  1.7862 -0.6915
  886MOL0     H22251   7.579   9.188   2.344 -0.1760 -1.0575  0.9270
  886MOL0     H22252   5.948   9.310   3.148  0.6807 -0.5107  0.0232
  886MOL0     H22253   5.726   9.415   3.126 -2.0116 -0.0733  0.3911
  886MOL0     H22254   5.299   9.418   3.060  4.2403  0.3088  2.0112
  886MOL0     H22255   5.105   9.554   3.045  1.2104  0.4161 -1.2031
  886MOL0     H22256   4.855   9.530   3.359  1.0733  0.6664  1.1725
  886MOL0     H22257   4.846   9.714   3.383  4.1117  1.8551 -1.5000
  886MOL0     H22258   4.632   9.603   3.323 -1.4453  1.0133 -0.8672
  886MOL0     H22259   4.687   9.549   3.169  0.6267 -0.8641  0.1640
  886MOL0     H22260   4.661   9.830   3.286 -1.5611 -1.3029 -0.1391
  886MOL0     H22261   4.757   9.794   3.130  0.4925 -1.1835 -0.4995
  886MOL0     H22262   4.462   9.741   3.169  1.0856  0.2588  0.9087
  886MOL0     H22263   4.564   9.686   3.038 -2.3261  0.8034 -1.4287
  886MOL0     H22264   4.512  10.092   2.930 -2.5902 -1.6296 -1.5683
  886MOL0     H22265   5.100   9.622   3.477  1.4193 -0.1171  0.0421
  886MOL0     H22266   5.399   9.525   3.519 -0.2906  0.3196 -0.1348
  886MOL0     H22267   5.234   9.553   3.600 -1.3072  0.0619 -1.7404
  886MOL0     H22268   5.286   9.392   3.571  0.1389 -0.5926 -0.3813
  887MOL0     O22269   8.429  11.103   7.919  0.2521 -0.2213 -0.8143
  887MOL0     C22270   8.365  11.211   7.905 -0.6413  0.6715  0.8340
  887MOL0     O22271   8.419  11.335   7.894 -0.2392  0.2484  0.9961
  887MOL0     C22272   8.553  11.328   7.880 -0.0159  0.3347 -0.7788
  887MOL0     C22273   8.612  11.334   7.755 -0.0692  0.2638  0.0719
  887MOL0     C22274   8.749  11.355   7.737 -0.1876  0.1015 -0.0850
  887MOL0     C22275   8.829  11.386   7.850 -0.0683  0.2080 -0.3511
  887MOL0     O22276   8.963  11.426   7.831 -0.1674  0.4986 -0.1169
  887MOL0     C22277   9.045  11.471   7.945  0.2995 -0.4849 -0.0459
  887MOL0     C22278   9.194  11.493   7.887 -0.2673 -0.9365  0.0842
  887MOL0     C22279   9.295  11.539   7.993 -1.2566  0.3396  0.4374
  887MOL0     C22280   9.435  11.543   7.931  0.4046  0.5687 -0.9365
  887MOL0     C22281   9.533  11.598   8.041 -0.2445 -0.8712 -0.1322
  887MOL0     C22282   9.682  11.578   8.006  0.0219 -0.3271  0.2905
  887MOL0     C22283   9.724  11.428   7.998 -0.5618 -0.3749 -0.4399
  887MOL0     C22284   9.869  11.411   7.976 -0.4885  0.6191  0.7800
  887MOL0     N22285   9.904  11.269   7.961 -0.8189 -0.0351 -0.2926
  887MOL0     C22286   9.965  11.187   8.052 -0.6970  0.2547 -0.8774
  887MOL0     C22287   9.989  11.069   7.990 -0.3139 -0.0317  0.0352
  887MOL0     C22288  10.055  10.946   8.055 -0.3314 -0.4614  0.5301
  887MOL0     C22289  10.190  10.974   8.125  0.1768 -0.6770 -1.1447
  887MOL0     C22290  10.247  10.843   8.179 -0.0531 -0.2998  0.3004
  887MOL0     C22291  10.364  10.874   8.268  0.0075 -0.3170 -0.1895
  887MOL0     O22292  10.421  10.754   8.309  0.7671  0.2395  0.3485
  887MOL0     C22293  10.547  10.747   8.351  0.0112 -0.8716  0.1689
  887MOL0     C22294  10.656  10.781   8.266 -0.2636  0.1916  0.0803
  887MOL0     C22295  10.787  10.798   8.318  0.6121 -0.3090  0.6919
  887MOL0     C22296  10.894  10.835   8.222  0.1880 -0.1781  0.7857
  887MOL0     C22297  10.805  10.787   8.460  0.3265 -0.6053 -0.3060
  887MOL0     C22298  10.932  10.811   8.527 -0.4656  0.4004  0.4159
  887MOL0     O22299  10.916  10.849   8.663  0.4595 -0.0393 -0.0842
  887MOL0     C22300  11.021  10.883   8.743  0.5069  0.0690 -0.1858
  887MOL0     C22301  11.012  10.848   8.877 -0.2311 -0.2212  0.4828
  887MOL0     C22302  11.121  10.880   8.967  0.3371 -0.0193  0.8511
  887MOL0     C22303  11.240  10.945   8.924  1.4946  0.0787 -0.4809
  887MOL0     O22304  11.339  10.992   8.999  0.0989  0.9460 -0.3214
  887MOL0     C22305  11.340  10.971   9.136 -0.6350  0.5416 -0.6958
  887MOL0     C22306  11.461  11.032   9.215 -0.7804  0.0267  0.3902
  887MOL0     C22307  11.600  11.024   9.146  0.1642 -0.2110 -0.8062
  887MOL0     C22308  11.708  11.076   9.241  0.3190 -0.6466 -0.1218
  887MOL0     C22309  11.852  11.065   9.193  0.2806  0.4655 -0.0768
  887MOL0     C22310  11.897  10.922   9.167 -0.7466  0.0894  0.8852
  887MOL0     C22311  11.865  10.822   9.278  0.5587 -0.3503 -0.4703
  887MOL0     C22312  11.952  10.694   9.274 -0.0054 -0.1393  0.3245
  887MOL0    Cl22313  11.919  10.601   9.127  0.1953 -0.4678  0.0497
  887MOL0     C22314  11.245  10.978   8.783 -0.5695  0.3953 -0.1815
  887MOL0     C22315  11.136  10.947   8.698 -0.6961 -0.1616  1.1577
  887MOL0     O22316  11.040  10.789   8.469 -0.3444 -0.6752 -0.0462
  887MOL0     C22317  10.695  10.736   8.542 -0.3912  0.3847  0.7245
  887MOL0     C22318  10.574  10.721   8.482 -0.3240 -0.1446 -0.7907
  887MOL0     N22319   9.942  11.078   7.861  0.3957 -0.5498 -0.4910
  887MOL0     N22320   9.881  11.197   7.849  0.3814  0.6301  0.1451
  887MOL0     C22321   8.773  11.376   7.979  0.5144 -0.3918  0.3056
  887MOL0     C22322   8.637  11.340   7.995  0.8214 -0.3658  0.2358
  887MOL0     C22323   8.218  11.210   7.882  0.0562  0.7760  0.0761
  887MOL0     C22324   8.170  11.292   7.779  0.6560  0.6669 -0.8289
  887MOL0     C22325   8.038  11.277   7.744 -0.6239  0.3161 -0.2093
  887MOL0     C22326   7.948  11.195   7.800 -0.2570 -0.2027  1.4630
  887MOL0     O22327   7.819  11.186   7.761  0.1651  0.0290  0.1392
  887MOL0     C22328   7.749  11.315   7.751  0.7001  0.1202 -0.6218
  887MOL0     C22329   7.607  11.269   7.707  0.1546  0.1526  0.0027
  887MOL0     C22330   7.520  11.211   7.818 -0.6078 -0.1776  0.5132
  887MOL0     C22331   7.496  11.307   7.937 -0.7285  0.9991 -0.3324
  887MOL0     C22332   7.384  11.248   8.027  0.9022 -0.8215 -0.0788
  887MOL0     C22333   7.293  11.199   8.092  0.0989 -0.0823 -0.5994
  887MOL0     C22334   7.992  11.114   7.896  0.9380  0.3866 -0.5244
  887MOL0     C22335   8.128  11.114   7.943  1.3077 -0.6178 -0.2917
  887MOL0     C22336   8.172  11.029   8.058 -0.5146 -0.4306 -0.0735
  887MOL0     H22337   8.538  11.317   7.677  1.2841  0.3995 -1.2884
  887MOL0     H22338   8.794  11.372   7.640 -2.3522  5.4439 -0.5020
  887MOL0     H22339   9.046  11.409   8.035  1.0737 -0.5582 -0.0926
  887MOL0     H22340   9.018  11.573   7.976  2.2971  1.0264 -2.8099
  887MOL0     H22341   9.221  11.400   7.837 -0.3728 -1.8969  1.7601
  887MOL0     H22342   9.186  11.571   7.810  1.0966 -0.8227  0.0205
  887MOL0     H22343   9.281  11.641   8.029 -0.4121  1.5383 -2.4059
  887MOL0     H22344   9.291  11.463   8.072  1.8786  1.4364  1.8085
  887MOL0     H22345   9.471  11.440   7.918  1.9784  0.3996  3.1524
  887MOL0     H22346   9.445  11.615   7.850 -2.0804  1.3224 -0.6260
  887MOL0     H22347   9.523  11.554   8.141  2.4179 -0.3214  0.4442
  887MOL0     H22348   9.511  11.705   8.043  0.3504 -0.7267 -1.0997
  887MOL0     H22349   9.711  11.627   7.913  2.0337  2.3196  2.1539
  887MOL0     H22350   9.743  11.626   8.083  1.0340  3.3157 -2.4681
  887MOL0     H22351   9.675  11.372   7.918 -0.9518 -1.1542  0.3299
  887MOL0     H22352   9.694  11.378   8.090 -0.2094  0.1846 -0.0127
  887MOL0     H22353   9.887  11.467   7.883 -3.4679 -3.9794 -3.0618
  887MOL0     H22354   9.930  11.448   8.059  0.1865 -1.7190  1.3927
  887MOL0     H22355   9.996  11.201   8.155  2.6669 -1.6142 -1.4828
  887MOL0     H22356  10.062  10.864   7.984  2.9552 -0.2654  0.4645
  887MOL0     H22357   9.987  10.912   8.133  0.2501 -0.1961  1.1631
  887MOL0     H22358  10.264  11.022   8.060  1.3157  0.3140  0.7781
  887MOL0     H22359  10.189  11.035   8.216  1.8657 -0.7920 -1.0023
  887MOL0     H22360  10.166  10.797   8.236  1.1421 -0.0013  2.3706
  887MOL0     H22361  10.272  10.773   8.099  1.7204  1.1542 -0.4968
  887MOL0     H22362  10.429  10.938   8.207  1.4480 -1.1203  0.4576
  887MOL0     H22363  10.321  10.935   8.349 -0.0661  0.0124 -0.4726
  887MOL0     H22364  10.627  10.789   8.162 -1.9348 -2.8436  0.1691
  887MOL0     H22365  10.908  10.943   8.224  1.3228 -0.3101  0.9762
  887MOL0     H22366  10.873  10.797   8.122  0.6444 -1.0446  1.0108
  887MOL0     H22367  10.992  10.793   8.248 -0.3329 -1.8602  0.1745
  887MOL0     H22368  10.915  10.802   8.897 -1.0944 -0.1278 -2.8695
  887MOL0     H22369  11.099  10.863   9.072 -2.4705  1.4834  0.6118
  887MOL0     H22370  11.243  11.009   9.171 -1.6578 -1.6143 -0.9857
  887MOL0     H22371  11.339  10.866   9.168  2.9391  0.3279 -0.9101
  887MOL0     H22372  11.447  11.139   9.233 -3.0533  0.2745 -2.2501
  887MOL0     H22373  11.475  10.986   9.313  1.7022  1.8195  0.9833
  887MOL0     H22374  11.600  11.066   9.045 -0.0296  0.4144 -0.5457
  887MOL0     H22375  11.615  10.915   9.142  1.4592 -0.0709 -0.1331
  887MOL0     H22376  11.699  11.024   9.336 -0.5955  3.2656  2.1578
  887MOL0     H22377  11.683  11.181   9.258 -1.3142 -0.8538 -1.0425
  887MOL0     H22378  11.863  11.121   9.100 -1.2799 -0.0278 -0.6072
  887MOL0     H22379  11.925  11.101   9.266  2.2538 -0.7548 -1.3625
  887MOL0     H22380  12.002  10.933   9.139 -1.0271  0.1704 -0.1987
  887MOL0     H22381  11.859  10.891   9.069 -1.2326  3.2511 -0.0449
  887MOL0     H22382  11.761  10.793   9.262  0.3978  0.2497 -0.5207
  887MOL0     H22383  11.883  10.876   9.371  2.0369  0.5665 -1.2503
  887MOL0     H22384  11.924  10.622   9.351 -0.3936  0.9272  1.1963
  887MOL0     H22385  12.059  10.715   9.280  0.0148 -0.3766  0.8049
  887MOL0     H22386  11.331  11.035   8.751 -0.3451  0.2356  0.1314
  887MOL0     H22387  11.144  10.961   8.590 -1.7328 -0.8683  0.9623
  887MOL0     H22388  10.716  10.706   8.644  0.8670 -1.0521  0.0807
  887MOL0     H22389  10.489  10.693   8.545  1.5676 -1.9404  1.1515
  887MOL0     H22390   8.832  11.388   8.069 -0.1555  5.1687  0.3703
  887MOL0     H22391   8.596  11.343   8.095 -1.1024  3.0697 -0.4763
  887MOL0     H22392   8.238  11.363   7.731  1.1397  0.3126 -0.6795
  887MOL0     H22393   8.002  11.347   7.670  2.8721  1.0206 -1.4520
  887MOL0     H22394   7.748  11.354   7.853  3.1292 -0.3429 -0.3605
  887MOL0     H22395   7.792  11.375   7.671 -2.2320 -2.3824 -4.4434
  887MOL0     H22396   7.626  11.203   7.621  3.1194  0.4351  0.3414
  887MOL0     H22397   7.543  11.349   7.667 -1.5647 -1.2578 -0.2340
  887MOL0     H22398   7.421  11.184   7.780  0.5356 -3.0511 -0.7327
  887MOL0     H22399   7.575  11.122   7.850  0.3537 -0.1960 -1.0633
  887MOL0     H22400   7.485  11.416   7.928 -1.6812  1.3419  3.3717
  887MOL0     H22401   7.580  11.294   8.006 -0.9227  0.5478 -0.1780
  887MOL0     H22402   7.209  11.158   8.144 -0.4136  5.4040  3.8315
  887MOL0     H22403   7.923  11.046   7.944 -1.0809  0.7327 -2.7429
  887MOL0     H22404   8.264  10.972   8.038 -1.6776 -3.0171  1.4806
  887MOL0     H22405   8.195  11.095   8.142  0.3682 -0.1339 -0.5286
  887MOL0     H22406   8.094  10.959   8.089 -0.0884 -0.6785  0.4525
  888MOL0     O22407   6.103   5.132   2.718  0.0158 -0.3626  0.1143
  888MOL0     C22408   6.132   5.102   2.834  0.0746 -0.2683  0.3155
  888MOL0     O22409   6.262   5.100   2.872  0.1503  0.1467 -1.3310
  888MOL0     C22410   6.367   5.075   2.787  0.0181 -0.2306  0.1349
  888MOL0     C22411   6.362   4.988   2.680  0.6128  0.9228  0.5349
  888MOL0     C22412   6.477   4.970   2.603  0.2596  0.3433 -0.7005
  888MOL0     C22413   6.599   5.038   2.626 -1.2438  0.0787 -0.3672
  888MOL0     O22414   6.717   5.009   2.564  0.3135  0.0558  0.1327
  888MOL0     C22415   6.716   4.968   2.426 -0.6409 -0.5853 -0.3510
  888MOL0     C22416   6.854   5.004   2.347  0.2642  0.3059  0.1204
  888MOL0     C22417   6.982   4.925   2.396  0.3649 -0.7056 -0.2339
  888MOL0     C22418   7.060   4.984   2.517  0.3868 -0.7381 -0.3480
  888MOL0     C22419   7.148   4.862   2.562 -0.7400  0.6140 -0.8210
  888MOL0     C22420   7.239   4.878   2.685 -0.3120 -0.0476 -0.5545
  888MOL0     C22421   7.354   4.773   2.701  0.6351 -0.2388 -0.2958
  888MOL0     C22422   7.450   4.799   2.821  0.2147 -0.0824 -0.2000
  888MOL0     N22423   7.584   4.739   2.799  0.4970 -0.0997  0.8768
  888MOL0     C22424   7.674   4.798   2.713  0.1576  0.3515  0.1499
  888MOL0     C22425   7.772   4.708   2.704  0.0662  0.3877 -0.2336
  888MOL0     C22426   7.885   4.730   2.614 -0.4089 -0.1621  0.5058
  888MOL0     C22427   7.990   4.618   2.593  0.2975 -0.6323 -0.4647
  888MOL0     C22428   8.073   4.598   2.719  0.7509 -0.6383  0.4877
  888MOL0     C22429   8.169   4.486   2.702  0.2217  0.3591  0.0156
  888MOL0     O22430   8.271   4.524   2.611  0.4161 -0.0405  0.0024
  888MOL0     C22431   8.390   4.577   2.652  0.1786  0.2155 -0.2795
  888MOL0     C22432   8.428   4.611   2.780  0.7744 -0.8384 -0.6564
  888MOL0     C22433   8.554   4.670   2.811 -0.7353 -0.7062 -0.8013
  888MOL0     C22434   8.583   4.709   2.957  0.2430 -0.5086  0.9605
  888MOL0     C22435   8.647   4.696   2.702  0.4353  0.1603 -0.5222
  888MOL0     C22436   8.780   4.764   2.719  0.4387 -0.3314 -0.5383
  888MOL0     O22437   8.889   4.725   2.649 -0.0559 -0.3328 -0.2864
  888MOL0     C22438   9.000   4.804   2.653  0.6812  0.3222  0.7452
  888MOL0     C22439   9.015   4.904   2.561  0.5261 -0.5194 -0.4267
  888MOL0     C22440   9.134   4.973   2.554 -0.3574 -0.0210  0.5825
  888MOL0     C22441   9.247   4.931   2.625 -0.2190 -0.6179  0.6319
  888MOL0     O22442   9.366   4.995   2.602  0.4637 -0.6503  0.6683
  888MOL0     C22443   9.439   4.950   2.496  0.4998  0.4839 -0.5126
  888MOL0     C22444   9.587   4.957   2.524  0.1808  0.6672  0.1132
  888MOL0     C22445   9.624   4.860   2.643 -0.0821 -0.0284 -0.5984
  888MOL0     C22446   9.778   4.844   2.657 -0.1760 -0.2759  0.3344
  888MOL0     C22447   9.847   4.969   2.725 -0.3213 -0.0689  0.0237
  888MOL0     C22448   9.985   4.939   2.779 -1.0716 -0.3690  0.2859
  888MOL0     C22449  10.107   4.945   2.684 -0.7311  0.5736  0.4878
  888MOL0     C22450  10.240   4.904   2.745  0.3853  0.8242  0.0356
  888MOL0    Cl22451  10.372   4.879   2.624 -0.1525 -0.0415  0.3719
  888MOL0     C22452   9.234   4.822   2.710  0.3255 -0.2269  0.1469
  888MOL0     C22453   9.108   4.765   2.732 -0.0575 -0.1073  0.0024
  888MOL0     O22454   8.780   4.864   2.793 -0.2852 -0.2066  0.3498
  888MOL0     C22455   8.609   4.659   2.571 -0.0410  0.2049  0.4962
  888MOL0     C22456   8.480   4.603   2.550 -0.0833  0.6400  0.3487
  888MOL0     N22457   7.746   4.600   2.790 -0.2388  1.0707 -0.2991
  888MOL0     N22458   7.630   4.620   2.844  0.1092  0.0246 -0.0324
  888MOL0     C22459   6.603   5.117   2.743  0.3976  0.0289 -1.0555
  888MOL0     C22460   6.494   5.137   2.824  0.4642  0.5918 -0.1760
  888MOL0     C22461   6.028   5.085   2.933 -0.3925 -0.2759  0.3911
  888MOL0     C22462   6.054   5.128   3.062 -0.5346  0.9372 -0.4513
  888MOL0     C22463   5.961   5.104   3.168  0.3506  0.9378  0.2104
  888MOL0     C22464   5.844   5.041   3.133  0.4989 -0.2083 -0.5704
  888MOL0     O22465   5.749   5.011   3.232 -0.3665 -0.0313  1.0650
  888MOL0     C22466   5.609   5.036   3.203 -0.7958 -0.1281  0.7656
  888MOL0     C22467   5.523   5.037   3.331  0.5914 -0.6880  0.1090
  888MOL0     C22468   5.376   5.047   3.306  0.4133 -0.0499 -0.4109
  888MOL0     C22469   5.285   5.019   3.425  0.0059  0.3020 -0.5223
  888MOL0     C22470   5.273   4.867   3.446 -0.2472  0.7104  0.7190
  888MOL0     C22471   5.285   4.743   3.459 -0.3514 -0.7801 -0.6059
  888MOL0     C22472   5.811   5.009   3.000 -0.5533 -0.6154  0.8423
  888MOL0     C22473   5.906   5.022   2.902  0.4333 -0.4057  0.5842
  888MOL0     C22474   5.858   4.992   2.755  0.2465  0.8068 -1.1050
  888MOL0     H22475   6.269   4.936   2.666  0.5030  1.4929 -1.0328
  888MOL0     H22476   6.477   4.898   2.522 -0.6109  1.9166 -2.1705
  888MOL0     H22477   6.638   5.016   2.367 -2.3757 -1.6575  0.9926
  888MOL0     H22478   6.689   4.862   2.425 -0.6297 -0.5996 -2.2111
  888MOL0     H22479   6.836   4.975   2.243 -3.0559 -0.8634  0.8752
  888MOL0     H22480   6.867   5.112   2.349  0.8111  0.2370  1.6557
  888MOL0     H22481   6.948   4.822   2.410  3.2610 -1.6920  0.1304
  888MOL0     H22482   7.042   4.924   2.305 -0.7731 -0.2638 -1.0185
  888MOL0     H22483   7.112   5.073   2.482  0.5609 -0.8292 -0.3221
  888MOL0     H22484   6.995   5.030   2.592  2.3966  1.0001  0.4229
  888MOL0     H22485   7.209   4.821   2.481  3.1780  1.9641  1.1661
  888MOL0     H22486   7.081   4.781   2.592  0.7739  0.8406  4.0199
  888MOL0     H22487   7.295   4.970   2.666  1.7923 -1.1880 -0.2070
  888MOL0     H22488   7.177   4.894   2.774  0.6505  2.0257 -0.1887
  888MOL0     H22489   7.421   4.774   2.615 -1.8285  0.2802 -2.3359
  888MOL0     H22490   7.315   4.671   2.705  1.1461 -0.4171  0.2122
  888MOL0     H22491   7.463   4.906   2.836 -0.8075 -0.1499  1.3957
  888MOL0     H22492   7.410   4.757   2.914 -0.7988 -0.0311 -0.6022
  888MOL0     H22493   7.656   4.887   2.653  2.5487  0.4332 -0.5586
  888MOL0     H22494   7.932   4.821   2.652 -0.5066 -0.2218  0.7687
  888MOL0     H22495   7.837   4.757   2.519  0.9997  1.5583  0.2230
  888MOL0     H22496   7.936   4.528   2.562 -1.1506  0.2531 -0.5710
  888MOL0     H22497   8.066   4.639   2.517  1.3819  0.2771  0.8183
  888MOL0     H22498   8.135   4.683   2.750 -2.2303  1.0029  2.3678
  888MOL0     H22499   8.010   4.577   2.806  1.2709 -1.5831  0.6578
  888MOL0     H22500   8.215   4.460   2.797  0.7652  0.0420 -0.3264
  888MOL0     H22501   8.120   4.397   2.661 -1.1865  0.9753  0.3035
  888MOL0     H22502   8.365   4.598   2.867  4.7560 -0.9520  2.4747
  888MOL0     H22503   8.483   4.721   2.999 -1.0899 -3.1453 -1.1468
  888MOL0     H22504   8.643   4.798   2.975  0.2685 -0.4029  0.3890
  888MOL0     H22505   8.622   4.622   3.010 -0.2370 -1.2328  0.1556
  888MOL0     H22506   8.933   4.925   2.493  1.3208 -0.8295 -1.4935
  888MOL0     H22507   9.147   5.047   2.476  0.2624 -0.5009  0.2235
  888MOL0     H22508   9.402   4.851   2.468 -2.4783  1.0911  0.9446
  888MOL0     H22509   9.411   5.016   2.414  0.8390  1.1177 -0.1263
  888MOL0     H22510   9.651   4.936   2.438 -0.5829  0.7233 -0.4772
  888MOL0     H22511   9.616   5.056   2.561 -2.4759  1.6847 -0.2993
  888MOL0     H22512   9.567   4.767   2.632 -0.1193 -0.1900  0.7777
  888MOL0     H22513   9.593   4.901   2.740  1.0372  0.7081 -0.5439
  888MOL0     H22514   9.834   4.838   2.563 -0.4450 -1.9283  0.2582
  888MOL0     H22515   9.806   4.753   2.711 -1.5167 -0.6503  0.4401
  888MOL0     H22516   9.860   5.056   2.660  2.0746 -0.7270 -0.4577
  888MOL0     H22517   9.793   5.021   2.805 -0.5017  0.8600 -0.6837
  888MOL0     H22518   9.991   4.849   2.842  2.6909  0.4924  1.3914
  888MOL0     H22519  10.006   5.024   2.845  0.4091  1.8815 -2.8776
  888MOL0     H22520  10.125   5.041   2.635 -0.1398 -0.0439 -0.5356
  888MOL0     H22521  10.088   4.870   2.606 -2.6867  1.1964  0.3025
  888MOL0     H22522  10.233   4.812   2.804 -1.1776 -0.7305 -2.4016
  888MOL0     H22523  10.281   4.976   2.816  1.7460  1.2594 -1.1442
  888MOL0     H22524   9.319   4.778   2.762 -0.8535 -3.3230 -0.3646
  888MOL0     H22525   9.098   4.682   2.802  0.1849 -1.1026 -1.1158
  888MOL0     H22526   8.668   4.673   2.480 -3.4140 -2.9656 -2.4988
  888MOL0     H22527   8.444   4.588   2.448  1.5936 -1.2351 -0.0372
  888MOL0     H22528   6.694   5.168   2.774 -0.9397  1.8761 -0.0020
  888MOL0     H22529   6.511   5.193   2.915  0.7660  0.9105 -0.4246
  888MOL0     H22530   6.152   5.168   3.085 -0.3728  0.6476 -0.6396
  888MOL0     H22531   5.997   5.135   3.266  1.6364  2.3795 -0.6736
  888MOL0     H22532   5.576   5.130   3.158 -3.6796 -2.2885 -2.0492
  888MOL0     H22533   5.582   4.953   3.138 -0.1892 -0.1976  0.5975
  888MOL0     H22534   5.556   5.117   3.398 -0.7888 -1.0143  1.2296
  888MOL0     H22535   5.533   4.943   3.387  1.0776 -2.6689 -3.0160
  888MOL0     H22536   5.356   5.147   3.268 -0.5359 -0.6685 -1.6128
  888MOL0     H22537   5.355   4.980   3.222 -0.2433 -1.5962  0.9192
  888MOL0     H22538   5.187   5.068   3.416 -0.7910 -0.2532  3.3027
  888MOL0     H22539   5.338   5.062   3.510 -1.7680 -0.3448  0.9705
  888MOL0     H22540   5.288   4.637   3.470 -2.0904 -0.6917  1.5522
  888MOL0     H22541   5.713   4.978   2.966 -1.1520  1.8357  0.1513
  888MOL0     H22542   5.760   4.944   2.751  0.5117  0.2889 -1.5192
  888MOL0     H22543   5.854   5.090   2.706 -2.1852  1.0870 -0.4852
  888MOL0     H22544   5.925   4.927   2.699  0.8938  0.4216  0.0809
  889MOL0     O22545   6.606   1.746   7.930 -0.3063 -0.1543 -0.1304
  889MOL0     C22546   6.512   1.765   8.014 -0.0555 -0.0384  0.0580
  889MOL0     O22547   6.526   1.830   8.135 -0.1159  0.1469  0.3061
  889MOL0     C22548   6.648   1.877   8.172 -0.3324  0.4529  0.5486
  889MOL0     C22549   6.761   1.792   8.194  0.1144 -0.6093  0.0048
  889MOL0     C22550   6.880   1.853   8.229 -0.0826  0.1028 -0.0472
  889MOL0     C22551   6.888   1.991   8.253 -0.2468 -0.2160  0.0618
  889MOL0     O22552   7.022   2.029   8.279  0.3412 -0.8203  0.4444
  889MOL0     C22553   7.077   2.146   8.213 -1.1896  0.3487  0.6393
  889MOL0     C22554   7.084   2.130   8.057  0.0530  0.2053  0.7652
  889MOL0     C22555   7.153   2.239   7.986 -0.5194  0.6828  1.1899
  889MOL0     C22556   7.087   2.372   7.995 -0.0071 -0.5285  0.2097
  889MOL0     C22557   7.136   2.482   7.898  0.5299 -0.0424 -0.2338
  889MOL0     C22558   7.276   2.534   7.931  0.2424  0.3095  0.5159
  889MOL0     C22559   7.324   2.637   7.822 -0.4713 -0.5030  0.3826
  889MOL0     C22560   7.467   2.609   7.789 -0.8945  0.0285  0.1943
  889MOL0     N22561   7.563   2.595   7.903  0.4314  0.3808 -0.1551
  889MOL0     C22562   7.589   2.688   8.001  0.4711  0.9433 -0.0618
  889MOL0     C22563   7.697   2.628   8.062  0.1907  0.9158  0.5069
  889MOL0     C22564   7.779   2.662   8.183  0.0786 -0.0875 -0.4011
  889MOL0     C22565   7.897   2.764   8.166 -0.0783 -0.4950 -0.8656
  889MOL0     C22566   8.016   2.703   8.098  1.0194  0.9731  1.0842
  889MOL0     C22567   8.159   2.749   8.118  0.5186  0.4494 -0.0107
  889MOL0     O22568   8.198   2.695   8.244  0.1469  0.0368  0.8708
  889MOL0     C22569   8.328   2.720   8.283 -0.1089 -0.7379 -0.7712
  889MOL0     C22570   8.431   2.780   8.214  0.1739 -0.2395  0.2570
  889MOL0     C22571   8.537   2.838   8.274  0.8039  0.0336 -0.4491
  889MOL0     C22572   8.613   2.931   8.195 -0.5692 -0.1687 -0.8131
  889MOL0     C22573   8.567   2.798   8.411  0.3551  0.6727 -0.0546
  889MOL0     C22574   8.682   2.852   8.475  0.0463  0.2974  0.0989
  889MOL0     O22575   8.794   2.861   8.401 -0.6302 -0.1595  0.3408
  889MOL0     C22576   8.916   2.858   8.456 -0.2329 -0.2694  0.3944
  889MOL0     C22577   8.948   2.857   8.592  0.2848 -0.2250 -0.0937
  889MOL0     C22578   9.081   2.855   8.633 -0.0277  0.1030 -0.0966
  889MOL0     C22579   9.191   2.871   8.537  0.9078  0.1480 -0.9071
  889MOL0     O22580   9.326   2.867   8.551 -0.5032  0.2627 -1.1974
  889MOL0     C22581   9.379   2.867   8.691 -0.0288  0.6050  0.4195
  889MOL0     C22582   9.533   2.881   8.694 -0.9986 -0.5512  0.0204
  889MOL0     C22583   9.618   2.775   8.618  0.8675  0.4268  0.2235
  889MOL0     C22584   9.762   2.814   8.593 -0.6701  0.3847  0.1281
  889MOL0     C22585   9.850   2.705   8.524  1.2357 -0.1632 -0.2130
  889MOL0     C22586  10.004   2.741   8.536 -0.0723  0.3642  0.7484
  889MOL0     C22587  10.083   2.644   8.450 -0.1299 -0.1027  0.7103
  889MOL0     C22588  10.232   2.661   8.466 -0.5676  0.7097 -0.9611
  889MOL0    Cl22589  10.286   2.808   8.390 -0.0522  0.1969 -0.3356
  889MOL0     C22590   9.160   2.876   8.399 -0.2419  0.5132 -0.6670
  889MOL0     C22591   9.025   2.867   8.372 -0.4770 -0.0698  0.3350
  889MOL0     O22592   8.669   2.884   8.593 -0.1383  0.1925  0.0182
  889MOL0     C22593   8.480   2.714   8.477  0.1464 -0.0494 -0.5375
  889MOL0     C22594   8.360   2.679   8.416  0.2754 -0.3750  0.1599
  889MOL0     N22595   7.723   2.508   8.000 -0.2947  0.5365  0.1040
  889MOL0     N22596   7.640   2.490   7.908  0.6198 -0.3389  0.4294
  889MOL0     C22597   6.774   2.077   8.250  0.5150  0.5053  0.2546
  889MOL0     C22598   6.652   2.013   8.208  0.1404 -0.9589 -0.2981
  889MOL0     C22599   6.373   1.740   7.976  0.2376 -0.2053 -0.0343
  889MOL0     C22600   6.270   1.745   8.085  0.3968  0.2786  1.6369
  889MOL0     C22601   6.140   1.705   8.061  0.5971 -0.0834 -0.3373
  889MOL0     C22602   6.098   1.680   7.932 -0.0869  0.3507 -0.1075
  889MOL0     O22603   5.968   1.644   7.912 -0.1520 -0.9708  0.2247
  889MOL0     C22604   5.899   1.712   7.806 -0.5199 -0.3699  0.7784
  889MOL0     C22605   5.747   1.676   7.833  0.1285 -0.1422 -0.2139
  889MOL0     C22606   5.641   1.767   7.782  0.9445  0.4767  1.1368
  889MOL0     C22607   5.501   1.706   7.821 -0.2867  0.8914  0.7801
  889MOL0     C22608   5.407   1.796   7.764 -0.2613  0.2007  0.1498
  889MOL0     C22609   5.321   1.869   7.723  0.5673  1.2683 -0.1434
  889MOL0     C22610   6.194   1.669   7.829 -0.8250 -0.4220  0.4849
  889MOL0     C22611   6.328   1.708   7.840 -0.0904 -0.3201 -0.6372
  889MOL0     C22612   6.415   1.706   7.721  0.0175 -0.1591  0.2949
  889MOL0     H22613   6.759   1.683   8.196  3.7958 -0.8176 -0.6491
  889MOL0     H22614   6.974   1.797   8.231 -0.0106  0.1456 -1.3248
  889MOL0     H22615   7.178   2.167   8.251 -0.4056 -0.3567 -0.9483
  889MOL0     H22616   7.012   2.231   8.234 -0.0044  0.9723  1.9854
  889MOL0     H22617   7.136   2.036   8.041  0.7320  0.8353 -0.9230
  889MOL0     H22618   6.988   2.130   8.006  1.4498  2.8690 -2.2283
  889MOL0     H22619   7.256   2.242   8.025 -0.1955  1.7608  0.3150
  889MOL0     H22620   7.161   2.213   7.880  2.2288 -2.0612  1.9378
  889MOL0     H22621   6.981   2.348   7.985  0.1387 -1.6774  1.1614
  889MOL0     H22622   7.102   2.410   8.097 -0.1418 -0.3822  0.1757
  889MOL0     H22623   7.071   2.569   7.899  0.7132  0.1520 -1.9572
  889MOL0     H22624   7.131   2.450   7.793  0.6721 -0.1876 -0.1970
  889MOL0     H22625   7.275   2.582   8.029  0.4412  0.1630  0.5908
  889MOL0     H22626   7.352   2.456   7.940  0.1451 -0.0342 -1.2642
  889MOL0     H22627   7.332   2.740   7.857  0.0983 -0.7873  1.1015
  889MOL0     H22628   7.261   2.640   7.732 -1.8724  0.6664  1.3551
  889MOL0     H22629   7.471   2.520   7.726 -1.6723 -0.0834  0.2949
  889MOL0     H22630   7.512   2.690   7.730  1.0435 -0.6675  0.6551
  889MOL0     H22631   7.533   2.775   8.035  1.8651  1.2316  1.6491
  889MOL0     H22632   7.825   2.567   8.214 -0.8104 -0.6166 -0.6552
  889MOL0     H22633   7.714   2.689   8.266 -0.0393 -1.1306 -0.1417
  889MOL0     H22634   7.863   2.850   8.108 -1.2079 -2.2106 -2.8732
  889MOL0     H22635   7.930   2.799   8.265 -1.7840 -0.6569 -0.2037
  889MOL0     H22636   8.020   2.597   8.124 -3.1157  0.5051  0.4784
  889MOL0     H22637   8.001   2.707   7.990  0.1277  3.8679  1.2292
  889MOL0     H22638   8.219   2.725   8.030 -1.0985  0.6227 -1.2014
  889MOL0     H22639   8.155   2.858   8.126 -1.5723  0.6283 -2.1973
  889MOL0     H22640   8.411   2.807   8.111  2.9492 -1.1326 -0.6087
  889MOL0     H22641   8.646   3.007   8.267  0.2656  1.6661 -3.0162
  889MOL0     H22642   8.547   2.978   8.122 -0.5891  0.2878 -0.5105
  889MOL0     H22643   8.698   2.882   8.145 -1.1796 -1.2910 -0.7799
  889MOL0     H22644   8.870   2.837   8.665  0.2270  0.2778 -0.0106
  889MOL0     H22645   9.092   2.841   8.740 -1.3715  2.4359  0.4232
  889MOL0     H22646   9.330   2.948   8.746  0.6329  0.8948  0.5920
  889MOL0     H22647   9.356   2.774   8.745 -0.7814 -0.1161 -1.0850
  889MOL0     H22648   9.564   2.974   8.645  1.2146 -0.9034  0.6542
  889MOL0     H22649   9.568   2.881   8.797 -0.7532 -0.9533 -0.0563
  889MOL0     H22650   9.566   2.751   8.525  0.7765 -2.4078  0.9198
  889MOL0     H22651   9.619   2.678   8.667  0.0487  0.2696 -0.0704
  889MOL0     H22652   9.809   2.833   8.690 -1.3560 -0.6066  0.6697
  889MOL0     H22653   9.774   2.905   8.533  2.6324 -0.3843 -0.6120
  889MOL0     H22654   9.831   2.607   8.569 -0.9092 -1.3226 -3.3402
  889MOL0     H22655   9.827   2.691   8.418  0.1779 -2.3589  0.2559
  889MOL0     H22656  10.039   2.739   8.639  4.6603 -1.1376 -0.6286
  889MOL0     H22657  10.014   2.845   8.503 -1.2388  0.3849  0.4004
  889MOL0     H22658  10.063   2.666   8.345  0.9163  1.7525  0.8557
  889MOL0     H22659  10.059   2.540   8.475 -2.2682 -0.3971 -2.0504
  889MOL0     H22660  10.283   2.569   8.435 -3.0966 -1.2220  0.1849
  889MOL0     H22661  10.261   2.673   8.571 -1.2333  0.2954 -0.7206
  889MOL0     H22662   9.242   2.888   8.329 -0.9053  0.4194 -1.4741
  889MOL0     H22663   9.006   2.880   8.266  2.1206 -2.2069 -0.5116
  889MOL0     H22664   8.496   2.687   8.581  2.1123  0.8790 -0.5549
  889MOL0     H22665   8.296   2.616   8.477  0.7512  0.5617  1.6717
  889MOL0     H22666   6.787   2.183   8.266  0.2944  0.3831  1.3185
  889MOL0     H22667   6.556   2.064   8.205  0.6499  0.0399 -0.0138
  889MOL0     H22668   6.278   1.766   8.191 -0.1007 -0.5448  1.8416
  889MOL0     H22669   6.066   1.709   8.140 -0.1706  0.2117 -1.0554
  889MOL0     H22670   5.903   1.822   7.811 -3.1868  0.1294 -3.3338
  889MOL0     H22671   5.936   1.679   7.709 -3.8154  0.0983 -0.7805
  889MOL0     H22672   5.731   1.675   7.941  1.6929  1.6363  0.0893
  889MOL0     H22673   5.730   1.575   7.795 -1.1714 -0.2030  0.4730
  889MOL0     H22674   5.664   1.862   7.830  2.2083  0.1341  1.2500
  889MOL0     H22675   5.642   1.775   7.672 -5.7460  3.3090  0.8314
  889MOL0     H22676   5.495   1.689   7.929  2.3572  2.7695  1.3347
  889MOL0     H22677   5.482   1.614   7.765 -0.6860  2.0012 -0.9851
  889MOL0     H22678   5.243   1.930   7.683  0.3031  0.0167 -1.6520
  889MOL0     H22679   6.163   1.632   7.731 -1.1477 -0.0833  0.4583
  889MOL0     H22680   6.471   1.799   7.707 -1.4906  1.4112  3.6471
  889MOL0     H22681   6.487   1.624   7.723 -0.7027 -0.8079  0.3254
  889MOL0     H22682   6.360   1.673   7.632  3.0400  0.3016 -1.8838
  890MOL0     O22683   2.996  11.094   0.977 -0.2561 -0.9519 -0.3472
  890MOL0     C22684   2.967  11.206   1.023  0.1910  0.0858  0.4778
  890MOL0     O22685   3.054  11.286   1.089 -0.1374  0.2107 -0.2289
  890MOL0     C22686   3.170  11.235   1.149 -0.5496  0.4937  0.2621
  890MOL0     C22687   3.286  11.316   1.162 -0.7262  0.7262  0.2234
  890MOL0     C22688   3.400  11.273   1.241 -0.1960 -0.7544  0.4070
  890MOL0     C22689   3.403  11.143   1.311  1.1894 -0.1773 -0.1199
  890MOL0     O22690   3.517  11.115   1.382  0.1953  0.4684 -0.5088
  890MOL0     C22691   3.525  10.978   1.433 -0.5984  0.4102 -0.0986
  890MOL0     C22692   3.661  10.950   1.488 -0.1584 -0.2758 -0.0164
  890MOL0     C22693   3.767  10.913   1.385  0.2681 -1.1627  0.6168
  890MOL0     C22694   3.910  10.882   1.443  0.3009 -0.1062 -0.5228
  890MOL0     C22695   4.010  10.833   1.337 -0.4889 -0.7330 -0.0966
  890MOL0     C22696   4.136  10.771   1.397 -0.0535  0.3653  0.1787
  890MOL0     C22697   4.236  10.751   1.288 -1.0712  0.6099 -0.0788
  890MOL0     C22698   4.184  10.665   1.172 -0.6795  0.4345  0.3621
  890MOL0     N22699   4.277  10.661   1.056  0.6329 -0.8845 -0.3281
  890MOL0     C22700   4.373  10.563   1.072  0.1185 -0.3059  0.0219
  890MOL0     C22701   4.451  10.581   0.962  0.4400  0.4596 -0.2611
  890MOL0     C22702   4.582  10.509   0.929 -0.1459 -0.3334  0.1350
  890MOL0     C22703   4.710  10.575   0.985 -0.2285  0.0843  0.0018
  890MOL0     C22704   4.739  10.685   0.892 -0.0285 -0.1363 -0.6154
  890MOL0     C22705   4.841  10.791   0.936 -0.3138  0.0336 -0.3651
  890MOL0     O22706   4.967  10.730   0.945  0.6439  0.0651 -0.0628
  890MOL0     C22707   5.088  10.802   0.952  0.4444  0.3477 -0.7329
  890MOL0     C22708   5.207  10.735   0.919  0.6312  0.0884 -0.4933
  890MOL0     C22709   5.332  10.795   0.929 -0.0368  0.6747  0.4273
  890MOL0     C22710   5.451  10.710   0.883 -0.2426  1.1136  0.3392
  890MOL0     C22711   5.336  10.928   0.981  0.3073 -0.0612 -0.2358
  890MOL0     C22712   5.464  10.994   1.000 -0.0658 -0.6331 -0.7934
  890MOL0     O22713   5.579  10.945   0.946 -0.0567 -0.1782  0.1409
  890MOL0     C22714   5.695  11.004   0.984 -0.3418  0.3500  0.1331
  890MOL0     C22715   5.805  10.942   1.045 -0.8644 -0.7485  0.2607
  890MOL0     C22716   5.923  11.011   1.074 -0.1764 -0.2542 -0.1269
  890MOL0     C22717   5.937  11.141   1.036  0.6772 -0.3662 -0.5056
  890MOL0     O22718   6.051  11.207   1.080  0.1844 -0.0279 -0.1342
  890MOL0     C22719   6.059  11.348   1.059 -1.2536  0.0891  0.1398
  890MOL0     C22720   6.193  11.394   1.115  0.8247  0.3360  0.2760
  890MOL0     C22721   6.201  11.391   1.269 -0.5472 -0.1255  0.5277
  890MOL0     C22722   6.339  11.398   1.336 -0.5811  0.1015 -0.2012
  890MOL0     C22723   6.418  11.516   1.288  0.2833  0.6233 -0.3741
  890MOL0     C22724   6.546  11.537   1.369  0.2173  0.3049 -0.1276
  890MOL0     C22725   6.623  11.645   1.310 -0.5724 -0.0815 -0.0998
  890MOL0     C22726   6.765  11.613   1.314 -0.1014  0.2026  0.2159
  890MOL0    Cl22727   6.814  11.468   1.212 -0.2045  0.3220  0.0669
  890MOL0     C22728   5.826  11.214   0.972 -0.0234 -0.0035  0.2503
  890MOL0     C22729   5.710  11.138   0.947  0.3422 -1.4109 -0.0402
  890MOL0     O22730   5.452  11.089   1.072 -0.2511  0.2814  0.4375
  890MOL0     C22731   5.211  10.990   1.022 -0.5393 -0.5167  1.2153
  890MOL0     C22732   5.095  10.930   0.999  1.2127  0.3496  0.6649
  890MOL0     N22733   4.392  10.676   0.880  0.1037  0.3515 -0.3264
  890MOL0     N22734   4.282  10.727   0.939  0.2485  0.4612 -0.3982
  890MOL0     C22735   3.282  11.075   1.301  0.5700  0.5995  0.4587
  890MOL0     C22736   3.171  11.115   1.226 -0.7508 -0.2032  0.1281
  890MOL0     C22737   2.826  11.249   0.998 -0.4142  0.4474 -0.6018
  890MOL0     C22738   2.729  11.155   0.938 -0.5299  0.1418 -0.1543
  890MOL0     C22739   2.604  11.190   0.903  0.9607 -0.5790  0.0713
  890MOL0     C22740   2.560  11.315   0.936 -1.0387 -0.6783  0.3756
  890MOL0     O22741   2.432  11.347   0.930  0.4125 -0.1191  0.1000
  890MOL0     C22742   2.332  11.252   0.980 -0.4300 -0.3964  1.1965
  890MOL0     C22743   2.201  11.325   1.003  0.5530 -0.1545 -0.4772
  890MOL0     C22744   2.082  11.231   0.989  0.3643  0.3950  0.2684
  890MOL0     C22745   1.950  11.306   0.999  0.6996 -0.3668  0.2206
  890MOL0     C22746   1.944  11.418   0.900 -0.3530  0.3795  0.1539
  890MOL0     C22747   1.955  11.510   0.820 -0.6651  0.4758 -1.0476
  890MOL0     C22748   2.650  11.407   0.985 -0.4233 -0.1731  0.5726
  890MOL0     C22749   2.786  11.382   1.011 -0.9574  0.0602  0.1370
  890MOL0     C22750   2.875  11.502   1.029 -0.5941  0.7328  0.5371
  890MOL0     H22751   3.296  11.413   1.115  0.6622 -0.2353 -1.5905
  890MOL0     H22752   3.493  11.329   1.248  0.8279 -2.4900  1.4237
  890MOL0     H22753   3.512  10.917   1.343  1.4171 -0.6440  0.2571
  890MOL0     H22754   3.456  10.945   1.512  0.7048  0.3176  1.0390
  890MOL0     H22755   3.699  11.044   1.530 -0.3378  0.3980 -1.3281
  890MOL0     H22756   3.665  10.878   1.571  1.8320  0.1029  0.2821
  890MOL0     H22757   3.730  10.830   1.325 -0.9848 -0.2321  0.0374
  890MOL0     H22758   3.778  11.006   1.327  2.2245 -1.0413  1.1028
  890MOL0     H22759   3.955  10.971   1.489 -0.9814  0.6922 -0.7537
  890MOL0     H22760   3.896  10.813   1.527  3.2443  2.2897  2.2234
  890MOL0     H22761   4.029  10.909   1.261 -2.1926 -0.2810 -0.1170
  890MOL0     H22762   3.961  10.751   1.283  1.3621  0.8428 -4.5993
  890MOL0     H22763   4.173  10.847   1.467  0.9726  1.1591 -1.1823
  890MOL0     H22764   4.122  10.680   1.456  1.6537 -0.0211  0.0233
  890MOL0     H22765   4.322  10.694   1.326 -0.7928  1.8371  1.2438
  890MOL0     H22766   4.277  10.847   1.256  0.5638  0.6610  1.9397
  890MOL0     H22767   4.158  10.564   1.206 -2.3773 -0.1239 -2.2871
  890MOL0     H22768   4.096  10.699   1.117 -0.5626  1.3081  0.7085
  890MOL0     H22769   4.391  10.505   1.161  1.8849  0.8495  0.4574
  890MOL0     H22770   4.588  10.502   0.820 -5.1965  1.5489 -0.5133
  890MOL0     H22771   4.568  10.406   0.963 -0.0754 -0.4134 -0.0774
  890MOL0     H22772   4.684  10.606   1.087  0.7578 -2.0576  0.9591
  890MOL0     H22773   4.798  10.510   0.989  0.8212  1.4499  0.0888
  890MOL0     H22774   4.771  10.639   0.798  1.4273  1.5531 -1.0128
  890MOL0     H22775   4.647  10.742   0.878  0.5446  0.9198 -0.2539
  890MOL0     H22776   4.844  10.878   0.871 -0.0681 -0.4135 -0.9595
  890MOL0     H22777   4.809  10.835   1.031 -1.1825  0.7639 -0.9877
  890MOL0     H22778   5.213  10.635   0.879 -2.2576 -0.1965 -0.4324
  890MOL0     H22779   5.430  10.603   0.871 -0.4722  1.1634  0.3016
  890MOL0     H22780   5.524  10.716   0.965 -1.6070 -1.3382  1.8482
  890MOL0     H22781   5.492  10.753   0.791  1.3993  3.5299  2.0765
  890MOL0     H22782   5.802  10.834   1.061 -4.2505 -0.6172  1.2861
  890MOL0     H22783   6.001  10.957   1.126  0.6652 -0.6273 -1.7190
  890MOL0     H22784   6.068  11.375   0.953  1.8103  1.5484  0.6297
  890MOL0     H22785   5.976  11.405   1.102 -0.9472  1.6897 -1.2864
  890MOL0     H22786   6.274  11.329   1.078  0.6659  1.0755 -1.4709
  890MOL0     H22787   6.201  11.497   1.080  0.7322  0.7410  1.3998
  890MOL0     H22788   6.164  11.294   1.303  0.7953 -1.4018 -1.4471
  890MOL0     H22789   6.138  11.466   1.318 -1.8295 -1.4902  1.0237
  890MOL0     H22790   6.386  11.305   1.303 -1.8864 -1.1671  1.3912
  890MOL0     H22791   6.335  11.394   1.445 -0.6618 -0.0037 -0.2079
  890MOL0     H22792   6.437  11.518   1.180  1.5823  3.2225 -0.1925
  890MOL0     H22793   6.355  11.605   1.300  0.6079  0.9041 -0.6849
  890MOL0     H22794   6.608  11.447   1.363 -0.3867 -0.2545  1.5266
  890MOL0     H22795   6.535  11.553   1.476  0.7070 -0.4110  0.0359
  890MOL0     H22796   6.610  11.742   1.360 -1.4210 -0.7317  0.9826
  890MOL0     H22797   6.594  11.660   1.206 -0.5217 -1.6791 -0.3609
  890MOL0     H22798   6.796  11.610   1.419 -1.5042  2.0810  0.7498
  890MOL0     H22799   6.812  11.701   1.268 -2.7216  0.7482 -1.6182
  890MOL0     H22800   5.836  11.319   0.946 -2.0179  0.6463  1.8768
  890MOL0     H22801   5.624  11.193   0.909 -0.2034 -2.0239  0.2919
  890MOL0     H22802   5.216  11.094   1.054  0.5824  0.4809 -1.8679
  890MOL0     H22803   5.001  10.976   1.027  0.1345  0.0683 -2.1292
  890MOL0     H22804   3.269  10.979   1.350  0.8433  0.9671  1.2731
  890MOL0     H22805   3.080  11.056   1.225 -1.0877  0.3131 -0.2019
  890MOL0     H22806   2.760  11.052   0.927  1.2704  0.3121  2.3935
  890MOL0     H22807   2.537  11.116   0.858 -0.6323  0.0699  1.2816
  890MOL0     H22808   2.311  11.180   0.900  0.9910  0.1530  0.2757
  890MOL0     H22809   2.359  11.202   1.073  2.7302  0.8255  1.0722
  890MOL0     H22810   2.196  11.408   0.931 -0.0757 -2.0566 -2.7665
  890MOL0     H22811   2.201  11.360   1.106  2.1599  1.2675 -0.8997
  890MOL0     H22812   2.080  11.171   0.897 -1.6748  0.1609  0.4282
  890MOL0     H22813   2.084  11.154   1.066 -3.5038 -2.3757 -2.0373
  890MOL0     H22814   1.959  11.350   1.099  1.0146 -1.5852  0.7375
  890MOL0     H22815   1.862  11.243   0.985 -0.3890  0.9409  0.8860
  890MOL0     H22816   1.958  11.595   0.755 -1.1172  1.7912  0.5854
  890MOL0     H22817   2.620  11.510   1.001 -3.5240 -0.9284  0.2311
  890MOL0     H22818   2.870  11.531   1.135 -0.4441  0.2609  0.6778
  890MOL0     H22819   2.980  11.487   1.001 -0.3394  2.0641  0.7165
  890MOL0     H22820   2.843  11.584   0.965  0.3562  0.8289  0.1712
  891MOL0     O22821  11.147   2.216   5.481  0.2837 -0.4192 -0.4801
  891MOL0     C22822  11.103   2.326   5.488  0.0728 -0.0772  0.3364
  891MOL0     O22823  11.185   2.438   5.503 -0.6398 -0.7325 -0.4101
  891MOL0     C22824  11.318   2.420   5.517  0.0575  0.5749  0.3875
  891MOL0     C22825  11.389   2.386   5.399  1.0715 -0.9595  0.2386
  891MOL0     C22826  11.527   2.359   5.395 -0.4459 -0.5419 -0.3418
  891MOL0     C22827  11.601   2.369   5.523 -0.8095  0.4783  0.7376
  891MOL0     O22828  11.734   2.355   5.521 -0.9760 -0.3026 -1.0954
  891MOL0     C22829  11.786   2.277   5.631 -0.7631 -0.5918 -1.2394
  891MOL0     C22830  11.926   2.230   5.584  0.4777 -0.3947 -0.7072
  891MOL0     C22831  11.893   2.156   5.445 -0.4952  0.3398 -0.8298
  891MOL0     C22832  11.971   2.231   5.327 -0.0495 -0.4154 -0.0864
  891MOL0     C22833  11.938   2.163   5.196  0.1942  0.0487  0.7981
  891MOL0     C22834  11.973   2.256   5.074  0.2800 -0.0135  0.0878
  891MOL0     C22835  12.123   2.302   5.049 -0.1460  0.1381 -0.5310
  891MOL0     C22836  12.217   2.185   5.017  0.1502  0.3867  0.2920
  891MOL0     N22837  12.251   2.191   4.873 -0.6990  0.0672  0.1069
  891MOL0     C22838  12.324   2.288   4.812 -0.7787  0.1412  1.0638
  891MOL0     C22839  12.336   2.254   4.685  0.0256 -0.7946  0.0954
  891MOL0     C22840  12.420   2.315   4.574 -1.0141  0.3166  0.4757
  891MOL0     C22841  12.572   2.282   4.575  0.7063 -0.2784 -0.5253
  891MOL0     C22842  12.629   2.343   4.442  0.3486 -0.0273  0.0621
  891MOL0     C22843  12.780   2.337   4.437 -0.3318 -0.1250 -0.2495
  891MOL0     O22844  12.816   2.201   4.417 -0.2591  0.6050 -0.3544
  891MOL0     C22845  12.948   2.167   4.453  0.2111 -1.2553 -0.3023
  891MOL0     C22846  13.061   2.252   4.462  0.3835  0.3845 -0.2193
  891MOL0     C22847  13.185   2.200   4.498  0.4740 -0.2778 -0.3102
  891MOL0     C22848  13.304   2.297   4.475  0.5761  0.3679 -0.2881
  891MOL0     C22849  13.198   2.066   4.545 -0.6130  0.1133  0.2357
  891MOL0     C22850  13.336   2.005   4.569  0.2041 -0.1991  0.1196
  891MOL0     O22851  13.441   2.080   4.620  0.6931 -0.2796  0.4902
  891MOL0     C22852  13.567   2.038   4.641 -0.2713  0.3553 -0.8793
  891MOL0     C22853  13.664   2.141   4.633 -0.3927 -0.6433  0.0790
  891MOL0     C22854  13.799   2.107   4.648 -0.1033 -0.1197 -0.1644
  891MOL0     C22855  13.845   1.971   4.660 -0.3280 -0.7488  0.0030
  891MOL0     O22856  13.977   1.942   4.691 -0.5669 -0.6910  0.4155
  891MOL0     C22857  14.078   2.036   4.649 -0.1541  0.0321  0.9435
  891MOL0     C22858  14.219   1.994   4.671 -0.3653 -0.0796 -0.5559
  891MOL0     C22859  14.270   2.005   4.816 -0.6062  1.5642  0.4904
  891MOL0     C22860  14.280   2.148   4.875  0.2311  0.6727 -0.0207
  891MOL0     C22861  14.329   2.135   5.022 -0.4401  0.3527  0.5820
  891MOL0     C22862  14.479   2.090   5.047 -0.0121 -0.0198  0.1500
  891MOL0     C22863  14.494   2.047   5.198  0.6630  0.4595 -0.0446
  891MOL0     C22864  14.631   1.991   5.216  0.1244 -0.2540 -0.6782
  891MOL0    Cl22865  14.657   1.832   5.158  0.0155 -0.2984  0.5179
  891MOL0     C22866  13.746   1.877   4.671 -0.1792 -0.3892 -0.4643
  891MOL0     C22867  13.613   1.908   4.650  0.3927  0.5490 -1.2392
  891MOL0     O22868  13.347   1.887   4.547  0.5572  0.1316 -0.0474
  891MOL0     C22869  13.080   1.992   4.547 -0.4525 -0.5000 -0.5501
  891MOL0     C22870  12.962   2.039   4.503  0.4667  0.8791  0.1795
  891MOL0     N22871  12.257   2.140   4.665 -0.5775  0.3081  0.7820
  891MOL0     N22872  12.227   2.099   4.780  0.5075 -0.0251  0.0401
  891MOL0     C22873  11.531   2.409   5.638  0.3350  0.5508  0.2154
  891MOL0     C22874  11.388   2.439   5.632  0.6158  0.1012  0.3094
  891MOL0     C22875  10.955   2.356   5.486  0.5204  0.7236  0.4920
  891MOL0     C22876  10.922   2.488   5.465  0.3291  0.2696  0.1566
  891MOL0     C22877  10.791   2.535   5.459  0.2475  0.2794 -0.6726
  891MOL0     C22878  10.683   2.449   5.479  0.2337 -1.5093 -1.0833
  891MOL0     O22879  10.553   2.505   5.473 -0.0859  0.8370  0.1156
  891MOL0     C22880  10.504   2.574   5.582  0.4034  1.1887 -0.4517
  891MOL0     C22881  10.351   2.600   5.557  0.6742  0.9353 -0.3792
  891MOL0     C22882  10.273   2.494   5.463  0.0626 -0.3171 -0.4513
  891MOL0     C22883  10.126   2.503   5.480  0.2634 -0.3609 -0.1005
  891MOL0     C22884  10.064   2.637   5.467 -0.2708  0.7861 -0.7880
  891MOL0     C22885  10.013   2.747   5.441  0.0890  0.5361  0.0358
  891MOL0     C22886  10.706   2.314   5.498  0.3381 -0.5971 -0.0705
  891MOL0     C22887  10.842   2.267   5.504  0.7744  0.4617  0.8283
  891MOL0     C22888  10.855   2.115   5.512  0.3869 -0.1752  0.5271
  891MOL0     H22889  11.322   2.366   5.316  1.0479 -0.9681  0.2605
  891MOL0     H22890  11.570   2.312   5.307 -0.8186 -0.6654 -0.4622
  891MOL0     H22891  11.713   2.198   5.647 -0.6802 -0.3420  0.5038
  891MOL0     H22892  11.794   2.345   5.716  1.0438 -0.7057 -1.2732
  891MOL0     H22893  11.982   2.322   5.569 -0.0628  0.1836  0.6653
  891MOL0     H22894  11.961   2.170   5.668  0.0157  0.6043  0.2204
  891MOL0     H22895  11.932   2.055   5.459 -1.0307  0.0944 -1.0808
  891MOL0     H22896  11.788   2.150   5.415 -0.4452  0.0365 -0.9486
  891MOL0     H22897  11.932   2.332   5.313 -1.5599 -0.6385  2.0385
  891MOL0     H22898  12.080   2.230   5.341 -0.1195  1.6971  1.1190
  891MOL0     H22899  11.830   2.150   5.195 -0.7922  5.8012  0.2915
  891MOL0     H22900  11.994   2.069   5.188  1.2481  0.8130 -3.0223
  891MOL0     H22901  11.946   2.213   4.978  0.6579 -0.9176  0.3765
  891MOL0     H22902  11.909   2.345   5.083  0.1021  0.1085 -2.0265
  891MOL0     H22903  12.156   2.366   5.132 -0.3241  1.8892 -1.7552
  891MOL0     H22904  12.130   2.370   4.964  0.0456 -0.2331 -0.8130
  891MOL0     H22905  12.308   2.192   5.078  0.1464 -3.0137  0.9150
  891MOL0     H22906  12.170   2.088   5.040 -4.0451  1.9873 -0.6819
  891MOL0     H22907  12.370   2.373   4.863 -1.2015  0.1143  1.4976
  891MOL0     H22908  12.413   2.423   4.585  1.1351  0.5664 -0.0101
  891MOL0     H22909  12.392   2.280   4.474  1.0773  1.5105 -0.5896
  891MOL0     H22910  12.631   2.330   4.654  2.4497  0.2764 -2.0774
  891MOL0     H22911  12.588   2.175   4.587 -3.2767 -1.1569 -1.6601
  891MOL0     H22912  12.593   2.291   4.353  0.8756  0.1399 -0.2555
  891MOL0     H22913  12.612   2.450   4.433  1.4617 -0.0093 -2.6142
  891MOL0     H22914  12.812   2.401   4.354  1.9031 -0.7450  0.0640
  891MOL0     H22915  12.827   2.380   4.526 -2.5642 -1.7285  1.8388
  891MOL0     H22916  13.050   2.354   4.429 -0.4160  0.3900  0.0246
  891MOL0     H22917  13.367   2.267   4.391  0.3621 -2.3680  0.4425
  891MOL0     H22918  13.360   2.334   4.562 -0.8783  3.1041 -0.4037
  891MOL0     H22919  13.257   2.389   4.439 -1.7177 -0.6953 -0.1408
  891MOL0     H22920  13.644   2.247   4.622  2.6372  0.1206  0.9751
  891MOL0     H22921  13.874   2.186   4.641 -0.3201 -0.0487 -2.1322
  891MOL0     H22922  14.078   2.032   4.539 -0.9634 -0.1453  0.9470
  891MOL0     H22923  14.077   2.138   4.688 -2.7067  0.8980 -1.0736
  891MOL0     H22924  14.223   1.888   4.641 -4.4554 -0.5772  0.0153
  891MOL0     H22925  14.284   2.050   4.604  2.8496 -2.5539  0.2000
  891MOL0     H22926  14.372   1.967   4.819 -0.8452  0.9182  0.6840
  891MOL0     H22927  14.204   1.943   4.879 -1.1210  0.9879 -0.5856
  891MOL0     H22928  14.186   2.204   4.868  0.3499  0.7170 -1.5870
  891MOL0     H22929  14.348   2.214   4.820 -0.1985  1.7037  0.6687
  891MOL0     H22930  14.311   2.236   5.060 -0.8617  0.1984  0.7996
  891MOL0     H22931  14.273   2.057   5.074 -1.8773  1.6563  1.0772
  891MOL0     H22932  14.534   2.184   5.038  1.3270 -0.8112 -0.2364
  891MOL0     H22933  14.513   2.015   4.975  1.1006  0.8184 -0.2143
  891MOL0     H22934  14.428   1.960   5.209 -0.2324  0.5381 -3.5757
  891MOL0     H22935  14.476   2.126   5.270 -2.8992 -0.7752  0.6147
  891MOL0     H22936  14.659   1.990   5.322 -4.3363  2.6686  0.8092
  891MOL0     H22937  14.693   2.065   5.163 -1.5231  0.8318 -1.1532
  891MOL0     H22938  13.786   1.780   4.699  3.6928  0.6062 -1.8252
  891MOL0     H22939  13.547   1.823   4.656  1.0961 -0.0091 -1.2382
  891MOL0     H22940  13.086   1.896   4.597 -2.3985 -0.4625 -0.1853
  891MOL0     H22941  12.873   1.977   4.505  0.6028  0.6176  3.4425
  891MOL0     H22942  11.578   2.415   5.736 -0.8898 -0.3889  0.8931
  891MOL0     H22943  11.336   2.475   5.720  1.2603  1.1456  0.2803
  891MOL0     H22944  10.991   2.571   5.454  0.2080  0.2713 -0.6435
  891MOL0     H22945  10.773   2.641   5.452 -2.9460  0.0857  2.1084
  891MOL0     H22946  10.513   2.518   5.676  0.5340 -0.1539 -1.2311
  891MOL0     H22947  10.564   2.662   5.609 -1.1238  1.6817  1.6030
  891MOL0     H22948  10.338   2.693   5.501 -2.4450 -1.1471 -3.5668
  891MOL0     H22949  10.298   2.613   5.652  0.6333 -1.1561 -0.0622
  891MOL0     H22950  10.297   2.500   5.357 -0.4391 -1.0781 -0.6147
  891MOL0     H22951  10.305   2.394   5.496  1.4285  0.2330 -0.0689
  891MOL0     H22952  10.101   2.460   5.577  1.5363  1.4259  1.0859
  891MOL0     H22953  10.072   2.448   5.402 -2.8369  1.1926  0.7981
  891MOL0     H22954   9.956   2.836   5.426 -0.3478  0.1145 -0.8837
  891MOL0     H22955  10.620   2.247   5.496  0.9150 -1.3386 -0.9892
  891MOL0     H22956  10.899   2.087   5.608  1.3918 -0.8401 -0.1097
  891MOL0     H22957  10.765   2.053   5.501  1.1486 -1.1103 -0.6885
  891MOL0     H22958  10.928   2.087   5.435 -1.2393  1.7358 -1.9062
  892MOL0     O22959   0.894   7.417   8.306 -0.3853 -0.7383 -0.0809
  892MOL0     C22960   0.917   7.365   8.416 -0.5896 -0.1770  0.3877
  892MOL0     O22961   1.014   7.275   8.444 -0.3659  0.0211 -1.0585
  892MOL0     C22962   1.111   7.276   8.352 -0.8168  0.5670  0.0846
  892MOL0     C22963   1.110   7.197   8.233 -0.7695 -0.2109  0.1853
  892MOL0     C22964   1.218   7.201   8.140  1.0204  0.2093  0.8875
  892MOL0     C22965   1.335   7.276   8.170  0.3508  0.4226  0.1024
  892MOL0     O22966   1.453   7.276   8.094 -0.2913  0.7420  0.1069
  892MOL0     C22967   1.436   7.258   7.953  0.7981 -0.4956 -1.2818
  892MOL0     C22968   1.526   7.363   7.887 -0.0306 -0.2848 -0.8082
  892MOL0     C22969   1.678   7.360   7.929  0.2809  0.2946 -0.5871
  892MOL0     C22970   1.759   7.446   7.831 -0.0018 -0.0168 -0.0496
  892MOL0     C22971   1.897   7.503   7.888  0.4048  0.0463  1.0870
  892MOL0     C22972   1.978   7.578   7.784  0.1325 -0.6518  0.8766
  892MOL0     C22973   2.083   7.662   7.862 -0.3770 -0.3660  0.2867
  892MOL0     C22974   2.162   7.737   7.756  0.6168 -0.4803 -0.0934
  892MOL0     N22975   2.307   7.736   7.793 -0.0103  0.7874  0.0253
  892MOL0     C22976   2.371   7.830   7.869 -0.0518  0.0910 -0.3294
  892MOL0     C22977   2.497   7.792   7.882 -0.9909 -0.9589 -0.8655
  892MOL0     C22978   2.592   7.863   7.976  0.2032  1.1164  0.9397
  892MOL0     C22979   2.615   8.000   7.913 -0.3326  0.0561 -0.1105
  892MOL0     C22980   2.684   8.007   7.777 -0.0141 -0.4422  0.0326
  892MOL0     C22981   2.834   7.981   7.783 -0.4439  0.5719 -0.0013
  892MOL0     O22982   2.892   8.040   7.660 -0.5000 -0.3172 -0.4286
  892MOL0     C22983   3.027   8.064   7.664  0.5765  0.3424 -0.0406
  892MOL0     C22984   3.071   8.172   7.576 -0.7787 -0.3190  1.1525
  892MOL0     C22985   3.203   8.220   7.576  0.2903  0.1691 -0.6192
  892MOL0     C22986   3.239   8.329   7.478 -0.7136 -0.7655  0.5896
  892MOL0     C22987   3.291   8.163   7.663 -0.3624  0.1130  0.8650
  892MOL0     C22988   3.437   8.197   7.677 -0.1517  0.5762  0.1371
  892MOL0     O22989   3.534   8.109   7.694  0.4509  0.4469  0.0799
  892MOL0     C22990   3.662   8.153   7.685 -0.8435  1.1488  0.2166
  892MOL0     C22991   3.715   8.212   7.578  0.3784 -0.0083  0.9911
  892MOL0     C22992   3.844   8.262   7.565  0.0291  0.0557  0.5306
  892MOL0     C22993   3.933   8.261   7.681  0.3922  0.8388 -0.0977
  892MOL0     O22994   4.062   8.300   7.697 -0.1935 -0.4425 -0.6117
  892MOL0     C22995   4.116   8.386   7.600  0.1232  0.8522  0.0898
  892MOL0     C22996   4.232   8.449   7.666 -0.2496 -0.1197 -0.1828
  892MOL0     C22997   4.321   8.518   7.557  0.3078  0.1111  0.5685
  892MOL0     C22998   4.423   8.615   7.627  0.3899  0.4457 -0.1939
  892MOL0     C22999   4.516   8.674   7.521 -0.5116  0.1764  0.5065
  892MOL0     C23000   4.594   8.796   7.573  0.9263 -0.5626  0.2436
  892MOL0     C23001   4.518   8.926   7.581  0.3271  0.6202 -0.6878
  892MOL0     C23002   4.613   9.038   7.616 -0.9355  0.4404  0.2834
  892MOL0    Cl23003   4.735   9.059   7.484 -0.0553 -0.4428 -0.7442
  892MOL0     C23004   3.872   8.208   7.793 -0.0742 -0.6296  0.3068
  892MOL0     C23005   3.743   8.151   7.796  0.1826 -0.1076 -0.5033
  892MOL0     O23006   3.459   8.318   7.688 -0.5195 -0.1457 -0.3434
  892MOL0     C23007   3.250   8.052   7.742  0.4002 -0.1899  0.1575
  892MOL0     C23008   3.119   7.998   7.735 -0.4944  0.1780 -0.4955
  892MOL0     N23009   2.521   7.680   7.816  0.5516  1.2468 -0.1075
  892MOL0     N23010   2.403   7.641   7.765  0.6875 -0.1679 -0.1595
  892MOL0     C23011   1.340   7.351   8.290 -0.2747  0.3914  0.4134
  892MOL0     C23012   1.225   7.345   8.374 -0.0383  0.1009 -0.3343
  892MOL0     C23013   0.813   7.387   8.528 -0.2561 -0.4975 -0.4696
  892MOL0     C23014   0.727   7.497   8.511 -0.5755  0.5391 -0.3554
  892MOL0     C23015   0.631   7.535   8.609 -0.3493 -0.8437 -0.3845
  892MOL0     C23016   0.636   7.471   8.735  0.1539 -0.2197 -1.2962
  892MOL0     O23017   0.551   7.502   8.841 -0.3530 -0.8852 -0.0030
  892MOL0     C23018   0.453   7.602   8.812 -0.0625 -0.1780  0.2393
  892MOL0     C23019   0.382   7.642   8.943  0.7230 -0.4180 -0.2585
  892MOL0     C23020   0.479   7.649   9.066  0.6872 -0.2449 -0.5502
  892MOL0     C23021   0.586   7.753   9.039 -0.8329 -0.5349  0.0839
  892MOL0     C23022   0.656   7.776   9.166 -0.1364  0.2996  0.8797
  892MOL0     C23023   0.725   7.800   9.264  0.9810  0.1065 -0.5329
  892MOL0     C23024   0.714   7.357   8.757 -0.3318 -0.5368  0.0922
  892MOL0     C23025   0.802   7.311   8.652  0.9582  0.0173 -0.1535
  892MOL0     C23026   0.881   7.190   8.685  0.7671 -0.1656 -0.3484
  892MOL0     H23027   1.022   7.137   8.213 -0.1859 -1.8431  2.2512
  892MOL0     H23028   1.216   7.148   8.045 -0.9219  0.9657  0.4544
  892MOL0     H23029   1.337   7.289   7.919  1.6722  1.4715 -2.1720
  892MOL0     H23030   1.457   7.163   7.903  1.2195 -0.0109 -2.0442
  892MOL0     H23031   1.524   7.368   7.778  0.2525  3.1221 -0.7474
  892MOL0     H23032   1.481   7.459   7.913  0.2302 -0.4039  0.1252
  892MOL0     H23033   1.679   7.395   8.032  1.2338 -1.0094 -0.1374
  892MOL0     H23034   1.724   7.261   7.933 -0.0919  0.1174 -0.6887
  892MOL0     H23035   1.770   7.386   7.740  4.3347 -1.6087  1.3059
  892MOL0     H23036   1.703   7.538   7.809 -0.8283 -0.1006  1.5573
  892MOL0     H23037   1.958   7.418   7.921 -1.3594 -1.3901  0.7888
  892MOL0     H23038   1.872   7.563   7.976 -1.0487  2.2308 -0.7163
  892MOL0     H23039   2.038   7.511   7.722 -0.3688  0.4441 -0.8890
  892MOL0     H23040   1.912   7.646   7.728  2.3880  1.5758  0.7420
  892MOL0     H23041   2.159   7.603   7.915  0.8538 -0.0928 -1.1002
  892MOL0     H23042   2.035   7.728   7.935  0.0739 -0.7483  0.9529
  892MOL0     H23043   2.155   7.695   7.655  2.9704  1.5105 -1.1943
  892MOL0     H23044   2.123   7.839   7.749 -0.0293 -0.5663  1.8244
  892MOL0     H23045   2.327   7.921   7.910 -1.6768 -0.4423 -0.8244
  892MOL0     H23046   2.675   7.795   7.998 -0.7535  0.4309  2.7011
  892MOL0     H23047   2.543   7.877   8.073 -1.1728 -1.0701  0.6292
  892MOL0     H23048   2.526   8.061   7.896 -1.6807 -2.3942 -2.5255
  892MOL0     H23049   2.679   8.046   7.989 -0.3153 -0.4316  0.1798
  892MOL0     H23050   2.634   7.938   7.707 -0.8027  0.6513 -0.5139
  892MOL0     H23051   2.675   8.106   7.731  1.1341 -1.2804 -2.1231
  892MOL0     H23052   2.872   8.033   7.872 -1.9992  0.5701  0.6819
  892MOL0     H23053   2.852   7.873   7.792 -1.7916  0.3845  0.6570
  892MOL0     H23054   3.010   8.234   7.511  0.8758  0.9264  0.7296
  892MOL0     H23055   3.343   8.328   7.446 -0.2173  3.1035  1.5735
  892MOL0     H23056   3.219   8.432   7.508 -0.5891 -0.0365 -1.6767
  892MOL0     H23057   3.180   8.327   7.386  1.9917 -1.0753 -1.2348
  892MOL0     H23058   3.667   8.207   7.480  3.0224 -2.5149 -0.3335
  892MOL0     H23059   3.879   8.301   7.470 -0.8464 -0.1405  0.1157
  892MOL0     H23060   4.148   8.318   7.521  0.2465  0.4059  0.5227
  892MOL0     H23061   4.050   8.466   7.563 -1.0444 -0.0215  0.2168
  892MOL0     H23062   4.210   8.529   7.738  0.9242  0.1726 -0.1220
  892MOL0     H23063   4.284   8.370   7.721 -0.9344 -1.1273 -0.9390
  892MOL0     H23064   4.262   8.574   7.484 -0.4137  0.1458  1.1626
  892MOL0     H23065   4.372   8.437   7.504 -0.3917  0.0452 -0.0155
  892MOL0     H23066   4.484   8.564   7.702 -2.7537 -2.6446  0.5113
  892MOL0     H23067   4.367   8.695   7.675  0.2006 -0.4804  1.1840
  892MOL0     H23068   4.581   8.595   7.482 -1.7429  0.0255 -1.3903
  892MOL0     H23069   4.451   8.709   7.440  0.2992  0.2961 -0.1062
  892MOL0     H23070   4.686   8.804   7.514 -0.0678 -0.4231 -1.3699
  892MOL0     H23071   4.614   8.772   7.677  0.8038 -2.8480 -0.2055
  892MOL0     H23072   4.442   8.927   7.660  2.7661  3.1720  1.8560
  892MOL0     H23073   4.461   8.961   7.495 -2.9743  3.8960  2.4858
  892MOL0     H23074   4.654   9.011   7.714 -2.0896 -1.3246  0.3249
  892MOL0     H23075   4.556   9.130   7.633  1.4777  1.7016  2.2029
  892MOL0     H23076   3.928   8.207   7.886  1.0502 -1.7462 -0.3550
  892MOL0     H23077   3.687   8.134   7.888 -2.5629 -1.1805 -2.2499
  892MOL0     H23078   3.317   7.990   7.801  0.8412  0.2852  0.1609
  892MOL0     H23079   3.095   7.914   7.800  0.1380  0.0532 -0.4078
  892MOL0     H23080   1.426   7.413   8.313 -0.2059  1.1804 -1.6806
  892MOL0     H23081   1.234   7.396   8.469 -2.2991 -2.6605  1.5387
  892MOL0     H23082   0.740   7.552   8.418  0.6071 -0.4903 -0.8317
  892MOL0     H23083   0.566   7.617   8.582 -0.5124 -0.5188  0.9127
  892MOL0     H23084   0.501   7.692   8.773  3.2068 -2.3410 -1.2115
  892MOL0     H23085   0.385   7.565   8.735  0.3800  0.8586 -0.6789
  892MOL0     H23086   0.300   7.573   8.964  0.9938 -0.6517  0.0444
  892MOL0     H23087   0.339   7.741   8.924  0.0888 -0.5563  0.3822
  892MOL0     H23088   0.423   7.675   9.156  1.7174 -1.2812  0.4129
  892MOL0     H23089   0.534   7.558   9.089  3.1903  1.8633  2.5444
  892MOL0     H23090   0.552   7.848   8.997  1.1759  0.0394 -0.3225
  892MOL0     H23091   0.658   7.717   8.965  1.4033 -0.0892  1.9241
  892MOL0     H23092   0.787   7.820   9.349  1.3155  0.7851 -0.9292
  892MOL0     H23093   0.719   7.328   8.862 -2.7829  1.2416  0.7807
  892MOL0     H23094   0.862   7.130   8.596  2.4227 -0.5856 -0.4626
  892MOL0     H23095   0.989   7.211   8.691  0.6643  0.1491  0.4378
  892MOL0     H23096   0.846   7.138   8.774 -0.6536 -0.0619 -0.8267
  893MOL0     O23097   5.783   4.898  11.393 -0.0323 -0.2697  0.2248
  893MOL0     C23098   5.694   4.865  11.314 -0.0590 -0.5549 -0.4727
  893MOL0     O23099   5.689   4.906  11.179  0.0542  0.7167 -0.2666
  893MOL0     C23100   5.790   4.999  11.141  0.2608  0.5374 -0.9104
  893MOL0     C23101   5.774   5.140  11.163 -0.3720  0.4275  0.8361
  893MOL0     C23102   5.878   5.225  11.123  0.1583  0.0728 -0.0349
  893MOL0     C23103   5.997   5.171  11.065 -0.9293 -0.1476 -0.5244
  893MOL0     O23104   6.100   5.266  11.034 -0.1792 -0.1018  1.0902
  893MOL0     C23105   6.229   5.234  11.081 -0.6496  0.3443  0.3395
  893MOL0     C23106   6.329   5.343  11.044  0.0504  0.0995 -0.5405
  893MOL0     C23107   6.469   5.308  11.101  0.1385 -0.4680 -0.1281
  893MOL0     C23108   6.534   5.204  11.013 -0.8774  0.4107  0.7963
  893MOL0     C23109   6.686   5.195  11.017  0.8437  0.2520 -0.1905
  893MOL0     C23110   6.714   5.105  11.136  0.1354 -0.5245 -0.1820
  893MOL0     C23111   6.864   5.099  11.157  0.0146  0.2345 -0.3653
  893MOL0     C23112   6.910   4.977  11.251  0.7842  0.3621 -0.4925
  893MOL0     N23113   6.931   4.850  11.186  0.2718 -1.0872  0.2304
  893MOL0     C23114   7.011   4.835  11.073 -0.2416 -0.0834 -0.1803
  893MOL0     C23115   7.014   4.702  11.057 -0.8018  0.5177  0.2400
  893MOL0     C23116   7.070   4.628  10.941 -0.1606 -0.0066  0.6589
  893MOL0     C23117   7.215   4.660  10.902  0.0029  0.2279  0.8235
  893MOL0     C23118   7.213   4.753  10.776  0.3934  0.1956 -0.1819
  893MOL0     C23119   7.354   4.750  10.713 -0.4650  0.0186 -1.3409
  893MOL0     O23120   7.455   4.796  10.810 -0.4593  0.0207 -0.0985
  893MOL0     C23121   7.576   4.823  10.746 -0.7860 -0.6261  0.6170
  893MOL0     C23122   7.661   4.887  10.834 -0.6788  0.0055 -0.6164
  893MOL0     C23123   7.799   4.918  10.810 -0.3754  1.2381 -0.3666
  893MOL0     C23124   7.865   5.000  10.915 -0.2139 -0.4572 -0.5427
  893MOL0     C23125   7.861   4.868  10.692  0.4799  0.6103 -0.1583
  893MOL0     C23126   8.004   4.882  10.656  0.6386 -0.3547  0.4713
  893MOL0     O23127   8.089   4.941  10.738 -0.7199 -0.2082  0.5244
  893MOL0     C23128   8.227   4.935  10.723  0.2075 -0.0364 -0.3215
  893MOL0     C23129   8.297   4.999  10.621 -0.1189  0.5724  0.3158
  893MOL0     C23130   8.435   5.005  10.617 -0.3461  0.1251  0.5726
  893MOL0     C23131   8.512   4.947  10.714 -1.0638  0.0932  0.1422
  893MOL0     O23132   8.647   4.971  10.703  0.4891  1.6307  0.1603
  893MOL0     C23133   8.722   4.942  10.819 -0.4026 -0.3503  0.2479
  893MOL0     C23134   8.874   4.957  10.792 -1.2040  0.6107  0.0402
  893MOL0     C23135   8.935   4.848  10.710  0.3792  0.8537  0.4766
  893MOL0     C23136   9.087   4.842  10.708  0.1204 -0.4476 -0.0117
  893MOL0     C23137   9.129   4.742  10.593  0.5254  0.1614  0.3330
  893MOL0     C23138   9.273   4.726  10.595  0.2782 -0.5173  0.2891
  893MOL0     C23139   9.350   4.863  10.563 -0.1054  1.4677 -0.2143
  893MOL0     C23140   9.489   4.823  10.507  0.2792  0.0213  0.3506
  893MOL0    Cl23141   9.576   4.723  10.625  0.1012  0.0020 -0.0650
  893MOL0     C23142   8.445   4.888  10.823  0.3204 -0.1439  0.7094
  893MOL0     C23143   8.307   4.881  10.827 -0.6153 -0.4432  0.2012
  893MOL0     O23144   8.036   4.834  10.552  0.4194  0.0967 -0.2267
  893MOL0     C23145   7.774   4.799  10.603 -0.2652  0.3289 -0.3087
  893MOL0     C23146   7.634   4.782  10.622  0.3282  0.5573 -0.5080
  893MOL0     N23147   6.932   4.633  11.146  0.5518  0.3793  0.2124
  893MOL0     N23148   6.878   4.723  11.225 -0.0511 -0.0084  0.2961
  893MOL0     C23149   6.003   5.033  11.044 -0.1311  0.1827  0.0442
  893MOL0     C23150   5.900   4.949  11.084 -0.1224  0.2317 -0.0304
  893MOL0     C23151   5.590   4.780  11.365 -0.5813  0.6191  0.1660
  893MOL0     C23152   5.619   4.687  11.464  0.7795  0.2739  0.5534
  893MOL0     C23153   5.523   4.601  11.513 -0.2878  0.0274  0.1104
  893MOL0     C23154   5.392   4.608  11.475 -0.4319  0.6632  0.2525
  893MOL0     O23155   5.308   4.511  11.529 -0.8163  0.4567  0.6773
  893MOL0     C23156   5.171   4.533  11.519  0.2599 -0.4537 -0.2900
  893MOL0     C23157   5.091   4.414  11.568  0.5466  0.0495  0.0308
  893MOL0     C23158   5.120   4.379  11.713 -0.2300  0.2533  0.5692
  893MOL0     C23159   5.028   4.443  11.814  0.1924 -0.1551  1.1188
  893MOL0     C23160   5.050   4.590  11.811  0.5953  0.7052 -0.1210
  893MOL0     C23161   5.065   4.710  11.826  0.6710 -0.2275  0.9312
  893MOL0     C23162   5.350   4.710  11.381 -0.2803  0.6793 -0.1187
  893MOL0     C23163   5.455   4.786  11.323 -0.1632  0.2307  0.1418
  893MOL0     C23164   5.408   4.888  11.224  0.7482  0.8350  0.3122
  893MOL0     H23165   5.677   5.177  11.194 -0.7992 -0.0664  0.1301
  893MOL0     H23166   5.863   5.331  11.141 -1.5941 -0.3000  0.8532
  893MOL0     H23167   6.259   5.136  11.042 -0.8073  0.1486  0.7171
  893MOL0     H23168   6.225   5.238  11.190 -3.3694 -0.6409  0.3408
  893MOL0     H23169   6.334   5.354  10.935 -2.7148  0.1541 -0.7474
  893MOL0     H23170   6.288   5.438  11.080  1.4169 -0.6609  3.5680
  893MOL0     H23171   6.520   5.404  11.092 -0.3175 -0.2797 -0.7383
  893MOL0     H23172   6.461   5.281  11.207 -1.4776  1.5126  0.3192
  893MOL0     H23173   6.488   5.105  11.024 -0.7330  0.1704 -0.5997
  893MOL0     H23174   6.510   5.225  10.908  0.8902 -1.3105 -0.0218
  893MOL0     H23175   6.735   5.293  11.019 -1.1211  1.4198 -3.0228
  893MOL0     H23176   6.721   5.149  10.924 -0.2538 -0.6963 -0.1557
  893MOL0     H23177   6.666   5.125  11.232 -0.0035 -1.6533 -0.0031
  893MOL0     H23178   6.675   5.006  11.114  0.2628 -0.1116 -2.5095
  893MOL0     H23179   6.889   5.188  11.215 -1.4834  1.9502 -2.1892
  893MOL0     H23180   6.920   5.089  11.063  2.5607 -1.4686  1.2060
  893MOL0     H23181   7.006   5.004  11.295 -0.2405 -0.9967  2.9327
  893MOL0     H23182   6.836   4.974  11.331  3.7931 -0.2717  2.4518
  893MOL0     H23183   7.067   4.900  11.007  1.0082 -1.9049 -0.9923
  893MOL0     H23184   7.007   4.646  10.854 -0.3273  2.1079  1.1623
  893MOL0     H23185   7.062   4.522  10.967 -0.3385  0.4078  2.4111
  893MOL0     H23186   7.277   4.695  10.985 -1.4637  1.3438  1.4799
  893MOL0     H23187   7.254   4.561  10.875 -0.8214 -0.6448  2.6714
  893MOL0     H23188   7.141   4.719  10.701  3.5316  0.7428 -3.7244
  893MOL0     H23189   7.199   4.854  10.815  2.5036  0.0925  0.9780
  893MOL0     H23190   7.365   4.647  10.679  0.1084 -0.8368  1.2582
  893MOL0     H23191   7.355   4.827  10.635 -0.1774  1.1214 -0.2829
  893MOL0     H23192   7.613   4.912  10.928  0.9690  1.5215 -0.1190
  893MOL0     H23193   7.927   4.930  10.973 -0.4342 -0.4264 -0.2655
  893MOL0     H23194   7.798   5.051  10.985  1.5727  0.8626  0.2924
  893MOL0     H23195   7.922   5.083  10.873 -1.7542  1.4061  0.8859
  893MOL0     H23196   8.241   5.056  10.548  1.5580 -0.5378 -1.9529
  893MOL0     H23197   8.479   5.051  10.530  0.2610 -0.4587  0.5560
  893MOL0     H23198   8.681   5.023  10.880 -0.8210  1.0898 -1.8074
  893MOL0     H23199   8.695   4.847  10.865 -2.1332 -0.5632 -1.0741
  893MOL0     H23200   8.894   5.056  10.751  0.9775  0.4568  0.6144
  893MOL0     H23201   8.925   4.956  10.889  1.4681 -0.1017 -1.2668
  893MOL0     H23202   8.898   4.851  10.607  4.0190  0.3412 -1.0003
  893MOL0     H23203   8.896   4.751  10.743 -2.1716  1.7912  0.4854
  893MOL0     H23204   9.116   4.806  10.807 -1.8559  0.9583  1.1546
  893MOL0     H23205   9.132   4.941  10.696 -0.8389  0.2535  1.8312
  893MOL0     H23206   9.082   4.645  10.610 -2.4248  1.0994 -1.5755
  893MOL0     H23207   9.094   4.780  10.496  0.0338 -1.5637 -0.2055
  893MOL0     H23208   9.299   4.662  10.510  0.0693  1.4296 -1.3215
  893MOL0     H23209   9.311   4.685  10.689  0.2042 -1.7549 -0.2133
  893MOL0     H23210   9.356   4.915  10.658  0.7064 -2.2824  2.0112
  893MOL0     H23211   9.284   4.919  10.496 -1.6235  0.5592  0.4514
  893MOL0     H23212   9.543   4.918  10.493 -4.3372  2.9720  0.4985
  893MOL0     H23213   9.486   4.770  10.412  0.1975 -0.8588  0.8361
  893MOL0     H23214   8.499   4.853  10.910  0.8074  0.5516  0.6946
  893MOL0     H23215   8.259   4.829  10.910 -3.8940 -0.6930 -1.6457
  893MOL0     H23216   7.810   4.743  10.518 -1.5388 -0.4978 -0.3305
  893MOL0     H23217   7.578   4.723  10.550  1.9083 -0.9853 -0.5534
  893MOL0     H23218   6.089   4.988  10.996 -0.3796 -0.1457 -0.0946
  893MOL0     H23219   5.912   4.843  11.065 -0.1919  0.3144 -0.5454
  893MOL0     H23220   5.723   4.680  11.496  1.0696 -0.2204 -0.4357
  893MOL0     H23221   5.553   4.539  11.597 -0.0989  1.4691  1.1471
  893MOL0     H23222   5.160   4.625  11.577 -0.1802 -0.4685 -0.3479
  893MOL0     H23223   5.144   4.541  11.414  0.0189  2.4520 -0.0808
  893MOL0     H23224   5.118   4.329  11.505  1.3008  1.2519 -1.3245
  893MOL0     H23225   4.982   4.425  11.562  0.4959  1.0520  2.0269
  893MOL0     H23226   5.111   4.272  11.733  1.4802  0.3843  2.2510
  893MOL0     H23227   5.224   4.404  11.734 -0.1154  1.0346 -0.7909
  893MOL0     H23228   5.043   4.406  11.916  2.2916 -0.8712  0.6047
  893MOL0     H23229   4.923   4.434  11.785  0.3033 -2.0129  1.1576
  893MOL0     H23230   5.094   4.812  11.810  0.7499 -0.1880  1.3260
  893MOL0     H23231   5.248   4.737  11.354  0.1418  0.4533 -2.0521
  893MOL0     H23232   5.438   4.850  11.126 -0.5738  0.5543  0.0009
  893MOL0     H23233   5.300   4.901  11.217  0.3760 -2.4365 -3.2190
  893MOL0     H23234   5.456   4.985  11.244  0.2021  0.7186  2.3716
  894MOL0     O23235   6.782   0.120  11.214 -0.1773 -0.1077  0.8306
  894MOL0     C23236   6.726   0.010  11.198  0.2625  0.0685  0.1872
  894MOL0     O23237   6.794  -0.111  11.197 -0.1570  0.2259 -0.6497
  894MOL0     C23238   6.926  -0.112  11.228  0.0369 -0.1976 -0.1487
  894MOL0     C23239   7.033  -0.070  11.140  0.4234  0.4334 -0.0694
  894MOL0     C23240   7.168  -0.084  11.177 -0.0131  0.7001  0.7702
  894MOL0     C23241   7.202  -0.127  11.308  1.2873  0.2041  0.1540
  894MOL0     O23242   7.328  -0.146  11.355 -0.3820  0.4071 -0.0653
  894MOL0     C23243   7.443  -0.093  11.288 -0.6306  0.1182 -0.2935
  894MOL0     C23244   7.492  -0.172  11.170 -0.5638  0.0296  0.9870
  894MOL0     C23245   7.632  -0.124  11.141  0.1455 -0.6811 -0.5620
  894MOL0     C23246   7.679  -0.177  11.005 -0.4686 -0.3137 -0.0438
  894MOL0     C23247   7.821  -0.130  10.965 -0.6125 -1.2632  0.5425
  894MOL0     C23248   7.898  -0.213  10.860  0.3354 -0.1910  0.0342
  894MOL0     C23249   8.037  -0.156  10.855 -0.3104  1.0806 -0.3075
  894MOL0     C23250   8.109  -0.241  10.746 -0.1857 -0.2021 -0.5541
  894MOL0     N23251   8.242  -0.185  10.751 -0.0522 -0.3401 -0.1654
  894MOL0     C23252   8.340  -0.217  10.843  0.6267  0.3994 -0.4945
  894MOL0     C23253   8.450  -0.157  10.804  0.4939  0.2326  0.2328
  894MOL0     C23254   8.578  -0.156  10.881 -0.8612 -0.3410 -0.1085
  894MOL0     C23255   8.572  -0.046  10.986  0.1903 -0.2518 -0.6416
  894MOL0     C23256   8.714  -0.019  11.053  0.1450 -0.1558  0.7417
  894MOL0     C23257   8.826   0.003  10.956 -0.5016 -0.0493  0.2703
  894MOL0     O23258   8.950   0.063  11.012 -0.5111  0.0201 -0.6385
  894MOL0     C23259   9.044  -0.009  11.082 -0.3771 -0.1417 -0.7370
  894MOL0     C23260   9.025  -0.137  11.133 -0.1567  0.3414 -0.0768
  894MOL0     C23261   9.122  -0.198  11.209 -0.4815  0.0509 -0.1799
  894MOL0     C23262   9.091  -0.327  11.279  0.7876 -0.2187  0.3634
  894MOL0     C23263   9.251  -0.126  11.230  0.9007  0.4240 -0.3535
  894MOL0     C23264   9.362  -0.174  11.311 -0.6951  1.0110  0.1813
  894MOL0     O23265   9.469  -0.092  11.330 -0.0520  0.0830  0.3728
  894MOL0     C23266   9.587  -0.141  11.381 -0.0409 -0.4612  1.3369
  894MOL0     C23267   9.629  -0.084  11.504 -0.1522 -0.5494 -0.6384
  894MOL0     C23268   9.744  -0.136  11.575 -0.2411  0.2735  0.2607
  894MOL0     C23269   9.819  -0.237  11.520  0.5190 -0.2811  0.4149
  894MOL0     O23270   9.927  -0.289  11.580 -0.1491  0.9368  0.2455
  894MOL0     C23271   9.969  -0.228  11.705  0.1736 -0.0031 -0.0129
  894MOL0     C23272  10.081  -0.310  11.759 -0.3845  0.4788 -0.6725
  894MOL0     C23273  10.177  -0.230  11.853  0.4348  0.4986 -0.4529
  894MOL0     C23274  10.292  -0.320  11.917  0.6250  0.1901 -0.0945
  894MOL0     C23275  10.406  -0.255  11.999  0.0775  0.0979 -0.8340
  894MOL0     C23276  10.355  -0.194  12.135  0.1210  0.8021  0.4484
  894MOL0     C23277  10.449  -0.072  12.170 -0.6265  0.3826  0.1634
  894MOL0     C23278  10.587  -0.128  12.199  0.3739  0.0282  0.0281
  894MOL0    Cl23279  10.575  -0.228  12.346  0.3625  0.2715  0.0319
  894MOL0     C23280   9.772  -0.295  11.394  0.4561 -0.6020 -0.0326
  894MOL0     C23281   9.658  -0.251  11.322  0.0674 -0.0188 -0.1383
  894MOL0     O23282   9.345  -0.282  11.364 -0.2504  0.5906 -0.0960
  894MOL0     C23283   9.272  -0.014  11.156 -0.4132  0.0880  0.0387
  894MOL0     C23284   9.169   0.050  11.092 -0.1617  0.4049  1.0142
  894MOL0     N23285   8.428  -0.089  10.687  0.3100  0.0961 -0.5311
  894MOL0     N23286   8.303  -0.100  10.667  0.2444 -0.2417 -0.4699
  894MOL0     C23287   7.100  -0.169  11.398 -0.3213  0.4997 -0.2233
  894MOL0     C23288   6.961  -0.161  11.357  0.8457 -0.2738 -0.3895
  894MOL0     C23289   6.581   0.012  11.170  0.3217  0.8576  0.0148
  894MOL0     C23290   6.510  -0.107  11.198  0.6224 -1.1030 -0.7299
  894MOL0     C23291   6.372  -0.107  11.192  0.5542  0.5181 -0.1161
  894MOL0     C23292   6.296   0.009  11.152  0.3564  0.7271 -0.3207
  894MOL0     O23293   6.159   0.001  11.170 -0.9534 -0.0225  0.0201
  894MOL0     C23294   6.084   0.112  11.136  0.1407 -0.9594 -0.3097
  894MOL0     C23295   5.942   0.104  11.168 -0.5133  0.2040 -0.2764
  894MOL0     C23296   5.854   0.044  11.050 -0.2607 -0.8664 -0.8590
  894MOL0     C23297   5.705   0.022  11.086 -0.3889  0.2014 -0.6686
  894MOL0     C23298   5.619   0.000  10.966 -0.3103  0.3656  0.3379
  894MOL0     C23299   5.546  -0.029  10.872  0.4298 -0.5716 -0.6039
  894MOL0     C23300   6.376   0.120  11.121  0.5534 -0.6539  0.1859
  894MOL0     C23301   6.512   0.131  11.123 -1.0086 -0.7110 -0.5390
  894MOL0     C23302   6.585   0.259  11.082 -1.2899  0.1686 -0.6068
  894MOL0     H23303   7.010  -0.045  11.036  0.0274 -3.8890 -1.2120
  894MOL0     H23304   7.245  -0.059  11.104  0.1209 -1.8491 -0.0503
  894MOL0     H23305   7.525  -0.089  11.360  0.9588 -2.6163 -1.7666
  894MOL0     H23306   7.426   0.010  11.255  2.1287  0.5102 -0.7957
  894MOL0     H23307   7.493  -0.278  11.197 -1.3366 -0.1984  0.1836
  894MOL0     H23308   7.429  -0.146  11.084  1.1583  1.6092  0.1245
  894MOL0     H23309   7.629  -0.015  11.142 -3.0726 -0.6694 -0.3479
  894MOL0     H23310   7.702  -0.158  11.218 -0.7962 -0.4005  0.4509
  894MOL0     H23311   7.674  -0.286  10.999 -1.0661 -0.4015  1.5173
  894MOL0     H23312   7.607  -0.138  10.933 -0.7801  1.9520  1.3768
  894MOL0     H23313   7.871  -0.128  11.063 -2.2024  0.9462  1.3971
  894MOL0     H23314   7.828  -0.028  10.926 -1.3511 -1.3140  0.2490
  894MOL0     H23315   7.895  -0.320  10.884  1.7053 -0.6015 -1.3721
  894MOL0     H23316   7.845  -0.196  10.766 -0.1643  1.7312  0.6256
  894MOL0     H23317   8.085  -0.168  10.953  1.9312  2.6316 -1.1202
  894MOL0     H23318   8.039  -0.049  10.835  3.5057  1.6153  1.9249
  894MOL0     H23319   8.114  -0.347  10.770  3.0500  0.1316  0.7060
  894MOL0     H23320   8.068  -0.224  10.646  0.7849 -2.7451 -1.4706
  894MOL0     H23321   8.332  -0.276  10.934  0.4179 -1.9744 -1.9864
  894MOL0     H23322   8.651  -0.126  10.805  0.9427  1.8551  2.2969
  894MOL0     H23323   8.603  -0.247  10.935  1.0897 -1.5803 -2.8724
  894MOL0     H23324   8.547   0.051  10.942 -0.1199  0.9301  1.9798
  894MOL0     H23325   8.506  -0.076  11.067  1.9575 -1.9325  0.2762
  894MOL0     H23326   8.709   0.072  11.113 -0.7851  2.0328 -2.4088
  894MOL0     H23327   8.731  -0.099  11.126  0.8572  0.5815  1.4014
  894MOL0     H23328   8.851  -0.084  10.894 -1.7744 -1.5615  1.7855
  894MOL0     H23329   8.795   0.074  10.878 -0.6038 -0.4804 -0.0872
  894MOL0     H23330   8.929  -0.188  11.128  0.1620 -0.8356  3.3418
  894MOL0     H23331   8.996  -0.355  11.232  0.5087  3.0320 -1.2770
  894MOL0     H23332   9.084  -0.308  11.386  2.8810  0.5860  0.4079
  894MOL0     H23333   9.163  -0.405  11.252 -0.1022 -0.5965 -1.0426
  894MOL0     H23334   9.577  -0.004  11.555  1.3598  2.0134 -2.8254
  894MOL0     H23335   9.757  -0.094  11.674 -2.6806  3.2549 -0.5619
  894MOL0     H23336   9.986  -0.120  11.695 -0.5799  0.1976  0.7557
  894MOL0     H23337   9.886  -0.237  11.775 -0.8989 -1.8183 -1.4397
  894MOL0     H23338  10.038  -0.394  11.814  2.7704 -1.1348 -0.5131
  894MOL0     H23339  10.137  -0.360  11.681  1.7109  2.3936 -0.4900
  894MOL0     H23340  10.134  -0.174  11.937  0.8689 -0.2170  0.2564
  894MOL0     H23341  10.219  -0.150  11.791 -3.2668 -0.0479 -4.1073
  894MOL0     H23342  10.343  -0.362  11.830 -0.1571  0.6932 -0.8141
  894MOL0     H23343  10.247  -0.396  11.982  0.4895  0.7058  0.4258
  894MOL0     H23344  10.476  -0.337  12.012 -1.1877 -0.8598  0.2926
  894MOL0     H23345  10.454  -0.175  11.941 -3.2804  1.9345 -1.4037
  894MOL0     H23346  10.350  -0.273  12.210 -0.9400 -1.0175 -1.4210
  894MOL0     H23347  10.252  -0.167  12.111 -1.1013 -2.8418  0.9763
  894MOL0     H23348  10.408  -0.011  12.251  1.3022  0.4619  1.1173
  894MOL0     H23349  10.446  -0.008  12.081  1.9527 -0.4115 -0.5851
  894MOL0     H23350  10.652  -0.041  12.204  1.3722 -0.6643 -0.5883
  894MOL0     H23351  10.617  -0.192  12.116 -0.7569 -0.3446 -0.1184
  894MOL0     H23352   9.822  -0.386  11.364 -1.0170 -1.4677  0.0447
  894MOL0     H23353   9.628  -0.303  11.231  1.4705  0.7952 -1.0877
  894MOL0     H23354   9.358   0.053  11.152 -1.4600  1.4823  0.0279
  894MOL0     H23355   9.194   0.142  11.040  0.9935 -1.5970 -2.2861
  894MOL0     H23356   7.128  -0.200  11.498  2.2794  0.1744 -0.9768
  894MOL0     H23357   6.885  -0.193  11.427  2.0475 -2.3803  0.0289
  894MOL0     H23358   6.556  -0.199  11.232 -2.0775 -2.2150  0.2244
  894MOL0     H23359   6.319  -0.196  11.225  0.0993 -0.1751 -2.5294
  894MOL0     H23360   6.131   0.193  11.192 -0.8462  0.2560 -1.1762
  894MOL0     H23361   6.100   0.144  11.033  0.7675  3.8542  1.0498
  894MOL0     H23362   5.894   0.192  11.211 -0.8156  0.8879 -1.9557
  894MOL0     H23363   5.940   0.030  11.249  3.0403 -0.0551 -0.2807
  894MOL0     H23364   5.859   0.117  10.968 -0.1749  1.2311  0.9104
  894MOL0     H23365   5.895  -0.052  11.020 -1.5110 -1.1854 -1.6258
  894MOL0     H23366   5.666   0.102  11.150  0.9066 -0.4651  1.0241
  894MOL0     H23367   5.704  -0.068  11.147 -1.0598  0.3185 -0.5010
  894MOL0     H23368   5.497  -0.060  10.782 -0.9694  3.1336 -1.2958
  894MOL0     H23369   6.325   0.207  11.081 -3.1772 -2.1764  1.2106
  894MOL0     H23370   6.630   0.308  11.169 -1.2699 -1.4072  0.3116
  894MOL0     H23371   6.658   0.237  11.004 -0.8840 -0.3839 -0.0808
  894MOL0     H23372   6.519   0.332  11.036  2.7716  5.0950  0.4238
  895MOL0     O23373   3.571   8.122   9.013 -0.5391  0.0510  0.4346
  895MOL0     C23374   3.547   8.012   9.060 -0.0424 -1.1155  0.3077
  895MOL0     O23375   3.625   7.928   9.130  0.6915  0.0851  0.2898
  895MOL0     C23376   3.745   7.974   9.184  0.2951 -0.3211 -0.1267
  895MOL0     C23377   3.754   8.047   9.298  0.1217 -1.0534  0.2451
  895MOL0     C23378   3.876   8.093   9.345 -0.2859  0.5393 -0.2054
  895MOL0     C23379   4.001   8.055   9.283  0.6304  0.0397 -0.2190
  895MOL0     O23380   4.121   8.098   9.332  0.5229  0.1176  0.2553
  895MOL0     C23381   4.248   8.039   9.300  0.1228 -0.2810  0.1182
  895MOL0     C23382   4.351   8.133   9.349  0.0637 -0.8545  0.1224
  895MOL0     C23383   4.487   8.090   9.304  1.4125 -0.0228  0.0963
  895MOL0     C23384   4.587   8.176   9.375 -0.0122  0.2554 -0.1340
  895MOL0     C23385   4.729   8.144   9.318 -0.2264  0.1423  0.7727
  895MOL0     C23386   4.835   8.233   9.382 -0.9813 -0.0306 -0.2437
  895MOL0     C23387   4.974   8.223   9.304 -0.2260 -0.4667 -0.9838
  895MOL0     C23388   5.089   8.235   9.389 -0.4380 -0.6844 -0.3626
  895MOL0     N23389   5.217   8.239   9.317  0.3288 -0.3865  0.5354
  895MOL0     C23390   5.277   8.127   9.269  0.1601 -0.0164 -0.1380
  895MOL0     C23391   5.397   8.172   9.230 -0.4783  0.8232  1.2425
  895MOL0     C23392   5.515   8.080   9.174 -0.1835 -0.3495 -0.6323
  895MOL0     C23393   5.573   8.106   9.032  0.1092 -0.0924  0.3235
  895MOL0     C23394   5.470   8.117   8.924 -0.7031 -0.0329 -0.4690
  895MOL0     C23395   5.500   8.071   8.786 -0.0226  0.4129  0.3678
  895MOL0     O23396   5.613   8.147   8.738  0.4750  0.2700 -0.7272
  895MOL0     C23397   5.740   8.098   8.760 -0.3431  0.0665 -0.3757
  895MOL0     C23398   5.846   8.195   8.761  0.8395  0.4105 -0.2668
  895MOL0     C23399   5.981   8.155   8.750  0.7144  0.0752 -0.1777
  895MOL0     C23400   6.085   8.267   8.754  0.0613  0.4289  1.0145
  895MOL0     C23401   6.011   8.020   8.745  0.4596  0.6451 -0.2935
  895MOL0     C23402   6.149   7.961   8.761  0.3478 -0.1680  0.0849
  895MOL0     O23403   6.183   7.842   8.701 -0.2425  0.2206 -0.4927
  895MOL0     C23404   6.291   7.761   8.740 -0.5977  0.0432  0.2876
  895MOL0     C23405   6.381   7.710   8.637  0.2354  0.0477  0.0005
  895MOL0     C23406   6.498   7.644   8.677 -0.5830  0.1755 -0.5795
  895MOL0     C23407   6.524   7.623   8.808  0.6621 -0.4364 -0.2262
  895MOL0     O23408   6.645   7.573   8.837  0.1735  0.2852  0.6552
  895MOL0     C23409   6.682   7.552   8.976  0.1653 -0.4870 -0.0775
  895MOL0     C23410   6.827   7.512   8.986 -0.1511  0.4968 -0.4233
  895MOL0     C23411   6.858   7.381   8.907  0.6134 -0.2245  1.0254
  895MOL0     C23412   6.983   7.311   8.954 -0.6315  0.0949  0.6524
  895MOL0     C23413   6.976   7.225   9.078  0.0744 -0.0330 -0.3312
  895MOL0     C23414   7.110   7.184   9.129 -0.2873  1.2557  0.2642
  895MOL0     C23415   7.095   7.090   9.248 -0.5001  1.0310 -0.6312
  895MOL0     C23416   7.142   6.940   9.237  0.1868 -0.2425  0.7591
  895MOL0    Cl23417   7.314   6.917   9.220 -0.1633 -0.5792  0.0823
  895MOL0     C23418   6.437   7.674   8.911 -0.4144 -0.3612  0.0318
  895MOL0     C23419   6.325   7.751   8.874  0.0702 -0.2408  0.1416
  895MOL0     O23420   6.223   8.030   8.830  0.5767 -0.0959 -0.2216
  895MOL0     C23421   5.908   7.925   8.748 -0.4422  0.3698 -0.7235
  895MOL0     C23422   5.777   7.959   8.758  0.0101 -0.7163 -0.8665
  895MOL0     N23423   5.413   8.304   9.263  0.5410  0.0419  0.8122
  895MOL0     N23424   5.302   8.344   9.314  0.7756  0.7302 -0.3515
  895MOL0     C23425   3.997   7.974   9.167  0.4817  0.0376 -0.5046
  895MOL0     C23426   3.862   7.942   9.118 -1.2874  0.1870  0.8858
  895MOL0     C23427   3.404   7.970   9.064  0.3300 -0.2823  0.1340
  895MOL0     C23428   3.369   7.851   9.137 -0.6983 -0.2594  0.6937
  895MOL0     C23429   3.237   7.806   9.147  0.2659 -0.0592  0.0059
  895MOL0     C23430   3.129   7.874   9.085 -0.2027  0.1473  0.3608
  895MOL0     O23431   2.995   7.852   9.103 -0.0387 -0.3932 -0.2615
  895MOL0     C23432   2.955   7.722   9.149  0.9209 -0.0393  0.3612
  895MOL0     C23433   2.801   7.720   9.186  0.4013  0.2024 -0.1845
  895MOL0     C23434   2.699   7.757   9.074 -0.3788  0.1387  0.0474
  895MOL0     C23435   2.702   7.900   9.025 -0.3302  0.0866  0.3947
  895MOL0     C23436   2.577   7.944   8.955 -0.1796  1.8599  0.6124
  895MOL0     C23437   2.477   7.983   8.905  0.1004 -1.0642 -0.1011
  895MOL0     C23438   3.165   7.989   9.014  0.4349 -0.5381  0.1246
  895MOL0     C23439   3.298   8.033   8.992 -0.1532  0.0814 -0.5140
  895MOL0     C23440   3.309   8.144   8.885  0.4563 -0.1029 -0.3209
  895MOL0     H23441   3.671   8.095   9.349  1.2962  0.3293  0.9234
  895MOL0     H23442   3.874   8.159   9.431 -0.0610 -1.6710  1.6085
  895MOL0     H23443   4.264   8.008   9.196 -0.4054 -1.0629  0.2587
  895MOL0     H23444   4.262   7.946   9.357  0.6572 -0.7497 -0.7502
  895MOL0     H23445   4.325   8.233   9.313 -1.2966 -0.9875  0.6661
  895MOL0     H23446   4.351   8.128   9.459  0.4221 -2.1333  0.0811
  895MOL0     H23447   4.501   7.986   9.332 -0.5953 -0.8439 -1.6928
  895MOL0     H23448   4.495   8.096   9.195  0.2197 -1.2405 -0.0738
  895MOL0     H23449   4.574   8.284   9.364 -0.3517  0.1554 -0.7258
  895MOL0     H23450   4.571   8.150   9.480 -0.8160 -0.2977 -0.3855
  895MOL0     H23451   4.733   8.159   9.210 -1.9921  2.0411  0.9099
  895MOL0     H23452   4.749   8.039   9.340 -1.2767 -0.3666 -0.6013
  895MOL0     H23453   4.791   8.332   9.371  0.1341  0.4910 -0.1704
  895MOL0     H23454   4.851   8.207   9.487  2.1773  0.8308 -0.4171
  895MOL0     H23455   4.979   8.314   9.243 -0.5691 -0.5913 -1.2044
  895MOL0     H23456   4.967   8.150   9.222 -2.4963  1.1318 -2.3438
  895MOL0     H23457   5.073   8.329   9.442  2.1370 -1.2957  1.6943
  895MOL0     H23458   5.087   8.156   9.465  2.1615  1.3830  2.0927
  895MOL0     H23459   5.234   8.028   9.270  2.7456 -1.2351 -0.0139
  895MOL0     H23460   5.486   7.978   9.200  1.2161 -0.4716  0.6405
  895MOL0     H23461   5.591   8.094   9.252 -4.6569 -1.7366  4.6435
  895MOL0     H23462   5.643   8.190   9.024 -2.8896  2.4306 -4.1279
  895MOL0     H23463   5.634   8.020   9.003  1.8521  0.8404  1.0501
  895MOL0     H23464   5.382   8.058   8.951 -1.5301  1.3140 -0.1264
  895MOL0     H23465   5.445   8.224   8.922  1.9145  0.6433 -0.6067
  895MOL0     H23466   5.520   7.963   8.786 -0.4434  0.3334  0.7400
  895MOL0     H23467   5.417   8.081   8.715  1.2006 -0.1190 -1.1998
  895MOL0     H23468   5.823   8.301   8.768  1.2872  0.4979 -0.1141
  895MOL0     H23469   6.126   8.264   8.652 -2.5066  0.0238 -0.0785
  895MOL0     H23470   6.156   8.248   8.835 -0.9245 -1.7157  1.4294
  895MOL0     H23471   6.043   8.366   8.774 -1.6266 -0.0042 -0.1568
  895MOL0     H23472   6.362   7.720   8.530 -1.4574  3.1831  0.4980
  895MOL0     H23473   6.565   7.610   8.599 -1.9976 -2.9101 -0.5902
  895MOL0     H23474   6.674   7.645   9.033  0.5656 -0.4941 -0.0087
  895MOL0     H23475   6.625   7.467   9.016  0.5540 -0.8603 -0.3102
  895MOL0     H23476   6.881   7.598   8.946  1.2732  0.2769  0.9411
  895MOL0     H23477   6.853   7.496   9.091 -3.0135  1.8776  0.6177
  895MOL0     H23478   6.875   7.411   8.803  0.2777 -0.7054  0.8247
  895MOL0     H23479   6.781   7.303   8.908 -2.1437  2.2303 -0.7404
  895MOL0     H23480   7.053   7.392   8.977 -1.0695 -0.0553  2.6893
  895MOL0     H23481   7.017   7.246   8.873  0.6972  2.2562 -0.6387
  895MOL0     H23482   6.916   7.272   9.157  0.4072  0.4974 -0.3896
  895MOL0     H23483   6.920   7.134   9.054 -1.3775  0.9423 -0.8355
  895MOL0     H23484   7.160   7.277   9.155 -3.5289  2.0529  5.1182
  895MOL0     H23485   7.162   7.126   9.052 -2.4975 -0.8393  0.2186
  895MOL0     H23486   6.988   7.076   9.265 -0.4272  0.5989 -0.4937
  895MOL0     H23487   7.147   7.132   9.334 -2.3083  0.9010  0.5902
  895MOL0     H23488   7.089   6.894   9.153 -0.0127  1.3160 -0.0076
  895MOL0     H23489   7.119   6.889   9.331 -2.0137 -0.9035 -0.0761
  895MOL0     H23490   6.468   7.675   9.015  2.6463  1.3264 -0.7431
  895MOL0     H23491   6.253   7.795   8.944 -0.4249 -1.7816  0.6526
  895MOL0     H23492   5.938   7.820   8.744  0.7471  0.6451  0.2448
  895MOL0     H23493   5.700   7.882   8.761 -1.0367  0.3122 -0.3782
  895MOL0     H23494   4.080   7.927   9.115  0.0909  0.7818 -1.8584
  895MOL0     H23495   3.857   7.880   9.029 -0.1900 -1.0904  1.6744
  895MOL0     H23496   3.439   7.787   9.190  2.5401  1.0707 -1.6259
  895MOL0     H23497   3.220   7.717   9.206  0.6930  0.8913  1.6344
  895MOL0     H23498   2.985   7.646   9.077  1.8356  0.2673  0.4094
  895MOL0     H23499   3.016   7.698   9.237  0.5235 -0.6996  0.4642
  895MOL0     H23500   2.772   7.788   9.266 -1.0981  1.3028 -1.5940
  895MOL0     H23501   2.755   7.629   9.227 -0.1054  0.9938  1.0680
  895MOL0     H23502   2.713   7.694   8.986  0.1210  2.0220 -1.2733
  895MOL0     H23503   2.604   7.731   9.122 -0.0435 -1.5659 -0.1362
  895MOL0     H23504   2.794   7.914   8.968  0.3338 -2.0946  0.8395
  895MOL0     H23505   2.714   7.968   9.110  0.2928  3.0565 -1.9032
  895MOL0     H23506   2.389   8.020   8.858 -0.4183 -0.1049  1.5343
  895MOL0     H23507   3.086   8.047   8.967  0.6604 -0.7505 -0.5309
  895MOL0     H23508   3.300   8.242   8.934 -3.0745 -0.5821  0.2884
  895MOL0     H23509   3.396   8.135   8.820  0.4820 -1.7992 -0.0846
  895MOL0     H23510   3.228   8.143   8.811 -0.0338  0.6494  0.1916
  896MOL0     O23511   6.355   2.229   8.137 -0.0986  1.0409 -0.3622
  896MOL0     C23512   6.308   2.312   8.058  0.2062 -0.0529  0.6690
  896MOL0     O23513   6.371   2.434   8.031  0.7010 -0.5391  0.0045
  896MOL0     C23514   6.491   2.470   8.093  0.7074 -0.7229 -0.2918
  896MOL0     C23515   6.608   2.400   8.064  0.1125  0.5643  0.4696
  896MOL0     C23516   6.721   2.443   8.127 -0.3520  0.7631 -0.1780
  896MOL0     C23517   6.735   2.561   8.204  0.7086 -0.7751 -0.2047
  896MOL0     O23518   6.853   2.609   8.262 -0.1105  0.3433  0.0428
  896MOL0     C23519   6.897   2.539   8.376 -1.1712  0.3389  0.0447
  896MOL0     C23520   7.036   2.574   8.437 -0.8606 -1.1180  0.1449
  896MOL0     C23521   7.152   2.549   8.333 -0.6553 -0.7511 -0.9107
  896MOL0     C23522   7.285   2.596   8.407 -0.2649  0.7069 -0.3176
  896MOL0     C23523   7.413   2.560   8.327 -0.1294 -0.7590  0.4533
  896MOL0     C23524   7.410   2.417   8.279 -0.3944  1.0240 -0.0138
  896MOL0     C23525   7.547   2.370   8.263  0.3820 -0.0189  0.0104
  896MOL0     C23526   7.565   2.214   8.299 -0.0762  0.0230  0.2280
  896MOL0     N23527   7.499   2.125   8.207 -0.0284  0.3962  0.1266
  896MOL0     C23528   7.416   2.030   8.251 -0.0693 -0.7029  0.0827
  896MOL0     C23529   7.392   1.961   8.139 -0.1923 -0.7712 -0.1206
  896MOL0     C23530   7.310   1.833   8.146  0.1936  0.1739  0.2808
  896MOL0     C23531   7.390   1.728   8.231  0.4323 -0.1193 -0.3797
  896MOL0     C23532   7.538   1.714   8.192  0.2019  0.2795 -1.3111
  896MOL0     C23533   7.620   1.660   8.318  0.0525  0.2909  0.2413
  896MOL0     O23534   7.612   1.735   8.438 -0.9177  0.4440 -0.8364
  896MOL0     C23535   7.706   1.836   8.460 -0.9802 -0.0508 -0.3857
  896MOL0     C23536   7.714   1.895   8.585  0.0314  0.0142  0.4559
  896MOL0     C23537   7.811   1.992   8.623  0.3274  0.0789 -0.4961
  896MOL0     C23538   7.793   2.055   8.764 -0.5204  0.1941 -0.1603
  896MOL0     C23539   7.911   2.039   8.532 -0.1697  0.0031  0.3390
  896MOL0     C23540   8.028   2.130   8.554  0.8424 -0.1153  0.1161
  896MOL0     O23541   8.097   2.175   8.445 -0.5041 -0.3572  0.1116
  896MOL0     C23542   8.233   2.191   8.453  0.5567 -0.3219 -1.2137
  896MOL0     C23543   8.290   2.300   8.390  0.3250  0.0942  0.2899
  896MOL0     C23544   8.425   2.328   8.400 -0.2145 -0.1979  0.8013
  896MOL0     C23545   8.508   2.244   8.480  0.0701 -0.3924  0.7543
  896MOL0     O23546   8.652   2.246   8.475  0.4938 -0.5656  0.2334
  896MOL0     C23547   8.712   2.374   8.449 -0.2167  0.3713  1.2217
  896MOL0     C23548   8.866   2.370   8.468  0.4408  0.4534 -0.5930
  896MOL0     C23549   8.925   2.507   8.454 -0.2195  0.1500 -0.2769
  896MOL0     C23550   9.079   2.513   8.425 -0.7939 -0.4747  0.1744
  896MOL0     C23551   9.119   2.490   8.282  0.2376  0.3831  0.4276
  896MOL0     C23552   9.273   2.510   8.285  0.7670  0.2158  0.0592
  896MOL0     C23553   9.330   2.495   8.146  0.5171  0.0367 -0.5763
  896MOL0     C23554   9.474   2.485   8.143 -0.2485 -0.6289 -0.0138
  896MOL0    Cl23555   9.533   2.337   8.226  0.1076  0.1599  0.0265
  896MOL0     C23556   8.453   2.133   8.536 -0.7544 -0.4132  0.0912
  896MOL0     C23557   8.317   2.104   8.523  0.4321  0.4541 -0.7117
  896MOL0     O23558   8.066   2.151   8.670 -0.1775  0.7886 -0.2039
  896MOL0     C23559   7.911   1.976   8.401 -0.1997 -0.2316 -1.1406
  896MOL0     C23560   7.803   1.887   8.367  0.3449  1.4632 -0.6004
  896MOL0     N23561   7.453   2.013   8.026  0.6944 -0.2193 -0.2286
  896MOL0     N23562   7.528   2.106   8.075  1.4091 -0.2387 -0.2679
  896MOL0     C23563   6.617   2.629   8.227  0.6889 -0.4684 -0.1937
  896MOL0     C23564   6.496   2.586   8.173  0.5964  1.3795 -0.1423
  896MOL0     C23565   6.173   2.286   7.989  0.1052 -0.6930 -0.4152
  896MOL0     C23566   6.131   2.157   7.987  0.6222  0.4932 -0.0510
  896MOL0     C23567   6.012   2.116   7.919 -0.2707 -0.9782  0.3734
  896MOL0     C23568   5.933   2.210   7.854  0.0394  0.3678  0.1870
  896MOL0     O23569   5.813   2.159   7.830 -0.5403 -0.0299  0.6604
  896MOL0     C23570   5.727   2.242   7.751  0.3405 -0.7691  0.4081
  896MOL0     C23571   5.591   2.180   7.746  0.4663  0.2903  0.7565
  896MOL0     C23572   5.511   2.179   7.869  1.1484 -0.3232 -0.4795
  896MOL0     C23573   5.358   2.205   7.868  0.3130  0.5523  0.5557
  896MOL0     C23574   5.323   2.345   7.856  0.1719 -0.0138 -0.4206
  896MOL0     C23575   5.282   2.463   7.856 -0.7091 -0.5591  1.0358
  896MOL0     C23576   5.979   2.346   7.855  0.5775  0.5283 -0.0626
  896MOL0     C23577   6.094   2.378   7.916  0.4349 -1.0180 -0.9501
  896MOL0     C23578   6.125   2.528   7.921 -0.2949 -0.3591  0.4908
  896MOL0     H23579   6.625   2.314   7.999  1.6607  0.4424  0.9945
  896MOL0     H23580   6.809   2.388   8.094  0.0951  2.3539 -1.7959
  896MOL0     H23581   6.906   2.435   8.343  0.3769 -0.5329  2.8870
  896MOL0     H23582   6.826   2.545   8.459  2.3789  1.3415  3.3356
  896MOL0     H23583   7.028   2.680   8.464  0.3230 -0.0773 -3.0562
  896MOL0     H23584   7.045   2.520   8.532  0.3077  0.3677  0.9265
  896MOL0     H23585   7.155   2.441   8.317  0.4731 -0.6233 -1.6413
  896MOL0     H23586   7.119   2.602   8.243 -0.3056  0.7397 -0.1971
  896MOL0     H23587   7.283   2.699   8.442 -1.1525  0.0930  1.5618
  896MOL0     H23588   7.277   2.541   8.501 -0.4259  0.2595 -0.5880
  896MOL0     H23589   7.495   2.573   8.398  0.9864 -1.5605 -0.6407
  896MOL0     H23590   7.416   2.631   8.244  1.1187 -1.7413 -0.3764
  896MOL0     H23591   7.363   2.354   8.355  1.8121 -2.2080 -1.0954
  896MOL0     H23592   7.335   2.413   8.199 -0.4011  2.3758 -0.0947
  896MOL0     H23593   7.624   2.430   8.312  0.3462 -1.2211  1.6023
  896MOL0     H23594   7.560   2.376   8.155  0.5710  0.8732  0.0711
  896MOL0     H23595   7.672   2.202   8.280  0.0343  1.5539 -0.2634
  896MOL0     H23596   7.534   2.200   8.403 -3.9599  1.0599 -0.6123
  896MOL0     H23597   7.383   2.023   8.354  0.8385  2.1472  0.6569
  896MOL0     H23598   7.305   1.807   8.040  0.6339 -2.1116  0.7646
  896MOL0     H23599   7.215   1.866   8.189  0.3878 -0.2082  1.0243
  896MOL0     H23600   7.393   1.763   8.335 -1.2991  2.7782 -1.1841
  896MOL0     H23601   7.333   1.635   8.229  1.2125 -0.6320 -2.9269
  896MOL0     H23602   7.545   1.646   8.107 -2.0329  0.9729 -2.1184
  896MOL0     H23603   7.587   1.811   8.184  0.3762  0.7833  3.2282
  896MOL0     H23604   7.573   1.563   8.333 -0.8759  0.8253  0.8599
  896MOL0     H23605   7.722   1.636   8.286  0.1524  1.8160 -0.6639
  896MOL0     H23606   7.644   1.851   8.655  0.1080 -2.0757 -0.7166
  896MOL0     H23607   7.754   2.155   8.746 -0.2262  0.2613 -0.4336
  896MOL0     H23608   7.893   2.061   8.808 -0.5285  2.3297 -0.3655
  896MOL0     H23609   7.736   1.998   8.838 -0.5944  0.9109  0.3465
  896MOL0     H23610   8.228   2.364   8.329 -0.9510 -1.5907 -0.2570
  896MOL0     H23611   8.460   2.421   8.356 -0.2789  0.7205  2.5958
  896MOL0     H23612   8.696   2.404   8.345 -1.4354 -2.0890  0.6463
  896MOL0     H23613   8.672   2.454   8.513  0.0831  1.4822  0.0580
  896MOL0     H23614   8.897   2.320   8.560  0.1877  1.3518 -0.0045
  896MOL0     H23615   8.914   2.315   8.386  0.4060 -0.1076 -0.2451
  896MOL0     H23616   8.913   2.560   8.549  1.5794 -2.1672  1.3507
  896MOL0     H23617   8.868   2.556   8.374 -0.1059 -0.7268 -0.9030
  896MOL0     H23618   9.128   2.444   8.494  0.2208  0.4393  0.3877
  896MOL0     H23619   9.111   2.614   8.449 -1.1989 -0.0745 -0.9061
  896MOL0     H23620   9.083   2.391   8.252 -1.8472  0.7757  1.4368
  896MOL0     H23621   9.068   2.566   8.222 -1.1170  0.1384  1.2372
  896MOL0     H23622   9.310   2.429   8.350 -2.3053 -0.8603  0.6582
  896MOL0     H23623   9.302   2.609   8.321  0.0879  0.7096 -0.7122
  896MOL0     H23624   9.300   2.578   8.081  0.5650  1.1132  0.7516
  896MOL0     H23625   9.293   2.401   8.102 -0.4070  0.4343 -0.6666
  896MOL0     H23626   9.520   2.570   8.195  1.7845 -0.9634 -1.1619
  896MOL0     H23627   9.508   2.484   8.039  0.9962  1.2387  0.3182
  896MOL0     H23628   8.527   2.083   8.596 -0.7525 -0.3534  0.1386
  896MOL0     H23629   8.284   2.015   8.574  0.5112  2.0734  2.3840
  896MOL0     H23630   7.981   1.998   8.321 -0.0196  1.1816 -0.6196
  896MOL0     H23631   7.800   1.833   8.273 -1.2657 -0.9886  0.7220
  896MOL0     H23632   6.627   2.710   8.300  0.9628 -0.6756  0.0012
  896MOL0     H23633   6.402   2.632   8.201  0.0192  0.6875 -0.8771
  896MOL0     H23634   6.180   2.084   8.051 -0.7926  1.7739  2.6725
  896MOL0     H23635   5.995   2.009   7.916  0.2776 -1.0546 -0.1646
  896MOL0     H23636   5.717   2.343   7.792  1.2398 -1.4447  2.4169
  896MOL0     H23637   5.767   2.254   7.650  1.7293 -4.1225  0.4373
  896MOL0     H23638   5.578   2.085   7.694 -1.0201 -0.1637  1.8741
  896MOL0     H23639   5.535   2.243   7.677  0.0839 -1.8749 -1.0289
  896MOL0     H23640   5.532   2.082   7.916 -2.2151 -0.4803  0.9536
  896MOL0     H23641   5.551   2.258   7.932  1.4309 -1.3816  0.7200
  896MOL0     H23642   5.310   2.165   7.957 -2.8227 -2.9409 -2.3353
  896MOL0     H23643   5.312   2.153   7.783 -0.2952 -0.3016  1.3972
  896MOL0     H23644   5.239   2.561   7.857  0.4545 -0.0059 -0.2850
  896MOL0     H23645   5.905   2.414   7.814  0.1170  0.0767 -0.0040
  896MOL0     H23646   6.055   2.579   7.854  0.7091 -0.1435 -0.4246
  896MOL0     H23647   6.115   2.549   8.028 -1.6672 -0.0611  0.3254
  896MOL0     H23648   6.225   2.554   7.883 -1.6648  2.8561 -1.3654
  897MOL0     O23649  11.096   1.854   1.319  0.0628 -0.2637  0.2812
  897MOL0     C23650  10.984   1.864   1.375 -0.4681 -0.6399  0.0781
  897MOL0     O23651  10.964   1.909   1.503 -0.1939 -0.3636 -0.8282
  897MOL0     C23652  11.075   1.961   1.574 -0.3796 -0.0309  0.7249
  897MOL0     C23653  11.126   1.894   1.684 -0.3118 -0.4095 -0.1444
  897MOL0     C23654  11.249   1.927   1.732  0.2485 -0.5609  0.2639
  897MOL0     C23655  11.304   2.058   1.703 -0.6597  0.4972  0.1475
  897MOL0     O23656  11.416   2.107   1.765 -0.2344 -0.0194 -0.9006
  897MOL0     C23657  11.490   2.033   1.864  0.0913 -0.1789  0.4569
  897MOL0     C23658  11.637   2.089   1.856 -0.0429 -0.8217 -0.4326
  897MOL0     C23659  11.730   1.991   1.928 -0.4191 -0.1936  0.5858
  897MOL0     C23660  11.823   2.069   2.023  0.1986 -1.2077 -0.9004
  897MOL0     C23661  11.739   2.094   2.157 -0.6560  1.0890  0.1434
  897MOL0     C23662  11.836   2.128   2.277  0.5198  0.0647  0.0040
  897MOL0     C23663  11.759   2.183   2.394 -0.1139 -0.7815 -0.3664
  897MOL0     C23664  11.650   2.088   2.469 -0.1393  0.5183  0.8503
  897MOL0     N23665  11.719   1.982   2.538 -0.3276 -0.1717 -0.1352
  897MOL0     C23666  11.707   1.853   2.506  0.0412 -0.8215  0.7556
  897MOL0     C23667  11.767   1.787   2.610 -0.4666  0.2406  0.2908
  897MOL0     C23668  11.802   1.637   2.605 -0.1349  0.3437  0.4082
  897MOL0     C23669  11.951   1.609   2.597  0.3643  0.6801 -0.3354
  897MOL0     C23670  12.000   1.466   2.606  0.1084 -0.8269 -0.7572
  897MOL0     C23671  12.149   1.472   2.648  0.0791 -0.2393 -0.1498
  897MOL0     O23672  12.230   1.559   2.566 -0.6149  0.0359 -0.1176
  897MOL0     C23673  12.370   1.546   2.601 -0.4096 -0.5604  0.6593
  897MOL0     C23674  12.420   1.476   2.709  0.6487  0.0856 -0.1902
  897MOL0     C23675  12.564   1.476   2.728  0.1788 -0.0025 -0.6242
  897MOL0     C23676  12.616   1.390   2.834 -0.3195 -0.5003 -0.3220
  897MOL0     C23677  12.648   1.541   2.639 -1.0144 -0.3241 -0.2196
  897MOL0     C23678  12.799   1.540   2.653 -0.0867 -0.3663  1.1652
  897MOL0     O23679  12.861   1.614   2.562  1.3718 -0.4247  0.0107
  897MOL0     C23680  12.992   1.608   2.555 -0.3877  0.6629 -0.3320
  897MOL0     C23681  13.068   1.676   2.651 -0.7883  0.2745  0.5935
  897MOL0     C23682  13.200   1.705   2.611 -0.4303 -0.9473  0.4445
  897MOL0     C23683  13.269   1.644   2.505  0.7799  0.3482 -0.6347
  897MOL0     O23684  13.403   1.648   2.475 -0.4064 -0.2064  0.4382
  897MOL0     C23685  13.497   1.674   2.583  0.2272  1.2736  0.5710
  897MOL0     C23686  13.610   1.564   2.588  0.4426 -0.2699 -1.0200
  897MOL0     C23687  13.559   1.432   2.647 -0.7337 -0.1638  0.3301
  897MOL0     C23688  13.524   1.447   2.798  0.7203  0.0873  0.2202
  897MOL0     C23689  13.510   1.319   2.875  0.7859  0.8435 -0.0518
  897MOL0     C23690  13.616   1.206   2.855 -0.4574 -0.8422  0.2096
  897MOL0     C23691  13.597   1.096   2.955  0.3110  0.2203  0.5522
  897MOL0     C23692  13.687   0.977   2.934 -0.4789 -0.7621  0.3139
  897MOL0    Cl23693  13.857   1.013   2.911  0.0154  0.1640  0.1316
  897MOL0     C23694  13.188   1.566   2.412 -0.5721  0.6732 -0.5059
  897MOL0     C23695  13.049   1.554   2.435 -0.1126 -0.7696  0.3737
  897MOL0     O23696  12.853   1.486   2.749 -0.2871 -0.5621  0.6605
  897MOL0     C23697  12.591   1.612   2.535  0.2224 -0.8235 -0.5069
  897MOL0     C23698  12.458   1.615   2.523  0.2948 -0.1619  0.2018
  897MOL0     N23699  11.790   1.877   2.706  0.5471 -0.3179  0.2888
  897MOL0     N23700  11.762   1.995   2.663  0.1500 -0.8621 -0.6838
  897MOL0     C23701  11.247   2.138   1.605  0.7657  0.3967 -0.5905
  897MOL0     C23702  11.133   2.089   1.540 -0.0784 -0.1740 -0.7004
  897MOL0     C23703  10.871   1.840   1.284 -0.0895  0.3549 -0.3748
  897MOL0     C23704  10.762   1.914   1.317 -0.3882  0.5668  0.3434
  897MOL0     C23705  10.642   1.898   1.251  0.5642 -0.0693  0.1314
  897MOL0     C23706  10.632   1.802   1.151  0.4890  0.3059  0.0158
  897MOL0     O23707  10.521   1.782   1.088 -0.4306 -0.1047 -0.2672
  897MOL0     C23708  10.412   1.742   1.164 -0.1203  0.8583 -0.8074
  897MOL0     C23709  10.302   1.704   1.061 -0.6879  0.3958 -0.5063
  897MOL0     C23710  10.266   1.820   0.967  0.7547 -0.2313 -0.2433
  897MOL0     C23711  10.174   1.778   0.857  0.2918  0.2611  0.3480
  897MOL0     C23712  10.049   1.712   0.910 -0.2070  0.0324 -0.1056
  897MOL0     C23713   9.942   1.693   0.968  0.8418  0.7284 -0.2348
  897MOL0     C23714  10.746   1.728   1.117 -0.1032  0.2071  0.3424
  897MOL0     C23715  10.866   1.741   1.179  0.4215  1.1130 -0.8071
  897MOL0     C23716  10.964   1.634   1.155 -0.4338  0.4437 -0.0367
  897MOL0     H23717  11.081   1.801   1.719 -2.7179  1.8915  3.5918
  897MOL0     H23718  11.305   1.857   1.794  2.0562 -0.0333 -0.6890
  897MOL0     H23719  11.492   1.925   1.851 -4.0946 -0.3056 -0.8441
  897MOL0     H23720  11.463   2.035   1.970  1.0083 -3.2245  0.8344
  897MOL0     H23721  11.677   2.101   1.755  1.0299  2.2495  0.2505
  897MOL0     H23722  11.644   2.191   1.897 -2.7051 -0.7229 -0.0195
  897MOL0     H23723  11.680   1.909   1.982 -0.7698 -0.0174  0.5298
  897MOL0     H23724  11.798   1.951   1.853  1.6642  1.0152  1.7539
  897MOL0     H23725  11.900   1.997   2.052 -0.3626 -2.2589 -1.9532
  897MOL0     H23726  11.867   2.161   1.985 -4.2274  1.4307 -0.3869
  897MOL0     H23727  11.683   2.001   2.166  1.6558 -0.3758  0.2569
  897MOL0     H23728  11.670   2.178   2.142 -0.7919  0.9697  0.0985
  897MOL0     H23729  11.899   2.045   2.312  0.4710  0.2728  0.5942
  897MOL0     H23730  11.906   2.203   2.239  2.0897 -1.5571 -0.4754
  897MOL0     H23731  11.701   2.268   2.357 -1.3580 -1.3400  0.2569
  897MOL0     H23732  11.833   2.224   2.463  0.2977  0.2430 -1.3860
  897MOL0     H23733  11.596   2.153   2.538 -1.7463  1.4741 -1.1674
  897MOL0     H23734  11.573   2.060   2.396  0.4413  2.7411 -0.7347
  897MOL0     H23735  11.679   1.805   2.413 -1.1348  1.6840 -0.2898
  897MOL0     H23736  11.754   1.585   2.522  0.8578 -1.8552  1.1476
  897MOL0     H23737  11.761   1.590   2.695  0.2098 -1.3113 -0.2616
  897MOL0     H23738  11.986   1.650   2.502  1.6442 -0.9112 -0.6054
  897MOL0     H23739  11.993   1.662   2.683 -2.0949  0.8327  0.8694
  897MOL0     H23740  11.943   1.408   2.679 -1.8431  0.1045 -1.4632
  897MOL0     H23741  11.978   1.414   2.513 -1.5838 -0.2864 -0.6909
  897MOL0     H23742  12.155   1.519   2.746  0.1792 -0.5451 -0.0070
  897MOL0     H23743  12.178   1.368   2.665 -0.2498  0.1504  3.8562
  897MOL0     H23744  12.366   1.421   2.785  0.0660  1.6611  0.5786
  897MOL0     H23745  12.681   1.444   2.904 -2.2003 -2.4903  3.2206
  897MOL0     H23746  12.668   1.304   2.791  4.1555  1.5799  0.3344
  897MOL0     H23747  12.539   1.357   2.904 -1.6894 -0.3417 -1.7225
  897MOL0     H23748  13.021   1.714   2.742 -1.7776  1.3454 -0.3258
  897MOL0     H23749  13.259   1.773   2.671 -2.7806  1.3017  0.3475
  897MOL0     H23750  13.549   1.770   2.574  0.0942  1.2435 -0.6924
  897MOL0     H23751  13.451   1.673   2.682  1.7504  0.4486  1.3206
  897MOL0     H23752  13.640   1.532   2.488  2.4267  1.6510 -1.1159
  897MOL0     H23753  13.696   1.602   2.644 -1.6260  2.0093  0.8406
  897MOL0     H23754  13.634   1.355   2.631  0.4652  1.3293 -1.6317
  897MOL0     H23755  13.471   1.401   2.590  0.5844 -1.1061 -1.2799
  897MOL0     H23756  13.433   1.505   2.808  1.6105  1.4302  0.7881
  897MOL0     H23757  13.604   1.511   2.838  0.0906  0.6180  0.6365
  897MOL0     H23758  13.501   1.348   2.980  0.5096 -0.9166  0.4339
  897MOL0     H23759  13.416   1.267   2.856  2.0028 -1.5799  0.1564
  897MOL0     H23760  13.714   1.254   2.861 -1.4783  1.4769 -0.1619
  897MOL0     H23761  13.613   1.175   2.750  2.1572 -0.4769 -0.0386
  897MOL0     H23762  13.496   1.055   2.944  0.6652 -1.2174  2.1403
  897MOL0     H23763  13.605   1.135   3.057 -0.8827 -0.4221  0.9174
  897MOL0     H23764  13.652   0.922   2.846  0.8957  3.2231 -3.0538
  897MOL0     H23765  13.676   0.904   3.015  0.7794 -0.9889  0.3160
  897MOL0     H23766  13.236   1.505   2.336  0.8087 -0.3305  1.0834
  897MOL0     H23767  12.986   1.503   2.362 -1.1449 -0.3331  0.9410
  897MOL0     H23768  12.651   1.656   2.456  0.6704 -3.1958 -1.5784
  897MOL0     H23769  12.415   1.672   2.441  3.6584  2.3294 -0.0375
  897MOL0     H23770  11.291   2.236   1.592 -1.3155  1.9565  2.7758
  897MOL0     H23771  11.095   2.131   1.448 -1.4235 -1.1983 -0.6302
  897MOL0     H23772  10.760   1.986   1.398 -2.0937 -0.6495  1.4584
  897MOL0     H23773  10.558   1.961   1.279 -0.5025 -1.5388  0.3412
  897MOL0     H23774  10.443   1.662   1.231 -1.2013  0.3359 -0.9133
  897MOL0     H23775  10.377   1.826   1.225 -0.5981  1.8314 -2.3609
  897MOL0     H23776  10.213   1.667   1.114 -0.9081  1.2617 -0.2628
  897MOL0     H23777  10.343   1.617   1.008 -0.2286  1.9532 -2.8409
  897MOL0     H23778  10.240   1.907   1.030  1.1094  0.9109 -1.6290
  897MOL0     H23779  10.350   1.857   0.908  0.7897  0.2881  0.1179
  897MOL0     H23780  10.211   1.700   0.789 -3.2949  1.0360 -2.8847
  897MOL0     H23781  10.151   1.864   0.793  3.2012  1.1876  0.4205
  897MOL0     H23782   9.851   1.678   1.022  1.3981 -2.1264  0.0471
  897MOL0     H23783  10.743   1.665   1.028 -0.6953  2.8162 -1.6320
  897MOL0     H23784  10.966   1.555   1.231  0.4674  1.7037  1.3137
  897MOL0     H23785  10.946   1.599   1.053 -0.8408 -1.8928  0.7685
  897MOL0     H23786  11.065   1.676   1.163  1.1645 -3.2689  1.7152
  898MOL0     O23787   4.873  10.593   3.512 -0.4789  0.0949 -0.6849
  898MOL0     C23788   4.819  10.673   3.589  1.2959  0.1980 -0.4079
  898MOL0     O23789   4.871  10.793   3.631  0.3777  0.5796  0.0411
  898MOL0     C23790   5.008  10.816   3.612  1.1699 -0.3065 -0.3718
  898MOL0     C23791   5.116  10.723   3.611  0.3142 -0.5148  0.0048
  898MOL0     C23792   5.246  10.781   3.603  0.0100  0.0573  0.3117
  898MOL0     C23793   5.271  10.917   3.580 -0.2860  0.7947 -0.0420
  898MOL0     O23794   5.397  10.970   3.558 -0.4317  0.8401  0.0828
  898MOL0     C23795   5.519  10.893   3.573  0.0084  0.0524 -0.5287
  898MOL0     C23796   5.559  10.866   3.725  0.5343  0.1158  0.1377
  898MOL0     C23797   5.561  10.999   3.799 -0.2577 -0.5284 -0.3797
  898MOL0     C23798   5.619  10.981   3.945 -0.3310 -0.0891  0.3938
  898MOL0     C23799   5.764  11.006   3.938 -0.1050 -0.3014 -0.1174
  898MOL0     C23800   5.828  11.015   4.085  0.0425  0.4097 -0.7725
  898MOL0     C23801   5.978  10.990   4.094  0.1838 -0.5352  0.2258
  898MOL0     C23802   6.032  11.001   4.233  0.3569  0.9216  0.4180
  898MOL0     N23803   6.176  11.017   4.229  0.0088  0.3677 -0.0172
  898MOL0     C23804   6.269  10.907   4.211  0.0493 -0.0583  0.7185
  898MOL0     C23805   6.386  10.971   4.236 -0.5086 -0.0041  0.3266
  898MOL0     C23806   6.517  10.901   4.212  0.0283 -0.3413  0.3332
  898MOL0     C23807   6.628  10.950   4.302 -0.4573  0.0305  0.2268
  898MOL0     C23808   6.590  10.938   4.451  0.6263 -0.2173 -0.0457
  898MOL0     C23809   6.713  10.970   4.534 -0.4671  0.2407 -0.5508
  898MOL0     O23810   6.820  10.881   4.504  0.6266  0.0840  0.1443
  898MOL0     C23811   6.944  10.926   4.551 -0.1413 -0.5999  0.6834
  898MOL0     C23812   7.054  10.886   4.479  0.2116  0.0811 -0.1145
  898MOL0     C23813   7.184  10.900   4.526 -0.8194 -0.2177  0.8642
  898MOL0     C23814   7.283  10.824   4.447  0.4113  1.2875 -0.1404
  898MOL0     C23815   7.214  10.972   4.644 -0.0321 -0.5200 -0.8362
  898MOL0     C23816   7.348  11.002   4.714  1.3994 -0.7006  0.5045
  898MOL0     O23817   7.450  10.917   4.711  0.4032  0.0646  0.1403
  898MOL0     C23818   7.577  10.948   4.757 -0.0816 -0.5545  0.0386
  898MOL0     C23819   7.683  10.979   4.680 -1.1502 -0.5364 -0.7083
  898MOL0     C23820   7.810  11.000   4.734 -0.0740 -0.2227 -0.0620
  898MOL0     C23821   7.838  10.963   4.865  0.6465  0.3660 -0.7693
  898MOL0     O23822   7.963  10.948   4.919 -0.4408  0.0432  0.5882
  898MOL0     C23823   8.077  11.010   4.876 -0.2437 -0.0519  0.3187
  898MOL0     C23824   8.169  10.934   4.781 -0.3806 -0.2081  0.5089
  898MOL0     C23825   8.295  11.015   4.741  0.0309 -0.0569  0.0142
  898MOL0     C23826   8.419  10.936   4.700  0.6205  0.0298 -0.4970
  898MOL0     C23827   8.536  11.026   4.660  0.4496 -0.4713  0.0951
  898MOL0     C23828   8.664  10.957   4.628 -0.0273  0.4911  0.7584
  898MOL0     C23829   8.671  10.867   4.500 -0.6536  0.2472 -0.1146
  898MOL0     C23830   8.634  10.943   4.373 -0.0672 -0.4670  0.3757
  898MOL0    Cl23831   8.454  10.947   4.345 -0.6687  0.1050  0.4823
  898MOL0     C23832   7.727  10.931   4.945  0.5059 -0.0571 -0.0325
  898MOL0     C23833   7.598  10.919   4.893 -0.5759 -0.6915 -0.3066
  898MOL0     O23834   7.356  11.113   4.766  0.6974 -1.0351  0.1355
  898MOL0     C23835   7.096  11.022   4.714 -0.1106 -0.6349  0.5404
  898MOL0     C23836   6.968  10.997   4.670 -0.8331 -0.0199  0.5154
  898MOL0     N23837   6.370  11.109   4.258  0.0828 -1.0256 -0.0252
  898MOL0     N23838   6.239  11.129   4.259 -0.1023  0.0942 -0.1137
  898MOL0     C23839   5.166  10.999   3.577 -0.8568  0.2303  0.6861
  898MOL0     C23840   5.039  10.952   3.582 -0.1019  0.2948  0.0085
  898MOL0     C23841   4.672  10.625   3.632 -0.0170  0.0530  0.2836
  898MOL0     C23842   4.656  10.491   3.645  0.6645 -0.3972 -0.3718
  898MOL0     C23843   4.536  10.439   3.689  0.0630  0.1756 -0.1866
  898MOL0     C23844   4.428  10.516   3.734  0.7914  0.4873 -0.1185
  898MOL0     O23845   4.322  10.445   3.773  0.7313  0.5330  0.9396
  898MOL0     C23846   4.197  10.512   3.788  0.0222 -0.8575  0.1658
  898MOL0     C23847   4.118  10.498   3.658  0.2153  0.6315  0.6319
  898MOL0     C23848   3.972  10.548   3.671 -0.1270  1.0502  0.3005
  898MOL0     C23849   3.884  10.511   3.559 -0.3976  0.3080  0.1659
  898MOL0     C23850   3.746  10.498   3.592  0.6680  0.9243 -0.8905
  898MOL0     C23851   3.631  10.463   3.607  0.1752 -0.1165 -0.3955
  898MOL0     C23852   4.455  10.654   3.730 -0.1987 -0.3268 -0.1606
  898MOL0     C23853   4.572  10.711   3.682  0.0653  0.4720 -0.6659
  898MOL0     C23854   4.597  10.863   3.697 -0.1482 -0.7594  0.0877
  898MOL0     H23855   5.091  10.622   3.641 -0.7388 -0.8714 -1.8907
  898MOL0     H23856   5.314  10.696   3.606 -0.4876 -0.3974 -0.5297
  898MOL0     H23857   5.606  10.942   3.529 -1.0453 -0.1399 -3.0567
  898MOL0     H23858   5.500  10.797   3.524 -0.0929 -0.9785  1.4488
  898MOL0     H23859   5.493  10.792   3.771  0.0916  1.5831  2.0129
  898MOL0     H23860   5.661  10.827   3.726  0.4807 -0.2489 -2.1124
  898MOL0     H23861   5.616  11.071   3.738 -0.3061  0.0886  0.2815
  898MOL0     H23862   5.455  11.028   3.806 -0.4828 -1.6670  2.1827
  898MOL0     H23863   5.571  11.059   4.005 -1.5222 -1.2402  0.9872
  898MOL0     H23864   5.600  10.883   3.990 -0.8845  0.4890  1.4428
  898MOL0     H23865   5.796  11.097   3.885  3.6250 -0.5092  1.4681
  898MOL0     H23866   5.816  10.923   3.889  1.9256 -0.6099  2.3483
  898MOL0     H23867   5.803  11.105   4.143 -2.1741 -1.8056  2.0055
  898MOL0     H23868   5.784  10.934   4.144  2.3802  0.2753  0.9078
  898MOL0     H23869   6.021  11.063   4.026 -1.1524 -0.9688 -1.1379
  898MOL0     H23870   6.010  10.891   4.059  0.4298 -0.6558  0.7657
  898MOL0     H23871   5.977  11.082   4.281 -1.5886  0.5481 -1.0716
  898MOL0     H23872   6.000  10.915   4.292 -2.1012  0.5461 -1.3255
  898MOL0     H23873   6.267  10.807   4.168  5.9415 -0.8114  1.3555
  898MOL0     H23874   6.553  10.917   4.110  1.4683  2.2149  1.1526
  898MOL0     H23875   6.499  10.796   4.236 -1.1914 -0.3296 -0.4333
  898MOL0     H23876   6.717  10.888   4.293  1.0145  2.2102 -1.0731
  898MOL0     H23877   6.644  11.056   4.283 -2.5668  0.7453  1.9439
  898MOL0     H23878   6.509  11.009   4.471  0.1669 -0.9559  0.8145
  898MOL0     H23879   6.550  10.840   4.478 -1.7186  1.2454  2.3411
  898MOL0     H23880   6.739  11.073   4.507 -2.5301  0.2203 -2.9406
  898MOL0     H23881   6.703  10.960   4.643 -0.8578 -1.0720 -0.6844
  898MOL0     H23882   7.035  10.835   4.385  1.7869 -0.7478 -0.0131
  898MOL0     H23883   7.307  10.735   4.506  0.2542  3.2888  3.2176
  898MOL0     H23884   7.370  10.890   4.435  1.6325  0.0177  1.2516
  898MOL0     H23885   7.240  10.787   4.354 -5.1778  2.5148  1.5569
  898MOL0     H23886   7.668  11.002   4.574 -0.3118 -3.4177 -1.5407
  898MOL0     H23887   7.894  11.029   4.673  0.8828 -0.9388  0.8741
  898MOL0     H23888   8.059  11.112   4.842  0.1910  0.0352  0.3425
  898MOL0     H23889   8.135  11.021   4.968 -0.5625  2.2686  0.2856
  898MOL0     H23890   8.207  10.843   4.828 -1.9506 -1.8841 -1.3098
  898MOL0     H23891   8.112  10.913   4.690  1.1057 -0.6443 -0.3387
  898MOL0     H23892   8.332  11.073   4.826  0.0295  0.0760 -0.0763
  898MOL0     H23893   8.275  11.090   4.664  2.6427  1.7373  0.9620
  898MOL0     H23894   8.415  10.879   4.607  0.0541  1.6990 -1.5396
  898MOL0     H23895   8.439  10.871   4.786  0.0954  2.4933  1.6131
  898MOL0     H23896   8.502  11.088   4.576  1.7569  0.2544  0.0831
  898MOL0     H23897   8.557  11.097   4.740  0.4916  1.2001 -1.3491
  898MOL0     H23898   8.695  10.893   4.711  1.2348 -0.5663 -0.4894
  898MOL0     H23899   8.741  11.035   4.616 -1.6624  1.9455 -0.9012
  898MOL0     H23900   8.615  10.774   4.503 -1.7981  0.7220 -3.0675
  898MOL0     H23901   8.775  10.838   4.482  0.0402  1.6198  1.4168
  898MOL0     H23902   8.680  10.896   4.285  1.0842 -2.5598  2.0028
  898MOL0     H23903   8.659  11.049   4.377 -1.4824 -0.1567  2.4294
  898MOL0     H23904   7.737  10.908   5.050  0.0030  0.4621  0.1377
  898MOL0     H23905   7.518  10.893   4.962  1.2586 -0.4914  2.0172
  898MOL0     H23906   7.106  11.088   4.801  2.9980 -1.4093  0.8993
  898MOL0     H23907   6.884  11.029   4.731 -3.6609 -2.6735 -1.6923
  898MOL0     H23908   5.178  11.106   3.562 -0.9844  0.1173 -0.3364
  898MOL0     H23909   4.965  11.031   3.587 -3.0773 -2.3497  2.3743
  898MOL0     H23910   4.749  10.436   3.640  0.6346 -0.5858  0.7372
  898MOL0     H23911   4.527  10.330   3.689 -0.5905  0.1515 -2.6895
  898MOL0     H23912   4.133  10.470   3.866 -0.8919 -4.0744 -2.1203
  898MOL0     H23913   4.213  10.619   3.808 -0.9326 -0.7032  0.1691
  898MOL0     H23914   4.115  10.391   3.634 -1.7519  0.7976 -0.0606
  898MOL0     H23915   4.170  10.547   3.575 -1.2569  0.9090 -0.1527
  898MOL0     H23916   3.930  10.506   3.763  1.9798  0.6557  1.1285
  898MOL0     H23917   3.956  10.656   3.673  0.2734  1.1079  0.3685
  898MOL0     H23918   3.914  10.415   3.514 -2.8539  0.7778 -2.8008
  898MOL0     H23919   3.896  10.592   3.487  0.2343  1.6686  1.7259
  898MOL0     H23920   3.526  10.443   3.610  0.4680 -1.6239  0.4296
  898MOL0     H23921   4.382  10.727   3.765  0.8817  1.2027 -1.0147
  898MOL0     H23922   4.499  10.902   3.728 -0.6390 -0.8921 -1.2114
  898MOL0     H23923   4.677  10.901   3.761 -0.2280  1.0951 -0.8513
  898MOL0     H23924   4.612  10.901   3.595  0.2057 -0.1019  0.3825
  899MOL0     O23925   8.256  10.665   3.374 -0.2533 -0.5453 -0.2201
  899MOL0     C23926   8.185  10.632   3.467  0.8659 -0.5347 -0.1893
  899MOL0     O23927   8.049  10.662   3.479 -0.3264 -0.1714 -0.2185
  899MOL0     C23928   7.990  10.729   3.375 -0.3487 -0.1914  0.7315
  899MOL0     C23929   7.944  10.661   3.260 -0.3455 -0.4385  0.6053
  899MOL0     C23930   7.893  10.737   3.155 -1.1129 -0.0435  0.1769
  899MOL0     C23931   7.874  10.874   3.163  1.0327 -0.9125 -0.8422
  899MOL0     O23932   7.818  10.957   3.068  0.9717 -0.1664 -0.3622
  899MOL0     C23933   7.911  10.990   2.969 -0.0281 -0.0028 -1.3534
  899MOL0     C23934   7.864  11.118   2.903 -0.1493  0.9466  0.6287
  899MOL0     C23935   7.873  11.247   2.989  0.2370  0.0723 -0.1600
  899MOL0     C23936   7.828  11.377   2.930 -0.6328  0.3768 -0.1095
  899MOL0     C23937   7.940  11.433   2.842 -0.2352 -0.3483 -0.0552
  899MOL0     C23938   7.901  11.579   2.795  0.4411  0.4257  0.6973
  899MOL0     C23939   7.993  11.609   2.677 -0.0727 -0.2747 -0.4736
  899MOL0     C23940   7.975  11.753   2.636  0.4630 -0.5998  0.0634
  899MOL0     N23941   8.067  11.781   2.526 -0.1423  0.7872  0.8444
  899MOL0     C23942   8.200  11.815   2.527  0.3125 -0.0617  1.1090
  899MOL0     C23943   8.238  11.815   2.394 -0.3244 -1.0510 -0.2761
  899MOL0     C23944   8.375  11.848   2.336 -0.0094 -0.2108  0.7564
  899MOL0     C23945   8.407  11.998   2.350  0.1393  0.3887  0.1313
  899MOL0     C23946   8.526  12.029   2.268  0.1211  0.7112  0.1141
  899MOL0     C23947   8.587  12.164   2.311 -0.1339 -0.2695 -0.8698
  899MOL0     O23948   8.630  12.153   2.444 -0.2363  0.0154 -0.3600
  899MOL0     C23949   8.706  12.260   2.497  0.1211 -0.3406  0.2992
  899MOL0     C23950   8.651  12.387   2.518 -0.6619  1.3272  0.3711
  899MOL0     C23951   8.730  12.494   2.566  0.8751 -0.5155  0.5591
  899MOL0     C23952   8.635  12.614   2.582 -0.2941 -0.0762 -0.3701
  899MOL0     C23953   8.870  12.480   2.589  0.6959  0.6359  0.0964
  899MOL0     C23954   8.961  12.584   2.633  0.9359  0.8512  0.0946
  899MOL0     O23955   8.905  12.684   2.701  0.8086  0.1845  0.3390
  899MOL0     C23956   8.986  12.789   2.753 -0.1830  1.4640  0.3884
  899MOL0     C23957   9.100  12.771   2.828 -0.3379  0.0044  0.6441
  899MOL0     C23958   9.171  12.878   2.881  0.4831 -0.8282  0.6757
  899MOL0     C23959   9.122  13.008   2.869 -0.2675 -0.6069  0.6549
  899MOL0     O23960   9.202  13.112   2.916  0.4123  0.6535  0.7682
  899MOL0     C23961   9.123  13.208   2.987  0.0378 -0.0996 -0.4189
  899MOL0     C23962   9.180  13.351   2.964  0.7154 -0.2483  0.1842
  899MOL0     C23963   9.182  13.400   2.823  0.6253 -0.3064  0.4920
  899MOL0     C23964   9.141  13.545   2.810  0.7579  0.5548 -0.7384
  899MOL0     C23965   9.237  13.625   2.898 -0.4421 -0.0587 -0.0968
  899MOL0     C23966   9.229  13.770   2.871 -0.1191 -1.0318 -0.7559
  899MOL0     C23967   9.288  13.824   2.742  0.1829 -0.1230 -0.3115
  899MOL0     C23968   9.249  13.974   2.713 -0.1816  0.2968  0.0420
  899MOL0    Cl23969   9.329  14.031   2.574  0.3501 -0.1223 -0.1647
  899MOL0     C23970   9.003  13.030   2.796 -0.3412  0.2049  0.0959
  899MOL0     C23971   8.935  12.914   2.740 -1.0407  0.1572  0.2885
  899MOL0     O23972   9.080  12.573   2.604  0.0760 -0.3615  0.3160
  899MOL0     C23973   8.920  12.351   2.568 -0.0488 -0.4777 -0.6949
  899MOL0     C23974   8.843  12.243   2.525  0.0865  0.3035 -0.6825
  899MOL0     N23975   8.128  11.765   2.323 -0.2379 -0.5006 -0.7363
  899MOL0     N23976   8.029  11.752   2.394  0.4627 -0.0075 -0.4435
  899MOL0     C23977   7.914  10.939   3.282  0.8974 -0.2199 -0.5160
  899MOL0     C23978   7.976  10.865   3.382 -0.5096 -0.4339  0.1602
  899MOL0     C23979   8.244  10.552   3.573 -0.7182  0.6931 -0.9921
  899MOL0     C23980   8.181  10.549   3.703 -0.0004 -0.3179 -0.2424
  899MOL0     C23981   8.231  10.473   3.812  0.0292  0.3571  0.0153
  899MOL0     C23982   8.344  10.395   3.797  0.8988  0.7373  0.1405
  899MOL0     O23983   8.395  10.319   3.907  1.2346 -0.0271 -0.6646
  899MOL0     C23984   8.510  10.232   3.906 -0.4560  0.0896 -0.0693
  899MOL0     C23985   8.564  10.232   4.043 -0.9654  0.7619 -0.4861
  899MOL0     C23986   8.638  10.360   4.072 -0.0746 -0.6598 -0.8837
  899MOL0     C23987   8.691  10.344   4.217 -0.4380 -0.5456  0.4185
  899MOL0     C23988   8.726  10.477   4.277  0.0189  0.5243 -0.7273
  899MOL0     C23989   8.774  10.567   4.342 -0.1534  0.9863 -0.0151
  899MOL0     C23990   8.406  10.386   3.669  0.0522  0.6043 -0.2155
  899MOL0     C23991   8.360  10.471   3.554 -0.0369  0.6320  0.1897
  899MOL0     C23992   8.435  10.461   3.428 -0.2411  0.6469 -0.0509
  899MOL0     H23993   7.958  10.553   3.258  2.0653 -0.2708 -3.9395
  899MOL0     H23994   7.876  10.690   3.059  1.1714 -1.0066  0.1855
  899MOL0     H23995   7.911  10.906   2.898 -1.2187 -1.3926  0.1909
  899MOL0     H23996   8.010  11.008   3.011 -1.2672 -0.8757  2.3559
  899MOL0     H23997   7.928  11.141   2.817 -3.3722 -2.8895 -3.2647
  899MOL0     H23998   7.765  11.102   2.860  0.0314 -2.6280  1.2590
  899MOL0     H23999   7.813  11.225   3.078  0.7442 -1.0516 -0.0840
  899MOL0     H24000   7.978  11.260   3.014  1.1497 -1.9109 -2.5802
  899MOL0     H24001   7.733  11.363   2.876  1.0561 -1.7403 -2.8049
  899MOL0     H24002   7.809  11.452   3.007 -2.4600  0.5471 -0.6832
  899MOL0     H24003   7.953  11.362   2.759  2.1363 -0.2663  0.1905
  899MOL0     H24004   8.037  11.445   2.891 -0.6626 -0.4380  0.8230
  899MOL0     H24005   7.807  11.566   2.739  2.0661  0.6923 -2.3180
  899MOL0     H24006   7.894  11.652   2.877  0.0364  0.2573  0.8186
  899MOL0     H24007   7.969  11.544   2.592  0.6116 -0.3596 -0.6016
  899MOL0     H24008   8.093  11.590   2.716 -0.0634  1.0622  0.1851
  899MOL0     H24009   7.868  11.770   2.623 -0.0465 -2.5913  1.2237
  899MOL0     H24010   8.015  11.818   2.715  0.1010 -1.1663  0.7291
  899MOL0     H24011   8.258  11.842   2.615  1.2142  1.2993  0.1375
  899MOL0     H24012   8.365  11.821   2.231 -0.9592 -0.6090  0.9394
  899MOL0     H24013   8.456  11.798   2.390  0.4953  0.7582  0.9244
  899MOL0     H24014   8.324  12.059   2.313  0.2064  0.4597  0.0956
  899MOL0     H24015   8.420  12.027   2.455 -1.6722 -0.4094  0.6109
  899MOL0     H24016   8.596  11.948   2.293 -0.5615  0.1627  0.2983
  899MOL0     H24017   8.501  12.028   2.161 -0.5276 -0.3429  0.2554
  899MOL0     H24018   8.671  12.177   2.242 -0.1492  0.9390 -0.6830
  899MOL0     H24019   8.513  12.243   2.292 -0.6076 -0.6375 -0.5615
  899MOL0     H24020   8.547  12.394   2.489 -0.3155 -1.0869 -1.8367
  899MOL0     H24021   8.698  12.700   2.603  1.5089 -0.8007 -2.4767
  899MOL0     H24022   8.580  12.588   2.674  2.4026 -1.8614  0.8603
  899MOL0     H24023   8.567  12.635   2.499  0.5094 -1.7632 -1.4961
  899MOL0     H24024   9.144  12.672   2.835  1.0062  0.4516 -0.8909
  899MOL0     H24025   9.268  12.859   2.926  1.4648 -1.7501 -1.6873
  899MOL0     H24026   9.018  13.220   2.957 -0.7323  1.4738  2.6012
  899MOL0     H24027   9.118  13.183   3.093  2.6897 -4.4003 -1.0313
  899MOL0     H24028   9.106  13.410   3.021 -1.4858 -0.8057 -1.9189
  899MOL0     H24029   9.275  13.365   3.017 -0.0813  0.9371  1.3963
  899MOL0     H24030   9.111  13.341   2.764 -1.6761  2.4159  0.3206
  899MOL0     H24031   9.281  13.384   2.779 -0.3886  1.6821 -2.8746
  899MOL0     H24032   9.037  13.556   2.843  1.4157 -0.5547  2.0223
  899MOL0     H24033   9.147  13.580   2.707 -2.1383 -2.8581 -2.2583
  899MOL0     H24034   9.214  13.604   3.003 -0.5238  2.8251  0.5366
  899MOL0     H24035   9.340  13.597   2.872 -0.9130  0.2091 -2.4526
  899MOL0     H24036   9.280  13.812   2.957 -2.9099  0.3004  0.3678
  899MOL0     H24037   9.125  13.801   2.884  0.1327 -1.0328  1.6090
  899MOL0     H24038   9.254  13.764   2.657  0.8732 -0.4802 -0.3381
  899MOL0     H24039   9.396  13.812   2.747  0.2771 -2.4850 -4.0304
  899MOL0     H24040   9.292  14.035   2.793 -1.8441 -1.3508  2.3246
  899MOL0     H24041   9.142  13.993   2.707 -1.1742 -2.6051  4.1129
  899MOL0     H24042   8.967  13.126   2.761  0.4756 -0.1393 -1.8074
  899MOL0     H24043   8.848  12.937   2.679 -0.1960 -0.0965 -1.0604
  899MOL0     H24044   9.022  12.333   2.600 -0.5093 -0.4707  0.8464
  899MOL0     H24045   8.893  12.150   2.498  0.0918 -0.0841  0.6161
  899MOL0     H24046   7.886  11.043   3.297  0.2244 -0.5800  0.7862
  899MOL0     H24047   8.006  10.928   3.465  0.7800 -0.4863 -0.2507
  899MOL0     H24048   8.091  10.607   3.721  0.3703  1.3890 -3.1821
  899MOL0     H24049   8.185  10.501   3.906  1.3871  1.2258  0.4430
  899MOL0     H24050   8.484  10.128   3.885  2.4624 -0.5130 -1.2618
  899MOL0     H24051   8.586  10.277   3.841  0.0522  1.5954  1.4640
  899MOL0     H24052   8.635  10.149   4.050 -0.1443  1.6009  1.7973
  899MOL0     H24053   8.486  10.214   4.116  0.3452 -1.3745  0.4827
  899MOL0     H24054   8.720  10.346   4.001  0.6961 -2.8629  0.3305
  899MOL0     H24055   8.569  10.445   4.064 -0.7181 -1.0197  0.5581
  899MOL0     H24056   8.776  10.276   4.220  1.6854  1.5909 -3.7793
  899MOL0     H24057   8.606  10.304   4.274 -1.6453 -0.6830 -1.3999
  899MOL0     H24058   8.810  10.650   4.399  1.7850  0.3066 -0.1800
  899MOL0     H24059   8.487  10.315   3.654 -1.8176 -2.1328  1.6014
  899MOL0     H24060   8.488  10.555   3.414  1.0433  0.1391  1.1172
  899MOL0     H24061   8.509  10.382   3.446 -1.8808 -0.5082  2.0073
  899MOL0     H24062   8.364  10.438   3.348 -1.4539  2.1237  0.5525
  900MOL0     O24063   7.899   3.109   7.257 -0.9204 -1.0138 -0.2536
  900MOL0     C24064   7.841   3.105   7.365 -0.7424 -0.2694 -0.1477
  900MOL0     O24065   7.908   3.133   7.487 -0.5475  0.2166  0.0858
  900MOL0     C24066   8.036   3.177   7.488  0.3238  0.0477 -0.4614
  900MOL0     C24067   8.078   3.302   7.534 -0.1327 -0.1908  0.0992
  900MOL0     C24068   8.215   3.350   7.526 -0.0980 -0.1868  0.6099
  900MOL0     C24069   8.311   3.261   7.475  0.7484  0.4899  1.0466
  900MOL0     O24070   8.443   3.293   7.452 -0.1468  0.5669  0.1763
  900MOL0     C24071   8.473   3.426   7.459 -0.4766 -0.5721  0.4634
  900MOL0     C24072   8.626   3.440   7.440 -0.2973 -0.3430  0.0361
  900MOL0     C24073   8.666   3.581   7.453 -0.7236  0.0043 -0.1649
  900MOL0     C24074   8.816   3.599   7.459 -0.7282  0.6086 -0.7372
  900MOL0     C24075   8.893   3.566   7.325  0.5402 -0.9693  0.6063
  900MOL0     C24076   9.033   3.505   7.360 -0.2686 -0.6818  0.2025
  900MOL0     C24077   9.124   3.487   7.238 -1.1601  0.4995  0.7698
  900MOL0     C24078   9.152   3.621   7.171 -0.2225  1.1319 -0.3224
  900MOL0     N24079   9.241   3.600   7.056 -0.5219 -0.0791 -0.1619
  900MOL0     C24080   9.369   3.545   7.070  0.6326  0.3568  0.3807
  900MOL0     C24081   9.433   3.579   6.953  0.9583 -0.4226  0.6062
  900MOL0     C24082   9.572   3.536   6.931 -0.1291 -0.2493  0.0448
  900MOL0     C24083   9.665   3.572   7.036  0.0065  0.0968 -0.2248
  900MOL0     C24084   9.648   3.718   7.085 -0.5708 -0.3644 -0.9073
  900MOL0     C24085   9.734   3.746   7.208 -0.0015 -0.1390 -0.2716
  900MOL0     O24086   9.876   3.733   7.189  0.4539  0.4954  0.7878
  900MOL0     C24087   9.939   3.827   7.110 -0.4667  0.0387  0.2276
  900MOL0     C24088   9.876   3.938   7.056  0.7489  0.6190 -0.1153
  900MOL0     C24089   9.942   4.031   6.981  0.7473 -0.5230 -0.8970
  900MOL0     C24090   9.879   4.156   6.945  0.0160 -0.5996  0.0948
  900MOL0     C24091  10.079   4.010   6.947 -0.0731 -0.9939  0.4165
  900MOL0     C24092  10.147   4.110   6.857 -0.0528 -0.2540 -0.5407
  900MOL0     O24093  10.283   4.108   6.873 -0.6754 -0.5603 -0.3232
  900MOL0     C24094  10.354   4.211   6.811 -0.2217 -0.1911 -0.2669
  900MOL0     C24095  10.302   4.348   6.807  0.5512  0.0969 -0.0824
  900MOL0     C24096  10.367   4.454   6.751 -0.3741  0.1379 -0.6626
  900MOL0     C24097  10.493   4.431   6.695 -0.3927  1.0517 -0.0349
  900MOL0     O24098  10.579   4.540   6.650 -0.0459  0.2097 -0.2809
  900MOL0     C24099  10.624   4.540   6.516  0.3477 -0.3958  0.9199
  900MOL0     C24100  10.659   4.681   6.483 -0.1969 -0.4034  0.2072
  900MOL0     C24101  10.794   4.729   6.544  0.2219  0.6483  0.0315
  900MOL0     C24102  10.804   4.883   6.555 -0.8291  0.5262 -0.3718
  900MOL0     C24103  10.937   4.926   6.627  0.4845 -0.7840 -0.0952
  900MOL0     C24104  11.037   4.993   6.538  0.7305 -0.4096  0.1800
  900MOL0     C24105  11.155   5.040   6.623 -0.6194 -0.7821 -0.4794
  900MOL0     C24106  11.166   5.184   6.619  0.5174  0.2192  0.3030
  900MOL0    Cl24107  11.022   5.271   6.683 -0.1541 -0.1082  0.2361
  900MOL0     C24108  10.550   4.294   6.694 -0.4011  0.3665  0.0181
  900MOL0     C24109  10.485   4.187   6.756 -0.1118 -0.2865  0.2551
  900MOL0     O24110  10.092   4.160   6.762  0.4317  1.0328  0.2556
  900MOL0     C24111  10.147   3.895   7.003 -0.8093 -0.5507 -0.3033
  900MOL0     C24112  10.078   3.816   7.093 -1.0545 -0.2047  1.3130
  900MOL0     N24113   9.343   3.657   6.874 -0.8124  0.1403 -0.7553
  900MOL0     N24114   9.230   3.672   6.939 -0.8300  0.0589 -0.2761
  900MOL0     C24115   8.277   3.135   7.428  0.5590 -0.2365 -0.4981
  900MOL0     C24116   8.136   3.094   7.429  0.3650 -0.2508 -0.5507
  900MOL0     C24117   7.699   3.063   7.368 -0.4971  0.7275  0.0581
  900MOL0     C24118   7.650   2.987   7.475  1.1441  0.0785 -0.3601
  900MOL0     C24119   7.512   2.945   7.488 -0.1353  0.2041 -0.3333
  900MOL0     C24120   7.421   2.967   7.375  0.4192  0.0983 -0.4741
  900MOL0     O24121   7.286   2.938   7.374  0.3843 -0.1995  0.4473
  900MOL0     C24122   7.241   2.826   7.463  0.5633  0.0445  0.7932
  900MOL0     C24123   7.087   2.806   7.444 -0.3941  0.8734  0.5264
  900MOL0     C24124   7.035   2.714   7.558 -0.1504  0.0617  0.0824
  900MOL0     C24125   6.884   2.714   7.574 -0.4023 -0.1217  0.1508
  900MOL0     C24126   6.838   2.641   7.699 -0.3054  0.3666  0.2612
  900MOL0     C24127   6.796   2.562   7.783  0.1202 -0.0007  0.1805
  900MOL0     C24128   7.476   3.047   7.276  0.5344 -0.6725  0.6205
  900MOL0     C24129   7.606   3.081   7.262 -0.7969 -0.4586 -0.5867
  900MOL0     C24130   7.639   3.155   7.128 -0.5001  0.5089 -1.3349
  900MOL0     H24131   8.000   3.372   7.560 -0.7262 -0.5617 -0.6454
  900MOL0     H24132   8.253   3.450   7.542  1.4585 -0.6803  0.2173
  900MOL0     H24133   8.449   3.470   7.557 -2.0545  1.1646 -0.6251
  900MOL0     H24134   8.417   3.489   7.390  0.5025  0.4167  0.5297
  900MOL0     H24135   8.673   3.376   7.516  0.9095  0.2932 -0.1385
  900MOL0     H24136   8.645   3.409   7.337 -0.6434 -2.6713  0.6068
  900MOL0     H24137   8.623   3.640   7.372 -2.7536 -0.1618  0.7298
  900MOL0     H24138   8.619   3.628   7.540  0.1928  1.9489 -0.6648
  900MOL0     H24139   8.847   3.697   7.498  2.2166 -0.4700 -0.0705
  900MOL0     H24140   8.851   3.520   7.526  1.2025  0.4840 -1.8266
  900MOL0     H24141   8.904   3.657   7.266 -1.7491  0.2722  1.9270
  900MOL0     H24142   8.840   3.495   7.261 -0.1154  0.8988 -1.0278
  900MOL0     H24143   9.095   3.565   7.427  1.0727 -2.9386  1.1251
  900MOL0     H24144   9.019   3.413   7.418 -0.3508 -0.6239  0.2737
  900MOL0     H24145   9.080   3.415   7.167  0.8371  1.3127 -1.4219
  900MOL0     H24146   9.225   3.449   7.255  0.5146  2.8536 -2.7385
  900MOL0     H24147   9.060   3.663   7.130 -0.6767 -1.7742 -2.6330
  900MOL0     H24148   9.204   3.686   7.242  0.5979  1.0637 -0.8414
  900MOL0     H24149   9.408   3.479   7.147  1.4487 -3.4277 -2.9376
  900MOL0     H24150   9.606   3.586   6.839 -0.9498 -1.0995 -0.7411
  900MOL0     H24151   9.576   3.429   6.909  0.5832 -0.8138  2.5956
  900MOL0     H24152   9.652   3.510   7.126  1.7977 -0.4464 -0.3073
  900MOL0     H24153   9.766   3.553   7.001  0.6009  2.2227  0.1847
  900MOL0     H24154   9.678   3.793   7.011  0.0408  1.7289  1.3347
  900MOL0     H24155   9.547   3.754   7.103  0.7010  2.2424  2.0014
  900MOL0     H24156   9.716   3.849   7.241  0.6359 -0.0885 -0.0520
  900MOL0     H24157   9.713   3.670   7.285 -0.7123 -0.8507 -1.1554
  900MOL0     H24158   9.770   3.959   7.063 -0.1192 -3.2135  0.5066
  900MOL0     H24159   9.789   4.172   7.006  0.1991 -1.5452  0.6386
  900MOL0     H24160   9.848   4.155   6.840 -0.4356  0.2414  0.2149
  900MOL0     H24161   9.946   4.240   6.961  0.7247 -0.4698 -3.0149
  900MOL0     H24162  10.205   4.376   6.848  0.6850 -0.3557  0.5629
  900MOL0     H24163  10.315   4.549   6.744 -1.2099 -0.4289 -3.2525
  900MOL0     H24164  10.706   4.468   6.512 -0.1709 -1.2241  3.3088
  900MOL0     H24165  10.542   4.508   6.452  1.2072 -3.1418  1.0511
  900MOL0     H24166  10.667   4.690   6.374  1.9809  0.4152  0.3855
  900MOL0     H24167  10.572   4.734   6.521 -0.0063  0.5180 -0.5785
  900MOL0     H24168  10.877   4.695   6.481 -1.3173 -1.3838 -1.0097
  900MOL0     H24169  10.809   4.677   6.639 -0.7929 -0.4102 -0.3646
  900MOL0     H24170  10.732   4.925   6.626 -0.1547  0.4358  0.3802
  900MOL0     H24171  10.786   4.927   6.456 -4.0912  0.6241  0.1702
  900MOL0     H24172  10.906   4.993   6.707  1.1455  2.4066 -2.3402
  900MOL0     H24173  10.996   4.846   6.671  2.4805  0.3959 -0.5261
  900MOL0     H24174  10.991   5.082   6.494  2.1468 -0.3937 -1.3821
  900MOL0     H24175  11.081   4.940   6.453  2.0213 -1.3293  1.3690
  900MOL0     H24176  11.242   4.995   6.575 -0.2632  1.3688 -1.9675
  900MOL0     H24177  11.151   5.004   6.726 -0.9299  1.8017  0.4832
  900MOL0     H24178  11.171   5.212   6.514 -1.1267 -0.2536  0.0701
  900MOL0     H24179  11.255   5.215   6.675  2.3015 -0.6275 -1.9066
  900MOL0     H24180  10.650   4.276   6.656  0.4382  0.7498  1.9572
  900MOL0     H24181  10.526   4.087   6.762 -0.0573 -0.4236 -1.8126
  900MOL0     H24182  10.250   3.882   6.970 -0.3889  2.0301 -0.1604
  900MOL0     H24183  10.131   3.733   7.138 -2.9262 -2.4157 -0.3410
  900MOL0     H24184   8.348   3.066   7.383  0.6341 -0.2753 -0.3192
  900MOL0     H24185   8.097   3.003   7.383  0.5020 -1.7820  2.1547
  900MOL0     H24186   7.721   2.956   7.552  3.0471 -0.2363 -2.1415
  900MOL0     H24187   7.486   2.894   7.580  3.4365  0.7342  1.1186
  900MOL0     H24188   7.295   2.733   7.444  0.5921  0.6979 -3.0241
  900MOL0     H24189   7.256   2.869   7.563 -3.2813  2.6983  0.4751
  900MOL0     H24190   7.068   2.763   7.345  2.6776 -1.4859  0.8216
  900MOL0     H24191   7.040   2.904   7.443 -1.0082  0.5856  0.7791
  900MOL0     H24192   7.056   2.609   7.535 -1.2281 -0.1532  0.0434
  900MOL0     H24193   7.086   2.749   7.649  1.0852 -2.2338  0.3510
  900MOL0     H24194   6.837   2.671   7.485 -1.9095 -1.3506  1.4869
  900MOL0     H24195   6.837   2.810   7.598 -2.5630 -1.2894  0.8875
  900MOL0     H24196   6.753   2.498   7.857 -0.4549 -1.5109 -1.3878
  900MOL0     H24197   7.409   3.074   7.195 -0.6776 -2.0394  1.1284
  900MOL0     H24198   7.705   3.093   7.067 -2.2563 -0.0933 -2.7048
  900MOL0     H24199   7.550   3.171   7.065  0.4453  1.5617 -2.4646
  900MOL0     H24200   7.682   3.253   7.151  1.0181 -0.3158 -0.5379
  901MOL0     O24201   3.910   8.506   0.916 -0.2923 -0.4987  0.7373
  901MOL0     C24202   3.833   8.559   1.000  0.1579 -0.3344 -0.0499
  901MOL0     O24203   3.859   8.578   1.132  0.0515 -0.4666  0.2419
  901MOL0     C24204   3.987   8.549   1.178 -0.6315 -0.2753  0.0771
  901MOL0     C24205   4.108   8.606   1.124  0.5526  0.0325  0.1134
  901MOL0     C24206   4.232   8.593   1.188  0.3644 -0.3649 -0.6388
  901MOL0     C24207   4.245   8.512   1.295  0.3299 -0.2820 -0.0430
  901MOL0     O24208   4.365   8.508   1.360 -0.3829 -0.0434 -0.4512
  901MOL0     C24209   4.404   8.402   1.452  0.4476 -0.5836 -0.2257
  901MOL0     C24210   4.554   8.410   1.464  0.4794 -0.4169  0.0916
  901MOL0     C24211   4.608   8.548   1.495 -0.3844 -0.3575 -0.0637
  901MOL0     C24212   4.555   8.596   1.634  0.7654  0.0459  0.7588
  901MOL0     C24213   4.650   8.688   1.704  0.9589  0.0098 -0.1290
  901MOL0     C24214   4.587   8.742   1.835  0.4159  0.1400  0.1524
  901MOL0     C24215   4.690   8.819   1.924 -0.1348  0.3764 -0.9096
  901MOL0     C24216   4.813   8.737   1.955 -0.2920  0.3881 -0.0037
  901MOL0     N24217   4.873   8.783   2.086 -0.3323  0.7521  0.1154
  901MOL0     C24218   4.826   8.760   2.216  1.0057  1.4022  0.1880
  901MOL0     C24219   4.911   8.827   2.298 -0.2482  0.7899 -0.2465
  901MOL0     C24220   4.896   8.859   2.444 -0.5557 -0.4107 -0.0439
  901MOL0     C24221   5.000   8.791   2.522 -0.5309  0.0314 -0.3305
  901MOL0     C24222   4.989   8.854   2.670 -0.4129  0.3339  0.6153
  901MOL0     C24223   5.107   8.809   2.756  1.2396  0.5574  0.2300
  901MOL0     O24224   5.233   8.827   2.686 -0.5837 -0.4466 -0.8366
  901MOL0     C24225   5.351   8.782   2.751 -0.0448  0.3125  0.6095
  901MOL0     C24226   5.354   8.771   2.885  0.3937  0.5923 -0.3579
  901MOL0     C24227   5.471   8.723   2.948  0.0768  0.9125  0.7719
  901MOL0     C24228   5.469   8.707   3.099  0.4278  0.3129 -0.2384
  901MOL0     C24229   5.594   8.709   2.867 -0.6021 -0.7611 -0.1684
  901MOL0     C24230   5.725   8.670   2.920  0.5575 -0.4009 -1.2179
  901MOL0     O24231   5.801   8.607   2.835  0.2745 -0.0570 -1.1126
  901MOL0     C24232   5.930   8.588   2.874  0.4609  0.5961 -0.7350
  901MOL0     C24233   5.972   8.521   2.996  0.5536  0.1813  0.0114
  901MOL0     C24234   6.108   8.514   3.024 -0.1651 -0.0764 -0.0123
  901MOL0     C24235   6.202   8.574   2.948 -0.6902 -0.0347  1.2081
  901MOL0     O24236   6.330   8.562   2.995 -0.5780 -0.1789  0.4659
  901MOL0     C24237   6.439   8.583   2.904  0.5188  0.9232 -0.9056
  901MOL0     C24238   6.579   8.581   2.961 -0.6908 -0.5230  0.4815
  901MOL0     C24239   6.683   8.551   2.842 -0.0261 -0.7975 -0.6778
  901MOL0     C24240   6.723   8.684   2.778 -0.4126  0.2676 -0.3033
  901MOL0     C24241   6.834   8.675   2.667  0.2916 -0.4579  0.3033
  901MOL0     C24242   6.783   8.599   2.548  0.5523  0.1459 -0.0332
  901MOL0     C24243   6.895   8.608   2.440  0.9331 -0.1709 -0.5686
  901MOL0     C24244   6.864   8.535   2.311  0.2086  0.0979  0.0242
  901MOL0    Cl24245   6.970   8.574   2.177 -0.1861 -0.2199  0.3415
  901MOL0     C24246   6.158   8.633   2.826 -0.1748 -0.9603 -0.4250
  901MOL0     C24247   6.023   8.655   2.799 -0.9028 -0.3822  0.1209
  901MOL0     O24248   5.753   8.695   3.039 -0.4192 -0.0995 -0.7461
  901MOL0     C24249   5.581   8.722   2.726 -0.5362  0.2068  0.0910
  901MOL0     C24250   5.458   8.759   2.669 -0.7791 -0.2216 -0.0450
  901MOL0     N24251   5.007   8.877   2.224  0.0766 -0.5828  0.0117
  901MOL0     N24252   4.990   8.850   2.101  0.3950  0.3923 -0.0452
  901MOL0     C24253   4.136   8.452   1.357 -0.3669 -0.4601  1.0025
  901MOL0     C24254   4.006   8.477   1.301 -0.1883 -0.4692 -0.3188
  901MOL0     C24255   3.687   8.571   0.962  0.7819 -0.4045  0.2501
  901MOL0     C24256   3.602   8.626   1.057  0.2262 -0.3335  0.2699
  901MOL0     C24257   3.464   8.619   1.046 -0.2608 -0.1000  0.2176
  901MOL0     C24258   3.401   8.582   0.934 -0.3005  0.2517 -0.0389
  901MOL0     O24259   3.266   8.591   0.947  0.0856  0.2342 -0.2360
  901MOL0     C24260   3.196   8.589   0.821  0.1663  0.4547  0.0878
  901MOL0     C24261   3.046   8.590   0.839  0.4358  0.2840 -0.9102
  901MOL0     C24262   3.002   8.698   0.944  1.1454 -0.3468 -0.5538
  901MOL0     C24263   2.857   8.696   0.964  1.1722  0.5861 -0.2324
  901MOL0     C24264   2.776   8.727   0.845  0.2672 -0.4550  0.4943
  901MOL0     C24265   2.692   8.758   0.757 -0.2929  0.7254  0.2005
  901MOL0     C24266   3.480   8.536   0.834  0.4913 -0.4489 -0.6702
  901MOL0     C24267   3.621   8.519   0.844  0.2894  0.4227 -0.0714
  901MOL0     C24268   3.681   8.452   0.731 -0.3247  0.4552  0.0893
  901MOL0     H24269   4.083   8.665   1.036 -0.4728 -2.5007 -1.3984
  901MOL0     H24270   4.321   8.638   1.145  0.2367 -1.2596 -1.8624
  901MOL0     H24271   4.378   8.306   1.406 -0.1564 -0.7527  0.4362
  901MOL0     H24272   4.354   8.403   1.550  0.1986 -0.4475 -0.3513
  901MOL0     H24273   4.589   8.327   1.526 -1.7020 -1.7760 -0.3446
  901MOL0     H24274   4.587   8.387   1.362  1.8723 -0.3775  0.5180
  901MOL0     H24275   4.717   8.557   1.495 -0.3355 -0.9103  0.4972
  901MOL0     H24276   4.567   8.612   1.417 -1.2254 -2.0998 -1.1197
  901MOL0     H24277   4.456   8.641   1.618  0.5628 -0.4800  0.4805
  901MOL0     H24278   4.535   8.500   1.681 -0.5410 -0.0552  0.0446
  901MOL0     H24279   4.677   8.777   1.647  0.3740  1.8633  2.3204
  901MOL0     H24280   4.749   8.641   1.713  2.4347  2.4460 -2.2891
  901MOL0     H24281   4.503   8.809   1.818  2.6841  2.1333 -5.7012
  901MOL0     H24282   4.556   8.655   1.893 -2.5052 -0.0027 -1.4375
  901MOL0     H24283   4.627   8.832   2.013 -0.8429 -0.5438 -1.2593
  901MOL0     H24284   4.721   8.918   1.890 -2.3743  1.5384  0.2208
  901MOL0     H24285   4.783   8.632   1.964 -0.0726  0.3974  0.9371
  901MOL0     H24286   4.887   8.749   1.876 -0.6260 -1.3256 -0.6235
  901MOL0     H24287   4.738   8.704   2.247  0.6866  2.4197  1.1923
  901MOL0     H24288   4.803   8.818   2.482  0.0707 -3.1067 -1.1810
  901MOL0     H24289   4.903   8.968   2.456  0.8320 -0.4114 -0.5747
  901MOL0     H24290   4.982   8.683   2.522  2.6025 -0.6230  1.7557
  901MOL0     H24291   5.100   8.817   2.488  0.1311 -0.4168  1.1800
  901MOL0     H24292   4.985   8.964   2.671  0.0322  0.4261  3.8969
  901MOL0     H24293   4.897   8.811   2.710 -0.1757 -2.4359 -1.5123
  901MOL0     H24294   5.097   8.863   2.851 -0.4825 -1.0409  0.9922
  901MOL0     H24295   5.091   8.705   2.782  0.9209  0.6876  0.5624
  901MOL0     H24296   5.271   8.793   2.951  2.7750 -0.3860  3.2525
  901MOL0     H24297   5.526   8.796   3.127  3.1554 -0.8768 -1.6040
  901MOL0     H24298   5.523   8.621   3.138 -0.5967 -0.6563 -0.8824
  901MOL0     H24299   5.367   8.719   3.137 -0.7350 -0.4951 -2.8177
  901MOL0     H24300   5.898   8.470   3.057  1.3532 -1.5401 -0.4195
  901MOL0     H24301   6.137   8.462   3.115 -0.8281 -0.9201 -0.2657
  901MOL0     H24302   6.425   8.506   2.827 -1.4749 -1.3148  1.5002
  901MOL0     H24303   6.423   8.674   2.846 -3.0580 -0.5905 -2.6401
  901MOL0     H24304   6.597   8.677   3.012  2.8756 -2.0691  2.5151
  901MOL0     H24305   6.595   8.504   3.037 -0.3223 -1.6510 -0.7188
  901MOL0     H24306   6.629   8.495   2.766 -0.8195 -0.7430 -0.1744
  901MOL0     H24307   6.765   8.494   2.887  0.8819  1.1531  0.2810
  901MOL0     H24308   6.765   8.759   2.846 -1.6426 -0.6472  1.5372
  901MOL0     H24309   6.627   8.718   2.738 -0.4879 -1.0394 -1.2928
  901MOL0     H24310   6.870   8.775   2.643 -0.2949  0.9446  4.3895
  901MOL0     H24311   6.922   8.625   2.710  1.1802  0.8974  0.1099
  901MOL0     H24312   6.692   8.646   2.509 -0.0128  0.4117  1.5151
  901MOL0     H24313   6.771   8.493   2.570  1.4021  0.1943  0.7117
  901MOL0     H24314   6.986   8.559   2.477  0.3223 -1.5593 -0.8384
  901MOL0     H24315   6.917   8.711   2.409  1.0157  0.9724  2.9469
  901MOL0     H24316   6.762   8.559   2.278 -0.2463 -0.0974  1.2486
  901MOL0     H24317   6.862   8.427   2.323 -0.1281  0.0876 -0.1010
  901MOL0     H24318   6.233   8.677   2.760  0.9448 -2.2026 -0.0304
  901MOL0     H24319   5.997   8.729   2.723 -1.2529 -0.6816 -0.0523
  901MOL0     H24320   5.668   8.694   2.667  0.1725 -2.8294  2.3407
  901MOL0     H24321   5.457   8.767   2.561  2.2313 -0.4751 -0.1539
  901MOL0     H24322   4.146   8.398   1.451 -0.3109 -1.7803  0.2498
  901MOL0     H24323   3.925   8.422   1.349 -0.9261  0.0228 -0.9794
  901MOL0     H24324   3.638   8.676   1.147  2.2030  0.2226 -0.7668
  901MOL0     H24325   3.408   8.665   1.127 -2.5265  3.1279 -2.8654
  901MOL0     H24326   3.225   8.679   0.766  0.8818 -1.5989 -3.2023
  901MOL0     H24327   3.213   8.493   0.771  2.0087 -0.0064  1.5281
  901MOL0     H24328   3.012   8.497   0.885  1.2854  0.1806 -0.4614
  901MOL0     H24329   3.000   8.614   0.743  1.8424  1.1850 -1.3833
  901MOL0     H24330   3.041   8.685   1.046 -0.6428 -0.5290  0.1480
  901MOL0     H24331   3.030   8.795   0.903  0.9687 -0.3413 -0.6640
  901MOL0     H24332   2.841   8.765   1.048  2.7549 -0.0911  0.6776
  901MOL0     H24333   2.835   8.592   0.989  2.0062  0.5715  0.5059
  901MOL0     H24334   2.625   8.788   0.680  0.8199  2.2026 -0.2423
  901MOL0     H24335   3.430   8.505   0.742  1.1207 -2.1897 -0.4551
  901MOL0     H24336   3.607   8.411   0.663  1.7075  1.5706 -2.9842
  901MOL0     H24337   3.742   8.523   0.674  0.8112  0.0597  0.7856
  901MOL0     H24338   3.741   8.368   0.767  0.2912  1.0163  0.4247
  902MOL0     O24339   6.122   2.023   3.864 -0.2128 -0.7499  0.2467
  902MOL0     C24340   6.102   2.138   3.844  0.3309 -0.1987  1.2844
  902MOL0     O24341   6.194   2.233   3.791  0.2550 -0.3262 -0.1260
  902MOL0     C24342   6.325   2.234   3.824 -1.0315  0.4951  0.1928
  902MOL0     C24343   6.385   2.144   3.924  0.3299 -0.1749  0.0450
  902MOL0     C24344   6.522   2.153   3.943  0.6183 -0.1158  0.1443
  902MOL0     C24345   6.601   2.250   3.887  0.1633 -0.4583  0.4004
  902MOL0     O24346   6.733   2.275   3.919  0.5419 -0.1782  0.3009
  902MOL0     C24347   6.804   2.199   4.018  0.2987  1.1325 -0.1620
  902MOL0     C24348   6.948   2.249   4.008  0.5939 -0.2635 -0.5293
  902MOL0     C24349   7.016   2.217   3.874 -0.3732  0.3254  0.5983
  902MOL0     C24350   7.142   2.312   3.863 -0.8291  0.2527 -0.4720
  902MOL0     C24351   7.243   2.249   3.759 -0.2988 -0.1533 -0.1055
  902MOL0     C24352   7.332   2.362   3.699  0.0771  0.2317 -0.3295
  902MOL0     C24353   7.425   2.437   3.800 -0.3339 -0.1927  0.1177
  902MOL0     C24354   7.525   2.348   3.877 -0.4114 -0.4050 -0.7531
  902MOL0     N24355   7.638   2.440   3.920 -0.3023  0.5741  0.4984
  902MOL0     C24356   7.628   2.528   4.029  0.3837 -1.9384  0.3107
  902MOL0     C24357   7.758   2.560   4.061 -0.3636  0.4073  0.4330
  902MOL0     C24358   7.788   2.656   4.170 -0.4623  0.0868  0.3567
  902MOL0     C24359   7.930   2.648   4.199  0.1987 -0.1671  0.1354
  902MOL0     C24360   7.968   2.758   4.302 -0.6093 -0.0733  0.3311
  902MOL0     C24361   8.123   2.754   4.322  0.0675  0.1712 -0.4784
  902MOL0     O24362   8.172   2.889   4.338  0.9427 -0.2648  0.1734
  902MOL0     C24363   8.303   2.895   4.380  0.5036 -0.7301  0.4378
  902MOL0     C24364   8.333   3.021   4.429  0.1439 -0.0396 -0.5956
  902MOL0     C24365   8.458   3.046   4.486  0.4916  0.5642 -0.0508
  902MOL0     C24366   8.479   3.174   4.564 -0.1547  0.1444 -0.2873
  902MOL0     C24367   8.555   2.940   4.482  0.1581 -0.5806 -0.5822
  902MOL0     C24368   8.687   2.947   4.549  0.0699 -0.4659  0.3055
  902MOL0     O24369   8.773   2.855   4.500  0.3182  0.2189 -0.4001
  902MOL0     C24370   8.904   2.855   4.533  0.5612  0.5098 -0.2281
  902MOL0     C24371   8.999   2.819   4.430 -0.2470  0.4197  0.7408
  902MOL0     C24372   9.135   2.800   4.454 -0.1326 -0.3620  0.0252
  902MOL0     C24373   9.181   2.832   4.574 -0.6141  0.0044 -0.7803
  902MOL0     O24374   9.316   2.818   4.602 -0.6721 -0.6149  0.2117
  902MOL0     C24375   9.394   2.942   4.594 -0.2702  0.9456 -0.0222
  902MOL0     C24376   9.489   2.950   4.467 -0.0346 -0.5781 -0.8675
  902MOL0     C24377   9.575   2.818   4.458  0.4680 -0.0253  0.4864
  902MOL0     C24378   9.706   2.843   4.376  0.2161  0.9095 -0.2313
  902MOL0     C24379   9.786   2.711   4.370  0.6135 -0.8382  0.0150
  902MOL0     C24380   9.914   2.736   4.288 -0.1990  0.2467  0.3157
  902MOL0     C24381   9.989   2.600   4.274 -0.0475 -0.1861 -0.2827
  902MOL0     C24382  10.144   2.626   4.233 -0.8029 -0.1423 -0.2181
  902MOL0    Cl24383  10.245   2.474   4.233  0.6913 -0.0628  0.1746
  902MOL0     C24384   9.092   2.875   4.680 -0.2877  0.7942 -0.9476
  902MOL0     C24385   8.952   2.883   4.666  0.5165  0.2048 -0.2341
  902MOL0     O24386   8.704   3.028   4.637  0.7569  0.2040 -0.2162
  902MOL0     C24387   8.527   2.825   4.412 -0.0862 -0.3156  0.0866
  902MOL0     C24388   8.399   2.796   4.376  0.0771  0.2915  0.6938
  902MOL0     N24389   7.839   2.506   3.961 -0.0499  0.5107  0.1346
  902MOL0     N24390   7.767   2.434   3.880  0.0363 -0.0031 -0.0901
  902MOL0     C24391   6.546   2.332   3.783  0.6101  1.2402 -0.0476
  902MOL0     C24392   6.412   2.318   3.747  0.1651 -0.8981  0.4383
  902MOL0     C24393   5.957   2.180   3.843  0.7435  0.0561  1.0910
  902MOL0     C24394   5.917   2.287   3.757 -0.3263  0.2464  0.2216
  902MOL0     C24395   5.792   2.337   3.758  0.0267  0.6127  0.1381
  902MOL0     C24396   5.694   2.282   3.848 -0.1822  0.1575  0.1335
  902MOL0     O24397   5.558   2.315   3.850  0.1192 -0.2871 -0.5281
  902MOL0     C24398   5.494   2.379   3.734 -0.0627  0.0211 -0.1564
  902MOL0     C24399   5.347   2.384   3.774 -0.2404  0.0481  0.8169
  902MOL0     C24400   5.264   2.430   3.654 -0.3138  0.4427 -0.5752
  902MOL0     C24401   5.113   2.468   3.690 -0.2472  0.6156  0.4929
  902MOL0     C24402   5.040   2.352   3.750 -0.2855  0.3925  0.4761
  902MOL0     C24403   4.985   2.254   3.790 -0.6225  0.2341 -0.8996
  902MOL0     C24404   5.720   2.171   3.923  0.2710 -0.1847  0.8036
  902MOL0     C24405   5.856   2.129   3.931 -0.1455  0.2810  0.4201
  902MOL0     C24406   5.891   2.020   4.030 -0.4249  0.4908 -0.1439
  902MOL0     H24407   6.328   2.063   3.969  0.3137 -0.0788  0.1965
  902MOL0     H24408   6.567   2.099   4.026  1.0312 -0.5623 -0.3658
  902MOL0     H24409   6.812   2.091   4.004  2.5562  0.9962  1.5598
  902MOL0     H24410   6.768   2.218   4.119  0.8727 -0.6571  0.4083
  902MOL0     H24411   6.932   2.354   4.037  0.1395 -1.0935  2.5953
  902MOL0     H24412   7.010   2.207   4.088  2.4725  0.9854 -1.2483
  902MOL0     H24413   7.044   2.111   3.869  0.2909  0.5638 -2.2359
  902MOL0     H24414   6.946   2.238   3.793 -2.4597 -1.8663  1.7171
  902MOL0     H24415   7.135   2.421   3.850  0.2908  0.4739  0.5237
  902MOL0     H24416   7.191   2.307   3.961 -1.7556  0.5109  0.0120
  902MOL0     H24417   7.181   2.196   3.687 -0.0039 -1.6465  0.6983
  902MOL0     H24418   7.302   2.169   3.803  1.9082  0.6190 -1.5029
  902MOL0     H24419   7.386   2.311   3.618 -0.1713 -1.5835  0.6029
  902MOL0     H24420   7.279   2.444   3.649  1.4761  0.2357 -1.9212
  902MOL0     H24421   7.360   2.490   3.871 -1.8021 -1.3731 -0.2757
  902MOL0     H24422   7.478   2.509   3.737 -0.0534 -0.0591  0.5074
  902MOL0     H24423   7.484   2.292   3.962  1.1646 -1.1243 -0.4454
  902MOL0     H24424   7.566   2.274   3.807  1.5467 -2.4053  2.2929
  902MOL0     H24425   7.544   2.558   4.092  0.7070  0.7905 -0.4387
  902MOL0     H24426   7.734   2.621   4.258 -0.4998 -0.1601  0.2350
  902MOL0     H24427   7.755   2.755   4.136 -0.6650 -0.6420 -1.7321
  902MOL0     H24428   7.968   2.549   4.226  0.6450  0.1821  0.8046
  902MOL0     H24429   7.989   2.662   4.107  0.0635 -1.5401 -0.1817
  902MOL0     H24430   7.936   2.853   4.259  2.5641  1.2101  0.5336
  902MOL0     H24431   7.916   2.736   4.396 -0.5532  0.0143  0.3826
  902MOL0     H24432   8.139   2.696   4.413 -3.6016  0.1070  0.3056
  902MOL0     H24433   8.165   2.717   4.228  0.0375  1.2049 -0.9111
  902MOL0     H24434   8.258   3.099   4.423  0.4466  0.2520 -0.6354
  902MOL0     H24435   8.560   3.229   4.514 -1.3995  0.3689 -2.1429
  902MOL0     H24436   8.507   3.150   4.667  2.5944  1.6308 -0.5881
  902MOL0     H24437   8.396   3.244   4.551 -0.4074  0.0684  0.8684
  902MOL0     H24438   8.960   2.796   4.331  0.4099  1.4059  0.2259
  902MOL0     H24439   9.203   2.768   4.376  0.7978 -0.2347  0.7610
  902MOL0     H24440   9.334   3.032   4.610 -0.0904  1.0631  0.0074
  902MOL0     H24441   9.468   2.928   4.674 -0.7518  0.1288  0.2943
  902MOL0     H24442   9.435   2.970   4.374  1.4782 -1.1119 -1.8952
  902MOL0     H24443   9.553   3.036   4.489  1.4251 -1.8385 -0.0290
  902MOL0     H24444   9.510   2.743   4.412 -2.9767  1.9245  1.8082
  902MOL0     H24445   9.594   2.779   4.559 -0.6434  0.1904  0.7930
  902MOL0     H24446   9.770   2.920   4.418 -1.1394  0.0500  3.8174
  902MOL0     H24447   9.679   2.889   4.280  1.5881  2.5118  0.1119
  902MOL0     H24448   9.823   2.686   4.470  0.3353  3.2623  1.3568
  902MOL0     H24449   9.725   2.628   4.335 -2.8980  1.7273 -0.5659
  902MOL0     H24450   9.975   2.814   4.334 -1.3244  1.4733 -0.1827
  902MOL0     H24451   9.901   2.783   4.189  1.9447  2.1517  0.8594
  902MOL0     H24452   9.940   2.533   4.204 -1.2516 -0.6750  0.9719
  902MOL0     H24453   9.985   2.549   4.371 -4.0146 -1.4084 -0.9047
  902MOL0     H24454  10.199   2.689   4.302 -0.7034  1.2782 -1.5196
  902MOL0     H24455  10.147   2.670   4.132  2.1949 -1.5154 -0.8416
  902MOL0     H24456   9.144   2.890   4.774 -0.8136 -1.2910 -0.2743
  902MOL0     H24457   8.879   2.900   4.744  0.1609  0.0909 -0.5407
  902MOL0     H24458   8.589   2.738   4.390 -3.0271 -2.0270 -2.3225
  902MOL0     H24459   8.371   2.698   4.338  0.7519  0.2503  0.3066
  902MOL0     H24460   6.610   2.400   3.727 -0.5936 -0.5673 -3.9342
  902MOL0     H24461   6.381   2.382   3.665  1.7453 -1.0584 -0.3300
  902MOL0     H24462   5.985   2.324   3.681 -2.1188 -1.2107 -2.2409
  902MOL0     H24463   5.764   2.413   3.685  1.7040 -0.0878 -1.2993
  902MOL0     H24464   5.541   2.477   3.720  0.5198 -0.0292  1.2579
  902MOL0     H24465   5.502   2.310   3.650 -1.1916 -0.9097  0.4666
  902MOL0     H24466   5.336   2.455   3.856  0.6254  1.2976 -0.1033
  902MOL0     H24467   5.308   2.288   3.809 -2.0451  1.3744  2.7176
  902MOL0     H24468   5.316   2.511   3.601  0.4501  0.6029  0.3905
  902MOL0     H24469   5.266   2.347   3.583 -0.0420 -1.4993  1.6024
  902MOL0     H24470   5.057   2.494   3.600  0.3024 -1.3856 -0.5050
  902MOL0     H24471   5.112   2.549   3.763  0.2227 -2.6861  4.5279
  902MOL0     H24472   4.936   2.169   3.832 -2.6552  1.0392 -1.5622
  902MOL0     H24473   5.640   2.133   3.985 -0.6781  1.1960  0.4774
  902MOL0     H24474   5.894   1.924   3.978  0.7651 -0.2383  1.2380
  902MOL0     H24475   5.992   2.038   4.068 -0.3658 -1.7539  0.8726
  902MOL0     H24476   5.821   2.018   4.114  0.5296 -1.5681  0.6453
  903MOL0     O24477   0.191   0.064  10.974 -0.3562 -0.2423 -0.2322
  903MOL0     C24478   0.154   0.083  11.092 -0.0814  0.0238  0.4310
  903MOL0     O24479   0.228   0.061  11.202  0.3195 -0.2170 -0.3658
  903MOL0     C24480   0.355   0.013  11.188  0.2626 -1.1817 -0.2609
  903MOL0     C24481   0.458   0.101  11.232 -0.4190 -0.7343 -0.9665
  903MOL0     C24482   0.594   0.066  11.230 -0.3085 -0.9393  0.2582
  903MOL0     C24483   0.619  -0.066  11.193 -0.3152  0.8922  0.7545
  903MOL0     O24484   0.752  -0.099  11.195 -0.1019 -0.6218  0.1492
  903MOL0     C24485   0.798  -0.229  11.193  0.1088  0.6984 -0.2779
  903MOL0     C24486   0.948  -0.228  11.242 -0.5285  0.2538 -0.3655
  903MOL0     C24487   0.967  -0.166  11.380 -0.1872 -0.6915 -0.5773
  903MOL0     C24488   1.111  -0.161  11.435  1.0214  0.3837  0.1121
  903MOL0     C24489   1.123  -0.088  11.567 -0.2227  0.1226  0.9972
  903MOL0     C24490   1.271  -0.096  11.606 -0.2258  1.1186  0.3501
  903MOL0     C24491   1.301  -0.021  11.739  0.2829 -0.2050  0.4210
  903MOL0     C24492   1.449  -0.019  11.786  0.4370  0.5850 -0.5726
  903MOL0     N24493   1.500  -0.158  11.765  0.6443 -0.2535 -1.1712
  903MOL0     C24494   1.473  -0.263  11.852 -0.4150 -0.6736  0.8160
  903MOL0     C24495   1.540  -0.374  11.794  0.0606  0.1005 -0.6691
  903MOL0     C24496   1.529  -0.512  11.848  0.3364  0.0126 -0.1812
  903MOL0     C24497   1.625  -0.544  11.969 -0.4844 -0.9366 -0.2933
  903MOL0     C24498   1.606  -0.443  12.077 -0.1252 -0.2918  0.0152
  903MOL0     C24499   1.669  -0.480  12.211  0.4029 -0.2726  0.9476
  903MOL0     O24500   1.800  -0.545  12.188 -0.3917  0.0182 -0.0850
  903MOL0     C24501   1.881  -0.553  12.296  0.2484  0.3696  0.5694
  903MOL0     C24502   1.859  -0.487  12.418 -0.6681  0.4024  0.5219
  903MOL0     C24503   1.941  -0.490  12.533 -0.1140 -0.1638  0.2473
  903MOL0     C24504   1.893  -0.443  12.663  0.9576  0.6899 -0.1865
  903MOL0     C24505   2.070  -0.569  12.516  0.7708  0.1075  0.6247
  903MOL0     C24506   2.175  -0.573  12.623 -0.9601  0.6868  0.2686
  903MOL0     O24507   2.293  -0.615  12.569  0.2362 -0.1685  0.0844
  903MOL0     C24508   2.411  -0.612  12.646 -0.1855  0.2633 -0.4693
  903MOL0     C24509   2.517  -0.530  12.605  0.5261  1.3679  0.3276
  903MOL0     C24510   2.642  -0.514  12.686  0.1932  0.3325  0.0808
  903MOL0     C24511   2.659  -0.584  12.811  0.4500  0.3866 -0.8796
  903MOL0     O24512   2.778  -0.572  12.884 -0.2415  0.1520  0.5013
  903MOL0     C24513   2.814  -0.670  12.983  0.2172  0.6716  0.5626
  903MOL0     C24514   2.926  -0.605  13.069  1.8426  0.4925 -0.4521
  903MOL0     C24515   3.058  -0.584  12.988 -0.5740  0.4158 -0.2307
  903MOL0     C24516   3.130  -0.716  12.951  0.0705 -0.6268  0.3861
  903MOL0     C24517   3.273  -0.707  12.896  0.4295  0.3179 -0.0453
  903MOL0     C24518   3.334  -0.852  12.879 -0.4172 -0.8415  0.6857
  903MOL0     C24519   3.464  -0.838  12.796  0.0496 -0.1053  0.1449
  903MOL0     C24520   3.575  -0.812  12.893 -0.0201  1.2218 -0.7924
  903MOL0    Cl24521   3.583  -0.943  13.018 -0.3579 -0.0639 -0.2131
  903MOL0     C24522   2.557  -0.675  12.843 -0.6258 -0.8986 -0.5530
  903MOL0     C24523   2.434  -0.683  12.769  0.1342  0.8893 -0.3857
  903MOL0     O24524   2.148  -0.556  12.740  1.0162  0.0816 -0.6515
  903MOL0     C24525   2.094  -0.640  12.390  0.4442 -0.8362  0.7058
  903MOL0     C24526   1.999  -0.627  12.285  0.6729  0.3120 -0.5972
  903MOL0     N24527   1.599  -0.326  11.679 -0.1688  0.2205 -0.2310
  903MOL0     N24528   1.572  -0.197  11.661 -0.5460 -0.2492 -0.6908
  903MOL0     C24529   0.518  -0.153  11.150  0.6858  0.1460 -0.0157
  903MOL0     C24530   0.382  -0.115  11.155  0.1823  0.7542  0.1351
  903MOL0     C24531   0.013   0.138  11.117  0.1801  0.3195 -0.0757
  903MOL0     C24532  -0.021   0.182  11.252 -0.2581  0.5336  0.4674
  903MOL0     C24533  -0.150   0.233  11.278  0.6688  0.2398 -0.1225
  903MOL0     C24534  -0.245   0.244  11.176 -0.6391  0.9387 -0.3134
  903MOL0     O24535  -0.369   0.299  11.188  0.0667  0.6380  0.2760
  903MOL0     C24536  -0.431   0.342  11.310 -0.4860  0.0777  0.2029
  903MOL0     C24537  -0.558   0.275  11.354  0.2707 -0.2420 -0.4825
  903MOL0     C24538  -0.658   0.267  11.236  0.1930 -0.0676 -0.1733
  903MOL0     C24539  -0.785   0.175  11.263 -0.5404  0.2995  0.7720
  903MOL0     C24540  -0.880   0.240  11.353  0.3951 -0.2229  0.5834
  903MOL0     C24541  -0.949   0.302  11.434 -0.0956 -0.5555 -0.1139
  903MOL0     C24542  -0.220   0.191  11.051 -0.4790  0.1323  0.2584
  903MOL0     C24543  -0.098   0.139  11.021 -0.1797  0.3996 -0.2118
  903MOL0     C24544  -0.085   0.081  10.878 -0.0665 -0.0714  0.6460
  903MOL0     H24545   0.424   0.197  11.269  0.2023 -0.8857  0.0605
  903MOL0     H24546   0.679   0.127  11.258  1.2332 -2.6054 -0.5462
  903MOL0     H24547   0.791  -0.272  11.092 -0.2657 -0.2102  0.1275
  903MOL0     H24548   0.726  -0.288  11.251  0.0191 -1.6778 -2.6149
  903MOL0     H24549   0.997  -0.325  11.231 -0.5255  0.3210 -1.0192
  903MOL0     H24550   1.007  -0.167  11.173  1.1193  0.2116  0.9522
  903MOL0     H24551   0.916  -0.069  11.380  0.4481 -0.3464  0.2627
  903MOL0     H24552   0.924  -0.236  11.451 -0.5010 -0.9201 -0.9863
  903MOL0     H24553   1.140  -0.266  11.441 -4.1597 -1.3327  0.7521
  903MOL0     H24554   1.161  -0.108  11.353 -0.7950  0.8776 -0.7351
  903MOL0     H24555   1.057  -0.124  11.647 -0.6226 -0.4729  0.4022
  903MOL0     H24556   1.098   0.017  11.549  1.3789  0.2205 -0.9538
  903MOL0     H24557   1.297  -0.202  11.605 -0.1373  0.9889 -3.8124
  903MOL0     H24558   1.323  -0.052  11.520 -3.2052 -0.5116 -2.5576
  903MOL0     H24559   1.237  -0.069  11.814  2.1411 -2.7044  0.5615
  903MOL0     H24560   1.264   0.081  11.746 -3.2495 -1.4088  1.2639
  903MOL0     H24561   1.510   0.059  11.739  1.3458 -0.2102 -0.7363
  903MOL0     H24562   1.449  -0.001  11.894 -0.1686  1.5148 -0.7130
  903MOL0     H24563   1.424  -0.274  11.948 -0.1153 -2.3186  0.8172
  903MOL0     H24564   1.556  -0.580  11.767  0.8888 -0.4524  0.3894
  903MOL0     H24565   1.425  -0.532  11.876 -0.1600 -0.2346 -2.0479
  903MOL0     H24566   1.607  -0.641  12.016 -0.3191 -1.4249 -1.2133
  903MOL0     H24567   1.728  -0.534  11.934 -0.8691 -0.4684 -1.3242
  903MOL0     H24568   1.642  -0.343  12.049  2.4514 -1.6853 -2.0809
  903MOL0     H24569   1.501  -0.421  12.098  0.7271  2.6992  1.8834
  903MOL0     H24570   1.666  -0.383  12.261  0.3752 -0.9661  2.3514
  903MOL0     H24571   1.605  -0.543  12.274 -0.5840 -0.1097  0.1394
  903MOL0     H24572   1.766  -0.434  12.435 -1.9507 -2.1287  2.0771
  903MOL0     H24573   1.967  -0.369  12.696  1.4895  1.2418 -2.4184
  903MOL0     H24574   1.896  -0.514  12.745  1.2079  1.9986  0.9808
  903MOL0     H24575   1.797  -0.390  12.661 -0.2295 -1.3107 -3.0446
  903MOL0     H24576   2.510  -0.486  12.506  1.0183  1.6071  0.3973
  903MOL0     H24577   2.724  -0.449  12.661 -0.7619  1.4656 -0.1790
  903MOL0     H24578   2.727  -0.693  13.045  1.8225 -0.7068  2.4729
  903MOL0     H24579   2.848  -0.757  12.925 -2.2583  0.1301 -0.1839
  903MOL0     H24580   2.881  -0.515  13.111  1.3011  0.2114 -0.4205
  903MOL0     H24581   2.937  -0.680  13.149 -0.6813  0.3860 -0.1332
  903MOL0     H24582   3.124  -0.532  13.059 -0.1280 -2.7675  1.8788
  903MOL0     H24583   3.043  -0.521  12.899  0.5696  2.6536  1.0756
  903MOL0     H24584   3.069  -0.763  12.873 -0.4405 -1.9812  1.5656
  903MOL0     H24585   3.123  -0.784  13.036 -0.6018 -2.0437 -0.7482
  903MOL0     H24586   3.275  -0.655  12.800 -1.2307  1.5432  0.5459
  903MOL0     H24587   3.323  -0.644  12.970 -1.9780 -0.3386  2.2942
  903MOL0     H24588   3.264  -0.919  12.830  2.1790 -2.8586 -0.4963
  903MOL0     H24589   3.356  -0.891  12.979  2.7445 -1.5372 -0.1468
  903MOL0     H24590   3.456  -0.767  12.713  1.3517 -0.7536 -0.5673
  903MOL0     H24591   3.475  -0.930  12.738  1.6131  0.9392 -1.3032
  903MOL0     H24592   3.548  -0.719  12.943  0.8357  1.3742 -0.6049
  903MOL0     H24593   3.669  -0.792  12.841 -0.0369  0.1977 -1.2614
  903MOL0     H24594   2.557  -0.735  12.933  0.1684  1.0748  0.8347
  903MOL0     H24595   2.354  -0.752  12.794  0.4919  0.8305  0.6545
  903MOL0     H24596   2.177  -0.708  12.374 -0.3392 -1.6235 -0.1160
  903MOL0     H24597   2.007  -0.670  12.186  0.5412  1.5501 -1.1600
  903MOL0     H24598   0.548  -0.248  11.108 -2.5687 -1.1297  0.3030
  903MOL0     H24599   0.307  -0.189  11.126  0.7038 -0.6524  2.1650
  903MOL0     H24600   0.054   0.203  11.326 -0.4120  2.7848  0.0374
  903MOL0     H24601  -0.168   0.278  11.375  1.5694 -1.3676  0.8448
  903MOL0     H24602  -0.359   0.325  11.391 -2.1255 -1.6713  1.4019
  903MOL0     H24603  -0.437   0.450  11.296  0.0649 -0.1608 -2.2575
  903MOL0     H24604  -0.604   0.329  11.437 -1.0053  0.1314 -1.4014
  903MOL0     H24605  -0.541   0.176  11.397  2.5214  0.2109 -0.2391
  903MOL0     H24606  -0.695   0.368  11.219  0.3491 -0.2071 -1.4899
  903MOL0     H24607  -0.618   0.231  11.140 -0.5625 -2.2475  0.2746
  903MOL0     H24608  -0.759   0.073  11.293  2.6924  1.1634  1.1993
  903MOL0     H24609  -0.839   0.155  11.169 -0.0111 -2.4563  0.9501
  903MOL0     H24610  -1.007   0.364  11.499  0.9741  1.4427 -0.9833
  903MOL0     H24611  -0.302   0.198  10.981 -0.3755 -0.0979  0.1118
  903MOL0     H24612  -0.014  -0.002  10.884  1.7987  1.2999 -1.0535
  903MOL0     H24613  -0.179   0.032  10.851  0.0983 -0.7034  1.1791
  903MOL0     H24614  -0.052   0.156  10.806 -0.7618 -1.5499 -1.2972
  904MOL0     O24615   7.497   5.786   1.789 -1.1099 -0.5930  0.3229
  904MOL0     C24616   7.458   5.670   1.767  0.7523  0.7875  0.5101
  904MOL0     O24617   7.545   5.562   1.749  0.1619  0.1142 -0.2209
  904MOL0     C24618   7.679   5.596   1.724 -0.7299  0.1410 -0.1559
  904MOL0     C24619   7.774   5.505   1.783 -0.9390  0.1333  0.1439
  904MOL0     C24620   7.907   5.517   1.762 -0.5501  0.1191  0.3855
  904MOL0     C24621   7.951   5.612   1.673 -0.6923  0.2571 -0.3372
  904MOL0     O24622   8.077   5.623   1.622  0.5558 -0.0736  0.2018
  904MOL0     C24623   8.177   5.527   1.635  0.4935  0.1780 -0.5126
  904MOL0     C24624   8.322   5.569   1.603 -0.8059 -0.9750 -0.1860
  904MOL0     C24625   8.370   5.688   1.692  1.1059  0.1009 -0.3470
  904MOL0     C24626   8.516   5.670   1.727  0.6954  0.4783  0.1984
  904MOL0     C24627   8.582   5.796   1.756 -0.6858 -0.5849  0.4780
  904MOL0     C24628   8.728   5.769   1.812 -0.3083 -0.4515  0.6495
  904MOL0     C24629   8.804   5.898   1.823  0.0118  0.0072  0.7376
  904MOL0     C24630   8.927   5.872   1.901 -0.0841 -0.1822  0.1274
  904MOL0     N24631   9.017   5.989   1.911 -0.2702 -0.1334  0.1807
  904MOL0     C24632   8.976   6.120   1.928  0.6051  0.0886  0.1234
  904MOL0     C24633   9.086   6.198   1.909  0.1758  0.4160 -0.5171
  904MOL0     C24634   9.092   6.344   1.923  0.8140 -0.0324 -0.1576
  904MOL0     C24635   9.186   6.398   1.811  0.3218  0.1787 -1.0285
  904MOL0     C24636   9.186   6.553   1.801  0.2592  0.4117  0.6337
  904MOL0     C24637   9.316   6.604   1.851 -0.4103  0.5013  0.5241
  904MOL0     O24638   9.424   6.586   1.758 -0.6596 -1.0241  0.3745
  904MOL0     C24639   9.556   6.628   1.793  0.7026 -0.8837  0.5606
  904MOL0     C24640   9.602   6.691   1.907  0.6067 -0.8833  0.4108
  904MOL0     C24641   9.739   6.731   1.923  0.1691  0.0620  0.7156
  904MOL0     C24642   9.777   6.786   2.053  0.0395  0.1475 -0.5070
  904MOL0     C24643   9.825   6.711   1.806 -0.6980  0.9564  0.0574
  904MOL0     C24644   9.971   6.750   1.801 -0.0204  0.1500 -0.3426
  904MOL0     O24645  10.055   6.689   1.711 -0.3764 -0.4650 -0.8311
  904MOL0     C24646  10.164   6.754   1.672 -0.0894  0.3242 -0.2938
  904MOL0     C24647  10.168   6.820   1.544  0.7158  0.1345  0.5867
  904MOL0     C24648  10.289   6.884   1.509  0.5491 -1.2528  0.9888
  904MOL0     C24649  10.404   6.870   1.583 -0.6081 -0.1786  0.2212
  904MOL0     O24650  10.511   6.942   1.533 -0.1821 -0.1700  0.1487
  904MOL0     C24651  10.645   6.912   1.575  0.9023  0.2607  0.1405
  904MOL0     C24652  10.747   7.005   1.516 -0.1676 -0.2335  1.1499
  904MOL0     C24653  10.722   7.150   1.544 -0.3616  0.1021  0.2072
  904MOL0     C24654  10.803   7.242   1.453 -0.5534 -0.4483  0.7133
  904MOL0     C24655  10.787   7.387   1.480  1.0877  0.2699 -0.0928
  904MOL0     C24656  10.839   7.473   1.364 -0.1845  0.2166  0.4578
  904MOL0     C24657  10.859   7.618   1.404  0.0510 -0.3051  0.1274
  904MOL0     C24658  10.995   7.644   1.470  0.3338 -0.2814  0.1940
  904MOL0    Cl24659  10.987   7.823   1.516 -0.0102 -0.1067  0.1664
  904MOL0     C24660  10.396   6.814   1.711 -0.6026 -0.7503  0.0882
  904MOL0     C24661  10.275   6.752   1.753 -0.0934  0.2933 -0.2137
  904MOL0     O24662   9.998   6.842   1.875 -0.4681  0.2737 -0.0044
  904MOL0     C24663   9.770   6.638   1.699 -0.2887 -0.4762 -0.2756
  904MOL0     C24664   9.641   6.598   1.692  0.4618  0.6602 -0.3164
  904MOL0     N24665   9.194   6.114   1.874 -0.4057  0.4736  0.0314
  904MOL0     N24666   9.148   5.990   1.878  0.1197 -0.2417  0.5145
  904MOL0     C24667   7.867   5.706   1.613  0.4004 -0.3510 -0.7669
  904MOL0     C24668   7.730   5.694   1.635  0.0690  0.4768  0.3541
  904MOL0     C24669   7.305   5.647   1.770  0.0891 -0.3402 -0.0274
  904MOL0     C24670   7.219   5.752   1.736 -0.0015 -0.0816 -0.1185
  904MOL0     C24671   7.081   5.734   1.700 -0.6716 -0.7054  0.0640
  904MOL0     C24672   7.022   5.612   1.714 -0.3144 -0.0398  1.3230
  904MOL0     O24673   6.886   5.598   1.687 -0.2312 -0.7694  0.0132
  904MOL0     C24674   6.830   5.651   1.561 -0.3906  0.7593  0.9380
  904MOL0     C24675   6.818   5.554   1.444  0.2843  0.7283 -0.1568
  904MOL0     C24676   6.714   5.446   1.489  0.2900 -0.1000  0.2455
  904MOL0     C24677   6.716   5.318   1.413  0.4527  0.8282 -0.6811
  904MOL0     C24678   6.704   5.343   1.272  0.8125  0.3742 -0.2161
  904MOL0     C24679   6.700   5.358   1.155 -0.2977  0.1852 -0.0874
  904MOL0     C24680   7.102   5.506   1.747  0.2817 -0.2513 -1.1152
  904MOL0     C24681   7.240   5.521   1.784 -0.3205 -0.6037  0.2473
  904MOL0     C24682   7.320   5.400   1.832  0.5739 -0.0385  0.2140
  904MOL0     H24683   7.742   5.422   1.845  0.6982 -2.1064 -1.8698
  904MOL0     H24684   7.983   5.452   1.804  2.0183  3.2162  0.9014
  904MOL0     H24685   8.139   5.443   1.576 -0.1034  1.7593 -2.5209
  904MOL0     H24686   8.189   5.497   1.739  2.4620 -0.6246 -0.9190
  904MOL0     H24687   8.386   5.481   1.616 -2.0643 -1.6953  1.3794
  904MOL0     H24688   8.324   5.605   1.500  0.5846 -0.0999  0.1215
  904MOL0     H24689   8.353   5.782   1.641 -1.3288  0.2610  0.5760
  904MOL0     H24690   8.315   5.704   1.786  0.2256  2.1351 -1.1526
  904MOL0     H24691   8.527   5.612   1.819 -0.0966  0.4095  0.2588
  904MOL0     H24692   8.560   5.619   1.641 -1.3410 -1.4498  0.1870
  904MOL0     H24693   8.528   5.870   1.817 -0.7928  0.8729 -1.2824
  904MOL0     H24694   8.602   5.848   1.662  2.3244 -2.5168 -0.0784
  904MOL0     H24695   8.715   5.725   1.911 -0.9347 -0.7212  0.4533
  904MOL0     H24696   8.772   5.683   1.759 -1.2158 -1.9055  2.1518
  904MOL0     H24697   8.738   5.966   1.878 -1.6524 -0.9103 -0.0422
  904MOL0     H24698   8.826   5.940   1.724 -1.3932  1.5763  1.0403
  904MOL0     H24699   8.907   5.831   2.001 -0.7681 -0.0453  0.0461
  904MOL0     H24700   8.979   5.796   1.842 -1.7865 -0.3307 -1.2631
  904MOL0     H24701   8.877   6.152   1.956  0.5955 -0.7427  1.1003
  904MOL0     H24702   9.108   6.371   2.028 -0.1433  1.4104 -0.3664
  904MOL0     H24703   8.989   6.377   1.908  1.6761  2.7558 -0.4537
  904MOL0     H24704   9.284   6.354   1.826 -1.5164 -3.3358  2.3141
  904MOL0     H24705   9.150   6.361   1.714  1.8264 -2.1258 -0.7864
  904MOL0     H24706   9.170   6.597   1.702  0.6128 -1.2562 -0.1878
  904MOL0     H24707   9.102   6.585   1.864  0.8842  0.9800  1.1910
  904MOL0     H24708   9.307   6.709   1.877  3.3360  0.0553  4.7385
  904MOL0     H24709   9.330   6.545   1.942 -1.4665 -2.5853 -1.1595
  904MOL0     H24710   9.534   6.712   1.989 -1.6232  0.0697 -1.5367
  904MOL0     H24711   9.858   6.735   2.105 -1.0047 -1.1595 -0.0896
  904MOL0     H24712   9.696   6.769   2.125 -0.5497 -2.3012 -1.6310
  904MOL0     H24713   9.806   6.890   2.037  0.2536 -0.3116 -3.6277
  904MOL0     H24714  10.076   6.809   1.487  2.9915 -0.0890 -3.4740
  904MOL0     H24715  10.311   6.937   1.418  0.6917 -0.9933  1.1756
  904MOL0     H24716  10.649   6.934   1.682 -2.0076 -2.8918  1.0899
  904MOL0     H24717  10.657   6.803   1.566  1.4443  0.2373  1.0229
  904MOL0     H24718  10.845   6.965   1.542  0.6745  0.6555 -0.4546
  904MOL0     H24719  10.750   7.004   1.406  0.3309  4.0168  0.9384
  904MOL0     H24720  10.747   7.160   1.650 -0.2153 -0.4395  0.2243
  904MOL0     H24721  10.617   7.176   1.524 -0.1207 -0.0569 -1.3978
  904MOL0     H24722  10.777   7.228   1.347  3.3993 -4.3939 -0.0346
  904MOL0     H24723  10.909   7.216   1.456 -0.5215 -0.6597 -1.1278
  904MOL0     H24724  10.680   7.402   1.494  1.4735  0.6008  3.4463
  904MOL0     H24725  10.836   7.411   1.575  0.6842  0.1549  0.1481
  904MOL0     H24726  10.763   7.457   1.287  2.3233 -5.6132 -1.3675
  904MOL0     H24727  10.934   7.430   1.332 -0.9581 -1.6170  0.4817
  904MOL0     H24728  10.779   7.642   1.475  0.6668  2.9469 -0.1158
  904MOL0     H24729  10.844   7.681   1.316  0.5284 -0.0473  0.2247
  904MOL0     H24730  11.078   7.624   1.401 -0.7237  0.8037 -1.4647
  904MOL0     H24731  11.006   7.577   1.555 -0.6346  0.6382  1.0738
  904MOL0     H24732  10.484   6.821   1.774 -0.8775  0.2319  0.3738
  904MOL0     H24733  10.271   6.698   1.847  0.7913 -1.2725 -1.0233
  904MOL0     H24734   9.838   6.627   1.615  1.1124  0.4058  0.7089
  904MOL0     H24735   9.599   6.547   1.606  1.6518 -3.0294  1.0821
  904MOL0     H24736   7.916   5.776   1.546  1.7979 -2.6653 -2.3078
  904MOL0     H24737   7.664   5.762   1.582  0.7041  0.1435 -0.9171
  904MOL0     H24738   7.253   5.854   1.723 -2.6514  0.7145 -1.5527
  904MOL0     H24739   7.014   5.815   1.674  0.1478 -0.1935 -0.5209
  904MOL0     H24740   6.724   5.673   1.580 -0.7583 -1.3540  1.5527
  904MOL0     H24741   6.866   5.749   1.527  0.2484 -0.1000 -0.9909
  904MOL0     H24742   6.921   5.523   1.422  0.5074  0.8480  0.6972
  904MOL0     H24743   6.786   5.616   1.359  0.5927  2.1824  0.7496
  904MOL0     H24744   6.726   5.425   1.595 -1.6159  0.0026  0.5276
  904MOL0     H24745   6.615   5.490   1.470 -0.3873 -1.5760  0.1862
  904MOL0     H24746   6.637   5.250   1.446  0.2001  2.4864  2.4010
  904MOL0     H24747   6.816   5.274   1.423  0.1700 -0.3188 -2.3233
  904MOL0     H24748   6.699   5.382   1.051  1.2830 -0.8342 -0.3746
  904MOL0     H24749   7.061   5.409   1.772  0.6610 -1.1912 -3.8490
  904MOL0     H24750   7.245   5.329   1.867  0.1130  0.7029  0.7589
  904MOL0     H24751   7.374   5.355   1.749  0.1488 -1.8923  0.9026
  904MOL0     H24752   7.388   5.413   1.917 -0.4787  0.9444  0.9406
  905MOL0     O24753   7.134   8.122   5.056  0.3798 -0.0715  0.3830
  905MOL0     C24754   7.152   7.996   5.069  0.8079 -0.2710 -0.7902
  905MOL0     O24755   7.275   7.934   5.107 -0.1354  0.1993  0.1405
  905MOL0     C24756   7.289   7.794   5.099 -0.2477  0.3101  0.3199
  905MOL0     C24757   7.310   7.728   5.218  0.1642 -0.8346 -0.2096
  905MOL0     C24758   7.338   7.592   5.212  0.1445  0.9800 -0.1299
  905MOL0     C24759   7.369   7.528   5.096  0.8520  0.2640  0.7838
  905MOL0     O24760   7.417   7.402   5.085  0.4842  1.2430 -0.8322
  905MOL0     C24761   7.564   7.394   5.041  0.7194  0.0597  0.0818
  905MOL0     C24762   7.589   7.241   5.040  0.4066  0.9481  0.5483
  905MOL0     C24763   7.735   7.208   5.049  0.1074  0.4165  0.0404
  905MOL0     C24764   7.752   7.056   5.031  0.9595 -0.3657  0.2776
  905MOL0     C24765   7.891   6.998   5.026 -0.4266  0.7319  0.5518
  905MOL0     C24766   7.975   7.007   5.151 -0.3927 -0.2917  0.1404
  905MOL0     C24767   8.099   6.916   5.152 -0.0897 -0.5453  0.5846
  905MOL0     C24768   8.208   6.965   5.052 -0.2577  0.1577 -0.4840
  905MOL0     N24769   8.338   6.906   5.060  0.3314  0.8349 -0.0926
  905MOL0     C24770   8.375   6.770   5.061  0.6276 -0.3945  0.2416
  905MOL0     C24771   8.506   6.771   5.083 -0.4053 -0.2739  0.7122
  905MOL0     C24772   8.590   6.652   5.121 -0.5310  0.1690  0.8501
  905MOL0     C24773   8.650   6.581   5.001 -0.0464 -0.1993  0.5050
  905MOL0     C24774   8.737   6.462   5.045 -0.2891  0.6200 -0.0437
  905MOL0     C24775   8.821   6.416   4.926  0.0459 -0.1920  1.0311
  905MOL0     O24776   8.926   6.324   4.960  0.4307 -0.5031 -0.1855
  905MOL0     C24777   9.039   6.324   4.877  0.0080  0.1498  0.0856
  905MOL0     C24778   9.038   6.354   4.736 -0.4030  0.4221  0.3426
  905MOL0     C24779   9.159   6.350   4.659  0.1371 -0.4885 -0.7563
  905MOL0     C24780   9.159   6.388   4.512  0.6281  0.1801  0.0887
  905MOL0     C24781   9.283   6.328   4.726  0.1279  0.2466  0.2084
  905MOL0     C24782   9.411   6.330   4.659  1.3318  0.5039  0.5926
  905MOL0     O24783   9.440   6.446   4.607 -0.9142 -0.5710 -1.1501
  905MOL0     C24784   9.544   6.467   4.519  0.7422  0.1504 -0.5193
  905MOL0     C24785   9.581   6.369   4.429 -0.0995 -0.1511  1.5425
  905MOL0     C24786   9.687   6.400   4.335 -0.0690  0.4874 -0.2680
  905MOL0     C24787   9.736   6.530   4.324  0.4585 -0.4668  0.4284
  905MOL0     O24788   9.848   6.551   4.242  0.1339 -0.8917  0.3820
  905MOL0     C24789   9.840   6.486   4.109  0.2985 -0.0897  0.3050
  905MOL0     C24790   9.915   6.565   4.006 -0.1960 -0.9126  0.3897
  905MOL0     C24791   9.921   6.494   3.869 -0.2141 -0.7447  0.6815
  905MOL0     C24792  10.038   6.549   3.785 -0.6636 -0.1707  0.2351
  905MOL0     C24793  10.032   6.517   3.636  0.5781 -0.4256  0.7840
  905MOL0     C24794  10.153   6.583   3.561  0.3343 -0.4724  0.3539
  905MOL0     C24795  10.173   6.543   3.413 -0.7592 -0.2065  0.1522
  905MOL0     C24796  10.234   6.406   3.398 -0.1888  0.5132 -0.1270
  905MOL0    Cl24797  10.398   6.400   3.462  0.2676  0.1993  0.8860
  905MOL0     C24798   9.692   6.630   4.414 -0.1011 -0.3202  0.1999
  905MOL0     C24799   9.600   6.598   4.513 -0.9154 -0.7742  0.9799
  905MOL0     O24800   9.478   6.231   4.662 -0.6299 -0.3951 -0.3899
  905MOL0     C24801   9.280   6.281   4.857  0.1217  0.4720 -0.2630
  905MOL0     C24802   9.160   6.280   4.932  0.1357 -1.0110  0.6316
  905MOL0     N24803   8.548   6.905   5.075  0.1389  0.4616  0.8450
  905MOL0     N24804   8.447   6.981   5.074 -0.7219 -0.4969  0.6013
  905MOL0     C24805   7.368   7.599   4.979 -1.2298  0.6254 -0.0235
  905MOL0     C24806   7.317   7.733   4.974  0.5678  0.2964  0.1461
  905MOL0     C24807   7.037   7.920   5.027  0.3235  0.3633 -1.4190
  905MOL0     C24808   6.977   7.829   5.121 -0.3632 -0.1226  0.1013
  905MOL0     C24809   6.869   7.762   5.071  0.4854  0.1027 -0.3951
  905MOL0     C24810   6.812   7.777   4.943 -0.1985 -0.2121  0.1830
  905MOL0     O24811   6.704   7.708   4.899  0.4914  0.0558 -0.8400
  905MOL0     C24812   6.732   7.594   4.816  0.5522  0.4480  0.0474
  905MOL0     C24813   6.638   7.593   4.692  0.3455  0.5928 -0.2951
  905MOL0     C24814   6.686   7.484   4.590  0.2691  0.0946  0.7945
  905MOL0     C24815   6.779   7.539   4.485  0.0616  0.3575  0.7134
  905MOL0     C24816   6.903   7.605   4.528 -0.0132 -0.0162 -0.3088
  905MOL0     C24817   7.003   7.658   4.583 -0.1024 -0.5020 -0.2691
  905MOL0     C24818   6.882   7.857   4.849  0.2818  0.5096  0.7694
  905MOL0     C24819   6.991   7.927   4.890 -0.0511 -0.5651  0.8934
  905MOL0     C24820   7.063   8.006   4.781  0.4125 -0.7770 -0.2325
  905MOL0     H24821   7.297   7.781   5.312  0.8273  1.8239 -1.5319
  905MOL0     H24822   7.352   7.539   5.306  1.0389 -1.8833 -1.7686
  905MOL0     H24823   7.619   7.446   5.121 -2.1373  6.7322 -1.5693
  905MOL0     H24824   7.595   7.444   4.949 -1.4967  3.8270  1.1671
  905MOL0     H24825   7.549   7.195   5.131  1.4098  3.0885  2.1676
  905MOL0     H24826   7.548   7.203   4.946  1.1430 -0.7760  0.8951
  905MOL0     H24827   7.784   7.270   4.973 -3.6144 -0.4340 -3.3759
  905MOL0     H24828   7.771   7.232   5.150 -0.1939 -1.4648  0.6497
  905MOL0     H24829   7.692   7.012   5.111 -2.8678  0.1725 -2.0390
  905MOL0     H24830   7.699   7.030   4.938 -3.7947 -0.0104  2.5932
  905MOL0     H24831   7.932   7.039   4.934 -2.9558 -1.6253 -1.8283
  905MOL0     H24832   7.879   6.893   4.995 -1.0151  1.1267 -0.6141
  905MOL0     H24833   8.005   7.111   5.164  2.9665 -0.8900 -1.5813
  905MOL0     H24834   7.903   7.004   5.233 -3.4480  0.0539 -2.3326
  905MOL0     H24835   8.068   6.815   5.126 -0.5175 -0.0681 -0.8154
  905MOL0     H24836   8.136   6.916   5.255  1.5670  1.6871  0.0690
  905MOL0     H24837   8.165   6.937   4.955 -0.4394  0.4085 -0.4787
  905MOL0     H24838   8.221   7.073   5.061  0.1360 -0.0694  2.7336
  905MOL0     H24839   8.307   6.685   5.060 -1.0018  0.8605  0.2729
  905MOL0     H24840   8.532   6.572   5.169  2.9279 -4.5706 -1.9361
  905MOL0     H24841   8.669   6.680   5.191 -0.6222  1.1318  0.5828
  905MOL0     H24842   8.574   6.553   4.928 -1.8747  1.5175  1.6402
  905MOL0     H24843   8.717   6.659   4.963 -1.9919  1.0333 -0.5304
  905MOL0     H24844   8.808   6.488   5.125  1.8026 -1.4787 -1.1226
  905MOL0     H24845   8.673   6.379   5.074  0.3654 -0.9067 -2.7088
  905MOL0     H24846   8.748   6.361   4.865 -0.2939  1.7155 -0.3828
  905MOL0     H24847   8.860   6.496   4.862  1.0020 -1.8854 -0.5881
  905MOL0     H24848   8.937   6.358   4.696 -0.6258  0.6672  0.9127
  905MOL0     H24849   9.058   6.375   4.473  0.6798  1.4630 -0.5176
  905MOL0     H24850   9.231   6.345   4.443 -2.2794 -3.5040 -0.9803
  905MOL0     H24851   9.169   6.497   4.515  2.5701  0.0313  0.2546
  905MOL0     H24852   9.543   6.268   4.426  1.4773 -0.9197 -3.4233
  905MOL0     H24853   9.723   6.326   4.264  0.1981  0.0840  0.2814
  905MOL0     H24854   9.885   6.386   4.103  0.9346  0.2452 -0.6960
  905MOL0     H24855   9.737   6.478   4.073  0.9475 -2.9901 -1.1979
  905MOL0     H24856   9.868   6.663   3.992 -0.5511 -1.4440 -3.0075
  905MOL0     H24857  10.016   6.587   4.040 -0.9039  1.9635  0.8822
  905MOL0     H24858   9.821   6.516   3.830 -0.1853 -0.1414  0.9318
  905MOL0     H24859   9.934   6.386   3.870 -0.8079 -0.8189  1.3561
  905MOL0     H24860  10.133   6.504   3.816 -0.5990 -0.5551 -0.4849
  905MOL0     H24861  10.048   6.657   3.796  1.3201 -0.5736  4.7773
  905MOL0     H24862  10.045   6.411   3.612  0.5564 -0.1180 -0.6870
  905MOL0     H24863   9.938   6.558   3.597  0.7731  1.6775  2.3515
  905MOL0     H24864  10.244   6.547   3.610  0.5680 -0.5964 -0.1640
  905MOL0     H24865  10.150   6.690   3.582  0.4813 -0.3771 -0.1041
  905MOL0     H24866  10.234   6.615   3.358 -1.1309 -0.4165 -0.5530
  905MOL0     H24867  10.079   6.545   3.357  0.6674  1.0200 -2.3680
  905MOL0     H24868  10.242   6.376   3.293  3.2434 -1.5840  0.5772
  905MOL0     H24869  10.180   6.325   3.447  2.1106 -1.5834 -0.8787
  905MOL0     H24870   9.729   6.732   4.406  1.2202 -0.8069 -0.1786
  905MOL0     H24871   9.566   6.680   4.576  1.5892  0.3087  1.0209
  905MOL0     H24872   9.372   6.255   4.907  0.9732  2.8382 -0.4541
  905MOL0     H24873   9.147   6.246   5.034 -2.4518 -0.1223  0.6570
  905MOL0     H24874   7.402   7.555   4.886 -2.1064 -0.7813  0.2851
  905MOL0     H24875   7.313   7.784   4.878 -0.0674  0.3112  0.1744
  905MOL0     H24876   7.012   7.809   5.222 -2.0262  1.8900  1.1694
  905MOL0     H24877   6.821   7.696   5.142  1.0534 -0.4194 -0.4843
  905MOL0     H24878   6.838   7.589   4.792  0.9449  2.8828  0.9856
  905MOL0     H24879   6.712   7.507   4.880 -0.3419  2.5044  2.7656
  905MOL0     H24880   6.626   7.689   4.642 -0.6496 -0.0264 -1.2934
  905MOL0     H24881   6.540   7.557   4.724  0.3354 -0.5624 -1.5199
  905MOL0     H24882   6.732   7.396   4.636 -0.8131 -0.9522 -0.0613
  905MOL0     H24883   6.595   7.449   4.541 -0.3367  1.5598  0.8129
  905MOL0     H24884   6.725   7.613   4.427 -1.2073 -1.6714 -0.8352
  905MOL0     H24885   6.802   7.462   4.411 -4.2192 -0.8647  0.3816
  905MOL0     H24886   7.082   7.714   4.630 -2.4675  1.1307  2.0161
  905MOL0     H24887   6.836   7.853   4.751 -0.4799 -2.4311  1.1320
  905MOL0     H24888   6.991   8.043   4.707 -0.4924  0.5556  1.2622
  905MOL0     H24889   7.119   8.092   4.817  0.2229 -0.8365  0.2032
  905MOL0     H24890   7.142   7.954   4.725  0.8879  1.2006 -1.5143
  906MOL0     O24891   9.717   7.404   7.589 -0.8133  0.5310 -0.2608
  906MOL0     C24892   9.730   7.297   7.532 -0.8635 -0.1964  0.0845
  906MOL0     O24893   9.708   7.269   7.401  0.2457 -0.1482 -0.5489
  906MOL0     C24894   9.657   7.357   7.304  0.0023  0.6403  1.0477
  906MOL0     C24895   9.606   7.485   7.330 -1.1275  0.1516 -0.1409
  906MOL0     C24896   9.547   7.552   7.224 -0.5919  0.0701  0.0351
  906MOL0     C24897   9.537   7.502   7.088 -1.0022  0.2845 -0.0594
  906MOL0     O24898   9.509   7.591   6.984  0.4899  0.4301 -0.2797
  906MOL0     C24899   9.431   7.528   6.882  0.3576  0.3739  0.1138
  906MOL0     C24900   9.328   7.636   6.830  0.3509 -0.6089  0.7942
  906MOL0     C24901   9.245   7.714   6.936  0.4843 -0.6725 -0.2182
  906MOL0     C24902   9.189   7.625   7.048  0.0096  0.2472 -0.4237
  906MOL0     C24903   9.093   7.705   7.139 -0.9723  0.6094  0.3489
  906MOL0     C24904   9.039   7.616   7.256 -0.8267  0.3157  0.2202
  906MOL0     C24905   8.923   7.689   7.318  0.3989 -0.5957 -0.6918
  906MOL0     C24906   8.895   7.639   7.460 -0.4501 -0.1782 -0.7550
  906MOL0     N24907   8.839   7.506   7.447  0.2429  0.0672 -0.8583
  906MOL0     C24908   8.711   7.472   7.403 -0.3096 -0.3881 -0.1459
  906MOL0     C24909   8.703   7.334   7.394  0.0547 -0.4872 -0.2151
  906MOL0     C24910   8.598   7.251   7.347  0.5313  0.1401 -0.0696
  906MOL0     C24911   8.645   7.148   7.243  0.2119  0.2965 -0.5070
  906MOL0     C24912   8.682   7.220   7.114 -0.9755  0.5426 -0.4763
  906MOL0     C24913   8.699   7.112   7.004  0.4488  0.4552  0.0140
  906MOL0     O24914   8.822   7.044   7.025 -0.0124  0.2823  0.0567
  906MOL0     C24915   8.833   6.923   6.958 -0.9270  0.2634 -0.0521
  906MOL0     C24916   8.746   6.809   6.977  0.4077 -0.0349 -0.2450
  906MOL0     C24917   8.758   6.691   6.903  0.0976 -0.0766 -0.5397
  906MOL0     C24918   8.664   6.580   6.946  0.2487  0.3210 -0.1977
  906MOL0     C24919   8.871   6.669   6.823  0.0759  0.2879 -0.1389
  906MOL0     C24920   8.926   6.536   6.766 -1.3271  0.3508 -0.4496
  906MOL0     O24921   9.027   6.544   6.672  0.2701 -0.6355 -0.1145
  906MOL0     C24922   9.076   6.438   6.597 -0.6973 -0.3455  0.0307
  906MOL0     C24923   9.046   6.302   6.615 -1.2558  0.0543 -0.7938
  906MOL0     C24924   9.099   6.205   6.526  0.8436  0.4859 -0.8299
  906MOL0     C24925   9.192   6.236   6.423  0.2614 -0.2346  0.2359
  906MOL0     O24926   9.227   6.144   6.325  0.6275  0.7514 -0.2600
  906MOL0     C24927   9.291   6.041   6.390  0.5757 -0.0170 -0.3822
  906MOL0     C24928   9.357   5.958   6.288 -0.1322 -0.6404 -0.3455
  906MOL0     C24929   9.267   5.893   6.177  0.1226 -0.5938 -0.4150
  906MOL0     C24930   9.333   5.818   6.065 -0.4877  0.3537 -0.2061
  906MOL0     C24931   9.253   5.810   5.931 -0.4509  0.0178  0.3154
  906MOL0     C24932   9.129   5.735   5.964 -1.1620 -0.1247  0.4959
  906MOL0     C24933   9.056   5.694   5.838 -0.6842 -0.1528  0.4206
  906MOL0     C24934   8.934   5.599   5.868  0.1379 -0.1232  0.1960
  906MOL0    Cl24935   8.789   5.662   5.798 -0.2264  0.1713  0.1041
  906MOL0     C24936   9.224   6.374   6.417 -0.7361 -0.7596 -0.5500
  906MOL0     C24937   9.173   6.473   6.503 -0.1346  0.3535  0.0592
  906MOL0     O24938   8.884   6.432   6.823 -0.4545 -0.4737 -0.5532
  906MOL0     C24939   8.959   6.784   6.799 -0.5561  0.9011  0.4158
  906MOL0     C24940   8.934   6.913   6.859 -0.3929 -0.4105  0.0841
  906MOL0     N24941   8.833   7.293   7.420  0.0356  0.1519 -0.5749
  906MOL0     N24942   8.908   7.392   7.457  1.0539 -0.0390 -0.0566
  906MOL0     C24943   9.583   7.371   7.072  0.5566  0.0485 -0.2955
  906MOL0     C24944   9.635   7.300   7.179  0.3149  0.6555 -0.4670
  906MOL0     C24945   9.760   7.186   7.628  0.4263 -0.0880  0.8575
  906MOL0     C24946   9.667   7.172   7.727  0.1006 -0.7375 -0.2432
  906MOL0     C24947   9.668   7.059   7.804 -0.7717 -0.6360 -0.0698
  906MOL0     C24948   9.782   6.972   7.811 -0.3913  0.9131  0.2360
  906MOL0     O24949   9.796   6.867   7.899  0.1786 -0.0096  0.1124
  906MOL0     C24950   9.670   6.813   7.947 -0.6996  0.2532  0.5329
  906MOL0     C24951   9.701   6.679   8.007 -0.6719  0.2171  0.5587
  906MOL0     C24952   9.613   6.558   7.960  0.4169  0.2868  0.3218
  906MOL0     C24953   9.472   6.552   8.028 -0.1068  0.4749 -0.1844
  906MOL0     C24954   9.484   6.507   8.166  0.0105 -1.1922 -0.7400
  906MOL0     C24955   9.485   6.476   8.290  0.2411 -0.2022 -0.2784
  906MOL0     C24956   9.888   6.999   7.721  0.1733  0.6072  1.3195
  906MOL0     C24957   9.876   7.099   7.625 -0.7393  0.4552  0.1039
  906MOL0     C24958   9.983   7.117   7.519  0.4222  1.3436 -0.2657
  906MOL0     H24959   9.619   7.533   7.426 -0.4574  0.1698 -0.2392
  906MOL0     H24960   9.515   7.655   7.233 -2.0812 -0.4572  1.0593
  906MOL0     H24961   9.380   7.441   6.923  0.8571 -1.1198 -2.2594
  906MOL0     H24962   9.497   7.494   6.801 -0.8572  0.2169 -0.8419
  906MOL0     H24963   9.396   7.712   6.789  1.0877 -0.3771  2.3642
  906MOL0     H24964   9.275   7.589   6.747  1.4648  1.3334 -1.1069
  906MOL0     H24965   9.296   7.800   6.981  0.3013 -1.8403  2.4147
  906MOL0     H24966   9.162   7.752   6.875 -1.2761 -1.1744  1.7583
  906MOL0     H24967   9.141   7.539   7.001  0.6525 -0.0002 -0.6455
  906MOL0     H24968   9.262   7.590   7.121 -1.8800 -1.3543  0.7737
  906MOL0     H24969   9.015   7.748   7.075  1.6238  2.5815 -1.7205
  906MOL0     H24970   9.148   7.792   7.177  1.0916 -0.8337  0.8711
  906MOL0     H24971   9.004   7.520   7.218  0.5257 -0.4157  0.7502
  906MOL0     H24972   9.121   7.593   7.324 -1.1816 -2.0697 -0.0748
  906MOL0     H24973   8.833   7.678   7.258  1.2866 -0.0338 -2.1650
  906MOL0     H24974   8.949   7.794   7.328 -0.4695 -0.5852  2.6949
  906MOL0     H24975   8.986   7.641   7.520 -1.3397 -1.3276  0.7172
  906MOL0     H24976   8.830   7.703   7.520  1.8848  2.2584 -0.6836
  906MOL0     H24977   8.624   7.531   7.377 -0.0073 -0.3584 -1.1451
  906MOL0     H24978   8.513   7.301   7.298 -1.5797 -2.6526  0.5087
  906MOL0     H24979   8.557   7.186   7.424 -1.5737  0.7186 -0.6213
  906MOL0     H24980   8.736   7.097   7.278 -0.9215 -1.0444  0.5728
  906MOL0     H24981   8.563   7.082   7.214  0.3961  0.0447 -0.4613
  906MOL0     H24982   8.606   7.293   7.085 -0.2478  0.3405 -3.1803
  906MOL0     H24983   8.776   7.275   7.128 -0.8485  0.5326 -1.2254
  906MOL0     H24984   8.612   7.045   7.000  0.6225  0.2845 -1.6647
  906MOL0     H24985   8.702   7.168   6.910  2.1635 -0.6680 -0.6589
  906MOL0     H24986   8.687   6.815   7.068  1.0805  1.0143  0.1399
  906MOL0     H24987   8.598   6.560   6.861  0.2411  2.0767 -0.6562
  906MOL0     H24988   8.598   6.591   7.032  0.6984 -2.6533  0.6369
  906MOL0     H24989   8.721   6.493   6.977  0.8353  0.7369 -0.0913
  906MOL0     H24990   8.974   6.266   6.688  0.3778 -3.7693 -0.8755
  906MOL0     H24991   9.060   6.104   6.534  2.1458  0.0845  0.9847
  906MOL0     H24992   9.357   6.074   6.471  0.5075 -1.3763  0.2557
  906MOL0     H24993   9.217   5.973   6.433  1.4782 -1.3380 -0.8640
  906MOL0     H24994   9.449   6.001   6.246 -0.8401  0.0244 -1.2512
  906MOL0     H24995   9.393   5.871   6.345  1.8463  0.2396 -0.1707
  906MOL0     H24996   9.210   5.969   6.122  0.0959 -0.3665 -0.0827
  906MOL0     H24997   9.200   5.820   6.224 -1.0140  0.8399  0.2797
  906MOL0     H24998   9.365   5.718   6.095  3.7422  1.2072 -1.2473
  906MOL0     H24999   9.422   5.873   6.036  0.1489  0.4051  1.6849
  906MOL0     H25000   9.229   5.910   5.892 -2.2655 -0.2652  0.6595
  906MOL0     H25001   9.317   5.757   5.860  0.8621  0.9992  0.7001
  906MOL0     H25002   9.057   5.798   6.018 -2.0268 -3.1829  3.2015
  906MOL0     H25003   9.143   5.647   6.027 -0.3421 -0.2591  0.1370
  906MOL0     H25004   9.127   5.655   5.764  0.2025  1.8785  0.1351
  906MOL0     H25005   9.023   5.776   5.772  1.0253 -0.9653 -1.5796
  906MOL0     H25006   8.915   5.590   5.976  3.4012  1.8527  1.0772
  906MOL0     H25007   8.953   5.503   5.821  1.9625 -0.6331  1.8421
  906MOL0     H25008   9.284   6.398   6.329 -0.1780 -1.0720 -0.2618
  906MOL0     H25009   9.201   6.577   6.504  0.0344  0.3132 -0.2501
  906MOL0     H25010   9.050   6.775   6.741  1.0710 -0.3840  2.9525
  906MOL0     H25011   8.996   7.001   6.852 -1.9790  0.7849  0.4905
  906MOL0     H25012   9.578   7.323   6.975  0.0763  0.1898 -0.3438
  906MOL0     H25013   9.673   7.200   7.165  1.6764  1.2309 -1.1829
  906MOL0     H25014   9.591   7.247   7.746 -1.0420 -2.1475  1.0576
  906MOL0     H25015   9.585   7.044   7.872 -0.3442  1.9783  1.1606
  906MOL0     H25016   9.604   6.868   8.014 -1.9286 -2.5476  1.7841
  906MOL0     H25017   9.620   6.790   7.853 -0.2734 -0.9511  0.5844
  906MOL0     H25018   9.692   6.686   8.116  1.3945  0.8945  0.7453
  906MOL0     H25019   9.800   6.648   7.973 -0.8710 -1.1071  1.1403
  906MOL0     H25020   9.597   6.573   7.853  0.5603  2.3098  0.5510
  906MOL0     H25021   9.670   6.466   7.978  0.9251  0.4643 -0.3348
  906MOL0     H25022   9.406   6.486   7.970  2.0298 -0.2895 -1.8907
  906MOL0     H25023   9.431   6.653   8.027 -1.8011 -0.1666  0.3362
  906MOL0     H25024   9.480   6.444   8.392  1.7550  2.3198  0.6917
  906MOL0     H25025   9.979   6.941   7.730  1.1785  1.6412 -1.1448
  906MOL0     H25026  10.000   7.223   7.501  0.3830  1.3059 -0.5318
  906MOL0     H25027  10.078   7.071   7.548 -0.5991 -1.9039 -1.6306
  906MOL0     H25028   9.959   7.076   7.420  0.0516 -1.6986  0.9845
  907MOL0     O25029   2.375   8.442   1.861 -0.2771  0.2843 -0.4289
  907MOL0     C25030   2.430   8.412   1.968  0.3563  0.5435 -0.7589
  907MOL0     O25031   2.555   8.435   2.012 -1.2468 -0.7726  0.5637
  907MOL0     C25032   2.654   8.504   1.950 -0.4590 -0.2601  0.8103
  907MOL0     C25033   2.649   8.555   1.821  0.3074  0.8862 -0.7053
  907MOL0     C25034   2.759   8.607   1.764 -0.5048  0.0189  1.2532
  907MOL0     C25035   2.876   8.622   1.837 -0.9997  0.3377  0.4071
  907MOL0     O25036   2.999   8.649   1.771 -0.2276 -0.1896  0.8135
  907MOL0     C25037   3.079   8.757   1.809  0.0269  0.3465 -0.3681
  907MOL0     C25038   3.221   8.724   1.769  0.5621  0.1361 -0.0939
  907MOL0     C25039   3.270   8.594   1.833 -0.4789  0.0688 -0.7689
  907MOL0     C25040   3.423   8.605   1.844  0.5051  0.2231 -0.4586
  907MOL0     C25041   3.493   8.484   1.887  0.0789 -0.1577 -0.2192
  907MOL0     C25042   3.636   8.520   1.927 -0.1251  0.4406  0.3163
  907MOL0     C25043   3.660   8.470   2.072 -0.1329  0.1584  1.1553
  907MOL0     C25044   3.722   8.328   2.092 -0.4500 -0.0777 -0.0326
  907MOL0     N25045   3.866   8.324   2.069 -0.3281 -0.1530 -0.2014
  907MOL0     C25046   3.927   8.295   1.948 -0.3835 -0.3413 -0.5227
  907MOL0     C25047   4.059   8.308   1.975  0.8798 -0.0114  0.9987
  907MOL0     C25048   4.154   8.303   1.866 -0.0066  1.0372 -0.4702
  907MOL0     C25049   4.304   8.300   1.902  1.0780 -0.9815  0.5219
  907MOL0     C25050   4.347   8.156   1.893  0.3613 -0.4762  0.5254
  907MOL0     C25051   4.487   8.132   1.950 -0.2347 -0.2555  0.1701
  907MOL0     O25052   4.545   8.221   2.048 -0.4850  0.1670 -0.2392
  907MOL0     C25053   4.674   8.274   2.036  0.4133 -0.2539 -0.3644
  907MOL0     C25054   4.722   8.328   2.154 -0.0502  0.6113 -1.0441
  907MOL0     C25055   4.856   8.378   2.165  0.3047  0.5115  0.1036
  907MOL0     C25056   4.919   8.401   2.299 -0.0789  0.1506  0.5772
  907MOL0     C25057   4.930   8.401   2.044  0.0735  0.3669  0.6089
  907MOL0     C25058   5.066   8.462   2.040 -0.6747 -0.3092 -0.1308
  907MOL0     O25059   5.157   8.411   2.133 -0.1705 -0.0110 -0.1507
  907MOL0     C25060   5.288   8.454   2.140  0.8839 -0.4055  0.2584
  907MOL0     C25061   5.395   8.401   2.066  1.0595  0.9630 -0.4512
  907MOL0     C25062   5.528   8.441   2.099 -0.0895 -0.2110 -0.2654
  907MOL0     C25063   5.548   8.538   2.198 -0.1955  0.4502 -0.8343
  907MOL0     O25064   5.674   8.575   2.232 -0.6305 -1.2054 -0.0841
  907MOL0     C25065   5.706   8.680   2.334 -0.0115 -0.1986 -0.4958
  907MOL0     C25066   5.863   8.706   2.351  1.0551 -0.2066  0.4972
  907MOL0     C25067   5.946   8.575   2.359  0.4078  0.0244 -0.0223
  907MOL0     C25068   6.096   8.621   2.376  0.8278  1.2183 -0.3310
  907MOL0     C25069   6.199   8.514   2.342  0.4074  0.0714  0.1493
  907MOL0     C25070   6.190   8.382   2.431 -0.5848 -0.6758 -0.6470
  907MOL0     C25071   6.299   8.281   2.390  0.2337  0.0065  0.0469
  907MOL0     C25072   6.411   8.260   2.499 -0.1213  0.6424 -0.0552
  907MOL0    Cl25073   6.491   8.408   2.546  0.1409  0.4185  0.0073
  907MOL0     C25074   5.433   8.592   2.268 -0.8781  0.3641  0.7545
  907MOL0     C25075   5.308   8.545   2.246 -0.2299 -1.1917 -1.0253
  907MOL0     O25076   5.084   8.543   1.955  0.2847  0.5110 -0.1347
  907MOL0     C25077   4.878   8.350   1.928  0.2060  0.4633 -0.7848
  907MOL0     C25078   4.754   8.279   1.920 -0.2112  0.9371  0.1529
  907MOL0     N25079   4.076   8.347   2.107 -0.5351  0.3198  0.6351
  907MOL0     N25080   3.963   8.354   2.168 -0.0002 -0.1554 -0.4487
  907MOL0     C25081   2.878   8.585   1.972 -0.0193 -0.0119 -0.0828
  907MOL0     C25082   2.767   8.524   2.028 -0.5752 -0.8833  0.0888
  907MOL0     C25083   2.342   8.305   2.037  0.3861 -0.4632  0.8142
  907MOL0     C25084   2.205   8.293   2.017 -0.5498  0.0050  0.9660
  907MOL0     C25085   2.119   8.204   2.086 -0.2230  0.6419  0.2337
  907MOL0     C25086   2.180   8.111   2.166  0.2402  0.2508  0.4367
  907MOL0     O25087   2.100   8.016   2.225  0.3832 -0.5346 -0.3320
  907MOL0     C25088   2.168   7.909   2.296  0.0717  0.0430 -0.1607
  907MOL0     C25089   2.074   7.805   2.336  0.7256  0.2061 -0.3887
  907MOL0     C25090   1.987   7.745   2.224  0.9312  0.1794  0.3240
  907MOL0     C25091   1.881   7.645   2.270 -0.7472  0.6198  0.3560
  907MOL0     C25092   1.788   7.615   2.162  0.0992  0.3570 -0.0043
  907MOL0     C25093   1.707   7.586   2.076 -0.0662 -0.0070  0.1971
  907MOL0     C25094   2.318   8.115   2.182  0.1033 -0.2558 -0.5776
  907MOL0     C25095   2.401   8.205   2.119  0.3700 -1.0464 -0.0342
  907MOL0     C25096   2.555   8.178   2.136  1.0496 -0.3380 -0.2931
  907MOL0     H25097   2.557   8.540   1.765 -0.8570 -0.5187  1.4388
  907MOL0     H25098   2.757   8.637   1.660  0.2580 -0.2726  1.1537
  907MOL0     H25099   3.066   8.776   1.916  2.2656 -1.9286  0.4157
  907MOL0     H25100   3.045   8.845   1.754 -0.1087  2.1025  2.3206
  907MOL0     H25101   3.227   8.707   1.661 -0.1302  1.8944 -0.4424
  907MOL0     H25102   3.285   8.812   1.782 -0.2196  0.7984 -0.5927
  907MOL0     H25103   3.221   8.593   1.931  0.8301  1.2581 -0.0658
  907MOL0     H25104   3.251   8.505   1.774 -1.7184  1.4086 -2.5011
  907MOL0     H25105   3.451   8.645   1.747 -2.6950 -1.5074 -2.2704
  907MOL0     H25106   3.447   8.685   1.916  0.1513 -0.1169  0.0477
  907MOL0     H25107   3.495   8.417   1.801  2.4134  2.5528 -2.4698
  907MOL0     H25108   3.437   8.430   1.965  0.7535 -1.1458 -0.4078
  907MOL0     H25109   3.708   8.477   1.857  1.0552  2.8476 -0.0309
  907MOL0     H25110   3.647   8.628   1.929 -0.4811  0.7000 -3.5079
  907MOL0     H25111   3.561   8.465   2.120  0.0300 -2.4102  1.3484
  907MOL0     H25112   3.714   8.547   2.128 -1.5916 -0.2034  3.2044
  907MOL0     H25113   3.698   8.299   2.195  0.5089 -1.7172 -0.2366
  907MOL0     H25114   3.664   8.261   2.028 -0.9384  0.2175  0.0954
  907MOL0     H25115   3.876   8.277   1.854 -1.7614 -2.0266  0.4894
  907MOL0     H25116   4.146   8.396   1.810 -1.5602 -0.0190 -2.0998
  907MOL0     H25117   4.123   8.227   1.793  0.7857 -0.6718  0.9017
  907MOL0     H25118   4.346   8.371   1.831 -3.1499  1.2843 -0.0851
  907MOL0     H25119   4.327   8.336   2.003  2.5139  0.5043 -0.2983
  907MOL0     H25120   4.268   8.116   1.958  0.5020 -0.2807  0.8223
  907MOL0     H25121   4.336   8.101   1.799  1.4906 -2.2640  1.3825
  907MOL0     H25122   4.496   8.033   1.996 -0.5186 -0.2705  0.1973
  907MOL0     H25123   4.551   8.140   1.862  0.5557 -2.6859  0.4739
  907MOL0     H25124   4.668   8.317   2.247  2.3768 -2.3205  0.1874
  907MOL0     H25125   4.988   8.320   2.326 -0.2020 -0.9914 -2.2206
  907MOL0     H25126   4.837   8.407   2.371 -0.9236 -0.6753 -0.2991
  907MOL0     H25127   4.975   8.495   2.311 -0.0464  0.1624  0.3357
  907MOL0     H25128   5.367   8.325   1.994 -0.4794  1.3296 -0.2867
  907MOL0     H25129   5.609   8.374   2.071 -1.3217 -2.2397  0.7558
  907MOL0     H25130   5.659   8.776   2.313  3.0827  1.6271  0.1768
  907MOL0     H25131   5.669   8.657   2.434  4.4353  1.8447  1.9107
  907MOL0     H25132   5.896   8.767   2.267  2.7764  0.4318  1.5936
  907MOL0     H25133   5.885   8.755   2.446 -0.0503  1.5059 -0.0749
  907MOL0     H25134   5.949   8.515   2.268 -0.5618  1.5766 -1.1237
  907MOL0     H25135   5.915   8.513   2.444  0.0044  2.3978  1.6564
  907MOL0     H25136   6.108   8.637   2.483  3.1963 -2.8224  0.2330
  907MOL0     H25137   6.126   8.712   2.325  4.1456  1.3747  1.6113
  907MOL0     H25138   6.192   8.495   2.234  0.8576 -1.1157  0.3161
  907MOL0     H25139   6.301   8.547   2.363  0.4143 -0.5320  1.1125
  907MOL0     H25140   6.095   8.329   2.438 -1.5743  1.0544 -0.5129
  907MOL0     H25141   6.214   8.413   2.533 -0.5833 -0.4911 -0.7035
  907MOL0     H25142   6.347   8.281   2.292 -1.3742  0.3233 -0.7782
  907MOL0     H25143   6.232   8.194   2.390 -0.4593  0.5174  1.1604
  907MOL0     H25144   6.483   8.183   2.473 -0.2730  0.2435  0.6621
  907MOL0     H25145   6.362   8.219   2.588 -0.1478  1.2713  0.2298
  907MOL0     H25146   5.449   8.660   2.351 -0.5932  0.5319  0.5654
  907MOL0     H25147   5.222   8.580   2.302  0.3131 -1.3308 -0.0781
  907MOL0     H25148   4.932   8.370   1.836  1.9245  0.8749  0.2633
  907MOL0     H25149   4.726   8.231   1.826 -0.1387  0.4093  0.3935
  907MOL0     H25150   2.965   8.594   2.036 -1.4517 -1.7876  2.3000
  907MOL0     H25151   2.771   8.487   2.130 -0.3268  3.0347  1.6640
  907MOL0     H25152   2.148   8.364   1.958  0.2102  0.0297  0.2413
  907MOL0     H25153   2.015   8.202   2.056  0.0818 -0.1730 -0.8551
  907MOL0     H25154   2.246   7.866   2.233  0.7216 -0.7494  1.1413
  907MOL0     H25155   2.211   7.951   2.387 -1.2832  2.6375 -0.6099
  907MOL0     H25156   2.006   7.846   2.411  0.6937 -2.4349  1.1300
  907MOL0     H25157   2.131   7.730   2.390  0.2226 -0.9264 -1.3917
  907MOL0     H25158   1.942   7.831   2.175 -3.9170 -0.1335  3.5274
  907MOL0     H25159   2.054   7.694   2.153  1.8350  0.7368  0.7493
  907MOL0     H25160   1.828   7.691   2.354 -0.5970 -0.3611  1.0090
  907MOL0     H25161   1.938   7.559   2.306  0.5913  1.7319  0.9852
  907MOL0     H25162   1.633   7.577   2.000  1.4548  1.8441 -1.6122
  907MOL0     H25163   2.365   8.047   2.252 -0.5899  0.3528  0.5114
  907MOL0     H25164   2.598   8.138   2.044 -0.0634 -0.1151 -0.9285
  907MOL0     H25165   2.612   8.268   2.160  2.6208 -0.8205 -1.9789
  907MOL0     H25166   2.572   8.098   2.208  0.0672  1.0472  1.5824
  908MOL0     O25167   7.397   6.083   6.873 -0.6438 -0.3835  0.2345
  908MOL0     C25168   7.349   6.154   6.963  0.4457  0.2126  0.1159
  908MOL0     O25169   7.427   6.217   7.061  0.6497 -0.3470  0.2566
  908MOL0     C25170   7.563   6.206   7.047 -0.4295  0.3415 -0.0180
  908MOL0     C25171   7.639   6.098   7.103 -0.9342  0.4314 -0.3029
  908MOL0     C25172   7.773   6.082   7.061  0.7462 -0.1035 -0.2654
  908MOL0     C25173   7.842   6.187   6.992 -0.2779  0.2309  0.2946
  908MOL0     O25174   7.973   6.198   6.974 -0.1560  0.1920  0.8510
  908MOL0     C25175   8.060   6.110   7.037  0.1876  1.1152 -0.1513
  908MOL0     C25176   8.212   6.155   7.031 -0.1853 -0.7640  0.6283
  908MOL0     C25177   8.258   6.172   6.880 -0.5679 -0.3841 -0.9225
  908MOL0     C25178   8.409   6.160   6.875  0.7125 -0.5588  0.1133
  908MOL0     C25179   8.454   6.207   6.740  0.5411  0.1328  0.1166
  908MOL0     C25180   8.600   6.167   6.711  0.4018  0.7070 -0.7667
  908MOL0     C25181   8.676   6.260   6.612 -0.3198  0.0276 -0.1370
  908MOL0     C25182   8.606   6.281   6.478 -0.9697  0.5122  0.1589
  908MOL0     N25183   8.680   6.373   6.394 -0.2121 -0.0332 -0.0982
  908MOL0     C25184   8.790   6.347   6.311  0.8266  0.9673 -0.3479
  908MOL0     C25185   8.809   6.458   6.237 -0.5275 -0.7736  0.5635
  908MOL0     C25186   8.905   6.459   6.123 -0.5304  0.4519 -0.3414
  908MOL0     C25187   9.025   6.564   6.154 -0.5632 -0.1362 -0.0953
  908MOL0     C25188   9.120   6.572   6.037  0.0986 -0.2091 -0.4030
  908MOL0     C25189   9.246   6.632   6.082 -0.7102 -0.8275  0.3054
  908MOL0     O25190   9.331   6.687   5.970  1.6143 -0.4840  0.2361
  908MOL0     C25191   9.463   6.698   5.995  0.4869 -0.7579 -0.1440
  908MOL0     C25192   9.543   6.684   5.882  0.9366 -0.0005 -0.5377
  908MOL0     C25193   9.683   6.695   5.892 -0.8679 -0.0393  0.3050
  908MOL0     C25194   9.779   6.666   5.776  0.5518  0.2230 -0.1915
  908MOL0     C25195   9.737   6.725   6.013  0.4023 -0.2838  0.0355
  908MOL0     C25196   9.887   6.726   6.044 -0.5557 -0.2522 -0.3949
  908MOL0     O25197   9.959   6.842   6.044  0.2121  0.2460 -0.5381
  908MOL0     C25198  10.080   6.850   6.106  0.5207 -0.0542 -0.1466
  908MOL0     C25199  10.090   6.870   6.245  0.5570  0.0635 -0.3245
  908MOL0     C25200  10.214   6.899   6.309 -0.0274  0.2114 -0.0925
  908MOL0     C25201  10.337   6.889   6.230  0.3092 -0.5270 -0.1950
  908MOL0     O25202  10.465   6.911   6.281  0.0961 -0.2478 -0.1504
  908MOL0     C25203  10.481   6.967   6.411  0.4306 -0.0123  0.5161
  908MOL0     C25204  10.625   6.972   6.451  0.1397 -0.9990  0.0935
  908MOL0     C25205  10.723   7.041   6.364  0.8187 -0.7851  0.5994
  908MOL0     C25206  10.846   7.081   6.443 -0.2455 -0.0525  0.4546
  908MOL0     C25207  10.961   7.116   6.352 -0.2128  0.1960  0.1124
  908MOL0     C25208  10.949   7.246   6.273 -0.1263  0.5044 -0.3803
  908MOL0     C25209  11.064   7.280   6.183 -0.8631  0.3989  0.4778
  908MOL0     C25210  11.077   7.198   6.051  0.0207  0.5655 -0.8379
  908MOL0    Cl25211  10.937   7.224   5.924 -0.2718 -0.3825 -0.4815
  908MOL0     C25212  10.324   6.862   6.096 -0.2357  0.1334  0.0761
  908MOL0     C25213  10.199   6.836   6.029  0.5081 -0.1930 -0.2274
  908MOL0     O25214   9.931   6.614   6.073  0.3370  0.9378  0.2591
  908MOL0     C25215   9.661   6.741   6.133 -1.0568 -0.3186  0.1112
  908MOL0     C25216   9.525   6.731   6.121  0.7235 -0.0715  0.1285
  908MOL0     N25217   8.705   6.541   6.262 -0.6119  1.0554 -0.4457
  908MOL0     N25218   8.623   6.485   6.349  0.0708  0.4283 -0.4065
  908MOL0     C25219   7.767   6.298   6.948 -0.2179  0.5847  0.7621
  908MOL0     C25220   7.626   6.299   6.960  0.2927  1.2075  0.2556
  908MOL0     C25221   7.201   6.177   6.964 -0.3258  0.5907  0.0683
  908MOL0     C25222   7.157   6.266   7.061  0.0370 -0.3362  0.5046
  908MOL0     C25223   7.022   6.286   7.083  0.1591 -1.0506 -0.1271
  908MOL0     C25224   6.925   6.216   7.011  0.0351 -0.0642  0.4734
  908MOL0     O25225   6.792   6.234   7.043 -0.0426  0.1142  0.2542
  908MOL0     C25226   6.692   6.167   6.962 -0.4362 -0.0210 -0.0461
  908MOL0     C25227   6.554   6.215   7.000 -0.0079 -0.5047  1.0039
  908MOL0     C25228   6.430   6.164   6.918 -0.2717  0.3561  0.4731
  908MOL0     C25229   6.298   6.235   6.955  0.3492 -0.5401  0.1776
  908MOL0     C25230   6.236   6.297   6.838 -0.9525 -0.2801  0.6743
  908MOL0     C25231   6.172   6.342   6.739 -0.6594 -0.0682 -0.0468
  908MOL0     C25232   6.967   6.123   6.915 -0.1228  0.1823  0.7130
  908MOL0     C25233   7.106   6.112   6.885  0.4724 -0.7842 -0.4841
  908MOL0     C25234   7.124   6.009   6.782  0.5798  0.0515  0.9568
  908MOL0     H25235   7.596   6.024   7.169  0.1009  0.8253  0.8639
  908MOL0     H25236   7.821   5.986   7.075 -0.7560 -0.6446  1.7524
  908MOL0     H25237   8.045   6.004   7.011  1.9081  0.4061  1.4870
  908MOL0     H25238   8.041   6.112   7.144  4.9484  1.1665  0.9128
  908MOL0     H25239   8.223   6.250   7.085 -1.8926 -0.4951  0.5563
  908MOL0     H25240   8.276   6.083   7.083  3.4771  1.6332 -0.2339
  908MOL0     H25241   8.207   6.096   6.820  0.8843 -2.8538  0.8105
  908MOL0     H25242   8.223   6.269   6.843 -0.6468 -1.1435 -2.9733
  908MOL0     H25243   8.455   6.216   6.957 -2.3298 -0.0349  1.5698
  908MOL0     H25244   8.437   6.056   6.890  0.4944 -1.1915 -3.0829
  908MOL0     H25245   8.452   6.317   6.741  2.7083  0.3378 -2.6780
  908MOL0     H25246   8.399   6.169   6.654 -0.7322 -2.8547  2.1064
  908MOL0     H25247   8.654   6.141   6.802 -0.0260 -0.6621 -0.8767
  908MOL0     H25248   8.596   6.067   6.668 -1.6873  0.2543  0.3438
  908MOL0     H25249   8.773   6.215   6.591  0.5652  0.8572  1.9856
  908MOL0     H25250   8.702   6.353   6.663 -1.2609 -0.3264  1.0353
  908MOL0     H25251   8.585   6.192   6.418 -1.3067  2.2318 -2.4114
  908MOL0     H25252   8.508   6.325   6.498 -2.0680 -1.4230 -0.6756
  908MOL0     H25253   8.845   6.253   6.313  0.3668  0.6874 -0.6120
  908MOL0     H25254   8.853   6.470   6.027  0.2047  1.0903 -0.6708
  908MOL0     H25255   8.957   6.364   6.107 -0.6270  0.5458 -1.2450
  908MOL0     H25256   8.991   6.661   6.191  0.1664  1.1950 -2.6786
  908MOL0     H25257   9.077   6.520   6.240 -1.6187  0.7704  1.0376
  908MOL0     H25258   9.149   6.478   5.991 -1.5250 -1.7758  1.5803
  908MOL0     H25259   9.075   6.632   5.958 -1.3032  0.7788  1.0766
  908MOL0     H25260   9.220   6.723   6.137 -0.5227  0.1439 -1.1588
  908MOL0     H25261   9.296   6.566   6.154 -1.9680 -2.9190 -0.6535
  908MOL0     H25262   9.505   6.660   5.784 -3.0841  2.3661  0.1838
  908MOL0     H25263   9.730   6.618   5.690 -2.8837  0.4135  1.4847
  908MOL0     H25264   9.852   6.587   5.797  1.4727  1.0458 -0.2568
  908MOL0     H25265   9.826   6.758   5.740  1.6258 -0.3663 -0.3301
  908MOL0     H25266   9.999   6.882   6.303  1.0921  0.5230  0.4412
  908MOL0     H25267  10.211   6.925   6.414 -0.9183 -0.3034  0.0158
  908MOL0     H25268  10.445   7.071   6.412  1.2340  0.2701  0.6388
  908MOL0     H25269  10.431   6.911   6.491  3.1476  0.1624  2.4921
  908MOL0     H25270  10.635   7.003   6.555 -2.9675 -0.9938  0.4591
  908MOL0     H25271  10.662   6.870   6.465  0.6024 -0.7372  0.8576
  908MOL0     H25272  10.672   7.131   6.330  1.3568 -0.8027 -0.2837
  908MOL0     H25273  10.745   6.976   6.278 -1.0325 -1.6946  0.7637
  908MOL0     H25274  10.876   6.990   6.496  0.2580  0.3286  0.8314
  908MOL0     H25275  10.825   7.155   6.521 -0.4659 -0.0817  0.4244
  908MOL0     H25276  11.043   7.117   6.424  1.1233  0.4361 -1.3493
  908MOL0     H25277  10.981   7.040   6.277 -2.1728 -0.3027  0.0414
  908MOL0     H25278  10.932   7.326   6.346 -0.0481 -0.8368  1.1766
  908MOL0     H25279  10.860   7.250   6.210 -0.2644  0.4326 -0.1917
  908MOL0     H25280  11.152   7.271   6.247 -1.9417 -1.8476  1.7687
  908MOL0     H25281  11.060   7.384   6.152 -1.8847 -0.1552 -1.3997
  908MOL0     H25282  11.078   7.093   6.080  0.6759  1.1044  1.2392
  908MOL0     H25283  11.174   7.225   6.008 -0.2365  1.0853 -1.1041
  908MOL0     H25284  10.408   6.864   6.028 -2.8023  0.5433 -3.4066
  908MOL0     H25285  10.191   6.807   5.925  2.5724 -0.8917 -0.2293
  908MOL0     H25286   9.710   6.765   6.227  0.1397  1.3699 -0.8761
  908MOL0     H25287   9.462   6.747   6.208 -1.0200 -1.6328 -0.7563
  908MOL0     H25288   7.813   6.374   6.886  0.7000 -1.9306 -1.8526
  908MOL0     H25289   7.564   6.371   6.907  1.0805  0.4685 -1.7761
  908MOL0     H25290   7.226   6.321   7.125 -3.2810  3.5179  1.1799
  908MOL0     H25291   6.992   6.358   7.158  1.7704  1.3326 -1.6328
  908MOL0     H25292   6.707   6.179   6.855  0.9415 -2.4176 -0.2009
  908MOL0     H25293   6.698   6.058   6.967 -1.1207 -0.0281  1.6045
  908MOL0     H25294   6.548   6.321   6.973  1.6337 -0.6523 -0.0527
  908MOL0     H25295   6.532   6.213   7.107 -0.7273  0.9447  0.9111
  908MOL0     H25296   6.450   6.184   6.813 -2.3709  3.1346  0.4763
  908MOL0     H25297   6.408   6.063   6.952  1.5002  1.0462  4.2250
  908MOL0     H25298   6.319   6.315   7.026 -2.2868  1.0195 -0.6725
  908MOL0     H25299   6.222   6.166   6.995 -0.1292 -1.6406 -2.3862
  908MOL0     H25300   6.117   6.378   6.655 -0.6014 -0.8658 -0.4368
  908MOL0     H25301   6.902   6.052   6.865 -0.7681  0.8531  0.5802
  908MOL0     H25302   7.033   5.948   6.771 -0.8536  2.2660 -0.2376
  908MOL0     H25303   7.132   6.068   6.690  0.5009 -2.0947 -0.5157
  908MOL0     H25304   7.205   5.939   6.802 -1.5591 -2.0284  2.9840
  909MOL0     O25305   9.471   0.877   5.543 -0.1477  0.8473 -0.5622
  909MOL0     C25306   9.350   0.869   5.547 -0.5923 -0.9204  0.1317
  909MOL0     O25307   9.277   0.782   5.631 -0.4661 -0.1398 -0.0514
  909MOL0     C25308   9.358   0.685   5.687 -0.6581  0.4828 -1.3825
  909MOL0     C25309   9.373   0.554   5.640 -0.4836  0.1396 -0.2710
  909MOL0     C25310   9.477   0.477   5.684 -0.4101  0.3451  0.6931
  909MOL0     C25311   9.554   0.504   5.800 -0.6511  0.2191  0.5555
  909MOL0     O25312   9.664   0.438   5.844  0.0604  0.6972  0.2076
  909MOL0     C25313   9.706   0.320   5.764 -0.9849  0.7456 -0.0957
  909MOL0     C25314   9.856   0.294   5.790 -0.3275  0.4441 -0.0516
  909MOL0     C25315   9.892   0.274   5.941 -0.5433  0.1983  0.2146
  909MOL0     C25316  10.044   0.247   5.950  0.0393 -0.1771 -0.1499
  909MOL0     C25317  10.089   0.204   6.091  0.2665  0.3594  0.2204
  909MOL0     C25318  10.247   0.162   6.080  0.1521 -0.2811  0.4940
  909MOL0     C25319  10.286   0.055   6.185  0.0796 -0.2286 -0.3846
  909MOL0     C25320  10.306   0.133   6.312 -0.5982 -0.4134 -0.5040
  909MOL0     N25321  10.314   0.053   6.429 -1.1612  0.2034  0.0526
  909MOL0     C25322  10.409  -0.043   6.469  0.5896 -0.5433  0.1266
  909MOL0     C25323  10.377  -0.087   6.594  0.4081  0.3957  0.6105
  909MOL0     C25324  10.474  -0.164   6.681 -0.7741 -0.2468 -0.6620
  909MOL0     C25325  10.498  -0.313   6.633  0.3267 -0.6515 -0.2790
  909MOL0     C25326  10.592  -0.392   6.723 -0.2083  0.0634 -0.3701
  909MOL0     C25327  10.579  -0.544   6.694 -0.8772  0.3698  0.2617
  909MOL0     O25328  10.597  -0.570   6.554 -0.8506  0.1059 -0.1023
  909MOL0     C25329  10.722  -0.559   6.505  0.3119 -1.0880 -0.6659
  909MOL0     C25330  10.722  -0.576   6.367 -0.5889 -0.1251  0.0820
  909MOL0     C25331  10.840  -0.584   6.297 -0.5466 -0.9541 -0.2876
  909MOL0     C25332  10.835  -0.607   6.145 -0.1369  0.3080  0.2334
  909MOL0     C25333  10.968  -0.578   6.372  0.3238  0.6927  0.6746
  909MOL0     C25334  11.104  -0.570   6.311 -0.2262 -0.3181  0.0796
  909MOL0     O25335  11.199  -0.496   6.376 -0.0423 -0.2820 -0.7257
  909MOL0     C25336  11.325  -0.477   6.320  0.6048  0.6531  0.2362
  909MOL0     C25337  11.364  -0.362   6.261  0.3733 -0.4978 -0.3093
  909MOL0     C25338  11.497  -0.339   6.223 -0.0151 -0.2843  1.0858
  909MOL0     C25339  11.593  -0.444   6.239  0.1827 -0.6462  0.5279
  909MOL0     O25340  11.727  -0.407   6.210  0.2742 -0.0104 -0.1615
  909MOL0     C25341  11.822  -0.511   6.235  0.1670  0.7410 -0.1142
  909MOL0     C25342  11.967  -0.463   6.234 -0.0642 -1.1011 -0.2648
  909MOL0     C25343  11.975  -0.345   6.331 -0.3224 -0.1819  0.0837
  909MOL0     C25344  12.114  -0.286   6.341  0.9422  0.4874 -0.1670
  909MOL0     C25345  12.120  -0.190   6.462 -0.9369  0.4110  0.1313
  909MOL0     C25346  12.251  -0.102   6.452  0.4689 -0.1415  0.7792
  909MOL0     C25347  12.269  -0.005   6.566  0.4412 -0.0381  0.0150
  909MOL0     C25348  12.395   0.062   6.563 -0.2372  0.1052 -0.7360
  909MOL0    Cl25349  12.394   0.167   6.432  0.1922 -0.3928  0.1749
  909MOL0     C25350  11.544  -0.576   6.279  0.6706  0.7245  0.1120
  909MOL0     C25351  11.411  -0.589   6.322 -1.7499 -1.0595 -0.5087
  909MOL0     O25352  11.128  -0.612   6.196  0.6848 -0.2410 -0.4124
  909MOL0     C25353  10.969  -0.561   6.512  0.0221 -0.5255  0.8764
  909MOL0     C25354  10.846  -0.550   6.572 -0.1460  0.0470 -0.7190
  909MOL0     N25355  10.257  -0.025   6.633  0.4845 -0.0900 -0.3807
  909MOL0     N25356  10.230   0.053   6.538 -0.5062 -1.0967  0.3800
  909MOL0     C25357   9.525   0.626   5.862 -0.3903  0.8499  0.9948
  909MOL0     C25358   9.433   0.719   5.812 -0.1177  0.2810  1.1410
  909MOL0     C25359   9.293   0.986   5.481  0.2475  0.3897  0.2107
  909MOL0     C25360   9.358   1.048   5.376 -0.3204 -0.5831  0.9969
  909MOL0     C25361   9.311   1.161   5.305 -0.2526  0.0949 -0.4182
  909MOL0     C25362   9.189   1.213   5.343 -0.4336 -0.9463 -0.1441
  909MOL0     O25363   9.134   1.323   5.279 -0.1666  0.8891  0.7025
  909MOL0     C25364   9.194   1.374   5.155  0.0176 -0.4350 -0.1165
  909MOL0     C25365   9.170   1.522   5.140 -1.5111 -0.2442 -0.5538
  909MOL0     C25366   9.197   1.602   5.265 -0.2464 -0.0379 -0.1743
  909MOL0     C25367   9.342   1.613   5.322 -0.8586 -0.2783 -0.4958
  909MOL0     C25368   9.331   1.659   5.458 -0.2028 -0.2111  0.4024
  909MOL0     C25369   9.324   1.699   5.567  0.6884 -0.3904 -0.5573
  909MOL0     C25370   9.111   1.147   5.437  0.4459  1.1688 -0.7268
  909MOL0     C25371   9.163   1.039   5.510  0.8450 -0.0683 -1.3140
  909MOL0     C25372   9.073   0.988   5.617 -0.7751  0.5928 -0.2409
  909MOL0     H25373   9.306   0.530   5.558 -1.2984  0.9468  0.1391
  909MOL0     H25374   9.496   0.389   5.623  0.2724 -0.6791  2.3192
  909MOL0     H25375   9.680   0.323   5.658 -1.8291 -0.5072  0.0609
  909MOL0     H25376   9.658   0.228   5.797  2.2716 -1.5063 -1.1162
  909MOL0     H25377   9.885   0.205   5.735  0.9409  2.1332 -2.2535
  909MOL0     H25378   9.909   0.380   5.748  1.3760 -0.8871 -0.7180
  909MOL0     H25379   9.869   0.363   5.999  0.0891  1.7339 -1.7648
  909MOL0     H25380   9.838   0.189   5.983  2.1109 -0.8807  1.6911
  909MOL0     H25381  10.067   0.172   5.874  0.8211 -0.6379  0.5266
  909MOL0     H25382  10.104   0.333   5.920  0.5179 -0.3561  0.2839
  909MOL0     H25383  10.026   0.119   6.118  0.3614  0.8232  2.0528
  909MOL0     H25384  10.073   0.285   6.163  0.4666 -0.5957  1.3696
  909MOL0     H25385  10.270   0.128   5.978  0.6446 -1.8498  1.1008
  909MOL0     H25386  10.308   0.251   6.095  1.6658 -1.5669  2.4035
  909MOL0     H25387  10.384   0.014   6.157  0.3915  0.2659 -0.0251
  909MOL0     H25388  10.218  -0.030   6.195  0.1386 -0.0220  2.8183
  909MOL0     H25389  10.391   0.198   6.290 -0.8378 -0.8041 -2.8871
  909MOL0     H25390  10.222   0.199   6.336  0.0541  0.3670 -0.3178
  909MOL0     H25391  10.496  -0.058   6.407  0.1673 -0.4753 -0.4854
  909MOL0     H25392  10.429  -0.155   6.780  0.7062 -0.7125  0.0770
  909MOL0     H25393  10.565  -0.104   6.687 -1.1928  0.2838  0.6628
  909MOL0     H25394  10.401  -0.363   6.637  0.9521 -1.8451  0.5086
  909MOL0     H25395  10.522  -0.325   6.527 -2.6903 -2.3233 -0.8842
  909MOL0     H25396  10.697  -0.360   6.718  0.8753 -3.0869 -0.1180
  909MOL0     H25397  10.560  -0.370   6.825 -1.7326 -1.4256 -0.4909
  909MOL0     H25398  10.643  -0.602   6.761  1.1754  2.5580  0.3345
  909MOL0     H25399  10.479  -0.575   6.725 -2.2480  3.7075 -0.4246
  909MOL0     H25400  10.631  -0.591   6.309  0.6529  0.8789 -2.2226
  909MOL0     H25401  10.735  -0.630   6.108  1.0166 -0.0420 -3.0491
  909MOL0     H25402  10.891  -0.699   6.125 -1.4196 -0.5521  0.4936
  909MOL0     H25403  10.875  -0.519   6.093  0.9933  0.4697  1.3314
  909MOL0     H25404  11.296  -0.278   6.272  1.5572  0.5806 -0.9642
  909MOL0     H25405  11.531  -0.241   6.193 -1.4469  0.0486  0.5052
  909MOL0     H25406  11.790  -0.561   6.327 -3.6193  0.0091 -1.6761
  909MOL0     H25407  11.818  -0.583   6.153  1.0789  0.7502 -0.1836
  909MOL0     H25408  12.042  -0.540   6.257  0.9180  0.4378  2.0342
  909MOL0     H25409  11.983  -0.425   6.133  0.8142 -0.2413  0.1792
  909MOL0     H25410  11.941  -0.363   6.434  1.1974  1.4947  0.9447
  909MOL0     H25411  11.913  -0.267   6.286  0.4716 -0.4954 -1.6548
  909MOL0     H25412  12.144  -0.233   6.251 -2.6819  3.3961  0.0951
  909MOL0     H25413  12.184  -0.370   6.348  0.9148  0.3207 -1.7029
  909MOL0     H25414  12.031  -0.127   6.463 -1.0747  0.4740 -3.2765
  909MOL0     H25415  12.119  -0.248   6.555 -0.0638  1.9386  1.1299
  909MOL0     H25416  12.250  -0.037   6.364  0.9861 -0.6433  0.3921
  909MOL0     H25417  12.342  -0.164   6.447  1.3134  0.6151  4.2783
  909MOL0     H25418  12.267  -0.068   6.655 -1.1484 -1.3754 -0.9050
  909MOL0     H25419  12.188   0.068   6.564  0.2890 -0.1757  0.8541
  909MOL0     H25420  12.480  -0.007   6.562  0.2391  0.6750 -2.8484
  909MOL0     H25421  12.386   0.108   6.662 -1.1467 -0.7724 -0.3870
  909MOL0     H25422  11.605  -0.665   6.290  1.3640  1.3142  1.2593
  909MOL0     H25423  11.374  -0.681   6.366 -1.4795 -1.0070 -0.1684
  909MOL0     H25424  11.058  -0.550   6.573 -0.2726  1.7612  0.9801
  909MOL0     H25425  10.839  -0.541   6.680  1.0425  0.3315 -0.6521
  909MOL0     H25426   9.586   0.654   5.948 -0.3365  2.1406  0.5639
  909MOL0     H25427   9.424   0.818   5.856 -1.4611 -0.4071  2.5489
  909MOL0     H25428   9.450   1.004   5.338 -0.8039 -0.4455 -0.4056
  909MOL0     H25429   9.377   1.196   5.226 -0.0950 -0.2651 -0.4461
  909MOL0     H25430   9.302   1.362   5.152  0.2482 -0.3674  3.5368
  909MOL0     H25431   9.142   1.322   5.074  0.1173 -0.1554 -0.3637
  909MOL0     H25432   9.071   1.550   5.102 -1.0081  0.0334 -1.7196
  909MOL0     H25433   9.239   1.566   5.067 -1.5444 -0.9133 -0.9972
  909MOL0     H25434   9.150   1.701   5.260 -0.5881 -0.0026  2.3872
  909MOL0     H25435   9.127   1.561   5.339 -0.8169  3.3188  1.3371
  909MOL0     H25436   9.393   1.690   5.262 -0.5047  0.5800  0.8420
  909MOL0     H25437   9.393   1.517   5.325 -3.2215 -1.7897 -3.3817
  909MOL0     H25438   9.312   1.732   5.669 -1.5694  0.9672 -1.1869
  909MOL0     H25439   9.012   1.183   5.463  0.7105  0.9102  0.7315
  909MOL0     H25440   9.139   0.976   5.704  0.5663  1.6589 -1.0579
  909MOL0     H25441   8.998   1.066   5.635 -3.4177 -1.4701 -1.7263
  909MOL0     H25442   9.027   0.898   5.577  0.6880  0.2940 -1.2914
  910MOL0     O25443   6.371   1.146   2.606  0.2582  0.2788  0.3303
  910MOL0     C25444   6.288   1.237   2.631  0.0127 -0.7500  0.5906
  910MOL0     O25445   6.314   1.371   2.614 -0.3079  0.2258  0.2825
  910MOL0     C25446   6.428   1.402   2.549  0.0923  0.4377  0.2487
  910MOL0     C25447   6.437   1.396   2.405  0.0129  0.0588  0.3999
  910MOL0     C25448   6.558   1.410   2.337 -0.8042  0.5252 -0.1667
  910MOL0     C25449   6.677   1.437   2.402  0.2161 -0.1489 -0.5667
  910MOL0     O25450   6.791   1.452   2.325 -0.1167 -0.1706  0.1000
  910MOL0     C25451   6.908   1.494   2.393  0.5488  0.3274 -0.4760
  910MOL0     C25452   7.006   1.558   2.297 -0.2787  0.0297  0.1902
  910MOL0     C25453   7.132   1.603   2.363 -0.3106  0.4364  0.2292
  910MOL0     C25454   7.249   1.514   2.328  0.4314 -0.7062  0.4168
  910MOL0     C25455   7.392   1.552   2.367  1.0545  0.1455  0.2755
  910MOL0     C25456   7.432   1.557   2.513 -0.2900  0.4400  0.6449
  910MOL0     C25457   7.389   1.444   2.606  0.7128  0.3712 -0.1783
  910MOL0     C25458   7.466   1.443   2.736 -0.5369  0.2357 -1.0959
  910MOL0     N25459   7.424   1.329   2.822  0.5667 -0.8868  0.5231
  910MOL0     C25460   7.311   1.324   2.898 -0.8444 -0.4602 -0.7094
  910MOL0     C25461   7.336   1.210   2.971  1.0652 -0.0857 -0.3124
  910MOL0     C25462   7.247   1.153   3.083 -0.2051 -0.5277  0.0137
  910MOL0     C25463   7.180   1.008   3.053 -0.1488 -0.2071  0.2969
  910MOL0     C25464   7.097   0.961   3.169 -1.0053  0.5733  0.0275
  910MOL0     C25465   7.006   0.850   3.144 -0.4885  0.8543  1.0199
  910MOL0     O25466   6.935   0.802   3.263 -0.1413  0.0583 -0.1518
  910MOL0     C25467   6.859   0.686   3.236 -0.7751 -0.2656  0.1204
  910MOL0     C25468   6.800   0.653   3.117  0.1001  0.8528 -0.0191
  910MOL0     C25469   6.720   0.540   3.094 -0.2392 -0.1190 -0.5887
  910MOL0     C25470   6.649   0.524   2.955 -0.3721 -0.8005 -1.0529
  910MOL0     C25471   6.691   0.446   3.194  0.1483 -0.0952  0.5194
  910MOL0     C25472   6.596   0.324   3.192 -0.3248  0.4759  0.4021
  910MOL0     O25473   6.650   0.210   3.233 -0.3764  0.2998  0.2097
  910MOL0     C25474   6.568   0.103   3.231  0.1087 -0.3458 -0.0736
  910MOL0     C25475   6.547   0.022   3.116 -1.0917 -0.3929 -0.6244
  910MOL0     C25476   6.481  -0.095   3.136  0.4773  0.5948 -0.4313
  910MOL0     C25477   6.432  -0.144   3.260 -0.6759 -0.3175  0.1296
  910MOL0     O25478   6.358  -0.265   3.254 -0.5741 -0.0287 -0.6820
  910MOL0     C25479   6.302  -0.321   3.373  0.5330  0.3664 -0.6152
  910MOL0     C25480   6.275  -0.469   3.345  0.1291  0.1768 -0.5790
  910MOL0     C25481   6.408  -0.534   3.387  0.2930 -0.4114  0.6173
  910MOL0     C25482   6.385  -0.678   3.364  0.3612 -0.4203 -0.2966
  910MOL0     C25483   6.516  -0.758   3.354 -0.1706 -0.3045  0.7767
  910MOL0     C25484   6.608  -0.729   3.229 -0.7280  0.0193 -0.0415
  910MOL0     C25485   6.639  -0.862   3.160  0.6849 -0.1264 -0.5775
  910MOL0     C25486   6.513  -0.930   3.089  0.3514  0.7927  0.1320
  910MOL0    Cl25487   6.575  -1.094   3.018 -0.2853 -0.0548  0.0712
  910MOL0     C25488   6.441  -0.057   3.365  0.0621  0.1541  0.2560
  910MOL0     C25489   6.509   0.061   3.351 -0.1796 -0.2997 -0.4972
  910MOL0     O25490   6.483   0.340   3.150  0.0569  0.6539 -0.0954
  910MOL0     C25491   6.742   0.483   3.319  0.4720  0.1628 -1.0112
  910MOL0     C25492   6.830   0.595   3.336 -0.6742 -0.0301 -0.7588
  910MOL0     N25493   7.459   1.156   2.943 -0.1527 -0.6214 -0.9618
  910MOL0     N25494   7.508   1.227   2.846 -0.0824  0.6104  0.2948
  910MOL0     C25495   6.665   1.440   2.539 -2.1857  0.3490  0.4447
  910MOL0     C25496   6.545   1.422   2.610  0.3816 -0.0739 -0.1366
  910MOL0     C25497   6.143   1.194   2.656  1.0382  0.2057  0.6646
  910MOL0     C25498   6.044   1.297   2.651  0.0359  0.3770  0.4553
  910MOL0     C25499   5.915   1.266   2.669  0.2538 -0.0448 -0.6555
  910MOL0     C25500   5.867   1.144   2.708 -1.0981  0.3174  0.5373
  910MOL0     O25501   5.730   1.143   2.724 -0.2120 -0.3518 -0.4603
  910MOL0     C25502   5.680   1.032   2.805  0.9624 -0.6744  0.5067
  910MOL0     C25503   5.673   1.074   2.947 -0.4530  0.7736 -0.8187
  910MOL0     C25504   5.631   0.956   3.039 -0.1879  0.0405  0.2917
  910MOL0     C25505   5.489   0.909   3.018 -0.3489 -0.2795  0.5737
  910MOL0     C25506   5.402   1.015   3.064  0.0218 -0.0940  0.3878
  910MOL0     C25507   5.333   1.111   3.088 -0.1766  0.7337  0.8185
  910MOL0     C25508   5.958   1.044   2.716  0.3095  0.5610  0.7931
  910MOL0     C25509   6.094   1.065   2.684 -0.6651 -0.4374 -0.0356
  910MOL0     C25510   6.184   0.950   2.699 -0.4042  0.8430  0.5124
  910MOL0     H25511   6.352   1.378   2.340  1.2712 -0.5232 -1.1398
  910MOL0     H25512   6.573   1.401   2.230 -0.1531  0.7812 -0.1029
  910MOL0     H25513   6.945   1.413   2.457 -2.2662 -0.4262  0.3376
  910MOL0     H25514   6.879   1.573   2.463  1.2240  2.0917 -2.1132
  910MOL0     H25515   7.034   1.486   2.220  2.7870  2.9740 -1.7352
  910MOL0     H25516   6.954   1.642   2.248  0.1685  0.2619  0.1088
  910MOL0     H25517   7.160   1.706   2.342 -1.5652  1.0152  1.2643
  910MOL0     H25518   7.124   1.598   2.472  2.3133 -1.8645  0.4457
  910MOL0     H25519   7.228   1.415   2.371 -0.4793 -0.3263  0.8828
  910MOL0     H25520   7.248   1.522   2.219 -0.4352  1.9606  0.5515
  910MOL0     H25521   7.400   1.659   2.343 -1.0288  0.3615  0.3435
  910MOL0     H25522   7.463   1.490   2.311  0.6302 -1.9118  1.8988
  910MOL0     H25523   7.540   1.575   2.509  0.1066 -1.8372 -1.9546
  910MOL0     H25524   7.384   1.641   2.564 -1.4853  0.1022  0.1078
  910MOL0     H25525   7.385   1.346   2.558 -2.2832  0.7844 -0.9767
  910MOL0     H25526   7.283   1.459   2.627  0.2273 -2.3560 -0.3691
  910MOL0     H25527   7.573   1.444   2.715  0.3798  2.3889  2.7207
  910MOL0     H25528   7.439   1.534   2.790  0.8767  1.5326 -2.4914
  910MOL0     H25529   7.229   1.394   2.906  0.1206  0.7162 -0.8394
  910MOL0     H25530   7.182   1.232   3.121  2.4797  1.4848  0.7545
  910MOL0     H25531   7.311   1.131   3.169 -1.6082 -0.1231  1.1946
  910MOL0     H25532   7.106   1.023   2.974  1.2401 -0.0603 -1.0192
  910MOL0     H25533   7.255   0.935   3.022  0.9590  0.4194  1.4209
  910MOL0     H25534   7.158   0.929   3.254  0.2578  2.2847 -0.1874
  910MOL0     H25535   7.039   1.048   3.201 -1.4636  0.8301 -1.4298
  910MOL0     H25536   6.939   0.879   3.063  0.0474 -2.0702 -0.6339
  910MOL0     H25537   7.059   0.766   3.097 -2.7505  0.3585 -0.8263
  910MOL0     H25538   6.801   0.724   3.035 -1.5296 -1.1084 -1.8702
  910MOL0     H25539   6.676   0.611   2.894  1.3022 -1.4510 -1.3041
  910MOL0     H25540   6.540   0.522   2.948 -0.3111 -1.7259 -2.0051
  910MOL0     H25541   6.681   0.430   2.908  2.4573 -1.9408  2.5884
  910MOL0     H25542   6.580   0.064   3.021 -5.3078  3.8782 -0.5581
  910MOL0     H25543   6.457  -0.165   3.057 -2.9895  1.1190 -0.0032
  910MOL0     H25544   6.368  -0.311   3.459  1.6367  2.0624 -1.6105
  910MOL0     H25545   6.205  -0.273   3.389 -1.6505 -3.1275 -1.9511
  910MOL0     H25546   6.193  -0.504   3.408 -0.2953  0.5917 -0.8931
  910MOL0     H25547   6.251  -0.500   3.243 -3.3224 -3.8592  1.1154
  910MOL0     H25548   6.431  -0.509   3.491  2.5239 -3.4825  0.9737
  910MOL0     H25549   6.486  -0.494   3.321  0.8140  0.9395  1.9868
  910MOL0     H25550   6.326  -0.696   3.274 -1.8781  0.8711  0.8351
  910MOL0     H25551   6.326  -0.714   3.448  1.8223 -0.2753  0.8426
  910MOL0     H25552   6.566  -0.769   3.450  1.0766 -0.3300  0.1508
  910MOL0     H25553   6.497  -0.866   3.348  2.7102 -0.8339 -1.5170
  910MOL0     H25554   6.692  -0.676   3.273 -1.9955  0.7201  1.6606
  910MOL0     H25555   6.562  -0.666   3.153  2.3841  0.7339 -1.4638
  910MOL0     H25556   6.691  -0.926   3.233 -2.8772 -0.8063  1.5756
  910MOL0     H25557   6.711  -0.843   3.080  0.7687  0.9407 -0.2719
  910MOL0     H25558   6.473  -0.863   3.012  3.4945  1.5938 -0.9421
  910MOL0     H25559   6.436  -0.967   3.157 -0.8458  1.7969 -0.6305
  910MOL0     H25560   6.389  -0.075   3.459 -1.5104  3.3933  0.1445
  910MOL0     H25561   6.511   0.114   3.446  0.4833 -0.7889 -0.2339
  910MOL0     H25562   6.721   0.436   3.415  1.0627  2.4504  0.3179
  910MOL0     H25563   6.882   0.605   3.431 -2.3794 -1.4415  0.3925
  910MOL0     H25564   6.757   1.448   2.597 -0.8154 -1.4544 -1.3362
  910MOL0     H25565   6.552   1.433   2.718  3.3681 -0.7746 -0.1791
  910MOL0     H25566   6.063   1.403   2.637 -1.3951  0.4613 -1.2019
  910MOL0     H25567   5.852   1.354   2.671 -0.4288 -0.5378  0.1369
  910MOL0     H25568   5.582   1.010   2.762  1.9699 -0.4073 -2.1466
  910MOL0     H25569   5.739   0.940   2.809  0.5250 -0.9177  2.3710
  910MOL0     H25570   5.611   1.163   2.965 -0.6534  0.3881  0.5002
  910MOL0     H25571   5.772   1.110   2.978 -1.8574  1.9826  2.8375
  910MOL0     H25572   5.705   0.877   3.023 -1.8339 -1.3490 -0.7446
  910MOL0     H25573   5.633   0.988   3.144 -0.1395 -0.6918  0.5229
  910MOL0     H25574   5.459   0.821   3.076  0.5505 -0.1072  1.3354
  910MOL0     H25575   5.463   0.897   2.912 -1.6503 -2.9868  1.1122
  910MOL0     H25576   5.263   1.192   3.085 -0.3394  0.6941  2.5200
  910MOL0     H25577   5.934   0.945   2.754 -0.9010 -0.4334 -2.1874
  910MOL0     H25578   6.262   0.975   2.770  0.2133  0.8477 -0.1603
  910MOL0     H25579   6.122   0.869   2.740  0.8996  0.2801  1.4157
  910MOL0     H25580   6.224   0.928   2.600 -2.4865 -0.8321 -0.0513
  911MOL0     O25581   0.207   9.340  10.637 -1.2684  0.1233  0.3142
  911MOL0     C25582   0.239   9.459  10.615  0.0464  0.8771 -0.2183
  911MOL0     O25583   0.145   9.560  10.605 -0.1558 -0.1868  0.1767
  911MOL0     C25584   0.020   9.515  10.625 -0.8835  0.4067 -0.3076
  911MOL0     C25585  -0.035   9.469  10.744 -0.1920 -0.5467 -0.4205
  911MOL0     C25586  -0.165   9.426  10.754  0.9813  0.5095 -0.1995
  911MOL0     C25587  -0.251   9.447  10.648 -0.4397  0.6620  0.3446
  911MOL0     O25588  -0.387   9.437  10.649  0.6445 -0.2284  0.4107
  911MOL0     C25589  -0.453   9.402  10.770 -0.6526 -0.1468 -0.8804
  911MOL0     C25590  -0.595   9.363  10.737 -0.3736  0.0075  0.4264
  911MOL0     C25591  -0.658   9.308  10.864  0.3304 -0.5333 -0.1511
  911MOL0     C25592  -0.688   9.156  10.855 -0.6919  0.9697 -0.2006
  911MOL0     C25593  -0.787   9.111  10.963 -0.2230  0.2610  0.3292
  911MOL0     C25594  -0.803   8.967  10.979 -0.1390 -0.0381 -0.7103
  911MOL0     C25595  -0.866   8.892  10.860 -0.0728 -0.6190  0.8672
  911MOL0     C25596  -1.013   8.898  10.856 -0.3338  0.3738  0.1388
  911MOL0     N25597  -1.088   8.792  10.941  0.0068 -0.3480  0.6376
  911MOL0     C25598  -1.151   8.806  11.059 -0.9469  0.6741 -0.4960
  911MOL0     C25599  -1.227   8.695  11.073  0.3426  0.0369 -0.0713
  911MOL0     C25600  -1.308   8.669  11.200  0.0657  0.2620  0.1096
  911MOL0     C25601  -1.451   8.704  11.174 -0.3749 -0.2864  0.0272
  911MOL0     C25602  -1.517   8.613  11.078  0.4039  0.1338  0.4437
  911MOL0     C25603  -1.643   8.663  11.022  0.1658 -0.2941 -0.0283
  911MOL0     O25604  -1.705   8.557  10.953 -0.3636  0.3477  0.1394
  911MOL0     C25605  -1.809   8.583  10.865 -0.4655 -0.3263  0.6322
  911MOL0     C25606  -1.856   8.713  10.839 -0.4331  0.1984  0.6017
  911MOL0     C25607  -1.946   8.729  10.731  0.0112 -0.2887  0.3501
  911MOL0     C25608  -1.969   8.877  10.702  0.1783  1.2627 -0.9179
  911MOL0     C25609  -1.999   8.617  10.659 -0.3558 -0.2000 -0.3151
  911MOL0     C25610  -2.089   8.621  10.535 -0.3365 -0.3120  0.1333
  911MOL0     O25611  -2.105   8.500  10.464  0.5274  0.5662 -0.7565
  911MOL0     C25612  -2.178   8.512  10.348  0.5079  0.0185 -0.0003
  911MOL0     C25613  -2.260   8.403  10.313 -0.6354  0.1312  0.5631
  911MOL0     C25614  -2.309   8.378  10.184 -0.1604 -1.2309 -0.1195
  911MOL0     C25615  -2.299   8.475  10.080  0.2061  0.0264  0.3834
  911MOL0     O25616  -2.351   8.477   9.960  0.3723 -0.0570 -0.4718
  911MOL0     C25617  -2.397   8.361   9.896  0.1430  0.2169  0.9118
  911MOL0     C25618  -2.293   8.261   9.849 -0.3437 -0.2027 -0.5359
  911MOL0     C25619  -2.356   8.145   9.787  0.0860 -0.3512 -0.1103
  911MOL0     C25620  -2.260   8.043   9.745 -0.5092 -0.3793  1.1709
  911MOL0     C25621  -2.336   7.916   9.713 -0.1368  0.2969  0.8231
  911MOL0     C25622  -2.237   7.803   9.669  0.3025 -0.2201 -0.6410
  911MOL0     C25623  -2.316   7.662   9.673  0.4856  0.0700 -0.6214
  911MOL0     C25624  -2.389   7.642   9.543 -0.0262  0.2829 -0.2662
  911MOL0    Cl25625  -2.287   7.572   9.417  0.1843  0.1969  0.0235
  911MOL0     C25626  -2.214   8.584  10.115  0.3629  0.6292  0.1914
  911MOL0     C25627  -2.155   8.600  10.242 -0.6690 -1.0222  0.9895
  911MOL0     O25628  -2.152   8.728  10.511 -0.4531  0.8875 -0.3820
  911MOL0     C25629  -1.950   8.490  10.689  0.0270 -0.2855 -0.1544
  911MOL0     C25630  -1.845   8.480  10.778  0.1752  0.0062 -0.1757
  911MOL0     N25631  -1.207   8.614  10.967  0.1363 -0.8159  1.0180
  911MOL0     N25632  -1.120   8.668  10.893  0.3400 -0.6178  1.0131
  911MOL0     C25633  -0.194   9.491  10.526 -0.4530  0.0164 -1.2586
  911MOL0     C25634  -0.063   9.527  10.517  0.3583  0.3808  0.1718
  911MOL0     C25635   0.383   9.479  10.579  0.4450 -0.6449 -0.5181
  911MOL0     C25636   0.470   9.370  10.565  1.2995  0.2489 -0.0799
  911MOL0     C25637   0.604   9.388  10.551 -0.0225  0.7858  0.8137
  911MOL0     C25638   0.659   9.512  10.524  0.2366 -0.2655  0.4409
  911MOL0     O25639   0.789   9.542  10.499 -0.0123  0.2768 -0.1141
  911MOL0     C25640   0.889   9.439  10.473 -0.1059 -0.7784 -1.1311
  911MOL0     C25641   1.028   9.495  10.491  0.2072 -0.5826 -0.1174
  911MOL0     C25642   1.064   9.592  10.381  0.1818  0.7125  0.4507
  911MOL0     C25643   1.192   9.673  10.405  0.0747  0.4680 -0.3686
  911MOL0     C25644   1.214   9.775  10.302 -0.2489  0.4357 -0.5272
  911MOL0     C25645   1.236   9.862  10.221 -0.4678  0.2866 -0.2991
  911MOL0     C25646   0.575   9.622  10.524  0.3636 -0.0529  0.0316
  911MOL0     C25647   0.435   9.608  10.551  0.5764  0.1258 -0.7222
  911MOL0     C25648   0.351   9.740  10.554 -0.1590  0.4428 -0.1757
  911MOL0     H25649   0.042   9.486  10.819  0.9036  0.8298 -1.7861
  911MOL0     H25650  -0.208   9.391  10.848 -6.1032  1.5812 -2.4274
  911MOL0     H25651  -0.464   9.488  10.837 -1.4837 -0.2443 -0.8744
  911MOL0     H25652  -0.406   9.324  10.831  1.8202  3.0868  1.6937
  911MOL0     H25653  -0.638   9.457  10.702 -0.2428  0.6649  1.9737
  911MOL0     H25654  -0.602   9.290  10.655  3.3530  0.6441 -0.6591
  911MOL0     H25655  -0.585   9.322  10.944  0.3991 -0.5538 -0.2087
  911MOL0     H25656  -0.752   9.358  10.889 -0.1999 -1.1099 -0.9365
  911MOL0     H25657  -0.730   9.136  10.756  2.4068 -0.8429 -1.2922
  911MOL0     H25658  -0.597   9.098  10.872 -0.1951  1.7559 -0.1188
  911MOL0     H25659  -0.885   9.161  10.964 -1.8286 -2.5548 -1.7453
  911MOL0     H25660  -0.744   9.138  11.060  4.1080 -1.5207 -0.8587
  911MOL0     H25661  -0.706   8.917  10.988 -0.0234  0.4091  0.7974
  911MOL0     H25662  -0.853   8.948  11.075  0.5554  3.0201  0.3684
  911MOL0     H25663  -0.837   8.788  10.875  0.2174 -1.0637 -2.1041
  911MOL0     H25664  -0.819   8.920  10.765  0.2345 -0.4533  1.0670
  911MOL0     H25665  -1.046   8.992  10.900  0.1381  1.0587 -0.9131
  911MOL0     H25666  -1.057   8.893  10.755  0.8878  0.7487 -0.4314
  911MOL0     H25667  -1.149   8.888  11.130 -0.9929 -0.9613  1.5122
  911MOL0     H25668  -1.268   8.728  11.283  0.1624  0.4870 -0.0989
  911MOL0     H25669  -1.308   8.561  11.218 -2.9104  0.0615 -0.4655
  911MOL0     H25670  -1.503   8.715  11.269  1.6763  1.1665  1.0582
  911MOL0     H25671  -1.459   8.809  11.144  0.1788  1.4930  5.2266
  911MOL0     H25672  -1.453   8.583  10.995 -3.3283 -0.2892 -2.5795
  911MOL0     H25673  -1.540   8.520  11.131 -1.0470  1.9626  3.2165
  911MOL0     H25674  -1.709   8.680  11.107 -2.6197  1.8812 -2.4226
  911MOL0     H25675  -1.625   8.748  10.956 -0.6710 -0.4125 -0.4248
  911MOL0     H25676  -1.820   8.795  10.900  1.3789 -0.4263  0.4133
  911MOL0     H25677  -1.969   8.935  10.794 -4.0104 -1.0558  0.8340
  911MOL0     H25678  -2.072   8.887  10.666 -0.9579 -3.6287  0.2095
  911MOL0     H25679  -1.896   8.909  10.627  0.1547 -2.3356 -2.6959
  911MOL0     H25680  -2.259   8.329  10.393  3.3747  2.2447  2.7733
  911MOL0     H25681  -2.357   8.282  10.172 -0.4144 -1.3283  1.4388
  911MOL0     H25682  -2.471   8.299   9.948 -2.0338 -0.7407 -2.9733
  911MOL0     H25683  -2.440   8.394   9.801  3.1570 -0.7350 -0.9140
  911MOL0     H25684  -2.224   8.315   9.784 -0.0774 -0.7260 -0.6931
  911MOL0     H25685  -2.236   8.232   9.938 -0.1199  0.8647 -0.3230
  911MOL0     H25686  -2.420   8.165   9.701  2.0926 -1.2805 -1.9255
  911MOL0     H25687  -2.408   8.085   9.863 -0.9518 -1.1910 -1.4381
  911MOL0     H25688  -2.195   8.023   9.831  2.2085 -1.2375 -0.9243
  911MOL0     H25689  -2.201   8.081   9.661 -1.3204 -0.1110  0.7135
  911MOL0     H25690  -2.382   7.890   9.808 -1.2424 -0.8432  0.0163
  911MOL0     H25691  -2.416   7.916   9.638 -0.3641 -0.8831  1.0454
  911MOL0     H25692  -2.152   7.803   9.738  2.0402  1.2409 -2.7047
  911MOL0     H25693  -2.206   7.827   9.568 -1.3830 -2.4530 -1.7949
  911MOL0     H25694  -2.379   7.658   9.762  1.3580 -0.1912  0.0029
  911MOL0     H25695  -2.244   7.582   9.694  0.0457  0.2613  1.8474
  911MOL0     H25696  -2.429   7.734   9.500 -2.4361 -1.0188 -1.0340
  911MOL0     H25697  -2.475   7.578   9.566 -0.0022  0.6299  0.8529
  911MOL0     H25698  -2.184   8.658  10.041  0.8106  0.1169 -0.1420
  911MOL0     H25699  -2.096   8.689  10.261 -1.1583 -0.6485  0.7735
  911MOL0     H25700  -1.980   8.400  10.636  1.3305 -1.3091  0.7930
  911MOL0     H25701  -1.809   8.379  10.797  0.3770 -0.5289 -2.9598
  911MOL0     H25702  -0.253   9.495  10.435 -4.4211  0.8076  1.0548
  911MOL0     H25703  -0.026   9.566  10.423 -0.8095  0.2842 -0.3379
  911MOL0     H25704   0.442   9.271  10.600 -0.1958  0.2531 -1.2026
  911MOL0     H25705   0.672   9.303  10.558 -1.2031 -0.2689 -0.1333
  911MOL0     H25706   0.872   9.356  10.542  0.8806  1.8748  2.6155
  911MOL0     H25707   0.876   9.400  10.372 -0.5970 -0.2888 -1.2685
  911MOL0     H25708   1.102   9.414  10.486  2.2739  1.0630  2.0074
  911MOL0     H25709   1.033   9.550  10.584  0.2006  1.3171 -1.1983
  911MOL0     H25710   1.087   9.535  10.291 -0.9569  1.1148 -0.1100
  911MOL0     H25711   0.981   9.663  10.372 -1.3554 -0.6466  2.9366
  911MOL0     H25712   1.280   9.609  10.400  0.8808  1.5502 -0.3283
  911MOL0     H25713   1.184   9.716  10.505 -3.2262  0.6611 -0.5849
  911MOL0     H25714   1.252   9.934  10.144 -0.4853  1.5268  0.8130
  911MOL0     H25715   0.617   9.717  10.491  3.5100 -1.6487 -0.9492
  911MOL0     H25716   0.301   9.743  10.457 -0.7744 -1.6778  0.0275
  911MOL0     H25717   0.284   9.756  10.639 -0.8711 -0.3437 -0.5875
  911MOL0     H25718   0.431   9.816  10.550  1.6752 -1.3535  0.5979
  912MOL0     O25719   2.972   1.307   3.806  0.4902 -0.1462  0.4494
  912MOL0     C25720   2.996   1.251   3.698 -0.0512  0.2914 -0.0178
  912MOL0     O25721   2.898   1.201   3.624  0.3233  0.3684  0.2588
  912MOL0     C25722   2.771   1.185   3.666  0.0980  0.1184 -0.4105
  912MOL0     C25723   2.691   1.305   3.677 -0.4634  0.0810  0.2339
  912MOL0     C25724   2.559   1.298   3.730 -0.3554 -0.2780 -0.6046
  912MOL0     C25725   2.513   1.178   3.779 -0.1688  0.3887 -0.4233
  912MOL0     O25726   2.379   1.186   3.813  0.0267  0.7435 -0.2294
  912MOL0     C25727   2.307   1.065   3.847  0.2706 -0.8390 -0.1654
  912MOL0     C25728   2.162   1.109   3.863  0.4125 -0.5262  0.3532
  912MOL0     C25729   2.113   1.152   3.729 -1.1937 -0.6879  0.5680
  912MOL0     C25730   1.974   1.213   3.742  0.3532  0.1011  0.1208
  912MOL0     C25731   1.899   1.232   3.609 -0.5262  0.5102  0.2328
  912MOL0     C25732   1.952   1.341   3.524  0.1255  0.9241 -0.2107
  912MOL0     C25733   1.939   1.300   3.380 -0.4645 -0.0808  0.1626
  912MOL0     C25734   1.990   1.410   3.281 -0.1709  0.2023 -0.7214
  912MOL0     N25735   2.133   1.423   3.300  0.4376  0.3905  0.3689
  912MOL0     C25736   2.218   1.320   3.289  0.2164 -0.1442  0.5676
  912MOL0     C25737   2.341   1.370   3.323 -0.3160 -0.6357  0.9192
  912MOL0     C25738   2.480   1.314   3.309 -0.0152 -0.1984 -0.6846
  912MOL0     C25739   2.499   1.169   3.339 -0.8264  0.5958  0.2100
  912MOL0     C25740   2.638   1.120   3.320 -0.1565 -0.1728  0.3824
  912MOL0     C25741   2.671   1.089   3.169 -0.3495 -0.5168  0.0695
  912MOL0     O25742   2.813   1.097   3.153 -0.0129 -1.0541  0.1128
  912MOL0     C25743   2.864   1.089   3.030  0.7304 -0.3886 -0.1823
  912MOL0     C25744   2.793   1.084   2.908  0.2943  0.0839  0.0151
  912MOL0     C25745   2.852   1.079   2.785  0.2812  0.9972  0.9124
  912MOL0     C25746   2.768   1.072   2.660 -0.4830  0.7043 -0.6770
  912MOL0     C25747   2.991   1.058   2.778  0.4863 -0.9494 -0.3847
  912MOL0     C25748   3.074   1.042   2.653 -0.3124  0.4096  0.4830
  912MOL0     O25749   3.176   0.965   2.662 -0.0141 -0.1585 -0.4764
  912MOL0     C25750   3.279   0.998   2.579  0.2951 -0.4716  0.3914
  912MOL0     C25751   3.302   0.915   2.470 -0.3850 -0.1110 -0.3162
  912MOL0     C25752   3.408   0.948   2.383 -0.5365 -0.2240  0.1647
  912MOL0     C25753   3.498   1.056   2.412 -0.3935 -0.4572 -0.2545
  912MOL0     O25754   3.623   1.085   2.355  0.0004  0.0764 -0.0263
  912MOL0     C25755   3.684   0.978   2.282 -0.1369 -0.3532 -0.3215
  912MOL0     C25756   3.823   1.024   2.241  0.1863 -0.4657 -0.0036
  912MOL0     C25757   3.823   1.097   2.102 -0.5113  1.0091  0.0444
  912MOL0     C25758   3.962   1.093   2.040 -0.3547  0.0590  0.1064
  912MOL0     C25759   3.964   1.153   1.902 -0.0324  0.9823  0.9847
  912MOL0     C25760   4.105   1.208   1.865 -0.3765 -0.8801  0.0119
  912MOL0     C25761   4.234   1.116   1.873 -0.0092  0.2920  0.3810
  912MOL0     C25762   4.368   1.188   1.860 -0.2173  0.6164  0.1620
  912MOL0    Cl25763   4.383   1.283   1.718 -0.2733 -0.6655 -0.0076
  912MOL0     C25764   3.461   1.137   2.519 -0.8323 -0.2809 -0.0392
  912MOL0     C25765   3.350   1.116   2.600 -1.0023 -0.0811 -0.3074
  912MOL0     O25766   3.054   1.126   2.568  0.2731  0.3030  0.1548
  912MOL0     C25767   3.064   1.050   2.894 -0.6722  0.2282 -0.6500
  912MOL0     C25768   2.996   1.067   3.015 -0.7735  1.0436  0.2574
  912MOL0     N25769   2.326   1.501   3.361 -0.4771 -0.1989  0.8316
  912MOL0     N25770   2.199   1.534   3.349 -1.4176  0.5779  0.6437
  912MOL0     C25771   2.589   1.054   3.764  0.0915  0.3671 -0.8896
  912MOL0     C25772   2.725   1.061   3.720 -0.3864  0.3424 -0.1139
  912MOL0     C25773   3.136   1.226   3.646 -0.3813  0.4931  0.0447
  912MOL0     C25774   3.242   1.309   3.693 -0.1149  0.1413 -0.7112
  912MOL0     C25775   3.365   1.316   3.628  0.2981  0.7109 -0.4139
  912MOL0     C25776   3.398   1.226   3.525  0.5167 -0.7562 -0.3084
  912MOL0     O25777   3.513   1.235   3.459  0.4906 -0.0635 -0.3913
  912MOL0     C25778   3.618   1.313   3.502  0.2571  0.4685 -0.2165
  912MOL0     C25779   3.717   1.323   3.388 -0.3250  0.2555  0.9312
  912MOL0     C25780   3.677   1.410   3.272 -0.3367 -0.7034  0.1885
  912MOL0     C25781   3.789   1.456   3.169  0.1025 -0.7490  0.3198
  912MOL0     C25782   3.896   1.530   3.241 -1.0074  0.6944  0.7520
  912MOL0     C25783   3.978   1.599   3.297  0.3719 -0.3568  0.1845
  912MOL0     C25784   3.302   1.138   3.491  0.2151 -0.5370 -0.1392
  912MOL0     C25785   3.165   1.138   3.542 -1.2448 -0.0875  0.1259
  912MOL0     C25786   3.069   1.043   3.474  0.2021  0.3720 -0.3446
  912MOL0     H25787   2.722   1.403   3.642  0.4859 -0.0053  0.8180
  912MOL0     H25788   2.491   1.383   3.723 -2.2636 -1.6617  0.1872
  912MOL0     H25789   2.333   1.036   3.949  0.5803  0.8237  0.2618
  912MOL0     H25790   2.330   0.989   3.772  3.8402 -0.1259  0.0541
  912MOL0     H25791   2.090   1.036   3.901 -0.2285 -0.1891 -0.2065
  912MOL0     H25792   2.147   1.184   3.941 -2.3386  2.3365 -2.6663
  912MOL0     H25793   2.181   1.230   3.692 -2.4368  0.3433  0.3994
  912MOL0     H25794   2.112   1.071   3.655  1.1483  0.8842 -1.3662
  912MOL0     H25795   1.910   1.165   3.818 -1.6817  0.3531 -1.3515
  912MOL0     H25796   1.984   1.314   3.784 -2.0490 -0.5572  2.5835
  912MOL0     H25797   1.799   1.268   3.631 -1.1513 -1.3350  0.5934
  912MOL0     H25798   1.903   1.135   3.559 -3.7275  0.0155  0.7351
  912MOL0     H25799   1.897   1.435   3.535  1.8205  1.9286  0.0710
  912MOL0     H25800   2.060   1.353   3.541  1.0110 -1.3098 -3.3190
  912MOL0     H25801   1.837   1.268   3.358  0.0989 -2.4195  0.6913
  912MOL0     H25802   1.989   1.205   3.359 -0.4645  0.3932 -2.3394
  912MOL0     H25803   1.972   1.359   3.186  2.5201 -2.1360 -0.0893
  912MOL0     H25804   1.927   1.499   3.294 -0.0610 -0.0915  2.5287
  912MOL0     H25805   2.200   1.221   3.249 -0.2657  0.0242  0.3557
  912MOL0     H25806   2.543   1.364   3.382 -2.0411 -1.8942  2.4532
  912MOL0     H25807   2.517   1.344   3.210  1.2109  2.1622  0.4157
  912MOL0     H25808   2.459   1.153   3.440 -2.0088 -0.3972 -0.3819
  912MOL0     H25809   2.442   1.110   3.266  0.5368 -1.5590  0.8000
  912MOL0     H25810   2.703   1.203   3.348 -2.3544  2.3806 -1.6415
  912MOL0     H25811   2.645   1.033   3.386  2.4345 -1.8149 -1.8608
  912MOL0     H25812   2.639   0.989   3.141  2.2350 -0.6400 -2.9043
  912MOL0     H25813   2.629   1.169   3.108 -1.2978 -1.1008 -0.0601
  912MOL0     H25814   2.684   1.091   2.906  0.3033  0.5591  0.8534
  912MOL0     H25815   2.824   1.111   2.575  0.0062  0.5520 -0.4267
  912MOL0     H25816   2.670   1.120   2.663 -1.2315 -0.5654 -2.7083
  912MOL0     H25817   2.742   0.968   2.638 -2.7862  0.9954  0.2895
  912MOL0     H25818   3.233   0.835   2.447  0.8557 -1.7294  1.3785
  912MOL0     H25819   3.422   0.878   2.301 -0.0665  1.2898 -1.0874
  912MOL0     H25820   3.701   0.883   2.334  2.1110 -0.4715 -1.1175
  912MOL0     H25821   3.630   0.951   2.190 -2.8078  2.3242  0.3116
  912MOL0     H25822   3.866   1.097   2.310 -1.8685  2.2317 -1.3915
  912MOL0     H25823   3.887   0.935   2.245  1.0579  0.1889  1.3511
  912MOL0     H25824   3.785   1.198   2.118  2.2428  1.8420  2.1337
  912MOL0     H25825   3.754   1.045   2.035 -1.2671 -1.5666  2.5893
  912MOL0     H25826   3.997   0.989   2.041 -0.1874  0.1134  0.5641
  912MOL0     H25827   4.029   1.155   2.100 -0.7507 -0.0358  0.6534
  912MOL0     H25828   3.921   1.075   1.838  2.7231 -0.2342  0.4470
  912MOL0     H25829   3.896   1.238   1.890 -4.0089 -1.9410  0.7357
  912MOL0     H25830   4.122   1.290   1.935 -1.5319 -0.4855 -0.1422
  912MOL0     H25831   4.115   1.244   1.762 -0.8063  1.3653  0.7003
  912MOL0     H25832   4.230   1.035   1.798  0.1479 -1.6317  2.3461
  912MOL0     H25833   4.226   1.067   1.970 -3.0144 -0.7648 -0.2865
  912MOL0     H25834   4.458   1.126   1.859  0.9253  2.2098  0.0911
  912MOL0     H25835   4.384   1.249   1.949 -4.2138  0.2450  1.3399
  912MOL0     H25836   3.518   1.227   2.539  0.5804 -0.6581 -2.0007
  912MOL0     H25837   3.333   1.185   2.682  0.5866 -0.0848  0.0545
  912MOL0     H25838   3.171   1.031   2.893 -0.8183 -0.6738 -0.1391
  912MOL0     H25839   3.048   1.064   3.110  1.8151  0.3932 -1.0908
  912MOL0     H25840   2.551   0.956   3.789  2.1129  0.3000  2.6387
  912MOL0     H25841   2.778   0.966   3.717 -0.7998  0.0767  0.7811
  912MOL0     H25842   3.217   1.389   3.761  0.9911  0.0361 -0.1500
  912MOL0     H25843   3.441   1.382   3.669 -1.6508  1.2819  2.5553
  912MOL0     H25844   3.577   1.411   3.527 -0.3848  0.1478 -0.0007
  912MOL0     H25845   3.675   1.274   3.588  2.4244  2.0667 -0.8362
  912MOL0     H25846   3.742   1.228   3.339  0.1181  1.5043 -1.4105
  912MOL0     H25847   3.809   1.361   3.435  0.3771  0.4685 -0.5429
  912MOL0     H25848   3.601   1.349   3.222 -1.4774 -1.3082  2.5231
  912MOL0     H25849   3.633   1.504   3.309 -0.3265 -0.9130  0.7472
  912MOL0     H25850   3.750   1.517   3.087 -0.2782 -0.4071  0.7471
  912MOL0     H25851   3.830   1.365   3.125 -1.3515  0.1838 -3.3204
  912MOL0     H25852   4.052   1.662   3.342 -0.6710  0.8366  0.2514
  912MOL0     H25853   3.324   1.079   3.402 -1.6572  0.0375 -1.0502
  912MOL0     H25854   2.991   1.088   3.412 -0.0719 -1.6095 -1.5236
  912MOL0     H25855   3.116   0.957   3.425 -2.0053 -1.9888  1.3949
  912MOL0     H25856   3.022   0.995   3.560  1.5269 -2.5214 -1.1146
  913MOL0     O25857   9.414   8.641   4.473  0.1946 -0.2550  0.1990
  913MOL0     C25858   9.318   8.560   4.472  0.4552 -0.4183 -0.2114
  913MOL0     O25859   9.296   8.477   4.377 -0.3640  0.9166  0.3108
  913MOL0     C25860   9.377   8.453   4.274  0.1247 -0.3934  0.9513
  913MOL0     C25861   9.416   8.321   4.234 -0.2651  0.8129  0.0791
  913MOL0     C25862   9.485   8.308   4.119  0.3889 -0.5341  0.4867
  913MOL0     C25863   9.527   8.414   4.046 -0.8549  0.4223  0.0426
  913MOL0     O25864   9.601   8.410   3.928 -0.0369 -0.1179 -0.3285
  913MOL0     C25865   9.610   8.289   3.861 -0.5179  0.1142 -0.5005
  913MOL0     C25866   9.668   8.315   3.725 -1.6065 -0.0058  0.7109
  913MOL0     C25867   9.747   8.184   3.677  0.2195  0.4406 -0.3989
  913MOL0     C25868   9.768   8.182   3.528 -0.8591 -0.1583 -0.1181
  913MOL0     C25869   9.812   8.037   3.483 -0.5346 -0.2187 -0.2843
  913MOL0     C25870   9.835   8.037   3.325 -0.2312  0.5236  0.5028
  913MOL0     C25871   9.968   8.103   3.288  0.3381 -0.1439  0.0343
  913MOL0     C25872   9.960   8.154   3.142  0.4735  0.5380 -0.3644
  913MOL0     N25873   9.954   8.302   3.135 -0.1107  0.0746  0.1149
  913MOL0     C25874  10.028   8.390   3.199 -0.0925  0.0955  0.0735
  913MOL0     C25875   9.982   8.510   3.160 -0.6047 -0.0523  0.4308
  913MOL0     C25876  10.045   8.646   3.192  0.1927 -0.3141 -0.1987
  913MOL0     C25877  10.050   8.720   3.053  0.6051 -0.2442 -0.4687
  913MOL0     C25878  10.143   8.848   3.051  0.2404  0.4409  1.0680
  913MOL0     C25879  10.161   8.907   2.911  0.5684 -0.6036  0.2702
  913MOL0     O25880  10.225   9.037   2.930  0.0760  0.1442 -0.0905
  913MOL0     C25881  10.364   9.031   2.961  0.6198 -0.4022 -0.1078
  913MOL0     C25882  10.408   9.152   3.009  0.2162  0.9294  0.0104
  913MOL0     C25883  10.549   9.164   3.040 -0.7295 -0.5875 -0.0088
  913MOL0     C25884  10.590   9.299   3.095 -0.1591 -0.1885  1.2394
  913MOL0     C25885  10.639   9.062   3.008 -0.0145  0.4548 -0.1904
  913MOL0     C25886  10.791   9.072   3.032 -0.1233 -0.6417  0.2093
  913MOL0     O25887  10.851   8.960   3.067  0.1193 -0.2034 -0.3349
  913MOL0     C25888  10.988   8.957   3.064 -0.0776 -1.0494 -0.1929
  913MOL0     C25889  11.074   9.010   2.969  0.3320 -0.6799  0.0125
  913MOL0     C25890  11.205   8.984   2.962 -1.1606  0.1534 -0.3677
  913MOL0     C25891  11.262   8.885   3.048  0.5871  0.5277  0.0457
  913MOL0     O25892  11.401   8.857   3.043 -0.4457  0.9209 -0.4037
  913MOL0     C25893  11.481   8.947   3.111  0.1401 -0.2311 -0.4034
  913MOL0     C25894  11.538   9.062   3.015  0.7380  0.0414  0.7416
  913MOL0     C25895  11.600   9.005   2.893 -0.1672  0.3198  0.0007
  913MOL0     C25896  11.739   8.940   2.911  0.2705  0.4974  0.0833
  913MOL0     C25897  11.835   8.983   2.785  0.5200  0.6527 -0.1739
  913MOL0     C25898  11.974   8.924   2.789  0.3318 -0.0542 -0.5432
  913MOL0     C25899  12.060   8.972   2.688 -0.2570  0.6578  0.4371
  913MOL0     C25900  12.213   8.958   2.724  0.0672 -0.4189  0.8746
  913MOL0    Cl25901  12.265   8.797   2.697 -0.0302 -0.0843  0.0046
  913MOL0     C25902  11.173   8.816   3.132 -0.0424 -0.2390  0.0929
  913MOL0     C25903  11.037   8.851   3.138  0.5854 -0.4945 -0.9533
  913MOL0     O25904  10.851   9.183   3.028 -0.3089  1.1902  0.1053
  913MOL0     C25905  10.582   8.943   2.967 -0.1577 -0.8475  0.3497
  913MOL0     C25906  10.455   8.916   2.944 -0.2053 -0.6618 -0.9124
  913MOL0     N25907   9.881   8.488   3.064  0.1216 -0.1205  0.5838
  913MOL0     N25908   9.865   8.367   3.052  0.1605  0.0896  0.0065
  913MOL0     C25909   9.502   8.542   4.086 -0.1206 -0.0285  0.1286
  913MOL0     C25910   9.418   8.564   4.193 -0.8580 -0.3258 -0.4347
  913MOL0     C25911   9.246   8.551   4.596  0.0468  0.2742 -1.3294
  913MOL0     C25912   9.205   8.421   4.628  0.5698  0.4823  0.0120
  913MOL0     C25913   9.129   8.397   4.743  0.3921 -0.3136  0.1781
  913MOL0     C25914   9.082   8.494   4.828  0.5243  0.4153  0.2757
  913MOL0     O25915   8.993   8.474   4.931 -0.5228 -0.4903  0.0034
  913MOL0     C25916   8.937   8.339   4.959  0.4985 -0.0766  0.7994
  913MOL0     C25917   8.813   8.357   5.048  0.7523  0.0129 -0.3647
  913MOL0     C25918   8.710   8.457   4.997 -0.3833 -0.6683 -0.2776
  913MOL0     C25919   8.604   8.481   5.109 -0.7079 -0.0079  0.5916
  913MOL0     C25920   8.502   8.572   5.062 -1.0964 -0.2517  0.5077
  913MOL0     C25921   8.408   8.638   5.014 -0.7052 -0.8058  0.4271
  913MOL0     C25922   9.114   8.626   4.791 -0.6469 -0.5006 -0.2522
  913MOL0     C25923   9.207   8.653   4.682  0.3238 -0.2612  0.0985
  913MOL0     C25924   9.251   8.800   4.667 -0.3369  0.3611 -0.2618
  913MOL0     H25925   9.389   8.227   4.281 -3.0525 -0.5307 -3.6556
  913MOL0     H25926   9.522   8.213   4.081  1.4769  0.4026 -0.8885
  913MOL0     H25927   9.514   8.238   3.848 -0.6957  0.2229  0.3597
  913MOL0     H25928   9.679   8.220   3.912 -0.2505  0.5330 -0.2967
  913MOL0     H25929   9.587   8.330   3.653 -0.0594 -0.4571 -1.2127
  913MOL0     H25930   9.733   8.403   3.722 -0.8318 -0.5347 -3.0513
  913MOL0     H25931   9.846   8.179   3.722 -0.4729  3.4981  1.7908
  913MOL0     H25932   9.695   8.090   3.697  1.3410 -0.2824 -0.7893
  913MOL0     H25933   9.669   8.186   3.481 -1.0425  0.1220  0.2885
  913MOL0     H25934   9.824   8.271   3.499 -1.6846  1.5264  3.0296
  913MOL0     H25935   9.732   7.965   3.501  1.1233 -1.5775  2.2663
  913MOL0     H25936   9.900   8.005   3.540 -0.8293 -2.8276 -1.1543
  913MOL0     H25937   9.840   7.933   3.290 -2.4287  0.3919  0.4336
  913MOL0     H25938   9.750   8.092   3.285 -1.0840 -0.5651  0.7485
  913MOL0     H25939  10.045   8.026   3.294  0.8525  0.4117  0.6767
  913MOL0     H25940   9.993   8.178   3.364 -0.8148 -1.5748  1.9047
  913MOL0     H25941  10.048   8.113   3.092 -1.0544 -2.2942 -0.8766
  913MOL0     H25942   9.881   8.107   3.084 -0.1485  1.6214 -0.4145
  913MOL0     H25943  10.101   8.368   3.276 -2.0952  0.6554  2.2363
  913MOL0     H25944  10.148   8.634   3.227 -0.0302 -0.9769  0.2395
  913MOL0     H25945   9.996   8.706   3.269  2.0168  0.3810  0.4901
  913MOL0     H25946  10.078   8.658   2.967  0.3334 -1.2581  0.1528
  913MOL0     H25947   9.950   8.752   3.022  0.7230 -0.1793 -0.7914
  913MOL0     H25948  10.101   8.930   3.110 -1.6610  0.0032  0.3793
  913MOL0     H25949  10.241   8.812   3.085 -0.0898 -0.6415  0.9130
  913MOL0     H25950  10.216   8.837   2.847 -1.5017 -2.4709  0.3928
  913MOL0     H25951  10.062   8.934   2.872  0.9947  2.7432  1.1976
  913MOL0     H25952  10.337   9.235   3.011 -0.0621  0.7259 -0.9696
  913MOL0     H25953  10.663   9.345   3.028  0.9980  0.0578  2.6157
  913MOL0     H25954  10.647   9.298   3.188  1.7512 -1.3327  0.1312
  913MOL0     H25955  10.506   9.367   3.108 -0.7264 -0.0182 -2.2770
  913MOL0     H25956  11.030   9.081   2.900  1.6462  0.0972 -0.0650
  913MOL0     H25957  11.261   9.024   2.878  0.9976 -1.2758  0.3099
  913MOL0     H25958  11.420   8.987   3.193 -1.4485 -0.9036 -1.2194
  913MOL0     H25959  11.560   8.893   3.165 -1.3256 -0.2591  1.8621
  913MOL0     H25960  11.448   9.113   2.979 -0.1379 -1.2093  1.1048
  913MOL0     H25961  11.612   9.122   3.069  2.2515 -1.2838  0.2220
  913MOL0     H25962  11.608   9.089   2.823  1.4243 -0.4681 -0.8236
  913MOL0     H25963  11.538   8.931   2.841  3.3610 -5.2663  2.7134
  913MOL0     H25964  11.735   8.831   2.912 -1.8207  0.2326 -5.4035
  913MOL0     H25965  11.774   8.981   3.006  1.5406 -2.4107  0.9630
  913MOL0     H25966  11.782   8.956   2.694 -0.5713  1.3725  0.2183
  913MOL0     H25967  11.843   9.092   2.795  0.8882  0.6238 -0.1554
  913MOL0     H25968  11.970   8.815   2.780  1.1747 -0.0765 -0.7258
  913MOL0     H25969  12.013   8.947   2.888  0.2529  0.9393 -0.7307
  913MOL0     H25970  12.040   9.078   2.667  0.0647  0.5524 -0.4683
  913MOL0     H25971  12.037   8.915   2.597 -0.8251  2.3075 -0.5115
  913MOL0     H25972  12.238   8.993   2.825  1.7949  2.3702 -0.3771
  913MOL0     H25973  12.268   9.031   2.663  2.2426 -2.4653  0.2533
  913MOL0     H25974  11.228   8.740   3.188  1.0272  0.3256 -0.1491
  913MOL0     H25975  10.964   8.804   3.204  2.2051  1.6550  2.6795
  913MOL0     H25976  10.645   8.854   2.962  3.0133  1.0591  2.5558
  913MOL0     H25977  10.421   8.825   2.897 -1.1903 -2.1911  2.4433
  913MOL0     H25978   9.534   8.624   4.022  5.6600 -1.6167  0.4334
  913MOL0     H25979   9.385   8.667   4.205  2.2094  1.4979 -4.9884
  913MOL0     H25980   9.230   8.347   4.552 -0.1933  2.1740 -1.9851
  913MOL0     H25981   9.094   8.295   4.753  1.1597 -0.6787 -0.6887
  913MOL0     H25982   8.893   8.299   4.867  0.5213 -0.1205  0.8076
  913MOL0     H25983   9.005   8.273   5.013 -0.0530  1.4538  3.5330
  913MOL0     H25984   8.857   8.398   5.139 -0.7598 -0.4903  0.6438
  913MOL0     H25985   8.761   8.263   5.070  1.8545  0.1304  3.4350
  913MOL0     H25986   8.760   8.551   4.974  0.3373 -1.4223 -2.0240
  913MOL0     H25987   8.668   8.404   4.911  0.8766 -2.9847  0.4374
  913MOL0     H25988   8.658   8.524   5.193 -2.6793  2.5695  0.6380
  913MOL0     H25989   8.562   8.386   5.143 -0.3122 -0.1040  0.8203
  913MOL0     H25990   8.332   8.710   4.991  1.0192  1.2849  1.0152
  913MOL0     H25991   9.069   8.708   4.846  0.5403  0.2127 -0.3174
  913MOL0     H25992   9.212   8.843   4.574  1.7946 -1.2551 -2.0131
  913MOL0     H25993   9.219   8.858   4.754 -2.1108 -0.9054 -0.0108
  913MOL0     H25994   9.360   8.797   4.654  0.0728 -1.2497  2.5525
  914MOL0     O25995   2.865   0.614   4.098 -0.0116  0.0641 -0.2641
  914MOL0     C25996   2.853   0.556   4.209  0.2788 -0.5721 -0.0921
  914MOL0     O25997   2.943   0.465   4.261  0.2202 -0.1522  0.6171
  914MOL0     C25998   3.051   0.437   4.187 -0.2220 -0.3772  0.2374
  914MOL0     C25999   3.051   0.332   4.092 -1.1696  0.6059 -0.3450
  914MOL0     C26000   3.170   0.280   4.036  0.3654 -0.5670 -1.1370
  914MOL0     C26001   3.288   0.344   4.069  0.3503 -0.6299  0.9532
  914MOL0     O26002   3.407   0.309   4.011  0.5419 -0.0179  0.8058
  914MOL0     C26003   3.397   0.267   3.871  0.1933  0.7310  0.1031
  914MOL0     C26004   3.522   0.336   3.807  0.6554  0.8225  0.8325
  914MOL0     C26005   3.525   0.297   3.657 -0.3294  1.1570  0.2898
  914MOL0     C26006   3.664   0.331   3.589  0.7228 -0.7740  0.2283
  914MOL0     C26007   3.637   0.344   3.435 -0.2438  0.6093 -0.4453
  914MOL0     C26008   3.778   0.380   3.368  0.0651  0.2486  0.2415
  914MOL0     C26009   3.786   0.318   3.224  0.3437 -0.2294  0.4032
  914MOL0     C26010   3.857   0.182   3.219 -0.5445 -0.8948  0.0006
  914MOL0     N26011   3.870   0.162   3.074  0.3239  0.6996  0.0698
  914MOL0     C26012   3.986   0.163   2.995  0.4992 -0.5168  0.3539
  914MOL0     C26013   3.944   0.121   2.873 -1.0980  0.2441  0.2315
  914MOL0     C26014   4.014   0.111   2.741 -0.5704  1.0847 -0.5806
  914MOL0     C26015   3.983   0.234   2.662 -0.2610  0.4792  1.0721
  914MOL0     C26016   3.999   0.366   2.736 -0.2738  0.0907  0.0454
  914MOL0     C26017   3.932   0.477   2.655 -0.3684  0.2851  0.3519
  914MOL0     O26018   4.010   0.518   2.542 -0.3089  0.5013 -0.2715
  914MOL0     C26019   4.149   0.544   2.551 -0.6578 -0.9711  0.7395
  914MOL0     C26020   4.196   0.617   2.663 -0.3334  0.7815  0.6808
  914MOL0     C26021   4.327   0.668   2.662  0.7947 -0.4373 -0.5122
  914MOL0     C26022   4.353   0.754   2.772 -0.1951 -0.1771  0.5453
  914MOL0     C26023   4.415   0.644   2.550 -0.5258 -0.6495 -0.1474
  914MOL0     C26024   4.557   0.699   2.553  0.6169 -0.5931  0.4050
  914MOL0     O26025   4.635   0.664   2.442  0.3352  0.4259 -0.4077
  914MOL0     C26026   4.763   0.700   2.420 -0.1356  0.0384  0.4381
  914MOL0     C26027   4.826   0.808   2.478  0.3450 -0.6141  0.7170
  914MOL0     C26028   4.966   0.824   2.445  0.0627  0.0383  0.1832
  914MOL0     C26029   5.030   0.750   2.352  0.0220  0.1174 -0.1013
  914MOL0     O26030   5.163   0.773   2.322  0.0291 -0.4600 -0.1410
  914MOL0     C26031   5.190   0.797   2.184  0.1958  0.2586  0.3393
  914MOL0     C26032   5.333   0.816   2.170 -0.3075  1.0424 -0.5735
  914MOL0     C26033   5.379   0.847   2.027  0.3140 -0.4235  0.1232
  914MOL0     C26034   5.532   0.872   2.025 -0.5752  0.8725  0.5120
  914MOL0     C26035   5.569   0.865   1.877  0.5014 -2.0402  0.1621
  914MOL0     C26036   5.706   0.916   1.842  0.0535  0.5572  0.1326
  914MOL0     C26037   5.710   0.924   1.692  0.5792  0.2848  0.7743
  914MOL0     C26038   5.847   0.961   1.651 -0.0791 -0.2739 -1.0476
  914MOL0    Cl26039   5.951   0.820   1.676  0.4953 -0.0184 -0.0120
  914MOL0     C26040   4.960   0.646   2.291 -0.4940  0.3574 -1.1875
  914MOL0     C26041   4.834   0.617   2.328 -0.5837  0.4339 -0.1761
  914MOL0     O26042   4.595   0.785   2.635  0.4243  0.0049 -0.4399
  914MOL0     C26043   4.371   0.564   2.445 -0.4272 -0.1575  0.3031
  914MOL0     C26044   4.242   0.514   2.444 -0.2041 -0.1952 -0.6927
  914MOL0     N26045   3.803   0.099   2.883 -0.6488 -0.9124 -0.0709
  914MOL0     N26046   3.761   0.125   2.999  1.0222  0.3137 -0.0151
  914MOL0     C26047   3.292   0.458   4.142 -0.3806  0.5179 -0.0953
  914MOL0     C26048   3.175   0.505   4.205  0.1513  1.3181  1.1407
  914MOL0     C26049   2.729   0.579   4.292  0.3789 -0.4194  0.1008
  914MOL0     C26050   2.711   0.479   4.392  0.1064 -0.5645 -0.3600
  914MOL0     C26051   2.599   0.497   4.469  0.4141 -0.7455 -0.5304
  914MOL0     C26052   2.504   0.596   4.446  0.2258  0.0515 -0.6458
  914MOL0     O26053   2.396   0.601   4.536 -0.5194  0.2330 -0.1692
  914MOL0     C26054   2.283   0.691   4.531  0.2961 -0.6082  0.0799
  914MOL0     C26055   2.182   0.634   4.433  0.2104 -0.1459  0.5089
  914MOL0     C26056   2.044   0.685   4.475  0.7701  0.0466  0.1773
  914MOL0     C26057   1.968   0.712   4.348 -0.1151 -0.1318  0.5556
  914MOL0     C26058   1.825   0.734   4.375  0.7037  0.0127 -0.6134
  914MOL0     C26059   1.714   0.760   4.407 -0.9251  0.1197 -0.0834
  914MOL0     C26060   2.525   0.693   4.351  0.0379  0.3093 -0.6604
  914MOL0     C26061   2.638   0.690   4.276 -0.5152  0.4756  0.3247
  914MOL0     C26062   2.666   0.795   4.176 -0.6450  0.1087  0.4327
  914MOL0     H26063   2.958   0.279   4.073  0.3332 -2.8822  0.9926
  914MOL0     H26064   3.165   0.195   3.969  1.5296 -1.8237  0.3055
  914MOL0     H26065   3.306   0.293   3.818 -0.8867 -1.6573  0.6399
  914MOL0     H26066   3.404   0.158   3.864 -0.9342  0.5691  1.2509
  914MOL0     H26067   3.523   0.445   3.814 -3.8753  1.3034 -1.6735
  914MOL0     H26068   3.614   0.301   3.854  1.4396  1.7582  0.0183
  914MOL0     H26069   3.512   0.188   3.649 -1.9403  1.2847  0.9091
  914MOL0     H26070   3.434   0.333   3.609 -1.7439 -0.3021  1.7131
  914MOL0     H26071   3.705   0.424   3.628  2.3950 -1.6199  0.5571
  914MOL0     H26072   3.729   0.245   3.603 -1.7796 -2.6531  1.0931
  914MOL0     H26073   3.558   0.414   3.409 -0.8562  0.3114  0.5527
  914MOL0     H26074   3.613   0.244   3.397  0.4528  0.1705  0.2250
  914MOL0     H26075   3.780   0.488   3.350 -1.8994  0.2212 -0.4391
  914MOL0     H26076   3.858   0.330   3.423  0.0324 -0.5608 -0.4319
  914MOL0     H26077   3.847   0.391   3.169 -0.1045 -0.2006 -0.0646
  914MOL0     H26078   3.688   0.316   3.176 -0.3731  1.2707  1.7121
  914MOL0     H26079   3.949   0.181   3.278 -0.0741  1.5021 -0.5715
  914MOL0     H26080   3.793   0.104   3.261  0.9141 -1.3342  1.5070
  914MOL0     H26081   4.087   0.183   3.029  0.3120 -0.3045  0.7854
  914MOL0     H26082   3.972   0.018   2.701 -2.8678  0.7216  2.3430
  914MOL0     H26083   4.118   0.094   2.770 -0.0674 -1.8350 -3.5981
  914MOL0     H26084   4.045   0.236   2.572  1.0887 -1.0507  1.9093
  914MOL0     H26085   3.879   0.221   2.629 -0.2478 -0.4336  1.3533
  914MOL0     H26086   3.939   0.365   2.828 -1.4271 -0.4322 -0.6975
  914MOL0     H26087   4.102   0.387   2.767 -0.0624 -0.0684 -0.5482
  914MOL0     H26088   3.830   0.455   2.624 -0.5484  2.5211 -0.8151
  914MOL0     H26089   3.922   0.566   2.718  1.2451  0.9619 -0.2852
  914MOL0     H26090   4.129   0.632   2.747  2.3839 -0.2545  3.2333
  914MOL0     H26091   4.355   0.861   2.751  1.5922 -0.0361  1.2353
  914MOL0     H26092   4.444   0.719   2.823 -0.6847 -1.9413  0.2835
  914MOL0     H26093   4.279   0.753   2.852  0.5491  3.3751  1.4296
  914MOL0     H26094   4.784   0.876   2.552 -0.5360 -1.5367  1.0796
  914MOL0     H26095   5.015   0.910   2.490  0.3383 -2.0007  4.2820
  914MOL0     H26096   5.165   0.716   2.115  3.9076  0.1642 -1.1120
  914MOL0     H26097   5.142   0.889   2.150  0.8940 -0.1765 -2.0283
  914MOL0     H26098   5.355   0.897   2.240 -1.5901  0.2204  0.8383
  914MOL0     H26099   5.387   0.730   2.211  0.0622  1.0250 -1.0882
  914MOL0     H26100   5.324   0.918   1.965  2.7759 -1.4105 -3.5049
  914MOL0     H26101   5.356   0.761   1.964 -2.0329  1.7446 -2.2089
  914MOL0     H26102   5.584   0.793   2.080  0.3403 -0.6616 -2.3423
  914MOL0     H26103   5.550   0.975   2.059 -0.6546  1.0013  0.1646
  914MOL0     H26104   5.550   0.767   1.832 -1.3200 -0.3865 -3.0211
  914MOL0     H26105   5.494   0.922   1.823  3.1576 -1.1101 -2.8088
  914MOL0     H26106   5.762   0.838   1.895 -0.4352 -0.6630 -1.0924
  914MOL0     H26107   5.731   1.018   1.872  1.1591  0.8853 -1.7355
  914MOL0     H26108   5.631   0.992   1.660  1.0143 -1.0036 -3.7503
  914MOL0     H26109   5.681   0.833   1.640 -0.4503  0.9573  0.1467
  914MOL0     H26110   5.884   1.054   1.695  0.5554  0.0691 -2.2605
  914MOL0     H26111   5.854   0.966   1.542 -0.4002 -4.0655 -1.3814
  914MOL0     H26112   5.007   0.582   2.217 -0.5280  0.6817 -1.4920
  914MOL0     H26113   4.782   0.534   2.280 -0.1506  0.7826 -1.2916
  914MOL0     H26114   4.439   0.532   2.367 -2.6582 -1.4374 -1.2396
  914MOL0     H26115   4.208   0.450   2.363 -1.9013 -0.4560  0.1849
  914MOL0     H26116   3.388   0.507   4.154 -1.8427  3.7099 -0.2291
  914MOL0     H26117   3.191   0.593   4.267  1.9478  3.7429 -2.4496
  914MOL0     H26118   2.783   0.402   4.417 -0.9285 -2.1524 -2.0548
  914MOL0     H26119   2.581   0.433   4.555 -2.9813  0.4678 -0.1826
  914MOL0     H26120   2.237   0.697   4.630 -0.7487 -3.1929 -0.1718
  914MOL0     H26121   2.306   0.793   4.499 -0.4228 -0.4942 -0.0741
  914MOL0     H26122   2.187   0.525   4.433  1.3198 -0.2830 -4.1798
  914MOL0     H26123   2.208   0.657   4.329 -1.8619  1.4176  0.2635
  914MOL0     H26124   1.995   0.615   4.543  0.6593  0.2877  0.3486
  914MOL0     H26125   2.050   0.777   4.534 -1.0260 -0.4738  1.2700
  914MOL0     H26126   1.970   0.627   4.279 -1.7030  0.6495 -0.5218
  914MOL0     H26127   2.025   0.798   4.311  1.2019 -1.1567  0.1299
  914MOL0     H26128   1.620   0.784   4.453 -1.0063 -1.2817  0.5354
  914MOL0     H26129   2.464   0.782   4.334  0.6458  0.8028 -0.3152
  914MOL0     H26130   2.588   0.871   4.186 -0.7706  0.4135 -2.1912
  914MOL0     H26131   2.765   0.840   4.179  1.1638 -3.5673  1.7593
  914MOL0     H26132   2.651   0.740   4.082 -0.4513  1.3809 -0.3648
  915MOL0     O26133   8.628  10.600   9.248  0.1179 -0.2217  0.2838
  915MOL0     C26134   8.569  10.704   9.224  0.0714 -0.6855 -0.4103
  915MOL0     O26135   8.626  10.826   9.227 -0.4186 -0.1783 -0.1351
  915MOL0     C26136   8.746  10.827   9.293  0.8205 -0.8113  0.3555
  915MOL0     C26137   8.863  10.846   9.214 -0.5582 -0.3213 -0.7531
  915MOL0     C26138   8.988  10.859   9.268 -0.7564  1.2728  0.0344
  915MOL0     C26139   9.003  10.848   9.410 -0.0250 -0.8461  0.0218
  915MOL0     O26140   9.131  10.864   9.464  0.2655  0.5271 -0.5115
  915MOL0     C26141   9.220  10.763   9.413 -0.7468  0.5813  1.1072
  915MOL0     C26142   9.367  10.785   9.464 -0.6108  0.8006  0.3327
  915MOL0     C26143   9.422  10.915   9.398  0.4428 -0.7372  0.2953
  915MOL0     C26144   9.563  10.954   9.446  0.1557  0.4888 -0.4128
  915MOL0     C26145   9.611  11.078   9.367 -0.2595  0.5496 -0.0348
  915MOL0     C26146   9.707  11.177   9.445 -0.0838  0.0637  0.1999
  915MOL0     C26147   9.731  11.313   9.377 -0.1497 -0.4885  0.3875
  915MOL0     C26148   9.605  11.387   9.346  0.3761 -0.3292  0.0585
  915MOL0     N26149   9.615  11.536   9.367 -0.9793 -0.7052 -0.3051
  915MOL0     C26150   9.643  11.621   9.271  0.3630  0.8074  0.1289
  915MOL0     C26151   9.629  11.744   9.325  0.3862 -0.4013  0.3368
  915MOL0     C26152   9.638  11.879   9.264  0.3228 -0.0919  0.6074
  915MOL0     C26153   9.771  11.927   9.225 -0.2895 -0.9063  1.1406
  915MOL0     C26154   9.817  11.859   9.093 -0.1274 -0.1869 -0.3056
  915MOL0     C26155   9.921  11.948   9.021  0.0089  0.0154  0.3587
  915MOL0     O26156  10.039  11.936   9.102  0.3706 -0.8825  0.4771
  915MOL0     C26157  10.146  11.997   9.051 -0.4478 -0.5467 -0.3189
  915MOL0     C26158  10.167  12.048   8.920  0.6827  0.3296 -0.3920
  915MOL0     C26159  10.281  12.118   8.883 -0.0328 -0.0401  0.2342
  915MOL0     C26160  10.284  12.166   8.738  0.1789  0.9146 -0.3927
  915MOL0     C26161  10.382  12.139   8.977 -0.5269  0.0678  0.7910
  915MOL0     C26162  10.507  12.212   8.950 -0.6151  0.3509  0.1290
  915MOL0     O26163  10.620  12.143   8.986  0.0705  0.0324 -0.3872
  915MOL0     C26164  10.742  12.177   8.932  0.8383 -0.0387 -0.1028
  915MOL0     C26165  10.850  12.145   9.012 -1.1551  0.9803 -0.6256
  915MOL0     C26166  10.983  12.172   8.983 -0.3976  0.0262  0.4286
  915MOL0     C26167  11.014  12.243   8.871  0.2917  0.6677 -0.4143
  915MOL0     O26168  11.142  12.292   8.843 -0.0617  0.1521 -0.1981
  915MOL0     C26169  11.254  12.215   8.880  0.0306  0.2502 -0.4634
  915MOL0     C26170  11.300  12.279   9.015  0.0744 -0.3045 -0.2165
  915MOL0     C26171  11.399  12.390   8.973  0.3004 -0.2062  0.1280
  915MOL0     C26172  11.447  12.455   9.102 -0.5184 -0.7399  1.0396
  915MOL0     C26173  11.505  12.589   9.057  0.7740  0.7796  0.2657
  915MOL0     C26174  11.590  12.664   9.160 -1.4586 -0.2146 -0.2880
  915MOL0     C26175  11.692  12.763   9.096 -0.2004  0.0266  0.8441
  915MOL0     C26176  11.770  12.847   9.198 -0.6624 -0.1471  0.2609
  915MOL0    Cl26177  11.651  12.925   9.304  0.3437  0.0874  0.0108
  915MOL0     C26178  10.908  12.287   8.786  0.1741  1.1020 -0.2377
  915MOL0     C26179  10.774  12.245   8.814 -0.0854 -1.1008  0.1123
  915MOL0     O26180  10.501  12.318   8.895  0.2882  0.3234  0.1080
  915MOL0     C26181  10.366  12.083   9.107  0.0725 -0.4232  0.1532
  915MOL0     C26182  10.251  12.013   9.138  0.5854 -0.3986 -0.1662
  915MOL0     N26183   9.587  11.725   9.459  0.0622 -0.3489  0.4151
  915MOL0     N26184   9.576  11.602   9.484  0.3887 -0.1110 -0.0196
  915MOL0     C26185   8.891  10.815   9.493 -1.4835  0.8432 -0.1966
  915MOL0     C26186   8.767  10.801   9.431  0.3521 -0.1102 -0.0199
  915MOL0     C26187   8.437  10.696   9.164  0.6587 -0.1179  0.1554
  915MOL0     C26188   8.406  10.577   9.097  0.2344  0.1911  0.0502
  915MOL0     C26189   8.286  10.564   9.033  0.0501 -0.7686  0.1246
  915MOL0     C26190   8.193  10.664   9.029  0.3669  0.4887 -0.5497
  915MOL0     O26191   8.074  10.649   8.954 -0.4171 -0.5856 -0.3489
  915MOL0     C26192   7.959  10.737   8.948  0.2346  0.2073  0.2799
  915MOL0     C26193   7.851  10.667   8.859 -0.4334  0.0996 -0.0393
  915MOL0     C26194   7.714  10.727   8.865 -0.3593  0.1797  0.7233
  915MOL0     C26195   7.610  10.670   8.762  0.0206  0.2249  0.1495
  915MOL0     C26196   7.478  10.735   8.780 -0.7713  0.0222 -0.7852
  915MOL0     C26197   7.379  10.808   8.794  0.4213 -0.3538  0.8126
  915MOL0     C26198   8.219  10.778   9.093  0.2808 -0.8988  0.1255
  915MOL0     C26199   8.340  10.803   9.163 -0.3845 -0.8703 -0.6460
  915MOL0     C26200   8.347  10.927   9.245 -0.3092 -0.0178 -0.8750
  915MOL0     H26201   8.854  10.857   9.107 -0.2198 -0.1732 -0.7668
  915MOL0     H26202   9.073  10.883   9.205  0.7639 -1.0851  1.0371
  915MOL0     H26203   9.235  10.777   9.306 -1.3288 -1.1189  0.7741
  915MOL0     H26204   9.189  10.662   9.441 -1.3423  0.1269 -0.9814
  915MOL0     H26205   9.350  10.788   9.573 -1.3756 -0.9367  0.3005
  915MOL0     H26206   9.444  10.711   9.442 -2.0169 -0.5771 -0.1708
  915MOL0     H26207   9.423  10.893   9.291  0.8300 -0.5731  0.2642
  915MOL0     H26208   9.345  10.988   9.423  0.0117 -1.7390  2.1410
  915MOL0     H26209   9.552  10.973   9.553  0.4296 -3.5537  0.5156
  915MOL0     H26210   9.626  10.865   9.433 -1.8475 -1.2763  1.1981
  915MOL0     H26211   9.518  11.123   9.333 -2.0267 -1.9751  1.1852
  915MOL0     H26212   9.663  11.042   9.277 -0.9432 -1.1857  0.2193
  915MOL0     H26213   9.656  11.203   9.538  3.1932  0.2426  2.0941
  915MOL0     H26214   9.799  11.127   9.473 -1.0805 -1.7865  0.3332
  915MOL0     H26215   9.793  11.310   9.287  0.1588 -0.4913  0.5981
  915MOL0     H26216   9.784  11.376   9.450 -0.1428  0.1741 -0.1793
  915MOL0     H26217   9.569  11.369   9.244 -1.8199  4.5520 -0.3662
  915MOL0     H26218   9.539  11.355   9.427  0.9273  0.5395  0.8692
  915MOL0     H26219   9.681  11.587   9.175  3.7582 -0.7724  1.8236
  915MOL0     H26220   9.591  11.956   9.326 -0.2094  0.6767 -0.7114
  915MOL0     H26221   9.569  11.881   9.179  0.4741  0.9968  0.4994
  915MOL0     H26222   9.763  12.035   9.209  2.3545 -0.9376 -1.1507
  915MOL0     H26223   9.840  11.911   9.308 -0.8820 -0.1604  1.7904
  915MOL0     H26224   9.857  11.760   9.114 -2.2662 -0.8051  1.1007
  915MOL0     H26225   9.735  11.850   9.021  0.3634 -2.8966 -0.6345
  915MOL0     H26226   9.941  11.904   8.923  3.8157  0.5462  0.7504
  915MOL0     H26227   9.892  12.053   9.008  2.5813  0.9713  1.6016
  915MOL0     H26228  10.093  12.029   8.843  3.8924  0.2602 -3.7034
  915MOL0     H26229  10.232  12.093   8.675  2.1008  0.1244 -1.1338
  915MOL0     H26230  10.379  12.184   8.688  0.4104  0.3196 -0.1795
  915MOL0     H26231  10.229  12.260   8.733 -1.7767 -0.1880 -0.8543
  915MOL0     H26232  10.820  12.091   9.101 -0.3917  1.4039 -0.0979
  915MOL0     H26233  11.064  12.145   9.051 -0.9701 -0.2569  1.0123
  915MOL0     H26234  11.222  12.112   8.896  1.0271 -0.2072 -1.2426
  915MOL0     H26235  11.330  12.214   8.801  1.4468  1.4573  0.8356
  915MOL0     H26236  11.222  12.320   9.079 -0.8213  0.9885 -2.0339
  915MOL0     H26237  11.343  12.200   9.078  0.6114 -1.4398 -1.9162
  915MOL0     H26238  11.345  12.471   8.922  1.3791  1.3641  1.3683
  915MOL0     H26239  11.484  12.348   8.919  0.1903 -0.5556  0.2251
  915MOL0     H26240  11.516  12.388   9.155 -1.8475 -2.7979  0.3042
  915MOL0     H26241  11.362  12.469   9.169 -1.8098 -1.2316 -0.4344
  915MOL0     H26242  11.570  12.566   8.972 -1.8474 -2.0146 -1.1983
  915MOL0     H26243  11.422  12.652   9.024  3.4655  3.7871 -1.2229
  915MOL0     H26244  11.644  12.592   9.222  1.8128  1.8602 -0.5460
  915MOL0     H26245  11.517  12.721   9.219 -0.0662  1.5979 -0.2213
  915MOL0     H26246  11.645  12.824   9.019  2.5180  0.3339 -0.7239
  915MOL0     H26247  11.774  12.718   9.039 -0.0709  2.0117 -0.6488
  915MOL0     H26248  11.830  12.920   9.143 -1.8098 -0.2857 -1.2463
  915MOL0     H26249  11.831  12.778   9.258  0.4572 -1.7783 -2.5247
  915MOL0     H26250  10.915  12.347   8.696 -3.4789  1.2507 -0.5672
  915MOL0     H26251  10.693  12.264   8.745 -0.0983  1.1199  0.6697
  915MOL0     H26252  10.429  12.103   9.192 -1.1226  0.8079  0.8005
  915MOL0     H26253  10.236  11.967   9.235 -1.3184  1.6275  0.5944
  915MOL0     H26254   8.923  10.792   9.595 -0.0359  0.0259 -0.7993
  915MOL0     H26255   8.674  10.773   9.479  0.8430 -0.1397  0.9304
  915MOL0     H26256   8.478  10.496   9.102 -0.3463 -0.7979 -4.1226
  915MOL0     H26257   8.267  10.476   8.972 -1.1646  1.2597 -2.6209
  915MOL0     H26258   7.914  10.773   9.042 -1.0923 -0.1752 -0.1840
  915MOL0     H26259   7.983  10.827   8.891 -0.3981  1.0920  1.3606
  915MOL0     H26260   7.847  10.563   8.894 -0.4007  0.8191  2.3239
  915MOL0     H26261   7.888  10.661   8.757 -1.8941 -0.2276 -0.5754
  915MOL0     H26262   7.673  10.710   8.965 -2.3398 -0.9692 -0.2213
  915MOL0     H26263   7.730  10.832   8.839 -1.1498 -0.5204 -3.1214
  915MOL0     H26264   7.606  10.563   8.783  1.8213 -1.1884 -5.0846
  915MOL0     H26265   7.650  10.695   8.663  0.7044 -2.9965 -0.4980
  915MOL0     H26266   7.303  10.880   8.817 -1.5708 -1.8488 -0.7104
  915MOL0     H26267   8.157  10.867   9.087 -1.3878 -2.1167 -2.6562
  915MOL0     H26268   8.446  10.972   9.235 -0.0340 -0.5493 -0.6326
  915MOL0     H26269   8.273  11.005   9.226 -0.1216  0.0689 -1.2680
  915MOL0     H26270   8.346  10.889   9.348 -1.9714  0.1802 -0.8033
  916MOL0     O26271   7.730   7.280   4.721 -0.5303 -0.6090 -0.1452
  916MOL0     C26272   7.753   7.367   4.636 -0.3919  0.2640  0.9966
  916MOL0     O26273   7.861   7.374   4.563 -0.6583 -0.4233  0.6146
  916MOL0     C26274   7.952   7.276   4.576  0.0947 -0.2738  0.1033
  916MOL0     C26275   8.025   7.224   4.470  0.5052 -0.3437  0.0365
  916MOL0     C26276   8.138   7.145   4.491 -0.4533  0.2005  0.2190
  916MOL0     C26277   8.176   7.104   4.613 -0.4693 -0.1709 -0.7130
  916MOL0     O26278   8.283   7.015   4.636  0.5285 -0.4178 -0.2389
  916MOL0     C26279   8.373   6.977   4.537  0.2076 -0.6614  0.8223
  916MOL0     C26280   8.460   6.866   4.593 -0.0704 -0.5778 -0.2809
  916MOL0     C26281   8.365   6.752   4.638  0.6911 -0.4297  0.3435
  916MOL0     C26282   8.428   6.616   4.610 -0.8362  0.0530 -0.0345
  916MOL0     C26283   8.335   6.498   4.646  0.5491 -0.3160 -0.1302
  916MOL0     C26284   8.233   6.489   4.535 -0.2253  0.2605  0.3053
  916MOL0     C26285   8.134   6.369   4.559  0.0192  0.5030 -0.0612
  916MOL0     C26286   8.009   6.388   4.470  0.3929 -0.0102  0.1218
  916MOL0     N26287   7.924   6.274   4.483  0.2964  0.8272 -0.2543
  916MOL0     C26288   7.852   6.244   4.604 -0.5205 -0.3958  0.2548
  916MOL0     C26289   7.754   6.155   4.557  0.3104  0.6020 -0.6838
  916MOL0     C26290   7.646   6.092   4.650 -0.3694  0.6661  0.1623
  916MOL0     C26291   7.599   6.180   4.768  0.4128  0.5576 -0.1339
  916MOL0     C26292   7.459   6.233   4.758 -0.1498  0.2872  0.8798
  916MOL0     C26293   7.421   6.330   4.864 -0.1672  0.1069 -0.2407
  916MOL0     O26294   7.385   6.266   4.993 -0.1316  0.2528  0.2807
  916MOL0     C26295   7.259   6.231   5.028  0.8102 -0.4628  0.4283
  916MOL0     C26296   7.231   6.193   5.156  0.1454 -0.6602  0.0399
  916MOL0     C26297   7.103   6.166   5.204 -0.4535  0.3969  0.1181
  916MOL0     C26298   7.103   6.140   5.357 -0.1763 -0.7327  1.3020
  916MOL0     C26299   6.986   6.183   5.115  0.1903 -0.3743  0.3838
  916MOL0     C26300   6.842   6.174   5.148  0.8289  0.3159 -1.1496
  916MOL0     O26301   6.753   6.166   5.044 -0.3548 -0.8371  0.3463
  916MOL0     C26302   6.618   6.141   5.081 -0.1543 -0.2042  0.0272
  916MOL0     C26303   6.521   6.201   5.000 -0.0366  0.2543  0.5098
  916MOL0     C26304   6.382   6.184   5.021  0.0350  0.1426 -0.2004
  916MOL0     C26305   6.337   6.084   5.107 -0.5612 -0.2180 -0.1746
  916MOL0     O26306   6.205   6.041   5.130 -0.5737  0.0017  1.0624
  916MOL0     C26307   6.105   6.142   5.128  0.8130 -0.8500  0.0262
  916MOL0     C26308   5.979   6.083   5.193  0.1243  0.1006  0.0597
  916MOL0     C26309   5.870   6.190   5.219 -0.6221 -0.4766  0.7156
  916MOL0     C26310   5.741   6.128   5.282 -0.3537  0.0148  0.2611
  916MOL0     C26311   5.661   6.253   5.319 -0.1206 -0.3535  0.6132
  916MOL0     C26312   5.536   6.217   5.391 -0.2306 -0.4597  0.1882
  916MOL0     C26313   5.447   6.341   5.385  0.9115  0.0689 -0.2140
  916MOL0     C26314   5.336   6.331   5.489  0.5663  0.5252 -0.3132
  916MOL0    Cl26315   5.274   6.503   5.488  0.0977 -0.1530  0.0027
  916MOL0     C26316   6.433   6.014   5.187 -0.4732  0.3998  0.6527
  916MOL0     C26317   6.572   6.046   5.176 -0.0846 -0.2512  0.3420
  916MOL0     O26318   6.813   6.159   5.269 -0.5869  0.1274 -0.0069
  916MOL0     C26319   7.021   6.208   4.981 -0.4192  1.0805  0.6874
  916MOL0     C26320   7.159   6.224   4.938  0.1577  1.3481 -0.4414
  916MOL0     N26321   7.790   6.110   4.431  0.3221 -0.1669  0.5536
  916MOL0     N26322   7.879   6.192   4.384 -1.0623  0.2736  0.2809
  916MOL0     C26323   8.109   7.155   4.720  0.7108 -0.4672  0.5488
  916MOL0     C26324   8.004   7.234   4.696  0.1508  0.2624 -0.4012
  916MOL0     C26325   7.649   7.467   4.617  0.0302 -0.0110  0.4153
  916MOL0     C26326   7.687   7.599   4.619 -0.6816  0.7102  0.0323
  916MOL0     C26327   7.589   7.697   4.600  0.3246 -0.2782 -0.0704
  916MOL0     C26328   7.450   7.663   4.586  0.2990  0.4524  0.2071
  916MOL0     O26329   7.346   7.752   4.555 -0.6277 -0.5011 -0.1062
  916MOL0     C26330   7.359   7.830   4.439 -0.7520  0.5396 -0.0112
  916MOL0     C26331   7.414   7.758   4.321  0.0255  0.0097  0.8611
  916MOL0     C26332   7.411   7.855   4.200 -0.5941  0.5355  0.9670
  916MOL0     C26333   7.476   7.781   4.074 -0.1080 -0.5891 -0.1086
  916MOL0     C26334   7.482   7.874   3.961 -0.8009 -0.0307  0.1198
  916MOL0     C26335   7.473   7.951   3.871 -0.0727  0.0517  0.1193
  916MOL0     C26336   7.413   7.523   4.589 -0.3238 -0.1170 -0.1162
  916MOL0     C26337   7.512   7.425   4.610  0.3553  0.0603  0.5595
  916MOL0     C26338   7.464   7.278   4.619  0.1651  0.1516 -0.1090
  916MOL0     H26339   7.996   7.259   4.372 -2.0604  0.4701  0.9853
  916MOL0     H26340   8.196   7.115   4.404 -1.1221 -2.4851  0.5978
  916MOL0     H26341   8.439   7.061   4.514  1.5254 -2.4048 -2.4016
  916MOL0     H26342   8.329   6.945   4.442  3.7856 -1.8330 -0.6000
  916MOL0     H26343   8.524   6.844   4.507  1.0290 -0.2344  0.4289
  916MOL0     H26344   8.523   6.900   4.676  2.1999 -2.5754 -1.0756
  916MOL0     H26345   8.347   6.770   4.745 -0.3268  2.8400 -0.2680
  916MOL0     H26346   8.275   6.769   4.578  1.3741 -1.1958 -0.9217
  916MOL0     H26347   8.471   6.600   4.511  3.3951  0.9004  1.4805
  916MOL0     H26348   8.523   6.616   4.664  1.3810 -0.3811 -3.5640
  916MOL0     H26349   8.285   6.523   4.740  0.7607 -0.8596  0.1357
  916MOL0     H26350   8.389   6.404   4.661  0.9424 -0.3164 -1.4031
  916MOL0     H26351   8.161   6.572   4.524  0.0176  0.0997 -4.8052
  916MOL0     H26352   8.280   6.477   4.437  1.3469  0.0985  1.0529
  916MOL0     H26353   8.090   6.375   4.658 -5.0021  0.4400 -1.9935
  916MOL0     H26354   8.182   6.273   4.537 -5.8984 -3.4117  1.7659
  916MOL0     H26355   7.959   6.474   4.517  1.8905  0.4952  0.8418
  916MOL0     H26356   8.031   6.407   4.365 -0.6999  3.3212  0.3463
  916MOL0     H26357   7.853   6.298   4.698  0.7950  2.4364 -1.2418
  916MOL0     H26358   7.691   6.005   4.700 -5.1020 -2.5561 -0.4681
  916MOL0     H26359   7.557   6.050   4.603 -2.1893  2.6416  1.6379
  916MOL0     H26360   7.603   6.113   4.855 -0.1216 -0.1702 -0.6567
  916MOL0     H26361   7.664   6.267   4.778 -1.7753  2.6207 -2.5240
  916MOL0     H26362   7.435   6.280   4.661 -0.0766  0.9812  1.1942
  916MOL0     H26363   7.385   6.152   4.762 -1.3466  1.2989  0.2650
  916MOL0     H26364   7.508   6.395   4.878  1.4303 -2.3834  2.3086
  916MOL0     H26365   7.345   6.395   4.820  2.2646  2.7360 -0.8948
  916MOL0     H26366   7.322   6.203   5.214  0.3460  1.1152 -0.5336
  916MOL0     H26367   7.053   6.223   5.409 -0.4349 -1.3739  2.1041
  916MOL0     H26368   7.206   6.134   5.394  0.7440  0.7615 -0.8646
  916MOL0     H26369   7.053   6.049   5.391 -1.8704  0.4228  2.0624
  916MOL0     H26370   6.551   6.281   4.932  1.0835 -0.9889 -0.5290
  916MOL0     H26371   6.317   6.240   4.956  0.0849  1.5567  0.9079
  916MOL0     H26372   6.122   6.235   5.182 -1.4813  0.8619 -1.9566
  916MOL0     H26373   6.076   6.171   5.027 -0.3432  0.8099  0.7969
  916MOL0     H26374   5.937   5.995   5.143 -3.7944 -0.0880  3.2381
  916MOL0     H26375   6.016   6.045   5.289 -0.0013  0.7138  0.3507
  916MOL0     H26376   5.841   6.237   5.124 -0.9114  1.4461  1.7176
  916MOL0     H26377   5.912   6.262   5.289 -0.1813  2.0358 -1.9476
  916MOL0     H26378   5.767   6.078   5.376 -1.0324  1.2058  1.1131
  916MOL0     H26379   5.691   6.058   5.214  1.4331 -0.6451 -0.4151
  916MOL0     H26380   5.711   6.338   5.367  1.5787 -0.4344 -0.9193
  916MOL0     H26381   5.626   6.293   5.223 -1.3963 -1.2045  0.6960
  916MOL0     H26382   5.569   6.196   5.493 -1.3950  2.1641  1.2253
  916MOL0     H26383   5.495   6.133   5.335 -2.1557  0.3339  0.3207
  916MOL0     H26384   5.406   6.358   5.285 -0.1973 -0.5953  0.1184
  916MOL0     H26385   5.504   6.428   5.420 -1.6601  2.0961 -0.7549
  916MOL0     H26386   5.364   6.292   5.587 -4.2704 -1.1572  0.6746
  916MOL0     H26387   5.261   6.261   5.450  0.3771 -1.6942  3.5959
  916MOL0     H26388   6.401   5.937   5.257 -0.3733  0.7424  1.0800
  916MOL0     H26389   6.637   5.981   5.234 -0.1929 -1.4314 -0.8005
  916MOL0     H26390   6.940   6.205   4.909  1.2312 -0.5982 -1.2300
  916MOL0     H26391   7.176   6.236   4.832 -2.2221 -0.6841 -1.1385
  916MOL0     H26392   8.140   7.135   4.822 -1.2979  2.1131  1.7926
  916MOL0     H26393   7.967   7.286   4.785 -0.9230  0.6270 -1.0421
  916MOL0     H26394   7.789   7.621   4.649 -0.4742 -0.6446  0.3711
  916MOL0     H26395   7.611   7.804   4.607  1.6934 -0.5610  0.3725
  916MOL0     H26396   7.263   7.871   4.408 -1.5443  0.9775  2.7266
  916MOL0     H26397   7.430   7.910   4.461  1.3023 -1.5814  1.6744
  916MOL0     H26398   7.349   7.673   4.300 -1.3351  1.5535 -1.7289
  916MOL0     H26399   7.517   7.725   4.340  0.5641  0.3420 -1.2039
  916MOL0     H26400   7.307   7.875   4.173 -0.3410  2.5727  1.3506
  916MOL0     H26401   7.451   7.953   4.224  0.3203  0.3064  0.4143
  916MOL0     H26402   7.406   7.702   4.044 -1.8097  1.7167 -2.6006
  916MOL0     H26403   7.572   7.738   4.106  0.8205  1.2248 -0.3499
  916MOL0     H26404   7.460   8.031   3.801  1.5924  0.2290 -0.0100
  916MOL0     H26405   7.311   7.487   4.581 -0.1350 -0.6678 -0.0649
  916MOL0     H26406   7.549   7.215   4.592 -1.1873 -2.3442  1.1432
  916MOL0     H26407   7.440   7.256   4.724  1.5540  2.0246  0.6588
  916MOL0     H26408   7.374   7.268   4.558  1.9724 -1.1716 -2.7563
  917MOL0     O26409   7.244   9.995   5.698 -0.5253  0.2076  0.1132
  917MOL0     C26410   7.265   9.894   5.766  0.1850  0.2078  0.0575
  917MOL0     O26411   7.379   9.822   5.774 -0.1599  0.1519 -0.1870
  917MOL0     C26412   7.486   9.875   5.710 -0.2803 -0.2582  0.1227
  917MOL0     C26413   7.574   9.791   5.643 -0.2874 -0.2755 -0.1253
  917MOL0     C26414   7.693   9.836   5.582 -0.3213  0.6989 -0.7597
  917MOL0     C26415   7.731   9.969   5.603 -0.0313  0.6740  0.3696
  917MOL0     O26416   7.855  10.004   5.543 -0.4588  0.0185 -0.0281
  917MOL0     C26417   7.912  10.131   5.588 -0.5825  0.5377 -0.0311
  917MOL0     C26418   8.059  10.154   5.568 -0.1936  0.3656  0.6872
  917MOL0     C26419   8.105  10.196   5.430  0.3382  0.4912  0.0098
  917MOL0     C26420   8.070  10.104   5.318  0.1161  0.2279  1.6192
  917MOL0     C26421   8.150  10.137   5.182 -1.5881  0.1060 -0.2158
  917MOL0     C26422   8.299  10.115   5.210 -0.1152  0.4124 -0.0663
  917MOL0     C26423   8.381  10.111   5.084  0.2458 -0.2352 -0.4564
  917MOL0     C26424   8.531  10.099   5.116  0.4139  0.7465  1.1306
  917MOL0     N26425   8.618  10.080   4.993  0.4721 -0.3699 -0.2666
  917MOL0     C26426   8.590   9.996   4.876  0.0399 -0.1739  0.2099
  917MOL0     C26427   8.697  10.019   4.793  1.0158  0.3367  0.3172
  917MOL0     C26428   8.712   9.949   4.661  1.0845  0.3903  0.8581
  917MOL0     C26429   8.653  10.045   4.559  0.0817  0.0273  0.4181
  917MOL0     C26430   8.658   9.993   4.411  0.1358 -0.1206 -0.0595
  917MOL0     C26431   8.556   9.888   4.372 -0.5216 -0.0023 -0.0965
  917MOL0     O26432   8.426   9.951   4.383  0.5388 -0.1395  0.4106
  917MOL0     C26433   8.310   9.889   4.342 -0.4643  0.2083 -0.5663
  917MOL0     C26434   8.306   9.758   4.302 -0.1369 -0.5549 -0.0197
  917MOL0     C26435   8.187   9.694   4.269 -0.1971  0.9371 -0.6473
  917MOL0     C26436   8.196   9.542   4.251 -0.4287 -0.2966  0.3245
  917MOL0     C26437   8.063   9.767   4.269 -0.3084 -0.2489 -0.1721
  917MOL0     C26438   7.923   9.718   4.240  0.3931  0.0610 -0.6641
  917MOL0     O26439   7.817   9.811   4.246 -0.6110  0.3644  0.1594
  917MOL0     C26440   7.685   9.768   4.239 -0.1279  0.6654 -0.0235
  917MOL0     C26441   7.644   9.655   4.314 -0.1078 -0.2620 -0.6403
  917MOL0     C26442   7.511   9.619   4.303  0.1104 -0.5246 -0.5090
  917MOL0     C26443   7.420   9.693   4.232 -0.5832  0.1698 -0.0675
  917MOL0     O26444   7.288   9.652   4.241  0.0248  0.2017  0.1003
  917MOL0     C26445   7.175   9.742   4.227 -0.4832 -0.4626 -0.5192
  917MOL0     C26446   7.040   9.682   4.277 -1.1443  0.2478 -0.6826
  917MOL0     C26447   7.022   9.534   4.247  0.1410  0.4534 -0.2864
  917MOL0     C26448   6.894   9.490   4.311 -0.3960 -0.4825  0.6437
  917MOL0     C26449   6.876   9.341   4.286  0.5013  0.6993  0.4700
  917MOL0     C26450   6.848   9.301   4.136  0.6317  0.2144 -0.4233
  917MOL0     C26451   6.805   9.157   4.119  0.7994  0.4279 -0.0035
  917MOL0     C26452   6.687   9.119   4.207 -0.3120  0.0586 -1.3747
  917MOL0    Cl26453   6.621   8.967   4.137  0.2814  0.4694  0.1675
  917MOL0     C26454   7.463   9.795   4.155  0.0439  0.0748  0.8732
  917MOL0     C26455   7.594   9.837   4.150  0.5466  0.4574 -0.2187
  917MOL0     O26456   7.913   9.601   4.219 -0.0959 -0.2146  0.7056
  917MOL0     C26457   8.073   9.897   4.310  0.1567  0.0641  0.4136
  917MOL0     C26458   8.193   9.959   4.343 -0.6305  0.5273  0.4443
  917MOL0     N26459   8.780  10.107   4.855 -0.7323 -0.0708 -0.5271
  917MOL0     N26460   8.736  10.141   4.973  0.1056  0.1021 -0.6021
  917MOL0     C26461   7.649  10.054   5.677 -0.5142 -0.2145  0.6447
  917MOL0     C26462   7.527  10.009   5.734 -0.3976  0.5673 -0.3736
  917MOL0     C26463   7.160   9.834   5.854  0.1555 -0.6463 -0.0014
  917MOL0     C26464   7.207   9.750   5.958  0.5634 -0.3186 -0.2552
  917MOL0     C26465   7.118   9.707   6.051  0.0492  0.9234 -0.3733
  917MOL0     C26466   6.991   9.747   6.060  0.4720  0.1749 -0.3183
  917MOL0     O26467   6.899   9.706   6.157 -0.1526 -0.9835 -0.5169
  917MOL0     C26468   6.924   9.611   6.261  0.1419 -0.4274  0.2481
  917MOL0     C26469   6.897   9.468   6.216  0.2134  0.1541  0.1335
  917MOL0     C26470   6.753   9.464   6.165  0.5916 -0.8135  0.0209
  917MOL0     C26471   6.699   9.330   6.133  0.3503  0.1798 -0.8113
  917MOL0     C26472   6.757   9.261   6.019  0.1457  0.9227 -0.2991
  917MOL0     C26473   6.810   9.206   5.923  0.4340 -0.7034 -0.0657
  917MOL0     C26474   6.939   9.828   5.958 -0.3459 -0.1321  0.2727
  917MOL0     C26475   7.028   9.869   5.854 -0.6685 -0.3868 -0.2372
  917MOL0     C26476   6.963   9.948   5.739  0.0205  0.7210 -0.7348
  917MOL0     H26477   7.542   9.689   5.627  0.9405 -0.8446  0.8869
  917MOL0     H26478   7.760   9.782   5.515  0.6541  2.3412 -1.1766
  917MOL0     H26479   7.886  10.120   5.694 -2.8048 -1.1081 -0.6696
  917MOL0     H26480   7.858  10.208   5.532  0.9057  0.5368 -1.5204
  917MOL0     H26481   8.079  10.241   5.631  1.6571  1.1808 -0.9222
  917MOL0     H26482   8.112  10.064   5.600  1.4505  0.8254 -0.6220
  917MOL0     H26483   8.062  10.293   5.407  2.0419  1.8954  2.2816
  917MOL0     H26484   8.213  10.206   5.440  0.9923 -3.5341 -1.0287
  917MOL0     H26485   8.096  10.001   5.345  2.3420 -0.1552 -1.4551
  917MOL0     H26486   7.964  10.104   5.292  0.7514 -0.7032 -1.3530
  917MOL0     H26487   8.122  10.240   5.157 -1.2788  0.6393  1.4739
  917MOL0     H26488   8.122  10.071   5.100 -3.3040  2.0306 -1.2769
  917MOL0     H26489   8.339  10.187   5.282 -1.6965 -1.7005  3.1872
  917MOL0     H26490   8.315  10.017   5.257 -0.1652  0.7731  0.7147
  917MOL0     H26491   8.367  10.208   5.035 -1.4145  1.1283  2.4643
  917MOL0     H26492   8.355  10.031   5.015 -0.0829 -0.9957  0.5366
  917MOL0     H26493   8.553  10.196   5.160  0.3430  0.7938  1.0625
  917MOL0     H26494   8.554  10.030   5.198  0.2622 -1.7642 -0.8232
  917MOL0     H26495   8.497   9.951   4.844 -2.1095  3.4067  0.7974
  917MOL0     H26496   8.656   9.855   4.655 -3.3889  2.8916 -2.8549
  917MOL0     H26497   8.816   9.926   4.638  0.7285  1.8123 -2.7170
  917MOL0     H26498   8.546  10.053   4.583  0.0133 -1.9065  0.9256
  917MOL0     H26499   8.691  10.146   4.577 -0.9912 -0.0519  3.9032
  917MOL0     H26500   8.644  10.078   4.344  0.4325  0.0155  0.0479
  917MOL0     H26501   8.756   9.950   4.390 -0.3317 -1.2238 -0.0517
  917MOL0     H26502   8.575   9.856   4.269  2.7036  0.9314  0.0933
  917MOL0     H26503   8.564   9.803   4.441  3.1909  1.3952  1.4450
  917MOL0     H26504   8.397   9.700   4.292  0.4213  0.5567 -2.2220
  917MOL0     H26505   8.293   9.494   4.263 -0.6568 -0.8208  0.0729
  917MOL0     H26506   8.149   9.513   4.157  0.2614  0.6039 -0.3219
  917MOL0     H26507   8.142   9.495   4.333  1.1285  0.3371  1.7765
  917MOL0     H26508   7.715   9.616   4.386 -1.2187  0.3404  0.8054
  917MOL0     H26509   7.477   9.542   4.372 -1.6057  0.9458  0.3933
  917MOL0     H26510   7.203   9.829   4.287  0.9716  0.3125 -2.2444
  917MOL0     H26511   7.156   9.782   4.127 -2.8925 -0.1726 -0.0126
  917MOL0     H26512   7.037   9.702   4.385  2.1132  1.9830 -0.7723
  917MOL0     H26513   6.964   9.746   4.233 -0.3848  2.2005  0.7054
  917MOL0     H26514   7.104   9.472   4.284 -1.0144 -2.0038 -1.6028
  917MOL0     H26515   7.022   9.509   4.140  3.1514 -3.3027  0.3711
  917MOL0     H26516   6.810   9.548   4.270  0.4871  0.4657  0.1226
  917MOL0     H26517   6.888   9.522   4.415  2.0881  1.7101  0.2201
  917MOL0     H26518   6.963   9.284   4.320 -0.1367 -0.9347 -0.5839
  917MOL0     H26519   6.796   9.297   4.346  0.7804 -0.0987  0.2552
  917MOL0     H26520   6.940   9.308   4.077  0.1311 -1.0495 -1.3962
  917MOL0     H26521   6.775   9.367   4.088 -0.0090  0.9143  1.3988
  917MOL0     H26522   6.887   9.089   4.142  0.4178  0.0763  0.3444
  917MOL0     H26523   6.789   9.133   4.013  0.0194  1.7675 -0.2126
  917MOL0     H26524   6.620   9.205   4.207  1.0885  1.5646  3.8692
  917MOL0     H26525   6.723   9.099   4.309  0.9056 -0.0470 -1.8080
  917MOL0     H26526   7.382   9.849   4.106 -0.3043 -1.0703  0.1568
  917MOL0     H26527   7.610   9.924   4.088  0.4265 -1.0435 -2.4937
  917MOL0     H26528   7.976   9.945   4.317 -0.0894  0.0159 -1.9245
  917MOL0     H26529   8.199  10.064   4.369 -0.7832  0.1986  1.8450
  917MOL0     H26530   7.674  10.159   5.671 -0.5073 -0.2986 -1.8787
  917MOL0     H26531   7.463  10.081   5.784  0.8468  1.5438 -0.1554
  917MOL0     H26532   7.312   9.737   5.983  0.2017  1.0039  2.2270
  917MOL0     H26533   7.146   9.634   6.127  0.7144 -0.6108 -2.0031
  917MOL0     H26534   7.028   9.612   6.296 -0.3331  0.6833  1.7241
  917MOL0     H26535   6.867   9.647   6.347  0.4431  1.9701 -0.4706
  917MOL0     H26536   6.901   9.406   6.306  0.9721  1.1466  0.8073
  917MOL0     H26537   6.968   9.440   6.138  0.0717  2.6051 -0.9728
  917MOL0     H26538   6.693   9.496   6.251 -0.0172 -1.3403 -0.1965
  917MOL0     H26539   6.736   9.523   6.075  3.1269  0.3537  0.2266
  917MOL0     H26540   6.591   9.314   6.132  0.2952  0.3265  0.5573
  917MOL0     H26541   6.727   9.282   6.227 -1.0666  1.4641  0.3363
  917MOL0     H26542   6.861   9.157   5.842  2.9873 -0.7796  1.5012
  917MOL0     H26543   6.838   9.862   5.976 -0.1343 -0.0509  1.4036
  917MOL0     H26544   6.853   9.948   5.744 -0.2023 -0.9085 -3.3918
  917MOL0     H26545   7.002  10.050   5.732  3.3016 -0.4655 -1.5239
  917MOL0     H26546   7.001   9.910   5.644  2.4140  1.8548 -0.3003
  918MOL0     O26547   4.444   9.916   0.155 -0.1192  0.2038  0.7017
  918MOL0     C26548   4.549   9.915   0.215  0.1349  0.9155 -0.5294
  918MOL0     O26549   4.661   9.853   0.159 -0.5680 -0.9590 -0.2267
  918MOL0     C26550   4.771   9.809   0.232 -0.0195 -0.2541 -0.0976
  918MOL0     C26551   4.787   9.673   0.217 -0.2695 -1.5775 -0.2737
  918MOL0     C26552   4.898   9.608   0.269  0.5154  0.3499 -0.5311
  918MOL0     C26553   5.005   9.675   0.324 -0.1308 -0.4214 -0.1966
  918MOL0     O26554   5.128   9.621   0.357 -0.9576  0.2779 -0.5729
  918MOL0     C26555   5.171   9.484   0.335 -0.9643 -0.1777 -0.9091
  918MOL0     C26556   5.317   9.469   0.389  0.6209 -0.0346  0.1298
  918MOL0     C26557   5.361   9.319   0.386  0.0227 -0.1593  0.0176
  918MOL0     C26558   5.478   9.294   0.482 -1.7388 -0.0867 -0.6044
  918MOL0     C26559   5.515   9.139   0.494  0.7256 -0.0231  0.4101
  918MOL0     C26560   5.630   9.095   0.573 -0.1206  0.0722 -1.0129
  918MOL0     C26561   5.657   8.942   0.566 -0.3889 -0.0850  0.0093
  918MOL0     C26562   5.804   8.917   0.622  0.6547  0.1718 -0.6900
  918MOL0     N26563   5.837   8.784   0.610  0.1359 -0.0390  0.3961
  918MOL0     C26564   5.886   8.733   0.491 -0.4598  0.0110  0.3482
  918MOL0     C26565   5.882   8.596   0.494  0.6819  1.0897 -0.2734
  918MOL0     C26566   5.916   8.495   0.383  0.8584 -0.0596 -1.4772
  918MOL0     C26567   6.055   8.509   0.353 -0.3636 -0.1278  0.1863
  918MOL0     C26568   6.119   8.388   0.271 -0.6506 -0.3197 -0.1861
  918MOL0     C26569   6.270   8.394   0.283  0.6582  0.1455  0.0033
  918MOL0     O26570   6.327   8.335   0.400  0.2174 -0.7816  0.0268
  918MOL0     C26571   6.457   8.324   0.407  0.0686 -0.2287  0.2608
  918MOL0     C26572   6.531   8.267   0.302 -0.5028 -0.6781 -0.7193
  918MOL0     C26573   6.671   8.269   0.316  0.1698 -0.0152 -0.2624
  918MOL0     C26574   6.733   8.205   0.199  0.0187 -0.2433 -0.1522
  918MOL0     C26575   6.739   8.313   0.436  1.1349 -0.1186 -0.9059
  918MOL0     C26576   6.887   8.304   0.462 -0.8487 -0.2372 -0.0990
  918MOL0     O26577   6.954   8.190   0.428  0.0323  0.2127  0.5148
  918MOL0     C26578   7.076   8.167   0.483 -0.0541 -0.9173 -0.2321
  918MOL0     C26579   7.092   8.161   0.621  0.2116  0.3762 -0.2878
  918MOL0     C26580   7.206   8.103   0.673  0.9205 -0.3989 -0.3366
  918MOL0     C26581   7.303   8.056   0.592 -0.6880  0.2073 -0.0216
  918MOL0     O26582   7.417   7.993   0.631 -0.5381 -0.4255 -0.5874
  918MOL0     C26583   7.413   7.925   0.760  0.2797  0.3032  0.7653
  918MOL0     C26584   7.563   7.893   0.795  0.6461 -0.7117  0.4951
  918MOL0     C26585   7.574   7.839   0.935  0.3062 -1.1480  0.0592
  918MOL0     C26586   7.606   7.949   1.043 -0.1055 -0.2919  0.2769
  918MOL0     C26587   7.755   7.990   1.035  0.6556  0.1579  0.6600
  918MOL0     C26588   7.802   8.045   1.163 -0.4472  0.5738 -0.3999
  918MOL0     C26589   7.727   8.168   1.222 -0.3611 -0.1483 -0.4206
  918MOL0     C26590   7.715   8.281   1.124  0.7095 -0.1249 -0.1140
  918MOL0    Cl26591   7.579   8.394   1.171 -0.3263 -0.2035  0.1858
  918MOL0     C26592   7.297   8.078   0.452  0.1491 -0.1723  0.1606
  918MOL0     C26593   7.175   8.122   0.399  0.1583  0.0615 -0.8337
  918MOL0     O26594   6.942   8.393   0.526 -0.5316 -0.3094 -0.5004
  918MOL0     C26595   6.652   8.355   0.543  0.3022  0.4539 -0.1277
  918MOL0     C26596   6.515   8.361   0.529 -0.1051 -0.0936  1.1245
  918MOL0     N26597   5.837   8.560   0.622  0.9148 -0.0935 -0.1171
  918MOL0     N26598   5.815   8.670   0.693 -0.6382 -0.5906 -0.3173
  918MOL0     C26599   4.998   9.817   0.332  0.5873  0.6189 -0.3457
  918MOL0     C26600   4.871   9.884   0.292 -0.2425 -1.1171  0.1231
  918MOL0     C26601   4.555   9.951   0.364 -0.0040 -0.4793  0.6723
  918MOL0     C26602   4.550   9.847   0.458 -0.4356 -0.5714 -0.0760
  918MOL0     C26603   4.537   9.881   0.592  0.0120  0.8840 -0.4035
  918MOL0     C26604   4.529  10.016   0.635  0.5029 -0.0928  0.2608
  918MOL0     O26605   4.516  10.057   0.774 -0.0262  0.5610 -0.1277
  918MOL0     C26606   4.471   9.961   0.868 -0.0574 -0.2962  0.2160
  918MOL0     C26607   4.456  10.031   1.005  0.7142  0.0255  0.0071
  918MOL0     C26608   4.431   9.923   1.111  0.3487  0.4975 -1.2870
  918MOL0     C26609   4.283   9.867   1.106  0.5335  0.5246  0.3955
  918MOL0     C26610   4.257   9.840   1.245  0.8622  0.0917  0.0134
  918MOL0     C26611   4.226   9.799   1.354 -0.3888 -0.3883 -0.4942
  918MOL0     C26612   4.541  10.114   0.532  0.4978 -0.6036 -0.0887
  918MOL0     C26613   4.542  10.084   0.395  0.6893 -0.8519  0.2492
  918MOL0     C26614   4.574  10.196   0.295 -0.3519  0.2890  0.5414
  918MOL0     H26615   4.712   9.607   0.174 -0.1633 -1.4086 -0.7230
  918MOL0     H26616   4.904   9.499   0.274  0.7702  0.3995  0.2784
  918MOL0     H26617   5.168   9.459   0.229 -2.0072 -2.0423 -0.4962
  918MOL0     H26618   5.104   9.422   0.396 -2.3611  2.5262  0.4883
  918MOL0     H26619   5.384   9.528   0.326 -1.0508  1.7266 -0.0866
  918MOL0     H26620   5.327   9.507   0.491  1.9297  0.5930 -0.2133
  918MOL0     H26621   5.276   9.254   0.408  1.6009 -2.9416 -1.6655
  918MOL0     H26622   5.400   9.291   0.288  1.8526  1.2755  0.2733
  918MOL0     H26623   5.562   9.355   0.449 -3.4680  2.5717 -0.3670
  918MOL0     H26624   5.458   9.334   0.582  1.4801  1.0836 -0.3011
  918MOL0     H26625   5.522   9.109   0.389 -1.3496  2.3303 -0.4853
  918MOL0     H26626   5.431   9.087   0.540 -0.7616  0.1131 -2.0004
  918MOL0     H26627   5.722   9.147   0.544  0.3077  0.6358  1.1955
  918MOL0     H26628   5.602   9.120   0.676 -0.2410 -0.7300 -0.8425
  918MOL0     H26629   5.668   8.912   0.461  0.9814 -3.2208  0.9176
  918MOL0     H26630   5.589   8.881   0.626 -1.1587  1.0947  0.3748
  918MOL0     H26631   5.877   8.985   0.575  0.9634  1.4431  1.4852
  918MOL0     H26632   5.790   8.948   0.726 -1.4750  0.3764 -1.0025
  918MOL0     H26633   5.904   8.779   0.394 -0.2552 -2.7833 -1.0543
  918MOL0     H26634   5.851   8.510   0.296 -2.9617  0.4260  1.2230
  918MOL0     H26635   5.884   8.396   0.419  1.1615  0.8519  1.5661
  918MOL0     H26636   6.072   8.597   0.291  0.4349  0.2133  0.8645
  918MOL0     H26637   6.123   8.518   0.438 -0.3366 -0.8320  0.2487
  918MOL0     H26638   6.068   8.294   0.292 -0.1476 -0.7520 -0.8730
  918MOL0     H26639   6.092   8.395   0.165 -1.2000 -1.4392 -0.1327
  918MOL0     H26640   6.293   8.333   0.195 -2.2171  0.0835 -0.8170
  918MOL0     H26641   6.302   8.498   0.272 -0.6411  0.4778 -0.9087
  918MOL0     H26642   6.479   8.218   0.220 -0.0013  1.1108 -2.1710
  918MOL0     H26643   6.772   8.286   0.137 -1.2907  0.7119  0.2274
  918MOL0     H26644   6.669   8.144   0.134 -0.3068 -0.6129  0.5098
  918MOL0     H26645   6.818   8.143   0.230  0.3254  0.0437 -0.4117
  918MOL0     H26646   7.004   8.193   0.676 -0.0762 -0.3005 -0.3402
  918MOL0     H26647   7.205   8.090   0.780  1.2906 -2.1795 -0.5204
  918MOL0     H26648   7.365   7.982   0.840 -4.3144  1.9612 -2.7342
  918MOL0     H26649   7.361   7.830   0.748 -0.7210  0.8358  0.7744
  918MOL0     H26650   7.608   7.821   0.727  3.8493  1.6258 -0.0796
  918MOL0     H26651   7.612   7.991   0.789  0.3211 -0.5539  0.4043
  918MOL0     H26652   7.651   7.762   0.942  0.3189 -1.0453  1.3169
  918MOL0     H26653   7.482   7.787   0.960 -0.4243 -1.1568 -2.3681
  918MOL0     H26654   7.564   7.922   1.141 -0.2350  0.6170  0.4798
  918MOL0     H26655   7.550   8.040   1.023  0.9242  0.6004  1.2585
  918MOL0     H26656   7.817   7.901   1.021 -3.0195 -2.7270  0.9944
  918MOL0     H26657   7.771   8.066   0.958  0.9463 -1.8987 -1.4191
  918MOL0     H26658   7.905   8.078   1.151  0.4270 -0.9258  2.1434
  918MOL0     H26659   7.801   7.965   1.238 -2.3874  0.6503 -0.2900
  918MOL0     H26660   7.776   8.197   1.316  0.3096  0.0936 -0.8352
  918MOL0     H26661   7.628   8.131   1.250  0.5566 -0.9183  2.1199
  918MOL0     H26662   7.680   8.251   1.024 -2.8774  1.5971  0.4413
  918MOL0     H26663   7.807   8.339   1.113  0.6639  0.7575  3.1284
  918MOL0     H26664   7.367   8.029   0.385 -0.0500  0.5608 -0.5927
  918MOL0     H26665   7.161   8.124   0.291  0.7422 -0.1295 -0.9178
  918MOL0     H26666   6.702   8.401   0.627  0.1368  4.5304 -1.9963
  918MOL0     H26667   6.447   8.395   0.606 -1.5189 -3.3024  1.4325
  918MOL0     H26668   5.081   9.874   0.373  1.5357 -1.5524  0.9887
  918MOL0     H26669   4.866   9.992   0.298 -0.4134 -1.1237  0.0877
  918MOL0     H26670   4.555   9.743   0.428  2.2150 -0.7867  0.8629
  918MOL0     H26671   4.547   9.793   0.655  1.1945  0.9993 -0.4086
  918MOL0     H26672   4.373   9.929   0.831 -0.5239 -0.1986  1.3240
  918MOL0     H26673   4.535   9.873   0.877  0.2550 -0.0183  0.7158
  918MOL0     H26674   4.377  10.108   1.005  2.9624  2.4723  0.8543
  918MOL0     H26675   4.551  10.076   1.033  1.5832 -2.2755  0.9514
  918MOL0     H26676   4.506   9.846   1.093 -1.6485 -1.7153 -0.6519
  918MOL0     H26677   4.455   9.966   1.209 -2.5432  1.1055 -0.7542
  918MOL0     H26678   4.281   9.776   1.046  0.1589 -0.1425  1.3894
  918MOL0     H26679   4.207   9.933   1.064  1.0185 -0.0211 -1.3952
  918MOL0     H26680   4.207   9.773   1.456 -2.0977 -0.5412 -0.8309
  918MOL0     H26681   4.543  10.218   0.563 -2.8724  0.2263 -2.1148
  918MOL0     H26682   4.552  10.295   0.337 -2.0701 -0.0580  0.5058
  918MOL0     H26683   4.680  10.187   0.272 -0.3073  3.0070 -0.7208
  918MOL0     H26684   4.500  10.191   0.215  0.5075  0.9381 -0.3133
  919MOL0     O26685   5.576   7.028   7.565  0.0005  0.2717  0.4823
  919MOL0     C26686   5.541   6.992   7.678  0.4624 -0.2307 -0.4609
  919MOL0     O26687   5.630   6.951   7.781  0.4050 -0.4139 -0.2786
  919MOL0     C26688   5.735   6.874   7.739 -0.3653  0.5180 -0.0320
  919MOL0     C26689   5.857   6.932   7.727 -0.8774 -0.0536 -0.2702
  919MOL0     C26690   5.971   6.852   7.703  0.1076  0.0445  0.6743
  919MOL0     C26691   5.975   6.716   7.679 -0.0311 -0.3240  0.5670
  919MOL0     O26692   6.095   6.651   7.674  0.2729  0.1118  0.0744
  919MOL0     C26693   6.091   6.508   7.681  0.2848  0.6499 -0.3726
  919MOL0     C26694   6.221   6.444   7.627  0.9739  0.3364 -0.0909
  919MOL0     C26695   6.327   6.479   7.724  0.1614  0.3825  0.6274
  919MOL0     C26696   6.454   6.418   7.671  0.6947 -0.0053  0.1140
  919MOL0     C26697   6.562   6.449   7.773 -1.1114 -0.5395 -0.1705
  919MOL0     C26698   6.568   6.345   7.885  0.4949  0.3486  0.2894
  919MOL0     C26699   6.687   6.371   7.974 -0.2355 -0.4563 -0.4045
  919MOL0     C26700   6.662   6.489   8.075 -0.4027 -0.0323  0.3992
  919MOL0     N26701   6.739   6.476   8.198  0.4806  0.1223  0.7067
  919MOL0     C26702   6.821   6.574   8.245  0.2497 -0.2293 -0.8451
  919MOL0     C26703   6.862   6.535   8.367 -0.5553  0.4340  0.2321
  919MOL0     C26704   6.953   6.610   8.469 -1.3495  0.6486  0.1919
  919MOL0     C26705   7.105   6.618   8.422 -0.0230  0.6155 -0.0409
  919MOL0     C26706   7.132   6.753   8.347  0.1543  0.3204 -0.6770
  919MOL0     C26707   7.229   6.746   8.232 -1.3595  0.9703  0.4988
  919MOL0     O26708   7.364   6.704   8.289  0.0231  0.8335  0.1456
  919MOL0     C26709   7.450   6.623   8.213  0.4242  0.1129  0.6616
  919MOL0     C26710   7.431   6.629   8.071 -0.6051 -0.6436  0.5299
  919MOL0     C26711   7.499   6.553   7.977  0.0237 -0.4562 -0.7697
  919MOL0     C26712   7.465   6.582   7.838 -0.5343  0.2209  0.8784
  919MOL0     C26713   7.606   6.473   8.021 -0.2266  0.8229 -0.7810
  919MOL0     C26714   7.690   6.384   7.934 -0.5103 -0.1013  0.2372
  919MOL0     O26715   7.824   6.371   7.965 -0.2632 -0.2602 -0.3758
  919MOL0     C26716   7.895   6.321   7.852 -1.9024 -0.7358 -0.0055
  919MOL0     C26717   7.949   6.197   7.843 -0.0892  0.8182  0.5346
  919MOL0     C26718   8.023   6.144   7.730 -0.0920 -1.4532 -0.2496
  919MOL0     C26719   8.061   6.238   7.633  0.0805  0.7747  0.1151
  919MOL0     O26720   8.147   6.182   7.542 -0.7497  0.1596  0.3147
  919MOL0     C26721   8.229   6.276   7.470 -0.6497  0.4669 -0.3341
  919MOL0     C26722   8.358   6.220   7.443 -0.0562  0.0328 -0.3308
  919MOL0     C26723   8.434   6.301   7.346  0.0265 -0.5495  0.7467
  919MOL0     C26724   8.552   6.218   7.284 -0.2386  1.3080 -0.3097
  919MOL0     C26725   8.646   6.319   7.203  0.1797 -1.1606  0.7500
  919MOL0     C26726   8.767   6.251   7.138  0.4729  0.1261 -0.6287
  919MOL0     C26727   8.873   6.202   7.245  0.9619  0.5496  0.3612
  919MOL0     C26728   9.008   6.282   7.229 -0.2692 -0.2804 -0.4963
  919MOL0    Cl26729   9.069   6.270   7.065  0.0180 -0.0456 -0.0535
  919MOL0     C26730   8.012   6.371   7.640 -0.0295  0.1650  0.3101
  919MOL0     C26731   7.929   6.410   7.750  0.4616  0.5048  0.5127
  919MOL0     O26732   7.636   6.339   7.834  0.0258  0.1083 -0.1859
  919MOL0     C26733   7.636   6.474   8.165  1.1783  0.8595  1.2916
  919MOL0     C26734   7.551   6.542   8.254 -0.1370  0.6381  0.3622
  919MOL0     N26735   6.782   6.421   8.401 -0.1975  0.0578  0.0391
  919MOL0     N26736   6.711   6.389   8.298  0.4205  0.1912 -0.8891
  919MOL0     C26737   5.850   6.663   7.684 -0.1662 -0.8236 -0.1605
  919MOL0     C26738   5.730   6.735   7.708  0.1025 -0.0230 -0.0087
  919MOL0     C26739   5.400   7.020   7.720  0.1362 -1.3747  0.0843
  919MOL0     C26740   5.343   7.148   7.697 -0.4070 -0.4407  0.2329
  919MOL0     C26741   5.242   7.197   7.774  0.1709 -0.4014  0.4813
  919MOL0     C26742   5.187   7.114   7.873  0.1848 -0.2210 -0.2551
  919MOL0     O26743   5.089   7.147   7.958  0.2543  0.1353 -0.3211
  919MOL0     C26744   5.070   7.288   7.982 -0.0342  0.3751 -0.1958
  919MOL0     C26745   4.980   7.298   8.105  0.3511 -0.0022 -1.3950
  919MOL0     C26746   5.035   7.242   8.234 -0.0678  1.0609  0.2404
  919MOL0     C26747   4.957   7.287   8.358 -0.0433  0.2991 -0.1056
  919MOL0     C26748   4.812   7.261   8.356  0.2844  1.1594  0.6132
  919MOL0     C26749   4.694   7.235   8.338  0.5812  0.1455 -0.0637
  919MOL0     C26750   5.225   6.981   7.878  1.0007  0.8699  0.3045
  919MOL0     C26751   5.332   6.931   7.805  0.0112  0.4281 -0.2646
  919MOL0     C26752   5.365   6.788   7.826 -0.0907 -0.2032 -0.3322
  919MOL0     H26753   5.876   7.033   7.760  1.9797 -0.4850 -0.3351
  919MOL0     H26754   6.067   6.902   7.691 -0.1930  0.9496  1.8800
  919MOL0     H26755   6.017   6.457   7.618 -0.2780 -0.8697  1.4090
  919MOL0     H26756   6.067   6.479   7.784 -0.3443 -1.4191 -1.0487
  919MOL0     H26757   6.206   6.336   7.634  1.3974  0.2007 -1.1226
  919MOL0     H26758   6.243   6.480   7.526 -0.7005  2.8051  0.3304
  919MOL0     H26759   6.333   6.588   7.732  2.1631  0.1929  3.5279
  919MOL0     H26760   6.313   6.440   7.826  1.3809  0.5385  0.8725
  919MOL0     H26761   6.437   6.310   7.670 -1.4531  0.2749  1.2670
  919MOL0     H26762   6.481   6.462   7.574 -1.6449  0.8617 -0.1988
  919MOL0     H26763   6.545   6.550   7.809 -2.8163  0.2366 -2.8116
  919MOL0     H26764   6.658   6.449   7.721 -0.1717 -0.4107  1.5190
  919MOL0     H26765   6.477   6.333   7.943  0.1577 -4.5037 -0.7659
  919MOL0     H26766   6.594   6.249   7.838  2.9669  0.7791  0.6277
  919MOL0     H26767   6.783   6.388   7.924 -1.1484  0.0219 -2.0660
  919MOL0     H26768   6.697   6.287   8.043 -0.2734 -0.9726 -1.0237
  919MOL0     H26769   6.685   6.586   8.029 -2.1463 -0.4708 -1.5698
  919MOL0     H26770   6.556   6.486   8.100 -0.1848 -2.9109  1.3978
  919MOL0     H26771   6.857   6.655   8.183  1.8364 -1.5011 -1.6622
  919MOL0     H26772   6.958   6.560   8.566  1.1363 -0.6346 -0.5226
  919MOL0     H26773   6.910   6.709   8.488 -0.3806  1.1299 -0.0382
  919MOL0     H26774   7.173   6.599   8.505  3.0385 -3.1172 -3.0216
  919MOL0     H26775   7.128   6.539   8.350 -1.3881  1.8305 -1.9112
  919MOL0     H26776   7.035   6.788   8.312 -0.9774 -2.6170 -0.8241
  919MOL0     H26777   7.170   6.821   8.423  0.2359 -3.0189  2.5496
  919MOL0     H26778   7.188   6.669   8.166 -0.0372  0.4688  0.2469
  919MOL0     H26779   7.244   6.837   8.174  2.8172 -0.9392 -1.8729
  919MOL0     H26780   7.356   6.702   8.039 -0.3698 -0.2247  0.9172
  919MOL0     H26781   7.416   6.495   7.793  0.2800  0.5257 -0.6414
  919MOL0     H26782   7.559   6.596   7.785 -0.4615 -1.1698  0.5946
  919MOL0     H26783   7.401   6.669   7.825  0.1923  0.6196 -0.1112
  919MOL0     H26784   7.927   6.129   7.925 -0.9851  2.5136  1.7530
  919MOL0     H26785   8.061   6.043   7.740  2.8583 -0.4387  0.0975
  919MOL0     H26786   8.178   6.274   7.373 -0.7663 -3.6078 -0.3454
  919MOL0     H26787   8.230   6.371   7.525  0.0206 -1.4130  3.1916
  919MOL0     H26788   8.410   6.212   7.539  0.4514 -2.5774 -0.7445
  919MOL0     H26789   8.353   6.113   7.418  1.8202 -0.3415  0.6619
  919MOL0     H26790   8.468   6.388   7.401  0.7938 -1.5009  1.8072
  919MOL0     H26791   8.367   6.337   7.267  0.3022 -0.4861  0.5399
  919MOL0     H26792   8.513   6.131   7.231 -1.0726  1.7272 -0.4092
  919MOL0     H26793   8.605   6.176   7.370  0.5313  1.1657 -0.8474
  919MOL0     H26794   8.590   6.375   7.127 -1.9410 -3.2715  0.6715
  919MOL0     H26795   8.685   6.397   7.269 -0.1646 -0.5420  0.2417
  919MOL0     H26796   8.816   6.325   7.074  0.4197  0.2738 -0.4975
  919MOL0     H26797   8.722   6.179   7.070 -3.2689  0.3402  1.3729
  919MOL0     H26798   8.886   6.095   7.225 -0.6878  1.0178 -4.4636
  919MOL0     H26799   8.839   6.213   7.349 -1.4073 -2.1710 -0.0142
  919MOL0     H26800   9.083   6.241   7.297 -0.9716 -1.0341 -0.1543
  919MOL0     H26801   8.989   6.387   7.255  1.2595 -0.3210  0.9522
  919MOL0     H26802   8.043   6.442   7.564  0.6858  0.7319  1.1141
  919MOL0     H26803   7.901   6.515   7.755 -1.3359  0.0437  0.7913
  919MOL0     H26804   7.717   6.418   8.209  1.5477 -0.8434 -1.3399
  919MOL0     H26805   7.571   6.524   8.359  0.3637  2.3364  0.5874
  919MOL0     H26806   5.836   6.559   7.658 -0.0049 -0.4009 -2.0612
  919MOL0     H26807   5.638   6.677   7.712  1.5378 -2.3334  2.6332
  919MOL0     H26808   5.391   7.212   7.624 -2.0103 -0.1434 -0.5987
  919MOL0     H26809   5.220   7.303   7.764 -0.1297 -0.6089 -1.2804
  919MOL0     H26810   5.165   7.339   8.001 -0.7073  1.6000 -0.0163
  919MOL0     H26811   5.029   7.340   7.896 -1.3243  0.6771  0.5662
  919MOL0     H26812   4.890   7.241   8.081  2.5989 -3.5055 -2.2591
  919MOL0     H26813   4.958   7.403   8.126  0.7603 -0.7006  4.0771
  919MOL0     H26814   5.047   7.134   8.226 -1.9099  0.8461  0.0316
  919MOL0     H26815   5.138   7.278   8.247  1.5407 -2.9868  0.2329
  919MOL0     H26816   4.968   7.395   8.370 -1.1517  0.2358  1.9941
  919MOL0     H26817   4.991   7.246   8.454 -0.6219 -0.9944 -0.4269
  919MOL0     H26818   4.592   7.214   8.315  0.5879  2.6019 -2.9228
  919MOL0     H26819   5.173   6.909   7.940  0.5403  0.6749 -0.2958
  919MOL0     H26820   5.301   6.736   7.899  1.1254 -0.7710  0.3519
  919MOL0     H26821   5.354   6.740   7.729 -0.5578  1.0456 -0.9153
  919MOL0     H26822   5.467   6.791   7.864 -0.0551  0.6610 -0.4750
  920MOL0     O26823   4.030   4.612   1.400  0.3834  0.1521  0.2607
  920MOL0     C26824   4.068   4.514   1.460  0.1678  0.8087 -0.1687
  920MOL0     O26825   4.105   4.517   1.593 -0.4066  0.3093 -0.3706
  920MOL0     C26826   4.095   4.630   1.662  0.6214 -0.2691  0.2070
  920MOL0     C26827   3.962   4.676   1.682  0.6361 -0.1140  0.0710
  920MOL0     C26828   3.947   4.801   1.751  0.1124  0.1674  0.0832
  920MOL0     C26829   4.060   4.876   1.806  0.0642  0.1478 -0.2429
  920MOL0     O26830   4.036   4.990   1.871 -0.0113 -0.5560 -0.0678
  920MOL0     C26831   4.133   5.097   1.874 -0.0125  0.1591  0.3555
  920MOL0     C26832   4.072   5.237   1.878 -0.0793  0.6110 -0.2976
  920MOL0     C26833   4.171   5.351   1.870 -0.4610 -1.1419 -0.3651
  920MOL0     C26834   4.274   5.349   1.977 -0.3967  0.3801  0.1528
  920MOL0     C26835   4.356   5.473   1.973  0.5874 -0.1901  0.2132
  920MOL0     C26836   4.443   5.495   1.851 -0.4294  0.6769  1.1259
  920MOL0     C26837   4.549   5.385   1.829 -0.9309  0.7916 -0.4673
  920MOL0     C26838   4.626   5.403   1.689  0.2690 -0.8147 -0.6452
  920MOL0     N26839   4.747   5.322   1.685 -0.1688  0.3339 -0.2153
  920MOL0     C26840   4.754   5.205   1.606 -0.7797  0.0542  0.5102
  920MOL0     C26841   4.874   5.146   1.633  0.1112 -0.4795 -0.0517
  920MOL0     C26842   4.927   5.018   1.588  0.3490  0.0188 -0.3921
  920MOL0     C26843   5.014   5.013   1.461  0.4387 -0.5428  0.3059
  920MOL0     C26844   5.053   4.871   1.425  0.0288 -0.3422 -0.1473
  920MOL0     C26845   5.129   4.807   1.536  0.2748  0.8975 -0.3108
  920MOL0     O26846   5.200   4.681   1.506  0.8385  1.0785  0.0751
  920MOL0     C26847   5.323   4.692   1.454  1.2607  0.5666  0.8641
  920MOL0     C26848   5.435   4.698   1.535 -0.1384 -0.6465 -0.4213
  920MOL0     C26849   5.559   4.702   1.469 -0.8426 -0.0983  0.4269
  920MOL0     C26850   5.678   4.682   1.560 -0.0978  0.1377 -0.7896
  920MOL0     C26851   5.578   4.716   1.324  0.3183  0.8504  0.4434
  920MOL0     C26852   5.715   4.735   1.244  0.3832 -0.2243  0.3535
  920MOL0     O26853   5.834   4.765   1.305  0.2085  0.4469  0.0425
  920MOL0     C26854   5.940   4.794   1.239 -0.0425 -0.8125  0.7392
  920MOL0     C26855   5.975   4.738   1.119 -0.3529  0.3303  0.7390
  920MOL0     C26856   6.096   4.775   1.060  0.0646 -0.5540  0.9031
  920MOL0     C26857   6.184   4.868   1.115  0.8083 -0.2504  0.2053
  920MOL0     O26858   6.288   4.920   1.054  0.1787 -0.6137 -0.2527
  920MOL0     C26859   6.346   4.857   0.935 -0.0553  0.3072  0.3092
  920MOL0     C26860   6.499   4.901   0.937 -0.0519 -0.0741  0.5376
  920MOL0     C26861   6.567   4.819   0.823 -0.4265 -0.2912 -0.6026
  920MOL0     C26862   6.713   4.848   0.807  0.7296  0.2580  0.5178
  920MOL0     C26863   6.772   4.755   0.696 -0.5198  0.1018  0.5494
  920MOL0     C26864   6.913   4.798   0.644  0.4470  0.3357 -0.2542
  920MOL0     C26865   6.975   4.683   0.573 -0.1481  0.3168 -0.6256
  920MOL0     C26866   7.109   4.726   0.512 -0.1810 -0.2382 -0.4337
  920MOL0    Cl26867   7.181   4.609   0.406  0.6694  0.1244 -0.3762
  920MOL0     C26868   6.149   4.921   1.230  0.6899  0.6025 -0.6690
  920MOL0     C26869   6.024   4.889   1.295  0.0629  0.0023 -0.1111
  920MOL0     O26870   5.701   4.719   1.116 -0.0606  0.3159 -0.6992
  920MOL0     C26871   5.456   4.710   1.251 -0.5118 -0.4372  0.4390
  920MOL0     C26872   5.334   4.695   1.310  0.0554  0.1812  0.0343
  920MOL0     N26873   4.938   5.216   1.738  0.8751 -0.3060  0.1010
  920MOL0     N26874   4.865   5.322   1.762 -0.0495  0.3122  0.5268
  920MOL0     C26875   4.186   4.826   1.788  0.4003  0.8181 -0.1979
  920MOL0     C26876   4.201   4.706   1.716  0.4083 -0.3380 -0.5578
  920MOL0     C26877   4.100   4.389   1.385  0.0163 -0.5260  1.2056
  920MOL0     C26878   4.176   4.298   1.455 -0.4743  0.5615 -0.0523
  920MOL0     C26879   4.207   4.176   1.397  0.9361  0.1587  0.4264
  920MOL0     C26880   4.168   4.151   1.259 -0.2497 -0.2056 -0.5340
  920MOL0     O26881   4.195   4.042   1.193  0.1223  0.1802 -0.2551
  920MOL0     C26882   4.251   3.925   1.251 -1.1408 -1.1533 -0.5885
  920MOL0     C26883   4.269   3.818   1.148  0.2547 -0.7667 -0.2390
  920MOL0     C26884   4.283   3.679   1.213  0.5804 -0.1658 -0.0658
  920MOL0     C26885   4.161   3.614   1.288 -0.4377  0.8780 -0.2027
  920MOL0     C26886   4.062   3.549   1.197 -0.1807 -0.4486  0.3350
  920MOL0     C26887   3.980   3.495   1.135  0.6803 -0.6842 -0.2300
  920MOL0     C26888   4.095   4.239   1.196 -0.4494  0.0852  1.4108
  920MOL0     C26889   4.053   4.355   1.253 -0.2357 -0.7702  0.7960
  920MOL0     C26890   3.970   4.452   1.175 -0.3883  0.5420 -0.3873
  920MOL0     H26891   3.871   4.632   1.642 -0.8873  1.8236  1.2164
  920MOL0     H26892   3.846   4.826   1.782 -0.4712 -3.2239  1.3303
  920MOL0     H26893   4.193   5.093   1.783 -0.1105 -1.7009  0.3275
  920MOL0     H26894   4.204   5.090   1.957 -0.8597 -0.5233  1.0488
  920MOL0     H26895   3.986   5.247   1.811  0.1922  1.2890 -0.5607
  920MOL0     H26896   4.017   5.243   1.973 -0.2265 -0.8659 -0.2729
  920MOL0     H26897   4.214   5.343   1.770 -0.4967  0.0400 -0.4900
  920MOL0     H26898   4.116   5.446   1.873  1.0852 -0.1987  3.2672
  920MOL0     H26899   4.219   5.342   2.071  1.0199 -0.8055  0.9387
  920MOL0     H26900   4.340   5.263   1.963  0.7707  0.9848  1.6744
  920MOL0     H26901   4.427   5.477   2.056 -1.8658  2.2031  2.4065
  920MOL0     H26902   4.298   5.563   1.997  2.0304  1.4733 -2.1069
  920MOL0     H26903   4.382   5.501   1.760  0.4195 -0.4084  0.4603
  920MOL0     H26904   4.491   5.591   1.872 -2.1049  1.4703  1.4655
  920MOL0     H26905   4.505   5.285   1.825  1.3514 -0.2181 -2.0895
  920MOL0     H26906   4.626   5.385   1.907  0.1380  2.2547 -1.4739
  920MOL0     H26907   4.556   5.393   1.605 -1.7580  1.7385  0.5883
  920MOL0     H26908   4.653   5.509   1.684 -3.0079  0.3247  2.1274
  920MOL0     H26909   4.678   5.174   1.535 -0.6000  0.4808  0.1295
  920MOL0     H26910   4.846   4.955   1.550 -1.2454  0.6704  1.7505
  920MOL0     H26911   4.980   4.976   1.673  0.9631 -0.5213 -1.0315
  920MOL0     H26912   4.958   5.054   1.376 -0.7435 -0.1475  1.2477
  920MOL0     H26913   5.106   5.072   1.472  0.0419  0.0776  0.3936
  920MOL0     H26914   4.963   4.813   1.402 -0.8737 -0.3497  2.9927
  920MOL0     H26915   5.122   4.872   1.340  1.0459 -4.6596  0.3685
  920MOL0     H26916   5.202   4.879   1.573  1.6745 -1.0255  0.8811
  920MOL0     H26917   5.071   4.791   1.627  0.3389  2.3957  0.0072
  920MOL0     H26918   5.413   4.692   1.641 -3.3237 -0.7769 -0.9933
  920MOL0     H26919   5.642   4.618   1.641  0.5725 -2.1568 -2.2001
  920MOL0     H26920   5.718   4.774   1.604  1.5051 -0.4759 -0.8603
  920MOL0     H26921   5.763   4.620   1.526 -1.3120 -2.0558 -0.0309
  920MOL0     H26922   5.922   4.659   1.067 -1.1389  1.8650 -0.9107
  920MOL0     H26923   6.120   4.729   0.965  1.2128 -1.2709  1.5162
  920MOL0     H26924   6.332   4.749   0.926 -3.8119  0.7661 -0.8833
  920MOL0     H26925   6.311   4.894   0.838  1.0904 -2.0380 -1.0753
  920MOL0     H26926   6.516   5.009   0.937  0.1760 -0.1060  1.0669
  920MOL0     H26927   6.537   4.866   1.034 -0.6604 -0.0539  0.7894
  920MOL0     H26928   6.507   4.843   0.735 -2.4307 -1.7065  0.3025
  920MOL0     H26929   6.558   4.711   0.840 -0.4544 -0.0332  1.2130
  920MOL0     H26930   6.759   4.834   0.905  4.0799 -0.8201 -1.0566
  920MOL0     H26931   6.718   4.953   0.774  1.4049 -0.5397 -2.2158
  920MOL0     H26932   6.778   4.653   0.735  2.5941  0.7174  2.0405
  920MOL0     H26933   6.714   4.750   0.604  2.0670 -0.6990 -1.1455
  920MOL0     H26934   6.975   4.825   0.729 -1.1795  4.1965 -0.1083
  920MOL0     H26935   6.894   4.882   0.577 -1.3093 -0.3722 -0.7208
  920MOL0     H26936   6.904   4.643   0.500  0.2741 -2.4347  0.3455
  920MOL0     H26937   6.996   4.599   0.639  1.3510  0.2037 -1.2073
  920MOL0     H26938   7.180   4.751   0.591  1.1878  0.1958 -1.7528
  920MOL0     H26939   7.097   4.818   0.454  2.0685  0.2150 -0.2984
  920MOL0     H26940   6.194   5.007   1.281 -2.0968  0.4927  2.3284
  920MOL0     H26941   6.009   4.934   1.393  0.0590 -1.7191  0.7225
  920MOL0     H26942   5.454   4.700   1.143 -1.4926  0.7305  0.3288
  920MOL0     H26943   5.242   4.686   1.252 -0.4584 -1.5744  1.0349
  920MOL0     H26944   4.279   4.874   1.818 -0.5969  1.2400  2.3954
  920MOL0     H26945   4.301   4.672   1.694  1.3740  2.2773 -0.4498
  920MOL0     H26946   4.213   4.303   1.557 -2.2949 -0.5852  0.7063
  920MOL0     H26947   4.254   4.095   1.451  0.3334 -2.3515 -2.4957
  920MOL0     H26948   4.345   3.956   1.298 -1.4131 -2.8959  1.2479
  920MOL0     H26949   4.177   3.896   1.326  0.8884  1.3962  2.6535
  920MOL0     H26950   4.371   3.830   1.110  1.9801 -4.0042  2.7172
  920MOL0     H26951   4.192   3.814   1.071  1.8612 -1.4443 -1.9002
  920MOL0     H26952   4.318   3.607   1.138 -0.7727 -0.0166 -0.8932
  920MOL0     H26953   4.370   3.694   1.276  0.6163 -2.2109  0.4191
  920MOL0     H26954   4.098   3.696   1.325 -0.2560  1.7403 -1.7324
  920MOL0     H26955   4.188   3.541   1.364 -1.1404 -2.0172 -2.5559
  920MOL0     H26956   3.895   3.444   1.095  1.6223 -3.0015  0.5866
  920MOL0     H26957   4.075   4.201   1.097  0.3482 -2.8196  2.2658
  920MOL0     H26958   3.878   4.471   1.231 -1.9525  0.2192 -2.6976
  920MOL0     H26959   4.018   4.548   1.154  0.2048 -0.1389 -2.3420
  920MOL0     H26960   3.944   4.412   1.077 -0.5376 -0.4051  0.0241
  921MOL0     O26961   5.400   9.826   8.185  0.0842 -0.1044  0.0106
  921MOL0     C26962   5.391   9.867   8.298 -0.2912  0.1893  0.4036
  921MOL0     O26963   5.478   9.836   8.392 -0.7916 -0.5637 -0.2997
  921MOL0     C26964   5.568   9.736   8.370 -0.7755  0.3383  0.6314
  921MOL0     C26965   5.702   9.780   8.391  1.0244 -0.0065 -0.4398
  921MOL0     C26966   5.806   9.699   8.367  0.0988  1.0919 -0.1859
  921MOL0     C26967   5.775   9.557   8.345 -1.0223 -0.3619 -0.8037
  921MOL0     O26968   5.867   9.463   8.334  0.2039 -0.1666 -0.6363
  921MOL0     C26969   5.994   9.496   8.271 -0.0541  0.5980 -0.4002
  921MOL0     C26970   6.064   9.358   8.241  0.3686  0.9292 -0.5413
  921MOL0     C26971   6.200   9.380   8.178 -0.5710 -0.0993  0.2264
  921MOL0     C26972   6.277   9.253   8.158  0.3617  0.0222  0.2359
  921MOL0     C26973   6.424   9.284   8.105  0.5170 -0.3141  0.0276
  921MOL0     C26974   6.505   9.163   8.074 -0.3255  0.3586  0.1602
  921MOL0     C26975   6.651   9.191   8.039  0.9248  0.0121  0.8541
  921MOL0     C26976   6.717   9.069   7.969  0.3688  0.4573 -0.7476
  921MOL0     N26977   6.859   9.096   7.958  0.0116  0.6070  0.2118
  921MOL0     C26978   6.928   9.151   7.849  0.2900  0.2340  0.5816
  921MOL0     C26979   7.055   9.152   7.900 -0.8253  0.3332 -0.3830
  921MOL0     C26980   7.152   9.198   7.795  0.4592 -0.0581  0.7266
  921MOL0     C26981   7.288   9.207   7.863 -0.1964 -0.0434  0.2761
  921MOL0     C26982   7.397   9.222   7.757 -0.9070  0.4266  0.2081
  921MOL0     C26983   7.533   9.176   7.804  0.6100  0.1037  0.2074
  921MOL0     O26984   7.615   9.147   7.696 -0.6135  0.1285 -0.2415
  921MOL0     C26985   7.749   9.114   7.727  0.0300 -0.9396 -0.0348
  921MOL0     C26986   7.844   9.125   7.625  0.1533 -0.8010  0.0636
  921MOL0     C26987   7.982   9.116   7.645 -0.0406  0.6699  0.1219
  921MOL0     C26988   8.071   9.130   7.518 -0.2290 -0.0021 -1.1954
  921MOL0     C26989   8.033   9.076   7.768  0.6735 -0.2271 -0.6959
  921MOL0     C26990   8.176   9.046   7.796  0.6176 -0.4211 -0.3675
  921MOL0     O26991   8.185   8.995   7.926  0.3960  0.0183  0.2336
  921MOL0     C26992   8.316   8.979   7.965 -0.4750  1.5301  0.2330
  921MOL0     C26993   8.399   9.087   7.997  0.8806 -0.2215 -0.4525
  921MOL0     C26994   8.524   9.060   8.057 -1.2431 -0.0231 -0.2898
  921MOL0     C26995   8.568   8.925   8.069  0.1364  0.3712 -0.0931
  921MOL0     O26996   8.688   8.877   8.122 -0.1352  0.1096  0.6863
  921MOL0     C26997   8.791   8.970   8.103  0.1682 -0.2690  0.1100
  921MOL0     C26998   8.930   8.915   8.111 -0.2360  0.8707 -0.2166
  921MOL0     C26999   8.957   8.853   8.251 -0.4026  0.2074  0.6292
  921MOL0     C27000   9.102   8.813   8.284  0.6881 -0.2780  0.2645
  921MOL0     C27001   9.107   8.750   8.419 -0.3723 -0.6891  0.1078
  921MOL0     C27002   9.258   8.737   8.458  0.2028 -0.5016  0.7672
  921MOL0     C27003   9.279   8.673   8.595 -0.1833  0.0738 -0.3025
  921MOL0     C27004   9.426   8.694   8.637  0.2857 -0.1421 -0.3396
  921MOL0    Cl27005   9.548   8.640   8.519  0.2829  0.6381 -0.1398
  921MOL0     C27006   8.485   8.818   8.031  0.2235 -0.2944 -0.9252
  921MOL0     C27007   8.360   8.845   7.987 -0.3199  1.3167 -0.7506
  921MOL0     O27008   8.266   9.078   7.718 -0.4460  0.3075  0.0351
  921MOL0     C27009   7.939   9.064   7.875  0.3315  0.6024 -0.5041
  921MOL0     C27010   7.801   9.086   7.851  0.4313  0.6836 -0.2189
  921MOL0     N27011   7.057   9.078   8.017 -0.4923 -0.0117  1.1235
  921MOL0     N27012   6.941   9.056   8.058 -0.4612  0.1618  0.0154
  921MOL0     C27013   5.638   9.519   8.337  0.5360  0.4182 -0.5620
  921MOL0     C27014   5.534   9.608   8.337  0.0915  0.6562  0.2679
  921MOL0     C27015   5.284   9.962   8.330  0.0434  0.2395  1.1320
  921MOL0     C27016   5.274  10.018   8.459  0.2849 -0.5432  0.1685
  921MOL0     C27017   5.170  10.091   8.504 -0.6252  1.4490  0.4536
  921MOL0     C27018   5.060  10.116   8.418 -0.1896 -0.2815  0.1016
  921MOL0     O27019   4.964  10.193   8.486  0.0886 -0.2679  0.7356
  921MOL0     C27020   4.876  10.270   8.394 -0.8178  0.1224  0.1459
  921MOL0     C27021   4.770  10.357   8.464 -0.2085 -0.6670  0.6453
  921MOL0     C27022   4.669  10.404   8.357  0.1923  0.7814  0.3110
  921MOL0     C27023   4.566  10.296   8.320 -0.0794 -0.1634 -0.5290
  921MOL0     C27024   4.459  10.359   8.252  0.1476  0.5854  0.2119
  921MOL0     C27025   4.368  10.429   8.202 -0.4107 -0.3281 -0.5247
  921MOL0     C27026   5.072  10.077   8.284  0.7067 -0.5650  0.1573
  921MOL0     C27027   5.174   9.987   8.238  0.3696  0.1506  0.8621
  921MOL0     C27028   5.153   9.920   8.106 -0.5059  0.0834 -0.2413
  921MOL0     H27029   5.727   9.884   8.410  0.4047 -0.3197  2.4823
  921MOL0     H27030   5.909   9.730   8.377  1.4798 -2.0292 -3.0194
  921MOL0     H27031   6.056   9.556   8.337 -1.2159 -1.2367  2.5419
  921MOL0     H27032   5.975   9.552   8.178 -0.4341  2.0887  0.5445
  921MOL0     H27033   6.077   9.301   8.334 -0.3201 -0.8822 -1.5023
  921MOL0     H27034   5.994   9.299   8.182  1.2329 -1.8725  1.0550
  921MOL0     H27035   6.194   9.430   8.081 -0.6024  0.6056  0.5803
  921MOL0     H27036   6.246   9.460   8.237 -2.6706  0.7703  0.8083
  921MOL0     H27037   6.280   9.186   8.245 -0.6886 -2.7350 -1.7132
  921MOL0     H27038   6.244   9.191   8.074  2.2349  0.7490 -1.1129
  921MOL0     H27039   6.486   9.345   8.171 -0.2737  0.1609  0.3460
  921MOL0     H27040   6.415   9.342   8.013  3.4095 -2.3691 -1.7364
  921MOL0     H27041   6.496   9.090   8.155 -0.1489 -0.6847 -0.7456
  921MOL0     H27042   6.454   9.120   7.988  0.7120 -1.4547  0.3955
  921MOL0     H27043   6.714   9.207   8.128  2.5842 -0.7141 -0.1311
  921MOL0     H27044   6.637   9.276   7.972  0.8003 -0.9455 -0.3483
  921MOL0     H27045   6.698   8.977   8.025  1.3508 -0.8757 -2.4756
  921MOL0     H27046   6.677   9.050   7.868 -1.0585 -2.9630  0.2910
  921MOL0     H27047   6.886   9.180   7.754  1.3639 -1.6356 -0.5220
  921MOL0     H27048   7.121   9.292   7.749  0.0950 -0.9508 -0.9028
  921MOL0     H27049   7.154   9.116   7.723 -3.0756  0.4589 -0.1689
  921MOL0     H27050   7.288   9.295   7.928  2.5633  2.6606 -2.9783
  921MOL0     H27051   7.301   9.116   7.921 -2.8105 -0.2963  0.5827
  921MOL0     H27052   7.347   9.160   7.682  0.3494  0.1644 -0.4449
  921MOL0     H27053   7.408   9.326   7.725 -0.4354  0.7000  1.2229
  921MOL0     H27054   7.573   9.247   7.877  0.5301  1.3489 -0.9348
  921MOL0     H27055   7.522   9.089   7.870  0.5056 -1.3237 -1.6023
  921MOL0     H27056   7.804   9.163   7.531 -1.3670 -0.0637  0.9713
  921MOL0     H27057   8.134   9.050   7.477  0.4008 -1.5462  2.4595
  921MOL0     H27058   8.137   9.211   7.550 -1.2077  0.4784 -0.3404
  921MOL0     H27059   8.015   9.170   7.433  1.9854  0.5094 -2.5056
  921MOL0     H27060   8.373   9.191   7.977 -0.9658 -0.3700  0.9154
  921MOL0     H27061   8.584   9.145   8.088  1.0960 -1.3368 -0.9914
  921MOL0     H27062   8.779   9.023   8.008 -0.6051 -0.7856 -0.0897
  921MOL0     H27063   8.777   9.031   8.192 -0.9699 -0.6001  0.1625
  921MOL0     H27064   8.941   8.829   8.044 -0.9940 -0.0664  0.8330
  921MOL0     H27065   9.005   8.990   8.082  0.4594  0.0706 -0.5347
  921MOL0     H27066   8.887   8.773   8.277  1.1349 -1.3879  0.0080
  921MOL0     H27067   8.929   8.936   8.317 -0.5360  0.2421  0.5307
  921MOL0     H27068   9.165   8.903   8.282  1.8886 -1.0897  0.1167
  921MOL0     H27069   9.140   8.743   8.209  1.2181 -0.2442  0.4985
  921MOL0     H27070   9.045   8.802   8.493  1.6620  0.5975  0.9789
  921MOL0     H27071   9.076   8.645   8.421  0.2794 -0.8771  2.1521
  921MOL0     H27072   9.291   8.841   8.457 -2.8925  0.5898  0.9512
  921MOL0     H27073   9.316   8.682   8.384  0.4208 -0.7239  1.1018
  921MOL0     H27074   9.261   8.565   8.588  1.5022 -0.2826  0.3771
  921MOL0     H27075   9.207   8.710   8.669  0.5578 -2.7674  2.0304
  921MOL0     H27076   9.452   8.649   8.733  0.6673 -0.5210 -0.6126
  921MOL0     H27077   9.443   8.801   8.648  2.9051 -0.7681  3.6377
  921MOL0     H27078   8.509   8.713   8.041 -2.6287 -1.1683 -2.4161
  921MOL0     H27079   8.297   8.757   7.980 -1.0032  1.6416  0.7521
  921MOL0     H27080   7.967   9.030   7.974  4.7769  0.1825 -1.7123
  921MOL0     H27081   7.729   9.070   7.930  2.1959  0.4397  1.4045
  921MOL0     H27082   5.630   9.411   8.336 -0.7084  0.3501  2.7713
  921MOL0     H27083   5.434   9.566   8.325 -0.2615  1.1865  1.2384
  921MOL0     H27084   5.358   9.993   8.524  1.3960 -2.1094 -1.7800
  921MOL0     H27085   5.178  10.141   8.600 -0.3020  0.3842  0.9998
  921MOL0     H27086   4.935  10.338   8.332  0.7786 -0.5468  0.8685
  921MOL0     H27087   4.828  10.189   8.337 -0.0103 -0.8135  0.7611
  921MOL0     H27088   4.825  10.445   8.499  4.5493 -1.5515 -3.4615
  921MOL0     H27089   4.718  10.309   8.548 -1.8221  0.2772  0.2172
  921MOL0     H27090   4.616  10.491   8.397  1.2676  1.0101  1.3157
  921MOL0     H27091   4.722  10.428   8.265 -1.7526  0.9709 -0.7914
  921MOL0     H27092   4.532  10.258   8.417  1.1453 -0.7745 -0.3135
  921MOL0     H27093   4.596  10.209   8.260  1.0524 -0.1283 -0.0424
  921MOL0     H27094   4.279  10.479   8.173 -1.7854  0.2793  3.9103
  921MOL0     H27095   4.986  10.086   8.218  1.8176  1.5238 -1.1318
  921MOL0     H27096   5.178   9.814   8.116  1.8385  0.7998  3.3209
  921MOL0     H27097   5.049   9.938   8.077 -0.8815  0.4227  1.2193
  921MOL0     H27098   5.229   9.953   8.035  2.0144 -2.0721  1.2519
  922MOL0     O27099  10.336   0.140  10.737 -0.3588 -0.3495 -0.3274
  922MOL0     C27100  10.456   0.177  10.734  0.3945 -0.4057  0.1280
  922MOL0     O27101  10.494   0.290  10.678 -0.2446 -0.2450 -0.3497
  922MOL0     C27102  10.402   0.370  10.621 -0.4418 -0.1217  0.2975
  922MOL0     C27103  10.310   0.330  10.530  0.6524  0.1138  0.3407
  922MOL0     C27104  10.216   0.417  10.471 -0.1488  0.1113 -0.1324
  922MOL0     C27105  10.207   0.552  10.509 -0.3024 -0.9081 -0.1070
  922MOL0     O27106  10.119   0.630  10.443  0.4230  0.0569 -0.4435
  922MOL0     C27107  10.042   0.737  10.510  1.0814  0.5337 -0.5685
  922MOL0     C27108   9.938   0.793  10.412  0.6778  0.3087  0.6154
  922MOL0     C27109   9.862   0.912  10.477  0.0278 -0.5839 -0.3636
  922MOL0     C27110   9.732   0.951  10.394  0.7227 -0.4266  0.9384
  922MOL0     C27111   9.656   1.053  10.474  0.3510  0.1294  1.0269
  922MOL0     C27112   9.519   1.087  10.418  0.4756 -0.1384 -0.3285
  922MOL0     C27113   9.522   1.198  10.306  0.3956  0.4079  0.7876
  922MOL0     C27114   9.382   1.244  10.253 -0.5488 -0.4504  0.1777
  922MOL0     N27115   9.306   1.294  10.360 -0.0783 -0.1498  0.3273
  922MOL0     C27116   9.324   1.425  10.413 -0.0893 -0.1521  1.5001
  922MOL0     C27117   9.248   1.434  10.524 -0.4554  0.0185  0.1787
  922MOL0     C27118   9.228   1.553  10.606  0.3529 -0.5123  0.0241
  922MOL0     C27119   9.352   1.636  10.607  0.3843 -0.1290  0.5423
  922MOL0     C27120   9.338   1.748  10.711 -0.5512  0.0925 -0.0072
  922MOL0     C27121   9.460   1.836  10.706 -0.3147 -0.9080  0.2101
  922MOL0     O27122   9.582   1.775  10.758 -0.6973  0.6851 -0.3333
  922MOL0     C27123   9.684   1.849  10.814 -0.3730 -0.3024  0.3077
  922MOL0     C27124   9.729   1.971  10.764  0.5181 -0.0153  0.4724
  922MOL0     C27125   9.831   2.044  10.828  0.1816 -0.8293  0.2032
  922MOL0     C27126   9.888   2.159  10.750 -0.6199 -1.0001  0.2148
  922MOL0     C27127   9.894   1.999  10.949 -0.0668  0.6878 -0.2622
  922MOL0     C27128  10.020   2.052  11.007 -0.1780 -0.1727  0.0382
  922MOL0     O27129  10.040   2.186  11.004  0.3226 -0.6271  0.1729
  922MOL0     C27130  10.156   2.251  11.037 -1.3273 -0.4732 -0.5636
  922MOL0     C27131  10.283   2.200  11.006  0.2467 -0.3634  0.4433
  922MOL0     C27132  10.402   2.270  11.032  0.0442 -0.4218 -0.2499
  922MOL0     C27133  10.396   2.388  11.114 -0.5056 -1.1743  0.0611
  922MOL0     O27134  10.527   2.444  11.144 -0.1416  1.7577  0.1649
  922MOL0     C27135  10.529   2.559  11.224  0.0294  0.0864 -0.4481
  922MOL0     C27136  10.668   2.603  11.238 -0.1081 -0.2413  0.3382
  922MOL0     C27137  10.675   2.733  11.323 -0.5985  0.0601 -0.4835
  922MOL0     C27138  10.696   2.701  11.475 -1.4476  0.1703 -0.2128
  922MOL0     C27139  10.725   2.825  11.564 -0.1553  0.2084  0.6722
  922MOL0     C27140  10.606   2.919  11.579  0.6012 -0.7748 -0.1850
  922MOL0     C27141  10.626   3.056  11.654  0.8030 -0.7397  0.8351
  922MOL0     C27142  10.497   3.133  11.633  0.4063 -0.0758 -0.7850
  922MOL0    Cl27143  10.518   3.284  11.727  0.2186 -0.2415  0.0847
  922MOL0     C27144  10.277   2.437  11.154  0.3851 -0.6656 -0.2678
  922MOL0     C27145  10.154   2.375  11.113 -0.1990  0.2755  0.3706
  922MOL0     O27146  10.086   1.979  11.086 -0.5432 -0.0143  0.0940
  922MOL0     C27147   9.842   1.878  11.003  0.1350 -0.0723 -0.2784
  922MOL0     C27148   9.743   1.805  10.934 -0.1721  0.8467  0.3823
  922MOL0     N27149   9.169   1.319  10.531 -0.2840 -0.2950 -0.2592
  922MOL0     N27150   9.221   1.227  10.443  0.3603 -0.4082 -0.1165
  922MOL0     C27151  10.301   0.598  10.605 -0.5684  0.5334 -0.2078
  922MOL0     C27152  10.397   0.505  10.659 -0.5359 -0.4620 -0.3024
  922MOL0     C27153  10.567   0.083  10.777 -0.5586 -0.0567 -0.2505
  922MOL0     C27154  10.691   0.144  10.813 -0.5687  0.0608  0.1357
  922MOL0     C27155  10.794   0.064  10.883  0.3379 -0.3988  0.0219
  922MOL0     C27156  10.777  -0.068  10.916  0.0095  0.3518  0.3124
  922MOL0     O27157  10.876  -0.133  10.982  0.3938  0.1467 -0.4536
  922MOL0     C27158  10.899  -0.275  10.964  0.4899  0.0319 -0.6682
  922MOL0     C27159  10.968  -0.293  10.831 -0.0487 -0.2656  0.6833
  922MOL0     C27160  10.996  -0.432  10.790  0.0944  0.6251  0.1517
  922MOL0     C27161  11.021  -0.443  10.642 -0.2248  0.0929 -0.5514
  922MOL0     C27162  11.055  -0.586  10.597 -0.0070 -1.1174  0.4892
  922MOL0     C27163  11.098  -0.695  10.562  0.0456  0.1098  0.4852
  922MOL0     C27164  10.656  -0.128  10.870 -0.2510  0.4459 -0.3757
  922MOL0     C27165  10.554  -0.048  10.811 -0.5519  0.1810 -0.2011
  922MOL0     C27166  10.422  -0.121  10.816  0.7081  0.5987 -0.1438
  922MOL0     H27167  10.316   0.230  10.489  3.1968  0.0664  0.6665
  922MOL0     H27168  10.152   0.376  10.394  1.5736  0.1397 -1.6661
  922MOL0     H27169  10.111   0.811  10.552 -0.3781  0.8852  1.3302
  922MOL0     H27170   9.996   0.696  10.600  5.8835 -0.6286  1.6635
  922MOL0     H27171   9.992   0.825  10.323 -2.4482 -1.6153 -2.2076
  922MOL0     H27172   9.867   0.718  10.376  0.6039 -0.4973  2.3457
  922MOL0     H27173   9.834   0.878  10.577  2.4693 -2.1576 -0.1347
  922MOL0     H27174   9.931   0.995  10.494 -1.5922  0.9133 -0.8136
  922MOL0     H27175   9.753   0.987  10.293  1.1571  0.2900  1.2773
  922MOL0     H27176   9.671   0.860  10.386  1.4360 -0.7682 -1.9022
  922MOL0     H27177   9.715   1.143  10.497  1.8124 -0.7221  0.7286
  922MOL0     H27178   9.634   1.002  10.569  1.2327  0.2599  1.3147
  922MOL0     H27179   9.475   0.993  10.385 -0.3041  0.0275  0.2114
  922MOL0     H27180   9.453   1.120  10.498  1.3924  0.2098  0.3079
  922MOL0     H27181   9.569   1.155  10.217  0.5390  1.7361  0.1951
  922MOL0     H27182   9.581   1.282  10.342 -0.9553  1.4792  0.5693
  922MOL0     H27183   9.396   1.325  10.182 -2.2695 -0.1664  0.1383
  922MOL0     H27184   9.342   1.159  10.198  0.4044  0.7243 -2.5163
  922MOL0     H27185   9.377   1.503  10.361 -2.3603  0.6623  0.2369
  922MOL0     H27186   9.204   1.528  10.710 -0.2975 -1.1942 -0.2790
  922MOL0     H27187   9.142   1.604  10.561  1.0809 -1.4781 -2.6334
  922MOL0     H27188   9.438   1.571  10.626  0.4669 -0.8001 -1.7570
  922MOL0     H27189   9.358   1.695  10.515 -0.6023 -0.5000  0.2271
  922MOL0     H27190   9.252   1.813  10.690 -0.8792  0.2534  1.6512
  922MOL0     H27191   9.339   1.702  10.811  1.9871 -2.1811 -0.9805
  922MOL0     H27192   9.488   1.874  10.608  1.0405  1.2260  1.3285
  922MOL0     H27193   9.448   1.923  10.772 -0.3003 -0.2416 -0.6483
  922MOL0     H27194   9.689   1.996  10.666  3.2721  0.8847 -0.5371
  922MOL0     H27195   9.903   2.111  10.653 -2.0060  0.3182 -0.6891
  922MOL0     H27196   9.980   2.206  10.786 -0.1859 -2.1615  0.6438
  922MOL0     H27197   9.813   2.237  10.732  2.0454  1.0438 -3.5224
  922MOL0     H27198  10.293   2.111  10.944 -0.6895  0.8110 -1.5000
  922MOL0     H27199  10.499   2.236  10.995 -0.6100 -3.0807  0.2683
  922MOL0     H27200  10.463   2.635  11.183 -3.4726 -1.0074  2.6565
  922MOL0     H27201  10.488   2.533  11.322 -2.3093  0.6019 -1.2369
  922MOL0     H27202  10.731   2.527  11.285  1.3062  1.9417  2.1605
  922MOL0     H27203  10.709   2.625  11.139 -0.4696  1.5309  0.5542
  922MOL0     H27204  10.583   2.791  11.308 -1.9467 -1.0602  2.5819
  922MOL0     H27205  10.761   2.788  11.285 -0.8000 -1.4373 -3.4611
  922MOL0     H27206  10.778   2.629  11.471 -0.7502  0.9947 -1.2641
  922MOL0     H27207  10.608   2.649  11.515  0.0639 -0.7293  2.1655
  922MOL0     H27208  10.756   2.786  11.661  1.0842 -0.7625 -0.0784
  922MOL0     H27209  10.806   2.882  11.517 -0.5491  3.1979  3.3107
  922MOL0     H27210  10.531   2.870  11.642  1.7798 -1.9938  0.3193
  922MOL0     H27211  10.561   2.944  11.482  0.0175  2.1592  0.7515
  922MOL0     H27212  10.713   3.115  11.623  2.2198 -1.8276  2.5254
  922MOL0     H27213  10.647   3.034  11.759 -3.3717 -0.6728  1.8408
  922MOL0     H27214  10.411   3.072  11.663  1.0756  0.4130  2.5517
  922MOL0     H27215  10.480   3.159  11.528  1.0524 -1.1345 -1.1629
  922MOL0     H27216  10.269   2.523  11.220 -1.0981 -0.6429 -0.4452
  922MOL0     H27217  10.060   2.411  11.153 -0.1862 -1.6727  2.3256
  922MOL0     H27218   9.879   1.815  11.083  0.4266  0.9732  0.4227
  922MOL0     H27219   9.699   1.714  10.974 -0.3475  1.2588  1.1376
  922MOL0     H27220  10.305   0.702  10.635  2.6529 -0.4043  3.5775
  922MOL0     H27221  10.471   0.530  10.735 -1.3011  0.9047  0.0285
  922MOL0     H27222  10.723   0.244  10.785 -3.6448  1.0802 -0.0294
  922MOL0     H27223  10.886   0.115  10.912  1.0186 -1.4431 -0.2410
  922MOL0     H27224  10.969  -0.309  11.042 -1.0670  0.0059  0.7767
  922MOL0     H27225  10.813  -0.336  10.994  1.0883  1.2933  4.5341
  922MOL0     H27226  11.059  -0.233  10.823 -1.2369  1.3901 -0.9338
  922MOL0     H27227  10.905  -0.243  10.758  1.0181 -1.3019 -1.0098
  922MOL0     H27228  11.078  -0.473  10.850 -0.6820  1.1151  1.5787
  922MOL0     H27229  10.919  -0.505  10.815 -0.0006  0.5084 -0.4531
  922MOL0     H27230  11.095  -0.369  10.611 -1.1146  1.1679 -0.1563
  922MOL0     H27231  10.927  -0.423  10.591 -1.2143 -2.0894  0.2912
  922MOL0     H27232  11.151  -0.788  10.555 -0.2038  0.0339 -0.5348
  922MOL0     H27233  10.637  -0.231  10.900  2.0977  0.1868  0.4027
  922MOL0     H27234  10.365  -0.077  10.898  1.0079 -0.1266  0.4753
  922MOL0     H27235  10.367  -0.122  10.722  2.3371  1.3255 -1.1530
  922MOL0     H27236  10.433  -0.227  10.844 -0.2887  0.0170 -1.8635
  923MOL0     O27237   1.433   1.155   0.504 -0.3247 -0.0392 -0.4425
  923MOL0     C27238   1.379   1.098   0.413  0.1979  0.0218 -0.2625
  923MOL0     O27239   1.447   1.036   0.315  0.1367  0.3846  0.0927
  923MOL0     C27240   1.585   1.035   0.325  0.6733  0.3751 -0.4410
  923MOL0     C27241   1.655   0.924   0.382  1.1013  0.7608 -0.1217
  923MOL0     C27242   1.795   0.939   0.389 -0.5476 -0.0516 -1.0835
  923MOL0     C27243   1.865   1.054   0.337  0.2857  0.3279  0.1281
  923MOL0     O27244   2.005   1.077   0.338  1.1822 -1.2875  0.5919
  923MOL0     C27245   2.087   0.997   0.412 -0.1727 -0.6066 -0.8653
  923MOL0     C27246   2.225   1.002   0.343 -0.5823 -0.2992  0.3919
  923MOL0     C27247   2.279   1.145   0.331  0.6239 -0.3124 -0.5268
  923MOL0     C27248   2.421   1.132   0.285 -0.2810  0.2678  0.0867
  923MOL0     C27249   2.493   1.267   0.242 -0.9255  0.2023  0.1839
  923MOL0     C27250   2.633   1.247   0.179  0.1636  0.5203 -0.0007
  923MOL0     C27251   2.693   1.378   0.138 -0.0733  0.8045 -0.2016
  923MOL0     C27252   2.756   1.445   0.261  0.4999 -0.1851  1.2165
  923MOL0     N27253   2.814   1.575   0.229  0.3666 -0.4674 -0.4961
  923MOL0     C27254   2.877   1.607   0.111 -0.7176  0.5483  0.5720
  923MOL0     C27255   2.911   1.736   0.129  0.2034  0.0551  0.2883
  923MOL0     C27256   2.995   1.811   0.029  0.1947 -0.4127  0.1789
  923MOL0     C27257   2.931   1.910  -0.072 -0.2999  0.0367  0.1362
  923MOL0     C27258   2.848   1.843  -0.184  0.4607 -0.8613  0.1790
  923MOL0     C27259   2.787   1.933  -0.283  0.2219  1.4582 -0.4016
  923MOL0     O27260   2.697   1.847  -0.363 -0.1776 -0.8011 -0.6923
  923MOL0     C27261   2.602   1.915  -0.429  0.0854 -0.0708  1.4746
  923MOL0     C27262   2.620   2.021  -0.520 -0.6606  0.2340 -0.0336
  923MOL0     C27263   2.516   2.077  -0.581 -0.2999  0.2887  0.0926
  923MOL0     C27264   2.559   2.197  -0.663 -0.3746  0.9228  0.2051
  923MOL0     C27265   2.383   2.035  -0.554 -0.2538  0.8443  0.2638
  923MOL0     C27266   2.265   2.107  -0.610  0.2760  0.5089 -0.1255
  923MOL0     O27267   2.160   2.023  -0.616 -0.1338  0.4938 -0.1223
  923MOL0     C27268   2.044   2.071  -0.656  0.1607  0.1084  0.0323
  923MOL0     C27269   2.024   2.130  -0.784 -0.2417  0.0155 -0.0848
  923MOL0     C27270   1.897   2.179  -0.820 -0.0786 -0.7521  1.0950
  923MOL0     C27271   1.787   2.164  -0.738  0.2584  0.1621  0.1718
  923MOL0     O27272   1.659   2.197  -0.776 -0.3841 -0.0725  0.3383
  923MOL0     C27273   1.642   2.304  -0.877 -0.0903 -0.4187  0.4491
  923MOL0     C27274   1.503   2.357  -0.879  0.2893  0.2012 -0.4655
  923MOL0     C27275   1.415   2.241  -0.930 -0.0638  1.4479 -0.5138
  923MOL0     C27276   1.270   2.288  -0.951 -0.3153 -0.0925 -0.5868
  923MOL0     C27277   1.174   2.177  -0.968 -0.1757 -0.1719 -1.1471
  923MOL0     C27278   1.041   2.233  -0.985  0.1890 -0.0304  0.4295
  923MOL0     C27279   0.928   2.123  -0.978  0.1583  0.3282 -0.3496
  923MOL0     C27280   0.794   2.162  -1.044 -0.2618 -0.3854  0.1016
  923MOL0    Cl27281   0.825   2.160  -1.222  0.1444  0.3414 -0.1170
  923MOL0     C27282   1.809   2.106  -0.613 -0.2266 -0.1253 -0.0066
  923MOL0     C27283   1.936   2.062  -0.572  0.3623  0.4812 -0.2992
  923MOL0     O27284   2.269   2.227  -0.640  0.3722 -0.5069  0.6268
  923MOL0     C27285   2.365   1.914  -0.485 -0.1084  1.1404 -0.4438
  923MOL0     C27286   2.472   1.860  -0.413 -0.1482 -1.6446 -0.3635
  923MOL0     N27287   2.861   1.785   0.252  0.6650 -0.3290 -0.3852
  923MOL0     N27288   2.818   1.676   0.316 -0.9089 -0.1873 -0.6925
  923MOL0     C27289   1.784   1.151   0.268  0.2713  0.1152  0.3317
  923MOL0     C27290   1.645   1.143   0.269 -0.2581  0.2525 -0.4077
  923MOL0     C27291   1.233   1.104   0.413 -0.2076 -0.6530  0.9001
  923MOL0     C27292   1.168   1.106   0.533 -0.7019  0.5993  0.2068
  923MOL0     C27293   1.027   1.108   0.542  0.1370 -0.0207 -0.0959
  923MOL0     C27294   0.947   1.122   0.425 -0.8196  0.8644  0.0112
  923MOL0     O27295   0.810   1.140   0.448 -0.5667  0.8744  0.1503
  923MOL0     C27296   0.752   1.206   0.336  0.0249 -0.1209 -0.3187
  923MOL0     C27297   0.620   1.247   0.388  0.1767 -0.7737  0.2666
  923MOL0     C27298   0.500   1.211   0.294 -0.2110 -0.1619 -0.1841
  923MOL0     C27299   0.370   1.280   0.320  0.0351  0.6389  0.0581
  923MOL0     C27300   0.380   1.425   0.307  0.1933  0.0953 -0.5397
  923MOL0     C27301   0.368   1.547   0.278 -1.2168  0.2235  0.1240
  923MOL0     C27302   1.009   1.110   0.305  0.2250  0.3071 -0.1000
  923MOL0     C27303   1.149   1.090   0.292 -0.7416  0.9927 -0.2892
  923MOL0     C27304   1.187   1.085   0.149  0.1589 -0.2835  1.2643
  923MOL0     H27305   1.607   0.830   0.409 -0.8736  1.4463 -1.0049
  923MOL0     H27306   1.837   0.854   0.443 -5.4119 -1.8440  0.3589
  923MOL0     H27307   2.047   0.895   0.416 -0.3695 -0.4970  1.7019
  923MOL0     H27308   2.098   1.039   0.513  0.8475 -1.9973 -0.3754
  923MOL0     H27309   2.300   0.934   0.384  0.3279  0.6548  0.3676
  923MOL0     H27310   2.215   0.981   0.236 -0.8602  3.3576 -0.4543
  923MOL0     H27311   2.219   1.208   0.265 -0.1508 -0.9023 -0.3976
  923MOL0     H27312   2.287   1.193   0.429  2.7610  0.1223 -0.8547
  923MOL0     H27313   2.472   1.075   0.363  0.2373 -1.4050 -1.4227
  923MOL0     H27314   2.409   1.065   0.199  0.3780 -1.8236  1.5355
  923MOL0     H27315   2.488   1.335   0.328  1.2110  1.2167 -0.4267
  923MOL0     H27316   2.432   1.322   0.169 -0.8345 -0.8062 -0.6715
  923MOL0     H27317   2.690   1.194   0.255 -0.7330  2.9218  2.5126
  923MOL0     H27318   2.619   1.182   0.092  1.7166 -1.6764  1.2810
  923MOL0     H27319   2.624   1.438   0.078 -0.2513 -1.3297 -2.2793
  923MOL0     H27320   2.776   1.347   0.075  0.1206  0.0796  0.3946
  923MOL0     H27321   2.671   1.471   0.325 -2.1836 -0.4659 -1.9704
  923MOL0     H27322   2.819   1.379   0.322 -0.6459 -1.6725  0.8434
  923MOL0     H27323   2.900   1.532   0.035  1.9964  0.1966  1.6354
  923MOL0     H27324   3.048   1.740  -0.036  0.3477  0.7080 -0.9577
  923MOL0     H27325   3.067   1.865   0.092 -0.9131  1.1761  0.1380
  923MOL0     H27326   2.873   1.971  -0.002 -1.1378  0.1129 -0.6117
  923MOL0     H27327   3.009   1.965  -0.125 -0.4612 -0.7156 -0.9008
  923MOL0     H27328   2.918   1.777  -0.237  1.3119 -0.8940  1.3199
  923MOL0     H27329   2.776   1.778  -0.134 -2.1083 -0.0524 -2.1951
  923MOL0     H27330   2.723   2.007  -0.234 -1.0297 -0.1280  0.4468
  923MOL0     H27331   2.868   1.975  -0.344  0.6885  1.9924  0.5742
  923MOL0     H27332   2.723   2.045  -0.541 -0.5718  1.2419  1.4326
  923MOL0     H27333   2.624   2.155  -0.740 -2.8528 -0.3938 -1.2678
  923MOL0     H27334   2.625   2.267  -0.610 -1.1653  0.7250  1.4902
  923MOL0     H27335   2.476   2.253  -0.708 -3.4612 -1.6930  2.2184
  923MOL0     H27336   2.110   2.147  -0.848  0.1352 -2.3996 -0.3192
  923MOL0     H27337   1.895   2.224  -0.918  1.8878 -0.2156  1.2379
  923MOL0     H27338   1.714   2.384  -0.859  0.2302 -1.1881  3.1536
  923MOL0     H27339   1.649   2.274  -0.982 -2.3829  0.0026  0.1325
  923MOL0     H27340   1.458   2.380  -0.783 -2.0662 -1.4547 -1.0632
  923MOL0     H27341   1.493   2.448  -0.938  0.9624 -0.3083 -1.3892
  923MOL0     H27342   1.426   2.159  -0.859 -0.5097  1.9219  0.1270
  923MOL0     H27343   1.443   2.194  -1.024  2.1230 -1.9966  1.6557
  923MOL0     H27344   1.276   2.345  -1.044 -1.9038 -1.4251 -1.5736
  923MOL0     H27345   1.237   2.353  -0.869  0.3780 -1.2549  0.6584
  923MOL0     H27346   1.205   2.108  -1.047 -0.2522 -1.5794  0.0006
  923MOL0     H27347   1.173   2.121  -0.874  0.3920  0.6079 -0.6643
  923MOL0     H27348   1.036   2.263  -1.090  0.5196  0.5871  0.5847
  923MOL0     H27349   1.034   2.306  -0.904  0.9755 -0.6991  1.1112
  923MOL0     H27350   0.911   2.103  -0.872 -1.2006  3.4494  0.1360
  923MOL0     H27351   0.960   2.030  -1.027 -0.0042  0.0853 -0.0043
  923MOL0     H27352   0.785   2.263  -1.005  1.9188  0.2658 -0.8867
  923MOL0     H27353   0.710   2.099  -1.015 -0.7232 -0.4561 -1.3144
  923MOL0     H27354   1.725   2.084  -0.548 -0.0611  0.1201  0.2925
  923MOL0     H27355   1.950   2.017  -0.475  0.3064 -0.5902 -0.7804
  923MOL0     H27356   2.271   1.865  -0.461 -0.3434  2.1912  0.9413
  923MOL0     H27357   2.452   1.766  -0.362 -0.8347 -0.7681  1.0692
  923MOL0     H27358   1.838   1.233   0.223  1.6544 -0.0008  1.6825
  923MOL0     H27359   1.588   1.227   0.232  0.5476  1.4643  0.9671
  923MOL0     H27360   1.212   1.110   0.632  0.6918  3.2114 -0.4359
  923MOL0     H27361   0.987   1.121   0.642  1.6849  0.1844  0.5297
  923MOL0     H27362   0.804   1.298   0.307  0.2689 -1.0811 -3.2578
  923MOL0     H27363   0.735   1.139   0.251 -1.2806 -0.4107  0.1435
  923MOL0     H27364   0.609   1.356   0.400  1.7765 -0.4242 -0.9933
  923MOL0     H27365   0.602   1.192   0.480  1.3103 -2.7220 -0.6112
  923MOL0     H27366   0.517   1.222   0.186  1.5805 -0.2434  0.0548
  923MOL0     H27367   0.478   1.105   0.308 -0.7322 -0.1695 -0.9889
  923MOL0     H27368   0.346   1.267   0.426  0.8445 -3.2813 -0.0860
  923MOL0     H27369   0.293   1.230   0.262  0.2502 -0.2979  0.5598
  923MOL0     H27370   0.362   1.651   0.253 -2.9056 -0.5239 -3.0042
  923MOL0     H27371   0.962   1.123   0.208  1.3381 -0.5210 -0.7755
  923MOL0     H27372   1.199   1.187   0.110  1.3608 -0.0226  2.2429
  923MOL0     H27373   1.287   1.042   0.145 -1.1462 -3.7365  2.3737
  923MOL0     H27374   1.114   1.031   0.088 -1.5269  2.9622  0.1620
  924MOL0     O27375   5.887  10.314   7.773  0.1845  0.0881  1.1391
  924MOL0     C27376   5.865  10.332   7.650  0.1128 -0.2806  0.2376
  924MOL0     O27377   5.957  10.335   7.549  0.1266 -0.3450  0.1990
  924MOL0     C27378   6.092  10.301   7.576  0.1913 -0.2168  0.0124
  924MOL0     C27379   6.124  10.192   7.501 -0.0759 -0.2560  0.0515
  924MOL0     C27380   6.247  10.137   7.509  0.4256 -0.8106  0.0466
  924MOL0     C27381   6.345  10.206   7.587 -0.3595  0.2410  0.7201
  924MOL0     O27382   6.472  10.150   7.589 -0.0188 -0.4883 -0.2846
  924MOL0     C27383   6.513  10.074   7.470  0.1851 -0.2691 -0.3517
  924MOL0     C27384   6.661  10.035   7.454  0.4116 -0.3244  0.6277
  924MOL0     C27385   6.753  10.158   7.482 -0.0760  0.0479 -0.3161
  924MOL0     C27386   6.897  10.095   7.516  0.1963 -0.2866  0.4938
  924MOL0     C27387   7.002  10.209   7.497  0.0193  0.4719  0.2291
  924MOL0     C27388   7.138  10.150   7.504 -0.8796 -0.4126 -0.2541
  924MOL0     C27389   7.248  10.252   7.486 -0.6091 -0.0554 -1.1957
  924MOL0     C27390   7.380  10.184   7.517 -0.3847  1.4535  0.2160
  924MOL0     N27391   7.504  10.268   7.514  1.4847 -0.4360  0.7383
  924MOL0     C27392   7.558  10.334   7.623  0.1811  0.7845 -0.5158
  924MOL0     C27393   7.682  10.385   7.579  0.5881 -0.0207  0.1897
  924MOL0     C27394   7.781  10.447   7.665 -0.4002  0.6602 -0.5729
  924MOL0     C27395   7.852  10.353   7.762 -0.0923  0.1695  0.0675
  924MOL0     C27396   7.990  10.396   7.795 -0.7855 -0.3623 -0.1580
  924MOL0     C27397   8.033  10.323   7.922  0.0209  0.9399  0.9639
  924MOL0     O27398   8.142  10.392   7.981  0.2040  1.1581  0.3576
  924MOL0     C27399   8.227  10.333   8.070  0.9835  0.5255  0.2473
  924MOL0     C27400   8.345  10.401   8.104 -0.2037 -0.1057 -0.2780
  924MOL0     C27401   8.434  10.356   8.201  0.0904  0.0022  0.1628
  924MOL0     C27402   8.556  10.452   8.222  0.5453  0.2263 -0.2903
  924MOL0     C27403   8.411  10.231   8.265  0.1255  0.4305 -0.1328
  924MOL0     C27404   8.496  10.178   8.364 -0.3396 -0.0144 -0.4854
  924MOL0     O27405   8.501  10.046   8.366 -0.0256  0.2097  0.4016
  924MOL0     C27406   8.602   9.975   8.429  0.0751 -0.0694  0.6476
  924MOL0     C27407   8.737  10.016   8.418 -0.5745  0.7639 -0.5258
  924MOL0     C27408   8.846   9.931   8.452  0.2434 -0.9492 -0.4236
  924MOL0     C27409   8.811   9.801   8.482  0.1926  0.5595  0.5303
  924MOL0     O27410   8.913   9.713   8.494  0.1172  1.1921  0.7440
  924MOL0     C27411   8.992   9.735   8.612  0.5185  1.2196  0.1532
  924MOL0     C27412   9.088   9.620   8.610  0.1283  0.5521  0.4919
  924MOL0     C27413   9.193   9.646   8.723 -0.2091  0.2368 -0.0367
  924MOL0     C27414   9.301   9.733   8.688 -0.2748 -0.5108 -0.0915
  924MOL0     C27415   9.407   9.752   8.788 -0.5611  0.3692 -0.1309
  924MOL0     C27416   9.504   9.859   8.756 -0.3691  0.7648 -0.7868
  924MOL0     C27417   9.605   9.859   8.874 -0.5939 -0.1285  0.1159
  924MOL0     C27418   9.707   9.970   8.834  0.0498  0.6295 -0.5780
  924MOL0    Cl27419   9.861   9.970   8.928 -0.1024 -0.1399  0.1615
  924MOL0     C27420   8.675   9.756   8.499 -0.7977  0.1818  0.5310
  924MOL0     C27421   8.572   9.843   8.479  0.8209  0.3387  1.4711
  924MOL0     O27422   8.556  10.250   8.444  0.4152  0.3457  0.3794
  924MOL0     C27423   8.295  10.163   8.228  0.9648 -0.0663  1.0854
  924MOL0     C27424   8.199  10.211   8.132  0.7514  0.4570  0.0574
  924MOL0     N27425   7.690  10.357   7.441  0.1775  0.0448 -0.0916
  924MOL0     N27426   7.586  10.295   7.405  0.3430  0.0303  0.2492
  924MOL0     C27427   6.315  10.314   7.672 -0.0387  0.0046  0.4983
  924MOL0     C27428   6.180  10.358   7.671  0.0186 -0.6860 -0.0139
  924MOL0     C27429   5.722  10.368   7.610  0.2629 -0.3494 -0.2644
  924MOL0     C27430   5.633  10.404   7.709  0.0838  0.0082 -0.3086
  924MOL0     C27431   5.501  10.446   7.695 -0.0735 -0.6873  0.1511
  924MOL0     C27432   5.450  10.449   7.568 -0.4964 -0.1384 -0.3582
  924MOL0     O27433   5.316  10.481   7.546 -0.6073  0.3107 -0.7306
  924MOL0     C27434   5.236  10.546   7.650 -0.3098 -0.6359  0.4651
  924MOL0     C27435   5.101  10.583   7.580  0.3244  0.4170 -0.0860
  924MOL0     C27436   5.038  10.700   7.644  0.2364  0.2129 -0.0557
  924MOL0     C27437   4.905  10.730   7.581 -0.1829  0.1151  0.4634
  924MOL0     C27438   4.809  10.813   7.646  0.0357 -0.3634  0.5978
  924MOL0     C27439   4.727  10.880   7.699 -0.3221 -0.0905  0.3249
  924MOL0     C27440   5.531  10.410   7.462 -0.5911 -0.3336 -0.6435
  924MOL0     C27441   5.663  10.369   7.476 -0.3150 -0.5806 -0.6428
  924MOL0     C27442   5.744  10.317   7.356  0.0748  0.3507  0.4234
  924MOL0     H27443   6.059  10.150   7.425  1.8558 -1.9228 -0.7787
  924MOL0     H27444   6.260  10.038   7.465  2.5533 -0.0040 -1.2955
  924MOL0     H27445   6.477  10.125   7.380 -0.5805  1.3695  0.8364
  924MOL0     H27446   6.466   9.976   7.476  1.5364 -0.8566  1.4522
  924MOL0     H27447   6.692   9.952   7.519  0.5343  0.5922  1.7667
  924MOL0     H27448   6.671  10.008   7.349  0.0381  0.3400  0.4193
  924MOL0     H27449   6.770  10.211   7.387  0.2524 -1.0674 -0.8967
  924MOL0     H27450   6.720  10.218   7.567  1.0420  0.7614 -0.3722
  924MOL0     H27451   6.904  10.052   7.616 -0.9479  3.1027  2.2030
  924MOL0     H27452   6.917  10.012   7.447 -1.2962 -0.6970  0.5096
  924MOL0     H27453   6.993  10.284   7.577 -0.3056  2.6893 -1.7634
  924MOL0     H27454   6.982  10.247   7.396 -2.2971  2.0441  1.1789
  924MOL0     H27455   7.141  10.094   7.598 -1.1035  1.0827  0.6627
  924MOL0     H27456   7.151  10.081   7.420 -0.9083 -0.7724  0.0344
  924MOL0     H27457   7.223  10.320   7.567 -0.0493 -1.5485  0.2995
  924MOL0     H27458   7.250  10.310   7.394  1.3002  1.9654  0.0283
  924MOL0     H27459   7.370  10.148   7.620  2.6396 -0.4874 -0.0338
  924MOL0     H27460   7.387  10.096   7.453 -0.3335 -0.0820  2.2422
  924MOL0     H27461   7.525  10.339   7.727  3.6299 -0.3724  0.7958
  924MOL0     H27462   7.733  10.518   7.733 -1.1739 -0.4827  0.0973
  924MOL0     H27463   7.842  10.513   7.602 -0.3978  0.7413 -0.4865
  924MOL0     H27464   7.792  10.333   7.852 -1.6285 -1.2432 -1.1962
  924MOL0     H27465   7.864  10.258   7.709  1.2852  0.8552 -0.8876
  924MOL0     H27466   8.063  10.381   7.714  0.3350  1.0016  0.5444
  924MOL0     H27467   7.983  10.504   7.805  2.3104 -0.1175  0.4692
  924MOL0     H27468   7.949  10.324   7.993 -1.9233  4.0731 -1.1339
  924MOL0     H27469   8.055  10.223   7.886 -0.1975  0.7301  1.4063
  924MOL0     H27470   8.350  10.504   8.069  0.1428 -1.0702 -3.3208
  924MOL0     H27471   8.550  10.504   8.318  0.9184  2.3265 -1.3434
  924MOL0     H27472   8.546  10.526   8.141 -0.9926  2.1203  1.5335
  924MOL0     H27473   8.652  10.400   8.217 -0.5913 -2.1063  1.0747
  924MOL0     H27474   8.750  10.120   8.393  1.1026  0.9385  0.8630
  924MOL0     H27475   8.953   9.951   8.447  0.5212 -2.1765  0.1919
  924MOL0     H27476   9.043   9.831   8.606  0.3429  1.3320  0.4314
  924MOL0     H27477   8.927   9.735   8.700 -0.7090  0.5985 -0.7147
  924MOL0     H27478   9.050   9.522   8.640  3.9359 -0.9169  1.1872
  924MOL0     H27479   9.128   9.605   8.509  2.3369 -0.1204  1.3884
  924MOL0     H27480   9.229   9.549   8.760 -0.2530 -0.3757 -1.5354
  924MOL0     H27481   9.133   9.700   8.797  0.4938  0.1107  0.6329
  924MOL0     H27482   9.262   9.832   8.663 -0.9363 -0.5749  0.6679
  924MOL0     H27483   9.332   9.686   8.593 -2.3070 -1.0356 -0.5429
  924MOL0     H27484   9.353   9.779   8.880  1.4323  0.8762  0.9461
  924MOL0     H27485   9.458   9.657   8.805  1.6106  1.1855 -1.6908
  924MOL0     H27486   9.458   9.958   8.762 -0.7888  0.7517 -2.8749
  924MOL0     H27487   9.553   9.846   8.659 -1.5680  0.6498 -1.4006
  924MOL0     H27488   9.651   9.760   8.871  1.4956  0.7741  0.5644
  924MOL0     H27489   9.577   9.881   8.978 -0.3591  0.4591  0.0577
  924MOL0     H27490   9.660  10.069   8.833  0.5374  0.9100 -3.0653
  924MOL0     H27491   9.744   9.942   8.734  0.6744 -0.4351 -0.0686
  924MOL0     H27492   8.663   9.659   8.548  0.3978  0.8365  2.2230
  924MOL0     H27493   8.470   9.807   8.493  0.5947 -0.2112 -1.0465
  924MOL0     H27494   8.277  10.071   8.283  2.9071  1.3271  4.2824
  924MOL0     H27495   8.111  10.156   8.103  0.8409  0.4371 -0.1758
  924MOL0     H27496   6.388  10.360   7.737  0.9558 -0.6870 -0.1072
  924MOL0     H27497   6.154  10.444   7.732 -1.4016 -1.7399  0.9165
  924MOL0     H27498   5.671  10.422   7.809 -0.0282 -0.9532 -0.0820
  924MOL0     H27499   5.453  10.482   7.786 -1.2541 -0.4574 -0.5442
  924MOL0     H27500   5.216  10.466   7.722  1.2019 -0.0218  1.6287
  924MOL0     H27501   5.282  10.636   7.692 -1.7007 -0.3741  1.5172
  924MOL0     H27502   5.034  10.496   7.578  0.8482  0.0010  0.3724
  924MOL0     H27503   5.128  10.621   7.481 -1.4421  0.6885 -0.5054
  924MOL0     H27504   5.016  10.673   7.748 -2.9038 -0.1097 -0.7124
  924MOL0     H27505   5.115  10.778   7.648  0.9049 -0.4716  3.1308
  924MOL0     H27506   4.853  10.634   7.586 -1.4199  0.7789  0.6375
  924MOL0     H27507   4.927  10.759   7.478  1.1812 -0.3752  0.5909
  924MOL0     H27508   4.652  10.942   7.744  0.8745  1.5646  0.0967
  924MOL0     H27509   5.483  10.408   7.364 -0.5020  0.2477 -0.6985
  924MOL0     H27510   5.683  10.328   7.266 -0.7522  1.3544  1.0784
  924MOL0     H27511   5.828  10.387   7.345  1.7333 -1.1569  2.6086
  924MOL0     H27512   5.779  10.216   7.378  0.4286  1.1945  4.7302
  925MOL0     O27513  11.205   6.115  10.505 -0.1597  0.0686  0.9379
  925MOL0     C27514  11.088   6.131  10.541 -1.0379  1.0362  0.1540
  925MOL0     O27515  11.039   6.071  10.655  0.0464  0.1647  0.3071
  925MOL0     C27516  11.134   6.015  10.733 -0.3264 -0.2156 -0.8921
  925MOL0     C27517  11.202   6.093  10.822 -0.0422  0.0287  0.0059
  925MOL0     C27518  11.289   6.045  10.912 -0.0120  0.2025 -0.2767
  925MOL0     C27519  11.320   5.903  10.912 -0.1697  0.1272  0.1030
  925MOL0     O27520  11.424   5.838  10.983 -0.3110 -0.8238  0.7010
  925MOL0     C27521  11.510   5.922  11.063 -0.0048 -0.1269 -0.4849
  925MOL0     C27522  11.619   5.842  11.132  0.0449  0.3718  0.0260
  925MOL0     C27523  11.551   5.763  11.243 -0.4017  0.2232 -1.5663
  925MOL0     C27524  11.649   5.668  11.313 -0.5392  0.6168  0.1517
  925MOL0     C27525  11.581   5.603  11.425 -0.1309  1.1691 -0.9448
  925MOL0     C27526  11.647   5.470  11.467  0.5962  0.6129  0.2151
  925MOL0     C27527  11.560   5.396  11.570  1.1969 -0.7216  1.0622
  925MOL0     C27528  11.606   5.250  11.602 -0.4930 -0.3970  0.1729
  925MOL0     N27529  11.755   5.247  11.620  1.0696 -0.2087  0.5652
  925MOL0     C27530  11.821   5.320  11.719  0.2385  0.6535 -0.5671
  925MOL0     C27531  11.944   5.271  11.727  0.2916  0.7197  0.4939
  925MOL0     C27532  12.066   5.322  11.799  1.1006  0.0829  0.0625
  925MOL0     C27533  12.102   5.462  11.743  0.3031  0.3830 -0.5623
  925MOL0     C27534  12.201   5.447  11.625  0.0657  0.6063 -0.6584
  925MOL0     C27535  12.263   5.574  11.560 -0.4938 -0.2344  0.1037
  925MOL0     O27536  12.374   5.629  11.638  0.9007 -0.1119  0.0958
  925MOL0     C27537  12.467   5.721  11.584 -0.2523  0.1555  0.3410
  925MOL0     C27538  12.588   5.755  11.651 -0.0804  0.6334 -0.0960
  925MOL0     C27539  12.672   5.859  11.591 -0.4122 -0.0273 -0.6406
  925MOL0     C27540  12.792   5.904  11.678  0.1765 -0.3653 -0.6680
  925MOL0     C27541  12.641   5.922  11.470  0.1397 -0.3362 -0.1460
  925MOL0     C27542  12.748   5.988  11.381  0.6304 -0.4742 -0.0376
  925MOL0     O27543  12.700   6.045  11.261  0.5498  0.2263  0.1350
  925MOL0     C27544  12.794   6.113  11.180  0.0796 -0.2688  0.0330
  925MOL0     C27545  12.804   6.246  11.188 -0.3513 -0.3292 -0.2625
  925MOL0     C27546  12.884   6.318  11.108  0.1521  0.1613 -0.6098
  925MOL0     C27547  12.974   6.259  11.017 -0.2630 -0.3896  0.1821
  925MOL0     O27548  13.066   6.331  10.942  0.9067  1.1528 -0.0421
  925MOL0     C27549  13.083   6.476  10.962  0.0953  0.3943  0.4269
  925MOL0     C27550  13.207   6.544  10.895  0.0122 -0.3193 -0.8532
  925MOL0     C27551  13.220   6.494  10.752  0.4409 -0.0560  0.3541
  925MOL0     C27552  13.328   6.575  10.676 -0.3730  0.2407 -0.2779
  925MOL0     C27553  13.341   6.514  10.530  0.5081  0.4266  0.1243
  925MOL0     C27554  13.445   6.597  10.453  0.6252 -0.3008  0.1479
  925MOL0     C27555  13.588   6.540  10.480  0.3306  0.8174  0.2667
  925MOL0     C27556  13.696   6.638  10.414 -0.6005  0.7062 -0.0240
  925MOL0    Cl27557  13.835   6.648  10.529 -0.0981  0.2931  0.3366
  925MOL0     C27558  12.967   6.120  11.014  0.0452  0.5032  0.0018
  925MOL0     C27559  12.874   6.042  11.086  0.1635  0.0972 -0.8989
  925MOL0     O27560  12.867   5.993  11.410 -0.2311  0.0201 -0.4803
  925MOL0     C27561  12.514   5.886  11.415  0.0430 -0.0619  0.3917
  925MOL0     C27562  12.427   5.796  11.471 -0.3974  0.1079  0.5788
  925MOL0     N27563  11.957   5.184  11.617  0.4603  0.1259  0.0095
  925MOL0     N27564  11.847   5.167  11.556  0.4110 -0.4295 -0.3665
  925MOL0     C27565  11.256   5.827  10.807  0.7110 -0.5403 -0.1308
  925MOL0     C27566  11.151   5.878  10.726 -0.0682 -0.0324  0.0707
  925MOL0     C27567  10.988   6.189  10.449 -0.2346 -0.6140  0.5057
  925MOL0     C27568  10.850   6.191  10.498 -0.1006 -0.0672 -0.2746
  925MOL0     C27569  10.750   6.248  10.422 -0.9008  0.5946 -0.1050
  925MOL0     C27570  10.787   6.321  10.308 -0.3446  0.2560  0.3598
  925MOL0     O27571  10.689   6.392  10.243  0.4916  0.4341  0.1062
  925MOL0     C27572  10.554   6.346  10.238  0.3956  0.5099  0.0265
  925MOL0     C27573  10.485   6.427  10.127 -0.2338  0.8386 -0.0493
  925MOL0     C27574  10.496   6.581  10.149 -0.0098 -0.3401  0.5519
  925MOL0     C27575  10.504   6.647  10.010 -0.3304 -0.1532 -0.5870
  925MOL0     C27576  10.377   6.640   9.948 -0.6151 -0.4689  0.0444
  925MOL0     C27577  10.274   6.621   9.886  0.5861 -1.5163 -1.0440
  925MOL0     C27578  10.925   6.330  10.262  0.4810  0.3254 -0.1748
  925MOL0     C27579  11.019   6.241  10.320 -0.0893 -0.3871 -0.1579
  925MOL0     C27580  11.142   6.219  10.244  0.6153 -0.1441  0.5609
  925MOL0     H27581  11.187   6.200  10.835  2.8197  0.6662 -1.1038
  925MOL0     H27582  11.341   6.109  10.983  1.4856 -2.7952  1.5295
  925MOL0     H27583  11.458   5.971  11.146  2.2659 -0.5154  1.2450
  925MOL0     H27584  11.546   6.001  10.996  1.7572  0.8177  1.4408
  925MOL0     H27585  11.655   5.767  11.061 -2.7385  1.3166 -2.6206
  925MOL0     H27586  11.696   5.908  11.172  1.0419 -1.5735  1.4632
  925MOL0     H27587  11.506   5.836  11.311  0.9630 -1.0109  0.8043
  925MOL0     H27588  11.470   5.709  11.194 -1.1154  0.5954 -0.8079
  925MOL0     H27589  11.675   5.602  11.230 -0.8328  1.5870 -0.7420
  925MOL0     H27590  11.742   5.717  11.345 -0.5981  0.0312  1.2688
  925MOL0     H27591  11.476   5.584  11.401 -0.5160 -2.0240  2.2425
  925MOL0     H27592  11.569   5.671  11.510  0.6160  0.2323 -0.0615
  925MOL0     H27593  11.663   5.398  11.386 -1.4497 -1.1746  1.2831
  925MOL0     H27594  11.745   5.488  11.511  1.1051 -1.1476 -0.1200
  925MOL0     H27595  11.460   5.388  11.525  0.8683  3.4047  0.6911
  925MOL0     H27596  11.542   5.452  11.662 -1.2541 -0.5627  0.5593
  925MOL0     H27597  11.563   5.226  11.699 -0.1272  2.0128  1.0113
  925MOL0     H27598  11.578   5.179  11.523  0.8406  0.2799 -0.9637
  925MOL0     H27599  11.785   5.405  11.778 -0.5276 -0.3494  0.4736
  925MOL0     H27600  12.144   5.245  11.795 -1.6251 -3.1047  2.6866
  925MOL0     H27601  12.024   5.345  11.897 -2.1097 -1.1235 -0.9210
  925MOL0     H27602  12.017   5.526  11.717 -1.3804 -1.6926 -0.5471
  925MOL0     H27603  12.158   5.511  11.822  0.6931 -1.0249  0.0710
  925MOL0     H27604  12.278   5.377  11.658 -0.7209  0.4561  0.9243
  925MOL0     H27605  12.140   5.403  11.546  0.1715  1.1861 -1.0692
  925MOL0     H27606  12.308   5.546  11.464 -1.3639 -0.1190 -0.3523
  925MOL0     H27607  12.189   5.653  11.544 -2.4163 -2.2331 -1.5315
  925MOL0     H27608  12.601   5.711  11.749 -3.9563 -1.4073 -0.3075
  925MOL0     H27609  12.779   5.863  11.778 -1.8680  4.4742  1.3514
  925MOL0     H27610  12.807   6.011  11.694  0.7061 -0.1425 -2.4267
  925MOL0     H27611  12.888   5.865  11.644  1.7845  1.2771  1.7424
  925MOL0     H27612  12.740   6.299  11.258  1.3836 -0.2320  1.3705
  925MOL0     H27613  12.894   6.421  11.139 -1.7479  0.2556 -0.2144
  925MOL0     H27614  12.993   6.518  10.918  1.6020  1.1554 -2.1599
  925MOL0     H27615  13.097   6.496  11.069  1.6063 -0.1530  0.3582
  925MOL0     H27616  13.207   6.653  10.902  0.5155 -0.2846 -1.2819
  925MOL0     H27617  13.302   6.514  10.941  0.7489  0.7494 -1.6246
  925MOL0     H27618  13.130   6.501  10.690 -0.4775 -1.8650  1.4172
  925MOL0     H27619  13.243   6.387  10.752  0.1257 -0.1376 -1.1088
  925MOL0     H27620  13.428   6.561  10.719 -0.3764 -1.8186 -0.8393
  925MOL0     H27621  13.305   6.681  10.675  1.6924  0.7782  1.1842
  925MOL0     H27622  13.373   6.410  10.539 -1.2415 -0.1673 -0.3396
  925MOL0     H27623  13.249   6.517  10.471  2.1233 -0.2897 -2.6379
  925MOL0     H27624  13.443   6.705  10.474  0.1077 -0.4650  1.0440
  925MOL0     H27625  13.418   6.592  10.347 -0.5560  3.3913  0.1159
  925MOL0     H27626  13.594   6.442  10.431  0.6027  2.2853 -2.8740
  925MOL0     H27627  13.605   6.531  10.588 -1.8612  1.0185  0.6929
  925MOL0     H27628  13.646   6.733  10.394 -1.6245  0.0444 -0.7201
  925MOL0     H27629  13.743   6.602  10.322  0.4007  0.1999  0.6550
  925MOL0     H27630  13.039   6.067  10.953 -0.5619 -0.3763  0.0319
  925MOL0     H27631  12.869   5.935  11.071 -2.1605 -0.2189  1.3715
  925MOL0     H27632  12.482   5.921  11.317 -1.0137 -0.6304  0.5182
  925MOL0     H27633  12.332   5.780  11.421 -0.0715  1.4912 -0.5225
  925MOL0     H27634  11.283   5.722  10.803 -0.8692 -0.9653 -0.2219
  925MOL0     H27635  11.092   5.813  10.662  0.5729 -2.0249  1.3929
  925MOL0     H27636  10.822   6.142  10.590 -0.6333  2.3501  0.9474
  925MOL0     H27637  10.646   6.250  10.454 -0.9975  0.0836 -0.3800
  925MOL0     H27638  10.548   6.239  10.215  0.7115  0.4925  0.0197
  925MOL0     H27639  10.502   6.371  10.331 -1.2219  1.6784 -1.1493
  925MOL0     H27640  10.380   6.404  10.108  0.5654 -1.4153 -2.4440
  925MOL0     H27641  10.525   6.388  10.033 -1.0916  1.1972 -0.5687
  925MOL0     H27642  10.412   6.621  10.208 -0.4524  1.1512 -1.0130
  925MOL0     H27643  10.585   6.609  10.207 -0.6004  3.3769 -0.0806
  925MOL0     H27644  10.579   6.601   9.945  0.7277 -0.4504  0.8048
  925MOL0     H27645  10.529   6.752  10.029  2.1900 -0.3831 -2.1226
  925MOL0     H27646  10.171   6.609   9.859  0.5787 -0.1863 -1.7164
  925MOL0     H27647  10.935   6.397  10.178 -0.4261  1.7607  0.8258
  925MOL0     H27648  11.107   6.224  10.141 -1.0089  3.4186  1.1128
  925MOL0     H27649  11.220   6.295  10.255 -2.5574  4.0098 -2.2268
  925MOL0     H27650  11.182   6.119  10.263 -1.7729 -1.7109 -1.9136
  926MOL0     O27651   1.486   8.869   9.837 -0.0539 -0.2881  0.1483
  926MOL0     C27652   1.390   8.838   9.908 -0.1214 -0.2704 -0.1583
  926MOL0     O27653   1.401   8.812  10.046  1.0951 -0.0113 -0.9401
  926MOL0     C27654   1.524   8.782  10.098  0.3368  0.1994 -0.7627
  926MOL0     C27655   1.604   8.682  10.037 -0.4493  0.2662  0.9313
  926MOL0     C27656   1.726   8.643  10.101 -0.3387 -0.1751  0.0315
  926MOL0     C27657   1.762   8.702  10.221  0.1104  0.1906 -0.2756
  926MOL0     O27658   1.885   8.683  10.281  0.5324 -0.3083 -0.1966
  926MOL0     C27659   1.979   8.587  10.229  0.2433 -0.3318 -0.0547
  926MOL0     C27660   2.104   8.589  10.313  0.9471  0.0453  0.1682
  926MOL0     C27661   2.189   8.469  10.283 -0.5714 -0.1663 -0.1303
  926MOL0     C27662   2.291   8.454  10.387 -0.3477 -0.2188  0.6180
  926MOL0     C27663   2.400   8.345  10.367 -0.3626 -0.0385  0.5510
  926MOL0     C27664   2.488   8.376  10.248 -0.6433 -0.3715  0.8879
  926MOL0     C27665   2.565   8.506  10.261 -0.1903  0.3479  0.1237
  926MOL0     C27666   2.641   8.539  10.133 -0.4120  0.1752  0.7037
  926MOL0     N27667   2.754   8.450  10.104  0.2189 -0.7223  0.2042
  926MOL0     C27668   2.735   8.343  10.021  0.2404  0.0442 -0.1407
  926MOL0     C27669   2.862   8.317   9.984  0.5856  0.0491  0.0024
  926MOL0     C27670   2.905   8.199   9.902  0.2030  0.1217  0.7344
  926MOL0     C27671   3.060   8.189   9.892  0.4037 -0.7093 -0.2861
  926MOL0     C27672   3.109   8.075   9.799 -0.4277  0.3174  0.0307
  926MOL0     C27673   3.086   7.925   9.851  0.5070 -0.5942 -0.7851
  926MOL0     O27674   3.179   7.907   9.962  0.1248 -0.2128  0.5535
  926MOL0     C27675   3.256   7.800   9.976 -0.1200  0.4514  0.4725
  926MOL0     C27676   3.234   7.675   9.912  0.1493 -0.8858 -0.3320
  926MOL0     C27677   3.334   7.575   9.916 -0.4719 -0.0362 -0.3375
  926MOL0     C27678   3.305   7.459   9.821  0.2106  0.0200  0.1176
  926MOL0     C27679   3.442   7.579  10.005 -0.1841  0.3455  0.1345
  926MOL0     C27680   3.545   7.477  10.017  0.0977 -0.1998 -0.5034
  926MOL0     O27681   3.631   7.496  10.120 -0.6368 -0.3877 -0.1759
  926MOL0     C27682   3.757   7.448  10.091 -0.7707 -0.6193 -0.0100
  926MOL0     C27683   3.797   7.330  10.150  0.6578 -0.6285 -0.0057
  926MOL0     C27684   3.928   7.276  10.113  0.3183 -0.4696  0.9327
  926MOL0     C27685   4.017   7.345  10.030  0.1725  0.4906  1.2804
  926MOL0     O27686   4.142   7.305   9.992 -0.1484  0.2431  0.1839
  926MOL0     C27687   4.206   7.180  10.030  0.2337 -0.5456 -0.4076
  926MOL0     C27688   4.147   7.058   9.962  0.0485 -0.6958  0.0340
  926MOL0     C27689   4.212   6.925  10.001  0.3964 -0.6534  0.7507
  926MOL0     C27690   4.140   6.810   9.931  0.0223 -0.1996 -0.2215
  926MOL0     C27691   4.231   6.681   9.949 -1.0740  0.8015 -0.0040
  926MOL0     C27692   4.195   6.560   9.859  0.4377 -0.0851 -0.6473
  926MOL0     C27693   4.208   6.578   9.710 -0.7226  0.9149 -1.0094
  926MOL0     C27694   4.219   6.446   9.639  0.1217  0.8627  0.2710
  926MOL0    Cl27695   4.053   6.364   9.612 -0.4676  0.0981 -0.4415
  926MOL0     C27696   3.975   7.476   9.986  0.1567  0.0980 -0.2997
  926MOL0     C27697   3.855   7.533  10.018  0.3643 -0.1934  0.6188
  926MOL0     O27698   3.548   7.374   9.945  0.7034  0.3804 -0.2448
  926MOL0     C27699   3.458   7.701  10.078 -0.3926  0.5839  0.6338
  926MOL0     C27700   3.365   7.809  10.065  0.7238 -0.6340  0.5207
  926MOL0     N27701   2.950   8.395  10.059 -0.0240  0.2411  0.8384
  926MOL0     N27702   2.880   8.476  10.125 -0.4656  0.3080 -0.6030
  926MOL0     C27703   1.679   8.796  10.280 -0.2581 -1.2775  0.1599
  926MOL0     C27704   1.561   8.832  10.221  0.0208  0.0004 -0.0179
  926MOL0     C27705   1.251   8.826   9.846  0.4537  0.4990  0.1274
  926MOL0     C27706   1.149   8.801   9.939  0.9475  0.6025  0.3024
  926MOL0     C27707   1.012   8.797   9.896  0.7057  0.0469 -0.4999
  926MOL0     C27708   0.982   8.819   9.766  0.5783  0.1130  0.2509
  926MOL0     O27709   0.853   8.838   9.717 -0.7714 -0.0659  0.9315
  926MOL0     C27710   0.735   8.842   9.799 -0.8532 -0.5050  0.0209
  926MOL0     C27711   0.667   8.708   9.805 -1.0030  0.7094 -0.4460
  926MOL0     C27712   0.602   8.679   9.664  0.1883 -0.2053 -0.0482
  926MOL0     C27713   0.634   8.533   9.622 -0.6925 -0.1786  0.0725
  926MOL0     C27714   0.775   8.523   9.581 -0.2205 -0.8710 -0.3816
  926MOL0     C27715   0.894   8.519   9.560  0.8972  0.6643 -0.5194
  926MOL0     C27716   1.084   8.835   9.672 -1.0695  0.3099  1.1517
  926MOL0     C27717   1.217   8.836   9.706 -0.0997  0.0036 -0.6979
  926MOL0     C27718   1.322   8.843   9.603  0.0676 -0.2252 -0.1185
  926MOL0     H27719   1.561   8.651   9.943 -0.4948 -0.6151  1.2354
  926MOL0     H27720   1.789   8.566  10.059 -0.6955  0.1781 -1.1864
  926MOL0     H27721   2.013   8.614  10.129  3.0607 -0.5806  0.7614
  926MOL0     H27722   1.930   8.490  10.234  0.8892 -0.6287  0.6628
  926MOL0     H27723   2.158   8.677  10.278  0.3039 -0.1571 -1.4265
  926MOL0     H27724   2.067   8.599  10.416 -1.1742  0.4412 -0.5755
  926MOL0     H27725   2.126   8.380  10.274  0.8626 -1.1090 -1.3242
  926MOL0     H27726   2.230   8.491  10.184 -1.3026  0.8597 -0.2131
  926MOL0     H27727   2.341   8.549  10.406 -1.3426  0.6463 -0.8775
  926MOL0     H27728   2.237   8.431  10.480 -1.1266 -2.8058 -0.3830
  926MOL0     H27729   2.349   8.250  10.348 -1.9730  0.9642 -0.3952
  926MOL0     H27730   2.460   8.332  10.458  0.4876 -0.0215  0.0087
  926MOL0     H27731   2.557   8.294  10.226  2.3755  2.4992 -1.4264
  926MOL0     H27732   2.424   8.381  10.160  0.9959 -1.6347 -0.4429
  926MOL0     H27733   2.642   8.510  10.339  0.5767  1.3020 -0.6572
  926MOL0     H27734   2.501   8.593  10.278 -0.4928  0.4915 -1.5810
  926MOL0     H27735   2.568   8.543  10.052 -1.7169 -2.1629  1.6530
  926MOL0     H27736   2.692   8.636  10.143  0.8860 -0.3756 -0.3454
  926MOL0     H27737   2.639   8.292  10.015 -0.1347  0.0925  3.4043
  926MOL0     H27738   2.849   8.200   9.808 -0.9639  1.7670  1.4046
  926MOL0     H27739   2.879   8.107   9.956  1.9617 -0.7625  0.1553
  926MOL0     H27740   3.089   8.283   9.844  0.2779  0.4349  1.7688
  926MOL0     H27741   3.100   8.182   9.994  0.2589  0.0108 -0.1727
  926MOL0     H27742   3.062   8.093   9.702  0.2782  2.4366  0.0123
  926MOL0     H27743   3.214   8.094   9.771 -1.3684  2.5401 -2.3931
  926MOL0     H27744   2.989   7.906   9.898 -0.4513  0.6477 -2.1721
  926MOL0     H27745   3.105   7.853   9.771  0.8290 -0.4520 -0.8331
  926MOL0     H27746   3.143   7.673   9.854 -1.3520  2.2117  1.6590
  926MOL0     H27747   3.294   7.360   9.867 -2.2968 -1.9292 -4.1100
  926MOL0     H27748   3.388   7.459   9.749 -0.8779 -0.5285 -1.1759
  926MOL0     H27749   3.212   7.476   9.767  0.7015  1.9578 -0.1904
  926MOL0     H27750   3.730   7.278  10.217  1.4302 -1.9742 -0.2424
  926MOL0     H27751   3.957   7.182  10.161 -1.7870 -1.0891  1.0684
  926MOL0     H27752   4.311   7.188   9.999  0.4299  1.5322  0.6418
  926MOL0     H27753   4.213   7.163  10.138 -0.7616 -3.0801 -0.6771
  926MOL0     H27754   4.042   7.057   9.991  0.7714 -2.1569  3.0852
  926MOL0     H27755   4.171   7.061   9.855  2.3712 -1.1147  0.4758
  926MOL0     H27756   4.204   6.910  10.109 -0.1524  2.9740  1.3428
  926MOL0     H27757   4.314   6.928   9.961  0.6615 -2.5291  1.1806
  926MOL0     H27758   4.136   6.834   9.824  0.6476 -0.1921 -0.2465
  926MOL0     H27759   4.040   6.791   9.971 -0.1534  1.6151  0.3190
  926MOL0     H27760   4.329   6.713   9.913  0.0871 -1.2367  1.1387
  926MOL0     H27761   4.230   6.651  10.054 -2.7741 -0.3094 -0.2872
  926MOL0     H27762   4.091   6.530   9.878  0.4003 -0.8402 -1.9268
  926MOL0     H27763   4.244   6.474   9.906 -3.2406 -1.7447  0.6274
  926MOL0     H27764   4.296   6.641   9.698  0.6869 -0.5229  1.0534
  926MOL0     H27765   4.120   6.628   9.669  0.0568 -0.5168 -4.7485
  926MOL0     H27766   4.292   6.380   9.687  1.1704  0.4649 -1.7499
  926MOL0     H27767   4.270   6.475   9.546 -0.8918 -1.3890 -1.0835
  926MOL0     H27768   4.061   7.528   9.944  0.0381  0.7730  0.2775
  926MOL0     H27769   3.840   7.635   9.984  1.8601 -1.0977 -3.4159
  926MOL0     H27770   3.548   7.708  10.139  0.6760  0.2063 -0.8252
  926MOL0     H27771   3.393   7.903  10.109  1.0871 -0.2281 -0.5430
  926MOL0     H27772   1.705   8.849  10.371 -1.8704  0.4811 -0.3581
  926MOL0     H27773   1.502   8.904  10.277 -2.6977 -2.3267  0.3360
  926MOL0     H27774   1.171   8.795  10.045  1.6971 -2.1885  0.0727
  926MOL0     H27775   0.926   8.778   9.960 -0.1084  0.5461 -1.4272
  926MOL0     H27776   0.754   8.880   9.900  0.1880  0.8853 -0.6625
  926MOL0     H27777   0.668   8.914   9.752  1.1704  0.7638 -1.0794
  926MOL0     H27778   0.597   8.701   9.888 -0.6236 -4.4166 -0.1911
  926MOL0     H27779   0.741   8.630   9.827 -1.8187 -0.1564 -0.6885
  926MOL0     H27780   0.497   8.699   9.688  0.8786  2.0741  1.3386
  926MOL0     H27781   0.627   8.745   9.581  0.3100 -0.1429  0.0373
  926MOL0     H27782   0.571   8.506   9.538 -0.1610 -1.5389  0.0769
  926MOL0     H27783   0.620   8.470   9.711 -0.5957  1.6300  1.4150
  926MOL0     H27784   0.997   8.522   9.529  0.8019  1.1844 -0.8020
  926MOL0     H27785   1.051   8.841   9.569 -0.0655 -0.1385  0.7888
  926MOL0     H27786   1.376   8.750   9.621 -0.9096 -0.4478  1.9529
  926MOL0     H27787   1.284   8.837   9.501 -2.7446 -1.6867  0.8853
  926MOL0     H27788   1.393   8.926   9.609 -2.1742  1.8782 -0.9889
  927MOL0     O27789   0.973   0.342   2.466 -0.1193  0.4863  0.6488
  927MOL0     C27790   1.029   0.244   2.506  0.4137 -0.1472 -0.1337
  927MOL0     O27791   1.156   0.206   2.468  0.0279 -0.8718  0.4026
  927MOL0     C27792   1.236   0.292   2.391  0.3863  0.1746 -0.1491
  927MOL0     C27793   1.237   0.429   2.410  0.4748 -0.8821  0.4182
  927MOL0     C27794   1.307   0.517   2.327 -0.4483  0.4385  0.2887
  927MOL0     C27795   1.392   0.466   2.225 -0.2019  0.2271 -0.2274
  927MOL0     O27796   1.457   0.550   2.131  0.1676  0.1770 -0.2774
  927MOL0     C27797   1.591   0.512   2.095  0.2108 -0.0811 -0.2165
  927MOL0     C27798   1.667   0.614   2.002 -0.0435  0.0785 -0.0444
  927MOL0     C27799   1.680   0.734   2.088 -0.2063 -0.8310 -0.4159
  927MOL0     C27800   1.778   0.837   2.026 -0.8935 -0.2186  0.3944
  927MOL0     C27801   1.922   0.815   2.065 -0.9607  0.3652 -0.5579
  927MOL0     C27802   2.021   0.915   2.019  0.3051 -0.0351  0.1335
  927MOL0     C27803   2.169   0.887   2.056 -0.9445  1.0096 -0.9173
  927MOL0     C27804   2.267   0.978   1.981 -0.4677  0.4175 -0.2768
  927MOL0     N27805   2.398   0.929   2.010 -0.4130 -0.1268  0.1417
  927MOL0     C27806   2.457   0.961   2.124  0.5438 -0.5496  0.5257
  927MOL0     C27807   2.554   0.881   2.128  0.1156 -0.1626 -0.0530
  927MOL0     C27808   2.666   0.892   2.231 -0.5188 -0.5371 -0.0604
  927MOL0     C27809   2.789   0.967   2.179  0.3644 -0.0776  0.2483
  927MOL0     C27810   2.892   0.980   2.289 -0.5985  0.0823 -0.2344
  927MOL0     C27811   3.030   1.032   2.246  0.0041  0.3717 -0.1017
  927MOL0     O27812   3.108   0.935   2.165 -0.5906 -0.5909  0.1211
  927MOL0     C27813   3.202   1.001   2.088  0.6014  0.9427  0.1428
  927MOL0     C27814   3.270   1.124   2.129  0.1163 -0.0591 -0.0988
  927MOL0     C27815   3.380   1.179   2.051  0.9231  0.3839 -0.6351
  927MOL0     C27816   3.425   1.312   2.090  0.2135  0.4785 -0.0267
  927MOL0     C27817   3.421   1.104   1.936 -0.2282 -0.2251 -0.2238
  927MOL0     C27818   3.533   1.141   1.840  0.0456  0.1430 -0.2563
  927MOL0     O27819   3.559   1.062   1.733 -0.2280  0.2479  0.2066
  927MOL0     C27820   3.675   1.070   1.662 -1.1264  0.0327  0.7063
  927MOL0     C27821   3.749   0.948   1.655  0.2062  0.6557 -1.2770
  927MOL0     C27822   3.869   0.944   1.588  0.2074  0.5553  0.0420
  927MOL0     C27823   3.928   1.055   1.533  0.3708 -0.2340 -0.8954
  927MOL0     O27824   4.056   1.047   1.479 -0.3866 -0.0116  0.7487
  927MOL0     C27825   4.125   1.172   1.449 -0.4474 -0.9002  0.6785
  927MOL0     C27826   4.084   1.235   1.311 -0.1351 -0.4675  0.0708
  927MOL0     C27827   4.080   1.131   1.204  0.0387 -0.4377 -0.2192
  927MOL0     C27828   4.201   1.037   1.185 -0.9094 -0.6988 -1.0858
  927MOL0     C27829   4.170   0.927   1.081 -0.0046  0.1632 -0.3569
  927MOL0     C27830   4.287   0.901   0.996 -1.2149 -0.6928 -0.3196
  927MOL0     C27831   4.412   0.851   1.077 -0.6044  0.4914 -0.2050
  927MOL0     C27832   4.480   0.737   1.000  0.5273  0.4487  0.4461
  927MOL0    Cl27833   4.621   0.670   1.088  0.6123  0.4373 -0.2361
  927MOL0     C27834   3.851   1.180   1.539  0.3421 -0.3727  0.4289
  927MOL0     C27835   3.724   1.186   1.603 -0.1601  0.4759  0.1225
  927MOL0     O27836   3.591   1.244   1.862 -0.5159  0.6112 -0.0844
  927MOL0     C27837   3.353   0.988   1.896  0.0665  0.6258 -0.4590
  927MOL0     C27838   3.245   0.935   1.973 -0.9076 -0.3640 -0.1522
  927MOL0     N27839   2.548   0.780   2.034  0.0925  0.0543 -0.2575
  927MOL0     N27840   2.445   0.815   1.960  0.6248 -0.3884  0.2922
  927MOL0     C27841   1.381   0.325   2.207  0.2029 -0.1848  0.0734
  927MOL0     C27842   1.306   0.242   2.285 -0.4350  1.3422 -0.3468
  927MOL0     C27843   0.959   0.151   2.596 -0.0626  0.2155  0.3814
  927MOL0     C27844   1.023   0.034   2.635  0.0923 -0.4309 -0.6104
  927MOL0     C27845   0.952  -0.060   2.717  0.5041  0.1534  0.4680
  927MOL0     C27846   0.827  -0.048   2.755  0.4027  0.8235  0.8096
  927MOL0     O27847   0.753  -0.139   2.828 -0.1604  1.1920 -0.4908
  927MOL0     C27848   0.839  -0.222   2.924  0.3144 -1.0747 -0.0592
  927MOL0     C27849   0.926  -0.129   3.025 -1.2315  0.0679 -0.4353
  927MOL0     C27850   0.838  -0.011   3.079  0.6867  1.4270 -0.1322
  927MOL0     C27851   0.912   0.046   3.200  0.3924 -0.4270  0.2387
  927MOL0     C27852   1.035   0.124   3.168 -0.3375  0.7277 -0.4691
  927MOL0     C27853   1.127   0.198   3.144 -0.3198  0.7623  0.1639
  927MOL0     C27854   0.770   0.072   2.713 -0.7610 -0.7864  0.2686
  927MOL0     C27855   0.828   0.173   2.644  0.0046 -0.8576 -0.8438
  927MOL0     C27856   0.753   0.302   2.625  0.1761 -0.8082  0.4786
  927MOL0     H27857   1.180   0.458   2.497 -0.9387  1.0210 -1.0413
  927MOL0     H27858   1.311   0.626   2.331  0.5152  0.4207  0.1093
  927MOL0     H27859   1.589   0.414   2.047  0.3067 -0.6303  0.8672
  927MOL0     H27860   1.643   0.490   2.188  3.3063 -1.6237 -2.1345
  927MOL0     H27861   1.764   0.575   1.970  0.2445  0.7836 -0.0460
  927MOL0     H27862   1.611   0.634   1.910  0.7240  0.3556 -0.4560
  927MOL0     H27863   1.581   0.779   2.100  0.4194  0.8587 -1.2741
  927MOL0     H27864   1.723   0.700   2.183 -1.1398  1.6652  0.9917
  927MOL0     H27865   1.766   0.836   1.917  0.4993 -3.7854  0.1442
  927MOL0     H27866   1.753   0.940   2.053 -3.2618  0.0608 -2.3715
  927MOL0     H27867   1.944   0.721   2.013 -1.7416  0.7448 -1.6148
  927MOL0     H27868   1.939   0.808   2.173 -4.7992  1.6209  0.2903
  927MOL0     H27869   2.022   0.925   1.910  1.1491  0.5711  0.1866
  927MOL0     H27870   1.988   1.011   2.060 -2.8880  0.0155 -2.1514
  927MOL0     H27871   2.194   0.783   2.029  0.8629  1.0518  0.4008
  927MOL0     H27872   2.184   0.887   2.165  0.5981 -2.2059 -0.9923
  927MOL0     H27873   2.246   0.972   1.874 -1.1132 -4.1175 -0.0922
  927MOL0     H27874   2.260   1.081   2.018  0.1852 -0.4431  2.4405
  927MOL0     H27875   2.429   1.035   2.198 -0.9631 -0.8407  0.2890
  927MOL0     H27876   2.697   0.793   2.265 -0.9670 -0.3987  0.7805
  927MOL0     H27877   2.626   0.948   2.316  0.9789  0.2624  0.1679
  927MOL0     H27878   2.840   0.920   2.094  0.5419  1.1125 -0.3207
  927MOL0     H27879   2.761   1.063   2.136  0.8253 -0.1998 -0.3426
  927MOL0     H27880   2.848   1.053   2.358 -2.1989  0.1729 -1.3097
  927MOL0     H27881   2.913   0.883   2.336 -0.6804  2.3587  5.2905
  927MOL0     H27882   3.019   1.130   2.197  0.5567  0.0678 -0.8640
  927MOL0     H27883   3.087   1.054   2.337  1.5757 -0.5256 -0.8282
  927MOL0     H27884   3.243   1.183   2.216 -0.5847  2.2627 -1.7902
  927MOL0     H27885   3.531   1.323   2.117 -0.3415  0.8044  2.1755
  927MOL0     H27886   3.385   1.350   2.184  1.8621 -0.2621  1.0218
  927MOL0     H27887   3.409   1.377   2.003  3.2052  0.1688 -0.9192
  927MOL0     H27888   3.713   0.862   1.710  3.1551  0.8088  1.2344
  927MOL0     H27889   3.926   0.852   1.587  0.0771  0.4480  1.2031
  927MOL0     H27890   4.131   1.242   1.533 -1.2753  1.0611 -0.8323
  927MOL0     H27891   4.227   1.133   1.437  1.0127  2.5785  0.6962
  927MOL0     H27892   3.983   1.276   1.322  0.5159  1.8474 -1.6982
  927MOL0     H27893   4.164   1.308   1.296  1.7510 -2.4050  0.3114
  927MOL0     H27894   4.054   1.172   1.106 -1.5273  0.5293  0.5384
  927MOL0     H27895   3.987   1.080   1.233 -0.9579  2.1995  1.6704
  927MOL0     H27896   4.222   0.994   1.283  0.5970  2.4270  0.1085
  927MOL0     H27897   4.280   1.107   1.158 -2.5788  0.9610 -1.9241
  927MOL0     H27898   4.137   0.840   1.139  0.1714  1.5910  2.0158
  927MOL0     H27899   4.079   0.956   1.028 -1.1329  0.0707  1.4217
  927MOL0     H27900   4.315   0.995   0.948  0.4153 -0.5878  0.7811
  927MOL0     H27901   4.268   0.831   0.913 -0.9469 -1.0674 -0.0657
  927MOL0     H27902   4.393   0.823   1.181 -0.2009  1.5936  0.1860
  927MOL0     H27903   4.474   0.941   1.082 -2.7092  2.0262 -0.4262
  927MOL0     H27904   4.514   0.783   0.907  0.2508 -2.1784 -1.0374
  927MOL0     H27905   4.415   0.651   0.985 -0.9981  1.8999 -1.7958
  927MOL0     H27906   3.891   1.273   1.500  1.9482  0.5529  3.9254
  927MOL0     H27907   3.657   1.271   1.605 -1.3670 -0.4602  1.9484
  927MOL0     H27908   3.378   0.920   1.815 -1.4235 -0.5344  0.0113
  927MOL0     H27909   3.189   0.845   1.946  0.0298 -0.8411 -0.5752
  927MOL0     H27910   1.444   0.277   2.134 -1.6233  0.9486 -2.3748
  927MOL0     H27911   1.303   0.135   2.265  0.9848  1.1664  0.1991
  927MOL0     H27912   1.126   0.027   2.602  0.6538 -0.8842  1.1299
  927MOL0     H27913   1.005  -0.154   2.724  0.9188  0.2425 -1.0813
  927MOL0     H27914   0.774  -0.280   2.990 -3.6028 -0.7998 -3.2542
  927MOL0     H27915   0.897  -0.301   2.876  0.9201 -1.7138  1.6798
  927MOL0     H27916   1.014  -0.084   2.978 -0.7569  0.0538  0.4195
  927MOL0     H27917   0.968  -0.185   3.109  0.5019  4.2282  1.7279
  927MOL0     H27918   0.831   0.071   3.007  1.6203 -0.4051 -2.4285
  927MOL0     H27919   0.736  -0.044   3.101  1.8398 -1.8856  0.8689
  927MOL0     H27920   0.924  -0.027   3.282 -0.1949  0.5421  1.2209
  927MOL0     H27921   0.839   0.120   3.234  0.8574 -0.1814  0.7127
  927MOL0     H27922   1.210   0.265   3.136  1.2472 -1.1797 -1.2655
  927MOL0     H27923   0.666   0.089   2.739 -0.3816  1.8025  0.3507
  927MOL0     H27924   0.810   0.385   2.668  0.1219 -2.1820  3.4962
  927MOL0     H27925   0.732   0.323   2.520  4.2698  2.6120  0.0530
  927MOL0     H27926   0.662   0.303   2.685  2.2704 -3.6959  4.1620
  928MOL0     O27927   2.762   1.846   7.643 -0.5214  0.3763 -0.9013
  928MOL0     C27928   2.756   1.823   7.765  0.3331  0.3449  0.2809
  928MOL0     O27929   2.849   1.778   7.848 -0.1426 -0.1923  0.9050
  928MOL0     C27930   2.982   1.775   7.806 -0.0334 -0.5410  1.3005
  928MOL0     C27931   3.080   1.875   7.826  0.0140  0.2416 -0.3651
  928MOL0     C27932   3.211   1.859   7.792  0.5497  0.2811  0.1880
  928MOL0     C27933   3.256   1.742   7.728 -0.6544  0.6496  0.6860
  928MOL0     O27934   3.390   1.732   7.697 -0.0199 -0.3263 -0.2024
  928MOL0     C27935   3.419   1.629   7.602 -1.0363  0.6756 -0.2224
  928MOL0     C27936   3.559   1.644   7.547  0.3508 -0.0474 -0.4418
  928MOL0     C27937   3.658   1.569   7.633 -0.3650 -0.4590  0.4169
  928MOL0     C27938   3.804   1.604   7.589  0.6030 -0.4942 -0.5295
  928MOL0     C27939   3.902   1.553   7.701  0.5144  0.2348 -0.4534
  928MOL0     C27940   4.047   1.595   7.660 -0.3459 -0.1398  0.7038
  928MOL0     C27941   4.144   1.568   7.773 -0.1238  0.8103  0.1034
  928MOL0     C27942   4.183   1.413   7.783 -0.3172  0.6909  0.2907
  928MOL0     N27943   4.279   1.396   7.895  0.0392 -0.2109 -0.1558
  928MOL0     C27944   4.406   1.354   7.869 -0.0183 -0.1488  0.2077
  928MOL0     C27945   4.455   1.333   8.001 -0.1843  0.0957  0.1777
  928MOL0     C27946   4.583   1.266   8.043 -0.3906  1.1119  0.1141
  928MOL0     C27947   4.548   1.144   8.130 -0.4428  0.5459  0.1237
  928MOL0     C27948   4.665   1.049   8.165 -0.1432  0.6213  0.2638
  928MOL0     C27949   4.806   1.104   8.202  0.4974  0.5285  0.6094
  928MOL0     O27950   4.871   1.142   8.082  0.3823  0.5771  0.2158
  928MOL0     C27951   4.992   1.203   8.079 -0.4623 -0.4296 -0.7022
  928MOL0     C27952   5.045   1.224   7.952 -0.8956 -0.3056  0.2341
  928MOL0     C27953   5.170   1.283   7.933  0.5898 -0.4134  0.8472
  928MOL0     C27954   5.199   1.323   7.792  0.0451  0.2185  0.3194
  928MOL0     C27955   5.244   1.310   8.046  0.0403 -0.4228 -0.0440
  928MOL0     C27956   5.380   1.366   8.046 -0.6018 -0.0755 -0.1394
  928MOL0     O27957   5.431   1.420   8.159  0.0480  0.0013  0.0451
  928MOL0     C27958   5.550   1.469   8.191  0.0628 -0.2041  0.4449
  928MOL0     C27959   5.671   1.444   8.120 -0.0244  0.4108  0.5947
  928MOL0     C27960   5.796   1.491   8.171 -0.3400  0.5944 -0.7208
  928MOL0     C27961   5.799   1.555   8.294  0.2433 -0.1999 -0.1121
  928MOL0     O27962   5.925   1.595   8.327 -0.9252 -0.1836  0.6949
  928MOL0     C27963   5.952   1.638   8.456  0.0473  0.1140 -0.3305
  928MOL0     C27964   6.100   1.680   8.466  0.4107  0.3293 -0.8391
  928MOL0     C27965   6.190   1.557   8.451 -0.6599  0.6947  0.5767
  928MOL0     C27966   6.341   1.594   8.441 -0.3705  0.8450  0.2065
  928MOL0     C27967   6.440   1.475   8.446  1.0954 -0.3915  0.0344
  928MOL0     C27968   6.581   1.529   8.445  0.6452  0.6553 -0.6841
  928MOL0     C27969   6.664   1.434   8.533  0.5247  0.6638  0.9159
  928MOL0     C27970   6.805   1.496   8.536  0.0267 -0.1283  0.5085
  928MOL0    Cl27971   6.813   1.660   8.616  0.2365 -0.4420  0.1403
  928MOL0     C27972   5.677   1.590   8.350 -0.0994 -0.3668 -0.4738
  928MOL0     C27973   5.555   1.542   8.306 -1.0249  0.2065 -0.2897
  928MOL0     O27974   5.443   1.367   7.942  0.5722  0.7263  1.0344
  928MOL0     C27975   5.195   1.274   8.173  0.3003  0.9143  0.4071
  928MOL0     C27976   5.069   1.218   8.193 -0.2423 -0.0942 -0.0602
  928MOL0     N27977   4.357   1.383   8.088  0.4760  0.1487 -0.1506
  928MOL0     N27978   4.249   1.417   8.026 -0.0227 -0.2039 -0.4385
  928MOL0     C27979   3.155   1.644   7.703  0.6228  1.0003  0.1982
  928MOL0     C27980   3.028   1.653   7.752  0.3498  0.2386  0.7299
  928MOL0     C27981   2.620   1.835   7.815 -0.9586  0.4369  0.5643
  928MOL0     C27982   2.589   1.738   7.914  0.2592 -0.4913 -0.3940
  928MOL0     C27983   2.464   1.731   7.962  0.3523  0.5503  0.0600
  928MOL0     C27984   2.366   1.827   7.929  0.4938  0.1540 -0.1153
  928MOL0     O27985   2.241   1.820   7.987  0.9200  0.1920 -0.1597
  928MOL0     C27986   2.131   1.794   7.892 -0.5559 -0.3852  0.1035
  928MOL0     C27987   2.055   1.687   7.964  0.6153 -0.0671  0.3327
  928MOL0     C27988   2.129   1.556   7.964  0.3058  0.6250 -0.1930
  928MOL0     C27989   2.047   1.424   7.943 -0.7193 -0.1591 -0.3781
  928MOL0     C27990   2.013   1.403   7.797 -0.1150 -0.1650 -0.9229
  928MOL0     C27991   1.987   1.390   7.686  0.0169  1.1879  0.5704
  928MOL0     C27992   2.398   1.930   7.834 -0.6761  0.1697  0.3273
  928MOL0     C27993   2.522   1.923   7.770  0.8500  0.6904  0.3818
  928MOL0     C27994   2.529   2.015   7.648 -0.2624  0.5751 -0.3385
  928MOL0     H27995   3.034   1.965   7.864 -0.4925  0.4517 -1.4308
  928MOL0     H27996   3.285   1.939   7.798  0.8571  0.0128  0.0430
  928MOL0     H27997   3.357   1.646   7.514  0.0459  2.8661 -0.6247
  928MOL0     H27998   3.389   1.528   7.632 -2.5318  1.9914  3.2281
  928MOL0     H27999   3.563   1.605   7.445  2.0125 -1.6965  0.1778
  928MOL0     H28000   3.581   1.750   7.538 -0.7774  0.3070  0.7633
  928MOL0     H28001   3.635   1.596   7.736  0.6550 -0.4135  0.6392
  928MOL0     H28002   3.636   1.462   7.631 -2.4012 -0.0754  0.5010
  928MOL0     H28003   3.840   1.553   7.500 -0.5751 -2.3597  0.0075
  928MOL0     H28004   3.820   1.711   7.571  0.9977 -0.7670 -1.9158
  928MOL0     H28005   3.904   1.444   7.707  5.1630  0.1752  0.5627
  928MOL0     H28006   3.878   1.608   7.793  1.1496 -2.5787  1.5043
  928MOL0     H28007   4.072   1.545   7.566 -0.3720 -0.5879  0.9337
  928MOL0     H28008   4.053   1.704   7.647 -0.7084 -0.0030  1.6040
  928MOL0     H28009   4.118   1.614   7.869  0.1683 -3.0462  2.2085
  928MOL0     H28010   4.238   1.622   7.754 -0.6762  2.9505  2.8527
  928MOL0     H28011   4.104   1.339   7.797  0.3318 -0.6394 -2.4838
  928MOL0     H28012   4.228   1.378   7.690 -1.2303  2.1469 -0.7414
  928MOL0     H28013   4.443   1.333   7.770  0.2511  2.4402 -0.3067
  928MOL0     H28014   4.654   1.329   8.096 -0.6960 -0.1474  2.1087
  928MOL0     H28015   4.632   1.239   7.948  2.4440  1.1015  1.4904
  928MOL0     H28016   4.508   1.176   8.227 -0.5516  0.2777  0.1681
  928MOL0     H28017   4.463   1.093   8.084 -1.2865  1.0292  1.1035
  928MOL0     H28018   4.630   1.007   8.260 -0.8025  3.2454  1.2545
  928MOL0     H28019   4.672   0.963   8.097 -0.3641 -2.1074  3.4314
  928MOL0     H28020   4.802   1.188   8.272  0.2217 -1.0012  2.5087
  928MOL0     H28021   4.870   1.023   8.238 -0.8436 -1.3049 -0.9248
  928MOL0     H28022   4.984   1.192   7.868 -1.1481  0.2283  0.2111
  928MOL0     H28023   5.112   1.339   7.728 -1.3160  1.7456  2.4088
  928MOL0     H28024   5.270   1.253   7.748 -2.0322 -0.3848 -2.3508
  928MOL0     H28025   5.247   1.421   7.802 -2.0105  1.2540  0.6483
  928MOL0     H28026   5.675   1.385   8.029  0.5907 -1.0500  1.5233
  928MOL0     H28027   5.893   1.466   8.130  1.5864 -1.1883  4.1770
  928MOL0     H28028   5.888   1.724   8.478  0.2872  0.3635 -0.6008
  928MOL0     H28029   5.927   1.563   8.532 -1.0904  0.0245 -0.7733
  928MOL0     H28030   6.124   1.763   8.399  0.5342  0.4853 -0.6019
  928MOL0     H28031   6.108   1.715   8.569  1.4127 -2.4093  0.0975
  928MOL0     H28032   6.159   1.493   8.368  0.8186  0.1346  0.4140
  928MOL0     H28033   6.165   1.498   8.540  0.3791  1.5907  1.4891
  928MOL0     H28034   6.360   1.655   8.530  2.0064 -1.1815  1.1774
  928MOL0     H28035   6.361   1.642   8.345 -0.0654  1.1784  0.4326
  928MOL0     H28036   6.412   1.409   8.528  0.4975 -0.8781 -0.5586
  928MOL0     H28037   6.431   1.418   8.353 -2.0169  0.6186 -0.3853
  928MOL0     H28038   6.575   1.632   8.481 -0.9635  0.7824 -1.2319
  928MOL0     H28039   6.612   1.536   8.340  0.9406  2.5193 -0.5062
  928MOL0     H28040   6.672   1.332   8.495 -4.4423 -0.0345  1.0767
  928MOL0     H28041   6.615   1.421   8.630  0.0560 -2.7229  0.3515
  928MOL0     H28042   6.847   1.495   8.435 -0.7137 -1.2737  0.1861
  928MOL0     H28043   6.873   1.435   8.596  0.9810  0.5605  0.1339
  928MOL0     H28044   5.684   1.655   8.438 -0.7180  1.9758 -2.0642
  928MOL0     H28045   5.468   1.559   8.368 -1.5768 -1.4564 -0.5588
  928MOL0     H28046   5.249   1.304   8.263  0.1496  0.7022  0.5691
  928MOL0     H28047   5.030   1.187   8.289 -0.4683 -3.0509 -1.0225
  928MOL0     H28048   3.175   1.561   7.635 -0.4250  2.3878 -1.9047
  928MOL0     H28049   2.963   1.570   7.725  1.7277 -1.2937  1.9144
  928MOL0     H28050   2.660   1.668   7.958 -2.4363 -3.6326 -0.6149
  928MOL0     H28051   2.439   1.656   8.036  1.8675  0.5607  0.6212
  928MOL0     H28052   2.060   1.877   7.881  0.2290  0.4902  1.3322
  928MOL0     H28053   2.175   1.768   7.795  1.3196 -0.0408  0.8123
  928MOL0     H28054   1.965   1.662   7.906  0.9188 -1.1786  0.3269
  928MOL0     H28055   2.021   1.721   8.063 -0.6954  0.3773 -0.2414
  928MOL0     H28056   2.190   1.559   7.873 -1.8225  2.5957 -1.6600
  928MOL0     H28057   2.196   1.556   8.051 -0.0169  3.4380  0.1395
  928MOL0     H28058   1.954   1.416   8.001  0.1628 -0.6648  1.0134
  928MOL0     H28059   2.106   1.336   7.970 -1.9896 -0.4420  1.7620
  928MOL0     H28060   1.957   1.372   7.585  0.6944 -1.5040  0.7706
  928MOL0     H28061   2.315   1.990   7.799  0.1544 -0.5745 -3.4503
  928MOL0     H28062   2.445   2.085   7.641 -0.6326  0.3870  1.8127
  928MOL0     H28063   2.617   2.079   7.663  1.0435 -0.7599 -1.8688
  928MOL0     H28064   2.539   1.955   7.557  2.8050 -1.2419  1.0271
  929MOL0     O28065  11.377   3.487   9.812 -0.0313  0.1562  0.3133
  929MOL0     C28066  11.498   3.527   9.795  0.1601  2.1467  0.3771
  929MOL0     O28067  11.591   3.446   9.738 -0.2085  0.2168  0.1440
  929MOL0     C28068  11.549   3.338   9.660 -0.0053 -0.4083  0.7322
  929MOL0     C28069  11.635   3.235   9.653  0.5631  0.4046  1.0573
  929MOL0     C28070  11.627   3.121   9.572 -0.6493  0.0015  0.0193
  929MOL0     C28071  11.532   3.125   9.469  0.6062 -0.0641 -0.2298
  929MOL0     O28072  11.517   3.032   9.371  0.0167 -0.6074  0.2007
  929MOL0     C28073  11.603   2.923   9.358 -0.1102 -0.3841 -0.3345
  929MOL0     C28074  11.757   2.933   9.331  0.5266  0.2896 -0.3493
  929MOL0     C28075  11.826   2.796   9.317 -0.4318  0.3644 -0.1809
  929MOL0     C28076  11.977   2.820   9.303  0.3414  0.5605  0.3599
  929MOL0     C28077  12.050   2.689   9.296 -0.2280 -0.1606  0.4778
  929MOL0     C28078  12.198   2.690   9.276 -0.2596  0.5332  1.4609
  929MOL0     C28079  12.253   2.551   9.262 -0.2738  0.7260  0.3680
  929MOL0     C28080  12.400   2.554   9.224 -0.1094 -0.5493  0.2899
  929MOL0     N28081  12.436   2.591   9.084  0.8118 -0.1968 -0.3090
  929MOL0     C28082  12.475   2.496   8.989  0.2678 -0.2510 -0.8695
  929MOL0     C28083  12.527   2.567   8.891  0.1142  0.0068  0.3376
  929MOL0     C28084  12.587   2.537   8.759 -0.8396  0.4986 -0.0794
  929MOL0     C28085  12.739   2.519   8.769  0.0131 -0.4283  0.1025
  929MOL0     C28086  12.806   2.460   8.636 -0.6797 -0.0120  0.5994
  929MOL0     C28087  12.961   2.459   8.637 -0.2575 -0.4576 -0.9065
  929MOL0     O28088  13.010   2.578   8.706 -1.0957  0.6515  0.4062
  929MOL0     C28089  13.024   2.702   8.647  1.2749  0.8922 -1.1628
  929MOL0     C28090  13.137   2.774   8.685  0.6538 -0.3536 -0.4165
  929MOL0     C28091  13.167   2.901   8.637  0.2264 -0.5862  0.6992
  929MOL0     C28092  13.265   2.984   8.715  0.4627 -0.2285 -0.0384
  929MOL0     C28093  13.088   2.959   8.533  0.3651 -0.2297  0.5432
  929MOL0     C28094  13.117   3.082   8.455 -0.3247  0.3284  0.2862
  929MOL0     O28095  13.185   3.183   8.522  0.0690  0.2892 -0.2565
  929MOL0     C28096  13.239   3.286   8.448  0.6967 -0.0642 -0.2934
  929MOL0     C28097  13.150   3.376   8.389  0.5465 -0.3910 -0.2027
  929MOL0     C28098  13.210   3.480   8.309  0.3379 -0.5413  0.3123
  929MOL0     C28099  13.347   3.488   8.281  0.3170 -0.3714 -0.4199
  929MOL0     O28100  13.411   3.590   8.212 -0.6560 -0.7225 -0.0323
  929MOL0     C28101  13.342   3.699   8.149  0.0663 -0.4217 -0.0179
  929MOL0     C28102  13.266   3.649   8.027 -0.5831  0.0406 -0.0951
  929MOL0     C28103  13.209   3.773   7.966 -1.1299  0.0773  0.3993
  929MOL0     C28104  13.117   3.724   7.842 -0.4743 -0.8546  0.4021
  929MOL0     C28105  13.051   3.834   7.747  0.1870 -0.6437  0.1790
  929MOL0     C28106  13.132   3.964   7.712 -0.2670 -0.5456 -0.1753
  929MOL0     C28107  13.251   3.938   7.624 -0.1469  0.4257  0.3943
  929MOL0     C28108  13.325   4.061   7.583  0.0033  0.0104  0.3201
  929MOL0    Cl28109  13.231   4.185   7.495 -0.5523  0.0750 -0.0611
  929MOL0     C28110  13.437   3.400   8.349  0.4338  0.6266 -0.4770
  929MOL0     C28111  13.379   3.300   8.429 -0.9589  0.7855  0.2524
  929MOL0     O28112  13.076   3.088   8.341 -0.2535 -0.5611 -0.3226
  929MOL0     C28113  12.972   2.891   8.501 -0.5602 -1.0444  0.3611
  929MOL0     C28114  12.946   2.757   8.555 -0.3618 -0.0907  1.2216
  929MOL0     N28115  12.506   2.704   8.925  0.6515 -0.8737  0.0151
  929MOL0     N28116  12.450   2.717   9.040  0.6789 -0.7240 -0.6954
  929MOL0     C28117  11.432   3.225   9.478  0.4205  0.2124  0.0900
  929MOL0     C28118  11.432   3.327   9.581  0.2046 -0.6503  0.6690
  929MOL0     C28119  11.538   3.653   9.846 -0.3418 -0.8445 -0.3770
  929MOL0     C28120  11.670   3.690   9.837 -1.4044  0.6359  0.1600
  929MOL0     C28121  11.722   3.816   9.888 -1.1442  0.0598  0.7813
  929MOL0     C28122  11.641   3.910   9.936  0.3177  0.3848 -0.9392
  929MOL0     O28123  11.697   4.031   9.964  0.0949  0.3954 -0.2516
  929MOL0     C28124  11.641   4.107  10.072 -0.4888  0.1879 -0.1110
  929MOL0     C28125  11.737   4.099  10.191  0.2842 -0.1258  0.1146
  929MOL0     C28126  11.694   4.200  10.301  0.0287  0.2571 -0.5176
  929MOL0     C28127  11.730   4.153  10.442 -0.0408 -0.1227 -0.1210
  929MOL0     C28128  11.876   4.162  10.449  0.7494  0.1315 -0.7874
  929MOL0     C28129  11.995   4.182  10.439  0.3237  0.3574  0.4912
  929MOL0     C28130  11.502   3.875   9.946  0.2178 -0.4952 -0.0563
  929MOL0     C28131  11.449   3.756   9.906  0.2295  1.5309 -0.4214
  929MOL0     C28132  11.303   3.752   9.916  0.4508 -0.3264 -0.2666
  929MOL0     H28133  11.704   3.235   9.736  0.2608  0.3919  1.3109
  929MOL0     H28134  11.699   3.042   9.591  0.5744  0.8059 -1.0849
  929MOL0     H28135  11.562   2.849   9.289 -0.7958 -2.3857  2.0409
  929MOL0     H28136  11.609   2.874   9.456  1.2199 -0.7207 -0.5538
  929MOL0     H28137  11.761   2.988   9.236 -1.3726  1.6131  0.2770
  929MOL0     H28138  11.811   2.991   9.406  0.2702  0.4659 -0.2978
  929MOL0     H28139  11.816   2.720   9.395 -1.0032 -2.6277 -2.8988
  929MOL0     H28140  11.781   2.738   9.235  1.2689 -3.0345  1.0991
  929MOL0     H28141  11.997   2.868   9.207  0.9299  2.6773  1.4657
  929MOL0     H28142  12.019   2.885   9.380  0.4584  1.6102 -0.5660
  929MOL0     H28143  12.003   2.619   9.225 -0.6504  0.5678  0.0208
  929MOL0     H28144  12.047   2.648   9.397  1.5492 -1.3392  0.1141
  929MOL0     H28145  12.214   2.750   9.186 -3.1876  1.4529  1.4491
  929MOL0     H28146  12.242   2.735   9.365 -2.0613 -0.8129  3.1122
  929MOL0     H28147  12.199   2.500   9.182 -0.7669 -0.5776  1.5011
  929MOL0     H28148  12.242   2.501   9.358 -1.3259  1.2180  0.5232
  929MOL0     H28149  12.453   2.622   9.291  0.8385 -0.8318 -0.1568
  929MOL0     H28150  12.436   2.452   9.239 -2.7015 -1.5960 -0.1290
  929MOL0     H28151  12.477   2.388   8.993 -0.3084 -0.2260  0.4508
  929MOL0     H28152  12.563   2.621   8.693 -1.2755 -0.8514 -1.6835
  929MOL0     H28153  12.534   2.453   8.714 -0.3596  1.4134 -2.4840
  929MOL0     H28154  12.788   2.615   8.789 -0.3642  0.6266 -3.3016
  929MOL0     H28155  12.766   2.462   8.858  1.9719  0.7720  0.3533
  929MOL0     H28156  12.764   2.360   8.620 -1.4679  0.5438 -1.0536
  929MOL0     H28157  12.779   2.522   8.550 -1.1799 -1.2902 -0.1949
  929MOL0     H28158  12.985   2.369   8.693 -1.1951  1.1787  2.3698
  929MOL0     H28159  13.004   2.463   8.536 -0.0752  1.5145 -0.7864
  929MOL0     H28160  13.196   2.727   8.763  1.0205 -0.2732 -0.6405
  929MOL0     H28161  13.336   3.038   8.653 -1.3767  1.6302 -0.6478
  929MOL0     H28162  13.330   2.920   8.775 -0.9652 -2.3557 -0.6650
  929MOL0     H28163  13.220   3.065   8.774 -3.8476 -0.4589 -2.6067
  929MOL0     H28164  13.042   3.377   8.404  0.4584 -0.0139 -0.8130
  929MOL0     H28165  13.145   3.556   8.267  2.5719  2.0575  1.2627
  929MOL0     H28166  13.288   3.759   8.223  1.2486 -0.5588  0.9886
  929MOL0     H28167  13.418   3.769   8.115 -0.1748 -0.2377 -0.1827
  929MOL0     H28168  13.345   3.604   7.966  1.8778  0.2857  2.6633
  929MOL0     H28169  13.176   3.592   8.052 -0.1625  0.3461  2.3962
  929MOL0     H28170  13.288   3.847   7.950  0.6920 -0.9838  3.5801
  929MOL0     H28171  13.141   3.831   8.029  0.8272  1.9547  0.9112
  929MOL0     H28172  13.030   3.663   7.867 -0.9114 -0.3247  0.1765
  929MOL0     H28173  13.186   3.659   7.788  2.2821 -0.1142  2.7733
  929MOL0     H28174  13.036   3.782   7.652  4.2283 -4.5963  1.3371
  929MOL0     H28175  12.958   3.861   7.798 -0.0884  0.0759 -0.6897
  929MOL0     H28176  13.161   4.015   7.805 -2.4485 -0.6960  0.6440
  929MOL0     H28177  13.071   4.042   7.665  2.5072  2.1344  0.3267
  929MOL0     H28178  13.235   3.886   7.529  1.9574  1.9101 -0.8361
  929MOL0     H28179  13.325   3.880   7.681 -0.8209  0.2836  1.1525
  929MOL0     H28180  13.413   4.035   7.524  1.0512  1.0285  1.3861
  929MOL0     H28181  13.356   4.114   7.673 -0.3329 -0.5272  0.7576
  929MOL0     H28182  13.544   3.403   8.331  0.7184 -1.6356  0.4050
  929MOL0     H28183  13.442   3.226   8.477 -1.0799 -0.3040 -1.1899
  929MOL0     H28184  12.906   2.929   8.424  0.0735  1.6235  1.0371
  929MOL0     H28185  12.869   2.690   8.520  0.4050 -1.4307  2.0164
  929MOL0     H28186  11.361   3.242   9.398  1.8067  1.4399 -0.9512
  929MOL0     H28187  11.363   3.411   9.582  1.3156  0.2834  2.5063
  929MOL0     H28188  11.751   3.635   9.789 -0.9578  2.6898 -1.6200
  929MOL0     H28189  11.820   3.858   9.870 -1.4467 -0.4726 -2.8954
  929MOL0     H28190  11.628   4.208  10.032 -0.4631 -0.4047 -1.6830
  929MOL0     H28191  11.544   4.069  10.106 -0.6420 -0.9346 -1.7022
  929MOL0     H28192  11.836   4.123  10.152 -0.3563  0.8343 -1.0141
  929MOL0     H28193  11.741   3.995  10.226  3.0140  0.4891  1.8963
  929MOL0     H28194  11.746   4.296  10.293  2.3184 -0.9580 -0.7739
  929MOL0     H28195  11.586   4.213  10.290 -0.1155  0.1424  0.6132
  929MOL0     H28196  11.695   4.051  10.462  1.2377 -0.6838 -0.6038
  929MOL0     H28197  11.686   4.227  10.509  2.2880  1.7895 -0.5478
  929MOL0     H28198  12.097   4.212  10.431 -0.5912  3.4048 -2.0141
  929MOL0     H28199  11.437   3.958   9.973  0.6819  0.1494 -0.8971
  929MOL0     H28200  11.258   3.705   9.829  0.3542 -1.0509  0.1697
  929MOL0     H28201  11.269   3.702  10.007 -0.3669  1.4404  0.4462
  929MOL0     H28202  11.266   3.855   9.911  0.2730 -0.2881  1.2804
  930MOL0     O28203  10.316   1.180   6.677 -0.6784 -0.0959  0.1108
  930MOL0     C28204  10.342   1.243   6.572  0.7656  0.1688 -0.0160
  930MOL0     O28205  10.450   1.313   6.544  0.2589 -0.1377 -0.7343
  930MOL0     C28206  10.520   1.359   6.646 -0.1378  0.5192 -0.4407
  930MOL0     C28207  10.634   1.295   6.682 -0.7189 -0.6841 -0.7023
  930MOL0     C28208  10.708   1.347   6.794 -0.1349 -0.1745 -0.2285
  930MOL0     C28209  10.660   1.459   6.862  0.3873  0.8660 -0.1458
  930MOL0     O28210  10.737   1.502   6.965 -0.4462  0.1306 -0.2414
  930MOL0     C28211  10.707   1.630   7.017 -0.3785 -0.4339 -0.0888
  930MOL0     C28212  10.816   1.660   7.124 -0.8471 -0.3402 -1.1347
  930MOL0     C28213  10.768   1.779   7.214 -1.1647 -0.0630 -0.4322
  930MOL0     C28214  10.881   1.827   7.308 -0.8038  0.4002  0.4430
  930MOL0     C28215  10.854   1.960   7.361  0.6658 -0.2926 -0.1710
  930MOL0     C28216  10.955   2.011   7.471  0.2824 -0.2744 -0.0280
  930MOL0     C28217  10.952   2.165   7.488  0.1389 -0.5164 -0.2259
  930MOL0     C28218  11.051   2.204   7.595 -0.2463 -0.4106 -0.4138
  930MOL0     N28219  11.190   2.202   7.555  0.5840 -0.2009  0.0585
  930MOL0     C28220  11.249   2.193   7.435 -0.7455  0.3126  0.3002
  930MOL0     C28221  11.376   2.226   7.462 -0.0867 -0.0357  0.2107
  930MOL0     C28222  11.476   2.239   7.350 -0.4406 -0.7923  1.2694
  930MOL0     C28223  11.624   2.220   7.394  0.3734 -0.2533 -0.4660
  930MOL0     C28224  11.735   2.255   7.293 -0.3659  0.4432  0.2706
  930MOL0     C28225  11.860   2.276   7.380 -0.3039  0.0303 -0.3984
  930MOL0     O28226  11.975   2.296   7.295 -1.3148  0.3674  0.8251
  930MOL0     C28227  12.056   2.187   7.257  0.1272 -0.4551 -0.4506
  930MOL0     C28228  12.182   2.224   7.201  0.6721 -0.5085  0.3410
  930MOL0     C28229  12.267   2.128   7.143  0.6413 -0.2493 -0.7048
  930MOL0     C28230  12.387   2.175   7.069  0.6164 -0.2547 -0.1242
  930MOL0     C28231  12.230   1.986   7.165  0.3791  0.9900 -0.5904
  930MOL0     C28232  12.317   1.872   7.129 -0.1907 -0.5886 -0.4352
  930MOL0     O28233  12.451   1.885   7.101 -0.1605 -0.1895 -0.2037
  930MOL0     C28234  12.514   1.787   7.028 -0.5064 -0.7669 -0.7129
  930MOL0     C28235  12.460   1.723   6.918  0.6253  0.4689  0.0460
  930MOL0     C28236  12.528   1.622   6.861  0.1212  0.4112 -0.1680
  930MOL0     C28237  12.660   1.596   6.883  0.3747  0.3183 -0.3645
  930MOL0     O28238  12.715   1.492   6.819  0.3587  0.9094 -0.6923
  930MOL0     C28239  12.829   1.437   6.877  0.0019  0.1200  0.5625
  930MOL0     C28240  12.856   1.304   6.800  1.0575  0.1346  0.5449
  930MOL0     C28241  12.992   1.248   6.851  0.6237 -0.0978 -1.0545
  930MOL0     C28242  13.021   1.103   6.796  0.4013  0.6882 -0.4469
  930MOL0     C28243  13.150   1.033   6.836 -0.7051  0.1390  0.8178
  930MOL0     C28244  13.173   1.010   6.984  0.0615  0.5561  0.4572
  930MOL0     C28245  13.064   0.922   7.041 -0.0687 -0.4549 -0.0761
  930MOL0     C28246  13.069   0.778   6.993  0.1244  0.3361 -0.3585
  930MOL0    Cl28247  12.994   0.671   7.122  0.0061  0.2163  0.1616
  930MOL0     C28248  12.724   1.677   6.987  0.8933  0.2073  0.3318
  930MOL0     C28249  12.655   1.782   7.051 -0.0769 -0.4817  0.5956
  930MOL0     O28250  12.257   1.772   7.102  0.6042 -0.2260 -0.4166
  930MOL0     C28251  12.103   1.957   7.222 -0.1546 -0.7233  0.3958
  930MOL0     C28252  12.018   2.055   7.271  0.0790  1.1269 -0.3362
  930MOL0     N28253  11.395   2.257   7.592 -0.2513 -0.4181  0.6231
  930MOL0     N28254  11.280   2.253   7.646 -0.2321 -0.2494  0.7755
  930MOL0     C28255  10.533   1.516   6.840 -0.5058  0.8327  0.1010
  930MOL0     C28256  10.459   1.455   6.734 -0.2688 -0.7604 -1.0387
  930MOL0     C28257  10.233   1.241   6.472  0.7955  0.3845 -0.1921
  930MOL0     C28258  10.194   1.364   6.421 -0.1665 -1.4734  0.6492
  930MOL0     C28259  10.089   1.373   6.338  0.9267 -0.4414  0.8533
  930MOL0     C28260  10.004   1.257   6.311  0.2983  0.1170  0.0235
  930MOL0     O28261   9.902   1.268   6.214  0.4322  0.0027 -0.5406
  930MOL0     C28262   9.839   1.140   6.186  0.7184  0.0572  0.2209
  930MOL0     C28263   9.721   1.109   6.282  0.8692  0.1072 -1.1682
  930MOL0     C28264   9.635   1.234   6.312  0.5099  0.4294  1.0824
  930MOL0     C28265   9.482   1.208   6.349 -0.2877  0.3356  0.2917
  930MOL0     C28266   9.415   1.199   6.220 -0.3044 -0.1189  0.0288
  930MOL0     C28267   9.343   1.193   6.121 -0.2829 -0.3232 -0.5640
  930MOL0     C28268  10.043   1.132   6.372  0.3304 -0.5357  0.3701
  930MOL0     C28269  10.161   1.123   6.448  0.8516 -0.4966 -0.0901
  930MOL0     C28270  10.216   0.990   6.501 -0.1138  0.4338 -0.4773
  930MOL0     H28271  10.667   1.203   6.635  3.9967 -0.4042  1.4439
  930MOL0     H28272  10.807   1.304   6.808 -1.9619 -4.2948  1.8363
  930MOL0     H28273  10.610   1.632   7.066 -0.2154  1.7605  0.2351
  930MOL0     H28274  10.708   1.703   6.936 -4.0738 -1.6706 -1.4480
  930MOL0     H28275  10.828   1.575   7.192  0.5690  1.5033  1.1081
  930MOL0     H28276  10.917   1.681   7.088  0.1008 -0.2273  1.3377
  930MOL0     H28277  10.747   1.863   7.147  0.9960  0.2180 -0.8508
  930MOL0     H28278  10.691   1.747   7.284 -0.7617  0.2068  0.1483
  930MOL0     H28279  10.889   1.766   7.398 -2.0973 -0.6934 -0.1556
  930MOL0     H28280  10.983   1.824   7.267 -0.2991  0.0853  1.6767
  930MOL0     H28281  10.748   1.963   7.391 -0.6769 -0.8119 -4.2779
  930MOL0     H28282  10.852   2.036   7.283 -2.9612  1.8213  1.6866
  930MOL0     H28283  10.945   1.957   7.566 -0.3825  0.6542  0.4490
  930MOL0     H28284  11.052   1.970   7.443 -0.9463 -1.5824 -2.7612
  930MOL0     H28285  10.850   2.197   7.512  0.3150  1.0319 -1.3924
  930MOL0     H28286  10.966   2.228   7.400 -0.2643 -3.3439 -2.4567
  930MOL0     H28287  11.024   2.307   7.618 -0.4364 -0.0234 -2.2230
  930MOL0     H28288  11.035   2.138   7.681 -1.3200 -1.3221 -1.2665
  930MOL0     H28289  11.213   2.173   7.335  4.9283  1.0485 -2.2738
  930MOL0     H28290  11.460   2.335   7.301  1.8929 -0.5094  0.9612
  930MOL0     H28291  11.458   2.162   7.275 -0.9121 -2.7064  3.2220
  930MOL0     H28292  11.638   2.272   7.488  0.4875 -0.2438 -0.4885
  930MOL0     H28293  11.643   2.115   7.420 -2.5021 -0.4447  1.3221
  930MOL0     H28294  11.750   2.162   7.236  1.9031 -2.3325  4.7997
  930MOL0     H28295  11.720   2.345   7.233  1.1023  1.8952  1.9984
  930MOL0     H28296  11.852   2.362   7.448  0.0801  1.2747 -1.8728
  930MOL0     H28297  11.867   2.189   7.446  1.0029  0.3133 -0.1316
  930MOL0     H28298  12.197   2.330   7.184 -6.1293  0.5026 -3.1664
  930MOL0     H28299  12.418   2.109   6.987  1.9556 -2.9813  2.3850
  930MOL0     H28300  12.473   2.179   7.137  0.1198 -1.1410  0.5846
  930MOL0     H28301  12.387   2.276   7.027 -0.5928 -1.0015 -2.0524
  930MOL0     H28302  12.358   1.741   6.887  0.5290  1.2065  0.7686
  930MOL0     H28303  12.486   1.578   6.772  0.6708  2.2759 -1.4130
  930MOL0     H28304  12.913   1.507   6.873  0.1002 -0.0253 -2.5461
  930MOL0     H28305  12.813   1.417   6.983 -1.8422 -0.2403  0.2414
  930MOL0     H28306  12.772   1.237   6.822  0.7390  0.5292  0.5344
  930MOL0     H28307  12.878   1.319   6.694 -3.1399  1.3242 -0.3423
  930MOL0     H28308  12.999   1.251   6.960 -1.2279  2.3402 -0.9332
  930MOL0     H28309  13.075   1.308   6.814 -0.4890  1.4602 -1.1142
  930MOL0     H28310  13.031   1.106   6.687  4.3695  1.8845 -0.1910
  930MOL0     H28311  12.938   1.043   6.835 -0.6927  2.6438  0.4200
  930MOL0     H28312  13.155   0.937   6.783 -1.1462  0.9305 -0.6984
  930MOL0     H28313  13.233   1.098   6.806  1.5158 -1.5764  2.7687
  930MOL0     H28314  13.174   1.101   7.044  0.1480  0.0136  1.3079
  930MOL0     H28315  13.277   0.975   6.993 -0.4476 -0.8543  1.2455
  930MOL0     H28316  12.965   0.968   7.043 -1.7389 -3.7402  0.1859
  930MOL0     H28317  13.077   0.900   7.147 -1.0218 -0.4325  0.0588
  930MOL0     H28318  13.169   0.737   6.978  0.0666 -1.4204  3.0821
  930MOL0     H28319  13.017   0.767   6.897  2.4920 -0.2219 -1.6461
  930MOL0     H28320  12.829   1.667   7.010  1.4344  1.6428 -1.2807
  930MOL0     H28321  12.711   1.856   7.108  1.5966  1.8857 -3.6641
  930MOL0     H28322  12.068   1.856   7.240  0.4778 -0.7748  1.4448
  930MOL0     H28323  11.926   2.026   7.319 -0.4864  0.7698 -1.5865
  930MOL0     H28324  10.489   1.594   6.900 -2.9383  0.3022 -0.8857
  930MOL0     H28325  10.356   1.487   6.719  0.3804  2.2880  0.1645
  930MOL0     H28326  10.251   1.453   6.446 -2.2710 -0.8364  3.7295
  930MOL0     H28327  10.073   1.468   6.289  0.4686 -1.2392 -0.6013
  930MOL0     H28328   9.805   1.153   6.083  3.1503  0.5732 -0.5902
  930MOL0     H28329   9.904   1.052   6.179  1.9610  0.8846  0.8838
  930MOL0     H28330   9.756   1.063   6.375 -3.4799  0.8788  1.1653
  930MOL0     H28331   9.653   1.036   6.237  0.6665 -0.1604 -0.4545
  930MOL0     H28332   9.678   1.282   6.400 -4.0902  7.0174  0.4429
  930MOL0     H28333   9.642   1.310   6.234 -3.7312 -0.4826 -0.4364
  930MOL0     H28334   9.445   1.294   6.406 -1.6757  0.1385 -0.2935
  930MOL0     H28335   9.462   1.116   6.403 -2.7560  1.2828  1.1362
  930MOL0     H28336   9.283   1.193   6.033 -0.4315  2.1887 -0.5343
  930MOL0     H28337   9.988   1.038   6.369 -3.1627  1.1721  3.1243
  930MOL0     H28338  10.175   0.899   6.455 -1.6956  0.1450  1.3586
  930MOL0     H28339  10.323   0.982   6.483 -0.2480 -0.1824 -1.0501
  930MOL0     H28340  10.179   0.963   6.600  0.0740 -2.7713 -1.1629
  931MOL0     O28341   8.363   0.382   6.395 -0.4797 -0.1325  0.4617
  931MOL0     C28342   8.357   0.298   6.311 -1.2782 -0.3696 -0.9849
  931MOL0     O28343   8.450   0.191   6.316 -0.1865  0.2484 -0.5659
  931MOL0     C28344   8.532   0.172   6.423 -0.7184 -0.1708  0.4765
  931MOL0     C28345   8.504   0.196   6.561  0.5118 -0.1813 -0.1910
  931MOL0     C28346   8.603   0.171   6.660 -0.6946 -1.3090 -0.1595
  931MOL0     C28347   8.728   0.125   6.629  0.2243  0.7493  0.9704
  931MOL0     O28348   8.808   0.126   6.739  0.4856 -0.5882  0.1398
  931MOL0     C28349   8.927   0.042   6.736  0.1545  0.8655 -0.6826
  931MOL0     C28350   9.017   0.062   6.864 -0.2344 -0.0247 -0.0242
  931MOL0     C28351   9.163   0.055   6.840 -0.4060  0.4309  0.6808
  931MOL0     C28352   9.230   0.079   6.980  0.4087 -0.0010  0.1249
  931MOL0     C28353   9.381   0.065   6.988  0.1194  0.4237  0.2223
  931MOL0     C28354   9.461   0.122   7.112  0.4473  0.6737 -0.3229
  931MOL0     C28355   9.614   0.096   7.096 -0.0145 -0.3766  0.3387
  931MOL0     C28356   9.684   0.138   7.222 -0.7593  0.2379 -0.7509
  931MOL0     N28357   9.820   0.096   7.220  0.4110  0.2657  0.3542
  931MOL0     C28358   9.919   0.153   7.300  0.3697  0.2266  0.1146
  931MOL0     C28359  10.025   0.076   7.305 -0.2827  0.6072  0.5412
  931MOL0     C28360  10.147   0.100   7.384  0.9718  0.6465  0.3885
  931MOL0     C28361  10.274   0.064   7.310  0.7311  0.0122 -0.2616
  931MOL0     C28362  10.293   0.148   7.178  0.5057  0.3215  0.7046
  931MOL0     C28363  10.427   0.135   7.110  0.8849 -0.0509  0.2139
  931MOL0     O28364  10.475   0.005   7.139  0.4228  0.7239  0.4432
  931MOL0     C28365  10.595  -0.034   7.068  0.3090 -1.1773 -0.2165
  931MOL0     C28366  10.636   0.020   6.947 -0.3048  0.3045 -0.5721
  931MOL0     C28367  10.749  -0.018   6.871  0.4147 -1.0098 -0.7353
  931MOL0     C28368  10.788   0.067   6.750 -0.2235  0.0326 -0.1599
  931MOL0     C28369  10.823  -0.135   6.920  0.1514 -0.6136  0.5807
  931MOL0     C28370  10.957  -0.183   6.872 -0.6935 -0.5157 -0.6095
  931MOL0     O28371  11.017  -0.302   6.929  0.7098 -0.2003  0.0965
  931MOL0     C28372  11.140  -0.342   6.875  0.7601 -0.5199 -0.2684
  931MOL0     C28373  11.176  -0.352   6.741  0.9372 -0.3412 -1.1353
  931MOL0     C28374  11.295  -0.416   6.704  0.7868  0.2645  0.5754
  931MOL0     C28375  11.392  -0.459   6.790 -0.2940 -0.8033 -0.5912
  931MOL0     O28376  11.515  -0.518   6.762  0.1778  0.2306  1.0476
  931MOL0     C28377  11.551  -0.545   6.628  0.0437  0.0473  0.2813
  931MOL0     C28378  11.693  -0.608   6.626 -0.6265 -0.5754  0.6931
  931MOL0     C28379  11.800  -0.510   6.677 -0.2050 -0.0470  0.2850
  931MOL0     C28380  11.938  -0.580   6.707 -0.5659  0.1260 -0.6903
  931MOL0     C28381  12.047  -0.473   6.721 -1.4737 -0.9720 -0.0408
  931MOL0     C28382  12.132  -0.461   6.847  0.1909  1.0800 -0.2531
  931MOL0     C28383  12.183  -0.593   6.895  0.2407  0.1741 -0.3968
  931MOL0     C28384  12.268  -0.591   7.024 -0.2053 -0.4614  0.2135
  931MOL0    Cl28385  12.417  -0.484   7.011 -0.0927  0.1825 -0.6099
  931MOL0     C28386  11.360  -0.441   6.918 -0.0972  0.3861  0.1529
  931MOL0     C28387  11.231  -0.391   6.961  0.1529 -0.0854  0.0929
  931MOL0     O28388  11.008  -0.124   6.779 -0.0560 -0.4804  0.0663
  931MOL0     C28389  10.767  -0.193   7.039  0.4664 -0.2301  0.3795
  931MOL0     C28390  10.666  -0.144   7.117  0.3882 -0.0050 -0.1445
  931MOL0     N28391   9.992  -0.037   7.236  0.2427 -0.0247  0.4875
  931MOL0     N28392   9.871  -0.016   7.176  0.1789  1.0657  0.1809
  931MOL0     C28393   8.757   0.095   6.495 -1.0901  0.2155  0.3984
  931MOL0     C28394   8.664   0.130   6.393  0.9349 -0.2344  0.1623
  931MOL0     C28395   8.249   0.313   6.204  0.0659  0.2328 -0.0975
  931MOL0     C28396   8.193   0.437   6.183 -0.2311 -0.1178  0.2672
  931MOL0     C28397   8.095   0.449   6.085 -0.3032  0.0882  0.4006
  931MOL0     C28398   8.050   0.344   6.003 -0.4128 -0.6192  0.8559
  931MOL0     O28399   7.941   0.368   5.921 -0.6228 -0.1626 -0.4816
  931MOL0     C28400   7.811   0.334   5.971  0.2114 -0.0199  0.0274
  931MOL0     C28401   7.755   0.433   6.077 -0.3832  0.1106  0.0434
  931MOL0     C28402   7.721   0.567   6.020  0.8629  0.2981 -0.0040
  931MOL0     C28403   7.650   0.643   6.126 -0.4621 -0.0594 -0.8693
  931MOL0     C28404   7.739   0.692   6.239  0.5311  0.5967  0.3848
  931MOL0     C28405   7.798   0.726   6.336 -0.3186  0.5853 -0.3821
  931MOL0     C28406   8.104   0.228   6.025  0.0029 -1.1377  0.7057
  931MOL0     C28407   8.200   0.209   6.125  0.7591  0.1311 -0.1617
  931MOL0     C28408   8.249   0.065   6.143  0.3281  0.0795  0.9741
  931MOL0     H28409   8.401   0.216   6.590  1.3964 -0.3549  3.5627
  931MOL0     H28410   8.577   0.198   6.762 -0.7184  1.8706 -0.9142
  931MOL0     H28411   8.991   0.066   6.650  0.1785 -0.3487 -1.0171
  931MOL0     H28412   8.899  -0.063   6.741  3.8350 -0.2968 -1.3672
  931MOL0     H28413   8.988   0.159   6.906 -2.5836  0.3973 -2.3834
  931MOL0     H28414   8.980  -0.016   6.932  1.3447  1.0083  2.1534
  931MOL0     H28415   9.192  -0.044   6.803  2.0029  1.4977 -0.5033
  931MOL0     H28416   9.198   0.133   6.773 -0.3195  0.6982  1.0315
  931MOL0     H28417   9.205   0.180   7.014  1.4257 -0.1558  1.3876
  931MOL0     H28418   9.184   0.019   7.059 -1.1245  1.4797  0.4040
  931MOL0     H28419   9.431   0.119   6.907  0.5558  0.4813  0.5342
  931MOL0     H28420   9.402  -0.043   6.985 -2.4203 -0.1402 -0.6571
  931MOL0     H28421   9.432   0.227   7.122 -2.1419  0.2935 -2.5747
  931MOL0     H28422   9.425   0.076   7.204  0.2819  0.2412 -0.5984
  931MOL0     H28423   9.658   0.160   7.019  0.6649 -0.5185  0.6035
  931MOL0     H28424   9.636  -0.011   7.085  0.6350 -0.2204  0.0840
  931MOL0     H28425   9.680   0.246   7.240  2.0351  0.5827 -1.6746
  931MOL0     H28426   9.639   0.087   7.308  0.3367 -0.1519 -0.3899
  931MOL0     H28427   9.903   0.240   7.363 -0.3303  1.2206 -1.3729
  931MOL0     H28428  10.153   0.033   7.470  0.1161 -0.3032 -0.2540
  931MOL0     H28429  10.153   0.204   7.416 -1.5960  0.7909  0.6568
  931MOL0     H28430  10.364   0.086   7.368 -0.0803 -1.3956  1.6136
  931MOL0     H28431  10.259  -0.043   7.294 -2.4459  0.3259  0.0073
  931MOL0     H28432  10.226   0.117   7.097  1.6461  2.1399 -1.0294
  931MOL0     H28433  10.258   0.250   7.193 -0.9241  0.2647 -1.6959
  931MOL0     H28434  10.403   0.151   7.005 -1.6892 -0.2330  0.7119
  931MOL0     H28435  10.493   0.217   7.142 -0.0863  0.8229  0.0413
  931MOL0     H28436  10.584   0.107   6.908  0.5856  0.4276 -1.5174
  931MOL0     H28437  10.729   0.155   6.726  0.2711 -0.4674 -3.7268
  931MOL0     H28438  10.791   0.004   6.660  1.5577 -0.9074  0.5083
  931MOL0     H28439  10.889   0.110   6.756 -0.5388  1.4684 -3.3018
  931MOL0     H28440  11.098  -0.324   6.670 -0.0084  0.7183  0.2814
  931MOL0     H28441  11.297  -0.441   6.598 -0.5545 -0.7104  0.7600
  931MOL0     H28442  11.477  -0.616   6.591  0.0413 -0.3256  0.9847
  931MOL0     H28443  11.561  -0.452   6.571  2.2381  0.6335  1.5070
  931MOL0     H28444  11.699  -0.699   6.685 -0.3328 -1.7231 -1.0294
  931MOL0     H28445  11.723  -0.648   6.529 -0.0256  0.1409  0.5720
  931MOL0     H28446  11.774  -0.464   6.773 -1.2271  0.6206 -0.2859
  931MOL0     H28447  11.819  -0.423   6.614 -0.6265 -0.1250  0.0489
  931MOL0     H28448  11.951  -0.645   6.620  0.1438  0.9953 -1.2573
  931MOL0     H28449  11.924  -0.639   6.798  3.3231 -2.1593 -1.3442
  931MOL0     H28450  12.102  -0.470   6.626  2.8407 -0.5778  2.2182
  931MOL0     H28451  12.005  -0.372   6.712  2.2653  0.6419 -1.3270
  931MOL0     H28452  12.059  -0.424   6.920 -0.1886  0.0528 -0.0884
  931MOL0     H28453  12.219  -0.398   6.827  1.7674 -1.4841 -2.0772
  931MOL0     H28454  12.242  -0.626   6.809 -1.2174 -0.4932 -1.1702
  931MOL0     H28455  12.107  -0.671   6.904  1.9300 -1.3592  1.5579
  931MOL0     H28456  12.299  -0.694   7.038  0.1552 -0.5643 -1.1718
  931MOL0     H28457  12.209  -0.550   7.107  0.1593  1.5083 -0.4307
  931MOL0     H28458  11.431  -0.474   6.993 -0.0697  0.5041  0.1772
  931MOL0     H28459  11.210  -0.365   7.064  0.3556  3.4068 -0.6098
  931MOL0     H28460  10.805  -0.288   7.076 -0.0397 -1.0682 -1.1893
  931MOL0     H28461  10.641  -0.195   7.210 -1.0303  0.6319 -0.1469
  931MOL0     H28462   8.852   0.061   6.454 -1.7312 -0.2154 -0.7602
  931MOL0     H28463   8.690   0.103   6.292  1.1605 -3.4092  0.9724
  931MOL0     H28464   8.223   0.521   6.245  1.5823  0.3819 -1.2056
  931MOL0     H28465   8.056   0.550   6.071  4.2285  2.0027 -0.2081
  931MOL0     H28466   7.752   0.337   5.879  0.3666  1.2871 -0.0476
  931MOL0     H28467   7.806   0.229   6.001 -0.2478 -0.5452 -1.7544
  931MOL0     H28468   7.836   0.445   6.149  0.7022 -0.2365 -1.0687
  931MOL0     H28469   7.668   0.376   6.111  0.6743 -1.8685 -0.3711
  931MOL0     H28470   7.806   0.621   5.977 -2.5166  3.2840 -3.7034
  931MOL0     H28471   7.650   0.547   5.939  1.0166 -0.4478  0.0368
  931MOL0     H28472   7.575   0.582   6.176 -1.4954  2.2781  0.5909
  931MOL0     H28473   7.605   0.732   6.081  2.1399  1.6451 -0.3394
  931MOL0     H28474   7.853   0.753   6.423  0.5026  1.7069 -1.2119
  931MOL0     H28475   8.063   0.149   5.964 -0.3646  1.1225 -2.1957
  931MOL0     H28476   8.223   0.038   6.246  1.0460 -0.5078  1.0146
  931MOL0     H28477   8.194  -0.007   6.081 -0.2883 -0.5298  2.1757
  931MOL0     H28478   8.356   0.048   6.132  0.6802  1.9028  1.3129
  932MOL0     O28479   0.643   7.410  11.177  0.5557 -0.6557  0.1613
  932MOL0     C28480   0.694   7.340  11.262 -0.9352 -0.8807 -0.3632
  932MOL0     O28481   0.797   7.376  11.342 -0.0738 -0.5657  0.1475
  932MOL0     C28482   0.867   7.496  11.349  0.1586  0.0557  0.1404
  932MOL0     C28483   0.847   7.607  11.274  0.1529 -0.1132 -0.7619
  932MOL0     C28484   0.876   7.732  11.312  0.1526 -0.7619  0.5046
  932MOL0     C28485   0.940   7.756  11.440  0.3010 -0.7389 -0.2596
  932MOL0     O28486   0.959   7.888  11.471 -0.3904  0.4013 -1.2069
  932MOL0     C28487   1.079   7.923  11.541  0.1619  0.1546 -1.2811
  932MOL0     C28488   1.205   7.886  11.469  0.5337  0.6251  0.2396
  932MOL0     C28489   1.332   7.928  11.552 -0.1880  0.0060 -0.1879
  932MOL0     C28490   1.466   7.894  11.482  0.9225  0.2242 -0.2908
  932MOL0     C28491   1.585   7.907  11.572 -1.0224 -0.0737 -0.3170
  932MOL0     C28492   1.717   7.902  11.499  0.3201  0.3772  0.1614
  932MOL0     C28493   1.824   7.916  11.599 -0.8959  1.2904  0.5504
  932MOL0     C28494   1.953   7.923  11.527 -0.1266  1.2449  0.1852
  932MOL0     N28495   1.981   8.030  11.435 -0.2747  0.1253 -0.1587
  932MOL0     C28496   1.954   8.169  11.458 -0.4031  0.5945  0.3587
  932MOL0     C28497   2.000   8.233  11.351 -0.0769  0.5830 -0.3636
  932MOL0     C28498   1.988   8.379  11.331  0.9820  0.2413  0.6399
  932MOL0     C28499   1.836   8.404  11.310 -0.9204 -0.6006  0.2698
  932MOL0     C28500   1.818   8.537  11.233 -0.2038 -0.0956 -0.3057
  932MOL0     C28501   1.861   8.662  11.306 -0.2708 -0.5250 -0.0942
  932MOL0     O28502   1.839   8.781  11.230  0.4564  0.5184  0.2851
  932MOL0     C28503   1.952   8.834  11.163 -0.3363 -0.2207 -0.2932
  932MOL0     C28504   1.970   8.976  11.157  0.7161  0.0008 -0.5825
  932MOL0     C28505   2.090   9.023  11.117  0.0418 -0.5128 -0.8102
  932MOL0     C28506   2.103   9.166  11.108 -1.1398  0.1830  0.4940
  932MOL0     C28507   2.184   8.941  11.067 -0.4021  0.9086 -0.2521
  932MOL0     C28508   2.303   8.998  11.003  0.1651  0.8864  0.2864
  932MOL0     O28509   2.418   8.985  11.071  0.0968 -0.3397 -0.8348
  932MOL0     C28510   2.536   9.028  11.010  1.9625 -0.1204  0.6317
  932MOL0     C28511   2.621   8.932  10.955 -0.9964 -0.1843  0.3660
  932MOL0     C28512   2.747   8.972  10.916 -0.3207 -0.5485  0.1887
  932MOL0     C28513   2.787   9.110  10.919  0.1374 -0.1508 -0.0258
  932MOL0     O28514   2.914   9.144  10.881  0.2303 -0.3268 -0.9028
  932MOL0     C28515   3.009   9.068  10.963  0.3247 -0.1037  0.1346
  932MOL0     C28516   3.148   9.110  10.910 -0.1720 -0.6244  0.8659
  932MOL0     C28517   3.252   9.024  10.976  0.7576 -0.2050  0.6325
  932MOL0     C28518   3.403   9.044  10.937 -0.3579 -0.0145 -0.5735
  932MOL0     C28519   3.488   8.994  11.055 -0.1965 -0.3705 -0.5026
  932MOL0     C28520   3.639   8.991  11.015  0.2239  0.2977  0.3137
  932MOL0     C28521   3.728   8.914  11.108 -0.8083 -0.1446 -1.2046
  932MOL0     C28522   3.746   8.975  11.258 -0.2325 -0.4087  0.5813
  932MOL0    Cl28523   3.802   9.148  11.240  0.2704  0.1121 -0.1437
  932MOL0     C28524   2.695   9.210  10.958 -0.3976  0.4483 -0.8121
  932MOL0     C28525   2.572   9.161  11.012 -0.4620  0.3237 -0.2375
  932MOL0     O28526   2.293   9.043  10.886  0.3422  0.4653 -0.0862
  932MOL0     C28527   2.174   8.805  11.064 -0.7500 -0.2079  0.6638
  932MOL0     C28528   2.061   8.750  11.121  0.1296 -0.1280  1.1247
  932MOL0     N28529   2.047   8.140  11.261 -0.4551 -0.5733  0.2759
  932MOL0     N28530   2.044   8.018  11.311 -0.5778 -1.0824  0.0140
  932MOL0     C28531   0.987   7.645  11.505  0.0706  0.1094 -0.5337
  932MOL0     C28532   0.947   7.516  11.465  0.5903  0.6677 -1.2217
  932MOL0     C28533   0.631   7.214  11.308 -0.2200  0.1849 -0.2281
  932MOL0     C28534   0.659   7.161  11.441 -0.7469 -0.9844 -0.1002
  932MOL0     C28535   0.619   7.036  11.481  0.7848 -0.8303  0.0965
  932MOL0     C28536   0.551   6.951  11.401  0.3886  1.1321  0.2100
  932MOL0     O28537   0.524   6.817  11.441  0.3565 -0.1398  0.3036
  932MOL0     C28538   0.492   6.720  11.337 -0.3962 -0.5197  1.2719
  932MOL0     C28539   0.626   6.689  11.255 -0.1114 -0.1404  0.1394
  932MOL0     C28540   0.591   6.623  11.117 -0.3219  0.1126 -0.2833
  932MOL0     C28541   0.716   6.571  11.041 -0.3930  0.1607  0.2016
  932MOL0     C28542   0.676   6.514  10.908 -0.2925  0.4139 -0.0778
  932MOL0     C28543   0.642   6.451  10.808  0.1238 -0.4176 -0.0449
  932MOL0     C28544   0.512   6.993  11.273  0.5483  0.7969 -0.5278
  932MOL0     C28545   0.549   7.123  11.227  0.1502 -0.4662 -0.3122
  932MOL0     C28546   0.491   7.156  11.091 -0.6499  0.0727 -1.0544
  932MOL0     H28547   0.789   7.601  11.182  0.1094 -1.2544 -0.6771
  932MOL0     H28548   0.844   7.810  11.244  3.2414  0.2551  0.0459
  932MOL0     H28549   1.071   7.894  11.646 -2.8213  0.3653 -1.3548
  932MOL0     H28550   1.081   8.032  11.542  0.3890  0.1471 -0.7502
  932MOL0     H28551   1.214   7.778  11.450  1.0433  0.7515 -0.2573
  932MOL0     H28552   1.199   7.923  11.367 -1.1908 -1.9613 -0.7129
  932MOL0     H28553   1.321   8.030  11.589 -3.1809 -0.3153  0.0867
  932MOL0     H28554   1.333   7.874  11.647  1.7235  1.1736  0.5114
  932MOL0     H28555   1.469   7.788  11.455 -2.1558  0.4324 -1.8137
  932MOL0     H28556   1.478   7.952  11.390 -0.6314 -1.2186 -1.4490
  932MOL0     H28557   1.592   7.838  11.657  1.0637 -2.5449 -2.3282
  932MOL0     H28558   1.574   8.012  11.599  0.7166 -0.0528  0.4289
  932MOL0     H28559   1.732   7.806  11.450  0.9659  1.4007 -1.7248
  932MOL0     H28560   1.713   7.981  11.424 -2.2363 -0.5287 -0.7705
  932MOL0     H28561   1.816   7.830  11.665 -2.6237  0.8660 -0.1541
  932MOL0     H28562   1.803   8.013  11.644 -3.1011  1.1870 -0.1213
  932MOL0     H28563   2.037   7.922  11.597 -0.5894 -0.4866  0.7625
  932MOL0     H28564   1.970   7.834  11.464  3.1031  0.4999  1.8800
  932MOL0     H28565   1.921   8.215  11.551 -3.4313  0.3526 -0.4799
  932MOL0     H28566   2.043   8.409  11.241 -1.3334  1.7322 -0.3888
  932MOL0     H28567   2.018   8.434  11.421 -0.4933  0.4883  1.0049
  932MOL0     H28568   1.780   8.318  11.273 -1.7734 -2.8754  5.8844
  932MOL0     H28569   1.805   8.427  11.412  0.6724  1.3354  0.3828
  932MOL0     H28570   1.882   8.527  11.145 -0.6887  1.5319 -0.8822
  932MOL0     H28571   1.710   8.540  11.216 -1.0463 -2.1455  3.5012
  932MOL0     H28572   1.799   8.665  11.396 -1.4990  1.1305 -0.9418
  932MOL0     H28573   1.967   8.645  11.328 -0.3136 -0.7455 -0.0644
  932MOL0     H28574   1.892   9.043  11.193  2.6425  2.7763 -1.2683
  932MOL0     H28575   2.113   9.200  11.004  5.2963  2.5123  1.4288
  932MOL0     H28576   2.194   9.198  11.159  0.8286  0.7390 -3.0276
  932MOL0     H28577   2.021   9.211  11.163 -0.2379  0.3412  1.7480
  932MOL0     H28578   2.586   8.830  10.951 -0.7493 -0.2340 -1.0635
  932MOL0     H28579   2.818   8.901  10.874  0.9801  0.2806  0.9270
  932MOL0     H28580   2.997   9.109  11.064 -0.4512 -0.1453  0.0597
  932MOL0     H28581   2.995   8.960  10.963 -1.4733 -0.0277 -3.5259
  932MOL0     H28582   3.145   9.089  10.803  2.0739 -3.1696  1.1969
  932MOL0     H28583   3.167   9.212  10.945 -0.7545  0.4813 -1.8408
  932MOL0     H28584   3.224   8.918  10.969 -1.5689  0.2199  2.2084
  932MOL0     H28585   3.249   9.047  11.083 -1.7582  0.5031  0.4573
  932MOL0     H28586   3.423   9.149  10.913 -1.2415  0.7776  1.8688
  932MOL0     H28587   3.425   8.990  10.844 -1.6998  1.6013 -1.9008
  932MOL0     H28588   3.475   9.054  11.146 -1.1121  0.0576 -0.9006
  932MOL0     H28589   3.459   8.892  11.081 -0.3152 -0.0297  0.8022
  932MOL0     H28590   3.676   9.091  10.994 -0.8307  0.1356 -2.8084
  932MOL0     H28591   3.636   8.935  10.921 -0.4445  0.0118  0.4954
  932MOL0     H28592   3.828   8.894  11.069 -1.5471 -1.2931 -2.5641
  932MOL0     H28593   3.686   8.814  11.118  1.3824 -1.0995 -1.0123
  932MOL0     H28594   3.805   8.915  11.327  0.3005  1.3710  1.7685
  932MOL0     H28595   3.644   8.975  11.296 -0.5622 -1.4798 -0.2640
  932MOL0     H28596   2.735   9.311  10.965  2.4734 -0.6203 -0.5132
  932MOL0     H28597   2.504   9.238  11.048 -2.3867 -2.3562  2.2884
  932MOL0     H28598   2.256   8.742  11.029 -1.9320 -3.6416  3.4907
  932MOL0     H28599   2.053   8.641  11.117  3.2125 -0.3905 -0.6020
  932MOL0     H28600   1.045   7.654  11.596  0.5564  0.3904 -0.8652
  932MOL0     H28601   0.984   7.430  11.519  1.8199  0.2835 -2.5858
  932MOL0     H28602   0.687   7.234  11.517  0.0398  0.6132 -1.8412
  932MOL0     H28603   0.634   7.010  11.585 -0.8483 -2.2522  0.0083
  932MOL0     H28604   0.447   6.636  11.391  0.1998 -2.6782 -1.3916
  932MOL0     H28605   0.411   6.756  11.273  0.2088  1.0362  1.3431
  932MOL0     H28606   0.684   6.612  11.307  2.4804  0.0691 -2.2291
  932MOL0     H28607   0.673   6.786  11.240 -1.3076  0.2083 -1.7183
  932MOL0     H28608   0.509   6.552  11.126 -1.8870  1.7973 -0.5384
  932MOL0     H28609   0.548   6.697  11.049 -3.0914 -3.0284 -2.2652
  932MOL0     H28610   0.774   6.502  11.102  1.1678  2.4040  1.3917
  932MOL0     H28611   0.770   6.664  11.022  0.7982 -0.2922  1.2490
  932MOL0     H28612   0.614   6.396  10.720 -1.0127  0.7919 -0.4681
  932MOL0     H28613   0.462   6.928  11.201  1.8244 -2.4005  1.2646
  932MOL0     H28614   0.385   7.133  11.083 -1.0938  1.3841  0.5859
  932MOL0     H28615   0.499   7.260  11.058 -0.8650  0.4443  0.0434
  932MOL0     H28616   0.551   7.092  11.025 -2.0089 -3.4351  0.8609
  933MOL0     O28617  11.119   7.350   4.692  0.2643 -0.6097  1.0073
  933MOL0     C28618  11.145   7.449   4.755 -1.2798  0.8648  0.5365
  933MOL0     O28619  11.258   7.522   4.727 -0.7974  0.3639  0.1066
  933MOL0     C28620  11.373   7.448   4.687  0.5266 -0.4484 -0.4474
  933MOL0     C28621  11.411   7.324   4.744 -0.4239  0.3411 -0.2383
  933MOL0     C28622  11.522   7.254   4.690  0.3545  0.2454 -0.8436
  933MOL0     C28623  11.610   7.310   4.591  0.2081 -0.1427  0.7373
  933MOL0     O28624  11.719   7.251   4.552  1.1488  0.9899  0.3765
  933MOL0     C28625  11.749   7.248   4.414  0.2620 -0.2973  0.1778
  933MOL0     C28626  11.868   7.336   4.378  0.4345  0.3674  0.5468
  933MOL0     C28627  11.983   7.311   4.473  0.1469  0.7929  0.3253
  933MOL0     C28628  12.115   7.365   4.415 -0.3853 -0.4420  0.4166
  933MOL0     C28629  12.249   7.318   4.478 -0.2437 -0.0047 -0.3879
  933MOL0     C28630  12.272   7.175   4.430 -0.2419 -0.2472  0.1057
  933MOL0     C28631  12.350   7.083   4.525 -0.3497  0.7173  0.3822
  933MOL0     C28632  12.371   6.944   4.466 -0.2465  0.3487  0.0863
  933MOL0     N28633  12.487   6.931   4.373 -0.4662 -0.2534 -0.0876
  933MOL0     C28634  12.617   6.919   4.411  0.1841  0.2155  0.5460
  933MOL0     C28635  12.691   6.896   4.297  0.9149 -0.1570  0.0889
  933MOL0     C28636  12.841   6.861   4.300 -0.1519  0.3401 -0.2174
  933MOL0     C28637  12.934   6.980   4.341  0.0720  0.2714  0.0679
  933MOL0     C28638  13.067   6.929   4.386 -0.7421  0.5199  0.0934
  933MOL0     C28639  13.179   7.039   4.390 -0.3979  0.5999 -0.9185
  933MOL0     O28640  13.296   6.982   4.461  0.9777 -0.5281 -0.7706
  933MOL0     C28641  13.409   7.059   4.493  0.0245  1.0038  0.0404
  933MOL0     C28642  13.521   6.993   4.548  0.0056  0.6658 -1.2581
  933MOL0     C28643  13.621   7.060   4.612 -0.2645 -0.3013  0.4188
  933MOL0     C28644  13.709   6.978   4.702 -0.4394 -0.4124  0.1507
  933MOL0     C28645  13.635   7.199   4.598 -0.6020 -0.2844 -0.3957
  933MOL0     C28646  13.754   7.288   4.640  0.5253  0.0424 -1.0369
  933MOL0     O28647  13.721   7.415   4.626  0.6077 -0.0603  0.3750
  933MOL0     C28648  13.794   7.505   4.685 -0.0348 -0.6466 -0.0744
  933MOL0     C28649  13.726   7.604   4.760  1.0578 -0.3565 -0.5308
  933MOL0     C28650  13.795   7.706   4.832 -0.1557 -0.6257  0.7573
  933MOL0     C28651  13.927   7.721   4.816  0.3808 -0.5469 -0.5742
  933MOL0     O28652  13.998   7.824   4.869  0.0746 -0.3310  0.0085
  933MOL0     C28653  13.919   7.936   4.913 -0.7936  0.1582 -0.5973
  933MOL0     C28654  14.012   8.032   4.988 -0.9750 -0.2010  1.0230
  933MOL0     C28655  14.105   7.969   5.096 -0.7443 -0.2441 -0.4286
  933MOL0     C28656  14.190   8.080   5.163  0.4937 -0.2915 -0.3586
  933MOL0     C28657  14.240   8.030   5.302 -0.9894  0.0680  0.4713
  933MOL0     C28658  14.320   7.896   5.294 -0.5603 -0.5804  0.0179
  933MOL0     C28659  14.440   7.898   5.400 -0.5664 -0.0336  0.1810
  933MOL0     C28660  14.545   7.783   5.380  0.5757  0.1682 -1.4055
  933MOL0    Cl28661  14.479   7.628   5.448 -0.1988  0.2984  0.0203
  933MOL0     C28662  13.998   7.622   4.751  0.3276 -0.7962 -0.0721
  933MOL0     C28663  13.933   7.519   4.690 -0.3993  0.7170 -0.4197
  933MOL0     O28664  13.859   7.239   4.685  0.3344 -0.2563  0.0395
  933MOL0     C28665  13.529   7.261   4.526 -0.1394  0.3562  0.0030
  933MOL0     C28666  13.416   7.199   4.479  0.4080  0.0980  0.5402
  933MOL0     N28667  12.603   6.876   4.192  0.0026  0.2924  0.0051
  933MOL0     N28668  12.484   6.906   4.240  0.2331 -0.5360  0.5951
  933MOL0     C28669  11.570   7.440   4.548 -0.0907  1.0502 -0.0800
  933MOL0     C28670  11.457   7.508   4.593 -0.4587 -0.5541 -0.0224
  933MOL0     C28671  11.061   7.467   4.874 -0.7873 -0.4420  0.9263
  933MOL0     C28672  11.015   7.356   4.957 -0.3102  0.4685  0.9299
  933MOL0     C28673  10.954   7.373   5.080 -0.2819 -0.1089 -0.3578
  933MOL0     C28674  10.923   7.508   5.116  0.6944 -0.1631  0.0922
  933MOL0     O28675  10.873   7.548   5.235  0.1799 -0.4161  0.2439
  933MOL0     C28676  10.791   7.445   5.282 -0.6112  0.7476  0.4302
  933MOL0     C28677  10.681   7.504   5.366  0.1647  0.3360  0.6736
  933MOL0     C28678  10.755   7.531   5.504  0.2247  0.3026 -0.1607
  933MOL0     C28679  10.657   7.597   5.603  0.1189 -0.5191 -0.1350
  933MOL0     C28680  10.692   7.576   5.747  0.2992  0.3658  0.1120
  933MOL0     C28681  10.726   7.542   5.858  0.1872  0.4891 -0.9218
  933MOL0     C28682  10.952   7.611   5.030 -0.3368  0.6297 -0.1600
  933MOL0     C28683  11.026   7.599   4.917 -0.1614 -0.2302  0.1045
  933MOL0     C28684  11.070   7.720   4.833  0.7856  0.3793  0.6316
  933MOL0     H28685  11.356   7.286   4.829 -0.8999 -1.3082 -1.2413
  933MOL0     H28686  11.545   7.155   4.727 -1.7998 -0.3832 -1.0073
  933MOL0     H28687  11.660   7.276   4.357 -1.3259 -1.1171  2.1520
  933MOL0     H28688  11.763   7.140   4.401  1.6329 -0.1455  0.2061
  933MOL0     H28689  11.904   7.330   4.274  1.4006  3.0931  0.6551
  933MOL0     H28690  11.845   7.443   4.382  0.5231  0.4926 -1.2050
  933MOL0     H28691  11.959   7.356   4.570 -0.1963 -0.9680  1.0839
  933MOL0     H28692  11.994   7.205   4.496  2.0091  0.7838 -0.4439
  933MOL0     H28693  12.113   7.347   4.307 -0.4361  1.2604  0.1043
  933MOL0     H28694  12.104   7.474   4.428  0.7878 -0.1758 -0.5851
  933MOL0     H28695  12.236   7.319   4.586  2.3591 -3.6343  0.1445
  933MOL0     H28696  12.335   7.377   4.445 -1.1209  1.5957  0.1073
  933MOL0     H28697  12.179   7.122   4.410  0.7173 -2.5674  1.2916
  933MOL0     H28698  12.335   7.172   4.341  0.9418 -0.8346  0.9368
  933MOL0     H28699  12.286   7.070   4.613 -0.4520  0.3345  0.2554
  933MOL0     H28700  12.448   7.126   4.548 -0.1404  0.2712  0.3456
  933MOL0     H28701  12.396   6.880   4.552  0.0059  3.4516  2.4820
  933MOL0     H28702  12.286   6.896   4.416  2.1839 -2.5603 -1.6148
  933MOL0     H28703  12.659   6.924   4.511  1.6817 -2.6183  0.1530
  933MOL0     H28704  12.857   6.821   4.200  0.3022 -0.7661  0.2813
  933MOL0     H28705  12.849   6.776   4.368 -1.4375  0.1039 -0.3529
  933MOL0     H28706  12.965   7.029   4.248  0.1441  2.5681  1.2405
  933MOL0     H28707  12.886   7.044   4.415  0.1388  0.9499 -0.4665
  933MOL0     H28708  13.065   6.876   4.482  1.8448  0.0933 -0.0175
  933MOL0     H28709  13.100   6.853   4.315  0.9923  0.8484  0.4976
  933MOL0     H28710  13.207   7.074   4.290  3.4569 -0.8790 -0.5423
  933MOL0     H28711  13.133   7.127   4.435 -1.2711 -0.9078  1.3024
  933MOL0     H28712  13.505   6.888   4.571 -0.7804  0.8685 -0.8479
  933MOL0     H28713  13.799   6.962   4.642  0.2773  0.3212  0.9929
  933MOL0     H28714  13.675   6.882   4.742 -3.0973  0.7750  0.9966
  933MOL0     H28715  13.743   7.043   4.783  3.4891  2.5866 -3.5063
  933MOL0     H28716  13.618   7.596   4.765  1.1640 -1.4108  0.2605
  933MOL0     H28717  13.725   7.775   4.878  0.3045  3.3364 -3.7006
  933MOL0     H28718  13.872   7.995   4.833  0.7411  1.3039 -0.7001
  933MOL0     H28719  13.837   7.910   4.980  0.3948  0.2122  0.9267
  933MOL0     H28720  14.073   8.067   4.904 -0.4734  3.2557  2.6592
  933MOL0     H28721  13.953   8.113   5.030 -1.1885  0.4496 -0.4560
  933MOL0     H28722  14.180   7.903   5.051  1.5289  1.6817  0.3493
  933MOL0     H28723  14.048   7.903   5.162  2.9807 -2.6329  0.6716
  933MOL0     H28724  14.134   8.171   5.189  0.8389 -0.8675  2.7219
  933MOL0     H28725  14.266   8.104   5.088 -0.3252 -0.4230 -1.2571
  933MOL0     H28726  14.298   8.107   5.355 -2.1671 -0.1076  2.1164
  933MOL0     H28727  14.153   8.029   5.369 -0.9578  4.2749  0.8526
  933MOL0     H28728  14.383   7.895   5.205  0.0013  0.6802  0.3691
  933MOL0     H28729  14.261   7.805   5.308 -3.3770  0.7891 -2.0692
  933MOL0     H28730  14.407   7.875   5.501  0.9297 -2.1688  0.2531
  933MOL0     H28731  14.491   7.994   5.390 -1.1323  0.4298  1.5984
  933MOL0     H28732  14.635   7.820   5.431 -0.6199  1.1675  0.0670
  933MOL0     H28733  14.566   7.766   5.274 -0.8787 -0.5488 -1.6123
  933MOL0     H28734  14.106   7.611   4.752  0.1513 -3.1754  1.2678
  933MOL0     H28735  13.991   7.449   4.630  0.0484  0.4445  0.3238
  933MOL0     H28736  13.525   7.368   4.506  0.2962  0.5618  0.9591
  933MOL0     H28737  13.336   7.255   4.432  0.6051  1.1879  1.4569
  933MOL0     H28738  11.639   7.487   4.478  1.0617 -0.2429  0.1396
  933MOL0     H28739  11.434   7.609   4.562 -0.0719  0.1990  1.9811
  933MOL0     H28740  11.046   7.258   4.923 -1.3777 -0.2573  1.9552
  933MOL0     H28741  10.932   7.288   5.143  1.9891 -2.7726 -2.8740
  933MOL0     H28742  10.743   7.396   5.196  1.4180  1.5229 -1.2177
  933MOL0     H28743  10.848   7.368   5.334  0.0498  0.2086 -1.0322
  933MOL0     H28744  10.620   7.413   5.374  0.0376  0.2568 -0.9225
  933MOL0     H28745  10.626   7.584   5.317 -1.8864 -0.9476  0.7581
  933MOL0     H28746  10.778   7.441   5.562 -2.6975  1.9923  4.1324
  933MOL0     H28747  10.846   7.590   5.489  0.2806  1.5129  3.8586
  933MOL0     H28748  10.553   7.564   5.595  0.3962 -1.6848  0.8495
  933MOL0     H28749  10.651   7.704   5.580 -2.8162 -0.6818 -0.5341
  933MOL0     H28750  10.761   7.510   5.955 -0.2729  1.9042 -0.2679
  933MOL0     H28751  10.925   7.713   5.057 -0.8960 -0.2199  2.8188
  933MOL0     H28752  11.079   7.707   4.725 -0.2244  0.7440  0.4876
  933MOL0     H28753  10.990   7.795   4.838 -0.0004 -0.5089  1.8849
  933MOL0     H28754  11.162   7.766   4.871  1.9745 -2.3940  1.3113
  934MOL0     O28755   1.164   6.648   2.789 -0.4456  0.2476  0.8506
  934MOL0     C28756   1.124   6.764   2.744 -0.0144  0.9300 -0.2696
  934MOL0     O28757   1.207   6.859   2.705  0.3488 -0.1482  0.5354
  934MOL0     C28758   1.335   6.853   2.738 -0.5818 -0.4180  0.3362
  934MOL0     C28759   1.421   6.774   2.659 -0.3486  0.0710  0.3532
  934MOL0     C28760   1.569   6.776   2.683  0.8303 -0.3320  0.6345
  934MOL0     C28761   1.617   6.858   2.783  0.6333 -0.4774 -1.0470
  934MOL0     O28762   1.748   6.883   2.816 -0.2182 -0.1370  0.4271
  934MOL0     C28763   1.811   6.761   2.856 -0.0429 -0.4292  0.2990
  934MOL0     C28764   1.781   6.725   3.004 -0.3073 -0.1420  0.3262
  934MOL0     C28765   1.848   6.812   3.104 -0.3029 -0.6286 -0.4904
  934MOL0     C28766   1.998   6.788   3.108  0.2766  0.2538  0.4973
  934MOL0     C28767   2.069   6.919   3.150 -0.4260 -0.6128  1.4551
  934MOL0     C28768   2.214   6.900   3.202  0.4455  0.4424 -0.5656
  934MOL0     C28769   2.257   7.042   3.259  0.4814  0.5800 -0.2891
  934MOL0     C28770   2.388   7.014   3.340  0.0862 -0.8210 -0.4686
  934MOL0     N28771   2.502   7.007   3.248  0.6263 -0.3619  0.5971
  934MOL0     C28772   2.568   7.112   3.186  0.2007 -0.2458 -0.3697
  934MOL0     C28773   2.620   7.047   3.079  0.1764 -1.0455 -0.8737
  934MOL0     C28774   2.700   7.126   2.976  0.4157 -0.8725  0.6556
  934MOL0     C28775   2.842   7.166   3.007  0.0678 -0.5318  0.3865
  934MOL0     C28776   2.942   7.046   2.990 -0.5732  0.8158 -0.0788
  934MOL0     C28777   3.090   7.086   3.022 -0.9159  0.1667  0.3410
  934MOL0     O28778   3.139   7.186   2.933 -0.3672 -0.9060  0.2820
  934MOL0     C28779   3.270   7.231   2.954  0.2287 -0.6025 -0.9186
  934MOL0     C28780   3.313   7.344   2.885  0.1356 -0.1637  0.1113
  934MOL0     C28781   3.444   7.395   2.901  0.6399  1.3572  0.6943
  934MOL0     C28782   3.487   7.514   2.811  0.4873 -0.1423  0.2727
  934MOL0     C28783   3.520   7.339   3.001  0.2904 -0.2309 -0.7778
  934MOL0     C28784   3.656   7.380   3.028 -1.7566 -0.4288  0.2196
  934MOL0     O28785   3.701   7.370   3.157  0.0843 -0.1519  0.2104
  934MOL0     C28786   3.836   7.397   3.175  0.2893  0.1112 -0.6102
  934MOL0     C28787   3.945   7.317   3.132 -0.5856  0.4332 -0.1824
  934MOL0     C28788   4.080   7.357   3.145  0.2194 -0.3583 -0.0654
  934MOL0     C28789   4.101   7.481   3.205 -0.3473 -0.1885 -1.2526
  934MOL0     O28790   4.228   7.532   3.219  0.1680 -0.2508  0.2439
  934MOL0     C28791   4.321   7.460   3.300  0.0671  0.4623  0.1517
  934MOL0     C28792   4.434   7.545   3.362 -0.0891 -0.2110  0.0428
  934MOL0     C28793   4.401   7.698   3.378  0.0989 -0.0840 -0.1017
  934MOL0     C28794   4.513   7.778   3.445 -0.5359 -0.0229 -0.3481
  934MOL0     C28795   4.464   7.923   3.446 -0.3408 -0.0572 -0.5675
  934MOL0     C28796   4.549   8.026   3.533 -0.1492  0.1193 -0.0154
  934MOL0     C28797   4.534   7.990   3.673 -0.8338  0.0564  0.1492
  934MOL0     C28798   4.639   8.076   3.749 -0.2077 -0.8383  0.1548
  934MOL0    Cl28799   4.624   8.033   3.919 -0.4355  0.0409  0.0026
  934MOL0     C28800   3.991   7.559   3.243 -0.5482 -0.4059 -0.3207
  934MOL0     C28801   3.866   7.521   3.223  0.6670  0.4539  0.1318
  934MOL0     O28802   3.728   7.386   2.926  0.1971  0.0182 -0.7071
  934MOL0     C28803   3.479   7.227   3.080 -0.2389 -0.3453  0.6220
  934MOL0     C28804   3.350   7.174   3.053 -0.7206 -0.5165 -0.2394
  934MOL0     N28805   2.602   6.914   3.085 -0.1071  0.3921 -1.1424
  934MOL0     N28806   2.533   6.888   3.191 -0.9378  0.3193 -0.0833
  934MOL0     C28807   1.523   6.939   2.857 -0.8596 -0.0340  0.7720
  934MOL0     C28808   1.388   6.934   2.835 -0.0487  0.1302 -0.8362
  934MOL0     C28809   0.980   6.778   2.722 -0.2509 -0.4419  0.2381
  934MOL0     C28810   0.941   6.896   2.648  0.2067  0.6823 -0.5012
  934MOL0     C28811   0.803   6.916   2.627 -0.2886  0.2084  0.1171
  934MOL0     C28812   0.707   6.829   2.662  0.1659  0.2998 -0.0620
  934MOL0     O28813   0.578   6.851   2.617 -0.0285 -0.5094  0.2286
  934MOL0     C28814   0.481   6.741   2.627  1.0404 -1.0086 -0.1477
  934MOL0     C28815   0.348   6.819   2.609 -0.2368  0.9614 -0.5612
  934MOL0     C28816   0.212   6.754   2.623  0.1485  0.2714 -0.3106
  934MOL0     C28817   0.188   6.670   2.751 -0.1521  0.3962  0.0007
  934MOL0     C28818   0.191   6.754   2.875  0.4384  0.2552  0.0685
  934MOL0     C28819   0.197   6.841   2.961 -0.6560  0.3214 -0.1358
  934MOL0     C28820   0.747   6.713   2.731 -0.2830 -0.4506  0.2427
  934MOL0     C28821   0.881   6.684   2.762 -0.0402 -0.5360 -1.2423
  934MOL0     C28822   0.906   6.566   2.851 -0.1641  0.7824  0.1481
  934MOL0     H28823   1.375   6.708   2.586 -1.9233 -2.1248  3.1131
  934MOL0     H28824   1.635   6.711   2.626  1.6759  0.7820  0.3178
  934MOL0     H28825   1.918   6.777   2.843 -0.2189  2.1457  1.3200
  934MOL0     H28826   1.777   6.679   2.792  3.0247 -0.7390 -1.0934
  934MOL0     H28827   1.673   6.733   3.021 -0.5925  0.3105 -1.4647
  934MOL0     H28828   1.809   6.620   3.016  0.8027  0.3838  2.7745
  934MOL0     H28829   1.833   6.919   3.089  3.3926  0.2149  0.9257
  934MOL0     H28830   1.812   6.777   3.201 -1.8904 -1.3128 -1.2807
  934MOL0     H28831   2.010   6.712   3.185  1.4037  1.2036  1.3054
  934MOL0     H28832   2.051   6.743   3.024 -2.8374 -0.2902 -1.3192
  934MOL0     H28833   2.006   6.971   3.223 -3.7679 -3.2734  0.7349
  934MOL0     H28834   2.060   6.989   3.066  1.0618  1.7449  3.1280
  934MOL0     H28835   2.218   6.825   3.281  1.6563  0.0860 -0.9532
  934MOL0     H28836   2.289   6.868   3.130  2.0211 -2.2354  2.0293
  934MOL0     H28837   2.182   7.094   3.321 -1.3177  1.7984 -3.2772
  934MOL0     H28838   2.275   7.111   3.176 -1.8964  2.1989  0.4355
  934MOL0     H28839   2.400   7.107   3.396 -1.1433 -0.0630 -1.4015
  934MOL0     H28840   2.393   6.937   3.417  2.2681 -2.3024 -1.9835
  934MOL0     H28841   2.556   7.218   3.209 -4.9152 -0.8411  0.8784
  934MOL0     H28842   2.648   7.220   2.953  0.8333 -0.6682  0.5322
  934MOL0     H28843   2.698   7.075   2.879 -1.7768  1.0195 -0.4151
  934MOL0     H28844   2.867   7.263   2.964 -1.7915  1.0578  2.6449
  934MOL0     H28845   2.843   7.185   3.115  0.3345 -0.8440  0.4385
  934MOL0     H28846   2.914   6.969   3.062 -2.2266  0.9564 -0.5325
  934MOL0     H28847   2.941   6.998   2.892  2.5260 -2.8947  1.4498
  934MOL0     H28848   3.094   7.118   3.127  0.2696  3.1846 -0.5207
  934MOL0     H28849   3.156   7.000   3.012  0.6468  1.3002  0.4458
  934MOL0     H28850   3.250   7.397   2.814 -0.5486  0.2857  1.0454
  934MOL0     H28851   3.464   7.603   2.869 -1.9250 -0.0852 -0.6676
  934MOL0     H28852   3.436   7.511   2.714 -2.3853 -0.5251  1.7086
  934MOL0     H28853   3.594   7.511   2.787  0.6425 -0.9770  1.0309
  934MOL0     H28854   3.915   7.223   3.085 -4.1910  2.6892 -2.9602
  934MOL0     H28855   4.162   7.301   3.101 -0.4755 -1.1188 -0.4242
  934MOL0     H28856   4.269   7.413   3.384  0.8862  0.7999  0.8612
  934MOL0     H28857   4.372   7.391   3.232 -0.5908 -2.7267  2.6386
  934MOL0     H28858   4.472   7.514   3.460  0.3050 -0.3275 -0.1458
  934MOL0     H28859   4.525   7.542   3.301  0.8840 -1.7916  1.4779
  934MOL0     H28860   4.297   7.698   3.414 -0.4344 -0.1194 -1.5802
  934MOL0     H28861   4.383   7.733   3.277  2.2121  1.2070 -0.0735
  934MOL0     H28862   4.610   7.777   3.395  1.7153  1.1499  3.5050
  934MOL0     H28863   4.528   7.730   3.542 -1.3593  1.1482  0.3936
  934MOL0     H28864   4.458   7.958   3.342  2.0091  0.5259 -0.5699
  934MOL0     H28865   4.366   7.930   3.494  1.1530  0.7290  2.6328
  934MOL0     H28866   4.526   8.132   3.522 -2.4471  0.0105  2.5657
  934MOL0     H28867   4.653   8.022   3.499  0.4792  0.3068  1.7506
  934MOL0     H28868   4.553   7.882   3.673 -0.0754  0.1873  0.0206
  934MOL0     H28869   4.429   8.010   3.697 -1.2131 -1.7284  0.1829
  934MOL0     H28870   4.611   8.181   3.740  0.9422 -0.1488  3.3451
  934MOL0     H28871   4.737   8.057   3.703 -0.7667 -4.1666  0.1253
  934MOL0     H28872   4.019   7.655   3.285 -1.5877  0.3889 -1.3820
  934MOL0     H28873   3.779   7.583   3.239 -0.7086 -1.7735  1.9650
  934MOL0     H28874   3.558   7.182   3.140 -0.5432 -3.7353 -1.2792
  934MOL0     H28875   3.329   7.086   3.114  2.3939  0.2126  2.1415
  934MOL0     H28876   1.564   7.014   2.925  1.3015 -3.6254  3.8402
  934MOL0     H28877   1.321   6.997   2.893 -0.7996 -1.6945  0.3454
  934MOL0     H28878   1.009   6.974   2.615  0.8634  0.0724 -0.6241
  934MOL0     H28879   0.763   7.012   2.597 -1.7423 -0.0441  1.1374
  934MOL0     H28880   0.501   6.668   2.548 -0.0209  0.0252 -1.4247
  934MOL0     H28881   0.480   6.702   2.729 -2.3093  1.5954  1.0016
  934MOL0     H28882   0.347   6.862   2.509 -0.5323  1.5271 -0.3194
  934MOL0     H28883   0.351   6.904   2.678 -1.0806  0.0946  0.5745
  934MOL0     H28884   0.133   6.830   2.625  1.2233  1.4943 -1.4773
  934MOL0     H28885   0.192   6.687   2.539 -3.1673  1.8537 -0.9788
  934MOL0     H28886   0.259   6.587   2.741  0.4246  0.9688 -0.7988
  934MOL0     H28887   0.087   6.631   2.733  0.5863 -0.2111 -3.7423
  934MOL0     H28888   0.209   6.923   3.028 -0.2830  2.3877 -2.5949
  934MOL0     H28889   0.679   6.640   2.774 -2.2303  1.2169  0.0901
  934MOL0     H28890   0.944   6.587   2.952 -0.9520  1.1810  0.3709
  934MOL0     H28891   0.816   6.509   2.876 -1.0604  1.3694 -1.6117
  934MOL0     H28892   0.974   6.499   2.798 -0.5851 -0.8723  1.6065
  935MOL0     O28893   4.591   1.480   9.493 -0.5664  0.8059  0.5910
  935MOL0     C28894   4.553   1.384   9.558  0.3618 -1.1066 -0.5759
  935MOL0     O28895   4.622   1.270   9.576 -0.3268 -0.3021 -0.1084
  935MOL0     C28896   4.734   1.257   9.510 -0.4765  0.7744  0.8719
  935MOL0     C28897   4.738   1.179   9.399  0.5146  0.6979 -0.2367
  935MOL0     C28898   4.861   1.139   9.341  0.4579  0.0443  0.4130
  935MOL0     C28899   4.976   1.210   9.384  0.4321 -0.2068 -0.5587
  935MOL0     O28900   5.098   1.200   9.334  0.3295  0.3948 -0.1136
  935MOL0     C28901   5.156   1.070   9.358 -0.1594 -0.1020  0.0879
  935MOL0     C28902   5.287   1.067   9.286 -0.8212  0.2757 -0.3573
  935MOL0     C28903   5.392   1.171   9.332  0.9655  0.3503 -0.3955
  935MOL0     C28904   5.450   1.151   9.470  0.1651 -0.3373  0.3499
  935MOL0     C28905   5.512   1.013   9.489  0.1200 -0.6152  0.4739
  935MOL0     C28906   5.576   1.002   9.629  0.5906  0.4335 -0.1504
  935MOL0     C28907   5.618   0.857   9.648  0.2136 -0.3589 -0.1314
  935MOL0     C28908   5.664   0.824   9.787  0.7795  0.2385  0.0146
  935MOL0     N28909   5.804   0.865   9.808  0.6527 -0.3666 -0.2464
  935MOL0     C28910   5.916   0.813   9.743  0.8453  0.7177 -0.1235
  935MOL0     C28911   6.018   0.866   9.817 -0.2130 -0.0573  0.2071
  935MOL0     C28912   6.170   0.863   9.786  0.0512 -0.0406 -0.4485
  935MOL0     C28913   6.245   0.726   9.799  0.5426  0.2249 -0.6188
  935MOL0     C28914   6.281   0.693   9.950 -0.1548 -0.3406 -0.2131
  935MOL0     C28915   6.361   0.567   9.971 -0.5269  0.4962  0.4906
  935MOL0     O28916   6.348   0.535  10.110 -0.1040  0.0758 -0.0205
  935MOL0     C28917   6.380   0.405  10.155  0.0672  0.0032  1.3466
  935MOL0     C28918   6.434   0.306  10.076 -0.2072 -0.0607 -0.8507
  935MOL0     C28919   6.477   0.183  10.120 -0.4303  0.7348 -0.6001
  935MOL0     C28920   6.537   0.092  10.025  0.2156  0.0036  0.1415
  935MOL0     C28921   6.471   0.155  10.254  0.0168  0.3225  0.3936
  935MOL0     C28922   6.540   0.042  10.315 -0.5085  0.2576 -1.1106
  935MOL0     O28923   6.498  -0.087  10.302  0.3724  0.4981 -0.7227
  935MOL0     C28924   6.572  -0.180  10.366 -0.9994  0.3148  0.5748
  935MOL0     C28925   6.528  -0.229  10.483 -0.1280 -0.2857 -0.7989
  935MOL0     C28926   6.593  -0.330  10.550 -0.2746  0.4732 -0.4001
  935MOL0     C28927   6.713  -0.381  10.501  0.3107 -0.5618 -0.5360
  935MOL0     O28928   6.788  -0.479  10.556  0.2592  0.1762 -0.1329
  935MOL0     C28929   6.731  -0.594  10.619 -0.1129 -0.1088 -0.0886
  935MOL0     C28930   6.823  -0.710  10.629  0.3480 -0.8488 -0.3584
  935MOL0     C28931   6.961  -0.680  10.678 -0.6704 -0.7916  0.1655
  935MOL0     C28932   7.037  -0.815  10.707  0.6540 -1.0466 -0.4646
  935MOL0     C28933   7.183  -0.795  10.742  0.1240 -0.9789 -0.1653
  935MOL0     C28934   7.259  -0.928  10.750  0.2476  0.5375 -0.0888
  935MOL0     C28935   7.402  -0.889  10.797  0.3801  0.8903  0.3409
  935MOL0     C28936   7.491  -0.853  10.680 -0.1142  0.2606 -0.1999
  935MOL0    Cl28937   7.508  -0.971  10.554  0.0195 -0.1483  0.3465
  935MOL0     C28938   6.771  -0.315  10.394  0.1674  0.3677  0.6618
  935MOL0     C28939   6.697  -0.219  10.321  0.9820 -0.1978  1.0047
  935MOL0     O28940   6.645   0.077  10.370 -0.1537  1.2188  0.1018
  935MOL0     C28941   6.410   0.259  10.338 -0.1576 -0.3648 -0.1948
  935MOL0     C28942   6.369   0.381  10.285  0.5451  0.2246 -0.3405
  935MOL0     N28943   5.968   0.952   9.911  0.9941  0.1781 -0.4079
  935MOL0     N28944   5.838   0.950   9.911 -0.0734 -0.4484  0.5770
  935MOL0     C28945   4.975   1.308   9.482  0.2022  0.5070 -0.9545
  935MOL0     C28946   4.852   1.322   9.547  0.2478  0.3019 -0.3170
  935MOL0     C28947   4.415   1.400   9.618  1.1133 -0.3475  0.4607
  935MOL0     C28948   4.329   1.511   9.583 -0.3027 -0.1814  0.3751
  935MOL0     C28949   4.201   1.529   9.647 -0.8944 -0.4589  1.0763
  935MOL0     C28950   4.158   1.433   9.740  0.3585 -0.3959 -0.2288
  935MOL0     O28951   4.025   1.471   9.777 -0.2340 -0.4939 -1.3368
  935MOL0     C28952   3.932   1.363   9.802  0.1369 -0.0333  0.5993
  935MOL0     C28953   3.807   1.411   9.878  0.9905 -0.4848 -0.6770
  935MOL0     C28954   3.739   1.525   9.798  0.3465 -0.4485 -0.1571
  935MOL0     C28955   3.621   1.589   9.864  0.1850  0.1145 -0.9966
  935MOL0     C28956   3.501   1.504   9.877 -0.4980 -0.1162 -0.4833
  935MOL0     C28957   3.399   1.429   9.889 -0.2646  0.5378 -0.1071
  935MOL0     C28958   4.240   1.326   9.780 -0.6658 -0.3687  0.2288
  935MOL0     C28959   4.372   1.317   9.727 -0.2666  0.0669 -0.0959
  935MOL0     C28960   4.448   1.204   9.795 -0.4664  0.5927 -0.1508
  935MOL0     H28961   4.646   1.131   9.365  0.4602 -0.2138  1.0834
  935MOL0     H28962   4.863   1.068   9.260  0.1828  1.8481 -1.2614
  935MOL0     H28963   5.085   0.997   9.317 -0.6699  0.3674  0.1221
  935MOL0     H28964   5.171   1.048   9.464 -2.9152  0.0799  0.5910
  935MOL0     H28965   5.326   0.965   9.295  0.1910  0.6995  0.1489
  935MOL0     H28966   5.257   1.084   9.182  0.6551 -0.2568 -0.8955
  935MOL0     H28967   5.473   1.182   9.259 -0.2897  0.8717 -1.7479
  935MOL0     H28968   5.341   1.267   9.337 -1.3283 -0.8646  2.5329
  935MOL0     H28969   5.520   1.232   9.494 -0.4625  0.9476 -1.8470
  935MOL0     H28970   5.363   1.145   9.536  0.4744  1.0713  0.9291
  935MOL0     H28971   5.586   1.003   9.408  0.4621 -2.1061  0.9292
  935MOL0     H28972   5.433   0.939   9.478  0.8171 -1.2639 -0.3965
  935MOL0     H28973   5.668   1.062   9.633  1.7775 -1.0179 -2.6664
  935MOL0     H28974   5.495   1.026   9.697  0.0081  2.3070 -1.4238
  935MOL0     H28975   5.691   0.809   9.581  0.4135  0.9569 -0.8825
  935MOL0     H28976   5.526   0.801   9.629 -0.5426  1.7376 -3.5221
  935MOL0     H28977   5.600   0.863   9.867  2.2464  0.2483  1.2087
  935MOL0     H28978   5.658   0.715   9.802  1.8587  0.7179  6.9867
  935MOL0     H28979   5.922   0.754   9.652  0.7915  1.3167 -0.5238
  935MOL0     H28980   6.233   0.937   9.837 -1.8609 -0.1737  2.3491
  935MOL0     H28981   6.166   0.890   9.680  0.3863  0.9224 -0.2247
  935MOL0     H28982   6.188   0.646   9.751  2.2048 -0.4343 -1.5831
  935MOL0     H28983   6.333   0.739   9.736  0.5573  0.3638 -0.5718
  935MOL0     H28984   6.335   0.777   9.995  2.4120 -1.1512 -1.5807
  935MOL0     H28985   6.185   0.689  10.003 -0.2246  0.6450 -0.2503
  935MOL0     H28986   6.318   0.493   9.903 -2.5152  0.7163  1.4408
  935MOL0     H28987   6.463   0.594   9.940 -0.3054  0.1933  0.9454
  935MOL0     H28988   6.460   0.326   9.972  1.6403 -2.2598 -0.8877
  935MOL0     H28989   6.623   0.039  10.066 -0.6975 -3.1057 -1.5534
  935MOL0     H28990   6.574   0.139   9.934  0.9208 -1.4532 -0.3554
  935MOL0     H28991   6.471   0.012   9.989  0.8910  0.4528 -2.2371
  935MOL0     H28992   6.444  -0.174  10.524 -1.9300 -0.4570 -3.9286
  935MOL0     H28993   6.561  -0.368  10.646  1.2116  3.4492  1.4263
  935MOL0     H28994   6.683  -0.556  10.710 -3.7309  0.2274 -1.9466
  935MOL0     H28995   6.646  -0.615  10.554  0.5773  3.0655 -2.2840
  935MOL0     H28996   6.774  -0.773  10.704 -1.7733 -0.7124 -1.5482
  935MOL0     H28997   6.824  -0.773  10.539  1.7859 -2.1244  0.4931
  935MOL0     H28998   6.959  -0.614  10.765  0.0598  1.1314 -1.2078
  935MOL0     H28999   7.011  -0.617  10.604 -0.5997 -0.4888  0.4651
  935MOL0     H29000   7.030  -0.872  10.614 -0.5651  0.1189 -1.1176
  935MOL0     H29001   6.989  -0.868  10.790  0.5120  0.6276  0.5638
  935MOL0     H29002   7.221  -0.720  10.673 -1.2625 -0.3761 -0.3055
  935MOL0     H29003   7.182  -0.750  10.842 -1.6398  3.2322 -1.8296
  935MOL0     H29004   7.260  -0.968  10.648  1.8794  3.5110 -1.3584
  935MOL0     H29005   7.211  -0.996  10.822  1.2850 -3.6036 -2.9162
  935MOL0     H29006   7.440  -0.985  10.835 -3.9982 -0.6302  1.4210
  935MOL0     H29007   7.403  -0.817  10.879 -0.5952 -1.4596  2.5418
  935MOL0     H29008   7.593  -0.840  10.715 -0.5975  0.3409  1.2726
  935MOL0     H29009   7.466  -0.753  10.644  1.7791  1.1484  0.8206
  935MOL0     H29010   6.875  -0.339  10.373 -0.1962 -2.9132  1.9590
  935MOL0     H29011   6.739  -0.179  10.230  0.0939 -0.5175  0.4377
  935MOL0     H29012   6.406   0.235  10.443  0.8916  0.0326 -0.0547
  935MOL0     H29013   6.323   0.458  10.345  0.0694 -0.3080 -0.0217
  935MOL0     H29014   5.064   1.370   9.496 -0.4934  1.3512 -0.1348
  935MOL0     H29015   4.854   1.384   9.637  0.6801 -0.9081  0.5332
  935MOL0     H29016   4.354   1.574   9.498 -4.5140 -2.3960 -2.8691
  935MOL0     H29017   4.151   1.621   9.619  0.6553 -0.1238 -0.8179
  935MOL0     H29018   3.891   1.304   9.720  0.4872  1.8155 -0.9882
  935MOL0     H29019   3.969   1.276   9.856 -0.9776  0.2180  1.8120
  935MOL0     H29020   3.836   1.449   9.977 -0.6763 -2.4344  0.6667
  935MOL0     H29021   3.741   1.324   9.888  2.1274 -1.5584 -1.9634
  935MOL0     H29022   3.805   1.613   9.797 -4.6815  3.8125 -0.0912
  935MOL0     H29023   3.724   1.503   9.692 -0.0202  0.5965 -0.3349
  935MOL0     H29024   3.591   1.681   9.815 -3.3647 -0.8260 -0.8698
  935MOL0     H29025   3.663   1.626   9.958  0.3477  1.1176 -1.4582
  935MOL0     H29026   3.309   1.372   9.895 -0.8400  1.3687 -0.6130
  935MOL0     H29027   4.207   1.262   9.862  1.4334 -1.7419  0.0750
  935MOL0     H29028   4.526   1.247   9.858 -0.2649 -1.1532  0.8631
  935MOL0     H29029   4.393   1.150   9.873  2.3034  0.2172  1.7281
  935MOL0     H29030   4.492   1.137   9.721  0.3977  1.9895 -0.9441
  936MOL0     O29031   2.171   9.961   5.003 -0.3445 -0.8352  0.4662
  936MOL0     C29032   2.102   9.904   4.926  0.9450  0.0528  0.0987
  936MOL0     O29033   2.118   9.769   4.898 -0.1147 -0.4189  0.2330
  936MOL0     C29034   2.217   9.689   4.955  0.0595 -0.6816  1.3245
  936MOL0     C29035   2.343   9.738   5.006 -0.1824  0.2005 -0.3408
  936MOL0     C29036   2.430   9.662   5.078  0.5745 -0.6905 -0.3820
  936MOL0     C29037   2.404   9.523   5.097  0.0357 -0.4252 -0.3201
  936MOL0     O29038   2.481   9.433   5.153 -0.1736  0.0672 -0.6479
  936MOL0     C29039   2.582   9.462   5.246 -0.4708  0.0106  0.1142
  936MOL0     C29040   2.593   9.336   5.326  0.2088 -0.3388  0.2254
  936MOL0     C29041   2.470   9.295   5.403  0.0071 -0.5012 -0.7752
  936MOL0     C29042   2.451   9.401   5.511  0.2200  0.7308 -0.6497
  936MOL0     C29043   2.337   9.363   5.604 -0.4581 -0.4229 -0.1716
  936MOL0     C29044   2.344   9.432   5.742  0.0484  0.2521  0.6914
  936MOL0     C29045   2.424   9.360   5.845  0.3111  0.5746  0.3360
  936MOL0     C29046   2.413   9.425   5.979 -0.0004 -0.2325  0.2125
  936MOL0     N29047   2.510   9.534   5.995 -0.0384 -0.2296 -0.0271
  936MOL0     C29048   2.616   9.526   6.087 -0.4441  0.3210 -0.3099
  936MOL0     C29049   2.678   9.647   6.082 -0.2488  0.1894  0.0892
  936MOL0     C29050   2.798   9.689   6.163  0.8004  0.1126 -0.4834
  936MOL0     C29051   2.793   9.830   6.220 -0.3092 -0.2973 -0.6808
  936MOL0     C29052   2.892   9.854   6.335  0.0637 -0.4708  0.9611
  936MOL0     C29053   3.029   9.866   6.271 -0.6743 -0.3549  1.1633
  936MOL0     O29054   3.129   9.888   6.367  0.1215 -0.3026 -0.3746
  936MOL0     C29055   3.258   9.896   6.319  0.8015  0.0611  0.5980
  936MOL0     C29056   3.310   9.831   6.199 -0.3473 -0.2884 -0.1666
  936MOL0     C29057   3.442   9.851   6.154 -0.4583  0.7143  0.0416
  936MOL0     C29058   3.475   9.767   6.027 -0.0276 -0.0416 -0.2198
  936MOL0     C29059   3.530   9.937   6.226 -0.1680 -0.0665  0.3669
  936MOL0     C29060   3.666   9.985   6.192 -0.5090  0.1324  1.2330
  936MOL0     O29061   3.697   9.966   6.056  0.3018 -0.0921 -0.2730
  936MOL0     C29062   3.821  10.010   6.013  1.3440 -0.1400  0.7436
  936MOL0     C29063   3.829  10.120   5.926  0.0134 -0.1295 -0.6810
  936MOL0     C29064   3.944  10.169   5.875  0.3885  0.5067  0.1775
  936MOL0     C29065   4.065  10.115   5.910  0.3491 -0.5065  0.1805
  936MOL0     O29066   4.188  10.149   5.859 -1.2245  0.1595 -0.2697
  936MOL0     C29067   4.238  10.259   5.931  0.5797 -0.1002 -0.3510
  936MOL0     C29068   4.388  10.279   5.915  0.5417 -0.4427  0.5283
  936MOL0     C29069   4.437  10.377   6.020  0.0654  0.4062  0.0446
  936MOL0     C29070   4.558  10.459   5.957 -0.3526  0.2786 -0.0228
  936MOL0     C29071   4.649  10.532   6.058  0.1722 -0.5872  0.5016
  936MOL0     C29072   4.716  10.429   6.147 -1.2337 -0.7347  0.1944
  936MOL0     C29073   4.834  10.486   6.232  0.9135  0.0150  0.4098
  936MOL0     C29074   4.949  10.536   6.149  0.1355 -0.6210 -0.0253
  936MOL0    Cl29075   4.996  10.430   6.017  0.3904 -0.2587 -0.0410
  936MOL0     C29076   4.062  10.009   6.005 -0.4152  0.3009 -0.2054
  936MOL0     C29077   3.941   9.956   6.055 -0.0127 -0.4638  0.2931
  936MOL0     O29078   3.743  10.045   6.272  0.1298 -0.4518  0.3530
  936MOL0     C29079   3.484   9.985   6.357  0.3828  0.1142  0.3655
  936MOL0     C29080   3.350   9.968   6.394  0.0891 -0.1850  1.1275
  936MOL0     N29081   2.607   9.733   5.997 -0.0510 -1.0464 -0.2890
  936MOL0     N29082   2.512   9.664   5.944  0.0621  0.0815  0.1387
  936MOL0     C29083   2.287   9.467   5.028 -0.4493  0.0302 -0.8020
  936MOL0     C29084   2.196   9.556   4.967  0.3575 -0.3164  0.3610
  936MOL0     C29085   1.988   9.973   4.861 -0.5962 -1.3329 -0.5222
  936MOL0     C29086   1.908   9.909   4.773  0.4936  0.4606 -0.7663
  936MOL0     C29087   1.789   9.965   4.734 -0.1468  0.6223  0.2546
  936MOL0     C29088   1.759  10.104   4.762 -0.5314  0.4738  0.5603
  936MOL0     O29089   1.642  10.171   4.729 -0.9385  0.0273  0.2267
  936MOL0     C29090   1.543  10.103   4.653  0.2112 -0.3969 -0.2669
  936MOL0     C29091   1.418  10.195   4.666  0.1185 -0.3422 -0.2102
  936MOL0     C29092   1.309  10.172   4.555 -0.1078 -0.2066 -0.7931
  936MOL0     C29093   1.206  10.286   4.556  0.2636  0.4556 -0.3888
  936MOL0     C29094   1.111  10.276   4.675 -0.3703  0.1915 -0.6943
  936MOL0     C29095   1.030  10.279   4.770  0.0713 -0.7005 -0.8789
  936MOL0     C29096   1.848  10.177   4.834 -0.4226 -0.5645 -0.0013
  936MOL0     C29097   1.966  10.119   4.878  0.0359  0.7182  0.4349
  936MOL0     C29098   2.060  10.223   4.939  0.4082  0.7005  0.0471
  936MOL0     H29099   2.377   9.838   4.984 -1.0008 -0.1101 -3.4418
  936MOL0     H29100   2.526   9.705   5.109 -1.3143  2.4033  1.7624
  936MOL0     H29101   2.547   9.546   5.307 -0.9169 -0.2473  0.2154
  936MOL0     H29102   2.680   9.498   5.212 -0.4669  0.0016  0.1168
  936MOL0     H29103   2.624   9.256   5.259 -0.3827 -2.2034  2.0727
  936MOL0     H29104   2.681   9.348   5.390  1.1110  1.0323 -1.1898
  936MOL0     H29105   2.391   9.297   5.328 -0.1899  0.1634 -0.5655
  936MOL0     H29106   2.474   9.192   5.438 -1.4743 -0.9018 -1.7079
  936MOL0     H29107   2.543   9.417   5.567 -0.2638  1.7614 -0.1198
  936MOL0     H29108   2.431   9.501   5.471  2.3647  1.7695  0.7153
  936MOL0     H29109   2.339   9.255   5.624  0.3174 -0.4086 -0.1322
  936MOL0     H29110   2.238   9.384   5.564 -0.5266  4.6634  1.8437
  936MOL0     H29111   2.373   9.538   5.740  1.0062  0.0164  1.3289
  936MOL0     H29112   2.242   9.426   5.782 -0.3397  0.8457 -0.1743
  936MOL0     H29113   2.527   9.349   5.810  0.5991 -0.3143  1.3941
  936MOL0     H29114   2.381   9.260   5.856  0.2325  0.2003 -2.5718
  936MOL0     H29115   2.317   9.475   5.997  1.1462  3.3663 -2.4199
  936MOL0     H29116   2.434   9.353   6.058 -0.3301 -1.3335 -0.6693
  936MOL0     H29117   2.647   9.453   6.160 -1.7350  2.0299  2.0919
  936MOL0     H29118   2.880   9.689   6.091 -1.4718  0.0601 -3.2390
  936MOL0     H29119   2.817   9.620   6.246  1.7505 -0.1731 -0.9302
  936MOL0     H29120   2.784   9.904   6.141 -0.3984 -1.9731 -2.3175
  936MOL0     H29121   2.699   9.839   6.277 -0.4206 -0.3645 -0.8532
  936MOL0     H29122   2.847   9.939   6.387  0.0748  0.3346 -0.3203
  936MOL0     H29123   2.890   9.766   6.401 -0.1459 -1.3342 -0.1677
  936MOL0     H29124   3.052   9.787   6.198 -1.3628  2.4981 -2.4734
  936MOL0     H29125   3.019   9.962   6.218 -0.8467 -0.1062  1.6431
  936MOL0     H29126   3.252   9.764   6.136  1.2411 -1.2243 -0.7240
  936MOL0     H29127   3.389   9.728   5.972  1.2877  1.0718 -3.2998
  936MOL0     H29128   3.553   9.698   6.060 -1.3493 -0.1155  3.2024
  936MOL0     H29129   3.523   9.823   5.946  3.3754  0.6186  2.0641
  936MOL0     H29130   3.732  10.158   5.895 -1.0423 -1.0182  1.3594
  936MOL0     H29131   3.943  10.252   5.806  0.2927  0.8674  0.6050
  936MOL0     H29132   4.189  10.354   5.908  2.6815  0.9376 -0.7901
  936MOL0     H29133   4.234  10.236   6.037  1.8260 -2.5088 -0.7546
  936MOL0     H29134   4.449  10.188   5.920  4.3817  1.6760 -2.6138
  936MOL0     H29135   4.397  10.321   5.815  1.2058 -0.3038  0.6368
  936MOL0     H29136   4.460  10.307   6.100 -0.5734  1.7788  1.4713
  936MOL0     H29137   4.358  10.446   6.050 -0.2072  1.0319 -1.9418
  936MOL0     H29138   4.519  10.534   5.888 -2.7853 -1.6735 -0.9193
  936MOL0     H29139   4.623  10.389   5.903 -1.2704  0.7046 -1.7732
  936MOL0     H29140   4.723  10.588   6.000 -0.5403 -1.2674 -1.1244
  936MOL0     H29141   4.585  10.597   6.118  0.7886 -0.7666  1.3708
  936MOL0     H29142   4.752  10.342   6.092  2.2208  0.6844 -0.0767
  936MOL0     H29143   4.638  10.403   6.219 -1.0229 -0.9620  0.3406
  936MOL0     H29144   4.873  10.409   6.300 -0.1807 -2.4192 -1.5208
  936MOL0     H29145   4.783  10.565   6.287  1.9143 -0.3163  1.8525
  936MOL0     H29146   5.034  10.556   6.215  1.6531 -1.5674 -1.6231
  936MOL0     H29147   4.923  10.637   6.117  2.4010 -0.5428 -1.7793
  936MOL0     H29148   4.158   9.967   6.034 -1.8462 -0.8057  3.4793
  936MOL0     H29149   3.927   9.874   6.125 -0.1161  0.5763  1.5379
  936MOL0     H29150   3.548  10.039   6.427  2.5896 -2.5155  0.5540
  936MOL0     H29151   3.307  10.002   6.488 -1.0205 -0.5533  0.7710
  936MOL0     H29152   2.271   9.360   5.038  1.5978 -0.1959  0.6897
  936MOL0     H29153   2.101   9.522   4.926  0.5717 -1.1661  0.5528
  936MOL0     H29154   1.934   9.807   4.747  1.6032  0.8141 -1.0807
  936MOL0     H29155   1.720   9.905   4.676  1.0532  0.6272 -1.2291
  936MOL0     H29156   1.574  10.092   4.549  2.3540 -4.3298  0.5925
  936MOL0     H29157   1.519  10.002   4.686  0.9473  0.0596  1.8007
  936MOL0     H29158   1.453  10.298   4.658 -1.4868  0.1295 -1.8092
  936MOL0     H29159   1.375  10.184   4.766 -0.5605  0.6943 -0.3679
  936MOL0     H29160   1.356  10.169   4.457  1.7647  2.0637 -0.0416
  936MOL0     H29161   1.256  10.084   4.594 -1.3388  1.4361  1.4582
  936MOL0     H29162   1.131  10.297   4.476 -3.6793  3.4629  3.2104
  936MOL0     H29163   1.260  10.381   4.563  0.2778  0.3893  0.3970
  936MOL0     H29164   0.965  10.291   4.853 -1.8165  0.9099 -2.4880
  936MOL0     H29165   1.819  10.280   4.850 -1.0854 -0.5612 -1.1332
  936MOL0     H29166   2.148  10.224   4.874 -0.4973 -0.4412 -1.2602
  936MOL0     H29167   2.011  10.320   4.927 -0.0408  0.4071 -0.5858
  936MOL0     H29168   2.087  10.197   5.041  0.7079 -0.8847 -0.4003
  937MOL0     O29169   9.462   3.754   8.340 -0.3163 -0.0200  0.4028
  937MOL0     C29170   9.389   3.655   8.343 -0.6896  0.0357  0.0488
  937MOL0     O29171   9.403   3.547   8.261 -0.8753  0.4460  0.1826
  937MOL0     C29172   9.524   3.529   8.197 -0.2349 -0.0736  0.9559
  937MOL0     C29173   9.652   3.561   8.257  1.5381 -0.2768  0.4390
  937MOL0     C29174   9.772   3.537   8.183  0.0755  0.1135  0.3412
  937MOL0     C29175   9.757   3.460   8.063 -0.0702 -1.4612 -0.9442
  937MOL0     O29176   9.858   3.420   7.984 -0.8324  0.3184  0.4285
  937MOL0     C29177   9.975   3.380   8.050 -0.8842  0.6308  0.2183
  937MOL0     C29178  10.086   3.489   8.060 -0.3098 -0.4974  0.9439
  937MOL0     C29179  10.156   3.515   7.924 -0.4319 -0.1992  0.4133
  937MOL0     C29180  10.233   3.649   7.925  0.6060 -0.5307 -1.0870
  937MOL0     C29181  10.338   3.667   7.810  0.1489  0.1185 -0.0332
  937MOL0     C29182  10.433   3.776   7.849 -0.1671 -0.8196  0.2180
  937MOL0     C29183  10.512   3.809   7.726 -0.7053 -0.1679  0.1187
  937MOL0     C29184  10.615   3.915   7.773 -0.1390  1.2345  0.2383
  937MOL0     N29185  10.694   3.977   7.672  0.6583 -0.3834  0.4301
  937MOL0     C29186  10.780   3.919   7.577  0.2463 -0.0154 -0.7237
  937MOL0     C29187  10.807   4.027   7.491 -0.4920  0.8092 -0.9515
  937MOL0     C29188  10.892   4.029   7.372  0.3593 -0.0476  0.4635
  937MOL0     C29189  11.045   4.032   7.404 -0.0695 -0.2093  0.5313
  937MOL0     C29190  11.091   4.179   7.411  0.2931 -0.9528  0.0014
  937MOL0     C29191  11.228   4.186   7.477  0.1045 -0.6199 -0.0118
  937MOL0     O29192  11.310   4.133   7.375 -0.7467  0.0101 -0.8639
  937MOL0     C29193  11.437   4.152   7.373 -0.6582  0.2172  0.0682
  937MOL0     C29194  11.508   4.070   7.279  0.2709 -0.2614 -0.2312
  937MOL0     C29195  11.649   4.070   7.268  0.3801  0.8963  0.1945
  937MOL0     C29196  11.692   3.964   7.161 -1.3672 -0.5494 -0.3596
  937MOL0     C29197  11.726   4.149   7.350  0.2683 -1.0068 -0.5551
  937MOL0     C29198  11.868   4.159   7.343 -0.2407 -0.2127  0.3550
  937MOL0     O29199  11.933   4.272   7.391 -0.3926  0.0353  0.2964
  937MOL0     C29200  12.070   4.267   7.414  0.5393 -0.5679  0.2380
  937MOL0     C29201  12.131   4.386   7.391 -0.0042 -0.0980 -0.0722
  937MOL0     C29202  12.270   4.403   7.420 -0.3000  0.5438 -0.0616
  937MOL0     C29203  12.341   4.301   7.478  0.5891  0.1678 -0.4386
  937MOL0     O29204  12.474   4.327   7.510  0.5550 -0.3227 -0.6519
  937MOL0     C29205  12.516   4.266   7.632 -0.6371 -0.5549  0.1387
  937MOL0     C29206  12.661   4.312   7.644  0.1990 -0.3527 -0.0843
  937MOL0     C29207  12.732   4.280   7.780 -0.5689  0.2740 -0.1126
  937MOL0     C29208  12.833   4.384   7.831  0.0831  0.3725 -0.7134
  937MOL0     C29209  12.962   4.320   7.898 -0.1968  0.5057 -0.0672
  937MOL0     C29210  12.940   4.237   8.020 -0.2449 -0.6859 -0.4288
  937MOL0     C29211  13.074   4.173   8.071  0.6256  0.4532 -0.0741
  937MOL0     C29212  13.060   4.127   8.217  0.2109 -0.2170 -0.2038
  937MOL0    Cl29213  13.220   4.076   8.267  0.0260 -0.0779 -0.1203
  937MOL0     C29214  12.280   4.170   7.480 -0.0002 -0.2797 -0.8315
  937MOL0     C29215  12.149   4.153   7.455 -0.0280  0.0049  0.4574
  937MOL0     O29216  11.928   4.052   7.310 -0.1049 -0.4284 -0.6579
  937MOL0     C29217  11.651   4.243   7.434 -0.6296  0.6503 -0.0738
  937MOL0     C29218  11.518   4.241   7.445  0.6221 -0.9157 -0.2179
  937MOL0     N29219  10.749   4.140   7.547  0.7087  0.6647  0.2491
  937MOL0     N29220  10.680   4.109   7.648  0.4397 -0.3635  1.1712
  937MOL0     C29221   9.636   3.416   8.019  0.2739  0.2606 -0.1236
  937MOL0     C29222   9.518   3.457   8.076 -0.2838 -0.2646  0.6018
  937MOL0     C29223   9.271   3.657   8.424  0.3333  0.1693 -0.5959
  937MOL0     C29224   9.147   3.618   8.357 -1.0557  0.2304  0.3037
  937MOL0     C29225   9.029   3.624   8.426  0.2721  0.1663 -0.2365
  937MOL0     C29226   9.022   3.633   8.565  0.3045  0.4392  0.3499
  937MOL0     O29227   8.895   3.605   8.626  0.4098 -0.1166 -0.0754
  937MOL0     C29228   8.894   3.613   8.769 -0.3507  0.3316  0.6969
  937MOL0     C29229   8.880   3.765   8.809 -0.0885  0.0396 -0.3563
  937MOL0     C29230   8.865   3.807   8.955 -0.6377  0.2910 -0.0454
  937MOL0     C29231   8.941   3.720   9.054 -0.0002 -0.0349 -0.8454
  937MOL0     C29232   9.087   3.728   9.025  0.6364  0.5888 -0.5031
  937MOL0     C29233   9.204   3.722   9.009 -1.5499 -0.7721 -0.0670
  937MOL0     C29234   9.144   3.663   8.633  0.5409 -0.3041  0.3770
  937MOL0     C29235   9.268   3.685   8.564 -1.4222  0.6105 -0.6697
  937MOL0     C29236   9.394   3.708   8.646 -0.0959 -0.1200  0.3384
  937MOL0     H29237   9.663   3.620   8.348  0.0280  1.0554 -0.2055
  937MOL0     H29238   9.865   3.571   8.229 -0.8604  2.3568  0.7017
  937MOL0     H29239  10.018   3.291   8.003  0.0259 -1.4870  4.5223
  937MOL0     H29240   9.947   3.349   8.151 -0.3054 -0.8209 -0.0289
  937MOL0     H29241  10.031   3.577   8.094 -0.2788  0.7433 -1.9279
  937MOL0     H29242  10.152   3.454   8.141  0.6046 -0.4296  0.2439
  937MOL0     H29243  10.221   3.430   7.902 -2.1779 -1.5270  0.2251
  937MOL0     H29244  10.078   3.511   7.847  0.8988  0.4525 -1.0235
  937MOL0     H29245  10.160   3.729   7.918 -1.4355 -2.2775 -0.7742
  937MOL0     H29246  10.282   3.653   8.023  0.0258 -1.0662 -0.7663
  937MOL0     H29247  10.291   3.693   7.715 -0.0040  0.8080  0.2221
  937MOL0     H29248  10.398   3.578   7.789  1.1726  0.9982 -0.9270
  937MOL0     H29249  10.382   3.871   7.869 -0.9173 -1.0530 -0.5014
  937MOL0     H29250  10.490   3.747   7.937 -2.5909 -2.0530  1.4715
  937MOL0     H29251  10.452   3.844   7.642 -0.8960 -0.7616  0.0019
  937MOL0     H29252  10.567   3.721   7.691  1.4434  0.8807  0.6724
  937MOL0     H29253  10.553   3.989   7.825  0.2353  0.6838  1.4859
  937MOL0     H29254  10.690   3.870   7.837 -0.5479  0.7883  0.4105
  937MOL0     H29255  10.790   3.811   7.576 -1.2142 -0.3141  2.8567
  937MOL0     H29256  10.867   4.123   7.321  1.4798  0.3478  0.6093
  937MOL0     H29257  10.853   3.946   7.313 -0.3406 -0.0098  0.8696
  937MOL0     H29258  11.058   3.988   7.503  0.9664  1.0916  0.9948
  937MOL0     H29259  11.102   3.978   7.328  0.3960  0.9442  0.0444
  937MOL0     H29260  11.082   4.233   7.316 -0.3226 -1.5037 -0.2599
  937MOL0     H29261  11.023   4.228   7.482 -1.4279 -1.3511 -1.2898
  937MOL0     H29262  11.241   4.293   7.492 -0.6187 -0.4375 -0.6241
  937MOL0     H29263  11.252   4.131   7.569  0.4673  0.1698  0.3745
  937MOL0     H29264  11.440   4.010   7.220 -1.9790  0.5198  1.4170
  937MOL0     H29265  11.609   3.954   7.091 -1.3538 -2.2189 -0.1883
  937MOL0     H29266  11.716   3.866   7.203 -1.0616  1.0397  3.5046
  937MOL0     H29267  11.778   4.009   7.110 -1.1779  1.5505  1.6873
  937MOL0     H29268  12.082   4.477   7.358 -0.0087  1.2708  3.3442
  937MOL0     H29269  12.325   4.496   7.406 -0.1211  0.8429  2.2291
  937MOL0     H29270  12.456   4.293   7.719 -0.5066 -0.9284  0.3483
  937MOL0     H29271  12.510   4.158   7.613  5.4205 -0.8244 -2.3784
  937MOL0     H29272  12.712   4.284   7.552  1.2540  3.7201 -0.9145
  937MOL0     H29273  12.660   4.421   7.635 -0.5631 -0.3817 -0.3355
  937MOL0     H29274  12.791   4.193   7.747 -1.2702 -0.3061  0.1289
  937MOL0     H29275  12.675   4.239   7.864 -0.0290  1.5075  0.8849
  937MOL0     H29276  12.779   4.443   7.906  1.7848 -1.6147  2.3271
  937MOL0     H29277  12.854   4.457   7.753 -2.6791  1.1533 -0.8284
  937MOL0     H29278  13.013   4.269   7.816 -1.5008 -1.1097  0.0936
  937MOL0     H29279  13.036   4.397   7.922  1.3714 -0.5120 -1.4386
  937MOL0     H29280  12.865   4.160   7.998  0.4858 -2.3357  2.2703
  937MOL0     H29281  12.889   4.300   8.094 -0.8289  0.3058 -1.6526
  937MOL0     H29282  13.154   4.249   8.073 -0.7686  2.0163  2.6287
  937MOL0     H29283  13.098   4.088   8.007 -1.8804 -0.5179  0.1793
  937MOL0     H29284  12.988   4.044   8.217  0.8151 -0.7658  0.8359
  937MOL0     H29285  13.020   4.203   8.284  2.7174  0.5092  0.5972
  937MOL0     H29286  12.329   4.076   7.507  0.5020 -0.3856 -2.0799
  937MOL0     H29287  12.105   4.055   7.468 -0.0567  0.1611  1.6362
  937MOL0     H29288  11.703   4.327   7.478  1.9677 -0.7412 -0.3187
  937MOL0     H29289  11.475   4.318   7.509 -2.0518  0.7380 -3.6474
  937MOL0     H29290   9.627   3.371   7.921 -4.1997  1.3527 -0.4576
  937MOL0     H29291   9.427   3.418   8.031  0.6691  0.5075 -2.2284
  937MOL0     H29292   9.162   3.612   8.250  1.5018 -1.2511  0.6650
  937MOL0     H29293   8.940   3.607   8.365  0.8359  0.6869 -1.2277
  937MOL0     H29294   8.809   3.562   8.815 -0.1463 -0.1167  0.5740
  937MOL0     H29295   8.988   3.578   8.812 -0.1020 -1.3729 -1.0942
  937MOL0     H29296   8.785   3.790   8.762 -1.1696 -0.6375  1.3490
  937MOL0     H29297   8.965   3.827   8.779 -0.2756  0.7097  0.4358
  937MOL0     H29298   8.904   3.909   8.957  5.7439 -1.5418 -2.7714
  937MOL0     H29299   8.762   3.799   8.992  0.5723  1.9258  4.3049
  937MOL0     H29300   8.897   3.621   9.046 -0.7415  0.0987  1.0507
  937MOL0     H29301   8.919   3.745   9.158  1.2339  0.1808 -0.6132
  937MOL0     H29302   9.310   3.724   8.991 -1.8713 -1.2746 -2.4704
  937MOL0     H29303   9.144   3.677   8.741 -2.8109  1.6868  0.2441
  937MOL0     H29304   9.369   3.753   8.742  1.1646 -0.2929  0.7567
  937MOL0     H29305   9.436   3.610   8.669  0.1778 -0.0747  0.0418
  937MOL0     H29306   9.473   3.766   8.599 -0.8092 -0.6275 -1.5868
  938MOL0     O29307   2.476  11.209   2.373  0.8085  0.0260 -0.3730
  938MOL0     C29308   2.437  11.321   2.335 -0.3538 -0.7229 -0.6118
  938MOL0     O29309   2.524  11.415   2.279 -0.1076 -0.4044  0.1325
  938MOL0     C29310   2.654  11.381   2.250  0.7854 -0.2597  0.6692
  938MOL0     C29311   2.735  11.318   2.351  1.2947 -0.4240  0.0280
  938MOL0     C29312   2.874  11.304   2.332  0.3627 -0.0546 -0.0294
  938MOL0     C29313   2.920  11.336   2.203  0.5441  0.2176 -0.6390
  938MOL0     O29314   3.052  11.325   2.167  0.0728 -0.2789  0.4889
  938MOL0     C29315   3.148  11.280   2.255  0.0141 -0.3557 -0.4780
  938MOL0     C29316   3.278  11.247   2.189  0.0670  0.1831 -0.4067
  938MOL0     C29317   3.403  11.267   2.271  0.4954  0.2454 -0.4444
  938MOL0     C29318   3.531  11.238   2.183  0.9985  1.2306  0.2167
  938MOL0     C29319   3.664  11.220   2.260  0.2344 -0.0453 -0.1420
  938MOL0     C29320   3.770  11.194   2.153 -0.1193  0.2604 -0.7485
  938MOL0     C29321   3.915  11.149   2.202 -0.0407 -0.5143 -0.0758
  938MOL0     C29322   4.014  11.262   2.226  0.2501 -0.5128 -0.3340
  938MOL0     N29323   4.099  11.236   2.340  0.4433  0.8100  0.3293
  938MOL0     C29324   4.142  11.324   2.434  0.1955 -0.5418  0.2115
  938MOL0     C29325   4.211  11.255   2.526 -0.5326 -0.8565  0.2856
  938MOL0     C29326   4.286  11.310   2.636 -0.1793  0.3950 -0.3218
  938MOL0     C29327   4.430  11.323   2.609  0.0193  0.2227 -0.1590
  938MOL0     C29328   4.511  11.341   2.744  0.1257 -0.0631 -0.5525
  938MOL0     C29329   4.653  11.384   2.719  0.2323 -0.6152 -0.1169
  938MOL0     O29330   4.659  11.499   2.636 -0.9193  0.0377  0.8646
  938MOL0     C29331   4.761  11.507   2.538  0.4421  1.0377 -0.7245
  938MOL0     C29332   4.893  11.461   2.548 -0.2355  0.0017  0.3608
  938MOL0     C29333   4.990  11.494   2.453 -0.1272 -0.9160  0.1207
  938MOL0     C29334   5.129  11.457   2.478  0.6119  0.5774 -0.6211
  938MOL0     C29335   4.962  11.579   2.341  0.3474  0.3544 -0.0398
  938MOL0     C29336   5.058  11.610   2.231 -0.3447  0.0632  0.4662
  938MOL0     O29337   5.034  11.729   2.157 -0.6792  0.3314 -0.8031
  938MOL0     C29338   5.116  11.771   2.058 -0.2246  0.3838  1.0888
  938MOL0     C29339   5.257  11.757   2.057  0.4558 -0.4823  0.4874
  938MOL0     C29340   5.329  11.801   1.946  0.1326 -0.1987  0.5751
  938MOL0     C29341   5.268  11.871   1.842  0.1393  0.0370  0.1997
  938MOL0     O29342   5.335  11.918   1.736  0.2240  0.7612 -0.1128
  938MOL0     C29343   5.443  11.830   1.681  0.7260  0.4594  0.2649
  938MOL0     C29344   5.510  11.909   1.571 -0.0789 -0.0589 -0.0623
  938MOL0     C29345   5.411  11.973   1.462  0.1203 -0.5043 -0.4377
  938MOL0     C29346   5.485  12.077   1.368  0.9733 -0.6909 -0.1941
  938MOL0     C29347   5.619  12.021   1.324 -0.7119 -0.6332  0.1904
  938MOL0     C29348   5.675  12.112   1.217 -0.2827  0.1551  0.3114
  938MOL0     C29349   5.811  12.065   1.171  0.0628  0.0328 -0.2718
  938MOL0     C29350   5.915  12.053   1.276  0.1020 -0.2212  0.2347
  938MOL0    Cl29351   5.938  12.219   1.336  0.1237  0.2820  0.0259
  938MOL0     C29352   5.135  11.901   1.848 -0.5684  0.0153  0.2287
  938MOL0     C29353   5.062  11.859   1.961 -0.6055 -0.1590 -0.0084
  938MOL0     O29354   5.147  11.528   2.203 -1.1187  0.4358 -0.2967
  938MOL0     C29355   4.833  11.629   2.330  0.0553 -0.3579  0.0513
  938MOL0     C29356   4.737  11.592   2.430 -0.7321  0.0493 -0.0647
  938MOL0     N29357   4.228  11.127   2.476  0.0563  0.1152 -0.9388
  938MOL0     N29358   4.152  11.110   2.364 -0.0435 -0.3740 -0.1598
  938MOL0     C29359   2.846  11.403   2.106  0.0066 -0.4383  0.1504
  938MOL0     C29360   2.712  11.427   2.138 -0.1511 -0.0515 -0.2146
  938MOL0     C29361   2.296  11.355   2.358 -0.8087  0.0808 -0.3637
  938MOL0     C29362   2.226  11.271   2.447  0.2663 -0.1341  0.5310
  938MOL0     C29363   2.088  11.291   2.466 -0.1158 -0.2663  0.3761
  938MOL0     C29364   2.024  11.401   2.410  0.1866  0.2333  0.1167
  938MOL0     O29365   1.890  11.448   2.420 -0.5353  0.4112 -0.5188
  938MOL0     C29366   1.818  11.400   2.528 -0.0356 -0.2555 -0.5907
  938MOL0     C29367   1.689  11.487   2.565 -0.2615 -0.0170  0.5886
  938MOL0     C29368   1.585  11.403   2.628 -0.2461  0.3156 -0.1429
  938MOL0     C29369   1.451  11.477   2.653  0.6108  0.0702  0.1485
  938MOL0     C29370   1.363  11.419   2.762 -0.0405  0.1766  0.2653
  938MOL0     C29371   1.301  11.376   2.849  0.1989  1.0215  0.1478
  938MOL0     C29372   2.093  11.481   2.326 -0.6522 -0.0927 -0.5576
  938MOL0     C29373   2.225  11.455   2.292  0.0887 -0.1933  1.0754
  938MOL0     C29374   2.286  11.529   2.178 -0.4922 -1.0831  0.1124
  938MOL0     H29375   2.701  11.284   2.449  3.0726 -0.4705  0.6510
  938MOL0     H29376   2.935  11.251   2.405 -0.1497 -2.3127 -1.1732
  938MOL0     H29377   3.116  11.191   2.310 -0.8016  0.3504  0.2143
  938MOL0     H29378   3.163  11.355   2.333  1.8562  1.6973 -2.6439
  938MOL0     H29379   3.267  11.141   2.167  4.1541 -0.8081  1.4755
  938MOL0     H29380   3.294  11.299   2.093 -0.5788  0.0538 -0.5877
  938MOL0     H29381   3.406  11.369   2.311  1.5201 -0.3431  1.0913
  938MOL0     H29382   3.379  11.212   2.362 -1.5495 -1.9638 -2.1979
  938MOL0     H29383   3.518  11.144   2.129 -1.2645  1.1605  0.7835
  938MOL0     H29384   3.556  11.322   2.117  1.7126  0.0899 -1.0003
  938MOL0     H29385   3.663  11.137   2.331  0.0922 -0.1603 -0.2769
  938MOL0     H29386   3.693  11.317   2.300  0.0466 -0.6869  1.6380
  938MOL0     H29387   3.736  11.115   2.087  1.9466 -0.8843 -0.5441
  938MOL0     H29388   3.769  11.280   2.085 -1.5082  0.6846 -0.2188
  938MOL0     H29389   3.957  11.088   2.121 -4.4332 -1.5971 -1.8254
  938MOL0     H29390   3.912  11.080   2.287 -2.1617  0.6302  0.8445
  938MOL0     H29391   4.074  11.287   2.139  1.8017  0.3658  0.9413
  938MOL0     H29392   3.948  11.345   2.255 -1.0507 -0.2788 -3.5734
  938MOL0     H29393   4.114  11.428   2.445 -1.2276 -0.9509  0.6531
  938MOL0     H29394   4.276  11.252   2.728  2.1970 -2.1442 -1.5292
  938MOL0     H29395   4.245  11.410   2.653 -4.1052 -1.0409 -0.2800
  938MOL0     H29396   4.476  11.245   2.547  0.5457 -0.1424  0.6712
  938MOL0     H29397   4.449  11.409   2.545 -2.4074  1.3659  0.5562
  938MOL0     H29398   4.449  11.417   2.792  0.7513 -0.4864  0.9993
  938MOL0     H29399   4.506  11.252   2.808 -1.4319  2.2009  2.7226
  938MOL0     H29400   4.695  11.410   2.816  0.8624  0.1357 -0.5818
  938MOL0     H29401   4.704  11.294   2.684  0.9961 -0.4507  0.5514
  938MOL0     H29402   4.931  11.423   2.643 -2.8298  3.4333  3.0381
  938MOL0     H29403   5.141  11.443   2.586  0.9911 -1.0312 -0.8537
  938MOL0     H29404   5.193  11.535   2.437 -2.0485  1.5867 -3.2610
  938MOL0     H29405   5.158  11.367   2.422  1.0802 -1.2067  2.2764
  938MOL0     H29406   5.303  11.695   2.132  1.8910  0.8401  0.7561
  938MOL0     H29407   5.436  11.784   1.941  0.0307 -0.4312 -2.7160
  938MOL0     H29408   5.518  11.809   1.758  1.0147  2.0690  0.4554
  938MOL0     H29409   5.405  11.738   1.635  2.2816  0.5446 -1.3097
  938MOL0     H29410   5.567  11.989   1.618  0.7430 -0.8176  0.2625
  938MOL0     H29411   5.588  11.843   1.531 -0.1614 -1.5437  2.0513
  938MOL0     H29412   5.329  12.030   1.506 -0.1178  1.2728 -2.9206
  938MOL0     H29413   5.366  11.896   1.399  1.3930  0.7937 -3.1268
  938MOL0     H29414   5.487  12.173   1.420 -1.8401  0.7425 -2.4241
  938MOL0     H29415   5.424  12.095   1.280 -0.5467 -0.1569  0.9347
  938MOL0     H29416   5.692  12.025   1.405  1.3230  1.3689 -1.5990
  938MOL0     H29417   5.618  11.914   1.300 -1.0639 -0.7376  0.6583
  938MOL0     H29418   5.677  12.216   1.250 -1.2218  1.0382 -2.2193
  938MOL0     H29419   5.618  12.112   1.124  1.1789 -0.0921 -0.6070
  938MOL0     H29420   5.849  12.142   1.104  3.6688 -1.7965 -0.5874
  938MOL0     H29421   5.799  11.980   1.104  0.3170  2.1654 -3.2304
  938MOL0     H29422   6.005  12.005   1.235 -0.7438 -1.7984  0.1132
  938MOL0     H29423   5.872  11.995   1.358 -2.3409  3.7377  2.0425
  938MOL0     H29424   5.093  11.968   1.773 -1.7930 -0.4109  0.5266
  938MOL0     H29425   4.960  11.895   1.954 -0.7665 -0.9295 -2.5717
  938MOL0     H29426   4.802  11.698   2.252 -2.2942  0.3886  1.5629
  938MOL0     H29427   4.629  11.599   2.422 -0.7930  0.1938  0.7954
  938MOL0     H29428   2.901  11.453   2.027  0.4971 -0.1111  0.6880
  938MOL0     H29429   2.655  11.490   2.070  2.6400  1.9546 -0.8981
  938MOL0     H29430   2.277  11.187   2.494 -1.0502 -0.9389  0.5750
  938MOL0     H29431   2.036  11.211   2.518 -0.4170  0.6154  1.4603
  938MOL0     H29432   1.772  11.302   2.509 -0.4557  0.0839 -1.3524
  938MOL0     H29433   1.886  11.386   2.613  1.4536 -0.4045 -1.7638
  938MOL0     H29434   1.650  11.517   2.467  1.5412 -2.0428 -0.8393
  938MOL0     H29435   1.720  11.570   2.629  3.4445 -1.1012  0.4241
  938MOL0     H29436   1.572  11.311   2.571  1.3116  0.2926 -0.4983
  938MOL0     H29437   1.617  11.358   2.723  1.4135  0.3824 -0.6436
  938MOL0     H29438   1.402  11.484   2.556 -1.7444 -1.4283  1.1430
  938MOL0     H29439   1.481  11.581   2.669  2.0272 -0.0969 -1.2178
  938MOL0     H29440   1.256  11.339   2.939 -0.7980  2.3272  0.2295
  938MOL0     H29441   2.042  11.572   2.297  1.2440  1.9684  2.1614
  938MOL0     H29442   2.374  11.588   2.202  0.2340 -1.4617 -1.4955
  938MOL0     H29443   2.311  11.455   2.102 -1.9487 -0.7755 -0.7025
  938MOL0     H29444   2.216  11.599   2.132  1.3198  0.3477 -0.5664
  939MOL0     O29445   4.254   8.384   3.482  0.2637  0.0705 -0.2620
  939MOL0     C29446   4.286   8.395   3.368  0.8246  0.5666  0.3580
  939MOL0     O29447   4.413   8.381   3.326  0.5465 -0.1971  0.9096
  939MOL0     C29448   4.524   8.414   3.396 -0.6643  0.8262  0.0742
  939MOL0     C29449   4.539   8.523   3.486 -0.1874 -0.0748 -0.4420
  939MOL0     C29450   4.652   8.535   3.575 -0.0450 -0.3154 -0.7708
  939MOL0     C29451   4.757   8.444   3.562  0.6072 -0.5754 -0.2358
  939MOL0     O29452   4.874   8.447   3.636 -0.3922 -0.2906 -0.1479
  939MOL0     C29453   4.870   8.518   3.760  0.2525  0.9364 -0.6105
  939MOL0     C29454   5.015   8.511   3.821 -0.3940  0.8477  0.4575
  939MOL0     C29455   5.072   8.364   3.840 -0.2684 -1.1043  0.1632
  939MOL0     C29456   5.225   8.365   3.863 -0.2088 -0.3717 -0.6349
  939MOL0     C29457   5.290   8.223   3.885 -0.7333  0.2924 -0.2566
  939MOL0     C29458   5.453   8.238   3.888  0.0346 -1.0724 -0.3770
  939MOL0     C29459   5.521   8.101   3.885  0.4217  0.2108  0.0012
  939MOL0     C29460   5.551   8.062   3.737  0.3705  0.2319  1.1228
  939MOL0     N29461   5.659   7.969   3.736  0.2623  0.2245 -1.0295
  939MOL0     C29462   5.654   7.840   3.782  0.0990  0.0651  0.2312
  939MOL0     C29463   5.760   7.780   3.733  0.1673  0.4688  0.3675
  939MOL0     C29464   5.789   7.638   3.755  0.3802  0.0467 -0.7164
  939MOL0     C29465   5.804   7.600   3.905  0.3802 -0.1542 -0.2888
  939MOL0     C29466   5.818   7.447   3.928  0.0590  0.3530  1.3932
  939MOL0     C29467   5.939   7.387   3.867 -0.2680 -0.1900  0.1690
  939MOL0     O29468   6.060   7.440   3.926 -0.1700  0.1261 -0.4208
  939MOL0     C29469   6.180   7.395   3.867 -1.0077  0.5401 -0.3332
  939MOL0     C29470   6.186   7.295   3.769 -0.6383 -0.2472 -0.1457
  939MOL0     C29471   6.313   7.244   3.724  0.1370 -0.4953 -0.5410
  939MOL0     C29472   6.310   7.137   3.618  0.7487  0.9451 -0.3897
  939MOL0     C29473   6.432   7.304   3.769  0.0407  0.5290  0.1133
  939MOL0     C29474   6.564   7.267   3.709 -0.1780 -0.1422  0.1484
  939MOL0     O29475   6.652   7.368   3.703  0.3692 -0.2984  0.8326
  939MOL0     C29476   6.781   7.330   3.705  0.4759  0.2094  0.7563
  939MOL0     C29477   6.858   7.326   3.818 -0.3393 -0.2190 -0.3242
  939MOL0     C29478   6.995   7.286   3.808 -0.2609 -0.3057  0.5486
  939MOL0     C29479   7.054   7.259   3.681 -0.1715  0.0072 -0.0200
  939MOL0     O29480   7.191   7.238   3.660 -0.5923  0.2203 -0.3497
  939MOL0     C29481   7.284   7.249   3.776 -0.1780  0.0344  0.4643
  939MOL0     C29482   7.431   7.247   3.713  0.3971 -0.5780  0.0378
  939MOL0     C29483   7.537   7.264   3.822 -0.8169 -0.1561  0.4490
  939MOL0     C29484   7.684   7.275   3.781  0.0567 -0.2980  0.1670
  939MOL0     C29485   7.708   7.415   3.715  0.1263 -0.3176  0.2928
  939MOL0     C29486   7.858   7.426   3.688 -1.2413 -0.2013 -0.0195
  939MOL0     C29487   7.901   7.563   3.649 -0.0374 -0.2300 -0.5123
  939MOL0     C29488   8.015   7.545   3.550  0.5984 -0.5259  0.1228
  939MOL0    Cl29489   8.146   7.450   3.612  0.1331  0.3479 -0.0841
  939MOL0     C29490   6.976   7.269   3.568  0.5923 -0.8828 -0.1830
  939MOL0     C29491   6.843   7.306   3.578  0.4893 -0.2463  0.5740
  939MOL0     O29492   6.588   7.148   3.685 -0.3909 -0.1115 -0.6532
  939MOL0     C29493   6.419   7.406   3.863  0.2890 -0.7381  0.5290
  939MOL0     C29494   6.300   7.450   3.913  0.3094 -0.3617  0.1273
  939MOL0     N29495   5.826   7.873   3.658  0.1136 -0.3120  0.0546
  939MOL0     N29496   5.773   7.986   3.662  0.1354 -0.3125  0.2151
  939MOL0     C29497   4.750   8.346   3.466  0.3151 -0.7397 -0.5907
  939MOL0     C29498   4.639   8.330   3.381 -0.0421 -0.7106 -0.3399
  939MOL0     C29499   4.178   8.446   3.272  0.7329  0.6864 -0.5055
  939MOL0     C29500   4.058   8.484   3.327 -0.2256  0.7137 -0.1146
  939MOL0     C29501   3.952   8.535   3.251 -0.2765 -0.1760 -0.2479
  939MOL0     C29502   3.964   8.541   3.119 -1.1730 -0.1758  0.3624
  939MOL0     O29503   3.863   8.567   3.029  0.1057 -0.1450  0.4225
  939MOL0     C29504   3.727   8.540   3.070  0.3524 -0.2781  0.4779
  939MOL0     C29505   3.653   8.464   2.964 -0.3964  0.6454 -0.0656
  939MOL0     C29506   3.674   8.516   2.816 -0.1283  0.0415 -0.5662
  939MOL0     C29507   3.608   8.659   2.791 -0.1379  0.6588 -0.6532
  939MOL0     C29508   3.468   8.663   2.834 -0.2548  0.0817  0.3015
  939MOL0     C29509   3.354   8.667   2.874  0.0088  0.1945 -0.5869
  939MOL0     C29510   4.081   8.489   3.056 -0.0243 -0.0260 -0.1703
  939MOL0     C29511   4.189   8.448   3.124  0.4484  0.0490 -0.1333
  939MOL0     C29512   4.305   8.393   3.035 -0.2221  0.4556 -0.2192
  939MOL0     H29513   4.462   8.597   3.505 -1.6261 -0.4469 -4.0701
  939MOL0     H29514   4.642   8.608   3.655 -0.0133  0.5702 -1.5557
  939MOL0     H29515   4.798   8.459   3.817  1.0700 -0.4155 -0.9447
  939MOL0     H29516   4.838   8.622   3.747 -2.0734  0.5540  1.3806
  939MOL0     H29517   5.088   8.564   3.759 -0.8956  1.2328  0.1900
  939MOL0     H29518   5.008   8.560   3.919 -0.8865  0.6859  0.5025
  939MOL0     H29519   5.026   8.298   3.914 -0.1092 -2.6469 -1.0625
  939MOL0     H29520   5.051   8.313   3.746 -0.2291 -0.5380 -0.1541
  939MOL0     H29521   5.266   8.412   3.773  1.3263  1.9619  1.1567
  939MOL0     H29522   5.251   8.431   3.946 -0.5518  1.1927 -1.7154
  939MOL0     H29523   5.266   8.152   3.805 -0.7332  0.3683 -0.3236
  939MOL0     H29524   5.260   8.173   3.978  0.4522 -0.5938 -0.3203
  939MOL0     H29525   5.489   8.312   3.816  0.7072 -1.1124 -0.0855
  939MOL0     H29526   5.468   8.269   3.992 -0.1511 -1.9040 -0.0877
  939MOL0     H29527   5.459   8.021   3.926 -1.0755  0.4275 -1.7024
  939MOL0     H29528   5.609   8.100   3.950 -0.3842  0.0394  1.1140
  939MOL0     H29529   5.467   8.011   3.689  2.8147 -1.3355 -1.8913
  939MOL0     H29530   5.576   8.150   3.678 -0.7204  1.3086  2.2136
  939MOL0     H29531   5.573   7.789   3.833 -0.7943 -0.8703 -1.9875
  939MOL0     H29532   5.891   7.627   3.716 -0.3057 -0.9741 -2.3162
  939MOL0     H29533   5.725   7.566   3.703  2.4231 -2.6572  0.2649
  939MOL0     H29534   5.897   7.647   3.938  2.7258 -3.1538 -2.0390
  939MOL0     H29535   5.716   7.629   3.962 -0.8045  0.9714 -2.5696
  939MOL0     H29536   5.809   7.430   4.036 -2.2569 -3.2282  0.8078
  939MOL0     H29537   5.740   7.392   3.875  1.4542 -1.3256  0.9480
  939MOL0     H29538   5.919   7.281   3.884 -0.7112 -0.2669 -0.8104
  939MOL0     H29539   5.936   7.407   3.760 -0.6603 -1.1506 -0.0060
  939MOL0     H29540   6.097   7.243   3.735 -2.2443  1.5378  1.1183
  939MOL0     H29541   6.361   7.043   3.642  0.3010  1.2523  2.0157
  939MOL0     H29542   6.355   7.173   3.526  0.1810  0.6117 -0.8040
  939MOL0     H29543   6.205   7.116   3.597  1.2066 -0.6567 -1.2539
  939MOL0     H29544   6.813   7.322   3.916  1.0330 -2.1423  0.2828
  939MOL0     H29545   7.059   7.287   3.896  0.0194  0.6437  0.3532
  939MOL0     H29546   7.270   7.340   3.834 -5.3666  0.1125 -0.4013
  939MOL0     H29547   7.276   7.167   3.848 -1.3547  0.3913  0.7633
  939MOL0     H29548   7.439   7.152   3.659 -0.0694  0.2078 -1.4976
  939MOL0     H29549   7.442   7.322   3.634  0.8055  0.2381  0.8493
  939MOL0     H29550   7.543   7.173   3.882  0.3506 -0.2982  0.1392
  939MOL0     H29551   7.514   7.346   3.890 -2.0182 -1.6761  1.9861
  939MOL0     H29552   7.700   7.198   3.705  1.1652 -0.3619  0.4475
  939MOL0     H29553   7.757   7.251   3.858  0.2740 -1.3988 -0.3607
  939MOL0     H29554   7.647   7.437   3.627  0.4531  2.3888  0.6498
  939MOL0     H29555   7.687   7.495   3.786  0.5994  0.0254  0.0559
  939MOL0     H29556   7.896   7.355   3.614  0.6940 -0.7674  1.4348
  939MOL0     H29557   7.914   7.411   3.780 -1.8556  2.3012  0.8322
  939MOL0     H29558   7.926   7.617   3.741  0.2202  0.2463 -0.8578
  939MOL0     H29559   7.824   7.629   3.606 -1.3977 -1.8412 -0.6445
  939MOL0     H29560   8.052   7.647   3.538 -4.1714  1.5607  0.7493
  939MOL0     H29561   7.979   7.517   3.451 -1.1175  0.5386  0.3986
  939MOL0     H29562   7.033   7.254   3.476 -0.4354 -3.8981 -0.4486
  939MOL0     H29563   6.781   7.310   3.489  1.2118  0.0113  0.0739
  939MOL0     H29564   6.511   7.461   3.880 -0.1039  1.4058 -3.0340
  939MOL0     H29565   6.298   7.536   3.980  2.4086 -0.3453  0.2386
  939MOL0     H29566   4.840   8.286   3.450  0.1931 -1.4984  1.3360
  939MOL0     H29567   4.633   8.263   3.296 -0.0834  1.2589 -1.9852
  939MOL0     H29568   4.037   8.480   3.434 -0.6578  0.1402 -0.2168
  939MOL0     H29569   3.865   8.576   3.300  1.5595  2.2297  1.1700
  939MOL0     H29570   3.717   8.484   3.164  2.2255  1.4219  1.7811
  939MOL0     H29571   3.688   8.640   3.090  0.1155 -0.2359 -0.1797
  939MOL0     H29572   3.545   8.457   2.977 -0.3714 -0.0295 -0.2014
  939MOL0     H29573   3.686   8.361   2.949 -1.7250  0.4785 -2.2559
  939MOL0     H29574   3.780   8.529   2.792 -0.2214  1.6289 -0.2818
  939MOL0     H29575   3.635   8.442   2.746 -1.0511  0.5757 -0.6362
  939MOL0     H29576   3.622   8.683   2.685  0.4186 -3.8021 -1.7697
  939MOL0     H29577   3.661   8.735   2.849  0.3022  1.9494 -2.6467
  939MOL0     H29578   3.258   8.667   2.921  0.1300 -4.1910  0.0235
  939MOL0     H29579   4.075   8.465   2.950 -0.9015 -1.1040  0.1018
  939MOL0     H29580   4.309   8.285   3.057  2.1638  0.8309  1.6771
  939MOL0     H29581   4.282   8.401   2.929  1.4839 -1.0171 -0.7461
  939MOL0     H29582   4.402   8.437   3.062 -1.6761  3.1874  0.9213
  940MOL0     O29583   9.945   9.904   4.496 -0.0666  0.2818  0.5052
  940MOL0     C29584   9.964   9.786   4.529  0.0213 -0.1531  0.4832
  940MOL0     O29585  10.086   9.727   4.563  0.3562  0.2110  1.0528
  940MOL0     C29586  10.207   9.795   4.544  0.8776 -0.5360  0.5304
  940MOL0     C29587  10.292   9.795   4.653  0.6724  0.2029 -0.0118
  940MOL0     C29588  10.409   9.862   4.637 -0.1010  0.1694 -0.1299
  940MOL0     C29589  10.452   9.920   4.517  0.0525  0.4223 -1.0575
  940MOL0     O29590  10.577   9.986   4.525  0.1340  0.1256  0.0074
  940MOL0     C29591  10.689   9.934   4.452 -0.5375 -0.4344 -0.6904
  940MOL0     C29592  10.802  10.039   4.464 -0.4657 -0.4107  0.5468
  940MOL0     C29593  10.916   9.987   4.381  0.3684 -0.6088 -0.1875
  940MOL0     C29594  11.048  10.054   4.405  0.3009  0.3952 -0.0271
  940MOL0     C29595  11.139   9.998   4.292 -0.2564 -0.5668 -0.1930
  940MOL0     C29596  11.288  10.005   4.335  1.3749 -0.1174  0.3573
  940MOL0     C29597  11.339  10.151   4.348 -0.2895 -0.4397  0.4330
  940MOL0     C29598  11.490  10.150   4.390  0.0461  0.0399  0.6261
  940MOL0     N29599  11.564  10.276   4.371  0.6757  0.0915 -0.3450
  940MOL0     C29600  11.642  10.316   4.258 -0.1316  0.0184  0.0001
  940MOL0     C29601  11.711  10.426   4.294  0.5113 -0.3284  0.0178
  940MOL0     C29602  11.805  10.508   4.217  0.3087  1.0246  0.1275
  940MOL0     C29603  11.938  10.538   4.285  0.4218 -0.6702  0.8179
  940MOL0     C29604  12.025  10.642   4.200  0.5720  0.0584  0.4178
  940MOL0     C29605  12.022  10.622   4.043 -0.5663 -0.7640 -0.4587
  940MOL0     O29606  12.070  10.486   4.003 -0.5912  0.4146  0.3889
  940MOL0     C29607  12.192  10.446   4.056 -0.4704  0.3252 -0.0632
  940MOL0     C29608  12.229  10.312   4.050 -0.5121 -0.0756  0.2090
  940MOL0     C29609  12.358  10.264   4.091  1.5224  0.8923 -0.4387
  940MOL0     C29610  12.385  10.116   4.082  0.0865 -0.7069  0.0439
  940MOL0     C29611  12.455  10.354   4.144  0.1530  0.3215 -0.4098
  940MOL0     C29612  12.601  10.331   4.191 -0.1265  0.1463  0.9503
  940MOL0     O29613  12.654  10.433   4.260 -0.3363 -1.3417  0.5064
  940MOL0     C29614  12.783  10.432   4.303 -0.0659  0.1123  0.1107
  940MOL0     C29615  12.891  10.352   4.253  0.3552 -0.7724  0.1137
  940MOL0     C29616  13.020  10.362   4.298 -0.1062 -0.3859  0.4429
  940MOL0     C29617  13.050  10.460   4.398  0.7392 -0.2984 -0.0679
  940MOL0     O29618  13.176  10.478   4.449  0.2001 -0.1732  0.4843
  940MOL0     C29619  13.245  10.359   4.479  0.0886  0.5027 -0.1204
  940MOL0     C29620  13.392  10.391   4.513  0.0813 -0.4911  0.2196
  940MOL0     C29621  13.406  10.457   4.642  0.8365 -0.3335  0.5510
  940MOL0     C29622  13.551  10.492   4.673 -0.4826 -0.2322  0.6570
  940MOL0     C29623  13.545  10.588   4.791  0.5539 -0.0972  0.3131
  940MOL0     C29624  13.678  10.670   4.802 -0.0838 -0.0733  0.1817
  940MOL0     C29625  13.801  10.585   4.823  0.0444  0.2973  0.3477
  940MOL0     C29626  13.924  10.672   4.834  0.0218 -0.3793  1.0753
  940MOL0    Cl29627  14.064  10.573   4.903 -0.2386  0.2231  0.1038
  940MOL0     C29628  12.951  10.544   4.447  0.6387  0.0234  0.3128
  940MOL0     C29629  12.820  10.531   4.395  0.6224  0.5791 -0.1344
  940MOL0     O29630  12.646  10.219   4.176  0.7261 -0.1775 -0.8904
  940MOL0     C29631  12.411  10.485   4.150  0.1460  1.2151 -0.3102
  940MOL0     C29632  12.290  10.532   4.100  0.7004 -0.6531  0.3262
  940MOL0     N29633  11.687  10.449   4.431 -0.6100  1.5962 -0.2778
  940MOL0     N29634  11.597  10.366   4.472 -0.1426  0.6109  0.5747
  940MOL0     C29635  10.368   9.918   4.412 -0.4151  0.4597  0.2486
  940MOL0     C29636  10.247   9.849   4.423  0.1375  0.5419 -0.8112
  940MOL0     C29637   9.838   9.699   4.555 -0.0023 -0.6582 -0.7855
  940MOL0     C29638   9.715   9.769   4.543  0.0915  0.0099 -0.0442
  940MOL0     C29639   9.590   9.706   4.543 -0.6771 -0.7032 -0.6391
  940MOL0     C29640   9.582   9.563   4.555 -0.3714 -0.7451  0.1191
  940MOL0     O29641   9.469   9.482   4.550  0.4563  0.0077  0.1269
  940MOL0     C29642   9.338   9.539   4.521 -0.4261 -0.7362 -0.9508
  940MOL0     C29643   9.317   9.574   4.377 -0.2257 -0.9815  0.2296
  940MOL0     C29644   9.178   9.633   4.346  0.5509 -0.1334  0.6558
  940MOL0     C29645   9.124   9.565   4.225  1.0156  0.3466  0.4842
  940MOL0     C29646   8.994   9.633   4.190 -0.4272  0.0450  0.3276
  940MOL0     C29647   8.875   9.674   4.175 -0.0938 -0.2691 -0.4246
  940MOL0     C29648   9.702   9.495   4.580 -0.0492 -0.6179 -0.0233
  940MOL0     C29649   9.827   9.559   4.585  0.6960 -0.2320  0.7663
  940MOL0     C29650   9.950   9.469   4.575  1.1817 -0.2156  0.8286
  940MOL0     H29651  10.264   9.762   4.753 -0.5699  2.2232  0.3802
  940MOL0     H29652  10.481   9.867   4.719  0.2638  0.3809 -0.4627
  940MOL0     H29653  10.682   9.920   4.344 -3.5025  5.2958 -1.6262
  940MOL0     H29654  10.715   9.838   4.497 -1.5059  0.7845  2.7597
  940MOL0     H29655  10.757  10.134   4.434  0.8237  0.7569  2.1162
  940MOL0     H29656  10.841  10.056   4.565  1.3687 -0.3481 -0.1356
  940MOL0     H29657  10.924   9.880   4.400 -0.3931 -0.5931  0.2820
  940MOL0     H29658  10.884   9.993   4.277  0.0060  1.0189 -0.0137
  940MOL0     H29659  11.036  10.160   4.384 -1.6443 -0.1205 -1.8631
  940MOL0     H29660  11.087  10.033   4.505  1.9780 -1.5435 -1.0279
  940MOL0     H29661  11.115  10.052   4.200 -1.6978 -0.5988  0.1444
  940MOL0     H29662  11.119   9.893   4.267  2.3050 -1.5928  1.6484
  940MOL0     H29663  11.302   9.947   4.426 -1.4160 -1.1268  0.2262
  940MOL0     H29664  11.346   9.945   4.265  1.4042  0.0832  0.2059
  940MOL0     H29665  11.295  10.199   4.435  0.1915 -0.5248  0.7234
  940MOL0     H29666  11.326  10.215   4.260 -1.9210  2.0456  2.3784
  940MOL0     H29667  11.503  10.114   4.492 -0.8499 -1.5593  0.1998
  940MOL0     H29668  11.543  10.086   4.319 -3.1048 -0.4005 -1.5417
  940MOL0     H29669  11.651  10.269   4.161  0.5420 -0.4058  0.2638
  940MOL0     H29670  11.761  10.604   4.188 -1.1003  0.6319  0.8767
  940MOL0     H29671  11.830  10.455   4.124  1.0411  0.4439  0.6436
  940MOL0     H29672  11.916  10.586   4.381 -0.4746 -1.4005  1.0003
  940MOL0     H29673  11.999  10.452   4.314  1.3377  0.2995  1.8629
  940MOL0     H29674  11.969  10.736   4.211 -0.4254 -0.3508 -0.8967
  940MOL0     H29675  12.122  10.672   4.239  1.0671  1.6273 -1.8393
  940MOL0     H29676  11.921  10.638   4.004 -0.8983  1.2801  1.0796
  940MOL0     H29677  12.078  10.701   3.991 -1.5793  0.1800 -0.1621
  940MOL0     H29678  12.157  10.243   4.008  0.9393 -2.2429  1.1118
  940MOL0     H29679  12.287  10.067   4.078 -0.7213  0.5936  2.2070
  940MOL0     H29680  12.430  10.079   4.175  0.2838  0.1566  0.2973
  940MOL0     H29681  12.440  10.105   3.989  1.6572  1.5398  0.6422
  940MOL0     H29682  12.884  10.280   4.173 -0.6775  0.8070 -1.2869
  940MOL0     H29683  13.089  10.291   4.253  0.8404  0.8210 -0.0698
  940MOL0     H29684  13.197  10.288   4.548  0.8955 -1.1151 -1.1606
  940MOL0     H29685  13.234  10.292   4.393 -4.3815 -0.8892  1.2581
  940MOL0     H29686  13.451  10.299   4.506  1.4409  0.0509  3.0246
  940MOL0     H29687  13.434  10.457   4.436 -1.6153  0.4294  0.0567
  940MOL0     H29688  13.375  10.389   4.722 -1.3446 -0.9619 -0.7501
  940MOL0     H29689  13.332  10.538   4.638 -1.1098 -1.9370  2.1315
  940MOL0     H29690  13.588  10.549   4.588  0.7745  0.1561  1.4323
  940MOL0     H29691  13.619  10.407   4.684  1.7718  1.2311 -1.1595
  940MOL0     H29692  13.476  10.671   4.771 -0.0545 -0.6887 -0.0969
  940MOL0     H29693  13.507  10.540   4.882 -1.2097  1.4103  0.4380
  940MOL0     H29694  13.675  10.743   4.884 -1.5785 -0.8381  0.8472
  940MOL0     H29695  13.696  10.713   4.703 -0.4665  0.2779  0.2587
  940MOL0     H29696  13.822  10.512   4.744  2.4469 -0.2529  1.3875
  940MOL0     H29697  13.806  10.527   4.916  0.2538  0.6618  0.5697
  940MOL0     H29698  13.922  10.758   4.901 -1.3698  1.2291 -0.9210
  940MOL0     H29699  13.945  10.720   4.738 -2.8012  0.1841  0.6577
  940MOL0     H29700  12.985  10.619   4.518 -1.6524  0.3447  1.1918
  940MOL0     H29701  12.743  10.602   4.423 -2.8172 -1.5774 -3.1328
  940MOL0     H29702  12.471  10.554   4.208 -0.2424  0.4748  1.0203
  940MOL0     H29703  12.283  10.640   4.105  0.4309 -0.7263  3.3444
  940MOL0     H29704  10.402   9.960   4.318  2.6595  0.0699  1.0802
  940MOL0     H29705  10.163   9.845   4.354  0.2499  0.5744 -0.9507
  940MOL0     H29706   9.719   9.877   4.529 -0.2232 -0.0589 -0.7287
  940MOL0     H29707   9.504   9.770   4.526  0.9456  1.6674 -0.3974
  940MOL0     H29708   9.254   9.475   4.550  1.2262 -1.5468  2.6264
  940MOL0     H29709   9.328   9.625   4.588 -1.8524 -2.1651  0.7873
  940MOL0     H29710   9.351   9.485   4.322  2.5169 -0.6478  1.2214
  940MOL0     H29711   9.387   9.649   4.340  0.7432 -1.6007  0.7459
  940MOL0     H29712   9.104   9.622   4.426  1.0960 -4.3757  0.8139
  940MOL0     H29713   9.192   9.740   4.331 -2.1166 -0.0879 -3.0134
  940MOL0     H29714   9.106   9.458   4.238  2.1524 -0.4278 -3.1281
  940MOL0     H29715   9.195   9.567   4.141 -0.8679  0.2894 -1.1962
  940MOL0     H29716   8.775   9.697   4.143 -1.4357  0.2869  3.6174
  940MOL0     H29717   9.688   9.388   4.592 -0.4717 -0.5183  0.4368
  940MOL0     H29718  10.027   9.525   4.630  0.5038  0.3028  1.2570
  940MOL0     H29719   9.931   9.372   4.620 -1.4344  0.7547  1.9838
  940MOL0     H29720   9.986   9.457   4.472  2.9459  4.1150  0.7241
  941MOL0     O29721   8.233   5.269   2.072  0.1684  0.3869  0.6612
  941MOL0     C29722   8.186   5.382   2.067  0.8694 -1.0122 -0.0298
  941MOL0     O29723   8.263   5.499   2.043  0.0857 -0.0312  0.2429
  941MOL0     C29724   8.397   5.468   2.032  1.1600  0.1418  0.1611
  941MOL0     C29725   8.443   5.375   1.932  0.2944 -0.5947 -0.8732
  941MOL0     C29726   8.573   5.355   1.922 -0.7453 -0.4097 -0.5289
  941MOL0     C29727   8.671   5.421   2.003  0.0338 -0.7067  0.1846
  941MOL0     O29728   8.807   5.404   2.004 -0.7483  0.5976 -0.5242
  941MOL0     C29729   8.862   5.301   1.917 -0.0042  0.1681 -0.7339
  941MOL0     C29730   9.008   5.330   1.904 -0.0132 -0.1455 -0.2248
  941MOL0     C29731   9.068   5.238   1.784  0.6103 -0.3205 -0.0804
  941MOL0     C29732   9.208   5.239   1.768 -0.8283 -0.1588 -0.1478
  941MOL0     C29733   9.254   5.192   1.624  0.5132 -0.2046  0.2030
  941MOL0     C29734   9.208   5.048   1.589  0.0637  0.2294  0.5459
  941MOL0     C29735   9.074   5.038   1.496  0.5255  0.4433 -0.3272
  941MOL0     C29736   9.002   4.902   1.499  0.2384  0.4487 -0.3744
  941MOL0     N29737   8.866   4.914   1.556 -0.1294 -0.1323 -0.1694
  941MOL0     C29738   8.759   4.968   1.492 -1.5502 -0.1414  0.7729
  941MOL0     C29739   8.666   5.001   1.583  0.4939  0.1393 -0.1239
  941MOL0     C29740   8.542   5.087   1.564 -0.5144 -0.4130  0.2830
  941MOL0     C29741   8.424   5.019   1.642  0.5375 -0.0919  0.9303
  941MOL0     C29742   8.286   5.081   1.607 -0.6215 -0.5301 -0.2652
  941MOL0     C29743   8.165   5.023   1.668  0.9416 -0.5926 -0.2202
  941MOL0     O29744   8.062   5.120   1.625 -0.2689  0.7468 -0.1823
  941MOL0     C29745   7.933   5.087   1.658 -0.2121  0.7611 -0.6657
  941MOL0     C29746   7.885   4.982   1.732 -0.2862  0.0359  0.0392
  941MOL0     C29747   7.752   4.978   1.774  0.6214 -0.0496 -0.2201
  941MOL0     C29748   7.699   4.858   1.829 -1.0862  0.2488 -0.6947
  941MOL0     C29749   7.665   5.091   1.741 -1.4836 -0.1300 -0.5059
  941MOL0     C29750   7.536   5.109   1.802 -0.0644  0.0340 -0.5246
  941MOL0     O29751   7.431   5.107   1.713  0.4520  0.5466  0.5502
  941MOL0     C29752   7.292   5.088   1.742 -0.4878  0.2017  1.4309
  941MOL0     C29753   7.243   5.048   1.871 -0.6471 -0.0503  0.4429
  941MOL0     C29754   7.107   5.041   1.900  0.0174  0.0824 -0.3620
  941MOL0     C29755   7.013   5.084   1.806 -0.2298  0.4909 -0.2381
  941MOL0     O29756   6.879   5.102   1.839 -0.5571 -0.2824  0.1775
  941MOL0     C29757   6.834   5.130   1.967 -0.5727 -0.1113  0.1766
  941MOL0     C29758   6.802   5.284   1.995  0.4350 -0.1032  0.1879
  941MOL0     C29759   6.716   5.354   1.882 -0.6865  0.1736 -0.3006
  941MOL0     C29760   6.562   5.332   1.894  0.2636 -0.1648 -0.8363
  941MOL0     C29761   6.474   5.383   1.777 -0.3298  0.0744 -0.1404
  941MOL0     C29762   6.448   5.533   1.781  0.2758  0.2903 -0.2583
  941MOL0     C29763   6.386   5.580   1.651  0.4701 -0.0959  0.2756
  941MOL0     C29764   6.231   5.593   1.658 -0.1516 -0.3151 -0.0317
  941MOL0    Cl29765   6.173   5.442   1.714 -0.5926 -0.2812  0.0557
  941MOL0     C29766   7.057   5.113   1.676 -1.0277 -0.9127 -0.5076
  941MOL0     C29767   7.196   5.113   1.646 -0.3408 -0.8550 -0.8809
  941MOL0     O29768   7.533   5.116   1.923  1.2522 -0.1522  0.9661
  941MOL0     C29769   7.716   5.186   1.654  0.1728  0.9736 -0.0699
  941MOL0     C29770   7.843   5.184   1.617 -0.7250 -0.1762  0.1406
  941MOL0     N29771   8.715   4.956   1.704  0.2510  0.4202 -0.5186
  941MOL0     N29772   8.835   4.896   1.690  0.3156  0.1717 -0.4442
  941MOL0     C29773   8.623   5.520   2.096 -1.4697 -0.2398  0.4199
  941MOL0     C29774   8.486   5.533   2.116  0.1257  0.5381 -1.0010
  941MOL0     C29775   8.038   5.400   2.096  0.0172  0.2780  0.7454
  941MOL0     C29776   7.985   5.535   2.102  0.9849  0.0419 -0.2294
  941MOL0     C29777   7.844   5.547   2.120 -1.2212 -0.3652 -0.7532
  941MOL0     C29778   7.753   5.443   2.130 -0.0736 -0.2862 -0.7137
  941MOL0     O29779   7.620   5.478   2.139 -0.7666  0.4565 -0.1639
  941MOL0     C29780   7.534   5.383   2.185 -0.2123 -0.1657 -0.0478
  941MOL0     C29781   7.422   5.470   2.244 -0.0978 -0.4520 -0.1344
  941MOL0     C29782   7.289   5.402   2.292  1.0918 -0.1759  0.6381
  941MOL0     C29783   7.192   5.522   2.324 -0.4609 -0.7677 -0.6024
  941MOL0     C29784   7.055   5.487   2.344 -0.0246 -0.6430 -0.1050
  941MOL0     C29785   6.936   5.462   2.341 -0.1237  0.6633  0.2799
  941MOL0     C29786   7.808   5.321   2.119  0.0726  1.4197 -0.5925
  941MOL0     C29787   7.935   5.289   2.101 -0.3478 -0.1547 -0.6503
  941MOL0     C29788   7.965   5.139   2.068  0.2633  0.1566 -0.4577
  941MOL0     H29789   8.369   5.319   1.876 -0.2407 -2.7657  1.8045
  941MOL0     H29790   8.608   5.289   1.843  0.9292  0.4292 -0.5415
  941MOL0     H29791   8.829   5.308   1.812  3.3602  0.4071 -1.8769
  941MOL0     H29792   8.852   5.208   1.973  2.0104  1.7949  2.6095
  941MOL0     H29793   9.018   5.434   1.872 -0.5675 -0.4603 -1.4818
  941MOL0     H29794   9.056   5.311   2.001  0.6216  1.3982 -0.2217
  941MOL0     H29795   9.035   5.135   1.800 -0.2310 -0.2831 -1.4019
  941MOL0     H29796   9.022   5.277   1.692 -0.2737 -1.1598 -0.0164
  941MOL0     H29797   9.252   5.340   1.775  2.2917 -1.2688 -1.6682
  941MOL0     H29798   9.253   5.184   1.851 -0.1324  0.7005  0.0700
  941MOL0     H29799   9.363   5.199   1.620  0.3947  2.1683  0.0460
  941MOL0     H29800   9.222   5.265   1.549 -0.2123 -1.0203 -0.2993
  941MOL0     H29801   9.280   5.014   1.514  0.3564  1.1436  0.3974
  941MOL0     H29802   9.205   4.986   1.679 -4.1889 -1.4730 -0.4911
  941MOL0     H29803   9.098   5.057   1.391 -0.4057  0.0603 -0.6152
  941MOL0     H29804   9.002   5.116   1.520 -0.4275 -0.3761 -0.4828
  941MOL0     H29805   8.999   4.871   1.394  3.1442  0.8809 -0.6749
  941MOL0     H29806   9.058   4.823   1.550  0.2515 -0.2490 -1.4271
  941MOL0     H29807   8.763   4.991   1.386  0.5977 -1.5314  0.4915
  941MOL0     H29808   8.519   5.091   1.457 -1.3181  1.4219  0.4913
  941MOL0     H29809   8.549   5.189   1.602 -2.3018  0.0923 -0.6697
  941MOL0     H29810   8.412   4.919   1.601 -0.0225  0.3104  0.0656
  941MOL0     H29811   8.430   5.014   1.751 -0.3863  0.0449  0.9974
  941MOL0     H29812   8.289   5.180   1.654 -1.1423 -1.1375  1.0750
  941MOL0     H29813   8.275   5.088   1.498 -1.7282  0.7483 -0.0965
  941MOL0     H29814   8.142   4.925   1.626 -1.1007 -1.0184  1.6996
  941MOL0     H29815   8.160   5.014   1.777 -2.3001 -2.5265 -0.4036
  941MOL0     H29816   7.954   4.903   1.756  2.5004  2.8646  2.2800
  941MOL0     H29817   7.602   4.880   1.874 -0.4149  1.2647  0.2714
  941MOL0     H29818   7.766   4.807   1.898 -2.1479 -0.6695 -0.2970
  941MOL0     H29819   7.675   4.786   1.749 -1.0809  0.3576 -0.7945
  941MOL0     H29820   7.314   5.024   1.948 -1.5808  0.1862  1.4000
  941MOL0     H29821   7.080   5.003   1.998 -0.9242  1.5340 -0.0174
  941MOL0     H29822   6.750   5.061   1.969  1.0681 -2.2893 -1.2091
  941MOL0     H29823   6.908   5.109   2.045 -0.1296 -1.2897 -0.5372
  941MOL0     H29824   6.759   5.288   2.095  3.3713 -0.1167  1.5646
  941MOL0     H29825   6.903   5.326   1.986  0.7602 -0.8642  0.2100
  941MOL0     H29826   6.755   5.317   1.786  2.6044 -0.3722  1.1138
  941MOL0     H29827   6.738   5.461   1.883  0.4497 -0.0460  0.3482
  941MOL0     H29828   6.525   5.392   1.978  0.3153  1.4820 -1.9348
  941MOL0     H29829   6.547   5.227   1.918  2.4852 -0.3214  0.1369
  941MOL0     H29830   6.512   5.352   1.680 -1.1367  0.9563 -0.7509
  941MOL0     H29831   6.384   5.323   1.794 -0.6237  0.3303 -0.7730
  941MOL0     H29832   6.546   5.581   1.791  0.4936  0.0711 -1.2175
  941MOL0     H29833   6.384   5.562   1.864  1.3127  0.1773  0.6020
  941MOL0     H29834   6.389   5.501   1.575 -1.7779 -1.3163  1.3417
  941MOL0     H29835   6.432   5.672   1.614 -0.6768  0.6677  0.6848
  941MOL0     H29836   6.200   5.611   1.554  2.2011  0.2419 -0.7037
  941MOL0     H29837   6.210   5.671   1.732  3.6280  1.0346 -0.1921
  941MOL0     H29838   6.990   5.154   1.602 -0.9806  2.3716  1.0765
  941MOL0     H29839   7.237   5.140   1.549  2.0725 -1.3369 -0.0757
  941MOL0     H29840   7.663   5.271   1.613 -0.2051  0.1682 -1.3140
  941MOL0     H29841   7.894   5.269   1.574  1.2572 -0.3481  1.9567
  941MOL0     H29842   8.688   5.571   2.166 -2.6682  1.1334  0.5826
  941MOL0     H29843   8.446   5.600   2.192 -1.6906 -1.4386 -0.1069
  941MOL0     H29844   8.048   5.623   2.090  0.3600  1.1269  3.3941
  941MOL0     H29845   7.814   5.650   2.139  0.0509 -0.0770 -0.2031
  941MOL0     H29846   7.492   5.325   2.102  2.4457 -1.5491 -0.5369
  941MOL0     H29847   7.583   5.309   2.250  1.0049 -0.1315 -0.8974
  941MOL0     H29848   7.390   5.536   2.163  0.1752 -2.7532 -2.2264
  941MOL0     H29849   7.458   5.535   2.324 -2.0348 -1.2771  1.5153
  941MOL0     H29850   7.242   5.344   2.211 -1.4556  3.0995 -0.4596
  941MOL0     H29851   7.304   5.333   2.375 -0.0783  0.5724  1.5139
  941MOL0     H29852   7.191   5.591   2.239 -2.6130 -0.1069 -0.1226
  941MOL0     H29853   7.234   5.565   2.415 -0.3179  0.8017 -1.3840
  941MOL0     H29854   6.831   5.440   2.349 -0.5045  2.8946  2.5148
  941MOL0     H29855   7.728   5.248   2.120  2.1299 -0.9591 -0.3124
  941MOL0     H29856   7.983   5.122   1.962 -1.7716  1.1912 -1.0124
  941MOL0     H29857   8.044   5.091   2.127  1.7679  2.7654 -0.1967
  941MOL0     H29858   7.875   5.081   2.088  1.8570 -2.1868  0.4393
  942MOL0     O29859  11.263   6.985   6.247 -0.1593 -0.2567  0.1080
  942MOL0     C29860  11.281   6.871   6.206 -0.3144 -0.5141  0.1243
  942MOL0     O29861  11.384   6.821   6.133 -0.1877  0.8646  0.9853
  942MOL0     C29862  11.499   6.899   6.138  0.2912 -0.0399  0.3023
  942MOL0     C29863  11.568   6.944   6.022  0.8190  0.5309 -0.6373
  942MOL0     C29864  11.679   7.032   6.041 -0.3583  1.3093  0.6854
  942MOL0     C29865  11.737   7.041   6.172  0.3270 -0.2696 -0.2419
  942MOL0     O29866  11.839   7.126   6.180  0.3520  0.2079 -0.2581
  942MOL0     C29867  11.905   7.137   6.314 -0.1422 -0.3654  0.9087
  942MOL0     C29868  12.014   7.240   6.326  0.0257 -0.4448  0.8277
  942MOL0     C29869  12.146   7.193   6.258 -0.0799 -0.3993  0.5367
  942MOL0     C29870  12.229   7.109   6.361 -0.9603  0.1766 -0.1376
  942MOL0     C29871  12.348   7.032   6.291  0.2646 -0.7797 -1.0413
  942MOL0     C29872  12.458   7.125   6.239 -0.3915 -0.5422  0.1581
  942MOL0     C29873  12.588   7.067   6.185 -0.1163  0.4457 -0.0415
  942MOL0     C29874  12.671   7.021   6.306 -0.0303 -0.6505  0.1019
  942MOL0     N29875  12.790   6.935   6.282 -0.9593  0.6117 -0.2158
  942MOL0     C29876  12.918   6.981   6.245  0.7090  0.2030 -0.5801
  942MOL0     C29877  12.997   6.874   6.226 -0.3098  0.2361  0.1760
  942MOL0     C29878  13.137   6.876   6.174 -0.4064  1.0737  0.4249
  942MOL0     C29879  13.144   6.881   6.022  0.2821  0.4831  0.0665
  942MOL0     C29880  13.102   6.745   5.959  0.0371 -0.1052 -0.0302
  942MOL0     C29881  13.228   6.655   5.937  0.2554  0.2639 -1.3107
  942MOL0     O29882  13.314   6.729   5.849 -0.0482 -0.1588  0.4285
  942MOL0     C29883  13.444   6.703   5.883 -0.1263  0.1421 -0.5058
  942MOL0     C29884  13.506   6.587   5.845 -0.2435 -0.5764 -0.0384
  942MOL0     C29885  13.639   6.564   5.894  0.5155  0.1921  0.1757
  942MOL0     C29886  13.693   6.435   5.841  0.1567  0.1344  0.8560
  942MOL0     C29887  13.706   6.651   5.983 -0.2346 -0.1846  0.6709
  942MOL0     C29888  13.842   6.633   6.043 -0.1692  0.5327 -0.3616
  942MOL0     O29889  13.923   6.731   6.080  0.4541 -0.2596 -0.5903
  942MOL0     C29890  14.050   6.693   6.122  0.5374 -0.4535 -0.5972
  942MOL0     C29891  14.082   6.686   6.258  0.4362  0.0229 -0.3166
  942MOL0     C29892  14.197   6.612   6.292 -0.4058 -0.5712  0.3449
  942MOL0     C29893  14.289   6.562   6.195 -0.1226 -0.1178 -0.3586
  942MOL0     O29894  14.407   6.502   6.237  0.3188 -0.0937 -0.0368
  942MOL0     C29895  14.435   6.371   6.181  0.7537 -0.5406  0.3355
  942MOL0     C29896  14.338   6.270   6.248 -0.6458  0.1656 -0.1735
  942MOL0     C29897  14.381   6.125   6.206  0.1450  0.3405  0.0722
  942MOL0     C29898  14.290   6.024   6.280  0.7728  0.2273  0.2920
  942MOL0     C29899  14.332   5.879   6.237 -0.3238 -0.5335  0.2288
  942MOL0     C29900  14.233   5.778   6.297  0.0917  0.3141  0.6583
  942MOL0     C29901  14.092   5.787   6.237  0.0292  0.7339 -0.6371
  942MOL0     C29902  14.018   5.655   6.260 -0.1182  0.1177  0.6306
  942MOL0    Cl29903  13.862   5.660   6.179 -0.3821 -0.2091 -0.2361
  942MOL0     C29904  14.268   6.601   6.059 -0.2175 -0.2987  0.2580
  942MOL0     C29905  14.146   6.653   6.026 -0.0006 -0.6857  0.1019
  942MOL0     O29906  13.874   6.517   6.068  0.4619  0.3347 -0.1497
  942MOL0     C29907  13.642   6.764   6.010 -0.0976 -0.9265  0.0979
  942MOL0     C29908  13.518   6.796   5.959  0.0703  0.1068  0.4496
  942MOL0     N29909  12.924   6.763   6.259  0.2171 -0.2842  0.0747
  942MOL0     N29910  12.798   6.803   6.285  0.4145  1.0140 -0.2781
  942MOL0     C29911  11.672   6.981   6.286  0.7285  0.0064  0.4052
  942MOL0     C29912  11.548   6.909   6.269 -1.0892  0.2168  0.1330
  942MOL0     C29913  11.149   6.801   6.205 -0.2768  0.2500 -0.0264
  942MOL0     C29914  11.090   6.763   6.083  0.4955 -1.0469 -0.0705
  942MOL0     C29915  10.957   6.723   6.086  0.0441  0.3246 -0.1805
  942MOL0     C29916  10.885   6.718   6.202  0.0270  0.2054 -0.3450
  942MOL0     O29917  10.759   6.665   6.213  0.4708 -0.8005 -0.1054
  942MOL0     C29918  10.669   6.690   6.104  0.4411 -0.4193 -0.1423
  942MOL0     C29919  10.542   6.612   6.121 -0.1139 -0.5870 -1.2868
  942MOL0     C29920  10.569   6.487   6.196 -0.0637  0.3076 -0.1365
  942MOL0     C29921  10.444   6.387   6.192  0.0473  0.2010 -0.2644
  942MOL0     C29922  10.307   6.442   6.211  0.4138 -0.1254 -0.0147
  942MOL0     C29923  10.212   6.510   6.232  0.4517 -1.1884  0.9746
  942MOL0     C29924  10.955   6.735   6.322  0.2659 -0.9158  0.0237
  942MOL0     C29925  11.086   6.782   6.327 -0.2619  0.8924  0.6419
  942MOL0     C29926  11.164   6.799   6.459  0.5318 -0.8442 -0.0132
  942MOL0     H29927  11.544   6.924   5.918 -1.3716  1.0359 -0.2721
  942MOL0     H29928  11.725   7.076   5.953  2.5926  0.6286  1.7830
  942MOL0     H29929  11.941   7.039   6.348  1.4229  1.0023  3.5517
  942MOL0     H29930  11.830   7.158   6.391 -0.7464 -2.0682  0.8305
  942MOL0     H29931  11.980   7.329   6.272 -2.1669 -1.3268  0.6499
  942MOL0     H29932  12.029   7.267   6.431 -0.5348 -1.0531  1.0728
  942MOL0     H29933  12.131   7.132   6.169  2.5753  2.1865 -1.9119
  942MOL0     H29934  12.205   7.275   6.215 -0.4536 -0.7578 -0.6809
  942MOL0     H29935  12.256   7.179   6.440 -2.5175  0.4000  0.2166
  942MOL0     H29936  12.154   7.042   6.404 -1.7422  1.8943  1.2825
  942MOL0     H29937  12.301   6.965   6.217 -1.8366 -0.3063 -0.2087
  942MOL0     H29938  12.397   6.967   6.365  0.9990  1.1768  0.2543
  942MOL0     H29939  12.411   7.199   6.174 -3.8231 -1.0796  1.8413
  942MOL0     H29940  12.488   7.177   6.331  1.7018 -0.4926 -0.4953
  942MOL0     H29941  12.637   7.153   6.139  1.5428 -0.1370  0.5459
  942MOL0     H29942  12.569   6.984   6.117 -2.1776 -0.3589  1.4228
  942MOL0     H29943  12.696   7.117   6.354 -2.8399  0.6363 -0.8098
  942MOL0     H29944  12.611   6.957   6.370  0.0215  0.3359  1.1861
  942MOL0     H29945  12.937   7.087   6.235  0.0864  0.4112  0.2726
  942MOL0     H29946  13.191   6.785   6.203 -0.8468  1.6294  3.2720
  942MOL0     H29947  13.196   6.956   6.221 -0.8799  0.9180  1.3076
  942MOL0     H29948  13.068   6.957   6.003 -0.4334 -0.1760  0.2512
  942MOL0     H29949  13.241   6.916   5.986 -0.4132  1.5160 -0.8703
  942MOL0     H29950  13.030   6.695   6.024  0.3749  0.6180  0.9186
  942MOL0     H29951  13.058   6.762   5.860  2.3478 -1.9444 -1.4798
  942MOL0     H29952  13.267   6.631   6.037 -0.0351 -1.5488 -1.6047
  942MOL0     H29953  13.190   6.560   5.899  0.3831 -0.7705  0.9624
  942MOL0     H29954  13.444   6.524   5.783 -1.8951  1.1050 -0.1844
  942MOL0     H29955  13.681   6.345   5.903  0.0342 -0.8138 -0.5077
  942MOL0     H29956  13.799   6.435   5.813 -0.1855 -1.6187 -0.6254
  942MOL0     H29957  13.641   6.417   5.747  1.9934 -1.4910  0.0826
  942MOL0     H29958  14.015   6.715   6.339  1.8117  2.7966 -0.0494
  942MOL0     H29959  14.224   6.606   6.397 -0.7823  2.1889  0.6998
  942MOL0     H29960  14.434   6.369   6.071  1.7367  1.6247  0.2379
  942MOL0     H29961  14.537   6.346   6.212  0.7826 -0.1092  0.5926
  942MOL0     H29962  14.334   6.286   6.356  2.0560  2.4395 -0.2952
  942MOL0     H29963  14.236   6.287   6.212 -1.7604 -2.4456  1.5070
  942MOL0     H29964  14.476   6.092   6.248 -0.5043  0.8949  2.0744
  942MOL0     H29965  14.369   6.116   6.097  2.7982 -1.7239 -0.1494
  942MOL0     H29966  14.183   6.039   6.263  0.0420  0.6092  4.3536
  942MOL0     H29967  14.315   6.031   6.386 -0.2927 -0.9464  0.6287
  942MOL0     H29968  14.336   5.868   6.128 -0.5915  2.0287 -0.0980
  942MOL0     H29969  14.431   5.855   6.277  1.3092  0.2300 -2.9669
  942MOL0     H29970  14.232   5.791   6.406  0.7486 -0.0444  0.7116
  942MOL0     H29971  14.277   5.678   6.290  2.3605  1.3371 -0.8262
  942MOL0     H29972  14.108   5.815   6.132  1.7029 -0.6213 -0.7874
  942MOL0     H29973  14.047   5.876   6.281  2.1422  1.6516 -0.2019
  942MOL0     H29974  14.002   5.628   6.365 -2.1708 -2.1986 -0.1721
  942MOL0     H29975  14.066   5.565   6.221  0.0294  0.6153 -0.3512
  942MOL0     H29976  14.329   6.575   5.974 -3.4964 -1.0860 -2.0201
  942MOL0     H29977  14.112   6.669   5.924 -0.4893 -1.5117  0.1345
  942MOL0     H29978  13.692   6.831   6.079  1.1956  0.3785 -2.0133
  942MOL0     H29979  13.473   6.891   5.986 -0.2450  0.1846 -0.3182
  942MOL0     H29980  11.711   6.995   6.386  2.0551  5.5016 -0.5569
  942MOL0     H29981  11.494   6.861   6.349  0.2876  0.6517  1.3687
  942MOL0     H29982  11.139   6.774   5.986 -1.0783 -0.8079 -0.8768
  942MOL0     H29983  10.918   6.685   5.992 -2.1389 -2.2010  1.6192
  942MOL0     H29984  10.652   6.797   6.091 -1.4849 -0.9718 -3.3923
  942MOL0     H29985  10.717   6.661   6.010 -1.5160  1.5190 -1.8501
  942MOL0     H29986  10.485   6.601   6.028  0.8224 -1.2350 -1.7960
  942MOL0     H29987  10.484   6.663   6.199  2.1653  0.0822  0.0395
  942MOL0     H29988  10.655   6.426   6.167 -0.0546 -1.5582  3.2732
  942MOL0     H29989  10.581   6.508   6.302  1.1093 -0.8280 -0.0310
  942MOL0     H29990  10.467   6.304   6.260  1.7525 -1.9618 -3.2215
  942MOL0     H29991  10.443   6.330   6.099 -0.5894 -0.8802  0.3783
  942MOL0     H29992  10.132   6.580   6.239 -0.6163 -2.2839  0.0852
  942MOL0     H29993  10.906   6.707   6.414  1.0979  0.5242  0.9478
  942MOL0     H29994  11.263   6.754   6.445  0.2135 -1.3304 -0.7615
  942MOL0     H29995  11.165   6.905   6.486 -0.6479 -1.1312  1.2870
  942MOL0     H29996  11.107   6.744   6.535 -1.7993 -0.1696 -1.1884
  943MOL0     O29997  10.913   8.831   8.824  0.0759 -0.4462 -0.0514
  943MOL0     C29998  10.849   8.721   8.840 -0.2341 -0.3967  0.4281
  943MOL0     O29999  10.908   8.601   8.887  0.0552  0.5559  0.1724
  943MOL0     C30000  11.037   8.603   8.916 -0.1062  0.1977  0.5517
  943MOL0     C30001  11.074   8.597   9.047 -0.5660  0.0304  0.2856
  943MOL0     C30002  11.212   8.591   9.079 -0.2506  0.1524 -0.4324
  943MOL0     C30003  11.304   8.582   8.985  0.0128 -0.2759  0.2239
  943MOL0     O30004  11.432   8.558   9.040  0.4734  0.1656  0.1759
  943MOL0     C30005  11.539   8.537   8.945 -0.0143 -0.5695 -0.5605
  943MOL0     C30006  11.675   8.506   9.020 -0.9784 -0.0490  0.4726
  943MOL0     C30007  11.793   8.494   8.925 -0.5019 -0.0801 -0.4041
  943MOL0     C30008  11.906   8.442   9.013  0.8311  1.1497  0.7375
  943MOL0     C30009  12.045   8.464   8.955 -0.3070 -1.0893  0.4349
  943MOL0     C30010  12.122   8.589   8.997 -1.3899 -0.8238 -0.6396
  943MOL0     C30011  12.267   8.599   8.949  0.2316 -0.3519 -0.3083
  943MOL0     C30012  12.265   8.594   8.794 -1.0456 -0.2347  0.4007
  943MOL0     N30013  12.405   8.611   8.739  0.1894 -0.3162  0.0822
  943MOL0     C30014  12.508   8.520   8.766 -0.4862  0.6267  0.2206
  943MOL0     C30015  12.625   8.593   8.753  0.3066  0.2499 -0.5783
  943MOL0     C30016  12.759   8.536   8.769 -0.2227 -0.4253  0.4251
  943MOL0     C30017  12.801   8.469   8.637 -0.1137  0.2958 -0.7581
  943MOL0     C30018  12.855   8.550   8.515 -0.3670  0.5700 -0.3518
  943MOL0     C30019  12.977   8.631   8.559  0.0181 -0.2199  0.3734
  943MOL0     O30020  13.019   8.716   8.449  0.4155 -0.5166  0.3276
  943MOL0     C30021  13.124   8.795   8.477  0.0091  0.0252  0.4644
  943MOL0     C30022  13.210   8.801   8.590 -0.1777  0.5995 -0.4840
  943MOL0     C30023  13.307   8.901   8.599 -1.3457 -0.0441 -0.6732
  943MOL0     C30024  13.391   8.903   8.719 -0.6599  0.2423  0.8196
  943MOL0     C30025  13.322   9.000   8.497 -0.6669  0.1980  0.1725
  943MOL0     C30026  13.421   9.110   8.498  0.0286  0.8469 -0.1600
  943MOL0     O30027  13.456   9.154   8.375  0.2175 -0.0166  0.1336
  943MOL0     C30028  13.534   9.266   8.352  0.0619  0.3819 -0.2121
  943MOL0     C30029  13.518   9.326   8.232  0.1505 -0.4688 -0.2248
  943MOL0     C30030  13.580   9.449   8.203  0.6602 -0.1778 -1.0884
  943MOL0     C30031  13.680   9.503   8.278 -0.4727  0.5659 -0.7080
  943MOL0     O30032  13.738   9.610   8.234 -0.9490 -0.0558 -0.0605
  943MOL0     C30033  13.842   9.665   8.321  0.2786 -0.3100  0.5940
  943MOL0     C30034  13.911   9.788   8.263  0.4796 -0.5393 -0.2711
  943MOL0     C30035  13.829   9.919   8.273 -0.4857 -0.1430 -0.0092
  943MOL0     C30036  13.916  10.035   8.233 -0.4167 -0.0110  0.5421
  943MOL0     C30037  13.846  10.171   8.213 -0.4252  0.5654  0.2578
  943MOL0     C30038  13.783  10.216   8.335  0.5785 -0.3344  0.1598
  943MOL0     C30039  13.727  10.361   8.337 -0.0242 -0.1513  0.9538
  943MOL0     C30040  13.672  10.402   8.471  1.0285 -0.5464  0.0952
  943MOL0    Cl30041  13.620  10.573   8.430  0.1889 -0.0370  0.4745
  943MOL0     C30042  13.717   9.422   8.387  0.2454  0.4734  0.2192
  943MOL0     C30043  13.644   9.307   8.428 -0.0471  0.4480  0.3673
  943MOL0     O30044  13.468   9.152   8.612  0.8275 -0.0196  0.6672
  943MOL0     C30045  13.238   8.986   8.381 -0.4017 -0.4981  0.2000
  943MOL0     C30046  13.143   8.885   8.374  0.7411 -0.8121 -0.2360
  943MOL0     N30047  12.590   8.724   8.722  0.5453 -0.1081 -0.1133
  943MOL0     N30048  12.458   8.733   8.717  0.5385  0.5402  0.7461
  943MOL0     C30049  11.269   8.584   8.855 -0.1905  0.2940 -0.1858
  943MOL0     C30050  11.140   8.596   8.822  0.3832  0.6376  0.6205
  943MOL0     C30051  10.711   8.711   8.789  0.7298 -0.0976  0.1297
  943MOL0     C30052  10.653   8.579   8.783  0.0695 -0.4096  0.1088
  943MOL0     C30053  10.523   8.555   8.744 -0.3206  0.4457  0.6066
  943MOL0     C30054  10.442   8.660   8.709  0.4192 -0.6538 -0.3186
  943MOL0     O30055  10.317   8.626   8.674  0.2215 -0.8804 -0.8380
  943MOL0     C30056  10.220   8.720   8.714  0.2999  0.5024 -0.0613
  943MOL0     C30057  10.077   8.668   8.690  0.1343  0.9822  0.5097
  943MOL0     C30058  10.035   8.635   8.544  0.8495  0.9865  0.0481
  943MOL0     C30059   9.886   8.656   8.520 -0.0971  0.0666  0.1035
  943MOL0     C30060   9.861   8.626   8.377  0.1293 -0.3665 -0.3677
  943MOL0     C30061   9.852   8.602   8.259 -0.3764 -0.1318  0.9893
  943MOL0     C30062  10.500   8.787   8.707  0.0152  1.0839  0.4832
  943MOL0     C30063  10.632   8.817   8.744  0.7429  0.3288 -0.0808
  943MOL0     C30064  10.677   8.959   8.745  0.5402 -0.0988  0.7040
  943MOL0     H30065  11.005   8.602   9.132  0.3175 -0.5250  1.0535
  943MOL0     H30066  11.235   8.578   9.185 -2.9966 -1.2561  0.0862
  943MOL0     H30067  11.550   8.621   8.876  0.5424  0.2836  0.5259
  943MOL0     H30068  11.513   8.456   8.877 -1.6541  0.9774 -1.8557
  943MOL0     H30069  11.700   8.593   9.081 -0.1647  0.5173 -0.6454
  943MOL0     H30070  11.673   8.419   9.086  1.3486  0.7143  1.6600
  943MOL0     H30071  11.783   8.429   8.838  1.6204  0.0062 -0.7685
  943MOL0     H30072  11.830   8.586   8.879  0.2056 -0.4948 -0.6729
  943MOL0     H30073  11.915   8.482   9.115  1.7623  0.6521  0.8578
  943MOL0     H30074  11.891   8.335   9.027  1.3603  0.6528 -2.0319
  943MOL0     H30075  12.031   8.460   8.847  0.5086  0.2150  0.2574
  943MOL0     H30076  12.109   8.381   8.984  1.0784 -0.5885 -1.0915
  943MOL0     H30077  12.066   8.677   8.963 -0.4076 -1.7610 -5.4864
  943MOL0     H30078  12.121   8.589   9.106 -0.0963  1.7840 -0.5435
  943MOL0     H30079  12.330   8.519   8.988  1.3042  1.1671  1.2394
  943MOL0     H30080  12.313   8.695   8.975  2.7281 -1.3647 -0.6835
  943MOL0     H30081  12.233   8.499   8.752 -0.0831  0.1628 -1.3372
  943MOL0     H30082  12.204   8.669   8.744  0.6474  0.7108 -0.3624
  943MOL0     H30083  12.505   8.418   8.803  1.8169  0.0454 -1.0520
  943MOL0     H30084  12.766   8.467   8.854  1.3777  0.6499  1.2141
  943MOL0     H30085  12.818   8.623   8.799 -3.0682  1.3834  1.1265
  943MOL0     H30086  12.886   8.411   8.674  0.0565  1.0831  0.1305
  943MOL0     H30087  12.717   8.404   8.610  0.5784 -0.3147 -1.4717
  943MOL0     H30088  12.891   8.482   8.437  3.8419  2.0616  0.0300
  943MOL0     H30089  12.786   8.620   8.469  0.2579  0.7757 -1.0018
  943MOL0     H30090  12.944   8.695   8.641  2.4437  1.5882  0.0657
  943MOL0     H30091  13.059   8.565   8.589  0.4441 -0.2389 -0.7881
  943MOL0     H30092  13.191   8.733   8.672  0.2220  0.9956 -0.0598
  943MOL0     H30093  13.498   8.894   8.697 -0.2982  1.8443  1.7697
  943MOL0     H30094  13.377   8.815   8.783 -1.5516 -1.1737 -1.2024
  943MOL0     H30095  13.369   8.994   8.776 -3.9454  1.1568 -1.5634
  943MOL0     H30096  13.433   9.296   8.171  0.2431  0.9012 -1.0777
  943MOL0     H30097  13.540   9.510   8.122 -0.6078  1.9697  1.0189
  943MOL0     H30098  13.797   9.690   8.418  2.8035 -3.9428  2.9483
  943MOL0     H30099  13.917   9.588   8.341 -0.8349 -1.8716 -0.9086
  943MOL0     H30100  14.009   9.809   8.309  0.6027 -0.2071 -0.6775
  943MOL0     H30101  13.937   9.778   8.158 -0.3050 -0.7549 -0.4454
  943MOL0     H30102  13.812   9.930   8.380  1.4737  0.3346  0.2906
  943MOL0     H30103  13.738   9.893   8.218  1.2717 -1.2778 -2.5677
  943MOL0     H30104  13.970  10.007   8.143 -0.9512  0.5761  0.0299
  943MOL0     H30105  13.993  10.045   8.310 -1.0337  0.4976  1.1111
  943MOL0     H30106  13.918  10.246   8.178  1.5507 -1.0129  0.7305
  943MOL0     H30107  13.770  10.157   8.136  0.3840 -0.4426 -0.3942
  943MOL0     H30108  13.851  10.213   8.421 -1.5960 -1.3710  1.9593
  943MOL0     H30109  13.702  10.146   8.358 -0.3970  1.0786  1.2305
  943MOL0     H30110  13.647  10.376   8.264  2.3421  1.7178 -1.4932
  943MOL0     H30111  13.803  10.438   8.316 -1.5980  1.0847 -0.4583
  943MOL0     H30112  13.745  10.402   8.553  1.5041  1.2213 -0.2754
  943MOL0     H30113  13.591  10.333   8.496  0.8347 -1.1774 -2.1297
  943MOL0     H30114  13.806   9.440   8.447 -0.3686 -0.4651  1.4487
  943MOL0     H30115  13.685   9.258   8.516  0.4572 -0.7613 -0.5208
  943MOL0     H30116  13.251   9.060   8.303 -0.2610  0.3501  1.0095
  943MOL0     H30117  13.083   8.873   8.284  1.6929  0.4093 -1.0739
  943MOL0     H30118  11.332   8.556   8.771 -0.8928  2.0030 -1.3377
  943MOL0     H30119  11.126   8.572   8.717 -2.8230 -1.8670  1.4496
  943MOL0     H30120  10.705   8.494   8.824 -1.3003 -0.4419  1.9244
  943MOL0     H30121  10.483   8.454   8.747  1.4838 -0.3357 -0.3330
  943MOL0     H30122  10.225   8.736   8.822 -0.3623 -1.1908  0.2607
  943MOL0     H30123  10.235   8.810   8.654 -0.5215  1.1716  0.7069
  943MOL0     H30124  10.018   8.755   8.719 -0.0778  0.8853  0.3711
  943MOL0     H30125  10.060   8.582   8.756 -0.4268  0.5200 -0.2098
  943MOL0     H30126  10.074   8.719   8.486 -0.2865  0.6945 -1.1933
  943MOL0     H30127  10.063   8.539   8.498 -0.4525 -1.1390  3.2961
  943MOL0     H30128   9.858   8.759   8.542 -2.1594  0.3252 -3.0527
  943MOL0     H30129   9.824   8.590   8.581 -2.4404  0.3517 -1.8362
  943MOL0     H30130   9.842   8.586   8.154 -1.2239 -0.2603  1.0793
  943MOL0     H30131  10.449   8.881   8.694  1.6629  2.5680  3.7044
  943MOL0     H30132  10.605   9.020   8.689  2.9353  0.3582 -2.1882
  943MOL0     H30133  10.677   8.994   8.849  0.4751 -0.8832  0.9711
  943MOL0     H30134  10.776   8.980   8.703 -0.1057 -0.5695 -1.1371
  944MOL0     O30135  10.583   2.071   9.367  0.4914 -0.2142  0.3312
  944MOL0     C30136  10.523   2.169   9.402  0.2492 -0.3742  1.0021
  944MOL0     O30137  10.574   2.295   9.430  0.4236  0.0603  0.1946
  944MOL0     C30138  10.704   2.336   9.406 -0.1917 -0.3319 -0.2411
  944MOL0     C30139  10.750   2.437   9.485 -0.4212 -0.0909  0.3838
  944MOL0     C30140  10.870   2.504   9.450  0.3846  0.5631 -0.1289
  944MOL0     C30141  10.948   2.445   9.351  0.1459  0.3632 -0.7819
  944MOL0     O30142  11.068   2.497   9.308  0.0026  0.1606 -0.3439
  944MOL0     C30143  11.163   2.500   9.409 -0.4355 -0.4333  0.1860
  944MOL0     C30144  11.224   2.636   9.418 -0.6839  0.4496 -0.2346
  944MOL0     C30145  11.124   2.753   9.433  0.1001 -0.7248 -0.4034
  944MOL0     C30146  11.168   2.891   9.382 -0.7320  1.1242  0.7061
  944MOL0     C30147  11.077   3.003   9.394  0.4168  1.0580 -0.5087
  944MOL0     C30148  11.056   3.035   9.544  0.2230  0.3506  1.1780
  944MOL0     C30149  10.971   3.163   9.551 -0.2966 -0.4135 -0.0682
  944MOL0     C30150  10.905   3.187   9.689 -0.1937 -0.4413 -0.3907
  944MOL0     N30151  10.986   3.143   9.804 -0.3981  0.4378 -0.1528
  944MOL0     C30152  11.088   3.219   9.857 -0.1768  0.1893  0.2497
  944MOL0     C30153  11.124   3.163   9.969 -0.2561  0.2801 -0.2347
  944MOL0     C30154  11.227   3.218  10.053 -0.3017 -0.1690  0.2600
  944MOL0     C30155  11.366   3.195  10.009  0.2336 -0.8628  0.8633
  944MOL0     C30156  11.467   3.256  10.100  0.5561  0.2752 -0.0194
  944MOL0     C30157  11.610   3.257  10.030  0.8360 -0.5287  0.0551
  944MOL0     O30158  11.689   3.322  10.130 -0.1137  0.1600  0.7196
  944MOL0     C30159  11.824   3.322  10.113  0.3015  0.0636 -0.1401
  944MOL0     C30160  11.890   3.290   9.992 -0.2782 -0.3031  0.6156
  944MOL0     C30161  12.026   3.296   9.981 -0.6860 -0.3628  0.0615
  944MOL0     C30162  12.074   3.261   9.838 -0.6460 -0.9127  0.1437
  944MOL0     C30163  12.108   3.330  10.091  0.1225 -0.2985 -1.3537
  944MOL0     C30164  12.258   3.335  10.087  0.1436  0.1082 -0.2434
  944MOL0     O30165  12.316   3.402  10.185 -0.3838  0.0565 -0.4878
  944MOL0     C30166  12.445   3.432  10.188 -0.4965 -0.7031 -0.2777
  944MOL0     C30167  12.522   3.460  10.076 -0.6813  0.1582  0.3650
  944MOL0     C30168  12.653   3.480  10.098  0.1039  0.0401  0.1524
  944MOL0     C30169  12.728   3.467  10.219  0.4829 -0.2996  0.1429
  944MOL0     O30170  12.862   3.505  10.230  1.1229  0.6518 -0.6774
  944MOL0     C30171  12.911   3.530  10.362 -0.1353  0.6243  0.5782
  944MOL0     C30172  13.055   3.561  10.338 -0.6010  0.2383 -0.2492
  944MOL0     C30173  13.138   3.517  10.458 -0.1128 -0.2698  0.0148
  944MOL0     C30174  13.118   3.617  10.576  0.0885  1.0014  0.2443
  944MOL0     C30175  13.233   3.597  10.684  0.4585  0.0632 -0.4766
  944MOL0     C30176  13.214   3.691  10.811  0.6044 -0.3395  0.1567
  944MOL0     C30177  13.316   3.652  10.914 -1.0413 -0.2653  0.1084
  944MOL0     C30178  13.464   3.654  10.874 -0.2002 -0.6931 -1.2849
  944MOL0    Cl30179  13.572   3.665  11.015  0.2155  0.0064 -0.1298
  944MOL0     C30180  12.647   3.430  10.332 -0.1223 -0.0649 -0.0808
  944MOL0     C30181  12.511   3.409  10.315  0.2583 -0.0968  0.2593
  944MOL0     O30182  12.319   3.280  10.000  0.0738 -0.2721  0.1714
  944MOL0     C30183  12.043   3.368  10.207  0.2101  0.2532 -0.5411
  944MOL0     C30184  11.901   3.362  10.221  0.0209  0.0123  0.3681
  944MOL0     N30185  11.032   3.060   9.991  0.3964  0.5864 -0.4379
  944MOL0     N30186  10.955   3.050   9.891 -0.5251  0.0667 -0.5012
  944MOL0     C30187  10.904   2.343   9.279  0.6675 -0.2271  0.4282
  944MOL0     C30188  10.770   2.298   9.295 -0.8142  0.9617 -0.5243
  944MOL0     C30189  10.375   2.165   9.404  0.0392  0.1233 -1.1227
  944MOL0     C30190  10.305   2.286   9.434  0.0863 -0.1711 -0.0899
  944MOL0     C30191  10.170   2.298   9.464  0.2873 -0.0683  0.2608
  944MOL0     C30192  10.096   2.176   9.446  0.5163  0.7055  0.0727
  944MOL0     O30193   9.968   2.189   9.482 -0.1255 -0.4528  0.5030
  944MOL0     C30194   9.901   2.070   9.524 -1.1155 -0.0335 -0.1606
  944MOL0     C30195   9.768   2.118   9.596 -0.4045 -0.7235  0.2022
  944MOL0     C30196   9.649   2.037   9.549  0.1709 -0.2673  0.7825
  944MOL0     C30197   9.516   2.121   9.559 -0.1968 -0.3129 -0.2785
  944MOL0     C30198   9.409   2.025   9.547  0.3297  1.0411 -0.1848
  944MOL0     C30199   9.330   1.932   9.520  0.0175 -0.0729 -0.1369
  944MOL0     C30200  10.158   2.060   9.401 -1.6259  0.1965  0.1096
  944MOL0     C30201  10.298   2.059   9.377  1.6878  0.1926 -0.0658
  944MOL0     C30202  10.352   1.921   9.329  0.9967 -0.4700  0.7328
  944MOL0     H30203  10.696   2.483   9.567 -0.3294  2.4689 -0.8785
  944MOL0     H30204  10.906   2.594   9.499 -2.3792  1.4492  0.4414
  944MOL0     H30205  11.235   2.419   9.394 -1.4927 -1.3072 -0.2741
  944MOL0     H30206  11.115   2.487   9.507 -1.3759  0.4184 -0.1538
  944MOL0     H30207  11.299   2.635   9.498  0.0462 -1.6070 -0.8765
  944MOL0     H30208  11.294   2.649   9.335 -1.2655 -0.3061 -0.8547
  944MOL0     H30209  11.042   2.733   9.363  0.7604 -0.2579 -1.3357
  944MOL0     H30210  11.094   2.758   9.538  0.5579  0.1051 -0.3058
  944MOL0     H30211  11.267   2.909   9.425  0.3935 -0.7938 -0.9521
  944MOL0     H30212  11.184   2.877   9.275  0.9066 -2.5134  1.2766
  944MOL0     H30213  10.981   2.981   9.345  0.1272  0.5303  0.2773
  944MOL0     H30214  11.119   3.087   9.338  2.6352  0.0310 -0.5014
  944MOL0     H30215  11.003   2.956   9.599  0.4733  0.7528  2.0145
  944MOL0     H30216  11.151   3.055   9.594  1.0800 -0.7777  0.0583
  944MOL0     H30217  10.888   3.170   9.481 -1.9917 -0.5140  1.8494
  944MOL0     H30218  11.036   3.250   9.535 -0.2977 -0.0264  1.8274
  944MOL0     H30219  10.892   3.295   9.702  1.5834 -0.3562  1.2647
  944MOL0     H30220  10.807   3.139   9.691 -0.7998  0.7721  0.5425
  944MOL0     H30221  11.127   3.313   9.818 -3.7158  2.4531  1.6023
  944MOL0     H30222  11.231   3.176  10.154  2.8979 -1.7779 -0.4276
  944MOL0     H30223  11.213   3.326  10.065 -1.8450  0.0666 -2.6572
  944MOL0     H30224  11.398   3.091   9.996 -0.7604 -1.1742  0.7490
  944MOL0     H30225  11.387   3.228   9.907  0.6382 -3.2135  0.1127
  944MOL0     H30226  11.426   3.358  10.110  0.6952  0.2081  1.4649
  944MOL0     H30227  11.472   3.209  10.198 -2.0395 -0.7541 -0.2871
  944MOL0     H30228  11.640   3.153  10.016  2.0763 -0.2845  0.7979
  944MOL0     H30229  11.601   3.313   9.936  0.3486  2.5145  1.7733
  944MOL0     H30230  11.832   3.274   9.901 -0.2345  1.4158  0.2555
  944MOL0     H30231  12.037   3.338   9.770  1.2463 -1.3752 -1.4785
  944MOL0     H30232  12.029   3.176   9.787  0.1760 -0.1038 -2.0347
  944MOL0     H30233  12.183   3.257   9.827 -0.7121 -1.3403 -0.4047
  944MOL0     H30234  12.467   3.461   9.983 -0.1047  0.4925  0.0180
  944MOL0     H30235  12.714   3.505  10.013  0.1561 -1.0354 -0.1357
  944MOL0     H30236  12.857   3.617  10.400 -0.4199  2.2034 -3.0544
  944MOL0     H30237  12.905   3.441  10.426 -2.5247 -2.3581 -3.2773
  944MOL0     H30238  13.091   3.509  10.248 -3.4746 -2.5893  0.0546
  944MOL0     H30239  13.057   3.670  10.328 -0.7275  0.3154  0.5207
  944MOL0     H30240  13.240   3.542  10.426  0.7397 -0.2641  2.5613
  944MOL0     H30241  13.135   3.412  10.487  0.1973  0.1251  1.5808
  944MOL0     H30242  13.021   3.600  10.623 -0.9835  3.6424 -0.8420
  944MOL0     H30243  13.121   3.713  10.524 -2.1693 -0.9236 -3.9965
  944MOL0     H30244  13.244   3.494  10.721 -2.9006  0.5082  2.2816
  944MOL0     H30245  13.330   3.612  10.637  0.5834 -1.4518 -0.7624
  944MOL0     H30246  13.110   3.686  10.847  0.5660  2.2164  0.6086
  944MOL0     H30247  13.215   3.796  10.779  3.4369 -0.1757  0.5463
  944MOL0     H30248  13.294   3.551  10.950 -2.2341 -0.1972 -0.3743
  944MOL0     H30249  13.314   3.717  11.002  1.4012 -2.2360  1.7579
  944MOL0     H30250  13.497   3.732  10.805  3.1854 -0.7675  0.0437
  944MOL0     H30251  13.484   3.564  10.814  1.2285 -0.8676 -0.6016
  944MOL0     H30252  12.694   3.439  10.430 -0.2930  0.0678 -0.0101
  944MOL0     H30253  12.445   3.388  10.399 -0.8042  2.6297  0.2009
  944MOL0     H30254  12.102   3.407  10.290  0.5730  1.9471 -1.5449
  944MOL0     H30255  11.855   3.392  10.315 -1.2849 -1.0847  0.1091
  944MOL0     H30256  10.959   2.302   9.195  1.3694  0.5031  0.5269
  944MOL0     H30257  10.733   2.221   9.228  2.6592 -1.8588  0.4717
  944MOL0     H30258  10.354   2.382   9.427  2.6800 -1.4766 -1.1047
  944MOL0     H30259  10.117   2.386   9.498  1.5224 -0.0906  2.4552
  944MOL0     H30260   9.878   1.996   9.448 -2.3629  0.0078  0.1607
  944MOL0     H30261   9.960   2.026   9.605  0.2756  2.2132  0.1480
  944MOL0     H30262   9.758   2.226   9.592 -0.3620 -0.7513 -2.5849
  944MOL0     H30263   9.778   2.085   9.700  0.2886 -0.2714  0.2838
  944MOL0     H30264   9.667   2.006   9.445 -1.7317 -0.8257  0.5795
  944MOL0     H30265   9.644   1.946   9.609  1.2741  0.3263  1.7988
  944MOL0     H30266   9.503   2.174   9.464 -4.3453 -4.6023 -2.5799
  944MOL0     H30267   9.522   2.185   9.647  1.8625  1.1996 -1.4201
  944MOL0     H30268   9.270   1.848   9.492  0.0011  0.5870 -2.1952
  944MOL0     H30269  10.095   1.972   9.394 -2.5109  0.6033  2.2138
  944MOL0     H30270  10.433   1.884   9.393 -0.7101 -0.3246  3.0857
  944MOL0     H30271  10.276   1.843   9.337  0.4947 -0.2529 -1.3099
  944MOL0     H30272  10.386   1.917   9.225 -4.3576  3.8903 -1.6749
  945MOL0     O30273   6.267  10.034   8.476 -0.6965  0.5952  0.0748
  945MOL0     C30274   6.184   9.961   8.429 -0.0320  0.2642  0.0038
  945MOL0     O30275   6.202   9.834   8.386 -0.4058 -0.2169 -0.4057
  945MOL0     C30276   6.319   9.766   8.411  0.2288 -0.0072 -0.6859
  945MOL0     C30277   6.376   9.736   8.542  0.5339 -0.7795  1.4997
  945MOL0     C30278   6.486   9.648   8.549  0.0102  0.3923 -0.6284
  945MOL0     C30279   6.554   9.610   8.430 -0.9421 -0.2314 -0.5487
  945MOL0     O30280   6.664   9.531   8.433 -0.0367  0.0975 -0.0949
  945MOL0     C30281   6.774   9.595   8.497  0.7295  0.7225  0.4172
  945MOL0     C30282   6.909   9.515   8.470  0.4689  0.5227  0.0399
  945MOL0     C30283   7.013   9.538   8.574 -0.5969  0.1958 -0.2237
  945MOL0     C30284   7.132   9.451   8.542  0.3211  0.4546  0.6890
  945MOL0     C30285   7.266   9.467   8.624  0.3515 -0.2253  0.2070
  945MOL0     C30286   7.368   9.372   8.562 -0.1787 -0.1440 -0.1415
  945MOL0     C30287   7.503   9.395   8.635  0.5021  0.1409 -0.2388
  945MOL0     C30288   7.623   9.327   8.570  0.7750  0.0934 -0.0014
  945MOL0     N30289   7.746   9.325   8.656  0.1218  0.6751  0.2640
  945MOL0     C30290   7.772   9.227   8.746  1.6411  0.5478  0.5528
  945MOL0     C30291   7.892   9.262   8.790 -0.4099  0.9478 -0.0947
  945MOL0     C30292   7.965   9.176   8.896 -0.6507 -0.3913  0.5956
  945MOL0     C30293   8.089   9.115   8.840 -0.4193 -0.8378 -0.2420
  945MOL0     C30294   8.173   9.086   8.965 -0.1976  0.5406 -0.7236
  945MOL0     C30295   8.299   8.992   8.940 -0.0874  0.6259 -0.1025
  945MOL0     O30296   8.385   8.986   9.051 -0.3234  0.0082  0.0629
  945MOL0     C30297   8.507   8.948   9.013  0.2210  1.0178  0.9496
  945MOL0     C30298   8.539   8.837   8.936 -0.4273  0.2360 -0.0097
  945MOL0     C30299   8.665   8.795   8.890 -0.0978  1.0908 -0.2584
  945MOL0     C30300   8.662   8.669   8.818 -0.0736  0.5765 -0.4704
  945MOL0     C30301   8.778   8.871   8.936 -0.0743 -0.0301  0.5728
  945MOL0     C30302   8.918   8.825   8.907 -0.0308 -0.5987  0.4553
  945MOL0     O30303   9.007   8.895   8.983 -0.4340 -0.3183 -0.3366
  945MOL0     C30304   9.133   8.872   8.945  0.3703  0.0921  0.3704
  945MOL0     C30305   9.211   8.967   8.881 -0.3033  0.2282 -0.4289
  945MOL0     C30306   9.349   8.959   8.879  0.2305 -1.0590 -0.5010
  945MOL0     C30307   9.425   8.855   8.935  0.3151 -0.7953 -0.2101
  945MOL0     O30308   9.564   8.866   8.923  0.6691 -0.0597  0.6632
  945MOL0     C30309   9.640   8.770   9.000  0.3162 -0.3619  0.1259
  945MOL0     C30310   9.769   8.834   9.047 -0.0691 -0.3065  0.0411
  945MOL0     C30311   9.839   8.881   8.912  0.3512  0.0823 -0.1007
  945MOL0     C30312   9.969   8.960   8.938  0.4840 -0.3151  0.9319
  945MOL0     C30313  10.005   9.056   8.822 -0.0371 -0.0090  0.0883
  945MOL0     C30314  10.129   9.139   8.867 -0.2128 -0.4669  0.0692
  945MOL0     C30315  10.275   9.068   8.885  0.5471  0.0123 -0.3570
  945MOL0     C30316  10.382   9.161   8.839 -0.0484 -0.7606 -1.2474
  945MOL0    Cl30317  10.348   9.333   8.898  0.2669 -0.4969  0.2021
  945MOL0     C30318   9.349   8.754   8.993  1.0802 -0.3734 -0.1596
  945MOL0     C30319   9.205   8.762   8.992  0.6776 -0.2433 -0.2105
  945MOL0     O30320   8.947   8.736   8.827  0.0056 -0.5357 -0.3091
  945MOL0     C30321   8.749   8.983   9.016 -0.2454  0.1602  0.5579
  945MOL0     C30322   8.621   9.017   9.053  1.2070  0.1684 -0.2007
  945MOL0     N30323   7.942   9.372   8.728 -0.0947 -0.6284  0.8168
  945MOL0     N30324   7.853   9.416   8.649  0.2150  0.2203 -0.3926
  945MOL0     C30325   6.502   9.647   8.309 -0.1842 -0.6843 -0.5691
  945MOL0     C30326   6.383   9.718   8.300  0.3071  0.2017  0.0992
  945MOL0     C30327   6.048  10.018   8.412 -0.9759  0.2693  0.3126
  945MOL0     C30328   6.004  10.062   8.283  0.1517  0.8910 -0.6310
  945MOL0     C30329   5.889  10.140   8.278  0.7110 -0.6036  0.0387
  945MOL0     C30330   5.810  10.180   8.395 -0.0616  0.2353  0.9209
  945MOL0     O30331   5.694  10.264   8.373 -0.6511 -0.1477 -0.0164
  945MOL0     C30332   5.598  10.271   8.482  0.0376  0.3476 -0.3823
  945MOL0     C30333   5.508  10.387   8.455  0.2425  0.2265 -0.2859
  945MOL0     C30334   5.442  10.388   8.313  0.9655 -0.4164 -0.3000
  945MOL0     C30335   5.286  10.382   8.301  0.4953  0.2427  0.0025
  945MOL0     C30336   5.226  10.499   8.375 -0.8809 -0.5158  0.3165
  945MOL0     C30337   5.176  10.597   8.433 -0.2069 -0.0572  0.5761
  945MOL0     C30338   5.851  10.118   8.513  0.3366 -0.4050 -0.0759
  945MOL0     C30339   5.973  10.048   8.520  0.1238  0.8736  0.0421
  945MOL0     C30340   6.026  10.008   8.660 -1.0254 -0.3632  0.3431
  945MOL0     H30341   6.322   9.781   8.625 -1.0415 -1.5387  0.9286
  945MOL0     H30342   6.539   9.616   8.638  2.7160  0.4670 -2.1044
  945MOL0     H30343   6.758   9.600   8.605  0.6414  1.7525  0.3666
  945MOL0     H30344   6.775   9.697   8.458  0.6335  0.6433  0.2019
  945MOL0     H30345   6.882   9.409   8.475 -2.3395  1.1706  0.8908
  945MOL0     H30346   6.945   9.530   8.368  0.2291 -1.2725 -0.3367
  945MOL0     H30347   7.036   9.645   8.570 -1.3953  0.3518 -2.6814
  945MOL0     H30348   6.968   9.518   8.672  0.2697 -0.2590  0.0898
  945MOL0     H30349   7.108   9.345   8.556  3.4592 -0.1109  3.0601
  945MOL0     H30350   7.164   9.459   8.438 -0.6172  0.6203  0.4120
  945MOL0     H30351   7.256   9.429   8.726  2.9288 -2.0978 -0.1403
  945MOL0     H30352   7.290   9.574   8.623 -0.3934 -0.0157 -2.4531
  945MOL0     H30353   7.333   9.270   8.580 -1.7887  0.3509 -0.3603
  945MOL0     H30354   7.371   9.382   8.453 -2.7843 -1.7188 -0.4360
  945MOL0     H30355   7.503   9.344   8.732  2.9088 -2.4908 -1.4780
  945MOL0     H30356   7.522   9.502   8.646  0.0708  0.0452  1.7421
  945MOL0     H30357   7.596   9.222   8.557 -0.1428 -0.0121  2.2812
  945MOL0     H30358   7.643   9.368   8.471 -3.7075 -0.7749 -1.4599
  945MOL0     H30359   7.709   9.143   8.775  1.9168 -0.3275 -1.2494
  945MOL0     H30360   7.906   9.090   8.930  2.3214 -3.5391 -1.5305
  945MOL0     H30361   7.979   9.232   8.989 -4.0636 -1.1854  1.7408
  945MOL0     H30362   8.071   9.033   8.770 -0.8379 -0.7400 -0.2511
  945MOL0     H30363   8.134   9.188   8.773 -1.7684  0.2421 -0.0163
  945MOL0     H30364   8.209   9.178   9.010  0.5019 -0.2029  0.2851
  945MOL0     H30365   8.109   9.035   9.038  0.8825 -0.0083 -0.1322
  945MOL0     H30366   8.256   8.894   8.916 -1.2280  1.5214 -1.9901
  945MOL0     H30367   8.344   9.026   8.846 -0.0355  0.8656  0.0082
  945MOL0     H30368   8.453   8.775   8.910  0.1651 -0.1254 -1.1670
  945MOL0     H30369   8.566   8.620   8.797 -0.5422  1.7496 -1.1781
  945MOL0     H30370   8.728   8.596   8.866 -1.0620 -1.9514 -2.7177
  945MOL0     H30371   8.717   8.681   8.724  1.3069 -0.0678  0.2299
  945MOL0     H30372   9.170   9.057   8.837 -2.3805  0.6071  2.0311
  945MOL0     H30373   9.408   9.047   8.859 -0.0072 -1.4970 -3.5117
  945MOL0     H30374   9.597   8.743   9.096  2.2074  0.0591  1.1480
  945MOL0     H30375   9.661   8.679   8.942 -1.2764  1.2427 -3.2739
  945MOL0     H30376   9.744   8.915   9.115 -1.1678 -1.8533  1.5620
  945MOL0     H30377   9.836   8.760   9.092  1.2795  1.5312  1.1677
  945MOL0     H30378   9.775   8.942   8.849  2.1369  0.7358 -1.3368
  945MOL0     H30379   9.862   8.794   8.850  1.9003 -1.4647  2.4306
  945MOL0     H30380  10.051   8.888   8.945  1.7255  0.7614 -1.5006
  945MOL0     H30381   9.966   9.003   9.039  0.3670  1.6914  0.1083
  945MOL0     H30382  10.026   8.997   8.732  1.9968 -1.9813  1.7080
  945MOL0     H30383   9.917   9.119   8.808 -2.2730 -3.1464 -1.0974
  945MOL0     H30384  10.113   9.188   8.964  0.7183  1.8625 -0.8859
  945MOL0     H30385  10.132   9.225   8.799 -4.1666 -0.9302 -0.9489
  945MOL0     H30386  10.280   8.971   8.834 -2.2891 -0.6245  0.4115
  945MOL0     H30387  10.282   9.042   8.991 -0.3619  1.5181  0.0974
  945MOL0     H30388  10.378   9.156   8.730 -0.6060 -2.4058 -1.1945
  945MOL0     H30389  10.479   9.120   8.868 -0.8088 -0.7077  1.7392
  945MOL0     H30390   9.396   8.670   9.044  3.6507 -1.3972 -3.7747
  945MOL0     H30391   9.150   8.683   9.042  1.3526 -1.1636 -0.8757
  945MOL0     H30392   8.830   9.043   9.058  1.0579 -0.3952 -1.0698
  945MOL0     H30393   8.616   9.110   9.109  1.8807  1.4400 -2.1258
  945MOL0     H30394   6.554   9.617   8.219 -1.5593 -0.1040 -1.5942
  945MOL0     H30395   6.342   9.727   8.200  1.2750 -1.9734 -0.5426
  945MOL0     H30396   6.068  10.064   8.195  1.3849 -0.2975  0.1889
  945MOL0     H30397   5.847  10.173   8.183  0.3707  0.8878  0.6691
  945MOL0     H30398   5.549  10.173   8.484 -0.2665  0.4663  2.3395
  945MOL0     H30399   5.650  10.282   8.577  2.5463  1.1737 -1.7680
  945MOL0     H30400   5.566  10.480   8.463  1.4934 -0.5089 -0.6700
  945MOL0     H30401   5.435  10.380   8.536  1.0642 -3.0235  0.2707
  945MOL0     H30402   5.468  10.481   8.262 -1.3934 -0.9443 -2.7031
  945MOL0     H30403   5.478  10.306   8.250  2.8824  0.5499 -0.5162
  945MOL0     H30404   5.249  10.292   8.351  1.2958  1.6591  3.4408
  945MOL0     H30405   5.257  10.383   8.195 -0.0224  0.9536  0.1418
  945MOL0     H30406   5.120  10.672   8.486 -1.3731 -0.9663  0.6752
  945MOL0     H30407   5.807  10.145   8.608 -0.0817 -0.7006 -0.1829
  945MOL0     H30408   5.936   9.993   8.721 -3.0735  2.9671 -1.5409
  945MOL0     H30409   6.089   9.919   8.651  0.1041  0.5194 -0.8099
  945MOL0     H30410   6.087  10.084   8.709  0.3212 -0.4543 -1.1135
  946MOL0     O30411   9.062   4.274   2.866 -0.6388 -0.1448  0.4442
  946MOL0     C30412   8.988   4.185   2.917  0.3004 -0.3853  0.3566
  946MOL0     O30413   9.031   4.106   3.021 -0.3158 -0.4110  0.0815
  946MOL0     C30414   9.165   4.106   3.033 -0.2837 -0.6528 -0.3322
  946MOL0     C30415   9.251   4.021   2.963  0.1380 -0.2913  0.3830
  946MOL0     C30416   9.394   4.027   2.981  0.0652 -0.8246  0.0197
  946MOL0     C30417   9.452   4.110   3.073 -1.0704 -0.0386 -0.6406
  946MOL0     O30418   9.594   4.108   3.101 -0.1055 -0.1244  0.0610
  946MOL0     C30419   9.652   3.986   3.066 -0.1951 -0.0604 -0.5190
  946MOL0     C30420   9.802   3.994   3.099  1.5307 -0.1903 -0.1179
  946MOL0     C30421   9.869   3.873   3.030  0.2906 -0.1430  0.2203
  946MOL0     C30422  10.005   3.837   3.101 -0.1858  0.4495  0.2544
  946MOL0     C30423   9.996   3.820   3.255 -0.4890  0.7357  0.6359
  946MOL0     C30424  10.121   3.744   3.327 -0.1159  0.3160  0.0717
  946MOL0     C30425  10.240   3.833   3.296 -0.3132 -0.6279 -0.5655
  946MOL0     C30426  10.364   3.799   3.382  0.6511 -0.1557  0.5868
  946MOL0     N30427  10.473   3.903   3.351 -0.4754 -0.0869  0.4801
  946MOL0     C30428  10.585   3.876   3.291  0.0590  0.6971  0.6376
  946MOL0     C30429  10.685   3.965   3.322 -0.2775 -0.0142  1.4175
  946MOL0     C30430  10.822   3.981   3.268  0.6094  0.6501  0.3030
  946MOL0     C30431  10.836   4.044   3.128 -0.0061  0.7673 -0.0357
  946MOL0     C30432  10.780   4.186   3.123 -0.0688 -0.2184 -0.1100
  946MOL0     C30433  10.883   4.284   3.169  0.1002  0.4606 -0.6434
  946MOL0     O30434  10.989   4.296   3.069 -0.7597 -0.0711  0.0859
  946MOL0     C30435  11.087   4.392   3.083  0.1186 -0.4859  0.3291
  946MOL0     C30436  11.094   4.482   3.198  0.2897 -0.2842 -0.4400
  946MOL0     C30437  11.200   4.569   3.216 -0.6763 -0.2615 -0.5040
  946MOL0     C30438  11.206   4.651   3.348  0.4608  0.3473 -0.6114
  946MOL0     C30439  11.320   4.553   3.139  0.5698 -0.3343  0.5741
  946MOL0     C30440  11.454   4.631   3.158 -0.3129  0.0075 -0.6300
  946MOL0     O30441  11.466   4.719   3.263  0.3605 -0.1956  0.2195
  946MOL0     C30442  11.581   4.790   3.285  0.3064 -0.6732  0.4921
  946MOL0     C30443  11.560   4.922   3.319  0.6991  0.0891 -0.0484
  946MOL0     C30444  11.662   5.017   3.345 -0.4060  1.2020  0.2851
  946MOL0     C30445  11.795   4.976   3.327  1.3099  0.1830  0.4797
  946MOL0     O30446  11.902   5.062   3.321 -0.3068  0.0750  0.4769
  946MOL0     C30447  11.999   5.031   3.421  0.4608 -0.7260  0.2788
  946MOL0     C30448  12.062   5.167   3.447  0.0829  0.4593 -0.0587
  946MOL0     C30449  12.150   5.176   3.565 -0.7425  0.1571  0.0864
  946MOL0     C30450  12.266   5.068   3.566 -0.5416 -0.3048  0.1863
  946MOL0     C30451  12.369   5.071   3.693  0.4211 -0.2633 -0.3180
  946MOL0     C30452  12.440   5.204   3.725 -0.5042 -0.2755 -0.4116
  946MOL0     C30453  12.535   5.244   3.616 -0.5127  1.1364 -0.5934
  946MOL0     C30454  12.650   5.337   3.662 -0.2924  0.6733  0.1578
  946MOL0    Cl30455  12.606   5.492   3.737  0.0784 -0.3828 -0.3127
  946MOL0     C30456  11.821   4.837   3.302  0.7731 -0.2319 -0.7883
  946MOL0     C30457  11.712   4.748   3.271 -0.0819  0.3063 -0.7014
  946MOL0     O30458  11.536   4.615   3.064 -0.3594 -0.1268 -0.2734
  946MOL0     C30459  11.298   4.474   3.020  0.2334 -0.4444 -0.5001
  946MOL0     C30460  11.185   4.393   2.997 -0.5930 -0.0904 -0.0995
  946MOL0     N30461  10.628   4.039   3.430  0.0832 -0.1449 -0.2550
  946MOL0     N30462  10.503   3.999   3.444 -0.0757 -0.8759 -0.2693
  946MOL0     C30463   9.368   4.205   3.137 -0.2701 -0.4969 -0.2146
  946MOL0     C30464   9.227   4.193   3.129 -0.1265 -0.4438  0.5465
  946MOL0     C30465   8.855   4.161   2.862  0.3979 -0.6260  0.6593
  946MOL0     C30466   8.796   4.039   2.902 -0.3902  0.6826  0.2652
  946MOL0     C30467   8.668   4.003   2.844 -0.0089  0.3094 -0.2954
  946MOL0     C30468   8.589   4.091   2.773  0.1485 -0.0096 -0.4035
  946MOL0     O30469   8.456   4.049   2.751 -0.0375 -0.4475 -0.7665
  946MOL0     C30470   8.373   4.146   2.687  0.8844  0.7026  0.6188
  946MOL0     C30471   8.232   4.094   2.663 -0.2745 -0.6283 -0.3349
  946MOL0     C30472   8.133   4.104   2.782  0.2833  0.9147  0.8195
  946MOL0     C30473   8.185   4.000   2.895 -0.2501  0.1822 -0.2551
  946MOL0     C30474   8.201   3.867   2.851 -0.2506  0.2578  0.1977
  946MOL0     C30475   8.230   3.767   2.798  0.0576  0.5953  0.0976
  946MOL0     C30476   8.654   4.202   2.734 -0.0302  0.1310  0.1124
  946MOL0     C30477   8.781   4.240   2.773  0.3173  0.0123  0.6591
  946MOL0     C30478   8.828   4.374   2.717  0.5234  0.2440  0.4240
  946MOL0     H30479   9.217   3.944   2.895  0.3006 -0.4471  0.4766
  946MOL0     H30480   9.454   3.957   2.925  0.3723 -2.8416  2.7035
  946MOL0     H30481   9.642   3.970   2.958 -3.9153 -0.5794 -0.2587
  946MOL0     H30482   9.612   3.898   3.119  2.0356 -1.0064 -0.3132
  946MOL0     H30483   9.846   4.088   3.061  1.1510  0.3535  0.7592
  946MOL0     H30484   9.802   3.984   3.208  0.8043 -1.3897 -0.2133
  946MOL0     H30485   9.801   3.789   3.049  1.8037 -1.1386  1.5416
  946MOL0     H30486   9.879   3.879   2.921  3.8149 -2.3772  0.2652
  946MOL0     H30487  10.044   3.749   3.048  2.9615  3.4168 -2.9194
  946MOL0     H30488  10.080   3.915   3.085  0.7714 -0.1243  1.7237
  946MOL0     H30489   9.906   3.765   3.284 -1.5597  1.9653 -0.3040
  946MOL0     H30490   9.994   3.919   3.300  2.5360  1.3946 -0.4161
  946MOL0     H30491  10.109   3.702   3.428  1.2725 -0.9282 -0.2462
  946MOL0     H30492  10.133   3.656   3.263  0.5965  0.9319 -0.6696
  946MOL0     H30493  10.224   3.940   3.310  3.6407  0.2918 -1.7614
  946MOL0     H30494  10.257   3.836   3.188 -0.8663  1.8294 -0.6451
  946MOL0     H30495  10.348   3.810   3.489  0.8704  0.3711  0.5679
  946MOL0     H30496  10.398   3.699   3.354 -0.4287 -0.4531  0.3084
  946MOL0     H30497  10.600   3.798   3.217 -2.1619  0.0494  0.8137
  946MOL0     H30498  10.870   3.884   3.257 -0.8136  0.1976 -2.8587
  946MOL0     H30499  10.881   4.039   3.340  2.6271  3.2245 -3.0975
  946MOL0     H30500  10.936   4.050   3.085  0.3855 -0.6716  0.5954
  946MOL0     H30501  10.779   3.974   3.066  2.9331 -1.3096 -0.5949
  946MOL0     H30502  10.751   4.201   3.019 -2.7479 -1.0533  0.4207
  946MOL0     H30503  10.691   4.196   3.186  0.9764 -1.5899  1.6812
  946MOL0     H30504  10.827   4.378   3.169 -1.7272 -0.5664  1.0639
  946MOL0     H30505  10.910   4.279   3.274 -1.4938  1.1491 -0.1671
  946MOL0     H30506  11.013   4.488   3.270  0.7422  2.0682 -0.0411
  946MOL0     H30507  11.110   4.662   3.399  0.0131  0.2068 -1.4071
  946MOL0     H30508  11.246   4.747   3.317  1.3256 -1.1428 -4.7775
  946MOL0     H30509  11.282   4.607   3.413  0.2213  2.6435  1.3350
  946MOL0     H30510  11.456   4.951   3.314  0.8337  0.4256 -3.2942
  946MOL0     H30511  11.649   5.117   3.385  1.6827  0.9812  1.6733
  946MOL0     H30512  11.948   4.999   3.511 -1.7272 -3.2699 -1.7083
  946MOL0     H30513  12.071   4.959   3.382 -0.5525 -0.7267 -1.7088
  946MOL0     H30514  12.122   5.194   3.360 -0.1673  3.7089  0.6483
  946MOL0     H30515  11.983   5.242   3.457  0.1323  0.2978  1.9591
  946MOL0     H30516  12.089   5.165   3.655 -0.1645 -1.7904  0.3071
  946MOL0     H30517  12.198   5.274   3.558  0.2318 -0.0568  2.7247
  946MOL0     H30518  12.338   5.083   3.485 -0.0356  1.1567  0.8763
  946MOL0     H30519  12.220   4.968   3.566  2.6060 -1.9212 -2.3418
  946MOL0     H30520  12.324   5.037   3.787 -1.7016 -2.1653 -1.8921
  946MOL0     H30521  12.433   4.986   3.668  0.1711 -0.6402  0.2853
  946MOL0     H30522  12.490   5.215   3.822 -0.2099  2.9965 -0.8149
  946MOL0     H30523  12.360   5.279   3.730 -1.3305 -1.1597 -0.1712
  946MOL0     H30524  12.473   5.286   3.536  0.3035  2.8269 -0.3971
  946MOL0     H30525  12.580   5.154   3.572  2.1229  2.4676 -0.8515
  946MOL0     H30526  12.723   5.352   3.582  0.8476  2.4565  1.4461
  946MOL0     H30527  12.715   5.282   3.732 -0.5520  0.9556  0.6238
  946MOL0     H30528  11.925   4.809   3.285  0.2787 -3.1727  0.3143
  946MOL0     H30529  11.732   4.646   3.240 -3.3254 -0.4093 -0.7552
  946MOL0     H30530  11.376   4.461   2.946 -0.6924  0.8657 -1.7435
  946MOL0     H30531  11.173   4.323   2.914 -3.5027 -1.1042  1.0488
  946MOL0     H30532   9.402   4.281   3.207  0.3665 -2.8914  2.2793
  946MOL0     H30533   9.170   4.269   3.182  0.6753 -0.5883  1.6474
  946MOL0     H30534   8.846   3.966   2.966 -1.6859 -1.3509 -0.9324
  946MOL0     H30535   8.638   3.903   2.876 -0.2292  0.4000 -0.2246
  946MOL0     H30536   8.372   4.244   2.734  4.5160  1.1270  0.0386
  946MOL0     H30537   8.394   4.173   2.583 -0.4642  0.3967  0.2443
  946MOL0     H30538   8.231   3.993   2.619 -1.9994 -0.1775 -1.4219
  946MOL0     H30539   8.201   4.163   2.583  2.2377  1.7039  0.5578
  946MOL0     H30540   8.124   4.207   2.818 -1.2866  0.9922  0.3071
  946MOL0     H30541   8.032   4.074   2.752  1.2413 -2.8228  0.7993
  946MOL0     H30542   8.115   3.993   2.979 -1.6856  1.8279 -1.2452
  946MOL0     H30543   8.288   4.020   2.929 -0.0242 -0.9286 -0.2549
  946MOL0     H30544   8.269   3.675   2.758  1.0993  2.6578 -4.2333
  946MOL0     H30545   8.599   4.258   2.659  2.4326 -1.1218 -2.8785
  946MOL0     H30546   8.927   4.360   2.672  0.8198 -1.0878  1.4339
  946MOL0     H30547   8.745   4.417   2.660 -3.5879 -4.8802  1.8046
  946MOL0     H30548   8.841   4.446   2.798 -2.2503  1.1168  0.1991
  947MOL0     O30549  10.685   5.994   9.485 -0.5697 -0.1369 -0.1128
  947MOL0     C30550  10.682   6.062   9.381 -0.4909  0.9467  0.5935
  947MOL0     O30551  10.793   6.114   9.321 -0.3797 -0.3881 -0.0738
  947MOL0     C30552  10.916   6.131   9.386  0.0102 -0.2099 -0.7058
  947MOL0     C30553  10.940   6.144   9.519 -0.7505 -0.0760  0.4485
  947MOL0     C30554  11.069   6.153   9.577 -0.3924  0.2248  0.2992
  947MOL0     C30555  11.174   6.167   9.500  0.5942  0.4993  0.5154
  947MOL0     O30556  11.292   6.193   9.562 -0.4251 -0.4099  0.3411
  947MOL0     C30557  11.393   6.108   9.511  0.2527  0.5223  0.7884
  947MOL0     C30558  11.374   5.966   9.550 -0.4015 -0.0954  0.1988
  947MOL0     C30559  11.505   5.899   9.590  0.1833 -0.4496  0.2024
  947MOL0     C30560  11.493   5.755   9.634  0.0250 -0.0940  0.2584
  947MOL0     C30561  11.462   5.652   9.523 -0.7606  0.2814 -0.2542
  947MOL0     C30562  11.408   5.518   9.567 -1.0293 -0.1732  0.0284
  947MOL0     C30563  11.481   5.479   9.696  0.6365  0.2319 -0.2392
  947MOL0     C30564  11.447   5.332   9.733  0.5592 -0.7024  0.9588
  947MOL0     N30565  11.505   5.234   9.637  0.5432  0.0777  0.6765
  947MOL0     C30566  11.618   5.250   9.556  0.3762 -0.1414  0.3200
  947MOL0     C30567  11.621   5.135   9.491 -0.3755  0.4739 -0.8103
  947MOL0     C30568  11.729   5.096   9.391  0.5416 -0.2215  0.5580
  947MOL0     C30569  11.784   4.955   9.418  0.4229  0.3230 -0.8035
  947MOL0     C30570  11.919   4.950   9.345 -0.6202  0.1773  0.9599
  947MOL0     C30571  11.999   4.822   9.385 -1.0333  0.4513  0.0297
  947MOL0     O30572  12.141   4.817   9.363  0.3115  0.2311 -0.4390
  947MOL0     C30573  12.218   4.886   9.452  0.4231  0.4987  0.3992
  947MOL0     C30574  12.356   4.881   9.431 -0.2392 -0.0692 -0.1131
  947MOL0     C30575  12.451   4.945   9.510  0.4906 -0.1865  0.3557
  947MOL0     C30576  12.592   4.922   9.460 -0.7667 -0.7984 -0.5900
  947MOL0     C30577  12.404   5.015   9.629  0.1194 -1.3718 -0.1535
  947MOL0     C30578  12.500   5.088   9.730 -0.6249  0.2429  0.1789
  947MOL0     O30579  12.437   5.145   9.838  1.1277 -0.0207 -0.0597
  947MOL0     C30580  12.507   5.195   9.947  0.5004  1.0194 -0.4136
  947MOL0     C30581  12.630   5.140   9.989 -0.5677 -0.5253 -0.2314
  947MOL0     C30582  12.678   5.191  10.108 -0.5732 -1.1075 -0.0608
  947MOL0     C30583  12.615   5.292  10.185 -0.4822 -0.1633  0.3463
  947MOL0     O30584  12.671   5.317  10.306 -0.5129  0.5822  0.0162
  947MOL0     C30585  12.604   5.415  10.390  0.7845  0.5345  1.1248
  947MOL0     C30586  12.706   5.475  10.493  0.2038  0.9958 -0.0043
  947MOL0     C30587  12.835   5.532  10.418 -0.4596 -0.2382  0.7079
  947MOL0     C30588  12.921   5.614  10.516 -0.0504  0.5336  0.5721
  947MOL0     C30589  13.036   5.684  10.457  0.3091  0.0289 -0.0499
  947MOL0     C30590  13.095   5.774  10.560 -0.5286  0.1833 -0.2362
  947MOL0     C30591  13.231   5.837  10.533  0.7017 -0.1232  0.4041
  947MOL0     C30592  13.285   5.922  10.648 -0.1501  0.9028 -0.4125
  947MOL0    Cl30593  13.438   5.981  10.579  0.2386  0.7179  0.2399
  947MOL0     C30594  12.494   5.345  10.138 -0.1296 -0.8031 -0.2332
  947MOL0     C30595  12.442   5.303  10.020 -1.1418  0.3917 -1.1239
  947MOL0     O30596  12.621   5.097   9.709  0.7544 -0.0789 -0.4339
  947MOL0     C30597  12.267   5.015   9.659  0.2518  0.7328  0.7217
  947MOL0     C30598  12.174   4.956   9.573 -0.2861  0.6731  1.2441
  947MOL0     N30599  11.512   5.053   9.525  0.7066  0.1098 -0.1284
  947MOL0     N30600  11.441   5.114   9.612 -0.0015 -0.1143  0.6991
  947MOL0     C30601  11.153   6.160   9.356 -0.5376 -0.4002  0.1434
  947MOL0     C30602  11.024   6.148   9.303  0.4528  0.2201  0.0132
  947MOL0     C30603  10.552   6.080   9.313  0.6510  1.0354 -0.0493
  947MOL0     C30604  10.526   6.212   9.274  0.0761  0.5272  0.0291
  947MOL0     C30605  10.402   6.253   9.222  1.1044  0.5634  0.0319
  947MOL0     C30606  10.305   6.155   9.197 -0.1200 -0.8216  0.0059
  947MOL0     O30607  10.177   6.180   9.144 -0.6597  0.5484 -0.3532
  947MOL0     C30608  10.143   6.311   9.122  0.3555  0.1923  0.2813
  947MOL0     C30609   9.993   6.333   9.123 -0.0873  1.0039 -1.2555
  947MOL0     C30610   9.894   6.262   9.035  0.4831  0.0738 -0.6022
  947MOL0     C30611   9.872   6.117   9.074  0.0469  0.0444 -0.6301
  947MOL0     C30612   9.799   6.054   8.971  0.2085 -0.6259 -0.1741
  947MOL0     C30613   9.737   5.991   8.889  0.1877 -0.4366 -0.3019
  947MOL0     C30614  10.331   6.020   9.224 -0.6186 -0.0270  0.2004
  947MOL0     C30615  10.452   5.981   9.286  0.8771 -0.2413  0.6156
  947MOL0     C30616  10.480   5.841   9.325 -0.4157 -0.0020  0.1939
  947MOL0     H30617  10.865   6.133   9.597 -1.2261  2.3573  0.4020
  947MOL0     H30618  11.094   6.144   9.682 -0.3697 -1.0715  0.1949
  947MOL0     H30619  11.485   6.149   9.553  0.7964  2.5903 -2.0888
  947MOL0     H30620  11.412   6.125   9.405 -1.8977  1.1987  0.4565
  947MOL0     H30621  11.308   5.956   9.637 -0.3802 -0.9573  0.1312
  947MOL0     H30622  11.320   5.914   9.470 -1.3823 -0.0734  0.8301
  947MOL0     H30623  11.566   5.912   9.501  1.6518 -0.3650  1.1803
  947MOL0     H30624  11.555   5.943   9.677 -0.4031 -1.3582  1.0221
  947MOL0     H30625  11.584   5.728   9.688 -0.5644 -0.9952  0.8390
  947MOL0     H30626  11.406   5.743   9.699 -0.6461 -1.2679 -0.7920
  947MOL0     H30627  11.555   5.639   9.467 -0.7657  0.4684 -0.3080
  947MOL0     H30628  11.381   5.693   9.463 -1.7961 -2.5325 -0.9167
  947MOL0     H30629  11.301   5.522   9.590 -0.4023  2.8911  3.2502
  947MOL0     H30630  11.432   5.446   9.488  0.5302  0.3145  0.0133
  947MOL0     H30631  11.442   5.544   9.775 -0.9877  0.8261 -1.4736
  947MOL0     H30632  11.589   5.487   9.680  1.1671 -0.6569  2.4391
  947MOL0     H30633  11.475   5.314   9.837  0.3602  0.9837  1.3248
  947MOL0     H30634  11.339   5.321   9.734 -0.5340  5.9690 -0.1332
  947MOL0     H30635  11.692   5.329   9.556  0.1066  0.1200 -0.4979
  947MOL0     H30636  11.805   5.174   9.394  0.4238 -0.0314 -0.8472
  947MOL0     H30637  11.682   5.099   9.292  0.5123 -2.5896  0.4467
  947MOL0     H30638  11.805   4.933   9.523  2.3119 -1.6616 -1.5129
  947MOL0     H30639  11.710   4.887   9.375 -1.2893  2.1520 -0.9197
  947MOL0     H30640  11.912   4.951   9.236  1.5026  3.0304  0.7243
  947MOL0     H30641  11.970   5.045   9.363 -2.1762  1.2750 -0.1777
  947MOL0     H30642  11.984   4.802   9.491  1.2488 -0.0034  0.3174
  947MOL0     H30643  11.949   4.735   9.341 -0.5602  1.0683 -1.8614
  947MOL0     H30644  12.388   4.839   9.336  5.6425  0.9346  1.0577
  947MOL0     H30645  12.644   4.867   9.539  1.6061  0.8144 -0.9339
  947MOL0     H30646  12.639   5.018   9.436 -0.7178 -0.6835 -0.0452
  947MOL0     H30647  12.590   4.860   9.371  0.7609  0.5513 -1.6110
  947MOL0     H30648  12.673   5.061   9.928 -0.8293 -2.6745  2.2119
  947MOL0     H30649  12.770   5.150  10.149 -0.8368  1.3012  3.3399
  947MOL0     H30650  12.570   5.500  10.330  2.0229  1.0472  1.1222
  947MOL0     H30651  12.521   5.355  10.428 -1.0856  0.3288 -2.8372
  947MOL0     H30652  12.662   5.555  10.553  0.7454  1.4345 -0.1816
  947MOL0     H30653  12.739   5.405  10.570  1.2892  0.8617 -0.5673
  947MOL0     H30654  12.798   5.593  10.336  0.7387 -1.2089 -0.5981
  947MOL0     H30655  12.899   5.452  10.379  2.5945  1.0380  2.7090
  947MOL0     H30656  12.962   5.537  10.582  0.7508  0.3117 -0.1602
  947MOL0     H30657  12.854   5.682  10.569 -1.9557 -1.6592  1.1352
  947MOL0     H30658  13.114   5.616  10.422  0.2561 -0.9356  1.6354
  947MOL0     H30659  13.013   5.749  10.372  1.9257  0.1814 -0.3978
  947MOL0     H30660  13.104   5.709  10.648 -2.0294  1.4065  0.8896
  947MOL0     H30661  13.019   5.853  10.573 -0.9409 -0.0880 -0.9690
  947MOL0     H30662  13.225   5.898  10.443  1.3225  0.5424  0.8079
  947MOL0     H30663  13.299   5.756  10.507 -0.5855 -2.4681  3.5793
  947MOL0     H30664  13.313   5.872  10.741  2.2336  2.1079 -0.3992
  947MOL0     H30665  13.215   6.002  10.672 -0.2321  0.5030  0.7265
  947MOL0     H30666  12.440   5.411  10.206  0.8218  0.3241 -0.5405
  947MOL0     H30667  12.353   5.345   9.974  0.2730  3.0781 -1.5519
  947MOL0     H30668  12.235   5.023   9.762 -0.1721  0.8283  0.5814
  947MOL0     H30669  12.070   4.973   9.597 -0.4451  1.8528 -0.1720
  947MOL0     H30670  11.235   6.161   9.285  1.1353 -2.4410  1.8997
  947MOL0     H30671  11.018   6.142   9.195  0.9605  0.6624 -0.0400
  947MOL0     H30672  10.598   6.289   9.298 -0.2261  0.9718 -0.4738
  947MOL0     H30673  10.386   6.358   9.199 -1.3431 -0.3641 -3.3843
  947MOL0     H30674  10.182   6.377   9.200 -0.0502  1.5060 -0.5842
  947MOL0     H30675  10.181   6.334   9.023  0.0836 -0.4344  0.0240
  947MOL0     H30676   9.982   6.440   9.101 -1.5459  1.2274  0.3556
  947MOL0     H30677   9.956   6.318   9.224  2.9995 -0.7941 -0.2800
  947MOL0     H30678   9.805   6.326   9.039  0.1531 -0.3733  3.2583
  947MOL0     H30679   9.927   6.265   8.931 -1.7663  1.2688 -1.3497
  947MOL0     H30680   9.813   6.118   9.166 -0.3388  4.2963 -0.7294
  947MOL0     H30681   9.973   6.080   9.092  0.2209  0.9895  0.4082
  947MOL0     H30682   9.692   5.948   8.802 -0.7141  1.1442 -0.6461
  947MOL0     H30683  10.258   5.939   9.218  0.8049 -1.4819  1.5910
  947MOL0     H30684  10.586   5.817   9.318 -0.4909 -0.0345 -1.0357
  947MOL0     H30685  10.437   5.825   9.425  0.1848 -1.4695  0.2417
  947MOL0     H30686  10.428   5.779   9.251  1.0627 -2.5507  1.1437
  948MOL0     O30687   9.159  10.300   1.446  0.3914  0.1164  0.0365
  948MOL0     C30688   9.121  10.180   1.454 -0.8585  0.2855 -1.5382
  948MOL0     O30689   9.205  10.077   1.488  0.1535  0.2776 -1.1016
  948MOL0     C30690   9.331  10.113   1.526 -0.9975 -0.2471  0.4358
  948MOL0     C30691   9.376  10.101   1.668  0.3784  0.2382 -0.0294
  948MOL0     C30692   9.504  10.129   1.704 -1.0344  0.4429 -0.0497
  948MOL0     C30693   9.593  10.162   1.598 -0.9157 -0.3933  0.4740
  948MOL0     O30694   9.725  10.185   1.623  0.5638  0.1731 -0.1044
  948MOL0     C30695   9.778  10.092   1.717 -1.0790  0.3526  0.6726
  948MOL0     C30696   9.926  10.078   1.706  0.4907  0.3799 -0.5076
  948MOL0     C30697   9.965  10.020   1.573  0.1326  0.2052 -0.0944
  948MOL0     C30698  10.116   9.995   1.556  0.4189  0.6168  0.4347
  948MOL0     C30699  10.174  10.117   1.485  0.0896  0.2683 -0.0864
  948MOL0     C30700  10.322  10.122   1.495 -0.3765  0.3650  0.5406
  948MOL0     C30701  10.409  10.018   1.418  0.4456 -0.0794  0.3197
  948MOL0     C30702  10.547   9.999   1.472 -0.7252  0.5083  0.0858
  948MOL0     N30703  10.621  10.118   1.429  0.1081 -0.3371  0.8958
  948MOL0     C30704  10.664  10.215   1.513  0.4898  0.0461  0.0649
  948MOL0     C30705  10.709  10.314   1.432 -0.1938 -0.7790 -0.3775
  948MOL0     C30706  10.747  10.455   1.479 -0.4363 -0.8374 -0.5276
  948MOL0     C30707  10.896  10.470   1.464  0.1436  0.1349 -0.0168
  948MOL0     C30708  10.928  10.610   1.517  0.3149 -0.0141 -0.0192
  948MOL0     C30709  11.083  10.642   1.490  0.7510  0.0327  0.0936
  948MOL0     O30710  11.171  10.566   1.573  0.4120  0.2755 -0.5331
  948MOL0     C30711  11.294  10.623   1.607  0.6115  0.1138 -0.4166
  948MOL0     C30712  11.390  10.538   1.683  0.0695 -0.5875  1.1902
  948MOL0     C30713  11.526  10.571   1.690  0.0555 -0.0945 -0.0543
  948MOL0     C30714  11.608  10.476   1.769 -0.3418 -0.0256  0.9144
  948MOL0     C30715  11.568  10.705   1.671  1.3019 -0.1460 -0.5733
  948MOL0     C30716  11.699  10.768   1.705  0.5341  0.2222 -0.9458
  948MOL0     O30717  11.695  10.895   1.764  0.5263  0.1411 -0.9952
  948MOL0     C30718  11.816  10.957   1.759 -0.2433  0.2340 -0.3281
  948MOL0     C30719  11.901  10.961   1.653  1.1644 -0.3655  0.3868
  948MOL0     C30720  12.022  11.026   1.651 -0.5937 -0.8297 -0.9267
  948MOL0     C30721  12.067  11.087   1.774  0.6161 -1.0527  0.3329
  948MOL0     O30722  12.188  11.145   1.787  0.8260 -0.5474  0.1262
  948MOL0     C30723  12.254  11.198   1.673  0.0770 -0.2209 -0.2295
  948MOL0     C30724  12.392  11.245   1.707 -0.6320  0.5477 -0.4420
  948MOL0     C30725  12.450  11.318   1.596 -0.7298 -0.1195 -0.2554
  948MOL0     C30726  12.599  11.279   1.581  0.2792  0.5770 -0.7702
  948MOL0     C30727  12.653  11.346   1.456  0.5850 -0.0316 -0.6063
  948MOL0     C30728  12.777  11.263   1.406 -0.4692  0.3133 -0.5403
  948MOL0     C30729  12.814  11.315   1.268  1.1956 -0.3544 -0.0152
  948MOL0     C30730  12.931  11.242   1.212  0.0254 -0.2985 -0.1460
  948MOL0    Cl30731  13.009  11.337   1.089  0.3735  0.1367  0.3565
  948MOL0     C30732  11.981  11.081   1.884 -0.6980  0.0036  0.2090
  948MOL0     C30733  11.866  11.005   1.879 -0.0183 -1.3533  0.4912
  948MOL0     O30734  11.797  10.699   1.690 -0.0242  0.2532 -0.1084
  948MOL0     C30735  11.480  10.789   1.596 -0.6217  0.1595 -0.8384
  948MOL0     C30736  11.353  10.744   1.562  0.5370 -0.4018  0.1030
  948MOL0     N30737  10.702  10.272   1.306 -0.1549  0.5311  0.5564
  948MOL0     N30738  10.650  10.153   1.300 -0.0939 -0.0160  0.0766
  948MOL0     C30739   9.553  10.181   1.465  1.3375 -0.0678 -0.6256
  948MOL0     C30740   9.418  10.157   1.428  0.0725  0.1192  0.7066
  948MOL0     C30741   8.976  10.148   1.419 -0.1603 -0.0797 -0.0008
  948MOL0     C30742   8.890  10.248   1.366  0.8465 -0.0184 -0.2748
  948MOL0     C30743   8.757  10.213   1.347  0.1748 -0.2740  0.2044
  948MOL0     C30744   8.703  10.101   1.388 -0.0827  0.1416 -0.1731
  948MOL0     O30745   8.561  10.081   1.371  0.3087 -0.2762 -0.4052
  948MOL0     C30746   8.483   9.979   1.440  0.3595  0.5800 -0.0027
  948MOL0     C30747   8.352   9.965   1.363 -0.5060 -0.4614 -0.0717
  948MOL0     C30748   8.266   9.858   1.416  0.5367  0.5390  0.2563
  948MOL0     C30749   8.137   9.880   1.338 -0.1775  0.6801  1.0149
  948MOL0     C30750   8.046   9.773   1.382 -0.2177  0.0168  0.1474
  948MOL0     C30751   7.965   9.688   1.425 -0.1657 -0.0302  0.3955
  948MOL0     C30752   8.784   9.998   1.442  0.4881 -0.3442 -0.1992
  948MOL0     C30753   8.919  10.021   1.451 -0.3614  0.0403  0.0174
  948MOL0     C30754   8.998   9.891   1.489 -0.1737 -0.6447 -0.0661
  948MOL0     H30755   9.308  10.067   1.746  0.1085  1.2444  0.1959
  948MOL0     H30756   9.528  10.119   1.809 -0.4656  0.8614 -0.1347
  948MOL0     H30757   9.739   9.990   1.709  2.0212 -0.8220 -1.2554
  948MOL0     H30758   9.753  10.130   1.816  1.1851  0.3008  1.3151
  948MOL0     H30759   9.972  10.174   1.732 -1.1460  0.4850  2.3722
  948MOL0     H30760   9.968  10.007   1.778  0.4574  0.4621 -0.4062
  948MOL0     H30761   9.927   9.919   1.558  0.6440  0.4325 -3.9026
  948MOL0     H30762   9.920  10.082   1.494  0.8556  1.9902  0.8407
  948MOL0     H30763  10.168   9.980   1.651  2.6436 -0.6791 -0.8974
  948MOL0     H30764  10.130   9.906   1.494  0.4038  1.3237 -0.6095
  948MOL0     H30765  10.136  10.213   1.521  2.2242  0.9862  0.3511
  948MOL0     H30766  10.143  10.110   1.381  0.8186  0.1567 -0.2992
  948MOL0     H30767  10.347  10.214   1.442 -1.5214 -0.9955 -2.6386
  948MOL0     H30768  10.357  10.128   1.598  1.9005  2.3125 -0.2493
  948MOL0     H30769  10.409  10.034   1.310 -1.0081  0.7809  0.4193
  948MOL0     H30770  10.355   9.925   1.438 -1.6643  0.5344 -1.9812
  948MOL0     H30771  10.531   9.994   1.581 -2.7616  1.8721 -0.0862
  948MOL0     H30772  10.589   9.905   1.438 -1.9851 -0.2365  0.5048
  948MOL0     H30773  10.654  10.225   1.621  0.4164  0.6378  0.0103
  948MOL0     H30774  10.710  10.470   1.581  0.0771 -1.4825 -0.2377
  948MOL0     H30775  10.695  10.526   1.414 -0.7086 -0.0043  0.5547
  948MOL0     H30776  10.956  10.393   1.515  0.7256  0.1893 -0.5982
  948MOL0     H30777  10.923  10.460   1.358  2.1715 -1.7414  0.6053
  948MOL0     H30778  10.868  10.693   1.477  0.5916  0.1811 -0.0345
  948MOL0     H30779  10.918  10.618   1.626 -0.9590 -1.3822 -0.0003
  948MOL0     H30780  11.099  10.627   1.383 -1.2348  1.8935 -0.5033
  948MOL0     H30781  11.097  10.749   1.503 -1.0466  0.4592 -1.2711
  948MOL0     H30782  11.358  10.440   1.719  0.1251 -0.1817  2.3751
  948MOL0     H30783  11.549  10.391   1.806 -0.0173  0.3116  2.2638
  948MOL0     H30784  11.661  10.518   1.854  0.1536 -0.1747  0.6857
  948MOL0     H30785  11.688  10.443   1.702 -0.0646  2.8563 -0.3075
  948MOL0     H30786  11.871  10.903   1.567  2.2998 -2.3280  1.2417
  948MOL0     H30787  12.088  11.036   1.565  2.6432  1.5880  1.6155
  948MOL0     H30788  12.268  11.128   1.589  3.4200 -2.5583  1.9973
  948MOL0     H30789  12.203  11.289   1.640  0.8221 -0.3910 -1.9600
  948MOL0     H30790  12.403  11.313   1.792  2.1066  0.4372 -0.6314
  948MOL0     H30791  12.441  11.150   1.732 -1.5267  0.9074  3.2207
  948MOL0     H30792  12.436  11.421   1.629 -1.8622  0.3931 -2.1888
  948MOL0     H30793  12.395  11.294   1.504 -3.9129 -3.4248  2.2321
  948MOL0     H30794  12.601  11.170   1.566 -0.8633  0.3989  0.2461
  948MOL0     H30795  12.660  11.303   1.669  0.8633 -1.3058 -0.6151
  948MOL0     H30796  12.577  11.340   1.378 -1.9119  0.6529  1.5916
  948MOL0     H30797  12.667  11.453   1.475 -0.6708  0.0138  0.2633
  948MOL0     H30798  12.756  11.156   1.408  0.8256 -0.0671  3.6629
  948MOL0     H30799  12.852  11.276   1.485  0.2652  0.5285 -1.2519
  948MOL0     H30800  12.827  11.424   1.268 -1.0876  0.1403 -4.3453
  948MOL0     H30801  12.735  11.279   1.201  2.1209  0.4447 -1.5827
  948MOL0     H30802  12.902  11.141   1.180 -1.4498  0.0572  0.0267
  948MOL0     H30803  13.006  11.224   1.289 -0.2908  2.5063  0.9281
  948MOL0     H30804  12.007  11.100   1.987  1.3251  0.4736 -0.3509
  948MOL0     H30805  11.811  11.001   1.972 -0.9742  1.9920  0.2147
  948MOL0     H30806  11.516  10.890   1.578 -2.0595  0.9118  0.3779
  948MOL0     H30807  11.293  10.819   1.511 -0.4495 -0.5446  1.0186
  948MOL0     H30808   9.627  10.204   1.389  0.4292 -0.4600 -1.6518
  948MOL0     H30809   9.392  10.163   1.323 -0.1207  0.3907  0.7699
  948MOL0     H30810   8.931  10.345   1.340  0.6379  0.1741  0.0971
  948MOL0     H30811   8.681  10.281   1.310  0.6347  1.3139  2.0075
  948MOL0     H30812   8.542   9.888   1.427  1.3234  1.4557 -2.2756
  948MOL0     H30813   8.474   9.998   1.547 -0.2608  2.4947 -0.3607
  948MOL0     H30814   8.375   9.959   1.257  1.5079 -1.7628  0.3818
  948MOL0     H30815   8.310  10.065   1.381  1.4379  0.4648 -0.4210
  948MOL0     H30816   8.304   9.765   1.375 -1.1211  0.0499 -0.2814
  948MOL0     H30817   8.251   9.846   1.524 -0.7992  0.4493  0.0770
  948MOL0     H30818   8.156   9.876   1.230  2.2242 -2.1069  1.4200
  948MOL0     H30819   8.100   9.979   1.365  1.1351  1.6057 -0.4711
  948MOL0     H30820   7.900   9.604   1.436 -1.8544  1.1680 -0.1391
  948MOL0     H30821   8.743   9.902   1.474  0.5679 -0.1244  0.5606
  948MOL0     H30822   8.930   9.806   1.478 -2.4003  1.0684 -0.4402
  948MOL0     H30823   9.075   9.883   1.413 -0.1637 -3.7541  0.1551
  948MOL0     H30824   9.048   9.891   1.586  0.5827 -0.6317 -0.4479
  949MOL0     O30825   5.328   0.251   4.692  0.0597  0.0247 -0.4118
  949MOL0     C30826   5.410   0.262   4.783  0.3166  1.2507 -0.3926
  949MOL0     O30827   5.376   0.262   4.919  0.0942  0.6778 -0.5784
  949MOL0     C30828   5.253   0.206   4.961  0.6746 -0.5491 -0.1363
  949MOL0     C30829   5.197   0.259   5.075  0.6745  0.5677 -0.9006
  949MOL0     C30830   5.080   0.206   5.128 -0.7831  0.0904  0.1346
  949MOL0     C30831   5.015   0.106   5.064  0.4819  0.0770 -0.5169
  949MOL0     O30832   4.905   0.040   5.117 -0.1686 -0.0577 -0.3033
  949MOL0     C30833   4.819   0.093   5.221  0.0889 -0.3288 -0.0496
  949MOL0     C30834   4.710  -0.008   5.261 -0.8589 -0.4553  0.3800
  949MOL0     C30835   4.618  -0.022   5.138  0.6182 -0.1911 -0.2213
  949MOL0     C30836   4.525  -0.146   5.156 -0.2063 -0.9023  0.0066
  949MOL0     C30837   4.461  -0.184   5.020 -0.0604  0.3008 -0.3576
  949MOL0     C30838   4.386  -0.065   4.965  0.4692  0.2619 -0.0520
  949MOL0     C30839   4.285  -0.104   4.856  0.6794 -0.9373 -0.5331
  949MOL0     C30840   4.146  -0.088   4.902  0.3126 -0.8052 -0.1951
  949MOL0     N30841   4.124  -0.155   5.032  0.3130  0.7617 -0.0257
  949MOL0     C30842   4.125  -0.087   5.151 -0.0488  0.2898  0.0211
  949MOL0     C30843   4.074  -0.174   5.233  0.2993  0.8701 -0.8111
  949MOL0     C30844   4.055  -0.153   5.381 -0.4759 -0.7807  0.0401
  949MOL0     C30845   3.927  -0.085   5.416 -0.1119 -0.0803  0.6201
  949MOL0     C30846   3.904  -0.047   5.564  0.4510  1.3502  0.3844
  949MOL0     C30847   3.999   0.042   5.633  0.5723  0.1362  0.8081
  949MOL0     O30848   4.137   0.013   5.625 -0.2665 -0.3355 -0.3210
  949MOL0     C30849   4.223   0.103   5.676 -1.1107 -0.2835 -0.0824
  949MOL0     C30850   4.194   0.182   5.788 -0.8736  0.0569  0.3637
  949MOL0     C30851   4.291   0.256   5.861 -0.6312 -0.0182  0.0467
  949MOL0     C30852   4.237   0.337   5.974 -0.3188 -0.0470  0.1179
  949MOL0     C30853   4.428   0.250   5.821  0.4037 -0.7304  0.2357
  949MOL0     C30854   4.546   0.306   5.892  1.3048  0.5067  1.1233
  949MOL0     O30855   4.530   0.362   6.017  0.0103 -0.0089 -0.5328
  949MOL0     C30856   4.631   0.429   6.093  0.1477 -0.3108 -0.1368
  949MOL0     C30857   4.756   0.471   6.042  0.1356 -0.6603  0.4392
  949MOL0     C30858   4.851   0.511   6.129 -0.5732  0.3310 -0.8789
  949MOL0     C30859   4.841   0.499   6.274  1.1942 -0.4898  0.2751
  949MOL0     O30860   4.941   0.518   6.365 -0.2941 -0.1916  0.0302
  949MOL0     C30861   5.075   0.532   6.323  0.1883 -0.7471 -0.2020
  949MOL0     C30862   5.149   0.398   6.289 -0.7925 -0.0934  0.2050
  949MOL0     C30863   5.097   0.273   6.363 -0.8948 -0.1719  0.4414
  949MOL0     C30864   5.163   0.254   6.501  0.4307 -0.0592 -0.3382
  949MOL0     C30865   5.313   0.221   6.494 -0.2874 -0.7836  0.1760
  949MOL0     C30866   5.347   0.090   6.418  0.7043 -0.1692 -0.3736
  949MOL0     C30867   5.477   0.030   6.467  0.2890  0.3526  0.3660
  949MOL0     C30868   5.459  -0.059   6.584  0.2884 -0.3870  0.6947
  949MOL0    Cl30869   5.612  -0.074   6.665  0.1004  0.0211 -0.2479
  949MOL0     C30870   4.712   0.452   6.321 -0.3984  0.2635  0.0428
  949MOL0     C30871   4.608   0.434   6.231  0.5750  1.0857  0.5845
  949MOL0     O30872   4.652   0.287   5.837 -0.7140 -0.2034  0.0244
  949MOL0     C30873   4.451   0.168   5.707 -0.4659 -0.8428 -0.5976
  949MOL0     C30874   4.351   0.093   5.641 -0.9481  0.4187 -0.2771
  949MOL0     N30875   4.035  -0.289   5.169 -0.8406  0.0839  0.0175
  949MOL0     N30876   4.066  -0.282   5.047  0.1293  0.5143  0.2562
  949MOL0     C30877   5.062   0.053   4.948  0.9878 -0.7135 -0.4027
  949MOL0     C30878   5.178   0.107   4.890 -0.5533  0.3516  0.0055
  949MOL0     C30879   5.551   0.275   4.757 -1.1980  0.0076  0.5828
  949MOL0     C30880   5.641   0.287   4.863  0.1512  0.0912 -0.1293
  949MOL0     C30881   5.779   0.316   4.836  0.3565  0.7611  0.4586
  949MOL0     C30882   5.827   0.330   4.707 -1.4830 -0.2088 -0.2929
  949MOL0     O30883   5.966   0.333   4.679 -0.0966  0.1110  0.5410
  949MOL0     C30884   6.042   0.450   4.685 -0.4419  0.2111 -0.1253
  949MOL0     C30885   6.184   0.399   4.743  0.1262  0.0494 -0.6691
  949MOL0     C30886   6.277   0.514   4.742 -0.0343  0.0656 -0.8045
  949MOL0     C30887   6.405   0.474   4.817 -0.3755 -0.1066 -0.0325
  949MOL0     C30888   6.525   0.519   4.734  0.3728 -0.5838 -0.3587
  949MOL0     C30889   6.631   0.546   4.679  0.8936  0.0969 -0.2881
  949MOL0     C30890   5.728   0.323   4.607  0.0577 -0.8274  0.4153
  949MOL0     C30891   5.592   0.299   4.626 -0.1429  0.0944  0.1750
  949MOL0     C30892   5.501   0.319   4.497  0.2072  0.8767  0.4952
  949MOL0     H30893   5.238   0.345   5.127 -2.1256  1.5127 -0.0922
  949MOL0     H30894   5.029   0.244   5.216 -0.0500 -5.1227  3.2467
  949MOL0     H30895   4.771   0.188   5.196 -0.0604 -0.8863 -2.0082
  949MOL0     H30896   4.886   0.096   5.308 -1.5104  0.6090  1.2169
  949MOL0     H30897   4.755  -0.107   5.274  0.9714 -0.2465 -3.2356
  949MOL0     H30898   4.652   0.018   5.351 -0.0246 -1.7574  1.3436
  949MOL0     H30899   4.562   0.069   5.118  1.5379  0.0919 -1.6286
  949MOL0     H30900   4.673  -0.053   5.048 -2.8195 -2.6469 -1.7299
  949MOL0     H30901   4.589  -0.228   5.190  1.7466  1.3576  2.2582
  949MOL0     H30902   4.449  -0.112   5.226 -2.0952  1.1175 -2.7946
  949MOL0     H30903   4.395  -0.269   5.036  0.8861 -1.1239 -3.2773
  949MOL0     H30904   4.534  -0.216   4.945 -0.1429  1.0931 -0.7961
  949MOL0     H30905   4.343   0.004   5.038 -2.0770 -0.5987 -0.6074
  949MOL0     H30906   4.466  -0.009   4.916 -1.6900  1.2564 -2.6981
  949MOL0     H30907   4.298  -0.205   4.816 -2.1429 -1.5816  0.0095
  949MOL0     H30908   4.307  -0.036   4.774  2.8685  3.3547  3.1836
  949MOL0     H30909   4.144   0.020   4.917  1.8444 -0.9487  1.4177
  949MOL0     H30910   4.065  -0.113   4.834 -2.0963  0.0193  2.1990
  949MOL0     H30911   4.157   0.014   5.173  1.0315  0.4915 -2.2018
  949MOL0     H30912   4.141  -0.090   5.409 -1.4654  0.7058 -0.1385
  949MOL0     H30913   4.061  -0.246   5.437 -1.0439 -1.0089 -0.2761
  949MOL0     H30914   3.916   0.010   5.363  0.4512 -0.8670 -0.9854
  949MOL0     H30915   3.847  -0.151   5.381 -0.3806 -0.1785  1.4162
  949MOL0     H30916   3.801  -0.012   5.579 -0.8455 -2.7072  2.5522
  949MOL0     H30917   3.912  -0.143   5.615  2.5012  1.9702  1.3178
  949MOL0     H30918   3.981   0.142   5.592  2.8719 -0.0009 -0.7417
  949MOL0     H30919   3.973   0.035   5.739  0.0532  0.5274  0.7099
  949MOL0     H30920   4.095   0.181   5.831 -0.4592 -2.4176  1.4319
  949MOL0     H30921   4.252   0.269   6.059  3.6087 -0.4699 -0.7178
  949MOL0     H30922   4.133   0.369   5.963 -0.9763 -1.1999  2.3719
  949MOL0     H30923   4.291   0.429   6.000 -0.6592  1.0629 -2.7604
  949MOL0     H30924   4.767   0.476   5.934 -0.1055 -1.5296  0.3705
  949MOL0     H30925   4.944   0.557   6.097 -1.3291  2.2087 -0.4864
  949MOL0     H30926   5.079   0.601   6.238 -2.7863 -4.1638 -3.4811
  949MOL0     H30927   5.131   0.577   6.405 -0.5008  1.5820 -0.9266
  949MOL0     H30928   5.150   0.380   6.181 -0.5560 -1.4569  0.4131
  949MOL0     H30929   5.257   0.413   6.301 -0.6781  0.3690 -1.1680
  949MOL0     H30930   5.115   0.180   6.309  0.6702 -0.3210  1.1469
  949MOL0     H30931   4.989   0.274   6.376 -1.1079  0.6079 -1.1326
  949MOL0     H30932   5.122   0.169   6.556 -0.3133  0.0754 -0.6761
  949MOL0     H30933   5.144   0.344   6.559 -3.4248 -1.3643  0.7637
  949MOL0     H30934   5.371   0.304   6.454 -0.8651 -0.1802  0.5854
  949MOL0     H30935   5.357   0.205   6.592  0.4503 -1.1821 -0.2090
  949MOL0     H30936   5.355   0.115   6.312 -0.2067 -0.2347 -0.4611
  949MOL0     H30937   5.265   0.021   6.438 -3.4279  3.6708 -2.1984
  949MOL0     H30938   5.553   0.107   6.487  2.7620 -2.0608  0.7989
  949MOL0     H30939   5.520  -0.027   6.385 -2.8930 -0.9180 -0.5504
  949MOL0     H30940   5.405  -0.150   6.553 -0.6660  0.6403 -0.7725
  949MOL0     H30941   5.381  -0.013   6.645  0.8804  2.9777 -0.8927
  949MOL0     H30942   4.699   0.427   6.426  2.2490  3.2770  1.2440
  949MOL0     H30943   4.513   0.386   6.254  0.7577  1.1926  1.6179
  949MOL0     H30944   4.551   0.143   5.672 -0.7410 -0.0274 -2.0424
  949MOL0     H30945   4.393   0.030   5.563 -0.2058  1.9906 -1.2017
  949MOL0     H30946   5.007  -0.022   4.891  1.6827 -1.0688 -0.6125
  949MOL0     H30947   5.213   0.058   4.800  1.4487 -1.5515  1.6896
  949MOL0     H30948   5.609   0.288   4.967 -1.4770  0.2443 -0.6073
  949MOL0     H30949   5.853   0.315   4.914 -0.9643  1.0648  1.7636
  949MOL0     H30950   6.048   0.491   4.584 -0.3623 -0.0549 -0.2279
  949MOL0     H30951   5.990   0.529   4.742 -1.2829 -0.1920 -0.3258
  949MOL0     H30952   6.216   0.315   4.681 -3.0078 -0.9174 -1.1735
  949MOL0     H30953   6.178   0.364   4.846 -1.3838 -1.7317 -1.3112
  949MOL0     H30954   6.290   0.555   4.641 -4.4695 -0.0200 -1.6088
  949MOL0     H30955   6.241   0.593   4.808  0.6192  1.2087 -1.7705
  949MOL0     H30956   6.410   0.366   4.827  1.0444 -0.6031 -4.3579
  949MOL0     H30957   6.418   0.533   4.909  0.5231 -0.1549 -0.1258
  949MOL0     H30958   6.729   0.563   4.640  0.6317  0.0805 -0.9730
  949MOL0     H30959   5.775   0.328   4.509 -2.6843  0.2650 -0.9500
  949MOL0     H30960   5.456   0.222   4.474 -1.2842  2.0412 -1.8566
  949MOL0     H30961   5.420   0.391   4.508 -0.3268  0.2921  0.4258
  949MOL0     H30962   5.562   0.346   4.410 -1.6919  0.8944 -0.9006
  950MOL0     O30963   8.871  10.751  10.193 -0.0984 -0.6737 -0.1607
  950MOL0     C30964   8.781  10.674  10.228  0.4725  0.2637  0.0101
  950MOL0     O30965   8.780  10.595  10.335 -0.6519  0.3033  0.8683
  950MOL0     C30966   8.879  10.601  10.434 -0.0723 -0.7934  0.5205
  950MOL0     C30967   9.016  10.586  10.410 -1.0647 -0.1959 -0.5490
  950MOL0     C30968   9.112  10.601  10.512  0.1708 -0.3784 -0.1952
  950MOL0     C30969   9.072  10.611  10.646  0.4615  0.3946 -0.2657
  950MOL0     O30970   9.167  10.605  10.743  0.5276 -0.5259 -0.0466
  950MOL0     C30971   9.132  10.588  10.883  0.6484 -0.5867 -0.1033
  950MOL0     C30972   9.235  10.634  10.976  0.2242 -0.7590  0.2313
  950MOL0     C30973   9.253  10.784  10.992  0.2163 -0.7290 -0.1668
  950MOL0     C30974   9.268  10.868  10.865  0.0058 -1.0040  0.1369
  950MOL0     C30975   9.306  11.015  10.883  0.1042 -0.2612 -0.4772
  950MOL0     C30976   9.460  11.050  10.869 -0.2920  0.1595 -0.6160
  950MOL0     C30977   9.490  11.202  10.900 -0.4864  0.6438  0.1621
  950MOL0     C30978   9.629  11.252  10.851  0.2917 -0.1944 -0.4624
  950MOL0     N30979   9.621  11.395  10.890 -0.5787  0.6078 -0.2047
  950MOL0     C30980   9.629  11.496  10.803  0.0173 -0.5034 -0.4142
  950MOL0     C30981   9.631  11.612  10.871 -0.1897 -0.2655 -0.9256
  950MOL0     C30982   9.655  11.753  10.827 -0.0348 -0.9512  0.8087
  950MOL0     C30983   9.792  11.810  10.870  0.2700  0.9805 -0.2398
  950MOL0     C30984   9.909  11.719  10.829 -0.3307 -0.5371 -0.2032
  950MOL0     C30985  10.038  11.794  10.831 -0.0279 -0.7951 -0.2291
  950MOL0     O30986  10.059  11.834  10.971 -0.0980 -0.0923 -0.0500
  950MOL0     C30987  10.189  11.874  10.990  0.1002 -0.1574 -0.0593
  950MOL0     C30988  10.213  12.008  11.025  0.4857 -0.0028  0.5480
  950MOL0     C30989  10.337  12.060  11.040 -0.6051 -0.0309 -0.1206
  950MOL0     C30990  10.345  12.213  11.061  0.3462  0.7983  0.8319
  950MOL0     C30991  10.453  11.979  11.018  0.1366 -0.4649  0.7918
  950MOL0     C30992  10.592  12.029  11.007 -0.8526  0.6362  0.3772
  950MOL0     O30993  10.665  11.958  10.912 -0.4544 -0.0662  0.2724
  950MOL0     C30994  10.801  11.972  10.902 -0.2538  0.3314 -0.2623
  950MOL0     C30995  10.864  11.938  10.783  0.2769 -0.8879 -0.4692
  950MOL0     C30996  11.003  11.943  10.760  0.6544  0.2582  0.0029
  950MOL0     C30997  11.088  11.970  10.865  0.4891  0.5081  0.7325
  950MOL0     O30998  11.227  11.972  10.863  0.4749 -1.2678  0.2433
  950MOL0     C30999  11.285  11.957  10.738  0.9602 -0.3140  0.6217
  950MOL0     C31000  11.432  11.953  10.755 -0.0038  0.2536  0.3656
  950MOL0     C31001  11.494  11.927  10.626 -0.3410 -0.1792 -0.3161
  950MOL0     C31002  11.650  11.930  10.649 -0.0180  1.1465 -0.4541
  950MOL0     C31003  11.741  11.885  10.540 -0.5070 -0.5197  0.9661
  950MOL0     C31004  11.731  11.983  10.421  0.4400  0.3432  1.0760
  950MOL0     C31005  11.819  12.103  10.439  0.3372  0.8983 -0.5326
  950MOL0     C31006  11.809  12.207  10.332  0.1819  0.5711 -0.2031
  950MOL0    Cl31007  11.642  12.246  10.273  0.0548  0.3961 -0.1942
  950MOL0     C31008  11.029  12.003  10.985  0.4041  0.1953  0.3033
  950MOL0     C31009  10.893  12.002  11.003 -0.7269  0.2061 -0.3658
  950MOL0     O31010  10.636  12.111  11.085 -0.1193 -0.5526  0.2528
  950MOL0     C31011  10.433  11.842  10.985  0.8036 -0.3552 -0.6465
  950MOL0     C31012  10.302  11.791  10.966  0.0126  0.3705 -0.4847
  950MOL0     N31013   9.614  11.577  11.008 -0.2027  0.3307  0.2001
  950MOL0     N31014   9.610  11.447  11.021 -1.3575 -0.2158 -0.0316
  950MOL0     C31015   8.930  10.620  10.671  0.2489 -0.2748  0.4070
  950MOL0     C31016   8.836  10.624  10.571  0.3928  0.7526 -0.1199
  950MOL0     C31017   8.660  10.672  10.146 -0.1946  0.5278  0.1751
  950MOL0     C31018   8.541  10.653  10.217 -0.3583  0.5222  1.3117
  950MOL0     C31019   8.420  10.646  10.142 -0.0680 -0.1008 -0.1565
  950MOL0     C31020   8.407  10.670  10.006  0.3129 -0.3452 -0.0222
  950MOL0     O31021   8.286  10.690   9.940 -0.3885  0.4852 -0.0110
  950MOL0     C31022   8.166  10.709  10.019 -0.0309  0.3853 -0.4018
  950MOL0     C31023   8.082  10.582  10.005  0.9077 -0.4629  0.1233
  950MOL0     C31024   8.093  10.511   9.871  0.3776  0.8188  0.1975
  950MOL0     C31025   8.010  10.387   9.857  0.1256 -0.6562  0.2149
  950MOL0     C31026   8.058  10.308   9.743 -0.1749  0.2602 -0.6177
  950MOL0     C31027   8.084  10.239   9.656 -0.3342  0.0100 -0.0830
  950MOL0     C31028   8.526  10.676   9.939 -0.2147  0.7739 -0.4404
  950MOL0     C31029   8.653  10.682  10.005  0.2571  0.0809  0.0469
  950MOL0     C31030   8.782  10.685   9.923 -0.1802 -0.3951 -0.1309
  950MOL0     H31031   9.046  10.577  10.306  0.8039  2.3643 -0.3285
  950MOL0     H31032   9.216  10.580  10.487 -0.0559 -2.2847  0.3280
  950MOL0     H31033   9.126  10.479  10.891 -0.4993 -0.7706 -2.4228
  950MOL0     H31034   9.033  10.629  10.906  1.5943  1.8744 -0.0695
  950MOL0     H31035   9.215  10.584  11.071 -0.5507 -0.9868 -0.0461
  950MOL0     H31036   9.325  10.594  10.928  0.8901  1.2627 -0.3034
  950MOL0     H31037   9.165  10.824  11.043 -1.1812 -1.5797 -1.7840
  950MOL0     H31038   9.346  10.804  11.045 -1.5910  0.0433  2.9442
  950MOL0     H31039   9.331  10.819  10.790  1.9350  2.9017 -1.0219
  950MOL0     H31040   9.168  10.868  10.819  0.7138 -2.7409 -1.5435
  950MOL0     H31041   9.266  11.054  10.977  0.9867  4.5909 -1.8315
  950MOL0     H31042   9.249  11.072  10.809  2.9957  0.0568 -2.6372
  950MOL0     H31043   9.507  10.993  10.949 -1.7517  0.9250  0.8435
  950MOL0     H31044   9.493  11.013  10.772 -1.9359  0.9491 -1.5249
  950MOL0     H31045   9.481  11.214  11.008 -1.9078 -3.7685  0.7025
  950MOL0     H31046   9.418  11.262  10.843 -0.4925 -0.3134 -0.8755
  950MOL0     H31047   9.704  11.195  10.906  2.5841  0.8529 -2.3491
  950MOL0     H31048   9.650  11.229  10.746  0.2877 -2.5740 -0.0047
  950MOL0     H31049   9.631  11.477  10.696  1.8601 -0.2049 -0.4742
  950MOL0     H31050   9.573  11.811  10.871  0.3968 -1.6257  2.6123
  950MOL0     H31051   9.642  11.758  10.719  0.1633 -1.4612  0.7557
  950MOL0     H31052   9.804  11.917  10.849 -1.0115  1.6315  2.0355
  950MOL0     H31053   9.789  11.802  10.979  0.4537  2.3067 -0.1232
  950MOL0     H31054   9.917  11.638  10.902  4.0381 -1.1110 -1.0439
  950MOL0     H31055   9.893  11.677  10.729  0.9332  0.3285 -0.8000
  950MOL0     H31056  10.113  11.729  10.787  0.5076  0.3918 -1.1537
  950MOL0     H31057  10.023  11.881  10.766  1.1680 -1.3921 -1.3461
  950MOL0     H31058  10.129  12.073  11.046 -1.3165 -2.3659  1.0866
  950MOL0     H31059  10.393  12.265  10.978 -2.1408 -0.4925 -1.6035
  950MOL0     H31060  10.407  12.231  11.149  0.8125 -0.8428  0.8731
  950MOL0     H31061  10.249  12.263  11.079 -0.2373  0.1625 -0.3807
  950MOL0     H31062  10.804  11.909  10.697 -0.2736  1.0334 -0.7702
  950MOL0     H31063  11.035  11.914  10.660 -3.2361 -1.5455 -0.8985
  950MOL0     H31064  11.253  11.866  10.686  2.0758  0.1499 -0.9446
  950MOL0     H31065  11.251  12.042  10.678 -1.9246  0.1175  2.6364
  950MOL0     H31066  11.472  12.040  10.809  1.2396  0.2097 -0.4283
  950MOL0     H31067  11.450  11.868  10.821  1.6648  0.6084  0.4164
  950MOL0     H31068  11.455  11.996  10.551 -0.3004  0.6053  0.3715
  950MOL0     H31069  11.467  11.826  10.594 -0.2453 -1.4344  3.1492
  950MOL0     H31070  11.666  11.847  10.719  1.2453  1.6119 -0.1767
  950MOL0     H31071  11.675  12.026  10.694 -1.9473  1.6498 -0.3497
  950MOL0     H31072  11.845  11.867  10.567  0.6159  1.0232 -1.8633
  950MOL0     H31073  11.700  11.791  10.503  1.6377 -0.4898 -1.8240
  950MOL0     H31074  11.624  12.005  10.415  0.0003 -1.4897  1.5048
  950MOL0     H31075  11.752  11.934  10.326 -0.1509  2.9959 -0.5124
  950MOL0     H31076  11.922  12.064  10.440 -1.5886 -5.3060  1.8768
  950MOL0     H31077  11.799  12.147  10.537 -0.5056  0.4170 -0.4824
  950MOL0     H31078  11.877  12.174  10.253  0.8520  1.2911  0.0591
  950MOL0     H31079  11.860  12.291  10.380  2.7010 -1.0422  0.1193
  950MOL0     H31080  11.102  12.027  11.063  0.7322  0.2865 -0.0244
  950MOL0     H31081  10.863  12.016  11.107 -0.5836  1.2119 -0.4429
  950MOL0     H31082  10.521  11.783  10.959  3.6328  3.2209 -0.1319
  950MOL0     H31083  10.290  11.684  10.961  3.4482 -0.1191 -0.7540
  950MOL0     H31084   8.893  10.643  10.771 -0.8553  0.7068 -0.1964
  950MOL0     H31085   8.730  10.642  10.589  0.7321  0.2420  2.8829
  950MOL0     H31086   8.549  10.639  10.325  3.8993 -2.2564  0.8728
  950MOL0     H31087   8.330  10.626  10.201 -0.2531 -0.1642 -0.4561
  950MOL0     H31088   8.174  10.726  10.126 -2.1502  1.8432 -0.4109
  950MOL0     H31089   8.114  10.795   9.976 -0.9127 -1.0879 -2.4386
  950MOL0     H31090   7.978  10.613  10.017  0.1612 -2.7425  0.1346
  950MOL0     H31091   8.103  10.512  10.087 -0.7994  1.6370  2.5200
  950MOL0     H31092   8.056  10.572   9.789 -0.4419 -1.8982 -1.5879
  950MOL0     H31093   8.198  10.483   9.859 -0.8202 -3.1136 -3.7918
  950MOL0     H31094   7.909  10.417   9.825  0.2570  1.3965  1.5587
  950MOL0     H31095   8.007  10.321   9.944  2.0818 -2.5903 -1.0761
  950MOL0     H31096   8.130  10.166   9.592  2.3038 -2.0008  3.7229
  950MOL0     H31097   8.528  10.700   9.833  0.4375 -2.6218 -1.3004
  950MOL0     H31098   8.756  10.648   9.824 -0.6405 -0.9252  0.1813
  950MOL0     H31099   8.820  10.788   9.932  0.8679 -0.4131 -3.3145
  950MOL0     H31100   8.858  10.616   9.959 -1.1387 -0.4723  1.9224
  951MOL0     O31101   0.485  10.243   7.881  0.0797 -0.1392 -0.4295
  951MOL0     C31102   0.385  10.242   7.954 -0.2352 -0.0136 -0.4100
  951MOL0     O31103   0.381  10.275   8.092  0.1160  0.2246  0.1067
  951MOL0     C31104   0.472  10.364   8.145  0.1346  0.1056  0.8672
  951MOL0     C31105   0.602  10.325   8.157 -0.0214  0.4717  0.0603
  951MOL0     C31106   0.688  10.409   8.233 -0.7163 -0.1642 -0.6177
  951MOL0     C31107   0.640  10.532   8.284 -0.0730  0.2609  0.0586
  951MOL0     O31108   0.715  10.621   8.357 -0.4877  1.0258 -0.1940
  951MOL0     C31109   0.862  10.604   8.372 -0.2650  0.2530 -0.7491
  951MOL0     C31110   0.935  10.718   8.435 -0.1368 -0.4526  0.0352
  951MOL0     C31111   0.863  10.794   8.551  0.2916 -0.8087  0.1588
  951MOL0     C31112   0.938  10.907   8.611  0.6776  0.2194  0.2431
  951MOL0     C31113   1.048  10.871   8.700 -0.2554  0.3924 -0.7751
  951MOL0     C31114   1.129  10.981   8.758 -0.3679 -0.3433  0.5655
  951MOL0     C31115   1.256  10.939   8.830 -0.4874  0.6993 -0.2522
  951MOL0     C31116   1.324  11.057   8.898 -0.1796 -0.2200 -0.2926
  951MOL0     N31117   1.461  11.068   8.855  0.0427  0.2132 -0.3061
  951MOL0     C31118   1.500  11.088   8.723  0.1144  0.3364 -0.3827
  951MOL0     C31119   1.633  11.077   8.717  0.3695 -0.8165 -0.4992
  951MOL0     C31120   1.696  11.088   8.580 -0.3832 -0.2671  0.2771
  951MOL0     C31121   1.843  11.149   8.589  1.7265 -0.6668 -0.0665
  951MOL0     C31122   1.903  11.164   8.448  0.1858 -0.4212 -0.6541
  951MOL0     C31123   2.014  11.261   8.468 -0.5030  0.0198  0.0402
  951MOL0     O31124   2.114  11.275   8.367  0.0660 -0.6622 -0.1543
  951MOL0     C31125   2.224  11.353   8.381 -0.9609  0.2082  0.4890
  951MOL0     C31126   2.277  11.397   8.504  0.7771  0.3323  0.0272
  951MOL0     C31127   2.378  11.494   8.508  0.1682  0.9350 -0.4692
  951MOL0     C31128   2.425  11.527   8.652  0.7481  0.1418 -1.1657
  951MOL0     C31129   2.428  11.542   8.383 -0.0931 -0.3270 -0.3243
  951MOL0     C31130   2.524  11.656   8.376 -0.7324  0.0187  0.7398
  951MOL0     O31131   2.640  11.646   8.462  0.4399  0.6645 -0.1578
  951MOL0     C31132   2.732  11.745   8.449 -0.1642 -0.9969  0.9494
  951MOL0     C31133   2.751  11.846   8.545 -0.4020  0.1254 -0.0490
  951MOL0     C31134   2.842  11.947   8.533  1.0083 -0.2737  0.3334
  951MOL0     C31135   2.921  11.953   8.419  0.3502 -0.2370  0.5213
  951MOL0     O31136   3.016  12.045   8.391  0.1138  0.0892 -0.2721
  951MOL0     C31137   3.010  12.172   8.455  0.4400  0.1709 -0.7495
  951MOL0     C31138   3.132  12.246   8.399  0.8045 -0.3953 -0.2323
  951MOL0     C31139   3.255  12.188   8.457 -0.7243 -0.8205  0.4446
  951MOL0     C31140   3.382  12.272   8.424 -0.2270  0.2537 -0.0485
  951MOL0     C31141   3.500  12.213   8.506 -1.1961 -0.1961 -0.2924
  951MOL0     C31142   3.627  12.287   8.462  0.2354 -0.4770  0.0704
  951MOL0     C31143   3.748  12.199   8.484 -0.1912  0.2072  0.2547
  951MOL0     C31144   3.885  12.278   8.467 -0.9794 -0.3327 -0.0361
  951MOL0    Cl31145   3.891  12.384   8.325 -0.2404 -0.0054  0.3934
  951MOL0     C31146   2.915  11.845   8.326 -0.0449  0.5944 -0.6847
  951MOL0     C31147   2.828  11.739   8.342  0.9519 -0.9759 -0.0069
  951MOL0     O31148   2.505  11.755   8.304  0.5685 -0.3910  0.8901
  951MOL0     C31149   2.376  11.502   8.258  0.5264 -0.0959  0.4184
  951MOL0     C31150   2.276  11.411   8.256  0.5202  0.0234  0.5304
  951MOL0     N31151   1.677  11.046   8.841  0.5466  0.1589 -0.6278
  951MOL0     N31152   1.563  11.027   8.920 -0.7914  0.0477 -0.3535
  951MOL0     C31153   0.510  10.581   8.251 -0.1610 -0.4331  0.6608
  951MOL0     C31154   0.420  10.483   8.198  0.4166 -0.5789 -0.4866
  951MOL0     C31155   0.255  10.186   7.904  0.0786  0.0500  0.4275
  951MOL0     C31156   0.248  10.141   7.770  0.3887  0.7195  0.3231
  951MOL0     C31157   0.137  10.082   7.714  0.0438  0.3140  0.6104
  951MOL0     C31158   0.015  10.077   7.781  0.1385 -0.2461 -0.3308
  951MOL0     O31159  -0.102  10.025   7.716 -0.0735 -0.5647  0.3882
  951MOL0     C31160  -0.196  10.119   7.668 -0.1477  0.4778  0.9890
  951MOL0     C31161  -0.337  10.088   7.708  0.0479  0.1325 -0.1767
  951MOL0     C31162  -0.421  10.213   7.726 -0.6334  0.9522 -0.5297
  951MOL0     C31163  -0.567  10.186   7.774  0.3208 -0.5357  0.4346
  951MOL0     C31164  -0.650  10.100   7.688  0.1158 -0.4364  0.4154
  951MOL0     C31165  -0.718  10.045   7.601 -0.4662  0.3035 -0.0589
  951MOL0     C31166   0.014  10.118   7.917 -0.3047 -0.0255  0.0770
  951MOL0     C31167   0.134  10.170   7.975  0.2175  0.1126 -0.2176
  951MOL0     C31168   0.105  10.205   8.117 -0.6428  0.3260 -0.5781
  951MOL0     H31169   0.636  10.231   8.115 -2.1869 -1.3506  2.0724
  951MOL0     H31170   0.784  10.362   8.254 -1.7629 -1.6064  1.3339
  951MOL0     H31171   0.904  10.578   8.275 -0.7378 -0.8032 -0.6849
  951MOL0     H31172   0.877  10.522   8.442  1.5742  0.7030 -0.5570
  951MOL0     H31173   1.037  10.683   8.451 -1.2457 -3.1189  2.1474
  951MOL0     H31174   0.939  10.786   8.349  0.0193 -2.6610 -1.7953
  951MOL0     H31175   0.762  10.823   8.524  1.1016  1.5494 -0.5989
  951MOL0     H31176   0.844  10.720   8.629  0.3031  0.8908  1.8616
  951MOL0     H31177   0.967  10.981   8.535 -1.1834  2.3894  1.5129
  951MOL0     H31178   0.871  10.970   8.671  2.2663  1.4755  0.7887
  951MOL0     H31179   1.109  10.799   8.645 -0.9546  0.3408 -1.4915
  951MOL0     H31180   1.001  10.803   8.772  2.2273 -0.1807  0.4022
  951MOL0     H31181   1.156  11.055   8.682  1.1345 -0.7967  0.6252
  951MOL0     H31182   1.068  11.032   8.833 -1.3352 -1.2069  0.3965
  951MOL0     H31183   1.327  10.880   8.771  0.2581  1.4669 -0.1492
  951MOL0     H31184   1.221  10.870   8.907  2.9367 -0.8205  0.1570
  951MOL0     H31185   1.280  11.153   8.870  1.8995  0.0292 -3.1161
  951MOL0     H31186   1.317  11.030   9.004 -0.2698 -0.3044 -0.3194
  951MOL0     H31187   1.441  11.099   8.633  0.6287  2.2334 -0.5263
  951MOL0     H31188   1.644  11.160   8.515 -0.0266 -1.7824 -1.7791
  951MOL0     H31189   1.696  10.992   8.528 -0.9917 -0.1323  0.0160
  951MOL0     H31190   1.836  11.247   8.637  0.8901 -1.4815  1.5682
  951MOL0     H31191   1.904  11.082   8.651  0.1524 -1.2024  0.9789
  951MOL0     H31192   1.940  11.067   8.415  2.5326  0.3655 -0.5707
  951MOL0     H31193   1.828  11.205   8.380  0.6100 -1.6215 -1.8766
  951MOL0     H31194   1.973  11.358   8.496 -0.0779  0.1080  0.3668
  951MOL0     H31195   2.074  11.220   8.551  0.8842 -1.0447 -1.4272
  951MOL0     H31196   2.237  11.359   8.597  1.4927  0.7028  0.4944
  951MOL0     H31197   2.436  11.636   8.655  0.2675  0.1761  0.7529
  951MOL0     H31198   2.517  11.475   8.679  0.6695  1.0719  1.1410
  951MOL0     H31199   2.345  11.503   8.724  1.6646  0.4810  0.0031
  951MOL0     H31200   2.689  11.831   8.634 -0.4109  1.3161  0.1630
  951MOL0     H31201   2.852  12.026   8.606 -1.9710 -0.8627  1.4868
  951MOL0     H31202   2.916  12.227   8.443 -0.9649 -1.0978  2.8991
  951MOL0     H31203   3.025  12.157   8.562 -0.2745 -2.6081 -0.9558
  951MOL0     H31204   3.136  12.234   8.290 -0.4003 -5.5638  0.0331
  951MOL0     H31205   3.126  12.352   8.424  2.3906 -0.0759 -1.0708
  951MOL0     H31206   3.283  12.094   8.408  1.1893  0.2165 -0.5826
  951MOL0     H31207   3.251  12.171   8.565  0.2301 -1.9059  0.3361
  951MOL0     H31208   3.358  12.376   8.449  0.6925  0.3502  0.5023
  951MOL0     H31209   3.401  12.275   8.317 -0.7347  2.5265 -0.1302
  951MOL0     H31210   3.494  12.222   8.615  1.7387  0.7907 -0.1200
  951MOL0     H31211   3.518  12.108   8.478  2.7880 -0.1984  1.5811
  951MOL0     H31212   3.630  12.370   8.534 -1.8546 -1.2347  1.1008
  951MOL0     H31213   3.632  12.316   8.356 -1.3675 -0.7812 -0.1101
  951MOL0     H31214   3.748  12.118   8.411 -0.8984 -0.3626  0.8654
  951MOL0     H31215   3.745  12.154   8.584  2.2549 -3.5626 -1.1595
  951MOL0     H31216   3.969  12.210   8.455 -0.7137  0.1862 -1.3107
  951MOL0     H31217   3.898  12.348   8.550 -0.2398  0.4488 -0.7966
  951MOL0     H31218   2.984  11.832   8.244  1.2815 -2.0181  0.7050
  951MOL0     H31219   2.840  11.655   8.274 -1.1901 -2.9109  1.8257
  951MOL0     H31220   2.402  11.545   8.162 -0.2561 -0.4196  0.0496
  951MOL0     H31221   2.237  11.383   8.158 -3.8634  0.0641  2.0407
  951MOL0     H31222   0.484  10.686   8.259 -0.4764 -0.0263 -3.3430
  951MOL0     H31223   0.318  10.515   8.176  0.0219  0.4348  2.4411
  951MOL0     H31224   0.327  10.138   7.696 -1.0414  2.0235 -1.3453
  951MOL0     H31225   0.139  10.039   7.615 -0.2795  0.3104  0.6025
  951MOL0     H31226  -0.172  10.213   7.719 -0.5182 -0.2185  2.5209
  951MOL0     H31227  -0.180  10.140   7.562 -1.0705 -0.2626  0.7000
  951MOL0     H31228  -0.344  10.035   7.803  2.5213  1.6145  0.9294
  951MOL0     H31229  -0.393  10.038   7.628  1.4754  1.2569 -1.9775
  951MOL0     H31230  -0.375  10.278   7.801 -1.3852  0.5440  0.3072
  951MOL0     H31231  -0.440  10.256   7.627 -1.0657 -0.9515 -1.3127
  951MOL0     H31232  -0.623  10.280   7.783 -2.1090 -1.8309 -0.2921
  951MOL0     H31233  -0.567  10.146   7.876 -1.3255  1.9419  1.5096
  951MOL0     H31234  -0.784   9.986   7.541  0.7194 -0.5578 -0.5564
  951MOL0     H31235  -0.072  10.089   7.976 -1.4690  2.8130 -0.0928
  951MOL0     H31236   0.115  10.310   8.149 -3.1945 -0.3318  3.0477
  951MOL0     H31237   0.001  10.184   8.145 -0.5079  0.0385 -0.2819
  951MOL0     H31238   0.171  10.158   8.191  1.5770  1.6600 -1.6152
  952MOL0     O31239   9.438   3.503   1.197 -0.0343  0.7427  0.9972
  952MOL0     C31240   9.397   3.454   1.302 -0.3427  0.1387  0.5674
  952MOL0     O31241   9.474   3.447   1.418  0.2719 -0.0503 -0.2442
  952MOL0     C31242   9.596   3.519   1.411 -0.2137 -0.0854 -0.1552
  952MOL0     C31243   9.706   3.486   1.332 -0.4579 -0.3283 -0.8445
  952MOL0     C31244   9.819   3.567   1.332 -0.0906 -0.0816 -0.3873
  952MOL0     C31245   9.819   3.688   1.406  0.1736 -0.4700  0.1142
  952MOL0     O31246   9.917   3.782   1.408  0.3325  0.9561  0.6556
  952MOL0     C31247  10.046   3.746   1.363 -0.3307  0.1908  0.0882
  952MOL0     C31248  10.131   3.865   1.371 -0.3034  1.0387 -0.1098
  952MOL0     C31249  10.279   3.828   1.368 -0.2615  0.5824  0.1326
  952MOL0     C31250  10.328   3.802   1.225  0.5303  0.0886 -0.1170
  952MOL0     C31251  10.467   3.738   1.219 -0.1116 -0.0598  0.0283
  952MOL0     C31252  10.582   3.830   1.258 -0.7479 -0.2714 -0.1933
  952MOL0     C31253  10.714   3.755   1.215 -0.6426  0.3830 -0.7581
  952MOL0     C31254  10.822   3.829   1.289 -0.9394  0.5602  0.6097
  952MOL0     N31255  10.960   3.794   1.230  0.2071  0.1051 -0.2209
  952MOL0     C31256  11.063   3.800   1.317  0.0429  0.1373 -0.0084
  952MOL0     C31257  11.173   3.783   1.241 -0.2057 -0.1542 -0.1439
  952MOL0     C31258  11.316   3.785   1.277 -0.6942 -0.4199 -0.2130
  952MOL0     C31259  11.362   3.919   1.328  0.5031  0.2295  0.8715
  952MOL0     C31260  11.512   3.921   1.341 -0.3233  0.4402 -0.4203
  952MOL0     C31261  11.591   3.923   1.213 -0.1792 -0.5356  0.9024
  952MOL0     O31262  11.557   4.038   1.131  0.5625 -0.2672  0.1736
  952MOL0     C31263  11.591   4.036   0.997  0.4641 -0.5656 -0.7116
  952MOL0     C31264  11.699   3.976   0.945 -0.3014  1.0095  0.1179
  952MOL0     C31265  11.726   3.969   0.808 -0.2290 -0.0118 -0.2468
  952MOL0     C31266  11.843   3.879   0.764  0.5014 -0.0864 -0.1605
  952MOL0     C31267  11.653   4.048   0.717 -0.6924 -0.4800  1.0631
  952MOL0     C31268  11.666   4.049   0.566  0.6977  0.4714 -0.7768
  952MOL0     O31269  11.600   4.143   0.500  0.1100 -0.4171  0.9023
  952MOL0     C31270  11.586   4.122   0.362  0.3591 -0.8735 -1.0554
  952MOL0     C31271  11.669   4.180   0.269 -0.9293 -0.2002 -0.4034
  952MOL0     C31272  11.664   4.144   0.134  0.0180  0.4272  0.5493
  952MOL0     C31273  11.579   4.046   0.092  0.4318 -0.5808 -0.0824
  952MOL0     O31274  11.572   4.014  -0.040  0.1465 -0.7771  0.2440
  952MOL0     C31275  11.490   3.910  -0.081  0.3791  0.0890 -0.2125
  952MOL0     C31276  11.528   3.765  -0.053 -0.5790 -0.5191 -0.3048
  952MOL0     C31277  11.657   3.749   0.019  0.1944  0.4561  0.3744
  952MOL0     C31278  11.684   3.594   0.037  0.1004  0.2742 -0.0699
  952MOL0     C31279  11.815   3.563   0.122  0.9024 -0.0349  0.2022
  952MOL0     C31280  11.818   3.619   0.262 -0.0534  0.0246  0.2105
  952MOL0     C31281  11.949   3.606   0.327  0.0055 -0.2205  0.0930
  952MOL0     C31282  11.938   3.655   0.473  0.4813 -0.2341 -0.7488
  952MOL0    Cl31283  12.085   3.602   0.571 -0.0611 -0.0294 -0.6686
  952MOL0     C31284  11.489   3.997   0.182 -0.0463  0.5972  0.6302
  952MOL0     C31285  11.490   4.025   0.315  0.3391 -0.1489  0.1360
  952MOL0     O31286  11.731   3.957   0.512  0.3759 -1.0620  0.3108
  952MOL0     C31287  11.540   4.121   0.771  0.4494  0.0086  0.1515
  952MOL0     C31288  11.507   4.103   0.910 -0.2509  0.2015  0.3658
  952MOL0     N31289  11.132   3.778   1.105  0.3197 -0.8844 -0.4318
  952MOL0     N31290  11.007   3.783   1.104 -0.6941  0.7453 -0.5392
  952MOL0     C31291   9.709   3.723   1.482 -0.0540 -0.0001 -0.6404
  952MOL0     C31292   9.597   3.636   1.489 -0.6810 -0.2691 -0.3892
  952MOL0     C31293   9.265   3.387   1.313 -0.3190 -0.1343 -0.8007
  952MOL0     C31294   9.213   3.337   1.445 -0.1409 -0.2782  0.2811
  952MOL0     C31295   9.095   3.272   1.452  1.0540  0.1112  0.3628
  952MOL0     C31296   9.007   3.255   1.344  0.8745  0.4208 -0.2507
  952MOL0     O31297   8.882   3.199   1.372  0.1890 -0.3023 -0.2834
  952MOL0     C31298   8.788   3.201   1.263 -0.0698 -0.7394 -0.0250
  952MOL0     C31299   8.651   3.128   1.297  0.4957  0.1202 -0.2552
  952MOL0     C31300   8.578   3.176   1.428  0.1955  0.2196  0.1138
  952MOL0     C31301   8.590   3.328   1.451  0.4048  0.0790 -0.0289
  952MOL0     C31302   8.521   3.412   1.356 -1.1761  0.2685  1.2440
  952MOL0     C31303   8.474   3.484   1.271 -0.1475  0.1412 -0.1699
  952MOL0     C31304   9.056   3.306   1.217  0.5042 -0.0658  0.2220
  952MOL0     C31305   9.179   3.360   1.201 -0.6379 -0.5287  0.4110
  952MOL0     C31306   9.209   3.398   1.050 -0.5517 -0.5990  0.1253
  952MOL0     H31307   9.687   3.408   1.259 -0.0929 -1.6469  0.4263
  952MOL0     H31308   9.908   3.542   1.276  1.1177  1.2415  0.8695
  952MOL0     H31309  10.053   3.704   1.262 -0.1503 -0.2813  0.2948
  952MOL0     H31310  10.077   3.672   1.437 -0.5705  0.7311  0.7476
  952MOL0     H31311  10.131   3.936   1.288  1.0119 -1.0310 -2.0045
  952MOL0     H31312  10.116   3.911   1.470  2.1418  1.0197  0.3512
  952MOL0     H31313  10.333   3.914   1.407  0.1463  1.1371 -1.5493
  952MOL0     H31314  10.297   3.751   1.444  0.9108  0.7299  0.0259
  952MOL0     H31315  10.266   3.724   1.181 -2.0242  1.9627 -0.0647
  952MOL0     H31316  10.326   3.892   1.163 -1.3902  0.8947  1.0278
  952MOL0     H31317  10.483   3.699   1.119  1.3066 -4.4875  1.7359
  952MOL0     H31318  10.466   3.656   1.292 -1.0506  0.4465  0.6087
  952MOL0     H31319  10.572   3.917   1.193 -1.0156 -1.0113 -1.1664
  952MOL0     H31320  10.575   3.851   1.365 -0.6067  0.4825 -0.3252
  952MOL0     H31321  10.725   3.766   1.106  1.6029  1.2625 -0.5119
  952MOL0     H31322  10.714   3.654   1.256 -2.1349  0.2203 -1.1133
  952MOL0     H31323  10.802   3.936   1.299 -0.0566  0.5370  3.5338
  952MOL0     H31324  10.813   3.800   1.394  0.0250 -0.0406  0.5399
  952MOL0     H31325  11.051   3.803   1.425  2.4024  4.2099  0.3570
  952MOL0     H31326  11.378   3.755   1.192  1.4789  1.7518  0.4672
  952MOL0     H31327  11.334   3.712   1.357  2.3554  1.5201  1.0632
  952MOL0     H31328  11.325   3.992   1.254  1.5795 -1.8640 -1.8921
  952MOL0     H31329  11.330   3.942   1.430  3.3416 -0.5415  2.0273
  952MOL0     H31330  11.541   4.006   1.403  0.0737 -1.3962  2.0837
  952MOL0     H31331  11.539   3.830   1.396  0.7938  1.4797  0.8097
  952MOL0     H31332  11.697   3.945   1.230  1.1833 -0.9713 -4.7764
  952MOL0     H31333  11.585   3.828   1.159  1.7866 -1.3771  2.0809
  952MOL0     H31334  11.756   3.913   1.012  0.5138  1.2402 -0.3490
  952MOL0     H31335  11.929   3.938   0.731  0.7967 -0.6809 -0.4816
  952MOL0     H31336  11.813   3.805   0.689  1.5797  0.3047 -1.0087
  952MOL0     H31337  11.872   3.819   0.851  0.3324  1.8405  1.2806
  952MOL0     H31338  11.752   4.239   0.307 -0.5289 -1.0119  0.0207
  952MOL0     H31339  11.740   4.176   0.063  0.9213 -1.6160  0.5346
  952MOL0     H31340  11.387   3.919  -0.045 -0.7253 -1.7318 -2.5628
  952MOL0     H31341  11.481   3.916  -0.190  1.4510 -0.6349 -0.3567
  952MOL0     H31342  11.460   3.713   0.015  1.1426 -1.5174  0.7181
  952MOL0     H31343  11.526   3.705  -0.145 -2.7297 -0.8074 -0.1106
  952MOL0     H31344  11.651   3.804   0.113 -1.8225 -0.3755  0.7856
  952MOL0     H31345  11.734   3.797  -0.042 -0.9854  3.1313  0.8530
  952MOL0     H31346  11.692   3.557  -0.066 -1.8138 -1.6984  0.4073
  952MOL0     H31347  11.595   3.551   0.083 -1.2912  1.2960 -1.6853
  952MOL0     H31348  11.825   3.454   0.130  0.0508 -0.2070 -0.8549
  952MOL0     H31349  11.902   3.590   0.062 -1.0586  0.7006 -2.5241
  952MOL0     H31350  11.748   3.556   0.319  1.4700 -0.4520  1.6323
  952MOL0     H31351  11.788   3.724   0.262  0.5850  0.2142 -0.5501
  952MOL0     H31352  12.025   3.663   0.274 -0.6369  1.4596  0.8723
  952MOL0     H31353  11.984   3.504   0.315  0.6356  0.1655 -1.6119
  952MOL0     H31354  11.843   3.621   0.514  0.9852 -0.1480  0.5309
  952MOL0     H31355  11.930   3.764   0.477  0.2808 -0.2880  0.8830
  952MOL0     H31356  11.423   3.911   0.170  2.9155 -1.9419  1.3034
  952MOL0     H31357  11.424   3.974   0.384 -0.1302 -1.5053 -1.2657
  952MOL0     H31358  11.469   4.173   0.706 -1.0995 -1.8479  0.2814
  952MOL0     H31359  11.417   4.145   0.953  0.8529 -0.0301  3.0967
  952MOL0     H31360   9.707   3.807   1.550 -0.9529 -0.9323  0.5414
  952MOL0     H31361   9.506   3.665   1.539 -2.1404 -0.9421 -2.4999
  952MOL0     H31362   9.278   3.359   1.530 -0.3733  1.6987  0.0033
  952MOL0     H31363   9.045   3.255   1.546 -6.3983  1.3824 -2.7065
  952MOL0     H31364   8.767   3.307   1.248  2.4994 -0.2774 -0.9798
  952MOL0     H31365   8.830   3.166   1.167 -0.1456  3.3899 -1.7775
  952MOL0     H31366   8.666   3.020   1.309 -0.5388  0.0403  0.4079
  952MOL0     H31367   8.580   3.149   1.217 -3.7477 -1.7753  2.6251
  952MOL0     H31368   8.474   3.142   1.422 -0.2336  1.3794  0.5787
  952MOL0     H31369   8.623   3.133   1.517 -2.3045  0.5445  1.6433
  952MOL0     H31370   8.696   3.350   1.465  0.1065  0.1851  2.5100
  952MOL0     H31371   8.555   3.347   1.553  0.4369 -0.8030  0.1530
  952MOL0     H31372   8.421   3.537   1.194 -0.3548 -0.1066 -0.1992
  952MOL0     H31373   9.009   3.282   1.121  1.2659 -0.7517  0.0065
  952MOL0     H31374   9.259   3.494   1.031  0.6277 -1.3534 -0.7077
  952MOL0     H31375   9.268   3.319   1.003 -1.7250 -0.9749 -0.7669
  952MOL0     H31376   9.124   3.411   0.983  0.6354  2.2587 -1.0175
  953MOL0     O31377   9.349   8.900   0.509 -0.5399 -0.3438 -0.1929
  953MOL0     C31378   9.345   8.953   0.618 -0.1852  0.8297  0.4385
  953MOL0     O31379   9.421   8.927   0.726 -0.5444  0.3828  0.3476
  953MOL0     C31380   9.539   8.846   0.707  0.7980 -0.2109  0.8210
  953MOL0     C31381   9.655   8.902   0.771  0.4122  0.0891  0.0446
  953MOL0     C31382   9.769   8.820   0.789  0.5478  0.1259 -0.4905
  953MOL0     C31383   9.773   8.692   0.738  0.1555 -0.6244  0.0418
  953MOL0     O31384   9.889   8.609   0.749  0.3008 -0.1053 -0.4156
  953MOL0     C31385  10.003   8.634   0.832  0.8765 -0.3448  0.2933
  953MOL0     C31386  10.096   8.508   0.837 -0.6931  0.5594 -0.6815
  953MOL0     C31387  10.224   8.528   0.913  0.2684  0.3080  0.1330
  953MOL0     C31388  10.305   8.639   0.840  0.4045  0.1510 -0.5837
  953MOL0     C31389  10.449   8.636   0.900 -0.6653 -0.4762 -0.0520
  953MOL0     C31390  10.530   8.752   0.840 -0.6666  0.1474  1.2946
  953MOL0     C31391  10.669   8.769   0.911  0.1384  0.9446  0.0389
  953MOL0     C31392  10.744   8.892   0.856 -0.3885  0.8793 -0.8243
  953MOL0     N31393  10.798   8.866   0.716  0.0125  0.4294 -0.2198
  953MOL0     C31394  10.916   8.798   0.687  0.4570 -0.1274 -0.2204
  953MOL0     C31395  10.931   8.819   0.555  0.4168  0.0420 -0.2022
  953MOL0     C31396  11.031   8.761   0.451 -0.3161 -0.0657  0.3710
  953MOL0     C31397  11.160   8.846   0.464 -0.9455  0.1580  0.5858
  953MOL0     C31398  11.144   8.987   0.400 -0.4665 -0.2442 -0.2726
  953MOL0     C31399  11.273   9.075   0.419  0.0301  0.3180 -0.5747
  953MOL0     O31400  11.389   9.009   0.363  0.8961 -0.4779 -0.6370
  953MOL0     C31401  11.510   9.070   0.373 -0.3040 -0.5657 -0.5900
  953MOL0     C31402  11.617   8.989   0.401  0.6778  0.1309  0.2900
  953MOL0     C31403  11.744   9.035   0.423  0.0398  0.1856  0.1333
  953MOL0     C31404  11.844   8.935   0.472 -0.1066  0.2240 -0.7351
  953MOL0     C31405  11.773   9.175   0.417  0.0632 -0.4384 -0.2665
  953MOL0     C31406  11.904   9.240   0.450 -0.3237  0.3405 -0.2986
  953MOL0     O31407  12.023   9.171   0.427 -0.3650 -0.1714  0.3680
  953MOL0     C31408  12.134   9.253   0.423  0.5748 -0.0730  0.0313
  953MOL0     C31409  12.164   9.319   0.306  0.0120 -1.0782 -0.5519
  953MOL0     C31410  12.284   9.393   0.301 -0.5637 -0.0873 -0.1012
  953MOL0     C31411  12.362   9.416   0.417 -0.4574  0.4779 -0.5223
  953MOL0     O31412  12.473   9.493   0.397  0.0262  0.3909 -1.3911
  953MOL0     C31413  12.546   9.536   0.519 -0.6953 -0.3025 -0.0537
  953MOL0     C31414  12.678   9.597   0.494  0.2794 -0.6054  0.6257
  953MOL0     C31415  12.772   9.497   0.429 -0.0200  0.0524  0.7078
  953MOL0     C31416  12.921   9.520   0.427  0.7752 -0.2176 -0.6475
  953MOL0     C31417  12.995   9.396   0.385 -0.5563 -0.4439  0.3046
  953MOL0     C31418  13.143   9.437   0.372  0.9753  0.6076  0.8552
  953MOL0     C31419  13.226   9.313   0.350  0.1246 -0.5784  0.1526
  953MOL0     C31420  13.358   9.316   0.431 -0.3800  0.6788  0.4593
  953MOL0    Cl31421  13.466   9.168   0.390 -0.5163 -0.0649  0.0173
  953MOL0     C31422  12.325   9.356   0.539  0.3674  0.3588 -0.0177
  953MOL0     C31423  12.216   9.268   0.534 -0.5174  0.5577  0.0801
  953MOL0     O31424  11.894   9.344   0.507  0.0389  0.1390  0.3605
  953MOL0     C31425  11.665   9.261   0.398  0.3811 -0.9028  0.5079
  953MOL0     C31426  11.530   9.208   0.375  0.4257 -0.6757  0.2548
  953MOL0     N31427  10.826   8.891   0.511 -0.0333 -0.4981 -0.1879
  953MOL0     N31428  10.749   8.921   0.608  0.9991 -0.4725  0.2786
  953MOL0     C31429   9.661   8.644   0.652 -0.2688  0.2503 -0.1219
  953MOL0     C31430   9.546   8.722   0.639 -0.5974 -0.3286 -0.7535
  953MOL0     C31431   9.249   9.058   0.632 -0.2340 -0.6982 -0.2397
  953MOL0     C31432   9.187   9.060   0.759 -0.5358  1.1421 -0.0916
  953MOL0     C31433   9.080   9.140   0.791 -0.3180  0.4185 -0.0039
  953MOL0     C31434   9.025   9.210   0.684  0.4795 -1.2463  0.0402
  953MOL0     O31435   8.914   9.286   0.707  0.0286 -0.2377 -0.2153
  953MOL0     C31436   8.852   9.285   0.840  0.8193  0.3835 -0.2871
  953MOL0     C31437   8.723   9.379   0.836 -0.0670 -0.6850  0.1863
  953MOL0     C31438   8.629   9.343   0.716  0.1292  0.0949 -0.3561
  953MOL0     C31439   8.495   9.418   0.738  0.1773 -0.3892 -0.0839
  953MOL0     C31440   8.417   9.423   0.617  1.3142 -0.0947 -0.1348
  953MOL0     C31441   8.356   9.427   0.513 -0.3874  0.2625 -0.0916
  953MOL0     C31442   9.073   9.213   0.557  0.7384  0.4727 -0.3302
  953MOL0     C31443   9.186   9.138   0.525  0.3060 -0.1272  0.4531
  953MOL0     C31444   9.229   9.137   0.382 -0.1015 -0.5162  0.5619
  953MOL0     H31445   9.635   9.003   0.804 -1.2456 -0.6472  1.4063
  953MOL0     H31446   9.856   8.860   0.839  0.6374  0.6449 -1.0482
  953MOL0     H31447   9.968   8.635   0.936  0.2232  0.2062  0.0709
  953MOL0     H31448  10.060   8.723   0.803  0.6590  0.0768  1.1238
  953MOL0     H31449  10.031   8.432   0.880 -1.0960  0.9478 -0.5980
  953MOL0     H31450  10.122   8.487   0.732  1.8399 -1.2041  0.1896
  953MOL0     H31451  10.214   8.569   1.014  2.5070  1.6978 -0.1170
  953MOL0     H31452  10.272   8.430   0.919 -0.0538  0.1440  0.0378
  953MOL0     H31453  10.308   8.620   0.732 -1.8509 -0.7647 -0.5458
  953MOL0     H31454  10.263   8.740   0.847 -1.1358 -0.3116 -2.3189
  953MOL0     H31455  10.486   8.536   0.876 -0.8917 -1.3302  2.7786
  953MOL0     H31456  10.458   8.637   1.009  2.8658  2.5975 -0.1876
  953MOL0     H31457  10.536   8.740   0.731 -1.7989  0.2061  1.2109
  953MOL0     H31458  10.474   8.845   0.850  1.5075  1.5523  1.0593
  953MOL0     H31459  10.728   8.679   0.892 -1.7277 -0.6508  1.2993
  953MOL0     H31460  10.658   8.789   1.018  4.5313  0.6391  0.7418
  953MOL0     H31461  10.671   8.974   0.851  0.3195  1.5476 -0.4079
  953MOL0     H31462  10.822   8.929   0.923  0.0130 -0.5250 -0.4914
  953MOL0     H31463  10.971   8.744   0.763 -0.5700 -0.1315  0.5461
  953MOL0     H31464  11.002   8.771   0.346  2.1270 -3.5238 -0.7960
  953MOL0     H31465  11.051   8.657   0.478 -0.4505 -0.4876 -1.0928
  953MOL0     H31466  11.209   8.845   0.561  1.1739  0.7259 -0.4072
  953MOL0     H31467  11.234   8.790   0.405  0.1860  0.2478  1.8676
  953MOL0     H31468  11.127   8.984   0.292  0.6646 -0.0439 -0.4745
  953MOL0     H31469  11.056   9.034   0.443  0.6383  0.5436  1.2351
  953MOL0     H31470  11.266   9.179   0.386  0.7615  1.1787  1.7764
  953MOL0     H31471  11.281   9.085   0.528 -4.5548 -0.4650  0.0277
  953MOL0     H31472  11.600   8.882   0.409 -0.0681  0.3545  2.4242
  953MOL0     H31473  11.869   8.957   0.576 -2.9769  0.1030  0.0711
  953MOL0     H31474  11.936   8.930   0.413 -0.3742 -5.7298 -1.3091
  953MOL0     H31475  11.805   8.833   0.473  1.4673 -0.4095  0.4047
  953MOL0     H31476  12.113   9.317   0.210  0.0064  1.1988 -0.6337
  953MOL0     H31477  12.295   9.443   0.206 -2.6363 -2.0062 -1.4444
  953MOL0     H31478  12.481   9.605   0.573  1.4571  1.7226  0.0640
  953MOL0     H31479  12.568   9.446   0.577 -2.0344 -0.8129 -0.2911
  953MOL0     H31480  12.656   9.682   0.429  0.3461 -2.1705 -1.5524
  953MOL0     H31481  12.726   9.632   0.586 -1.6240 -1.3145  1.9357
  953MOL0     H31482  12.728   9.497   0.328  2.0207  0.1047 -0.2166
  953MOL0     H31483  12.760   9.393   0.462  2.5082 -0.7160 -0.5363
  953MOL0     H31484  12.945   9.559   0.527 -0.7414  1.0297 -0.7307
  953MOL0     H31485  12.945   9.599   0.355 -1.1913  2.6432  1.5658
  953MOL0     H31486  12.977   9.311   0.451 -2.0145 -0.0320  0.4603
  953MOL0     H31487  12.962   9.377   0.282 -1.2371  2.6654 -0.1580
  953MOL0     H31488  13.167   9.491   0.464 -1.7942  3.0097  0.3364
  953MOL0     H31489  13.146   9.504   0.285  2.1651 -0.3467  0.1260
  953MOL0     H31490  13.252   9.314   0.244 -1.0880 -0.0528 -0.1535
  953MOL0     H31491  13.177   9.217   0.370  1.4512 -1.3874 -0.3761
  953MOL0     H31492  13.338   9.313   0.538 -0.4480 -0.6661  0.4228
  953MOL0     H31493  13.410   9.406   0.397 -0.2900  0.9191  1.2309
  953MOL0     H31494  12.377   9.370   0.633  0.1727 -0.0476  0.1529
  953MOL0     H31495  12.186   9.228   0.630 -0.5229  2.9009  1.1262
  953MOL0     H31496  11.674   9.369   0.400  0.3713 -0.7891 -2.3282
  953MOL0     H31497  11.449   9.280   0.364 -1.1763 -2.3083  0.7328
  953MOL0     H31498   9.679   8.553   0.595  2.4476  0.0317  0.9111
  953MOL0     H31499   9.462   8.680   0.585  0.7127 -3.3144 -0.6667
  953MOL0     H31500   9.230   8.997   0.838 -0.2493  0.7886 -0.5238
  953MOL0     H31501   9.034   9.132   0.889 -1.7048 -1.4050 -0.7248
  953MOL0     H31502   8.818   9.184   0.864  1.6872 -0.0217 -0.7449
  953MOL0     H31503   8.918   9.323   0.918 -0.5862  1.3093  0.5078
  953MOL0     H31504   8.764   9.480   0.827  0.5210 -0.7823  1.5298
  953MOL0     H31505   8.668   9.370   0.931 -0.3440  1.7630  0.3097
  953MOL0     H31506   8.681   9.357   0.620 -1.5697  0.6700 -1.2260
  953MOL0     H31507   8.594   9.239   0.718 -0.1565  0.1722  2.5664
  953MOL0     H31508   8.514   9.521   0.771  0.6014  0.0748 -1.7034
  953MOL0     H31509   8.437   9.362   0.813  2.9907 -3.1529  0.2257
  953MOL0     H31510   8.290   9.413   0.431 -0.5057 -2.7466  0.4224
  953MOL0     H31511   9.030   9.261   0.470  1.1593 -0.3176 -0.9821
  953MOL0     H31512   9.335   9.107   0.382 -0.8034 -3.3857  2.4787
  953MOL0     H31513   9.172   9.058   0.334 -0.5548 -2.3873  3.8753
  953MOL0     H31514   9.217   9.225   0.318  0.9600 -2.2320 -2.1742
  954MOL0     O31515   2.243   7.756   9.947  0.2164  0.2439 -0.3513
  954MOL0     C31516   2.317   7.753  10.045  0.9701 -0.8690 -1.0288
  954MOL0     O31517   2.416   7.849  10.074 -0.5806 -0.4762  0.3001
  954MOL0     C31518   2.448   7.927   9.967 -0.6164 -0.3368  0.0596
  954MOL0     C31519   2.573   7.913   9.910 -0.0595  0.1521 -0.1721
  954MOL0     C31520   2.627   8.016   9.829  0.0924  0.5678  0.1110
  954MOL0     C31521   2.542   8.127   9.796 -0.7583 -0.7459 -0.5059
  954MOL0     O31522   2.604   8.228   9.731  0.0471 -0.3019  0.9585
  954MOL0     C31523   2.545   8.359   9.716 -0.3805 -1.0400  0.4989
  954MOL0     C31524   2.640   8.448   9.627 -0.2762 -0.2310 -0.2673
  954MOL0     C31525   2.687   8.375   9.494  0.9421 -0.3553 -0.4954
  954MOL0     C31526   2.579   8.360   9.390  0.0534 -0.0914 -0.0797
  954MOL0     C31527   2.507   8.226   9.384 -0.2615  0.1590 -0.1296
  954MOL0     C31528   2.383   8.235   9.283 -0.6370  0.4591  0.2032
  954MOL0     C31529   2.313   8.101   9.298 -0.5538  0.7510 -0.0848
  954MOL0     C31530   2.204   8.068   9.198  0.2988 -0.1472  0.3329
  954MOL0     N31531   2.152   7.936   9.230 -0.2183 -0.5482  0.3892
  954MOL0     C31532   2.229   7.822   9.220  0.1738 -0.2489 -0.5741
  954MOL0     C31533   2.145   7.731   9.270  0.3047 -0.0803 -0.1641
  954MOL0     C31534   2.163   7.577   9.270  0.7140  0.4505  0.0986
  954MOL0     C31535   2.247   7.522   9.385 -0.2791  0.8366  0.6137
  954MOL0     C31536   2.258   7.367   9.374  0.2467 -0.1450 -0.4004
  954MOL0     C31537   2.351   7.299   9.483 -0.2325  0.0831  0.2756
  954MOL0     O31538   2.349   7.158   9.463  0.1087  0.8898  0.0550
  954MOL0     C31539   2.448   7.083   9.533 -0.5975  0.0214  0.9088
  954MOL0     C31540   2.477   6.955   9.491 -0.1169  0.2997 -0.3451
  954MOL0     C31541   2.576   6.872   9.548  0.1595  0.5889 -0.6813
  954MOL0     C31542   2.582   6.735   9.502 -0.0603  0.3089 -0.9777
  954MOL0     C31543   2.642   6.912   9.668  0.7990 -0.3049  0.6510
  954MOL0     C31544   2.732   6.830   9.756  0.0884  0.7659  0.6065
  954MOL0     O31545   2.749   6.871   9.884  0.3942  0.0680  0.5450
  954MOL0     C31546   2.847   6.822   9.954 -0.1598  0.9667 -0.7924
  954MOL0     C31547   2.844   6.689  10.000 -0.3801 -0.2290 -0.2211
  954MOL0     C31548   2.939   6.648  10.088  0.1211 -0.0634  0.2217
  954MOL0     C31549   3.037   6.732  10.143 -0.4998  0.0780  1.2814
  954MOL0     O31550   3.128   6.704  10.231 -0.3528  0.6051  0.1118
  954MOL0     C31551   3.083   6.724  10.366 -0.2958 -0.3160 -0.2239
  954MOL0     C31552   3.192   6.704  10.468  0.1418  0.6545 -0.4020
  954MOL0     C31553   3.307   6.799  10.461 -0.3017 -0.6381 -0.7800
  954MOL0     C31554   3.420   6.775  10.569 -0.0677  0.2212 -0.8900
  954MOL0     C31555   3.539   6.689  10.514 -0.7107  0.5063  0.2305
  954MOL0     C31556   3.619   6.756  10.397  0.2845 -0.5210 -0.4804
  954MOL0     C31557   3.746   6.693  10.384 -0.7127  0.2510  0.3989
  954MOL0     C31558   3.807   6.757  10.261 -0.5037  0.6883 -0.2814
  954MOL0    Cl31559   3.831   6.938  10.271 -0.1565  0.1667  0.5496
  954MOL0     C31560   3.048   6.856  10.076  0.1113 -0.7012 -0.0229
  954MOL0     C31561   2.951   6.905   9.990  0.2710 -0.7764  0.1408
  954MOL0     O31562   2.797   6.740   9.701 -0.0338 -0.0134  0.6772
  954MOL0     C31563   2.608   7.039   9.715 -0.0953  0.1591  0.2820
  954MOL0     C31564   2.518   7.122   9.648 -0.3223 -0.2058  0.3236
  954MOL0     N31565   2.016   7.787   9.305 -0.6970 -0.2961 -0.0046
  954MOL0     N31566   2.026   7.912   9.278  0.1867 -0.0385 -1.0407
  954MOL0     C31567   2.411   8.135   9.839 -0.0266 -0.4622 -0.9561
  954MOL0     C31568   2.369   8.039   9.933 -0.2274 -0.7046 -0.4020
  954MOL0     C31569   2.301   7.639  10.142 -0.7032 -0.5231  0.2319
  954MOL0     C31570   2.424   7.589  10.203  0.4444  0.8688 -0.8198
  954MOL0     C31571   2.408   7.479  10.283 -0.3194  0.4889 -0.3128
  954MOL0     C31572   2.291   7.414  10.299  0.4962 -0.7367 -0.3726
  954MOL0     O31573   2.299   7.310  10.383  0.4305 -0.1125  0.1013
  954MOL0     C31574   2.179   7.234  10.410 -0.0857  0.0521  0.2013
  954MOL0     C31575   2.225   7.108  10.480  0.1974  0.0801 -0.2158
  954MOL0     C31576   2.291   7.003  10.378 -0.1365  0.1020 -0.3616
  954MOL0     C31577   2.379   7.057  10.258  0.1450 -0.2601 -0.2371
  954MOL0     C31578   2.463   6.941  10.220 -0.6247 -0.1191 -0.8251
  954MOL0     C31579   2.522   6.840  10.188 -0.2837  0.0609  0.0615
  954MOL0     C31580   2.173   7.473  10.247 -1.1929  0.0387  0.2717
  954MOL0     C31581   2.182   7.581  10.169  0.3331 -0.5329  0.2839
  954MOL0     C31582   2.050   7.639  10.117  0.5525 -0.0849 -0.5302
  954MOL0     H31583   2.643   7.839   9.948  0.8339  1.3390  0.5717
  954MOL0     H31584   2.732   8.016   9.802 -0.2770 -0.3841 -1.4756
  954MOL0     H31585   2.544   8.396   9.819  0.9001 -2.4841  1.0700
  954MOL0     H31586   2.450   8.348   9.662 -1.2875 -0.9807  2.0159
  954MOL0     H31587   2.583   8.539   9.609  2.5986  1.7647 -0.0365
  954MOL0     H31588   2.726   8.485   9.684  1.5759  3.1273 -4.6795
  954MOL0     H31589   2.767   8.435   9.450  0.6658 -0.4746 -1.1692
  954MOL0     H31590   2.724   8.279   9.530 -1.6310 -0.1787  3.2237
  954MOL0     H31591   2.512   8.445   9.404 -0.1651 -0.1524 -0.7082
  954MOL0     H31592   2.628   8.379   9.293 -1.1204 -3.8075 -1.5556
  954MOL0     H31593   2.471   8.209   9.486  1.6007  0.3075  0.5825
  954MOL0     H31594   2.581   8.147   9.369 -0.5634 -0.7069  2.5068
  954MOL0     H31595   2.317   8.320   9.305  1.6771  3.1654 -2.4415
  954MOL0     H31596   2.420   8.253   9.181 -0.1472  1.3783  0.5358
  954MOL0     H31597   2.268   8.090   9.398 -1.0702 -1.0489 -0.4809
  954MOL0     H31598   2.393   8.028   9.297 -1.1021  0.1116  0.8050
  954MOL0     H31599   2.128   8.145   9.209  3.4609  3.0456  1.5015
  954MOL0     H31600   2.240   8.067   9.094  0.4799 -2.7472  0.3534
  954MOL0     H31601   2.320   7.805   9.165 -0.7371  0.1510 -2.2568
  954MOL0     H31602   2.202   7.553   9.170  1.6082  0.2351  0.4927
  954MOL0     H31603   2.065   7.531   9.287  0.7409  1.1597  2.5983
  954MOL0     H31604   2.347   7.565   9.376 -0.1167  0.1117 -2.3188
  954MOL0     H31605   2.200   7.543   9.481 -0.5963 -0.7580  0.8348
  954MOL0     H31606   2.153   7.337   9.384 -0.2802  1.1210 -1.6352
  954MOL0     H31607   2.300   7.340   9.276  0.9772 -3.3983  0.7037
  954MOL0     H31608   2.452   7.334   9.460 -0.2946  0.2544  0.2616
  954MOL0     H31609   2.321   7.339   9.580 -1.2080 -0.4123  0.1907
  954MOL0     H31610   2.413   6.923   9.410  1.8974 -0.3162 -1.7607
  954MOL0     H31611   2.565   6.677   9.593  0.4794  1.8752  0.1610
  954MOL0     H31612   2.685   6.710   9.474  2.0213  3.8436  2.5557
  954MOL0     H31613   2.507   6.704   9.428  0.0048 -1.4764 -0.3358
  954MOL0     H31614   2.770   6.611   9.981  0.4576 -1.4811  1.3304
  954MOL0     H31615   2.946   6.541  10.107 -0.5896 -0.1245  0.1822
  954MOL0     H31616   3.040   6.824  10.376 -1.2019 -0.6778 -0.4098
  954MOL0     H31617   2.997   6.661  10.391 -0.4684 -0.0369 -0.1085
  954MOL0     H31618   3.138   6.714  10.563  0.5983 -0.3156 -0.0189
  954MOL0     H31619   3.237   6.604  10.463  2.7054  1.6802  0.3731
  954MOL0     H31620   3.264   6.897  10.487 -1.2704 -1.5643  1.3152
  954MOL0     H31621   3.351   6.807  10.361  4.3511  4.5022  1.0844
  954MOL0     H31622   3.367   6.723  10.650  0.1486 -0.1446 -0.9845
  954MOL0     H31623   3.457   6.866  10.616  2.0715 -1.0794  0.0560
  954MOL0     H31624   3.609   6.658  10.593  2.4761  3.1321 -1.3141
  954MOL0     H31625   3.492   6.600  10.471  0.5321 -1.9022  3.3993
  954MOL0     H31626   3.627   6.861  10.426 -2.2981 -0.8221  1.7486
  954MOL0     H31627   3.559   6.746  10.307  0.8978 -0.1655 -0.9330
  954MOL0     H31628   3.731   6.585  10.375  1.9857 -0.1625 -0.2627
  954MOL0     H31629   3.819   6.702  10.465  0.8133 -0.3480 -0.8432
  954MOL0     H31630   3.741   6.721  10.182  2.0564 -4.5543 -0.4804
  954MOL0     H31631   3.901   6.704  10.251  0.2642  1.3718  2.4807
  954MOL0     H31632   3.130   6.919  10.108 -1.1709  1.0169  0.0214
  954MOL0     H31633   2.947   7.004   9.945 -1.7831 -1.7337 -1.9723
  954MOL0     H31634   2.665   7.069   9.802  2.8143 -1.4705 -0.9518
  954MOL0     H31635   2.509   7.226   9.679  0.2889 -0.1645  0.3630
  954MOL0     H31636   2.346   8.221   9.826  1.0763  0.6622  0.5550
  954MOL0     H31637   2.273   8.031   9.983  0.5107  0.2669  1.2445
  954MOL0     H31638   2.523   7.626  10.180  2.0122 -2.6757 -0.3189
  954MOL0     H31639   2.496   7.448  10.339 -2.1243 -4.9643  0.0916
  954MOL0     H31640   2.106   7.280  10.477  0.3836 -1.3826  1.7715
  954MOL0     H31641   2.125   7.215  10.317  1.6466 -2.5238 -0.4017
  954MOL0     H31642   2.137   7.065  10.528  0.7366 -1.3641 -0.4443
  954MOL0     H31643   2.298   7.129  10.558  0.2814  1.1137 -0.5646
  954MOL0     H31644   2.357   6.945  10.443  1.8650  0.5561 -1.9034
  954MOL0     H31645   2.209   6.943  10.336 -1.2280 -1.6058  3.6965
  954MOL0     H31646   2.447   7.131  10.301  0.4671 -2.1519  2.8030
  954MOL0     H31647   2.330   7.098  10.168 -0.6459 -1.1103 -0.2117
  954MOL0     H31648   2.581   6.753  10.165  0.4647  1.0333 -1.8394
  954MOL0     H31649   2.079   7.421  10.262 -1.6098  0.6486 -0.1374
  954MOL0     H31650   2.039   7.739  10.159 -1.7624 -1.8225  3.7288
  954MOL0     H31651   2.024   7.639  10.011 -1.2397  0.3180 -0.1276
  954MOL0     H31652   1.966   7.584  10.162 -0.9357  1.0691 -1.7661
  955MOL0     O31653   1.953   3.872   0.498 -0.1860  0.2155 -0.2928
  955MOL0     C31654   1.888   3.967   0.533  0.3028 -0.2044 -0.2551
  955MOL0     O31655   1.934   4.092   0.561 -0.1959 -0.4495 -0.2855
  955MOL0     C31656   2.061   4.131   0.544 -0.7584  0.2788 -0.3690
  955MOL0     C31657   2.144   4.086   0.438  0.4948  0.4457 -1.1033
  955MOL0     C31658   2.277   4.120   0.427 -0.7069  0.4428  0.3961
  955MOL0     C31659   2.344   4.196   0.519 -0.0783  0.3391 -1.0520
  955MOL0     O31660   2.475   4.244   0.514  0.2705 -0.0651  0.6186
  955MOL0     C31661   2.553   4.247   0.396  0.3168 -0.1189  0.4761
  955MOL0     C31662   2.631   4.377   0.390  0.2154 -1.0454  0.3083
  955MOL0     C31663   2.744   4.376   0.499 -0.3768  0.8443 -1.9194
  955MOL0     C31664   2.845   4.481   0.460  0.1754  1.0060  0.8375
  955MOL0     C31665   2.970   4.473   0.551  0.1432 -0.6471 -0.2070
  955MOL0     C31666   3.065   4.594   0.549  0.0762  0.2413  0.3817
  955MOL0     C31667   3.131   4.621   0.417 -0.7648 -0.9905 -0.0565
  955MOL0     C31668   3.194   4.498   0.351 -0.9245  0.0113  0.0574
  955MOL0     N31669   3.322   4.477   0.426 -0.4964  0.0712  0.7174
  955MOL0     C31670   3.332   4.390   0.535 -0.0220  0.6711  0.3122
  955MOL0     C31671   3.457   4.401   0.577 -1.5009  0.6920  0.6171
  955MOL0     C31672   3.526   4.315   0.681 -0.2866 -0.4258 -0.2252
  955MOL0     C31673   3.660   4.262   0.629 -0.8316 -0.8028 -1.3268
  955MOL0     C31674   3.731   4.153   0.717 -0.7730  0.4181 -0.2034
  955MOL0     C31675   3.841   4.090   0.635 -0.5016 -0.1421  0.7781
  955MOL0     O31676   3.911   3.998   0.720 -0.2895  0.0652 -0.2301
  955MOL0     C31677   3.927   3.869   0.680  0.7125  0.2149  0.6792
  955MOL0     C31678   3.910   3.813   0.553  0.2403 -0.7728  0.0058
  955MOL0     C31679   3.955   3.680   0.531  0.0701  0.2937  1.2817
  955MOL0     C31680   3.930   3.619   0.393  0.1714 -0.3790  0.3817
  955MOL0     C31681   4.019   3.605   0.636 -0.5650 -0.9233  0.3712
  955MOL0     C31682   4.056   3.472   0.617  1.1472  0.2107  0.6749
  955MOL0     O31683   3.990   3.380   0.703 -0.1629 -0.9112  0.0946
  955MOL0     C31684   4.026   3.247   0.697 -0.5958  0.1649 -0.8744
  955MOL0     C31685   4.095   3.194   0.803  0.1285  0.0579 -0.2032
  955MOL0     C31686   4.147   3.065   0.791 -0.1187 -0.6771 -0.0186
  955MOL0     C31687   4.117   2.986   0.681  0.0208  0.3882  0.2992
  955MOL0     O31688   4.172   2.865   0.686 -0.1975  0.0030  0.4504
  955MOL0     C31689   4.168   2.789   0.561 -0.0096 -0.2308 -0.3824
  955MOL0     C31690   4.251   2.666   0.579  0.0611  0.1555 -0.8436
  955MOL0     C31691   4.247   2.582   0.453 -0.3327 -0.2494 -0.2557
  955MOL0     C31692   4.344   2.619   0.351  0.7176  0.0769 -0.1128
  955MOL0     C31693   4.344   2.541   0.209 -0.9827 -0.3460 -0.7012
  955MOL0     C31694   4.389   2.630   0.093 -0.2483  0.6851  0.2800
  955MOL0     C31695   4.370   2.563  -0.048  0.9789 -0.2858  0.7634
  955MOL0     C31696   4.413   2.651  -0.159  0.0768 -0.2512  0.3556
  955MOL0    Cl31697   4.289   2.774  -0.190  0.4014  0.3207  0.4270
  955MOL0     C31698   4.036   3.033   0.580  0.6642 -0.7670 -0.5082
  955MOL0     C31699   4.001   3.168   0.588 -0.4053  0.2211 -0.2118
  955MOL0     O31700   4.152   3.440   0.550 -0.5835 -0.1374  0.1744
  955MOL0     C31701   4.035   3.659   0.761  0.3709 -0.9217 -0.7824
  955MOL0     C31702   3.981   3.792   0.780 -0.2299  0.4247 -0.6193
  955MOL0     N31703   3.515   4.507   0.516 -0.7563 -0.6147 -0.4949
  955MOL0     N31704   3.435   4.552   0.424  0.0500 -0.1176  0.2564
  955MOL0     C31705   2.266   4.255   0.621 -0.6481  0.1016 -0.1067
  955MOL0     C31706   2.122   4.221   0.635 -0.6034  0.0731 -0.3160
  955MOL0     C31707   1.737   3.953   0.529 -0.0382 -0.3522  0.1435
  955MOL0     C31708   1.662   3.951   0.652 -1.2708  0.8459  0.5663
  955MOL0     C31709   1.521   3.934   0.644 -0.1046  0.6149 -0.0624
  955MOL0     C31710   1.452   3.923   0.527 -0.8067  0.1846  0.3072
  955MOL0     O31711   1.314   3.901   0.533 -0.4331  0.8866  0.7484
  955MOL0     C31712   1.239   3.879   0.405 -0.4474 -1.0176 -0.4692
  955MOL0     C31713   1.089   3.856   0.430  0.1790  1.0555 -0.0587
  955MOL0     C31714   1.034   3.949   0.542  0.3161  0.3824  1.3039
  955MOL0     C31715   0.879   3.922   0.564  0.7805 -0.1086 -0.0811
  955MOL0     C31716   0.809   3.989   0.449  1.1463 -0.0197 -0.8261
  955MOL0     C31717   0.767   4.048   0.353  0.4035  0.7040 -0.2788
  955MOL0     C31718   1.533   3.917   0.408  0.6464 -0.4164  0.2852
  955MOL0     C31719   1.670   3.928   0.407 -0.1818  0.6854  0.1226
  955MOL0     C31720   1.751   3.911   0.276  0.4834  0.0026 -0.2049
  955MOL0     H31721   2.099   4.027   0.359 -0.5677  0.8744 -0.8281
  955MOL0     H31722   2.315   4.089   0.330 -0.2302 -0.4124  0.8443
  955MOL0     H31723   2.490   4.240   0.307  1.9886  0.7050 -0.8307
  955MOL0     H31724   2.621   4.162   0.407 -0.5038 -1.1644 -1.8678
  955MOL0     H31725   2.679   4.394   0.294 -0.8090  2.8334  0.3025
  955MOL0     H31726   2.564   4.462   0.406  0.3341 -0.9846  0.4934
  955MOL0     H31727   2.710   4.396   0.600 -1.0085  1.8356 -2.3114
  955MOL0     H31728   2.801   4.282   0.506 -3.2131 -0.8587  0.6687
  955MOL0     H31729   2.876   4.462   0.356 -0.8072  0.5764  0.6168
  955MOL0     H31730   2.806   4.583   0.462  0.7234  1.2227  0.8302
  955MOL0     H31731   3.025   4.384   0.521  2.0963  0.8462 -1.2975
  955MOL0     H31732   2.936   4.464   0.654 -3.8484 -0.0848 -1.2719
  955MOL0     H31733   3.015   4.687   0.578 -1.1793  0.1315 -1.2978
  955MOL0     H31734   3.140   4.585   0.628  0.3695  2.9230  0.4932
  955MOL0     H31735   3.203   4.702   0.434 -1.4448 -0.5226  0.6210
  955MOL0     H31736   3.061   4.664   0.345  2.5894  2.3157 -1.7228
  955MOL0     H31737   3.137   4.406   0.334  3.0312 -2.4251 -1.5180
  955MOL0     H31738   3.218   4.535   0.251 -1.0939 -0.5659 -0.2035
  955MOL0     H31739   3.259   4.319   0.572  0.6629 -0.8680 -1.1786
  955MOL0     H31740   3.469   4.227   0.713  0.3141 -0.3827  1.0234
  955MOL0     H31741   3.547   4.378   0.768  0.0988 -0.8643  0.0103
  955MOL0     H31742   3.656   4.224   0.526  1.9578 -2.0012 -1.0725
  955MOL0     H31743   3.726   4.348   0.617 -2.1112  0.2997 -0.7340
  955MOL0     H31744   3.775   4.207   0.802  0.1717 -1.6791  0.7135
  955MOL0     H31745   3.665   4.076   0.757  0.8923 -2.4745 -2.6044
  955MOL0     H31746   3.796   4.042   0.548 -1.9777  2.4494 -0.0080
  955MOL0     H31747   3.914   4.161   0.595  0.8417 -1.3816  0.9510
  955MOL0     H31748   3.892   3.881   0.469  0.6813  0.4645  0.8819
  955MOL0     H31749   4.017   3.616   0.327 -1.0905 -1.5850 -1.3381
  955MOL0     H31750   3.857   3.669   0.329 -1.2529 -0.0339  2.1962
  955MOL0     H31751   3.904   3.514   0.410 -0.2901 -0.6772 -1.8793
  955MOL0     H31752   4.124   3.262   0.883 -1.7698  2.6299 -1.5755
  955MOL0     H31753   4.197   3.032   0.882 -0.0002  1.1746  0.6313
  955MOL0     H31754   4.067   2.753   0.540 -0.9362  2.8306 -1.6383
  955MOL0     H31755   4.194   2.848   0.473 -0.6584 -0.4753 -0.7402
  955MOL0     H31756   4.356   2.685   0.604  0.4454  0.0048 -2.2965
  955MOL0     H31757   4.197   2.612   0.657  3.4937 -1.3405  0.6994
  955MOL0     H31758   4.149   2.582   0.403 -0.0363 -0.8306 -0.8527
  955MOL0     H31759   4.268   2.479   0.484 -0.4677  0.0344  0.8051
  955MOL0     H31760   4.445   2.607   0.391  1.2803 -1.2494 -1.7989
  955MOL0     H31761   4.331   2.725   0.328 -2.2535 -0.1283  0.3337
  955MOL0     H31762   4.403   2.450   0.219 -0.6550 -0.1627 -0.9502
  955MOL0     H31763   4.242   2.512   0.181 -0.7010 -3.7434  1.3213
  955MOL0     H31764   4.496   2.646   0.109 -0.5068  2.4039  0.4406
  955MOL0     H31765   4.329   2.721   0.086  0.5270  1.1171 -1.2722
  955MOL0     H31766   4.263   2.542  -0.061  1.2966 -0.2216 -3.4245
  955MOL0     H31767   4.412   2.463  -0.059 -0.7633 -0.8215 -1.7708
  955MOL0     H31768   4.414   2.600  -0.255  0.5552 -1.5589  1.0223
  955MOL0     H31769   4.512   2.691  -0.136 -0.3465 -0.3131  2.4953
  955MOL0     H31770   4.004   2.989   0.486 -3.0343  0.0871  0.1833
  955MOL0     H31771   3.957   3.220   0.503  1.3278 -0.2887 -1.4800
  955MOL0     H31772   4.071   3.604   0.847 -1.6585  1.9739  2.1414
  955MOL0     H31773   3.986   3.843   0.876 -0.4343 -1.1838  0.2865
  955MOL0     H31774   2.320   4.315   0.693 -0.0481 -0.2017 -0.2982
  955MOL0     H31775   2.070   4.258   0.722 -1.6903 -2.2615  0.1151
  955MOL0     H31776   1.715   3.958   0.747  2.1416 -1.4972 -0.9656
  955MOL0     H31777   1.463   3.934   0.735 -0.4885 -1.5858 -0.2377
  955MOL0     H31778   1.244   3.972   0.347  0.6267 -1.3560 -0.9546
  955MOL0     H31779   1.290   3.795   0.355 -0.1901 -1.1367 -0.0075
  955MOL0     H31780   1.074   3.752   0.462 -0.7015  0.1747 -3.0405
  955MOL0     H31781   1.035   3.883   0.338  0.1915  0.8481 -0.1275
  955MOL0     H31782   1.076   3.920   0.639  0.0103  1.9053  1.9234
  955MOL0     H31783   1.050   4.056   0.531 -1.1210  0.4447 -0.4123
  955MOL0     H31784   0.840   3.965   0.656 -3.5281 -0.5398 -1.4937
  955MOL0     H31785   0.870   3.813   0.555 -0.3521 -0.0723  0.5007
  955MOL0     H31786   0.712   4.105   0.281 -1.9092 -1.6124 -0.5025
  955MOL0     H31787   1.483   3.905   0.313 -1.6584 -0.2474  1.4007
  955MOL0     H31788   1.755   3.804   0.257 -0.7232 -0.3633  1.3884
  955MOL0     H31789   1.704   3.973   0.199  1.8266  1.0569 -0.2229
  955MOL0     H31790   1.853   3.952   0.277  0.5091 -0.0415 -0.8838
  956MOL0     O31791   3.813   2.605   7.680 -0.6740  0.7573 -0.2751
  956MOL0     C31792   3.751   2.711   7.654  0.6322  0.5727  0.2127
  956MOL0     O31793   3.808   2.832   7.627 -0.1969  0.4030  0.0069
  956MOL0     C31794   3.942   2.858   7.659  0.0028 -0.3242 -0.4042
  956MOL0     C31795   3.973   2.991   7.642  0.3231 -0.3350 -0.2257
  956MOL0     C31796   4.098   3.037   7.687  0.2484 -0.5008 -0.4998
  956MOL0     C31797   4.191   2.955   7.749  0.0715  0.4896 -0.9357
  956MOL0     O31798   4.319   2.992   7.792 -0.0504 -0.4561 -1.0085
  956MOL0     C31799   4.332   3.126   7.832  0.1744  0.1298 -0.2913
  956MOL0     C31800   4.402   3.154   7.966 -0.2986  0.4515  0.2319
  956MOL0     C31801   4.552   3.119   7.953  0.3390 -0.1475  0.7345
  956MOL0     C31802   4.628   3.143   8.073  0.8369 -0.3462  0.4210
  956MOL0     C31803   4.766   3.078   8.063 -0.4056  0.0284 -0.5945
  956MOL0     C31804   4.852   3.110   8.183  0.1041 -0.5506 -0.3973
  956MOL0     C31805   4.991   3.035   8.186  0.1561  0.3313  0.2245
  956MOL0     C31806   5.091   3.108   8.288  0.4328 -0.5769 -0.7023
  956MOL0     N31807   5.223   3.038   8.299  0.7000 -0.0164  0.8498
  956MOL0     C31808   5.338   3.110   8.276  0.6097  0.1037 -0.3495
  956MOL0     C31809   5.428   3.012   8.240  0.4017 -0.3965  0.6200
  956MOL0     C31810   5.571   3.022   8.210  0.0255 -0.5714 -0.9262
  956MOL0     C31811   5.638   3.158   8.252 -0.6557  0.6020  0.0196
  956MOL0     C31812   5.654   3.193   8.399 -0.3339 -0.4975 -0.7657
  956MOL0     C31813   5.751   3.307   8.412  0.7117 -0.6234  0.4303
  956MOL0     O31814   5.703   3.421   8.342 -0.4991 -0.2652  0.0857
  956MOL0     C31815   5.770   3.536   8.371  0.0122  0.3260  0.1720
  956MOL0     C31816   5.702   3.654   8.321  0.7654 -0.1860 -0.0349
  956MOL0     C31817   5.756   3.783   8.327  0.4594  0.7356 -0.8605
  956MOL0     C31818   5.676   3.900   8.273 -0.3270 -0.2814 -0.6213
  956MOL0     C31819   5.882   3.797   8.404 -0.2318  0.2864  1.0467
  956MOL0     C31820   5.942   3.920   8.441  0.4536 -0.4624  0.4608
  956MOL0     O31821   6.080   3.919   8.450 -0.5513 -0.7901  0.2610
  956MOL0     C31822   6.142   4.021   8.511 -0.0503  0.4559  0.2526
  956MOL0     C31823   6.239   3.983   8.603  0.4621 -0.1939 -0.2724
  956MOL0     C31824   6.327   4.072   8.666  0.7673 -0.0892 -0.3418
  956MOL0     C31825   6.299   4.206   8.641 -0.6212 -0.0198  0.3756
  956MOL0     O31826   6.360   4.299   8.717 -0.2812 -0.1699 -0.7340
  956MOL0     C31827   6.334   4.291   8.856  0.9387  0.3045 -0.8630
  956MOL0     C31828   6.331   4.435   8.915  0.1825 -0.4734 -0.0148
  956MOL0     C31829   6.460   4.502   8.885 -0.0224 -0.3433 -0.8188
  956MOL0     C31830   6.474   4.623   8.975  0.0883  0.6793 -0.7615
  956MOL0     C31831   6.393   4.744   8.925 -0.1390  0.5336 -0.6199
  956MOL0     C31832   6.400   4.859   9.035  0.7473  0.5307 -0.2208
  956MOL0     C31833   6.537   4.927   9.028  0.5625  0.1779 -0.6299
  956MOL0     C31834   6.549   5.052   9.113 -0.1929  0.2969  1.1991
  956MOL0    Cl31835   6.705   5.138   9.079  0.0674 -0.2558  0.1572
  956MOL0     C31836   6.208   4.244   8.548  0.6521  0.1141  0.1500
  956MOL0     C31837   6.127   4.155   8.482 -0.1970  0.1851 -0.0997
  956MOL0     O31838   5.868   4.006   8.493  0.3000  0.6658 -0.6139
  956MOL0     C31839   5.942   3.677   8.452  0.0874 -0.8517  0.2582
  956MOL0     C31840   5.891   3.554   8.434  0.1126  0.3750 -0.5917
  956MOL0     N31841   5.360   2.892   8.234 -0.1429 -0.0125 -0.8638
  956MOL0     N31842   5.243   2.908   8.282  0.3234  0.5246 -0.0729
  956MOL0     C31843   4.167   2.818   7.764 -0.9990  0.0808 -0.2514
  956MOL0     C31844   4.041   2.776   7.711  0.3609  0.6008 -0.0785
  956MOL0     C31845   3.602   2.707   7.663 -0.0899 -0.3859  0.8004
  956MOL0     C31846   3.532   2.814   7.716 -0.3174 -0.5554 -0.5973
  956MOL0     C31847   3.392   2.813   7.735 -0.5048 -0.2778 -0.3528
  956MOL0     C31848   3.319   2.703   7.703  0.4626  0.2871 -0.1146
  956MOL0     O31849   3.182   2.716   7.723  0.3899 -0.3836  0.2086
  956MOL0     C31850   3.111   2.588   7.732 -0.3772  0.7992  0.2219
  956MOL0     C31851   2.982   2.618   7.804 -0.1031 -0.1974  0.0080
  956MOL0     C31852   3.000   2.643   7.954  0.5822  0.1416  0.3495
  956MOL0     C31853   2.883   2.717   8.011 -0.8323 -0.4113  0.0837
  956MOL0     C31854   2.919   2.748   8.146  0.0554 -0.7722 -0.5751
  956MOL0     C31855   2.931   2.778   8.260  0.4595  0.1896 -0.3963
  956MOL0     C31856   3.379   2.592   7.643  0.0879  0.6204 -0.4691
  956MOL0     C31857   3.523   2.588   7.631 -0.1232  0.1355 -0.1659
  956MOL0     C31858   3.588   2.465   7.565 -0.3689  0.0230  0.1771
  956MOL0     H31859   3.912   3.071   7.602  2.5270  1.6127  0.0825
  956MOL0     H31860   4.122   3.143   7.677 -2.0071 -0.0799 -2.5611
  956MOL0     H31861   4.234   3.163   7.863  1.0451  0.0282  2.9166
  956MOL0     H31862   4.382   3.180   7.751 -0.4963 -0.9473 -1.4653
  956MOL0     H31863   4.396   3.256   8.005 -1.1648 -0.0320  1.4506
  956MOL0     H31864   4.361   3.101   8.053  3.1134  0.4438  1.9960
  956MOL0     H31865   4.563   3.015   7.923 -2.7549 -1.6114  3.8626
  956MOL0     H31866   4.596   3.180   7.873 -0.3070  1.4431  1.5360
  956MOL0     H31867   4.643   3.251   8.080  1.1385 -0.1890 -1.9703
  956MOL0     H31868   4.571   3.100   8.156 -0.3339 -1.2590 -0.8063
  956MOL0     H31869   4.812   3.099   7.966 -2.3869  1.0716 -1.3549
  956MOL0     H31870   4.740   2.972   8.059 -0.4227  0.0779 -3.6518
  956MOL0     H31871   4.862   3.218   8.190 -0.7310 -0.5076  0.2699
  956MOL0     H31872   4.787   3.094   8.270  1.1752  1.8865  0.9372
  956MOL0     H31873   5.038   3.049   8.088  2.3117  2.5847  1.4637
  956MOL0     H31874   4.975   2.930   8.213  0.0198  0.6020  1.2185
  956MOL0     H31875   5.095   3.216   8.271  1.8168  0.0627  2.7961
  956MOL0     H31876   5.037   3.100   8.383 -0.6692 -2.0884 -1.4189
  956MOL0     H31877   5.359   3.216   8.271 -0.4100  0.3914  0.8970
  956MOL0     H31878   5.569   3.026   8.101  1.0490 -1.4705 -0.9872
  956MOL0     H31879   5.625   2.933   8.242 -0.0246 -0.5205 -0.6923
  956MOL0     H31880   5.736   3.168   8.205  0.0883  3.2500  1.9436
  956MOL0     H31881   5.575   3.243   8.225 -0.1580  1.3295  1.1030
  956MOL0     H31882   5.556   3.225   8.436 -1.4868 -2.9318 -1.4907
  956MOL0     H31883   5.699   3.120   8.468  0.7192 -0.5774 -1.5001
  956MOL0     H31884   5.767   3.328   8.518  1.6195  0.1500  0.1580
  956MOL0     H31885   5.842   3.273   8.363 -0.0353 -1.6477 -0.2679
  956MOL0     H31886   5.604   3.643   8.275  0.3103 -1.7778  1.2328
  956MOL0     H31887   5.583   3.873   8.221 -0.1350 -0.1912 -1.0183
  956MOL0     H31888   5.737   3.952   8.198  0.1082  2.0431  1.2647
  956MOL0     H31889   5.652   3.967   8.356 -2.4740 -1.7047  0.0018
  956MOL0     H31890   6.243   3.878   8.630 -2.3490 -0.0011  1.2622
  956MOL0     H31891   6.397   4.039   8.742 -0.4953 -1.2800  0.3380
  956MOL0     H31892   6.236   4.246   8.872  0.4790  0.8018 -2.1360
  956MOL0     H31893   6.415   4.234   8.902  1.2247  0.9806 -0.5123
  956MOL0     H31894   6.248   4.497   8.881  0.0286  0.6152  2.1839
  956MOL0     H31895   6.312   4.428   9.023 -1.4116  1.7107 -0.0921
  956MOL0     H31896   6.475   4.523   8.779  0.9548  2.0586 -0.2708
  956MOL0     H31897   6.541   4.434   8.914  1.4052  0.6560 -2.3403
  956MOL0     H31898   6.579   4.638   9.004 -0.1667 -2.4196  2.4366
  956MOL0     H31899   6.436   4.592   9.073  0.3248  2.7341  0.0274
  956MOL0     H31900   6.418   4.782   8.825 -0.2935  1.2857 -0.3732
  956MOL0     H31901   6.290   4.708   8.916 -1.2948  3.0458  1.3375
  956MOL0     H31902   6.376   4.825   9.136  1.0030 -0.3651 -0.4584
  956MOL0     H31903   6.328   4.938   9.014  1.6270  1.0715 -1.3184
  956MOL0     H31904   6.566   4.955   8.927 -1.8259  0.4714 -1.2987
  956MOL0     H31905   6.615   4.860   9.065  1.6823  0.0833 -2.9871
  956MOL0     H31906   6.536   5.028   9.219  0.0668  0.9258  1.3800
  956MOL0     H31907   6.467   5.116   9.082  0.1751  0.3514  0.3070
  956MOL0     H31908   6.209   4.352   8.540  1.7635  0.0909 -0.2369
  956MOL0     H31909   6.056   4.178   8.403 -0.3272  0.2049  0.0229
  956MOL0     H31910   6.039   3.662   8.498 -0.1928 -3.1567  0.2271
  956MOL0     H31911   5.944   3.467   8.470  0.6789  1.6134  1.7810
  956MOL0     H31912   4.225   2.747   7.823 -2.3607  0.9592  2.2729
  956MOL0     H31913   4.026   2.669   7.701 -2.1842  1.0466 -2.5671
  956MOL0     H31914   3.586   2.905   7.739 -0.4628 -0.2743 -1.3472
  956MOL0     H31915   3.334   2.899   7.767 -1.8202 -1.6866  1.2507
  956MOL0     H31916   3.084   2.538   7.639 -3.6368  0.9407  0.9657
  956MOL0     H31917   3.172   2.522   7.795  1.0522  2.7218  0.9652
  956MOL0     H31918   2.930   2.523   7.796  1.2350 -0.9512 -0.0306
  956MOL0     H31919   2.935   2.695   7.741 -1.2274  0.5730  1.7172
  956MOL0     H31920   3.003   2.552   8.014 -0.2414 -0.3975 -0.3937
  956MOL0     H31921   3.086   2.708   7.973 -0.8799  2.4340 -0.4790
  956MOL0     H31922   2.784   2.672   8.015 -2.2924  2.6909  1.2676
  956MOL0     H31923   2.881   2.814   7.960  1.1044  0.7015  1.9451
  956MOL0     H31924   2.943   2.814   8.360 -1.7809  1.0006 -0.3695
  956MOL0     H31925   3.326   2.507   7.602 -0.9689  0.0997  1.7848
  956MOL0     H31926   3.510   2.401   7.521 -1.6030  1.4092  0.2995
  956MOL0     H31927   3.670   2.494   7.498  0.8883 -0.7616  1.3083
  956MOL0     H31928   3.645   2.402   7.634 -2.0694 -0.5368  1.1094
  957MOL0     O31929   3.765   6.123   6.775  0.5785  0.1750 -0.3892
  957MOL0     C31930   3.765   6.038   6.860  0.7313  0.7000 -0.5513
  957MOL0     O31931   3.812   6.047   6.983  0.6917  0.0527  0.1045
  957MOL0     C31932   3.855   6.160   7.044 -0.8114  0.5057  0.0585
  957MOL0     C31933   3.834   6.167   7.186 -0.1577  0.4133 -0.7548
  957MOL0     C31934   3.880   6.277   7.257 -0.1818  0.1922  0.2728
  957MOL0     C31935   3.949   6.380   7.191  0.3588  0.6959  0.1424
  957MOL0     O31936   3.994   6.496   7.252  0.0113  0.2164 -0.1068
  957MOL0     C31937   3.982   6.498   7.399 -0.5904 -0.5261  0.5073
  957MOL0     C31938   4.057   6.621   7.465 -0.2398 -0.7895  0.3983
  957MOL0     C31939   4.208   6.585   7.466 -0.9857 -0.2010  0.0222
  957MOL0     C31940   4.265   6.479   7.568 -0.8221  0.5896 -0.6048
  957MOL0     C31941   4.418   6.486   7.567 -0.0305 -0.3251  0.9911
  957MOL0     C31942   4.478   6.397   7.685  0.2651  0.3100 -0.3250
  957MOL0     C31943   4.489   6.472   7.819 -0.2158  0.4188  0.3634
  957MOL0     C31944   4.583   6.592   7.808  0.5862  0.2931  0.2518
  957MOL0     N31945   4.719   6.558   7.776  0.0943  0.0430 -0.9261
  957MOL0     C31946   4.789   6.461   7.858 -0.1976 -0.2357  0.2144
  957MOL0     C31947   4.910   6.458   7.820 -0.4068 -0.5303  0.3205
  957MOL0     C31948   5.019   6.363   7.875  1.0578  0.9456  0.0585
  957MOL0     C31949   5.139   6.438   7.933  0.2755 -0.4387  0.7002
  957MOL0     C31950   5.200   6.355   8.039  0.0752 -0.2325  0.6077
  957MOL0     C31951   5.252   6.220   7.990 -0.5180 -0.0113 -0.1906
  957MOL0     O31952   5.271   6.126   8.094 -0.6003 -0.0487  0.1794
  957MOL0     C31953   5.405   6.107   8.121  0.4158 -0.2420 -0.0586
  957MOL0     C31954   5.461   6.134   8.248  1.0039 -0.5674 -0.2230
  957MOL0     C31955   5.591   6.083   8.289  0.0641 -0.6503 -1.0215
  957MOL0     C31956   5.633   6.108   8.430  0.9177 -0.4130 -0.2171
  957MOL0     C31957   5.671   6.021   8.191 -0.5157  0.3156 -0.1276
  957MOL0     C31958   5.801   5.962   8.214 -1.0347 -0.2871 -0.3871
  957MOL0     O31959   5.809   5.833   8.164 -0.1283  0.4769  0.0896
  957MOL0     C31960   5.929   5.768   8.173 -0.5089 -0.6924  0.2145
  957MOL0     C31961   6.048   5.838   8.135  0.0746 -0.0335 -0.1926
  957MOL0     C31962   6.161   5.764   8.127  0.2274 -0.2831 -0.6992
  957MOL0     C31963   6.162   5.625   8.147 -0.2297  0.4505  0.4043
  957MOL0     O31964   6.277   5.546   8.125 -0.2687  0.2830  0.0849
  957MOL0     C31965   6.396   5.603   8.076 -0.5369 -0.4009 -0.0082
  957MOL0     C31966   6.505   5.489   8.085  0.4508  0.6302  0.3065
  957MOL0     C31967   6.647   5.545   8.067  0.0531  0.2822 -0.0440
  957MOL0     C31968   6.757   5.439   8.051 -0.5904 -0.3227  0.6105
  957MOL0     C31969   6.786   5.353   8.176 -0.2660  0.6774  0.4871
  957MOL0     C31970   6.899   5.254   8.150  0.5759  0.1118 -0.3124
  957MOL0     C31971   6.952   5.188   8.281  0.3436  0.4151  0.3112
  957MOL0     C31972   7.044   5.278   8.357 -0.0874  0.0640 -0.4845
  957MOL0    Cl31973   7.191   5.306   8.272 -0.2760  0.2026 -0.4106
  957MOL0     C31974   6.039   5.561   8.180  0.0040 -0.1345  0.5036
  957MOL0     C31975   5.922   5.631   8.194 -0.0197  0.0228 -0.0852
  957MOL0     O31976   5.881   6.014   8.295  0.0572 -0.1558  0.6175
  957MOL0     C31977   5.615   5.997   8.064  0.0145 -0.5472 -0.2638
  957MOL0     C31978   5.484   6.043   8.032 -0.8712  0.2409  0.4831
  957MOL0     N31979   4.926   6.546   7.710 -0.2052 -0.2835  0.7229
  957MOL0     N31980   4.813   6.612   7.698  0.5515  0.4796  0.7921
  957MOL0     C31981   3.970   6.375   7.059 -0.2544 -0.3723 -0.2339
  957MOL0     C31982   3.926   6.267   6.980  0.5310 -0.0508 -0.6093
  957MOL0     C31983   3.709   5.909   6.821  0.0268 -0.0791  0.3281
  957MOL0     C31984   3.653   5.831   6.919 -0.1307 -1.3862 -0.5251
  957MOL0     C31985   3.594   5.708   6.885 -0.6578  0.6436 -0.8751
  957MOL0     C31986   3.600   5.645   6.759 -0.0179  0.4604 -0.4538
  957MOL0     O31987   3.553   5.532   6.720  0.5278  0.5433  0.2475
  957MOL0     C31988   3.453   5.461   6.807 -0.6396 -0.5258  0.2253
  957MOL0     C31989   3.382   5.352   6.736 -0.1366  0.0238  0.1255
  957MOL0     C31990   3.381   5.226   6.826  0.4888  0.4987 -0.6366
  957MOL0     C31991   3.524   5.164   6.848 -0.1634  0.2963 -0.9085
  957MOL0     C31992   3.590   5.141   6.719  0.2404  0.2882 -0.0935
  957MOL0     C31993   3.642   5.120   6.615 -0.8883  0.9800 -0.3043
  957MOL0     C31994   3.676   5.717   6.669 -0.4916 -0.4975 -0.4719
  957MOL0     C31995   3.730   5.849   6.691  0.4892 -0.0039  0.0911
  957MOL0     C31996   3.806   5.911   6.573  0.5298 -0.0796 -0.5602
  957MOL0     H31997   3.793   6.076   7.229 -0.8716 -0.1967 -2.6309
  957MOL0     H31998   3.859   6.287   7.363 -1.5791 -1.7177  0.2233
  957MOL0     H31999   4.016   6.402   7.439 -0.4057 -0.0155  1.5755
  957MOL0     H32000   3.879   6.507   7.436 -0.9328 -2.0856  0.0297
  957MOL0     H32001   4.040   6.709   7.402  2.1155 -0.1920  0.4932
  957MOL0     H32002   4.029   6.639   7.570  1.4338 -1.2098  0.9575
  957MOL0     H32003   4.239   6.539   7.371 -0.7201 -0.3326  0.1716
  957MOL0     H32004   4.272   6.673   7.473  1.8560 -2.0180 -1.1598
  957MOL0     H32005   4.240   6.516   7.668 -0.4231  1.0845 -0.6782
  957MOL0     H32006   4.230   6.377   7.551  2.1567 -0.9298  1.5728
  957MOL0     H32007   4.435   6.592   7.588  1.8299 -0.8867  2.6231
  957MOL0     H32008   4.467   6.452   7.475  1.3450 -1.2846  2.0360
  957MOL0     H32009   4.420   6.305   7.689 -0.2733  0.6473 -0.2319
  957MOL0     H32010   4.580   6.371   7.657  0.9655  2.8919 -0.4901
  957MOL0     H32011   4.526   6.399   7.891  1.1812  0.3122 -0.4332
  957MOL0     H32012   4.389   6.494   7.860 -0.5846 -1.4663  0.5496
  957MOL0     H32013   4.543   6.660   7.732 -0.1859 -0.7365 -0.2761
  957MOL0     H32014   4.582   6.636   7.908  1.7609 -0.7053  0.7289
  957MOL0     H32015   4.757   6.396   7.939  2.7338  1.6099  3.0932
  957MOL0     H32016   5.055   6.303   7.791  0.1465  1.3455 -0.6385
  957MOL0     H32017   4.976   6.294   7.948 -1.0240  1.0546 -0.9768
  957MOL0     H32018   5.218   6.474   7.867 -0.6373 -1.1552 -0.8401
  957MOL0     H32019   5.095   6.533   7.967  0.7010 -0.1226  0.3892
  957MOL0     H32020   5.288   6.402   8.083  1.9779 -2.9754  0.0317
  957MOL0     H32021   5.127   6.340   8.119 -0.6155  0.5136  0.1326
  957MOL0     H32022   5.176   6.185   7.920  0.3867 -0.5787 -0.9189
  957MOL0     H32023   5.344   6.243   7.934 -1.1688  3.1224 -0.1135
  957MOL0     H32024   5.391   6.184   8.315 -0.2352 -0.7608 -1.3328
  957MOL0     H32025   5.722   6.171   8.425  0.9423 -0.5278 -1.6000
  957MOL0     H32026   5.652   6.014   8.483 -0.3550  0.3960  1.7823
  957MOL0     H32027   5.559   6.166   8.487 -0.2030 -0.0219 -1.9861
  957MOL0     H32028   6.039   5.943   8.109 -3.1286  0.0980  1.0750
  957MOL0     H32029   6.250   5.819   8.098  0.7496  0.4163  1.9635
  957MOL0     H32030   6.375   5.636   7.974  0.5821 -2.5772 -1.0269
  957MOL0     H32031   6.424   5.689   8.138  2.7687  1.2974 -3.4333
  957MOL0     H32032   6.490   5.438   8.180  0.3300  0.5943  0.2686
  957MOL0     H32033   6.488   5.413   8.007  0.4607  2.4939 -1.6025
  957MOL0     H32034   6.663   5.628   8.136 -0.6944  2.0447 -1.8872
  957MOL0     H32035   6.634   5.599   7.973 -2.6502  1.5586  0.9549
  957MOL0     H32036   6.850   5.487   8.021  0.3730 -1.7107  1.2955
  957MOL0     H32037   6.724   5.379   7.966 -3.2119  0.5694  0.9069
  957MOL0     H32038   6.807   5.428   8.253 -1.9908  1.7659 -0.0426
  957MOL0     H32039   6.695   5.299   8.203  1.0159 -0.3042  3.2270
  957MOL0     H32040   6.976   5.295   8.085  0.7170  0.9367  0.3510
  957MOL0     H32041   6.865   5.172   8.086 -0.1905  0.0617  0.1415
  957MOL0     H32042   7.004   5.092   8.270 -0.7078 -0.1648  0.3313
  957MOL0     H32043   6.867   5.159   8.343  1.5975 -0.2594  1.7791
  957MOL0     H32044   7.068   5.231   8.453  0.5263 -0.2131 -0.7664
  957MOL0     H32045   7.006   5.379   8.373 -1.3929  0.2327 -3.9328
  957MOL0     H32046   6.042   5.453   8.192  2.2004 -0.1139  0.4707
  957MOL0     H32047   5.826   5.593   8.228 -0.1365  0.8164  0.4963
  957MOL0     H32048   5.671   5.944   7.988 -0.7840  0.1193 -1.3527
  957MOL0     H32049   5.443   6.022   7.934 -0.0707 -0.3040  0.2485
  957MOL0     H32050   4.029   6.454   7.013  2.3601 -1.1846  1.4667
  957MOL0     H32051   3.943   6.259   6.873  0.3156  2.8742 -0.9237
  957MOL0     H32052   3.653   5.871   7.020 -1.7015  4.9623 -2.5425
  957MOL0     H32053   3.556   5.653   6.970  0.5209  1.9119  0.5399
  957MOL0     H32054   3.509   5.417   6.890 -2.4068 -3.1588  0.1389
  957MOL0     H32055   3.376   5.524   6.852 -2.0674 -2.0540 -0.0062
  957MOL0     H32056   3.426   5.325   6.639  1.3885 -1.9114  1.2647
  957MOL0     H32057   3.284   5.386   6.702  1.8276  2.1788 -4.1129
  957MOL0     H32058   3.345   5.241   6.929  0.4366 -0.0609 -0.5714
  957MOL0     H32059   3.306   5.155   6.790 -1.0386  1.1819  0.9862
  957MOL0     H32060   3.519   5.075   6.911 -0.5721  0.2153 -1.0509
  957MOL0     H32061   3.582   5.233   6.910  0.0098 -0.6859  0.0509
  957MOL0     H32062   3.700   5.085   6.532  1.9119 -0.9600  2.2381
  957MOL0     H32063   3.700   5.677   6.571  0.8081  3.2046 -1.8216
  957MOL0     H32064   3.772   6.014   6.560 -0.7130 -0.1055  1.8355
  957MOL0     H32065   3.915   5.908   6.581  0.4113  0.1597  2.3575
  957MOL0     H32066   3.767   5.873   6.478 -0.8920  2.6031 -1.1596
  958MOL0     O32067   5.895  11.191   6.127  0.2018 -0.1148 -0.4677
  958MOL0     C32068   5.917  11.103   6.213 -0.2353  0.0083  0.3456
  958MOL0     O32069   6.029  11.018   6.212  0.3550 -0.0244  0.3476
  958MOL0     C32070   6.102  10.992   6.099  0.1850 -0.3322 -0.7028
  958MOL0     C32071   6.034  10.955   5.987 -0.4159  0.2355 -0.1987
  958MOL0     C32072   6.101  10.936   5.866  0.5003  0.2727 -0.0579
  958MOL0     C32073   6.236  10.954   5.847 -0.6099 -0.7565 -0.4043
  958MOL0     O32074   6.285  10.916   5.722 -0.0622  0.0801 -0.7619
  958MOL0     C32075   6.414  10.957   5.685  1.0629 -0.5203  0.1798
  958MOL0     C32076   6.462  10.887   5.552 -0.4688 -0.1727 -0.4222
  958MOL0     C32077   6.602  10.910   5.520  0.7176 -0.6040 -0.2523
  958MOL0     C32078   6.659  10.809   5.414 -0.4957 -0.0426 -0.7766
  958MOL0     C32079   6.807  10.826   5.408 -1.1344  0.8983  0.1914
  958MOL0     C32080   6.853  10.786   5.262 -0.7184 -0.2778  0.3728
  958MOL0     C32081   6.842  10.899   5.162 -1.0686 -0.5278 -0.3114
  958MOL0     C32082   6.939  10.888   5.047 -0.6697 -0.6030 -0.5632
  958MOL0     N32083   7.083  10.921   5.085 -0.5710 -0.3399 -0.0462
  958MOL0     C32084   7.131  11.045   5.127  0.2493  0.0902 -0.1036
  958MOL0     C32085   7.267  11.027   5.150  0.9762  0.5366  0.7023
  958MOL0     C32086   7.357  11.133   5.214  0.3078 -0.2652 -0.3114
  958MOL0     C32087   7.500  11.136   5.163 -0.3360 -0.1885  0.4041
  958MOL0     C32088   7.570  11.254   5.236  0.5183 -0.4797 -0.2554
  958MOL0     C32089   7.722  11.252   5.209 -0.2358 -0.0407  0.3653
  958MOL0     O32090   7.780  11.157   5.299  0.4627  0.2609  0.5199
  958MOL0     C32091   7.912  11.142   5.292 -0.5250 -0.6819  0.4627
  958MOL0     C32092   8.008  11.215   5.203 -0.7413  0.2171 -0.3857
  958MOL0     C32093   8.148  11.189   5.205  0.5123 -0.0502 -0.4847
  958MOL0     C32094   8.239  11.261   5.110 -0.9262  0.1657 -0.4671
  958MOL0     C32095   8.196  11.086   5.294  0.2312 -0.1335  0.4825
  958MOL0     C32096   8.339  11.057   5.319  0.2041  0.2609 -0.0396
  958MOL0     O32097   8.370  10.954   5.413  0.1696  0.0706 -0.4206
  958MOL0     C32098   8.505  10.949   5.451  0.5583  0.3784  0.2520
  958MOL0     C32099   8.552  10.985   5.574 -0.2461  0.3207  0.2352
  958MOL0     C32100   8.692  11.000   5.594 -0.6124 -0.0474 -0.6811
  958MOL0     C32101   8.788  10.972   5.496 -0.6203  0.0906  0.5048
  958MOL0     O32102   8.931  10.997   5.526  0.7667  0.0117 -0.1729
  958MOL0     C32103   9.037  10.910   5.475 -0.3677 -0.1501 -0.8767
  958MOL0     C32104   9.174  10.946   5.547  0.1529  0.4175 -0.7646
  958MOL0     C32105   9.246  11.069   5.489  0.2510  0.5207  0.7146
  958MOL0     C32106   9.380  11.074   5.570  0.2835 -1.2279 -0.1254
  958MOL0     C32107   9.460  11.205   5.557 -0.6270 -0.7850 -0.2802
  958MOL0     C32108   9.605  11.189   5.603  0.6728  0.3698 -0.1554
  958MOL0     C32109   9.623  11.120   5.742 -0.4918 -0.2729  0.3013
  958MOL0     C32110   9.716  11.205   5.839 -0.4656  0.0569 -0.0044
  958MOL0    Cl32111   9.902  11.198   5.785  0.7281 -0.3367 -0.1256
  958MOL0     C32112   8.735  10.938   5.368 -0.5978  0.3577 -0.6394
  958MOL0     C32113   8.601  10.928   5.353 -0.1429  0.3563  1.0647
  958MOL0     O32114   8.419  11.125   5.260  0.3569  0.0975  1.2670
  958MOL0     C32115   8.101  11.017   5.372 -0.4717 -0.4547 -0.7084
  958MOL0     C32116   7.970  11.049   5.375  0.9248  0.0130  0.4639
  958MOL0     N32117   7.285  10.893   5.136  0.5663  0.3013 -0.1397
  958MOL0     N32118   7.182  10.826   5.098 -0.4206 -0.5173 -0.1975
  958MOL0     C32119   6.301  11.004   5.960 -0.3370  0.1685  0.6928
  958MOL0     C32120   6.244  11.014   6.087 -0.0252  0.1617  0.5810
  958MOL0     C32121   5.818  11.082   6.314 -0.8402  0.8919  0.9161
  958MOL0     C32122   5.680  11.064   6.260 -0.2167 -0.4861 -0.7071
  958MOL0     C32123   5.576  11.048   6.351 -0.2948 -0.2110  0.4347
  958MOL0     C32124   5.599  11.034   6.489 -0.6405 -0.0056  0.4039
  958MOL0     O32125   5.496  11.020   6.576  0.5515 -0.8954  0.3284
  958MOL0     C32126   5.524  10.951   6.694 -0.3920 -0.2485 -0.2055
  958MOL0     C32127   5.397  10.882   6.728  0.9890  0.1127 -0.0814
  958MOL0     C32128   5.282  10.980   6.767 -0.9759  0.4184 -0.1706
  958MOL0     C32129   5.142  10.909   6.764  0.8735  0.0019 -0.6159
  958MOL0     C32130   5.043  11.009   6.786  1.2668 -0.5203 -0.0742
  958MOL0     C32131   4.938  11.071   6.814  0.1946 -0.3761 -0.1278
  958MOL0     C32132   5.738  11.044   6.537  0.5916  0.7933  0.3557
  958MOL0     C32133   5.847  11.067   6.455  0.2094  0.3514  0.3019
  958MOL0     C32134   5.983  11.067   6.515 -0.3322  0.2973  0.5766
  958MOL0     H32135   5.929  10.927   5.988 -0.7738  1.4932 -0.4720
  958MOL0     H32136   6.048  10.895   5.781  1.3725 -0.1645 -0.3982
  958MOL0     H32137   6.488  10.926   5.760  2.1975  0.2491 -0.5792
  958MOL0     H32138   6.420  11.065   5.670  0.0394 -0.6538 -1.3518
  958MOL0     H32139   6.455  10.778   5.558  1.4445 -0.3015 -0.0468
  958MOL0     H32140   6.401  10.917   5.466 -1.3960  1.6248  0.8046
  958MOL0     H32141   6.619  11.014   5.490  0.2654  0.5054  2.9901
  958MOL0     H32142   6.645  10.895   5.619 -1.9509  2.8601  1.6534
  958MOL0     H32143   6.636  10.703   5.430 -1.7128  0.5946  2.4877
  958MOL0     H32144   6.624  10.842   5.316  2.0333 -0.3254 -1.8586
  958MOL0     H32145   6.855  10.766   5.486  1.4234  0.6226 -1.4663
  958MOL0     H32146   6.829  10.932   5.428  1.3118  0.8472 -1.6864
  958MOL0     H32147   6.956  10.752   5.269  0.4193  2.9151  0.5623
  958MOL0     H32148   6.795  10.703   5.219 -0.5607  0.1139 -0.6286
  958MOL0     H32149   6.866  10.992   5.214  2.5447 -0.8006 -1.2492
  958MOL0     H32150   6.741  10.889   5.122 -1.6849  2.2694  0.3288
  958MOL0     H32151   6.947  10.782   5.025 -0.2958 -1.1785  2.0430
  958MOL0     H32152   6.905  10.951   4.963  2.3951  0.6037 -1.0293
  958MOL0     H32153   7.077  11.138   5.142 -0.6766 -0.6597  1.5085
  958MOL0     H32154   7.358  11.116   5.322  0.3453  2.6802  0.2293
  958MOL0     H32155   7.315  11.233   5.203  3.8752  1.2666 -1.5464
  958MOL0     H32156   7.545  11.038   5.181 -1.5661 -0.5649  1.6149
  958MOL0     H32157   7.506  11.160   5.056  1.9231 -3.8359 -0.4647
  958MOL0     H32158   7.532  11.350   5.201  0.6866 -0.7100 -1.1201
  958MOL0     H32159   7.540  11.256   5.341  0.7076  0.4327 -0.2150
  958MOL0     H32160   7.748  11.223   5.108  1.1044 -0.9377  0.9526
  958MOL0     H32161   7.772  11.345   5.239  1.2165  0.2334 -2.6269
  958MOL0     H32162   7.974  11.288   5.130 -4.3581  1.4498  2.2798
  958MOL0     H32163   8.320  11.318   5.156  1.0499  1.1742 -4.7402
  958MOL0     H32164   8.177  11.340   5.065  0.1421  1.8812  0.9073
  958MOL0     H32165   8.280  11.193   5.036  0.9699  3.8783 -3.1523
  958MOL0     H32166   8.493  11.005   5.663  1.3252  2.2045  0.9404
  958MOL0     H32167   8.734  11.035   5.687  1.6935  0.7329 -1.9345
  958MOL0     H32168   9.010  10.809   5.507 -1.3951  0.1967 -0.5908
  958MOL0     H32169   9.042  10.905   5.366 -0.4406 -2.4006 -0.8231
  958MOL0     H32170   9.155  10.968   5.652 -2.6129 -0.6349 -0.9551
  958MOL0     H32171   9.245  10.863   5.535  1.9373  1.5266  1.4526
  958MOL0     H32172   9.172  11.148   5.498 -1.7049 -0.8772 -1.7395
  958MOL0     H32173   9.270  11.063   5.382 -0.3279  2.9278  0.4002
  958MOL0     H32174   9.439  10.997   5.520 -1.4686  0.3345 -5.2065
  958MOL0     H32175   9.353  11.067   5.676 -0.3478  1.2251 -0.0555
  958MOL0     H32176   9.449  11.226   5.450  1.5448  0.5003 -0.3064
  958MOL0     H32177   9.413  11.291   5.604  0.1400 -1.6142  2.1347
  958MOL0     H32178   9.660  11.284   5.601  3.4782 -1.0645  2.0191
  958MOL0     H32179   9.658  11.143   5.519 -0.0399  0.0069 -0.4089
  958MOL0     H32180   9.666  11.020   5.730  3.5031  1.3157 -0.1941
  958MOL0     H32181   9.527  11.121   5.793  0.4132 -0.6754  2.1173
  958MOL0     H32182   9.695  11.154   5.933 -0.8576 -0.9056 -0.6039
  958MOL0     H32183   9.702  11.312   5.857  4.5779  1.1770 -1.0901
  958MOL0     H32184   8.806  10.903   5.294  1.2605  0.3623  1.0582
  958MOL0     H32185   8.576  10.901   5.251  1.3565 -0.7400  0.9440
  958MOL0     H32186   8.118  10.946   5.452 -2.6354  0.5511  0.7634
  958MOL0     H32187   7.906  10.992   5.442  0.8131 -1.6407 -0.9809
  958MOL0     H32188   6.408  11.021   5.957 -0.3611  0.4910  1.3536
  958MOL0     H32189   6.309  11.066   6.156  1.5327 -1.4057  0.3759
  958MOL0     H32190   5.668  11.070   6.152  2.5863 -0.7066 -1.1051
  958MOL0     H32191   5.480  11.042   6.301 -0.4089  1.3099  0.4137
  958MOL0     H32192   5.590  10.866   6.673 -1.0731 -0.4844 -1.4600
  958MOL0     H32193   5.571  11.021   6.765 -1.1942  0.3969 -0.2960
  958MOL0     H32194   5.406  10.807   6.808 -0.6824 -0.4835 -0.4135
  958MOL0     H32195   5.361  10.821   6.645  1.8447 -0.4157 -0.0718
  958MOL0     H32196   5.303  11.018   6.868  1.5700 -2.6202  0.6064
  958MOL0     H32197   5.281  11.069   6.704  1.0604  0.6845  0.1011
  958MOL0     H32198   5.124  10.839   6.846 -0.8923 -0.9511 -1.7650
  958MOL0     H32199   5.119  10.853   6.673  0.0335  0.3401 -0.6131
  958MOL0     H32200   4.858  11.127   6.857  0.3993  1.2922 -1.8119
  958MOL0     H32201   5.769  11.038   6.641 -3.2912  2.2068  1.7834
  958MOL0     H32202   6.018  11.171   6.505  3.5994 -0.9490 -0.4295
  958MOL0     H32203   5.981  11.034   6.619  1.9285 -1.1362  0.2411
  958MOL0     H32204   6.039  10.993   6.458 -2.6786 -1.6748  0.6812
  959MOL0     O32205   9.629   0.709   5.135 -0.0463  0.1927  0.4260
  959MOL0     C32206   9.581   0.794   5.058 -1.3053  0.0342 -1.2013
  959MOL0     O32207   9.664   0.877   4.979  0.8612 -0.5446  0.5648
  959MOL0     C32208   9.785   0.831   4.946 -0.4398  0.2466 -0.0113
  959MOL0     C32209   9.813   0.804   4.813 -0.4032 -0.2154  0.6369
  959MOL0     C32210   9.939   0.754   4.766  0.4408  0.6386 -0.4220
  959MOL0     C32211  10.036   0.726   4.855  1.0002  0.2993 -0.6763
  959MOL0     O32212  10.158   0.677   4.829  0.2502 -0.1358  0.2026
  959MOL0     C32213  10.180   0.599   4.705  0.2308 -0.2774 -0.2560
  959MOL0     C32214  10.312   0.521   4.714  0.2555 -0.1306  0.4936
  959MOL0     C32215  10.429   0.613   4.745 -0.6333 -0.3459  0.1808
  959MOL0     C32216  10.558   0.541   4.762 -0.4807  0.5843 -0.5427
  959MOL0     C32217  10.668   0.646   4.787  0.1865 -0.0578 -0.6365
  959MOL0     C32218  10.824   0.610   4.791  0.2701  0.7462  0.7094
  959MOL0     C32219  10.839   0.481   4.873  0.5558  0.7410  0.8542
  959MOL0     C32220  10.812   0.494   5.026 -0.6292  0.0527  0.5481
  959MOL0     N32221  10.896   0.599   5.077 -0.4057  0.3218  0.0631
  959MOL0     C32222  11.030   0.596   5.083  0.0042 -0.3697 -0.2345
  959MOL0     C32223  11.060   0.698   5.169  0.5574 -0.8206 -0.4351
  959MOL0     C32224  11.195   0.732   5.225  0.2261  0.3675  0.5479
  959MOL0     C32225  11.235   0.656   5.349 -0.9154  0.0613 -0.2175
  959MOL0     C32226  11.378   0.710   5.399  0.7301  0.0674 -0.1846
  959MOL0     C32227  11.405   0.633   5.522  0.0989  0.6691  1.0518
  959MOL0     O32228  11.457   0.498   5.497 -0.7180 -1.0177 -0.3759
  959MOL0     C32229  11.597   0.476   5.492  0.4945  0.0391 -0.2160
  959MOL0     C32230  11.649   0.351   5.530  0.7132  0.0547 -0.4600
  959MOL0     C32231  11.785   0.328   5.538  0.4916 -0.8763 -0.0120
  959MOL0     C32232  11.832   0.207   5.614  0.1674  0.3384  0.2357
  959MOL0     C32233  11.875   0.427   5.491  0.4350 -0.4067  0.2393
  959MOL0     C32234  12.024   0.412   5.492  0.6785 -0.4483  0.3526
  959MOL0     O32235  12.099   0.515   5.468  0.1363 -0.6227  0.5748
  959MOL0     C32236  12.235   0.492   5.484  0.3980 -0.4854  0.0789
  959MOL0     C32237  12.299   0.439   5.597  0.2430  1.1212  0.3761
  959MOL0     C32238  12.435   0.435   5.603  0.2797 -0.0398  0.3349
  959MOL0     C32239  12.518   0.491   5.504  0.1463 -0.2301  0.5387
  959MOL0     O32240  12.649   0.477   5.522  0.8075  0.4103 -0.0864
  959MOL0     C32241  12.733   0.472   5.407  0.5086 -0.1474  0.0318
  959MOL0     C32242  12.866   0.413   5.461 -0.0856 -0.0875  0.5725
  959MOL0     C32243  12.960   0.376   5.352  1.0167 -0.1550 -0.0148
  959MOL0     C32244  13.019   0.492   5.271  0.4424  0.2773  0.4635
  959MOL0     C32245  13.128   0.464   5.167  0.1719  0.2135  0.2468
  959MOL0     C32246  13.262   0.429   5.229 -0.0240 -0.1275  0.0635
  959MOL0     C32247  13.376   0.499   5.168  0.0289 -1.0584  0.9550
  959MOL0     C32248  13.449   0.419   5.057  0.3566 -0.4066  0.0518
  959MOL0    Cl32249  13.534   0.536   4.957 -0.1100 -0.3767 -0.5378
  959MOL0     C32250  12.452   0.543   5.388 -0.0747  0.3087 -0.2901
  959MOL0     C32251  12.317   0.548   5.386  1.2553 -0.2303 -0.1077
  959MOL0     O32252  12.062   0.297   5.498 -0.5679 -0.8602  1.1916
  959MOL0     C32253  11.821   0.547   5.456 -0.0498 -0.3837 -0.3993
  959MOL0     C32254  11.687   0.576   5.455 -0.1058  0.4761  1.5921
  959MOL0     N32255  10.942   0.764   5.186 -0.9852  0.6378  0.0493
  959MOL0     N32256  10.837   0.700   5.142 -0.4435 -0.2715  0.3096
  959MOL0     C32257  10.010   0.760   4.989  0.1549  0.3804  0.0659
  959MOL0     C32258   9.886   0.802   5.042  0.3041 -0.8237  0.3698
  959MOL0     C32259   9.435   0.827   5.065  0.8101 -0.0026 -0.6303
  959MOL0     C32260   9.377   0.935   5.002  0.5024  0.2738 -0.2421
  959MOL0     C32261   9.241   0.964   5.019  0.4044  0.4109  0.2193
  959MOL0     C32262   9.148   0.890   5.100 -0.1313 -0.4682 -0.7411
  959MOL0     O32263   9.017   0.941   5.108  0.4523 -0.3369  0.1970
  959MOL0     C32264   8.942   0.896   5.225  0.1286 -0.1369  0.0187
  959MOL0     C32265   8.797   0.929   5.202 -0.0385 -0.1153  0.7507
  959MOL0     C32266   8.779   1.090   5.230  0.1235  0.3442  0.6337
  959MOL0     C32267   8.808   1.175   5.103 -0.2409 -0.4890  0.3562
  959MOL0     C32268   8.761   1.316   5.125 -0.7722 -0.3636 -0.0445
  959MOL0     C32269   8.720   1.432   5.134 -0.8301 -0.4801  1.0447
  959MOL0     C32270   9.199   0.777   5.162  0.8016  0.3690  0.5209
  959MOL0     C32271   9.342   0.744   5.144 -0.3583 -0.1510 -0.8123
  959MOL0     C32272   9.382   0.610   5.220 -0.4708 -0.9440 -0.2401
  959MOL0     H32273   9.726   0.818   4.749  1.0267 -0.8527 -1.5773
  959MOL0     H32274   9.952   0.740   4.659  1.6232  1.1180 -0.3616
  959MOL0     H32275  10.181   0.677   4.629 -2.6089  2.4377  2.2150
  959MOL0     H32276  10.097   0.529   4.698  0.0908 -0.2776  1.0230
  959MOL0     H32277  10.287   0.435   4.776 -0.5079 -2.1188 -2.3903
  959MOL0     H32278  10.337   0.471   4.620 -0.6402 -1.0543  0.7283
  959MOL0     H32279  10.447   0.682   4.662  3.8450 -2.6610 -1.0946
  959MOL0     H32280  10.413   0.678   4.832  1.8487  1.1353 -0.3706
  959MOL0     H32281  10.554   0.482   4.854 -2.1822 -0.7058 -1.3787
  959MOL0     H32282  10.580   0.476   4.677 -1.0393 -1.1524  0.5909
  959MOL0     H32283  10.641   0.685   4.886 -0.9041 -2.9485  0.3260
  959MOL0     H32284  10.666   0.729   4.717  3.5807  1.7594  1.1619
  959MOL0     H32285  10.870   0.594   4.693 -1.0852  0.0017  0.1630
  959MOL0     H32286  10.875   0.698   4.830  0.7536  0.8484 -0.1401
  959MOL0     H32287  10.938   0.440   4.847  0.1724  0.1124  0.3569
  959MOL0     H32288  10.773   0.405   4.829 -0.1303  1.3675  0.7906
  959MOL0     H32289  10.708   0.519   5.048 -0.5108  0.3990  0.7286
  959MOL0     H32290  10.847   0.401   5.070  1.3910 -0.5376 -2.0206
  959MOL0     H32291  11.086   0.517   5.034  0.9217 -1.1506  1.9501
  959MOL0     H32292  11.185   0.839   5.246 -3.0031  0.0293  1.2946
  959MOL0     H32293  11.273   0.720   5.150 -1.0877 -0.8423 -0.6749
  959MOL0     H32294  11.158   0.683   5.422  0.7955  4.5211  0.2933
  959MOL0     H32295  11.233   0.548   5.338  2.4211 -0.1719  0.2366
  959MOL0     H32296  11.458   0.700   5.325  3.0685  0.7535  2.0937
  959MOL0     H32297  11.374   0.815   5.429 -0.4105  0.3679 -1.2870
  959MOL0     H32298  11.467   0.690   5.592 -0.1751  0.4103  1.5068
  959MOL0     H32299  11.308   0.613   5.569  1.2675  0.1176  3.3842
  959MOL0     H32300  11.582   0.276   5.572  0.5732  1.2351  1.5371
  959MOL0     H32301  11.878   0.139   5.542 -1.8626 -1.3721  0.4584
  959MOL0     H32302  11.750   0.165   5.674 -0.0932  1.1102  0.4372
  959MOL0     H32303  11.910   0.236   5.685  0.7778 -2.3387  0.7651
  959MOL0     H32304  12.240   0.394   5.676  0.7070 -2.3500 -1.0373
  959MOL0     H32305  12.474   0.378   5.687 -1.1566  1.8728  2.4269
  959MOL0     H32306  12.691   0.413   5.325  2.2531  1.3532 -2.0555
  959MOL0     H32307  12.741   0.576   5.374  1.8235  0.3849  1.8574
  959MOL0     H32308  12.930   0.477   5.523  2.1792  0.3468 -2.0294
  959MOL0     H32309  12.846   0.325   5.524 -1.0372 -0.1047  0.2667
  959MOL0     H32310  12.915   0.301   5.285  1.3009 -1.7615  1.5091
  959MOL0     H32311  13.050   0.331   5.394  1.6817  0.2090 -1.0188
  959MOL0     H32312  13.051   0.570   5.340 -0.1282  1.0082 -0.0817
  959MOL0     H32313  12.943   0.539   5.208  0.7785 -2.4484 -2.2301
  959MOL0     H32314  13.090   0.390   5.097 -1.5513  1.4536 -0.2017
  959MOL0     H32315  13.146   0.553   5.106 -0.1567 -0.9776 -1.6444
  959MOL0     H32316  13.269   0.320   5.235 -1.8135 -0.2121  1.4675
  959MOL0     H32317  13.253   0.465   5.332 -1.1737 -0.4262  0.0816
  959MOL0     H32318  13.438   0.530   5.253 -0.9220  2.5794  0.5205
  959MOL0     H32319  13.347   0.599   5.133  1.3742 -0.3882  1.6722
  959MOL0     H32320  13.383   0.361   4.992  0.2455 -0.0180 -0.1833
  959MOL0     H32321  13.518   0.343   5.095  2.6133 -0.2655 -3.3154
  959MOL0     H32322  12.513   0.578   5.305  0.2217 -1.4712 -0.8485
  959MOL0     H32323  12.264   0.581   5.297 -1.5170  3.9456  2.7082
  959MOL0     H32324  11.882   0.628   5.419 -0.7967  0.2420 -0.3001
  959MOL0     H32325  11.664   0.675   5.417 -0.0679  0.1193  0.5897
  959MOL0     H32326  10.092   0.747   5.059  1.7903  2.1040 -1.4134
  959MOL0     H32327   9.873   0.832   5.145 -1.9609  3.2468 -0.9000
  959MOL0     H32328   9.428   1.019   4.957 -1.5243  1.2177 -0.8895
  959MOL0     H32329   9.194   1.046   4.966  2.1035  1.0247 -0.4086
  959MOL0     H32330   8.946   0.788   5.237 -0.5202 -0.4332 -2.0422
  959MOL0     H32331   8.982   0.944   5.315  0.3849  0.5472 -0.4521
  959MOL0     H32332   8.737   0.865   5.266 -0.7984  0.1398  0.3098
  959MOL0     H32333   8.765   0.896   5.103 -1.3884 -2.0650  1.7852
  959MOL0     H32334   8.673   1.104   5.254  0.5542 -0.7739  3.5148
  959MOL0     H32335   8.832   1.137   5.313 -1.3025 -3.3198  3.9299
  959MOL0     H32336   8.758   1.133   5.015  1.8384 -1.9881 -0.1930
  959MOL0     H32337   8.916   1.181   5.086 -0.4750 -0.9580 -1.6008
  959MOL0     H32338   8.664   1.522   5.147  0.4002  0.4717 -0.0598
  959MOL0     H32339   9.137   0.714   5.225  2.8500 -0.7971  1.4802
  959MOL0     H32340   9.444   0.545   5.157  0.9897  0.2598 -0.0848
  959MOL0     H32341   9.439   0.618   5.313  1.9518 -0.4780 -1.6842
  959MOL0     H32342   9.292   0.555   5.250 -1.6557  0.3441 -1.3001
  960MOL0     O32343  10.102   1.909   7.862 -0.1126  0.1000 -0.4430
  960MOL0     C32344  10.075   1.987   7.959 -0.2465  0.6511 -0.4358
  960MOL0     O32345  10.168   2.039   8.038  0.4746  0.2913 -0.1845
  960MOL0     C32346  10.294   1.986   8.045  0.4190 -0.1022 -0.2570
  960MOL0     C32347  10.342   1.863   7.999 -0.1690 -0.0995 -1.0929
  960MOL0     C32348  10.482   1.833   8.012 -0.5431 -0.1302 -0.6174
  960MOL0     C32349  10.575   1.920   8.060  0.8323  0.4475  0.0533
  960MOL0     O32350  10.710   1.882   8.058  0.0285  0.2873 -0.1750
  960MOL0     C32351  10.805   1.972   8.102  0.0615 -0.6022  0.0971
  960MOL0     C32352  10.942   1.910   8.094  0.0755  0.6341  1.1974
  960MOL0     C32353  11.043   2.021   8.131 -0.1736 -0.6823  0.1483
  960MOL0     C32354  11.182   1.958   8.113  0.3277 -0.2885 -0.7686
  960MOL0     C32355  11.301   2.056   8.133  0.2940 -0.7462  0.5413
  960MOL0     C32356  11.435   1.989   8.114  0.5189 -0.1186  0.6357
  960MOL0     C32357  11.554   2.082   8.145  0.9376  0.6415  0.2905
  960MOL0     C32358  11.672   2.004   8.110 -0.5334 -0.5910  0.2384
  960MOL0     N32359  11.800   2.052   8.156 -0.7969 -0.1439 -0.0768
  960MOL0     C32360  11.914   2.070   8.069 -0.4100 -0.3567 -0.2036
  960MOL0     C32361  12.017   2.099   8.155  0.9374 -1.0496  1.0243
  960MOL0     C32362  12.159   2.135   8.114  0.8334 -0.3908  0.6840
  960MOL0     C32363  12.229   2.036   8.014 -0.0275 -0.5416  0.2980
  960MOL0     C32364  12.383   2.057   8.027  0.2300  0.5269  0.1000
  960MOL0     C32365  12.459   1.972   7.920 -0.7045 -0.0079  0.1025
  960MOL0     O32366  12.596   2.020   7.906  0.0479 -0.2765 -0.2609
  960MOL0     C32367  12.686   2.063   8.003  0.8832  0.3064 -0.2646
  960MOL0     C32368  12.775   2.147   7.958 -0.5391 -0.1626  0.2909
  960MOL0     C32369  12.876   2.206   8.042 -0.4118 -0.1240 -0.4767
  960MOL0     C32370  12.982   2.288   7.964  0.1731 -0.0574 -1.0728
  960MOL0     C32371  12.882   2.172   8.180 -0.9134 -0.7029 -0.3484
  960MOL0     C32372  12.976   2.234   8.272  0.3944  0.5709  1.1694
  960MOL0     O32373  13.039   2.145   8.352  0.3362  0.1410  0.1771
  960MOL0     C32374  13.120   2.189   8.455  0.3041 -1.1603  0.9639
  960MOL0     C32375  13.111   2.134   8.585 -0.1340  0.7611 -0.3993
  960MOL0     C32376  13.184   2.178   8.697 -0.6003  0.2954 -0.4301
  960MOL0     C32377  13.261   2.289   8.671  0.8157 -0.0648 -0.0255
  960MOL0     O32378  13.331   2.346   8.765  0.3930 -0.3817  0.8609
  960MOL0     C32379  13.276   2.404   8.880 -0.1218 -0.3209 -0.0499
  960MOL0     C32380  13.378   2.503   8.944  0.1036 -0.0884 -0.6080
  960MOL0     C32381  13.528   2.459   8.940 -0.0187  0.0852  0.3102
  960MOL0     C32382  13.559   2.352   9.042 -0.1995 -0.4444  0.3138
  960MOL0     C32383  13.704   2.321   9.061 -0.1835  0.2144  0.4050
  960MOL0     C32384  13.768   2.234   8.950 -0.5459 -0.8422  0.0047
  960MOL0     C32385  13.918   2.215   8.965 -0.4179 -0.0829  1.2490
  960MOL0     C32386  13.977   2.135   8.847  0.2914 -0.9823  0.0053
  960MOL0    Cl32387  14.005   2.240   8.701 -0.2922  0.0044 -0.0075
  960MOL0     C32388  13.284   2.341   8.544 -0.6735 -0.1943 -1.0639
  960MOL0     C32389  13.217   2.289   8.433 -0.2692  0.1448  0.6465
  960MOL0     O32390  12.988   2.353   8.272 -0.5297  0.0044 -0.2696
  960MOL0     C32391  12.790   2.075   8.222  0.5157 -0.4603  0.3383
  960MOL0     C32392  12.682   2.028   8.138 -0.6020 -0.5122  0.3752
  960MOL0     N32393  11.966   2.095   8.282  0.5354  0.2954  0.5900
  960MOL0     N32394  11.840   2.074   8.284 -0.7548  0.9613  0.1500
  960MOL0     C32395  10.530   2.043   8.092  0.3848  0.0020 -0.0446
  960MOL0     C32396  10.395   2.078   8.094  0.8862  0.5641  0.1030
  960MOL0     C32397   9.934   2.042   7.962 -0.1133  0.7327 -0.1819
  960MOL0     C32398   9.914   2.178   7.984 -0.1142  0.1596 -0.2675
  960MOL0     C32399   9.790   2.235   7.960  0.8054  0.1351 -0.5330
  960MOL0     C32400   9.679   2.157   7.926  0.2440  0.3188 -0.8030
  960MOL0     O32401   9.562   2.230   7.934  0.6992  0.5772 -0.5218
  960MOL0     C32402   9.440   2.162   7.893 -0.4198 -0.9514 -0.7030
  960MOL0     C32403   9.426   2.139   7.741 -0.5121 -1.3974  0.7445
  960MOL0     C32404   9.282   2.147   7.687 -1.0975 -0.1273  0.7898
  960MOL0     C32405   9.298   2.160   7.528 -0.5943  0.0021 -0.9372
  960MOL0     C32406   9.165   2.127   7.480  0.3150  0.2069 -0.6879
  960MOL0     C32407   9.062   2.084   7.430  0.5288 -0.1313 -0.1001
  960MOL0     C32408   9.696   2.019   7.908 -0.2495 -0.6966  0.0415
  960MOL0     C32409   9.824   1.961   7.933  0.1615  0.0903  0.2450
  960MOL0     C32410   9.828   1.806   7.928 -0.1628  1.4013 -0.1600
  960MOL0     H32411  10.269   1.789   7.965 -1.1308  1.0485 -1.6073
  960MOL0     H32412  10.528   1.740   7.979 -0.8711 -0.1652 -0.9822
  960MOL0     H32413  10.792   2.013   8.203  0.9370 -0.7256  0.2695
  960MOL0     H32414  10.804   2.064   8.042 -1.8092 -1.2726 -0.9920
  960MOL0     H32415  10.948   1.818   8.154  0.0344  0.4163  0.8715
  960MOL0     H32416  10.946   1.873   7.991  0.2651 -0.6705  1.6498
  960MOL0     H32417  11.025   2.105   8.064  0.7743 -3.8748 -4.6207
  960MOL0     H32418  11.029   2.050   8.235 -0.5137  0.3941 -0.1942
  960MOL0     H32419  11.198   1.875   8.183  0.9631 -0.2184 -0.8271
  960MOL0     H32420  11.191   1.916   8.012  1.3952  0.6909 -1.1005
  960MOL0     H32421  11.287   2.098   8.233 -1.0817  1.5950 -0.5393
  960MOL0     H32422  11.291   2.133   8.056 -0.0320 -0.3074  1.0102
  960MOL0     H32423  11.450   1.904   8.180  3.6922 -0.3817 -0.2392
  960MOL0     H32424  11.440   1.943   8.015  0.8560 -1.6191  1.3237
  960MOL0     H32425  11.561   2.105   8.252 -2.7264 -0.0122  0.7859
  960MOL0     H32426  11.550   2.173   8.085  0.4179  0.7829  0.5358
  960MOL0     H32427  11.654   1.902   8.143 -2.9258 -0.5154 -0.6327
  960MOL0     H32428  11.684   1.998   8.001 -1.4888  0.4778  0.0517
  960MOL0     H32429  11.922   2.061   7.961  0.7186 -2.3609 -0.0047
  960MOL0     H32430  12.215   2.133   8.207  0.0615 -1.8240  1.1353
  960MOL0     H32431  12.163   2.235   8.069  0.6086 -0.2173  1.0480
  960MOL0     H32432  12.209   1.930   8.035  0.5727 -0.8124 -0.4328
  960MOL0     H32433  12.180   2.051   7.917 -2.0042 -1.2768  1.1158
  960MOL0     H32434  12.403   2.162   8.002  0.2026  1.4020  3.3092
  960MOL0     H32435  12.420   2.029   8.126  1.3190  0.3115 -0.3544
  960MOL0     H32436  12.437   1.868   7.944  2.7678  0.0213  5.0717
  960MOL0     H32437  12.408   1.998   7.827  3.3399  1.8794 -1.8196
  960MOL0     H32438  12.781   2.173   7.853 -0.7260 -2.5247 -0.3631
  960MOL0     H32439  12.954   2.392   7.945 -2.2555 -0.9781 -3.2107
  960MOL0     H32440  12.981   2.265   7.857 -1.5710 -0.0494 -1.0878
  960MOL0     H32441  13.080   2.277   8.010 -0.1648  2.8097  0.6008
  960MOL0     H32442  13.032   2.060   8.595 -2.6185  3.3716  0.7133
  960MOL0     H32443  13.190   2.143   8.799  0.0708 -2.2854 -1.3048
  960MOL0     H32444  13.185   2.461   8.856  1.3368  0.6558 -4.2742
  960MOL0     H32445  13.254   2.330   8.957 -0.0627 -0.9717 -0.6540
  960MOL0     H32446  13.366   2.597   8.888  1.2037  1.1966  1.2229
  960MOL0     H32447  13.337   2.517   9.044  1.4042 -1.3767  0.1341
  960MOL0     H32448  13.595   2.544   8.956  2.9587 -2.0518 -0.0976
  960MOL0     H32449  13.558   2.417   8.844 -1.3638  2.1088 -1.1020
  960MOL0     H32450  13.501   2.268   9.002 -1.5083 -0.3006  1.7892
  960MOL0     H32451  13.513   2.379   9.137 -1.1791 -1.2569  0.0866
  960MOL0     H32452  13.761   2.415   9.063 -0.0456  0.1641 -0.6583
  960MOL0     H32453  13.713   2.282   9.162  1.1419 -0.1378  0.1639
  960MOL0     H32454  13.739   2.277   8.854 -0.8110  0.1053  0.4937
  960MOL0     H32455  13.734   2.130   8.959 -0.2025 -1.0323 -0.8095
  960MOL0     H32456  13.937   2.150   9.051 -0.5614 -0.6283  0.8728
  960MOL0     H32457  13.972   2.309   8.978 -1.0790  0.7721 -1.5991
  960MOL0     H32458  13.904   2.063   8.808 -0.4934 -0.5297  0.6249
  960MOL0     H32459  14.062   2.069   8.867  1.7467  1.2907  1.8189
  960MOL0     H32460  13.352   2.425   8.536  0.8140 -1.2564 -0.0953
  960MOL0     H32461  13.230   2.315   8.329 -1.1349  0.4378  0.6095
  960MOL0     H32462  12.778   2.061   8.329 -1.6255 -2.3220 -0.0770
  960MOL0     H32463  12.614   1.961   8.189 -2.8356  1.6803  0.4795
  960MOL0     H32464  10.595   2.124   8.125  0.5309 -0.2317  0.2495
  960MOL0     H32465  10.362   2.171   8.140  2.1695  1.1226 -0.0499
  960MOL0     H32466  10.003   2.237   8.005 -0.0883  0.3970 -1.0024
  960MOL0     H32467   9.763   2.339   7.977 -2.2295 -0.5570 -0.6618
  960MOL0     H32468   9.418   2.070   7.946 -4.5610 -0.0299 -0.5065
  960MOL0     H32469   9.360   2.229   7.925 -2.1324 -2.5289 -1.4866
  960MOL0     H32470   9.466   2.041   7.713 -1.3390 -1.4655 -0.2452
  960MOL0     H32471   9.497   2.206   7.691  2.6125 -2.8422  2.8706
  960MOL0     H32472   9.249   2.048   7.717  1.3489 -1.4694 -0.5846
  960MOL0     H32473   9.228   2.229   7.735 -1.9635  0.6833 -1.4375
  960MOL0     H32474   9.370   2.096   7.476  0.0326  0.6331 -0.8564
  960MOL0     H32475   9.330   2.261   7.503  4.2126 -1.1359 -0.5274
  960MOL0     H32476   8.971   2.046   7.388  1.7463 -1.5578 -1.5827
  960MOL0     H32477   9.610   1.954   7.899 -0.8263 -0.6876  3.8352
  960MOL0     H32478   9.923   1.765   7.961 -1.2036 -2.6392 -1.6707
  960MOL0     H32479   9.753   1.773   8.000  2.2925 -2.5976  0.8328
  960MOL0     H32480   9.797   1.760   7.834  0.9731 -2.5499  1.2107
  961MOL0     O32481   3.327   2.981   5.362 -0.7687  0.3625 -0.0475
  961MOL0     C32482   3.318   2.997   5.238  0.0390  0.4918  0.7344
  961MOL0     O32483   3.202   3.039   5.171 -0.2539  0.9179  0.0338
  961MOL0     C32484   3.095   3.063   5.256  0.8127 -0.1639  0.4675
  961MOL0     C32485   3.069   3.188   5.327  0.5305  0.7261 -0.0218
  961MOL0     C32486   2.961   3.194   5.407 -0.4598 -0.4360 -0.0946
  961MOL0     C32487   2.870   3.094   5.435  0.0570  0.9634 -0.1904
  961MOL0     O32488   2.762   3.102   5.514  0.1547 -0.1089 -0.3070
  961MOL0     C32489   2.745   3.227   5.586 -0.7107 -0.0699 -0.0751
  961MOL0     C32490   2.617   3.227   5.669 -0.4830 -0.8075  0.4773
  961MOL0     C32491   2.635   3.178   5.810 -0.2903  0.9005  0.0109
  961MOL0     C32492   2.655   3.031   5.815  0.4463 -0.6687  0.4425
  961MOL0     C32493   2.628   2.979   5.958 -0.8649  0.2004  0.6823
  961MOL0     C32494   2.736   3.017   6.059 -0.5907 -0.6632 -0.9356
  961MOL0     C32495   2.871   2.952   6.046  0.7742  0.4452  0.1408
  961MOL0     C32496   2.868   2.797   6.033 -0.7582  0.1276 -0.4807
  961MOL0     N32497   3.007   2.750   6.062  0.4227  0.5807  0.0746
  961MOL0     C32498   3.127   2.803   6.025 -0.0656  0.1541  0.1361
  961MOL0     C32499   3.226   2.724   6.077 -1.0061 -0.4559 -0.4837
  961MOL0     C32500   3.381   2.739   6.050  0.0150  1.3459 -0.9696
  961MOL0     C32501   3.398   2.693   5.906 -0.4135  0.4511  0.4803
  961MOL0     C32502   3.541   2.680   5.855 -0.2498 -0.1069 -0.2143
  961MOL0     C32503   3.552   2.637   5.711 -0.1945 -0.0062  1.7055
  961MOL0     O32504   3.687   2.659   5.661  0.3707  0.0837  0.4350
  961MOL0     C32505   3.719   2.630   5.529  1.1275  0.3605  0.2786
  961MOL0     C32506   3.846   2.661   5.484  0.7044  0.5212 -0.0641
  961MOL0     C32507   3.881   2.643   5.351 -0.7784 -0.2732  0.0817
  961MOL0     C32508   4.029   2.671   5.326  0.3230 -0.4362  0.3580
  961MOL0     C32509   3.786   2.599   5.252 -0.9825  0.2595  0.3658
  961MOL0     C32510   3.808   2.576   5.109  0.2622  0.1171 -0.1607
  961MOL0     O32511   3.716   2.507   5.042 -0.3929  0.3573 -0.8887
  961MOL0     C32512   3.717   2.480   4.909 -0.2266 -0.2300  0.3727
  961MOL0     C32513   3.599   2.452   4.847 -0.3186  0.4217  0.7416
  961MOL0     C32514   3.592   2.407   4.715 -0.2244 -0.5854  0.6445
  961MOL0     C32515   3.710   2.401   4.636 -0.2898 -0.0234  0.9137
  961MOL0     O32516   3.693   2.358   4.503 -0.9249 -0.3895  1.1238
  961MOL0     C32517   3.814   2.371   4.424 -0.3653  0.0137  0.7036
  961MOL0     C32518   3.792   2.312   4.284 -1.2324 -0.5644  0.1180
  961MOL0     C32519   3.905   2.325   4.174 -0.1603 -0.9148 -0.0088
  961MOL0     C32520   4.041   2.352   4.229  0.0124 -0.6899 -0.7231
  961MOL0     C32521   4.144   2.354   4.112  0.3754 -0.6415 -0.5050
  961MOL0     C32522   4.288   2.362   4.173  0.3932 -0.5191  0.2509
  961MOL0     C32523   4.326   2.223   4.222  0.3045 -0.1792  0.2027
  961MOL0     C32524   4.416   2.235   4.338  0.1241 -0.5759  0.2725
  961MOL0    Cl32525   4.358   2.316   4.480 -0.0527 -0.2231  0.2913
  961MOL0     C32526   3.833   2.421   4.697  0.3787  0.0398 -0.1799
  961MOL0     C32527   3.838   2.462   4.832  0.7051 -1.0887 -0.7310
  961MOL0     O32528   3.888   2.647   5.056 -0.3533  0.1254 -0.2616
  961MOL0     C32529   3.653   2.559   5.300 -0.5938 -0.3633 -0.7293
  961MOL0     C32530   3.621   2.574   5.436  0.7328  0.6923  0.1152
  961MOL0     N32531   3.165   2.620   6.146  0.3469  0.5185  0.4156
  961MOL0     N32532   3.041   2.644   6.146  0.1037  0.3679 -0.4626
  961MOL0     C32533   2.883   2.977   5.359  0.1995 -0.1690 -0.9139
  961MOL0     C32534   2.995   2.961   5.270  0.8955  0.6513  0.5898
  961MOL0     C32535   3.430   2.947   5.154 -0.2230 -0.5584  0.8303
  961MOL0     C32536   3.399   2.913   5.028 -0.5326  0.6762  0.4540
  961MOL0     C32537   3.502   2.884   4.933  0.5040  0.1610 -0.7144
  961MOL0     C32538   3.635   2.892   4.980  0.1351  0.0880  0.3392
  961MOL0     O32539   3.733   2.863   4.895  0.7301 -0.0403 -0.1797
  961MOL0     C32540   3.757   2.969   4.804 -0.1248 -0.3117 -0.3211
  961MOL0     C32541   3.766   2.913   4.662 -0.1080  0.2028  0.6373
  961MOL0     C32542   3.898   2.832   4.641 -0.4021 -0.0044  0.6076
  961MOL0     C32543   3.910   2.760   4.497 -0.6889 -0.3259 -0.1635
  961MOL0     C32544   4.043   2.691   4.466  0.4267  0.4377  0.7295
  961MOL0     C32545   4.149   2.637   4.442 -0.9281  0.1861  0.0810
  961MOL0     C32546   3.665   2.918   5.113  0.2077 -1.0696 -0.1246
  961MOL0     C32547   3.567   2.948   5.199 -0.3469  0.3102 -0.3817
  961MOL0     C32548   3.615   2.994   5.334 -0.5616  0.5915 -0.6404
  961MOL0     H32549   3.125   3.280   5.312 -0.2559  1.1139 -0.6094
  961MOL0     H32550   2.947   3.289   5.459  1.3102 -0.8022  1.1611
  961MOL0     H32551   2.750   3.307   5.511 -0.4952 -1.5687 -1.7282
  961MOL0     H32552   2.828   3.234   5.657 -1.3751 -6.2132  1.8754
  961MOL0     H32553   2.593   3.333   5.679  2.0398 -0.0193 -0.9191
  961MOL0     H32554   2.534   3.173   5.623 -2.4346  0.5367  2.2131
  961MOL0     H32555   2.723   3.232   5.847  0.5465 -1.4659  1.7103
  961MOL0     H32556   2.545   3.210   5.863 -1.0319 -0.8347 -0.1330
  961MOL0     H32557   2.573   2.982   5.761 -1.3551 -0.2016  2.5823
  961MOL0     H32558   2.758   3.004   5.789  0.7307 -0.2244  1.0872
  961MOL0     H32559   2.621   2.870   5.952 -1.8902  0.1004  2.7726
  961MOL0     H32560   2.533   3.012   6.000 -1.2473  0.1483 -0.1164
  961MOL0     H32561   2.749   3.124   6.077  1.4508 -0.7101 -1.8759
  961MOL0     H32562   2.698   2.979   6.155 -3.7040  2.6398 -0.6605
  961MOL0     H32563   2.919   2.973   6.142  0.8026 -1.2708  0.5509
  961MOL0     H32564   2.928   2.995   5.964 -0.7040  1.6595 -0.2959
  961MOL0     H32565   2.801   2.749   6.105 -1.9978 -1.6262 -2.6736
  961MOL0     H32566   2.836   2.771   5.932 -1.0997  1.4470 -0.7358
  961MOL0     H32567   3.140   2.884   5.954 -2.6429  0.5996  0.0912
  961MOL0     H32568   3.436   2.682   6.125 -0.2550 -0.1067 -1.8505
  961MOL0     H32569   3.405   2.845   6.061  2.3490  0.9750 -1.9529
  961MOL0     H32570   3.359   2.592   5.892  0.2244  0.0948  1.1999
  961MOL0     H32571   3.345   2.753   5.831 -0.7929 -1.3890 -0.8130
  961MOL0     H32572   3.568   2.785   5.868 -2.6610  0.2627  3.6490
  961MOL0     H32573   3.593   2.615   5.926 -2.1242 -1.0538  0.3598
  961MOL0     H32574   3.545   2.528   5.697 -0.4073  0.2345 -0.4592
  961MOL0     H32575   3.476   2.680   5.645  3.1002 -0.1764 -2.6496
  961MOL0     H32576   3.913   2.704   5.557  0.5292  0.7645 -0.0467
  961MOL0     H32577   4.073   2.646   5.423 -0.7639 -1.6769  0.5687
  961MOL0     H32578   4.040   2.777   5.302 -2.5560 -0.0391  0.4063
  961MOL0     H32579   4.066   2.613   5.241 -0.3050 -1.1992  0.5930
  961MOL0     H32580   3.509   2.446   4.907 -2.3744  1.1752 -2.0529
  961MOL0     H32581   3.494   2.377   4.680  0.1665 -1.1260 -0.0009
  961MOL0     H32582   3.843   2.476   4.428  1.9335 -0.5862  1.1030
  961MOL0     H32583   3.900   2.319   4.468  0.2491  0.5693  0.1733
  961MOL0     H32584   3.784   2.204   4.304  1.2044 -1.3083 -2.3511
  961MOL0     H32585   3.702   2.355   4.240 -0.2269  2.0661  0.4925
  961MOL0     H32586   3.869   2.414   4.122 -0.4669 -1.7146 -1.1937
  961MOL0     H32587   3.899   2.238   4.108 -0.0219 -0.2175 -0.9627
  961MOL0     H32588   4.074   2.278   4.302  3.1618  1.3042  0.0903
  961MOL0     H32589   4.049   2.455   4.266 -3.4022  0.0278 -1.6379
  961MOL0     H32590   4.132   2.265   4.049  1.5808 -0.6268 -0.7986
  961MOL0     H32591   4.140   2.440   4.044  1.2847  1.3314  1.8139
  961MOL0     H32592   4.297   2.436   4.254  1.7547  0.2192 -0.5428
  961MOL0     H32593   4.356   2.388   4.092  1.5107 -0.8470  1.0590
  961MOL0     H32594   4.367   2.160   4.142 -2.9147 -1.1785 -0.8551
  961MOL0     H32595   4.242   2.162   4.258  1.3528 -0.7080  1.8412
  961MOL0     H32596   4.518   2.269   4.318  0.8467 -2.1882  1.0245
  961MOL0     H32597   4.441   2.132   4.367  1.2625 -0.0623  1.2011
  961MOL0     H32598   3.927   2.405   4.646 -0.4605  0.3216 -1.8786
  961MOL0     H32599   3.939   2.475   4.871 -0.3985  1.0855  1.6723
  961MOL0     H32600   3.585   2.506   5.234  0.4858  1.9873 -3.9248
  961MOL0     H32601   3.521   2.548   5.469  1.2309  0.9407  1.9274
  961MOL0     H32602   2.817   2.891   5.365 -0.6312  0.5303  0.5643
  961MOL0     H32603   2.994   2.872   5.209 -2.5205  1.2893 -0.5391
  961MOL0     H32604   3.296   2.920   4.997 -0.5921  1.2643  0.7788
  961MOL0     H32605   3.467   2.869   4.832  1.4214 -0.7591 -0.9178
  961MOL0     H32606   3.679   3.046   4.806 -0.7870 -0.9811  0.5313
  961MOL0     H32607   3.848   3.024   4.831 -1.1046  1.5635 -0.6435
  961MOL0     H32608   3.759   2.994   4.589 -0.3378  0.2950  0.7604
  961MOL0     H32609   3.692   2.833   4.650 -1.0273  0.8394  1.7699
  961MOL0     H32610   3.981   2.898   4.668 -0.3621  0.0631  0.3244
  961MOL0     H32611   3.900   2.748   4.712 -0.7145 -0.1465  0.4482
  961MOL0     H32612   3.899   2.839   4.422 -1.6318 -1.7818 -1.6292
  961MOL0     H32613   3.821   2.697   4.485 -0.6033 -0.2521 -1.3173
  961MOL0     H32614   4.243   2.590   4.423  0.6725  3.0496  0.3906
  961MOL0     H32615   3.770   2.920   5.138  0.0859  1.3799  0.4428
  961MOL0     H32616   3.552   2.933   5.399 -1.8194  1.0594 -1.3723
  961MOL0     H32617   3.720   2.970   5.353 -0.2441 -0.1476 -2.9659
  961MOL0     H32618   3.587   3.098   5.352  0.3415  1.0906 -1.9393
  962MOL0     O32619   6.251   5.858   2.973  0.4684 -0.5448 -0.2066
  962MOL0     C32620   6.244   5.986   2.962 -0.2343  0.6421 -0.0717
  962MOL0     O32621   6.350   6.069   3.005  0.5282  0.5367  0.0633
  962MOL0     C32622   6.468   6.006   3.015 -0.5679  0.8227 -0.1633
  962MOL0     C32623   6.492   5.930   3.129  0.1218 -0.8841  0.2611
  962MOL0     C32624   6.621   5.882   3.159 -0.4548  0.1011 -0.2221
  962MOL0     C32625   6.730   5.904   3.080  0.4269 -0.3059 -0.5508
  962MOL0     O32626   6.858   5.869   3.115  0.9460 -0.1976  0.4480
  962MOL0     C32627   6.878   5.747   3.182 -0.3444  0.5306 -0.8359
  962MOL0     C32628   7.022   5.726   3.220 -0.7675  0.2350  0.7849
  962MOL0     C32629   7.140   5.723   3.122 -0.3748 -0.0376 -0.4465
  962MOL0     C32630   7.269   5.678   3.199  0.3278  0.0870  0.4301
  962MOL0     C32631   7.398   5.684   3.112 -0.7083 -0.1780 -0.0909
  962MOL0     C32632   7.524   5.653   3.197 -0.4031 -0.5558 -1.0178
  962MOL0     C32633   7.655   5.683   3.132  0.4811 -0.8528 -0.0849
  962MOL0     C32634   7.755   5.714   3.243 -0.2367 -0.0255  0.2458
  962MOL0     N32635   7.889   5.708   3.189 -0.1076  0.2305 -0.5444
  962MOL0     C32636   8.000   5.635   3.246 -0.5864  0.6521  0.0687
  962MOL0     C32637   8.098   5.644   3.156 -0.2415 -0.2595  0.5763
  962MOL0     C32638   8.238   5.581   3.157 -0.8847  0.0843 -0.2716
  962MOL0     C32639   8.342   5.688   3.130 -0.6575 -0.5062  0.0599
  962MOL0     C32640   8.479   5.630   3.109 -0.0836 -0.3058 -0.0599
  962MOL0     C32641   8.550   5.604   3.248 -0.7329  0.2859 -0.3603
  962MOL0     O32642   8.656   5.510   3.234  0.2423 -0.0312 -0.3491
  962MOL0     C32643   8.764   5.522   3.318  0.1931  0.1817 -0.2015
  962MOL0     C32644   8.761   5.584   3.442 -0.2593  0.5649 -0.4850
  962MOL0     C32645   8.875   5.600   3.527  0.1663  0.3785  0.5800
  962MOL0     C32646   8.864   5.686   3.651  0.0162  0.0790  0.2545
  962MOL0     C32647   8.984   5.519   3.491 -0.3755  0.3726  0.6792
  962MOL0     C32648   9.123   5.541   3.563  0.2211  0.6313  0.7817
  962MOL0     O32649   9.154   5.666   3.608 -0.1353  1.0338 -0.7141
  962MOL0     C32650   9.261   5.684   3.690  0.1632 -0.6185  0.1280
  962MOL0     C32651   9.249   5.666   3.830 -0.1168 -0.2559 -0.0485
  962MOL0     C32652   9.356   5.676   3.921 -0.6248 -0.3382  0.3410
  962MOL0     C32653   9.483   5.715   3.871 -1.5364 -0.9933  0.0277
  962MOL0     O32654   9.608   5.732   3.939  0.5707  0.0018  0.7944
  962MOL0     C32655   9.625   5.650   4.060  0.2590 -0.2076  1.3071
  962MOL0     C32656   9.658   5.503   4.021  0.0972  0.5448 -0.3636
  962MOL0     C32657   9.770   5.491   3.924 -0.5195 -0.2937 -0.0605
  962MOL0     C32658   9.909   5.497   3.983  0.0573 -0.2240 -0.6744
  962MOL0     C32659   9.997   5.499   3.870 -0.5918 -0.4266 -0.8404
  962MOL0     C32660  10.145   5.470   3.909 -0.2564  0.3609 -0.3089
  962MOL0     C32661  10.226   5.444   3.786  0.6767  0.6433  0.6686
  962MOL0     C32662  10.372   5.438   3.819 -0.0763 -0.4003  0.6719
  962MOL0    Cl32663  10.432   5.604   3.845  0.4096  0.0088  0.3113
  962MOL0     C32664   9.503   5.726   3.729 -0.0315  0.0824 -0.1485
  962MOL0     C32665   9.390   5.707   3.643 -0.9642  0.0653 -0.0819
  962MOL0     O32666   9.189   5.439   3.581 -0.7136  0.7272  0.0316
  962MOL0     C32667   8.981   5.434   3.376  0.0279 -0.3369 -1.2244
  962MOL0     C32668   8.875   5.449   3.282  0.1940  0.3486 -0.4842
  962MOL0     N32669   8.049   5.711   3.037 -0.0279 -0.4473  0.5065
  962MOL0     N32670   7.929   5.755   3.068 -0.2837 -0.4702  0.2624
  962MOL0     C32671   6.704   5.975   2.957  0.1631  0.0173 -0.6986
  962MOL0     C32672   6.577   6.031   2.929  0.0927  0.5391  0.6197
  962MOL0     C32673   6.113   6.043   2.919  0.3708 -0.3720  0.9801
  962MOL0     C32674   6.006   5.955   2.930 -0.5543 -0.0638 -0.4391
  962MOL0     C32675   5.882   6.003   2.901  0.0730  0.6854  0.2100
  962MOL0     C32676   5.858   6.133   2.850  0.0363  0.1635 -0.3046
  962MOL0     O32677   5.731   6.171   2.812 -0.0661 -0.2713  0.4391
  962MOL0     C32678   5.722   6.279   2.718 -0.5000  0.1140  0.3078
  962MOL0     C32679   5.597   6.276   2.638  0.2891  0.4171 -0.2576
  962MOL0     C32680   5.597   6.369   2.520  0.5677  0.2418 -0.2502
  962MOL0     C32681   5.464   6.343   2.444 -0.0366  0.1670  1.2853
  962MOL0     C32682   5.446   6.440   2.330 -0.7904 -0.0136 -0.4983
  962MOL0     C32683   5.450   6.519   2.239 -0.9722 -0.8345 -1.5459
  962MOL0     C32684   5.968   6.217   2.842 -0.7812 -0.8114  0.3540
  962MOL0     C32685   6.096   6.174   2.873 -1.1455 -0.0847 -0.3414
  962MOL0     C32686   6.209   6.269   2.854  0.7450  0.0653  0.6259
  962MOL0     H32687   6.403   5.922   3.191  0.0929 -2.2087  0.0862
  962MOL0     H32688   6.631   5.824   3.250  0.2981  0.2963 -0.1728
  962MOL0     H32689   6.854   5.653   3.129 -2.1151 -1.4544  3.0773
  962MOL0     H32690   6.827   5.759   3.278  1.3490 -0.5327  0.2367
  962MOL0     H32691   7.049   5.803   3.294  1.6461 -0.5260  0.7650
  962MOL0     H32692   7.021   5.637   3.282 -1.5240  0.8531  1.6976
  962MOL0     H32693   7.121   5.648   3.045  0.1356 -0.2012 -0.4180
  962MOL0     H32694   7.165   5.815   3.068  1.8654 -0.5905 -0.4775
  962MOL0     H32695   7.277   5.742   3.287 -0.0294  0.9469 -0.1409
  962MOL0     H32696   7.254   5.574   3.227 -2.5708  0.2842 -0.0388
  962MOL0     H32697   7.417   5.781   3.067  1.8609 -0.5560  0.0463
  962MOL0     H32698   7.394   5.612   3.030 -0.0656  2.3565 -2.4873
  962MOL0     H32699   7.520   5.704   3.293  0.7684 -1.1615 -0.6270
  962MOL0     H32700   7.525   5.547   3.226  0.6713 -0.0299  1.0672
  962MOL0     H32701   7.644   5.771   3.067 -0.5256 -0.7360  0.2190
  962MOL0     H32702   7.682   5.594   3.075 -0.2273 -0.7576 -0.5923
  962MOL0     H32703   7.724   5.806   3.293 -1.0694 -1.0507  1.6729
  962MOL0     H32704   7.746   5.645   3.327 -0.6944 -1.7561 -1.1688
  962MOL0     H32705   8.002   5.582   3.340 -1.1720 -1.9488 -1.2901
  962MOL0     H32706   8.235   5.490   3.098 -0.7948 -1.3149  1.7707
  962MOL0     H32707   8.264   5.531   3.251  0.4837  1.6325  0.2095
  962MOL0     H32708   8.318   5.737   3.036  2.3431  0.1694 -0.4448
  962MOL0     H32709   8.351   5.753   3.218 -2.0110 -0.8190  0.4576
  962MOL0     H32710   8.471   5.538   3.050  0.4772  0.0412 -0.6951
  962MOL0     H32711   8.545   5.696   3.051  0.4378 -0.2425  0.5889
  962MOL0     H32712   8.596   5.701   3.270 -1.0399  1.1825 -3.2141
  962MOL0     H32713   8.474   5.580   3.322  0.0418  0.9060  0.6735
  962MOL0     H32714   8.666   5.626   3.472  0.8145  1.7674  1.3943
  962MOL0     H32715   8.758   5.708   3.670 -0.7861  0.9378 -4.1929
  962MOL0     H32716   8.919   5.779   3.632 -4.2969  3.1396  1.1355
  962MOL0     H32717   8.904   5.623   3.730 -0.7441  0.1894  0.7460
  962MOL0     H32718   9.150   5.645   3.868 -0.9548 -0.1103 -2.0229
  962MOL0     H32719   9.338   5.662   4.027  1.6453  1.3904  1.0275
  962MOL0     H32720   9.704   5.696   4.120  1.9543  1.8245 -2.1495
  962MOL0     H32721   9.533   5.637   4.118 -0.4349 -1.8266 -0.0713
  962MOL0     H32722   9.686   5.458   4.117  0.6409  2.6460  0.5276
  962MOL0     H32723   9.569   5.452   3.984 -0.0420  0.8347 -0.4327
  962MOL0     H32724   9.757   5.567   3.847 -1.6966  1.6747  1.9653
  962MOL0     H32725   9.760   5.398   3.867 -1.6329  0.8542 -1.8242
  962MOL0     H32726   9.930   5.401   4.032 -2.7116 -1.8866 -2.4627
  962MOL0     H32727   9.913   5.583   4.051 -2.4513  1.8155 -2.8879
  962MOL0     H32728   9.965   5.412   3.812  0.3018 -1.6830  0.4803
  962MOL0     H32729   9.984   5.586   3.806  0.5326  0.0332 -0.4749
  962MOL0     H32730  10.138   5.381   3.972 -1.8146  0.6050 -0.1030
  962MOL0     H32731  10.191   5.549   3.970 -1.4960  0.1271  0.9841
  962MOL0     H32732  10.211   5.526   3.715 -0.6978 -1.5096 -1.7006
  962MOL0     H32733  10.190   5.349   3.744 -1.0135  1.3690  0.3959
  962MOL0     H32734  10.428   5.389   3.738 -2.2526  2.9903 -3.3018
  962MOL0     H32735  10.388   5.380   3.910  0.8049 -1.1709  0.0438
  962MOL0     H32736   9.601   5.757   3.692  0.7999 -2.2575 -0.1214
  962MOL0     H32737   9.408   5.710   3.536  0.1200  2.2442  0.1132
  962MOL0     H32738   9.060   5.362   3.358 -0.7698 -1.4147 -0.5842
  962MOL0     H32739   8.869   5.378   3.200  1.6026 -2.5235  1.6690
  962MOL0     H32740   6.789   6.004   2.896  0.7212  0.2428  0.1795
  962MOL0     H32741   6.552   6.093   2.844 -0.6055 -0.5910 -0.0200
  962MOL0     H32742   6.035   5.856   2.963  0.1876 -0.2781 -1.6898
  962MOL0     H32743   5.800   5.933   2.910 -1.2350  1.7715 -2.2818
  962MOL0     H32744   5.728   6.376   2.768  2.2485  0.6343 -0.8210
  962MOL0     H32745   5.809   6.276   2.651 -0.5739  1.2438  0.1361
  962MOL0     H32746   5.516   6.304   2.705  1.6929  2.6643  0.6097
  962MOL0     H32747   5.588   6.172   2.604  1.3727 -1.4454  4.4019
  962MOL0     H32748   5.604   6.469   2.564  1.2949  0.1395 -0.1136
  962MOL0     H32749   5.681   6.359   2.451 -0.3227 -1.6192 -1.1332
  962MOL0     H32750   5.379   6.344   2.512  0.1486  0.3980  1.5183
  962MOL0     H32751   5.471   6.244   2.398 -3.1745 -0.2707  1.5237
  962MOL0     H32752   5.447   6.593   2.162 -0.7983  1.0313  0.1686
  962MOL0     H32753   5.955   6.319   2.809  3.4965 -0.7140 -1.7266
  962MOL0     H32754   6.180   6.354   2.793  0.5528 -0.3771  0.0874
  962MOL0     H32755   6.245   6.322   2.943  2.1720  2.0811 -1.0754
  962MOL0     H32756   6.294   6.214   2.812  0.7246 -1.5637  2.5430
  963MOL0     O32757  10.283   2.574   5.952  0.3684  0.7400 -0.5407
  963MOL0     C32758  10.219   2.667   5.920  0.0699 -0.3693  1.2648
  963MOL0     O32759  10.267   2.789   5.898  0.3102 -0.7229 -0.1613
  963MOL0     C32760  10.398   2.833   5.914 -0.5518  0.9262  0.6873
  963MOL0     C32761  10.413   2.969   5.940  0.0204 -0.2084 -0.7340
  963MOL0     C32762  10.540   3.019   5.965  0.4050 -0.2077  0.5308
  963MOL0     C32763  10.660   2.943   5.947 -0.0400  0.7302  1.3130
  963MOL0     O32764  10.779   2.999   5.987 -0.1281  0.4178  0.1480
  963MOL0     C32765  10.897   2.926   5.952  0.0888  0.3576 -0.0121
  963MOL0     C32766  11.023   3.013   5.993  0.5142 -0.4906 -0.7994
  963MOL0     C32767  11.027   3.140   5.903 -0.0786  0.0089  0.3981
  963MOL0     C32768  11.164   3.205   5.927 -0.4485 -0.6609 -0.5262
  963MOL0     C32769  11.163   3.334   5.846  1.0353  0.1012  0.3826
  963MOL0     C32770  11.297   3.405   5.849 -0.1443  0.0650 -0.0940
  963MOL0     C32771  11.320   3.541   5.774 -0.1596  0.4695 -0.5159
  963MOL0     C32772  11.239   3.653   5.824  0.3702  0.1672 -0.5948
  963MOL0     N32773  11.275   3.701   5.951 -0.1135  0.0605 -0.0119
  963MOL0     C32774  11.203   3.696   6.067 -0.0789 -0.7211  0.1588
  963MOL0     C32775  11.294   3.726   6.165 -0.7221  0.4105 -0.1028
  963MOL0     C32776  11.258   3.749   6.317 -0.4330  0.3114  0.6671
  963MOL0     C32777  11.228   3.905   6.329  0.6927 -0.1039 -0.1706
  963MOL0     C32778  11.209   3.948   6.471 -0.8306 -0.6412 -0.0253
  963MOL0     C32779  11.193   4.103   6.461  0.1372 -0.0185  0.2937
  963MOL0     O32780  11.311   4.168   6.419 -0.8500  0.6565 -0.0541
  963MOL0     C32781  11.327   4.303   6.428 -0.0187  1.0372  1.3413
  963MOL0     C32782  11.236   4.397   6.479 -0.1303  0.7984 -1.3467
  963MOL0     C32783  11.266   4.533   6.497  0.0836  0.2497 -0.0053
  963MOL0     C32784  11.161   4.613   6.577  0.2284  0.3219 -0.6374
  963MOL0     C32785  11.398   4.572   6.460  0.7101 -0.5455 -0.3568
  963MOL0     C32786  11.441   4.716   6.464  0.1634 -0.4450  0.2577
  963MOL0     O32787  11.556   4.748   6.395  0.0751  0.6026  0.0152
  963MOL0     C32788  11.571   4.867   6.338 -0.1633 -0.7275  0.0921
  963MOL0     C32789  11.698   4.882   6.278  0.1075  0.4032 -0.5059
  963MOL0     C32790  11.741   5.000   6.207 -0.1473  0.7586 -0.5651
  963MOL0     C32791  11.650   5.104   6.187  0.7317  0.6610  0.7366
  963MOL0     O32792  11.689   5.229   6.157  0.2200  0.1623  0.1514
  963MOL0     C32793  11.804   5.265   6.092 -0.7744 -0.2120  0.1199
  963MOL0     C32794  11.803   5.420   6.101 -0.5406 -0.1758 -0.4421
  963MOL0     C32795  11.921   5.488   6.023  0.3432 -0.1761 -0.8352
  963MOL0     C32796  11.913   5.640   6.013 -0.8005  0.2545 -0.8610
  963MOL0     C32797  12.014   5.700   5.912 -0.2371  0.0556 -0.1837
  963MOL0     C32798  12.155   5.662   5.916  1.0095 -0.3182  0.7842
  963MOL0     C32799  12.219   5.679   6.050  0.1778 -1.0046 -0.4070
  963MOL0     C32800  12.252   5.828   6.081  1.2365  1.3717  0.3436
  963MOL0    Cl32801  12.425   5.865   6.046 -0.3714 -0.6478  0.2731
  963MOL0     C32802  11.523   5.090   6.239 -0.2899 -0.2383  0.5606
  963MOL0     C32803  11.479   4.973   6.304  0.1266 -0.0830  0.1680
  963MOL0     O32804  11.367   4.801   6.511  0.6153 -0.4831 -0.6561
  963MOL0     C32805  11.478   4.482   6.393 -0.7852 -0.6190 -0.2033
  963MOL0     C32806  11.444   4.352   6.374 -0.5327  1.4364  0.1252
  963MOL0     N32807  11.428   3.736   6.112  0.1868  0.3948  0.1326
  963MOL0     N32808  11.404   3.734   5.983 -0.2888 -0.5390 -0.1836
  963MOL0     C32809  10.639   2.807   5.922 -0.2971  0.1809 -0.5670
  963MOL0     C32810  10.509   2.756   5.897 -0.0811  0.9011 -1.6352
  963MOL0     C32811  10.074   2.663   5.893 -0.0126  0.4455  0.9506
  963MOL0     C32812   9.997   2.784   5.891 -0.0490  0.4474 -0.6062
  963MOL0     C32813   9.859   2.776   5.860  0.3432 -0.2620  0.4238
  963MOL0     C32814   9.797   2.647   5.834 -0.1770 -0.2743  0.1812
  963MOL0     O32815   9.663   2.623   5.790 -0.1900  0.0610  0.2762
  963MOL0     C32816   9.611   2.728   5.710 -0.1033  0.1492 -0.0457
  963MOL0     C32817   9.494   2.664   5.632 -0.4638 -1.0768  0.6372
  963MOL0     C32818   9.546   2.562   5.533  0.4212 -0.1699  0.4534
  963MOL0     C32819   9.639   2.605   5.428 -0.7577  0.6716 -0.3209
  963MOL0     C32820   9.684   2.495   5.346 -0.1955  0.4637  0.9243
  963MOL0     C32821   9.725   2.408   5.273 -0.4759 -0.6836  0.0447
  963MOL0     C32822   9.873   2.536   5.849  0.1081 -0.3734  0.0352
  963MOL0     C32823  10.010   2.535   5.867  0.0142 -0.5176 -0.0190
  963MOL0     C32824  10.080   2.403   5.866  0.0137  0.6192  0.2937
  963MOL0     H32825  10.320   3.020   5.961  1.0803  0.7442  2.1304
  963MOL0     H32826  10.551   3.122   5.997  2.4041 -0.6964  1.5897
  963MOL0     H32827  10.902   2.891   5.849  0.1018 -1.2443  0.4994
  963MOL0     H32828  10.898   2.838   6.017 -1.4240  0.1132 -0.2944
  963MOL0     H32829  11.011   3.038   6.098  0.0580  1.6940 -1.3106
  963MOL0     H32830  11.113   2.952   5.984  1.5289  1.0568 -1.7490
  963MOL0     H32831  11.029   3.122   5.795 -0.2015  0.1319  0.3763
  963MOL0     H32832  10.947   3.209   5.930  1.4133  1.5133  1.1409
  963MOL0     H32833  11.179   3.234   6.032 -0.0469  2.0717 -1.2533
  963MOL0     H32834  11.248   3.144   5.893  0.0544 -0.0904 -0.3386
  963MOL0     H32835  11.078   3.393   5.882 -2.0050 -3.8568  0.3877
  963MOL0     H32836  11.152   3.305   5.742  1.5573  1.4729 -0.0774
  963MOL0     H32837  11.322   3.435   5.952 -1.2973  2.4986 -0.4506
  963MOL0     H32838  11.366   3.325   5.824  1.1311  1.0729  0.0704
  963MOL0     H32839  11.294   3.528   5.668 -0.6729  2.4094 -0.6603
  963MOL0     H32840  11.428   3.558   5.773  0.1624 -1.3708 -0.6608
  963MOL0     H32841  11.251   3.732   5.749  0.6274  2.3326  1.6046
  963MOL0     H32842  11.132   3.632   5.817  0.4188 -0.2043 -0.2417
  963MOL0     H32843  11.098   3.676   6.085  0.3122  0.0990  4.3390
  963MOL0     H32844  11.345   3.719   6.377  1.4630  0.1193 -2.0196
  963MOL0     H32845  11.169   3.690   6.342 -0.6037  0.0917 -0.4332
  963MOL0     H32846  11.314   3.959   6.288  0.0369  0.5988 -0.6447
  963MOL0     H32847  11.138   3.928   6.271 -0.8574 -2.0546  1.3269
  963MOL0     H32848  11.121   3.901   6.517 -2.3019  0.2484 -1.7875
  963MOL0     H32849  11.299   3.925   6.528  0.2442  2.9780 -0.0184
  963MOL0     H32850  11.101   4.127   6.408 -0.2407 -0.6184  0.6633
  963MOL0     H32851  11.165   4.139   6.560 -0.6922 -0.3052  0.1740
  963MOL0     H32852  11.138   4.363   6.511  0.0021  1.2229 -0.4592
  963MOL0     H32853  11.070   4.553   6.587  0.4493  0.0485 -0.2408
  963MOL0     H32854  11.130   4.693   6.509 -1.9611 -0.6944 -0.9108
  963MOL0     H32855  11.195   4.661   6.670 -0.4368 -1.1965  0.4398
  963MOL0     H32856  11.770   4.801   6.287  1.3357  1.5095 -0.0641
  963MOL0     H32857  11.843   5.010   6.171  0.3927 -5.3301 -1.8066
  963MOL0     H32858  11.892   5.223   6.140 -0.7735  0.4983  0.7640
  963MOL0     H32859  11.785   5.227   5.991 -1.7595 -1.6153  0.8153
  963MOL0     H32860  11.707   5.459   6.067 -0.3473 -2.1016 -3.5319
  963MOL0     H32861  11.810   5.445   6.207 -1.0869 -2.6952  0.2505
  963MOL0     H32862  11.920   5.455   5.918  0.4599 -0.7158 -0.6731
  963MOL0     H32863  12.016   5.463   6.071  0.6607 -0.2018 -1.4718
  963MOL0     H32864  11.930   5.683   6.112 -1.1648  1.8308 -1.4470
  963MOL0     H32865  11.811   5.669   5.984 -0.4194  0.8145 -1.6855
  963MOL0     H32866  11.987   5.673   5.809 -0.1967 -2.8940  0.4966
  963MOL0     H32867  12.002   5.808   5.922  0.2992 -0.1016  3.1039
  963MOL0     H32868  12.213   5.717   5.841  0.4235 -1.5136 -0.5856
  963MOL0     H32869  12.155   5.554   5.898 -2.9899 -0.2163 -0.5985
  963MOL0     H32870  12.307   5.614   6.057  0.5937 -0.6380 -1.8139
  963MOL0     H32871  12.151   5.640   6.126 -0.7727 -2.0375 -1.7568
  963MOL0     H32872  12.219   5.839   6.185 -0.5373 -2.0495  0.3004
  963MOL0     H32873  12.185   5.899   6.032  0.7474  1.3608  0.9924
  963MOL0     H32874  11.449   5.167   6.225 -2.4442 -1.9976  1.6193
  963MOL0     H32875  11.378   4.968   6.342  0.4313  0.0842  1.0263
  963MOL0     H32876  11.565   4.519   6.341 -1.3716  0.1704 -0.6442
  963MOL0     H32877  11.522   4.287   6.336  0.6611  3.5419 -1.2676
  963MOL0     H32878  10.727   2.745   5.927 -0.6891 -0.2743  2.1771
  963MOL0     H32879  10.508   2.649   5.880  1.4167  0.3912  0.9695
  963MOL0     H32880  10.041   2.882   5.906  2.2423 -0.5671 -0.2975
  963MOL0     H32881   9.807   2.872   5.856 -1.2757 -1.1207 -0.4290
  963MOL0     H32882   9.590   2.819   5.766 -1.6574  0.3838 -0.9608
  963MOL0     H32883   9.689   2.762   5.640  1.6591 -0.2855  1.6172
  963MOL0     H32884   9.445   2.751   5.587  2.1648  0.4641  0.5528
  963MOL0     H32885   9.425   2.616   5.703  0.0853  0.5140  2.3073
  963MOL0     H32886   9.576   2.466   5.576  1.1963  0.4059  1.2337
  963MOL0     H32887   9.453   2.530   5.485  0.0713  2.0949 -0.4707
  963MOL0     H32888   9.728   2.643   5.480 -0.5816  1.7549 -1.3611
  963MOL0     H32889   9.592   2.684   5.368 -0.9618  0.9819  0.2379
  963MOL0     H32890   9.758   2.329   5.208 -4.4886 -2.7732  0.2497
  963MOL0     H32891   9.823   2.441   5.833  0.1881 -0.3126 -0.5831
  963MOL0     H32892  10.009   2.326   5.834 -1.9714  1.2143  2.9455
  963MOL0     H32893  10.176   2.383   5.817 -0.6628 -3.5255  0.2763
  963MOL0     H32894  10.100   2.383   5.972  2.3020 -0.1080 -0.2121
  964MOL0     O32895   1.067  10.392  11.226 -0.2617  0.0721  0.5127
  964MOL0     C32896   1.053  10.392  11.103  0.7027 -0.1475 -0.0023
  964MOL0     O32897   1.147  10.365  11.012 -0.3648 -0.3589  0.1626
  964MOL0     C32898   1.278  10.357  11.045  0.0814  0.4451 -0.8844
  964MOL0     C32899   1.364  10.465  11.039  0.4038  0.0195 -0.0152
  964MOL0     C32900   1.497  10.450  11.075 -0.3504  0.2181  1.0048
  964MOL0     C32901   1.542  10.321  11.103 -0.0819  0.2007  0.0282
  964MOL0     O32902   1.668  10.288  11.124 -0.5905 -0.5048 -0.2142
  964MOL0     C32903   1.772  10.394  11.147 -0.2134 -0.3533 -0.8798
  964MOL0     C32904   1.889  10.327  11.206 -0.7042  0.1938 -0.2607
  964MOL0     C32905   1.994  10.419  11.265  0.0623  0.0503 -0.1270
  964MOL0     C32906   2.126  10.336  11.281 -0.2200 -1.0671 -0.0739
  964MOL0     C32907   2.226  10.419  11.367 -0.2272  0.2276 -0.2038
  964MOL0     C32908   2.357  10.336  11.383  0.2517  0.0751  0.0944
  964MOL0     C32909   2.427  10.365  11.522 -0.3293  0.0935  0.5875
  964MOL0     C32910   2.477  10.514  11.550  0.2086 -0.3439 -0.1924
  964MOL0     N32911   2.587  10.547  11.456  0.5097 -0.6444  0.3722
  964MOL0     C32912   2.572  10.595  11.328  0.3872 -0.2521 -0.3641
  964MOL0     C32913   2.698  10.587  11.280 -0.5316  1.1413  0.7034
  964MOL0     C32914   2.742  10.614  11.134 -0.1491 -0.1014 -0.0853
  964MOL0     C32915   2.669  10.519  11.034 -0.6062 -0.0652 -0.1591
  964MOL0     C32916   2.704  10.535  10.884 -0.3238 -0.1916 -0.7449
  964MOL0     C32917   2.851  10.538  10.843  0.3351  0.3997  0.2964
  964MOL0     O32918   2.899  10.670  10.871  0.2108  0.2933 -0.6915
  964MOL0     C32919   3.022  10.692  10.916 -0.3978 -0.1198  0.4304
  964MOL0     C32920   3.132  10.631  10.848 -0.1037  0.4494  0.7046
  964MOL0     C32921   3.262  10.662  10.879 -0.5387  0.7247 -0.3956
  964MOL0     C32922   3.378  10.601  10.792 -0.0717  0.9292  0.5773
  964MOL0     C32923   3.289  10.761  10.980  0.4569  0.1824 -0.0875
  964MOL0     C32924   3.428  10.801  11.019  1.1159  0.6230  0.4527
  964MOL0     O32925   3.523  10.786  10.918 -0.2711  0.2490 -0.7231
  964MOL0     C32926   3.659  10.820  10.921 -0.1853 -0.6061 -0.9418
  964MOL0     C32927   3.727  10.851  11.042 -0.0253 -0.0236 -0.3469
  964MOL0     C32928   3.863  10.872  11.042 -0.5981 -1.3903  0.5567
  964MOL0     C32929   3.941  10.862  10.922 -0.3789  0.9237  0.5808
  964MOL0     O32930   4.078  10.871  10.942 -0.4439 -0.4243  0.0537
  964MOL0     C32931   4.156  10.920  10.839  0.2370  0.2071  0.7761
  964MOL0     C32932   4.158  11.076  10.859 -0.3364  0.3631  0.2921
  964MOL0     C32933   4.253  11.149  10.764  0.3056  0.6761 -0.4629
  964MOL0     C32934   4.396  11.148  10.820  0.3090  0.0651 -0.7571
  964MOL0     C32935   4.489  11.234  10.726  0.0633 -0.0817 -0.3173
  964MOL0     C32936   4.631  11.206  10.734 -0.8513 -0.4869  0.4734
  964MOL0     C32937   4.715  11.319  10.686 -0.0203 -0.1779 -0.0004
  964MOL0     C32938   4.864  11.302  10.710 -0.0294  0.0081  0.6279
  964MOL0    Cl32939   4.943  11.456  10.764 -0.4148 -0.0691 -0.3695
  964MOL0     C32940   3.875  10.839  10.802  0.0465  0.2929 -0.1362
  964MOL0     C32941   3.735  10.820  10.800 -0.3115  0.0159  0.8691
  964MOL0     O32942   3.451  10.831  11.136 -0.1790 -0.2158  0.6422
  964MOL0     C32943   3.177  10.826  11.044 -0.4078 -0.2376  0.2405
  964MOL0     C32944   3.046  10.788  11.017  0.1325  0.2615  0.2641
  964MOL0     N32945   2.785  10.541  11.386  0.1596  0.0895 -0.3952
  964MOL0     N32946   2.712  10.514  11.487 -0.5046  0.1526  0.1900
  964MOL0     C32947   1.455  10.210  11.099  1.0317  0.6661  0.4794
  964MOL0     C32948   1.319  10.226  11.074 -0.4369 -0.5813  0.1558
  964MOL0     C32949   0.918  10.430  11.038 -0.4005  0.1817 -0.5045
  964MOL0     C32950   0.914  10.435  10.899  0.5098 -0.5503 -0.5287
  964MOL0     C32951   0.797  10.478  10.841 -0.5474 -0.2718  0.6155
  964MOL0     C32952   0.691  10.516  10.913  1.0464  0.0688 -0.0507
  964MOL0     O32953   0.573  10.543  10.844 -0.8870  0.1095  0.8193
  964MOL0     C32954   0.451  10.588  10.898 -0.0544 -0.0062  0.5788
  964MOL0     C32955   0.370  10.651  10.785 -0.3971  1.0370 -0.5195
  964MOL0     C32956   0.274  10.552  10.728 -0.0214  0.3381 -0.3469
  964MOL0     C32957   0.185  10.613  10.608  0.1032 -1.3201 -0.3653
  964MOL0     C32958   0.256  10.690  10.515  0.0048 -0.5693  0.0843
  964MOL0     C32959   0.331  10.753  10.441  0.6964  0.0136 -0.0316
  964MOL0     C32960   0.696  10.508  11.050 -1.0009 -0.7894  0.1603
  964MOL0     C32961   0.802  10.459  11.117 -0.3815  0.5059 -0.1210
  964MOL0     C32962   0.798  10.446  11.264  0.5821 -0.2745 -0.7672
  964MOL0     H32963   1.320  10.561  11.013  2.3057  0.2902 -2.5858
  964MOL0     H32964   1.562  10.537  11.076 -0.3558  0.2196  2.3628
  964MOL0     H32965   1.727  10.467  11.216  0.8744 -0.4916 -0.0072
  964MOL0     H32966   1.799  10.436  11.050 -1.0501  2.0611 -0.1551
  964MOL0     H32967   1.859  10.271  11.295  1.3411  2.7632  2.2241
  964MOL0     H32968   1.935  10.257  11.136 -0.5496 -1.8667  1.7768
  964MOL0     H32969   2.011  10.505  11.199  1.4122 -0.4495 -0.4643
  964MOL0     H32970   1.960  10.455  11.363 -2.6969  1.0701 -1.3818
  964MOL0     H32971   2.116  10.242  11.336  0.6482 -0.6655  0.7953
  964MOL0     H32972   2.162  10.308  11.181 -2.0302  1.8034 -1.6762
  964MOL0     H32973   2.175  10.436  11.462 -4.0795 -2.8839 -1.4339
  964MOL0     H32974   2.249  10.519  11.329  2.5284  0.0564  0.8049
  964MOL0     H32975   2.331  10.230  11.378  3.0901 -0.6689 -0.6684
  964MOL0     H32976   2.416  10.367  11.297 -0.9670  1.5266 -0.2566
  964MOL0     H32977   2.513  10.301  11.545  1.9967  2.3858 -1.0289
  964MOL0     H32978   2.357  10.342  11.602  1.7224 -1.4506  2.0465
  964MOL0     H32979   2.396  10.585  11.535 -1.7781 -2.4106  0.1616
  964MOL0     H32980   2.514  10.522  11.653 -0.0238  2.7305 -0.2668
  964MOL0     H32981   2.475  10.596  11.277 -2.1606  0.2132  3.9885
  964MOL0     H32982   2.850  10.598  11.128 -0.1767 -0.2465 -0.1907
  964MOL0     H32983   2.727  10.718  11.105 -0.6914 -0.0361  0.4095
  964MOL0     H32984   2.693  10.416  11.059  0.3136  0.2835  0.4239
  964MOL0     H32985   2.562  10.537  11.022 -0.3080  0.7467 -1.9815
  964MOL0     H32986   2.653  10.452  10.833  0.6003 -1.7950  0.8261
  964MOL0     H32987   2.652  10.625  10.849  0.9751  1.7350  1.9526
  964MOL0     H32988   2.896  10.453  10.894  0.9487 -0.7865 -2.1092
  964MOL0     H32989   2.848  10.521  10.735  0.5507 -0.5185  0.4292
  964MOL0     H32990   3.097  10.571  10.765 -1.6330 -0.4603  1.9432
  964MOL0     H32991   3.349  10.510  10.738  2.4057 -0.5215  1.5098
  964MOL0     H32992   3.462  10.567  10.854 -0.2255  0.9216  0.7828
  964MOL0     H32993   3.411  10.674  10.718  1.3221 -0.2911 -0.0494
  964MOL0     H32994   3.681  10.844  11.140 -1.5579 -0.1478 -1.0523
  964MOL0     H32995   3.911  10.889  11.138 -0.6126  1.0627  0.1930
  964MOL0     H32996   4.259  10.884  10.851  0.0947 -0.2819  0.5208
  964MOL0     H32997   4.136  10.889  10.737 -1.6655  0.3518  1.0749
  964MOL0     H32998   4.056  11.110  10.837 -1.6148 -2.7761  0.7071
  964MOL0     H32999   4.180  11.103  10.963  2.4547  1.0619 -0.4053
  964MOL0     H33000   4.210  11.249  10.753  0.5242  1.2380  2.6816
  964MOL0     H33001   4.253  11.088  10.674  1.0097  1.7266 -1.1928
  964MOL0     H33002   4.437  11.047  10.823  2.2569  0.7332 -2.2851
  964MOL0     H33003   4.397  11.191  10.920  3.5979  0.0295 -0.6555
  964MOL0     H33004   4.467  11.211  10.622  0.3722 -0.0031 -0.4029
  964MOL0     H33005   4.461  11.338  10.747  1.7166  0.3030  0.1424
  964MOL0     H33006   4.649  11.124  10.664 -2.0600  0.4132 -0.9702
  964MOL0     H33007   4.652  11.183  10.839  3.3337  0.3780  0.0183
  964MOL0     H33008   4.694  11.414  10.737  2.6272  0.7569 -0.4972
  964MOL0     H33009   4.698  11.329  10.579 -1.0517  0.2977  0.1948
  964MOL0     H33010   4.907  11.265  10.616  0.1982 -2.8978  1.7754
  964MOL0     H33011   4.889  11.220  10.777 -0.4163 -0.2770  0.4291
  964MOL0     H33012   3.932  10.832  10.710 -0.3985 -1.5837 -0.3094
  964MOL0     H33013   3.689  10.796  10.705 -0.1754 -1.3088  1.1231
  964MOL0     H33014   3.193  10.909  11.113 -0.7372 -0.6908  0.8675
  964MOL0     H33015   2.978  10.842  11.082  0.9025  1.6761 -0.0672
  964MOL0     H33016   1.473  10.106  11.121  0.6316 -0.1942 -2.7182
  964MOL0     H33017   1.248  10.145  11.064 -0.2895 -0.7872  0.7230
  964MOL0     H33018   0.993  10.397  10.834  2.3158 -0.5821  1.5623
  964MOL0     H33019   0.785  10.476  10.734  3.0207 -0.3226  0.1066
  964MOL0     H33020   0.394  10.509  10.948  0.2544  1.1048  2.8141
  964MOL0     H33021   0.481  10.660  10.976  2.7852 -1.4231  0.9293
  964MOL0     H33022   0.431  10.707  10.712 -1.3350  3.4077  0.4025
  964MOL0     H33023   0.302  10.721  10.835 -2.4128 -1.0758 -0.1681
  964MOL0     H33024   0.322  10.465  10.682  0.0932  0.6789 -0.8813
  964MOL0     H33025   0.219  10.503  10.810  1.8275 -3.6962 -1.2815
  964MOL0     H33026   0.102  10.677  10.639 -1.4627 -2.1161 -2.6027
  964MOL0     H33027   0.145  10.520  10.567  1.3113 -1.8386 -0.3889
  964MOL0     H33028   0.383  10.818  10.374 -1.1519 -1.7809 -3.4169
  964MOL0     H33029   0.617  10.541  11.117  2.1160  1.8811  2.9010
  964MOL0     H33030   0.823  10.344  11.293  2.3382  0.4483  0.4342
  964MOL0     H33031   0.860  10.518  11.318  2.3275 -0.7995 -1.9780
  964MOL0     H33032   0.697  10.470  11.299  0.0785 -3.2101  0.0710
  965MOL0     O33033   7.561   1.575   7.357 -0.0090  0.2270  0.4208
  965MOL0     C33034   7.556   1.645   7.456  0.7439  0.8407  0.1214
  965MOL0     O33035   7.664   1.674   7.533 -0.6519 -0.5828  0.0525
  965MOL0     C33036   7.780   1.617   7.507 -0.1902  0.2780  0.9148
  965MOL0     C33037   7.907   1.688   7.479  1.1352 -0.1762  0.7965
  965MOL0     C33038   8.018   1.622   7.434 -0.1832 -0.1189 -0.0078
  965MOL0     C33039   8.018   1.485   7.429 -0.8050 -0.2583  0.2565
  965MOL0     O33040   8.124   1.409   7.391  0.3173 -0.3210  0.0275
  965MOL0     C33041   8.258   1.435   7.449 -0.2799  0.0590 -0.2238
  965MOL0     C33042   8.364   1.440   7.344  0.5486 -0.1931  0.0937
  965MOL0     C33043   8.501   1.422   7.420  0.6709  0.1757  0.4636
  965MOL0     C33044   8.603   1.418   7.312 -0.6710  0.7354 -0.2818
  965MOL0     C33045   8.745   1.404   7.364 -0.6063  0.4949 -0.0446
  965MOL0     C33046   8.847   1.407   7.247 -0.1844 -0.0334  0.2877
  965MOL0     C33047   8.991   1.426   7.282  0.5657 -1.4881 -0.3472
  965MOL0     C33048   9.087   1.379   7.161 -0.3567  0.4681  0.1442
  965MOL0     N33049   9.226   1.398   7.193 -0.7711 -0.2365 -0.7764
  965MOL0     C33050   9.323   1.301   7.204  0.2043 -0.1319  1.0351
  965MOL0     C33051   9.427   1.366   7.256 -0.5738 -0.1023 -0.1571
  965MOL0     C33052   9.572   1.320   7.276  0.3537 -0.0956 -0.5523
  965MOL0     C33053   9.632   1.273   7.147 -0.0192 -0.1437 -0.1541
  965MOL0     C33054   9.653   1.378   7.035 -0.3815  0.5189  0.3943
  965MOL0     C33055   9.783   1.460   7.054 -0.1112 -0.7278  0.3204
  965MOL0     O33056   9.906   1.381   7.030 -0.4562  0.3227 -0.6246
  965MOL0     C33057  10.030   1.414   7.082  1.1956 -0.0823 -0.3617
  965MOL0     C33058  10.050   1.514   7.181 -0.7544 -0.3900  0.3327
  965MOL0     C33059  10.180   1.533   7.234 -0.0373 -0.5242 -0.5328
  965MOL0     C33060  10.176   1.634   7.356 -0.0079  0.2253  0.8338
  965MOL0     C33061  10.294   1.463   7.180 -0.3747 -0.8909  0.1740
  965MOL0     C33062  10.429   1.482   7.239  0.6206 -0.2634  0.2602
  965MOL0     O33063  10.511   1.368   7.225  0.3477  0.6405 -0.0389
  965MOL0     C33064  10.646   1.358   7.270  0.3662  0.5382  0.0557
  965MOL0     C33065  10.699   1.439   7.376  0.6727  0.4538 -0.9624
  965MOL0     C33066  10.830   1.426   7.411 -0.0281 -0.6553  0.5255
  965MOL0     C33067  10.907   1.322   7.350  0.3093  0.4418 -0.3289
  965MOL0     O33068  11.043   1.321   7.373 -0.6222 -0.2193  0.4928
  965MOL0     C33069  11.125   1.199   7.344  0.9695 -0.1840  0.0183
  965MOL0     C33070  11.257   1.195   7.420 -0.1789 -0.3365 -0.1056
  965MOL0     C33071  11.311   1.056   7.431  0.2556 -0.4404  0.4827
  965MOL0     C33072  11.389   1.031   7.553  0.0651  0.0367  0.6216
  965MOL0     C33073  11.500   0.924   7.537  0.0615  0.7630 -0.4343
  965MOL0     C33074  11.558   0.904   7.681  0.5680 -0.8323  0.9346
  965MOL0     C33075  11.636   0.773   7.685  0.6226 -0.5023  0.2583
  965MOL0     C33076  11.699   0.763   7.828 -0.7691  1.2515 -0.0600
  965MOL0    Cl33077  11.596   0.745   7.978 -0.0693  0.1434 -0.1538
  965MOL0     C33078  10.853   1.245   7.244 -0.4830 -0.6389 -0.2309
  965MOL0     C33079  10.722   1.263   7.202 -0.0945 -0.6185 -0.3298
  965MOL0     O33080  10.470   1.592   7.271 -0.0157 -0.9600  0.0571
  965MOL0     C33081  10.270   1.353   7.093  0.4153  0.4355  0.0590
  965MOL0     C33082  10.136   1.334   7.039  0.0147 -0.2651 -0.9468
  965MOL0     N33083   9.399   1.501   7.269 -0.3685 -0.8698  0.9172
  965MOL0     N33084   9.274   1.520   7.233  0.1805 -0.5988  0.9321
  965MOL0     C33085   7.905   1.410   7.466 -0.3263  0.0099  0.3800
  965MOL0     C33086   7.787   1.476   7.508 -0.1384  0.0567  0.0192
  965MOL0     C33087   7.431   1.694   7.514  0.5418 -0.1745 -0.5229
  965MOL0     C33088   7.445   1.810   7.593 -0.0572  0.6890  0.2972
  965MOL0     C33089   7.331   1.866   7.647 -0.8021  0.9585 -0.0097
  965MOL0     C33090   7.202   1.811   7.630 -0.3097  0.8365 -0.0393
  965MOL0     O33091   7.092   1.891   7.658 -0.2822 -0.2402 -0.4090
  965MOL0     C33092   6.993   1.853   7.758 -0.3679  0.0558  0.7675
  965MOL0     C33093   6.849   1.850   7.714  0.6627 -0.1587 -0.0981
  965MOL0     C33094   6.817   1.974   7.632 -0.1682 -0.2707  0.8603
  965MOL0     C33095   6.661   1.982   7.594  0.0459 -0.1971 -0.1468
  965MOL0     C33096   6.589   2.056   7.698  0.6069 -0.2890 -0.2146
  965MOL0     C33097   6.522   2.109   7.786 -0.6355 -0.0268 -0.5710
  965MOL0     C33098   7.191   1.690   7.563  0.2093  0.0322 -0.5271
  965MOL0     C33099   7.300   1.630   7.496  0.4074 -0.1335 -0.3932
  965MOL0     C33100   7.292   1.496   7.425  0.0178 -0.0064  0.3806
  965MOL0     H33101   7.898   1.796   7.474 -0.4511 -0.3239 -0.6042
  965MOL0     H33102   8.107   1.679   7.408 -1.2777 -0.0947 -4.5202
  965MOL0     H33103   8.288   1.352   7.514  1.1919 -3.3630 -4.6897
  965MOL0     H33104   8.257   1.525   7.511  0.5389 -1.7475  2.6065
  965MOL0     H33105   8.346   1.361   7.270  1.0556  0.5687 -0.8631
  965MOL0     H33106   8.355   1.535   7.291 -2.5912  0.2284  1.1735
  965MOL0     H33107   8.517   1.511   7.482  0.9774 -0.0018  0.6467
  965MOL0     H33108   8.512   1.343   7.496 -2.5244 -0.7995  0.0500
  965MOL0     H33109   8.581   1.345   7.233  0.0206  1.9181 -1.6332
  965MOL0     H33110   8.593   1.518   7.269  2.3253  2.1607  2.0420
  965MOL0     H33111   8.757   1.307   7.414 -0.2107 -1.4513 -3.5641
  965MOL0     H33112   8.776   1.478   7.438  0.4003  0.4734 -0.4346
  965MOL0     H33113   8.832   1.322   7.179  2.2798  0.0723 -0.4883
  965MOL0     H33114   8.823   1.489   7.179 -1.4009 -1.9127 -1.6786
  965MOL0     H33115   9.012   1.362   7.368  1.9807 -0.2210  0.2838
  965MOL0     H33116   9.000   1.532   7.307 -2.6177 -1.2518  0.2827
  965MOL0     H33117   9.072   1.274   7.138  2.2547  0.3006 -1.2164
  965MOL0     H33118   9.059   1.446   7.079 -1.8426  0.0096  0.2564
  965MOL0     H33119   9.305   1.197   7.177  1.9481 -0.5739  1.4537
  965MOL0     H33120   9.579   1.239   7.350  1.2405  1.1326  0.7730
  965MOL0     H33121   9.637   1.399   7.314 -1.9453  1.1803  0.9666
  965MOL0     H33122   9.724   1.218   7.169 -0.1853 -1.6528 -2.7436
  965MOL0     H33123   9.567   1.195   7.108 -0.1321 -0.1466  0.0406
  965MOL0     H33124   9.653   1.328   6.938 -0.9527 -1.4455  1.3656
  965MOL0     H33125   9.567   1.445   7.048 -0.3471  0.3636  1.5245
  965MOL0     H33126   9.786   1.537   6.976 -1.1640 -3.6842 -2.9385
  965MOL0     H33127   9.778   1.520   7.145  2.4153 -0.4918  0.3752
  965MOL0     H33128   9.968   1.579   7.210  1.2217  2.4301 -0.0434
  965MOL0     H33129  10.208   1.730   7.316  0.5148 -0.8422 -1.5220
  965MOL0     H33130  10.249   1.597   7.428  0.5384 -2.7554 -1.0472
  965MOL0     H33131  10.076   1.639   7.400 -1.6587 -0.1020 -2.5221
  965MOL0     H33132  10.645   1.519   7.424  0.9782  1.0906 -1.6562
  965MOL0     H33133  10.869   1.494   7.486 -1.8829  0.4376  0.5639
  965MOL0     H33134  11.063   1.113   7.372 -2.4914  2.0739 -0.0431
  965MOL0     H33135  11.151   1.200   7.238 -1.7565 -0.7409 -0.7321
  965MOL0     H33136  11.332   1.261   7.376 -1.2156  1.7989  1.1761
  965MOL0     H33137  11.250   1.228   7.525  1.2393 -1.9410  0.5456
  965MOL0     H33138  11.370   1.038   7.341 -2.2645 -0.9671 -1.1720
  965MOL0     H33139  11.229   0.983   7.435  0.4291 -0.6034  1.3483
  965MOL0     H33140  11.328   1.015   7.643 -0.3208  0.0410  0.3649
  965MOL0     H33141  11.439   1.128   7.566  0.9240 -0.1844 -0.8887
  965MOL0     H33142  11.467   0.824   7.504 -1.5485  1.3466 -0.6731
  965MOL0     H33143  11.573   0.961   7.465  1.8568  1.5466  1.6850
  965MOL0     H33144  11.477   0.905   7.755 -0.4701  0.9264 -0.1490
  965MOL0     H33145  11.631   0.985   7.695  1.6078 -1.1218 -2.1166
  965MOL0     H33146  11.710   0.767   7.605 -1.4063 -0.2391 -1.7530
  965MOL0     H33147  11.573   0.684   7.676 -0.4892  0.1006  1.5912
  965MOL0     H33148  11.755   0.856   7.841  1.2786  0.1221 -0.4882
  965MOL0     H33149  11.773   0.683   7.827 -3.6011 -1.5656  0.7914
  965MOL0     H33150  10.912   1.176   7.184 -0.0057  0.5497 -1.1683
  965MOL0     H33151  10.687   1.205   7.117 -0.1464 -4.4646  2.0966
  965MOL0     H33152  10.350   1.291   7.052 -0.9242 -1.0815 -0.3566
  965MOL0     H33153  10.132   1.272   6.950  1.1597  0.7298 -1.7183
  965MOL0     H33154   7.905   1.302   7.457  1.2483  0.0977 -1.3468
  965MOL0     H33155   7.698   1.423   7.541 -1.3076  0.1855 -2.6514
  965MOL0     H33156   7.537   1.866   7.610  0.1444 -0.1359  2.1373
  965MOL0     H33157   7.322   1.964   7.693 -0.2281  0.7647  0.5355
  965MOL0     H33158   7.024   1.754   7.793  3.2570  0.2106 -1.4322
  965MOL0     H33159   6.998   1.915   7.848 -2.9141 -0.3767  1.2928
  965MOL0     H33160   6.783   1.864   7.800 -1.2179  2.1371 -1.7922
  965MOL0     H33161   6.812   1.757   7.672  1.9768 -1.2757  1.0923
  965MOL0     H33162   6.843   2.056   7.699  2.3304 -0.0444 -0.2742
  965MOL0     H33163   6.866   1.978   7.534 -1.5563 -0.4388  0.1277
  965MOL0     H33164   6.613   1.885   7.576  0.7533 -0.4903 -0.4655
  965MOL0     H33165   6.653   2.036   7.500  0.9110  1.6360  0.7678
  965MOL0     H33166   6.463   2.149   7.867 -0.2948 -0.1943 -0.2369
  965MOL0     H33167   7.093   1.642   7.558  0.5556 -0.6151 -1.5035
  965MOL0     H33168   7.197   1.443   7.430 -1.3355  2.3530  2.4282
  965MOL0     H33169   7.312   1.520   7.320 -2.5193  0.7927  0.0107
  965MOL0     H33170   7.354   1.417   7.470 -0.9250 -0.6285  0.6147
  966MOL0     O33171   8.072  10.931   7.327  0.8883 -0.4736  0.0090
  966MOL0     C33172   8.078  11.039   7.261 -0.3142 -0.9782 -1.3510
  966MOL0     O33173   8.152  11.138   7.301  0.1326  0.4798  0.1838
  966MOL0     C33174   8.275  11.116   7.355  0.6943  0.6284 -0.0063
  966MOL0     C33175   8.277  11.107   7.491 -0.4830 -0.5494  1.1604
  966MOL0     C33176   8.405  11.091   7.553 -0.0792  0.8940  0.2296
  966MOL0     C33177   8.519  11.067   7.482 -0.4199 -0.4819  0.1418
  966MOL0     O33178   8.640  11.058   7.549  0.1095  0.2491  0.3881
  966MOL0     C33179   8.724  10.945   7.511 -0.1232  0.6861  0.6083
  966MOL0     C33180   8.859  10.938   7.586 -0.2510 -0.1168  0.0350
  966MOL0     C33181   8.946  10.823   7.542  0.0708  0.0119 -0.1039
  966MOL0     C33182   9.070  10.806   7.630  1.1172  0.3362 -0.0110
  966MOL0     C33183   9.173  10.715   7.563 -0.2423  0.1908  0.0592
  966MOL0     C33184   9.184  10.576   7.620 -0.2242  0.2479 -0.2532
  966MOL0     C33185   9.266  10.483   7.533  0.5128 -0.1604 -0.1272
  966MOL0     C33186   9.278  10.343   7.601  0.3514 -0.4843 -0.2470
  966MOL0     N33187   9.356  10.252   7.521  0.3513 -0.3305 -0.8520
  966MOL0     C33188   9.303  10.160   7.441  0.4209 -0.0903  0.1171
  966MOL0     C33189   9.399  10.076   7.407 -0.3204 -0.1431 -0.1821
  966MOL0     C33190   9.368   9.942   7.341  0.1609  0.6028  0.5514
  966MOL0     C33191   9.486   9.871   7.277 -0.5000  0.3803  0.5979
  966MOL0     C33192   9.444   9.740   7.201 -0.0114 -0.7099 -0.4595
  966MOL0     C33193   9.560   9.685   7.128 -0.3446  0.3599  0.1091
  966MOL0     O33194   9.658   9.623   7.221 -0.0952 -1.1740 -0.6151
  966MOL0     C33195   9.794   9.656   7.214  0.1061  0.1288  1.1844
  966MOL0     C33196   9.887   9.545   7.215  0.3067 -0.4661  1.2801
  966MOL0     C33197  10.029   9.570   7.226 -0.7072  0.5063  1.0331
  966MOL0     C33198  10.135   9.455   7.236  0.5213 -0.1089  0.4878
  966MOL0     C33199  10.070   9.705   7.222 -1.2513  0.5660 -0.0995
  966MOL0     C33200  10.217   9.739   7.206  0.3612 -0.0040  0.4572
  966MOL0     O33201  10.247   9.857   7.276  0.9159  0.3782  0.5653
  966MOL0     C33202  10.361   9.921   7.250 -0.5390  0.1374 -0.2519
  966MOL0     C33203  10.362  10.057   7.234 -0.1600 -0.2983  0.9101
  966MOL0     C33204  10.471  10.136   7.222 -0.3602  0.7767 -0.0906
  966MOL0     C33205  10.600  10.074   7.215  0.2354  0.4404  0.6762
  966MOL0     O33206  10.705  10.166   7.209  0.1283 -0.2482 -0.3416
  966MOL0     C33207  10.838  10.112   7.227 -0.3172 -0.6379 -0.5905
  966MOL0     C33208  10.951  10.220   7.254 -0.0688 -0.2342 -0.0886
  966MOL0     C33209  11.081  10.150   7.272 -0.0174  0.2873 -0.5988
  966MOL0     C33210  11.193  10.250   7.267  0.3646 -0.2529  0.2495
  966MOL0     C33211  11.332  10.193   7.271 -0.6341  0.7491 -0.4756
  966MOL0     C33212  11.427  10.317   7.283  0.8961  0.4951  0.2672
  966MOL0     C33213  11.576  10.282   7.267  0.3992 -0.1025 -0.8483
  966MOL0     C33214  11.637  10.210   7.394 -0.1279  0.4412  0.5124
  966MOL0    Cl33215  11.815  10.239   7.364  0.1988 -0.5225  0.1893
  966MOL0     C33216  10.607   9.935   7.214 -0.8137  1.4731 -0.8332
  966MOL0     C33217  10.487   9.859   7.237  0.3452 -0.6356  0.5591
  966MOL0     O33218  10.295   9.678   7.139 -0.0330 -0.4047 -0.7475
  966MOL0     C33219   9.978   9.805   7.202 -0.0906 -0.1902  0.8045
  966MOL0     C33220   9.840   9.780   7.203  0.6454 -0.2304  0.1420
  966MOL0     N33221   9.519  10.124   7.462 -0.1739 -0.2061 -0.3985
  966MOL0     N33222   9.489  10.235   7.531  0.0220 -0.0377 -0.3154
  966MOL0     C33223   8.507  11.069   7.341  0.2338 -0.2423 -0.0054
  966MOL0     C33224   8.385  11.100   7.273 -0.6704 -0.9079 -1.3728
  966MOL0     C33225   8.007  11.040   7.129  0.0296  0.3051  0.2219
  966MOL0     C33226   7.899  10.941   7.109 -0.0035 -0.5589 -0.2191
  966MOL0     C33227   7.824  10.935   6.992 -0.2623 -0.2691  1.0441
  966MOL0     C33228   7.846  11.024   6.893  0.5544 -0.7088  0.1454
  966MOL0     O33229   7.769  11.014   6.780 -0.4126  1.0096 -0.2150
  966MOL0     C33230   7.827  10.929   6.686 -0.2056 -0.1891 -0.6093
  966MOL0     C33231   7.757  10.789   6.684 -0.0292 -0.7845 -0.3310
  966MOL0     C33232   7.603  10.783   6.679  0.0801  0.2222  0.3195
  966MOL0     C33233   7.544  10.833   6.543 -0.1443 -0.2729 -0.5257
  966MOL0     C33234   7.396  10.872   6.559 -0.1179 -0.4038  0.1848
  966MOL0     C33235   7.289  10.932   6.561 -0.3865 -1.0978 -1.4903
  966MOL0     C33236   7.940  11.124   6.914 -0.9905 -0.6181  0.7234
  966MOL0     C33237   8.020  11.134   7.030  0.3205 -0.5824  0.6897
  966MOL0     C33238   8.100  11.261   7.039  0.5833  0.6787 -0.4378
  966MOL0     H33239   8.193  11.126   7.556 -0.0192  3.0247  0.9616
  966MOL0     H33240   8.410  11.091   7.661  1.1351 -2.3795  0.2736
  966MOL0     H33241   8.750  10.950   7.405 -1.5336  1.1289  0.2641
  966MOL0     H33242   8.669  10.851   7.524  1.1295 -0.1508  0.0034
  966MOL0     H33243   8.919  11.028   7.573  0.6426 -0.8224 -0.9294
  966MOL0     H33244   8.829  10.923   7.690 -1.2342  1.2015 -0.0340
  966MOL0     H33245   8.885  10.734   7.559  3.0420 -1.6435  3.0455
  966MOL0     H33246   8.976  10.836   7.438  0.5635  1.2055  0.1654
  966MOL0     H33247   9.118  10.904   7.642  1.1030  0.3013  0.3652
  966MOL0     H33248   9.031  10.777   7.728 -0.5317 -2.2703 -1.3330
  966MOL0     H33249   9.275  10.750   7.577  0.3942 -1.5340 -0.0114
  966MOL0     H33250   9.149  10.705   7.457 -2.9685  0.5153  0.5721
  966MOL0     H33251   9.227  10.585   7.720  1.6422 -0.1596 -0.9739
  966MOL0     H33252   9.083  10.535   7.635 -0.5435  0.5870 -1.3796
  966MOL0     H33253   9.363  10.526   7.507  0.4378  1.8922  2.4903
  966MOL0     H33254   9.217  10.479   7.436 -0.0007 -2.3221  0.1698
  966MOL0     H33255   9.322  10.354   7.700 -1.4657  1.7961  0.4095
  966MOL0     H33256   9.178  10.301   7.617  0.8923 -1.4740  0.5924
  966MOL0     H33257   9.206  10.146   7.396  1.4833 -1.0435 -2.0471
  966MOL0     H33258   9.289   9.952   7.266 -4.1566 -2.1579  4.2136
  966MOL0     H33259   9.325   9.870   7.411 -1.2575  2.3517  1.5795
  966MOL0     H33260   9.543   9.941   7.215 -2.2670  2.9749  1.7026
  966MOL0     H33261   9.543   9.842   7.366 -0.1985  1.6267  0.8289
  966MOL0     H33262   9.400   9.662   7.264 -1.0301  1.2831  1.3989
  966MOL0     H33263   9.359   9.761   7.135 -1.7857 -0.1931  1.8422
  966MOL0     H33264   9.524   9.617   7.051 -1.1057  1.3644 -0.4357
  966MOL0     H33265   9.601   9.768   7.070 -0.0127  1.2425  1.5718
  966MOL0     H33266   9.840   9.449   7.227 -0.8941  0.2877  3.1111
  966MOL0     H33267  10.194   9.465   7.327 -1.0415  1.6105  1.3704
  966MOL0     H33268  10.198   9.438   7.148 -1.0097 -4.8705 -0.0205
  966MOL0     H33269  10.079   9.361   7.242  2.8153 -1.4955  1.4372
  966MOL0     H33270  10.269  10.112   7.218  0.3315 -0.0499 -1.5371
  966MOL0     H33271  10.442  10.240   7.212 -0.5567  0.6269 -1.2613
  966MOL0     H33272  10.834  10.044   7.313 -1.8250  0.2870  0.1066
  966MOL0     H33273  10.859  10.049   7.140  1.1472 -2.6709  1.1350
  966MOL0     H33274  10.962  10.286   7.168  0.7374 -2.9220 -2.1792
  966MOL0     H33275  10.932  10.290   7.336  1.1870  1.2139 -0.9771
  966MOL0     H33276  11.108  10.076   7.195  1.9419  2.0395 -1.6894
  966MOL0     H33277  11.079  10.107   7.372  1.9094  1.3997 -0.0320
  966MOL0     H33278  11.167  10.316   7.351 -3.0724  1.3430 -1.8304
  966MOL0     H33279  11.184  10.308   7.175 -1.2498  0.1079  0.5908
  966MOL0     H33280  11.351  10.130   7.359 -0.4040 -0.3386 -1.2846
  966MOL0     H33281  11.348  10.133   7.181  3.7849  2.7376 -1.2976
  966MOL0     H33282  11.418  10.348   7.388  1.8458  1.0286  0.2050
  966MOL0     H33283  11.396  10.390   7.208 -0.0435  0.3913  0.5477
  966MOL0     H33284  11.625  10.379   7.256 -2.3586  1.7369  1.4796
  966MOL0     H33285  11.598  10.239   7.169 -1.1730  0.9814 -1.7330
  966MOL0     H33286  11.607  10.106   7.405 -3.3721  1.4220  2.1221
  966MOL0     H33287  11.609  10.265   7.485 -0.2661 -1.6307  1.7821
  966MOL0     H33288  10.703   9.885   7.208  0.6294  3.6885  1.6741
  966MOL0     H33289  10.504   9.752   7.243 -0.1407 -0.7928 -0.4959
  966MOL0     H33290  10.010   9.906   7.176  0.8627 -1.2837 -2.8415
  966MOL0     H33291   9.769   9.862   7.194 -0.6328 -1.3669 -0.6179
  966MOL0     H33292   8.590  11.061   7.271 -0.1350 -2.2260 -0.2676
  966MOL0     H33293   8.386  11.086   7.166  0.2217 -3.8151 -1.0708
  966MOL0     H33294   7.880  10.871   7.189 -0.7809  0.5663  0.6233
  966MOL0     H33295   7.740  10.867   6.978  0.2579 -0.8073  0.4692
  966MOL0     H33296   7.812  10.989   6.596 -0.7887  0.9271  0.2008
  966MOL0     H33297   7.934  10.918   6.702 -0.5812 -1.6232  1.2601
  966MOL0     H33298   7.785  10.734   6.774  0.3123 -0.7598 -0.4172
  966MOL0     H33299   7.795  10.736   6.595  1.1742 -0.8739  0.2181
  966MOL0     H33300   7.566  10.681   6.687  0.2184  0.1311 -0.1703
  966MOL0     H33301   7.565  10.857   6.751  3.4272  2.0963  0.3778
  966MOL0     H33302   7.558  10.760   6.463  1.7577 -0.3230 -0.1926
  966MOL0     H33303   7.582  10.929   6.506  0.4762  0.0187  0.8100
  966MOL0     H33304   7.200  10.991   6.563 -0.1615 -0.5339  2.8107
  966MOL0     H33305   7.951  11.195   6.832 -0.6897 -0.8341  0.5761
  966MOL0     H33306   8.202  11.225   7.054  1.6556  2.7623 -2.2546
  966MOL0     H33307   8.100  11.309   6.941  1.7268 -0.9212 -1.2824
  966MOL0     H33308   8.071  11.331   7.118  0.7915 -1.4400  1.6333
  967MOL0     O33309   3.185   3.321   7.244  0.2896 -0.2386  0.1666
  967MOL0     C33310   3.119   3.424   7.218  0.5312  0.5598  0.6191
  967MOL0     O33311   3.175   3.545   7.186  0.3724 -0.7122 -0.3862
  967MOL0     C33312   3.310   3.553   7.198 -0.1049 -0.3169  0.6257
  967MOL0     C33313   3.385   3.582   7.086  0.2395  0.9451 -0.7702
  967MOL0     C33314   3.520   3.615   7.091 -0.4483  0.3323  0.0762
  967MOL0     C33315   3.585   3.630   7.212 -0.2068  0.4982 -0.5451
  967MOL0     O33316   3.721   3.659   7.234  0.3329 -0.0300 -0.0430
  967MOL0     C33317   3.805   3.655   7.119  0.0197  0.7342  0.0464
  967MOL0     C33318   3.953   3.664   7.158  0.1823 -0.6103 -0.0417
  967MOL0     C33319   3.994   3.546   7.236 -0.6360  0.9493 -0.0311
  967MOL0     C33320   4.132   3.550   7.305  0.1188 -0.4163  0.2325
  967MOL0     C33321   4.148   3.425   7.397 -0.6713  0.3921  0.1989
  967MOL0     C33322   4.278   3.417   7.479 -0.9087  0.5276 -0.0269
  967MOL0     C33323   4.402   3.417   7.384  0.3646 -0.3001 -0.2734
  967MOL0     C33324   4.527   3.376   7.466 -0.4045 -1.1558 -1.0651
  967MOL0     N33325   4.550   3.455   7.589  0.0149  0.2244 -0.8943
  967MOL0     C33326   4.558   3.596   7.591  1.0214  0.5356 -0.6082
  967MOL0     C33327   4.571   3.627   7.722  0.3012  0.0179 -0.0483
  967MOL0     C33328   4.575   3.766   7.771  0.2751  0.1607  0.0905
  967MOL0     C33329   4.717   3.813   7.795  0.1200  0.1474 -1.0699
  967MOL0     C33330   4.719   3.947   7.865 -1.2975  0.2024  0.0431
  967MOL0     C33331   4.860   3.966   7.922 -1.1135 -0.2499  0.0523
  967MOL0     O33332   4.882   4.109   7.944 -0.5622 -0.1016  0.2522
  967MOL0     C33333   5.003   4.161   7.964 -0.5733 -0.2824 -0.1091
  967MOL0     C33334   4.996   4.302   7.971 -0.5761 -0.6720  0.6698
  967MOL0     C33335   5.116   4.375   8.001 -0.1572  0.3772  0.4119
  967MOL0     C33336   5.091   4.520   8.016 -0.2828  0.7292  0.9747
  967MOL0     C33337   5.240   4.309   8.010  0.5132  0.5422 -1.2220
  967MOL0     C33338   5.375   4.369   8.025 -0.7929 -0.3128  0.2948
  967MOL0     O33339   5.470   4.279   8.069 -0.3057 -0.0505 -0.0277
  967MOL0     C33340   5.607   4.305   8.063  0.8161 -0.0177 -0.0481
  967MOL0     C33341   5.689   4.239   8.157 -0.7524  0.0440  0.0326
  967MOL0     C33342   5.832   4.249   8.151  0.1663  0.6117 -0.0178
  967MOL0     C33343   5.892   4.332   8.054 -0.0628  0.3716  0.5808
  967MOL0     O33344   6.030   4.335   8.033 -0.4919  0.2751  0.2856
  967MOL0     C33345   6.088   4.472   8.054 -0.1355 -0.4606  0.1376
  967MOL0     C33346   6.235   4.476   8.021  0.4842  0.1301  1.0117
  967MOL0     C33347   6.315   4.364   8.062 -0.3053  0.2415 -1.3137
  967MOL0     C33348   6.325   4.327   8.221  0.9828  0.1681  0.7209
  967MOL0     C33349   6.395   4.192   8.255 -0.3108  0.6756 -0.9074
  967MOL0     C33350   6.540   4.196   8.219 -1.0047  0.9988 -0.2855
  967MOL0     C33351   6.610   4.324   8.223 -0.5742 -0.1846 -0.0404
  967MOL0     C33352   6.745   4.323   8.155  0.9846  0.1248 -0.3685
  967MOL0    Cl33353   6.818   4.486   8.177  0.2560 -0.2017 -0.0800
  967MOL0     C33354   5.806   4.397   7.962 -0.2146 -0.2734 -0.1724
  967MOL0     C33355   5.665   4.385   7.964 -0.1201  0.3788 -0.9313
  967MOL0     O33356   5.396   4.488   7.998  0.8090  0.8869  0.3161
  967MOL0     C33357   5.232   4.170   7.994 -0.0632  0.1032  0.1047
  967MOL0     C33358   5.123   4.098   7.978 -0.3743 -0.3925 -0.2004
  967MOL0     N33359   4.560   3.515   7.800 -0.0260  0.1677  0.6095
  967MOL0     N33360   4.539   3.414   7.720 -0.1719 -0.1219 -0.2182
  967MOL0     C33361   3.508   3.602   7.328  0.7150  0.8689 -0.7508
  967MOL0     C33362   3.372   3.563   7.318  0.5675  0.6576 -0.2419
  967MOL0     C33363   2.972   3.424   7.239  0.6798  0.2802 -0.7212
  967MOL0     C33364   2.906   3.546   7.237  0.1199  0.1156  0.1361
  967MOL0     C33365   2.765   3.557   7.254  0.3834  0.1898  0.2949
  967MOL0     C33366   2.690   3.437   7.259 -0.2660 -0.6551 -0.3320
  967MOL0     O33367   2.547   3.433   7.264 -0.3475 -0.1454 -0.7127
  967MOL0     C33368   2.478   3.557   7.240  0.4906 -0.2005  0.0439
  967MOL0     C33369   2.331   3.548   7.283 -0.4336 -0.1896 -0.3214
  967MOL0     C33370   2.309   3.558   7.441 -1.1165  0.2826 -0.0935
  967MOL0     C33371   2.164   3.570   7.482  0.0996  0.0539 -0.6487
  967MOL0     C33372   2.166   3.606   7.622  0.4230  0.3928 -0.2466
  967MOL0     C33373   2.180   3.634   7.734 -0.1545 -0.3883 -0.5678
  967MOL0     C33374   2.748   3.318   7.262 -0.3466 -0.0367 -0.1755
  967MOL0     C33375   2.888   3.311   7.259 -0.1291 -0.8055  0.4441
  967MOL0     C33376   2.948   3.175   7.278 -1.3278 -0.2747 -0.8663
  967MOL0     H33377   3.334   3.576   6.990 -1.3626  0.3909  0.0839
  967MOL0     H33378   3.576   3.635   7.000  3.4838  0.3363  2.2794
  967MOL0     H33379   3.773   3.733   7.049 -4.0414  2.0097  3.0001
  967MOL0     H33380   3.790   3.557   7.071  0.6442 -0.3988  2.0415
  967MOL0     H33381   4.009   3.675   7.065 -0.7707  2.9484 -0.3368
  967MOL0     H33382   3.971   3.747   7.227  2.5233 -0.0651 -1.2064
  967MOL0     H33383   3.920   3.527   7.315 -0.4493  0.9348  0.1401
  967MOL0     H33384   3.997   3.471   7.157 -0.6576  1.1142 -0.1882
  967MOL0     H33385   4.210   3.565   7.229 -2.2809  0.9601 -2.1161
  967MOL0     H33386   4.129   3.647   7.355 -0.9312  0.5964 -1.6757
  967MOL0     H33387   4.141   3.338   7.331 -3.2333  0.4307  0.3121
  967MOL0     H33388   4.068   3.430   7.471 -0.1249  0.3002  0.8068
  967MOL0     H33389   4.284   3.511   7.533  0.8383  0.4060  0.0506
  967MOL0     H33390   4.292   3.327   7.540  2.5769 -0.0087 -1.3786
  967MOL0     H33391   4.418   3.510   7.329  0.8986 -1.7456 -2.7418
  967MOL0     H33392   4.386   3.345   7.303 -1.1938  1.7773 -1.9421
  967MOL0     H33393   4.516   3.271   7.496 -0.1735 -1.2662 -1.3651
  967MOL0     H33394   4.613   3.390   7.400  0.8276 -0.3115  0.6261
  967MOL0     H33395   4.544   3.663   7.506  1.8796 -0.8817 -1.9165
  967MOL0     H33396   4.523   3.787   7.866  0.3309 -1.3391  0.4693
  967MOL0     H33397   4.526   3.829   7.696 -2.5853  0.0585  1.7329
  967MOL0     H33398   4.768   3.739   7.857 -1.2867 -1.2218 -1.4762
  967MOL0     H33399   4.770   3.813   7.699  2.3552  0.0023  0.1077
  967MOL0     H33400   4.698   4.023   7.790 -2.2120  0.5877  0.6751
  967MOL0     H33401   4.641   3.939   7.940 -1.4519 -3.3060 -0.3277
  967MOL0     H33402   4.871   3.906   8.013 -2.1525  0.7209  0.8427
  967MOL0     H33403   4.933   3.913   7.859 -0.9547  0.8519 -0.7128
  967MOL0     H33404   4.898   4.343   7.951  0.4522  0.6870 -2.0513
  967MOL0     H33405   4.984   4.541   8.013 -0.3822  0.2101  0.7655
  967MOL0     H33406   5.128   4.563   7.921 -2.5677 -1.1663 -0.8921
  967MOL0     H33407   5.118   4.568   8.110 -1.9315  0.6433  1.5193
  967MOL0     H33408   5.652   4.176   8.237  0.4214  0.7708  1.1668
  967MOL0     H33409   5.893   4.196   8.224 -0.4902 -1.4026 -0.8558
  967MOL0     H33410   6.031   4.550   8.002 -0.7239  0.6566  2.3579
  967MOL0     H33411   6.078   4.493   8.161 -0.6066  0.6434 -0.1040
  967MOL0     H33412   6.240   4.487   7.912 -2.3997 -1.5766  0.5970
  967MOL0     H33413   6.275   4.567   8.065 -3.1620  2.0498  0.7158
  967MOL0     H33414   6.413   4.395   8.024 -0.2530 -0.9822 -2.2242
  967MOL0     H33415   6.286   4.276   8.005 -2.3526  0.3766 -0.5465
  967MOL0     H33416   6.220   4.312   8.249 -0.0679 -0.4852 -3.0363
  967MOL0     H33417   6.365   4.413   8.276 -0.1159  0.6942  0.7162
  967MOL0     H33418   6.388   4.182   8.363 -0.9029  0.6756 -0.9417
  967MOL0     H33419   6.346   4.105   8.209  0.8782 -0.2694 -0.4479
  967MOL0     H33420   6.544   4.142   8.123 -2.4815 -1.8602  1.1315
  967MOL0     H33421   6.594   4.137   8.293  0.7361  1.9937 -0.7111
  967MOL0     H33422   6.621   4.357   8.327  1.1350  0.6297 -0.4300
  967MOL0     H33423   6.556   4.406   8.176  0.7315  1.7479  1.6191
  967MOL0     H33424   6.742   4.300   8.048 -2.3066 -2.4739  0.1254
  967MOL0     H33425   6.809   4.250   8.206  0.6984 -1.0651 -1.6521
  967MOL0     H33426   5.850   4.455   7.881  1.4990 -2.1281 -0.6705
  967MOL0     H33427   5.605   4.436   7.888 -3.4981 -3.1295 -0.9273
  967MOL0     H33428   5.319   4.108   8.011 -1.3540 -2.0115 -0.5949
  967MOL0     H33429   5.148   3.994   7.960  4.6077  0.1518  1.9338
  967MOL0     H33430   3.554   3.601   7.426 -2.0909 -0.4372  0.6400
  967MOL0     H33431   3.313   3.542   7.407  1.6366  0.1417  0.3691
  967MOL0     H33432   2.956   3.636   7.203  2.4916 -1.8549 -1.9649
  967MOL0     H33433   2.714   3.652   7.247 -1.2224 -0.5916  1.1095
  967MOL0     H33434   2.522   3.652   7.269  0.1125  0.4301 -1.3618
  967MOL0     H33435   2.482   3.573   7.132  0.9944  3.4619  0.4820
  967MOL0     H33436   2.279   3.463   7.238 -0.8903  0.2456 -0.6142
  967MOL0     H33437   2.278   3.635   7.243 -0.6557  0.9998  2.3578
  967MOL0     H33438   2.356   3.468   7.481 -0.8620  0.2757 -0.4051
  967MOL0     H33439   2.362   3.645   7.481  0.0926 -1.9035  3.5319
  967MOL0     H33440   2.125   3.468   7.470 -0.8769  0.2314  0.8072
  967MOL0     H33441   2.120   3.648   7.419  0.9341 -0.1071 -1.4439
  967MOL0     H33442   2.183   3.660   7.838 -2.0789  1.2707 -0.8705
  967MOL0     H33443   2.688   3.229   7.270 -1.6421  0.9685  2.5260
  967MOL0     H33444   3.006   3.169   7.370 -1.2962  2.7369 -0.5963
  967MOL0     H33445   2.876   3.093   7.284 -0.0800 -1.5790 -2.6201
  967MOL0     H33446   3.020   3.163   7.196  0.0169  2.5561 -0.2180
  968MOL0     O33447   6.901   7.736   6.006 -0.2206 -0.2972  0.8134
  968MOL0     C33448   6.863   7.661   6.093 -0.1716  0.3697 -0.1384
  968MOL0     O33449   6.933   7.557   6.143  0.4804  0.0339 -0.4766
  968MOL0     C33450   7.059   7.530   6.104 -0.1308  1.0823  0.5782
  968MOL0     C33451   7.169   7.599   6.158  0.5920  0.2755  0.3747
  968MOL0     C33452   7.295   7.556   6.128  0.0127  0.0509 -0.1645
  968MOL0     C33453   7.321   7.438   6.054 -0.1234 -0.2398 -1.0029
  968MOL0     O33454   7.456   7.416   6.025 -0.2396  0.7134  0.5008
  968MOL0     C33455   7.476   7.303   5.931  0.4906 -0.7870  0.5781
  968MOL0     C33456   7.629   7.304   5.887 -0.5906  0.2485 -0.0332
  968MOL0     C33457   7.662   7.438   5.822  0.2717  0.0554 -0.5398
  968MOL0     C33458   7.807   7.449   5.775  0.0646  0.2067 -0.3516
  968MOL0     C33459   7.837   7.578   5.709 -0.1770 -0.5813 -0.5403
  968MOL0     C33460   7.874   7.689   5.814 -0.1920  0.9787  0.0077
  968MOL0     C33461   8.010   7.643   5.873 -0.5783 -0.1513  0.1791
  968MOL0     C33462   8.085   7.763   5.936 -0.5396 -0.2899  0.3881
  968MOL0     N33463   8.226   7.736   5.958 -1.0106 -0.1082  0.0934
  968MOL0     C33464   8.283   7.643   6.038 -0.3325 -0.6504 -0.0308
  968MOL0     C33465   8.416   7.663   6.047  0.6501  0.1150 -0.4068
  968MOL0     C33466   8.496   7.597   6.142  1.0076  0.5721 -1.1222
  968MOL0     C33467   8.613   7.672   6.201 -0.6236  0.3001 -0.3411
  968MOL0     C33468   8.718   7.575   6.260 -0.1049  0.7778  1.0787
  968MOL0     C33469   8.679   7.504   6.387  0.1551  0.0421  0.6085
  968MOL0     O33470   8.574   7.406   6.379  0.1591 -0.0178 -0.6983
  968MOL0     C33471   8.587   7.292   6.307  0.1443 -0.0337 -0.5485
  968MOL0     C33472   8.709   7.234   6.252  0.2510  0.0504 -0.3217
  968MOL0     C33473   8.712   7.121   6.164 -0.4988 -0.0791 -0.1161
  968MOL0     C33474   8.833   7.059   6.108 -0.4630  0.3626  0.6356
  968MOL0     C33475   8.591   7.050   6.138  0.8846 -0.4484 -0.0436
  968MOL0     C33476   8.573   6.923   6.051  0.1094  0.5435  0.3182
  968MOL0     O33477   8.460   6.850   6.071 -0.5415 -0.0099 -0.6425
  968MOL0     C33478   8.435   6.741   5.995  0.0585  1.1113  0.2852
  968MOL0     C33479   8.315   6.741   5.926 -0.1102 -0.0017  0.0400
  968MOL0     C33480   8.296   6.621   5.847  0.2579 -0.4068  0.5916
  968MOL0     C33481   8.383   6.509   5.848 -0.0195  0.0052 -0.9158
  968MOL0     O33482   8.347   6.400   5.782 -0.3648  1.1711 -0.3117
  968MOL0     C33483   8.449   6.305   5.744 -0.5151  1.0110  0.0248
  968MOL0     C33484   8.382   6.194   5.656  0.4254 -0.4510 -0.6007
  968MOL0     C33485   8.477   6.107   5.589  0.1913  0.7825 -0.3745
  968MOL0     C33486   8.420   5.970   5.546  0.8926 -0.0743 -0.1239
  968MOL0     C33487   8.539   5.878   5.509 -0.4451 -0.3723  0.3507
  968MOL0     C33488   8.489   5.744   5.443  0.7580  0.5606  0.2035
  968MOL0     C33489   8.587   5.637   5.473  0.5794 -0.2339  0.1033
  968MOL0     C33490   8.587   5.527   5.364 -0.3685  0.1317 -0.7803
  968MOL0    Cl33491   8.419   5.479   5.311 -0.3824  0.1668 -0.0001
  968MOL0     C33492   8.502   6.525   5.914  0.3716  0.0782  0.0888
  968MOL0     C33493   8.530   6.642   5.982 -0.3560  0.2415  0.1877
  968MOL0     O33494   8.661   6.901   5.962  0.3750 -0.0436 -0.3410
  968MOL0     C33495   8.465   7.109   6.195 -0.5912 -0.5017  0.2131
  968MOL0     C33496   8.468   7.226   6.268  0.6208 -0.1731  0.4978
  968MOL0     N33497   8.447   7.767   5.954  0.3095  0.2635 -0.2714
  968MOL0     N33498   8.335   7.802   5.895  0.0374 -0.7156  0.1213
  968MOL0     C33499   7.210   7.371   5.997 -0.4737 -0.1262  0.3487
  968MOL0     C33500   7.084   7.415   6.027  1.0985  0.6931 -0.6513
  968MOL0     C33501   6.719   7.669   6.127  0.2132 -0.2464 -0.1353
  968MOL0     C33502   6.655   7.545   6.156 -0.7317 -0.9169 -0.2145
  968MOL0     C33503   6.522   7.541   6.187  0.0144 -0.2171  0.6986
  968MOL0     C33504   6.450   7.663   6.197 -0.4019  0.0532 -0.0344
  968MOL0     O33505   6.318   7.677   6.222  0.3587 -0.7456 -0.0353
  968MOL0     C33506   6.233   7.587   6.284  0.1027  0.3697 -0.6569
  968MOL0     C33507   6.136   7.650   6.382 -0.4470 -0.0524  0.4804
  968MOL0     C33508   6.048   7.755   6.322 -1.1940 -0.0998  0.9688
  968MOL0     C33509   5.976   7.711   6.189 -0.5114  0.6696 -0.1027
  968MOL0     C33510   5.892   7.829   6.153  0.2059 -0.1652  0.0072
  968MOL0     C33511   5.820   7.922   6.128 -1.6602 -0.8087  0.2741
  968MOL0     C33512   6.513   7.781   6.168  0.9722 -0.3481 -0.4768
  968MOL0     C33513   6.650   7.791   6.141 -0.0604 -0.1821 -0.9866
  968MOL0     C33514   6.703   7.934   6.138 -0.3735  0.8238 -0.6932
  968MOL0     H33515   7.135   7.686   6.215 -0.9177 -0.1961  0.2360
  968MOL0     H33516   7.382   7.607   6.167 -0.0687 -1.8667  2.8163
  968MOL0     H33517   7.421   7.302   5.836  0.4955 -0.9374  0.5770
  968MOL0     H33518   7.448   7.209   5.979 -3.5747 -0.1420 -0.1462
  968MOL0     H33519   7.696   7.284   5.972  0.7239 -1.9095 -1.4883
  968MOL0     H33520   7.647   7.219   5.821 -1.3536  1.9639 -2.6093
  968MOL0     H33521   7.585   7.455   5.746  1.9028  2.3905 -1.8019
  968MOL0     H33522   7.652   7.512   5.902  2.0531 -1.2922  1.0163
  968MOL0     H33523   7.861   7.433   5.869 -0.5524  0.3218  0.0290
  968MOL0     H33524   7.839   7.371   5.705  3.5572  0.5814  0.6411
  968MOL0     H33525   7.754   7.608   5.644  0.7852  1.4242 -0.9525
  968MOL0     H33526   7.930   7.576   5.651  0.1580  0.4659 -0.0677
  968MOL0     H33527   7.885   7.784   5.761  1.0491 -0.9319 -3.4917
  968MOL0     H33528   7.793   7.684   5.887 -0.2938 -0.6226 -0.1798
  968MOL0     H33529   8.079   7.619   5.791 -0.5317  2.0716 -0.4972
  968MOL0     H33530   8.005   7.565   5.949  1.0684 -1.3699 -0.9047
  968MOL0     H33531   8.080   7.834   5.852 -1.5490 -2.2215 -1.2930
  968MOL0     H33532   8.036   7.801   6.026 -0.1014  2.3069 -0.3934
  968MOL0     H33533   8.225   7.574   6.099 -1.6035  0.2154 -0.2166
  968MOL0     H33534   8.511   7.496   6.102 -1.3560 -1.1191  1.7787
  968MOL0     H33535   8.427   7.570   6.223 -0.4611  1.1465 -2.1508
  968MOL0     H33536   8.673   7.725   6.127  0.4113  0.8055  0.8052
  968MOL0     H33537   8.593   7.746   6.280  0.2531 -0.0019  0.1794
  968MOL0     H33538   8.754   7.498   6.192  1.9661  2.1272  0.5530
  968MOL0     H33539   8.812   7.627   6.279  3.0699 -2.2369 -4.0268
  968MOL0     H33540   8.775   7.460   6.417  0.2282 -0.4159 -0.2635
  968MOL0     H33541   8.658   7.581   6.462  2.2996  0.9911  0.3166
  968MOL0     H33542   8.800   7.289   6.273 -0.9038  1.6096  0.8697
  968MOL0     H33543   8.850   7.090   6.005 -2.5183  1.1205  0.4769
  968MOL0     H33544   8.843   6.952   6.128  0.2410  0.3659  0.3209
  968MOL0     H33545   8.913   7.106   6.166 -0.2039  0.3183  0.3133
  968MOL0     H33546   8.236   6.815   5.931  2.1755  2.6026  0.0919
  968MOL0     H33547   8.210   6.620   5.781  1.0033 -0.1346 -0.4109
  968MOL0     H33548   8.542   6.335   5.695  0.5149 -1.9206 -0.0406
  968MOL0     H33549   8.482   6.265   5.840  0.4808  3.3448  0.7125
  968MOL0     H33550   8.311   6.136   5.717  0.1071  1.9895  1.5620
  968MOL0     H33551   8.324   6.250   5.582 -1.0704 -1.6233 -0.3655
  968MOL0     H33552   8.564   6.085   5.653 -2.0489 -0.9232  2.3287
  968MOL0     H33553   8.522   6.144   5.497  1.2621  1.3140  0.3399
  968MOL0     H33554   8.352   5.985   5.461  0.6227  2.6353  0.4635
  968MOL0     H33555   8.356   5.927   5.623  2.4338  0.5738  1.5972
  968MOL0     H33556   8.623   5.921   5.452  0.2523  1.5764  2.6985
  968MOL0     H33557   8.579   5.850   5.607  0.4972  0.8613  0.3436
  968MOL0     H33558   8.471   5.758   5.336 -0.8824  0.7193  0.4668
  968MOL0     H33559   8.393   5.716   5.488  0.2898  0.0697 -1.0773
  968MOL0     H33560   8.569   5.591   5.571 -1.1448 -1.0782 -0.5599
  968MOL0     H33561   8.688   5.679   5.480  0.5272 -0.1618  0.4580
  968MOL0     H33562   8.645   5.446   5.408 -0.0181  0.3638 -0.8190
  968MOL0     H33563   8.633   5.570   5.275 -0.6764  0.5479 -0.7423
  968MOL0     H33564   8.576   6.445   5.911 -2.2557 -2.5317  0.4123
  968MOL0     H33565   8.625   6.664   6.028  0.6492  1.1090 -2.1168
  968MOL0     H33566   8.370   7.067   6.164 -0.4037  0.9677 -2.6806
  968MOL0     H33567   8.375   7.267   6.307  1.1226  0.7358  0.7527
  968MOL0     H33568   7.228   7.282   5.938  4.5691  1.9043 -1.7589
  968MOL0     H33569   7.006   7.345   5.999  0.0543 -0.0317  3.4498
  968MOL0     H33570   6.714   7.454   6.153 -0.7986 -0.9362 -1.1460
  968MOL0     H33571   6.482   7.443   6.213  3.6705 -1.3997  2.5612
  968MOL0     H33572   6.173   7.530   6.213  1.2988 -3.1077  0.9257
  968MOL0     H33573   6.296   7.514   6.335 -2.1879  0.5971  2.8843
  968MOL0     H33574   6.200   7.687   6.463  0.4935  0.9663 -0.6931
  968MOL0     H33575   6.066   7.575   6.419 -1.4603 -0.1056 -1.4478
  968MOL0     H33576   5.983   7.789   6.402 -0.5225 -1.1740  1.9999
  968MOL0     H33577   6.123   7.830   6.292  1.1399 -2.5193  0.3433
  968MOL0     H33578   5.919   7.619   6.207 -2.0319  1.4203 -0.8834
  968MOL0     H33579   6.052   7.690   6.113 -0.0757  1.4472  0.1038
  968MOL0     H33580   5.759   8.006   6.104 -0.8073  0.0577  1.0381
  968MOL0     H33581   6.458   7.873   6.181  1.6838  0.2861 -1.7802
  968MOL0     H33582   6.706   7.967   6.033  1.0984  0.7585 -0.6901
  968MOL0     H33583   6.647   7.994   6.210 -0.5660 -1.1493  0.8764
  968MOL0     H33584   6.806   7.934   6.176  0.0158 -1.3175 -1.5877
  969MOL0     O33585   1.710  10.129   2.549 -0.2410 -0.1244 -0.1881
  969MOL0     C33586   1.654  10.239   2.568 -0.0305 -0.2393  0.3126
  969MOL0     O33587   1.727  10.353   2.588  0.1279  0.1784  0.2838
  969MOL0     C33588   1.863  10.355   2.603  0.0925 -0.4040  0.1043
  969MOL0     C33589   1.940  10.470   2.558  0.1238 -0.8205  0.0045
  969MOL0     C33590   2.077  10.481   2.584 -0.1347  0.1480 -0.4838
  969MOL0     C33591   2.147  10.382   2.660 -1.1170 -0.3852 -1.0669
  969MOL0     O33592   2.280  10.404   2.681  0.3617 -0.5479  0.0173
  969MOL0     C33593   2.361  10.285   2.663 -0.1198 -0.1322  0.4145
  969MOL0     C33594   2.497  10.332   2.651 -0.0229 -0.5416 -0.5288
  969MOL0     C33595   2.567  10.377   2.778  0.1662 -0.0114  0.7570
  969MOL0     C33596   2.727  10.368   2.772  0.4823 -0.0593  0.1174
  969MOL0     C33597   2.790  10.435   2.894 -0.8325 -0.3472 -0.6857
  969MOL0     C33598   2.795  10.587   2.879 -1.0182  0.0096  0.9302
  969MOL0     C33599   2.888  10.655   2.974 -0.9651 -0.3594 -0.0628
  969MOL0     C33600   2.884  10.808   2.982  0.3206 -0.4337  0.5004
  969MOL0     N33601   2.996  10.866   3.049 -0.1176  0.2171 -0.2208
  969MOL0     C33602   3.070  10.977   3.030  0.1528 -0.1059 -0.2336
  969MOL0     C33603   3.161  10.980   3.134  0.2563 -0.3458  0.3873
  969MOL0     C33604   3.264  11.084   3.150 -0.7050  0.4446  0.1554
  969MOL0     C33605   3.409  11.028   3.129 -0.8739  0.2206  0.4623
  969MOL0     C33606   3.496  11.147   3.139 -0.0921  0.9425 -0.0443
  969MOL0     C33607   3.641  11.098   3.109  0.5835 -0.6795  0.5357
  969MOL0     O33608   3.739  11.171   3.181  0.0141  0.5796 -0.7003
  969MOL0     C33609   3.866  11.148   3.144  0.6020  0.2303 -0.4519
  969MOL0     C33610   3.964  11.231   3.195 -0.9496  0.4405  0.9648
  969MOL0     C33611   4.103  11.220   3.153 -0.6131  0.2250  0.7699
  969MOL0     C33612   4.205  11.288   3.238 -0.6617 -0.2565  0.3303
  969MOL0     C33613   4.137  11.128   3.049  1.0143 -0.0008 -0.0843
  969MOL0     C33614   4.269  11.109   2.997  0.4276  0.2143 -0.7949
  969MOL0     O33615   4.286  10.995   2.922  0.4426 -0.1565 -0.2134
  969MOL0     C33616   4.399  10.961   2.853  0.1905 -0.5914 -0.0822
  969MOL0     C33617   4.397  10.923   2.717 -0.1041  0.0174 -0.1913
  969MOL0     C33618   4.506  10.875   2.654  0.6015  0.7624 -0.2575
  969MOL0     C33619   4.625  10.885   2.720 -0.2986 -0.2906  0.2408
  969MOL0     O33620   4.753  10.859   2.665 -0.1106  1.0702 -0.3550
  969MOL0     C33621   4.763  10.778   2.549  0.0898  0.2353  0.5264
  969MOL0     C33622   4.890  10.696   2.545 -0.2356 -0.0125  0.7484
  969MOL0     C33623   5.015  10.777   2.533  0.2886  0.5423  0.1725
  969MOL0     C33624   5.138  10.685   2.505  0.5515 -1.2733  0.6614
  969MOL0     C33625   5.263  10.756   2.562  1.3194  0.8132  0.3358
  969MOL0     C33626   5.386  10.681   2.530 -0.1680 -0.2429  0.1719
  969MOL0     C33627   5.510  10.734   2.601  0.5549 -0.6813  0.0852
  969MOL0     C33628   5.566  10.855   2.532  0.0963 -0.7031  0.0962
  969MOL0    Cl33629   5.723  10.878   2.614 -0.4923 -0.0527  0.3211
  969MOL0     C33630   4.632  10.942   2.850 -0.0493  0.0189  0.2452
  969MOL0     C33631   4.515  10.970   2.920 -0.0955  1.3981  0.0248
  969MOL0     O33632   4.351  11.202   3.008  1.0089 -0.0780  0.3155
  969MOL0     C33633   4.037  11.040   3.008 -0.2139 -0.0992 -0.0024
  969MOL0     C33634   3.905  11.046   3.050 -0.5711 -0.4295 -0.9443
  969MOL0     N33635   3.151  10.860   3.203 -0.6221  0.0161 -0.3415
  969MOL0     N33636   3.052  10.801   3.151  0.5087  0.2979  1.2616
  969MOL0     C33637   2.066  10.275   2.706 -0.4509  0.1984 -0.8689
  969MOL0     C33638   1.929  10.261   2.684 -0.9781 -0.1491  0.1335
  969MOL0     C33639   1.508  10.254   2.546 -0.7616  0.4662 -0.4240
  969MOL0     C33640   1.435  10.135   2.533 -0.5972 -1.1537 -0.0090
  969MOL0     C33641   1.298  10.140   2.508  0.0566 -0.3444  0.6982
  969MOL0     C33642   1.228  10.256   2.489  0.2312 -0.4122  0.0521
  969MOL0     O33643   1.097  10.252   2.454 -0.3615 -0.0038 -0.1571
  969MOL0     C33644   1.027  10.374   2.416  0.9385  0.1022  0.5064
  969MOL0     C33645   0.869  10.353   2.405  0.3545  0.2471 -0.6616
  969MOL0     C33646   0.823  10.326   2.552 -0.2964 -0.2307 -0.0775
  969MOL0     C33647   0.678  10.284   2.561 -0.1702 -0.4421 -0.4842
  969MOL0     C33648   0.588  10.363   2.480 -0.4167 -0.5284  0.8654
  969MOL0     C33649   0.520  10.448   2.412  0.2355  0.1806 -0.3689
  969MOL0     C33650   1.301  10.375   2.500  0.5584 -0.3914  0.4000
  969MOL0     C33651   1.441  10.380   2.529 -0.3160 -0.1162  0.3744
  969MOL0     C33652   1.506  10.513   2.528 -0.9580  0.2619 -0.9330
  969MOL0     H33653   1.895  10.548   2.498 -0.8757 -1.7506 -0.4785
  969MOL0     H33654   2.138  10.566   2.555  2.1541 -1.6468 -1.2106
  969MOL0     H33655   2.319  10.243   2.571 -5.0301  1.9683  1.3960
  969MOL0     H33656   2.346  10.206   2.738 -2.8761 -1.7887 -1.6682
  969MOL0     H33657   2.559  10.250   2.611  4.0865  2.6073 -1.2760
  969MOL0     H33658   2.507  10.412   2.577 -5.3320 -0.2314 -1.2804
  969MOL0     H33659   2.529  10.479   2.795  2.2196  1.3546 -1.9555
  969MOL0     H33660   2.528  10.325   2.866 -1.8713 -1.0153 -0.6576
  969MOL0     H33661   2.747  10.261   2.768 -0.0424 -0.1299 -2.3223
  969MOL0     H33662   2.753  10.411   2.675 -0.0987 -0.2310 -0.1209
  969MOL0     H33663   2.894  10.404   2.906 -1.0271 -1.0599 -0.8110
  969MOL0     H33664   2.758  10.405   2.994  3.4882 -1.0181  0.7310
  969MOL0     H33665   2.826  10.631   2.784  1.6913 -0.4817  1.5125
  969MOL0     H33666   2.693  10.625   2.886 -0.7100  0.6786  2.1074
  969MOL0     H33667   2.992  10.631   2.949 -0.1991  0.8219  1.7989
  969MOL0     H33668   2.858  10.615   3.072 -3.1124  1.6298  0.1846
  969MOL0     H33669   2.888  10.854   2.883  0.9906  2.0655  1.5968
  969MOL0     H33670   2.790  10.839   3.029 -0.8896 -0.8285 -1.5477
  969MOL0     H33671   3.048  11.058   2.961 -3.5088  0.0618  0.9191
  969MOL0     H33672   3.265  11.131   3.248  1.6673  0.3516  0.2269
  969MOL0     H33673   3.228  11.165   3.087 -0.6412  0.0071 -0.4515
  969MOL0     H33674   3.429  10.947   3.200 -0.1612 -1.1782 -1.2488
  969MOL0     H33675   3.421  10.985   3.029  0.9686 -0.5831  0.9903
  969MOL0     H33676   3.461  11.226   3.072 -3.5114 -0.6479 -0.3803
  969MOL0     H33677   3.485  11.185   3.241 -5.1161  2.3011 -0.8338
  969MOL0     H33678   3.650  10.991   3.131 -1.7776 -1.3225 -1.3102
  969MOL0     H33679   3.651  11.110   3.001  0.1448 -2.2841  0.2956
  969MOL0     H33680   3.947  11.276   3.293  3.2260  2.2770  1.0267
  969MOL0     H33681   4.307  11.248   3.228 -0.7053 -0.0991 -0.9399
  969MOL0     H33682   4.176  11.285   3.343  0.1107  2.7002  0.7217
  969MOL0     H33683   4.214  11.394   3.213  0.4735 -0.5913 -0.7832
  969MOL0     H33684   4.305  10.925   2.660 -0.9278 -0.3380  1.0731
  969MOL0     H33685   4.492  10.844   2.550 -2.2279  1.3697 -0.1354
  969MOL0     H33686   4.677  10.709   2.555  0.2425 -0.0539 -0.3969
  969MOL0     H33687   4.751  10.844   2.463  1.3476  1.8980  1.5766
  969MOL0     H33688   4.902  10.636   2.636 -0.4263  0.0689  0.8287
  969MOL0     H33689   4.882  10.630   2.459 -1.0218  2.0972 -0.8845
  969MOL0     H33690   5.037  10.825   2.629 -1.4611  0.9138  0.4077
  969MOL0     H33691   5.004  10.856   2.459 -0.3128  1.1768  0.9236
  969MOL0     H33692   5.147  10.658   2.399 -0.1699 -0.3892  0.3591
  969MOL0     H33693   5.134  10.587   2.553 -0.4562 -1.3591  0.4139
  969MOL0     H33694   5.255  10.856   2.518  2.0101  0.9102  0.4283
  969MOL0     H33695   5.246  10.763   2.670 -1.0885  0.7711  0.0275
  969MOL0     H33696   5.397  10.667   2.422  2.3975  0.7717  0.2330
  969MOL0     H33697   5.367  10.580   2.568  0.3431 -0.6210 -0.5678
  969MOL0     H33698   5.594  10.665   2.596 -0.5000 -2.0079 -0.0891
  969MOL0     H33699   5.492  10.767   2.704 -0.1029  2.4532 -0.9282
  969MOL0     H33700   5.497  10.940   2.533  0.8032 -0.1264  0.4032
  969MOL0     H33701   5.593  10.842   2.426 -0.7720 -0.5237 -0.1562
  969MOL0     H33702   4.731  10.962   2.891 -1.0304  0.4641  2.6041
  969MOL0     H33703   4.521  11.006   3.022 -0.3057  2.5682 -0.3516
  969MOL0     H33704   4.056  10.966   2.931  0.5117  1.1329 -1.0484
  969MOL0     H33705   3.826  10.985   3.007 -2.2750 -1.4951  3.2112
  969MOL0     H33706   2.110  10.190   2.758  1.5504  2.1880  0.9010
  969MOL0     H33707   1.894  10.162   2.711  2.5244 -1.5412  0.0610
  969MOL0     H33708   1.474  10.034   2.540 -2.1737 -1.7151  1.1464
  969MOL0     H33709   1.235  10.054   2.494 -1.4838  1.0984 -1.9010
  969MOL0     H33710   1.041  10.443   2.500  1.1543  0.0597  0.5053
  969MOL0     H33711   1.077  10.420   2.331 -0.8495 -0.5448 -0.9614
  969MOL0     H33712   0.842  10.268   2.341  3.5145 -3.5746  2.5335
  969MOL0     H33713   0.825  10.444   2.364 -1.2710 -0.4254 -0.5108
  969MOL0     H33714   0.886  10.245   2.589 -0.2667 -0.0098  0.3576
  969MOL0     H33715   0.848  10.399   2.629  1.2100 -2.8692  2.1317
  969MOL0     H33716   0.636  10.292   2.662 -1.9120  2.9312 -1.3407
  969MOL0     H33717   0.667  10.181   2.526 -1.5466 -0.2106 -0.7612
  969MOL0     H33718   0.471  10.532   2.367 -0.4531 -0.2729 -0.4788
  969MOL0     H33719   1.247  10.467   2.483 -0.8341 -1.2310  0.1570
  969MOL0     H33720   1.566  10.517   2.619  0.4284  0.6994 -1.8359
  969MOL0     H33721   1.565  10.540   2.440 -0.4526 -1.6979 -1.2500
  969MOL0     H33722   1.423  10.584   2.542 -2.1780 -1.2274 -0.3196
  970MOL0     O33723   2.682   4.429   1.983 -0.3166 -0.2928 -0.5039
  970MOL0     C33724   2.634   4.456   1.874 -0.9875  0.0224 -0.6510
  970MOL0     O33725   2.655   4.570   1.799  0.0132  0.7807  0.1949
  970MOL0     C33726   2.766   4.644   1.825 -1.0127 -0.4117 -0.3410
  970MOL0     C33727   2.744   4.765   1.883  0.7275 -0.1660  0.5192
  970MOL0     C33728   2.851   4.851   1.912 -0.5031 -0.2185 -0.5218
  970MOL0     C33729   2.983   4.816   1.879 -0.1964 -0.7425  0.2243
  970MOL0     O33730   3.099   4.883   1.904  0.5020 -0.1143  0.7941
  970MOL0     C33731   3.087   5.027   1.941 -0.2671  0.1081 -0.0459
  970MOL0     C33732   3.228   5.076   1.956 -0.3548 -0.3194  0.0256
  970MOL0     C33733   3.306   5.056   1.828 -0.2083 -0.4304  0.0995
  970MOL0     C33734   3.444   5.109   1.820 -0.3390 -0.4647 -0.3107
  970MOL0     C33735   3.510   5.077   1.689 -0.4709 -0.7255 -0.1507
  970MOL0     C33736   3.658   5.128   1.693 -0.1695  0.2671 -0.6557
  970MOL0     C33737   3.686   5.261   1.616 -0.2397  0.1037  0.0286
  970MOL0     C33738   3.637   5.391   1.682  0.1936  1.2057 -0.2444
  970MOL0     N33739   3.740   5.491   1.644 -0.0815 -0.1068 -0.2166
  970MOL0     C33740   3.769   5.548   1.525 -0.8314 -0.2895  0.1967
  970MOL0     C33741   3.866   5.642   1.556 -0.5433 -0.1909 -0.0174
  970MOL0     C33742   3.927   5.739   1.458  0.4526  0.2345  0.5046
  970MOL0     C33743   4.021   5.842   1.512  0.3296  0.3779  0.0891
  970MOL0     C33744   4.156   5.784   1.563 -0.0299  0.5569 -0.0844
  970MOL0     C33745   4.264   5.883   1.591  0.3962 -0.9016 -0.5219
  970MOL0     O33746   4.388   5.827   1.627  0.2972 -0.0147 -0.0109
  970MOL0     C33747   4.496   5.912   1.652  0.4383 -0.3023  0.5556
  970MOL0     C33748   4.487   6.043   1.701 -0.0650 -0.2848 -0.0634
  970MOL0     C33749   4.604   6.116   1.725  0.4032  0.2610  0.1390
  970MOL0     C33750   4.588   6.264   1.765  0.1766  0.0418  0.1212
  970MOL0     C33751   4.731   6.067   1.686 -1.2131  1.4866  0.2219
  970MOL0     C33752   4.856   6.135   1.696  0.8898  0.5377  0.1984
  970MOL0     O33753   4.960   6.101   1.618 -0.2511 -0.2105 -0.7772
  970MOL0     C33754   5.046   6.195   1.579  0.0109 -0.3377  0.2169
  970MOL0     C33755   5.180   6.168   1.559 -0.1172  0.0839 -0.1546
  970MOL0     C33756   5.268   6.259   1.497 -0.1750 -0.7254  0.0508
  970MOL0     C33757   5.217   6.383   1.440 -1.5210  0.4599 -0.5567
  970MOL0     O33758   5.287   6.478   1.366 -0.1709 -0.3493  0.0634
  970MOL0     C33759   5.437   6.473   1.358  0.0612 -0.2014 -1.1385
  970MOL0     C33760   5.513   6.551   1.473 -0.1880  0.0125  0.2154
  970MOL0     C33761   5.523   6.703   1.450  0.7937 -0.6894 -0.2355
  970MOL0     C33762   5.400   6.783   1.446 -0.5483  0.7389 -0.0181
  970MOL0     C33763   5.438   6.920   1.394 -0.6301  0.2427  0.7452
  970MOL0     C33764   5.321   7.011   1.424 -0.3789  0.2245  0.8609
  970MOL0     C33765   5.321   7.145   1.357  0.6467 -0.0020  0.7615
  970MOL0     C33766   5.253   7.270   1.426  0.1784 -0.6073  0.4540
  970MOL0    Cl33767   5.288   7.417   1.317  0.1871  0.3244  0.1393
  970MOL0     C33768   5.079   6.404   1.457  0.3460  0.0077 -0.3221
  970MOL0     C33769   5.003   6.316   1.535  0.7523 -0.5600 -0.0038
  970MOL0     O33770   4.862   6.219   1.790  0.1435 -0.1055  0.2636
  970MOL0     C33771   4.737   5.932   1.637  0.7393  0.8408 -0.2145
  970MOL0     C33772   4.619   5.859   1.620  0.3359 -0.1398 -0.1092
  970MOL0     N33773   3.897   5.643   1.690 -0.5468  0.9840  0.1541
  970MOL0     N33774   3.820   5.556   1.743  0.3460  0.8318 -0.2318
  970MOL0     C33775   3.003   4.690   1.821  0.0378 -0.6210 -0.3228
  970MOL0     C33776   2.899   4.611   1.804  0.2126 -0.6522 -0.5445
  970MOL0     C33777   2.533   4.365   1.805  0.1269 -0.5361 -0.6240
  970MOL0     C33778   2.518   4.373   1.670  1.0587 -0.1391  1.1309
  970MOL0     C33779   2.422   4.299   1.595 -0.4019  0.1883 -0.2292
  970MOL0     C33780   2.327   4.220   1.662  0.5332 -0.7877 -0.3023
  970MOL0     O33781   2.222   4.157   1.594 -0.2503 -0.6638 -0.2364
  970MOL0     C33782   2.216   4.016   1.630  0.0166 -1.0643  0.2187
  970MOL0     C33783   2.220   3.931   1.506  0.3608 -0.1903  0.2065
  970MOL0     C33784   2.168   3.792   1.527 -0.0291 -0.5125  0.2609
  970MOL0     C33785   2.163   3.706   1.398  0.0356  0.3363 -0.0453
  970MOL0     C33786   2.292   3.664   1.336 -0.2440 -1.3760 -0.0915
  970MOL0     C33787   2.416   3.665   1.314  0.3046  0.0526 -0.0141
  970MOL0     C33788   2.344   4.208   1.802  0.4988 -0.1115  0.4106
  970MOL0     C33789   2.448   4.273   1.866 -0.3178  0.0537 -0.2411
  970MOL0     C33790   2.471   4.245   2.013  0.2360  0.0710  0.2578
  970MOL0     H33791   2.649   4.806   1.915 -0.5542 -2.2017 -0.4118
  970MOL0     H33792   2.824   4.938   1.971 -1.1558 -0.8135  0.0870
  970MOL0     H33793   3.032   5.045   2.034  1.4965 -1.6657  1.4502
  970MOL0     H33794   3.034   5.078   1.860  0.6421  0.9058 -0.1598
  970MOL0     H33795   3.226   5.184   1.972 -0.1475  0.0677 -2.2474
  970MOL0     H33796   3.278   5.021   2.036  1.9205  1.9782  0.3206
  970MOL0     H33797   3.306   4.949   1.803  1.5710 -0.7315  1.2236
  970MOL0     H33798   3.253   5.111   1.750  1.3746  0.8978 -0.1154
  970MOL0     H33799   3.448   5.218   1.834 -0.1746 -0.3828 -0.9839
  970MOL0     H33800   3.507   5.055   1.891 -0.7810 -1.5701 -0.7459
  970MOL0     H33801   3.446   5.126   1.616 -1.6444  0.2845  1.4803
  970MOL0     H33802   3.511   4.969   1.670 -2.2052 -0.3683 -2.8016
  970MOL0     H33803   3.690   5.150   1.795 -2.1402 -0.5816  0.2137
  970MOL0     H33804   3.726   5.055   1.647 -1.8928 -0.2927 -2.4844
  970MOL0     H33805   3.638   5.260   1.517 -0.5534  3.1357  0.0601
  970MOL0     H33806   3.795   5.262   1.609 -0.0459 -2.3508  1.6238
  970MOL0     H33807   3.536   5.419   1.650 -1.1831 -0.0603  2.6512
  970MOL0     H33808   3.643   5.376   1.790  1.0564  1.2772 -0.2776
  970MOL0     H33809   3.736   5.512   1.428 -2.6305 -3.3878  1.8040
  970MOL0     H33810   3.837   5.790   1.424  0.6520 -0.5692 -1.3869
  970MOL0     H33811   3.960   5.671   1.379 -3.0637 -0.8737 -0.1738
  970MOL0     H33812   4.025   5.915   1.430  1.0186 -2.0581 -2.2196
  970MOL0     H33813   3.980   5.905   1.591 -0.5017  2.8260 -2.1229
  970MOL0     H33814   4.141   5.723   1.653  0.2933  1.2621  0.4572
  970MOL0     H33815   4.188   5.712   1.487  1.5363  0.6190  0.4872
  970MOL0     H33816   4.277   5.947   1.503 -4.0631  2.1001  0.6797
  970MOL0     H33817   4.239   5.952   1.671 -2.7186 -0.6122 -1.5772
  970MOL0     H33818   4.388   6.079   1.726 -1.5379 -2.3258 -2.4381
  970MOL0     H33819   4.484   6.296   1.755 -0.8177 -2.3242  1.9646
  970MOL0     H33820   4.653   6.328   1.705 -0.2758 -0.2901 -0.7470
  970MOL0     H33821   4.623   6.283   1.867  1.1987  1.8745 -0.5297
  970MOL0     H33822   5.218   6.080   1.610  1.4517  2.3038  2.8429
  970MOL0     H33823   5.370   6.231   1.473 -0.9930 -0.7996 -4.2443
  970MOL0     H33824   5.478   6.372   1.343 -1.9383 -1.1031 -0.8147
  970MOL0     H33825   5.465   6.518   1.263 -0.0365  0.4078 -0.8796
  970MOL0     H33826   5.475   6.534   1.574  1.0304  1.8651  1.0509
  970MOL0     H33827   5.617   6.516   1.476  0.3247  1.4385  0.2466
  970MOL0     H33828   5.590   6.736   1.370 -0.4857  1.5772 -0.4626
  970MOL0     H33829   5.579   6.737   1.538 -0.6204  1.8223 -0.1937
  970MOL0     H33830   5.349   6.791   1.543 -1.2320 -0.4195 -0.2656
  970MOL0     H33831   5.328   6.736   1.380 -1.0098  0.3484  0.7472
  970MOL0     H33832   5.530   6.953   1.443  0.0109 -0.6480  0.1513
  970MOL0     H33833   5.463   6.931   1.289 -0.5769 -1.1106  0.6015
  970MOL0     H33834   5.319   7.015   1.534 -1.7010  0.8024  0.8407
  970MOL0     H33835   5.223   6.966   1.404 -0.2739  0.5595 -0.4722
  970MOL0     H33836   5.271   7.142   1.259  0.4007  0.7776  0.8492
  970MOL0     H33837   5.427   7.173   1.355  0.9586 -1.0698  1.6418
  970MOL0     H33838   5.297   7.298   1.522 -1.4373  1.7607  0.6052
  970MOL0     H33839   5.146   7.253   1.440  0.1037 -0.8746 -0.3691
  970MOL0     H33840   5.033   6.497   1.422 -0.0570  0.6745  1.8483
  970MOL0     H33841   4.900   6.350   1.544  1.1222 -0.0242  6.2054
  970MOL0     H33842   4.825   5.876   1.608 -0.2836  0.4507 -2.8482
  970MOL0     H33843   4.616   5.766   1.566  1.7593 -0.2545 -0.0388
  970MOL0     H33844   3.100   4.642   1.815 -0.3519 -1.5203  0.3926
  970MOL0     H33845   2.915   4.509   1.769  1.3293 -0.2884 -1.1237
  970MOL0     H33846   2.563   4.447   1.604 -0.8015  0.3379  0.3384
  970MOL0     H33847   2.422   4.327   1.490  3.3853 -0.6364 -0.6168
  970MOL0     H33848   2.296   3.988   1.699  0.8193  1.5682  0.4715
  970MOL0     H33849   2.121   4.005   1.683  0.2300  0.3635  0.9445
  970MOL0     H33850   2.323   3.926   1.468 -0.3518 -0.9046 -1.7246
  970MOL0     H33851   2.160   3.983   1.431 -2.2412  0.4305  2.5491
  970MOL0     H33852   2.230   3.742   1.601  4.3107  1.9700 -1.3507
  970MOL0     H33853   2.068   3.804   1.570 -0.6285 -0.6584 -1.0389
  970MOL0     H33854   2.112   3.759   1.317  1.3234  3.9132  1.3127
  970MOL0     H33855   2.108   3.613   1.419  0.4822  0.0702 -0.0472
  970MOL0     H33856   2.522   3.660   1.297 -0.1773 -3.8853 -3.1691
  970MOL0     H33857   2.268   4.143   1.846 -0.5425  1.2339  0.6451
  970MOL0     H33858   2.568   4.201   2.035  0.2071 -2.1954 -3.3416
  970MOL0     H33859   2.465   4.342   2.064 -2.0728 -0.6233  1.4344
  970MOL0     H33860   2.390   4.187   2.058  0.8260 -0.0634  1.1534
  971MOL0     O33861   4.356   9.332   2.677 -0.5351 -0.0443 -0.5058
  971MOL0     C33862   4.329   9.448   2.637 -0.7283  0.2497 -0.1270
  971MOL0     O33863   4.416   9.556   2.659 -0.1779 -0.0164  0.6205
  971MOL0     C33864   4.541   9.520   2.684 -1.0415 -0.5178  0.8413
  971MOL0     C33865   4.587   9.463   2.807  0.1941 -0.4313 -0.3806
  971MOL0     C33866   4.710   9.398   2.808 -0.5841 -0.0700 -0.0489
  971MOL0     C33867   4.789   9.393   2.694  0.1656  0.3515  0.0503
  971MOL0     O33868   4.915   9.345   2.728 -0.0513  0.2384 -0.1872
  971MOL0     C33869   4.992   9.284   2.622 -0.8319 -0.6282 -0.4278
  971MOL0     C33870   5.119   9.228   2.686 -0.1869 -0.1197 -0.2112
  971MOL0     C33871   5.220   9.335   2.736 -0.0072  0.0369  1.2603
  971MOL0     C33872   5.345   9.290   2.804 -0.6189  0.2787 -0.5270
  971MOL0     C33873   5.431   9.198   2.713  0.1390  0.3994 -0.0885
  971MOL0     C33874   5.546   9.152   2.800  0.0746 -0.3540  0.4048
  971MOL0     C33875   5.667   9.100   2.722  0.7634  0.4258  0.7363
  971MOL0     C33876   5.780   9.060   2.809 -0.7477  0.3712  0.7521
  971MOL0     N33877   5.903   9.031   2.734 -0.1865  0.2680  0.5464
  971MOL0     C33878   6.027   9.038   2.784 -0.2053  0.3808 -0.7074
  971MOL0     C33879   6.116   9.005   2.680  0.0456 -0.1174 -0.2309
  971MOL0     C33880   6.264   8.965   2.682  1.6175  0.0014  0.2065
  971MOL0     C33881   6.351   9.087   2.680 -0.0220 -0.2640  0.1934
  971MOL0     C33882   6.504   9.051   2.670 -0.1516  0.1515 -1.5748
  971MOL0     C33883   6.543   8.970   2.550  0.7471  1.0657 -0.0273
  971MOL0     O33884   6.512   9.043   2.428 -0.3227 -0.3611  0.0263
  971MOL0     C33885   6.595   9.143   2.373  0.5155  1.0128  0.3159
  971MOL0     C33886   6.548   9.212   2.262 -0.1201  0.0064  1.0337
  971MOL0     C33887   6.611   9.328   2.209 -0.1501  0.2606 -0.2112
  971MOL0     C33888   6.556   9.387   2.079  0.1516 -0.4286  0.1865
  971MOL0     C33889   6.733   9.368   2.260  0.2983  0.3926 -0.4403
  971MOL0     C33890   6.819   9.467   2.198  0.2379 -1.3232  1.0347
  971MOL0     O33891   6.951   9.451   2.209 -0.1272 -0.1851  0.3276
  971MOL0     C33892   7.026   9.562   2.175 -0.1453  0.1052  0.1078
  971MOL0     C33893   7.077   9.568   2.041 -0.0549  0.9945  0.9523
  971MOL0     C33894   7.174   9.667   2.024  0.5591 -0.0500  0.5899
  971MOL0     C33895   7.207   9.765   2.118  0.3771  0.3264  0.1247
  971MOL0     O33896   7.303   9.861   2.088 -0.0916  0.0594  0.4116
  971MOL0     C33897   7.369   9.928   2.200  0.1791 -1.2439  1.0505
  971MOL0     C33898   7.306  10.067   2.233  0.2282 -0.7104 -0.3948
  971MOL0     C33899   7.251  10.140   2.103 -0.7532  0.9439  1.2246
  971MOL0     C33900   7.178  10.273   2.138 -0.3450 -0.5267  0.6094
  971MOL0     C33901   7.161  10.359   2.008  0.1781  0.2349  0.1816
  971MOL0     C33902   7.016  10.425   1.998 -0.3030 -0.0425  0.1641
  971MOL0     C33903   7.005  10.498   1.866 -0.1052 -0.0653 -0.0337
  971MOL0     C33904   6.853  10.519   1.833  1.1017 -0.1440  0.0161
  971MOL0    Cl33905   6.806  10.358   1.774  0.3444 -0.6916 -0.0401
  971MOL0     C33906   7.143   9.757   2.243  0.1042  0.4968  0.1212
  971MOL0     C33907   7.052   9.661   2.272  0.1660 -0.0252 -0.3058
  971MOL0     O33908   6.758   9.572   2.163  0.5042 -0.1352 -0.8493
  971MOL0     C33909   6.785   9.304   2.374 -0.7597  0.8177  0.2353
  971MOL0     C33910   6.711   9.186   2.425 -0.1350 -0.2766  0.0321
  971MOL0     N33911   6.029   8.962   2.576 -0.0078 -0.9415  0.5205
  971MOL0     N33912   5.904   8.973   2.611 -0.2565 -0.3108 -0.3281
  971MOL0     C33913   4.749   9.450   2.569  0.9847 -0.0970  0.5095
  971MOL0     C33914   4.625   9.510   2.567 -0.3937 -0.0735  0.0585
  971MOL0     C33915   4.191   9.483   2.581 -0.4516 -0.4950 -0.3879
  971MOL0     C33916   4.155   9.615   2.589 -0.0784 -0.9544 -0.5723
  971MOL0     C33917   4.041   9.652   2.523  0.0589 -1.0329 -0.5383
  971MOL0     C33918   3.947   9.563   2.464 -0.7960 -0.7613 -0.6983
  971MOL0     O33919   3.825   9.612   2.426 -0.1895 -0.3864 -0.3840
  971MOL0     C33920   3.702   9.526   2.430 -0.3144 -0.0058 -0.3211
  971MOL0     C33921   3.590   9.613   2.374 -0.0178  0.2832  0.1480
  971MOL0     C33922   3.458   9.548   2.418 -0.3715  0.4434 -0.5847
  971MOL0     C33923   3.350   9.560   2.304 -0.2106 -0.4333 -0.0604
  971MOL0     C33924   3.249   9.452   2.321 -0.5929  0.1027  0.0663
  971MOL0     C33925   3.172   9.359   2.334 -0.0481 -0.1251  0.3612
  971MOL0     C33926   3.976   9.432   2.482 -0.0216 -0.0925 -0.4313
  971MOL0     C33927   4.095   9.391   2.541 -0.0772  0.1470  0.7763
  971MOL0     C33928   4.121   9.244   2.536 -0.6576  0.6681  0.1558
  971MOL0     H33929   4.516   9.469   2.888  1.3111  0.0813  0.5822
  971MOL0     H33930   4.746   9.362   2.903  0.0723 -0.2971 -0.3786
  971MOL0     H33931   5.014   9.365   2.552  0.7304  0.7572  1.5264
  971MOL0     H33932   4.945   9.196   2.578  1.1697 -0.8329 -2.3314
  971MOL0     H33933   5.085   9.165   2.769 -1.9541  0.4982 -0.4199
  971MOL0     H33934   5.171   9.155   2.623  1.5096  0.1695  0.7674
  971MOL0     H33935   5.249   9.408   2.660 -0.3988 -1.9224 -0.8662
  971MOL0     H33936   5.166   9.403   2.803 -1.8097  0.6846 -0.7122
  971MOL0     H33937   5.402   9.376   2.839  0.3927 -0.9750  1.0393
  971MOL0     H33938   5.313   9.224   2.886  2.2160  0.3467  0.7408
  971MOL0     H33939   5.464   9.257   2.627 -0.6140 -3.1948 -3.0242
  971MOL0     H33940   5.380   9.108   2.679  0.6119 -0.7513  2.0669
  971MOL0     H33941   5.586   9.239   2.852 -1.6792  1.8624 -1.7298
  971MOL0     H33942   5.513   9.081   2.876  2.7593  0.6903  2.7516
  971MOL0     H33943   5.700   9.173   2.647 -1.0251  1.7831  1.1974
  971MOL0     H33944   5.640   9.010   2.666  2.5279 -0.5945  1.4416
  971MOL0     H33945   5.795   9.140   2.881  0.8203 -0.6170  1.5873
  971MOL0     H33946   5.753   8.974   2.871  1.4497 -1.0811 -0.1686
  971MOL0     H33947   6.056   9.054   2.887  2.0843 -1.0974 -1.0525
  971MOL0     H33948   6.283   8.907   2.592 -1.4173  2.1116 -2.0351
  971MOL0     H33949   6.274   8.899   2.768  0.4814  1.0334  1.1689
  971MOL0     H33950   6.322   9.154   2.598  0.1781 -1.6597 -1.0537
  971MOL0     H33951   6.341   9.139   2.775  1.5164 -0.2783  0.3941
  971MOL0     H33952   6.561   9.144   2.682 -2.1130  1.2207  0.3013
  971MOL0     H33953   6.535   9.001   2.763  2.6780  2.3694 -1.1837
  971MOL0     H33954   6.647   8.937   2.544  0.0233 -1.3389 -0.4550
  971MOL0     H33955   6.483   8.880   2.534 -1.0076  2.5724 -2.6577
  971MOL0     H33956   6.463   9.166   2.212  0.9892 -0.1264 -0.8534
  971MOL0     H33957   6.468   9.335   2.040  0.2729  0.1663 -0.9203
  971MOL0     H33958   6.627   9.379   1.997 -0.0331  0.8730 -0.1192
  971MOL0     H33959   6.531   9.493   2.089  1.2187 -0.1342 -0.1977
  971MOL0     H33960   7.055   9.490   1.969  0.2289  2.8988 -1.3106
  971MOL0     H33961   7.220   9.680   1.927 -1.0167  1.2005 -0.0367
  971MOL0     H33962   7.377   9.859   2.285 -3.5700  0.2630  2.8642
  971MOL0     H33963   7.474   9.944   2.172  0.3895 -2.0402  1.3439
  971MOL0     H33964   7.217  10.043   2.291  0.9762 -1.7034  0.3885
  971MOL0     H33965   7.374  10.125   2.297 -0.2878  0.0804 -0.5590
  971MOL0     H33966   7.183  10.077   2.044 -0.9085  1.9964  0.2445
  971MOL0     H33967   7.339  10.155   2.040  1.4587 -2.0462  3.3496
  971MOL0     H33968   7.237  10.330   2.211 -1.1411  1.3028 -0.0934
  971MOL0     H33969   7.079  10.252   2.179 -1.4280 -0.3788 -1.7527
  971MOL0     H33970   7.241  10.433   1.999  0.1038  0.9962  4.1332
  971MOL0     H33971   7.164  10.287   1.926 -0.9509 -0.6175  0.8596
  971MOL0     H33972   7.009  10.506   2.071 -2.1908  0.6211 -0.7066
  971MOL0     H33973   6.931  10.356   2.003 -1.6411  1.5635  0.1677
  971MOL0     H33974   7.052  10.441   1.786 -0.1987  0.8172 -0.7346
  971MOL0     H33975   7.051  10.598   1.864  1.4271 -0.7499 -1.0542
  971MOL0     H33976   6.825  10.588   1.753 -0.4135 -1.1755 -0.3793
  971MOL0     H33977   6.797  10.544   1.924  0.7512 -0.7897 -0.0120
  971MOL0     H33978   7.163   9.834   2.317  2.3187  0.7341 -0.6443
  971MOL0     H33979   7.006   9.658   2.370 -0.7196 -0.1529 -0.7154
  971MOL0     H33980   6.884   9.327   2.412  0.0527 -0.5210 -0.9706
  971MOL0     H33981   6.758   9.138   2.510 -0.1590  0.2993  0.3773
  971MOL0     H33982   4.811   9.438   2.480 -1.3568  1.3183 -1.4604
  971MOL0     H33983   4.581   9.543   2.473 -0.7225 -1.7319 -0.4142
  971MOL0     H33984   4.216   9.681   2.650 -1.9679 -1.1623  1.7012
  971MOL0     H33985   4.009   9.756   2.518 -1.6603 -1.5967 -2.2023
  971MOL0     H33986   3.712   9.442   2.360 -0.1281  0.3047 -0.6670
  971MOL0     H33987   3.693   9.486   2.532  0.5325  3.2597  1.1665
  971MOL0     H33988   3.596   9.613   2.265 -0.0009  0.7572  0.1465
  971MOL0     H33989   3.605   9.712   2.418 -1.2359  0.4102  0.3182
  971MOL0     H33990   3.474   9.442   2.439  2.6132  0.6486 -1.4646
  971MOL0     H33991   3.424   9.599   2.509  0.4195 -2.9776  1.8409
  971MOL0     H33992   3.406   9.561   2.210 -0.4924  0.4229 -0.2252
  971MOL0     H33993   3.288   9.650   2.305  1.7336  1.0068  2.1203
  971MOL0     H33994   3.104   9.278   2.345  1.0760 -1.2830 -0.8509
  971MOL0     H33995   3.913   9.347   2.460 -1.4116  0.6028  0.6886
  971MOL0     H33996   4.136   9.209   2.638  2.8658 -0.2750 -0.5615
  971MOL0     H33997   4.033   9.192   2.498 -0.1074  0.4956 -0.9246
  971MOL0     H33998   4.219   9.225   2.492 -0.3112 -0.3197  1.3100
  972MOL0     O33999   0.223   7.935  10.921 -0.7400 -0.8987 -0.6128
  972MOL0     C34000   0.233   7.827  10.984  0.0859 -0.9000 -0.6089
  972MOL0     O34001   0.330   7.802  11.070 -0.6943 -0.2446  0.8748
  972MOL0     C34002   0.410   7.906  11.113  0.1950 -0.4892  0.1320
  972MOL0     C34003   0.353   8.028  11.159 -0.3738 -0.1494  0.1341
  972MOL0     C34004   0.432   8.136  11.194  0.4316 -0.3005  0.2349
  972MOL0     C34005   0.580   8.119  11.185  0.0926 -0.6421 -0.3214
  972MOL0     O34006   0.678   8.200  11.233  0.3994 -0.0239  0.1141
  972MOL0     C34007   0.663   8.339  11.196 -0.5467  0.1497 -0.8831
  972MOL0     C34008   0.806   8.395  11.203 -0.1820 -0.2677  0.3070
  972MOL0     C34009   0.817   8.543  11.212  0.1409  0.1403 -0.0024
  972MOL0     C34010   0.963   8.606  11.232 -0.0921 -0.1766  0.6706
  972MOL0     C34011   0.960   8.757  11.243  0.1082 -0.6730  0.8459
  972MOL0     C34012   1.104   8.824  11.254  0.1932  0.2561  0.4626
  972MOL0     C34013   1.201   8.777  11.147  0.0225 -1.0694 -0.0429
  972MOL0     C34014   1.343   8.834  11.177  0.0231  0.2961 -0.7461
  972MOL0     N34015   1.423   8.817  11.054 -0.2152 -0.0443 -0.3717
  972MOL0     C34016   1.546   8.759  11.048 -0.3640 -0.0915  0.2809
  972MOL0     C34017   1.578   8.765  10.918 -0.0160 -0.5286 -0.0716
  972MOL0     C34018   1.703   8.717  10.862  0.2094  0.5761 -0.3683
  972MOL0     C34019   1.800   8.833  10.857  0.1574  0.4370  0.3522
  972MOL0     C34020   1.780   8.939  10.741 -0.2729  0.2404 -0.4068
  972MOL0     C34021   1.772   8.878  10.606 -0.8699  0.1451 -0.3305
  972MOL0     O34022   1.839   8.971  10.518 -0.6437  0.2433 -0.0130
  972MOL0     C34023   1.972   8.971  10.492  0.2166  0.1900  0.1331
  972MOL0     C34024   2.008   9.066  10.399  0.3742  0.1502  0.1781
  972MOL0     C34025   2.139   9.070  10.344  0.2520  0.4250  0.0294
  972MOL0     C34026   2.168   9.172  10.242 -0.8077 -0.5692  0.8462
  972MOL0     C34027   2.237   8.972  10.386 -0.5875 -0.3197 -0.2459
  972MOL0     C34028   2.380   8.990  10.359 -0.5995  0.4472  0.8353
  972MOL0     O34029   2.441   9.114  10.359  0.1911  0.4380  0.0298
  972MOL0     C34030   2.574   9.114  10.373  0.4885  0.8165  0.3805
  972MOL0     C34031   2.640   9.060  10.481 -0.6418  0.6455 -0.3320
  972MOL0     C34032   2.779   9.074  10.501 -0.2453  0.1083  0.1038
  972MOL0     C34033   2.845   9.132  10.390  0.1801  0.4107 -0.4118
  972MOL0     O34034   2.984   9.113  10.395  0.9245  0.3071  0.1902
  972MOL0     C34035   3.067   9.198  10.314 -0.1719 -0.4168 -0.7802
  972MOL0     C34036   3.203   9.159  10.331 -0.3792 -0.0904 -0.5118
  972MOL0     C34037   3.303   9.264  10.289  0.2042 -0.0553 -0.1154
  972MOL0     C34038   3.443   9.194  10.278 -0.2067 -0.5408  0.2572
  972MOL0     C34039   3.541   9.308  10.266 -0.9394  0.0775 -0.3858
  972MOL0     C34040   3.542   9.391  10.139  0.5407 -0.5213 -0.3503
  972MOL0     C34041   3.578   9.547  10.159  0.1580 -0.8552 -0.4650
  972MOL0     C34042   3.465   9.624  10.227  0.0256 -0.7314  0.3811
  972MOL0    Cl34043   3.315   9.598  10.141  0.5663 -0.7706 -0.0413
  972MOL0     C34044   2.784   9.181  10.279  0.0145 -0.2924 -0.6100
  972MOL0     C34045   2.646   9.171  10.266  0.1654  1.0707  0.3195
  972MOL0     O34046   2.434   8.882  10.345  0.0220 -0.5748  0.0252
  972MOL0     C34047   2.190   8.871  10.471  0.2460  1.1527  0.1073
  972MOL0     C34048   2.064   8.877  10.531 -0.9409 -0.4910 -0.1940
  972MOL0     N34049   1.479   8.818  10.845 -0.0231 -0.3671 -0.6444
  972MOL0     N34050   1.387   8.859  10.928 -0.6041  0.6752 -0.0173
  972MOL0     C34051   0.636   8.008  11.139  0.4416  0.7108 -0.5372
  972MOL0     C34052   0.547   7.895  11.098 -0.1194  0.2473 -0.6094
  972MOL0     C34053   0.147   7.715  10.938 -0.4413 -0.1184  0.2832
  972MOL0     C34054   0.021   7.752  10.891  0.2751 -0.2047 -0.2486
  972MOL0     C34055  -0.067   7.649  10.843  0.0028 -0.1850 -0.4226
  972MOL0     C34056  -0.035   7.515  10.857 -0.4095  0.2482 -1.4371
  972MOL0     O34057  -0.111   7.404  10.826  0.5885 -0.2165  0.1005
  972MOL0     C34058  -0.207   7.418  10.719  0.0176  0.8429  0.1748
  972MOL0     C34059  -0.257   7.281  10.665 -0.1159  0.5116 -0.0546
  972MOL0     C34060  -0.315   7.188  10.776  0.2941 -0.0542  0.3211
  972MOL0     C34061  -0.382   7.066  10.717  0.2736  0.4838  0.5033
  972MOL0     C34062  -0.496   7.023  10.793 -0.3189  0.4540  0.1588
  972MOL0     C34063  -0.574   6.956  10.850  0.7123  0.5339  0.4616
  972MOL0     C34064   0.092   7.485  10.905  0.7509  0.3103 -0.1238
  972MOL0     C34065   0.186   7.577  10.937 -0.5686 -0.2879 -0.0925
  972MOL0     C34066   0.318   7.523  10.983  1.2152 -1.0057 -0.3853
  972MOL0     H34067   0.246   8.032  11.177 -0.2292 -1.4752  1.4683
  972MOL0     H34068   0.387   8.216  11.253  1.6309 -2.4011  4.4101
  972MOL0     H34069   0.605   8.391  11.273 -0.0578 -0.7088  0.0809
  972MOL0     H34070   0.615   8.355  11.099  1.1143  1.9871 -1.4812
  972MOL0     H34071   0.847   8.354  11.296 -1.2950 -4.1637 -0.7169
  972MOL0     H34072   0.853   8.363  11.110 -1.7492  0.8987 -0.9563
  972MOL0     H34073   0.772   8.596  11.127  1.1360  1.3302  0.1897
  972MOL0     H34074   0.757   8.574  11.298  0.1977  0.1577  0.0309
  972MOL0     H34075   1.002   8.554  11.320 -3.8118 -2.6179  1.1321
  972MOL0     H34076   1.014   8.568  11.143  0.8575 -0.8219  1.4753
  972MOL0     H34077   0.900   8.773  11.333 -0.3984 -1.4541  0.6601
  972MOL0     H34078   0.916   8.802  11.153  1.1789 -1.3709 -0.0555
  972MOL0     H34079   1.082   8.931  11.257 -0.8777  0.0346  1.1289
  972MOL0     H34080   1.143   8.799  11.353  1.9592 -0.7291 -0.4252
  972MOL0     H34081   1.163   8.808  11.049  3.7985 -0.4895 -1.5113
  972MOL0     H34082   1.215   8.668  11.152  1.7786 -0.8231  1.7134
  972MOL0     H34083   1.358   8.938  11.207  1.3001  0.9226 -3.2139
  972MOL0     H34084   1.392   8.776  11.255  2.5473  1.9281 -0.9994
  972MOL0     H34085   1.606   8.715  11.127  0.9991  0.6212 -0.3287
  972MOL0     H34086   1.687   8.683  10.759  2.2095  1.1707 -0.9084
  972MOL0     H34087   1.741   8.633  10.920 -1.7027  1.0670  1.7256
  972MOL0     H34088   1.784   8.892  10.948  1.5145  0.0287  0.8811
  972MOL0     H34089   1.904   8.801  10.866  1.3198  2.8037 -2.7451
  972MOL0     H34090   1.694   9.002  10.764 -0.6894  0.3967 -2.2308
  972MOL0     H34091   1.873   8.997  10.743 -0.0467 -0.0923 -1.2071
  972MOL0     H34092   1.818   8.780  10.588 -1.8328 -0.0078 -2.2687
  972MOL0     H34093   1.666   8.875  10.579 -0.4171  0.5862 -2.3095
  972MOL0     H34094   1.936   9.136  10.357  1.0352  0.7480  0.0300
  972MOL0     H34095   2.250   9.241  10.260  1.0528 -1.6510 -2.4959
  972MOL0     H34096   2.084   9.241  10.231 -0.4299  0.8546  5.1667
  972MOL0     H34097   2.203   9.123  10.150 -0.8503  0.0051  0.5167
  972MOL0     H34098   2.584   9.015  10.563 -1.9542  1.8837 -0.5233
  972MOL0     H34099   2.834   9.035  10.586 -0.3753 -2.8943 -1.0608
  972MOL0     H34100   3.049   9.186  10.207 -0.5262  0.0190 -0.7720
  972MOL0     H34101   3.046   9.302  10.343  1.1216 -0.5481  0.8252
  972MOL0     H34102   3.217   9.138  10.438 -1.2632  1.7143  0.0056
  972MOL0     H34103   3.222   9.069  10.272  1.5601 -1.4901  2.0192
  972MOL0     H34104   3.310   9.339  10.367 -0.3000 -1.3436  1.2155
  972MOL0     H34105   3.273   9.306  10.192 -0.3164 -2.1451 -0.9270
  972MOL0     H34106   3.446   9.128  10.190 -0.6253  0.9009 -0.8879
  972MOL0     H34107   3.462   9.139  10.370  2.5632 -1.2778 -0.6599
  972MOL0     H34108   3.541   9.379  10.349 -0.3033  1.1607 -1.2761
  972MOL0     H34109   3.642   9.269  10.278  0.6277  3.6104 -0.8759
  972MOL0     H34110   3.448   9.383  10.083  0.7290  0.0692 -0.7575
  972MOL0     H34111   3.616   9.360  10.065 -1.2927  0.0566 -2.5353
  972MOL0     H34112   3.596   9.594  10.061 -1.5085  0.1963 -0.3205
  972MOL0     H34113   3.670   9.567  10.214  1.1065 -1.4183 -1.7939
  972MOL0     H34114   3.491   9.729  10.241  3.5214 -1.2248 -1.3773
  972MOL0     H34115   3.451   9.594  10.331  0.8784  1.8552  1.3226
  972MOL0     H34116   2.836   9.222  10.193 -1.4081  1.3200 -0.7477
  972MOL0     H34117   2.604   9.214  10.176 -0.2836  1.3838  0.6689
  972MOL0     H34118   2.256   8.796  10.512 -2.4828 -1.5078 -0.0500
  972MOL0     H34119   2.043   8.789  10.591  0.7247  1.4419  3.5488
  972MOL0     H34120   0.743   7.992  11.125  0.4289 -3.4552  2.3517
  972MOL0     H34121   0.582   7.805  11.048  0.2820  0.3292 -0.4828
  972MOL0     H34122  -0.005   7.856  10.881 -0.4871 -0.4627 -1.0448
  972MOL0     H34123  -0.163   7.680  10.802 -1.4300  0.6891  3.2166
  972MOL0     H34124  -0.296   7.469  10.757 -4.3271 -2.9084 -3.6531
  972MOL0     H34125  -0.180   7.489  10.641  0.3275  0.9405  0.3700
  972MOL0     H34126  -0.170   7.233  10.618 -0.3197 -1.2975  1.3067
  972MOL0     H34127  -0.332   7.310  10.591  0.5650 -0.1739 -1.0428
  972MOL0     H34128  -0.241   7.163  10.852  0.7713 -0.5718 -0.2984
  972MOL0     H34129  -0.399   7.238  10.826 -1.4727 -2.4576 -0.0856
  972MOL0     H34130  -0.309   6.985  10.707  1.4121  1.6083 -0.6167
  972MOL0     H34131  -0.420   7.089  10.617  0.8290 -0.2653  0.1136
  972MOL0     H34132  -0.652   6.897  10.895  0.3289  1.3766  0.9153
  972MOL0     H34133   0.116   7.379  10.912  0.4465  0.2277 -0.3146
  972MOL0     H34134   0.331   7.421  10.945  2.4986 -2.2336  2.9397
  972MOL0     H34135   0.397   7.586  10.942  0.1572 -1.3106 -3.0572
  972MOL0     H34136   0.322   7.528  11.092 -0.4649  0.5802 -0.3346
  973MOL0     O34137   9.920   6.604   2.790  0.6833  0.2471  0.3843
  973MOL0     C34138   9.971   6.494   2.827  0.8657 -0.0788  0.3456
  973MOL0     O34139  10.070   6.422   2.764  0.4584 -0.0473 -0.0859
  973MOL0     C34140  10.157   6.486   2.696 -0.6169 -0.5072  0.4163
  973MOL0     C34141  10.269   6.540   2.769 -0.0680  0.4174 -0.3235
  973MOL0     C34142  10.367   6.611   2.694 -0.8760  1.2448 -0.0939
  973MOL0     C34143  10.359   6.644   2.561 -0.5593 -1.0275  0.0699
  973MOL0     O34144  10.442   6.725   2.488  0.1258  0.5564 -0.1165
  973MOL0     C34145  10.489   6.851   2.543 -0.3170 -0.6103 -0.3082
  973MOL0     C34146  10.605   6.903   2.451  1.0200 -1.4223 -0.2257
  973MOL0     C34147  10.735   6.841   2.499 -0.1059 -0.1726 -0.0264
  973MOL0     C34148  10.851   6.913   2.427 -0.0648 -0.1619 -0.9284
  973MOL0     C34149  10.978   6.832   2.459 -1.0318 -0.3796  0.3230
  973MOL0     C34150  11.088   6.895   2.372 -0.8120 -0.0896  0.6273
  973MOL0     C34151  11.221   6.826   2.398  0.8993  0.2896  0.7707
  973MOL0     C34152  11.312   6.822   2.286 -0.7204 -1.2181  0.0330
  973MOL0     N34153  11.381   6.955   2.266 -0.0562  0.2348  0.2240
  973MOL0     C34154  11.359   7.024   2.151  0.2823 -0.4900  1.4194
  973MOL0     C34155  11.449   7.123   2.158  0.3078 -0.5932  0.2567
  973MOL0     C34156  11.460   7.235   2.060  1.0150  0.3829  0.4839
  973MOL0     C34157  11.588   7.242   1.982 -0.5272 -0.1206 -0.0796
  973MOL0     C34158  11.596   7.373   1.904  0.4425 -0.5458 -0.0506
  973MOL0     C34159  11.738   7.417   1.866  0.0731 -0.4922  0.7549
  973MOL0     O34160  11.816   7.455   1.984  0.0962  0.9914 -0.4925
  973MOL0     C34161  11.952   7.489   1.971 -0.1413  0.1051 -0.4209
  973MOL0     C34162  12.018   7.540   2.089  0.5703  0.8017  0.2306
  973MOL0     C34163  12.148   7.571   2.098 -0.7277  0.4197  0.0878
  973MOL0     C34164  12.200   7.618   2.231  0.1133  0.4362  0.6151
  973MOL0     C34165  12.226   7.551   1.984 -0.6031 -0.2749  0.2487
  973MOL0     C34166  12.374   7.560   1.971  0.4690  0.2571 -0.4868
  973MOL0     O34167  12.430   7.616   1.861  0.4157 -0.3741  0.4750
  973MOL0     C34168  12.569   7.619   1.850 -0.3937 -0.6632  0.5067
  973MOL0     C34169  12.645   7.499   1.866  0.1182 -0.7168 -0.7243
  973MOL0     C34170  12.781   7.492   1.842  0.2509 -0.1328 -0.1943
  973MOL0     C34171  12.847   7.602   1.778 -0.4242  1.3431  0.6807
  973MOL0     O34172  12.973   7.596   1.724 -0.3761  0.1262 -0.2190
  973MOL0     C34173  13.049   7.477   1.712 -0.1580  0.5474  0.7658
  973MOL0     C34174  13.189   7.508   1.658  0.3565 -0.7951  0.4015
  973MOL0     C34175  13.266   7.623   1.734  1.0774  0.4530 -0.5649
  973MOL0     C34176  13.407   7.648   1.691  0.0647  0.3622 -0.7042
  973MOL0     C34177  13.463   7.770   1.756 -0.3853  0.1463 -0.1044
  973MOL0     C34178  13.604   7.799   1.708 -0.4386  0.4781  0.3197
  973MOL0     C34179  13.674   7.911   1.794  0.3162 -0.1751  0.7853
  973MOL0     C34180  13.816   7.935   1.755 -0.8232  0.0696 -0.0137
  973MOL0    Cl34181  13.911   7.798   1.819 -0.2041  0.3814 -0.1544
  973MOL0     C34182  12.774   7.717   1.762  0.1632  0.2581  0.2669
  973MOL0     C34183  12.639   7.728   1.808  0.2096 -0.2368  0.0031
  973MOL0     O34184  12.428   7.513   2.074 -0.4875 -0.6083  0.1230
  973MOL0     C34185  12.164   7.515   1.867 -0.7013 -0.0302 -0.2367
  973MOL0     C34186  12.029   7.484   1.855  0.5372  0.3137 -0.2627
  973MOL0     N34187  11.514   7.123   2.282 -0.0039  0.2325 -0.0974
  973MOL0     N34188  11.480   7.012   2.339 -0.2287 -0.5152  0.3873
  973MOL0     C34189  10.256   6.586   2.490  0.3010 -0.3680  0.2960
  973MOL0     C34190  10.154   6.511   2.560 -0.8564 -0.3244  0.6826
  973MOL0     C34191   9.918   6.446   2.953 -0.4649 -0.0568  0.0328
  973MOL0     C34192   9.871   6.310   2.962 -0.9551  0.2380  0.1068
  973MOL0     C34193   9.813   6.263   3.089 -0.2443 -0.5736  0.0715
  973MOL0     C34194   9.798   6.351   3.195  0.0302  0.4920  0.5223
  973MOL0     O34195   9.746   6.297   3.308 -0.2536 -0.0213  0.6227
  973MOL0     C34196   9.749   6.393   3.417 -0.6765  0.4346 -0.1066
  973MOL0     C34197   9.698   6.329   3.542 -0.7601  0.0913 -0.6343
  973MOL0     C34198   9.784   6.217   3.587  0.6137  0.9041 -0.0548
  973MOL0     C34199   9.705   6.119   3.675  0.3279  0.3478 -0.3311
  973MOL0     C34200   9.687   6.194   3.804  0.1090 -0.2403  0.1554
  973MOL0     C34201   9.657   6.253   3.906 -0.2226  0.0993 -0.3129
  973MOL0     C34202   9.847   6.478   3.185  0.6992  0.5706 -0.6365
  973MOL0     C34203   9.914   6.526   3.072  0.6463  0.2964  0.2760
  973MOL0     C34204   9.985   6.666   3.089  0.6539 -0.3407 -0.0599
  973MOL0     H34205  10.281   6.520   2.875 -0.0233 -3.3723 -0.9068
  973MOL0     H34206  10.447   6.653   2.755 -0.3913 -0.2980  0.3791
  973MOL0     H34207  10.534   6.833   2.642 -0.2852 -1.7216 -0.5127
  973MOL0     H34208  10.405   6.920   2.553  0.1539 -0.1133  0.3184
  973MOL0     H34209  10.592   6.871   2.348  0.7251  0.7827 -0.9216
  973MOL0     H34210  10.605   7.012   2.445  1.0420 -1.4794 -1.3140
  973MOL0     H34211  10.749   6.839   2.607  1.6362 -0.0878 -0.2171
  973MOL0     H34212  10.741   6.744   2.449 -0.4707 -0.6581  0.8505
  973MOL0     H34213  10.831   6.913   2.319  0.1904 -0.8906 -0.9877
  973MOL0     H34214  10.862   7.015   2.464  0.3462 -1.0506  1.6136
  973MOL0     H34215  10.957   6.726   2.441 -1.3720 -0.1973 -0.3918
  973MOL0     H34216  11.012   6.854   2.561  1.1972 -1.6824 -0.0839
  973MOL0     H34217  11.065   6.916   2.267 -0.7609  2.6505  1.0983
  973MOL0     H34218  11.104   6.996   2.411 -0.0435 -0.4156  1.1689
  973MOL0     H34219  11.191   6.725   2.427 -3.4014  1.0680 -0.2531
  973MOL0     H34220  11.274   6.878   2.479 -0.1644  1.4873  0.7396
  973MOL0     H34221  11.383   6.740   2.299 -0.1648 -0.7820 -0.2027
  973MOL0     H34222  11.251   6.796   2.199 -3.4921  1.0058  1.1395
  973MOL0     H34223  11.283   7.012   2.075 -0.1070  0.7775  1.5848
  973MOL0     H34224  11.454   7.324   2.124  1.2203 -0.0740  1.1420
  973MOL0     H34225  11.375   7.231   1.991 -0.9260 -0.9145  2.8021
  973MOL0     H34226  11.671   7.244   2.053  2.4706  1.2099 -3.3517
  973MOL0     H34227  11.598   7.159   1.912  0.8679 -1.4806  1.6243
  973MOL0     H34228  11.539   7.361   1.811  2.4814 -1.7091 -1.2492
  973MOL0     H34229  11.545   7.447   1.966  0.0507 -1.3917  0.6516
  973MOL0     H34230  11.782   7.333   1.812 -1.2715  0.1338 -1.4343
  973MOL0     H34231  11.726   7.502   1.798  0.4215 -1.1623 -0.1583
  973MOL0     H34232  11.959   7.539   2.180  2.8394  0.5811  1.7919
  973MOL0     H34233  12.120   7.669   2.285 -1.2624 -2.3178  1.3982
  973MOL0     H34234  12.279   7.691   2.215 -0.2482  0.7099  0.0463
  973MOL0     H34235  12.244   7.539   2.292  1.6473  1.3270  0.7138
  973MOL0     H34236  12.590   7.410   1.897  2.1604 -1.6569  0.4138
  973MOL0     H34237  12.832   7.399   1.862 -0.4076 -0.0224  2.2729
  973MOL0     H34238  13.052   7.438   1.814 -1.9966  2.4804  1.6370
  973MOL0     H34239  12.997   7.397   1.658 -1.2394 -0.3974  3.0666
  973MOL0     H34240  13.239   7.411   1.665 -2.0619 -2.1076  0.8638
  973MOL0     H34241  13.173   7.545   1.557  0.2757  0.1486  0.7476
  973MOL0     H34242  13.261   7.595   1.840  2.7340  2.6608  0.1938
  973MOL0     H34243  13.207   7.714   1.718  0.0171 -0.3005 -1.0425
  973MOL0     H34244  13.402   7.650   1.581 -0.3584 -3.4310 -0.8791
  973MOL0     H34245  13.471   7.564   1.717  0.1361 -1.6361 -6.0292
  973MOL0     H34246  13.406   7.860   1.732 -0.5560 -0.6141 -2.8397
  973MOL0     H34247  13.463   7.757   1.865  1.2318 -1.0458 -0.2144
  973MOL0     H34248  13.598   7.843   1.608 -3.3154  1.4226  0.8265
  973MOL0     H34249  13.666   7.709   1.702  1.2430  1.6345 -0.4864
  973MOL0     H34250  13.666   7.878   1.898  4.4109 -2.7495  0.5080
  973MOL0     H34251  13.626   8.009   1.781  0.4131 -0.2396 -0.0760
  973MOL0     H34252  13.855   8.029   1.795 -2.1904  0.3054  0.8367
  973MOL0     H34253  13.813   7.958   1.648  1.0637  0.8126  0.0574
  973MOL0     H34254  12.820   7.796   1.704  2.6106  0.6645  2.5564
  973MOL0     H34255  12.587   7.822   1.800 -1.6858 -1.3502 -1.7477
  973MOL0     H34256  12.231   7.513   1.781 -0.5368 -0.0112 -0.1097
  973MOL0     H34257  11.988   7.449   1.761 -0.4241  0.1757  0.1932
  973MOL0     H34258  10.248   6.604   2.383 -2.6605  1.8151  0.7409
  973MOL0     H34259  10.076   6.471   2.495  0.2306 -0.4709 -0.5608
  973MOL0     H34260   9.888   6.241   2.880  1.3241  0.5955  0.2008
  973MOL0     H34261   9.788   6.158   3.100  2.2748 -1.2612 -0.0847
  973MOL0     H34262   9.850   6.431   3.434 -0.3804  0.1016 -1.0615
  973MOL0     H34263   9.677   6.475   3.403 -0.6757  0.6829  1.2505
  973MOL0     H34264   9.595   6.302   3.519 -0.7435 -1.4429  0.8687
  973MOL0     H34265   9.690   6.395   3.629  0.9074 -2.5722  1.7197
  973MOL0     H34266   9.838   6.168   3.506 -1.1733 -1.4202  0.0523
  973MOL0     H34267   9.862   6.248   3.658 -0.4853  3.0552  0.2861
  973MOL0     H34268   9.756   6.024   3.694  0.3507  0.5464  0.6092
  973MOL0     H34269   9.609   6.094   3.629 -0.7160  3.1157  0.1680
  973MOL0     H34270   9.632   6.301   3.999  1.3274  1.8895 -0.7463
  973MOL0     H34271   9.829   6.551   3.263  1.4295  1.8944 -1.6669
  973MOL0     H34272   9.947   6.741   3.019 -0.4840  0.9761  1.9016
  973MOL0     H34273   9.966   6.702   3.190 -0.9352 -2.1279  0.3496
  973MOL0     H34274  10.092   6.664   3.064  0.7312 -3.9587  0.0276
  974MOL0     O34275   7.694   5.724   4.699  0.4816  0.2963 -0.5070
  974MOL0     C34276   7.596   5.650   4.677  0.1158 -0.1325  0.5454
  974MOL0     O34277   7.595   5.515   4.672 -0.3652  1.3686 -0.0035
  974MOL0     C34278   7.710   5.442   4.670  0.1457  0.1161 -1.0756
  974MOL0     C34279   7.818   5.488   4.590  0.5573 -0.6666 -0.1416
  974MOL0     C34280   7.938   5.417   4.579  0.1020  0.3681 -0.2344
  974MOL0     C34281   7.955   5.303   4.659  0.2398  0.5305  0.1368
  974MOL0     O34282   8.055   5.213   4.633 -0.7212  0.1006 -1.0656
  974MOL0     C34283   8.180   5.266   4.593 -1.0959 -0.2847  0.7396
  974MOL0     C34284   8.302   5.173   4.603 -0.2490 -0.2308  0.4068
  974MOL0     C34285   8.268   5.064   4.498 -0.5606  0.1273 -0.0757
  974MOL0     C34286   8.394   4.971   4.483 -0.2721  0.4652  0.2545
  974MOL0     C34287   8.375   4.862   4.371 -0.3545  0.1717 -0.4769
  974MOL0     C34288   8.486   4.753   4.369 -0.7064 -0.4025 -0.7641
  974MOL0     C34289   8.466   4.633   4.272  0.4963  0.5838  0.1358
  974MOL0     C34290   8.443   4.678   4.130  0.5159 -0.4913 -0.1112
  974MOL0     N34291   8.558   4.742   4.061 -0.2933 -0.1097 -0.0924
  974MOL0     C34292   8.660   4.670   4.000  0.4453  0.6195 -0.1481
  974MOL0     C34293   8.759   4.760   3.984 -0.5279  0.1212  0.5140
  974MOL0     C34294   8.896   4.738   3.917 -0.8844  0.5590 -0.4733
  974MOL0     C34295   9.008   4.732   4.031  0.7506  0.3612  0.8898
  974MOL0     C34296   9.152   4.728   3.956  0.5416 -0.4109 -0.3895
  974MOL0     C34297   9.260   4.734   4.063  0.7586 -0.7182  0.0132
  974MOL0     O34298   9.387   4.767   4.001 -0.0553 -0.6490  0.4472
  974MOL0     C34299   9.511   4.732   4.052  0.7040  0.6337 -0.8004
  974MOL0     C34300   9.536   4.645   4.159 -0.5808 -0.2745 -0.2269
  974MOL0     C34301   9.667   4.621   4.199 -0.5061 -0.4345 -0.1534
  974MOL0     C34302   9.679   4.528   4.318  0.1383 -0.2638  0.4333
  974MOL0     C34303   9.779   4.671   4.126 -0.5958  0.1740 -0.3563
  974MOL0     C34304   9.917   4.636   4.159 -0.1308 -0.2978  0.1630
  974MOL0     O34305  10.011   4.643   4.066  0.1616  0.1997  0.6033
  974MOL0     C34306  10.136   4.603   4.106 -0.2986 -0.2361  0.6887
  974MOL0     C34307  10.164   4.467   4.097 -0.0774 -0.3275 -0.2209
  974MOL0     C34308  10.289   4.426   4.138 -0.5721 -0.4175  0.7189
  974MOL0     C34309  10.394   4.514   4.175  0.5968  0.5016 -0.0560
  974MOL0     O34310  10.508   4.468   4.213 -1.1288 -0.0955  0.0962
  974MOL0     C34311  10.545   4.511   4.347 -0.0904  0.0056  0.8637
  974MOL0     C34312  10.683   4.458   4.395  0.1293 -0.1276 -0.0978
  974MOL0     C34313  10.797   4.510   4.312  0.0076  0.0951  0.0881
  974MOL0     C34314  10.935   4.465   4.367  0.3056 -0.0118 -0.5893
  974MOL0     C34315  11.051   4.479   4.259  0.0914  0.4727  0.4023
  974MOL0     C34316  11.077   4.359   4.170  0.4206 -0.1621  1.0475
  974MOL0     C34317  11.222   4.354   4.096 -0.3827  0.4330  0.0508
  974MOL0     C34318  11.229   4.243   3.996  0.2937  0.5326  0.8240
  974MOL0    Cl34319  11.387   4.257   3.920 -0.1007  0.3641  0.0024
  974MOL0     C34320  10.370   4.646   4.165  0.2003 -0.7846  0.0184
  974MOL0     C34321  10.241   4.693   4.138  0.8978  0.3081 -0.3228
  974MOL0     O34322   9.942   4.622   4.279  0.2634 -0.0987 -0.3830
  974MOL0     C34323   9.748   4.754   4.016 -0.0996 -0.0376 -1.2768
  974MOL0     C34324   9.620   4.802   3.986  0.3010 -0.1394 -0.5629
  974MOL0     N34325   8.722   4.885   4.023  0.2966 -0.0564  0.5144
  974MOL0     N34326   8.602   4.876   4.067 -0.0766  0.1778  0.0105
  974MOL0     C34327   7.855   5.261   4.742  0.0486 -0.9684 -0.8099
  974MOL0     C34328   7.735   5.330   4.746  0.0717 -0.0285  0.3942
  974MOL0     C34329   7.471   5.722   4.645  0.2507 -0.4637  0.5173
  974MOL0     C34330   7.429   5.800   4.757 -0.6745 -0.1103 -1.5703
  974MOL0     C34331   7.309   5.877   4.748  0.7617  0.5252  0.5807
  974MOL0     C34332   7.235   5.882   4.622 -0.5651  0.6394  0.0507
  974MOL0     O34333   7.125   5.973   4.623  0.1206  0.6450  0.5017
  974MOL0     C34334   7.032   5.971   4.515  0.0379 -0.1497  0.3737
  974MOL0     C34335   6.921   6.069   4.531 -0.4820 -0.2629  0.0939
  974MOL0     C34336   6.822   6.050   4.652 -0.3660  0.3141 -0.0547
  974MOL0     C34337   6.742   6.180   4.670 -0.1110 -0.0603  0.4536
  974MOL0     C34338   6.663   6.230   4.553  0.7570  0.5828  0.4072
  974MOL0     C34339   6.619   6.262   4.442 -0.3865 -0.0418  0.7624
  974MOL0     C34340   7.287   5.804   4.516 -0.2630 -0.7197  0.8879
  974MOL0     C34341   7.401   5.727   4.525  0.6549  0.2665 -1.1341
  974MOL0     C34342   7.456   5.656   4.401  1.0255  0.4655  0.3257
  974MOL0     H34343   7.815   5.585   4.541 -0.4595 -0.4516  0.3235
  974MOL0     H34344   8.017   5.445   4.510  0.6129  0.5611  0.4169
  974MOL0     H34345   8.195   5.361   4.645  1.1326  0.1683 -0.5714
  974MOL0     H34346   8.180   5.304   4.490  3.3661  0.9127  0.9356
  974MOL0     H34347   8.394   5.225   4.574 -1.2662  1.7585  0.6160
  974MOL0     H34348   8.322   5.141   4.706  3.0635  2.2024  0.7052
  974MOL0     H34349   8.183   5.011   4.542 -2.0499  1.0006 -1.7791
  974MOL0     H34350   8.243   5.102   4.398  0.9119 -1.7560 -1.2498
  974MOL0     H34351   8.475   5.033   4.443 -0.0297  0.1336  0.2356
  974MOL0     H34352   8.420   4.923   4.578  0.1957  0.9106  0.3588
  974MOL0     H34353   8.369   4.923   4.280  0.4612  0.5394 -0.2977
  974MOL0     H34354   8.276   4.821   4.388 -1.2337  1.6453 -1.7381
  974MOL0     H34355   8.583   4.798   4.345  1.1870 -3.1458  1.1480
  974MOL0     H34356   8.487   4.712   4.470 -2.9555 -0.5484 -0.7682
  974MOL0     H34357   8.375   4.585   4.308 -1.0138  3.4372  0.4482
  974MOL0     H34358   8.540   4.553   4.278  0.7165  0.7496 -0.2803
  974MOL0     H34359   8.412   4.592   4.070 -2.9754  1.1288 -0.9149
  974MOL0     H34360   8.359   4.748   4.126 -0.8909 -2.1348 -0.3321
  974MOL0     H34361   8.658   4.562   3.986  1.9108  0.8610 -2.8520
  974MOL0     H34362   8.916   4.825   3.853 -2.2251  0.5942 -0.8884
  974MOL0     H34363   8.914   4.651   3.852  1.0321 -1.7604  2.8650
  974MOL0     H34364   8.993   4.819   4.096 -2.2402 -0.4777  1.4928
  974MOL0     H34365   8.989   4.637   4.082 -0.5463  0.6618  0.9891
  974MOL0     H34366   9.167   4.641   3.891  2.5071 -0.8074  0.5433
  974MOL0     H34367   9.162   4.811   3.885  0.2733 -0.1672 -0.1465
  974MOL0     H34368   9.246   4.819   4.130 -1.0313 -0.5721 -0.5171
  974MOL0     H34369   9.268   4.638   4.115 -0.7451 -1.9099 -1.8442
  974MOL0     H34370   9.456   4.605   4.221 -0.1796 -1.8646 -0.6905
  974MOL0     H34371   9.588   4.496   4.369 -1.1657  1.0188 -0.9811
  974MOL0     H34372   9.742   4.567   4.398 -1.4755 -2.2270  2.7989
  974MOL0     H34373   9.726   4.442   4.269 -0.8632  0.4947 -2.0361
  974MOL0     H34374  10.089   4.393   4.071  0.1613 -1.0817  1.1388
  974MOL0     H34375  10.319   4.323   4.129  1.1045  0.1624 -1.3311
  974MOL0     H34376  10.568   4.617   4.339 -1.2133  0.2108  0.2136
  974MOL0     H34377  10.463   4.488   4.416  0.2517 -2.5567  0.5161
  974MOL0     H34378  10.687   4.480   4.502 -0.3550 -0.1966 -0.0638
  974MOL0     H34379  10.683   4.349   4.397 -1.9379 -0.1523  1.3466
  974MOL0     H34380  10.795   4.619   4.303  0.6373  0.0037 -1.3776
  974MOL0     H34381  10.778   4.472   4.211 -1.7881 -0.1285  0.4809
  974MOL0     H34382  10.930   4.361   4.400  0.0827 -0.2779 -1.4196
  974MOL0     H34383  10.952   4.536   4.448 -0.3480 -0.3896 -0.1081
  974MOL0     H34384  11.035   4.559   4.185 -0.4679 -0.2795 -0.3057
  974MOL0     H34385  11.140   4.520   4.308  0.9886  1.6425 -2.0381
  974MOL0     H34386  10.993   4.365   4.101 -0.5131 -0.2005  2.1583
  974MOL0     H34387  11.064   4.267   4.228 -1.0356 -0.4848  0.2516
  974MOL0     H34388  11.296   4.339   4.175 -0.4607  0.0150  0.0487
  974MOL0     H34389  11.245   4.452   4.053  3.7536 -0.6060 -0.4770
  974MOL0     H34390  11.146   4.258   3.927  0.8437 -2.0567 -0.5639
  974MOL0     H34391  11.216   4.140   4.030  0.3994  0.7104  1.4109
  974MOL0     H34392  10.452   4.717   4.171  0.0913 -0.6794  0.2888
  974MOL0     H34393  10.201   4.793   4.125 -2.5066 -0.4051  2.9028
  974MOL0     H34394   9.839   4.789   3.967  2.1184 -1.5935  1.4140
  974MOL0     H34395   9.610   4.870   3.902  2.1697 -0.5831 -1.1923
  974MOL0     H34396   7.857   5.186   4.821 -2.0108  2.5292  2.9809
  974MOL0     H34397   7.655   5.292   4.809 -1.9659  0.8247 -1.5407
  974MOL0     H34398   7.491   5.793   4.846 -1.2393 -0.9620 -1.2362
  974MOL0     H34399   7.255   5.925   4.829 -2.1281 -1.4684 -0.0178
  974MOL0     H34400   7.085   5.986   4.420 -3.2669  0.7725 -1.5068
  974MOL0     H34401   6.988   5.872   4.501 -1.4926  0.7408 -1.5490
  974MOL0     H34402   6.856   6.076   4.443 -1.5644  1.5045  0.9746
  974MOL0     H34403   6.960   6.170   4.545 -0.0036 -0.5277  0.7176
  974MOL0     H34404   6.762   5.959   4.640 -0.6578  0.3849  0.7992
  974MOL0     H34405   6.882   6.035   4.742 -3.0524 -1.2767  1.6224
  974MOL0     H34406   6.811   6.265   4.674  1.2168 -1.0110 -1.0807
  974MOL0     H34407   6.679   6.170   4.758 -1.0349  0.8221 -0.0815
  974MOL0     H34408   6.577   6.282   4.345 -0.4750 -2.0830  0.3253
  974MOL0     H34409   7.245   5.799   4.415  1.4953  0.1353  0.0793
  974MOL0     H34410   7.477   5.551   4.423  0.4101  0.8936  3.3246
  974MOL0     H34411   7.382   5.656   4.321  0.9381  1.9189  0.3700
  974MOL0     H34412   7.544   5.710   4.364  0.9578  1.6133  1.7220
  975MOL0     O34413   5.311   7.826   8.308 -0.4931  0.4860  0.5827
  975MOL0     C34414   5.296   7.905   8.395  0.7086 -0.4899  0.1317
  975MOL0     O34415   5.376   7.924   8.505  0.5216  0.4655 -0.3912
  975MOL0     C34416   5.490   7.857   8.510  0.9009 -0.5090 -0.2983
  975MOL0     C34417   5.493   7.761   8.601  0.2994  0.0444  0.0150
  975MOL0     C34418   5.599   7.681   8.611  0.0863  0.2182 -1.3436
  975MOL0     C34419   5.711   7.687   8.531  0.4048  0.4030  0.0595
  975MOL0     O34420   5.807   7.588   8.549 -0.1929 -0.3336  0.0910
  975MOL0     C34421   5.935   7.617   8.479  0.3947  0.5564  0.4569
  975MOL0     C34422   6.038   7.503   8.506  0.3251  0.0662 -0.0790
  975MOL0     C34423   5.992   7.358   8.478  0.5224 -0.6066 -0.0445
  975MOL0     C34424   6.084   7.257   8.555 -0.0696 -0.3314  0.4253
  975MOL0     C34425   6.011   7.130   8.592 -0.3022  0.2269 -0.3761
  975MOL0     C34426   6.121   7.048   8.657 -0.5741  0.9130  0.2531
  975MOL0     C34427   6.098   6.904   8.702 -0.8112  0.6815  0.1433
  975MOL0     C34428   5.980   6.879   8.796 -0.6940  0.1938 -0.0759
  975MOL0     N34429   6.009   6.774   8.889  0.2181  0.1795  0.6918
  975MOL0     C34430   5.997   6.640   8.860  0.0575 -0.0426 -0.0938
  975MOL0     C34431   6.066   6.573   8.960 -0.7297  0.9134  0.4726
  975MOL0     C34432   6.093   6.420   8.947  0.2817 -0.2443  0.1951
  975MOL0     C34433   6.228   6.371   9.004  0.5342 -0.3293 -0.7408
  975MOL0     C34434   6.342   6.425   8.911  0.0470 -0.3849  0.8513
  975MOL0     C34435   6.480   6.410   8.977  0.1559 -0.1721  0.9797
  975MOL0     O34436   6.490   6.482   9.099 -0.1775 -0.0709 -0.1823
  975MOL0     C34437   6.597   6.440   9.174 -0.3800 -0.0480 -0.2955
  975MOL0     C34438   6.699   6.534   9.197  0.4406 -0.0739 -0.3543
  975MOL0     C34439   6.810   6.501   9.267  0.2206 -0.1713 -0.3714
  975MOL0     C34440   6.908   6.617   9.300 -0.4023 -0.5595 -0.5513
  975MOL0     C34441   6.828   6.371   9.316  0.6468 -0.3159 -0.6472
  975MOL0     C34442   6.943   6.319   9.410  0.3224  0.6581 -0.2709
  975MOL0     O34443   7.057   6.399   9.411 -0.4806  0.1728 -0.1589
  975MOL0     C34444   7.178   6.362   9.471 -0.1880 -0.0910 -0.3323
  975MOL0     C34445   7.288   6.448   9.437 -0.1455  0.1268  0.1382
  975MOL0     C34446   7.414   6.414   9.491  0.0164 -0.9650  0.7945
  975MOL0     C34447   7.432   6.317   9.585 -0.7793  0.6358 -0.8754
  975MOL0     O34448   7.550   6.278   9.643  0.4381 -0.1554 -0.7749
  975MOL0     C34449   7.671   6.322   9.587 -0.3207 -0.7471  0.4610
  975MOL0     C34450   7.773   6.234   9.640 -0.0583 -0.0208  0.1101
  975MOL0     C34451   7.828   6.283   9.777 -0.6865 -0.5298  0.3383
  975MOL0     C34452   7.960   6.201   9.820  0.5881  0.0088 -0.2962
  975MOL0     C34453   8.070   6.247   9.719 -0.3521  0.3547 -0.0858
  975MOL0     C34454   8.203   6.190   9.772  0.9659  1.4663  0.1682
  975MOL0     C34455   8.299   6.236   9.671 -0.1467  0.1095  0.2898
  975MOL0     C34456   8.426   6.152   9.675 -0.1600  0.1519  0.3733
  975MOL0    Cl34457   8.504   6.143   9.841  0.3879  0.5897  0.3328
  975MOL0     C34458   7.321   6.240   9.628  0.2383  0.4859  1.0572
  975MOL0     C34459   7.196   6.266   9.572 -0.1086  1.0512  0.5195
  975MOL0     O34460   6.934   6.216   9.481 -0.2413  0.5191  0.1280
  975MOL0     C34461   6.732   6.278   9.288  0.5727  0.7353  0.5598
  975MOL0     C34462   6.612   6.315   9.224  0.1748  0.0721  0.7993
  975MOL0     N34463   6.127   6.664   9.040 -0.0553  0.4423 -0.7280
  975MOL0     N34464   6.103   6.777   8.993 -0.2527  0.5262  0.2381
  975MOL0     C34465   5.721   7.795   8.444  0.4339  0.3913  0.2083
  975MOL0     C34466   5.607   7.877   8.428 -0.1221  0.6943  0.0791
  975MOL0     C34467   5.159   7.968   8.402 -0.1171  0.0025  0.3352
  975MOL0     C34468   5.099   7.976   8.529 -0.1230  1.1189  0.4288
  975MOL0     C34469   4.971   8.040   8.543  0.1758  0.6051 -0.7728
  975MOL0     C34470   4.901   8.095   8.445 -0.4049  0.5642  0.9826
  975MOL0     O34471   4.774   8.147   8.443 -0.1046 -0.3321  0.8464
  975MOL0     C34472   4.690   8.152   8.564 -0.4177 -0.6626 -0.1826
  975MOL0     C34473   4.574   8.249   8.560 -0.2806 -0.9879 -0.5441
  975MOL0     C34474   4.454   8.181   8.493 -0.3170  0.7545 -0.0171
  975MOL0     C34475   4.346   8.280   8.452  0.3419 -0.4618  0.1358
  975MOL0     C34476   4.249   8.313   8.558 -0.2210 -0.4138 -0.8254
  975MOL0     C34477   4.193   8.360   8.650  0.4243  0.6915 -0.1989
  975MOL0     C34478   4.966   8.099   8.323  0.0571 -0.1137 -0.4339
  975MOL0     C34479   5.092   8.043   8.298 -0.8120  0.5955 -0.2318
  975MOL0     C34480   5.160   8.065   8.158 -0.6667  0.6198 -0.4965
  975MOL0     H34481   5.403   7.735   8.656  2.1775 -2.7576  1.9717
  975MOL0     H34482   5.596   7.604   8.688 -0.4727  1.9885  0.4985
  975MOL0     H34483   5.984   7.712   8.503 -1.5998  2.1662 -1.3632
  975MOL0     H34484   5.916   7.620   8.371 -2.8977 -1.8264  0.8133
  975MOL0     H34485   6.126   7.508   8.441  1.1643  3.2981  1.1466
  975MOL0     H34486   6.067   7.516   8.610 -1.8778 -0.4226  0.6606
  975MOL0     H34487   5.890   7.350   8.516 -0.4742  1.9470 -1.9041
  975MOL0     H34488   5.988   7.324   8.374  1.8878 -1.6159  0.2002
  975MOL0     H34489   6.172   7.230   8.496 -0.2464 -0.1401  0.0701
  975MOL0     H34490   6.121   7.307   8.644  1.1779  0.3479 -0.4420
  975MOL0     H34491   5.961   7.088   8.504 -3.1498  1.1625  0.7173
  975MOL0     H34492   5.939   7.149   8.671  0.8281 -0.2918  0.8244
  975MOL0     H34493   6.205   7.050   8.587 -0.9585  3.6679 -0.2480
  975MOL0     H34494   6.158   7.103   8.744 -2.0614  1.5036  0.5460
  975MOL0     H34495   6.192   6.870   8.745 -0.2473  0.8529 -0.9246
  975MOL0     H34496   6.086   6.849   8.608 -0.2965 -0.8181  0.9292
  975MOL0     H34497   5.989   6.977   8.844  2.4163  2.0144 -3.8178
  975MOL0     H34498   5.889   6.854   8.741  1.7320 -0.7963 -4.0596
  975MOL0     H34499   5.958   6.589   8.772 -2.9005 -3.1960  2.7285
  975MOL0     H34500   6.096   6.395   8.841 -1.2292  0.6172 -0.0794
  975MOL0     H34501   6.003   6.380   8.995 -1.9201  3.3532 -0.5209
  975MOL0     H34502   6.244   6.413   9.103  2.2705  1.8953 -1.8651
  975MOL0     H34503   6.229   6.262   9.009  3.6374 -0.3399  0.9992
  975MOL0     H34504   6.348   6.365   8.820  0.8241  0.0617  0.5970
  975MOL0     H34505   6.332   6.532   8.888 -2.1079 -0.5067  1.0153
  975MOL0     H34506   6.497   6.303   8.995  0.0406 -0.6573 -1.5048
  975MOL0     H34507   6.565   6.440   8.915  0.7147  0.3379  1.9709
  975MOL0     H34508   6.689   6.639   9.175  3.4780  0.8372  1.9850
  975MOL0     H34509   7.006   6.597   9.255 -0.7223  0.4989 -1.7784
  975MOL0     H34510   6.929   6.636   9.405 -1.3952 -1.7000 -0.1135
  975MOL0     H34511   6.869   6.714   9.269 -0.7433 -0.2676  0.7495
  975MOL0     H34512   7.274   6.536   9.375 -0.9678  0.3911  0.6876
  975MOL0     H34513   7.507   6.459   9.457 -0.9976  1.4227  1.0536
  975MOL0     H34514   7.670   6.310   9.478 -1.1394  0.9002  0.2606
  975MOL0     H34515   7.685   6.428   9.610 -2.4772 -0.3335  0.1141
  975MOL0     H34516   7.729   6.137   9.663 -0.9012 -0.2941 -2.3707
  975MOL0     H34517   7.849   6.230   9.561 -1.3848  4.4280 -1.6879
  975MOL0     H34518   7.747   6.273   9.849  0.3881 -0.5726  1.5737
  975MOL0     H34519   7.856   6.388   9.768 -2.0763 -0.0478  1.3970
  975MOL0     H34520   7.933   6.097   9.802 -2.1287  1.1587 -3.8081
  975MOL0     H34521   8.008   6.224   9.916 -0.0109  3.8633 -0.7874
  975MOL0     H34522   8.049   6.219   9.615  0.4401 -0.5908 -0.0073
  975MOL0     H34523   8.075   6.356   9.723 -0.0099  0.6600 -4.1181
  975MOL0     H34524   8.197   6.081   9.774 -1.2635  1.5257 -0.5732
  975MOL0     H34525   8.230   6.227   9.872 -0.6817  3.9989 -0.2048
  975MOL0     H34526   8.323   6.341   9.687  0.0774 -0.1358  1.6684
  975MOL0     H34527   8.253   6.224   9.572 -2.9205  2.6614  1.1395
  975MOL0     H34528   8.491   6.201   9.602 -2.1566  1.7323 -0.4616
  975MOL0     H34529   8.419   6.046   9.649  0.5085 -0.0228  0.8906
  975MOL0     H34530   7.341   6.157   9.695 -0.8135 -0.4987  0.1876
  975MOL0     H34531   7.114   6.210   9.616 -0.8507  0.9719 -0.8919
  975MOL0     H34532   6.732   6.177   9.327 -4.4001  0.0372 -0.5912
  975MOL0     H34533   6.525   6.249   9.223 -2.0042  2.6899 -1.6050
  975MOL0     H34534   5.797   7.800   8.367 -2.6532 -0.9067 -3.1754
  975MOL0     H34535   5.612   7.955   8.353  1.5824  2.1645  1.6382
  975MOL0     H34536   5.136   7.932   8.621  0.8832  1.4636  0.1950
  975MOL0     H34537   4.933   8.039   8.645 -0.9096 -0.5059 -1.1644
  975MOL0     H34538   4.647   8.054   8.586 -0.1975 -0.3642  1.8289
  975MOL0     H34539   4.751   8.177   8.652 -1.1749 -0.9056  0.4274
  975MOL0     H34540   4.601   8.336   8.499 -0.4064 -0.5239  0.0561
  975MOL0     H34541   4.551   8.281   8.662  3.7766 -1.7842  0.7990
  975MOL0     H34542   4.488   8.132   8.401  0.2461  4.7986 -2.2048
  975MOL0     H34543   4.412   8.104   8.559  1.9762 -0.0706  0.5687
  975MOL0     H34544   4.305   8.235   8.361 -0.8820 -2.6606  1.6769
  975MOL0     H34545   4.395   8.376   8.431  1.1450 -0.6460  1.0756
  975MOL0     H34546   4.147   8.406   8.735 -0.8880 -1.8243  0.5710
  975MOL0     H34547   4.909   8.138   8.240 -4.2015 -1.3573  1.5956
  975MOL0     H34548   5.234   7.991   8.126  0.7190 -0.9247  5.0784
  975MOL0     H34549   5.088   8.071   8.076 -0.3518  0.6250 -0.7760
  975MOL0     H34550   5.215   8.159   8.171  1.0470  0.0232 -2.8043
  976MOL0     O34551   6.496   1.551   0.741  0.4138  0.2033 -0.1521
  976MOL0     C34552   6.455   1.433   0.740  0.3073 -0.0213 -0.2022
  976MOL0     O34553   6.537   1.326   0.754  0.1502  0.4273  0.2149
  976MOL0     C34554   6.670   1.338   0.788 -0.3064  0.4920  0.6335
  976MOL0     C34555   6.711   1.281   0.911 -0.2266 -0.5639  0.8296
  976MOL0     C34556   6.852   1.275   0.941  0.2430  0.3864  0.3541
  976MOL0     C34557   6.946   1.298   0.842  0.2547 -0.0941 -0.3083
  976MOL0     O34558   7.079   1.270   0.870 -0.1624 -0.1676 -0.5397
  976MOL0     C34559   7.169   1.255   0.761 -0.2691  0.6712  0.1983
  976MOL0     C34560   7.292   1.188   0.813 -0.4390  0.0229 -0.2495
  976MOL0     C34561   7.421   1.214   0.722  0.7188 -0.1961 -0.4196
  976MOL0     C34562   7.559   1.143   0.767 -0.2736 -0.9753 -0.1869
  976MOL0     C34563   7.684   1.190   0.694  0.9756 -0.5636  0.0021
  976MOL0     C34564   7.817   1.162   0.758  0.6461  0.8853 -0.0300
  976MOL0     C34565   7.935   1.229   0.693 -0.3132 -0.7752  0.3130
  976MOL0     C34566   8.067   1.171   0.747 -0.1975 -0.5838 -0.0190
  976MOL0     N34567   8.181   1.209   0.663 -1.3173  0.3885 -0.5918
  976MOL0     C34568   8.238   1.331   0.658  0.4604 -0.4934 -0.0446
  976MOL0     C34569   8.353   1.314   0.587 -0.5431  0.6017  0.7433
  976MOL0     C34570   8.449   1.416   0.554  0.1945  0.4131  0.5039
  976MOL0     C34571   8.564   1.370   0.460 -0.6639 -0.2836  0.5779
  976MOL0     C34572   8.666   1.276   0.527 -0.9910 -1.0556 -0.7679
  976MOL0     C34573   8.801   1.257   0.456 -0.1442 -0.5969  0.3351
  976MOL0     O34574   8.879   1.374   0.490  0.1544 -0.9593  0.7923
  976MOL0     C34575   9.009   1.391   0.435  0.8260  0.5469 -0.0779
  976MOL0     C34576   9.076   1.507   0.468  0.2703 -0.5926  0.1127
  976MOL0     C34577   9.207   1.530   0.431  0.2380 -0.3944 -1.2899
  976MOL0     C34578   9.264   1.661   0.481  0.0120 -0.2664 -0.1448
  976MOL0     C34579   9.277   1.437   0.353  0.0041 -0.7034  0.4890
  976MOL0     C34580   9.416   1.453   0.307  0.4565 -0.0213  1.4263
  976MOL0     O34581   9.477   1.346   0.243 -0.0539  0.3215 -0.5785
  976MOL0     C34582   9.610   1.362   0.207  0.5600  0.0577 -0.2524
  976MOL0     C34583   9.714   1.321   0.286  1.5131  0.5407  0.2440
  976MOL0     C34584   9.841   1.345   0.250 -0.3191 -0.5421 -0.0093
  976MOL0     C34585   9.874   1.403   0.124  0.3153 -0.4949 -1.1481
  976MOL0     O34586  10.005   1.435   0.089  0.1338 -0.0507  0.4097
  976MOL0     C34587  10.032   1.451  -0.050 -0.7116  0.5705  0.3298
  976MOL0     C34588  10.187   1.461  -0.073 -0.3920 -0.1363  0.4107
  976MOL0     C34589  10.241   1.597  -0.021  0.5935 -0.0152  0.1801
  976MOL0     C34590  10.396   1.580  -0.007  0.5032 -0.3029 -0.1174
  976MOL0     C34591  10.463   1.719  -0.033 -0.0957 -0.1533 -0.3346
  976MOL0     C34592  10.517   1.728  -0.166  0.0897  0.7712  0.3107
  976MOL0     C34593  10.570   1.867  -0.185 -0.1717 -0.3051 -0.3716
  976MOL0     C34594  10.629   1.887  -0.321 -0.4215  0.1873  0.2033
  976MOL0    Cl34595  10.766   1.770  -0.331  0.0748  0.0023  0.1093
  976MOL0     C34596   9.767   1.420   0.034  0.3763 -0.5755 -0.7357
  976MOL0     C34597   9.638   1.397   0.081  0.4613 -0.6731 -0.6165
  976MOL0     O34598   9.472   1.563   0.329  0.2120  0.1293  0.3700
  976MOL0     C34599   9.206   1.325   0.317  0.4228 -0.5152 -0.2981
  976MOL0     C34600   9.076   1.295   0.359  0.3264 -0.7090 -0.3525
  976MOL0     N34601   8.359   1.183   0.540  0.1924 -0.0145 -1.0425
  976MOL0     N34602   8.251   1.123   0.586 -0.8720 -0.0240 -0.4813
  976MOL0     C34603   6.899   1.352   0.721 -0.4957  0.0521 -0.2215
  976MOL0     C34604   6.767   1.371   0.698  1.3985  0.1548  0.2266
  976MOL0     C34605   6.309   1.414   0.718  0.3203  0.3016  0.1303
  976MOL0     C34606   6.229   1.519   0.667 -1.1245 -0.1031 -0.0470
  976MOL0     C34607   6.099   1.494   0.625  0.4267 -0.3544 -0.3381
  976MOL0     C34608   6.038   1.373   0.643  0.5099  0.0239  1.0642
  976MOL0     O34609   5.909   1.367   0.599 -0.1917  0.4617 -0.2543
  976MOL0     C34610   5.841   1.242   0.611 -0.3824 -0.4485 -0.3049
  976MOL0     C34611   5.693   1.255   0.567 -0.3922  0.1817  0.1757
  976MOL0     C34612   5.683   1.261   0.416 -0.5408 -0.5197 -0.1036
  976MOL0     C34613   5.621   1.137   0.344 -0.0686 -0.4271 -0.2172
  976MOL0     C34614   5.707   1.020   0.373 -0.0175  0.0402 -0.2265
  976MOL0     C34615   5.788   0.924   0.393  0.5149  0.8186 -0.2943
  976MOL0     C34616   6.107   1.271   0.703  0.5954 -1.1197  0.2085
  976MOL0     C34617   6.244   1.292   0.748  0.5199  0.8417 -0.1119
  976MOL0     C34618   6.304   1.178   0.830  0.4606  0.8980  0.0570
  976MOL0     H34619   6.631   1.258   0.981 -2.0433 -2.4609 -1.6616
  976MOL0     H34620   6.883   1.230   1.035  2.5281 -1.8276 -1.3489
  976MOL0     H34621   7.181   1.355   0.719  3.4050  0.8977  1.4499
  976MOL0     H34622   7.122   1.195   0.682  3.7033 -1.7651 -0.6259
  976MOL0     H34623   7.311   1.233   0.911  1.7350 -2.4620  0.5672
  976MOL0     H34624   7.283   1.080   0.821 -1.2385  0.1043 -0.0550
  976MOL0     H34625   7.394   1.187   0.620 -1.7107  3.2133 -0.8160
  976MOL0     H34626   7.435   1.322   0.716 -0.5124 -0.1026 -2.1725
  976MOL0     H34627   7.572   1.174   0.871  2.0051  1.5319 -1.0937
  976MOL0     H34628   7.550   1.034   0.763 -1.4138 -0.8541 -1.3463
  976MOL0     H34629   7.662   1.297   0.690  1.1593 -0.4871  0.9833
  976MOL0     H34630   7.674   1.151   0.592  0.1522  1.9048 -0.9528
  976MOL0     H34631   7.815   1.207   0.857  0.9999  1.2144 -0.1687
  976MOL0     H34632   7.831   1.054   0.768 -3.3580  0.3919  2.2855
  976MOL0     H34633   7.940   1.338   0.699  0.9081 -0.8272  0.7084
  976MOL0     H34634   7.922   1.204   0.588  2.5016  1.4670 -0.6892
  976MOL0     H34635   8.085   1.205   0.849  0.0091  0.9472 -0.5424
  976MOL0     H34636   8.058   1.062   0.747 -2.4998 -0.4432  1.1469
  976MOL0     H34637   8.199   1.422   0.702 -0.0890 -0.5451 -0.4175
  976MOL0     H34638   8.495   1.436   0.651 -0.5157 -0.6003  1.0730
  976MOL0     H34639   8.399   1.502   0.509 -0.7833  0.5294  1.7714
  976MOL0     H34640   8.520   1.312   0.379 -2.2478  1.0063  0.4428
  976MOL0     H34641   8.628   1.453   0.427  1.4755 -0.2874  4.1799
  976MOL0     H34642   8.691   1.321   0.624  1.7765 -2.2871 -0.8040
  976MOL0     H34643   8.615   1.183   0.552 -2.4135 -0.6084 -1.8860
  976MOL0     H34644   8.852   1.168   0.493  2.4376  1.0124  0.8933
  976MOL0     H34645   8.789   1.251   0.347 -2.7652 -0.0102  0.5115
  976MOL0     H34646   9.026   1.584   0.526  0.0995  0.0731 -0.8871
  976MOL0     H34647   9.350   1.646   0.547  0.4531  3.3557  0.3345
  976MOL0     H34648   9.191   1.724   0.533  1.7864  3.2616 -1.6084
  976MOL0     H34649   9.286   1.728   0.398 -0.7715  0.0567 -0.1004
  976MOL0     H34650   9.692   1.273   0.380  0.2003 -0.4670 -0.5457
  976MOL0     H34651   9.920   1.316   0.318 -1.2640 -1.7398  0.6032
  976MOL0     H34652  10.007   1.365  -0.112 -0.2638  0.8855 -0.3066
  976MOL0     H34653   9.994   1.545  -0.092  3.4861  1.1984 -2.8525
  976MOL0     H34654  10.238   1.378  -0.024 -0.3350  0.9088  2.1970
  976MOL0     H34655  10.199   1.465  -0.182 -3.6413  0.1071 -0.0228
  976MOL0     H34656  10.204   1.625   0.078  1.5857  2.2480 -0.0139
  976MOL0     H34657  10.223   1.679  -0.091  1.2385 -0.7843 -0.9147
  976MOL0     H34658  10.442   1.500  -0.066  0.0590 -0.9934  0.4530
  976MOL0     H34659  10.398   1.541   0.095 -3.9871  2.1851  1.1797
  976MOL0     H34660  10.389   1.797  -0.013 -1.0689 -1.7689  3.2669
  976MOL0     H34661  10.544   1.733   0.040 -0.2907 -0.1481 -0.1173
  976MOL0     H34662  10.434   1.703  -0.234 -0.3446 -0.1961  1.1742
  976MOL0     H34663  10.595   1.653  -0.184 -0.1160 -0.3734  3.6178
  976MOL0     H34664  10.646   1.882  -0.108 -0.2106  1.1532 -0.5832
  976MOL0     H34665  10.491   1.938  -0.160  0.9815  0.3900  1.4440
  976MOL0     H34666  10.677   1.984  -0.338  1.0880  0.1082  3.3594
  976MOL0     H34667  10.552   1.881  -0.398 -0.2012  1.7816 -0.1900
  976MOL0     H34668   9.794   1.449  -0.067 -0.6338  4.0901  0.1484
  976MOL0     H34669   9.554   1.398   0.013  0.2317 -0.3340 -0.3251
  976MOL0     H34670   9.256   1.252   0.255  4.6043  0.2190  1.8625
  976MOL0     H34671   9.035   1.206   0.312  1.1631  0.4085 -3.5004
  976MOL0     H34672   6.967   1.383   0.642 -1.6844  0.4136 -1.1253
  976MOL0     H34673   6.736   1.412   0.602  2.2675 -1.6093 -0.8550
  976MOL0     H34674   6.259   1.622   0.651 -1.5269 -0.0527 -0.5113
  976MOL0     H34675   6.039   1.573   0.579 -0.1085 -0.4224  0.2262
  976MOL0     H34676   5.893   1.163   0.555  0.5176  0.4131 -0.7080
  976MOL0     H34677   5.845   1.229   0.720  0.6557 -0.2811 -0.3070
  976MOL0     H34678   5.655   1.351   0.603  1.3896  0.8007  0.4793
  976MOL0     H34679   5.629   1.179   0.613  0.6832  0.4197  2.1621
  976MOL0     H34680   5.620   1.346   0.386  0.4919  0.0614 -0.6976
  976MOL0     H34681   5.776   1.289   0.366 -0.7032 -1.8532 -1.2118
  976MOL0     H34682   5.599   1.158   0.239 -2.9705  0.0224  0.4098
  976MOL0     H34683   5.522   1.125   0.389 -0.3215  1.1180 -0.3053
  976MOL0     H34684   5.865   0.851   0.408  0.0778  0.3995 -0.0612
  976MOL0     H34685   6.061   1.173   0.713  3.4237 -2.5674  0.2885
  976MOL0     H34686   6.406   1.188   0.866  0.1818  1.4377  0.7171
  976MOL0     H34687   6.245   1.165   0.922  1.9040  0.6216  0.9840
  976MOL0     H34688   6.286   1.083   0.779  1.1790 -0.0331  1.4590
  977MOL0     O34689  11.297   7.465   1.412 -0.0698  0.0505 -0.0071
  977MOL0     C34690  11.272   7.484   1.293  0.1117  0.1186 -0.0343
  977MOL0     O34691  11.278   7.607   1.236 -0.0137  0.5404  0.9874
  977MOL0     C34692  11.338   7.725   1.298 -0.1097  0.1347  0.3722
  977MOL0     C34693  11.473   7.742   1.323 -0.2330 -0.0662  0.1911
  977MOL0     C34694  11.531   7.857   1.363 -0.3995 -0.3646 -0.4586
  977MOL0     C34695  11.449   7.969   1.392 -0.0506 -0.0522 -0.4792
  977MOL0     O34696  11.502   8.091   1.440  0.1392  0.8993  0.1749
  977MOL0     C34697  11.587   8.088   1.558  0.1640  0.0298  0.3966
  977MOL0     C34698  11.722   8.158   1.510 -0.5090  0.3182  0.0972
  977MOL0     C34699  11.711   8.306   1.547  0.0081  0.3908  0.4561
  977MOL0     C34700  11.620   8.388   1.452 -0.3892  1.2878  0.1267
  977MOL0     C34701  11.636   8.540   1.474 -0.2945  0.6340 -0.3786
  977MOL0     C34702  11.611   8.578   1.619 -0.8123  0.0981  0.5601
  977MOL0     C34703  11.628   8.723   1.658 -0.4537  0.3934 -0.2841
  977MOL0     C34704  11.593   8.739   1.812  0.2083  0.9645 -0.0871
  977MOL0     N34705  11.668   8.650   1.903 -0.2534 -0.0247  0.0717
  977MOL0     C34706  11.808   8.674   1.936 -0.0168  0.1104 -0.7379
  977MOL0     C34707  11.839   8.555   1.994 -0.3670 -0.2252 -0.5506
  977MOL0     C34708  11.975   8.522   2.052  0.0942  0.1947 -0.0232
  977MOL0     C34709  12.047   8.409   1.989  0.5673  0.3766 -0.5288
  977MOL0     C34710  12.117   8.447   1.859  0.8561  0.0326  0.1805
  977MOL0     C34711  12.176   8.318   1.799 -0.3279 -0.5041 -0.1323
  977MOL0     O34712  12.278   8.360   1.705  0.5889 -0.2727 -0.0797
  977MOL0     C34713  12.241   8.421   1.590 -0.6697  0.3343 -0.3205
  977MOL0     C34714  12.325   8.522   1.547 -0.2252  0.9952  0.7394
  977MOL0     C34715  12.284   8.612   1.442  0.0089  0.3022  0.7561
  977MOL0     C34716  12.386   8.727   1.416  0.4598  0.2263 -0.3021
  977MOL0     C34717  12.157   8.590   1.375 -0.1201 -0.0368 -0.1915
  977MOL0     C34718  12.106   8.673   1.269  0.1430  0.1008  0.3380
  977MOL0     O34719  12.006   8.611   1.204  0.4106 -0.1650 -0.1734
  977MOL0     C34720  11.910   8.672   1.123  0.1433 -0.1401 -0.4956
  977MOL0     C34721  11.926   8.801   1.075 -0.4751  0.3615 -0.3807
  977MOL0     C34722  11.829   8.869   1.003  0.5297 -0.5552  0.0020
  977MOL0     C34723  11.706   8.815   0.978  0.1665  0.0138  0.1881
  977MOL0     O34724  11.604   8.882   0.900 -0.3653  0.0783  0.0175
  977MOL0     C34725  11.640   9.005   0.832 -0.0607  0.4226 -0.1169
  977MOL0     C34726  11.533   9.050   0.737 -0.0042  0.0582  0.4601
  977MOL0     C34727  11.405   9.112   0.797 -0.1009 -1.0803  0.1603
  977MOL0     C34728  11.308   8.993   0.830 -0.2701  0.2944  0.0988
  977MOL0     C34729  11.174   9.047   0.867 -0.2370  1.3202 -0.5823
  977MOL0     C34730  11.110   9.114   0.745 -0.0539 -0.4427  0.9216
  977MOL0     C34731  10.980   9.183   0.779  0.2642  0.1405 -0.1700
  977MOL0     C34732  10.972   9.322   0.731  0.4105 -0.9479 -1.0924
  977MOL0    Cl34733  10.992   9.335   0.554  0.0662  0.2873 -0.0922
  977MOL0     C34734  11.677   8.689   1.035 -0.1018  0.0564  0.2339
  977MOL0     C34735  11.780   8.620   1.105  0.1821  0.4864 -0.8046
  977MOL0     O34736  12.142   8.793   1.260 -0.1291 -0.5171 -0.0126
  977MOL0     C34737  12.081   8.473   1.419 -0.2711 -0.1234  0.4856
  977MOL0     C34738  12.124   8.399   1.521  0.6732 -0.3426 -0.2230
  977MOL0     N34739  11.727   8.476   2.007  0.4179 -0.0768 -0.3760
  977MOL0     N34740  11.624   8.531   1.952  0.5315  0.4889 -0.8154
  977MOL0     C34741  11.305   7.953   1.365  0.3314 -0.8466  0.0937
  977MOL0     C34742  11.251   7.831   1.317 -0.2373 -0.1475 -0.0927
  977MOL0     C34743  11.232   7.360   1.228  0.2087 -0.3879  1.1780
  977MOL0     C34744  11.178   7.254   1.291 -0.7257 -0.4114 -0.7443
  977MOL0     C34745  11.125   7.145   1.222 -0.3084 -0.1704 -0.6374
  977MOL0     C34746  11.142   7.121   1.087  0.2113  0.0491  0.4113
  977MOL0     O34747  11.096   7.005   1.035 -0.5947  0.0957 -0.7970
  977MOL0     C34748  11.157   6.952   0.919  0.6827 -0.2205 -0.5920
  977MOL0     C34749  11.065   6.994   0.796  0.1776 -0.3551  0.3294
  977MOL0     C34750  10.923   6.970   0.829 -0.2565  0.1513  0.0205
  977MOL0     C34751  10.837   6.964   0.704 -0.1591  0.2969  0.3393
  977MOL0     C34752  10.699   6.930   0.747  0.3244  0.3993  0.3155
  977MOL0     C34753  10.587   6.920   0.786  1.0044 -0.6056  0.2416
  977MOL0     C34754  11.187   7.241   1.020 -0.3569 -0.3985  0.2212
  977MOL0     C34755  11.233   7.357   1.086 -0.3308 -0.5197  0.4503
  977MOL0     C34756  11.296   7.462   1.003 -1.3833 -0.7016  0.4777
  977MOL0     H34757  11.547   7.666   1.299  1.1299  1.1064  0.5642
  977MOL0     H34758  11.639   7.845   1.370 -0.0567  0.5384 -2.9221
  977MOL0     H34759  11.615   7.987   1.589  0.6335  0.0381  0.0060
  977MOL0     H34760  11.548   8.145   1.642 -1.2154 -1.2324  0.6602
  977MOL0     H34761  11.813   8.118   1.557  1.5589  3.6876 -0.6625
  977MOL0     H34762  11.727   8.152   1.401 -3.8642 -1.3240 -0.0925
  977MOL0     H34763  11.695   8.324   1.654  1.6913  3.1321  0.3501
  977MOL0     H34764  11.812   8.342   1.525 -0.9499  2.6308 -0.5306
  977MOL0     H34765  11.653   8.363   1.351 -2.8445 -1.7441 -0.0764
  977MOL0     H34766  11.517   8.357   1.472 -0.6891  1.5240 -1.0132
  977MOL0     H34767  11.565   8.591   1.408 -0.1716  1.3695  0.0465
  977MOL0     H34768  11.734   8.564   1.433 -1.0196  0.0509 -2.5927
  977MOL0     H34769  11.512   8.543   1.649 -0.8506  0.3548  0.7411
  977MOL0     H34770  11.700   8.541   1.670  0.6603 -0.1867 -2.0472
  977MOL0     H34771  11.553   8.776   1.598 -2.1349 -2.1238 -0.5544
  977MOL0     H34772  11.731   8.744   1.629  0.0893 -2.9312 -1.1479
  977MOL0     H34773  11.616   8.843   1.836 -1.5137  1.5875 -1.0140
  977MOL0     H34774  11.489   8.713   1.831  0.7520  0.9028  3.7164
  977MOL0     H34775  11.871   8.756   1.903  0.8289 -0.5997 -0.9168
  977MOL0     H34776  11.963   8.494   2.158 -0.9900 -0.4324 -0.2973
  977MOL0     H34777  12.037   8.610   2.036 -1.8953  1.7292  0.3491
  977MOL0     H34778  12.127   8.363   2.048  2.6534  2.1043 -1.8563
  977MOL0     H34779  11.971   8.334   1.963  2.4341 -1.3684 -1.3057
  977MOL0     H34780  12.045   8.491   1.788  0.0663 -1.9450 -0.2986
  977MOL0     H34781  12.198   8.520   1.869 -0.1460  1.5822 -2.0094
  977MOL0     H34782  12.228   8.250   1.866  1.2999  0.0649 -0.7491
  977MOL0     H34783  12.096   8.261   1.752  1.0967 -0.9015 -2.2508
  977MOL0     H34784  12.423   8.533   1.592  0.9347 -0.5591 -1.2433
  977MOL0     H34785  12.336   8.824   1.424  1.5291  0.6542  1.7731
  977MOL0     H34786  12.433   8.709   1.319  0.0594  1.1992 -0.6910
  977MOL0     H34787  12.462   8.735   1.494 -1.4091  1.9407  1.4806
  977MOL0     H34788  12.021   8.852   1.081  0.9222 -2.0384 -0.5793
  977MOL0     H34789  11.854   8.969   0.969  3.7564 -2.4454 -4.0219
  977MOL0     H34790  11.647   9.075   0.915  1.8648 -3.0474  2.9467
  977MOL0     H34791  11.735   8.996   0.778 -0.0308  0.5228 -0.0807
  977MOL0     H34792  11.579   9.133   0.682 -2.3114 -0.4534 -2.4480
  977MOL0     H34793  11.501   8.976   0.664 -1.2313  1.2738 -0.2733
  977MOL0     H34794  11.370   9.180   0.719  1.5016 -0.6335 -0.2082
  977MOL0     H34795  11.430   9.177   0.881  0.6770  0.7445 -1.4169
  977MOL0     H34796  11.340   8.933   0.916 -1.7721 -0.4251  0.1935
  977MOL0     H34797  11.294   8.929   0.742 -0.6195 -1.1371  1.1562
  977MOL0     H34798  11.108   8.971   0.910 -0.6910  1.5935 -0.7966
  977MOL0     H34799  11.188   9.116   0.950 -2.2094 -0.8690  1.7518
  977MOL0     H34800  11.096   9.052   0.656 -0.6015  3.3809 -1.8728
  977MOL0     H34801  11.175   9.193   0.706  0.0518 -0.3721  1.2342
  977MOL0     H34802  10.976   9.189   0.888  0.2556  2.0140 -0.2327
  977MOL0     H34803  10.890   9.134   0.741  1.1102  0.2596 -2.4880
  977MOL0     H34804  11.034   9.389   0.791 -2.0570  0.5099 -0.0189
  977MOL0     H34805  10.877   9.361   0.767  0.9382 -1.2507  0.7196
  977MOL0     H34806  11.577   8.655   1.014 -0.6778 -0.1890  2.9483
  977MOL0     H34807  11.747   8.523   1.141  0.9640 -0.1362 -1.7326
  977MOL0     H34808  11.992   8.434   1.370  1.1086 -0.4499 -1.8993
  977MOL0     H34809  12.052   8.323   1.551  0.5964  0.2529  1.1552
  977MOL0     H34810  11.242   8.034   1.400  1.9770  0.7347 -0.4194
  977MOL0     H34811  11.145   7.822   1.298 -0.1764 -0.1768 -0.4167
  977MOL0     H34812  11.183   7.250   1.399 -0.4996 -4.3210 -0.7330
  977MOL0     H34813  11.070   7.066   1.273 -0.4306 -0.3031 -0.9743
  977MOL0     H34814  11.257   6.998   0.924 -0.1613  1.6110  0.2045
  977MOL0     H34815  11.168   6.844   0.927  1.2505 -0.1693 -0.6148
  977MOL0     H34816  11.092   6.928   0.714 -1.7851 -0.1587 -0.5288
  977MOL0     H34817  11.085   7.099   0.773 -0.4898  0.0136  1.3326
  977MOL0     H34818  10.925   6.869   0.870  2.2632  0.2823  0.3591
  977MOL0     H34819  10.870   7.037   0.897 -2.9048 -0.9554 -0.7996
  977MOL0     H34820  10.874   6.875   0.653  0.9567  1.5006 -1.0323
  977MOL0     H34821  10.845   7.051   0.639 -0.6967 -1.5401 -2.3579
  977MOL0     H34822  10.487   6.935   0.822  0.3829  0.5708 -1.7799
  977MOL0     H34823  11.182   7.242   0.912 -3.0560  1.9282  0.2367
  977MOL0     H34824  11.334   7.423   0.909  0.2195  0.8487  0.4347
  977MOL0     H34825  11.225   7.543   0.983 -0.5477 -0.2624 -0.7820
  977MOL0     H34826  11.383   7.510   1.050 -0.8943  1.8133 -2.6829
  978MOL0     O34827   1.208   4.972   8.263  0.8721 -0.6923 -0.3114
  978MOL0     C34828   1.136   4.936   8.354  0.0678 -0.2468 -0.0264
  978MOL0     O34829   1.184   4.922   8.486 -0.1126  0.6939 -0.0941
  978MOL0     C34830   1.299   4.980   8.520  0.0823  0.5863  0.2655
  978MOL0     C34831   1.338   5.108   8.499  0.1083 -0.2580 -0.0569
  978MOL0     C34832   1.461   5.152   8.541 -0.4232  0.2604  0.6500
  978MOL0     C34833   1.550   5.070   8.622  0.9201  0.6866 -0.1659
  978MOL0     O34834   1.670   5.106   8.675 -0.3647 -1.2721 -0.4158
  978MOL0     C34835   1.714   5.238   8.659  0.6108 -1.0677 -0.0715
  978MOL0     C34836   1.850   5.250   8.717 -0.2872  0.0855 -0.3608
  978MOL0     C34837   1.917   5.383   8.665  0.6454 -0.3908  0.5699
  978MOL0     C34838   1.876   5.510   8.732  0.2853  0.1325 -0.1912
  978MOL0     C34839   1.949   5.634   8.698  0.5316  0.0579 -0.4385
  978MOL0     C34840   1.904   5.693   8.567  0.0168 -0.0853  0.1393
  978MOL0     C34841   1.981   5.818   8.528 -0.1389 -0.7080  1.1322
  978MOL0     C34842   1.913   5.879   8.406  0.7042 -0.7819  0.4065
  978MOL0     N34843   1.973   6.010   8.382  0.3450  0.0328 -0.1963
  978MOL0     C34844   2.088   6.035   8.312  0.1129  0.9665  0.6013
  978MOL0     C34845   2.093   6.170   8.303  0.0122 -0.1015 -0.4410
  978MOL0     C34846   2.195   6.249   8.226  0.8099  0.7228  0.0041
  978MOL0     C34847   2.278   6.340   8.306 -0.0428  0.1007 -0.4366
  978MOL0     C34848   2.361   6.267   8.413  0.8088  0.1744 -0.1528
  978MOL0     C34849   2.493   6.334   8.432  0.3443  0.3616  0.6868
  978MOL0     O34850   2.589   6.296   8.328 -0.5110  0.0286  0.0662
  978MOL0     C34851   2.706   6.366   8.326  0.2359  0.0835  0.1289
  978MOL0     C34852   2.795   6.344   8.227  0.0924  0.5819  0.3039
  978MOL0     C34853   2.926   6.395   8.220 -1.1616 -0.7553  0.5301
  978MOL0     C34854   3.020   6.373   8.100  0.3342 -0.1691 -0.3323
  978MOL0     C34855   2.963   6.472   8.337  0.6345 -0.1472  0.3784
  978MOL0     C34856   3.107   6.527   8.353 -0.0774 -0.1531 -0.6257
  978MOL0     O34857   3.117   6.617   8.464 -0.2228 -0.1336  0.2854
  978MOL0     C34858   3.240   6.674   8.491  0.9641  0.1287  0.4956
  978MOL0     C34859   3.244   6.816   8.505  0.2611  0.6758 -0.2442
  978MOL0     C34860   3.352   6.885   8.548  0.5612 -0.9318 -0.8698
  978MOL0     C34861   3.476   6.822   8.568  0.0014  0.1992  0.8435
  978MOL0     O34862   3.590   6.872   8.616  0.1010 -1.0986 -0.1065
  978MOL0     C34863   3.596   7.014   8.644 -0.4500 -0.0462 -0.1173
  978MOL0     C34864   3.735   7.025   8.702 -0.2633 -0.2191 -0.1675
  978MOL0     C34865   3.775   7.167   8.723  0.4384  0.0438 -1.1546
  978MOL0     C34866   3.698   7.254   8.826 -0.5531  0.9645  1.0061
  978MOL0     C34867   3.782   7.375   8.883 -0.0765 -0.0061 -0.2160
  978MOL0     C34868   3.709   7.465   8.992  0.6436  0.4411  1.1698
  978MOL0     C34869   3.801   7.565   9.065 -0.3938 -0.4119 -0.9011
  978MOL0     C34870   3.876   7.499   9.177  0.5560  0.2630  0.0446
  978MOL0    Cl34871   3.972   7.620   9.261  0.1091  0.2603  0.0216
  978MOL0     C34872   3.472   6.681   8.550 -0.1517 -0.1747  0.4914
  978MOL0     C34873   3.357   6.606   8.503 -0.5649 -0.9956 -0.1089
  978MOL0     O34874   3.197   6.493   8.276  0.5410 -0.3820 -0.0614
  978MOL0     C34875   2.869   6.505   8.438 -0.8769 -0.0752  0.3654
  978MOL0     C34876   2.747   6.447   8.426 -0.0483  0.8355  0.1316
  978MOL0     N34877   1.992   6.219   8.380 -0.2597 -0.2168  0.6796
  978MOL0     N34878   1.921   6.124   8.424 -0.0695  0.4823  0.0072
  978MOL0     C34879   1.513   4.938   8.638  0.1917 -0.5701 -0.1752
  978MOL0     C34880   1.392   4.896   8.579  0.2519 -0.2695 -0.8309
  978MOL0     C34881   0.991   4.886   8.333 -0.7696  0.5714 -0.8878
  978MOL0     C34882   0.954   4.774   8.403 -0.2368 -0.4517 -0.1306
  978MOL0     C34883   0.823   4.729   8.386  0.1406  0.9899 -0.0746
  978MOL0     C34884   0.744   4.777   8.276  0.0036 -0.0925 -0.6527
  978MOL0     O34885   0.631   4.722   8.248  0.8305 -1.1312  0.6229
  978MOL0     C34886   0.639   4.603   8.163 -0.0218  0.3686  0.1691
  978MOL0     C34887   0.594   4.492   8.245  0.9476 -0.0498 -0.2582
  978MOL0     C34888   0.530   4.378   8.154 -0.0475  0.3007  0.5717
  978MOL0     C34889   0.486   4.260   8.235  0.1605  0.1591  0.0883
  978MOL0     C34890   0.458   4.146   8.150 -0.4535 -0.1024  0.5605
  978MOL0     C34891   0.434   4.053   8.075  0.0914 -0.3568 -0.6021
  978MOL0     C34892   0.789   4.878   8.201  0.2905  0.0494  0.3038
  978MOL0     C34893   0.904   4.939   8.237 -0.2463 -0.9260 -0.0667
  978MOL0     C34894   0.936   5.065   8.163  0.3426  0.6714 -0.5019
  978MOL0     H34895   1.270   5.155   8.428 -0.3557 -1.4262 -0.4085
  978MOL0     H34896   1.481   5.252   8.504 -0.2746 -0.1362 -0.3767
  978MOL0     H34897   1.643   5.313   8.694  1.7624 -0.0027  0.0114
  978MOL0     H34898   1.721   5.250   8.550  1.6105  1.4836  0.2190
  978MOL0     H34899   1.850   5.257   8.826  1.5366  1.2258 -0.3824
  978MOL0     H34900   1.914   5.174   8.670  0.5548  0.7893 -0.3916
  978MOL0     H34901   2.024   5.368   8.680  0.5833 -2.8017 -0.8958
  978MOL0     H34902   1.900   5.389   8.557 -3.1432 -2.3122  0.8950
  978MOL0     H34903   1.768   5.531   8.733  0.1434 -0.2439 -2.2281
  978MOL0     H34904   1.896   5.504   8.839  1.7490  1.0408 -0.3908
  978MOL0     H34905   2.058   5.625   8.702  0.5833  0.7412 -0.3149
  978MOL0     H34906   1.931   5.707   8.776  0.3759 -0.7523  0.3004
  978MOL0     H34907   1.907   5.623   8.483 -2.0533  0.6200 -0.5919
  978MOL0     H34908   1.798   5.715   8.582 -0.0346 -0.3466  0.1590
  978MOL0     H34909   2.084   5.790   8.501 -0.3778 -0.3693 -0.2127
  978MOL0     H34910   1.977   5.887   8.612  0.2729 -0.8295  1.2562
  978MOL0     H34911   1.921   5.815   8.318  2.0813 -0.4312  0.2471
  978MOL0     H34912   1.807   5.878   8.430  0.7273 -2.0965  0.4988
  978MOL0     H34913   2.152   5.958   8.271  1.1373  2.2085 -0.2184
  978MOL0     H34914   2.142   6.301   8.146 -1.3778 -0.3055  0.6962
  978MOL0     H34915   2.268   6.177   8.188  1.1026  0.1580  1.5636
  978MOL0     H34916   2.346   6.367   8.225  0.6856 -0.1911  0.0652
  978MOL0     H34917   2.236   6.431   8.350  4.4028  0.8641  2.9732
  978MOL0     H34918   2.313   6.271   8.511  0.8335  0.6270 -0.1568
  978MOL0     H34919   2.375   6.163   8.384 -3.2544 -0.6269  0.1043
  978MOL0     H34920   2.472   6.441   8.425  0.6095  0.4219  0.8394
  978MOL0     H34921   2.535   6.307   8.529  0.9480 -0.3629  0.2357
  978MOL0     H34922   2.750   6.283   8.149  1.4090 -1.7821  1.2883
  978MOL0     H34923   3.060   6.466   8.059 -1.6961 -0.4661 -3.2981
  978MOL0     H34924   2.957   6.326   8.023  0.9863 -1.2519 -0.2280
  978MOL0     H34925   3.106   6.312   8.130 -0.3313 -1.9548 -1.8006
  978MOL0     H34926   3.147   6.865   8.504  0.8930  1.9702 -0.3040
  978MOL0     H34927   3.334   6.990   8.569  0.0368 -1.0500 -0.7142
  978MOL0     H34928   3.589   7.073   8.552 -0.9407  0.7005  0.3861
  978MOL0     H34929   3.517   7.049   8.711 -0.0439  1.5525 -0.4105
  978MOL0     H34930   3.744   6.960   8.790 -0.3818 -1.0545 -0.7637
  978MOL0     H34931   3.815   6.985   8.640  1.3398 -1.0164  2.2410
  978MOL0     H34932   3.780   7.220   8.628  0.9299 -1.0463 -1.7534
  978MOL0     H34933   3.876   7.173   8.766  0.3559  1.7402 -1.1151
  978MOL0     H34934   3.673   7.187   8.909 -0.9969 -2.0931 -1.4198
  978MOL0     H34935   3.613   7.300   8.775  0.6077  1.5434 -0.4721
  978MOL0     H34936   3.879   7.342   8.923  0.9657 -0.7170 -3.0882
  978MOL0     H34937   3.819   7.443   8.807  2.2213  1.1577  1.8005
  978MOL0     H34938   3.650   7.405   9.061  1.3564 -1.5189  0.1505
  978MOL0     H34939   3.635   7.522   8.935 -0.5418 -1.1669  1.0501
  978MOL0     H34940   3.733   7.631   9.121  1.0725  1.3720 -1.1602
  978MOL0     H34941   3.851   7.632   8.995 -2.7517  1.9642 -0.4720
  978MOL0     H34942   3.957   7.435   9.141  0.4854  0.0734  0.2180
  978MOL0     H34943   3.815   7.449   9.253 -1.3460 -1.5509 -2.4982
  978MOL0     H34944   3.560   6.621   8.572  0.0456  0.3707  1.1961
  978MOL0     H34945   3.361   6.499   8.490  1.6989 -1.2341  1.8364
  978MOL0     H34946   2.895   6.574   8.518 -0.9578  1.5396 -0.9419
  978MOL0     H34947   2.685   6.478   8.509  1.8675  0.3071  1.8446
  978MOL0     H34948   1.572   4.870   8.698  1.9391 -2.1129 -3.3441
  978MOL0     H34949   1.376   4.792   8.606  0.6360  0.2798  1.8238
  978MOL0     H34950   1.032   4.733   8.466  1.3515  3.9553  1.1287
  978MOL0     H34951   0.780   4.662   8.460 -1.8345  1.0082 -1.1220
  978MOL0     H34952   0.587   4.600   8.067 -0.5586 -0.9555  0.4768
  978MOL0     H34953   0.745   4.579   8.149 -0.3006  0.3500 -2.4363
  978MOL0     H34954   0.521   4.523   8.321 -0.8370 -2.0065 -1.0616
  978MOL0     H34955   0.679   4.452   8.301  1.9340  2.9210  0.5016
  978MOL0     H34956   0.449   4.419   8.094  0.9676  0.4205 -0.7703
  978MOL0     H34957   0.614   4.346   8.092 -0.7521 -2.3973  0.8757
  978MOL0     H34958   0.400   4.295   8.294  0.9212  0.7558  0.8750
  978MOL0     H34959   0.560   4.225   8.308 -2.0420 -2.2264  1.3211
  978MOL0     H34960   0.412   3.972   8.008 -1.2944  0.8880 -1.7593
  978MOL0     H34961   0.724   4.900   8.117 -0.4744  1.6135  1.2751
  978MOL0     H34962   0.995   5.134   8.225 -1.0776 -0.2215  1.9687
  978MOL0     H34963   0.983   5.026   8.072  0.4389 -2.0140  0.6251
  978MOL0     H34964   0.845   5.114   8.127 -0.1980  2.6288  3.0938
  979MOL0     O34965   6.241   7.510   4.260  0.7374 -0.1995  0.0986
  979MOL0     C34966   6.246   7.568   4.369 -0.2390 -0.6757 -0.1655
  979MOL0     O34967   6.330   7.668   4.395 -0.2550  0.1623 -0.0566
  979MOL0     C34968   6.412   7.715   4.293  0.8879  0.7835  0.5215
  979MOL0     C34969   6.404   7.854   4.268  0.6936 -0.1520  0.6284
  979MOL0     C34970   6.498   7.908   4.183 -0.0909  0.2463 -0.9234
  979MOL0     C34971   6.593   7.827   4.123 -0.0128  0.5637  1.1972
  979MOL0     O34972   6.689   7.865   4.035  0.3056 -0.4392  0.3106
  979MOL0     C34973   6.677   7.998   3.981  0.1716  0.3243  0.5743
  979MOL0     C34974   6.775   8.013   3.867 -0.1668  0.1765  0.6182
  979MOL0     C34975   6.779   8.159   3.809 -0.2643  0.4433 -0.1506
  979MOL0     C34976   6.903   8.212   3.729 -0.6148 -0.0625  0.1278
  979MOL0     C34977   6.890   8.366   3.686 -0.3919  0.6985  0.0154
  979MOL0     C34978   6.966   8.454   3.784  0.4064  0.6447 -0.3283
  979MOL0     C34979   6.918   8.593   3.774 -0.3472 -0.3680  0.2466
  979MOL0     C34980   6.800   8.616   3.863 -0.6484 -0.0890  0.1646
  979MOL0     N34981   6.821   8.595   4.006 -0.1133  0.0547 -0.5467
  979MOL0     C34982   6.904   8.668   4.097  0.1448 -1.0106  0.0984
  979MOL0     C34983   6.884   8.596   4.217  0.2053  0.4432 -0.1939
  979MOL0     C34984   6.929   8.639   4.351 -0.2809  0.0256  0.0390
  979MOL0     C34985   6.933   8.521   4.446  0.1736 -0.5552  0.6697
  979MOL0     C34986   7.004   8.559   4.576 -0.0303  0.0699  0.3389
  979MOL0     C34987   7.143   8.622   4.550 -0.3029 -0.5812 -0.1814
  979MOL0     O34988   7.229   8.596   4.660  0.3752 -0.3606  0.8063
  979MOL0     C34989   7.279   8.474   4.686 -0.7558 -0.4732  0.0096
  979MOL0     C34990   7.327   8.457   4.817  0.3773 -0.1369  0.0906
  979MOL0     C34991   7.382   8.335   4.865  0.8619 -0.9782 -0.3267
  979MOL0     C34992   7.422   8.332   5.017  0.0917  0.2021  0.4845
  979MOL0     C34993   7.397   8.228   4.773  0.2438  0.1381 -0.2311
  979MOL0     C34994   7.470   8.103   4.804 -0.4096  0.3551  0.7989
  979MOL0     O34995   7.580   8.115   4.879  0.2186 -0.0536 -0.4861
  979MOL0     C34996   7.656   8.013   4.913 -0.0887  0.0288 -0.4591
  979MOL0     C34997   7.768   7.976   4.840  0.0202  0.7108 -0.3594
  979MOL0     C34998   7.854   7.878   4.894  0.6581 -0.6102 -0.5802
  979MOL0     C34999   7.825   7.816   5.017  0.6373 -0.7004  0.2221
  979MOL0     O35000   7.910   7.724   5.080  0.3996  0.7074  0.4769
  979MOL0     C35001   8.037   7.695   5.019 -0.8458  0.3273 -0.3122
  979MOL0     C35002   8.089   7.568   5.096  0.2470 -0.5810  0.7957
  979MOL0     C35003   8.215   7.489   5.050  0.5354 -0.2546 -0.4222
  979MOL0     C35004   8.228   7.480   4.895 -0.7022 -1.0192  0.5464
  979MOL0     C35005   8.344   7.403   4.840  0.0087 -0.1791  0.3297
  979MOL0     C35006   8.474   7.466   4.883  0.4356  0.5323  0.1229
  979MOL0     C35007   8.602   7.397   4.835  0.7096  0.0630 -0.0325
  979MOL0     C35008   8.625   7.278   4.915 -0.3197 -0.5487 -0.7574
  979MOL0    Cl35009   8.788   7.225   4.878 -0.3840 -0.0032 -0.3871
  979MOL0     C35010   7.710   7.849   5.083  0.4441  0.6127 -1.7721
  979MOL0     C35011   7.626   7.940   5.025  0.2924 -0.5272 -0.2531
  979MOL0     O35012   7.432   7.998   4.757  0.4085 -0.2380 -0.3861
  979MOL0     C35013   7.345   8.246   4.644 -0.1350  0.1287 -0.5871
  979MOL0     C35014   7.286   8.365   4.604  0.7837 -0.6090 -0.2258
  979MOL0     N35015   6.801   8.489   4.194 -0.6282 -0.6645 -0.8897
  979MOL0     N35016   6.768   8.485   4.068 -0.4257 -1.3493 -0.4652
  979MOL0     C35017   6.599   7.691   4.146 -0.2768 -0.1544  0.4795
  979MOL0     C35018   6.502   7.637   4.224 -0.4727  1.2003  0.6658
  979MOL0     C35019   6.128   7.534   4.463 -0.0584 -0.7138 -0.4160
  979MOL0     C35020   6.028   7.446   4.417  0.2251 -0.3872 -0.3573
  979MOL0     C35021   5.917   7.415   4.491  0.9624 -0.9915 -0.0679
  979MOL0     C35022   5.897   7.481   4.617 -0.8101 -0.8517 -0.3164
  979MOL0     O35023   5.785   7.470   4.695  0.9624  0.8049  0.3746
  979MOL0     C35024   5.678   7.372   4.660  0.2534  0.1198  0.1456
  979MOL0     C35025   5.550   7.433   4.601  0.4202  0.6537 -0.2035
  979MOL0     C35026   5.433   7.320   4.597 -1.4474  0.5335  0.8369
  979MOL0     C35027   5.292   7.379   4.575 -0.4729 -0.1144 -0.1835
  979MOL0     C35028   5.264   7.395   4.434  0.1140 -0.4652 -0.3123
  979MOL0     C35029   5.227   7.414   4.318  0.0856 -0.0792  0.4710
  979MOL0     C35030   5.995   7.565   4.668  0.9372  0.1024 -0.1311
  979MOL0     C35031   6.105   7.596   4.594  0.2181 -0.2607  0.4312
  979MOL0     C35032   6.179   7.716   4.651  0.7534  0.2427 -0.8226
  979MOL0     H35033   6.321   7.906   4.314 -0.9161 -1.8687 -0.1817
  979MOL0     H35034   6.500   8.015   4.163 -0.4862  0.1743 -1.3335
  979MOL0     H35035   6.713   8.064   4.061  1.6476 -2.2365  2.1775
  979MOL0     H35036   6.575   8.020   3.950 -0.4774 -0.2429  2.1707
  979MOL0     H35037   6.875   7.981   3.896 -1.2714 -1.5410  2.7372
  979MOL0     H35038   6.734   7.947   3.789 -2.4057  0.8075  1.1776
  979MOL0     H35039   6.696   8.170   3.739  1.7306  1.4200 -2.5541
  979MOL0     H35040   6.761   8.227   3.893  1.1901 -0.3515  0.8559
  979MOL0     H35041   6.996   8.207   3.787 -1.1235  0.7909  1.0392
  979MOL0     H35042   6.909   8.152   3.637  1.3610  0.8048 -0.3769
  979MOL0     H35043   6.784   8.394   3.684 -0.4068  0.6578 -1.7088
  979MOL0     H35044   6.931   8.376   3.585  0.3030 -0.3328  0.1830
  979MOL0     H35045   6.946   8.416   3.884  0.8989  1.9450  0.2744
  979MOL0     H35046   7.069   8.438   3.752  0.2229  0.3337 -0.7818
  979MOL0     H35047   6.884   8.619   3.673  1.8217  2.2949  0.0848
  979MOL0     H35048   6.990   8.671   3.799 -1.8819  1.0082  0.5167
  979MOL0     H35049   6.757   8.714   3.839  0.1555 -0.3056 -2.3648
  979MOL0     H35050   6.727   8.547   3.821  0.9861 -2.5653  1.1292
  979MOL0     H35051   6.966   8.756   4.082  1.4667 -1.9224  0.1237
  979MOL0     H35052   6.863   8.715   4.393 -2.1263 -2.2892  1.5736
  979MOL0     H35053   7.028   8.684   4.340 -0.2324  0.0922  0.7219
  979MOL0     H35054   6.833   8.483   4.468 -0.7959  0.2599 -1.9422
  979MOL0     H35055   6.976   8.440   4.386  2.0278  1.4932 -0.9127
  979MOL0     H35056   6.939   8.617   4.642 -1.3215  0.4123 -1.1692
  979MOL0     H35057   7.030   8.461   4.619  0.1943 -0.9756 -2.0078
  979MOL0     H35058   7.185   8.576   4.460  3.0442 -0.2875  1.0825
  979MOL0     H35059   7.131   8.730   4.538 -0.7467 -0.5953  0.1216
  979MOL0     H35060   7.320   8.547   4.878  1.4417  0.4923 -0.6844
  979MOL0     H35061   7.369   8.403   5.082 -1.9262 -3.0015  2.6242
  979MOL0     H35062   7.530   8.340   5.026  0.0981 -0.8374  1.5234
  979MOL0     H35063   7.393   8.231   5.045  2.2953 -0.2112  1.4285
  979MOL0     H35064   7.786   8.017   4.741  0.7077  0.1872 -0.4559
  979MOL0     H35065   7.945   7.864   4.836  0.3103  1.5360 -1.7696
  979MOL0     H35066   8.019   7.667   4.915 -3.4855 -0.0839  0.2006
  979MOL0     H35067   8.113   7.774   5.029  0.1746 -0.7667  1.0236
  979MOL0     H35068   8.089   7.589   5.203 -0.9940 -2.4241  1.1945
  979MOL0     H35069   8.003   7.504   5.076 -1.2203  1.8050 -1.0301
  979MOL0     H35070   8.200   7.388   5.088  0.9610 -1.0372 -2.2087
  979MOL0     H35071   8.306   7.528   5.096  0.6302 -2.3783  1.3344
  979MOL0     H35072   8.242   7.584   4.867 -1.4236 -1.1210 -0.2079
  979MOL0     H35073   8.132   7.453   4.851 -0.4095  2.5036 -2.7671
  979MOL0     H35074   8.346   7.302   4.882 -0.0701 -0.2724  0.1067
  979MOL0     H35075   8.343   7.405   4.731 -2.4934  0.1574  0.2986
  979MOL0     H35076   8.474   7.481   4.991 -3.3315 -2.1210  0.6986
  979MOL0     H35077   8.478   7.571   4.851 -0.3191  0.8883  1.1167
  979MOL0     H35078   8.690   7.460   4.851  0.5330  0.3882 -0.3296
  979MOL0     H35079   8.594   7.372   4.729  3.5458  2.9617 -1.1052
  979MOL0     H35080   8.554   7.201   4.886  0.6711 -1.2165 -1.4956
  979MOL0     H35081   8.612   7.297   5.022  1.3596  2.4946 -0.9539
  979MOL0     H35082   7.683   7.799   5.175 -2.0262  1.1842 -2.1265
  979MOL0     H35083   7.532   7.961   5.075  0.9246 -1.6500  1.4805
  979MOL0     H35084   7.357   8.160   4.578 -2.2822 -0.9685  0.3532
  979MOL0     H35085   7.244   8.366   4.504 -0.9755  1.1603  0.4615
  979MOL0     H35086   6.675   7.637   4.090  2.6806  0.6379  3.3942
  979MOL0     H35087   6.508   7.530   4.243 -0.8947  1.4282  2.3005
  979MOL0     H35088   6.032   7.406   4.317 -2.3237 -0.3298 -0.5520
  979MOL0     H35089   5.840   7.351   4.450 -1.0731  2.7199 -2.7261
  979MOL0     H35090   5.712   7.294   4.592 -3.5944 -0.8327 -0.9621
  979MOL0     H35091   5.650   7.323   4.754  0.5375 -1.8418 -0.7434
  979MOL0     H35092   5.570   7.474   4.502 -2.5272  1.8761 -0.3932
  979MOL0     H35093   5.511   7.521   4.653 -3.7256  0.2395 -2.1919
  979MOL0     H35094   5.453   7.245   4.521 -1.6854 -1.5424  2.7164
  979MOL0     H35095   5.434   7.275   4.697 -0.8162 -0.9584  0.1779
  979MOL0     H35096   5.295   7.475   4.627 -0.1789 -0.3699  0.2810
  979MOL0     H35097   5.208   7.319   4.609  0.0147  0.0587  1.3925
  979MOL0     H35098   5.180   7.432   4.223 -2.3158 -6.1765  0.0489
  979MOL0     H35099   5.977   7.612   4.764 -3.2739  1.1620 -1.2182
  979MOL0     H35100   6.275   7.675   4.683  2.1076  2.3265 -2.0306
  979MOL0     H35101   6.214   7.794   4.584  0.3123  1.0136 -0.1739
  979MOL0     H35102   6.119   7.763   4.730  1.8030  1.6906 -0.8486
  980MOL0     O35103   3.132   9.503   9.732 -0.3247  0.3247  0.1233
  980MOL0     C35104   3.064   9.465   9.826  0.5873  0.0398  0.9577
  980MOL0     O35105   3.088   9.341   9.887 -0.0697 -0.0233 -0.1524
  980MOL0     C35106   3.188   9.265   9.845  0.3399 -0.4660 -0.3556
  980MOL0     C35107   3.319   9.325   9.820  0.6792  0.5507  0.4854
  980MOL0     C35108   3.430   9.249   9.784 -0.1395  0.6281  0.3188
  980MOL0     C35109   3.417   9.113   9.760 -0.1010  0.8428 -0.4626
  980MOL0     O35110   3.529   9.040   9.713  0.3782 -0.1138  0.3510
  980MOL0     C35111   3.539   8.902   9.761 -0.6483  0.2610  0.1001
  980MOL0     C35112   3.679   8.849   9.762 -0.5982  0.7448  0.3790
  980MOL0     C35113   3.698   8.718   9.845 -0.0415  0.1393  0.1695
  980MOL0     C35114   3.847   8.704   9.871  0.3843 -0.1920 -0.2692
  980MOL0     C35115   3.864   8.583   9.964  0.3606 -0.1084  0.1928
  980MOL0     C35116   4.011   8.540   9.952 -1.0211 -0.0656 -0.4276
  980MOL0     C35117   4.119   8.643   9.990  0.0348  0.0831  0.4374
  980MOL0     C35118   4.254   8.566  10.022  0.2863  0.2536  0.5242
  980MOL0     N35119   4.372   8.652  10.037  0.1279 -0.1565  0.2888
  980MOL0     C35120   4.406   8.765   9.981  0.2808 -0.3658  0.6079
  980MOL0     C35121   4.521   8.800  10.039 -0.6032 -0.1059  0.4785
  980MOL0     C35122   4.605   8.927  10.015  0.1457  0.3361 -0.7737
  980MOL0     C35123   4.506   9.042  10.031 -0.3005  0.7691 -0.7887
  980MOL0     C35124   4.571   9.177  10.016  0.5505 -0.3844 -1.1601
  980MOL0     C35125   4.581   9.242   9.879  0.0985 -0.7694 -0.7576
  980MOL0     O35126   4.649   9.151   9.790 -0.7612 -0.4204 -0.0168
  980MOL0     C35127   4.791   9.165   9.783  0.4275  0.5827  0.0373
  980MOL0     C35128   4.869   9.227   9.885  0.2471 -0.1065  0.4429
  980MOL0     C35129   5.007   9.203   9.906  0.3301  0.1737  0.0141
  980MOL0     C35130   5.070   9.255  10.029 -0.2199 -0.6379 -0.8441
  980MOL0     C35131   5.073   9.123   9.811  0.1460  0.0323 -0.4996
  980MOL0     C35132   5.215   9.080   9.822 -0.0108 -0.3510 -0.5006
  980MOL0     O35133   5.302   9.160   9.892  1.0107 -0.5236  0.5835
  980MOL0     C35134   5.436   9.138   9.911  0.3170  0.1727 -0.1986
  980MOL0     C35135   5.521   9.058   9.832 -0.3553  0.5765 -0.5870
  980MOL0     C35136   5.653   9.040   9.867 -0.1060  0.3700 -0.5263
  980MOL0     C35137   5.701   9.115   9.983 -0.8725  0.3183  0.5973
  980MOL0     O35138   5.837   9.123  10.015  1.0079 -0.4221 -0.3763
  980MOL0     C35139   5.933   9.053   9.943 -0.7951 -0.0947 -0.0208
  980MOL0     C35140   6.061   9.032  10.025 -0.2617 -0.2588 -1.4729
  980MOL0     C35141   6.141   9.159  10.036  0.4675  0.1645 -0.2942
  980MOL0     C35142   6.280   9.126  10.106  0.0214 -1.1717 -0.3442
  980MOL0     C35143   6.348   9.255  10.131  0.3118 -0.7806 -0.7007
  980MOL0     C35144   6.494   9.225  10.152  0.1590 -0.2418  0.0604
  980MOL0     C35145   6.580   9.354  10.165  0.2893 -0.3366 -0.9713
  980MOL0     C35146   6.590   9.416  10.311 -0.4100 -0.1738 -0.3313
  980MOL0    Cl35147   6.739   9.353  10.388  0.7074 -0.4774 -0.3712
  980MOL0     C35148   5.611   9.188  10.064  0.8188 -0.4166  0.2801
  980MOL0     C35149   5.480   9.203  10.021 -0.1304  0.1681 -0.8497
  980MOL0     O35150   5.241   8.965   9.780 -0.2953  0.1916  0.3296
  980MOL0     C35151   4.996   9.075   9.705 -0.3060  0.8782  0.3825
  980MOL0     C35152   4.863   9.091   9.687 -0.2680 -0.2809 -0.1584
  980MOL0     N35153   4.565   8.694  10.121  0.2415  0.8975 -0.3458
  980MOL0     N35154   4.462   8.610  10.128  0.2357 -1.3136  0.3701
  980MOL0     C35155   3.288   9.054   9.776  0.1934  0.2563  0.4486
  980MOL0     C35156   3.178   9.126   9.823  0.0506 -0.6531 -0.7016
  980MOL0     C35157   2.961   9.543   9.887  0.0898  0.1936  0.2628
  980MOL0     C35158   2.847   9.474   9.928  0.3761 -0.6215  0.0372
  980MOL0     C35159   2.738   9.554   9.966 -0.9762 -0.1612 -0.1561
  980MOL0     C35160   2.744   9.694   9.980 -0.4876  0.4846 -0.2476
  980MOL0     O35161   2.640   9.773  10.019  0.1692  0.1129  0.3657
  980MOL0     C35162   2.538   9.714  10.102  0.9894  0.0886  0.9122
  980MOL0     C35163   2.471   9.819  10.187 -0.1905 -0.5604  0.7231
  980MOL0     C35164   2.370   9.913  10.107  0.3726 -0.1864  0.3737
  980MOL0     C35165   2.246   9.840  10.046  0.0169 -0.5806  0.0467
  980MOL0     C35166   2.164   9.930   9.969 -0.2304  0.1121 -0.2961
  980MOL0     C35167   2.089   9.988   9.891 -0.5247  0.5376 -0.5074
  980MOL0     C35168   2.858   9.752   9.943 -0.0240 -1.0187  0.1805
  980MOL0     C35169   2.967   9.688   9.886 -0.4605 -0.1452 -0.7628
  980MOL0     C35170   3.089   9.771   9.853  0.1904 -0.5244 -0.4992
  980MOL0     H35171   3.342   9.428   9.845 -1.4754  0.7716  1.8291
  980MOL0     H35172   3.530   9.286   9.762  0.4489 -1.1225 -0.0988
  980MOL0     H35173   3.464   8.839   9.714 -1.8174  2.1406 -0.6993
  980MOL0     H35174   3.501   8.894   9.863 -0.1659  0.2854  0.2870
  980MOL0     H35175   3.708   8.831   9.658  0.9378 -0.2578  0.9595
  980MOL0     H35176   3.744   8.929   9.798  2.0519 -1.0771 -0.0912
  980MOL0     H35177   3.638   8.733   9.936 -1.2984  1.2059 -0.7849
  980MOL0     H35178   3.649   8.636   9.791 -2.2942  0.3623  1.7539
  980MOL0     H35179   3.900   8.681   9.778 -1.0574 -1.8337 -0.7489
  980MOL0     H35180   3.895   8.791   9.917  1.3209 -0.6497 -0.3640
  980MOL0     H35181   3.806   8.500   9.922  0.3285  0.4742 -0.9566
  980MOL0     H35182   3.833   8.618  10.063  3.5725  0.2370  1.1683
  980MOL0     H35183   4.014   8.455  10.020 -2.8817 -0.0708 -0.3227
  980MOL0     H35184   4.032   8.506   9.850 -0.3802  1.1650 -0.7286
  980MOL0     H35185   4.091   8.707  10.075  0.2772  2.0263 -0.8917
  980MOL0     H35186   4.138   8.704   9.902  2.3054 -0.8666  0.2017
  980MOL0     H35187   4.239   8.508  10.113  0.0671 -2.6895 -1.2784
  980MOL0     H35188   4.274   8.499   9.939 -1.7844  2.6855 -2.1555
  980MOL0     H35189   4.351   8.822   9.907  0.3058 -0.9065  0.1640
  980MOL0     H35190   4.646   8.937   9.914 -0.5757  2.4087 -0.9218
  980MOL0     H35191   4.689   8.931  10.085  1.0493 -1.0279 -1.7424
  980MOL0     H35192   4.424   9.033   9.959 -0.7249  1.0264 -0.3435
  980MOL0     H35193   4.468   9.029  10.132  1.6651  0.3253 -0.0545
  980MOL0     H35194   4.511   9.246  10.076  2.6207  2.3625 -2.0488
  980MOL0     H35195   4.668   9.180  10.067  1.0127 -0.8235 -1.9800
  980MOL0     H35196   4.483   9.262   9.835  1.0696 -0.0256 -2.6734
  980MOL0     H35197   4.627   9.341   9.885 -0.2794 -0.6610  1.4794
  980MOL0     H35198   4.827   9.279   9.970  1.2321  1.9606 -0.2583
  980MOL0     H35199   5.107   9.173  10.092 -0.8324  0.0455  0.4482
  980MOL0     H35200   5.001   9.321  10.082  0.8604 -0.2045  0.0763
  980MOL0     H35201   5.153   9.319   9.997 -1.0059  0.7026 -0.3002
  980MOL0     H35202   5.502   8.996   9.745  5.4070 -1.3709 -0.8915
  980MOL0     H35203   5.720   8.969   9.819 -0.4827 -0.9325  0.8158
  980MOL0     H35204   5.909   8.956   9.900 -0.2512 -0.2271 -0.0336
  980MOL0     H35205   5.963   9.120   9.862 -3.0801  0.8050 -0.1912
  980MOL0     H35206   6.029   9.009  10.127  0.0648  3.9784 -0.2377
  980MOL0     H35207   6.122   8.952   9.982 -0.8813 -0.0398 -2.7970
  980MOL0     H35208   6.091   9.240  10.091  0.7310 -1.6697  2.8708
  980MOL0     H35209   6.152   9.197   9.934  0.8373 -2.1515 -1.1618
  980MOL0     H35210   6.332   9.054  10.042  0.3148 -0.9083 -0.4051
  980MOL0     H35211   6.264   9.073  10.200  0.2213 -0.7215 -0.0483
  980MOL0     H35212   6.346   9.327  10.049  1.6959 -0.1160 -0.1669
  980MOL0     H35213   6.308   9.308  10.218  2.9002 -0.4514  0.3588
  980MOL0     H35214   6.521   9.168  10.063 -2.4300 -1.5538  0.0289
  980MOL0     H35215   6.498   9.167  10.245 -1.3238 -0.3747  0.0618
  980MOL0     H35216   6.538   9.429  10.098 -1.5314 -0.2719  0.1799
  980MOL0     H35217   6.683   9.326  10.140  0.8569  2.4954 -2.1991
  980MOL0     H35218   6.501   9.387  10.368 -0.2052 -2.6386 -1.1238
  980MOL0     H35219   6.595   9.525  10.305 -0.7144 -0.1699 -0.5428
  980MOL0     H35220   5.655   9.244  10.145  1.9468 -0.2631 -0.4216
  980MOL0     H35221   5.407   9.259  10.079 -2.7557 -2.4768 -1.3409
  980MOL0     H35222   5.041   9.004   9.636 -1.4312 -0.9739  1.4721
  980MOL0     H35223   4.822   9.046   9.597  1.2165 -0.9060 -0.5577
  980MOL0     H35224   3.265   8.951   9.750  1.2536 -0.3544  1.7987
  980MOL0     H35225   3.084   9.074   9.834  2.6259 -6.0524 -1.0771
  980MOL0     H35226   2.829   9.368   9.914 -2.5628 -0.2221  0.0401
  980MOL0     H35227   2.650   9.496   9.990  0.0874 -1.0887  1.7893
  980MOL0     H35228   2.471   9.653  10.041  0.2918 -0.0091  1.7698
  980MOL0     H35229   2.584   9.647  10.174 -2.3723 -1.6725  1.6425
  980MOL0     H35230   2.553   9.882  10.221  0.4137 -0.1701 -1.3096
  980MOL0     H35231   2.419   9.769  10.269  1.2361 -3.8333 -0.1842
  980MOL0     H35232   2.346   9.991  10.179 -2.2186 -2.4730  2.1921
  980MOL0     H35233   2.423   9.969  10.030  1.2624  2.3386  2.6542
  980MOL0     H35234   2.189   9.801  10.131  1.2495  0.3157  1.3281
  980MOL0     H35235   2.289   9.762   9.982 -0.2152 -0.4953 -0.2171
  980MOL0     H35236   2.032  10.050   9.825 -0.4515  1.1990  0.0411
  980MOL0     H35237   2.855   9.859   9.962  1.9684 -0.7288 -0.8960
  980MOL0     H35238   3.162   9.765   9.935 -1.8507 -1.6511  1.3599
  980MOL0     H35239   3.132   9.735   9.759  0.0609  1.0520 -1.1847
  980MOL0     H35240   3.058   9.874   9.834 -0.7109 -1.0949 -2.3310
  981MOL0     O35241   7.374   9.202   9.891 -0.2995  0.0396  0.0500
  981MOL0     C35242   7.337   9.179   9.774 -0.9693 -0.6689 -0.1219
  981MOL0     O35243   7.371   9.062   9.711  0.3976  0.0526  0.5221
  981MOL0     C35244   7.464   8.976   9.760 -0.0953 -0.2122 -0.7405
  981MOL0     C35245   7.420   8.865   9.827 -0.2922 -0.1503 -0.1625
  981MOL0     C35246   7.502   8.778   9.891  0.1844 -0.7593  0.0358
  981MOL0     C35247   7.639   8.794   9.887  0.0688  0.0577 -0.1026
  981MOL0     O35248   7.725   8.712   9.956  0.1333  0.1256  0.0929
  981MOL0     C35249   7.861   8.706   9.913  0.5859  0.3324 -0.1906
  981MOL0     C35250   7.935   8.595   9.985  0.3079 -0.5497  1.0886
  981MOL0     C35251   7.969   8.631  10.131  0.6989  0.3046  0.0242
  981MOL0     C35252   7.982   8.519  10.236  0.3635  0.4848  0.2801
  981MOL0     C35253   7.873   8.478  10.336  0.6915 -0.6048  0.0262
  981MOL0     C35254   7.854   8.587  10.434  0.3442  0.0726 -0.1588
  981MOL0     C35255   7.736   8.541  10.519  0.7861 -0.5341 -0.5330
  981MOL0     C35256   7.793   8.446  10.629 -0.2921 -0.1257 -1.1411
  981MOL0     N35257   7.702   8.437  10.748 -0.5736 -0.0698  0.1155
  981MOL0     C35258   7.714   8.477  10.880  0.3014  0.0329 -1.0512
  981MOL0     C35259   7.602   8.422  10.944 -0.3537 -0.6753  0.1263
  981MOL0     C35260   7.577   8.422  11.093  0.2369 -0.3256  0.8874
  981MOL0     C35261   7.680   8.308  11.116  0.2045  0.1776 -0.6711
  981MOL0     C35262   7.665   8.256  11.256  0.0150 -0.1381  0.0655
  981MOL0     C35263   7.791   8.197  11.315  0.1900 -0.5407 -0.4493
  981MOL0     O35264   7.851   8.114  11.223  0.2254 -0.4792  0.0531
  981MOL0     C35265   7.979   8.065  11.243 -0.5313  1.3170  1.0701
  981MOL0     C35266   8.045   8.006  11.133 -0.1383  0.0925  0.4811
  981MOL0     C35267   8.173   7.954  11.136 -0.6284 -0.5832  0.6997
  981MOL0     C35268   8.250   7.898  11.017 -0.0337 -0.1244 -0.8918
  981MOL0     C35269   8.243   7.954  11.254  0.6758 -0.9401 -0.1886
  981MOL0     C35270   8.375   7.892  11.282 -0.5822 -0.8195  0.1316
  981MOL0     O35271   8.445   7.965  11.375 -0.5833  0.0593 -0.0235
  981MOL0     C35272   8.575   7.933  11.396 -0.2721  0.1198 -0.5226
  981MOL0     C35273   8.669   7.913  11.293 -0.5895  0.2930 -0.4845
  981MOL0     C35274   8.800   7.888  11.334 -0.2522 -0.1675  0.4012
  981MOL0     C35275   8.844   7.879  11.463 -0.3813  0.0456 -0.1253
  981MOL0     O35276   8.966   7.852  11.503  0.9263  0.0306  0.4429
  981MOL0     C35277   9.071   7.851  11.412 -0.0925 -0.6463  0.6923
  981MOL0     C35278   9.196   7.846  11.496 -0.4739 -0.2619  0.3468
  981MOL0     C35279   9.327   7.829  11.416 -0.0849 -0.4864  0.0155
  981MOL0     C35280   9.352   7.946  11.315  0.3114  0.1999 -0.9106
  981MOL0     C35281   9.498   7.931  11.269  0.1090  0.0947 -0.3254
  981MOL0     C35282   9.524   8.000  11.132 -0.3160 -0.2618 -0.3777
  981MOL0     C35283   9.673   8.002  11.118 -0.5494 -0.6431  0.2535
  981MOL0     C35284   9.717   8.148  11.066  0.4739 -0.6224  0.1313
  981MOL0    Cl35285   9.672   8.280  11.180  0.0951 -0.0839  0.0307
  981MOL0     C35286   8.752   7.895  11.559 -0.7588 -0.7385 -0.0283
  981MOL0     C35287   8.624   7.932  11.532  0.2022  0.4611 -0.1467
  981MOL0     O35288   8.407   7.780  11.235  0.2411  0.7524 -0.6900
  981MOL0     C35289   8.171   8.014  11.370 -0.3082 -0.4733 -0.2064
  981MOL0     C35290   8.048   8.071  11.362 -0.6334  0.4436 -1.1044
  981MOL0     N35291   7.542   8.341  10.852 -0.7575  0.7814  0.5530
  981MOL0     N35292   7.591   8.360  10.739  0.3164  0.1052 -0.2533
  981MOL0     C35293   7.686   8.907   9.808  0.4343  0.3327 -0.0293
  981MOL0     C35294   7.602   8.999   9.738 -1.3892 -0.0630  0.2631
  981MOL0     C35295   7.240   9.265   9.721  0.3801 -0.7069  0.0810
  981MOL0     C35296   7.251   9.403   9.756  0.3887  0.2558  1.3348
  981MOL0     C35297   7.169   9.499   9.706 -0.1857 -0.1176  0.3692
  981MOL0     C35298   7.070   9.461   9.609  0.2923  0.3042  0.7666
  981MOL0     O35299   6.982   9.558   9.565  0.5790  0.3097  0.2542
  981MOL0     C35300   6.872   9.529   9.465 -0.6197 -0.2724  0.1583
  981MOL0     C35301   6.747   9.481   9.545 -0.4606  0.1333 -0.1270
  981MOL0     C35302   6.672   9.591   9.634  1.2727 -0.1793  0.3534
  981MOL0     C35303   6.536   9.540   9.706  0.1879 -0.2845 -0.0734
  981MOL0     C35304   6.437   9.488   9.611  0.7638  0.2615 -0.1044
  981MOL0     C35305   6.356   9.461   9.522  0.4577  0.0935 -0.2514
  981MOL0     C35306   7.051   9.323   9.582  0.1154 -0.2437 -0.2311
  981MOL0     C35307   7.138   9.223   9.636 -0.1954  0.7211 -0.2726
  981MOL0     C35308   7.106   9.080   9.605  0.6157  0.6001  0.2225
  981MOL0     H35309   7.314   8.841   9.826 -0.5286  0.6923  1.3657
  981MOL0     H35310   7.465   8.685   9.934 -2.8272  0.1194 -0.4221
  981MOL0     H35311   7.912   8.798   9.941 -0.4322 -0.2303  4.2007
  981MOL0     H35312   7.868   8.694   9.804  1.7610 -1.3794  0.0278
  981MOL0     H35313   7.876   8.504   9.973 -2.2974  1.2231 -0.7380
  981MOL0     H35314   8.033   8.598   9.937 -1.4274  2.7301 -2.8849
  981MOL0     H35315   8.064   8.685  10.121  1.3377 -1.0204 -1.4676
  981MOL0     H35316   7.886   8.687  10.174 -0.3955 -2.7930  2.2788
  981MOL0     H35317   8.018   8.432  10.180  0.8346  0.9239 -0.1067
  981MOL0     H35318   8.070   8.532  10.301 -1.2560  2.1363  2.3218
  981MOL0     H35319   7.911   8.391  10.390 -2.1651 -0.8993  1.7529
  981MOL0     H35320   7.785   8.458  10.273 -0.2266  1.2601  0.6606
  981MOL0     H35321   7.934   8.613  10.505 -0.3202  2.4559 -0.1886
  981MOL0     H35322   7.828   8.683  10.388 -0.9166  0.3174  1.0098
  981MOL0     H35323   7.652   8.494  10.467  0.6334 -3.1873  1.8718
  981MOL0     H35324   7.699   8.635  10.562 -1.7795 -1.9477  0.5753
  981MOL0     H35325   7.811   8.341  10.602  1.2838 -0.6266  1.5058
  981MOL0     H35326   7.885   8.486  10.673 -0.8348 -1.9794  1.9297
  981MOL0     H35327   7.791   8.545  10.916  0.3460  0.0364 -1.1497
  981MOL0     H35328   7.476   8.385  11.109 -1.6183  3.7920  0.1419
  981MOL0     H35329   7.589   8.522  11.137  0.5305 -0.9455  2.2620
  981MOL0     H35330   7.652   8.228  11.048 -4.0003  0.9338 -0.1252
  981MOL0     H35331   7.780   8.350  11.100  0.3798  1.0057  1.9940
  981MOL0     H35332   7.635   8.327  11.333 -1.4466 -1.2179  0.5458
  981MOL0     H35333   7.583   8.183  11.258 -2.4009  2.3782 -1.1342
  981MOL0     H35334   7.859   8.280  11.338  0.2627 -0.4078 -1.1037
  981MOL0     H35335   7.777   8.150  11.412 -1.4142  1.2026  0.2235
  981MOL0     H35336   7.997   7.994  11.037  1.7008 -0.1796 -0.4250
  981MOL0     H35337   8.350   7.941  11.003 -1.1510  1.8743 -3.4693
  981MOL0     H35338   8.201   7.927  10.924 -2.1848  2.1764  0.8372
  981MOL0     H35339   8.261   7.791  11.035  1.9998  0.3715  1.4819
  981MOL0     H35340   8.641   7.916  11.188  1.9539 -0.1066 -1.2475
  981MOL0     H35341   8.872   7.875  11.254 -0.7379  2.3861 -0.5617
  981MOL0     H35342   9.067   7.764  11.347 -1.3098 -0.4182  0.4304
  981MOL0     H35343   9.065   7.943  11.352 -0.8168 -1.3366 -0.3261
  981MOL0     H35344   9.187   7.933  11.562 -3.0043 -1.7396  2.0928
  981MOL0     H35345   9.174   7.759  11.558 -2.4821  1.5478  2.3475
  981MOL0     H35346   9.323   7.731  11.367 -0.2193 -1.7419  2.4027
  981MOL0     H35347   9.407   7.828  11.490  0.3696 -0.2039 -0.4668
  981MOL0     H35348   9.328   8.043  11.358  0.7456  0.2008 -0.6621
  981MOL0     H35349   9.287   7.935  11.228  2.2714  2.3428 -2.8073
  981MOL0     H35350   9.547   7.974  11.357 -0.5983  0.6411 -0.1810
  981MOL0     H35351   9.518   7.824  11.261  3.2850  0.6930 -1.6511
  981MOL0     H35352   9.473   8.097  11.132 -0.9269 -0.3998  3.5935
  981MOL0     H35353   9.477   7.957  11.043 -0.7178  1.0009 -0.8018
  981MOL0     H35354   9.705   7.928  11.045  2.8242  0.3767  0.4845
  981MOL0     H35355   9.731   7.983  11.210 -0.8066 -0.0316  0.5523
  981MOL0     H35356   9.672   8.151  10.966 -0.3916 -2.4871  0.4267
  981MOL0     H35357   9.826   8.151  11.053  0.4286  2.7474 -0.5766
  981MOL0     H35358   8.785   7.891  11.662  0.3786  0.0308 -0.3453
  981MOL0     H35359   8.561   7.950  11.619  0.5283  0.9691 -0.0075
  981MOL0     H35360   8.223   8.009  11.465 -0.3254  1.0432 -0.0823
  981MOL0     H35361   8.000   8.108  11.452 -0.9005  0.9203 -1.4441
  981MOL0     H35362   7.791   8.938   9.808  0.2812  0.9340  1.3336
  981MOL0     H35363   7.643   9.073   9.671 -3.4678 -3.1939 -5.1173
  981MOL0     H35364   7.320   9.436   9.833  1.5350 -0.0401  0.4673
  981MOL0     H35365   7.182   9.603   9.734  2.0199 -0.4855  0.8839
  981MOL0     H35366   6.839   9.611   9.400  1.7620 -1.1331 -2.2815
  981MOL0     H35367   6.900   9.450   9.395 -0.2575  0.0206 -0.0311
  981MOL0     H35368   6.788   9.408   9.616 -0.1928 -0.7514 -1.1582
  981MOL0     H35369   6.672   9.433   9.481 -0.9054 -1.2964  1.3778
  981MOL0     H35370   6.744   9.628   9.708  2.8657 -0.4880 -0.9896
  981MOL0     H35371   6.635   9.670   9.568  1.5935  0.6718  1.1734
  981MOL0     H35372   6.495   9.612   9.777  3.4061 -0.2197  1.8959
  981MOL0     H35373   6.554   9.455   9.772 -1.3412  0.8295  1.8889
  981MOL0     H35374   6.290   9.453   9.438  2.9791  0.0653 -2.3407
  981MOL0     H35375   6.977   9.287   9.511  2.7819 -1.6808 -2.4693
  981MOL0     H35376   7.116   9.011   9.690  1.2391 -3.3550 -2.7584
  981MOL0     H35377   7.000   9.069   9.579  0.6171 -0.4066  0.5941
  981MOL0     H35378   7.151   9.037   9.514 -0.9782  0.0865 -0.3535
  982MOL0     O35379   6.992   3.278  10.312  0.2450 -0.3644  0.0683
  982MOL0     C35380   7.011   3.396  10.334 -0.4958  0.4747  0.1273
  982MOL0     O35381   7.132   3.456  10.350 -0.5214 -0.2317 -0.4002
  982MOL0     C35382   7.247   3.376  10.356 -0.1067 -0.0328  0.1277
  982MOL0     C35383   7.276   3.270  10.270  0.4929 -0.7583  0.2795
  982MOL0     C35384   7.386   3.191  10.300 -0.2774 -0.2854  0.7779
  982MOL0     C35385   7.465   3.212  10.413 -0.8517  0.0208 -0.5875
  982MOL0     O35386   7.577   3.136  10.456 -0.6650  0.8692  0.1862
  982MOL0     C35387   7.578   2.995  10.426  1.3416  0.1755 -0.2960
  982MOL0     C35388   7.721   2.949  10.408  0.2407  0.0039 -0.0778
  982MOL0     C35389   7.764   2.973  10.269 -0.3063 -0.4505  0.7038
  982MOL0     C35390   7.742   2.846  10.182 -0.3341 -1.3243  0.4630
  982MOL0     C35391   7.745   2.882  10.036  0.1347 -1.0638 -0.1901
  982MOL0     C35392   7.878   2.918   9.977  0.3375  0.0324 -1.4011
  982MOL0     C35393   7.879   3.018   9.867 -0.0072 -0.2976  0.1495
  982MOL0     C35394   8.023   3.053   9.822  0.5571  0.2492  0.0996
  982MOL0     N35395   8.098   3.135   9.915 -0.4334 -0.3915 -0.3544
  982MOL0     C35396   8.049   3.234   9.995 -0.0704 -0.4083 -0.4393
  982MOL0     C35397   8.149   3.266  10.085  0.4954  0.5742 -0.2422
  982MOL0     C35398   8.120   3.340  10.211  0.2184 -0.4306  0.9932
  982MOL0     C35399   8.243   3.335  10.297 -1.1508 -0.0196 -0.2228
  982MOL0     C35400   8.363   3.417  10.236 -0.1979 -0.2322  0.0236
  982MOL0     C35401   8.455   3.465  10.356  0.4826  0.0533 -0.2501
  982MOL0     O35402   8.498   3.339  10.425  0.4039 -0.1447 -0.2552
  982MOL0     C35403   8.620   3.332  10.481  0.5309  0.2707 -0.1426
  982MOL0     C35404   8.703   3.223  10.466 -0.7585  0.3869 -0.2176
  982MOL0     C35405   8.835   3.207  10.513 -0.1477 -0.0538 -0.2939
  982MOL0     C35406   8.903   3.074  10.491  0.1730  0.6413 -0.2525
  982MOL0     C35407   8.893   3.328  10.574  0.3037 -0.4679  0.1243
  982MOL0     C35408   9.026   3.339  10.634  0.5064 -0.1495 -0.3672
  982MOL0     O35409   9.053   3.462  10.689  0.4019  0.3015  0.9425
  982MOL0     C35410   9.180   3.507  10.682 -0.8586 -0.0101  0.1443
  982MOL0     C35411   9.260   3.538  10.793  0.1202  0.3771  0.1566
  982MOL0     C35412   9.383   3.601  10.792  0.0819  0.2919  0.6027
  982MOL0     C35413   9.435   3.635  10.663  0.4539  0.3787  0.1311
  982MOL0     O35414   9.560   3.697  10.633 -0.7966 -0.0874 -0.5150
  982MOL0     C35415   9.646   3.737  10.741 -1.0940 -0.4836 -0.4625
  982MOL0     C35416   9.758   3.830  10.703  0.3279 -0.1735  0.2743
  982MOL0     C35417   9.856   3.765  10.603 -0.3566  0.5305 -0.2828
  982MOL0     C35418   9.949   3.878  10.553 -0.4608  0.3589  0.1341
  982MOL0     C35419  10.045   3.933  10.659  0.2081 -0.5390 -0.6917
  982MOL0     C35420  10.146   4.028  10.603  0.1099 -0.4631  0.3331
  982MOL0     C35421  10.252   4.076  10.703  1.2497 -0.0940  0.3892
  982MOL0     C35422  10.222   4.081  10.846 -0.1795 -0.0029  0.0647
  982MOL0    Cl35423  10.088   4.197  10.881  0.2106  0.1838 -0.2573
  982MOL0     C35424   9.363   3.588  10.553  0.0110  0.0785 -0.2692
  982MOL0     C35425   9.238   3.534  10.564 -0.0691 -0.6939 -0.0681
  982MOL0     O35426   9.092   3.242  10.651  0.1478 -0.2557 -0.0151
  982MOL0     C35427   8.805   3.442  10.595  0.7244  0.0258  0.1493
  982MOL0     C35428   8.675   3.443  10.542  0.5579  0.4922  0.1598
  982MOL0     N35429   8.256   3.186  10.044  0.2754 -0.0714 -0.4481
  982MOL0     N35430   8.226   3.105   9.950 -0.4590 -0.3216 -0.2913
  982MOL0     C35431   7.440   3.324  10.494 -0.2484 -0.2723  0.2049
  982MOL0     C35432   7.325   3.400  10.468 -0.6575  0.1206  0.4292
  982MOL0     C35433   6.881   3.476  10.342 -0.8301  0.6586 -0.6795
  982MOL0     C35434   6.773   3.448  10.252  1.6759 -0.6925  0.4784
  982MOL0     C35435   6.650   3.530  10.257 -0.8340  0.3143  0.4361
  982MOL0     C35436   6.634   3.616  10.360  0.1086 -0.4999 -0.0940
  982MOL0     O35437   6.524   3.694  10.377  0.8300  0.7903  0.6658
  982MOL0     C35438   6.395   3.642  10.328 -0.0316  0.4150 -0.2252
  982MOL0     C35439   6.294   3.766  10.331  1.1564  0.4851 -0.4344
  982MOL0     C35440   6.149   3.718  10.300  0.5884  0.0645 -0.2993
  982MOL0     C35441   6.051   3.833  10.301  0.5140  0.2056 -0.3324
  982MOL0     C35442   6.025   3.894  10.171 -0.3984  0.6444 -0.7974
  982MOL0     C35443   5.992   3.940  10.061  0.0487 -0.5682  0.4145
  982MOL0     C35444   6.739   3.644  10.455  0.5378 -0.3644  0.6041
  982MOL0     C35445   6.857   3.577  10.443 -0.8258 -0.3459  0.0720
  982MOL0     C35446   6.962   3.604  10.556 -0.5149  0.8388 -0.3770
  982MOL0     H35447   7.208   3.241  10.190  1.2042 -4.1703  0.7626
  982MOL0     H35448   7.398   3.105  10.235 -2.1138 -0.4553  0.5959
  982MOL0     H35449   7.523   2.955  10.340  0.1015 -2.3231  1.5249
  982MOL0     H35450   7.530   2.936  10.505  0.1207 -0.9914 -1.8460
  982MOL0     H35451   7.783   2.994  10.487 -1.7792  0.9807  1.0438
  982MOL0     H35452   7.719   2.840  10.418 -0.6824 -0.4095 -3.5380
  982MOL0     H35453   7.704   3.059  10.237  0.9373  0.2632  0.2007
  982MOL0     H35454   7.869   3.003  10.266 -0.6551  0.8930  1.4425
  982MOL0     H35455   7.818   2.770  10.201  0.9935 -0.9766 -2.7749
  982MOL0     H35456   7.644   2.802  10.201  0.3193 -1.8845  2.9354
  982MOL0     H35457   7.682   2.971  10.029 -0.2463 -1.3189 -0.0835
  982MOL0     H35458   7.688   2.806   9.980  1.8563 -1.2520 -1.7624
  982MOL0     H35459   7.947   2.953  10.054  1.4716 -3.3971 -0.7081
  982MOL0     H35460   7.909   2.822   9.936 -0.9801 -0.7529 -0.6487
  982MOL0     H35461   7.820   3.108   9.891 -0.1755 -0.2731 -0.3229
  982MOL0     H35462   7.821   2.983   9.780 -0.8308  1.4541 -0.0595
  982MOL0     H35463   8.084   2.963   9.814 -0.9903 -0.7968 -0.4345
  982MOL0     H35464   8.014   3.092   9.720 -2.7491 -1.1618 -0.2990
  982MOL0     H35465   7.948   3.273   9.997  0.7993  1.9886  0.9665
  982MOL0     H35466   8.036   3.299  10.268 -0.0382 -0.0363  0.9044
  982MOL0     H35467   8.090   3.440  10.178  3.6497  0.0620 -1.1093
  982MOL0     H35468   8.214   3.381  10.392  3.5557  0.9632  1.0290
  982MOL0     H35469   8.292   3.240  10.322  0.1103  0.9477  1.1911
  982MOL0     H35470   8.427   3.359  10.169  0.3969 -1.0112  1.2185
  982MOL0     H35471   8.325   3.501  10.177  1.1195  0.6038  0.3181
  982MOL0     H35472   8.537   3.529  10.324  0.3467  0.7074  0.6613
  982MOL0     H35473   8.394   3.535  10.413  0.8144 -0.5877  0.9394
  982MOL0     H35474   8.655   3.145  10.407  1.0287 -2.6871  2.1137
  982MOL0     H35475   8.944   3.027  10.580  0.6877  1.6198  0.0388
  982MOL0     H35476   8.973   3.092  10.409  0.2192 -1.5346 -0.7504
  982MOL0     H35477   8.829   3.000  10.458 -0.3798  0.4163  1.3847
  982MOL0     H35478   9.206   3.537  10.887 -3.3055  3.1423 -1.5206
  982MOL0     H35479   9.437   3.634  10.880  2.6113 -2.1265  0.0958
  982MOL0     H35480   9.599   3.793  10.822  1.8254  4.5935 -1.8452
  982MOL0     H35481   9.689   3.640  10.769 -0.5785 -0.7423 -2.0378
  982MOL0     H35482   9.718   3.924  10.667  0.6776  0.1567  0.7281
  982MOL0     H35483   9.813   3.862  10.793 -1.9311  3.2263  0.6015
  982MOL0     H35484   9.800   3.731  10.515 -1.1864  0.0469  0.4104
  982MOL0     H35485   9.899   3.675  10.647  1.7691  2.3762  1.7038
  982MOL0     H35486   9.887   3.958  10.510  1.1906 -0.4885 -4.3620
  982MOL0     H35487  10.002   3.831  10.469 -0.3251  1.1271 -0.2165
  982MOL0     H35488   9.986   3.981  10.738 -2.3171 -1.0813 -2.1509
  982MOL0     H35489  10.104   3.855  10.709  1.3999 -0.1800 -1.5084
  982MOL0     H35490  10.090   4.112  10.562  1.6049  0.3618 -0.1270
  982MOL0     H35491  10.191   3.976  10.518 -0.1984 -1.8762  1.0167
  982MOL0     H35492  10.288   4.172  10.664 -1.5328  1.1035  0.4764
  982MOL0     H35493  10.338   4.010  10.694 -0.7831 -3.0710  1.2387
  982MOL0     H35494  10.312   4.107  10.903  1.2051 -1.8365 -1.1744
  982MOL0     H35495  10.192   3.978  10.869  0.4252 -0.6743 -1.9625
  982MOL0     H35496   9.419   3.594  10.460  1.0460  1.1594  0.3982
  982MOL0     H35497   9.176   3.511  10.478  0.4836  0.8855 -0.9387
  982MOL0     H35498   8.841   3.528  10.652  1.1892 -1.5388  2.3673
  982MOL0     H35499   8.623   3.538  10.530 -1.3988 -0.6509 -0.7901
  982MOL0     H35500   7.499   3.347  10.582  0.3686 -0.3380 -0.1857
  982MOL0     H35501   7.311   3.488  10.530  1.6436 -0.7383  2.3226
  982MOL0     H35502   6.760   3.362  10.187 -0.6051 -0.0183 -0.0381
  982MOL0     H35503   6.565   3.502  10.196  0.2031 -4.1747  0.7196
  982MOL0     H35504   6.388   3.594  10.230 -0.4400 -1.4169  0.6732
  982MOL0     H35505   6.359   3.569  10.400  0.7879 -2.3530 -2.4589
  982MOL0     H35506   6.330   3.838  10.257 -1.1927  1.4906 -0.6898
  982MOL0     H35507   6.294   3.815  10.429 -2.0510  0.4650 -0.3156
  982MOL0     H35508   6.152   3.658  10.209  2.0628 -2.2528  1.1522
  982MOL0     H35509   6.122   3.642  10.375 -2.3110  2.8056  1.7174
  982MOL0     H35510   6.077   3.906  10.378 -2.8485  0.8366  0.3635
  982MOL0     H35511   5.956   3.798  10.342  2.0040  0.7085  4.0473
  982MOL0     H35512   5.954   3.998   9.979 -0.3300  2.1225  2.3538
  982MOL0     H35513   6.720   3.723  10.527  1.0336  1.2669 -0.9630
  982MOL0     H35514   7.056   3.642  10.515  0.5642 -0.4678  0.7959
  982MOL0     H35515   6.919   3.673  10.629  2.2183  0.7547  1.4608
  982MOL0     H35516   6.981   3.508  10.605  0.7038 -0.2951 -2.8917
  983MOL0     O35517   1.271   0.648   7.334  1.2753 -0.3473 -0.6905
  983MOL0     C35518   1.359   0.598   7.392  0.2992 -0.1801  0.0644
  983MOL0     O35519   1.392   0.473   7.384 -0.1493  0.3611 -0.5005
  983MOL0     C35520   1.314   0.372   7.328  0.4255  0.4793  0.7224
  983MOL0     C35521   1.353   0.244   7.354  0.4740 -0.8248 -0.7680
  983MOL0     C35522   1.295   0.130   7.290 -0.2130  0.8399  0.3437
  983MOL0     C35523   1.189   0.140   7.200 -0.2103  0.6002  0.1375
  983MOL0     O35524   1.145   0.029   7.128  0.0809  0.0176 -0.0975
  983MOL0     C35525   1.054   0.039   7.016  0.5100  0.3095  0.6238
  983MOL0     C35526   1.051  -0.104   6.947  0.2017  0.4715  0.3147
  983MOL0     C35527   1.147  -0.126   6.836  0.1488  0.6224 -0.1498
  983MOL0     C35528   1.108  -0.262   6.774 -0.1592 -0.1195 -0.1589
  983MOL0     C35529   1.224  -0.355   6.716 -0.4182  0.1766  0.2059
  983MOL0     C35530   1.333  -0.396   6.821 -0.0379 -0.3370  0.9513
  983MOL0     C35531   1.431  -0.506   6.761 -0.2686  0.2945 -0.1161
  983MOL0     C35532   1.520  -0.460   6.649 -0.3781 -0.1821  0.2893
  983MOL0     N35533   1.586  -0.568   6.571  0.1183 -0.9588  0.2048
  983MOL0     C35534   1.550  -0.700   6.549  0.5126 -0.2207 -0.1008
  983MOL0     C35535   1.640  -0.761   6.480  0.6172  1.2162  0.7430
  983MOL0     C35536   1.630  -0.908   6.435  0.0500  0.2602 -0.5567
  983MOL0     C35537   1.741  -0.937   6.334 -0.2054  0.5234 -0.1548
  983MOL0     C35538   1.888  -0.944   6.390  0.6055 -0.0615 -0.7060
  983MOL0     C35539   1.991  -0.920   6.276  0.1831 -0.2440  0.1372
  983MOL0     O35540   1.971  -1.030   6.184  0.8663 -0.6240  0.6558
  983MOL0     C35541   2.060  -1.034   6.081  0.5167  0.3118 -0.7454
  983MOL0     C35542   2.140  -0.925   6.031 -0.4557  0.2499  0.8301
  983MOL0     C35543   2.225  -0.951   5.925  0.1608 -0.0668  1.2721
  983MOL0     C35544   2.298  -0.832   5.865  0.0738 -0.6322  0.2055
  983MOL0     C35545   2.240  -1.083   5.868  0.2071 -0.2308  0.0752
  983MOL0     C35546   2.347  -1.136   5.769  0.9736 -0.1444 -0.4807
  983MOL0     O35547   2.412  -1.041   5.684  0.1964 -0.1953 -0.3612
  983MOL0     C35548   2.534  -1.077   5.641  0.1699  0.8495 -0.2621
  983MOL0     C35549   2.639  -1.000   5.686 -0.0635 -0.6922  0.5023
  983MOL0     C35550   2.769  -1.036   5.661 -0.3562  0.2033  0.5956
  983MOL0     C35551   2.795  -1.137   5.567 -0.1914  0.3051  0.1889
  983MOL0     O35552   2.930  -1.152   5.548  0.8759  0.6029  0.8723
  983MOL0     C35553   2.970  -1.274   5.482 -0.1923  0.3978 -0.9657
  983MOL0     C35554   3.113  -1.312   5.523 -0.2476  0.7146 -0.2513
  983MOL0     C35555   3.218  -1.227   5.465 -0.1566 -0.1261  0.3743
  983MOL0     C35556   3.184  -1.076   5.445 -0.1820 -0.3653  0.3564
  983MOL0     C35557   3.292  -0.998   5.377 -0.3573 -0.4717  0.0334
  983MOL0     C35558   3.342  -1.065   5.252  0.1248 -0.6047 -0.1387
  983MOL0     C35559   3.406  -0.958   5.153  0.3525 -0.0377 -0.1903
  983MOL0     C35560   3.520  -0.879   5.209  0.9410 -0.1476  1.2484
  983MOL0    Cl35561   3.656  -0.980   5.250 -0.3663  0.5225 -0.2925
  983MOL0     C35562   2.689  -1.210   5.513  0.1959 -0.1215  0.7634
  983MOL0     C35563   2.554  -1.180   5.545  0.4511 -0.7111 -0.5650
  983MOL0     O35564   2.385  -1.251   5.781 -0.7082 -0.7458  0.2319
  983MOL0     C35565   2.150  -1.178   5.908 -0.7527 -0.1256  0.0926
  983MOL0     C35566   2.060  -1.150   6.006 -0.0989  0.0604 -0.2711
  983MOL0     N35567   1.749  -0.676   6.476 -0.0450  0.6805 -0.2189
  983MOL0     N35568   1.721  -0.560   6.536 -0.6661  0.2774  0.5681
  983MOL0     C35569   1.139   0.269   7.190 -0.0157 -0.4445  0.0398
  983MOL0     C35570   1.200   0.380   7.243  0.4764 -0.7428 -0.3242
  983MOL0     C35571   1.431   0.690   7.490 -0.0560  0.0047 -0.5115
  983MOL0     C35572   1.527   0.629   7.574 -0.6784  0.7294 -1.1158
  983MOL0     C35573   1.595   0.705   7.679  0.5757  0.2882  0.0202
  983MOL0     C35574   1.576   0.842   7.680 -0.4363 -0.3655  0.3459
  983MOL0     O35575   1.636   0.938   7.763 -0.3945 -0.7297  0.0111
  983MOL0     C35576   1.774   0.918   7.810  0.0946  0.7540 -0.4528
  983MOL0     C35577   1.830   1.051   7.866  0.6335 -0.3792 -0.0546
  983MOL0     C35578   1.755   1.098   7.993  0.2645  0.0757 -0.3498
  983MOL0     C35579   1.822   1.047   8.128 -0.7893 -0.0627 -0.1390
  983MOL0     C35580   1.962   1.075   8.150  0.1879 -0.2624 -0.1402
  983MOL0     C35581   2.082   1.092   8.168  0.3611  0.1704 -0.8122
  983MOL0     C35582   1.492   0.908   7.597 -0.0742  0.7833  0.1083
  983MOL0     C35583   1.422   0.834   7.495 -0.1396  0.1916 -0.4602
  983MOL0     C35584   1.338   0.927   7.400  0.1849  0.9238 -0.4894
  983MOL0     H35585   1.431   0.237   7.430  0.2542 -0.8069 -0.5400
  983MOL0     H35586   1.325   0.034   7.330 -1.5926  0.4866  0.5839
  983MOL0     H35587   1.085   0.124   6.955 -0.2904  1.8996  2.3537
  983MOL0     H35588   0.956   0.065   7.057  0.5377 -0.0957  0.9593
  983MOL0     H35589   1.055  -0.179   7.025 -4.1088  0.4608  0.7617
  983MOL0     H35590   0.949  -0.111   6.909  1.2782  0.2734 -2.9087
  983MOL0     H35591   1.126  -0.038   6.774  2.1680  1.3565  0.1387
  983MOL0     H35592   1.248  -0.135   6.877 -0.4415 -1.0343  1.0325
  983MOL0     H35593   1.051  -0.322   6.845 -0.8239  2.0178  1.1955
  983MOL0     H35594   1.045  -0.241   6.687  0.5321 -1.3712 -0.9987
  983MOL0     H35595   1.262  -0.303   6.627 -1.7358 -0.2024 -0.6146
  983MOL0     H35596   1.169  -0.446   6.689  2.0268 -1.9399  1.8708
  983MOL0     H35597   1.388  -0.303   6.840  0.2121  0.2634 -2.2319
  983MOL0     H35598   1.288  -0.441   6.910  0.8061 -1.3901  0.8596
  983MOL0     H35599   1.364  -0.584   6.724 -2.1224  0.3881  2.6982
  983MOL0     H35600   1.496  -0.550   6.838 -0.2715  0.6447  0.0888
  983MOL0     H35601   1.471  -0.392   6.579  2.2316  2.2790  0.6936
  983MOL0     H35602   1.594  -0.398   6.700 -0.3828 -0.3562  0.5109
  983MOL0     H35603   1.460  -0.751   6.583  1.1785 -2.0453 -0.9069
  983MOL0     H35604   1.528  -0.922   6.401 -0.7075 -2.5552  2.3000
  983MOL0     H35605   1.648  -0.981   6.515  1.5506 -0.1690 -1.2413
  983MOL0     H35606   1.720  -1.040   6.304 -2.6189  0.0450  2.7224
  983MOL0     H35607   1.736  -0.863   6.253  2.2459 -0.5747 -1.4100
  983MOL0     H35608   1.902  -0.875   6.473 -2.1372  1.3779 -1.3355
  983MOL0     H35609   1.911  -1.042   6.433  0.4736  1.6229  3.7175
  983MOL0     H35610   1.970  -0.821   6.236 -3.4706 -1.3627 -1.0848
  983MOL0     H35611   2.088  -0.926   6.326 -0.3741  1.9865  1.6673
  983MOL0     H35612   2.130  -0.823   6.067 -2.7986  1.7638 -3.4616
  983MOL0     H35613   2.255  -0.816   5.766  0.8606 -0.6310 -0.1435
  983MOL0     H35614   2.405  -0.851   5.865  0.4629  1.3305 -0.7415
  983MOL0     H35615   2.285  -0.741   5.924 -5.6329 -0.3427 -0.9165
  983MOL0     H35616   2.612  -0.917   5.751  0.7912  1.4464 -1.7543
  983MOL0     H35617   2.844  -0.969   5.703 -1.1320  0.9339  0.8362
  983MOL0     H35618   2.914  -1.363   5.512  0.4888  0.1892 -0.2830
  983MOL0     H35619   2.959  -1.263   5.373  0.0876  2.3289 -0.8423
  983MOL0     H35620   3.142  -1.326   5.627 -0.1151 -0.8205 -0.4657
  983MOL0     H35621   3.124  -1.411   5.478 -1.6509 -0.3329  1.5783
  983MOL0     H35622   3.256  -1.269   5.372 -0.1043 -0.2572  0.4537
  983MOL0     H35623   3.304  -1.231   5.533  0.1359  1.5150  0.1348
  983MOL0     H35624   3.167  -1.031   5.544  0.2401 -0.1330  0.3243
  983MOL0     H35625   3.100  -1.064   5.376  1.2003 -1.2473 -1.5460
  983MOL0     H35626   3.257  -0.897   5.355  3.0590  1.2009  1.5378
  983MOL0     H35627   3.376  -0.970   5.441  1.3232  0.0224 -2.2617
  983MOL0     H35628   3.263  -1.118   5.197 -1.0710 -1.4982  2.2768
  983MOL0     H35629   3.418  -1.133   5.293  0.2238  1.0667  2.6513
  983MOL0     H35630   3.325  -0.889   5.127 -0.1097  0.5524  2.4798
  983MOL0     H35631   3.436  -1.019   5.067  3.1547 -0.9674  1.3181
  983MOL0     H35632   3.491  -0.828   5.301  0.3540 -1.3818  1.7610
  983MOL0     H35633   3.543  -0.813   5.124  0.6482  0.2524  1.4759
  983MOL0     H35634   2.702  -1.280   5.432 -2.7428  2.7167 -2.5175
  983MOL0     H35635   2.481  -1.244   5.498  1.0727 -1.5219 -0.4556
  983MOL0     H35636   2.156  -1.272   5.854  1.6462 -1.0091  1.7190
  983MOL0     H35637   1.988  -1.227   6.032 -2.1761  2.1160  0.4081
  983MOL0     H35638   1.057   0.279   7.119 -1.3048  0.6974  1.6116
  983MOL0     H35639   1.156   0.475   7.213 -0.5268 -1.7131 -2.0812
  983MOL0     H35640   1.536   0.521   7.561  1.2101  0.7929 -0.6175
  983MOL0     H35641   1.653   0.655   7.756  1.4263  3.3639  1.5339
  983MOL0     H35642   1.769   0.837   7.884 -3.2984 -0.7156 -2.0765
  983MOL0     H35643   1.830   0.871   7.729 -2.2300  1.4324 -2.5928
  983MOL0     H35644   1.810   1.125   7.787 -1.2621 -1.9289 -1.1186
  983MOL0     H35645   1.935   1.035   7.890  0.7286 -0.7320 -0.6710
  983MOL0     H35646   1.764   1.207   7.993  0.2578  0.0799 -0.7411
  983MOL0     H35647   1.652   1.064   8.003  0.0765  0.3480 -1.2265
  983MOL0     H35648   1.816   0.938   8.129 -1.9850 -0.1542  4.2145
  983MOL0     H35649   1.763   1.088   8.211 -1.0974  0.4145 -0.5834
  983MOL0     H35650   2.185   1.118   8.180  0.6295  0.7451 -3.7261
  983MOL0     H35651   1.489   1.017   7.599  2.8852  0.9867 -0.6144
  983MOL0     H35652   1.350   1.030   7.434 -1.3045  0.9159  0.1007
  983MOL0     H35653   1.366   0.915   7.295 -0.0666  1.5430 -0.6252
  983MOL0     H35654   1.235   0.906   7.430  0.8953  1.7385  2.9960
  984MOL0     O35655   9.183   5.512   2.806  0.5111  0.6013  0.1153
  984MOL0     C35656   9.122   5.416   2.749  0.0196  0.2185  0.0468
  984MOL0     O35657   9.171   5.347   2.645  0.4142  0.7761 -0.0398
  984MOL0     C35658   9.296   5.384   2.593  0.1627  0.0119 -0.6700
  984MOL0     C35659   9.403   5.307   2.620 -0.8005 -0.3726  0.1722
  984MOL0     C35660   9.530   5.335   2.556  0.3864  0.9554  0.2351
  984MOL0     C35661   9.548   5.458   2.489  0.0874 -0.0931  0.4416
  984MOL0     O35662   9.671   5.494   2.436 -0.4806 -0.5127  0.1863
  984MOL0     C35663   9.726   5.616   2.489  0.6242  0.5590  0.2978
  984MOL0     C35664   9.879   5.616   2.445  0.0477  0.0262  0.9318
  984MOL0     C35665   9.898   5.597   2.290 -0.1066  0.0963  0.4216
  984MOL0     C35666   9.895   5.448   2.256 -0.3353 -0.6032 -0.3139
  984MOL0     C35667   9.977   5.419   2.128  0.2075 -0.2277  0.1965
  984MOL0     C35668  10.019   5.274   2.098  1.3029 -0.0701  0.4990
  984MOL0     C35669  10.094   5.200   2.212 -0.1162 -0.1893 -1.1559
  984MOL0     C35670  10.230   5.276   2.214 -0.0849 -0.1336 -0.1886
  984MOL0     N35671  10.341   5.199   2.265 -0.6804 -0.5230  0.0755
  984MOL0     C35672  10.411   5.220   2.380  1.1940  0.0232 -0.8497
  984MOL0     C35673  10.510   5.137   2.374 -0.0379 -0.1987 -0.1991
  984MOL0     C35674  10.613   5.120   2.482  0.6608  0.3863  0.4906
  984MOL0     C35675  10.729   5.216   2.463  0.1601 -0.6352  0.5584
  984MOL0     C35676  10.834   5.210   2.575 -0.2616 -0.8380  0.5656
  984MOL0     C35677  10.955   5.292   2.543 -0.3579 -0.0662  0.1735
  984MOL0     O35678  11.022   5.241   2.428  0.0787  0.8264 -0.1449
  984MOL0     C35679  11.154   5.266   2.420  0.0312 -0.0586 -0.7116
  984MOL0     C35680  11.244   5.177   2.353 -0.8899  0.6719  0.3126
  984MOL0     C35681  11.379   5.193   2.335 -0.5170  0.5849 -0.4554
  984MOL0     C35682  11.445   5.079   2.250  0.8363  0.3968 -0.0955
  984MOL0     C35683  11.432   5.312   2.390 -0.3456 -0.0820 -0.1591
  984MOL0     C35684  11.580   5.354   2.372  0.5167  0.3503  0.5483
  984MOL0     O35685  11.615   5.479   2.413 -0.4765 -0.3856  0.3630
  984MOL0     C35686  11.752   5.495   2.428  0.0188 -0.0722 -0.1782
  984MOL0     C35687  11.814   5.603   2.365  0.2229  0.2581  0.0975
  984MOL0     C35688  11.948   5.628   2.395  0.3155  0.1167  0.6517
  984MOL0     C35689  12.017   5.549   2.486 -0.4807 -0.2095 -0.3066
  984MOL0     O35690  12.150   5.567   2.498  0.5553 -0.2742 -0.2683
  984MOL0     C35691  12.186   5.612   2.623  0.7194 -0.4107 -0.3004
  984MOL0     C35692  12.332   5.662   2.628 -0.7592 -0.6372  0.4131
  984MOL0     C35693  12.404   5.637   2.767  0.1189  0.3934 -0.1404
  984MOL0     C35694  12.519   5.738   2.797  0.6230 -0.2985 -0.6337
  984MOL0     C35695  12.543   5.716   2.948  0.3259 -0.1698 -0.0142
  984MOL0     C35696  12.622   5.828   3.004  0.1704 -0.2785 -0.4274
  984MOL0     C35697  12.769   5.830   2.955  0.9999 -0.7203  0.3839
  984MOL0     C35698  12.857   5.916   3.042 -0.7664 -0.7569  0.5052
  984MOL0    Cl35699  13.015   5.921   2.956  0.0945  0.0827 -0.2048
  984MOL0     C35700  11.952   5.439   2.548 -0.6484  0.8296  0.1052
  984MOL0     C35701  11.822   5.419   2.519 -0.0074 -0.3568 -0.0851
  984MOL0     O35702  11.650   5.269   2.316  1.0143  0.8496 -0.1398
  984MOL0     C35703  11.354   5.401   2.465  0.1244  0.5121  0.1002
  984MOL0     C35704  11.219   5.371   2.488 -0.1855  0.5244 -0.3521
  984MOL0     N35705  10.502   5.066   2.258 -0.3975  0.3408  0.8109
  984MOL0     N35706  10.403   5.106   2.189  0.8161  0.1946  1.0462
  984MOL0     C35707   9.439   5.542   2.467  0.1606  0.6780 -0.2309
  984MOL0     C35708   9.313   5.504   2.519 -0.0486 -0.6358 -0.3429
  984MOL0     C35709   8.995   5.375   2.812  0.6697 -0.5252 -0.4396
  984MOL0     C35710   8.949   5.247   2.783  0.1232 -0.2408  0.5825
  984MOL0     C35711   8.836   5.201   2.841 -0.6645 -0.7296  0.5608
  984MOL0     C35712   8.747   5.280   2.911  0.4891  0.4346  0.5130
  984MOL0     O35713   8.615   5.251   2.953  0.3587  0.1526 -0.0898
  984MOL0     C35714   8.569   5.125   2.914 -0.0566  0.4347  0.1957
  984MOL0     C35715   8.425   5.082   2.950  0.1959 -0.2430  0.4963
  984MOL0     C35716   8.331   5.195   2.916  0.4712  0.3554 -0.0062
  984MOL0     C35717   8.189   5.155   2.930  1.4720  0.1056 -0.5940
  984MOL0     C35718   8.089   5.263   2.922  0.0920 -0.4690  0.1175
  984MOL0     C35719   8.014   5.361   2.924 -0.6405  0.0824 -1.0355
  984MOL0     C35720   8.794   5.410   2.937  0.3732  0.2626  0.2374
  984MOL0     C35721   8.912   5.455   2.895 -0.3562  0.2078 -0.1282
  984MOL0     C35722   8.934   5.602   2.930 -0.2718 -0.5765  1.0342
  984MOL0     H35723   9.390   5.208   2.663  1.7961 -0.9039 -0.1227
  984MOL0     H35724   9.610   5.264   2.574 -0.2683  0.4972  1.5181
  984MOL0     H35725   9.713   5.614   2.598  0.1113 -1.4077  0.2575
  984MOL0     H35726   9.676   5.704   2.448  0.1686  0.9457  1.6335
  984MOL0     H35727   9.919   5.706   2.493  0.1071 -0.0847  1.0889
  984MOL0     H35728   9.922   5.533   2.501 -1.5231  1.1062  4.0130
  984MOL0     H35729   9.821   5.647   2.231  3.0736  2.5600 -1.9815
  984MOL0     H35730   9.989   5.638   2.246 -1.1475  3.0285  0.8269
  984MOL0     H35731   9.922   5.377   2.335  1.3300  0.4122  0.0832
  984MOL0     H35732   9.792   5.424   2.229 -0.9923  2.1268 -0.5535
  984MOL0     H35733  10.071   5.475   2.138  1.3536 -2.0624  0.2035
  984MOL0     H35734   9.927   5.469   2.045  0.3244  3.1857  1.9922
  984MOL0     H35735   9.928   5.216   2.078  1.3549 -0.4034  1.1957
  984MOL0     H35736  10.076   5.264   2.005 -1.0772  1.3745 -1.2472
  984MOL0     H35737  10.099   5.098   2.172  0.3219 -0.3023 -0.8182
  984MOL0     H35738  10.048   5.192   2.311 -1.7463 -1.7539 -1.9815
  984MOL0     H35739  10.264   5.297   2.112  1.1909  0.4570  0.3320
  984MOL0     H35740  10.210   5.366   2.275 -0.1882 -1.3478  1.6491
  984MOL0     H35741  10.393   5.289   2.463  3.5975 -1.7884  1.3159
  984MOL0     H35742  10.649   5.018   2.469  0.9136  0.7511 -2.2325
  984MOL0     H35743  10.560   5.123   2.578 -1.9659 -1.2419 -0.8017
  984MOL0     H35744  10.769   5.187   2.366 -1.9099  1.2406 -0.9444
  984MOL0     H35745  10.692   5.317   2.446  1.1939 -0.5951 -1.9246
  984MOL0     H35746  10.793   5.253   2.667  3.0226  1.2348  1.2188
  984MOL0     H35747  10.874   5.111   2.599 -0.0408 -0.2471  2.8140
  984MOL0     H35748  10.936   5.399   2.527  1.3301  0.3865  0.9722
  984MOL0     H35749  11.019   5.296   2.631  0.3650  1.4983 -0.3768
  984MOL0     H35750  11.200   5.090   2.306  2.9917 -2.7182  2.3466
  984MOL0     H35751  11.370   5.007   2.217  0.8191 -0.1403  1.0526
  984MOL0     H35752  11.513   5.029   2.319  0.4239 -0.2735 -0.1653
  984MOL0     H35753  11.499   5.125   2.166  0.9670  3.2525  1.4018
  984MOL0     H35754  11.764   5.665   2.292 -0.4278  0.9278  1.0824
  984MOL0     H35755  12.003   5.706   2.345  1.1319 -1.0591 -0.3380
  984MOL0     H35756  12.126   5.700   2.649  0.6300 -0.2409 -1.0694
  984MOL0     H35757  12.162   5.542   2.704 -1.1777  1.4709  0.8877
  984MOL0     H35758  12.398   5.607   2.561  0.5715  0.7857  0.5157
  984MOL0     H35759  12.329   5.766   2.595 -1.8708 -0.5024  0.8918
  984MOL0     H35760  12.444   5.535   2.766 -1.2118 -0.1731  1.0871
  984MOL0     H35761  12.324   5.644   2.841 -0.4630  1.0994 -0.8115
  984MOL0     H35762  12.477   5.838   2.782 -1.5182 -0.7943  1.4073
  984MOL0     H35763  12.614   5.724   2.744  1.1197  3.5211 -1.0429
  984MOL0     H35764  12.451   5.714   3.006  0.7924 -2.6337  0.7607
  984MOL0     H35765  12.605   5.632   2.981  1.4317  0.5384 -0.2126
  984MOL0     H35766  12.619   5.834   3.113 -0.2847 -2.3460 -0.2912
  984MOL0     H35767  12.582   5.923   2.967  2.0503  0.9590  0.5443
  984MOL0     H35768  12.778   5.866   2.852 -1.4021 -2.4689 -0.5508
  984MOL0     H35769  12.790   5.722   2.956 -0.1070 -1.0175  3.3229
  984MOL0     H35770  12.883   5.857   3.130  5.0129  2.3303  1.4372
  984MOL0     H35771  12.818   6.014   3.071  0.2449 -0.6443  1.5822
  984MOL0     H35772  12.013   5.380   2.615  1.4247  0.8232 -1.6955
  984MOL0     H35773  11.772   5.342   2.577  1.4057 -1.9834 -0.9153
  984MOL0     H35774  11.394   5.484   2.522 -2.2501  2.5420 -0.9863
  984MOL0     H35775  11.164   5.439   2.553  0.3231  0.9896 -0.3995
  984MOL0     H35776   9.447   5.628   2.401 -2.0694  0.1649 -1.2577
  984MOL0     H35777   9.228   5.567   2.495 -1.1070 -2.2348 -0.9840
  984MOL0     H35778   9.004   5.172   2.727 -2.2019 -0.6401 -1.3306
  984MOL0     H35779   8.805   5.100   2.819 -1.8081 -0.0540 -1.1869
  984MOL0     H35780   8.581   5.106   2.807 -1.7164  2.5557 -0.4489
  984MOL0     H35781   8.624   5.057   2.980 -3.1429 -1.0021  1.4761
  984MOL0     H35782   8.420   5.060   3.057 -0.8951 -0.8202  0.3314
  984MOL0     H35783   8.397   4.996   2.889  1.1605  0.3380 -0.8098
  984MOL0     H35784   8.356   5.273   2.989  1.4951  0.0681 -0.0342
  984MOL0     H35785   8.357   5.235   2.818 -2.3180  0.5244 -0.7555
  984MOL0     H35786   8.179   5.111   3.030  1.8141 -0.7429 -0.9242
  984MOL0     H35787   8.163   5.078   2.856 -0.6381  1.9214 -1.8672
  984MOL0     H35788   7.951   5.446   2.941 -1.4161 -0.5453 -0.6656
  984MOL0     H35789   8.722   5.472   2.990 -0.3696 -1.5527  1.4478
  984MOL0     H35790   8.954   5.652   2.835  0.2436  2.5926  2.6601
  984MOL0     H35791   8.842   5.642   2.975  0.7674  1.8095  1.2100
  984MOL0     H35792   9.008   5.624   3.007 -0.7772  3.2162  0.6226
  985MOL0     O35793   7.367   7.635  10.528  0.0163  0.0176 -0.6547
  985MOL0     C35794   7.280   7.545  10.524 -0.0208 -0.5288  0.1433
  985MOL0     O35795   7.314   7.412  10.529  0.0402  0.7139 -0.1656
  985MOL0     C35796   7.429   7.380  10.595 -0.6524 -0.1855  0.2187
  985MOL0     C35797   7.514   7.282  10.539  0.1127 -0.9795  0.6031
  985MOL0     C35798   7.624   7.243  10.612  1.0873 -0.7604  0.5616
  985MOL0     C35799   7.665   7.288  10.739 -0.0786 -0.1092 -0.2543
  985MOL0     O35800   7.769   7.235  10.813 -0.2269  0.1445  0.2776
  985MOL0     C35801   7.903   7.207  10.748 -0.1156 -0.8072  0.6019
  985MOL0     C35802   7.999   7.132  10.839  0.1638 -0.3588  0.7079
  985MOL0     C35803   8.127   7.075  10.782  0.3666 -0.1472  0.1681
  985MOL0     C35804   8.185   6.970  10.875  0.0811 -0.6105  0.2384
  985MOL0     C35805   8.322   6.923  10.821  0.1708 -0.6024 -0.0440
  985MOL0     C35806   8.382   6.805  10.898  0.2818  0.1948  0.7321
  985MOL0     C35807   8.529   6.808  10.903  0.4497  0.1978 -0.0660
  985MOL0     C35808   8.587   6.694  10.984  0.5846  0.1168  0.2728
  985MOL0     N35809   8.726   6.708  11.007 -0.3883 -0.3687 -0.4828
  985MOL0     C35810   8.792   6.808  11.077  0.1309 -0.6841 -0.5831
  985MOL0     C35811   8.920   6.795  11.039 -0.0845 -0.3907 -0.0802
  985MOL0     C35812   9.043   6.877  11.077  0.0065  0.7366  0.6223
  985MOL0     C35813   9.172   6.796  11.074 -0.2561 -0.3377 -0.7198
  985MOL0     C35814   9.282   6.863  11.165 -0.0979 -0.1513 -0.2952
  985MOL0     C35815   9.415   6.782  11.169 -0.5727 -0.1394  0.5400
  985MOL0     O35816   9.531   6.859  11.208 -0.0393 -0.0636 -0.7921
  985MOL0     C35817   9.536   6.931  11.330 -0.7893  0.1809  0.0679
  985MOL0     C35818   9.517   6.878  11.458  0.1916  0.1304  0.3193
  985MOL0     C35819   9.533   6.959  11.574  0.6796 -0.1732 -0.6541
  985MOL0     C35820   9.492   6.898  11.709 -0.2557  0.3932  0.1962
  985MOL0     C35821   9.587   7.088  11.561 -0.5564 -0.1864  1.1328
  985MOL0     C35822   9.610   7.174  11.679 -0.4799 -0.1687  0.6772
  985MOL0     O35823   9.702   7.268  11.664 -0.1937  0.1846 -0.0928
  985MOL0     C35824   9.731   7.352  11.774  1.0638  0.1490 -0.4777
  985MOL0     C35825   9.654   7.466  11.795 -0.2518 -0.5374 -0.3441
  985MOL0     C35826   9.696   7.551  11.900 -0.4563  0.0368 -0.4919
  985MOL0     C35827   9.807   7.515  11.984 -0.4038  0.5790  0.3055
  985MOL0     O35828   9.865   7.613  12.064 -0.4077 -0.0784  0.5635
  985MOL0     C35829   9.889   7.578  12.195  0.1429  0.7093 -0.1276
  985MOL0     C35830   9.866   7.712  12.275  0.0740  0.0548 -0.1954
  985MOL0     C35831   9.824   7.690  12.422 -0.2983  0.2154 -1.3032
  985MOL0     C35832   9.713   7.784  12.470  0.1858  0.2207  0.2807
  985MOL0     C35833   9.635   7.721  12.592 -0.9149 -0.1299 -0.1213
  985MOL0     C35834   9.508   7.811  12.616 -0.0668 -0.6580 -1.1747
  985MOL0     C35835   9.405   7.758  12.727 -0.0607  0.4462  0.8647
  985MOL0     C35836   9.279   7.847  12.746 -0.5534 -0.7476  0.4544
  985MOL0    Cl35837   9.200   7.887  12.596  0.0243 -0.3159 -0.3009
  985MOL0     C35838   9.870   7.391  11.966  0.5427 -0.2794 -0.7716
  985MOL0     C35839   9.832   7.318  11.862 -1.2461  0.2187 -0.8749
  985MOL0     O35840   9.531   7.169  11.773  0.3600 -0.4092 -0.4851
  985MOL0     C35841   9.613   7.138  11.424  0.3841  0.1169 -0.1826
  985MOL0     C35842   9.585   7.060  11.313  0.1075  0.2801 -0.6217
  985MOL0     N35843   8.926   6.697  10.948 -0.2609 -0.0378  0.0449
  985MOL0     N35844   8.816   6.639  10.940 -0.0427  1.0405  0.0703
  985MOL0     C35845   7.580   7.377  10.798 -0.8698  0.0072  0.1064
  985MOL0     C35846   7.466   7.423  10.726 -0.1817 -0.8101 -0.3862
  985MOL0     C35847   7.133   7.564  10.524  1.0459 -0.3942  0.4456
  985MOL0     C35848   7.049   7.459  10.515  0.0463 -0.0474  0.7329
  985MOL0     C35849   6.915   7.476  10.517  0.2568  0.0011  0.3153
  985MOL0     C35850   6.855   7.604  10.518  0.0580 -0.0340 -0.5001
  985MOL0     O35851   6.715   7.620  10.505 -0.1128  0.2639  0.5691
  985MOL0     C35852   6.652   7.749  10.503 -0.0288 -0.6420  0.0389
  985MOL0     C35853   6.509   7.732  10.441  0.0368  0.0351  0.2881
  985MOL0     C35854   6.512   7.632  10.307 -0.2049 -0.4469 -0.4534
  985MOL0     C35855   6.386   7.635  10.223 -0.6659  0.0137  0.2181
  985MOL0     C35856   6.397   7.747  10.131 -0.3676  0.7611  0.4241
  985MOL0     C35857   6.408   7.832  10.050  0.5101 -0.3103 -0.1679
  985MOL0     C35858   6.938   7.716  10.521  0.0525  0.9155  1.2060
  985MOL0     C35859   7.074   7.694  10.529 -0.3625 -0.4341 -0.5401
  985MOL0     C35860   7.163   7.822  10.543 -0.0010 -0.2804  0.4243
  985MOL0     H35861   7.486   7.222  10.452  1.3586 -2.2734  1.0535
  985MOL0     H35862   7.688   7.175  10.557  1.1637  0.8448 -1.4611
  985MOL0     H35863   7.944   7.305  10.720 -1.7386  0.3095  1.9137
  985MOL0     H35864   7.891   7.153  10.654 -2.5828  1.3198 -0.4407
  985MOL0     H35865   8.035   7.189  10.925  1.0318  0.7520 -0.3452
  985MOL0     H35866   7.934   7.054  10.878  2.1210 -2.5509 -0.1965
  985MOL0     H35867   8.105   7.034  10.682  0.7962  1.2883 -0.5395
  985MOL0     H35868   8.204   7.152  10.769  0.4769 -0.1618  0.7466
  985MOL0     H35869   8.188   6.991  10.982  0.5858  0.8120 -0.0306
  985MOL0     H35870   8.106   6.895  10.868  0.1821 -0.8060  1.1383
  985MOL0     H35871   8.379   7.016  10.822  0.1104 -0.5711  0.5399
  985MOL0     H35872   8.307   6.895  10.716 -0.5866 -1.7472  0.3495
  985MOL0     H35873   8.345   6.808  11.001 -1.1009  3.7025  0.2778
  985MOL0     H35874   8.354   6.705  10.865  2.2308 -0.8949  2.1254
  985MOL0     H35875   8.561   6.904  10.945 -0.4112  1.1433 -1.4584
  985MOL0     H35876   8.575   6.806  10.804 -0.1892  1.9882 -0.4362
  985MOL0     H35877   8.538   6.703  11.082  1.5312  3.7105  0.5882
  985MOL0     H35878   8.570   6.598  10.936  0.7103  0.6975 -0.9630
  985MOL0     H35879   8.747   6.890  11.133 -2.3133 -1.4436 -1.3029
  985MOL0     H35880   9.040   6.921  11.177  1.5456  2.4258 -0.0162
  985MOL0     H35881   9.056   6.968  11.018 -0.1185  1.4648  1.6903
  985MOL0     H35882   9.153   6.699  11.120 -1.9131  0.8441  1.2667
  985MOL0     H35883   9.207   6.791  10.970 -0.8000 -5.7364 -0.9472
  985MOL0     H35884   9.300   6.962  11.122  1.9001 -0.8464 -1.2351
  985MOL0     H35885   9.229   6.866  11.260 -4.2282 -1.5727 -2.3347
  985MOL0     H35886   9.409   6.697  11.238 -0.6457  2.0714  3.4867
  985MOL0     H35887   9.438   6.747  11.068 -2.0494  1.2562 -0.3192
  985MOL0     H35888   9.492   6.772  11.454 -0.7232  0.3230  0.6801
  985MOL0     H35889   9.406   6.951  11.752  0.8105  0.9926  1.6501
  985MOL0     H35890   9.570   6.905  11.785 -1.5563  1.0745  1.5138
  985MOL0     H35891   9.458   6.796  11.689  1.9198 -0.5711  1.1739
  985MOL0     H35892   9.569   7.486  11.730 -0.5159 -0.7222 -0.0597
  985MOL0     H35893   9.652   7.651  11.901 -3.1251 -0.9464 -3.5798
  985MOL0     H35894   9.816   7.499  12.218  0.1266 -0.0062 -2.4046
  985MOL0     H35895   9.987   7.539  12.225 -0.0766  0.6631  0.5608
  985MOL0     H35896   9.960   7.768  12.271  0.7312 -0.9433  0.8621
  985MOL0     H35897   9.802   7.779  12.217  1.5420  1.5699 -0.1607
  985MOL0     H35898   9.916   7.702  12.480 -0.5195 -1.1288 -0.6417
  985MOL0     H35899   9.792   7.587  12.439  0.8133  0.0722  0.0785
  985MOL0     H35900   9.640   7.786  12.388  0.8278  0.5601 -0.2989
  985MOL0     H35901   9.749   7.887  12.483 -3.0529  1.7920 -1.7671
  985MOL0     H35902   9.607   7.617  12.573  1.9418 -1.6318  2.8762
  985MOL0     H35903   9.695   7.704  12.682 -0.5169 -2.2591 -0.7144
  985MOL0     H35904   9.453   7.825  12.522  0.1087 -1.7345 -1.4516
  985MOL0     H35905   9.546   7.909  12.645 -1.5588 -0.1475 -0.8531
  985MOL0     H35906   9.459   7.748  12.822 -1.0318 -2.4450  1.2174
  985MOL0     H35907   9.386   7.654  12.700  2.0979 -0.1375  1.4191
  985MOL0     H35908   9.309   7.944  12.785  1.3542 -1.5885  1.1993
  985MOL0     H35909   9.207   7.803  12.814 -0.2524  3.4027  3.8344
  985MOL0     H35910   9.951   7.369  12.035 -0.6871 -0.0970  0.7925
  985MOL0     H35911   9.886   7.232  11.823 -1.5165 -0.3708  0.0244
  985MOL0     H35912   9.637   7.243  11.416 -0.9170  0.6192  1.8219
  985MOL0     H35913   9.589   7.105  11.215  1.3251 -1.0609 -1.2128
  985MOL0     H35914   7.585   7.403  10.903 -0.6858 -2.0348  0.6398
  985MOL0     H35915   7.398   7.499  10.761 -1.0915 -0.8676 -1.9395
  985MOL0     H35916   7.081   7.355  10.510 -3.5636 -1.3295  1.1448
  985MOL0     H35917   6.855   7.385  10.513 -0.3436  0.4503 -1.7946
  985MOL0     H35918   6.650   7.795  10.603  1.1790 -2.5633  1.0201
  985MOL0     H35919   6.712   7.813  10.438  1.7447 -2.9680 -0.7753
  985MOL0     H35920   6.447   7.820  10.424 -1.4043 -1.1453 -0.9297
  985MOL0     H35921   6.462   7.664  10.513 -1.1683 -1.1942 -1.5599
  985MOL0     H35922   6.597   7.648  10.240 -0.9051  1.4709 -0.9514
  985MOL0     H35923   6.520   7.530  10.344 -0.9780 -1.0360 -1.8055
  985MOL0     H35924   6.303   7.643  10.294  0.4085  0.4399  1.4708
  985MOL0     H35925   6.390   7.541  10.167  7.0038  1.4777 -2.9126
  985MOL0     H35926   6.396   7.894   9.964 -0.2498 -2.2506 -1.5220
  985MOL0     H35927   6.903   7.817  10.538  1.7168  1.6151  0.6755
  985MOL0     H35928   7.103   7.914  10.539  1.1985  0.5059 -0.0088
  985MOL0     H35929   7.213   7.824  10.640 -1.2412 -0.6578  1.0934
  985MOL0     H35930   7.220   7.813  10.450 -4.7769  2.1679 -3.1824
  986MOL0     O35931   7.394   3.759   0.751  0.5430 -0.5877 -0.7270
  986MOL0     C35932   7.431   3.750   0.642 -0.1062  0.7468  0.4665
  986MOL0     O35933   7.539   3.670   0.604  0.1650  0.3652 -0.0233
  986MOL0     C35934   7.630   3.638   0.696 -0.0262  0.3220  0.1662
  986MOL0     C35935   7.748   3.715   0.688 -0.2154 -0.6632  0.2410
  986MOL0     C35936   7.850   3.675   0.777 -0.3173 -0.0939 -0.5142
  986MOL0     C35937   7.840   3.570   0.875  1.1969 -0.2951 -0.5203
  986MOL0     O35938   7.940   3.536   0.966 -0.8687 -0.1322  0.1427
  986MOL0     C35939   8.068   3.590   0.969  0.2002 -0.7128  0.2109
  986MOL0     C35940   8.145   3.553   0.842 -1.0937 -0.6463 -0.6908
  986MOL0     C35941   8.281   3.612   0.821 -0.6975  0.7152 -0.3196
  986MOL0     C35942   8.395   3.509   0.853  0.0492  0.1315 -0.0510
  986MOL0     C35943   8.534   3.573   0.875  0.0785 -0.0234  0.6391
  986MOL0     C35944   8.629   3.458   0.909  0.0276 -0.3618  0.5713
  986MOL0     C35945   8.775   3.501   0.894 -0.0233  0.1292  0.4186
  986MOL0     C35946   8.822   3.551   0.753 -0.0295  0.4273  0.4875
  986MOL0     N35947   8.965   3.551   0.733  0.2775  0.3851 -0.2688
  986MOL0     C35948   9.039   3.658   0.751 -1.0079 -0.6845 -0.4227
  986MOL0     C35949   9.170   3.622   0.732 -0.2503  0.5509  0.5590
  986MOL0     C35950   9.283   3.727   0.743 -0.5822 -0.3700 -0.0246
  986MOL0     C35951   9.387   3.663   0.842  0.3414  0.2417  0.4114
  986MOL0     C35952   9.527   3.722   0.841  0.2556  0.0465 -0.3428
  986MOL0     C35953   9.621   3.640   0.932 -0.7554  0.9737 -0.0689
  986MOL0     O35954   9.753   3.695   0.934  0.0006  0.2549  0.1305
  986MOL0     C35955   9.863   3.627   0.888 -0.9386 -0.0151 -0.8254
  986MOL0     C35956   9.865   3.534   0.786  0.8882 -0.0394  0.2961
  986MOL0     C35957   9.984   3.479   0.734  0.4404  0.1819  0.5434
  986MOL0     C35958   9.955   3.378   0.624 -0.3039 -0.6584 -0.3090
  986MOL0     C35959  10.105   3.503   0.798  0.3605 -0.0791 -1.2434
  986MOL0     C35960  10.233   3.432   0.775 -0.9991 -0.8349  1.0742
  986MOL0     O35961  10.332   3.451   0.874 -0.5643  0.1407  0.0922
  986MOL0     C35962  10.463   3.415   0.858  0.1023  0.6888  0.2521
  986MOL0     C35963  10.536   3.391   0.975  0.6610 -0.6703  0.4150
  986MOL0     C35964  10.666   3.376   0.972 -0.3337 -0.5117 -0.3444
  986MOL0     C35965  10.740   3.352   0.850 -0.1322  0.1762 -0.0752
  986MOL0     O35966  10.872   3.317   0.830  0.9025  0.3234 -0.5635
  986MOL0     C35967  10.961   3.354   0.940  0.9061 -0.0230  0.0736
  986MOL0     C35968  11.102   3.346   0.875  1.1180  0.0690 -1.1709
  986MOL0     C35969  11.216   3.384   0.982 -0.1363 -0.1204 -0.7607
  986MOL0     C35970  11.345   3.392   0.900  0.7596 -0.6772  1.1986
  986MOL0     C35971  11.458   3.429   0.999  0.0371 -0.4623  0.4403
  986MOL0     C35972  11.589   3.470   0.925 -0.2574  0.4466  0.5328
  986MOL0     C35973  11.688   3.500   1.034  0.0783 -0.2797 -0.3783
  986MOL0     C35974  11.810   3.575   0.986 -0.7460 -0.1518 -0.2599
  986MOL0    Cl35975  11.896   3.651   1.138  0.0271  0.4163 -0.0667
  986MOL0     C35976  10.665   3.359   0.727  0.4982  0.2127 -0.3691
  986MOL0     C35977  10.529   3.394   0.742 -0.2936  0.4447 -0.4082
  986MOL0     O35978  10.249   3.371   0.668  0.1895  0.4127  0.0165
  986MOL0     C35979  10.111   3.615   0.888  0.7107  0.1252 -0.6529
  986MOL0     C35980   9.988   3.667   0.939 -0.1577 -0.0885 -0.2477
  986MOL0     N35981   9.166   3.489   0.685  0.8899 -0.9725 -0.3141
  986MOL0     N35982   9.038   3.444   0.689 -0.7481  0.0587  0.5651
  986MOL0     C35983   7.718   3.494   0.883 -0.2768  0.0497 -0.1567
  986MOL0     C35984   7.619   3.536   0.793  0.5623  0.3645  0.8548
  986MOL0     C35985   7.363   3.807   0.527  0.0817  0.6224 -0.6778
  986MOL0     C35986   7.435   3.818   0.403 -0.0167  0.6483  0.1712
  986MOL0     C35987   7.374   3.882   0.290 -0.1926  0.0777  0.2456
  986MOL0     C35988   7.241   3.924   0.302 -0.3509  0.4141 -0.7927
  986MOL0     O35989   7.170   3.997   0.215  0.1140  0.0188  0.3919
  986MOL0     C35990   7.235   4.055   0.109 -0.4941  0.1843 -0.4804
  986MOL0     C35991   7.130   4.104   0.010 -0.5002  0.1016 -0.1128
  986MOL0     C35992   7.067   3.982  -0.066 -0.3304  0.0806  0.4109
  986MOL0     C35993   6.977   4.027  -0.183 -0.5509 -0.0164 -0.0287
  986MOL0     C35994   6.872   4.116  -0.135 -0.4050 -0.4533  0.7212
  986MOL0     C35995   6.793   4.200  -0.096  0.9579  0.3315 -0.4481
  986MOL0     C35996   7.170   3.895   0.419 -0.2506  0.3374 -0.0068
  986MOL0     C35997   7.227   3.846   0.527 -0.4411  0.6141 -0.4287
  986MOL0     C35998   7.129   3.817   0.639 -0.2338  0.1551  0.4479
  986MOL0     H35999   7.764   3.793   0.614 -0.1329 -4.1281 -3.8673
  986MOL0     H36000   7.942   3.732   0.789  0.2793 -0.9626 -0.8893
  986MOL0     H36001   8.115   3.550   1.059  0.7294 -1.8250 -0.5371
  986MOL0     H36002   8.062   3.699   0.975 -2.3342 -0.8465  1.5759
  986MOL0     H36003   8.151   3.443   0.842 -0.7296 -0.6770  1.7431
  986MOL0     H36004   8.090   3.590   0.755 -1.2763 -0.8681 -0.6711
  986MOL0     H36005   8.292   3.657   0.722 -1.1490  0.8517 -0.3095
  986MOL0     H36006   8.308   3.685   0.898 -0.6747  0.1485  0.2214
  986MOL0     H36007   8.374   3.457   0.947  1.5556  0.2532  0.3742
  986MOL0     H36008   8.405   3.432   0.775 -0.8386  0.7377 -0.7846
  986MOL0     H36009   8.526   3.637   0.963 -2.5290 -1.3761  1.5244
  986MOL0     H36010   8.556   3.630   0.784  2.2367 -0.9420  0.5253
  986MOL0     H36011   8.608   3.422   1.010  2.1226  1.8406  1.9042
  986MOL0     H36012   8.617   3.366   0.852  0.3252 -0.5645  0.8350
  986MOL0     H36013   8.839   3.417   0.922  0.2221 -0.5396 -1.9218
  986MOL0     H36014   8.792   3.577   0.970 -0.7292 -0.7741  1.5228
  986MOL0     H36015   8.774   3.481   0.684 -1.3249  1.5127  0.2418
  986MOL0     H36016   8.795   3.656   0.738  0.4413  0.6302  1.0258
  986MOL0     H36017   9.009   3.756   0.785  1.8811  1.3204 -3.0445
  986MOL0     H36018   9.241   3.821   0.780 -1.9418 -1.8851  2.5288
  986MOL0     H36019   9.316   3.741   0.639  1.4674 -1.1249  0.4656
  986MOL0     H36020   9.346   3.672   0.943 -1.1647 -1.9575  0.0661
  986MOL0     H36021   9.401   3.557   0.818  2.9816  0.8675 -1.2105
  986MOL0     H36022   9.576   3.722   0.743  2.4957  1.6950  0.6902
  986MOL0     H36023   9.520   3.825   0.875  0.8063 -0.0094 -0.0385
  986MOL0     H36024   9.576   3.634   1.031 -0.6673  0.9419 -0.0303
  986MOL0     H36025   9.617   3.539   0.890  0.6824  1.5547 -1.7248
  986MOL0     H36026   9.778   3.530   0.720  0.5529  0.2173  0.7184
  986MOL0     H36027  10.023   3.294   0.642 -1.7232 -1.5065  1.5716
  986MOL0     H36028   9.964   3.423   0.525 -2.0798  2.3028  0.7470
  986MOL0     H36029   9.857   3.330   0.634 -0.5591 -0.0642  0.1220
  986MOL0     H36030  10.482   3.395   1.069  1.1554 -0.7030  0.7020
  986MOL0     H36031  10.717   3.364   1.068 -2.1653 -0.5930  0.6569
  986MOL0     H36032  10.950   3.454   0.984  0.2910 -0.7883  1.7218
  986MOL0     H36033  10.949   3.285   1.024 -0.8110  1.2322  0.9230
  986MOL0     H36034  11.110   3.241   0.845 -2.4878 -1.3605  2.0149
  986MOL0     H36035  11.106   3.411   0.787 -1.6644 -0.1760 -1.5744
  986MOL0     H36036  11.226   3.309   1.061 -0.2815 -0.4601 -1.0644
  986MOL0     H36037  11.202   3.479   1.035  1.3060 -0.7153  0.7940
  986MOL0     H36038  11.322   3.462   0.819  0.3482 -2.3260 -0.1710
  986MOL0     H36039  11.362   3.293   0.857  0.3842 -0.2935  0.1316
  986MOL0     H36040  11.427   3.519   1.052 -0.8388  0.1925 -1.1006
  986MOL0     H36041  11.479   3.349   1.070 -1.0591 -3.2678 -2.1494
  986MOL0     H36042  11.577   3.559   0.862  0.4087 -0.8421 -1.5191
  986MOL0     H36043  11.629   3.397   0.854  1.3467  2.9046 -1.2479
  986MOL0     H36044  11.719   3.407   1.083 -1.6876  0.3531  2.1292
  986MOL0     H36045  11.650   3.569   1.111  3.0037  0.4443  0.5587
  986MOL0     H36046  11.776   3.658   0.923 -4.4569 -0.3797  1.2032
  986MOL0     H36047  11.882   3.509   0.936  0.2322  0.4845  0.2709
  986MOL0     H36048  10.706   3.336   0.629  0.1426  0.3743 -0.5561
  986MOL0     H36049  10.477   3.408   0.648 -1.0690  0.0705 -0.0456
  986MOL0     H36050  10.201   3.651   0.937 -0.0030 -0.8630  1.5466
  986MOL0     H36051   9.972   3.738   1.020 -1.0229 -1.0414  0.4576
  986MOL0     H36052   7.699   3.425   0.964 -0.1708  0.3712  0.1484
  986MOL0     H36053   7.525   3.482   0.798  0.6245 -0.0710 -1.5662
  986MOL0     H36054   7.530   3.768   0.386  0.3469  1.3767  0.0222
  986MOL0     H36055   7.411   3.893   0.189 -0.6480  0.8287  0.1533
  986MOL0     H36056   7.309   4.133   0.127  1.3143 -0.0704 -5.3130
  986MOL0     H36057   7.285   3.982   0.045 -2.3044 -0.2082 -1.5316
  986MOL0     H36058   7.186   4.168  -0.059 -1.8305 -0.7684 -2.0613
  986MOL0     H36059   7.051   4.165   0.056 -0.3912  1.3040 -1.4501
  986MOL0     H36060   7.144   3.915  -0.106 -0.6727 -1.1456  1.7278
  986MOL0     H36061   7.019   3.921   0.011  1.1637 -3.2596 -1.1044
  986MOL0     H36062   6.924   3.949  -0.239 -0.8110  0.6058 -0.6551
  986MOL0     H36063   7.045   4.085  -0.245  0.2764  0.3660  1.1978
  986MOL0     H36064   6.726   4.267  -0.046  1.8433  0.4154  0.6513
  986MOL0     H36065   7.062   3.904   0.416 -0.2728  1.0396  1.6083
  986MOL0     H36066   7.132   3.711   0.668  0.6631  0.7871  2.9531
  986MOL0     H36067   7.151   3.880   0.726  0.6310  0.7888 -0.2145
  986MOL0     H36068   7.028   3.839   0.604  1.2154  2.7921 -2.4374
  987MOL0     O36069   9.530   0.630  10.697 -0.0244  0.0700 -0.1271
  987MOL0     C36070   9.453   0.646  10.600 -1.1982  0.0467 -0.5409
  987MOL0     O36071   9.477   0.601  10.477  0.2015  0.5298  0.0544
  987MOL0     C36072   9.580   0.512  10.453  0.5256 -0.2463 -0.8575
  987MOL0     C36073   9.535   0.391  10.410  0.0886  0.3799 -0.0050
  987MOL0     C36074   9.625   0.290  10.374 -0.4148 -0.5451 -0.4900
  987MOL0     C36075   9.767   0.323  10.387 -0.0190  0.5642 -0.3666
  987MOL0     O36076   9.878   0.251  10.356  0.5403  0.9756  0.4712
  987MOL0     C36077   9.853   0.112  10.334 -0.0762  0.2400 -0.5908
  987MOL0     C36078   9.978   0.034  10.330 -0.2596 -0.2417  0.0396
  987MOL0     C36079  10.049   0.036  10.468  0.3834 -0.2828 -0.4904
  987MOL0     C36080   9.959  -0.007  10.585  1.1772  0.1862 -0.6479
  987MOL0     C36081  10.040  -0.002  10.717 -0.2057  0.0635 -0.1572
  987MOL0     C36082   9.956  -0.049  10.833  1.2903  0.1274 -0.2116
  987MOL0     C36083  10.041  -0.067  10.962  0.6563 -0.1691  0.1881
  987MOL0     C36084  10.125   0.045  11.027 -0.8487  0.4751  0.2714
  987MOL0     N36085  10.205  -0.010  11.137  0.2887  0.7128 -0.0267
  987MOL0     C36086  10.152  -0.062  11.251 -0.9845  0.5342 -0.5829
  987MOL0     C36087  10.253  -0.109  11.331  0.6152 -0.3875  0.3197
  987MOL0     C36088  10.244  -0.163  11.468  0.1889 -0.5283  0.4006
  987MOL0     C36089  10.381  -0.188  11.531 -0.2448 -0.5991 -0.0123
  987MOL0     C36090  10.451  -0.057  11.581  0.2940 -0.2104 -0.4407
  987MOL0     C36091  10.583  -0.092  11.663  0.4392  0.1633  0.6897
  987MOL0     O36092  10.623   0.040  11.723 -0.1376 -0.4000 -0.0170
  987MOL0     C36093  10.750   0.075  11.719  0.1982 -0.1347  0.1976
  987MOL0     C36094  10.768   0.215  11.725 -0.3796  0.2106 -0.7083
  987MOL0     C36095  10.885   0.274  11.717  0.1262  0.4973  0.0223
  987MOL0     C36096  10.879   0.428  11.728  0.7503  0.5342 -0.1908
  987MOL0     C36097  10.998   0.188  11.686 -0.7563 -1.8618  0.0902
  987MOL0     C36098  11.137   0.246  11.659 -0.6853  0.0874 -0.6926
  987MOL0     O36099  11.231   0.154  11.632  0.3481  0.2631 -0.3020
  987MOL0     C36100  11.363   0.190  11.633 -0.2254 -0.1454 -0.0602
  987MOL0     C36101  11.416   0.313  11.590  0.4174 -0.8307  0.0738
  987MOL0     C36102  11.546   0.333  11.556  0.5927 -0.4188 -0.9920
  987MOL0     C36103  11.643   0.237  11.589  0.9355  0.3007 -0.0938
  987MOL0     O36104  11.777   0.235  11.541  0.1399  0.4092 -0.6044
  987MOL0     C36105  11.836   0.360  11.506 -0.6762 -0.4405  0.3759
  987MOL0     C36106  11.981   0.322  11.470  0.0451  0.2292 -0.1688
  987MOL0     C36107  12.072   0.444  11.487 -0.0692  1.2616 -0.2018
  987MOL0     C36108  12.214   0.408  11.422 -0.4083 -0.7035 -0.5927
  987MOL0     C36109  12.287   0.295  11.500 -0.4798 -0.6092 -0.0889
  987MOL0     C36110  12.435   0.306  11.473 -0.3344 -0.2557  0.9071
  987MOL0     C36111  12.494   0.289  11.336  0.8073  0.1481 -0.0494
  987MOL0     C36112  12.633   0.231  11.330 -0.3684 -0.3237  0.1371
  987MOL0    Cl36113  12.744   0.359  11.367 -0.2049  0.3806 -0.4892
  987MOL0     C36114  11.598   0.114  11.637 -0.6874  0.5427  0.1221
  987MOL0     C36115  11.457   0.098  11.660  0.0114 -0.0999 -0.4601
  987MOL0     O36116  11.155   0.368  11.671  0.6889  0.1616  0.8924
  987MOL0     C36117  10.983   0.048  11.686  0.3280  0.3238 -0.1553
  987MOL0     C36118  10.858  -0.010  11.708  0.1758 -0.5594  0.4918
  987MOL0     N36119  10.373  -0.074  11.262  0.7245  0.4220 -0.9960
  987MOL0     N36120  10.344  -0.018  11.149 -0.2755 -0.8561  0.3651
  987MOL0     C36121   9.803   0.444  10.444  0.3838  0.4247  0.0201
  987MOL0     C36122   9.709   0.545  10.476  0.7789  0.2489 -1.0451
  987MOL0     C36123   9.330   0.735  10.621  0.5872  0.0593 -0.2791
  987MOL0     C36124   9.336   0.871  10.631  0.1376 -0.4413  0.0814
  987MOL0     C36125   9.232   0.961  10.649 -0.9488  0.1609 -0.3819
  987MOL0     C36126   9.099   0.908  10.663 -0.5267  1.2851  0.4841
  987MOL0     O36127   8.992   0.981  10.699  0.2058  0.3259  0.0391
  987MOL0     C36128   9.002   1.125  10.728  0.1892  0.1843  0.1388
  987MOL0     C36129   8.864   1.167  10.799  0.0291 -0.0566  0.6994
  987MOL0     C36130   8.879   1.294  10.886 -0.7301 -0.6061 -0.3793
  987MOL0     C36131   8.952   1.409  10.813  0.5569  0.2496  0.1786
  987MOL0     C36132   8.873   1.451  10.691 -0.3754  0.5032 -0.4455
  987MOL0     C36133   8.817   1.500  10.602  0.1813 -0.1288  0.3963
  987MOL0     C36134   9.090   0.768  10.643  0.1645 -0.5537 -0.1422
  987MOL0     C36135   9.199   0.681  10.619  0.1698 -0.8097  0.4134
  987MOL0     C36136   9.180   0.534  10.602 -0.4340 -0.3922  0.2440
  987MOL0     H36137   9.427   0.375  10.407  0.0421  0.0650  2.0060
  987MOL0     H36138   9.589   0.201  10.322  0.7746 -0.6865 -1.1131
  987MOL0     H36139   9.805   0.093  10.238 -0.2109 -2.0635 -0.1252
  987MOL0     H36140   9.787   0.078  10.414  1.3813 -3.4518 -0.7829
  987MOL0     H36141   9.957  -0.070  10.305 -0.2299 -1.0979  3.2076
  987MOL0     H36142  10.054   0.073  10.261 -1.1489  1.1335 -0.1966
  987MOL0     H36143  10.131  -0.037  10.466  0.6323 -0.1915  2.1567
  987MOL0     H36144  10.084   0.138  10.485 -0.3701 -0.3795  2.2688
  987MOL0     H36145   9.879   0.067  10.593  1.9809  0.9859  0.3359
  987MOL0     H36146   9.917  -0.105  10.560 -0.2795  1.1142 -2.0299
  987MOL0     H36147  10.087   0.095  10.733  1.4854 -0.7268 -0.1712
  987MOL0     H36148  10.123  -0.071  10.700  0.4134  0.6483  0.4545
  987MOL0     H36149   9.872   0.017  10.859  0.4093 -1.2276  0.5004
  987MOL0     H36150   9.912  -0.144  10.802  1.7396 -0.4461  0.8633
  987MOL0     H36151  10.122  -0.137  10.938  1.4354  0.8937 -0.3836
  987MOL0     H36152   9.978  -0.104  11.044  2.5971  0.8720  2.2577
  987MOL0     H36153  10.188   0.085  10.946 -0.7926  0.6163  0.3851
  987MOL0     H36154  10.056   0.125  11.056  0.8430  1.5495  1.5180
  987MOL0     H36155  10.047  -0.065  11.278 -1.0206  1.5729 -0.5867
  987MOL0     H36156  10.198  -0.263  11.466 -1.1306  0.0727 -0.9985
  987MOL0     H36157  10.182  -0.094  11.526 -0.6701 -1.2667  0.3962
  987MOL0     H36158  10.380  -0.260  11.614  0.6164  0.5738  1.0518
  987MOL0     H36159  10.438  -0.248  11.460  0.7261 -1.9813  1.8275
  987MOL0     H36160  10.474  -0.007  11.486  0.0465  1.3659  0.2897
  987MOL0     H36161  10.382   0.000  11.644  2.6816  2.8430 -0.3656
  987MOL0     H36162  10.562  -0.164  11.742 -2.8833 -0.7295 -0.8316
  987MOL0     H36163  10.653  -0.125  11.585 -0.0636  3.6089 -1.4723
  987MOL0     H36164  10.693   0.292  11.740 -0.8771  0.0881 -2.3751
  987MOL0     H36165  10.781   0.476  11.731  0.2182 -0.3403 -2.0834
  987MOL0     H36166  10.930   0.477  11.645 -0.5465 -1.4137 -2.2694
  987MOL0     H36167  10.920   0.443  11.828 -0.2496  1.1832  0.1307
  987MOL0     H36168  11.348   0.394  11.567 -1.3030 -1.9606  0.9327
  987MOL0     H36169  11.578   0.430  11.520  2.5144 -0.7230 -0.1922
  987MOL0     H36170  11.789   0.412  11.422 -2.2005 -0.7970  0.9652
  987MOL0     H36171  11.842   0.423  11.595 -0.9599 -0.8204  0.6672
  987MOL0     H36172  12.007   0.245  11.542  0.2858 -0.6579 -1.1815
  987MOL0     H36173  11.976   0.287  11.366  0.1584 -3.4516  0.9321
  987MOL0     H36174  12.079   0.469  11.593 -1.1023  1.6035 -0.2035
  987MOL0     H36175  12.030   0.534  11.441 -0.1385  1.8427  0.9720
  987MOL0     H36176  12.277   0.495  11.443 -1.6768 -0.1492  1.1410
  987MOL0     H36177  12.209   0.394  11.313 -2.3861  1.5003 -0.8745
  987MOL0     H36178  12.272   0.314  11.606  1.4233  0.3126  0.0609
  987MOL0     H36179  12.250   0.195  11.475  2.2392 -1.4888 -0.9586
  987MOL0     H36180  12.485   0.229  11.533  0.2770 -1.1727 -0.7218
  987MOL0     H36181  12.474   0.405  11.502  0.0842  0.6022 -2.2533
  987MOL0     H36182  12.510   0.379  11.276  1.6529  0.3356  0.4451
  987MOL0     H36183  12.432   0.219  11.279  1.7385  0.4746 -1.5263
  987MOL0     H36184  12.650   0.192  11.230 -2.8140  2.2388 -1.4188
  987MOL0     H36185  12.649   0.149  11.401  1.7800 -0.1022 -0.0206
  987MOL0     H36186  11.663   0.029  11.659  2.0936  2.4875 -0.0405
  987MOL0     H36187  11.416   0.002  11.689 -2.0434  0.0260 -2.6759
  987MOL0     H36188  11.066  -0.017  11.664  0.4834  0.0760  1.0808
  987MOL0     H36189  10.866  -0.119  11.709  4.3113 -0.3988  1.4378
  987MOL0     H36190   9.910   0.464  10.445  0.2417  1.2507  1.1366
  987MOL0     H36191   9.736   0.634  10.532 -1.0788  1.6925 -2.3681
  987MOL0     H36192   9.434   0.915  10.615 -0.3607  1.7006  2.4069
  987MOL0     H36193   9.247   1.068  10.647  0.5751 -0.0276 -0.1900
  987MOL0     H36194   9.085   1.149  10.795  0.2775 -1.2917  0.5954
  987MOL0     H36195   9.025   1.176  10.634  1.4527  1.2917  1.0129
  987MOL0     H36196   8.825   1.094  10.871  3.1769  0.2715  2.8967
  987MOL0     H36197   8.786   1.177  10.722  0.4693  1.4336  0.4270
  987MOL0     H36198   8.782   1.325  10.926 -1.2062 -1.2093 -1.0371
  987MOL0     H36199   8.936   1.255  10.971 -0.5708  0.2068 -0.1079
  987MOL0     H36200   9.052   1.372  10.788 -0.0499 -1.3239 -0.0101
  987MOL0     H36201   8.961   1.492  10.884 -2.5587  0.1778  0.7821
  987MOL0     H36202   8.780   1.576  10.535 -0.8291  0.4525  1.5662
  987MOL0     H36203   8.991   0.724  10.653  0.0296  0.1357  2.2970
  987MOL0     H36204   9.224   0.476  10.684  3.1925  2.7819  0.8233
  987MOL0     H36205   9.073   0.512  10.596 -0.6488  0.8424 -1.0767
  987MOL0     H36206   9.224   0.504  10.507  2.4731  2.2939  0.5676
  988MOL0     O36207   0.999   7.652   9.498 -0.5939  0.0233  0.7948
  988MOL0     C36208   0.954   7.630   9.609  0.0974  0.1516 -0.2021
  988MOL0     O36209   0.994   7.677   9.725  0.0195 -0.7760 -0.4896
  988MOL0     C36210   1.107   7.758   9.746 -0.2996  0.9184  0.7006
  988MOL0     C36211   1.223   7.742   9.669  0.8796 -0.1241  0.1821
  988MOL0     C36212   1.326   7.841   9.698 -0.6120 -0.1582 -0.5664
  988MOL0     C36213   1.309   7.940   9.797  0.0914 -0.4600  0.3522
  988MOL0     O36214   1.420   8.024   9.812  0.6067  0.7830 -0.6405
  988MOL0     C36215   1.471   8.041   9.947 -0.3201  0.4093 -0.0245
  988MOL0     C36216   1.514   7.907  10.012 -0.0133  0.1179 -0.0515
  988MOL0     C36217   1.627   7.841   9.926  0.3409 -0.0489 -0.4227
  988MOL0     C36218   1.756   7.917   9.936 -0.4033 -0.4083 -1.0413
  988MOL0     C36219   1.856   7.849   9.843 -0.5440 -0.0534 -0.3583
  988MOL0     C36220   1.976   7.933   9.812  0.3313  0.8077 -0.3466
  988MOL0     C36221   2.051   7.869   9.689 -0.6246  0.2235 -0.1704
  988MOL0     C36222   2.153   7.965   9.621 -1.5645 -0.1106  0.2054
  988MOL0     N36223   2.098   8.105   9.595 -0.1843 -0.0138 -0.3993
  988MOL0     C36224   1.987   8.135   9.518 -0.1735 -0.3511  0.6390
  988MOL0     C36225   1.990   8.273   9.512  0.5407  0.7249  0.5789
  988MOL0     C36226   1.881   8.361   9.451 -0.3602 -0.4865 -0.2472
  988MOL0     C36227   1.870   8.331   9.307 -0.8305  0.7571 -0.0322
  988MOL0     C36228   1.750   8.398   9.251 -0.3821 -0.2983 -0.0964
  988MOL0     C36229   1.723   8.379   9.101  0.3036 -0.1059  0.2783
  988MOL0     O36230   1.838   8.411   9.019 -0.1985 -0.0010  0.4957
  988MOL0     C36231   1.849   8.380   8.888 -0.2434 -0.4603  0.0105
  988MOL0     C36232   1.761   8.293   8.819  0.1085 -0.0984 -0.4655
  988MOL0     C36233   1.775   8.285   8.678  0.2436 -0.1102 -0.3591
  988MOL0     C36234   1.674   8.189   8.609 -0.0202  0.1663  0.9060
  988MOL0     C36235   1.871   8.368   8.612  0.6344 -0.1594  0.5130
  988MOL0     C36236   1.881   8.378   8.463 -0.2159 -0.6630 -0.6825
  988MOL0     O36237   1.998   8.449   8.419  0.9796 -0.2005  0.6434
  988MOL0     C36238   1.989   8.514   8.294 -0.2538 -0.3871 -0.7464
  988MOL0     C36239   1.996   8.435   8.181 -0.0415 -0.4837  0.2039
  988MOL0     C36240   2.037   8.490   8.060 -0.7744 -0.0599 -0.3824
  988MOL0     C36241   2.036   8.626   8.044  0.2167 -0.3396 -0.4693
  988MOL0     O36242   2.069   8.702   7.934 -0.6588  0.6510 -0.4038
  988MOL0     C36243   2.054   8.636   7.810  0.3103  0.3984  0.3830
  988MOL0     C36244   2.076   8.727   7.695  0.2405  0.1543 -0.2764
  988MOL0     C36245   2.219   8.775   7.685  0.1073  0.1862  0.1656
  988MOL0     C36246   2.244   8.825   7.545  0.2917  0.0960  0.1029
  988MOL0     C36247   2.391   8.882   7.523  0.4944  0.4502 -0.3052
  988MOL0     C36248   2.405   9.021   7.590  0.5091  0.0292 -0.3013
  988MOL0     C36249   2.540   9.083   7.546 -0.8284  0.2336 -0.3111
  988MOL0     C36250   2.557   9.207   7.642  0.1449  0.5507  1.4556
  988MOL0    Cl36251   2.683   9.324   7.579 -0.0309 -0.4981  0.0719
  988MOL0     C36252   2.007   8.710   8.152 -0.2746  0.7899  0.1495
  988MOL0     C36253   1.987   8.651   8.278 -0.4408 -0.5922 -0.0534
  988MOL0     O36254   1.786   8.353   8.389  0.2860 -0.4802 -0.3936
  988MOL0     C36255   1.959   8.450   8.683  0.1965  0.4778 -0.3185
  988MOL0     C36256   1.945   8.456   8.823 -0.0185  0.7098 -0.5756
  988MOL0     N36257   2.106   8.318   9.576 -0.1725 -0.2212 -0.4928
  988MOL0     N36258   2.175   8.215   9.626  0.4564 -0.2964  0.2810
  988MOL0     C36259   1.194   7.950   9.870  0.1496  0.6734  0.6468
  988MOL0     C36260   1.094   7.853   9.851 -0.0675  0.7009 -0.4874
  988MOL0     C36261   0.851   7.511   9.626 -0.7600 -0.2385 -0.2875
  988MOL0     C36262   0.766   7.488   9.516  0.3198  0.2684  0.4278
  988MOL0     C36263   0.692   7.372   9.513 -0.4139 -0.0830 -1.2009
  988MOL0     C36264   0.684   7.283   9.627  0.1092 -0.8189  0.2919
  988MOL0     O36265   0.598   7.180   9.622  0.4911 -0.1339 -0.4993
  988MOL0     C36266   0.672   7.064   9.579  0.0312 -0.0984  0.1059
  988MOL0     C36267   0.568   6.947   9.569  0.0290  0.2120  0.4745
  988MOL0     C36268   0.502   6.920   9.697  0.2203 -0.0464 -0.6476
  988MOL0     C36269   0.407   6.806   9.677  1.1635  0.1812 -0.1660
  988MOL0     C36270   0.315   6.814   9.791  0.7343  0.9598 -0.0100
  988MOL0     C36271   0.232   6.821   9.883  0.5921  0.0926  0.3494
  988MOL0     C36272   0.768   7.301   9.729 -0.2134 -0.9054  0.2868
  988MOL0     C36273   0.850   7.421   9.733  1.6725  0.2426  0.3825
  988MOL0     C36274   0.938   7.433   9.857  0.0151 -0.5681 -0.0685
  988MOL0     H36275   1.235   7.673   9.586 -0.1577  4.2881 -4.0655
  988MOL0     H36276   1.421   7.833   9.646 -0.0643  0.1636  0.3599
  988MOL0     H36277   1.395   8.081  10.015  1.8444  0.5264  2.4559
  988MOL0     H36278   1.553   8.113   9.954  1.5167 -1.6617  0.8975
  988MOL0     H36279   1.551   7.921  10.114 -0.7864  1.8686  0.0256
  988MOL0     H36280   1.427   7.843  10.028  0.6990 -0.0042  5.2026
  988MOL0     H36281   1.635   7.746   9.979 -0.4012 -0.5798 -1.2440
  988MOL0     H36282   1.595   7.823   9.823  2.4135 -2.8369 -0.6828
  988MOL0     H36283   1.747   8.021   9.903 -2.2950 -0.9565 -2.4658
  988MOL0     H36284   1.791   7.908  10.039 -0.9703  1.9197 -0.5907
  988MOL0     H36285   1.810   7.821   9.748  2.8933  0.7509 -2.4354
  988MOL0     H36286   1.891   7.755   9.885 -1.2387 -1.0967 -2.0130
  988MOL0     H36287   1.942   8.036   9.798  1.2043  1.0261 -0.9723
  988MOL0     H36288   2.041   7.924   9.899  0.7081  0.3311 -0.6664
  988MOL0     H36289   1.979   7.849   9.608  1.0840  1.1039 -1.9790
  988MOL0     H36290   2.100   7.779   9.726 -1.3201 -1.0093 -2.0763
  988MOL0     H36291   2.243   7.973   9.681  0.4744  1.1168 -2.7564
  988MOL0     H36292   2.191   7.924   9.527  0.4946  1.6221  0.2224
  988MOL0     H36293   1.919   8.062   9.474  1.9364 -1.7398 -0.4642
  988MOL0     H36294   1.903   8.466   9.472  3.7727 -0.7534 -2.2202
  988MOL0     H36295   1.793   8.333   9.510 -0.7249 -0.7164 -0.8928
  988MOL0     H36296   1.959   8.373   9.260 -0.3028 -0.5216 -0.2077
  988MOL0     H36297   1.864   8.224   9.283 -0.4792  1.0136 -1.3266
  988MOL0     H36298   1.660   8.363   9.303  0.2382 -0.1262  1.1326
  988MOL0     H36299   1.753   8.507   9.261 -1.8440  0.0703 -2.7444
  988MOL0     H36300   1.703   8.272   9.086  1.1936 -0.3693  0.8774
  988MOL0     H36301   1.635   8.433   9.066  0.5507  0.6143  0.7500
  988MOL0     H36302   1.686   8.234   8.870  3.3743 -1.4933  3.2709
  988MOL0     H36303   1.636   8.102   8.663  2.0448 -2.3838 -1.4507
  988MOL0     H36304   1.715   8.135   8.523 -1.2007 -2.1387  1.7059
  988MOL0     H36305   1.597   8.251   8.561 -3.3284 -4.7154 -0.8155
  988MOL0     H36306   1.974   8.329   8.192  2.8761 -1.0060  2.4427
  988MOL0     H36307   2.045   8.432   7.969  0.9319 -2.6745  1.2915
  988MOL0     H36308   2.126   8.554   7.800  0.3581 -0.3020  4.5405
  988MOL0     H36309   1.954   8.593   7.799  0.6429 -0.1794 -0.4035
  988MOL0     H36310   2.068   8.658   7.611 -3.3046 -4.4360  3.2553
  988MOL0     H36311   2.011   8.815   7.692  0.9530  0.7439  0.7018
  988MOL0     H36312   2.288   8.691   7.693  1.5586  1.3816  0.6360
  988MOL0     H36313   2.231   8.854   7.759 -0.7109  1.3759 -0.9277
  988MOL0     H36314   2.167   8.894   7.511 -2.1927 -1.8977  1.3917
  988MOL0     H36315   2.237   8.738   7.479 -0.3585  1.8879 -2.3537
  988MOL0     H36316   2.462   8.809   7.563 -0.9293 -0.6337  0.3242
  988MOL0     H36317   2.412   8.893   7.416 -0.0940 -0.0648 -0.4762
  988MOL0     H36318   2.401   9.013   7.699  1.4789 -0.3250 -0.2810
  988MOL0     H36319   2.327   9.084   7.546  1.7455  1.5499 -0.4009
  988MOL0     H36320   2.538   9.117   7.442  0.5424  1.6028  0.0691
  988MOL0     H36321   2.629   9.020   7.555 -1.1504 -0.2537 -0.5199
  988MOL0     H36322   2.585   9.173   7.743  3.6557 -1.9506 -0.1253
  988MOL0     H36323   2.464   9.264   7.634 -2.1910 -3.0937  0.2724
  988MOL0     H36324   1.999   8.817   8.139 -1.3674  0.3571 -4.0115
  988MOL0     H36325   1.988   8.705   8.372 -1.2140 -1.4701  0.4781
  988MOL0     H36326   2.037   8.511   8.639 -0.1188  1.7345  0.8110
  988MOL0     H36327   2.006   8.504   8.899 -1.2720 -0.9792  1.6167
  988MOL0     H36328   1.179   8.018   9.953  1.3490  1.4462  0.2465
  988MOL0     H36329   1.007   7.843   9.917 -0.1514 -2.1699 -0.8699
  988MOL0     H36330   0.771   7.539   9.421 -1.1886  0.2663  0.3378
  988MOL0     H36331   0.620   7.355   9.433 -0.3285 -0.8397 -1.1182
  988MOL0     H36332   0.706   7.081   9.477 -0.9010  1.8144  0.0688
  988MOL0     H36333   0.761   7.047   9.640  0.7118 -0.2843 -0.9185
  988MOL0     H36334   0.620   6.865   9.521  0.8031  0.4131  0.9452
  988MOL0     H36335   0.490   6.979   9.500  0.0575 -1.6060 -0.4518
  988MOL0     H36336   0.574   6.887   9.773  0.5753  0.5209 -0.7325
  988MOL0     H36337   0.453   7.011   9.733  0.4866 -0.0859 -0.1700
  988MOL0     H36338   0.454   6.707   9.676 -0.8254 -0.8740  1.8802
  988MOL0     H36339   0.358   6.816   9.580 -2.6695 -1.4969  1.4042
  988MOL0     H36340   0.160   6.834   9.962 -0.9665 -0.3625 -0.9540
  988MOL0     H36341   0.759   7.237   9.816  1.4718  0.5682  1.6274
  988MOL0     H36342   1.039   7.461   9.825 -1.3957  0.8504 -3.7137
  988MOL0     H36343   0.905   7.517   9.919 -0.9806 -1.4317  0.6067
  988MOL0     H36344   0.941   7.335   9.907 -0.6306 -1.5424 -1.8490
  989MOL0     O36345   0.463   7.196   3.682 -0.6231 -0.5085 -0.0440
  989MOL0     C36346   0.498   7.094   3.621 -0.2610 -0.0722 -0.0208
  989MOL0     O36347   0.429   6.973   3.627  0.2447  0.2149 -0.7448
  989MOL0     C36348   0.295   6.969   3.652  0.0458 -0.6331  0.9354
  989MOL0     C36349   0.249   6.838   3.683  0.1330  0.3099 -0.2674
  989MOL0     C36350   0.106   6.813   3.704 -0.1151  1.0120  0.0418
  989MOL0     C36351   0.020   6.921   3.704 -0.8592  0.1612  0.7914
  989MOL0     O36352  -0.115   6.924   3.721 -0.2285 -0.8271  0.0537
  989MOL0     C36353  -0.188   6.828   3.657 -0.5720 -0.0788  0.1851
  989MOL0     C36354  -0.337   6.863   3.656  0.8155 -0.0990 -0.0085
  989MOL0     C36355  -0.401   6.896   3.796 -1.1941 -0.5496  0.4234
  989MOL0     C36356  -0.540   6.933   3.772  0.0274 -0.4681  0.0434
  989MOL0     C36357  -0.614   6.941   3.903 -0.7367 -0.6237 -0.4080
  989MOL0     C36358  -0.769   6.960   3.886  0.3355  0.3839  0.2555
  989MOL0     C36359  -0.840   6.987   4.022 -0.1384 -0.2368 -0.2000
  989MOL0     C36360  -0.991   7.012   3.997 -0.3072 -0.0954  0.5113
  989MOL0     N36361  -1.012   7.148   3.950 -0.3813  0.0521 -0.3217
  989MOL0     C36362  -1.015   7.184   3.818 -0.2994 -0.6834  0.4573
  989MOL0     C36363  -1.020   7.323   3.817 -0.5820  0.7936 -0.2529
  989MOL0     C36364  -1.004   7.408   3.695  0.2054  0.2154  0.2372
  989MOL0     C36365  -0.879   7.496   3.707 -0.7247  0.8221  0.5142
  989MOL0     C36366  -0.870   7.617   3.611  0.6405 -0.2613  0.2128
  989MOL0     C36367  -0.845   7.587   3.463  1.1328 -0.1301 -0.9216
  989MOL0     O36368  -0.726   7.500   3.458 -0.1347  0.7057 -0.1748
  989MOL0     C36369  -0.603   7.560   3.436 -0.0123 -0.4299 -0.0237
  989MOL0     C36370  -0.569   7.693   3.465 -0.2463 -0.1696 -0.8815
  989MOL0     C36371  -0.433   7.738   3.443  0.1466  0.5217 -0.5851
  989MOL0     C36372  -0.409   7.880   3.490  0.5885 -1.1885  0.4498
  989MOL0     C36373  -0.341   7.651   3.373  0.1099 -0.3171 -1.0899
  989MOL0     C36374  -0.198   7.693   3.341 -0.3859  0.0139 -0.0448
  989MOL0     O36375  -0.125   7.605   3.277  0.9050  0.1420  0.3032
  989MOL0     C36376   0.006   7.640   3.235  0.0648 -0.6720  0.2349
  989MOL0     C36377   0.041   7.596   3.105  0.4004 -0.0827 -0.6515
  989MOL0     C36378   0.170   7.604   3.049 -0.0080  0.0379 -1.0868
  989MOL0     C36379   0.260   7.684   3.113  1.4642  0.3232  0.0088
  989MOL0     O36380   0.371   7.718   3.037  0.4806 -0.2236  0.1874
  989MOL0     C36381   0.467   7.822   3.085  0.7829  0.4626  0.2102
  989MOL0     C36382   0.580   7.853   2.986 -0.1083  0.1088  0.1039
  989MOL0     C36383   0.682   7.959   3.039 -1.3978 -0.7728  0.5429
  989MOL0     C36384   0.779   7.999   2.926  0.3055  0.1093  1.0661
  989MOL0     C36385   0.882   8.106   2.967  0.5789  0.8297 -0.0864
  989MOL0     C36386   0.970   8.139   2.848  0.8212 -0.5987  0.5044
  989MOL0     C36387   1.100   8.217   2.882  0.5314 -0.0398 -0.6406
  989MOL0     C36388   1.189   8.241   2.757  0.1994 -0.2677 -0.2541
  989MOL0    Cl36389   1.216   8.092   2.658 -0.1103 -0.2732 -0.2964
  989MOL0     C36390   0.229   7.734   3.237  0.4589 -0.3277 -1.0939
  989MOL0     C36391   0.103   7.715   3.296 -0.5787  0.3616  0.2009
  989MOL0     O36392  -0.160   7.804   3.379 -0.2841  0.8725  0.3074
  989MOL0     C36393  -0.380   7.523   3.343  0.1686  0.4954  0.5060
  989MOL0     C36394  -0.511   7.475   3.368  0.5304 -0.5862 -0.0012
  989MOL0     N36395  -1.018   7.358   3.951  0.6490 -0.8090  1.7336
  989MOL0     N36396  -1.021   7.263   4.023  0.6989 -0.6982 -0.6294
  989MOL0     C36397   0.068   7.049   3.656 -0.2082 -0.2179 -0.0046
  989MOL0     C36398   0.204   7.071   3.635 -0.5195  0.3538 -0.5290
  989MOL0     C36399   0.629   7.082   3.557 -0.1736 -1.1018  0.2928
  989MOL0     C36400   0.679   6.957   3.523  0.4850  0.7278  0.0879
  989MOL0     C36401   0.809   6.943   3.463 -0.2266  0.4191  0.1755
  989MOL0     C36402   0.883   7.054   3.444 -0.0763 -0.0926  0.4110
  989MOL0     O36403   1.013   7.032   3.393 -0.6814  0.4125  0.2111
  989MOL0     C36404   1.114   7.133   3.389 -0.2068  0.1959 -1.0733
  989MOL0     C36405   1.177   7.154   3.539  0.5458  0.4411  0.5281
  989MOL0     C36406   1.324   7.189   3.526 -0.1881 -0.0721  0.5886
  989MOL0     C36407   1.390   7.249   3.654  0.1657 -0.3149 -0.5365
  989MOL0     C36408   1.534   7.237   3.643  0.2781 -0.2866  0.6144
  989MOL0     C36409   1.656   7.221   3.628 -0.3634 -0.3861  0.5749
  989MOL0     C36410   0.837   7.181   3.474 -0.0495  0.1390 -0.3119
  989MOL0     C36411   0.719   7.196   3.533  0.5066 -0.4492  0.4440
  989MOL0     C36412   0.673   7.335   3.568  0.1950 -0.0201 -0.1435
  989MOL0     H36413   0.318   6.755   3.700  0.3831  0.3836 -0.9079
  989MOL0     H36414   0.073   6.710   3.710  1.2147  0.2904 -2.9774
  989MOL0     H36415  -0.174   6.730   3.704  0.6597  0.6246  1.3552
  989MOL0     H36416  -0.147   6.815   3.556  1.3413 -1.0170  1.0313
  989MOL0     H36417  -0.347   6.951   3.591 -1.1168 -0.5245 -0.3353
  989MOL0     H36418  -0.383   6.778   3.606 -0.2656 -1.1459  2.5837
  989MOL0     H36419  -0.402   6.800   3.848 -0.9630 -0.4099  0.6865
  989MOL0     H36420  -0.342   6.962   3.860  1.3485 -0.7642 -1.5492
  989MOL0     H36421  -0.552   7.021   3.708 -0.4875 -0.3624  0.2750
  989MOL0     H36422  -0.586   6.847   3.723 -1.9839  0.2404  0.5847
  989MOL0     H36423  -0.578   7.028   3.959  1.0860 -0.8079 -1.2305
  989MOL0     H36424  -0.608   6.847   3.959  3.2577 -1.5554 -2.0681
  989MOL0     H36425  -0.791   7.053   3.833 -1.5394  0.9617  1.9294
  989MOL0     H36426  -0.810   6.880   3.824  0.0062  0.4547  0.3811
  989MOL0     H36427  -0.794   7.065   4.083 -0.2477  1.2408 -1.9100
  989MOL0     H36428  -0.832   6.892   4.076  0.7304 -0.8768 -1.4032
  989MOL0     H36429  -1.017   6.940   3.920 -1.3971  1.2052 -0.3797
  989MOL0     H36430  -1.053   6.998   4.086 -0.5265  0.3295  0.4287
  989MOL0     H36431  -1.026   7.123   3.729 -0.8513 -2.1480  1.4775
  989MOL0     H36432  -1.096   7.466   3.686 -0.4214 -0.0883  3.5167
  989MOL0     H36433  -0.997   7.348   3.603 -1.5920  0.7733 -0.3054
  989MOL0     H36434  -0.878   7.537   3.809 -1.6889  2.7499 -0.1976
  989MOL0     H36435  -0.790   7.433   3.707 -1.1996  0.0665  2.3265
  989MOL0     H36436  -0.965   7.672   3.622  0.4489 -0.5553  0.0308
  989MOL0     H36437  -0.782   7.669   3.649  0.9430  1.0189 -2.0605
  989MOL0     H36438  -0.927   7.527   3.423  1.1056  0.0961 -1.2086
  989MOL0     H36439  -0.830   7.682   3.411 -0.5720  1.1277  0.7478
  989MOL0     H36440  -0.646   7.763   3.494  0.3727  0.7677 -1.4521
  989MOL0     H36441  -0.496   7.925   3.537  1.2099 -3.5313  4.2197
  989MOL0     H36442  -0.372   7.951   3.415 -0.7183  1.0961  1.8533
  989MOL0     H36443  -0.333   7.889   3.568 -0.7574  0.6857  1.6154
  989MOL0     H36444  -0.042   7.540   3.063 -0.6962 -0.1169  1.4258
  989MOL0     H36445   0.191   7.574   2.947  0.3272  1.3149 -1.4076
  989MOL0     H36446   0.439   7.920   3.123  1.4101  0.5281  0.5170
  989MOL0     H36447   0.513   7.768   3.168  0.5350 -0.3860 -0.1915
  989MOL0     H36448   0.636   7.764   2.957  0.7714  1.6742 -3.4437
  989MOL0     H36449   0.528   7.885   2.896  1.8925 -1.7655 -1.8245
  989MOL0     H36450   0.745   7.919   3.119  2.8710  2.4556 -0.8364
  989MOL0     H36451   0.631   8.053   3.063 -1.4301  0.7688 -4.4208
  989MOL0     H36452   0.732   8.024   2.830  1.5903 -2.5975 -0.3928
  989MOL0     H36453   0.829   7.908   2.893 -1.6455 -0.8998  0.7126
  989MOL0     H36454   0.826   8.192   3.005 -1.8764 -0.1639 -1.2243
  989MOL0     H36455   0.939   8.083   3.058 -0.7349  3.1707  1.4344
  989MOL0     H36456   0.916   8.186   2.766  2.6442  0.7776  0.0266
  989MOL0     H36457   0.996   8.047   2.794  1.0423  0.4846 -1.3117
  989MOL0     H36458   1.165   8.167   2.954  2.2180  2.6713 -0.1219
  989MOL0     H36459   1.074   8.313   2.927  0.2472 -1.5417  2.6393
  989MOL0     H36460   1.284   8.291   2.778  0.5841  0.0050 -2.4706
  989MOL0     H36461   1.148   8.320   2.694 -0.4188 -0.3489  0.0358
  989MOL0     H36462   0.307   7.786   3.292  0.0639 -0.5104 -0.3536
  989MOL0     H36463   0.090   7.757   3.395  0.7695  2.2079 -0.3587
  989MOL0     H36464  -0.313   7.450   3.299  1.0588  0.8923  1.1762
  989MOL0     H36465  -0.537   7.375   3.336  0.4527 -0.3819 -0.5934
  989MOL0     H36466   0.004   7.137   3.649 -0.1835  0.1324  2.9738
  989MOL0     H36467   0.236   7.165   3.593 -2.0429 -0.5048 -3.9921
  989MOL0     H36468   0.633   6.865   3.560 -0.7595  0.8328 -1.1262
  989MOL0     H36469   0.853   6.845   3.449  0.8259  0.8831  0.1430
  989MOL0     H36470   1.192   7.099   3.320  1.9079  2.5481  0.0146
  989MOL0     H36471   1.079   7.224   3.340  0.7903  1.3508  0.2766
  989MOL0     H36472   1.166   7.062   3.597  0.0849 -0.0061 -0.2394
  989MOL0     H36473   1.118   7.228   3.593 -0.6679 -1.2373  1.6049
  989MOL0     H36474   1.375   7.098   3.496  0.1833  0.9889 -2.3019
  989MOL0     H36475   1.337   7.261   3.444 -2.3524  0.0455  0.2799
  989MOL0     H36476   1.354   7.198   3.744 -2.0001 -0.6063 -1.5125
  989MOL0     H36477   1.367   7.355   3.673  0.9254 -0.6385  3.0045
  989MOL0     H36478   1.762   7.214   3.617 -0.2235  0.5330  1.2203
  989MOL0     H36479   0.883   7.279   3.469 -2.9903  1.7096  0.9812
  989MOL0     H36480   0.735   7.406   3.512  0.8937 -2.3898 -2.5897
  989MOL0     H36481   0.570   7.363   3.545  1.7015  3.7088 -3.5328
  989MOL0     H36482   0.694   7.349   3.675 -0.3309 -0.7754  0.0705
  990MOL0     O36483  10.167   1.613   5.125 -0.6526  0.1838  0.3427
  990MOL0     C36484  10.178   1.692   5.031 -0.1557  0.4832  0.1219
  990MOL0     O36485  10.266   1.798   5.029  0.9202  0.3295 -0.0324
  990MOL0     C36486  10.381   1.779   5.105  0.8891  0.4900 -0.7064
  990MOL0     C36487  10.496   1.747   5.034 -0.7296  0.0658  0.5627
  990MOL0     C36488  10.612   1.745   5.099  0.0913  0.1280 -0.2481
  990MOL0     C36489  10.626   1.755   5.237 -0.1053  0.1796  0.1636
  990MOL0     O36490  10.747   1.779   5.304 -0.1390 -0.8866 -0.1592
  990MOL0     C36491  10.868   1.735   5.254  0.6032 -0.1092 -0.2266
  990MOL0     C36492  10.960   1.728   5.374 -0.3169 -0.4775 -0.2673
  990MOL0     C36493  10.906   1.644   5.495  0.0417  0.2957  0.0892
  990MOL0     C36494  10.974   1.665   5.631  0.5592 -0.6621  0.0079
  990MOL0     C36495  11.118   1.617   5.609  0.0237  0.4179 -0.0305
  990MOL0     C36496  11.168   1.577   5.744  0.0443 -0.9097 -0.3951
  990MOL0     C36497  11.306   1.515   5.719 -0.0576 -0.2425  0.2370
  990MOL0     C36498  11.366   1.458   5.854  0.0076 -0.4391  0.1652
  990MOL0     N36499  11.288   1.344   5.893  0.1355  0.5085  0.5368
  990MOL0     C36500  11.193   1.336   5.992 -0.0875 -0.0047  0.7996
  990MOL0     C36501  11.176   1.206   6.021 -1.3120 -0.4396 -0.0694
  990MOL0     C36502  11.076   1.141   6.113 -0.0769  0.0615  0.3267
  990MOL0     C36503  10.939   1.125   6.051 -0.7382  0.7581  0.3433
  990MOL0     C36504  10.854   1.053   6.148  0.0327  0.3692  0.1029
  990MOL0     C36505  10.752   0.986   6.060  0.4325  0.0602 -0.0269
  990MOL0     O36506  10.687   0.892   6.141  0.9676 -0.0083  0.4809
  990MOL0     C36507  10.622   0.796   6.064 -0.1180 -0.0488  0.0867
  990MOL0     C36508  10.554   0.810   5.937 -0.3260 -0.6459 -0.1456
  990MOL0     C36509  10.481   0.707   5.878  1.1312 -0.1774 -0.2264
  990MOL0     C36510  10.408   0.736   5.756  0.2291 -0.3542  1.3920
  990MOL0     C36511  10.486   0.582   5.931 -0.2679 -0.2450  0.1037
  990MOL0     C36512  10.414   0.470   5.860 -0.0274  0.2197  0.2932
  990MOL0     O36513  10.475   0.394   5.769  0.1291  0.2695  0.1535
  990MOL0     C36514  10.611   0.392   5.787 -0.3528 -0.1117 -0.4663
  990MOL0     C36515  10.661   0.284   5.861 -0.7086  0.5482  0.0825
  990MOL0     C36516  10.805   0.284   5.884  0.7573  0.7696  0.6182
  990MOL0     C36517  10.891   0.366   5.821 -0.5927 -0.0962 -0.2780
  990MOL0     O36518  11.029   0.341   5.844 -0.1769  0.0290  0.4434
  990MOL0     C36519  11.119   0.348   5.728  0.1382  0.1203 -0.5382
  990MOL0     C36520  11.210   0.231   5.720  0.5486 -0.5842 -0.0617
  990MOL0     C36521  11.124   0.107   5.678 -0.2505  0.1509  0.4269
  990MOL0     C36522  11.102   0.106   5.528 -0.0771  0.5156  0.0262
  990MOL0     C36523  11.118  -0.045   5.476  0.2457 -0.6983 -0.2145
  990MOL0     C36524  11.004  -0.136   5.534 -0.5006 -0.2639 -0.3539
  990MOL0     C36525  11.026  -0.280   5.475 -0.4409 -0.9481 -0.0167
  990MOL0     C36526  10.914  -0.380   5.514 -0.5461  0.1263 -0.4071
  990MOL0    Cl36527  10.753  -0.349   5.452 -0.1200  0.5336 -0.3009
  990MOL0     C36528  10.843   0.463   5.739  0.4231 -0.4612  0.0503
  990MOL0     C36529  10.702   0.475   5.722 -0.3342 -0.0915  0.3634
  990MOL0     O36530  10.295   0.458   5.893  0.0582  0.1285 -1.0453
  990MOL0     C36531  10.561   0.561   6.048  0.0277  0.1538 -0.4328
  990MOL0     C36532  10.619   0.669   6.120 -0.3473 -0.3806 -0.1969
  990MOL0     N36533  11.260   1.132   5.927  0.4114 -0.3069 -0.2093
  990MOL0     N36534  11.320   1.222   5.851  0.3221 -0.0344  0.2536
  990MOL0     C36535  10.511   1.769   5.318  0.4151  0.5728 -0.4281
  990MOL0     C36536  10.389   1.777   5.250 -0.7599  0.6121  0.5967
  990MOL0     C36537  10.082   1.676   4.914 -0.1999 -0.5391 -0.1420
  990MOL0     C36538  10.021   1.547   4.901 -0.0082  1.0008 -0.3538
  990MOL0     C36539   9.929   1.526   4.794  0.1504 -0.2328 -0.2495
  990MOL0     C36540   9.911   1.623   4.691 -0.6044  0.0832 -0.3866
  990MOL0     O36541   9.836   1.612   4.579 -0.0910  0.2255 -0.1143
  990MOL0     C36542   9.738   1.506   4.572 -0.6869 -0.0642  0.5995
  990MOL0     C36543   9.689   1.508   4.428  0.0532  0.2394  0.0217
  990MOL0     C36544   9.609   1.380   4.398  0.5965  0.2503 -0.1790
  990MOL0     C36545   9.589   1.355   4.248  0.1291  0.6959  0.1179
  990MOL0     C36546   9.701   1.307   4.174 -0.1222 -0.6383 -0.2258
  990MOL0     C36547   9.794   1.260   4.124 -0.3129 -0.0644 -0.1538
  990MOL0     C36548   9.971   1.752   4.711  0.0211 -0.3405 -0.1538
  990MOL0     C36549  10.048   1.786   4.819 -0.7356  0.2524 -0.0660
  990MOL0     C36550  10.108   1.925   4.814  0.3333  0.0508 -0.3696
  990MOL0     H36551  10.482   1.749   4.927  1.6122  1.3351  0.2232
  990MOL0     H36552  10.703   1.744   5.041  0.4722 -0.9834  0.3364
  990MOL0     H36553  10.908   1.792   5.169  0.7744 -1.5523 -1.1577
  990MOL0     H36554  10.854   1.634   5.215 -0.0580  0.2909 -1.0677
  990MOL0     H36555  11.050   1.674   5.343  0.5064  1.1229 -0.7560
  990MOL0     H36556  10.976   1.833   5.399 -0.7154 -0.1180 -1.4546
  990MOL0     H36557  10.803   1.673   5.517 -0.1428 -1.1350  1.2486
  990MOL0     H36558  10.900   1.539   5.466 -1.2630 -0.2888  2.2410
  990MOL0     H36559  10.980   1.773   5.651  1.6123 -0.7989  0.5275
  990MOL0     H36560  10.919   1.614   5.710  1.2228 -1.3225  0.0490
  990MOL0     H36561  11.182   1.695   5.567  0.3619  1.0031  1.5115
  990MOL0     H36562  11.109   1.528   5.546  2.7044  0.2073 -0.1977
  990MOL0     H36563  11.178   1.665   5.809 -3.4451  0.9805 -2.1393
  990MOL0     H36564  11.107   1.505   5.799 -2.2033 -0.1779 -1.7975
  990MOL0     H36565  11.362   1.599   5.676 -1.1015 -0.5153 -1.7715
  990MOL0     H36566  11.300   1.433   5.647  3.6846 -0.2663 -0.2853
  990MOL0     H36567  11.474   1.441   5.850  0.3743  1.7033 -3.3344
  990MOL0     H36568  11.359   1.535   5.931 -4.3357 -1.6827  1.3004
  990MOL0     H36569  11.162   1.423   6.050  1.8663  1.4749 -0.2385
  990MOL0     H36570  11.063   1.219   6.189  0.7010  1.9301 -1.3563
  990MOL0     H36571  11.115   1.049   6.158  0.2703  0.5211  0.9916
  990MOL0     H36572  10.898   1.223   6.024  0.0378  0.2436 -3.1397
  990MOL0     H36573  10.946   1.074   5.955 -3.4254  1.0371 -0.0592
  990MOL0     H36574  10.914   0.975   6.195 -1.1703 -0.9880 -0.5660
  990MOL0     H36575  10.816   1.128   6.218 -0.2738  2.5992 -2.2970
  990MOL0     H36576  10.693   1.071   6.026  1.3695  1.4067  1.5120
  990MOL0     H36577  10.806   0.948   5.973  2.1803 -0.1181  1.0692
  990MOL0     H36578  10.542   0.908   5.892 -0.5929 -1.1988 -1.3176
  990MOL0     H36579  10.301   0.732   5.782  0.1017 -0.0054  0.9322
  990MOL0     H36580  10.423   0.663   5.676 -0.5902 -0.7382  1.5799
  990MOL0     H36581  10.432   0.835   5.717 -1.0627 -1.2561 -2.0204
  990MOL0     H36582  10.590   0.222   5.914 -0.3504  0.6648  0.7037
  990MOL0     H36583  10.836   0.210   5.957  1.1050  0.3654  0.0624
  990MOL0     H36584  11.060   0.357   5.636 -0.1427 -0.4985 -0.4249
  990MOL0     H36585  11.188   0.433   5.734  0.2287 -0.0487  1.3731
  990MOL0     H36586  11.293   0.249   5.650  0.7664 -1.1822  0.0335
  990MOL0     H36587  11.259   0.215   5.817  1.7364  2.7943  0.0474
  990MOL0     H36588  11.033   0.096   5.737 -0.3163  2.3905  0.8201
  990MOL0     H36589  11.187   0.019   5.694  1.3280  0.8914 -1.2903
  990MOL0     H36590  11.176   0.176   5.488 -0.0738 -0.1628 -1.2064
  990MOL0     H36591  11.003   0.148   5.511  0.8522  1.9245 -2.4453
  990MOL0     H36592  11.122  -0.035   5.367  3.8252  2.2522 -0.0085
  990MOL0     H36593  11.210  -0.089   5.516 -0.4536  0.3898  2.8940
  990MOL0     H36594  10.900  -0.107   5.515  0.0383  2.1232  0.0159
  990MOL0     H36595  11.009  -0.143   5.643 -0.8972 -1.3094 -0.3974
  990MOL0     H36596  11.121  -0.317   5.513 -1.4691 -4.9777 -0.8550
  990MOL0     H36597  11.030  -0.275   5.366 -0.6239 -1.0460 -0.0274
  990MOL0     H36598  10.915  -0.392   5.623 -1.1027 -2.8608 -0.6429
  990MOL0     H36599  10.944  -0.471   5.462 -0.5257 -0.9245  1.3667
  990MOL0     H36600  10.910   0.534   5.692  2.7027 -2.1254  0.5902
  990MOL0     H36601  10.670   0.565   5.669  2.5552  0.7507 -0.1395
  990MOL0     H36602  10.563   0.464   6.097 -4.3453  0.3158  0.4431
  990MOL0     H36603  10.671   0.652   6.214  0.3700 -1.2170 -0.7283
  990MOL0     H36604  10.512   1.759   5.426  0.9468 -2.3928 -0.6285
  990MOL0     H36605  10.296   1.794   5.303 -1.1903 -0.7589  0.3310
  990MOL0     H36606  10.036   1.471   4.976 -0.4142 -0.1491 -1.4025
  990MOL0     H36607   9.883   1.427   4.796  2.0938 -1.1819  0.1342
  990MOL0     H36608   9.772   1.404   4.594 -2.6802 -0.6418  1.3147
  990MOL0     H36609   9.657   1.512   4.645 -0.0417 -3.0793  1.7279
  990MOL0     H36610   9.770   1.514   4.354 -1.1406  1.3584 -1.2640
  990MOL0     H36611   9.613   1.586   4.417 -2.6629 -2.2905 -0.4194
  990MOL0     H36612   9.663   1.291   4.432 -1.2475 -1.1412 -0.7304
  990MOL0     H36613   9.511   1.391   4.446  1.1401  1.4330  0.7229
  990MOL0     H36614   9.556   1.444   4.193  0.0343  0.3603 -0.3668
  990MOL0     H36615   9.513   1.277   4.243 -0.7438  1.5938 -3.6082
  990MOL0     H36616   9.885   1.224   4.081  0.6502  0.5414  1.2769
  990MOL0     H36617   9.943   1.814   4.627  3.6688  0.6812 -0.7531
  990MOL0     H36618  10.093   1.968   4.913  0.7445  1.0112 -0.7102
  990MOL0     H36619  10.213   1.924   4.783  0.6072 -0.0771  0.5331
  990MOL0     H36620  10.057   1.995   4.748  1.3652 -0.9476 -2.3470
  991MOL0     O36621   5.630   6.808  10.978  0.6784  1.0127 -0.3914
  991MOL0     C36622   5.610   6.788  11.099  0.2221 -0.3478  0.0843
  991MOL0     O36623   5.696   6.723  11.181 -0.0903  0.3536  0.0947
  991MOL0     C36624   5.804   6.661  11.129  0.7476 -0.5104 -0.4748
  991MOL0     C36625   5.798   6.556  11.038 -0.3053  0.3761 -0.0842
  991MOL0     C36626   5.908   6.483  11.006 -0.2000 -0.9911 -0.5895
  991MOL0     C36627   6.035   6.517  11.059  0.4000 -0.3453 -0.1523
  991MOL0     O36628   6.149   6.451  11.014 -0.2617  0.3918  0.3477
  991MOL0     C36629   6.154   6.346  10.913  0.1145 -0.1482  0.1708
  991MOL0     C36630   6.302   6.292  10.891  0.5852 -0.2260  0.2559
  991MOL0     C36631   6.368   6.239  11.021 -0.0303  0.3644  0.4483
  991MOL0     C36632   6.509   6.177  11.013  0.0427 -0.8282  0.6092
  991MOL0     C36633   6.594   6.250  10.907 -0.1200 -0.5036 -0.4854
  991MOL0     C36634   6.745   6.216  10.935 -0.5045  0.6253 -0.5280
  991MOL0     C36635   6.837   6.297  10.842  0.6558 -0.1539 -0.8275
  991MOL0     C36636   6.822   6.266  10.691 -0.7806  0.5196 -0.8177
  991MOL0     N36637   6.894   6.134  10.668  0.1553 -0.6033 -0.2684
  991MOL0     C36638   6.851   6.001  10.664  0.0463 -1.5458  0.5603
  991MOL0     C36639   6.944   5.939  10.599 -0.5037 -0.0878 -0.3315
  991MOL0     C36640   6.939   5.795  10.557 -0.7913 -0.2524  0.9135
  991MOL0     C36641   6.948   5.797  10.400 -0.8502 -0.2699  0.6960
  991MOL0     C36642   6.835   5.712  10.335  0.6070 -0.6081  0.2107
  991MOL0     C36643   6.871   5.562  10.353 -0.6267 -0.2897 -0.4682
  991MOL0     O36644   6.763   5.485  10.306  0.0049 -0.2361 -0.3339
  991MOL0     C36645   6.734   5.375  10.381 -0.4661  0.0708 -0.6357
  991MOL0     C36646   6.788   5.250  10.352 -0.6116 -0.1003  0.4220
  991MOL0     C36647   6.755   5.130  10.425 -0.5047  0.2570  1.1917
  991MOL0     C36648   6.840   5.004  10.390 -0.5824 -0.1124 -1.0502
  991MOL0     C36649   6.651   5.137  10.529 -0.7460  0.2716  0.5399
  991MOL0     C36650   6.606   5.017  10.609  0.0126  0.7581  0.0837
  991MOL0     O36651   6.521   5.048  10.719 -0.5359 -0.4869  0.0148
  991MOL0     C36652   6.488   4.951  10.807 -0.3896 -0.0417 -0.2607
  991MOL0     C36653   6.598   4.874  10.863 -0.3498 -0.0571  1.1959
  991MOL0     C36654   6.565   4.773  10.957  0.0411  0.4570 -0.0830
  991MOL0     C36655   6.438   4.742  11.005 -0.1371 -0.3329  0.1354
  991MOL0     O36656   6.406   4.659  11.107  0.0534 -0.4173 -0.3127
  991MOL0     C36657   6.522   4.628  11.186  0.3568 -0.0651  0.0635
  991MOL0     C36658   6.489   4.532  11.304 -0.0512 -1.0954  0.0223
  991MOL0     C36659   6.424   4.400  11.256 -0.6213 -0.1098  0.1773
  991MOL0     C36660   6.380   4.306  11.373 -0.0095 -0.0598 -0.7185
  991MOL0     C36661   6.351   4.159  11.326  0.2626 -0.0970  0.2796
  991MOL0     C36662   6.262   4.111  11.426 -0.1125  0.4185  0.6013
  991MOL0     C36663   6.214   3.975  11.398 -0.7683  0.5653 -0.3084
  991MOL0     C36664   6.089   3.952  11.485  0.3641 -0.6155 -0.7637
  991MOL0    Cl36665   6.021   3.788  11.449  0.4266  0.1419 -0.6982
  991MOL0     C36666   6.331   4.822  10.951 -0.6617  0.0254  0.6815
  991MOL0     C36667   6.360   4.921  10.849  0.1928 -1.1204 -0.1723
  991MOL0     O36668   6.634   4.902  10.576  0.6107  0.0290 -0.1162
  991MOL0     C36669   6.609   5.268  10.563  0.1447 -0.6418 -0.5713
  991MOL0     C36670   6.653   5.378  10.498  0.5260 -0.1337 -0.4903
  991MOL0     N36671   7.041   6.026  10.564  0.5281 -0.7697 -0.4037
  991MOL0     N36672   7.015   6.141  10.622  0.3224 -0.1238  0.3265
  991MOL0     C36673   6.038   6.611  11.161 -0.0305 -0.8125  0.7871
  991MOL0     C36674   5.919   6.676  11.204 -0.6499 -0.0770 -0.0149
  991MOL0     C36675   5.481   6.842  11.153  0.6180  0.5515 -0.5000
  991MOL0     C36676   5.474   6.839  11.291 -0.5182 -0.1332  0.0168
  991MOL0     C36677   5.363   6.878  11.353 -0.0468  0.6135 -1.0251
  991MOL0     C36678   5.251   6.924  11.285  0.0919 -0.0477 -0.0735
  991MOL0     O36679   5.153   6.960  11.368  0.9173 -0.6515  0.5548
  991MOL0     C36680   5.026   7.020  11.316 -0.0698 -0.0301  0.3981
  991MOL0     C36681   4.952   7.086  11.435 -0.2421  0.3570 -0.1155
  991MOL0     C36682   4.877   6.970  11.515 -0.3241  0.1969  0.4008
  991MOL0     C36683   4.755   7.027  11.594 -0.8077  0.3943 -0.6293
  991MOL0     C36684   4.805   7.126  11.695  0.1134 -0.2103  0.6324
  991MOL0     C36685   4.837   7.207  11.783  0.5364  0.3731  0.3565
  991MOL0     C36686   5.250   6.927  11.146 -0.1706  0.5887  0.2244
  991MOL0     C36687   5.364   6.885  11.080  0.3236 -0.0219  0.3106
  991MOL0     C36688   5.374   6.902  10.929  0.3958 -0.2569 -0.5297
  991MOL0     H36689   5.701   6.520  11.005  0.2242 -1.1319 -0.1071
  991MOL0     H36690   5.880   6.405  10.936 -0.9468 -0.0441 -1.3705
  991MOL0     H36691   6.128   6.394  10.819 -1.2076  0.5753  0.8710
  991MOL0     H36692   6.085   6.263  10.931 -0.9524  0.5096 -0.7327
  991MOL0     H36693   6.293   6.219  10.810 -0.6009 -1.6461  1.6062
  991MOL0     H36694   6.361   6.377  10.856  0.0090  0.3212  0.5871
  991MOL0     H36695   6.380   6.321  11.093  2.3736  0.4362  0.0491
  991MOL0     H36696   6.302   6.168  11.073  0.0924  0.8668  1.3077
  991MOL0     H36697   6.554   6.175  11.113  0.0289 -1.1640  0.6120
  991MOL0     H36698   6.494   6.076  10.973 -4.3290 -0.6923  1.3999
  991MOL0     H36699   6.582   6.358  10.918  0.6223 -0.5526  0.9936
  991MOL0     H36700   6.556   6.227  10.807 -2.7567  0.5802  0.1692
  991MOL0     H36701   6.756   6.229  11.043 -2.4275 -0.3702 -0.1590
  991MOL0     H36702   6.757   6.109  10.922  2.4509  0.9901 -1.4107
  991MOL0     H36703   6.942   6.285  10.872  0.7682  0.5341 -0.9168
  991MOL0     H36704   6.807   6.401  10.859  1.5375 -0.1746  1.1052
  991MOL0     H36705   6.718   6.259  10.658 -0.9749 -1.6325  0.0684
  991MOL0     H36706   6.874   6.345  10.636  2.0377 -0.7326 -0.1706
  991MOL0     H36707   6.755   5.964  10.700 -1.0290  0.1043 -0.5081
  991MOL0     H36708   6.842   5.747  10.577 -0.3107 -2.7691 -1.9573
  991MOL0     H36709   7.025   5.743  10.599 -0.5679 -0.5632  0.1082
  991MOL0     H36710   6.940   5.900  10.364  0.6745 -1.0676 -2.3245
  991MOL0     H36711   7.043   5.760  10.359 -0.4396  2.7810 -1.4035
  991MOL0     H36712   6.736   5.730  10.378  0.1517  0.4566 -1.2249
  991MOL0     H36713   6.838   5.735  10.228  0.5609  0.2384  0.3897
  991MOL0     H36714   6.959   5.527  10.298  2.4196  1.0622  3.1161
  991MOL0     H36715   6.888   5.543  10.460  2.2701 -0.4276 -0.8759
  991MOL0     H36716   6.866   5.258  10.277 -0.8505  2.3930  0.3336
  991MOL0     H36717   6.942   5.025  10.358  0.2312 -0.6522  1.0054
  991MOL0     H36718   6.789   4.934  10.324 -2.8959 -1.3585  1.8303
  991MOL0     H36719   6.845   4.956  10.489  2.2184  0.1297 -0.9993
  991MOL0     H36720   6.702   4.893  10.836 -0.4873  0.4079  0.9804
  991MOL0     H36721   6.655   4.716  10.978 -2.3741 -3.3345  0.7697
  991MOL0     H36722   6.594   4.569  11.128  0.2851  0.5045 -0.6261
  991MOL0     H36723   6.568   4.723  11.215  0.4238 -0.0945  0.0536
  991MOL0     H36724   6.582   4.501  11.354 -1.5557 -2.8041  1.9657
  991MOL0     H36725   6.428   4.597  11.367  0.6173  0.2127 -0.6227
  991MOL0     H36726   6.479   4.346  11.179 -4.5942 -1.3819 -2.0576
  991MOL0     H36727   6.343   4.435  11.191  0.3337  0.3294 -0.7930
  991MOL0     H36728   6.298   4.341  11.437  0.3036 -2.0032  0.8455
  991MOL0     H36729   6.456   4.307  11.452  1.3047 -0.7974 -1.9354
  991MOL0     H36730   6.297   4.163  11.231 -0.0294 -0.8307  0.4026
  991MOL0     H36731   6.442   4.099  11.319  0.1092 -0.2924 -0.0977
  991MOL0     H36732   6.174   4.175  11.429 -0.7767 -0.4636  0.4632
  991MOL0     H36733   6.310   4.107  11.525  1.0946 -0.9826  0.0030
  991MOL0     H36734   6.282   3.892  11.417 -3.6030 -1.7438  0.6532
  991MOL0     H36735   6.190   3.980  11.292 -0.0739  1.6449 -0.4225
  991MOL0     H36736   6.010   4.016  11.444 -1.7469 -3.2725 -1.1883
  991MOL0     H36737   6.098   3.969  11.592  1.7256 -1.9565 -0.6321
  991MOL0     H36738   6.229   4.807  10.985  0.5717 -1.6797  4.1479
  991MOL0     H36739   6.290   4.995  10.810  0.9050  0.7548  1.9105
  991MOL0     H36740   6.538   5.271  10.645  0.7129 -2.4522  0.0377
  991MOL0     H36741   6.606   5.474  10.519 -0.2699 -1.0680  2.3294
  991MOL0     H36742   6.140   6.626  11.194  0.9701 -1.3405 -1.8441
  991MOL0     H36743   5.927   6.756  11.277  0.9749 -0.9101  0.7733
  991MOL0     H36744   5.555   6.820  11.362 -0.5152  0.1690  0.0931
  991MOL0     H36745   5.350   6.873  11.461  1.8571 -0.2725 -0.8022
  991MOL0     H36746   5.040   7.099  11.241 -2.1715 -1.6686 -1.9053
  991MOL0     H36747   4.966   6.943  11.267  0.0842  0.6904 -0.9823
  991MOL0     H36748   4.880   7.154  11.388  1.7751  2.8706  0.2448
  991MOL0     H36749   5.025   7.135  11.499  0.8303 -1.2022 -0.0888
  991MOL0     H36750   4.841   6.895  11.444  0.0574  1.1270 -0.8035
  991MOL0     H36751   4.944   6.917  11.584 -1.0328  0.0075  0.9498
  991MOL0     H36752   4.703   6.954  11.657 -1.5442 -0.1241 -1.7962
  991MOL0     H36753   4.678   7.068  11.528 -0.8585  1.7943  0.2409
  991MOL0     H36754   4.867   7.271  11.864 -1.1120  1.0329  0.4754
  991MOL0     H36755   5.158   6.953  11.094 -1.7321  1.8050  3.3594
  991MOL0     H36756   5.284   6.954  10.894  2.2188  1.6742 -2.5684
  991MOL0     H36757   5.448   6.973  10.892 -0.4287  1.0779  0.2837
  991MOL0     H36758   5.393   6.802  10.887 -1.1712 -0.6110 -0.4686
  992MOL0     O36759  10.239   2.377   1.614 -0.1740 -0.2546  0.6280
  992MOL0     C36760  10.180   2.482   1.611  0.5027 -0.5045  0.1236
  992MOL0     O36761  10.225   2.598   1.551  0.6991  1.0124 -0.2189
  992MOL0     C36762  10.338   2.612   1.478 -0.2662 -0.2586  0.2162
  992MOL0     C36763  10.387   2.524   1.376  0.4740  0.1166  0.0133
  992MOL0     C36764  10.504   2.540   1.303  0.7129  0.3121  0.6439
  992MOL0     C36765  10.581   2.658   1.311  0.5447 -0.1874 -0.1207
  992MOL0     O36766  10.688   2.688   1.227  0.1354  0.0099  0.2856
  992MOL0     C36767  10.728   2.599   1.124 -0.8762 -0.2488 -0.0578
  992MOL0     C36768  10.833   2.658   1.030 -0.5190  0.1118  0.0195
  992MOL0     C36769  10.961   2.711   1.105  0.3786 -0.6158 -0.5739
  992MOL0     C36770  11.035   2.619   1.195  0.3275  0.5149 -0.5971
  992MOL0     C36771  11.105   2.515   1.122  0.3716 -0.1502 -0.0356
  992MOL0     C36772  11.164   2.417   1.222 -0.6812  0.2544 -0.1958
  992MOL0     C36773  11.249   2.304   1.161  0.5352 -0.7297  0.1804
  992MOL0     C36774  11.397   2.332   1.136 -0.2303  1.0938 -0.8488
  992MOL0     N36775  11.466   2.346   1.266  0.0263  0.0847 -0.3269
  992MOL0     C36776  11.535   2.238   1.314 -0.5410  0.5044  0.4066
  992MOL0     C36777  11.646   2.286   1.381  0.0078  0.5298 -0.4624
  992MOL0     C36778  11.768   2.218   1.441  1.2076 -0.1530 -0.4339
  992MOL0     C36779  11.870   2.186   1.351  0.3605  0.6579  0.3759
  992MOL0     C36780  11.952   2.065   1.395 -0.7159  0.1521 -0.3440
  992MOL0     C36781  12.104   2.065   1.369  0.4536 -0.3073 -0.7872
  992MOL0     O36782  12.159   2.189   1.411  0.2329 -0.1903 -0.4329
  992MOL0     C36783  12.288   2.212   1.380 -0.8583 -0.1977  0.2885
  992MOL0     C36784  12.338   2.332   1.428  0.5865  0.0409  0.4808
  992MOL0     C36785  12.465   2.367   1.404  0.2926 -0.1738  0.8617
  992MOL0     C36786  12.523   2.494   1.461 -0.1282  0.3306 -0.0044
  992MOL0     C36787  12.554   2.286   1.321  0.5399  0.3117  0.0322
  992MOL0     C36788  12.684   2.330   1.292 -0.1547 -0.4534  0.4864
  992MOL0     O36789  12.777   2.303   1.390  0.4516  0.2308 -0.6609
  992MOL0     C36790  12.899   2.345   1.377  0.4217  0.3507  0.0260
  992MOL0     C36791  13.001   2.260   1.351 -0.1427 -0.1456  0.5836
  992MOL0     C36792  13.139   2.287   1.374 -0.3777 -0.3612 -0.2056
  992MOL0     C36793  13.179   2.414   1.422  0.4928  0.4959  0.7864
  992MOL0     O36794  13.308   2.464   1.442 -0.3913 -0.4877  0.2087
  992MOL0     C36795  13.425   2.392   1.395 -0.4783  0.1890 -0.0107
  992MOL0     C36796  13.445   2.414   1.245  0.9565 -0.0570  0.2939
  992MOL0     C36797  13.570   2.336   1.198 -0.0800  0.0344 -0.1630
  992MOL0     C36798  13.702   2.368   1.273  0.2900  0.0523  0.3210
  992MOL0     C36799  13.828   2.322   1.216  0.0469 -0.6836  0.7386
  992MOL0     C36800  13.889   2.407   1.098 -0.1416 -0.1384  0.4151
  992MOL0     C36801  14.038   2.397   1.092 -0.2453  0.6450  0.2963
  992MOL0     C36802  14.105   2.483   0.998  0.2368 -0.3815  1.0545
  992MOL0    Cl36803  14.059   2.658   0.990  0.2747  0.1882 -0.3226
  992MOL0     C36804  13.076   2.512   1.423 -0.2072  0.0266 -0.2330
  992MOL0     C36805  12.940   2.469   1.407  0.9413  0.0182 -0.9708
  992MOL0     O36806  12.703   2.406   1.195 -0.6719  0.3781 -0.0199
  992MOL0     C36807  12.507   2.159   1.274  0.9941 -0.0979  0.6859
  992MOL0     C36808  12.374   2.127   1.305 -0.5702 -0.1196 -0.0707
  992MOL0     N36809  11.629   2.425   1.393  0.3204 -0.0770  0.0114
  992MOL0     N36810  11.526   2.458   1.318 -0.7555  0.8844  0.0239
  992MOL0     C36811  10.535   2.747   1.405  1.9485 -0.1496 -0.9988
  992MOL0     C36812  10.424   2.727   1.492  0.0190  0.1926 -0.8291
  992MOL0     C36813  10.052   2.483   1.694  0.3452 -1.0267 -0.2207
  992MOL0     C36814  10.006   2.603   1.727 -0.3175  1.5467  0.1557
  992MOL0     C36815   9.896   2.622   1.806 -0.4216 -0.5540  0.7587
  992MOL0     C36816   9.826   2.513   1.865 -0.2650  0.0132  0.6899
  992MOL0     O36817   9.730   2.524   1.960 -0.3508  0.1925 -0.5935
  992MOL0     C36818   9.658   2.405   2.000 -0.4145  0.3769 -0.5928
  992MOL0     C36819   9.572   2.431   2.131  0.2096 -0.0668 -0.0628
  992MOL0     C36820   9.558   2.310   2.219  0.4538  0.8959  0.1477
  992MOL0     C36821   9.481   2.334   2.342 -0.2266 -0.0772 -0.2603
  992MOL0     C36822   9.342   2.359   2.311 -1.0086  0.3574  0.9637
  992MOL0     C36823   9.224   2.383   2.324  0.1310  0.1107  0.8166
  992MOL0     C36824   9.864   2.386   1.820 -0.6239 -0.1412  0.8872
  992MOL0     C36825   9.971   2.370   1.726 -0.0430  0.0552  0.0965
  992MOL0     C36826  10.010   2.229   1.692 -0.6260  0.8510 -1.0432
  992MOL0     H36827  10.329   2.432   1.372  0.2250  0.2968 -0.8620
  992MOL0     H36828  10.548   2.457   1.248  2.5635 -0.5329  3.1919
  992MOL0     H36829  10.635   2.572   1.074 -1.1918 -1.7056  1.2457
  992MOL0     H36830  10.754   2.499   1.159  0.3568 -0.5258 -1.6600
  992MOL0     H36831  10.864   2.584   0.956  1.5279 -1.7241  2.5407
  992MOL0     H36832  10.789   2.745   0.979 -1.3018 -0.2247  0.1129
  992MOL0     H36833  11.038   2.755   1.041  0.3165  2.0551  1.0353
  992MOL0     H36834  10.919   2.784   1.175  0.0891 -2.5742  1.4192
  992MOL0     H36835  11.099   2.686   1.253  0.5009  0.4040 -0.6605
  992MOL0     H36836  10.968   2.574   1.269 -0.4297  0.2283 -1.4505
  992MOL0     H36837  11.181   2.569   1.064 -0.9017 -0.5855 -2.2584
  992MOL0     H36838  11.045   2.462   1.047  3.1916 -3.6436 -0.0956
  992MOL0     H36839  11.214   2.473   1.302  0.4503 -1.3213  0.2504
  992MOL0     H36840  11.074   2.369   1.261 -1.2371  1.0311 -0.4969
  992MOL0     H36841  11.199   2.288   1.065  0.8609 -0.6096 -0.0100
  992MOL0     H36842  11.231   2.212   1.217 -3.0693 -0.2729 -0.0267
  992MOL0     H36843  11.445   2.248   1.084 -0.9680 -0.1674  0.4308
  992MOL0     H36844  11.416   2.421   1.075  0.0062  1.6898  0.0674
  992MOL0     H36845  11.540   2.132   1.292  0.8991  0.7647 -0.6534
  992MOL0     H36846  11.730   2.129   1.492 -2.0768  1.6887  0.5774
  992MOL0     H36847  11.812   2.282   1.519 -0.2541  2.3836 -1.5679
  992MOL0     H36848  11.828   2.155   1.255  1.1470 -1.8045  0.7405
  992MOL0     H36849  11.940   2.269   1.343  2.6083 -0.9531  2.0133
  992MOL0     H36850  11.942   2.059   1.504 -0.5021  1.4725 -0.2415
  992MOL0     H36851  11.905   1.974   1.356  1.3940 -1.4244  0.6121
  992MOL0     H36852  12.142   1.983   1.430 -0.3976  1.3082  2.0989
  992MOL0     H36853  12.136   2.050   1.265  1.9520 -0.3556 -0.3516
  992MOL0     H36854  12.276   2.399   1.488 -1.1790 -1.5809  0.5714
  992MOL0     H36855  12.605   2.475   1.531  1.6275  2.2224 -1.4250
  992MOL0     H36856  12.457   2.561   1.517 -3.1368 -1.2546 -1.4510
  992MOL0     H36857  12.571   2.543   1.376  0.0049  0.1445 -0.0359
  992MOL0     H36858  12.967   2.161   1.322 -1.2070  0.1187  0.8559
  992MOL0     H36859  13.218   2.213   1.363  0.3568  0.4197 -0.2969
  992MOL0     H36860  13.512   2.443   1.438 -0.8557  0.8511 -0.0057
  992MOL0     H36861  13.423   2.292   1.440 -1.4979  0.0752 -0.2796
  992MOL0     H36862  13.359   2.389   1.182  1.5887 -2.2864  0.2304
  992MOL0     H36863  13.460   2.521   1.229 -3.1555  0.8239  1.2212
  992MOL0     H36864  13.585   2.360   1.093  0.3911 -0.5411 -0.2375
  992MOL0     H36865  13.556   2.227   1.195 -4.3912  0.4367 -0.1422
  992MOL0     H36866  13.691   2.341   1.378  1.8232  1.1839  0.8061
  992MOL0     H36867  13.704   2.477   1.269 -0.8535  0.0589 -1.4452
  992MOL0     H36868  13.896   2.356   1.294 -0.8347  2.3886  0.3284
  992MOL0     H36869  13.843   2.215   1.202  1.2492 -0.8378  2.9085
  992MOL0     H36870  13.871   2.512   1.122  0.1668  0.1300 -0.5115
  992MOL0     H36871  13.847   2.393   0.998  1.1927 -1.8983  0.0600
  992MOL0     H36872  14.061   2.295   1.060 -4.3306 -1.1780  2.3647
  992MOL0     H36873  14.080   2.414   1.191  1.0647 -3.9701  0.7802
  992MOL0     H36874  14.090   2.441   0.898  1.2313  0.1851  0.6521
  992MOL0     H36875  14.213   2.477   1.013  0.3566 -1.3369 -0.0797
  992MOL0     H36876  13.086   2.617   1.448 -0.5955  0.0934 -0.3695
  992MOL0     H36877  12.855   2.535   1.424  1.2414  1.1288 -3.4503
  992MOL0     H36878  12.563   2.094   1.208 -1.4326 -1.9878  0.3738
  992MOL0     H36879  12.329   2.039   1.260 -1.9249  0.5219 -0.0250
  992MOL0     H36880  10.588   2.839   1.428  1.4987 -0.1862  0.2377
  992MOL0     H36881  10.394   2.807   1.559  1.1782  2.4589 -2.8935
  992MOL0     H36882  10.053   2.698   1.701 -2.0407  2.1402 -0.9028
  992MOL0     H36883   9.854   2.720   1.820 -1.7652 -0.9148 -0.5479
  992MOL0     H36884   9.601   2.358   1.919 -0.5701 -0.5601  0.0461
  992MOL0     H36885   9.728   2.329   2.035 -2.5997 -1.5311 -0.1484
  992MOL0     H36886   9.474   2.470   2.103 -0.8154 -0.9952  1.9330
  992MOL0     H36887   9.614   2.505   2.200 -1.7396 -1.1855  2.4919
  992MOL0     H36888   9.519   2.221   2.167  1.7116  0.4159 -0.0274
  992MOL0     H36889   9.660   2.282   2.249  0.5191  1.7042  0.7018
  992MOL0     H36890   9.526   2.419   2.394 -0.8183  0.2663 -0.3037
  992MOL0     H36891   9.492   2.249   2.410  0.1747 -0.8905 -1.2956
  992MOL0     H36892   9.118   2.391   2.320  0.0933 -0.0223  1.4689
  992MOL0     H36893   9.805   2.299   1.847 -2.8616  1.8650  3.0001
  992MOL0     H36894  10.112   2.227   1.734 -0.2840 -1.6117 -1.8603
  992MOL0     H36895   9.953   2.156   1.749 -1.1268  0.5059 -1.9779
  992MOL0     H36896  10.020   2.211   1.585  0.7035 -1.1760 -0.6428
  993MOL0     O36897   3.864   0.658   2.234  0.0118  0.4629  0.6030
  993MOL0     C36898   3.777   0.650   2.142 -0.0103  0.1221 -0.9092
  993MOL0     O36899   3.802   0.650   2.010  0.0216 -0.1866  0.1697
  993MOL0     C36900   3.921   0.681   1.949  0.7021  0.1986 -1.3207
  993MOL0     C36901   3.924   0.670   1.813  0.1849  0.2893  0.1805
  993MOL0     C36902   4.040   0.690   1.738 -0.3372  1.0063 -0.3340
  993MOL0     C36903   4.155   0.752   1.801 -0.2504  1.7122  0.2085
  993MOL0     O36904   4.286   0.769   1.749  0.6651  0.0048 -0.2669
  993MOL0     C36905   4.291   0.804   1.603 -0.6859 -0.2286  0.7857
  993MOL0     C36906   4.436   0.847   1.563  0.7533 -0.2874  0.5067
  993MOL0     C36907   4.525   0.726   1.574 -0.3253 -0.3972 -0.0198
  993MOL0     C36908   4.674   0.752   1.547 -0.6895 -0.3704  0.0737
  993MOL0     C36909   4.751   0.631   1.515 -0.2706  0.4564  0.4674
  993MOL0     C36910   4.904   0.644   1.542  0.3210  0.6854  0.2118
  993MOL0     C36911   4.983   0.530   1.482 -0.3299 -0.0251 -0.0964
  993MOL0     C36912   4.924   0.387   1.521  0.0141 -0.7728 -0.1961
  993MOL0     N36913   5.020   0.279   1.477 -0.0639  0.0714 -0.1245
  993MOL0     C36914   5.143   0.247   1.540 -0.0520 -0.1881  0.0524
  993MOL0     C36915   5.202   0.150   1.457  0.5119 -0.4477 -0.4892
  993MOL0     C36916   5.335   0.073   1.480 -0.3890 -0.2222 -0.0444
  993MOL0     C36917   5.440   0.098   1.365  0.0850  0.1426  0.1855
  993MOL0     C36918   5.584   0.031   1.385 -0.0310 -0.5902  0.1823
  993MOL0     C36919   5.693   0.078   1.283  0.3335  0.0192  0.9313
  993MOL0     O36920   5.723   0.218   1.295 -0.0215 -0.4076  0.2312
  993MOL0     C36921   5.834   0.261   1.360 -0.0204  0.1662  0.2557
  993MOL0     C36922   5.851   0.303   1.494  0.2566  0.3445  0.7170
  993MOL0     C36923   5.966   0.369   1.533  0.2614  0.3706 -0.0048
  993MOL0     C36924   5.974   0.427   1.670  0.6040 -0.4525 -0.1808
  993MOL0     C36925   6.079   0.370   1.453  0.6022 -0.5835  0.0178
  993MOL0     C36926   6.217   0.420   1.496 -0.4810 -0.0479  0.3805
  993MOL0     O36927   6.267   0.394   1.622  0.1639  0.2527 -0.7436
  993MOL0     C36928   6.386   0.460   1.657  0.0951  0.0754  0.1036
  993MOL0     C36929   6.503   0.386   1.660 -0.0782 -0.7211 -0.1317
  993MOL0     C36930   6.617   0.456   1.679 -0.4212 -0.3512  0.4482
  993MOL0     C36931   6.619   0.598   1.709  0.4431  0.8948  0.8352
  993MOL0     O36932   6.745   0.660   1.730  0.4072 -0.1535  0.1674
  993MOL0     C36933   6.746   0.775   1.815  0.0386 -0.4489  0.0446
  993MOL0     C36934   6.871   0.770   1.900 -0.5431  0.1782 -0.7461
  993MOL0     C36935   6.998   0.762   1.813 -0.5407  0.9207 -0.4042
  993MOL0     C36936   7.032   0.887   1.734  0.7176  0.4296 -0.4014
  993MOL0     C36937   7.129   0.883   1.621  0.3062  1.0317  0.1641
  993MOL0     C36938   7.063   0.814   1.496  0.2967  0.1235 -0.7821
  993MOL0     C36939   7.162   0.826   1.383  0.0015 -0.9131  1.0857
  993MOL0     C36940   7.095   0.815   1.246  0.0286  0.3431 -0.0665
  993MOL0    Cl36941   7.021   0.651   1.242  0.2879 -0.4481 -0.1777
  993MOL0     C36942   6.501   0.668   1.716  0.0988  0.2413  0.3178
  993MOL0     C36943   6.381   0.600   1.680  0.3960 -0.5979 -0.4056
  993MOL0     O36944   6.282   0.473   1.408  0.2686  0.8055 -0.1276
  993MOL0     C36945   6.060   0.323   1.326 -0.5208  0.4475 -0.1845
  993MOL0     C36946   5.944   0.269   1.282  0.5940 -0.2015 -0.1606
  993MOL0     N36947   5.113   0.129   1.355 -0.4585 -0.2743 -0.3135
  993MOL0     N36948   5.004   0.207   1.368  0.1796  0.6794  0.1106
  993MOL0     C36949   4.155   0.759   1.937 -0.5056 -0.9265 -1.1285
  993MOL0     C36950   4.041   0.727   2.018  0.3006  0.4340  0.1401
  993MOL0     C36951   3.634   0.626   2.192  0.2199 -0.2643 -0.6401
  993MOL0     C36952   3.620   0.583   2.328  0.0856 -0.1340 -0.3545
  993MOL0     C36953   3.498   0.564   2.388 -0.7026 -1.1585  0.9311
  993MOL0     C36954   3.387   0.598   2.314 -1.3576  0.4537 -0.0471
  993MOL0     O36955   3.273   0.584   2.384  0.0564  0.4968 -0.1283
  993MOL0     C36956   3.141   0.599   2.333 -0.4995 -0.0798  0.6650
  993MOL0     C36957   3.040   0.556   2.435  0.4662 -0.1757 -0.8033
  993MOL0     C36958   3.030   0.642   2.563  0.2566 -0.7439 -0.4042
  993MOL0     C36959   2.920   0.591   2.658 -0.1167  0.1655  0.6308
  993MOL0     C36960   2.929   0.647   2.795  0.2412 -0.2144 -0.6894
  993MOL0     C36961   2.931   0.697   2.902 -0.3780  0.3139  0.1021
  993MOL0     C36962   3.399   0.649   2.176  0.1613  0.3716 -0.3488
  993MOL0     C36963   3.525   0.650   2.112 -0.1835 -1.1398  0.8222
  993MOL0     C36964   3.538   0.706   1.970  0.0571 -0.0392 -0.3843
  993MOL0     H36965   3.841   0.635   1.753  0.4686  1.3986 -0.9162
  993MOL0     H36966   4.034   0.670   1.631  1.4677  0.3736 -0.3424
  993MOL0     H36967   4.230   0.889   1.570  0.9853  0.4002 -0.8510
  993MOL0     H36968   4.262   0.721   1.537  2.6215 -1.3901  0.5965
  993MOL0     H36969   4.447   0.883   1.461  1.4313  1.6705  1.2190
  993MOL0     H36970   4.483   0.922   1.628  0.2214  0.7266 -0.2524
  993MOL0     H36971   4.526   0.691   1.678  1.3855 -0.5532 -0.0625
  993MOL0     H36972   4.480   0.654   1.505 -0.5878  0.9455 -1.2930
  993MOL0     H36973   4.684   0.820   1.462 -1.4548 -0.4481 -0.0899
  993MOL0     H36974   4.724   0.792   1.635  1.2755  0.0884 -1.1852
  993MOL0     H36975   4.738   0.614   1.408 -0.8086  1.2958  0.3878
  993MOL0     H36976   4.716   0.551   1.580  0.0697  0.9598  1.2988
  993MOL0     H36977   4.944   0.736   1.498 -2.0178  2.1890  1.0291
  993MOL0     H36978   4.925   0.636   1.649  1.4252  1.3564  0.0613
  993MOL0     H36979   5.084   0.548   1.521 -1.2254  1.1756  1.8163
  993MOL0     H36980   4.985   0.531   1.373  1.1683 -1.1230 -0.1153
  993MOL0     H36981   4.916   0.368   1.628  1.9301 -4.5394 -0.5668
  993MOL0     H36982   4.827   0.374   1.471  0.1693  2.5411 -1.5934
  993MOL0     H36983   5.182   0.285   1.634  0.5027 -0.4138 -0.0842
  993MOL0     H36984   5.314  -0.034   1.479  1.9478 -0.7522 -1.6925
  993MOL0     H36985   5.386   0.102   1.573 -1.6219  2.3706 -0.0822
  993MOL0     H36986   5.402   0.059   1.270  0.8717 -1.0119  0.3200
  993MOL0     H36987   5.447   0.206   1.350  0.8255 -0.1465 -1.9035
  993MOL0     H36988   5.616   0.060   1.485  2.0371 -1.4922 -0.1680
  993MOL0     H36989   5.567  -0.076   1.377  0.0630 -0.4931 -1.8508
  993MOL0     H36990   5.784   0.018   1.298  0.3042 -0.3932 -0.4613
  993MOL0     H36991   5.654   0.064   1.182  1.4275  1.1556  0.3196
  993MOL0     H36992   5.767   0.313   1.562  0.8734  4.2527  1.1408
  993MOL0     H36993   6.057   0.497   1.683 -0.1371  0.7254 -1.5101
  993MOL0     H36994   5.998   0.348   1.742  2.0085  0.8660  0.8618
  993MOL0     H36995   5.881   0.462   1.716  0.8775 -0.1150  0.1168
  993MOL0     H36996   6.508   0.279   1.644  0.0030 -0.4449 -2.1689
  993MOL0     H36997   6.708   0.398   1.673 -0.2253 -0.2652  2.1387
  993MOL0     H36998   6.747   0.872   1.764  0.0132 -0.0245  0.8289
  993MOL0     H36999   6.659   0.769   1.881  0.6935 -0.6524  0.9127
  993MOL0     H37000   6.871   0.861   1.960 -1.4272 -1.4326  1.8919
  993MOL0     H37001   6.859   0.682   1.964  0.0506 -0.6114 -1.6950
  993MOL0     H37002   6.997   0.671   1.751 -0.4907  0.3936  0.3529
  993MOL0     H37003   7.081   0.748   1.883 -1.3849 -0.9007  0.3026
  993MOL0     H37004   7.066   0.963   1.805 -1.8370  0.3440  1.0467
  993MOL0     H37005   6.938   0.932   1.702  0.7096  1.7060  1.2934
  993MOL0     H37006   7.165   0.981   1.591  1.1094  0.4516 -0.8396
  993MOL0     H37007   7.210   0.822   1.663  2.4509  3.2095 -0.5531
  993MOL0     H37008   6.967   0.860   1.471 -0.7403  0.4059  3.0250
  993MOL0     H37009   7.054   0.712   1.534  0.8502  0.4615  0.3071
  993MOL0     H37010   7.246   0.756   1.384  1.9080  1.2073  0.1542
  993MOL0     H37011   7.212   0.923   1.376 -0.0362 -1.0115 -2.9062
  993MOL0     H37012   7.168   0.825   1.166  1.0011  0.1284  0.7613
  993MOL0     H37013   7.025   0.898   1.240 -0.3259  0.1255  0.8679
  993MOL0     H37014   6.497   0.773   1.743 -1.6250 -0.3992  2.9176
  993MOL0     H37015   6.285   0.647   1.701 -0.5736 -2.9295  0.8350
  993MOL0     H37016   6.139   0.333   1.253  0.9976  2.9666  1.6630
  993MOL0     H37017   5.936   0.254   1.175 -2.4079  0.1784 -0.0606
  993MOL0     H37018   4.244   0.783   1.994 -3.3247  2.5704  2.4272
  993MOL0     H37019   4.051   0.738   2.125  0.2909 -1.1308  0.3152
  993MOL0     H37020   3.709   0.570   2.389  0.1427 -0.3571 -0.4824
  993MOL0     H37021   3.501   0.534   2.492  1.4440 -0.9815  0.9706
  993MOL0     H37022   3.110   0.700   2.305 -3.9645 -1.5211 -1.3630
  993MOL0     H37023   3.142   0.540   2.241  2.6769  4.2277 -2.5068
  993MOL0     H37024   3.057   0.453   2.467  0.2725 -0.9771 -3.1166
  993MOL0     H37025   2.944   0.557   2.383 -1.4849 -1.0735  2.4747
  993MOL0     H37026   3.122   0.636   2.621 -0.6194  1.9763  1.4530
  993MOL0     H37027   3.012   0.745   2.531 -0.5457 -0.0166  2.1451
  993MOL0     H37028   2.939   0.484   2.670  2.5362  0.6764  1.6666
  993MOL0     H37029   2.823   0.605   2.609  0.0267 -2.7681 -0.6798
  993MOL0     H37030   2.927   0.749   2.996  0.1546 -4.3176  3.0002
  993MOL0     H37031   3.309   0.686   2.127 -0.2179  1.5971  1.1970
  993MOL0     H37032   3.604   0.793   1.964 -0.5581  0.5471  0.8672
  993MOL0     H37033   3.552   0.628   1.894 -2.3127 -1.2953  0.3631
  993MOL0     H37034   3.441   0.753   1.951  0.3008  0.6692  0.1041
  994MOL0     O37035   1.987   9.085   7.070  0.2083 -0.6545  0.2480
  994MOL0     C37036   1.885   9.142   7.039  0.2653  0.5472 -0.4927
  994MOL0     O37037   1.878   9.268   6.976  0.0599  0.4560 -0.0539
  994MOL0     C37038   1.995   9.341   6.974 -0.6713  0.2026  0.2821
  994MOL0     C37039   1.979   9.481   6.992 -0.1336  0.2358  0.0620
  994MOL0     C37040   2.089   9.569   6.972  0.7811 -1.4066 -0.7680
  994MOL0     C37041   2.216   9.532   6.941  0.1446 -0.0622  1.0493
  994MOL0     O37042   2.320   9.619   6.914  0.0504  0.6432 -0.1134
  994MOL0     C37043   2.333   9.733   7.005 -0.7391 -0.4451 -0.6503
  994MOL0     C37044   2.461   9.830   6.983 -0.3823  0.2576  0.5266
  994MOL0     C37045   2.438   9.928   6.864 -0.0425 -0.3924 -0.4586
  994MOL0     C37046   2.561  10.017   6.833  0.4513  0.1183  0.4248
  994MOL0     C37047   2.557  10.071   6.683 -0.6591 -0.2252 -0.3443
  994MOL0     C37048   2.659  10.180   6.644  0.5222  1.2956 -0.1779
  994MOL0     C37049   2.606  10.287   6.547 -0.9037  0.0431 -0.4848
  994MOL0     C37050   2.692  10.410   6.541 -0.8901  0.1866 -0.1197
  994MOL0     N37051   2.840  10.378   6.540  0.9830  0.5345 -0.3579
  994MOL0     C37052   2.900  10.321   6.430 -0.1031 -0.2753 -0.2723
  994MOL0     C37053   3.027  10.317   6.472 -0.2348 -0.2555  0.5591
  994MOL0     C37054   3.151  10.281   6.391  0.0311  0.2202 -0.1867
  994MOL0     C37055   3.246  10.395   6.366 -0.0852  0.2574 -0.1265
  994MOL0     C37056   3.311  10.437   6.505  0.2660  0.4381  0.1743
  994MOL0     C37057   3.454  10.484   6.489  0.3119  0.4041 -0.3119
  994MOL0     O37058   3.539  10.383   6.444  0.3319  0.4355  0.6181
  994MOL0     C37059   3.649  10.354   6.523 -0.3132 -0.1688 -0.0709
  994MOL0     C37060   3.756  10.435   6.536  0.5568 -0.6696 -0.4194
  994MOL0     C37061   3.876  10.399   6.603  0.4567  0.5837  0.9901
  994MOL0     C37062   3.997  10.486   6.593  0.8779 -0.2226 -0.0839
  994MOL0     C37063   3.881  10.271   6.673 -0.1601  0.0906 -0.3427
  994MOL0     C37064   3.996  10.202   6.737  0.0208  0.1890 -0.3146
  994MOL0     O37065   3.987  10.063   6.752  0.3710  0.2226 -0.1740
  994MOL0     C37066   4.094  10.009   6.825 -1.0978 -0.2207  0.4814
  994MOL0     C37067   4.125  10.041   6.958 -0.2995 -0.4883  0.4026
  994MOL0     C37068   4.225   9.972   7.030  0.5929 -0.6284 -0.3693
  994MOL0     C37069   4.277   9.852   6.989  0.3286 -0.1414  0.3359
  994MOL0     O37070   4.362   9.770   7.064  0.1726  0.0111 -0.2579
  994MOL0     C37071   4.335   9.744   7.202  0.2308 -0.1608  0.8169
  994MOL0     C37072   4.201   9.663   7.228 -0.6535 -0.8981  0.7690
  994MOL0     C37073   4.211   9.568   7.350 -0.2329 -1.0025 -0.6159
  994MOL0     C37074   4.085   9.486   7.364  0.2517  0.0956 -0.7222
  994MOL0     C37075   4.073   9.434   7.511 -0.2640  0.0925  0.6974
  994MOL0     C37076   3.938   9.363   7.525  0.3849  0.3841 -0.2956
  994MOL0     C37077   3.814   9.452   7.574  0.2180  0.3265 -0.3558
  994MOL0     C37078   3.689   9.385   7.641 -0.1906 -0.0439 -0.2137
  994MOL0    Cl37079   3.586   9.518   7.711 -0.3414  0.0453  0.0919
  994MOL0     C37080   4.240   9.815   6.860 -0.4371  0.2065 -0.6658
  994MOL0     C37081   4.149   9.887   6.782  0.5051 -0.2813  0.8776
  994MOL0     O37082   4.090  10.266   6.769  0.1510  0.7254  0.5746
  994MOL0     C37083   3.765  10.195   6.659  0.3738 -0.0651 -0.0962
  994MOL0     C37084   3.656  10.232   6.588 -0.2806  0.7337  0.6368
  994MOL0     N37085   3.039  10.357   6.607  0.1833 -0.1696 -0.2244
  994MOL0     N37086   2.919  10.389   6.651  0.6719 -0.7398 -0.1258
  994MOL0     C37087   2.228   9.392   6.905 -0.8873  0.0538 -0.8184
  994MOL0     C37088   2.123   9.299   6.921 -0.4262  0.1246  0.3740
  994MOL0     C37089   1.756   9.063   7.055  0.1495 -0.4357 -0.5780
  994MOL0     C37090   1.769   8.925   7.037  0.1748  0.0037 -0.8981
  994MOL0     C37091   1.649   8.845   7.057  0.0471  0.4850  0.3128
  994MOL0     C37092   1.522   8.904   7.082 -0.0764  0.5615 -0.3269
  994MOL0     O37093   1.397   8.852   7.084 -0.8328  0.2738  0.1049
  994MOL0     C37094   1.375   8.732   7.005  1.0673 -1.0251  0.0925
  994MOL0     C37095   1.247   8.678   7.054 -0.3187  0.1461 -1.1557
  994MOL0     C37096   1.126   8.755   7.020 -0.2319 -0.7158  0.3697
  994MOL0     C37097   1.010   8.678   7.082  0.0296 -0.2390  0.6095
  994MOL0     C37098   0.994   8.679   7.229  0.4286 -0.1855 -0.5594
  994MOL0     C37099   0.994   8.665   7.353  0.6614  0.0361  1.0108
  994MOL0     C37100   1.519   9.039   7.103 -0.0653  0.1574 -0.2608
  994MOL0     C37101   1.629   9.123   7.088 -0.0552  0.8386  0.2335
  994MOL0     C37102   1.612   9.274   7.105 -0.6518 -0.4117  0.0501
  994MOL0     H37103   1.881   9.515   7.024 -0.3195  0.1191 -0.3652
  994MOL0     H37104   2.076   9.677   6.974  0.8222 -1.4119  0.4937
  994MOL0     H37105   2.349   9.694   7.105  1.5921  1.0046 -0.3803
  994MOL0     H37106   2.239   9.789   7.012 -0.8552 -0.6313 -0.7164
  994MOL0     H37107   2.485   9.898   7.065 -0.3808 -1.2420  1.8336
  994MOL0     H37108   2.549   9.769   6.962  0.2034  2.2351 -3.7667
  994MOL0     H37109   2.409   9.872   6.775  0.6186 -1.5883  0.0619
  994MOL0     H37110   2.355   9.989   6.901  0.0020 -0.7777  0.2981
  994MOL0     H37111   2.562  10.108   6.895  1.8445  0.2700  0.2176
  994MOL0     H37112   2.653   9.960   6.850 -0.2381 -0.4106  2.8403
  994MOL0     H37113   2.460  10.119   6.667 -0.4119  1.1189  1.7409
  994MOL0     H37114   2.578   9.993   6.609 -0.0234  2.1084 -2.7735
  994MOL0     H37115   2.695  10.231   6.734  0.0300  0.5822  0.4340
  994MOL0     H37116   2.752  10.136   6.607  0.1682  0.9032 -0.6046
  994MOL0     H37117   2.502  10.309   6.573 -1.2567 -1.9347 -0.0651
  994MOL0     H37118   2.610  10.238   6.449  0.3673 -0.0960 -0.3753
  994MOL0     H37119   2.665  10.470   6.454 -0.1708  2.1599  0.9590
  994MOL0     H37120   2.670  10.480   6.622 -2.5594  0.3441 -0.6746
  994MOL0     H37121   2.856  10.284   6.339  0.4355 -2.3758  0.2795
  994MOL0     H37122   3.124  10.242   6.292 -0.0452 -0.1495 -0.0228
  994MOL0     H37123   3.204  10.202   6.445  0.0050  1.7881  2.2704
  994MOL0     H37124   3.313  10.361   6.287 -3.3865 -1.3272 -2.4620
  994MOL0     H37125   3.194  10.482   6.324  0.0809  0.1051 -0.6549
  994MOL0     H37126   3.242  10.507   6.553  1.0142 -2.2836  6.0482
  994MOL0     H37127   3.319  10.351   6.572 -0.0445  0.1670 -0.1304
  994MOL0     H37128   3.463  10.574   6.428  1.3276 -0.8765 -2.1622
  994MOL0     H37129   3.488  10.515   6.589 -0.8552 -0.5324  0.4087
  994MOL0     H37130   3.749  10.526   6.478 -2.1826 -0.6483 -0.1852
  994MOL0     H37131   3.997  10.548   6.503 -3.1552  1.3115  0.7310
  994MOL0     H37132   4.091  10.431   6.594  0.0882 -1.6434  1.6039
  994MOL0     H37133   4.001  10.559   6.674  0.1767 -0.9665  0.6306
  994MOL0     H37134   4.091  10.137   6.995 -0.6675 -0.6348  0.4567
  994MOL0     H37135   4.240  10.010   7.131 -2.4368 -0.5584  0.1505
  994MOL0     H37136   4.414   9.673   7.227  1.4526  0.9303  0.1579
  994MOL0     H37137   4.356   9.829   7.268  1.0477  1.7543 -1.7765
  994MOL0     H37138   4.121   9.737   7.226 -1.9138 -2.2246 -0.2297
  994MOL0     H37139   4.178   9.606   7.137 -2.0845  0.4906  0.2024
  994MOL0     H37140   4.220   9.625   7.443 -1.9136 -2.1926  0.3332
  994MOL0     H37141   4.285   9.487   7.348  0.8390 -0.0837  0.4923
  994MOL0     H37142   4.084   9.406   7.288 -0.3424 -0.4790 -0.1180
  994MOL0     H37143   3.994   9.543   7.344  0.1040  0.5741  1.1749
  994MOL0     H37144   4.157   9.369   7.533  2.4240  2.3477 -1.9999
  994MOL0     H37145   4.077   9.514   7.586  3.6649 -2.1544  3.2606
  994MOL0     H37146   3.965   9.283   7.596 -0.3045  0.4935  0.0955
  994MOL0     H37147   3.895   9.308   7.440  0.7851 -0.7083  0.1780
  994MOL0     H37148   3.776   9.517   7.495 -0.0390  1.3243  0.5684
  994MOL0     H37149   3.858   9.523   7.645 -1.0819 -0.6103  1.4683
  994MOL0     H37150   3.721   9.318   7.722  1.5063  3.8117  2.6109
  994MOL0     H37151   3.631   9.326   7.570  1.0728 -1.5178 -0.0844
  994MOL0     H37152   4.271   9.723   6.812  0.8100  0.2189  0.0733
  994MOL0     H37153   4.131   9.865   6.678  0.1164 -1.2653  1.1433
  994MOL0     H37154   3.752  10.111   6.728 -0.6651  2.4860  3.0565
  994MOL0     H37155   3.577  10.158   6.590  2.1276 -2.0184  1.7440
  994MOL0     H37156   2.323   9.350   6.873 -1.6827 -2.5675 -0.0380
  994MOL0     H37157   2.133   9.193   6.904 -1.0343  0.2906 -1.1242
  994MOL0     H37158   1.865   8.885   7.007 -1.1974 -2.0327 -2.8883
  994MOL0     H37159   1.652   8.736   7.060 -1.3840  0.4099  4.0929
  994MOL0     H37160   1.364   8.738   6.896  0.3145 -0.3489  0.1922
  994MOL0     H37161   1.457   8.664   7.028  0.2847 -2.1169 -0.2801
  994MOL0     H37162   1.258   8.677   7.163  2.8663  3.4459 -1.2421
  994MOL0     H37163   1.239   8.575   7.020  0.8093 -0.3367 -0.0584
  994MOL0     H37164   1.132   8.859   7.054 -1.4283 -0.9256  1.2946
  994MOL0     H37165   1.108   8.772   6.913  0.5051  0.5107  0.4291
  994MOL0     H37166   1.013   8.573   7.049 -0.8396  0.6737 -2.6680
  994MOL0     H37167   0.920   8.724   7.039  1.2406  0.3132 -1.4741
  994MOL0     H37168   0.997   8.652   7.459  2.0456 -0.3339  0.9530
  994MOL0     H37169   1.422   9.072   7.138 -0.2149 -2.0365  1.6316
  994MOL0     H37170   1.579   9.323   7.013  2.4724  0.8818 -0.4906
  994MOL0     H37171   1.536   9.298   7.179  0.4006  0.2283  0.9409
  994MOL0     H37172   1.693   9.338   7.141 -0.8067 -0.7682  1.0448
  995MOL0     O37173   0.802   1.792   1.078  0.1991 -0.5441  0.2554
  995MOL0     C37174   0.839   1.680   1.109  0.1185 -0.2248  0.3682
  995MOL0     O37175   0.972   1.645   1.120  0.0437 -0.2441  0.3752
  995MOL0     C37176   1.067   1.743   1.096 -1.2725 -0.3376  0.2130
  995MOL0     C37177   1.198   1.727   1.165 -0.0548  0.4813  0.2343
  995MOL0     C37178   1.296   1.825   1.150  0.5756 -0.2984 -0.1918
  995MOL0     C37179   1.286   1.925   1.051 -0.7504  0.6625  0.0635
  995MOL0     O37180   1.391   2.013   1.035 -0.0087  0.1896  0.2629
  995MOL0     C37181   1.382   2.120   0.934  0.3828 -0.4044  0.0007
  995MOL0     C37182   1.508   2.203   0.922 -0.2769  0.0340  0.3724
  995MOL0     C37183   1.627   2.148   0.846  0.0636  0.4340  0.3173
  995MOL0     C37184   1.738   2.252   0.842 -0.0475  0.2278  0.4987
  995MOL0     C37185   1.822   2.230   0.714 -0.2259  0.0255 -0.1292
  995MOL0     C37186   1.792   2.328   0.597  0.4107  1.0320 -0.3688
  995MOL0     C37187   1.647   2.311   0.546 -0.1934 -0.3996 -0.0967
  995MOL0     C37188   1.624   2.400   0.426 -0.2261  0.1129 -0.2051
  995MOL0     N37189   1.727   2.378   0.329 -0.8931 -0.4700 -0.0070
  995MOL0     C37190   1.731   2.271   0.244  0.1453  0.3018  0.4768
  995MOL0     C37191   1.824   2.313   0.148  1.1036 -0.2140 -0.9003
  995MOL0     C37192   1.858   2.239   0.031 -0.0490 -1.1001  0.4550
  995MOL0     C37193   1.987   2.291  -0.043 -0.4625  0.5278  0.0612
  995MOL0     C37194   2.035   2.184  -0.134 -0.0056  0.2218 -0.1265
  995MOL0     C37195   2.179   2.207  -0.186  0.4815  0.0031 -0.2607
  995MOL0     O37196   2.190   2.341  -0.249 -0.0580  0.5425 -0.6579
  995MOL0     C37197   2.311   2.388  -0.288  0.4265  0.4084 -0.5996
  995MOL0     C37198   2.324   2.523  -0.312  0.2859 -0.8496  1.0779
  995MOL0     C37199   2.441   2.589  -0.357 -0.3922 -0.6665  1.3915
  995MOL0     C37200   2.445   2.740  -0.393 -0.0790 -1.4488 -0.0865
  995MOL0     C37201   2.561   2.514  -0.356  0.0690  0.6699  0.5861
  995MOL0     C37202   2.688   2.568  -0.387  0.4435 -0.0634  0.8837
  995MOL0     O37203   2.750   2.516  -0.499 -0.2244 -0.8348  0.6739
  995MOL0     C37204   2.885   2.551  -0.524 -0.4952 -0.6454  0.0630
  995MOL0     C37205   2.986   2.575  -0.418 -0.7549  0.8090 -0.6920
  995MOL0     C37206   3.124   2.597  -0.452  0.0037  0.4244 -0.2093
  995MOL0     C37207   3.169   2.604  -0.584 -0.1066 -0.4231  0.8776
  995MOL0     O37208   3.296   2.631  -0.610 -0.3842  0.3743 -0.0679
  995MOL0     C37209   3.358   2.591  -0.734 -0.0044  0.0681  0.0125
  995MOL0     C37210   3.502   2.539  -0.719 -0.2083 -0.6746  0.0013
  995MOL0     C37211   3.588   2.640  -0.650  0.7061 -0.7821  0.9718
  995MOL0     C37212   3.745   2.604  -0.652  0.0301  0.2750  0.3682
  995MOL0     C37213   3.814   2.711  -0.564 -0.3430  1.5049 -0.0165
  995MOL0     C37214   3.968   2.691  -0.581  0.1914 -0.2978 -0.1354
  995MOL0     C37215   4.027   2.562  -0.532 -0.2306 -0.4987  0.1899
  995MOL0     C37216   4.178   2.582  -0.508  0.0662  0.0902 -0.2756
  995MOL0    Cl37217   4.271   2.428  -0.481  0.4134 -0.2654  0.1913
  995MOL0     C37218   3.065   2.599  -0.683  0.2525  0.4178  0.1545
  995MOL0     C37219   2.934   2.561  -0.656  0.4465  0.3523  0.4040
  995MOL0     O37220   2.731   2.656  -0.314  1.2708 -0.1185 -0.0170
  995MOL0     C37221   2.551   2.379  -0.326 -0.9255  0.4650 -0.1352
  995MOL0     C37222   2.430   2.319  -0.299 -0.2466  0.6390  0.7340
  995MOL0     N37223   1.881   2.432   0.193 -0.7525 -0.3447 -0.6127
  995MOL0     N37224   1.817   2.476   0.291  0.6737  0.4821 -0.0579
  995MOL0     C37225   1.171   1.931   0.972  0.2114  1.2998  0.1936
  995MOL0     C37226   1.063   1.837   0.986 -0.3898  1.1988  0.8780
  995MOL0     C37227   0.743   1.574   1.148  0.1757  0.1313 -0.0496
  995MOL0     C37228   0.786   1.443   1.158  0.3519  0.1083 -0.1350
  995MOL0     C37229   0.699   1.335   1.188  0.2967  0.5972  0.6935
  995MOL0     C37230   0.563   1.359   1.204 -0.2160  0.2142 -0.0322
  995MOL0     O37231   0.481   1.253   1.212  0.2132  0.2293  0.2891
  995MOL0     C37232   0.369   1.262   1.302 -0.1518  0.4314  0.4291
  995MOL0     C37233   0.285   1.143   1.312 -0.1678  0.5385 -0.1177
  995MOL0     C37234   0.267   1.059   1.180 -1.2110  0.0260 -0.2001
  995MOL0     C37235   0.378   0.947   1.161  0.6272 -0.0251 -0.3424
  995MOL0     C37236   0.334   0.865   1.044  0.2497  0.4706 -1.0018
  995MOL0     C37237   0.296   0.799   0.952  0.3568 -0.7401 -1.4241
  995MOL0     C37238   0.525   1.487   1.210 -0.1414 -0.7167 -0.4151
  995MOL0     C37239   0.605   1.594   1.175 -0.3928 -0.2852 -0.0585
  995MOL0     C37240   0.528   1.721   1.156 -0.7307 -0.3521 -0.8716
  995MOL0     H37241   1.218   1.650   1.238 -1.1559  0.0068  0.0596
  995MOL0     H37242   1.391   1.818   1.203 -0.9467 -1.1124  2.5851
  995MOL0     H37243   1.306   2.190   0.969 -0.6862 -1.8464  0.6902
  995MOL0     H37244   1.349   2.094   0.834  1.3308 -0.4387 -0.3159
  995MOL0     H37245   1.489   2.303   0.883  0.3419  0.8522  2.0607
  995MOL0     H37246   1.545   2.228   1.022  0.8553  2.9860 -0.6516
  995MOL0     H37247   1.661   2.054   0.891 -2.5380  0.2973  2.2230
  995MOL0     H37248   1.591   2.120   0.746  0.7717  1.1935 -0.1634
  995MOL0     H37249   1.696   2.353   0.838  0.2024  0.3645  1.2483
  995MOL0     H37250   1.801   2.232   0.929 -1.0087 -0.6733  1.0148
  995MOL0     H37251   1.813   2.130   0.672 -2.8619  0.6026 -1.1391
  995MOL0     H37252   1.926   2.258   0.734  0.7848 -1.7975 -2.3994
  995MOL0     H37253   1.806   2.433   0.627 -0.0796  1.4660 -1.6023
  995MOL0     H37254   1.871   2.305   0.525  0.3654 -1.6619  0.3333
  995MOL0     H37255   1.585   2.331   0.634 -1.5287  1.3132 -1.3572
  995MOL0     H37256   1.644   2.208   0.510  1.6963  0.4827 -3.1425
  995MOL0     H37257   1.522   2.380   0.390 -1.5958  0.2023  3.2437
  995MOL0     H37258   1.615   2.506   0.452  2.2444  0.3281  0.0113
  995MOL0     H37259   1.667   2.184   0.238  1.2669 -0.6292  1.5989
  995MOL0     H37260   1.771   2.246  -0.034  0.2605  0.6815  0.1759
  995MOL0     H37261   1.879   2.136   0.060 -0.2504 -0.8409  1.5728
  995MOL0     H37262   1.976   2.383  -0.102  1.4426 -0.0276 -1.2218
  995MOL0     H37263   2.068   2.309   0.029  1.6790 -1.3414 -1.7307
  995MOL0     H37264   2.027   2.081  -0.100  1.1331 -0.0258 -0.5563
  995MOL0     H37265   1.973   2.194  -0.223 -1.8556  0.9166  1.1857
  995MOL0     H37266   2.240   2.200  -0.096 -2.0384 -3.0554  1.3968
  995MOL0     H37267   2.204   2.128  -0.258  0.7716 -0.4750  0.3507
  995MOL0     H37268   2.246   2.598  -0.316  0.8515 -0.2879 -1.3220
  995MOL0     H37269   2.345   2.785  -0.395 -0.4080 -2.1294 -3.0081
  995MOL0     H37270   2.503   2.753  -0.485  0.1997 -2.0433  0.0045
  995MOL0     H37271   2.514   2.789  -0.324  0.7279 -2.1729 -0.3706
  995MOL0     H37272   2.966   2.566  -0.312  0.1385  0.0715 -0.5721
  995MOL0     H37273   3.195   2.618  -0.373 -0.3712  3.9910 -0.6794
  995MOL0     H37274   3.296   2.522  -0.791  0.1007  0.8013 -1.0229
  995MOL0     H37275   3.357   2.683  -0.794  2.2390  0.2228  0.1162
  995MOL0     H37276   3.507   2.455  -0.650 -1.5007  0.4250  1.4879
  995MOL0     H37277   3.541   2.527  -0.821  1.6295  1.7688  0.3163
  995MOL0     H37278   3.556   2.637  -0.546  2.0992  1.5972  1.5400
  995MOL0     H37279   3.574   2.741  -0.689  4.5599 -1.3588 -2.6927
  995MOL0     H37280   3.781   2.600  -0.756 -2.6886  0.4584 -0.6763
  995MOL0     H37281   3.765   2.504  -0.613 -0.6324  0.0329  0.1107
  995MOL0     H37282   3.791   2.816  -0.587 -1.3274  1.4730  0.7208
  995MOL0     H37283   3.785   2.699  -0.459  1.9016  4.1436  1.0481
  995MOL0     H37284   4.001   2.778  -0.524  0.2179 -0.5117  0.1760
  995MOL0     H37285   3.992   2.702  -0.687  0.2196  0.7083 -0.0288
  995MOL0     H37286   4.016   2.479  -0.603  1.2538  0.2382 -0.9778
  995MOL0     H37287   3.984   2.541  -0.434  2.1952  1.1328  1.7312
  995MOL0     H37288   4.194   2.652  -0.425 -2.9017 -0.2628  0.7383
  995MOL0     H37289   4.216   2.630  -0.599 -1.8313  0.2216 -1.0406
  995MOL0     H37290   3.092   2.606  -0.788  0.7156 -1.9729  0.0554
  995MOL0     H37291   2.868   2.560  -0.743  0.6160  1.4489  0.2455
  995MOL0     H37292   2.643   2.321  -0.324 -2.8260 -3.0363 -2.1752
  995MOL0     H37293   2.442   2.211  -0.293 -0.2477  0.2399 -3.5532
  995MOL0     H37294   1.152   2.012   0.902  2.7495  2.5274  0.8060
  995MOL0     H37295   0.977   1.837   0.919 -1.5235 -1.6081  2.1492
  995MOL0     H37296   0.885   1.402   1.138 -0.8026 -2.6777 -0.6818
  995MOL0     H37297   0.731   1.232   1.199  2.2519  1.1667  0.7441
  995MOL0     H37298   0.404   1.289   1.403  0.4509 -1.1932  0.6822
  995MOL0     H37299   0.298   1.336   1.264 -0.3575 -0.6686 -1.4641
  995MOL0     H37300   0.183   1.162   1.346 -0.1477  0.8493 -0.2326
  995MOL0     H37301   0.333   1.077   1.385 -1.7647 -1.6377 -0.9128
  995MOL0     H37302   0.171   1.007   1.189  1.0900 -4.6286  0.2787
  995MOL0     H37303   0.259   1.126   1.093 -0.0459  0.7795  0.2509
  995MOL0     H37304   0.397   0.882   1.247  0.6037 -0.5332 -0.7170
  995MOL0     H37305   0.471   0.992   1.126 -0.7294  0.6312 -3.5333
  995MOL0     H37306   0.270   0.733   0.871 -1.3875 -0.0958 -1.4233
  995MOL0     H37307   0.425   1.514   1.243  0.2539 -0.0811  0.2810
  995MOL0     H37308   0.486   1.731   1.056 -0.5336  1.5950 -0.8014
  995MOL0     H37309   0.446   1.733   1.227  0.7474  0.9410  0.7164
  995MOL0     H37310   0.594   1.807   1.172  0.5292 -1.7977  2.9275
  996MOL0     O37311   3.157   4.008   8.308  0.1583  0.4114  0.6266
  996MOL0     C37312   3.136   4.107   8.240  0.5142  0.9071  0.9708
  996MOL0     O37313   3.141   4.118   8.104 -0.3717  0.6705 -0.0126
  996MOL0     C37314   3.141   4.007   8.026  0.3584 -0.2461 -0.3328
  996MOL0     C37315   3.082   3.881   8.057 -0.2105 -0.6929 -0.7743
  996MOL0     C37316   3.083   3.779   7.965 -0.0135  0.5130 -0.3948
  996MOL0     C37317   3.149   3.788   7.844 -0.4786  0.2136 -0.5572
  996MOL0     O37318   3.150   3.692   7.753  0.3527  0.5887  0.2077
  996MOL0     C37319   3.023   3.649   7.698  0.1693  0.7469  0.5357
  996MOL0     C37320   3.047   3.550   7.577  0.4581 -0.2260 -1.1750
  996MOL0     C37321   3.131   3.427   7.613 -0.0210  0.1108 -0.1135
  996MOL0     C37322   3.070   3.342   7.726 -0.1785 -0.4313 -0.3247
  996MOL0     C37323   3.125   3.201   7.732  0.1817 -0.7099  0.0450
  996MOL0     C37324   3.088   3.104   7.842  0.4149  0.7023  0.1908
  996MOL0     C37325   3.152   3.141   7.976  0.5621  0.0334 -0.0570
  996MOL0     C37326   3.120   3.034   8.077 -0.0255  0.1429 -0.5521
  996MOL0     N37327   3.209   3.036   8.193 -0.5193  0.7879  0.0599
  996MOL0     C37328   3.223   3.148   8.270 -0.4056  0.2926 -0.2494
  996MOL0     C37329   3.306   3.101   8.368  0.3119 -0.4885 -0.5284
  996MOL0     C37330   3.344   3.200   8.483 -0.1893 -0.4922 -0.2263
  996MOL0     C37331   3.494   3.202   8.501 -0.3877  0.6266  0.1833
  996MOL0     C37332   3.553   3.299   8.601 -0.1019  0.8133 -0.4197
  996MOL0     C37333   3.706   3.277   8.613 -0.9933 -0.2538 -0.2744
  996MOL0     O37334   3.767   3.255   8.483  0.0584  0.9723  0.0913
  996MOL0     C37335   3.904   3.249   8.482  1.0231  0.2246 -0.1582
  996MOL0     C37336   3.965   3.176   8.377  0.5581 -0.5945 -0.4292
  996MOL0     C37337   4.102   3.166   8.357  0.6696  0.5233  0.3884
  996MOL0     C37338   4.145   3.086   8.241  1.1897  0.3122  0.8672
  996MOL0     C37339   4.191   3.232   8.449 -0.1558  0.1647  0.7460
  996MOL0     C37340   4.334   3.247   8.423 -0.1245  0.4052  0.0325
  996MOL0     O37341   4.402   3.341   8.500  0.5055  0.0609 -0.1478
  996MOL0     C37342   4.540   3.348   8.489 -0.5631  0.2071 -0.0241
  996MOL0     C37343   4.613   3.229   8.520 -0.2588 -0.6219  0.4434
  996MOL0     C37344   4.755   3.238   8.523 -0.1688  0.4531  0.7161
  996MOL0     C37345   4.823   3.356   8.501 -0.2452 -0.7652 -1.0585
  996MOL0     O37346   4.961   3.350   8.513  0.3988 -0.1598  0.4197
  996MOL0     C37347   5.033   3.468   8.475 -0.1655  0.0032  0.1731
  996MOL0     C37348   5.186   3.440   8.517  0.0491 -0.5399 -0.5412
  996MOL0     C37349   5.278   3.535   8.442 -0.1430  0.2265 -0.2114
  996MOL0     C37350   5.234   3.681   8.467  0.9137 -0.9819 -0.7548
  996MOL0     C37351   5.321   3.785   8.403 -0.1308  0.0520  0.2080
  996MOL0     C37352   5.260   3.922   8.441  0.3248 -0.0963 -0.6794
  996MOL0     C37353   5.344   4.038   8.384  0.1154 -1.1670 -0.5118
  996MOL0     C37354   5.317   4.183   8.426 -0.0107  0.2518  0.8395
  996MOL0    Cl37355   5.143   4.223   8.369 -0.4180 -0.4084  0.1636
  996MOL0     C37356   4.750   3.471   8.465  0.1568  0.3130 -1.0770
  996MOL0     C37357   4.606   3.472   8.468  0.5431  0.3202 -0.1134
  996MOL0     O37358   4.388   3.179   8.335 -0.2178 -0.0530  0.1820
  996MOL0     C37359   4.130   3.306   8.550 -0.5422 -0.5879  0.1178
  996MOL0     C37360   3.995   3.325   8.566  0.2019 -0.0647 -0.1609
  996MOL0     N37361   3.354   2.974   8.337  0.3381  0.4416  0.7018
  996MOL0     N37362   3.292   2.936   8.232  0.5865 -0.6372  0.6788
  996MOL0     C37363   3.208   3.911   7.806  0.2997 -0.2578 -0.2073
  996MOL0     C37364   3.206   4.016   7.904  0.5904  0.1168 -0.2450
  996MOL0     C37365   3.124   4.238   8.315 -0.6255 -0.4411 -0.5009
  996MOL0     C37366   3.122   4.355   8.234 -0.6478 -0.1148  0.2216
  996MOL0     C37367   3.114   4.489   8.281  0.0267 -0.2428 -0.4367
  996MOL0     C37368   3.130   4.510   8.415 -0.3141  1.5636 -1.1898
  996MOL0     O37369   3.132   4.634   8.470  0.8006 -0.1444 -0.8977
  996MOL0     C37370   3.260   4.684   8.499 -0.5411 -0.5610  0.0599
  996MOL0     C37371   3.260   4.752   8.636 -1.6268  0.6261 -0.1100
  996MOL0     C37372   3.224   4.678   8.764  1.2308  0.0267  0.2753
  996MOL0     C37373   3.311   4.551   8.787  0.0970  0.2966 -0.0016
  996MOL0     C37374   3.247   4.447   8.859  0.0679  0.7871  0.1742
  996MOL0     C37375   3.185   4.369   8.937 -0.0144  0.3247 -0.0401
  996MOL0     C37376   3.136   4.395   8.495 -0.6604 -0.6977 -0.0398
  996MOL0     C37377   3.130   4.262   8.459  0.7535  0.9166  0.1993
  996MOL0     C37378   3.116   4.160   8.562 -0.1080 -1.4732  0.7330
  996MOL0     H37379   3.009   3.886   8.138  0.8059  2.2627  0.1007
  996MOL0     H37380   3.028   3.687   7.982  2.1491 -1.5523 -3.4790
  996MOL0     H37381   2.958   3.733   7.672 -1.5191  0.1428  2.5479
  996MOL0     H37382   2.964   3.595   7.773 -0.1393 -2.3875 -1.7325
  996MOL0     H37383   2.946   3.526   7.543 -0.6209  2.2552  0.0269
  996MOL0     H37384   3.098   3.616   7.507  0.5265  3.6782  2.1774
  996MOL0     H37385   3.141   3.357   7.529 -0.1363 -0.0107 -0.0269
  996MOL0     H37386   3.235   3.455   7.632  1.1735 -3.6375 -0.2306
  996MOL0     H37387   3.087   3.394   7.820 -0.0343 -0.2154 -0.4676
  996MOL0     H37388   2.964   3.333   7.702 -0.1720 -0.0086 -0.5458
  996MOL0     H37389   3.234   3.202   7.739  0.2672 -1.1547 -0.9986
  996MOL0     H37390   3.092   3.166   7.634  0.5588 -0.1708 -0.2841
  996MOL0     H37391   2.982   3.087   7.866  0.4461 -0.0949 -0.1928
  996MOL0     H37392   3.128   3.007   7.811 -1.9485  0.3053 -2.0487
  996MOL0     H37393   3.115   3.238   8.012 -2.4338 -0.7889 -0.6273
  996MOL0     H37394   3.260   3.154   7.966  0.6246  1.4917  1.9154
  996MOL0     H37395   3.016   3.044   8.111  1.0141  0.6304  2.8917
  996MOL0     H37396   3.125   2.933   8.037 -0.3302 -1.5327  3.2101
  996MOL0     H37397   3.168   3.242   8.268  1.7643  1.6219 -0.3760
  996MOL0     H37398   3.283   3.175   8.571 -2.1308  4.3274  0.1071
  996MOL0     H37399   3.316   3.303   8.460  2.2118 -0.1125 -1.7601
  996MOL0     H37400   3.521   3.101   8.531 -0.3275  0.9658  1.3221
  996MOL0     H37401   3.544   3.218   8.406  0.0079 -1.8891 -0.1033
  996MOL0     H37402   3.531   3.403   8.575  1.7339  2.2005  2.9574
  996MOL0     H37403   3.516   3.283   8.703  0.2476  2.6150  0.0323
  996MOL0     H37404   3.747   3.360   8.672  2.5687 -0.5850 -2.0360
  996MOL0     H37405   3.735   3.185   8.665  1.6411 -0.6006 -2.1956
  996MOL0     H37406   3.897   3.130   8.306 -1.1097 -2.6702  2.2867
  996MOL0     H37407   4.234   3.023   8.252  1.2501 -0.2581 -2.1001
  996MOL0     H37408   4.156   3.147   8.150 -0.7605  0.3046  0.5925
  996MOL0     H37409   4.063   3.021   8.211 -0.7585  4.0407 -2.9125
  996MOL0     H37410   4.560   3.134   8.514  0.8269 -1.1515 -2.1814
  996MOL0     H37411   4.821   3.153   8.540 -1.4278 -0.6215  0.3391
  996MOL0     H37412   5.022   3.468   8.366  0.8286 -0.7787  0.0642
  996MOL0     H37413   4.992   3.555   8.528 -0.0346  0.7627 -0.9182
  996MOL0     H37414   5.209   3.439   8.624  0.8588  1.0724 -0.6750
  996MOL0     H37415   5.215   3.339   8.486  1.4523 -0.7942  1.3913
  996MOL0     H37416   5.276   3.511   8.336 -0.4744  1.3472 -0.4703
  996MOL0     H37417   5.381   3.515   8.473 -0.2024  0.4795  0.1692
  996MOL0     H37418   5.244   3.699   8.574 -0.1479 -3.1105 -0.2449
  996MOL0     H37419   5.130   3.700   8.438  1.2818 -0.9792 -2.1503
  996MOL0     H37420   5.421   3.765   8.443 -0.6094  1.3107  2.1630
  996MOL0     H37421   5.321   3.767   8.295  0.4435 -0.5622  0.3018
  996MOL0     H37422   5.268   3.926   8.550  3.1150 -0.2877 -0.8179
  996MOL0     H37423   5.154   3.924   8.414  0.5115 -0.8744 -1.5138
  996MOL0     H37424   5.333   4.036   8.275  0.3189  1.2229 -0.6425
  996MOL0     H37425   5.452   4.022   8.398  0.4721 -2.3241 -3.6914
  996MOL0     H37426   5.387   4.251   8.377 -2.7484  1.8986 -1.0573
  996MOL0     H37427   5.322   4.202   8.534 -0.5620  0.4603  0.8340
  996MOL0     H37428   4.796   3.559   8.421  3.3361 -0.8115 -0.2354
  996MOL0     H37429   4.547   3.562   8.459 -2.1689 -1.2000  1.1712
  996MOL0     H37430   4.189   3.372   8.614 -1.1454  1.5675 -1.4259
  996MOL0     H37431   3.968   3.400   8.639  2.2551 -1.4394  2.1722
  996MOL0     H37432   3.244   3.929   7.705 -1.0658  0.1444 -0.6477
  996MOL0     H37433   3.229   4.113   7.862  1.1347 -0.5947 -1.6493
  996MOL0     H37434   3.117   4.340   8.127  1.3821 -0.0457  0.0827
  996MOL0     H37435   3.080   4.572   8.219  0.7614 -0.1565 -0.7321
  996MOL0     H37436   3.337   4.607   8.488 -1.6411 -1.9317  1.5179
  996MOL0     H37437   3.286   4.765   8.430  0.6243  0.9639  2.1632
  996MOL0     H37438   3.209   4.848   8.643  1.0080  2.1612 -0.6064
  996MOL0     H37439   3.362   4.790   8.648 -1.3410 -0.2277  0.1951
  996MOL0     H37440   3.227   4.737   8.856 -0.2345 -0.3429  0.5801
  996MOL0     H37441   3.120   4.652   8.744  0.6649  1.2159  1.5684
  996MOL0     H37442   3.400   4.578   8.845  0.8106 -0.4331 -0.7112
  996MOL0     H37443   3.341   4.497   8.696  1.1678 -0.4917  0.7846
  996MOL0     H37444   3.131   4.306   9.005  0.6668  0.0312  0.2464
  996MOL0     H37445   3.145   4.421   8.600 -1.8464  0.2931 -0.1634
  996MOL0     H37446   3.015   4.120   8.551 -1.3107  1.4647  0.0307
  996MOL0     H37447   3.191   4.083   8.542 -1.3263 -2.1712 -1.4963
  996MOL0     H37448   3.121   4.197   8.665  0.3075  1.2970 -0.2041
  997MOL0     O37449   1.818   4.349   0.133 -0.0064  0.0986 -0.6312
  997MOL0     C37450   1.826   4.252   0.061  0.3262  0.5107  0.8854
  997MOL0     O37451   1.718   4.171   0.045 -0.5377 -0.8863  0.3152
  997MOL0     C37452   1.601   4.202   0.119  0.2010 -0.1235 -0.0615
  997MOL0     C37453   1.484   4.225   0.045  0.3830 -0.3473  0.5132
  997MOL0     C37454   1.363   4.260   0.111 -0.2097  0.8012 -1.4054
  997MOL0     C37455   1.359   4.267   0.254  1.1085 -0.8468 -0.1330
  997MOL0     O37456   1.250   4.313   0.326 -0.3426  0.3927  0.1260
  997MOL0     C37457   1.128   4.308   0.247 -0.9186  0.0904 -0.9949
  997MOL0     C37458   0.999   4.350   0.318  0.0513 -0.2381  0.2430
  997MOL0     C37459   0.975   4.501   0.292 -0.3519  0.2423 -0.3776
  997MOL0     C37460   0.853   4.540   0.387  0.9039  0.9846  0.4246
  997MOL0     C37461   0.715   4.481   0.355 -0.5653  0.2421  0.6282
  997MOL0     C37462   0.661   4.498   0.217  0.5881 -0.2502 -1.1604
  997MOL0     C37463   0.500   4.504   0.210 -0.1686  0.2009  0.7925
  997MOL0     C37464   0.441   4.641   0.252 -0.5401 -0.5771  0.2918
  997MOL0     N37465   0.308   4.660   0.201  0.2353 -0.2451  0.4301
  997MOL0     C37466   0.252   4.781   0.155 -0.0032 -0.0028 -0.3277
  997MOL0     C37467   0.132   4.753   0.103  0.5131  0.2883  0.9465
  997MOL0     C37468   0.041   4.831   0.013  0.4121  0.1394 -0.0872
  997MOL0     C37469   0.108   4.889  -0.116  0.9214  0.6968 -0.0546
  997MOL0     C37470   0.137   4.786  -0.229  0.3151 -0.5221 -0.3813
  997MOL0     C37471   0.271   4.716  -0.196 -0.5116 -0.5064 -0.0725
  997MOL0     O37472   0.380   4.807  -0.159  0.3598 -0.4151  0.3710
  997MOL0     C37473   0.501   4.761  -0.129  0.0335  0.6703  1.0600
  997MOL0     C37474   0.574   4.824  -0.030 -0.3874 -0.2026 -0.0824
  997MOL0     C37475   0.703   4.786   0.002  0.0096  0.9586 -0.8137
  997MOL0     C37476   0.767   4.854   0.119  0.2266  0.0668 -1.2574
  997MOL0     C37477   0.773   4.699  -0.088 -0.9454 -0.2002  0.2411
  997MOL0     C37478   0.916   4.661  -0.071  0.5103  0.4238 -1.2487
  997MOL0     O37479   1.003   4.750  -0.030 -0.0076 -0.6059  0.1343
  997MOL0     C37480   1.121   4.730   0.033  0.0574 -0.0400  0.0839
  997MOL0     C37481   1.175   4.848   0.097  0.5465  0.3389 -0.3233
  997MOL0     C37482   1.298   4.839   0.165  0.5299  0.3181  0.0259
  997MOL0     C37483   1.370   4.723   0.163 -0.0763  1.4762  1.4011
  997MOL0     O37484   1.497   4.727   0.216  0.3856 -0.2919  0.3353
  997MOL0     C37485   1.550   4.602   0.268  0.1942 -0.0454 -0.0914
  997MOL0     C37486   1.679   4.626   0.358  0.0223 -0.1108  0.8196
  997MOL0     C37487   1.689   4.542   0.492 -0.1514  0.1245 -0.4591
  997MOL0     C37488   1.731   4.629   0.606  0.7990 -0.0353 -0.8673
  997MOL0     C37489   1.872   4.680   0.596 -0.2989 -1.2577  0.5314
  997MOL0     C37490   1.967   4.581   0.649 -1.1057  0.9037  0.1605
  997MOL0     C37491   2.113   4.625   0.649  0.4364 -0.0730  0.6417
  997MOL0     C37492   2.173   4.672   0.515 -0.1536  0.5460 -0.3669
  997MOL0    Cl37493   2.153   4.546   0.396  0.2507  0.4959 -0.0463
  997MOL0     C37494   1.315   4.607   0.097  0.7106 -0.5455 -0.2264
  997MOL0     C37495   1.191   4.615   0.035 -0.5115 -0.0884  0.5803
  997MOL0     O37496   0.932   4.537  -0.080 -0.0740  0.9191 -0.3288
  997MOL0     C37497   0.706   4.650  -0.198 -0.3863  0.4474  0.2312
  997MOL0     C37498   0.571   4.674  -0.219 -0.3751  0.7076  0.4949
  997MOL0     N37499   0.102   4.624   0.148 -0.4160  0.7419 -0.4755
  997MOL0     N37500   0.208   4.568   0.200 -0.0066  0.5810  0.3936
  997MOL0     C37501   1.479   4.257   0.321  0.9769  0.5135  0.4137
  997MOL0     C37502   1.594   4.224   0.258 -0.4545  0.6892 -0.3098
  997MOL0     C37503   1.949   4.221  -0.011 -0.1001 -0.6423 -0.2848
  997MOL0     C37504   1.936   4.131  -0.115 -0.5015 -0.9475 -0.2213
  997MOL0     C37505   2.050   4.092  -0.187  0.3225 -0.5305  0.4313
  997MOL0     C37506   2.171   4.150  -0.156 -0.1368  0.1172  0.3020
  997MOL0     O37507   2.281   4.132  -0.235  0.2387  0.9307 -0.3275
  997MOL0     C37508   2.275   4.035  -0.337  0.0189  0.6570 -1.4401
  997MOL0     C37509   2.407   4.033  -0.409 -0.0080  0.2522  0.7127
  997MOL0     C37510   2.516   3.975  -0.321 -0.6691 -0.4870 -0.6980
  997MOL0     C37511   2.643   3.972  -0.394 -0.5809  1.0538  0.2501
  997MOL0     C37512   2.744   3.968  -0.287  0.2368 -0.5616  0.8552
  997MOL0     C37513   2.815   3.988  -0.192  0.1246 -0.3346 -0.5931
  997MOL0     C37514   2.182   4.242  -0.048 -0.4449  0.8474 -0.3337
  997MOL0     C37515   2.071   4.277   0.031 -0.1863 -0.6411 -0.0434
  997MOL0     C37516   2.097   4.354   0.155 -0.9294  0.0113  0.4854
  997MOL0     H37517   1.492   4.226  -0.064 -2.2100 -3.1967  0.1718
  997MOL0     H37518   1.287   4.307   0.049  0.5200  3.5422 -0.3498
  997MOL0     H37519   1.118   4.201   0.225 -2.6246 -0.2499  1.1129
  997MOL0     H37520   1.122   4.368   0.156  1.9411 -0.8959 -1.9411
  997MOL0     H37521   0.918   4.281   0.292 -0.1714 -0.4667  1.4964
  997MOL0     H37522   1.004   4.337   0.426  0.7113 -0.2727  0.2144
  997MOL0     H37523   1.055   4.571   0.315 -0.6386  0.7506 -0.8678
  997MOL0     H37524   0.950   4.510   0.185  1.9031  1.1911 -0.8813
  997MOL0     H37525   0.867   4.533   0.495  0.3734  2.6026  0.6185
  997MOL0     H37526   0.836   4.648   0.384 -0.7269  0.7624 -2.2269
  997MOL0     H37527   0.643   4.511   0.433 -1.2092 -1.8434  0.8975
  997MOL0     H37528   0.732   4.373   0.353 -1.5017 -0.1173  4.3184
  997MOL0     H37529   0.711   4.588   0.180  2.8250 -0.0356  1.9830
  997MOL0     H37530   0.696   4.407   0.168 -3.0550 -4.5033  3.0590
  997MOL0     H37531   0.455   4.423   0.268 -0.7098 -0.9013 -1.1082
  997MOL0     H37532   0.483   4.481   0.105  0.4043  1.9245  0.2822
  997MOL0     H37533   0.453   4.647   0.361 -0.7365 -3.8839  0.5964
  997MOL0     H37534   0.500   4.718   0.201 -1.1696 -0.5357 -0.3843
  997MOL0     H37535   0.304   4.875   0.141  1.9676 -0.7121  1.5871
  997MOL0     H37536   0.002   4.913   0.074  2.6551  0.6392  0.7769
  997MOL0     H37537  -0.047   4.772  -0.014 -0.1496  0.0923  1.7085
  997MOL0     H37538   0.029   4.950  -0.161  0.3294 -0.6476 -0.9055
  997MOL0     H37539   0.189   4.955  -0.084 -0.0640  0.9043  2.2577
  997MOL0     H37540   0.059   4.711  -0.237  0.4355 -0.5451 -1.4418
  997MOL0     H37541   0.135   4.846  -0.320 -1.5214  0.8478  0.4906
  997MOL0     H37542   0.263   4.647  -0.112  0.4788  2.2559  2.4696
  997MOL0     H37543   0.299   4.661  -0.286  0.3653  0.5574 -0.4604
  997MOL0     H37544   0.517   4.887   0.037  0.7997 -0.0080  0.7905
  997MOL0     H37545   0.694   4.884   0.195 -0.4616  1.4589 -2.4067
  997MOL0     H37546   0.833   4.939   0.096  1.2511 -0.7105 -1.2387
  997MOL0     H37547   0.825   4.781   0.176 -0.4521  2.0222  2.2353
  997MOL0     H37548   1.127   4.944   0.085 -0.4715 -0.2890 -1.6249
  997MOL0     H37549   1.346   4.928   0.205  4.1779 -0.0953 -2.8689
  997MOL0     H37550   1.485   4.544   0.334  1.9039 -4.1358 -1.6782
  997MOL0     H37551   1.565   4.535   0.183 -1.0686 -0.9951  0.4098
  997MOL0     H37552   1.763   4.593   0.296 -1.4198  1.1161 -1.9956
  997MOL0     H37553   1.687   4.735   0.362 -0.8063  0.0326 -0.6538
  997MOL0     H37554   1.765   4.465   0.479  2.7493  2.5909  0.7956
  997MOL0     H37555   1.590   4.498   0.505  0.8775 -3.4536 -3.2215
  997MOL0     H37556   1.711   4.580   0.702  0.2936  0.3312 -0.7812
  997MOL0     H37557   1.671   4.720   0.595  1.8951  0.6025 -1.8417
  997MOL0     H37558   1.893   4.702   0.490 -2.7387 -1.7034 -0.1110
  997MOL0     H37559   1.883   4.775   0.649  0.9363  0.3288 -2.2930
  997MOL0     H37560   1.957   4.483   0.601  0.3719  0.5013  0.6228
  997MOL0     H37561   1.945   4.557   0.753 -0.8375  1.8474  0.4407
  997MOL0     H37562   2.174   4.542   0.686  1.7624  0.2684 -0.7017
  997MOL0     H37563   2.133   4.705   0.722  1.2705  0.5611 -0.2510
  997MOL0     H37564   2.278   4.685   0.541 -0.5000  1.1251  0.8282
  997MOL0     H37565   2.128   4.767   0.485  1.2288  1.2595 -0.2828
  997MOL0     H37566   1.368   4.512   0.087 -0.3291 -1.4286  2.1083
  997MOL0     H37567   1.146   4.528  -0.012  2.5397 -1.9867  0.8881
  997MOL0     H37568   0.765   4.598  -0.273  1.2140  0.0551  1.6844
  997MOL0     H37569   0.509   4.637  -0.301  0.4814 -0.9852  0.5753
  997MOL0     H37570   1.474   4.271   0.429  1.9711  1.1275  0.4001
  997MOL0     H37571   1.679   4.219   0.325 -0.2707  1.4086 -0.4820
  997MOL0     H37572   1.837   4.100  -0.146  0.1090 -2.6320 -0.5930
  997MOL0     H37573   2.033   4.017  -0.264  1.1522 -0.4316  0.1345
  997MOL0     H37574   2.248   3.941  -0.288 -3.5676  2.8606  1.2929
  997MOL0     H37575   2.199   4.054  -0.413 -1.0247  1.8508 -0.1501
  997MOL0     H37576   2.431   4.134  -0.440  1.5083 -0.2863  0.0500
  997MOL0     H37577   2.384   3.966  -0.493  1.9000  0.3480  0.0663
  997MOL0     H37578   2.518   4.057  -0.249  0.0960 -0.5108 -0.6816
  997MOL0     H37579   2.506   3.883  -0.263  1.4712 -0.3071  0.0342
  997MOL0     H37580   2.651   4.065  -0.451  0.6113  0.7776 -0.0536
  997MOL0     H37581   2.634   3.889  -0.465 -1.7471  3.6387 -2.9150
  997MOL0     H37582   2.875   4.012  -0.107  0.1239 -1.2262 -0.3275
  997MOL0     H37583   2.284   4.272  -0.029 -0.1160 -0.2184 -0.3628
  997MOL0     H37584   2.059   4.455   0.137 -0.6358  0.2501  1.1698
  997MOL0     H37585   2.058   4.311   0.248  1.3588 -0.3095  1.3656
  997MOL0     H37586   2.205   4.353   0.175 -1.4468 -1.5263  3.8411
  998MOL0     O37587   0.655   8.435   8.511 -0.2266  0.5806 -0.1780
  998MOL0     C37588   0.607   8.452   8.400 -0.1653 -0.4430  0.8817
  998MOL0     O37589   0.671   8.515   8.292  0.0603  0.1248 -0.1195
  998MOL0     C37590   0.780   8.591   8.301 -0.4367  0.3397 -0.7766
  998MOL0     C37591   0.848   8.610   8.181 -0.7756 -0.0689  0.1045
  998MOL0     C37592   0.956   8.705   8.171 -0.5916  0.1504 -0.3772
  998MOL0     C37593   1.001   8.765   8.284  0.8623 -0.2707  0.3035
  998MOL0     O37594   1.103   8.864   8.283  0.1196 -0.3218 -0.7861
  998MOL0     C37595   1.238   8.811   8.286 -0.4605 -0.4015 -0.7552
  998MOL0     C37596   1.327   8.922   8.323  0.4690  0.2353  0.3420
  998MOL0     C37597   1.289   8.987   8.462 -0.1431 -0.4922  0.6990
  998MOL0     C37598   1.423   9.042   8.516 -0.0161  0.2078  0.7832
  998MOL0     C37599   1.484   9.149   8.426 -0.1773  0.4698 -0.8624
  998MOL0     C37600   1.597   9.222   8.500 -1.0797 -0.8293 -0.5313
  998MOL0     C37601   1.688   9.295   8.396 -0.2800 -0.1104  0.2124
  998MOL0     C37602   1.609   9.405   8.321  0.2208  1.5612 -0.4654
  998MOL0     N37603   1.696   9.483   8.242 -0.8721 -0.2327 -0.2850
  998MOL0     C37604   1.705   9.474   8.103  0.1844 -0.6553 -0.0096
  998MOL0     C37605   1.789   9.577   8.067 -0.2223  0.7029  0.3045
  998MOL0     C37606   1.860   9.589   7.934  0.4579 -0.7911 -0.0946
  998MOL0     C37607   1.980   9.685   7.921  0.1240 -0.1414  0.2880
  998MOL0     C37608   1.947   9.840   7.912 -0.3460  0.0809 -0.0863
  998MOL0     C37609   2.054   9.930   7.838 -1.1845  0.7324  0.0446
  998MOL0     O37610   2.181   9.865   7.833 -0.2575  0.7991  0.7533
  998MOL0     C37611   2.294   9.941   7.812 -0.5527 -0.2270  0.1402
  998MOL0     C37612   2.299  10.066   7.757  0.3978  0.1311  0.0703
  998MOL0     C37613   2.409  10.146   7.766 -0.0827  0.0864 -0.4014
  998MOL0     C37614   2.376  10.291   7.730  0.1723 -0.5435  0.4460
  998MOL0     C37615   2.529  10.100   7.835  1.2596 -0.0757 -0.1108
  998MOL0     C37616   2.651  10.179   7.845 -0.6145  0.5074 -0.8054
  998MOL0     O37617   2.726  10.163   7.965 -0.1303  0.7589  0.2367
  998MOL0     C37618   2.845  10.234   7.991  0.0675 -0.4196 -0.6964
  998MOL0     C37619   2.959  10.216   7.921 -0.3655 -0.0218 -0.0364
  998MOL0     C37620   3.087  10.260   7.967  0.1634 -0.4036 -0.0636
  998MOL0     C37621   3.098  10.327   8.091 -0.9177  0.5179  0.0939
  998MOL0     O37622   3.223  10.359   8.142  0.2994  0.4028  0.1602
  998MOL0     C37623   3.338  10.274   8.108  0.3546 -0.3019  0.1879
  998MOL0     C37624   3.334  10.153   8.196  0.4252  0.0522 -0.2429
  998MOL0     C37625   3.441  10.043   8.166 -0.4420 -0.0785 -0.2865
  998MOL0     C37626   3.589  10.101   8.174  0.2223  0.9782  0.2961
  998MOL0     C37627   3.703  10.003   8.130 -0.5591  0.4507 -0.2577
  998MOL0     C37628   3.703   9.975   7.980  0.2381  0.5795  0.3312
  998MOL0     C37629   3.844   9.920   7.928  0.1602  0.6160 -0.2851
  998MOL0     C37630   3.856   9.767   7.951 -0.0147 -0.4646 -0.2773
  998MOL0    Cl37631   3.988   9.694   7.862 -0.3843  0.6756 -0.2819
  998MOL0     C37632   2.980  10.366   8.151 -0.5926 -0.3580 -0.0274
  998MOL0     C37633   2.858  10.320   8.109  0.0845  0.0357  0.8005
  998MOL0     O37634   2.672  10.269   7.772  0.0736 -0.1946  0.2562
  998MOL0     C37635   2.515   9.964   7.894  0.2607  0.2121 -0.1463
  998MOL0     C37636   2.399   9.886   7.885  0.0896 -0.7905 -0.2762
  998MOL0     N37637   1.819   9.651   8.175 -0.5139 -0.3867 -0.2300
  998MOL0     N37638   1.768   9.597   8.278  0.1641  0.0174  0.8982
  998MOL0     C37639   0.942   8.747   8.407  0.0141 -0.0699  0.4570
  998MOL0     C37640   0.828   8.665   8.414  0.0378 -0.8091 -0.0045
  998MOL0     C37641   0.472   8.388   8.384 -0.3926  0.1821 -0.2769
  998MOL0     C37642   0.428   8.303   8.492  0.7194 -0.3201 -0.1366
  998MOL0     C37643   0.304   8.242   8.478  0.0746  0.2236 -0.3386
  998MOL0     C37644   0.217   8.269   8.367 -0.0893  0.5029 -0.0472
  998MOL0     O37645   0.089   8.225   8.365  0.0220  0.7825 -0.5047
  998MOL0     C37646   0.045   8.171   8.237 -0.3002 -0.3167 -0.0962
  998MOL0     C37647  -0.034   8.036   8.245  0.4182 -0.8751 -0.6746
  998MOL0     C37648  -0.159   8.019   8.345  0.2832 -1.0449  0.1635
  998MOL0     C37649  -0.276   8.109   8.314 -0.8721  0.5106  0.5067
  998MOL0     C37650  -0.247   8.249   8.336  0.0798  0.0145 -0.2659
  998MOL0     C37651  -0.203   8.362   8.351  0.9528 -0.3359  0.1041
  998MOL0     C37652   0.260   8.365   8.273  0.0693  0.1717 -0.5892
  998MOL0     C37653   0.385   8.424   8.276 -0.5818  0.5355  0.9132
  998MOL0     C37654   0.423   8.523   8.166 -0.0381 -0.3314 -0.5544
  998MOL0     H37655   0.814   8.545   8.101 -1.4148 -1.9021  1.7941
  998MOL0     H37656   1.015   8.738   8.086 -1.8565 -0.1957 -1.4200
  998MOL0     H37657   1.281   8.762   8.197  1.3598 -0.2883  0.0282
  998MOL0     H37658   1.245   8.744   8.372  5.0960  2.2344  1.2976
  998MOL0     H37659   1.430   8.885   8.330  1.5793  2.7477 -1.1159
  998MOL0     H37660   1.324   8.995   8.241  1.7558 -0.3576 -0.2618
  998MOL0     H37661   1.217   9.070   8.463  1.5044  0.9859  0.5738
  998MOL0     H37662   1.253   8.912   8.533  0.0784 -3.7220 -2.3199
  998MOL0     H37663   1.395   9.090   8.611  1.9096 -0.5997  1.8270
  998MOL0     H37664   1.502   8.969   8.536  1.7054  2.2137  1.7621
  998MOL0     H37665   1.413   9.222   8.384  1.6906  1.7969 -1.8385
  998MOL0     H37666   1.533   9.100   8.342  2.0130 -0.6341  0.9767
  998MOL0     H37667   1.556   9.290   8.575  0.6870 -1.8388  1.4637
  998MOL0     H37668   1.659   9.147   8.551 -0.1425 -0.6354 -1.3527
  998MOL0     H37669   1.721   9.219   8.325  0.6295  0.5836 -0.1257
  998MOL0     H37670   1.773   9.338   8.450 -2.3688 -0.9074  4.5610
  998MOL0     H37671   1.539   9.351   8.257  2.2811 -0.9142 -0.7605
  998MOL0     H37672   1.559   9.472   8.392  0.1193 -0.7162  1.7427
  998MOL0     H37673   1.658   9.406   8.033  0.5421  0.3401 -1.2553
  998MOL0     H37674   1.787   9.619   7.859  2.3386 -1.7225 -2.3986
  998MOL0     H37675   1.878   9.488   7.899 -4.8460 -1.1728 -2.7605
  998MOL0     H37676   2.046   9.670   8.007 -1.0061 -0.9693  1.0257
  998MOL0     H37677   2.045   9.669   7.834  0.3695 -0.5679  0.5449
  998MOL0     H37678   1.847   9.852   7.868 -0.9659 -1.0641  0.9461
  998MOL0     H37679   1.942   9.881   8.013  0.9020  2.5248 -0.9477
  998MOL0     H37680   2.016   9.957   7.739 -0.7057  2.5038  0.2965
  998MOL0     H37681   2.057  10.014   7.909 -2.0544 -1.7627  3.2653
  998MOL0     H37682   2.207  10.102   7.712 -1.3064 -3.6741  0.0928
  998MOL0     H37683   2.275  10.299   7.690 -0.1381 -0.1133  1.2739
  998MOL0     H37684   2.445  10.334   7.657  1.1327  0.3835  1.8238
  998MOL0     H37685   2.380  10.350   7.823  2.3317  0.6057 -0.3163
  998MOL0     H37686   2.962  10.163   7.827  2.1669 -0.0531 -0.0227
  998MOL0     H37687   3.174  10.229   7.910  1.6756 -0.9776  2.3920
  998MOL0     H37688   3.344  10.242   8.003 -0.1682  0.4673 -0.0849
  998MOL0     H37689   3.424  10.337   8.133 -0.8071  1.2554  0.4522
  998MOL0     H37690   3.343  10.194   8.297 -1.2466  2.8015 -1.0972
  998MOL0     H37691   3.237  10.104   8.180  0.7396 -0.4012 -0.8209
  998MOL0     H37692   3.428  10.011   8.062 -0.2665  0.4517 -0.4714
  998MOL0     H37693   3.434   9.956   8.233 -0.0863  1.0037  1.1974
  998MOL0     H37694   3.603  10.120   8.281  1.1303  0.1503  0.3407
  998MOL0     H37695   3.597  10.196   8.121 -1.6754  0.2443 -1.4835
  998MOL0     H37696   3.797  10.055   8.150 -0.6944  0.7853 -0.4767
  998MOL0     H37697   3.704   9.911   8.189  1.6627 -0.0488 -0.9651
  998MOL0     H37698   3.672  10.067   7.930 -2.5764 -0.7439 -0.5972
  998MOL0     H37699   3.624   9.904   7.953  2.9492 -2.7046  0.3387
  998MOL0     H37700   3.928   9.965   7.983 -0.9923  2.3236  0.1569
  998MOL0     H37701   3.843   9.932   7.819 -2.1320 -1.4738 -0.5716
  998MOL0     H37702   3.763   9.717   7.921 -0.7372  0.0951  0.9292
  998MOL0     H37703   3.870   9.756   8.059 -1.8194  2.7964  0.4272
  998MOL0     H37704   2.988  10.420   8.244  1.7116 -0.6150 -0.0367
  998MOL0     H37705   2.780  10.327   8.185 -0.8662 -1.6628  0.0450
  998MOL0     H37706   2.596   9.910   7.943 -0.2423 -0.9672 -0.5728
  998MOL0     H37707   2.401   9.789   7.934 -1.6776 -0.3018  0.8434
  998MOL0     H37708   0.968   8.816   8.486 -0.5657  1.2736 -0.4954
  998MOL0     H37709   0.784   8.649   8.512  1.2104 -1.7537  0.3942
  998MOL0     H37710   0.493   8.272   8.574 -0.2538  0.8974  1.1502
  998MOL0     H37711   0.279   8.165   8.551  1.6152  2.0935  2.3257
  998MOL0     H37712  -0.027   8.244   8.200 -2.1776 -1.2896  1.4338
  998MOL0     H37713   0.133   8.163   8.172  1.4495 -2.1428  2.2937
  998MOL0     H37714   0.036   7.952   8.260 -1.8361 -3.2207 -2.4923
  998MOL0     H37715  -0.081   8.032   8.147  2.5739  1.7338 -1.9321
  998MOL0     H37716  -0.185   7.914   8.335 -1.0604 -1.4048  4.8731
  998MOL0     H37717  -0.123   8.030   8.448  0.7537  0.9991 -0.1720
  998MOL0     H37718  -0.363   8.084   8.376  0.0280 -1.0702  1.2094
  998MOL0     H37719  -0.305   8.105   8.209  2.9787  2.7058 -0.8395
  998MOL0     H37720  -0.158   8.458   8.371  0.7032  0.0812 -1.2549
  998MOL0     H37721   0.184   8.399   8.204 -0.7024  0.0123  0.1770
  998MOL0     H37722   0.425   8.627   8.201 -0.9305  0.1150 -1.7486
  998MOL0     H37723   0.516   8.490   8.118  0.4948 -0.3848  0.4985
  998MOL0     H37724   0.356   8.532   8.079  2.3806 -1.4998 -2.6817
  999MOL0     O37725   6.001  10.431   2.358 -0.3983  0.4699 -0.1473
  999MOL0     C37726   6.098  10.375   2.418  0.5319  0.1553  0.8657
  999MOL0     O37727   6.095  10.345   2.547 -0.5061 -0.1648 -0.5838
  999MOL0     C37728   5.999  10.410   2.623 -0.4383  0.1521  0.1964
  999MOL0     C37729   5.870  10.354   2.648  0.4196  0.1159  0.3505
  999MOL0     C37730   5.775  10.404   2.737  0.6020 -0.9133  0.1046
  999MOL0     C37731   5.812  10.510   2.811  0.3882 -0.6276  0.1273
  999MOL0     O37732   5.730  10.544   2.917 -0.0073 -0.1286 -0.5100
  999MOL0     C37733   5.707  10.684   2.939  0.4120  0.9518 -0.7547
  999MOL0     C37734   5.590  10.681   3.021  0.2041  0.1915 -0.2404
  999MOL0     C37735   5.516  10.811   3.043  0.0061  0.0491 -0.4368
  999MOL0     C37736   5.460  10.813   3.191  0.0667 -0.6199  0.5577
  999MOL0     C37737   5.336  10.899   3.203 -0.1780  0.5766 -0.3225
  999MOL0     C37738   5.377  11.037   3.230 -0.4487  0.5380  0.2485
  999MOL0     C37739   5.247  11.123   3.255  0.3750 -0.0555  0.3857
  999MOL0     C37740   5.280  11.268   3.245 -0.5567 -0.5201 -1.0153
  999MOL0     N37741   5.291  11.336   3.370 -0.3781 -0.7513  0.1462
  999MOL0     C37742   5.344  11.287   3.487  0.2591 -0.6702 -0.1108
  999MOL0     C37743   5.295  11.365   3.584  0.0153  0.1942  0.2239
  999MOL0     C37744   5.315  11.335   3.732  0.2676 -0.0934  0.4052
  999MOL0     C37745   5.457  11.372   3.782  0.5749 -0.0578  0.1495
  999MOL0     C37746   5.480  11.346   3.932 -0.3075  0.4488 -0.5956
  999MOL0     C37747   5.618  11.390   3.988 -0.1225  0.0695  0.3785
  999MOL0     O37748   5.630  11.346   4.123 -0.2532 -0.2934  0.5080
  999MOL0     C37749   5.761  11.367   4.173  0.0913 -0.0944  0.1741
  999MOL0     C37750   5.776  11.344   4.308 -0.3673  0.2964  0.5965
  999MOL0     C37751   5.898  11.358   4.373  0.4409  0.4899  0.1612
  999MOL0     C37752   5.897  11.347   4.519 -0.6042  0.3828 -1.2600
  999MOL0     C37753   6.014  11.390   4.302  0.1334 -0.2071  0.5187
  999MOL0     C37754   6.152  11.424   4.350  0.4631  0.1375  0.1333
  999MOL0     O37755   6.245  11.483   4.268 -0.0152 -0.4477  0.1562
  999MOL0     C37756   6.353  11.537   4.329  0.2388 -0.1781 -0.0446
  999MOL0     C37757   6.472  11.466   4.354  0.5624 -1.2294  0.0083
  999MOL0     C37758   6.579  11.529   4.409 -0.1951 -0.2820 -0.9116
  999MOL0     C37759   6.590  11.666   4.424  0.0395 -0.4665 -0.5246
  999MOL0     O37760   6.698  11.734   4.470 -0.2494  0.0168 -0.1541
  999MOL0     C37761   6.818  11.661   4.493 -0.4441  0.8499 -0.0785
  999MOL0     C37762   6.923  11.748   4.566  0.3483 -0.3974 -0.5530
  999MOL0     C37763   7.065  11.688   4.571  0.2537 -0.1781  0.7494
  999MOL0     C37764   7.129  11.672   4.430 -0.5290 -0.4146  0.6888
  999MOL0     C37765   7.286  11.644   4.439  0.6187  0.0637  0.5426
  999MOL0     C37766   7.369  11.777   4.455  0.4180 -0.1852 -0.3908
  999MOL0     C37767   7.520  11.739   4.474  0.2476  0.2324  0.4425
  999MOL0     C37768   7.582  11.729   4.338 -0.2352 -0.1404  0.6139
  999MOL0    Cl37769   7.572  11.877   4.236  0.0576 -0.1602  0.2645
  999MOL0     C37770   6.471  11.742   4.401  0.0397  0.3829  0.5683
  999MOL0     C37771   6.349  11.677   4.355 -0.5373 -0.1306  0.3295
  999MOL0     O37772   6.181  11.386   4.466  0.4033  0.3544  0.7212
  999MOL0     C37773   6.000  11.404   4.164  0.0432 -0.5218 -0.1770
  999MOL0     C37774   5.880  11.395   4.107 -0.0056  1.3933  0.6157
  999MOL0     N37775   5.217  11.467   3.537 -0.0989 -0.2267  0.1475
  999MOL0     N37776   5.225  11.454   3.404 -0.7673  0.0508  0.2386
  999MOL0     C37777   5.931  10.579   2.782  0.6010 -0.5905  0.6613
  999MOL0     C37778   6.031  10.531   2.690  0.5025  0.0736  0.1639
  999MOL0     C37779   6.221  10.324   2.346 -0.0340 -0.0992 -0.7531
  999MOL0     C37780   6.311  10.237   2.416  0.3765 -0.6710 -0.3282
  999MOL0     C37781   6.424  10.185   2.359 -0.0550 -0.2715  0.6393
  999MOL0     C37782   6.460  10.219   2.230 -0.1814  0.1902 -0.9368
  999MOL0     O37783   6.574  10.162   2.186 -0.5712  0.0543  0.2045
  999MOL0     C37784   6.580  10.140   2.044 -0.0407 -0.6492  0.6124
  999MOL0     C37785   6.668  10.022   2.001 -0.0555 -0.2780  0.2907
  999MOL0     C37786   6.809  10.071   2.040 -0.1834  1.5729  0.0322
  999MOL0     C37787   6.904   9.961   2.022 -0.3078 -0.1985  0.1492
  999MOL0     C37788   6.924   9.922   1.880  0.3225  0.6189 -0.2528
  999MOL0     C37789   6.970   9.887   1.772  0.4921 -0.3165  0.0500
  999MOL0     C37790   6.384  10.310   2.164  0.3465  0.3213  0.1583
  999MOL0     C37791   6.266  10.357   2.213  0.2719 -0.3152 -0.5058
  999MOL0     C37792   6.192  10.467   2.127  0.5206  0.1872 -1.3215
  999MOL0     H37793   5.854  10.260   2.596 -0.9345  0.7214 -0.3942
  999MOL0     H37794   5.680  10.352   2.752 -0.7111  1.3859  0.2110
  999MOL0     H37795   5.694  10.732   2.841 -0.5659  1.2367 -0.4894
  999MOL0     H37796   5.797  10.728   2.984  1.5196 -0.2024 -1.7259
  999MOL0     H37797   5.518  10.612   2.976 -2.7973  2.0461  1.3677
  999MOL0     H37798   5.625  10.635   3.114  1.8673 -2.6042 -2.1032
  999MOL0     H37799   5.582  10.898   3.031 -3.2165  2.8889  0.4714
  999MOL0     H37800   5.422  10.827   2.990 -0.9617  0.5815  1.3342
  999MOL0     H37801   5.429  10.712   3.221 -3.7178  0.4276  0.6951
  999MOL0     H37802   5.541  10.856   3.250  0.8310 -0.2445 -0.7239
  999MOL0     H37803   5.277  10.863   3.288 -0.7057  1.7651 -0.1704
  999MOL0     H37804   5.274  10.896   3.113 -0.1846  2.1530 -0.3922
  999MOL0     H37805   5.440  11.052   3.317 -0.1364  3.5712 -0.3750
  999MOL0     H37806   5.439  11.063   3.143 -1.8660 -0.5544 -1.1674
  999MOL0     H37807   5.180  11.110   3.341  0.0104  0.4556  0.1858
  999MOL0     H37808   5.180  11.111   3.169 -0.3539  1.8677  0.6096
  999MOL0     H37809   5.379  11.278   3.198 -0.6418 -1.0710 -1.3225
  999MOL0     H37810   5.219  11.333   3.182  2.2902  2.0841 -1.3721
  999MOL0     H37811   5.406  11.198   3.497 -0.7159 -1.2183  1.4203
  999MOL0     H37812   5.307  11.227   3.750 -0.7705 -0.4085 -1.5980
  999MOL0     H37813   5.241  11.397   3.784 -0.6934 -0.1377 -0.8370
  999MOL0     H37814   5.551  11.336   3.738  0.2444  1.0848 -1.5930
  999MOL0     H37815   5.468  11.479   3.762 -0.3023  0.2939  1.4147
  999MOL0     H37816   5.408  11.402   3.992  0.5968 -1.1442  2.1482
  999MOL0     H37817   5.456  11.241   3.952 -1.6620  0.8437 -0.0068
  999MOL0     H37818   5.692  11.339   3.926  0.6051  0.8223  0.5975
  999MOL0     H37819   5.648  11.495   3.974 -1.4665  0.3731 -0.4659
  999MOL0     H37820   5.678  11.331   4.353 -2.1931  3.0949 -2.1154
  999MOL0     H37821   5.799  11.367   4.565 -0.9966 -3.3193 -0.1640
  999MOL0     H37822   5.967  11.417   4.567 -2.5347  2.7714 -1.7342
  999MOL0     H37823   5.927  11.247   4.552 -1.6506  0.6655  0.7363
  999MOL0     H37824   6.464  11.359   4.343  0.7574 -1.2762  0.3064
  999MOL0     H37825   6.669  11.472   4.427  0.6348  0.2297 -3.1043
  999MOL0     H37826   6.796  11.578   4.561 -1.1170  0.9435 -0.1765
  999MOL0     H37827   6.864  11.631   4.399 -1.3623  0.8348 -0.5250
  999MOL0     H37828   6.919  11.842   4.511  4.7728 -0.0087 -0.6286
  999MOL0     H37829   6.887  11.772   4.667 -1.0270 -0.6433 -0.9651
  999MOL0     H37830   7.062  11.590   4.620 -2.4167 -1.2157 -1.2790
  999MOL0     H37831   7.122  11.765   4.624  2.4607  2.1139 -4.3151
  999MOL0     H37832   7.117  11.759   4.364 -0.1617 -1.8213 -1.3262
  999MOL0     H37833   7.076  11.588   4.385 -1.5658  1.7057 -2.4399
  999MOL0     H37834   7.312  11.577   4.522  1.4187 -0.5591 -0.1960
  999MOL0     H37835   7.318  11.593   4.348 -0.2135 -1.2244  0.9441
  999MOL0     H37836   7.338  11.838   4.540 -1.3051  0.7365 -1.5994
  999MOL0     H37837   7.347  11.835   4.364  3.4431  2.0669  0.1666
  999MOL0     H37838   7.528  11.647   4.532 -2.8793 -0.9386 -0.7579
  999MOL0     H37839   7.569  11.825   4.522  1.3464 -0.9022  1.4061
  999MOL0     H37840   7.526  11.657   4.278 -2.5024  1.9915  0.0420
  999MOL0     H37841   7.687  11.699   4.352  0.4754  1.1643 -1.5250
  999MOL0     H37842   6.472  11.849   4.422  1.4827  0.3219  0.8635
  999MOL0     H37843   6.262  11.736   4.332 -0.0022  1.2393  1.6506
  999MOL0     H37844   6.084  11.428   4.100 -0.1609  1.5140  0.2573
  999MOL0     H37845   5.871  11.408   4.000 -2.3136  3.4797  0.9700
  999MOL0     H37846   5.965  10.670   2.829  1.8553 -0.8719  0.3310
  999MOL0     H37847   6.126  10.585   2.682 -0.2432  1.1952 -1.9085
  999MOL0     H37848   6.279  10.208   2.516 -2.0660  1.4754 -0.3866
  999MOL0     H37849   6.482  10.116   2.421 -0.7841 -0.6283  0.9287
  999MOL0     H37850   6.480  10.118   2.005  0.8989 -2.6035 -0.8893
  999MOL0     H37851   6.609  10.233   1.996 -0.9476  0.7048  2.5579
  999MOL0     H37852   6.666  10.000   1.894 -0.5598  0.4501  0.1475
  999MOL0     H37853   6.646   9.926   2.048  1.5762 -1.0615 -0.4537
  999MOL0     H37854   6.835  10.162   1.985  1.5487  1.9946  1.4545
  999MOL0     H37855   6.814  10.105   2.144  0.6346  5.1638 -1.0308
  999MOL0     H37856   6.875   9.874   2.081  0.5523 -0.7498 -0.2150
  999MOL0     H37857   7.004   9.988   2.058 -0.7335  0.8900  0.5494
  999MOL0     H37858   7.009   9.864   1.675 -2.9015 -0.7091 -1.3342
  999MOL0     H37859   6.406  10.337   2.061 -0.6918  0.0084 -0.1614
  999MOL0     H37860   6.238  10.481   2.028  0.9960 -1.5900 -1.3855
  999MOL0     H37861   6.094  10.420   2.112  0.2133  0.6615 -0.7873
  999MOL0     H37862   6.168  10.562   2.175  0.0927 -0.7030  0.2687
 1000MOL0     O37863  10.303   3.050   1.598 -0.3423  0.2228 -0.0596
 1000MOL0     C37864  10.305   3.030   1.721 -0.4421 -0.3595  0.1057
 1000MOL0     O37865  10.412   3.004   1.798  0.4555  0.0058  0.0966
 1000MOL0     C37866  10.547   3.016   1.757 -0.0928 -0.2947 -0.1002
 1000MOL0     C37867  10.637   2.920   1.788  1.0602  0.2751  0.1752
 1000MOL0     C37868  10.769   2.918   1.733  0.8079  0.4218 -0.6717
 1000MOL0     C37869  10.807   3.017   1.645 -0.3622 -0.6026  0.1093
 1000MOL0     O37870  10.939   3.018   1.592  0.5644  0.1433 -0.1080
 1000MOL0     C37871  10.940   3.049   1.445  0.5280 -0.0244 -0.1999
 1000MOL0     C37872  11.059   2.988   1.372 -0.5058 -0.1442  0.2885
 1000MOL0     C37873  11.191   3.027   1.448  0.2665  0.0269 -0.2435
 1000MOL0     C37874  11.313   3.003   1.361 -0.1003 -0.0155  1.1133
 1000MOL0     C37875  11.437   3.027   1.447 -0.0404  0.2903  0.4450
 1000MOL0     C37876  11.567   3.028   1.365  0.7478  1.0363  0.2285
 1000MOL0     C37877  11.683   3.073   1.442 -0.1627  0.9925  0.1112
 1000MOL0     C37878  11.817   3.069   1.364  0.5279  0.6092  0.2738
 1000MOL0     N37879  11.929   3.090   1.455  0.0337 -0.1270 -0.0556
 1000MOL0     C37880  12.058   3.049   1.433 -0.5974  0.4119 -0.7133
 1000MOL0     C37881  12.132   3.115   1.522 -0.5875  0.1250 -0.5894
 1000MOL0     C37882  12.279   3.083   1.538  0.0765 -0.8388 -0.3919
 1000MOL0     C37883  12.327   3.107   1.685  0.2402  0.2034 -0.1543
 1000MOL0     C37884  12.361   3.256   1.715 -0.2288 -0.3800  0.1394
 1000MOL0     C37885  12.364   3.285   1.872 -0.2888 -0.6098  0.9935
 1000MOL0     O37886  12.456   3.193   1.930  0.0215 -0.1463 -0.0921
 1000MOL0     C37887  12.590   3.211   1.934 -0.5580 -0.2034 -0.0230
 1000MOL0     C37888  12.665   3.099   1.975  0.1992  0.4690  0.7142
 1000MOL0     C37889  12.802   3.091   1.973  0.0007  0.3910  0.6390
 1000MOL0     C37890  12.867   2.984   2.047 -0.4715 -0.1189  0.2482
 1000MOL0     C37891  12.872   3.200   1.924  0.2950  0.3226 -0.0172
 1000MOL0     C37892  13.012   3.197   1.936  0.0147  0.2394  0.1948
 1000MOL0     O37893  13.068   3.232   2.057  0.0795 -0.0907 -0.0218
 1000MOL0     C37894  13.210   3.247   2.053  0.5052  0.1252  0.6753
 1000MOL0     C37895  13.282   3.344   1.985  0.1816  0.5084  0.3120
 1000MOL0     C37896  13.419   3.347   1.988  0.2485 -0.4163  0.5605
 1000MOL0     C37897  13.492   3.260   2.065 -0.7119 -0.0238  1.2002
 1000MOL0     O37898  13.630   3.288   2.062  0.2279 -0.0389 -0.2777
 1000MOL0     C37899  13.719   3.177   2.094  0.5552 -0.5312 -0.1789
 1000MOL0     C37900  13.861   3.234   2.076  0.2804  0.4966 -1.0760
 1000MOL0     C37901  13.962   3.131   2.138  0.9238 -0.3187 -0.1321
 1000MOL0     C37902  14.097   3.190   2.097  0.5304  0.6894  0.1818
 1000MOL0     C37903  14.201   3.079   2.093 -0.2532 -0.8157 -0.7116
 1000MOL0     C37904  14.339   3.150   2.080 -0.6550 -0.4530  0.4666
 1000MOL0     C37905  14.464   3.048   2.090 -0.2855  0.0033  0.0793
 1000MOL0     C37906  14.499   2.990   2.233  0.0321  0.2889  0.6756
 1000MOL0    Cl37907  14.469   3.114   2.358  0.0054  0.2523  0.1692
 1000MOL0     C37908  13.428   3.150   2.122 -0.4084  0.6144 -0.7790
 1000MOL0     C37909  13.290   3.140   2.112 -0.1755 -0.4579  0.7864
 1000MOL0     O37910  13.083   3.175   1.833 -0.0860  0.1025 -0.0123
 1000MOL0     C37911  12.808   3.317   1.884  0.1193 -0.9403 -0.8411
 1000MOL0     C37912  12.660   3.320   1.881  0.6155  0.5022  0.0129
 1000MOL0     N37913  12.056   3.188   1.605 -0.1643  0.4993 -0.6049
 1000MOL0     N37914  11.932   3.182   1.553 -0.4909  0.1888 -0.4061
 1000MOL0     C37915  10.720   3.123   1.629  0.7434 -0.0840  0.4438
 1000MOL0     C37916  10.588   3.125   1.680 -0.0247  0.4374 -0.5607
 1000MOL0     C37917  10.177   3.009   1.792  1.5236 -1.5763 -0.1206
 1000MOL0     C37918  10.071   3.082   1.746  0.8222  0.4265 -0.3333
 1000MOL0     C37919   9.943   3.054   1.788 -0.1639  0.9409 -0.5006
 1000MOL0     C37920   9.917   2.968   1.893  0.1540 -0.1539  0.0555
 1000MOL0     O37921   9.802   2.928   1.951 -0.4705  0.7032 -0.7121
 1000MOL0     C37922   9.686   2.996   1.887  0.2670 -0.6768  0.4584
 1000MOL0     C37923   9.550   2.967   1.953  0.3640 -0.0140 -0.1092
 1000MOL0     C37924   9.502   2.814   1.960  0.2776  0.3088  0.4409
 1000MOL0     C37925   9.354   2.793   2.013 -0.4877 -0.1438 -0.3404
 1000MOL0     C37926   9.324   2.801   2.160 -0.0375  0.3504  0.0124
 1000MOL0     C37927   9.285   2.818   2.271 -0.5787  0.2513  0.0558
 1000MOL0     C37928  10.029   2.912   1.951  0.1507  0.2177  0.9233
 1000MOL0     C37929  10.165   2.926   1.906 -0.5650 -0.6066  0.1686
 1000MOL0     C37930  10.276   2.836   1.972  0.0480 -0.7194  0.0581
 1000MOL0     H37931  10.604   2.837   1.849 -1.2676  0.2249 -1.0460
 1000MOL0     H37932  10.837   2.838   1.760 -0.2075  0.0791  1.0039
 1000MOL0     H37933  10.943   3.157   1.426 -0.0263 -0.2179 -1.4879
 1000MOL0     H37934  10.848   3.015   1.396 -0.3150  0.2922  1.1081
 1000MOL0     H37935  11.044   2.880   1.377 -4.1677 -0.0191 -3.2006
 1000MOL0     H37936  11.067   3.018   1.267  1.7686 -0.5436  0.2915
 1000MOL0     H37937  11.189   3.133   1.477  0.2567 -0.2553  0.8334
 1000MOL0     H37938  11.211   2.964   1.535  1.5218 -1.3882 -1.5127
 1000MOL0     H37939  11.324   2.905   1.314  2.0122 -0.7359  2.9325
 1000MOL0     H37940  11.305   3.082   1.285 -1.0482 -0.5903  0.5976
 1000MOL0     H37941  11.443   2.946   1.521 -1.0380  2.1991  2.7577
 1000MOL0     H37942  11.420   3.112   1.513  1.0374  1.0612 -0.2512
 1000MOL0     H37943  11.579   2.926   1.325  1.0819  1.2553 -0.2417
 1000MOL0     H37944  11.560   3.095   1.279  0.5916  0.5690 -0.1291
 1000MOL0     H37945  11.702   3.016   1.534 -0.9780 -0.5517 -0.6369
 1000MOL0     H37946  11.665   3.171   1.487 -1.2789  0.1416  1.6211
 1000MOL0     H37947  11.834   2.966   1.333  0.6976  0.1455  1.8354
 1000MOL0     H37948  11.816   3.131   1.274 -0.0404  0.4263  0.1531
 1000MOL0     H37949  12.100   2.968   1.375  2.7514  0.0331  1.9028
 1000MOL0     H37950  12.332   3.141   1.462 -2.8603  1.9375 -0.5490
 1000MOL0     H37951  12.274   2.976   1.518 -0.5535 -0.7826 -0.5789
 1000MOL0     H37952  12.252   3.070   1.756 -1.6264  2.4822 -0.8193
 1000MOL0     H37953  12.419   3.051   1.702 -0.5360 -0.1756  3.7755
 1000MOL0     H37954  12.458   3.286   1.675  0.4783 -0.7607  1.5050
 1000MOL0     H37955  12.282   3.324   1.681  1.0371  1.0636  0.0030
 1000MOL0     H37956  12.402   3.385   1.895  0.1152 -0.5994  0.3076
 1000MOL0     H37957  12.263   3.268   1.909 -1.5802  0.6753 -1.6764
 1000MOL0     H37958  12.606   3.015   2.013  0.0255  1.0314  1.7192
 1000MOL0     H37959  12.801   2.897   2.054 -2.4916  1.3826  0.6045
 1000MOL0     H37960  12.874   3.017   2.152 -1.7936 -0.1268  0.3574
 1000MOL0     H37961  12.963   2.950   2.008 -1.4978 -0.4696 -2.1576
 1000MOL0     H37962  13.238   3.428   1.933 -1.5685 -0.7315 -0.3068
 1000MOL0     H37963  13.475   3.421   1.933 -0.5902  0.2626  0.5991
 1000MOL0     H37964  13.698   3.153   2.199 -0.8093  3.1892  0.5438
 1000MOL0     H37965  13.702   3.095   2.023  2.4029  0.6772 -2.1152
 1000MOL0     H37966  13.877   3.238   1.968 -0.0989 -3.2323 -1.3734
 1000MOL0     H37967  13.866   3.335   2.119 -1.3649 -0.8112  2.6267
 1000MOL0     H37968  13.941   3.029   2.102 -0.1962  0.9647 -3.5047
 1000MOL0     H37969  13.950   3.133   2.247  2.2928 -0.3968  0.0380
 1000MOL0     H37970  14.129   3.266   2.169  2.1037  0.5217 -0.2998
 1000MOL0     H37971  14.100   3.235   1.998 -1.9509 -0.4735 -0.5144
 1000MOL0     H37972  14.184   3.029   2.188 -4.6860  0.2361 -0.7366
 1000MOL0     H37973  14.189   3.019   2.002  2.5346 -1.6784 -0.6127
 1000MOL0     H37974  14.349   3.232   2.151  0.1804  1.6653 -1.9709
 1000MOL0     H37975  14.345   3.192   1.979 -0.8701 -0.7908  0.3089
 1000MOL0     H37976  14.551   3.090   2.038 -1.5449 -1.0356 -3.1103
 1000MOL0     H37977  14.435   2.961   2.030  3.8864 -1.6875  0.1935
 1000MOL0     H37978  14.600   2.947   2.235 -0.0122  0.0224 -1.2168
 1000MOL0     H37979  14.440   2.900   2.256  0.3517  0.0232  0.4726
 1000MOL0     H37980  13.486   3.072   2.170 -1.6793 -0.8403 -1.5124
 1000MOL0     H37981  13.247   3.052   2.159 -1.8793 -1.4524 -2.3595
 1000MOL0     H37982  12.858   3.406   1.849 -0.1397 -0.9658 -1.2894
 1000MOL0     H37983  12.600   3.397   1.833 -0.6394 -1.5475 -1.9544
 1000MOL0     H37984  10.750   3.210   1.572 -1.8122 -1.4855 -3.4603
 1000MOL0     H37985  10.528   3.212   1.656 -0.9839  0.2573  1.0428
 1000MOL0     H37986  10.095   3.144   1.660 -2.3729  1.3003 -0.7311
 1000MOL0     H37987   9.863   3.112   1.743 -1.8298 -0.6425  0.3199
 1000MOL0     H37988   9.699   3.103   1.905 -2.8016 -0.5758  2.9567
 1000MOL0     H37989   9.685   2.972   1.781 -1.5087 -1.1285  0.5581
 1000MOL0     H37990   9.471   3.022   1.901  0.3070  1.3499  1.3420
 1000MOL0     H37991   9.562   3.002   2.056 -0.7004  1.9501 -0.6082
 1000MOL0     H37992   9.504   2.781   1.856 -0.5360 -4.4116  1.6558
 1000MOL0     H37993   9.572   2.750   2.015 -0.6718 -1.5064 -0.3602
 1000MOL0     H37994   9.319   2.690   1.996 -1.5440  0.5105 -2.3912
 1000MOL0     H37995   9.286   2.858   1.958 -0.2573  2.8527  2.5818
 1000MOL0     H37996   9.267   2.847   2.372 -0.8701  2.5067 -0.5935
 1000MOL0     H37997  10.013   2.853   2.040  1.5518 -0.3707  0.8087
 1000MOL0     H37998  10.335   2.782   1.898 -3.3750 -0.0055 -3.5706
 1000MOL0     H37999  10.343   2.899   2.031 -1.8998  2.5562 -0.9463
 1000MOL0     H38000  10.222   2.760   2.030 -0.4518 -1.2740 -1.1181
 1001MOL0     O38001   6.010   9.056   5.794  0.6104 -0.0555 -0.6005
 1001MOL0     C38002   6.086   8.963   5.776 -0.2706 -0.1788  0.1058
 1001MOL0     O38003   6.052   8.833   5.797  0.2261  0.1073  0.1643
 1001MOL0     C38004   5.925   8.803   5.838 -0.5246 -0.1541 -0.1015
 1001MOL0     C38005   5.813   8.836   5.762  0.5231  0.3973  0.2728
 1001MOL0     C38006   5.688   8.806   5.816 -0.0250  0.7680  0.0327
 1001MOL0     C38007   5.668   8.732   5.930 -0.5682  0.8654  0.6928
 1001MOL0     O38008   5.545   8.690   5.969 -0.1463  0.0232 -0.1099
 1001MOL0     C38009   5.519   8.634   6.099 -0.7818 -0.6577  0.6774
 1001MOL0     C38010   5.368   8.603   6.104  0.6707 -0.1770 -0.3710
 1001MOL0     C38011   5.261   8.707   6.131  0.0485  0.9814  0.6954
 1001MOL0     C38012   5.262   8.820   6.019 -0.3721  0.4038  0.1535
 1001MOL0     C38013   5.166   8.930   6.049  0.2674 -0.5872 -0.3719
 1001MOL0     C38014   5.029   8.889   6.008  0.6167 -0.2003 -0.0392
 1001MOL0     C38015   4.921   8.993   6.024 -0.2515 -0.4163  0.5377
 1001MOL0     C38016   4.929   9.123   5.949 -0.1351 -1.2884  0.5284
 1001MOL0     N38017   4.937   9.099   5.802 -1.4525 -0.1051 -0.4560
 1001MOL0     C38018   5.044   9.115   5.718 -0.1238 -1.0128  0.0469
 1001MOL0     C38019   4.995   9.086   5.595 -0.8836 -1.3065 -0.2583
 1001MOL0     C38020   5.069   9.108   5.466 -0.3084 -0.5839 -0.1976
 1001MOL0     C38021   5.201   9.026   5.451 -0.2591 -0.5028 -0.3031
 1001MOL0     C38022   5.244   9.031   5.308  0.1013  0.2589  0.6601
 1001MOL0     C38023   5.381   8.955   5.302 -0.0176 -0.5939  0.0229
 1001MOL0     O38024   5.448   8.964   5.174  0.3620  0.0714 -0.2345
 1001MOL0     C38025   5.577   8.911   5.174 -0.5754  0.6244 -0.0220
 1001MOL0     C38026   5.636   8.825   5.262 -0.4682 -0.4535  0.5666
 1001MOL0     C38027   5.767   8.791   5.258  0.0579 -0.5533  0.6177
 1001MOL0     C38028   5.820   8.710   5.375 -0.2673 -0.5606  0.4744
 1001MOL0     C38029   5.839   8.821   5.140  0.4326 -0.2275 -0.3436
 1001MOL0     C38030   5.985   8.782   5.134  0.9541  0.1361  0.1797
 1001MOL0     O38031   6.062   8.766   5.248 -0.0066 -0.1867 -0.4758
 1001MOL0     C38032   6.195   8.758   5.238  0.3697  0.6076  0.7423
 1001MOL0     C38033   6.254   8.636   5.282  0.5624  0.8920 -0.0813
 1001MOL0     C38034   6.394   8.632   5.283  0.2688 -0.1038  0.2794
 1001MOL0     C38035   6.477   8.741   5.245 -0.3978 -0.4323  0.1101
 1001MOL0     O38036   6.613   8.753   5.264 -0.2468 -0.8534  0.3707
 1001MOL0     C38037   6.678   8.629   5.259 -0.0367 -0.2433  0.2856
 1001MOL0     C38038   6.825   8.655   5.253 -0.6058 -0.4866 -0.4837
 1001MOL0     C38039   6.911   8.536   5.260 -0.2966 -0.0850  0.1704
 1001MOL0     C38040   6.921   8.474   5.400 -0.2755 -0.3595 -0.2198
 1001MOL0     C38041   7.003   8.346   5.399  0.7281  0.2994  0.2756
 1001MOL0     C38042   7.153   8.381   5.400  0.1438  0.1903 -0.0061
 1001MOL0     C38043   7.247   8.270   5.457  0.8457 -0.8447  0.4276
 1001MOL0     C38044   7.221   8.135   5.395 -0.1635  0.2539  0.3649
 1001MOL0    Cl38045   7.320   8.012   5.473 -0.1184 -0.0989 -0.0456
 1001MOL0     C38046   6.412   8.852   5.195 -0.0246  0.2324  0.1295
 1001MOL0     C38047   6.276   8.864   5.194 -0.0265 -0.2097 -0.1955
 1001MOL0     O38048   6.030   8.794   5.017 -0.2929  0.4859  0.7272
 1001MOL0     C38049   5.775   8.898   5.039 -0.5645 -0.2396  0.0553
 1001MOL0     C38050   5.648   8.947   5.057  0.3278  0.0527 -0.0290
 1001MOL0     N38051   4.860   9.056   5.598  0.4291 -0.3833 -0.1982
 1001MOL0     N38052   4.830   9.064   5.725 -0.2132  0.0737  0.5283
 1001MOL0     C38053   5.783   8.688   6.000  0.2041  0.1965 -0.0896
 1001MOL0     C38054   5.913   8.721   5.950  1.5339  0.2609  0.5303
 1001MOL0     C38055   6.230   8.991   5.718  0.3950 -0.5943 -0.6210
 1001MOL0     C38056   6.280   8.930   5.601  0.2639  0.1464 -0.3184
 1001MOL0     C38057   6.410   8.961   5.544  0.1010 -0.1569 -0.6190
 1001MOL0     C38058   6.488   9.057   5.612  0.1884  0.5884 -0.4643
 1001MOL0     O38059   6.618   9.095   5.576  0.2468  0.5110 -0.0907
 1001MOL0     C38060   6.675   9.030   5.465 -0.0425 -0.3908  0.7924
 1001MOL0     C38061   6.822   9.068   5.423  0.6539 -0.4169 -0.0094
 1001MOL0     C38062   6.936   9.073   5.531 -0.1411  0.4642  0.1350
 1001MOL0     C38063   7.073   9.073   5.461 -0.5960 -0.1514 -0.0315
 1001MOL0     C38064   7.082   9.184   5.361  0.0674  0.3533 -1.2249
 1001MOL0     C38065   7.105   9.271   5.284  0.2435  0.6228 -0.5203
 1001MOL0     C38066   6.436   9.120   5.728 -0.5323 -0.3654  0.1796
 1001MOL0     C38067   6.309   9.088   5.778 -0.7383  0.7945  0.2835
 1001MOL0     C38068   6.259   9.166   5.891 -0.1196 -0.3507 -0.9051
 1001MOL0     H38069   5.813   8.886   5.666  2.3405 -0.8368 -0.4106
 1001MOL0     H38070   5.603   8.833   5.755  0.0627  0.0312 -0.4337
 1001MOL0     H38071   5.544   8.709   6.174 -0.1494  0.0903 -0.2504
 1001MOL0     H38072   5.589   8.550   6.113  0.3085  0.1147  0.0325
 1001MOL0     H38073   5.334   8.550   6.014 -0.4376 -0.7612  0.3557
 1001MOL0     H38074   5.354   8.536   6.189 -0.4738  0.7531  0.2061
 1001MOL0     H38075   5.162   8.663   6.119  0.9487 -0.6571 -1.7398
 1001MOL0     H38076   5.271   8.747   6.232  1.4667 -0.4254  1.1639
 1001MOL0     H38077   5.362   8.862   6.010 -0.1900  0.3624  1.7704
 1001MOL0     H38078   5.234   8.775   5.923 -2.0133 -2.2900  1.7433
 1001MOL0     H38079   5.196   9.014   5.987 -0.6270 -0.0123 -0.0545
 1001MOL0     H38080   5.174   8.956   6.155 -0.2056  2.1237 -0.9325
 1001MOL0     H38081   5.030   8.878   5.899 -0.4492  0.9237 -0.1738
 1001MOL0     H38082   4.986   8.797   6.050 -0.4361 -0.3712 -1.4289
 1001MOL0     H38083   4.912   9.027   6.128 -0.9323 -0.9329  0.6516
 1001MOL0     H38084   4.828   8.946   5.991  0.7284 -0.3230 -2.5981
 1001MOL0     H38085   4.848   9.193   5.969  0.5883 -0.1277 -0.4455
 1001MOL0     H38086   5.025   9.161   5.984 -0.0507 -1.6392  0.6839
 1001MOL0     H38087   5.147   9.137   5.745 -0.3387 -0.0469  0.1060
 1001MOL0     H38088   5.080   9.216   5.454  4.3820 -1.0964 -2.7025
 1001MOL0     H38089   5.002   9.085   5.383 -2.0881  1.3979  0.6119
 1001MOL0     H38090   5.268   9.079   5.519 -2.2245  0.0492  1.3121
 1001MOL0     H38091   5.180   8.920   5.472 -1.1744 -0.3950 -0.6388
 1001MOL0     H38092   5.171   8.985   5.241 -0.2253  1.4711  0.1611
 1001MOL0     H38093   5.251   9.135   5.273 -1.1263  0.9009  2.1821
 1001MOL0     H38094   5.452   8.985   5.380 -1.7979 -1.1168  1.9139
 1001MOL0     H38095   5.359   8.849   5.314 -2.7607 -0.2979 -1.6423
 1001MOL0     H38096   5.575   8.793   5.346 -2.6296  0.3422 -0.6194
 1001MOL0     H38097   5.880   8.624   5.346 -0.9008 -0.6299 -0.6728
 1001MOL0     H38098   5.730   8.669   5.423 -0.5261  2.8238  3.3168
 1001MOL0     H38099   5.876   8.775   5.443  1.1418 -0.9252 -0.3048
 1001MOL0     H38100   6.189   8.555   5.311 -1.3409  2.0230 -0.9796
 1001MOL0     H38101   6.443   8.544   5.324 -0.3007  0.3599  2.0325
 1001MOL0     H38102   6.657   8.569   5.348  0.1908 -0.3310  0.2808
 1001MOL0     H38103   6.643   8.575   5.171  1.0249  1.1480 -1.0379
 1001MOL0     H38104   6.851   8.718   5.167 -2.3835  0.2228 -0.5467
 1001MOL0     H38105   6.849   8.717   5.340 -0.3107 -3.4662  1.6923
 1001MOL0     H38106   7.007   8.573   5.223 -0.9155  0.8718 -0.5458
 1001MOL0     H38107   6.881   8.463   5.185  0.6351  0.9959 -1.3072
 1001MOL0     H38108   6.819   8.446   5.428 -0.5664  2.6876  2.2345
 1001MOL0     H38109   6.963   8.544   5.473 -2.5590 -0.2690  1.0896
 1001MOL0     H38110   6.981   8.287   5.489 -0.8836 -2.1887 -1.6378
 1001MOL0     H38111   6.974   8.284   5.314 -1.1815 -0.3533  1.3470
 1001MOL0     H38112   7.169   8.470   5.461  1.1370  0.8454 -1.1619
 1001MOL0     H38113   7.193   8.399   5.299  1.4705 -1.3407  0.2099
 1001MOL0     H38114   7.216   8.247   5.560  4.6775 -1.8731  1.5432
 1001MOL0     H38115   7.352   8.296   5.441 -0.6643  3.9797 -4.4700
 1001MOL0     H38116   7.257   8.143   5.293  2.6976  2.5630  1.4054
 1001MOL0     H38117   7.118   8.098   5.398  0.3930 -1.4776 -0.5388
 1001MOL0     H38118   6.464   8.944   5.173 -1.1963  0.3467 -2.5484
 1001MOL0     H38119   6.242   8.955   5.147  1.8467 -0.0620 -1.3550
 1001MOL0     H38120   5.836   8.928   4.954  1.2842 -0.6363  1.1648
 1001MOL0     H38121   5.621   9.035   5.000 -1.2060  0.5142  1.3199
 1001MOL0     H38122   5.779   8.634   6.094  3.0285 -0.4962 -0.2686
 1001MOL0     H38123   6.004   8.700   6.007  0.3781 -0.0859  2.3285
 1001MOL0     H38124   6.215   8.860   5.550 -0.0731  1.2029 -1.3760
 1001MOL0     H38125   6.450   8.914   5.455  1.3277  0.9969 -0.7084
 1001MOL0     H38126   6.670   8.923   5.484  0.2413 -0.2774  1.5411
 1001MOL0     H38127   6.624   9.044   5.369 -2.0215 -2.1460  1.5242
 1001MOL0     H38128   6.815   9.162   5.367 -1.7537 -0.3482  0.3140
 1001MOL0     H38129   6.846   8.998   5.343 -3.0730 -1.3532 -0.4704
 1001MOL0     H38130   6.919   9.159   5.596 -3.1404  0.2351 -0.2003
 1001MOL0     H38131   6.921   8.984   5.594 -0.5663 -0.5252 -1.3202
 1001MOL0     H38132   7.084   8.975   5.414  1.6237  0.1830 -0.3117
 1001MOL0     H38133   7.157   9.082   5.529 -0.7688  1.4738  0.0132
 1001MOL0     H38134   7.123   9.366   5.237  0.1888  1.4252  1.0253
 1001MOL0     H38135   6.484   9.204   5.777 -1.6978  0.7424 -0.5387
 1001MOL0     H38136   6.326   9.240   5.935 -1.8462 -1.6358  4.6689
 1001MOL0     H38137   6.171   9.225   5.865 -0.8482  1.9148  5.1264
 1001MOL0     H38138   6.232   9.091   5.966 -2.7647  0.3885 -0.9977
 1002MOL0     O38139   2.161   0.022   9.815  0.8357 -0.0543 -0.3939
 1002MOL0     C38140   2.157  -0.018   9.700  0.3162  0.1917 -0.2631
 1002MOL0     O38141   2.239  -0.111   9.658 -0.5045  0.6072  0.3243
 1002MOL0     C38142   2.337  -0.164   9.742  0.6640 -0.6984 -0.3786
 1002MOL0     C38143   2.448  -0.101   9.807  0.6561 -0.0605  0.2296
 1002MOL0     C38144   2.536  -0.178   9.890 -0.0866 -0.3652 -0.1339
 1002MOL0     C38145   2.509  -0.312   9.930 -0.7597  0.7849 -0.3382
 1002MOL0     O38146   2.591  -0.369  10.025  0.7531 -0.5246 -0.3342
 1002MOL0     C38147   2.620  -0.502   9.992  0.6032 -0.8172 -1.2634
 1002MOL0     C38148   2.772  -0.497  10.005 -0.1113 -0.7513  0.3341
 1002MOL0     C38149   2.832  -0.618   9.938 -0.7133  0.3835 -0.1446
 1002MOL0     C38150   2.980  -0.599   9.901 -0.0991  0.9104  0.6104
 1002MOL0     C38151   3.027  -0.732   9.831  0.9085  0.3932 -0.5915
 1002MOL0     C38152   3.178  -0.750   9.819  0.4290  0.3259 -0.3204
 1002MOL0     C38153   3.252  -0.671   9.708  0.2848  0.4516 -0.0764
 1002MOL0     C38154   3.267  -0.521   9.748 -0.1080  0.1875  0.5254
 1002MOL0     N38155   3.401  -0.484   9.794  0.1053 -0.7600 -0.0122
 1002MOL0     C38156   3.453  -0.512   9.918  0.2968 -1.1516  0.0492
 1002MOL0     C38157   3.572  -0.447   9.912  0.5885  0.2739 -0.4224
 1002MOL0     C38158   3.676  -0.441  10.028  0.6879 -0.4203  0.0767
 1002MOL0     C38159   3.807  -0.504  10.000  0.1688 -0.2273  0.5728
 1002MOL0     C38160   3.882  -0.430   9.886  0.1156 -0.0531 -0.0320
 1002MOL0     C38161   3.886  -0.273   9.910  1.2826  0.9557  0.2711
 1002MOL0     O38162   3.974  -0.210   9.816  0.6720  0.5383 -0.0089
 1002MOL0     C38163   4.106  -0.198   9.848 -0.1377  0.0730 -0.0535
 1002MOL0     C38164   4.184  -0.119   9.766  0.2758 -0.3073  0.1566
 1002MOL0     C38165   4.320  -0.095   9.783  0.2453 -0.2950 -0.5758
 1002MOL0     C38166   4.395  -0.030   9.670  0.0203  0.1195  0.1156
 1002MOL0     C38167   4.390  -0.155   9.902  0.7967  0.3733  0.3162
 1002MOL0     C38168   4.520  -0.120   9.936 -0.5573 -0.0095 -0.1167
 1002MOL0     O38169   4.577  -0.001   9.894 -0.4196 -0.1040 -0.8290
 1002MOL0     C38170   4.718   0.002   9.878  0.6106 -0.4426 -0.3390
 1002MOL0     C38171   4.780   0.125   9.918  0.0626  0.0846 -0.4688
 1002MOL0     C38172   4.920   0.128   9.934  0.2654  0.1088 -0.0346
 1002MOL0     C38173   5.000   0.018   9.883  0.0415 -0.6451 -0.5521
 1002MOL0     O38174   5.136   0.011   9.886 -0.1888 -0.0811  0.1455
 1002MOL0     C38175   5.219   0.137   9.901  0.9600 -0.9348  0.1836
 1002MOL0     C38176   5.362   0.134   9.858  1.3661  0.3263 -0.0765
 1002MOL0     C38177   5.422  -0.011   9.830  0.3272  0.0036 -0.2837
 1002MOL0     C38178   5.577   0.011   9.811 -0.3653  0.2678 -0.3102
 1002MOL0     C38179   5.644  -0.088   9.724 -0.5777 -0.3709 -0.4110
 1002MOL0     C38180   5.783  -0.069   9.681  0.1341 -0.5801 -0.4000
 1002MOL0     C38181   5.827  -0.178   9.584  0.4879  0.2787  0.5189
 1002MOL0     C38182   5.828  -0.317   9.654  0.7078 -0.3080 -0.7184
 1002MOL0    Cl38183   5.903  -0.447   9.552 -0.0431 -0.0244 -0.1604
 1002MOL0     C38184   4.935  -0.099   9.843 -0.1034  0.2955  0.0184
 1002MOL0     C38185   4.802  -0.104   9.830  0.2915 -0.0512  0.3252
 1002MOL0     O38186   4.580  -0.208  10.000 -0.5105 -0.8313  0.2593
 1002MOL0     C38187   4.309  -0.243   9.985 -0.5254  0.1508  0.4293
 1002MOL0     C38188   4.171  -0.267   9.954 -0.2447 -0.3811  0.2147
 1002MOL0     N38189   3.587  -0.380   9.794 -0.0527 -0.2133  0.4145
 1002MOL0     N38190   3.480  -0.405   9.725  0.1987  0.3018  0.1029
 1002MOL0     C38191   2.396  -0.370   9.870  0.9064 -0.1343  0.6341
 1002MOL0     C38192   2.316  -0.298   9.775  0.1081 -0.4092  0.5739
 1002MOL0     C38193   2.043   0.028   9.607 -0.1160 -0.3649  0.3718
 1002MOL0     C38194   1.932   0.082   9.661 -0.2085 -1.1839  0.4581
 1002MOL0     C38195   1.821   0.124   9.588 -0.0012 -0.0493  0.1134
 1002MOL0     C38196   1.823   0.104   9.454  0.6090 -0.5548  0.7015
 1002MOL0     O38197   1.720   0.141   9.366  0.9747  0.2515  0.8657
 1002MOL0     C38198   1.598   0.203   9.413  0.5334  0.2128  0.4914
 1002MOL0     C38199   1.528   0.256   9.278  0.0994  0.1582  0.0595
 1002MOL0     C38200   1.614   0.370   9.219 -0.5673 -0.2575 -0.8348
 1002MOL0     C38201   1.631   0.496   9.309  0.4456 -0.7159  0.7272
 1002MOL0     C38202   1.495   0.544   9.340  1.0775  0.8314  0.2754
 1002MOL0     C38203   1.386   0.585   9.369  0.5975  0.6944  0.0125
 1002MOL0     C38204   1.930   0.049   9.390 -0.0661  0.0181  0.1324
 1002MOL0     C38205   2.038   0.005   9.466 -1.0940 -0.0623 -0.4692
 1002MOL0     C38206   2.157  -0.062   9.398 -0.2138  0.5968 -0.2358
 1002MOL0     H38207   2.468   0.004   9.784 -0.8482  0.4818  1.2241
 1002MOL0     H38208   2.622  -0.120   9.919 -0.4615  0.1859 -0.1050
 1002MOL0     H38209   2.587  -0.537   9.894  0.6206 -1.1611 -1.1480
 1002MOL0     H38210   2.577  -0.567  10.070 -1.4941  3.3435  1.4258
 1002MOL0     H38211   2.802  -0.411   9.945 -4.3482  1.7109  1.3433
 1002MOL0     H38212   2.807  -0.486  10.108  1.8578 -0.8873 -0.2783
 1002MOL0     H38213   2.830  -0.698  10.013  0.8743  0.4745  0.0222
 1002MOL0     H38214   2.768  -0.645   9.854 -2.8789 -0.3186  1.6317
 1002MOL0     H38215   3.002  -0.512   9.838  3.6347  1.2670  2.1572
 1002MOL0     H38216   3.038  -0.587   9.993  1.4153 -0.7721 -0.0379
 1002MOL0     H38217   2.982  -0.740   9.732 -1.5666  2.5006  0.2570
 1002MOL0     H38218   2.986  -0.825   9.871 -1.4445 -0.3841 -4.2497
 1002MOL0     H38219   3.230  -0.733   9.914 -0.4444  1.4606 -0.0228
 1002MOL0     H38220   3.188  -0.855   9.791  1.2936  0.7147 -1.5117
 1002MOL0     H38221   3.200  -0.692   9.614 -0.6220  1.3761  0.1995
 1002MOL0     H38222   3.351  -0.718   9.704  0.3648  0.4806  1.1718
 1002MOL0     H38223   3.249  -0.464   9.657  2.0938 -1.9815 -1.4188
 1002MOL0     H38224   3.200  -0.487   9.827  0.6577  0.8157  0.9158
 1002MOL0     H38225   3.418  -0.579   9.996 -2.6520 -1.5032 -1.4253
 1002MOL0     H38226   3.636  -0.494  10.115  0.9579  0.1585  0.5597
 1002MOL0     H38227   3.682  -0.335  10.057  1.6540  0.3357 -2.6044
 1002MOL0     H38228   3.871  -0.499  10.089  0.9616 -1.4706  0.0928
 1002MOL0     H38229   3.785  -0.609   9.977 -0.0096  0.3303 -2.0847
 1002MOL0     H38230   3.983  -0.469   9.899  0.4115  0.7143 -0.0133
 1002MOL0     H38231   3.838  -0.450   9.788 -0.0274  3.2402 -0.7713
 1002MOL0     H38232   3.787  -0.233   9.887  0.2406 -1.5024  0.1348
 1002MOL0     H38233   3.908  -0.259  10.016  2.5034 -1.2536  0.3769
 1002MOL0     H38234   4.151  -0.070   9.674  0.8044  2.3838  1.2894
 1002MOL0     H38235   4.341  -0.044   9.576 -0.4405 -0.6544  0.4884
 1002MOL0     H38236   4.489  -0.081   9.650 -0.1974 -0.3420  0.2603
 1002MOL0     H38237   4.410   0.078   9.678 -0.2137  0.0482  1.6722
 1002MOL0     H38238   4.722   0.211   9.950 -1.4768 -0.9492 -0.3553
 1002MOL0     H38239   4.968   0.213   9.983 -0.2956  0.4115 -0.0100
 1002MOL0     H38240   5.168   0.214   9.843  1.9916 -0.0253  0.4577
 1002MOL0     H38241   5.208   0.147  10.009  1.1849 -1.7695  0.2969
 1002MOL0     H38242   5.355   0.174   9.756 -1.0219 -0.8403 -0.4596
 1002MOL0     H38243   5.424   0.201   9.918  0.2797  1.4314 -0.1430
 1002MOL0     H38244   5.379  -0.055   9.740  2.8487  2.4633 -2.9018
 1002MOL0     H38245   5.391  -0.074   9.914 -2.3807 -0.3187 -1.4557
 1002MOL0     H38246   5.612   0.022   9.914  0.3765  1.8008 -0.6890
 1002MOL0     H38247   5.606   0.109   9.773  1.0251  0.1519  0.3853
 1002MOL0     H38248   5.631  -0.189   9.766 -0.7102  0.1131  0.7632
 1002MOL0     H38249   5.577  -0.097   9.638 -0.9055 -3.7556  0.0471
 1002MOL0     H38250   5.842  -0.086   9.772 -1.4971  1.8600  1.2463
 1002MOL0     H38251   5.807   0.029   9.641 -2.3768  1.4902  2.6394
 1002MOL0     H38252   5.928  -0.156   9.550  0.2068  0.8891  0.0583
 1002MOL0     H38253   5.758  -0.202   9.502 -0.4374 -1.2588  1.6917
 1002MOL0     H38254   5.726  -0.340   9.686  0.7105  0.9050  0.2263
 1002MOL0     H38255   5.890  -0.303   9.743  0.7200  2.6189 -1.0900
 1002MOL0     H38256   4.991  -0.188   9.816  2.3645  1.9860 -0.7052
 1002MOL0     H38257   4.760  -0.198   9.795  0.0950  0.1899 -0.0973
 1002MOL0     H38258   4.363  -0.292  10.065 -1.2387 -0.1688  0.7169
 1002MOL0     H38259   4.112  -0.331  10.018 -4.0900  2.7150  0.1293
 1002MOL0     H38260   2.361  -0.470   9.895 -0.1625  0.3910  1.3272
 1002MOL0     H38261   2.227  -0.341   9.731  1.1092 -2.9842  0.8886
 1002MOL0     H38262   1.930   0.102   9.768  0.1024 -1.5302  0.5328
 1002MOL0     H38263   1.740   0.180   9.632 -0.0300  2.3276 -2.6124
 1002MOL0     H38264   1.527   0.128   9.450 -1.2781  0.4608 -2.2151
 1002MOL0     H38265   1.606   0.276   9.494  0.5306  1.7709 -0.8745
 1002MOL0     H38266   1.427   0.293   9.299 -1.8504 -3.5160 -1.8120
 1002MOL0     H38267   1.517   0.168   9.213 -2.5894 -0.1087  0.7373
 1002MOL0     H38268   1.718   0.337   9.206 -0.1527  1.9463 -4.3753
 1002MOL0     H38269   1.568   0.385   9.121 -0.3641 -1.2326 -1.0932
 1002MOL0     H38270   1.679   0.574   9.248 -2.1020  1.1005  0.8925
 1002MOL0     H38271   1.688   0.476   9.400 -0.9000  2.7230  2.5246
 1002MOL0     H38272   1.298   0.621   9.419  1.1900  2.3743 -0.0635
 1002MOL0     H38273   1.931   0.045   9.282 -0.5657  0.4712  0.1071
 1002MOL0     H38274   2.174  -0.049   9.291  0.9434 -0.0757 -0.1568
 1002MOL0     H38275   2.256  -0.044   9.442 -0.7784  2.2515  0.4513
 1002MOL0     H38276   2.133  -0.168   9.409  2.7583 -0.1697 -0.3072
 1003MOL0     O38277   2.285   2.314   1.977 -0.0991  0.7031 -0.6785
 1003MOL0     C38278   2.218   2.337   1.872 -0.2314  0.1783  0.3673
 1003MOL0     O38279   2.279   2.373   1.749  0.1550 -0.3177 -0.0714
 1003MOL0     C38280   2.408   2.371   1.724 -0.2196 -0.1337 -0.1957
 1003MOL0     C38281   2.458   2.434   1.610  1.0333 -0.6286  0.6373
 1003MOL0     C38282   2.594   2.426   1.576  0.4498 -0.1797 -0.0609
 1003MOL0     C38283   2.684   2.361   1.652 -0.4618  0.5761 -0.1521
 1003MOL0     O38284   2.815   2.352   1.615 -0.3159 -0.2702 -0.4196
 1003MOL0     C38285   2.860   2.384   1.482  0.1394  0.1705  0.4802
 1003MOL0     C38286   3.005   2.359   1.472 -0.5925  0.5923  0.3979
 1003MOL0     C38287   3.099   2.476   1.485  0.3473  0.0483  0.2342
 1003MOL0     C38288   3.238   2.466   1.421 -0.0704  0.0453 -0.0598
 1003MOL0     C38289   3.318   2.603   1.423  0.4642  0.7216  0.5819
 1003MOL0     C38290   3.468   2.589   1.393  0.8059 -0.3911 -0.0679
 1003MOL0     C38291   3.545   2.725   1.400  0.5630  0.1274  0.1347
 1003MOL0     C38292   3.696   2.701   1.410 -0.1982 -0.3422 -1.0333
 1003MOL0     N38293   3.760   2.831   1.433 -0.8734  0.7010  0.2239
 1003MOL0     C38294   3.785   2.918   1.334  0.0303  0.2570 -0.2337
 1003MOL0     C38295   3.874   3.001   1.390 -0.4974 -0.7627 -0.8076
 1003MOL0     C38296   3.943   3.110   1.310 -0.4191 -0.3702  0.0724
 1003MOL0     C38297   4.060   3.056   1.238 -0.3491  0.7045  0.4538
 1003MOL0     C38298   4.134   3.167   1.156  0.2485  0.7838 -0.0179
 1003MOL0     C38299   4.249   3.228   1.235 -0.4193 -0.5154  0.3757
 1003MOL0     O38300   4.339   3.296   1.142 -0.4096  0.6267 -0.2117
 1003MOL0     C38301   4.422   3.222   1.056 -0.1286  0.7808 -0.3282
 1003MOL0     C38302   4.452   3.293   0.939  0.1133 -0.4561 -0.1339
 1003MOL0     C38303   4.528   3.238   0.843  0.3124  0.2427  0.7129
 1003MOL0     C38304   4.541   3.316   0.715 -0.6902  0.0921 -0.7926
 1003MOL0     C38305   4.583   3.108   0.857  0.6974  0.4318  0.3421
 1003MOL0     C38306   4.677   3.045   0.761  0.3651 -0.8805  0.5733
 1003MOL0     O38307   4.668   2.914   0.738 -0.6672  0.0402 -0.0559
 1003MOL0     C38308   4.770   2.837   0.680  0.2299  0.3086 -0.0294
 1003MOL0     C38309   4.742   2.701   0.674 -0.2495  0.1402  0.2308
 1003MOL0     C38310   4.841   2.613   0.623 -0.1615 -0.7106 -0.2107
 1003MOL0     C38311   4.961   2.661   0.566  0.4968 -0.7445 -0.5351
 1003MOL0     O38312   5.049   2.580   0.510  0.0271  0.3907  0.0947
 1003MOL0     C38313   4.996   2.466   0.435  0.1112  0.7103  0.4692
 1003MOL0     C38314   5.097   2.430   0.333  0.3189  1.1925  1.3512
 1003MOL0     C38315   5.056   2.296   0.264 -0.6253 -0.0304  0.3478
 1003MOL0     C38316   5.184   2.243   0.204  0.5880  0.7358  0.7905
 1003MOL0     C38317   5.162   2.107   0.123 -0.7960 -0.3280 -0.2427
 1003MOL0     C38318   5.293   2.042   0.076  0.7855 -0.0964  0.1685
 1003MOL0     C38319   5.255   1.924  -0.015  0.0509 -0.4077 -0.1960
 1003MOL0     C38320   5.373   1.883  -0.100 -0.0567  0.0876  0.5531
 1003MOL0    Cl38321   5.515   1.850   0.003  0.1503  0.2969 -0.7642
 1003MOL0     C38322   4.987   2.798   0.576 -0.0511 -0.4788  0.1630
 1003MOL0     C38323   4.894   2.886   0.636 -0.2676 -0.2281  0.3124
 1003MOL0     O38324   4.763   3.117   0.716 -0.3392  0.0582 -0.2969
 1003MOL0     C38325   4.548   3.038   0.967 -0.2823  0.4766  0.4897
 1003MOL0     C38326   4.467   3.091   1.074 -0.7525 -1.1517 -0.6984
 1003MOL0     N38327   3.908   2.971   1.522  0.3557  0.0302  0.1917
 1003MOL0     N38328   3.826   2.873   1.550  0.1062  0.1299  0.7511
 1003MOL0     C38329   2.642   2.311   1.780  0.2495 -0.2475 -0.2367
 1003MOL0     C38330   2.508   2.313   1.809 -0.5270 -0.3755  0.0524
 1003MOL0     C38331   2.071   2.324   1.868 -0.1270 -1.0087  0.1589
 1003MOL0     C38332   2.001   2.297   1.740 -0.0492 -0.2243  0.0427
 1003MOL0     C38333   1.869   2.276   1.743 -0.1864 -0.5923  0.4397
 1003MOL0     C38334   1.792   2.298   1.862 -0.0320  0.3164 -0.0141
 1003MOL0     O38335   1.655   2.293   1.862  0.6130  0.0474 -0.5579
 1003MOL0     C38336   1.577   2.282   1.748 -1.1298  0.2609 -0.2550
 1003MOL0     C38337   1.431   2.283   1.780 -0.0420 -0.0487  0.7763
 1003MOL0     C38338   1.386   2.175   1.876  0.2834 -0.2604 -0.4756
 1003MOL0     C38339   1.272   2.224   1.959  0.2896 -0.4945  0.6975
 1003MOL0     C38340   1.157   2.281   1.886 -0.1739 -0.0814 -0.3415
 1003MOL0     C38341   1.070   2.327   1.812  0.0357 -0.3926 -0.1071
 1003MOL0     C38342   1.861   2.321   1.976  1.1103 -0.4368 -1.0264
 1003MOL0     C38343   1.995   2.333   1.987 -0.6466  0.3870 -0.1830
 1003MOL0     C38344   2.054   2.350   2.121  0.2437 -0.5560 -0.5761
 1003MOL0     H38345   2.391   2.478   1.537  2.7972 -1.1521 -1.4049
 1003MOL0     H38346   2.615   2.465   1.477 -1.1163 -0.3550 -0.4883
 1003MOL0     H38347   2.836   2.490   1.470 -0.5929 -0.1206 -0.8112
 1003MOL0     H38348   2.796   2.325   1.416 -2.1104  0.2983  2.4118
 1003MOL0     H38349   3.027   2.281   1.545 -0.2766  1.9240  1.7746
 1003MOL0     H38350   3.025   2.317   1.373  0.0812 -1.3125  1.2916
 1003MOL0     H38351   3.054   2.572   1.459  1.1685  0.2626 -0.4069
 1003MOL0     H38352   3.119   2.480   1.593  2.9222 -3.0627  0.0093
 1003MOL0     H38353   3.289   2.385   1.474  1.6360  0.0802 -1.5733
 1003MOL0     H38354   3.216   2.438   1.318 -1.1225 -0.8414  0.3754
 1003MOL0     H38355   3.314   2.647   1.524  1.3198  1.9440  0.1095
 1003MOL0     H38356   3.275   2.667   1.346  0.1815 -1.8397 -1.5201
 1003MOL0     H38357   3.512   2.535   1.477  1.2597 -0.1310 -0.1346
 1003MOL0     H38358   3.490   2.541   1.296  1.3083 -2.4191  0.9851
 1003MOL0     H38359   3.511   2.790   1.481 -1.3195  1.3035 -1.5039
 1003MOL0     H38360   3.542   2.790   1.312 -0.2828 -2.7478 -2.1495
 1003MOL0     H38361   3.722   2.639   1.496  0.1926  2.7744  1.2857
 1003MOL0     H38362   3.727   2.657   1.315  1.1681 -1.8902  0.0688
 1003MOL0     H38363   3.767   2.922   1.227  4.8940 -0.9327 -1.3369
 1003MOL0     H38364   3.980   3.187   1.378  0.3861  1.2566 -2.0575
 1003MOL0     H38365   3.871   3.166   1.249  0.4518  0.4530 -0.2368
 1003MOL0     H38366   4.130   3.004   1.304 -0.2236  1.2673  0.7700
 1003MOL0     H38367   4.034   2.975   1.170 -0.2034 -1.1279  2.4693
 1003MOL0     H38368   4.175   3.109   1.073  0.8562 -0.4331  1.1061
 1003MOL0     H38369   4.064   3.237   1.109 -2.6812 -2.2727 -0.5931
 1003MOL0     H38370   4.207   3.295   1.310  0.0835 -1.8011  1.8692
 1003MOL0     H38371   4.300   3.143   1.283 -0.5711 -0.1779  1.1435
 1003MOL0     H38372   4.418   3.394   0.916  2.7492 -0.0191 -2.6603
 1003MOL0     H38373   4.643   3.356   0.710 -0.2048 -1.0372 -0.1754
 1003MOL0     H38374   4.456   3.383   0.696  0.5798  0.9031 -4.3648
 1003MOL0     H38375   4.533   3.256   0.624 -2.1870  1.6259 -1.7338
 1003MOL0     H38376   4.646   2.665   0.710  0.3118 -1.5906  0.0678
 1003MOL0     H38377   4.827   2.505   0.623  0.5946 -0.8286 -1.2588
 1003MOL0     H38378   4.980   2.384   0.504  1.4111  1.1564  1.3370
 1003MOL0     H38379   4.903   2.500   0.389  0.2154 -1.1032 -1.2471
 1003MOL0     H38380   5.116   2.513   0.264  1.0992  0.0789  0.1886
 1003MOL0     H38381   5.191   2.412   0.386  1.7306  1.9745 -0.7886
 1003MOL0     H38382   4.976   2.317   0.193 -1.0185  0.4596  0.9320
 1003MOL0     H38383   5.022   2.217   0.332  0.9906 -4.5484 -3.5046
 1003MOL0     H38384   5.255   2.200   0.275 -0.1887 -0.4999  0.8369
 1003MOL0     H38385   5.236   2.312   0.138  1.2891 -1.9742 -1.6657
 1003MOL0     H38386   5.115   2.029   0.184  2.0923 -0.6177  1.8342
 1003MOL0     H38387   5.090   2.136   0.046 -2.8454 -1.8468  0.9968
 1003MOL0     H38388   5.336   2.002   0.167 -0.7115 -0.1959  0.8605
 1003MOL0     H38389   5.365   2.106   0.025  1.8006 -1.0399  0.3794
 1003MOL0     H38390   5.164   1.946  -0.071 -1.9265 -1.5149  2.4216
 1003MOL0     H38391   5.233   1.827   0.030  1.0691 -0.9241 -0.7695
 1003MOL0     H38392   5.389   1.951  -0.185 -0.7774 -0.5573 -0.1181
 1003MOL0     H38393   5.339   1.786  -0.138 -0.7987  0.3572  0.4996
 1003MOL0     H38394   5.084   2.838   0.545  0.7381 -1.7303  0.9386
 1003MOL0     H38395   4.937   2.985   0.645  0.5987 -0.4430 -1.0987
 1003MOL0     H38396   4.597   2.942   0.978  0.1617  0.3601 -1.9896
 1003MOL0     H38397   4.456   3.028   1.162  2.0470  2.1891  2.3727
 1003MOL0     H38398   2.711   2.258   1.845 -0.0483  1.4303  1.5490
 1003MOL0     H38399   2.492   2.254   1.899 -2.4824  0.2078  0.1230
 1003MOL0     H38400   2.049   2.302   1.643 -2.6879  1.9453 -1.2596
 1003MOL0     H38401   1.822   2.272   1.645 -0.7621 -2.4006  0.7593
 1003MOL0     H38402   1.610   2.366   1.686  2.3676  0.5054  1.6684
 1003MOL0     H38403   1.598   2.191   1.692 -0.9687  1.4749 -2.2423
 1003MOL0     H38404   1.381   2.272   1.684  2.1529 -0.7614 -0.3405
 1003MOL0     H38405   1.407   2.385   1.810  2.8129  1.4502 -1.6261
 1003MOL0     H38406   1.356   2.083   1.824 -0.2372 -0.3649  0.0062
 1003MOL0     H38407   1.463   2.145   1.948 -1.1148 -1.5794  0.5370
 1003MOL0     H38408   1.324   2.277   2.039  1.1704  0.4359 -0.4651
 1003MOL0     H38409   1.236   2.132   2.007  0.1529 -2.0285 -2.0875
 1003MOL0     H38410   0.983   2.358   1.758 -0.2407  0.5803  0.8703
 1003MOL0     H38411   1.801   2.338   2.064 -0.0683  1.8187 -2.1589
 1003MOL0     H38412   1.975   2.367   2.195  2.5476 -1.8467  2.3961
 1003MOL0     H38413   2.115   2.267   2.156 -0.4639 -1.3518 -1.2118
 1003MOL0     H38414   2.120   2.437   2.115  0.2879 -0.6679 -2.1553
 1004MOL0     O38415   1.091   4.887   7.435 -0.4360 -0.4297 -1.0014
 1004MOL0     C38416   0.989   4.902   7.500  0.0702 -0.4642  0.0435
 1004MOL0     O38417   0.984   4.902   7.640 -0.0892 -0.3142 -0.5800
 1004MOL0     C38418   1.096   4.867   7.702 -0.8849  0.4605  0.1360
 1004MOL0     C38419   1.187   4.766   7.662 -0.6634 -0.5092  0.1203
 1004MOL0     C38420   1.298   4.732   7.738  0.5735 -0.2232  0.3063
 1004MOL0     C38421   1.319   4.792   7.862 -0.7107 -0.0335  0.6504
 1004MOL0     O38422   1.412   4.731   7.948 -0.3675 -0.1867  0.4181
 1004MOL0     C38423   1.481   4.822   8.035 -0.2955 -0.5615  0.6596
 1004MOL0     C38424   1.592   4.756   8.114 -0.3690 -0.5778  0.0433
 1004MOL0     C38425   1.705   4.720   8.010 -0.1659  0.0112  0.3193
 1004MOL0     C38426   1.833   4.669   8.069  0.8165 -0.0815 -0.1382
 1004MOL0     C38427   1.826   4.512   8.098  0.4902 -0.0006  0.0873
 1004MOL0     C38428   1.949   4.451   8.163  0.6224  0.7438  0.8480
 1004MOL0     C38429   2.012   4.538   8.276  0.7954 -0.5142 -1.5438
 1004MOL0     C38430   2.123   4.471   8.360  0.7512 -0.2899  1.0165
 1004MOL0     N38431   2.200   4.568   8.440  0.3149  0.3138 -0.1385
 1004MOL0     C38432   2.150   4.663   8.527 -0.7291  0.0253  0.6670
 1004MOL0     C38433   2.268   4.706   8.584 -0.0103  0.5188 -0.1029
 1004MOL0     C38434   2.269   4.820   8.692 -0.2523  0.3162  0.0441
 1004MOL0     C38435   2.291   4.771   8.829  0.0713 -0.0398 -1.0094
 1004MOL0     C38436   2.276   4.881   8.935 -0.1306  0.5690 -0.0969
 1004MOL0     C38437   2.274   4.841   9.082 -0.5371  0.1280 -0.4171
 1004MOL0     O38438   2.289   4.965   9.160  0.1648  0.2097  0.7500
 1004MOL0     C38439   2.370   4.954   9.265  0.6700 -0.1510  0.5192
 1004MOL0     C38440   2.514   4.973   9.242  0.8363 -0.1954 -0.6743
 1004MOL0     C38441   2.609   4.962   9.351 -0.8548 -0.1858 -0.1522
 1004MOL0     C38442   2.750   4.986   9.317  0.3115  0.5534  0.1144
 1004MOL0     C38443   2.557   4.938   9.485 -0.8419 -0.0531  0.0800
 1004MOL0     C38444   2.642   4.921   9.603 -0.7433  0.0991  0.1034
 1004MOL0     O38445   2.598   4.976   9.722 -0.2514  0.2001  0.3513
 1004MOL0     C38446   2.693   4.975   9.816 -1.2251  0.1672 -0.3220
 1004MOL0     C38447   2.646   4.960   9.945  0.8723 -0.2051  0.1431
 1004MOL0     C38448   2.735   4.968  10.053 -0.0208 -0.1431  0.1835
 1004MOL0     C38449   2.878   4.988  10.045 -0.2150 -0.7223  0.4151
 1004MOL0     O38450   2.965   4.997  10.152  1.0491 -0.0400 -0.0186
 1004MOL0     C38451   2.908   5.030  10.285  0.2409  0.1859 -0.0773
 1004MOL0     C38452   2.894   5.175  10.322  0.2375 -0.2696 -0.2759
 1004MOL0     C38453   3.036   5.246  10.309  0.9559  0.5858 -0.6815
 1004MOL0     C38454   3.015   5.397  10.352  0.6500  0.7462 -0.3903
 1004MOL0     C38455   3.149   5.471  10.384  0.3124 -0.1228 -0.1872
 1004MOL0     C38456   3.219   5.513  10.265 -0.4045 -0.8207  1.0431
 1004MOL0     C38457   3.151   5.637  10.215  0.6383  0.3975  0.2119
 1004MOL0     C38458   3.202   5.682  10.074 -0.2350 -0.7675 -1.1811
 1004MOL0    Cl38459   3.124   5.827  10.007 -0.0078  0.1457 -0.0324
 1004MOL0     C38460   2.923   4.999   9.917 -1.0342  0.2884  0.3892
 1004MOL0     C38461   2.833   5.002   9.803  0.8838 -0.1727  0.1238
 1004MOL0     O38462   2.749   4.860   9.586 -1.2333  0.9070 -0.9396
 1004MOL0     C38463   2.418   4.926   9.497  0.8139 -0.7168  0.4732
 1004MOL0     C38464   2.324   4.930   9.395 -0.4144 -0.6347  0.5138
 1004MOL0     N38465   2.378   4.638   8.537  0.1855  0.4878  0.4606
 1004MOL0     N38466   2.331   4.555   8.447 -0.0026  0.0397 -0.9227
 1004MOL0     C38467   1.226   4.883   7.911  0.4829 -0.1054  0.1622
 1004MOL0     C38468   1.115   4.920   7.832  0.7243  0.6956 -1.1254
 1004MOL0     C38469   0.867   4.945   7.428  0.4578  0.7168  0.3397
 1004MOL0     C38470   0.765   5.021   7.492  0.2825 -0.7823 -0.6077
 1004MOL0     C38471   0.650   5.063   7.428 -0.0585  0.2040  0.6151
 1004MOL0     C38472   0.637   5.039   7.290  0.4087  0.2061 -0.6846
 1004MOL0     O38473   0.540   5.083   7.204 -0.0476  0.1165 -0.3287
 1004MOL0     C38474   0.447   5.171   7.270 -0.5208  0.2306 -0.1666
 1004MOL0     C38475   0.340   5.205   7.173  0.1205 -0.1868  0.0936
 1004MOL0     C38476   0.372   5.321   7.071  0.2495 -0.2975 -0.0903
 1004MOL0     C38477   0.508   5.284   7.000 -0.3735 -0.2043  0.1890
 1004MOL0     C38478   0.516   5.380   6.886 -0.0317 -0.6158 -0.8184
 1004MOL0     C38479   0.511   5.468   6.801 -1.4073 -0.1833 -0.4339
 1004MOL0     C38480   0.737   4.957   7.228  0.3554 -0.0042  0.5475
 1004MOL0     C38481   0.849   4.904   7.293  0.2060 -0.5859  0.0418
 1004MOL0     C38482   0.946   4.808   7.220 -0.5100  0.7358  0.2387
 1004MOL0     H38483   1.167   4.701   7.577  1.8825 -2.8650  1.1827
 1004MOL0     H38484   1.371   4.660   7.702  1.4481  0.6862  0.2246
 1004MOL0     H38485   1.421   4.866   8.115 -0.5095  1.6727 -0.6613
 1004MOL0     H38486   1.526   4.899   7.971 -1.4672  0.5876  1.1800
 1004MOL0     H38487   1.624   4.822   8.194 -2.3966  0.0015  0.4240
 1004MOL0     H38488   1.555   4.658   8.147  0.9679 -1.7368 -1.6579
 1004MOL0     H38489   1.672   4.642   7.940  2.1084  0.8733 -1.8550
 1004MOL0     H38490   1.732   4.812   7.957  1.4114 -0.8139 -0.3732
 1004MOL0     H38491   1.922   4.683   8.008  1.7681 -0.0353  1.1985
 1004MOL0     H38492   1.856   4.726   8.160 -4.5327  1.3179  0.6889
 1004MOL0     H38493   1.799   4.459   8.006 -0.1308  0.6595 -0.1195
 1004MOL0     H38494   1.750   4.492   8.175 -0.5247  1.3341 -0.5447
 1004MOL0     H38495   1.925   4.349   8.193  2.2459  0.2156  0.4871
 1004MOL0     H38496   2.030   4.445   8.089  0.6347 -3.8727  0.9538
 1004MOL0     H38497   1.931   4.576   8.338  1.7885 -2.5262  1.1924
 1004MOL0     H38498   2.069   4.616   8.224  0.9215  0.2824 -0.2540
 1004MOL0     H38499   2.073   4.397   8.425 -1.4870 -1.3148 -1.6573
 1004MOL0     H38500   2.187   4.412   8.293  0.5300  1.6019 -0.9577
 1004MOL0     H38501   2.050   4.695   8.553 -0.7253 -0.8747  1.8855
 1004MOL0     H38502   2.173   4.871   8.700 -1.4050 -2.0001  2.1666
 1004MOL0     H38503   2.349   4.892   8.672 -0.0272  0.0739  0.0702
 1004MOL0     H38504   2.223   4.688   8.850  0.7885  0.0505  2.2246
 1004MOL0     H38505   2.387   4.721   8.846  0.3423  0.2488 -1.6726
 1004MOL0     H38506   2.345   4.964   8.918 -1.7703  1.8378 -0.8189
 1004MOL0     H38507   2.176   4.922   8.920 -0.7158  0.2671  2.4803
 1004MOL0     H38508   2.183   4.788   9.111  0.7846 -1.4881  1.0813
 1004MOL0     H38509   2.356   4.768   9.085 -1.2671 -0.7924 -1.9645
 1004MOL0     H38510   2.554   4.999   9.145  1.2983 -2.3145 -1.0999
 1004MOL0     H38511   2.809   4.897   9.339 -1.0349 -0.3865  0.0485
 1004MOL0     H38512   2.796   5.067   9.373  1.2943 -0.0716  0.2219
 1004MOL0     H38513   2.761   4.996   9.208 -0.5210  0.9834  0.0623
 1004MOL0     H38514   2.538   4.953   9.954  0.6464  2.1855  0.1154
 1004MOL0     H38515   2.682   4.958  10.147  1.8127 -4.2128  0.9899
 1004MOL0     H38516   2.812   4.978  10.293  0.2933  0.0523 -0.3018
 1004MOL0     H38517   2.970   4.983  10.361 -1.7253  2.3832  3.1415
 1004MOL0     H38518   2.823   5.226  10.256  0.4552  1.2625  0.6068
 1004MOL0     H38519   2.857   5.180  10.424 -3.1934 -2.4048 -1.2599
 1004MOL0     H38520   3.074   5.239  10.207 -0.0251 -2.7320 -0.9426
 1004MOL0     H38521   3.112   5.209  10.378  0.1928  0.6304  0.1986
 1004MOL0     H38522   2.959   5.402  10.445  0.0144  0.8155 -0.7701
 1004MOL0     H38523   2.950   5.445  10.278  1.0820  3.3139  0.7924
 1004MOL0     H38524   3.118   5.560  10.441 -1.4938 -0.0775 -1.1707
 1004MOL0     H38525   3.211   5.424  10.461  1.9562  1.4037 -0.5129
 1004MOL0     H38526   3.218   5.438  10.186  1.3744 -2.7891  2.7920
 1004MOL0     H38527   3.323   5.543  10.279 -1.1470  2.6193  0.2772
 1004MOL0     H38528   3.157   5.713  10.293 -1.6840  0.7007  0.1571
 1004MOL0     H38529   3.044   5.620  10.199  0.6052  2.4129 -2.0443
 1004MOL0     H38530   3.184   5.608   9.996 -1.3472  1.1092 -2.8057
 1004MOL0     H38531   3.310   5.702  10.078  0.2409 -2.7340 -2.5051
 1004MOL0     H38532   3.029   5.010   9.896 -0.9715 -0.3549  0.3286
 1004MOL0     H38533   2.879   5.021   9.707  0.3891  0.6263  0.0349
 1004MOL0     H38534   2.371   4.899   9.591 -1.1337 -5.1488 -1.4903
 1004MOL0     H38535   2.219   4.909   9.413 -0.3800 -2.1200 -0.8400
 1004MOL0     H38536   1.218   4.904   8.017 -2.4059  3.2498 -0.5445
 1004MOL0     H38537   1.031   4.976   7.872  1.9880  2.5113 -0.9027
 1004MOL0     H38538   0.778   5.041   7.598  1.3775 -0.0993 -0.8671
 1004MOL0     H38539   0.575   5.117   7.485 -0.0082 -2.4581  3.5177
 1004MOL0     H38540   0.402   5.126   7.359  0.8336 -0.5061  0.1754
 1004MOL0     H38541   0.511   5.254   7.304  2.0200 -1.1821 -1.2065
 1004MOL0     H38542   0.258   5.234   7.240 -0.8615 -4.3121  0.9510
 1004MOL0     H38543   0.296   5.116   7.128  2.5408 -4.2473  4.8052
 1004MOL0     H38544   0.284   5.325   7.005 -2.0771  0.6611  2.8398
 1004MOL0     H38545   0.384   5.418   7.119  0.6387 -0.2119 -0.3569
 1004MOL0     H38546   0.525   5.185   6.958 -1.1607  0.6492 -2.3473
 1004MOL0     H38547   0.594   5.297   7.067  0.4888 -0.9655 -0.7354
 1004MOL0     H38548   0.525   5.547   6.730  0.1913  0.5608  0.6643
 1004MOL0     H38549   0.729   4.951   7.120  0.0445 -1.4547  0.6294
 1004MOL0     H38550   0.903   4.751   7.136  0.2790 -0.3616  0.5491
 1004MOL0     H38551   1.034   4.854   7.176  3.6494 -6.6385 -0.7477
 1004MOL0     H38552   0.974   4.739   7.301 -2.6503  2.4162  2.5984
 1005MOL0     O38553   3.944   7.438   7.533  0.5429 -0.3908  0.5148
 1005MOL0     C38554   3.929   7.561   7.512  0.0311 -0.1827 -0.0216
 1005MOL0     O38555   4.031   7.642   7.474 -0.0513  0.2975 -0.0049
 1005MOL0     C38556   4.165   7.610   7.474  0.2289  0.1069 -0.9530
 1005MOL0     C38557   4.213   7.512   7.565 -0.6643 -0.1719  0.0822
 1005MOL0     C38558   4.344   7.471   7.558  0.3325  0.7444  0.4198
 1005MOL0     C38559   4.428   7.521   7.461  0.1159  0.2679  0.3733
 1005MOL0     O38560   4.554   7.468   7.435  0.4071 -0.4767 -0.1440
 1005MOL0     C38561   4.553   7.322   7.426  0.4584 -0.6125  0.1430
 1005MOL0     C38562   4.688   7.281   7.364  0.2507  0.6811 -0.2749
 1005MOL0     C38563   4.804   7.318   7.459  0.5879 -0.0585  0.1610
 1005MOL0     C38564   4.855   7.191   7.534  0.1463  0.5471 -0.3784
 1005MOL0     C38565   4.947   7.113   7.441 -0.0085 -1.2302  0.5479
 1005MOL0     C38566   4.956   6.974   7.495  0.1111 -1.5004 -0.4460
 1005MOL0     C38567   5.066   6.891   7.425  0.4326 -0.0775  0.5247
 1005MOL0     C38568   5.202   6.952   7.436 -0.5693  0.6303  0.8432
 1005MOL0     N38569   5.308   6.860   7.397 -0.0759 -0.1839 -0.1370
 1005MOL0     C38570   5.392   6.872   7.290  0.2870 -0.3385 -0.6608
 1005MOL0     C38571   5.490   6.784   7.314  1.0264  0.3271  0.3308
 1005MOL0     C38572   5.609   6.774   7.222 -0.2199 -0.0367 -0.1296
 1005MOL0     C38573   5.726   6.704   7.286 -0.7073 -0.4045  0.3758
 1005MOL0     C38574   5.808   6.808   7.371  1.2151 -0.5906  0.0206
 1005MOL0     C38575   5.884   6.924   7.313  0.3525  0.4951  0.4023
 1005MOL0     O38576   5.959   6.898   7.202 -0.9475  0.0131 -0.1984
 1005MOL0     C38577   6.092   6.858   7.212 -0.4830  0.1437 -1.0936
 1005MOL0     C38578   6.148   6.802   7.098  0.7382  0.0083  0.9750
 1005MOL0     C38579   6.271   6.739   7.101  1.3402 -0.2269 -0.1614
 1005MOL0     C38580   6.314   6.671   6.968  1.6454 -0.4664 -0.9818
 1005MOL0     C38581   6.348   6.731   7.218 -0.6835 -0.2942  0.0030
 1005MOL0     C38582   6.475   6.662   7.232 -0.4626  1.2922 -0.0784
 1005MOL0     O38583   6.553   6.704   7.335 -0.1320  1.1754  0.2846
 1005MOL0     C38584   6.684   6.666   7.334 -0.6846  0.0094 -0.0916
 1005MOL0     C38585   6.782   6.761   7.311 -0.5405 -0.1772  0.7849
 1005MOL0     C38586   6.920   6.735   7.337 -0.1141 -0.8859  0.8920
 1005MOL0     C38587   6.961   6.608   7.367  1.1838 -0.1871  0.5466
 1005MOL0     O38588   7.084   6.579   7.390 -0.6596  0.3261 -0.4478
 1005MOL0     C38589   7.175   6.684   7.410  0.1491  0.0500 -0.5963
 1005MOL0     C38590   7.311   6.645   7.465  0.0858  0.4319  0.0067
 1005MOL0     C38591   7.407   6.598   7.366 -0.3957  0.0916  0.2449
 1005MOL0     C38592   7.552   6.584   7.418 -0.0611  0.5588  0.6444
 1005MOL0     C38593   7.632   6.485   7.333  0.3559 -0.1867 -0.2552
 1005MOL0     C38594   7.771   6.433   7.395 -0.3381  0.2249  0.1255
 1005MOL0     C38595   7.881   6.402   7.291  0.2564 -0.4906 -0.1256
 1005MOL0     C38596   7.917   6.521   7.212 -0.4674 -0.4143  0.2267
 1005MOL0    Cl38597   7.983   6.660   7.298 -0.0261 -0.1373  0.2216
 1005MOL0     C38598   6.866   6.513   7.373  0.7223 -0.6132  0.5006
 1005MOL0     C38599   6.730   6.540   7.359  0.4005  0.7393 -0.3623
 1005MOL0     O38600   6.508   6.567   7.155 -0.5398 -0.2112 -0.3684
 1005MOL0     C38601   6.292   6.786   7.332  0.1958 -0.4301 -0.4439
 1005MOL0     C38602   6.164   6.844   7.329 -0.3865  0.0114 -0.1810
 1005MOL0     N38603   5.457   6.705   7.425  1.0774 -0.9955 -0.6975
 1005MOL0     N38604   5.350   6.756   7.472 -0.4159 -0.4235 -0.6161
 1005MOL0     C38605   4.388   7.617   7.365 -0.6481  0.4989 -0.4388
 1005MOL0     C38606   4.253   7.658   7.381 -0.6424 -0.5411  0.9479
 1005MOL0     C38607   3.792   7.606   7.516  1.3785  0.5394  0.3210
 1005MOL0     C38608   3.694   7.522   7.572  0.6382 -0.1106 -0.6784
 1005MOL0     C38609   3.572   7.573   7.610 -0.1148 -0.5250 -0.4088
 1005MOL0     C38610   3.541   7.707   7.589  0.1664 -0.3095 -0.5490
 1005MOL0     O38611   3.433   7.770   7.649 -0.0854  0.4217  0.0242
 1005MOL0     C38612   3.338   7.686   7.720  0.0418  0.3221  0.8297
 1005MOL0     C38613   3.237   7.608   7.621 -0.1670  0.2735  0.3832
 1005MOL0     C38614   3.139   7.523   7.704  0.0010 -0.2649  0.1240
 1005MOL0     C38615   3.202   7.411   7.789 -0.3199  0.3016  0.4174
 1005MOL0     C38616   3.101   7.324   7.851  0.0315  0.0847  1.0020
 1005MOL0     C38617   3.009   7.254   7.894 -0.3213  0.2025  0.2356
 1005MOL0     C38618   3.631   7.786   7.526 -0.7909  1.3035  0.2389
 1005MOL0     C38619   3.753   7.738   7.478 -0.6641 -0.4858 -1.2876
 1005MOL0     C38620   3.843   7.846   7.419 -0.3133 -0.0426 -1.0573
 1005MOL0     H38621   4.149   7.446   7.622  1.0263 -1.9821  0.0091
 1005MOL0     H38622   4.385   7.405   7.634  0.7927 -0.0377 -0.4858
 1005MOL0     H38623   4.475   7.289   7.357 -0.0046 -2.5267  1.5015
 1005MOL0     H38624   4.549   7.272   7.523  0.1250  0.6959  0.8243
 1005MOL0     H38625   4.692   7.172   7.357  0.0671  0.2911  3.7407
 1005MOL0     H38626   4.694   7.329   7.266 -0.7417  2.0429  0.2943
 1005MOL0     H38627   4.884   7.355   7.394  1.2746 -1.8426 -0.0624
 1005MOL0     H38628   4.779   7.398   7.529  2.2876 -0.1204  0.8974
 1005MOL0     H38629   4.914   7.228   7.619 -0.9616 -1.7852  1.5094
 1005MOL0     H38630   4.779   7.124   7.575 -1.8704  2.7139 -0.3678
 1005MOL0     H38631   5.050   7.152   7.441 -0.0677 -0.9739 -1.3328
 1005MOL0     H38632   4.914   7.119   7.337  2.4393 -0.8357 -0.2946
 1005MOL0     H38633   4.979   6.984   7.601 -1.4355  0.4247 -0.2442
 1005MOL0     H38634   4.864   6.917   7.476 -2.5493  2.0677  0.7376
 1005MOL0     H38635   5.026   6.883   7.323 -0.8801  1.7736  0.8293
 1005MOL0     H38636   5.078   6.796   7.477  0.7261 -1.4527 -1.9410
 1005MOL0     H38637   5.205   7.041   7.373 -0.8134 -0.5145 -0.8616
 1005MOL0     H38638   5.208   6.985   7.540  2.1046  1.9417  0.3387
 1005MOL0     H38639   5.383   6.961   7.229 -2.1262  1.4233  2.0889
 1005MOL0     H38640   5.637   6.873   7.184  0.0595 -1.0719 -2.9137
 1005MOL0     H38641   5.584   6.713   7.134 -0.3920  1.6926 -1.3143
 1005MOL0     H38642   5.704   6.613   7.342  0.9584 -1.5542 -0.7305
 1005MOL0     H38643   5.790   6.679   7.201 -1.6657  2.0663 -1.2054
 1005MOL0     H38644   5.742   6.842   7.452 -0.1855 -1.2294 -0.8262
 1005MOL0     H38645   5.884   6.742   7.413  1.2258 -0.9331 -0.5293
 1005MOL0     H38646   5.807   6.998   7.287 -0.9318 -1.4671 -1.7972
 1005MOL0     H38647   5.946   6.970   7.391  1.3718 -1.6333  0.9036
 1005MOL0     H38648   6.102   6.811   7.000 -1.7606 -0.4051  2.0448
 1005MOL0     H38649   6.306   6.564   6.992 -1.3638  0.2400  1.8819
 1005MOL0     H38650   6.417   6.706   6.952  1.0364  2.5687  0.9261
 1005MOL0     H38651   6.254   6.685   6.878  0.1283 -0.6937 -0.0417
 1005MOL0     H38652   6.750   6.862   7.289 -0.6109  0.0629  1.9252
 1005MOL0     H38653   6.988   6.819   7.324  1.4041 -2.1927  0.1428
 1005MOL0     H38654   7.194   6.731   7.313 -0.2099  0.8048 -0.3112
 1005MOL0     H38655   7.145   6.766   7.476  2.7471  1.2613 -0.7655
 1005MOL0     H38656   7.354   6.731   7.516 -2.4597  1.8390 -0.0495
 1005MOL0     H38657   7.295   6.567   7.541  0.0122  0.2378 -0.2084
 1005MOL0     H38658   7.411   6.670   7.284  0.7739 -1.3102 -0.9574
 1005MOL0     H38659   7.366   6.506   7.324 -1.5648  0.6817  0.0469
 1005MOL0     H38660   7.561   6.552   7.523  0.4663  2.3225  1.1753
 1005MOL0     H38661   7.596   6.683   7.404 -1.0305  1.0931  1.2836
 1005MOL0     H38662   7.565   6.399   7.318  2.1459 -1.7861  0.4576
 1005MOL0     H38663   7.654   6.533   7.237  2.3255  1.7686  1.0606
 1005MOL0     H38664   7.744   6.349   7.458 -0.1000  1.7141  2.3230
 1005MOL0     H38665   7.806   6.505   7.470 -0.2813  0.2877  0.0400
 1005MOL0     H38666   7.853   6.313   7.233 -0.5987 -1.0814  1.1416
 1005MOL0     H38667   7.972   6.369   7.342  1.2474 -1.4885 -2.4115
 1005MOL0     H38668   7.828   6.535   7.150  0.4287 -0.3984 -1.0758
 1005MOL0     H38669   7.988   6.476   7.144 -3.6577 -3.9854 -1.0931
 1005MOL0     H38670   6.900   6.411   7.388 -3.1141 -2.3823 -1.4157
 1005MOL0     H38671   6.654   6.462   7.361  0.1035  0.8854 -3.1127
 1005MOL0     H38672   6.335   6.776   7.431 -1.2502 -2.6927  0.0207
 1005MOL0     H38673   6.128   6.862   7.430  1.0269 -4.9138  1.5111
 1005MOL0     H38674   4.451   7.643   7.280 -0.6828  0.2976 -0.5261
 1005MOL0     H38675   4.228   7.750   7.329  0.1594 -0.3892  0.8170
 1005MOL0     H38676   3.717   7.418   7.595  2.4388  0.7555  1.9156
 1005MOL0     H38677   3.494   7.507   7.647 -0.2436  0.0120  0.3161
 1005MOL0     H38678   3.384   7.624   7.798  2.1987  2.6086  1.5259
 1005MOL0     H38679   3.274   7.740   7.790  0.8136  1.5601  0.6122
 1005MOL0     H38680   3.295   7.561   7.541  3.7463  1.4325  2.2697
 1005MOL0     H38681   3.184   7.689   7.571  1.7304  0.4151 -1.5544
 1005MOL0     H38682   3.086   7.596   7.766 -2.7186 -2.1870  0.2552
 1005MOL0     H38683   3.068   7.480   7.632  0.4259  0.8670 -1.0236
 1005MOL0     H38684   3.258   7.464   7.866 -2.4001  0.4814  1.8884
 1005MOL0     H38685   3.274   7.350   7.733  0.2581  1.6692 -0.3638
 1005MOL0     H38686   2.931   7.190   7.930 -0.2525 -1.5609 -2.4769
 1005MOL0     H38687   3.601   7.890   7.514 -1.1628  1.1550 -0.1319
 1005MOL0     H38688   3.914   7.891   7.489 -0.3491 -1.1844 -0.2612
 1005MOL0     H38689   3.910   7.818   7.338  1.3317  2.3962 -0.6610
 1005MOL0     H38690   3.768   7.920   7.388 -2.2801 -1.6877 -0.4645
 1006MOL0     O38691   9.628   2.228   0.958  0.0796  0.2352  0.2397
 1006MOL0     C38692   9.607   2.186   0.844 -0.8249  0.3762  0.2557
 1006MOL0     O38693   9.707   2.151   0.755  0.1377 -0.5231 -0.0225
 1006MOL0     C38694   9.830   2.197   0.793 -0.3627  0.5349 -0.6478
 1006MOL0     C38695   9.872   2.334   0.810 -0.7164 -0.9375 -0.5261
 1006MOL0     C38696  10.009   2.376   0.812 -0.0809  0.1194 -0.4258
 1006MOL0     C38697  10.114   2.285   0.805 -0.3969  0.1368  0.5947
 1006MOL0     O38698  10.252   2.313   0.828 -0.2268 -0.3470  0.4365
 1006MOL0     C38699  10.280   2.458   0.814  0.0135  0.1389  0.4581
 1006MOL0     C38700  10.425   2.475   0.815 -1.1100 -0.5662  0.6163
 1006MOL0     C38701  10.459   2.619   0.794 -0.1570 -0.4820 -0.1473
 1006MOL0     C38702  10.458   2.666   0.653 -0.0475 -0.5602  0.5223
 1006MOL0     C38703  10.504   2.812   0.645 -0.2353 -0.3206 -0.8248
 1006MOL0     C38704  10.646   2.832   0.699  0.2593  0.0665 -0.2710
 1006MOL0     C38705  10.693   2.976   0.670 -0.0393  0.6072 -0.6616
 1006MOL0     C38706  10.842   2.990   0.682 -0.2587 -0.0768 -0.5820
 1006MOL0     N38707  10.903   2.934   0.555 -0.4566  0.0303  0.3517
 1006MOL0     C38708  10.934   2.800   0.517  1.3143 -0.3078  0.2537
 1006MOL0     C38709  10.982   2.810   0.395  0.6643  1.9703 -0.5552
 1006MOL0     C38710  11.020   2.684   0.322 -0.6279 -0.2988 -0.2269
 1006MOL0     C38711  11.156   2.628   0.377 -0.1212  1.1649 -0.8124
 1006MOL0     C38712  11.258   2.736   0.400 -0.5283  0.3731 -0.3871
 1006MOL0     C38713  11.321   2.798   0.267 -0.5173  0.2159 -0.0786
 1006MOL0     O38714  11.414   2.718   0.186  0.0690 -0.2053  0.4005
 1006MOL0     C38715  11.551   2.730   0.210  0.3218  0.5388  0.0208
 1006MOL0     C38716  11.613   2.793   0.321 -0.6758 -0.1835 -0.3159
 1006MOL0     C38717  11.749   2.799   0.335 -0.5036  0.0531  0.7945
 1006MOL0     C38718  11.801   2.873   0.448  0.7013 -0.6807 -0.2973
 1006MOL0     C38719  11.836   2.759   0.226  0.7760 -0.2361 -0.9847
 1006MOL0     C38720  11.988   2.767   0.225 -0.6889  0.0865 -0.6522
 1006MOL0     O38721  12.054   2.822   0.334  0.5815  0.4497  0.1962
 1006MOL0     C38722  12.184   2.851   0.326 -0.5137  0.1422 -0.1535
 1006MOL0     C38723  12.229   2.973   0.271 -0.2247  0.1895  0.2397
 1006MOL0     C38724  12.368   3.002   0.272  0.7068  0.5189  0.0341
 1006MOL0     C38725  12.458   2.915   0.330 -0.2384  0.1734  0.4945
 1006MOL0     O38726  12.593   2.942   0.344  0.7603 -0.2045  0.3770
 1006MOL0     C38727  12.627   3.076   0.337 -0.8125 -0.6703 -0.1390
 1006MOL0     C38728  12.769   3.101   0.387  0.5444 -0.0467  0.4230
 1006MOL0     C38729  12.873   3.013   0.326 -0.3955  0.4381  0.4546
 1006MOL0     C38730  13.016   3.044   0.369  0.0072  1.3153 -0.2210
 1006MOL0     C38731  13.107   2.921   0.351 -0.2044 -0.6490 -0.0477
 1006MOL0     C38732  13.248   2.963   0.396  0.3000 -0.0140  0.1657
 1006MOL0     C38733  13.332   2.837   0.403  0.4216 -0.1316 -0.7647
 1006MOL0     C38734  13.317   2.748   0.521 -0.3489 -0.0737 -0.7107
 1006MOL0    Cl38735  13.426   2.605   0.490  0.2656 -0.0726 -0.1346
 1006MOL0     C38736  12.412   2.800   0.382 -0.4594  0.3605  0.3402
 1006MOL0     C38737  12.280   2.765   0.383  1.0426 -0.6739  0.0727
 1006MOL0     O38738  12.042   2.739   0.121  0.5088  1.0300 -0.0013
 1006MOL0     C38739  11.771   2.697   0.120  0.2265  0.0719 -0.6954
 1006MOL0     C38740  11.635   2.675   0.120  0.0265 -0.3683  0.6483
 1006MOL0     N38741  10.989   2.943   0.359 -0.1874  0.0427 -0.1696
 1006MOL0     N38742  10.939   3.015   0.456  0.3363 -0.1800  0.4918
 1006MOL0     C38743  10.073   2.148   0.794 -0.5242  0.3503 -0.0969
 1006MOL0     C38744   9.937   2.100   0.786 -0.5574  0.1173 -0.0280
 1006MOL0     C38745   9.469   2.168   0.797 -0.0451  0.4399  0.1239
 1006MOL0     C38746   9.450   2.207   0.660  0.4723 -0.6121  0.2325
 1006MOL0     C38747   9.325   2.226   0.603 -0.1986 -0.2598  0.4210
 1006MOL0     C38748   9.203   2.227   0.686  0.4921  0.0947  0.1390
 1006MOL0     O38749   9.067   2.255   0.647 -0.3352 -0.1814  0.2285
 1006MOL0     C38750   8.964   2.163   0.700  0.1780  0.1215  1.1183
 1006MOL0     C38751   8.957   2.039   0.605 -0.1640 -0.2747 -0.0896
 1006MOL0     C38752   8.898   2.073   0.460  0.0788  0.2702 -0.7775
 1006MOL0     C38753   8.880   1.947   0.370  0.5239 -0.3811 -0.8372
 1006MOL0     C38754   8.820   1.830   0.438  0.1594  0.3313  0.4165
 1006MOL0     C38755   8.771   1.733   0.494  0.1914  1.4103  0.3419
 1006MOL0     C38756   9.225   2.203   0.818  0.0515  0.5530 -0.1124
 1006MOL0     C38757   9.351   2.160   0.880  0.6658 -0.7203  1.0739
 1006MOL0     C38758   9.331   2.130   1.030 -0.2699 -0.3591  0.2725
 1006MOL0     H38759   9.807   2.420   0.820  1.1144  0.3052  1.6633
 1006MOL0     H38760  10.032   2.482   0.822 -0.4526  0.1510  0.1542
 1006MOL0     H38761  10.240   2.508   0.902 -0.0696 -0.3542  0.7067
 1006MOL0     H38762  10.232   2.497   0.724  0.5851  2.0354  0.9476
 1006MOL0     H38763  10.455   2.451   0.917  2.5297  3.6625  0.8088
 1006MOL0     H38764  10.479   2.424   0.734 -1.0252  2.6647 -1.5633
 1006MOL0     H38765  10.384   2.678   0.847 -1.5161 -0.4327 -2.0399
 1006MOL0     H38766  10.552   2.645   0.847 -1.7713  2.0536  1.7067
 1006MOL0     H38767  10.530   2.617   0.587 -0.5946  1.6248 -1.8769
 1006MOL0     H38768  10.358   2.651   0.610  0.6585 -0.2653 -1.3268
 1006MOL0     H38769  10.426   2.872   0.693  1.2313  0.0504  1.2574
 1006MOL0     H38770  10.499   2.840   0.540  0.5801 -3.6178 -1.8511
 1006MOL0     H38771  10.656   2.802   0.804 -1.3605 -4.7559 -1.2375
 1006MOL0     H38772  10.710   2.762   0.646  3.0122  2.0089  0.2394
 1006MOL0     H38773  10.642   3.038   0.744  0.8528 -0.8860  1.2951
 1006MOL0     H38774  10.663   3.000   0.567  0.7306 -0.0414 -1.0450
 1006MOL0     H38775  10.870   3.095   0.693  2.2471 -0.5430 -1.7732
 1006MOL0     H38776  10.873   2.938   0.774 -0.3722  0.1888 -0.3938
 1006MOL0     H38777  10.916   2.705   0.568 -0.2737  0.2735  0.8214
 1006MOL0     H38778  11.034   2.717   0.218 -0.0833 -0.2516 -0.1423
 1006MOL0     H38779  10.943   2.606   0.323  0.3840 -1.4880 -3.2258
 1006MOL0     H38780  11.131   2.589   0.476  2.1321 -2.4501 -1.5078
 1006MOL0     H38781  11.191   2.543   0.318  1.6240  2.1132 -1.1953
 1006MOL0     H38782  11.211   2.816   0.459 -0.7815 -0.8862  1.2004
 1006MOL0     H38783  11.346   2.691   0.447  1.5850  0.9539 -3.5070
 1006MOL0     H38784  11.236   2.820   0.202 -1.5196 -0.3621  0.9839
 1006MOL0     H38785  11.368   2.890   0.304 -1.6230  0.5177  0.6299
 1006MOL0     H38786  11.553   2.848   0.393  0.4707  0.6484  0.0473
 1006MOL0     H38787  11.881   2.810   0.487  1.3430 -0.6170 -1.4747
 1006MOL0     H38788  11.721   2.888   0.521  1.5762 -1.0783  0.7686
 1006MOL0     H38789  11.847   2.972   0.433  1.6032 -0.5835  2.5169
 1006MOL0     H38790  12.155   3.035   0.221  2.0007  1.1464 -2.1171
 1006MOL0     H38791  12.406   3.086   0.216  0.8030 -2.2828 -4.6413
 1006MOL0     H38792  12.616   3.104   0.232 -1.4799  0.6101  0.2460
 1006MOL0     H38793  12.565   3.137   0.404 -2.2346 -2.0395 -0.1451
 1006MOL0     H38794  12.788   3.208   0.377  2.0049 -0.4299 -1.4104
 1006MOL0     H38795  12.764   3.072   0.493 -3.5253 -4.4198 -0.5943
 1006MOL0     H38796  12.886   3.040   0.221  1.7110  2.7793  1.2129
 1006MOL0     H38797  12.851   2.906   0.338  1.2181 -0.0106 -0.1997
 1006MOL0     H38798  13.010   3.072   0.475 -0.3074  3.5385 -0.7746
 1006MOL0     H38799  13.057   3.125   0.309 -1.1173  1.0514 -1.3992
 1006MOL0     H38800  13.070   2.834   0.406  1.0604 -1.1691  0.0203
 1006MOL0     H38801  13.104   2.896   0.245 -2.2680  1.5361 -0.5714
 1006MOL0     H38802  13.240   3.014   0.492 -1.1509  0.6275 -0.2805
 1006MOL0     H38803  13.300   3.028   0.324  0.3218  0.1707  0.3473
 1006MOL0     H38804  13.438   2.863   0.401  0.8719 -1.0042  3.0807
 1006MOL0     H38805  13.311   2.779   0.313  0.1866  0.6185 -1.2048
 1006MOL0     H38806  13.215   2.709   0.535  1.1109 -4.1741 -0.1084
 1006MOL0     H38807  13.360   2.792   0.611  3.0950 -3.8109 -0.2362
 1006MOL0     H38808  12.491   2.732   0.414  0.9372  1.2872 -0.9729
 1006MOL0     H38809  12.240   2.674   0.428 -1.7670 -0.1628 -1.1897
 1006MOL0     H38810  11.829   2.649   0.042  2.8968 -1.2835  1.9245
 1006MOL0     H38811  11.592   2.620   0.037  1.8984  0.5993 -1.0490
 1006MOL0     H38812  10.151   2.072   0.794  1.9362  2.7306  0.3308
 1006MOL0     H38813   9.920   1.992   0.781  2.5044 -0.5206  1.2668
 1006MOL0     H38814   9.526   2.220   0.583  1.1643 -3.5906  0.3023
 1006MOL0     H38815   9.328   2.239   0.495  0.5239  1.3905  0.6111
 1006MOL0     H38816   8.982   2.129   0.803 -1.0770 -0.4118  1.1836
 1006MOL0     H38817   8.860   2.195   0.713 -0.0802 -0.7736  1.3303
 1006MOL0     H38818   8.889   1.964   0.647 -3.6200  0.4878 -3.7052
 1006MOL0     H38819   9.059   2.001   0.598 -0.4009 -0.7313 -1.1473
 1006MOL0     H38820   8.807   2.135   0.464  1.0161  2.0501 -3.7667
 1006MOL0     H38821   8.959   2.149   0.411  0.0393 -0.3343 -1.7883
 1006MOL0     H38822   8.978   1.918   0.333 -0.1050 -0.1554 -2.8016
 1006MOL0     H38823   8.819   1.973   0.282 -2.5615  0.8460  1.4701
 1006MOL0     H38824   8.739   1.648   0.550 -0.1250  1.4578  0.2354
 1006MOL0     H38825   9.144   2.188   0.889  2.1407  0.1324  2.3559
 1006MOL0     H38826   9.229   2.099   1.051 -2.0609  1.9723 -3.8360
 1006MOL0     H38827   9.402   2.049   1.050  0.2963 -0.0842 -0.5788
 1006MOL0     H38828   9.362   2.221   1.083 -2.7045  1.3927 -1.0924
 1007MOL0     O38829   5.770   6.474   4.459  0.8981 -1.2171 -1.2346
 1007MOL0     C38830   5.823   6.507   4.566  0.0369 -0.3019  0.1370
 1007MOL0     O38831   5.800   6.449   4.693  0.4872  0.5593  1.1868
 1007MOL0     C38832   5.688   6.374   4.719  0.2599 -0.2905 -0.4516
 1007MOL0     C38833   5.557   6.425   4.701  0.0540 -0.2643 -0.1025
 1007MOL0     C38834   5.442   6.355   4.733 -0.4425 -0.6581  0.2200
 1007MOL0     C38835   5.450   6.227   4.785 -0.5945  0.4042  0.1071
 1007MOL0     O38836   5.343   6.150   4.827  0.4073  0.1524  0.2916
 1007MOL0     C38837   5.332   6.010   4.778 -0.6195  0.1917  0.2857
 1007MOL0     C38838   5.183   6.008   4.744 -0.1923  0.1683  0.2431
 1007MOL0     C38839   5.151   5.890   4.648  0.1253  0.3178  0.1644
 1007MOL0     C38840   5.141   5.762   4.721 -1.2097  0.7527  0.3463
 1007MOL0     C38841   5.137   5.649   4.630  0.5351  0.5767  0.4525
 1007MOL0     C38842   5.166   5.518   4.699  0.4272  0.8113 -0.4139
 1007MOL0     C38843   5.057   5.484   4.807  0.2614 -0.3756 -0.1412
 1007MOL0     C38844   4.913   5.456   4.745 -1.0434 -0.2938 -0.6594
 1007MOL0     N38845   4.812   5.517   4.836  0.0696  0.4352  0.8403
 1007MOL0     C38846   4.770   5.647   4.829  0.0837  0.1430 -0.1158
 1007MOL0     C38847   4.672   5.652   4.929 -0.2470 -0.6725  0.4845
 1007MOL0     C38848   4.599   5.773   4.975 -0.2235  0.0053  0.2250
 1007MOL0     C38849   4.626   5.804   5.121 -0.5752 -0.1259  0.4789
 1007MOL0     C38850   4.771   5.863   5.165  0.9658 -0.5375  0.9545
 1007MOL0     C38851   4.886   5.767   5.155  0.2269  0.6348  0.0361
 1007MOL0     O38852   4.977   5.807   5.254  0.8537  1.1469  0.7737
 1007MOL0     C38853   5.106   5.811   5.197 -0.1151  0.3736  0.2417
 1007MOL0     C38854   5.173   5.691   5.162  0.0842  0.5584 -0.5218
 1007MOL0     C38855   5.305   5.691   5.112 -0.6459  0.2121 -0.6252
 1007MOL0     C38856   5.366   5.559   5.090 -0.0236  0.3600  0.5988
 1007MOL0     C38857   5.364   5.816   5.083 -0.7841 -0.0053 -0.0822
 1007MOL0     C38858   5.501   5.830   5.023 -0.6468  0.9047 -0.3552
 1007MOL0     O38859   5.553   5.739   4.938 -0.2485 -0.2050 -0.4836
 1007MOL0     C38860   5.685   5.757   4.891  0.2980 -0.8425  0.2801
 1007MOL0     C38861   5.721   5.799   4.758  0.4729 -0.5638 -0.5974
 1007MOL0     C38862   5.853   5.840   4.735 -0.0548  0.1329  0.4436
 1007MOL0     C38863   5.961   5.807   4.823 -0.0683 -0.1805  0.9195
 1007MOL0     O38864   6.093   5.833   4.787 -0.3767  0.4256 -0.2645
 1007MOL0     C38865   6.117   5.957   4.720 -0.3648 -0.5352 -0.2139
 1007MOL0     C38866   6.264   5.982   4.692  0.0415 -0.6794 -0.4540
 1007MOL0     C38867   6.319   5.872   4.602  0.1710  0.2577 -0.1515
 1007MOL0     C38868   6.455   5.904   4.534  0.4491 -0.1151 -0.0062
 1007MOL0     C38869   6.490   5.777   4.452  0.3710  0.6093  0.0312
 1007MOL0     C38870   6.637   5.777   4.385  0.1700 -0.2131 -0.2807
 1007MOL0     C38871   6.662   5.713   4.253  0.6813  0.3011  0.7140
 1007MOL0     C38872   6.812   5.677   4.237  0.9506 -0.4437  0.0263
 1007MOL0    Cl38873   6.898   5.835   4.236  0.1490 -0.2430 -0.1613
 1007MOL0     C38874   5.936   5.764   4.953 -0.2598  1.2025  0.5727
 1007MOL0     C38875   5.798   5.738   4.988 -0.0315 -0.5798  0.8486
 1007MOL0     O38876   5.558   5.931   5.064  0.7117 -0.1867  0.1917
 1007MOL0     C38877   5.296   5.937   5.116  0.4079 -0.3875 -0.5811
 1007MOL0     C38878   5.169   5.930   5.173 -0.5775  0.2040  0.3541
 1007MOL0     N38879   4.658   5.528   4.984  0.2331  0.7350 -0.4207
 1007MOL0     N38880   4.740   5.435   4.927 -0.2085 -0.2695 -0.3584
 1007MOL0     C38881   5.575   6.174   4.801  0.4152  0.3316 -0.0605
 1007MOL0     C38882   5.690   6.242   4.768  0.0294 -0.1828  1.0667
 1007MOL0     C38883   5.912   6.620   4.575  0.3315 -0.0996  0.8068
 1007MOL0     C38884   5.923   6.689   4.694  0.1749 -0.3571  0.1100
 1007MOL0     C38885   5.995   6.810   4.708 -0.2582  0.6698  0.6029
 1007MOL0     C38886   6.073   6.852   4.605  0.5270 -0.8117  0.0093
 1007MOL0     O38887   6.155   6.963   4.608 -0.4625  0.4064 -0.3997
 1007MOL0     C38888   6.098   7.083   4.667 -0.7237 -0.2349  0.1156
 1007MOL0     C38889   6.179   7.206   4.654  0.9506  0.2259  0.4429
 1007MOL0     C38890   6.302   7.199   4.743 -0.4948 -0.5611  0.4955
 1007MOL0     C38891   6.357   7.342   4.767  0.3864  0.5061  0.3236
 1007MOL0     C38892   6.453   7.342   4.874 -0.6565  0.0205 -0.9775
 1007MOL0     C38893   6.515   7.318   4.976 -0.2137 -0.0487 -0.3822
 1007MOL0     C38894   6.074   6.776   4.486 -0.6786 -0.7432 -0.6740
 1007MOL0     C38895   5.994   6.665   4.463 -0.1488  0.4759 -0.2087
 1007MOL0     C38896   6.018   6.587   4.335  0.3660 -0.5907  0.0563
 1007MOL0     H38897   5.554   6.527   4.663 -1.7666  0.5762  2.0894
 1007MOL0     H38898   5.342   6.397   4.724 -1.5697 -2.3473  3.4870
 1007MOL0     H38899   5.364   5.933   4.849 -0.3683  0.8026  0.8570
 1007MOL0     H38900   5.386   5.987   4.686 -1.3186  2.2088 -0.6829
 1007MOL0     H38901   5.118   5.995   4.831 -0.7448 -0.0430 -0.1904
 1007MOL0     H38902   5.148   6.100   4.696  0.3697  1.6406  2.5141
 1007MOL0     H38903   5.050   5.908   4.611 -0.8967 -1.6068  1.8040
 1007MOL0     H38904   5.235   5.881   4.579 -0.2836  1.4703 -0.5145
 1007MOL0     H38905   5.230   5.750   4.784  0.9769  0.3921 -2.5601
 1007MOL0     H38906   5.052   5.771   4.783 -2.1162  1.9365 -1.0602
 1007MOL0     H38907   5.203   5.669   4.546  0.7047 -1.6540 -0.0226
 1007MOL0     H38908   5.035   5.651   4.590  1.3193  0.7864 -1.6623
 1007MOL0     H38909   5.167   5.444   4.618 -0.6064  0.1104  0.1825
 1007MOL0     H38910   5.262   5.522   4.752  0.2259 -1.0035  0.1392
 1007MOL0     H38911   5.062   5.562   4.883  2.2112 -1.0953  0.5218
 1007MOL0     H38912   5.086   5.394   4.863  0.8057  1.5969  2.9935
 1007MOL0     H38913   4.896   5.497   4.645 -1.5120 -0.8561 -0.8202
 1007MOL0     H38914   4.895   5.351   4.720 -1.3023 -0.2506 -0.6529
 1007MOL0     H38915   4.814   5.725   4.768  0.5512 -1.0907 -1.4107
 1007MOL0     H38916   4.492   5.762   4.958 -0.1705 -0.8352  0.3864
 1007MOL0     H38917   4.625   5.866   4.923 -0.4709  0.2102  0.4665
 1007MOL0     H38918   4.566   5.880   5.170  1.0636 -0.1351  2.6685
 1007MOL0     H38919   4.610   5.709   5.173 -2.9078 -1.2919 -2.1344
 1007MOL0     H38920   4.793   5.951   5.103  4.2234 -1.2790  0.8520
 1007MOL0     H38921   4.765   5.894   5.269  1.5848  1.4426  0.4617
 1007MOL0     H38922   4.843   5.670   5.178 -0.2156  1.1208  1.3453
 1007MOL0     H38923   4.903   5.766   5.047 -2.6102 -0.6193 -0.4841
 1007MOL0     H38924   5.129   5.594   5.179  1.3950  0.2172  1.2769
 1007MOL0     H38925   5.366   5.530   4.985  1.5543  1.0992  0.3638
 1007MOL0     H38926   5.315   5.486   5.153 -2.6451  2.8577  1.6105
 1007MOL0     H38927   5.468   5.581   5.123  0.6096  0.4065 -1.2656
 1007MOL0     H38928   5.642   5.827   4.688 -1.4229  0.8893  1.9270
 1007MOL0     H38929   5.878   5.886   4.640 -2.8654 -1.2280 -1.0957
 1007MOL0     H38930   6.068   5.951   4.622  0.8887  0.7876 -0.9574
 1007MOL0     H38931   6.075   6.038   4.780 -2.0320 -1.0806 -0.5789
 1007MOL0     H38932   6.273   6.077   4.638  2.0454 -1.8160 -2.2859
 1007MOL0     H38933   6.303   5.992   4.794 -1.7288  0.9778  0.1173
 1007MOL0     H38934   6.238   5.855   4.531  0.3620  0.2918 -0.3792
 1007MOL0     H38935   6.333   5.778   4.657  1.2448 -1.0305 -2.4830
 1007MOL0     H38936   6.536   5.931   4.603  1.2781 -0.2650 -0.8922
 1007MOL0     H38937   6.442   5.989   4.466 -1.5022  2.2916  3.1111
 1007MOL0     H38938   6.476   5.685   4.510  3.7122 -1.0372 -1.4629
 1007MOL0     H38939   6.414   5.766   4.373  2.1745 -2.5272 -1.4851
 1007MOL0     H38940   6.710   5.728   4.451  1.0569  0.1430 -0.9632
 1007MOL0     H38941   6.676   5.880   4.378  0.6948 -0.3261  0.7754
 1007MOL0     H38942   6.639   5.788   4.177 -2.6840  0.3691  1.6381
 1007MOL0     H38943   6.607   5.620   4.230  0.5999  0.2747  1.0100
 1007MOL0     H38944   6.821   5.637   4.136 -0.9016 -0.7540 -0.0582
 1007MOL0     H38945   6.844   5.615   4.322 -0.3539  0.6887  1.4139
 1007MOL0     H38946   6.013   5.738   5.025 -0.4521 -1.1138  0.0384
 1007MOL0     H38947   5.772   5.713   5.090  0.2256  4.1138  2.3083
 1007MOL0     H38948   5.339   6.035   5.098  0.9992 -0.9870 -2.7381
 1007MOL0     H38949   5.120   6.019   5.210 -0.8595 -1.0781  3.3888
 1007MOL0     H38950   5.589   6.082   4.857 -1.2240  0.3590  0.4612
 1007MOL0     H38951   5.787   6.193   4.770  0.4652  0.4510 -1.0194
 1007MOL0     H38952   5.859   6.670   4.779 -2.5518 -1.4540 -2.0236
 1007MOL0     H38953   5.999   6.859   4.805 -3.0810 -1.3327  1.8684
 1007MOL0     H38954   6.002   7.104   4.618 -0.3356  0.1914 -0.4683
 1007MOL0     H38955   6.089   7.066   4.775  0.4659  1.5588  0.5271
 1007MOL0     H38956   6.116   7.291   4.684  2.5662  2.7388 -2.7230
 1007MOL0     H38957   6.194   7.239   4.551 -2.2017  1.6173  0.2961
 1007MOL0     H38958   6.282   7.167   4.846  3.2722 -0.4397  1.4218
 1007MOL0     H38959   6.374   7.135   4.691 -1.7805 -0.6551 -1.2880
 1007MOL0     H38960   6.270   7.405   4.789 -0.3302  1.1596 -3.6957
 1007MOL0     H38961   6.405   7.381   4.677  2.1543 -1.5052  0.3148
 1007MOL0     H38962   6.560   7.292   5.070  2.0003  1.4619 -0.9459
 1007MOL0     H38963   6.136   6.806   4.402 -0.8782 -0.8074 -0.8466
 1007MOL0     H38964   6.125   6.582   4.315  0.5612  1.7112  0.2844
 1007MOL0     H38965   5.967   6.492   4.320 -3.5109  1.2858  0.0801
 1007MOL0     H38966   5.975   6.650   4.257 -0.3248 -1.7676 -0.5387
 1008MOL0     O38967   3.473  10.251   5.844  0.7699 -0.1711  0.4188
 1008MOL0     C38968   3.425  10.361   5.796 -0.6768  0.3278 -0.5113
 1008MOL0     O38969   3.503  10.451   5.715  0.0831 -0.0822 -0.3159
 1008MOL0     C38970   3.613  10.399   5.657  0.0153  0.0121  0.3850
 1008MOL0     C38971   3.733  10.463   5.660 -0.2164 -0.1910  0.5371
 1008MOL0     C38972   3.853  10.401   5.621 -0.2378  0.2172 -0.7226
 1008MOL0     C38973   3.851  10.286   5.548 -0.2368 -0.3795 -0.0117
 1008MOL0     O38974   3.964  10.222   5.506 -0.1257 -0.4927  0.4620
 1008MOL0     C38975   4.045  10.278   5.398  0.9817 -0.9167  0.1023
 1008MOL0     C38976   4.152  10.372   5.445 -0.6122  0.6245  0.1845
 1008MOL0     C38977   4.285  10.306   5.476  0.2889  0.0504  0.5813
 1008MOL0     C38978   4.396  10.406   5.502  0.0900  0.0170  0.1938
 1008MOL0     C38979   4.527  10.327   5.500 -0.4729 -1.2887  0.9558
 1008MOL0     C38980   4.652  10.424   5.531  0.2817  0.1759 -0.0648
 1008MOL0     C38981   4.774  10.329   5.557 -0.7742 -0.0220  0.2404
 1008MOL0     C38982   4.879  10.387   5.646 -0.0038 -0.1692 -0.6616
 1008MOL0     N38983   5.002  10.307   5.637 -0.0801  0.6059  0.3359
 1008MOL0     C38984   5.030  10.210   5.722  0.0871 -0.5795 -0.4701
 1008MOL0     C38985   5.141  10.139   5.679  0.3356  0.1731  0.1403
 1008MOL0     C38986   5.187  10.014   5.755  0.5851 -0.8547  0.8147
 1008MOL0     C38987   5.327  10.006   5.823 -0.0501 -0.3271  0.3221
 1008MOL0     C38988   5.376   9.866   5.818 -0.4627  0.3683  0.5580
 1008MOL0     C38989   5.516   9.876   5.887  0.1796 -0.3538 -0.6439
 1008MOL0     O38990   5.543   9.741   5.921  0.0482  0.7153  0.0981
 1008MOL0     C38991   5.660   9.719   5.987 -0.9280 -0.3982  0.8760
 1008MOL0     C38992   5.754   9.812   6.011 -0.5400  0.3167 -0.1145
 1008MOL0     C38993   5.876   9.771   6.077 -1.4244 -0.6440 -0.4010
 1008MOL0     C38994   5.964   9.894   6.105  0.6316  0.5035  0.0068
 1008MOL0     C38995   5.906   9.638   6.110  0.5421  0.5479 -0.1793
 1008MOL0     C38996   6.036   9.588   6.179 -0.3235  0.7314 -0.5880
 1008MOL0     O38997   6.023   9.469   6.235  0.0555 -0.5737  0.4716
 1008MOL0     C38998   6.127   9.408   6.300  0.0994 -0.9456  0.1338
 1008MOL0     C38999   6.120   9.266   6.287  0.4644 -0.3070  0.4677
 1008MOL0     C39000   6.218   9.179   6.337  0.5083 -0.5751  0.0305
 1008MOL0     C39001   6.316   9.235   6.423  0.0367 -0.9020 -0.4931
 1008MOL0     O39002   6.418   9.162   6.483  0.5139  0.2915  0.5882
 1008MOL0     C39003   6.438   9.032   6.441 -0.9784 -0.2987  0.7520
 1008MOL0     C39004   6.571   8.978   6.487  0.3438  0.3072 -0.8295
 1008MOL0     C39005   6.575   8.948   6.637  0.1829  0.9602 -0.4772
 1008MOL0     C39006   6.697   8.868   6.682 -0.6946 -0.6565 -0.0718
 1008MOL0     C39007   6.706   8.865   6.840  0.4081 -0.4136  0.3853
 1008MOL0     C39008   6.838   8.794   6.882 -0.9629 -0.8587  0.4956
 1008MOL0     C39009   6.849   8.653   6.822  0.1081 -0.1790 -0.6422
 1008MOL0     C39010   6.953   8.572   6.906  0.5723 -0.5143  1.0662
 1008MOL0    Cl39011   6.884   8.506   7.061 -0.2928 -0.0680  0.0910
 1008MOL0     C39012   6.332   9.373   6.430 -0.2602 -0.2483  0.0157
 1008MOL0     C39013   6.239   9.458   6.365 -0.1083 -0.3566 -0.6576
 1008MOL0     O39014   6.133   9.660   6.196 -0.5691 -0.6264  0.2365
 1008MOL0     C39015   5.799   9.548   6.094  0.7682 -0.3300 -0.9550
 1008MOL0     C39016   5.683   9.588   6.034 -0.5500 -0.4827  0.6958
 1008MOL0     N39017   5.186  10.210   5.571  0.4978  0.8641  0.3655
 1008MOL0     N39018   5.090  10.289   5.532  0.7004  0.0600  0.3460
 1008MOL0     C39019   3.725  10.222   5.528  0.1647 -0.0538  0.1364
 1008MOL0     C39020   3.608  10.280   5.576 -1.0132 -0.2151  0.1396
 1008MOL0     C39021   3.301  10.395   5.844  0.7409  0.3409 -1.3778
 1008MOL0     C39022   3.231  10.491   5.766 -0.0723  0.1201 -0.1102
 1008MOL0     C39023   3.104  10.528   5.806  0.8256 -0.5743  0.5270
 1008MOL0     C39024   3.051  10.480   5.926  1.0798  0.9097  0.6893
 1008MOL0     O39025   2.929  10.540   5.941 -0.1508  0.1716  0.3768
 1008MOL0     C39026   2.876  10.521   6.078  0.5577  0.1178  0.8965
 1008MOL0     C39027   2.718  10.552   6.072  0.2945  0.6530 -0.0922
 1008MOL0     C39028   2.637  10.496   6.190  0.1861 -0.1358  0.2648
 1008MOL0     C39029   2.505  10.442   6.147  0.6584  0.1885 -0.0366
 1008MOL0     C39030   2.424  10.405   6.265  0.7616 -1.0215 -0.7722
 1008MOL0     C39031   2.364  10.382   6.370  0.4540  0.5558  0.7604
 1008MOL0     C39032   3.114  10.390   6.005 -0.2918 -0.7681  0.8772
 1008MOL0     C39033   3.235  10.336   5.963 -1.0700  0.4367  0.6064
 1008MOL0     C39034   3.302  10.226   6.041 -0.5436 -0.3632  0.6915
 1008MOL0     H39035   3.731  10.559   5.710 -0.4474  0.1243 -0.0729
 1008MOL0     H39036   3.942  10.461   5.633 -1.7040  2.6246 -1.2433
 1008MOL0     H39037   3.968  10.329   5.339 -0.5302  0.3628  2.9758
 1008MOL0     H39038   4.082  10.196   5.336  1.9857 -1.1592  0.9886
 1008MOL0     H39039   4.180  10.450   5.374  2.3926  0.9360  1.5306
 1008MOL0     H39040   4.119  10.420   5.538 -1.0718 -0.8887  0.8344
 1008MOL0     H39041   4.279  10.238   5.561  0.0924 -1.0498 -0.2956
 1008MOL0     H39042   4.305  10.250   5.385 -2.1796 -1.6112  0.9602
 1008MOL0     H39043   4.393  10.489   5.430  0.1486 -1.0611 -1.0950
 1008MOL0     H39044   4.382  10.446   5.602  2.0099 -1.5747  1.1600
 1008MOL0     H39045   4.540  10.279   5.402 -3.1164  0.1841 -0.2240
 1008MOL0     H39046   4.525  10.253   5.581  1.0401  0.3567  2.5837
 1008MOL0     H39047   4.667  10.485   5.441  3.6512 -0.7604 -0.2953
 1008MOL0     H39048   4.622  10.486   5.616 -2.9832  0.2222 -1.1116
 1008MOL0     H39049   4.822  10.303   5.463 -0.5556  1.5853 -0.1146
 1008MOL0     H39050   4.748  10.232   5.601  0.5322 -0.4901  0.0451
 1008MOL0     H39051   4.897  10.486   5.602 -2.2190 -0.5632 -2.6507
 1008MOL0     H39052   4.835  10.392   5.746 -0.7033 -1.3803 -0.8907
 1008MOL0     H39053   4.967  10.186   5.807 -0.7006 -0.4604 -1.0123
 1008MOL0     H39054   5.172   9.930   5.687 -2.2361 -1.2738  1.8068
 1008MOL0     H39055   5.114  10.002   5.836  0.6439  1.3514  1.2737
 1008MOL0     H39056   5.401  10.068   5.772  0.7569 -0.1086  1.7220
 1008MOL0     H39057   5.323  10.033   5.928  1.6994  0.0676  0.3118
 1008MOL0     H39058   5.314   9.812   5.891  1.3190  0.8284  2.5058
 1008MOL0     H39059   5.380   9.822   5.718  0.8832  2.9100 -0.5993
 1008MOL0     H39060   5.593   9.898   5.812  1.1465  0.9172  0.6671
 1008MOL0     H39061   5.523   9.952   5.965 -0.0519 -1.7564  0.7761
 1008MOL0     H39062   5.743   9.917   5.985  2.4338  1.0811  1.2038
 1008MOL0     H39063   6.058   9.877   6.052 -0.2749  2.4225 -2.4029
 1008MOL0     H39064   5.983   9.920   6.210 -0.4834  0.6318  0.1891
 1008MOL0     H39065   5.908   9.983   6.073  0.5293  0.6001  0.4451
 1008MOL0     H39066   6.034   9.234   6.230 -0.1081  1.4364  0.2973
 1008MOL0     H39067   6.210   9.071   6.331 -2.5177 -0.3867 -1.0549
 1008MOL0     H39068   6.360   8.965   6.479 -0.8796 -0.2631  1.0129
 1008MOL0     H39069   6.435   9.036   6.331 -1.2883  1.7587  0.7963
 1008MOL0     H39070   6.612   8.901   6.422 -0.8429  0.4610 -1.7836
 1008MOL0     H39071   6.649   9.054   6.478 -0.8650  1.9417  1.3242
 1008MOL0     H39072   6.487   8.894   6.670  2.0173 -1.7347  0.2871
 1008MOL0     H39073   6.581   9.038   6.699 -0.3398  0.6525  0.0219
 1008MOL0     H39074   6.788   8.917   6.646 -0.6194 -1.2041 -0.6340
 1008MOL0     H39075   6.699   8.767   6.641 -0.3004 -1.0746  0.9388
 1008MOL0     H39076   6.701   8.968   6.876 -0.5772 -0.2903 -0.0721
 1008MOL0     H39077   6.621   8.810   6.880  0.7621 -1.0459  0.2830
 1008MOL0     H39078   6.829   8.802   6.991 -1.4606  0.4009  0.3852
 1008MOL0     H39079   6.924   8.852   6.846  0.3474 -2.5921  0.7146
 1008MOL0     H39080   6.877   8.650   6.716  0.1894 -1.9387 -0.6114
 1008MOL0     H39081   6.758   8.593   6.834  1.0006 -1.3627  0.4949
 1008MOL0     H39082   7.030   8.637   6.949  1.0509 -1.4451  1.6433
 1008MOL0     H39083   6.991   8.496   6.836  1.2954 -0.5938  1.5314
 1008MOL0     H39084   6.412   9.417   6.488 -0.9882  2.4067 -0.8414
 1008MOL0     H39085   6.255   9.565   6.369  1.6816 -0.6042 -0.2027
 1008MOL0     H39086   5.793   9.442   6.116  1.4781 -0.3411 -0.8024
 1008MOL0     H39087   5.611   9.511   6.009 -0.0352 -1.7303  2.7935
 1008MOL0     H39088   3.716  10.138   5.460  0.8491  0.1145 -0.1730
 1008MOL0     H39089   3.513  10.228   5.572 -1.8060  1.2448 -0.8760
 1008MOL0     H39090   3.279  10.542   5.684  0.4937  0.3113  0.3317
 1008MOL0     H39091   3.044  10.600   5.752  1.3915 -1.3419 -1.2054
 1008MOL0     H39092   2.889  10.417   6.108 -0.1886 -0.4094 -0.5254
 1008MOL0     H39093   2.929  10.585   6.150  3.8483 -1.0906 -0.3058
 1008MOL0     H39094   2.683  10.506   5.979  1.9912  0.0725 -0.4681
 1008MOL0     H39095   2.700  10.660   6.066  1.1558  0.8659  0.7935
 1008MOL0     H39096   2.689  10.410   6.233 -2.6129 -2.5197 -0.8291
 1008MOL0     H39097   2.619  10.577   6.261 -0.8063 -1.0641  1.1135
 1008MOL0     H39098   2.520  10.348   6.093 -0.3805 -0.1159  0.1928
 1008MOL0     H39099   2.460  10.511   6.075  1.2825 -0.7006 -1.3163
 1008MOL0     H39100   2.309  10.377   6.461  3.0959  2.2290  2.5864
 1008MOL0     H39101   3.074  10.368   6.104 -2.4979 -0.2303  0.1404
 1008MOL0     H39102   3.317  10.144   5.970 -0.7726  0.8125 -0.7529
 1008MOL0     H39103   3.405  10.233   6.075 -0.4817  1.1314  0.2530
 1008MOL0     H39104   3.231  10.202   6.122 -1.3880  1.2135  0.4588
 1009MOL0     O39105  10.683   4.019   1.533  0.7102 -0.0817  0.2551
 1009MOL0     C39106  10.638   4.010   1.651  0.2969  0.0207  0.2940
 1009MOL0     O39107  10.715   3.995   1.761 -0.6037 -0.3951  0.0145
 1009MOL0     C39108  10.841   3.945   1.748 -0.3577 -0.8097  0.7711
 1009MOL0     C39109  10.869   3.806   1.709  0.3265 -0.8545  0.8452
 1009MOL0     C39110  11.003   3.765   1.688  0.2309 -0.6964  0.5726
 1009MOL0     C39111  11.112   3.854   1.713 -0.0050 -0.1891  0.0795
 1009MOL0     O39112  11.242   3.835   1.666  0.5640 -0.3088 -0.1363
 1009MOL0     C39113  11.309   3.715   1.720 -0.0690 -0.3679  0.2440
 1009MOL0     C39114  11.372   3.733   1.856  0.5998 -0.3285 -1.0345
 1009MOL0     C39115  11.510   3.806   1.849 -0.7107 -0.6149 -1.1911
 1009MOL0     C39116  11.559   3.824   1.987 -0.7242 -0.3474  0.0367
 1009MOL0     C39117  11.668   3.934   1.973  0.1930  0.4041  0.5932
 1009MOL0     C39118  11.751   3.951   2.108  0.0074  0.5029 -0.7187
 1009MOL0     C39119  11.894   4.000   2.079  0.2348 -0.5276  0.1084
 1009MOL0     C39120  11.975   4.031   2.207  0.1765 -0.1437  0.3438
 1009MOL0     N39121  12.083   4.114   2.160 -0.8808 -0.1882  0.5344
 1009MOL0     C39122  12.186   4.078   2.086 -0.5885  0.5556 -0.1289
 1009MOL0     C39123  12.278   4.174   2.075  0.4037  0.0454 -1.0356
 1009MOL0     C39124  12.406   4.173   2.003 -0.7101  0.6382  0.3103
 1009MOL0     C39125  12.528   4.210   2.089 -1.0501 -0.3986  0.4162
 1009MOL0     C39126  12.662   4.202   1.998 -0.2480  0.0895  0.2037
 1009MOL0     C39127  12.784   4.235   2.094  0.7025  0.0989  0.3468
 1009MOL0     O39128  12.909   4.216   2.025  0.1645  0.4195  0.5531
 1009MOL0     C39129  13.014   4.303   2.042  0.2057  0.0127  0.6384
 1009MOL0     C39130  13.124   4.266   1.969 -0.4699 -0.2219  0.1583
 1009MOL0     C39131  13.237   4.355   1.949  0.0068  0.5661 -0.4540
 1009MOL0     C39132  13.353   4.295   1.864  0.2026 -1.1030  0.1757
 1009MOL0     C39133  13.237   4.485   2.006  0.0228 -0.1222  1.0723
 1009MOL0     C39134  13.328   4.598   1.961 -0.1404  0.1725 -0.2447
 1009MOL0     O39135  13.411   4.564   1.854 -0.7098 -0.8714  0.2313
 1009MOL0     C39136  13.524   4.646   1.823  0.5704 -0.1174  0.0299
 1009MOL0     C39137  13.543   4.781   1.861 -0.4482  0.3247 -0.4664
 1009MOL0     C39138  13.645   4.854   1.811  0.6816 -0.4647 -0.2337
 1009MOL0     C39139  13.739   4.799   1.728  0.6473  0.2739  1.1569
 1009MOL0     O39140  13.854   4.855   1.687 -1.4210  0.0571 -0.3246
 1009MOL0     C39141  13.889   4.984   1.732  0.0360 -0.4092  0.8702
 1009MOL0     C39142  14.025   5.007   1.671  0.3234  0.0140  0.5227
 1009MOL0     C39143  14.069   5.154   1.702  0.4090 -0.5907  0.7316
 1009MOL0     C39144  14.213   5.162   1.651 -0.8778 -0.3131 -0.4701
 1009MOL0     C39145  14.276   5.307   1.665 -0.1794  1.3430  0.1389
 1009MOL0     C39146  14.427   5.306   1.650  0.6929 -0.9510 -0.2118
 1009MOL0     C39147  14.478   5.447   1.677  0.5164  0.1921 -1.0631
 1009MOL0     C39148  14.635   5.448   1.685  0.2574  0.4965 -0.2913
 1009MOL0    Cl39149  14.698   5.390   1.526 -0.2544 -0.1592 -0.4302
 1009MOL0     C39150  13.719   4.669   1.683  0.7810  0.8176  0.0739
 1009MOL0     C39151  13.611   4.584   1.734  0.6045 -0.0544  0.2905
 1009MOL0     O39152  13.336   4.697   2.029 -0.5908  0.4518  0.4008
 1009MOL0     C39153  13.129   4.516   2.090 -0.2706  0.7434 -0.2562
 1009MOL0     C39154  13.019   4.429   2.107 -0.2867  0.1453  0.6118
 1009MOL0     N39155  12.225   4.281   2.155  0.4171  0.1781 -0.0824
 1009MOL0     N39156  12.113   4.244   2.206 -0.4482 -0.2903 -0.5616
 1009MOL0     C39157  11.083   3.978   1.767 -0.0967  0.2922 -0.6485
 1009MOL0     C39158  10.949   4.022   1.784  0.7780 -0.0946 -0.0545
 1009MOL0     C39159  10.492   4.027   1.677  0.5441  0.1022 -0.0367
 1009MOL0     C39160  10.422   4.130   1.611 -0.1859 -0.3812  0.2197
 1009MOL0     C39161  10.283   4.145   1.631 -0.9363 -0.2253 -0.2774
 1009MOL0     C39162  10.219   4.068   1.731  0.7474 -0.2540 -0.3870
 1009MOL0     O39163  10.091   4.082   1.769 -0.2805  0.0180  0.4672
 1009MOL0     C39164  10.006   4.162   1.685  0.4135 -0.3958 -0.0244
 1009MOL0     C39165   9.871   4.167   1.751  0.0281  0.8251  1.0815
 1009MOL0     C39166   9.805   4.034   1.791  0.4479  0.2220 -0.4112
 1009MOL0     C39167   9.659   4.061   1.807  0.6961  0.5606  0.6245
 1009MOL0     C39168   9.597   3.932   1.795  0.1874  0.1195 -0.1385
 1009MOL0     C39169   9.557   3.822   1.792  0.0133  0.9638 -0.5876
 1009MOL0     C39170  10.290   3.978   1.799  0.7971 -0.6512 -0.4434
 1009MOL0     C39171  10.415   3.948   1.771 -0.4916  0.5771  0.3341
 1009MOL0     C39172  10.488   3.836   1.842 -0.2974 -0.1392  0.4228
 1009MOL0     H39173  10.787   3.740   1.682 -0.3019  0.5123 -0.7363
 1009MOL0     H39174  11.025   3.669   1.642  0.8615 -0.9834  1.4410
 1009MOL0     H39175  11.388   3.684   1.652 -1.5991  1.5586 -2.6639
 1009MOL0     H39176  11.248   3.625   1.722  0.9588 -1.1547  4.4292
 1009MOL0     H39177  11.297   3.783   1.919  0.4062  1.0293 -2.3050
 1009MOL0     H39178  11.392   3.636   1.902 -0.1939 -0.1979 -0.3904
 1009MOL0     H39179  11.588   3.740   1.809  0.7836 -0.4618  1.2518
 1009MOL0     H39180  11.512   3.902   1.798  2.2770  0.5712  0.8391
 1009MOL0     H39181  11.477   3.861   2.051 -1.1772 -2.6778  0.8952
 1009MOL0     H39182  11.594   3.733   2.036 -2.0679  0.1886  2.1612
 1009MOL0     H39183  11.639   4.036   1.944  2.0288  1.1632  1.2353
 1009MOL0     H39184  11.735   3.899   1.894  0.2484  1.0127  0.3625
 1009MOL0     H39185  11.707   4.022   2.178  2.6112  1.6496 -0.1029
 1009MOL0     H39186  11.747   3.854   2.159  0.9077  0.2934 -1.0176
 1009MOL0     H39187  11.887   4.095   2.026  2.3660 -0.6221 -0.4246
 1009MOL0     H39188  11.944   3.921   2.023 -1.4238 -1.8930  0.4527
 1009MOL0     H39189  11.910   4.075   2.284 -1.6712 -2.9851  0.5817
 1009MOL0     H39190  12.007   3.932   2.242  1.5433 -0.6454 -2.1139
 1009MOL0     H39191  12.212   3.980   2.048 -1.8064 -0.6663  1.9876
 1009MOL0     H39192  12.396   4.251   1.927 -1.0992 -0.0189 -0.3354
 1009MOL0     H39193  12.422   4.072   1.964 -0.0352  0.1050  1.8886
 1009MOL0     H39194  12.512   4.307   2.135 -0.3400  1.9063 -3.6916
 1009MOL0     H39195  12.547   4.144   2.174 -0.3859 -1.6549 -0.6645
 1009MOL0     H39196  12.684   4.105   1.952  2.5156  2.1301 -3.3137
 1009MOL0     H39197  12.648   4.280   1.923  2.7898  0.1780 -0.3965
 1009MOL0     H39198  12.779   4.342   2.118  1.8060 -0.2461  2.3918
 1009MOL0     H39199  12.792   4.171   2.183  2.3866 -3.2049 -1.9839
 1009MOL0     H39200  13.116   4.167   1.926 -3.3751 -0.3700  0.8481
 1009MOL0     H39201  13.336   4.299   1.756  0.1415  4.7006  0.1097
 1009MOL0     H39202  13.362   4.188   1.887 -2.4519 -1.7125 -1.1589
 1009MOL0     H39203  13.447   4.342   1.893 -0.4661 -1.1578  2.6334
 1009MOL0     H39204  13.478   4.838   1.926  1.3658 -0.9630  2.7119
 1009MOL0     H39205  13.657   4.958   1.841 -1.5551 -0.6142  1.4892
 1009MOL0     H39206  13.819   5.063   1.703  0.6827 -0.5364 -1.1250
 1009MOL0     H39207  13.893   4.988   1.842  0.4582  1.9764  0.8323
 1009MOL0     H39208  14.086   4.925   1.710  3.1663  1.8246  0.1610
 1009MOL0     H39209  14.015   4.995   1.563 -0.0467 -0.3579  0.5922
 1009MOL0     H39210  14.056   5.182   1.807 -1.2884  1.8510 -0.0419
 1009MOL0     H39211  14.014   5.234   1.653 -1.2705 -2.1512 -0.0566
 1009MOL0     H39212  14.224   5.121   1.550  0.4984 -0.0788 -0.4388
 1009MOL0     H39213  14.275   5.091   1.708 -1.7443  0.5165  1.6129
 1009MOL0     H39214  14.224   5.376   1.598 -2.7586  2.3453  2.9782
 1009MOL0     H39215  14.252   5.330   1.769 -1.6780 -2.7389  0.8842
 1009MOL0     H39216  14.476   5.274   1.557 -0.1937  1.5218 -1.6136
 1009MOL0     H39217  14.466   5.243   1.731  1.6805 -0.5945 -0.3953
 1009MOL0     H39218  14.439   5.467   1.777 -1.6794 -1.4562 -1.5409
 1009MOL0     H39219  14.445   5.523   1.606  2.3194 -0.4832 -2.7178
 1009MOL0     H39220  14.667   5.371   1.756 -0.4139 -1.8574 -2.3744
 1009MOL0     H39221  14.676   5.542   1.721 -1.1962  0.7746  0.7392
 1009MOL0     H39222  13.796   4.637   1.614 -0.0392  0.5620 -0.7370
 1009MOL0     H39223  13.598   4.487   1.686 -2.3452  0.8530 -0.9484
 1009MOL0     H39224  13.134   4.593   2.166  0.6319 -1.4960  2.0756
 1009MOL0     H39225  12.936   4.470   2.164  2.1923  2.7165  2.6970
 1009MOL0     H39226  11.172   4.040   1.777 -0.7807  1.6079 -2.1200
 1009MOL0     H39227  10.927   4.127   1.798 -0.4689 -0.4334  0.6596
 1009MOL0     H39228  10.475   4.200   1.547  1.2287 -3.8910 -2.8573
 1009MOL0     H39229  10.232   4.214   1.564  1.2953  1.7197 -0.1204
 1009MOL0     H39230  10.039   4.266   1.676  0.0549 -0.4377 -2.1423
 1009MOL0     H39231  10.002   4.113   1.588  0.1413 -0.6268  0.1002
 1009MOL0     H39232   9.807   4.221   1.681  1.4687  0.2107 -0.7921
 1009MOL0     H39233   9.889   4.238   1.833  0.9771  1.5027  0.3124
 1009MOL0     H39234   9.825   3.952   1.721 -1.3226 -0.5267 -0.0865
 1009MOL0     H39235   9.850   4.010   1.887 -2.5524 -0.9398  0.8010
 1009MOL0     H39236   9.621   4.117   1.722 -1.9257 -2.0412 -0.0650
 1009MOL0     H39237   9.632   4.115   1.899  0.0137 -1.8951  1.9657
 1009MOL0     H39238   9.525   3.721   1.776 -0.9434  1.2583 -0.5955
 1009MOL0     H39239  10.242   3.917   1.875  2.2272 -0.3681  0.7461
 1009MOL0     H39240  10.560   3.798   1.769 -0.8474  2.8485 -1.8403
 1009MOL0     H39241  10.537   3.866   1.936 -0.3850 -0.0356  0.4356
 1009MOL0     H39242  10.428   3.749   1.868  0.6353 -0.5116  1.4281
 1010MOL0     O39243   1.650  11.377   9.798 -0.0575 -0.7326 -0.4050
 1010MOL0     C39244   1.564  11.461   9.836 -0.0039 -0.3836  0.2244
 1010MOL0     O39245   1.583  11.550   9.941 -0.4388 -0.2716  0.2071
 1010MOL0     C39246   1.700  11.549  10.003 -0.4583  1.2796  0.2924
 1010MOL0     C39247   1.780  11.665  10.011  0.4021  0.0620 -0.7092
 1010MOL0     C39248   1.898  11.671  10.083 -0.4984 -0.0921 -0.4768
 1010MOL0     C39249   1.931  11.557  10.165 -0.6212 -0.5206 -0.0605
 1010MOL0     O39250   2.045  11.584  10.244 -0.3704 -0.4595 -0.4519
 1010MOL0     C39251   2.120  11.464  10.274 -0.3774  0.4734  0.1813
 1010MOL0     C39252   2.258  11.506  10.321  0.1971 -0.0418  0.6713
 1010MOL0     C39253   2.331  11.602  10.215 -0.4947 -0.6429 -0.3080
 1010MOL0     C39254   2.471  11.631  10.243  0.3032  0.0887 -0.2393
 1010MOL0     C39255   2.562  11.502  10.254  0.6947 -0.0822 -0.3268
 1010MOL0     C39256   2.707  11.536  10.240 -0.1804 -0.0608  1.0336
 1010MOL0     C39257   2.783  11.417  10.178 -0.3086  0.2258 -0.3184
 1010MOL0     C39258   2.914  11.463  10.126 -0.6242  0.0473 -0.7135
 1010MOL0     N39259   3.004  11.363  10.074 -0.7747  0.2233  0.4497
 1010MOL0     C39260   3.138  11.333  10.105 -0.0785 -0.4867 -0.0278
 1010MOL0     C39261   3.159  11.203  10.076  0.0398 -0.2401  0.1368
 1010MOL0     C39262   3.273  11.110  10.118  0.3924 -0.9364  0.4202
 1010MOL0     C39263   3.212  10.985  10.168 -0.0051  0.7517 -0.5848
 1010MOL0     C39264   3.307  10.912  10.255 -0.0785  0.0724 -0.1749
 1010MOL0     C39265   3.318  10.963  10.393  0.4360 -1.1548 -0.2352
 1010MOL0     O39266   3.407  10.876  10.463  0.4624 -0.4628 -0.1612
 1010MOL0     C39267   3.541  10.884  10.431 -0.0376 -0.8600  0.1597
 1010MOL0     C39268   3.617  10.771  10.442 -0.7858  0.7616  0.4777
 1010MOL0     C39269   3.758  10.758  10.422 -0.2440 -0.4708 -0.6178
 1010MOL0     C39270   3.824  10.620  10.437 -0.1999  0.2251 -0.1469
 1010MOL0     C39271   3.824  10.883  10.403  0.3770  0.3092  0.2735
 1010MOL0     C39272   3.976  10.890  10.399  0.0084 -0.4027 -0.4342
 1010MOL0     O39273   4.021  10.985  10.323 -0.7131  0.2147  0.2515
 1010MOL0     C39274   4.162  10.999  10.324  0.4151 -1.1710  0.4098
 1010MOL0     C39275   4.216  11.105  10.399 -0.1598 -0.2318 -0.4580
 1010MOL0     C39276   4.344  11.137  10.393 -0.0127 -0.3906 -0.1322
 1010MOL0     C39277   4.436  11.055  10.327  0.0809 -0.9137  0.5564
 1010MOL0     O39278   4.570  11.097  10.321  0.4169  0.6662 -0.0558
 1010MOL0     C39279   4.662  11.011  10.251 -0.8998 -0.0809 -0.2084
 1010MOL0     C39280   4.795  11.087  10.247 -0.4583 -0.0571  0.0573
 1010MOL0     C39281   4.906  10.996  10.203  0.3999  0.5388  0.2234
 1010MOL0     C39282   5.031  11.081  10.153  0.0650  0.3316 -0.3959
 1010MOL0     C39283   5.121  11.000  10.056  0.7630  0.7283 -0.1925
 1010MOL0     C39284   5.224  11.092  10.005 -1.2009 -0.3256 -0.1903
 1010MOL0     C39285   5.337  11.020   9.938 -0.3450 -0.6476  0.0882
 1010MOL0     C39286   5.476  11.053  10.000  0.3475 -0.1127 -0.8489
 1010MOL0    Cl39287   5.604  10.944   9.922  0.2371  0.2719 -0.2722
 1010MOL0     C39288   4.387  10.933  10.268  0.7103 -0.2837 -0.3613
 1010MOL0     C39289   4.247  10.908  10.263  0.3828 -0.0426 -0.0174
 1010MOL0     O39290   4.048  10.799  10.447 -0.0179 -0.0586 -0.4341
 1010MOL0     C39291   3.753  10.995  10.373  0.6586 -0.0280 -0.9449
 1010MOL0     C39292   3.614  10.997  10.404  0.4766 -0.6010  0.2265
 1010MOL0     N39293   3.052  11.151  10.018  0.6234 -0.7602  0.4964
 1010MOL0     N39294   2.959  11.243  10.020 -0.4831 -0.5199 -0.0802
 1010MOL0     C39295   1.848  11.444  10.167 -0.4706  0.1746  0.5737
 1010MOL0     C39296   1.740  11.438  10.085 -0.3587  0.3382  0.4969
 1010MOL0     C39297   1.427  11.462   9.769  0.3429 -0.0360 -0.5414
 1010MOL0     C39298   1.326  11.547   9.826 -0.1072  0.2201  0.2764
 1010MOL0     C39299   1.195  11.549   9.776 -0.7123 -0.7421  0.8752
 1010MOL0     C39300   1.153  11.461   9.671  0.6174 -0.4595 -0.5649
 1010MOL0     O39301   1.022  11.439   9.620  0.0481 -0.5033  0.6403
 1010MOL0     C39302   0.916  11.525   9.644  0.7882 -0.7768 -0.8547
 1010MOL0     C39303   0.834  11.493   9.766  0.0034  0.7555 -0.2347
 1010MOL0     C39304   0.799  11.349   9.803 -0.1549  0.4752  0.5011
 1010MOL0     C39305   0.685  11.324   9.900 -0.4361  0.0147 -0.4031
 1010MOL0     C39306   0.556  11.369   9.844  1.0795 -0.2542  0.0642
 1010MOL0     C39307   0.456  11.428   9.816 -0.0041  0.6983 -0.4496
 1010MOL0     C39308   1.255  11.378   9.625  0.2104  0.3769  0.5617
 1010MOL0     C39309   1.392  11.379   9.659 -0.2065  0.5100 -0.6113
 1010MOL0     C39310   1.479  11.281   9.591  0.4386  0.1788 -0.2449
 1010MOL0     H39311   1.735  11.746   9.955 -2.1742 -2.6114 -2.8400
 1010MOL0     H39312   1.962  11.759  10.090  1.3246 -1.4633  1.1141
 1010MOL0     H39313   2.117  11.399  10.186  2.2868  1.3947 -0.6632
 1010MOL0     H39314   2.081  11.403  10.357  1.7131 -1.1143  0.1017
 1010MOL0     H39315   2.255  11.565  10.412  0.1102 -0.2679  0.8166
 1010MOL0     H39316   2.320  11.417  10.334  0.4733 -0.1469 -1.0924
 1010MOL0     H39317   2.328  11.557  10.115 -0.7639 -1.2185 -0.0397
 1010MOL0     H39318   2.267  11.691  10.212 -0.2099 -0.3725  1.0055
 1010MOL0     H39319   2.506  11.695  10.161  1.8391  0.9661  1.0351
 1010MOL0     H39320   2.477  11.697  10.330  1.8958  3.4005 -2.6244
 1010MOL0     H39321   2.533  11.434  10.174 -0.7521 -1.8002  1.5581
 1010MOL0     H39322   2.540  11.445  10.345 -1.1510 -0.7232 -1.1330
 1010MOL0     H39323   2.718  11.628  10.181  0.7760 -1.3175 -0.8195
 1010MOL0     H39324   2.747  11.552  10.341 -0.2373  2.1687  0.7632
 1010MOL0     H39325   2.718  11.382  10.097 -2.4305 -0.2227  1.4845
 1010MOL0     H39326   2.804  11.335  10.247 -0.3828 -2.3317 -3.1324
 1010MOL0     H39327   2.893  11.521  10.035 -1.7276 -2.3072 -2.0386
 1010MOL0     H39328   2.970  11.525  10.197  2.5559 -3.5276  0.2004
 1010MOL0     H39329   3.206  11.391  10.167 -0.2873 -1.0078  0.6934
 1010MOL0     H39330   3.346  11.156  10.186  0.2930 -0.6576  0.3428
 1010MOL0     H39331   3.329  11.096  10.026 -1.7140 -2.1077 -0.7486
 1010MOL0     H39332   3.120  10.992  10.225  1.1586 -0.1639  1.5100
 1010MOL0     H39333   3.201  10.932  10.073  1.3296  2.9159 -2.0426
 1010MOL0     H39334   3.270  10.811  10.271  1.4430 -0.1781  2.3099
 1010MOL0     H39335   3.402  10.899  10.202  0.9175  0.8677  1.3480
 1010MOL0     H39336   3.362  11.062  10.381  1.0051 -1.3749 -0.0296
 1010MOL0     H39337   3.223  10.972  10.446  1.6370  0.7564  1.7456
 1010MOL0     H39338   3.561  10.682  10.469  0.6808 -0.5668 -0.6647
 1010MOL0     H39339   3.865  10.609  10.538  2.0171  0.2077 -0.9911
 1010MOL0     H39340   3.914  10.601  10.378 -0.1633 -1.2890  0.3630
 1010MOL0     H39341   3.759  10.536  10.414 -0.6315  0.0588  1.5597
 1010MOL0     H39342   4.156  11.156  10.473  1.1653 -1.0051  1.2076
 1010MOL0     H39343   4.381  11.227  10.443 -0.0735  0.4964 -1.6251
 1010MOL0     H39344   4.676  10.912  10.295  1.9007  0.8539  1.1852
 1010MOL0     H39345   4.619  10.978  10.156 -3.1968 -1.0093  1.0713
 1010MOL0     H39346   4.782  11.164  10.170  1.8747  2.4664  1.9845
 1010MOL0     H39347   4.809  11.129  10.347  0.2416  0.5960 -0.3045
 1010MOL0     H39348   4.869  10.939  10.118  0.8835 -0.7653  0.8561
 1010MOL0     H39349   4.938  10.916  10.271 -1.3839  0.7833  1.4377
 1010MOL0     H39350   5.093  11.107  10.238  3.0494 -0.1648 -2.2782
 1010MOL0     H39351   5.010  11.171  10.095  1.9517  0.5113 -0.8602
 1010MOL0     H39352   5.171  10.921  10.112 -2.7583 -2.6294 -1.3963
 1010MOL0     H39353   5.068  10.961   9.969  0.1659  1.3788 -0.1308
 1010MOL0     H39354   5.267  11.160  10.080 -0.2833 -2.0886  0.9345
 1010MOL0     H39355   5.165  11.166   9.949 -0.4083  0.4669 -0.0063
 1010MOL0     H39356   5.345  11.052   9.833  0.9444  1.3136  0.7420
 1010MOL0     H39357   5.325  10.911   9.942  1.1540 -0.9516 -1.8511
 1010MOL0     H39358   5.469  11.037  10.108  0.2598  0.2274 -0.8033
 1010MOL0     H39359   5.504  11.155   9.973  2.6222 -1.0681 -2.4867
 1010MOL0     H39360   4.456  10.863  10.220  0.2054 -0.9469 -0.1361
 1010MOL0     H39361   4.190  10.825  10.222 -0.7401  0.4439  0.4868
 1010MOL0     H39362   3.809  11.085  10.348  0.3862  0.2116 -0.6972
 1010MOL0     H39363   3.559  11.090  10.391 -0.4065 -0.5705  3.4345
 1010MOL0     H39364   1.876  11.354  10.222  0.1234 -1.0731 -1.6476
 1010MOL0     H39365   1.695  11.340  10.086  4.9911 -2.4604  2.6454
 1010MOL0     H39366   1.345  11.615   9.908 -0.2370  0.2201  0.3061
 1010MOL0     H39367   1.124  11.618   9.821  1.4540  1.1694  1.5166
 1010MOL0     H39368   0.952  11.629   9.642  1.0883 -0.8879 -2.1892
 1010MOL0     H39369   0.846  11.519   9.560  0.9559 -1.8260 -0.9261
 1010MOL0     H39370   0.741  11.549   9.756 -0.2902  0.5660  1.2012
 1010MOL0     H39371   0.883  11.534   9.854 -0.7109 -1.3956  1.2692
 1010MOL0     H39372   0.781  11.288   9.714 -1.5019  0.1705  0.9480
 1010MOL0     H39373   0.884  11.307   9.857  0.0133 -3.1061 -2.2350
 1010MOL0     H39374   0.708  11.373   9.995  2.4035  0.0437 -0.9940
 1010MOL0     H39375   0.684  11.215   9.908 -0.0134 -0.0758 -1.4380
 1010MOL0     H39376   0.358  11.472   9.817  0.7897  2.6943  2.6154
 1010MOL0     H39377   1.219  11.308   9.551  2.2235  0.5096 -0.6146
 1010MOL0     H39378   1.448  11.256   9.489  1.7623  0.6375 -0.7834
 1010MOL0     H39379   1.578  11.326   9.585  1.2176 -1.4523 -0.2610
 1010MOL0     H39380   1.488  11.183   9.639  1.9659 -0.8530 -2.4644
 1011MOL0     O39381   3.835   3.780   4.891 -0.4952 -0.1160  0.4425
 1011MOL0     C39382   3.777   3.875   4.934  0.2821 -0.3866 -0.0150
 1011MOL0     O39383   3.835   3.990   4.968 -0.6527 -0.2865  0.1743
 1011MOL0     C39384   3.972   4.003   4.995  0.8913  0.0228 -0.7460
 1011MOL0     C39385   4.071   3.908   5.003  0.2651 -0.3507 -0.1256
 1011MOL0     C39386   4.199   3.943   5.037 -0.3766 -0.4198 -0.5965
 1011MOL0     C39387   4.235   4.070   5.068 -1.0833  1.4617 -0.9003
 1011MOL0     O39388   4.365   4.107   5.093  0.1081  0.3044 -0.0152
 1011MOL0     C39389   4.474   4.021   5.128 -0.8112  0.6439  0.4469
 1011MOL0     C39390   4.588   4.096   5.174 -0.4782 -0.4716 -0.5109
 1011MOL0     C39391   4.576   4.129   5.325 -0.5465  0.4549 -0.6255
 1011MOL0     C39392   4.694   4.227   5.358  0.8651 -0.8778  0.0366
 1011MOL0     C39393   4.817   4.158   5.407 -0.2244  0.7294 -0.8756
 1011MOL0     C39394   4.791   4.079   5.538 -0.5066  0.6488  0.2516
 1011MOL0     C39395   4.930   4.043   5.600 -0.4887  0.0911 -0.7530
 1011MOL0     C39396   4.977   4.155   5.696 -0.0254 -0.5783  0.3298
 1011MOL0     N39397   5.093   4.127   5.786  0.6098 -0.6137  0.3745
 1011MOL0     C39398   5.195   4.044   5.751 -1.1980  0.4303 -0.4912
 1011MOL0     C39399   5.263   4.030   5.871  0.3133 -0.8194  0.6803
 1011MOL0     C39400   5.382   3.948   5.877  0.0048  0.1645 -0.2161
 1011MOL0     C39401   5.474   3.961   5.759 -0.4908 -0.3114  0.6896
 1011MOL0     C39402   5.599   3.910   5.817 -0.4580 -0.6015  0.0888
 1011MOL0     C39403   5.699   3.898   5.705 -0.0609 -0.6840 -0.3667
 1011MOL0     O39404   5.822   3.857   5.766 -0.7620 -0.3045  0.4278
 1011MOL0     C39405   5.903   3.783   5.682  0.2186  0.3404  0.1240
 1011MOL0     C39406   5.887   3.783   5.543 -0.6225  0.9377 -0.2112
 1011MOL0     C39407   5.981   3.711   5.467  0.3919  0.8756  0.4807
 1011MOL0     C39408   5.970   3.707   5.315  0.0473 -0.5442 -0.0754
 1011MOL0     C39409   6.106   3.671   5.536 -0.0432 -1.0262  0.0724
 1011MOL0     C39410   6.238   3.646   5.471 -0.5314  0.1638 -0.6344
 1011MOL0     O39411   6.261   3.714   5.357  0.8215 -0.2897  0.4471
 1011MOL0     C39412   6.387   3.707   5.284  1.2566 -0.3741 -0.0110
 1011MOL0     C39413   6.374   3.762   5.154 -0.3695 -0.2285  0.0709
 1011MOL0     C39414   6.482   3.754   5.067 -0.6133 -0.3373 -0.3871
 1011MOL0     C39415   6.606   3.704   5.106 -0.4069  0.0743 -0.7216
 1011MOL0     O39416   6.710   3.698   5.014 -0.6972 -0.1385 -0.1770
 1011MOL0     C39417   6.848   3.706   5.063  0.5674  0.2390  0.1779
 1011MOL0     C39418   6.930   3.758   4.945  0.1061 -0.1786 -0.7810
 1011MOL0     C39419   7.085   3.759   4.977  0.3675  0.0387  0.3464
 1011MOL0     C39420   7.151   3.864   4.893 -0.0003  0.0820  0.0429
 1011MOL0     C39421   7.306   3.865   4.912  1.2964  0.1625 -0.5664
 1011MOL0     C39422   7.379   3.983   4.839  0.5570 -0.0526 -0.1382
 1011MOL0     C39423   7.353   4.022   4.690  0.3484  0.1889 -0.1330
 1011MOL0     C39424   7.378   3.895   4.606  0.9153 -0.4049 -1.1981
 1011MOL0    Cl39425   7.558   3.867   4.619  0.4338  0.4651 -0.1909
 1011MOL0     C39426   6.618   3.657   5.244 -0.8204 -0.1147 -0.3827
 1011MOL0     C39427   6.508   3.669   5.328 -0.4941  0.1502  0.0541
 1011MOL0     O39428   6.298   3.549   5.512 -0.5079 -0.8321 -0.0668
 1011MOL0     C39429   6.111   3.672   5.673  0.0879 -0.1979 -0.5521
 1011MOL0     C39430   6.008   3.724   5.747 -0.4033  0.3811  0.2753
 1011MOL0     N39431   5.195   4.092   5.971 -0.7487 -0.1299  0.4718
 1011MOL0     N39432   5.090   4.154   5.921  0.2371  0.4413 -0.3696
 1011MOL0     C39433   4.135   4.164   5.064 -0.3024  0.8170 -0.8487
 1011MOL0     C39434   4.009   4.129   5.026  0.4903 -0.1946 -0.5278
 1011MOL0     C39435   3.626   3.856   4.945  0.0865  0.4787 -0.1752
 1011MOL0     C39436   3.559   3.791   4.839  0.0205  0.1777 -0.2017
 1011MOL0     C39437   3.416   3.771   4.842 -0.0132 -0.2076  0.3691
 1011MOL0     C39438   3.338   3.826   4.945  0.0685  0.7207  0.0162
 1011MOL0     O39439   3.198   3.817   4.928  0.1833 -0.0220  0.5450
 1011MOL0     C39440   3.110   3.870   5.029 -0.2021  0.0172 -0.2142
 1011MOL0     C39441   2.962   3.830   5.013  0.6825  0.6039  0.4129
 1011MOL0     C39442   2.935   3.676   5.028 -0.2561  0.3758 -0.7982
 1011MOL0     C39443   2.878   3.641   5.161  0.4693  0.0194  0.1292
 1011MOL0     C39444   2.862   3.497   5.173  0.2397 -0.0237 -0.6996
 1011MOL0     C39445   2.847   3.380   5.171 -0.2708 -0.7221  0.3053
 1011MOL0     C39446   3.405   3.889   5.044 -0.2706  0.7164  0.0895
 1011MOL0     C39447   3.548   3.900   5.054  0.3303  0.3655 -0.6402
 1011MOL0     C39448   3.618   3.978   5.151  0.1146 -0.0328 -0.4112
 1011MOL0     H39449   4.057   3.802   4.984 -0.4841  0.1630 -3.0354
 1011MOL0     H39450   4.264   3.855   5.036 -1.9939 -1.7896  2.1857
 1011MOL0     H39451   4.511   3.977   5.035  2.3312  1.6052  1.1229
 1011MOL0     H39452   4.448   3.945   5.202  5.2191 -2.2176  0.2723
 1011MOL0     H39453   4.676   4.039   5.143 -1.8067 -2.6392 -0.4841
 1011MOL0     H39454   4.595   4.190   5.117 -1.0191 -0.6738 -0.9126
 1011MOL0     H39455   4.483   4.185   5.341  0.2591  1.1736  1.9873
 1011MOL0     H39456   4.575   4.039   5.385  0.2331 -0.9709 -2.6340
 1011MOL0     H39457   4.725   4.300   5.283  2.1854  1.9170  3.0300
 1011MOL0     H39458   4.660   4.297   5.435  2.8674  0.7387 -0.4535
 1011MOL0     H39459   4.891   4.234   5.434  2.1428 -0.9944 -2.2028
 1011MOL0     H39460   4.863   4.096   5.330 -1.6521 -5.1271  2.3426
 1011MOL0     H39461   4.714   4.127   5.598 -0.5180  1.0712 -0.0948
 1011MOL0     H39462   4.737   3.986   5.518 -2.6670  1.9283 -0.1145
 1011MOL0     H39463   5.003   4.043   5.519 -1.2623  1.7227 -1.5093
 1011MOL0     H39464   4.939   3.952   5.660  1.6036 -0.1038 -1.2742
 1011MOL0     H39465   5.005   4.243   5.638  2.8567 -1.2875  0.4958
 1011MOL0     H39466   4.889   4.186   5.754 -0.7865  0.0271 -1.1205
 1011MOL0     H39467   5.217   3.998   5.655 -0.7612  1.4251 -0.8751
 1011MOL0     H39468   5.347   3.845   5.875 -1.2774  0.4801  2.2121
 1011MOL0     H39469   5.433   3.969   5.971  1.4391 -1.8600 -0.4652
 1011MOL0     H39470   5.435   3.895   5.681 -1.2750  0.2909  0.5614
 1011MOL0     H39471   5.484   4.064   5.722  1.2032 -0.4148  0.7567
 1011MOL0     H39472   5.631   3.987   5.888 -2.6593  1.0404 -0.6019
 1011MOL0     H39473   5.587   3.811   5.863  1.6261 -1.1485 -0.4316
 1011MOL0     H39474   5.658   3.813   5.650 -2.1949 -0.6392  1.0182
 1011MOL0     H39475   5.708   3.993   5.652  0.2997 -0.7224 -0.3721
 1011MOL0     H39476   5.800   3.831   5.498 -1.7257  2.2578  2.9873
 1011MOL0     H39477   5.867   3.726   5.285 -0.0451 -0.4124  0.3186
 1011MOL0     H39478   5.998   3.611   5.270  2.9342 -0.0737  0.5254
 1011MOL0     H39479   6.042   3.780   5.278  0.8960 -1.3863 -0.1350
 1011MOL0     H39480   6.279   3.800   5.117 -1.2207 -0.6469  1.7121
 1011MOL0     H39481   6.478   3.794   4.967  2.2476  0.8095 -0.1146
 1011MOL0     H39482   6.864   3.751   5.162 -1.0391 -2.0452  1.5780
 1011MOL0     H39483   6.888   3.606   5.083  0.5892  0.1055 -0.5213
 1011MOL0     H39484   6.913   3.687   4.863 -0.3219 -0.3930 -0.5114
 1011MOL0     H39485   6.892   3.853   4.906 -0.2709  0.2457  0.5826
 1011MOL0     H39486   7.130   3.660   4.963  0.4434  0.1937 -0.6013
 1011MOL0     H39487   7.109   3.778   5.082  0.3368  1.4612  0.1131
 1011MOL0     H39488   7.104   3.960   4.914  0.7531  0.5606 -0.4223
 1011MOL0     H39489   7.132   3.842   4.787 -0.5159 -0.0700  0.1619
 1011MOL0     H39490   7.327   3.871   5.019 -0.3670  0.6575 -0.2408
 1011MOL0     H39491   7.342   3.766   4.883  1.1371  0.0235 -0.2962
 1011MOL0     H39492   7.487   3.978   4.858  0.4643 -1.3315  0.0935
 1011MOL0     H39493   7.345   4.077   4.884  2.0291  0.6443 -0.4003
 1011MOL0     H39494   7.409   4.104   4.644 -0.3569  0.8452  0.1583
 1011MOL0     H39495   7.250   4.058   4.690  0.2222 -0.1230 -1.6630
 1011MOL0     H39496   7.347   3.918   4.503  0.6040  2.3165 -0.5902
 1011MOL0     H39497   7.313   3.814   4.640 -1.9325  2.4693  0.8708
 1011MOL0     H39498   6.715   3.627   5.282  1.6593  3.5663 -3.0521
 1011MOL0     H39499   6.535   3.650   5.432 -2.3350 -2.2802  0.1831
 1011MOL0     H39500   6.198   3.636   5.726 -1.2717  1.1702  2.9223
 1011MOL0     H39501   6.023   3.728   5.855  1.4711 -0.0884  0.0669
 1011MOL0     H39502   4.158   4.267   5.087 -0.3856  0.5499  0.5205
 1011MOL0     H39503   3.938   4.211   5.029 -2.9436 -2.8569 -2.0940
 1011MOL0     H39504   3.625   3.758   4.760  3.8466 -0.2864  2.8986
 1011MOL0     H39505   3.370   3.715   4.762 -1.4847  0.0714  0.9801
 1011MOL0     H39506   3.130   3.826   5.127 -1.9447  2.7070  1.4704
 1011MOL0     H39507   3.136   3.975   5.045  0.5018 -0.4815  2.4358
 1011MOL0     H39508   2.935   3.856   4.911 -1.0217 -0.2475  0.6148
 1011MOL0     H39509   2.897   3.893   5.075  0.1074  1.2704 -0.8425
 1011MOL0     H39510   2.875   3.643   4.943  1.3674 -2.2404 -1.0354
 1011MOL0     H39511   3.023   3.612   5.017 -0.3323 -0.3567  2.0139
 1011MOL0     H39512   2.783   3.696   5.164 -0.2796 -1.1691 -0.8212
 1011MOL0     H39513   2.947   3.681   5.235  2.4856 -0.0012 -1.6483
 1011MOL0     H39514   2.863   3.274   5.168  1.0146 -0.5756  1.1957
 1011MOL0     H39515   3.345   3.929   5.124  0.3395 -1.2542  1.6144
 1011MOL0     H39516   3.712   3.930   5.180 -0.3494 -1.6385 -1.3875
 1011MOL0     H39517   3.623   4.081   5.113 -2.6096  0.8435  1.3013
 1011MOL0     H39518   3.562   3.987   5.245  1.2742  1.4065  0.1672
 1012MOL0     O39519  10.766   3.747   9.516  0.1858  0.0776 -0.0706
 1012MOL0     C39520  10.739   3.652   9.591 -0.7207 -0.0559  0.5153
 1012MOL0     O39521  10.807   3.534   9.591  0.3515  0.7105  0.0606
 1012MOL0     C39522  10.931   3.539   9.535 -0.0155 -0.0332  0.1976
 1012MOL0     C39523  10.962   3.469   9.421  0.1492  0.1930 -0.6161
 1012MOL0     C39524  11.088   3.477   9.357  0.0025  0.0505 -0.1321
 1012MOL0     C39525  11.190   3.554   9.414 -0.3396  0.0683  0.7040
 1012MOL0     O39526  11.319   3.554   9.356  0.9888  0.2333 -0.2884
 1012MOL0     C39527  11.405   3.668   9.343  0.0761 -0.0745 -0.1388
 1012MOL0     C39528  11.475   3.666   9.204  0.4832  0.3099  0.1372
 1012MOL0     C39529  11.582   3.546   9.197  0.2157  0.3364 -0.0751
 1012MOL0     C39530  11.702   3.560   9.284 -0.1391 -0.0215 -0.5301
 1012MOL0     C39531  11.805   3.447   9.266 -0.3183 -0.6762 -0.7236
 1012MOL0     C39532  11.855   3.417   9.408 -0.1103 -0.5381 -0.0577
 1012MOL0     C39533  11.965   3.313   9.406  0.1968  0.3370 -0.0086
 1012MOL0     C39534  12.098   3.362   9.365 -0.2344 -0.1320  0.1255
 1012MOL0     N39535  12.188   3.244   9.345  0.6736 -0.0334 -0.0286
 1012MOL0     C39536  12.325   3.242   9.384  0.3349 -0.9812  0.4777
 1012MOL0     C39537  12.366   3.134   9.313 -0.9537  0.4285 -0.3634
 1012MOL0     C39538  12.514   3.095   9.292  0.5656  0.1623 -0.4849
 1012MOL0     C39539  12.584   3.138   9.163  0.2599  0.3828  0.0634
 1012MOL0     C39540  12.562   3.292   9.143 -0.5745 -0.4196 -0.2369
 1012MOL0     C39541  12.655   3.379   9.236 -0.4385 -0.0642  0.0124
 1012MOL0     O39542  12.793   3.353   9.203  0.2184  0.0144 -0.2162
 1012MOL0     C39543  12.890   3.417   9.284  0.9786 -0.6640  0.4288
 1012MOL0     C39544  13.015   3.381   9.264  0.3313  0.1515 -0.3642
 1012MOL0     C39545  13.120   3.435   9.344 -0.5416 -0.5540 -0.2517
 1012MOL0     C39546  13.257   3.384   9.321 -0.2248  0.6788  0.0481
 1012MOL0     C39547  13.091   3.552   9.424  0.2162  0.1542 -0.9132
 1012MOL0     C39548  13.201   3.644   9.473  0.1712 -0.4160 -0.4432
 1012MOL0     O39549  13.303   3.663   9.385 -0.0255  0.8389  0.3044
 1012MOL0     C39550  13.391   3.767   9.400 -0.7573 -0.2528  0.1038
 1012MOL0     C39551  13.422   3.856   9.290 -0.8341 -0.2577 -0.2157
 1012MOL0     C39552  13.507   3.967   9.319 -0.0617 -0.7788  0.0418
 1012MOL0     C39553  13.567   3.995   9.442  0.3300  0.2679  0.1167
 1012MOL0     O39554  13.627   4.110   9.478 -0.3559 -0.2823  0.0728
 1012MOL0     C39555  13.771   4.105   9.452  0.3375  0.6065 -0.2041
 1012MOL0     C39556  13.833   4.242   9.455  0.2403 -0.7051 -0.3183
 1012MOL0     C39557  13.789   4.316   9.328 -0.0865 -0.2536  0.6352
 1012MOL0     C39558  13.816   4.468   9.334  0.1941 -0.5211  0.2906
 1012MOL0     C39559  13.964   4.508   9.378  0.2824  1.0655  1.0019
 1012MOL0     C39560  14.062   4.468   9.265  0.2092 -0.6470 -0.6152
 1012MOL0     C39561  14.204   4.488   9.316 -0.7382 -0.5776 -0.0546
 1012MOL0     C39562  14.296   4.447   9.200  0.1408  0.3462 -1.8674
 1012MOL0    Cl39563  14.311   4.569   9.084  0.5633 -0.1843 -0.0895
 1012MOL0     C39564  13.540   3.904   9.545 -0.2613 -0.0712  0.0021
 1012MOL0     C39565  13.457   3.785   9.523  0.2051 -0.0457  1.1546
 1012MOL0     O39566  13.189   3.698   9.580  0.5518 -0.1375  0.2447
 1012MOL0     C39567  12.958   3.587   9.441 -0.2437  0.3188 -0.3565
 1012MOL0     C39568  12.860   3.515   9.376 -0.0992 -0.2690 -0.2008
 1012MOL0     N39569  12.263   3.065   9.245 -0.4540  0.2520 -0.8586
 1012MOL0     N39570  12.157   3.137   9.266 -0.6266 -0.2087  0.1352
 1012MOL0     C39571  11.163   3.643   9.525 -0.2696  0.2771  0.5674
 1012MOL0     C39572  11.037   3.634   9.582  0.4871  0.1138  0.2026
 1012MOL0     C39573  10.619   3.656   9.678 -0.3756 -0.8712  0.0176
 1012MOL0     C39574  10.581   3.532   9.730  0.0891 -0.3095 -0.2915
 1012MOL0     C39575  10.469   3.522   9.808 -0.0052  1.1709  0.3263
 1012MOL0     C39576  10.379   3.633   9.823 -1.2407 -0.4290  0.0387
 1012MOL0     O39577  10.261   3.625   9.899  0.5551  0.1342  0.0895
 1012MOL0     C39578  10.253   3.735   9.992  0.3369  0.3821  0.1476
 1012MOL0     C39579  10.277   3.682  10.138 -0.6827 -0.1380 -0.1476
 1012MOL0     C39580  10.423   3.623  10.157  0.4168 -0.0697 -1.2235
 1012MOL0     C39581  10.433   3.554  10.297  0.0146 -0.6085  0.1344
 1012MOL0     C39582  10.364   3.428  10.315 -0.7435 -0.4192  0.0471
 1012MOL0     C39583  10.322   3.320  10.349  1.3364  0.5107 -0.3501
 1012MOL0     C39584  10.408   3.745   9.750  0.2465 -0.4129 -0.3115
 1012MOL0     C39585  10.532   3.762   9.686 -0.8374  0.1294  0.1405
 1012MOL0     C39586  10.548   3.897   9.614 -0.1085 -0.7180 -0.1552
 1012MOL0     H39587  10.884   3.416   9.369 -1.3573  2.3431 -0.6824
 1012MOL0     H39588  11.099   3.415   9.268 -2.5292  2.9358 -2.6735
 1012MOL0     H39589  11.476   3.675   9.426 -0.6485 -3.3576  0.9119
 1012MOL0     H39590  11.339   3.755   9.352 -2.1220 -1.7117  0.2921
 1012MOL0     H39591  11.405   3.656   9.121  0.9474  0.7015 -0.3090
 1012MOL0     H39592  11.522   3.764   9.190 -0.9130  0.7295 -2.1617
 1012MOL0     H39593  11.524   3.456   9.219 -2.6620  2.3557  1.1548
 1012MOL0     H39594  11.626   3.545   9.096  2.9803 -1.8675  1.0250
 1012MOL0     H39595  11.755   3.655   9.271  2.3629 -1.3481 -0.5714
 1012MOL0     H39596  11.676   3.558   9.391  4.6221  1.9867  0.9420
 1012MOL0     H39597  11.882   3.483   9.197 -2.0024 -0.6172 -2.6661
 1012MOL0     H39598  11.769   3.354   9.220  1.8741 -2.1486  0.3372
 1012MOL0     H39599  11.893   3.505   9.460 -1.2939 -0.5721  0.9131
 1012MOL0     H39600  11.770   3.373   9.462 -2.3652  2.1416 -1.1735
 1012MOL0     H39601  11.937   3.219   9.357  0.3021 -0.0029  0.5661
 1012MOL0     H39602  11.981   3.282   9.510  0.6168 -1.7842 -0.6632
 1012MOL0     H39603  12.087   3.416   9.270 -3.5974 -0.3208  0.2948
 1012MOL0     H39604  12.124   3.422   9.453 -1.2710 -1.6615  1.5342
 1012MOL0     H39605  12.378   3.323   9.434 -1.8746  0.0845  1.2569
 1012MOL0     H39606  12.516   2.986   9.305  3.5855  0.3871  2.1248
 1012MOL0     H39607  12.562   3.145   9.377  1.0269  1.9301 -1.7158
 1012MOL0     H39608  12.692   3.123   9.155  0.3200  1.1293 -0.7346
 1012MOL0     H39609  12.535   3.086   9.080  0.6428 -1.3569  0.8899
 1012MOL0     H39610  12.578   3.322   9.040 -2.0361 -0.5897 -0.5406
 1012MOL0     H39611  12.454   3.308   9.146 -0.7505 -0.1210 -3.9880
 1012MOL0     H39612  12.632   3.485   9.223 -1.7337 -0.2448  0.6763
 1012MOL0     H39613  12.637   3.362   9.343  1.4514  2.9789  0.9343
 1012MOL0     H39614  13.017   3.298   9.194 -0.1405 -0.0778 -0.1167
 1012MOL0     H39615  13.329   3.415   9.398  1.8260  1.9105 -2.2311
 1012MOL0     H39616  13.286   3.424   9.224 -2.1691  2.1542  0.0196
 1012MOL0     H39617  13.245   3.276   9.306 -1.8529  0.1351  4.0157
 1012MOL0     H39618  13.385   3.853   9.188  0.0456  0.0765 -0.5488
 1012MOL0     H39619  13.533   4.037   9.240 -0.0195  1.0262  1.5951
 1012MOL0     H39620  13.812   4.044   9.533 -1.0741 -0.5005 -0.2923
 1012MOL0     H39621  13.804   4.068   9.355 -1.3309 -0.3184 -0.4508
 1012MOL0     H39622  13.799   4.300   9.541  2.0234  0.1898 -0.1766
 1012MOL0     H39623  13.942   4.232   9.453  0.2053 -1.8446  1.3643
 1012MOL0     H39624  13.682   4.299   9.315 -0.7583  4.2615 -1.4393
 1012MOL0     H39625  13.837   4.269   9.242 -0.6084 -1.2552  0.8765
 1012MOL0     H39626  13.759   4.512   9.416  3.4614 -0.6593  2.8384
 1012MOL0     H39627  13.779   4.525   9.248 -1.7066  0.9313  1.9742
 1012MOL0     H39628  13.960   4.617   9.389 -3.0392  1.4427 -2.2444
 1012MOL0     H39629  13.989   4.456   9.471  0.0281  1.2351  1.1652
 1012MOL0     H39630  14.037   4.523   9.174  1.2163  1.0011  0.0724
 1012MOL0     H39631  14.057   4.364   9.232  1.4419 -0.5546 -1.1611
 1012MOL0     H39632  14.208   4.416   9.399 -1.3440 -0.4038  0.1319
 1012MOL0     H39633  14.229   4.589   9.350 -1.0575 -1.1025  1.8367
 1012MOL0     H39634  14.257   4.358   9.150 -2.3199 -0.0879  0.5966
 1012MOL0     H39635  14.389   4.422   9.252 -1.5753  1.7599  2.3848
 1012MOL0     H39636  13.582   3.903   9.645  1.5171 -2.5730 -0.6476
 1012MOL0     H39637  13.438   3.717   9.606 -0.8745 -2.4767 -0.9757
 1012MOL0     H39638  12.926   3.674   9.496  1.2757  1.2173 -0.8339
 1012MOL0     H39639  12.760   3.548   9.401 -0.0212 -1.1266  1.3238
 1012MOL0     H39640  11.238   3.708   9.569 -0.6612  2.8281 -2.2395
 1012MOL0     H39641  11.011   3.684   9.675 -0.4641 -0.4161  0.2406
 1012MOL0     H39642  10.638   3.442   9.711  0.0579 -0.1790 -1.0600
 1012MOL0     H39643  10.460   3.421   9.848  0.6631  1.7028  1.9110
 1012MOL0     H39644  10.310   3.824   9.965  2.9452 -0.4423  2.4862
 1012MOL0     H39645  10.148   3.767   9.991  0.6104  1.3831 -1.9779
 1012MOL0     H39646  10.202   3.602  10.149 -2.5445  1.4563 -0.6603
 1012MOL0     H39647  10.255   3.759  10.212 -1.3215 -0.0610 -0.4138
 1012MOL0     H39648  10.448   3.548  10.080  0.9515  0.6382 -1.7510
 1012MOL0     H39649  10.484   3.713  10.157 -1.3887  1.3504  2.2402
 1012MOL0     H39650  10.394   3.622  10.373 -3.5768 -1.6552 -0.5740
 1012MOL0     H39651  10.540   3.550  10.319  0.2331  1.5645 -0.2689
 1012MOL0     H39652  10.292   3.220  10.373 -0.2271  0.1934 -3.1446
 1012MOL0     H39653  10.330   3.821   9.749  0.5196 -0.1090  0.5659
 1012MOL0     H39654  10.484   3.977   9.654 -2.0056 -2.4287  0.3964
 1012MOL0     H39655  10.652   3.929   9.624  0.0181 -1.6963  2.8382
 1012MOL0     H39656  10.505   3.884   9.514 -0.5704  1.0227 -0.2209
 1013MOL0     O39657   3.213   1.810   2.256  0.3653 -0.3483 -0.4977
 1013MOL0     C39658   3.269   1.702   2.256 -0.1552  0.5180  0.0374
 1013MOL0     O39659   3.209   1.580   2.290  0.8358  0.1451  0.1572
 1013MOL0     C39660   3.079   1.565   2.334 -0.0227  0.0016  0.2646
 1013MOL0     C39661   3.052   1.460   2.420  0.4899 -0.0918  0.7139
 1013MOL0     C39662   2.920   1.433   2.463 -0.3320 -0.0278  0.3468
 1013MOL0     C39663   2.816   1.528   2.433 -0.4406  0.5619 -0.0621
 1013MOL0     O39664   2.689   1.510   2.477  0.1989 -0.3130  0.0836
 1013MOL0     C39665   2.650   1.400   2.552 -0.4327  0.1972 -0.0946
 1013MOL0     C39666   2.671   1.442   2.692 -0.0235 -0.5347  0.5087
 1013MOL0     C39667   2.607   1.575   2.738 -0.2515 -0.6758 -0.0289
 1013MOL0     C39668   2.620   1.587   2.887 -0.1892  0.0952 -1.1122
 1013MOL0     C39669   2.556   1.727   2.943 -0.1688  0.3874 -0.3893
 1013MOL0     C39670   2.613   1.762   3.088  0.9142 -0.9157 -0.0395
 1013MOL0     C39671   2.581   1.659   3.192 -0.6151  0.0401 -0.5029
 1013MOL0     C39672   2.644   1.674   3.340  0.0410 -0.1323  0.0607
 1013MOL0     N39673   2.787   1.658   3.342 -0.6856 -0.9303 -0.3482
 1013MOL0     C39674   2.847   1.537   3.358  1.3428 -0.3010  0.4392
 1013MOL0     C39675   2.976   1.565   3.376 -0.7296 -0.5489  0.6931
 1013MOL0     C39676   3.089   1.476   3.421  0.2414 -0.3385 -0.2467
 1013MOL0     C39677   3.220   1.519   3.344  0.2723  0.1402 -0.7998
 1013MOL0     C39678   3.214   1.494   3.187 -0.3750  0.0885 -0.1097
 1013MOL0     C39679   3.219   1.345   3.150  0.2383  0.1003 -0.0988
 1013MOL0     O39680   3.207   1.326   3.008 -0.5630  0.7480 -0.2715
 1013MOL0     C39681   3.327   1.310   2.947  0.5024 -0.5507 -0.4315
 1013MOL0     C39682   3.403   1.199   2.975  0.5936 -0.3893 -0.5422
 1013MOL0     C39683   3.523   1.195   2.902 -0.7283 -0.1696  0.3205
 1013MOL0     C39684   3.614   1.078   2.943  0.1566 -0.6181 -0.6437
 1013MOL0     C39685   3.566   1.298   2.815 -0.3462  0.0478 -0.3733
 1013MOL0     C39686   3.703   1.306   2.748 -0.2212  0.6749 -1.0204
 1013MOL0     O39687   3.707   1.380   2.629 -0.1132  0.4924 -0.1883
 1013MOL0     C39688   3.824   1.400   2.562 -0.0521 -0.8334 -0.3983
 1013MOL0     C39689   3.945   1.441   2.627  0.9071  0.1500  0.6674
 1013MOL0     C39690   4.066   1.445   2.560 -0.5121 -0.8421 -0.0737
 1013MOL0     C39691   4.072   1.417   2.419  0.1433 -0.3047  0.1283
 1013MOL0     O39692   4.187   1.441   2.348 -0.1812 -0.1686  0.0724
 1013MOL0     C39693   4.182   1.462   2.209  0.3026 -0.2536  0.2384
 1013MOL0     C39694   4.298   1.538   2.159 -0.0269 -0.3586 -0.1854
 1013MOL0     C39695   4.277   1.555   2.012 -0.5369 -0.3191  0.8925
 1013MOL0     C39696   4.391   1.641   1.931  0.2676 -0.2631  0.2999
 1013MOL0     C39697   4.348   1.653   1.785  0.1399 -0.4422  0.6545
 1013MOL0     C39698   4.422   1.761   1.692  0.3795  0.5064  0.1115
 1013MOL0     C39699   4.327   1.808   1.581  0.1985 -0.6698  0.4486
 1013MOL0     C39700   4.396   1.921   1.506 -0.3538  0.5963 -0.9102
 1013MOL0    Cl39701   4.574   1.895   1.467  0.0014 -0.6494 -0.1283
 1013MOL0     C39702   3.948   1.383   2.352 -0.8010 -0.2943 -0.0267
 1013MOL0     C39703   3.834   1.367   2.427 -0.5025 -0.0450  0.5527
 1013MOL0     O39704   3.803   1.259   2.803  0.4370 -0.7502 -0.1225
 1013MOL0     C39705   3.482   1.399   2.786  0.3924 -0.5901 -0.4043
 1013MOL0     C39706   3.360   1.404   2.851  0.3038  0.0301 -0.1681
 1013MOL0     N39707   2.995   1.701   3.361 -0.0082  0.3506 -0.4075
 1013MOL0     N39708   2.883   1.759   3.342  0.7688 -0.5179 -0.3154
 1013MOL0     C39709   2.844   1.637   2.349 -0.4206  0.5409  1.0692
 1013MOL0     C39710   2.974   1.648   2.293 -0.0783 -0.0069  0.8024
 1013MOL0     C39711   3.418   1.698   2.223  0.4940  1.2044 -0.0558
 1013MOL0     C39712   3.474   1.783   2.124 -0.0033  0.6199 -0.2505
 1013MOL0     C39713   3.608   1.770   2.081  0.4234  0.5837 -0.0444
 1013MOL0     C39714   3.679   1.667   2.131  0.9411 -0.4589  0.7544
 1013MOL0     O39715   3.787   1.623   2.063  0.3670 -0.0186  0.3245
 1013MOL0     C39716   3.754   1.511   1.984 -0.6216 -0.6102 -0.3434
 1013MOL0     C39717   3.831   1.525   1.860 -0.3043 -0.1098  0.9785
 1013MOL0     C39718   3.809   1.648   1.770  0.2293  0.4079  0.2143
 1013MOL0     C39719   3.829   1.612   1.624 -0.1233 -0.1184  0.3533
 1013MOL0     C39720   3.966   1.570   1.605  0.0370 -0.3526  0.3620
 1013MOL0     C39721   4.077   1.528   1.581  0.9253 -0.2364 -0.0983
 1013MOL0     C39722   3.634   1.599   2.243  0.5126  0.8630 -0.0155
 1013MOL0     C39723   3.505   1.618   2.296 -0.5145 -0.3167  0.4823
 1013MOL0     C39724   3.471   1.548   2.428  0.1908 -0.1806  0.3986
 1013MOL0     H39725   3.137   1.398   2.447  1.9906  1.4380 -0.2470
 1013MOL0     H39726   2.905   1.344   2.524  0.9547  0.7369  1.8732
 1013MOL0     H39727   2.704   1.307   2.529  1.7395  1.5784 -0.8450
 1013MOL0     H39728   2.542   1.387   2.541 -0.6615  0.3730  1.6761
 1013MOL0     H39729   2.605   1.372   2.745  0.6552 -0.9894  0.7790
 1013MOL0     H39730   2.771   1.437   2.735  0.6556  1.5711 -0.6878
 1013MOL0     H39731   2.667   1.660   2.704 -1.5017  0.8805  1.5009
 1013MOL0     H39732   2.502   1.585   2.712 -0.1807  0.8910  0.2152
 1013MOL0     H39733   2.594   1.491   2.933  0.1059  1.3932  2.0348
 1013MOL0     H39734   2.726   1.604   2.906 -0.1126 -0.5615 -0.9299
 1013MOL0     H39735   2.447   1.722   2.940 -0.2017  0.1235  0.7204
 1013MOL0     H39736   2.576   1.812   2.878 -1.5408  1.6343  0.7459
 1013MOL0     H39737   2.721   1.779   3.095  0.4588  1.7692  2.8611
 1013MOL0     H39738   2.557   1.850   3.121  1.3211  0.4866 -2.7379
 1013MOL0     H39739   2.617   1.559   3.164 -0.3198  0.3794 -1.3632
 1013MOL0     H39740   2.472   1.647   3.190 -0.3681 -3.7190 -2.5054
 1013MOL0     H39741   2.614   1.771   3.381 -0.3650  0.7290 -2.1123
 1013MOL0     H39742   2.589   1.613   3.413  0.3980  0.9936  1.3154
 1013MOL0     H39743   2.798   1.441   3.370 -0.5296 -0.2981 -4.7345
 1013MOL0     H39744   3.061   1.371   3.417  0.8194 -0.4754 -1.0051
 1013MOL0     H39745   3.106   1.494   3.527 -2.3658  0.5180  0.0926
 1013MOL0     H39746   3.239   1.627   3.351  0.1936  0.2658 -2.2817
 1013MOL0     H39747   3.306   1.471   3.391  0.4797  1.0866 -0.1911
 1013MOL0     H39748   3.128   1.552   3.155  0.6293  1.4182 -0.4692
 1013MOL0     H39749   3.293   1.543   3.130 -0.6380  1.0986  0.3629
 1013MOL0     H39750   3.306   1.303   3.199  0.8835  2.8503  1.2903
 1013MOL0     H39751   3.138   1.283   3.190  0.7722  0.0785  0.9757
 1013MOL0     H39752   3.369   1.126   3.048 -0.8170  2.8893  2.3592
 1013MOL0     H39753   3.670   1.042   2.856  1.3944  2.7054 -1.3595
 1013MOL0     H39754   3.552   0.999   2.986 -3.6353  2.3003 -0.2167
 1013MOL0     H39755   3.689   1.109   3.016 -0.4151 -2.7441  0.9615
 1013MOL0     H39756   3.940   1.458   2.734 -0.9393  0.5279  0.5448
 1013MOL0     H39757   4.145   1.467   2.630  0.2031 -2.0243 -0.4812
 1013MOL0     H39758   4.175   1.366   2.158 -1.2908  0.1527 -0.3471
 1013MOL0     H39759   4.101   1.533   2.192  0.9748  0.1384 -1.5407
 1013MOL0     H39760   4.305   1.636   2.208  1.2404  0.0283 -1.1042
 1013MOL0     H39761   4.382   1.471   2.177  0.0646 -0.5229 -1.1694
 1013MOL0     H39762   4.187   1.611   1.984  1.4337  1.9581 -1.4578
 1013MOL0     H39763   4.279   1.456   1.965  0.8788 -0.2325  0.7188
 1013MOL0     H39764   4.496   1.611   1.929  0.0149 -1.1671 -1.6815
 1013MOL0     H39765   4.370   1.741   1.969  0.2794  0.3610 -1.2821
 1013MOL0     H39766   4.353   1.557   1.732 -2.7021 -1.3010  1.7574
 1013MOL0     H39767   4.243   1.683   1.788 -0.0881 -0.4949 -2.7600
 1013MOL0     H39768   4.513   1.716   1.652  0.7265  1.3434 -0.0519
 1013MOL0     H39769   4.459   1.838   1.760 -1.9956  2.1569 -0.3583
 1013MOL0     H39770   4.228   1.835   1.617  0.0497  0.2934 -0.6497
 1013MOL0     H39771   4.321   1.726   1.509  4.0067  1.8843 -3.2910
 1013MOL0     H39772   4.400   2.005   1.577 -1.2543 -1.3348  1.5657
 1013MOL0     H39773   4.343   1.954   1.416  1.7614 -1.1318 -2.8802
 1013MOL0     H39774   3.963   1.346   2.251  0.2540 -2.8592  0.9768
 1013MOL0     H39775   3.743   1.336   2.377  0.5693 -1.5361 -0.5661
 1013MOL0     H39776   3.503   1.476   2.712 -0.4910 -2.0616 -2.2769
 1013MOL0     H39777   3.286   1.480   2.827 -1.9221 -1.5034  1.4803
 1013MOL0     H39778   2.761   1.706   2.342 -0.1694  0.7884  0.4919
 1013MOL0     H39779   2.998   1.733   2.230  2.1402 -1.0725  0.0999
 1013MOL0     H39780   3.408   1.860   2.086  1.7463  3.4809  2.0443
 1013MOL0     H39781   3.656   1.834   2.007  1.6062  0.9941  1.0403
 1013MOL0     H39782   3.789   1.414   2.021  0.7497  0.0929  0.2901
 1013MOL0     H39783   3.650   1.509   1.953 -1.0454  1.7248  0.7681
 1013MOL0     H39784   3.808   1.430   1.812  1.8258 -0.3123  0.2704
 1013MOL0     H39785   3.937   1.525   1.887 -0.3250 -1.0351  1.0764
 1013MOL0     H39786   3.703   1.674   1.769 -0.2055 -1.2141  0.2855
 1013MOL0     H39787   3.871   1.732   1.802  1.4352 -1.1395  2.2863
 1013MOL0     H39788   3.815   1.698   1.557  1.2570 -0.1453  0.0085
 1013MOL0     H39789   3.779   1.522   1.587  0.4349 -0.1169 -0.4341
 1013MOL0     H39790   4.168   1.476   1.559 -0.7061 -3.7811  0.7186
 1013MOL0     H39791   3.705   1.538   2.298  0.6620  0.8871 -0.1824
 1013MOL0     H39792   3.406   1.612   2.488 -0.1385  0.0788 -0.2262
 1013MOL0     H39793   3.433   1.448   2.407 -0.4993  0.5810 -2.4824
 1013MOL0     H39794   3.560   1.540   2.491  0.5935  3.5736  0.5352
 1014MOL0     O39795   8.667   2.602   4.182  0.2122 -0.4550 -0.1856
 1014MOL0     C39796   8.656   2.511   4.099 -0.0357  0.5129 -0.8204
 1014MOL0     O39797   8.724   2.390   4.102 -0.1166  0.1134  0.1793
 1014MOL0     C39798   8.813   2.370   4.203 -0.0696  0.1525 -1.2329
 1014MOL0     C39799   8.772   2.374   4.333  0.6676 -0.2454  0.0960
 1014MOL0     C39800   8.861   2.352   4.443  1.2739 -0.4549 -0.5520
 1014MOL0     C39801   8.990   2.341   4.414 -0.6925 -0.5586  0.7400
 1014MOL0     O39802   9.081   2.310   4.525 -0.4783  0.7488 -0.3227
 1014MOL0     C39803   9.217   2.358   4.514 -0.2267  0.0861 -0.5020
 1014MOL0     C39804   9.279   2.343   4.659  0.2813  0.4492  0.1137
 1014MOL0     C39805   9.432   2.353   4.654  0.4016  0.7407  0.2309
 1014MOL0     C39806   9.498   2.374   4.795 -1.1807 -0.8155 -0.2851
 1014MOL0     C39807   9.602   2.490   4.767  0.8805  0.9314 -0.2923
 1014MOL0     C39808   9.679   2.535   4.893  1.0409  0.2991  0.0972
 1014MOL0     C39809   9.811   2.604   4.857  0.2212 -0.6868  0.2336
 1014MOL0     C39810   9.894   2.646   4.977  0.2957  0.3912  0.2457
 1014MOL0     N39811   9.995   2.547   5.006 -0.3467 -0.7625 -0.2920
 1014MOL0     C39812  10.105   2.513   4.930 -1.2678 -0.3073 -0.0766
 1014MOL0     C39813  10.178   2.428   5.015  0.3963 -0.0789  0.2543
 1014MOL0     C39814  10.305   2.363   4.970  0.1505 -1.3679 -1.2033
 1014MOL0     C39815  10.329   2.229   5.036 -0.4767  0.0522  0.5614
 1014MOL0     C39816  10.473   2.188   4.987  0.0137  0.3699  0.1356
 1014MOL0     C39817  10.544   2.088   5.078  0.5236  0.2983 -0.7627
 1014MOL0     O39818  10.614   2.158   5.182  0.3740  0.2938 -0.6958
 1014MOL0     C39819  10.739   2.202   5.152 -0.4601 -0.2944 -0.7069
 1014MOL0     C39820  10.844   2.113   5.168  0.3125 -0.7055  0.2775
 1014MOL0     C39821  10.969   2.151   5.142 -0.1510 -0.0072  0.6883
 1014MOL0     C39822  11.066   2.037   5.151 -0.6859  0.0777 -0.0269
 1014MOL0     C39823  10.997   2.287   5.096 -0.4477 -0.3436  0.4599
 1014MOL0     C39824  11.132   2.327   5.066 -0.4475  0.2443  0.9085
 1014MOL0     O39825  11.220   2.244   4.994  0.1458  0.3645 -0.8512
 1014MOL0     C39826  11.347   2.291   4.967  1.5812  0.1445 -0.4232
 1014MOL0     C39827  11.443   2.242   5.045 -0.6623 -0.6275  0.0227
 1014MOL0     C39828  11.578   2.280   5.018  0.0781  0.4062 -0.2687
 1014MOL0     C39829  11.610   2.355   4.899 -0.9898 -0.8003 -0.1433
 1014MOL0     O39830  11.737   2.390   4.859 -0.2180  0.2882  0.6747
 1014MOL0     C39831  11.772   2.341   4.727  0.0265 -0.0386 -0.3652
 1014MOL0     C39832  11.918   2.359   4.706 -0.6804  0.6673  0.3288
 1014MOL0     C39833  11.935   2.477   4.612 -0.0802  0.1992  0.5191
 1014MOL0     C39834  12.076   2.515   4.605 -0.6457  0.2246 -0.0309
 1014MOL0     C39835  12.107   2.650   4.541  0.2946  1.1445 -0.6479
 1014MOL0     C39836  12.253   2.661   4.531 -0.4837 -0.4683  0.2761
 1014MOL0     C39837  12.280   2.793   4.454  0.4356  0.0370 -0.4983
 1014MOL0     C39838  12.406   2.852   4.512 -0.9520 -0.2949  0.2820
 1014MOL0    Cl39839  12.385   2.932   4.666  0.6249 -0.5263 -0.3641
 1014MOL0     C39840  11.499   2.406   4.828 -0.3252 -0.1765  1.1521
 1014MOL0     C39841  11.373   2.373   4.865 -0.6225 -0.0586  0.7734
 1014MOL0     O39842  11.167   2.437   5.115 -0.1225  1.3806 -0.6407
 1014MOL0     C39843  10.889   2.381   5.092 -0.3094 -0.6454  0.0051
 1014MOL0     C39844  10.761   2.340   5.123  0.5940 -0.6556 -0.8370
 1014MOL0     N39845  10.112   2.415   5.132 -0.0368  0.0993  0.5766
 1014MOL0     N39846  10.008   2.492   5.132 -0.4294 -0.2659 -0.1750
 1014MOL0     C39847   9.040   2.334   4.282 -0.1017 -1.1229  0.5249
 1014MOL0     C39848   8.947   2.355   4.181  0.6071  0.6515  0.9843
 1014MOL0     C39849   8.559   2.537   3.991 -0.4533  0.8163  0.0274
 1014MOL0     C39850   8.441   2.614   4.017  0.5585  0.2560  0.2583
 1014MOL0     C39851   8.336   2.625   3.927  0.2492  0.5151 -0.1778
 1014MOL0     C39852   8.357   2.575   3.798  0.1001  0.0876 -0.2534
 1014MOL0     O39853   8.266   2.578   3.695  0.7052 -0.0749  0.2748
 1014MOL0     C39854   8.141   2.508   3.725  0.6251 -0.0619  0.4229
 1014MOL0     C39855   8.156   2.355   3.746 -0.8498  0.9009  0.0766
 1014MOL0     C39856   8.182   2.289   3.611  0.4599 -0.3765  0.0119
 1014MOL0     C39857   8.196   2.138   3.627  0.7071 -0.3748  0.2715
 1014MOL0     C39858   8.056   2.082   3.609 -0.5459 -0.2071  0.2013
 1014MOL0     C39859   7.950   2.023   3.599  0.5265  1.0387 -0.0367
 1014MOL0     C39860   8.475   2.515   3.759  0.6785 -1.1399  0.3538
 1014MOL0     C39861   8.579   2.497   3.857  0.0810  0.2194  0.6885
 1014MOL0     C39862   8.716   2.452   3.807  0.4673  0.0059  0.5342
 1014MOL0     H39863   8.664   2.383   4.343  0.1762 -2.6111 -2.2099
 1014MOL0     H39864   8.824   2.350   4.545  2.2655  1.1223 -0.1237
 1014MOL0     H39865   9.211   2.465   4.490  1.1256  0.1030 -0.8447
 1014MOL0     H39866   9.278   2.305   4.440  1.1338  1.9021 -0.7436
 1014MOL0     H39867   9.254   2.426   4.726  2.1186  1.8028 -0.8027
 1014MOL0     H39868   9.257   2.244   4.700 -1.1253  0.8540  0.4001
 1014MOL0     H39869   9.476   2.260   4.619 -1.3928 -0.4224  0.9574
 1014MOL0     H39870   9.449   2.433   4.581 -2.7529  1.4942  0.1722
 1014MOL0     H39871   9.433   2.406   4.877  0.4193  0.9763  0.3756
 1014MOL0     H39872   9.542   2.281   4.831 -1.3717 -1.4350 -1.6023
 1014MOL0     H39873   9.554   2.575   4.716 -0.8232 -0.4733 -1.1613
 1014MOL0     H39874   9.673   2.450   4.694  2.8217 -1.8142  2.8323
 1014MOL0     H39875   9.623   2.613   4.944  0.6518  0.6854 -0.9179
 1014MOL0     H39876   9.693   2.450   4.961 -2.5704 -1.3663 -0.9892
 1014MOL0     H39877   9.788   2.699   4.808 -0.7703 -0.4287  1.1741
 1014MOL0     H39878   9.867   2.531   4.797  0.9865 -0.1613  0.2854
 1014MOL0     H39879   9.946   2.741   4.958  3.9066 -0.9317  2.4510
 1014MOL0     H39880   9.825   2.664   5.059 -0.9468  0.1130 -0.7097
 1014MOL0     H39881  10.109   2.539   4.825 -0.2074  1.5693  0.3952
 1014MOL0     H39882  10.390   2.428   4.991 -0.0093 -0.4576 -3.1486
 1014MOL0     H39883  10.299   2.350   4.862 -3.0876  0.3486 -1.3754
 1014MOL0     H39884  10.351   2.243   5.143 -0.9781 -0.6805  0.7734
 1014MOL0     H39885  10.246   2.160   5.016 -0.6477  1.5110 -5.7937
 1014MOL0     H39886  10.468   2.151   4.884 -0.5733  0.4675  0.1280
 1014MOL0     H39887  10.551   2.264   4.975  0.1494 -0.0959 -2.5407
 1014MOL0     H39888  10.472   2.018   5.120  0.0579  0.4617 -1.2802
 1014MOL0     H39889  10.612   2.032   5.014  1.2826 -0.5438  0.7213
 1014MOL0     H39890  10.816   2.020   5.215 -7.2609  1.5351  1.6901
 1014MOL0     H39891  11.157   2.030   5.089 -1.2424 -0.7199 -0.7858
 1014MOL0     H39892  11.014   1.942   5.134 -1.2861  0.2472  0.8630
 1014MOL0     H39893  11.106   2.026   5.252 -2.6506 -1.1598  0.6624
 1014MOL0     H39894  11.427   2.170   5.125  3.0649 -0.8486  0.7578
 1014MOL0     H39895  11.670   2.243   5.061 -0.7647 -1.4347  0.0162
 1014MOL0     H39896  11.754   2.233   4.721 -1.2458  0.2530 -3.8551
 1014MOL0     H39897  11.702   2.379   4.652 -1.7983 -1.1514  0.6984
 1014MOL0     H39898  11.966   2.389   4.799 -0.6192  1.1594  0.1411
 1014MOL0     H39899  11.969   2.270   4.666 -0.6746  1.0358 -0.5007
 1014MOL0     H39900  11.876   2.567   4.631 -1.0093 -0.2696 -0.0293
 1014MOL0     H39901  11.897   2.440   4.516  0.4021  2.3617 -0.5687
 1014MOL0     H39902  12.128   2.433   4.555 -1.2246 -0.5847  0.6738
 1014MOL0     H39903  12.118   2.508   4.706  1.8970  1.6083 -0.9167
 1014MOL0     H39904  12.056   2.658   4.444 -1.0770  2.8586  0.1715
 1014MOL0     H39905  12.068   2.734   4.599 -1.1279  1.3405 -1.8095
 1014MOL0     H39906  12.302   2.578   4.478 -1.3606 -1.0510  0.3581
 1014MOL0     H39907  12.293   2.664   4.633 -1.3505 -0.2853  0.6163
 1014MOL0     H39908  12.196   2.862   4.455  0.3096  0.1062  3.8899
 1014MOL0     H39909  12.299   2.772   4.349  2.2375  2.8684 -0.8391
 1014MOL0     H39910  12.443   2.930   4.445 -0.0731 -1.9080 -1.1904
 1014MOL0     H39911  12.489   2.780   4.517 -0.2341  0.3709 -1.3978
 1014MOL0     H39912  11.523   2.464   4.739  0.9909 -2.3159  0.0345
 1014MOL0     H39913  11.277   2.387   4.816 -0.5235 -2.2337 -0.1686
 1014MOL0     H39914  10.900   2.482   5.054 -0.7030 -1.4772 -2.4809
 1014MOL0     H39915  10.672   2.402   5.125  1.3238  0.6082  3.5580
 1014MOL0     H39916   9.136   2.304   4.240 -1.3150 -1.6799 -2.0763
 1014MOL0     H39917   8.982   2.353   4.078  0.4192  0.0674  0.9275
 1014MOL0     H39918   8.419   2.648   4.118  0.2808 -1.7784  0.9345
 1014MOL0     H39919   8.248   2.681   3.954 -0.0786 -1.1197  2.4658
 1014MOL0     H39920   8.096   2.543   3.818 -0.3046 -2.3128  0.8920
 1014MOL0     H39921   8.068   2.535   3.648 -0.2987  0.4132  1.4397
 1014MOL0     H39922   8.073   2.299   3.789  0.5135 -0.3111  1.2289
 1014MOL0     H39923   8.247   2.338   3.805  0.0628 -0.8709 -1.7015
 1014MOL0     H39924   8.111   2.323   3.535  2.5355  4.9497 -0.0332
 1014MOL0     H39925   8.278   2.333   3.583 -0.2797  1.4591  0.2126
 1014MOL0     H39926   8.234   2.123   3.729 -1.9412  0.5068  1.4653
 1014MOL0     H39927   8.266   2.098   3.553  0.5683 -0.2569  0.0754
 1014MOL0     H39928   7.850   1.984   3.595  1.1942 -0.7426 -0.5710
 1014MOL0     H39929   8.491   2.474   3.660  0.1139  0.2725 -0.3528
 1014MOL0     H39930   8.722   2.462   3.698  1.6660  0.6980  0.6385
 1014MOL0     H39931   8.792   2.518   3.851  2.1573 -1.6719  0.2777
 1014MOL0     H39932   8.742   2.353   3.846  1.7466  0.3800  0.6911
 1015MOL0     O39933   4.838  10.606   0.379 -0.0584 -0.8360  0.3227
 1015MOL0     C39934   4.756  10.592   0.470  0.3735  0.2896 -0.3936
 1015MOL0     O39935   4.762  10.493   0.575  0.5771 -0.2363 -0.3617
 1015MOL0     C39936   4.878  10.432   0.585 -0.6884  0.0549  0.6637
 1015MOL0     C39937   4.892  10.307   0.522 -0.6170 -1.3302 -0.6104
 1015MOL0     C39938   5.011  10.231   0.547  0.1629 -0.0974 -0.5869
 1015MOL0     C39939   5.114  10.283   0.630 -0.4239  0.6194  0.0755
 1015MOL0     O39940   5.227  10.210   0.670 -0.4365  0.4444  0.1551
 1015MOL0     C39941   5.219  10.062   0.663  0.4718 -0.0155  0.0636
 1015MOL0     C39942   5.328   9.999   0.744  0.5900  0.7565  0.0019
 1015MOL0     C39943   5.338   9.849   0.707 -0.4682  0.1129 -0.4757
 1015MOL0     C39944   5.429   9.763   0.791 -0.4445  0.1085 -0.1388
 1015MOL0     C39945   5.359   9.708   0.917 -0.1396  0.0649  0.2261
 1015MOL0     C39946   5.276   9.585   0.897 -0.4299  0.0036 -0.1946
 1015MOL0     C39947   5.328   9.467   0.810 -0.0944  0.0466  0.4007
 1015MOL0     C39948   5.433   9.378   0.887  0.1119 -0.3281  1.1611
 1015MOL0     N39949   5.565   9.449   0.913  0.9625 -0.5547  0.0667
 1015MOL0     C39950   5.661   9.474   0.820  0.4609  0.8176  0.3750
 1015MOL0     C39951   5.761   9.545   0.892  0.4721  0.0861 -0.1757
 1015MOL0     C39952   5.882   9.591   0.816 -0.6308 -0.6209  0.3880
 1015MOL0     C39953   6.001   9.495   0.835  0.4782 -0.7006 -0.0952
 1015MOL0     C39954   5.990   9.366   0.756 -0.5846 -0.4871  0.3680
 1015MOL0     C39955   6.099   9.268   0.810  0.2346  0.4239  0.1064
 1015MOL0     O39956   6.118   9.155   0.716  0.3125 -0.3217  0.0264
 1015MOL0     C39957   6.206   9.056   0.755  0.5619  0.0622 -0.3239
 1015MOL0     C39958   6.205   8.952   0.663  0.3013  0.2679 -0.0592
 1015MOL0     C39959   6.281   8.835   0.681 -0.9263  0.3529 -0.2718
 1015MOL0     C39960   6.262   8.731   0.573  0.2541 -0.1632 -0.8123
 1015MOL0     C39961   6.380   8.830   0.783  0.6400 -0.2089 -0.6063
 1015MOL0     C39962   6.481   8.714   0.795 -0.5715  0.4708 -0.9328
 1015MOL0     O39963   6.574   8.730   0.901 -0.1523 -0.1526  0.2151
 1015MOL0     C39964   6.669   8.633   0.930  0.4730  0.5653  1.2445
 1015MOL0     C39965   6.678   8.591   1.063 -0.4302 -0.3047 -0.3694
 1015MOL0     C39966   6.772   8.498   1.101 -0.2718 -0.7070  0.0127
 1015MOL0     C39967   6.856   8.445   1.008  0.2061  0.9175  0.2012
 1015MOL0     O39968   6.965   8.372   1.059 -0.1474 -0.0929 -0.5416
 1015MOL0     C39969   7.041   8.306   0.966  0.6639 -0.6330 -0.0171
 1015MOL0     C39970   7.129   8.217   1.054  0.1312  1.4627 -0.4153
 1015MOL0     C39971   7.040   8.108   1.121 -0.8353 -0.4570  0.1743
 1015MOL0     C39972   7.125   7.986   1.168  0.3616  0.1736  0.1259
 1015MOL0     C39973   7.170   8.011   1.315  0.0733  0.6101  0.1350
 1015MOL0     C39974   7.308   7.949   1.344  0.1630 -0.2025  0.0502
 1015MOL0     C39975   7.375   7.979   1.482 -0.4433  0.2906  0.6174
 1015MOL0     C39976   7.266   7.953   1.590 -0.1280 -0.4396  0.1140
 1015MOL0    Cl39977   7.349   7.922   1.741 -0.0158  0.3971 -0.3686
 1015MOL0     C39978   6.836   8.473   0.869 -0.4044 -0.2902 -1.1958
 1015MOL0     C39979   6.752   8.571   0.834 -0.2404 -0.4918  0.4300
 1015MOL0     O39980   6.491   8.625   0.709 -0.0695 -0.2639  0.1589
 1015MOL0     C39981   6.382   8.941   0.872  0.0833  0.3038 -0.5950
 1015MOL0     C39982   6.296   9.055   0.863  0.0511  0.5908 -0.1493
 1015MOL0     N39983   5.725   9.553   1.020  0.1067 -0.2780  0.4686
 1015MOL0     N39984   5.616   9.491   1.033  0.3477 -0.1484  0.0691
 1015MOL0     C39985   5.096  10.412   0.686 -0.3491  0.5877 -0.1808
 1015MOL0     C39986   4.982  10.486   0.669 -0.0886  0.5172 -0.2481
 1015MOL0     C39987   4.624  10.668   0.461 -1.2495 -0.1175  0.3126
 1015MOL0     C39988   4.522  10.629   0.540 -0.0150 -0.4293 -0.0596
 1015MOL0     C39989   4.394  10.684   0.543  0.2731  0.2028 -0.3765
 1015MOL0     C39990   4.359  10.782   0.454  0.1661 -0.5455  0.1988
 1015MOL0     O39991   4.228  10.825   0.429  0.2007  0.2337  0.5844
 1015MOL0     C39992   4.127  10.823   0.529  0.2608 -0.0865  0.2157
 1015MOL0     C39993   3.997  10.861   0.464 -0.1384  0.3651  0.3864
 1015MOL0     C39994   3.885  10.849   0.560  0.8556 -0.1305 -0.6185
 1015MOL0     C39995   3.781  10.967   0.552  0.3702 -0.0077  0.2740
 1015MOL0     C39996   3.697  10.962   0.425 -0.1423 -0.3192 -0.0651
 1015MOL0     C39997   3.638  10.943   0.324  0.1959  0.2400 -0.0674
 1015MOL0     C39998   4.464  10.836   0.375  0.3035  0.5819 -0.0685
 1015MOL0     C39999   4.587  10.772   0.371 -0.5523 -0.3697 -0.6259
 1015MOL0     C40000   4.679  10.821   0.264 -0.5089 -0.7476 -0.1371
 1015MOL0     H40001   4.808  10.269   0.464 -1.3816 -1.2150  0.3977
 1015MOL0     H40002   5.031  10.136   0.498  1.1610 -1.4644  2.2443
 1015MOL0     H40003   5.213  10.030   0.559 -2.4817 -1.1107  0.4680
 1015MOL0     H40004   5.122  10.031   0.704  1.3737 -3.3696 -0.0414
 1015MOL0     H40005   5.426  10.046   0.726  2.1772 -2.1567  0.4249
 1015MOL0     H40006   5.288  10.018   0.844 -3.3115 -1.7067 -0.8728
 1015MOL0     H40007   5.241   9.800   0.717 -0.7990  0.8144 -0.1343
 1015MOL0     H40008   5.388   9.852   0.610  2.0336 -1.8897  0.6260
 1015MOL0     H40009   5.466   9.677   0.734  0.0330  0.6384 -0.6418
 1015MOL0     H40010   5.521   9.813   0.822  0.0637 -1.5001  1.0890
 1015MOL0     H40011   5.304   9.790   0.965  0.2019 -0.9260  2.4540
 1015MOL0     H40012   5.443   9.695   0.986  2.1957  1.3673 -2.1828
 1015MOL0     H40013   5.247   9.535   0.989 -1.7511 -1.8675 -1.5340
 1015MOL0     H40014   5.186   9.626   0.851 -0.1385  1.2838  0.3430
 1015MOL0     H40015   5.377   9.491   0.716  1.6295 -2.9862  0.3786
 1015MOL0     H40016   5.245   9.404   0.775 -0.3186  0.7565 -0.3700
 1015MOL0     H40017   5.377   9.358   0.979  1.1615 -1.1388  1.6465
 1015MOL0     H40018   5.454   9.282   0.840 -0.0379 -1.6118  3.5613
 1015MOL0     H40019   5.648   9.443   0.717 -1.6323 -1.2965  1.1985
 1015MOL0     H40020   5.913   9.687   0.860 -3.6048  0.3178  0.6453
 1015MOL0     H40021   5.866   9.601   0.709  0.8243 -0.1879  0.1782
 1015MOL0     H40022   6.092   9.551   0.810 -0.5045  2.8442  3.3286
 1015MOL0     H40023   6.011   9.475   0.942  3.2804  0.7460  0.0051
 1015MOL0     H40024   5.902   9.312   0.790  1.0807 -2.1267  2.3411
 1015MOL0     H40025   5.990   9.378   0.647  2.2948  0.2252  0.3546
 1015MOL0     H40026   6.193   9.325   0.815  1.0402 -0.8696  0.0468
 1015MOL0     H40027   6.076   9.227   0.909 -0.2080 -2.7143 -1.1829
 1015MOL0     H40028   6.146   8.960   0.573 -0.9446 -0.7553  0.6221
 1015MOL0     H40029   6.257   8.632   0.620  2.3323 -0.0080 -0.1680
 1015MOL0     H40030   6.347   8.732   0.504  0.8315 -0.1878 -0.1133
 1015MOL0     H40031   6.171   8.738   0.512  1.7767  0.6396 -3.1220
 1015MOL0     H40032   6.627   8.644   1.143  0.0433 -0.4604  0.0410
 1015MOL0     H40033   6.800   8.487   1.206  0.8465 -1.8684 -0.3863
 1015MOL0     H40034   6.973   8.254   0.898  0.6284 -0.3680 -0.1859
 1015MOL0     H40035   7.108   8.374   0.913 -0.2239  1.1899  1.0982
 1015MOL0     H40036   7.210   8.177   0.993 -0.6300  2.6578 -2.3181
 1015MOL0     H40037   7.178   8.281   1.128  0.6855 -1.3485  1.8090
 1015MOL0     H40038   6.976   8.083   1.036 -0.0585  0.6818 -0.7788
 1015MOL0     H40039   6.985   8.145   1.207 -2.8937 -0.7308 -0.9696
 1015MOL0     H40040   7.221   7.966   1.120  1.0054  0.0814  1.4168
 1015MOL0     H40041   7.059   7.899   1.172 -0.8139  1.0528  0.6758
 1015MOL0     H40042   7.194   8.117   1.332 -0.5259  0.5626  1.3815
 1015MOL0     H40043   7.092   7.979   1.385 -1.3158 -1.3905 -2.1719
 1015MOL0     H40044   7.382   7.980   1.269  3.4745 -2.7729  1.9798
 1015MOL0     H40045   7.293   7.841   1.341 -1.2209 -0.0271  0.0601
 1015MOL0     H40046   7.415   8.081   1.475  1.2878 -0.3080  1.2910
 1015MOL0     H40047   7.464   7.917   1.494 -0.0656  0.2721 -1.7435
 1015MOL0     H40048   7.203   7.867   1.568 -0.4575 -0.1738  0.0140
 1015MOL0     H40049   7.192   8.033   1.600  0.3566 -0.0293  0.5245
 1015MOL0     H40050   6.896   8.418   0.798 -1.5841 -2.2954 -0.6910
 1015MOL0     H40051   6.741   8.608   0.733  1.9890 -2.3047 -0.5731
 1015MOL0     H40052   6.436   8.941   0.966 -1.2271 -0.4212  0.1949
 1015MOL0     H40053   6.301   9.132   0.939  0.6289 -0.4823  0.9180
 1015MOL0     H40054   5.179  10.454   0.743  0.4111  1.7530 -2.0494
 1015MOL0     H40055   4.967  10.577   0.725  0.0730 -0.1123  0.8563
 1015MOL0     H40056   4.542  10.556   0.618  1.6165  0.7364  0.6743
 1015MOL0     H40057   4.322  10.631   0.605  1.4492 -1.8124 -0.6375
 1015MOL0     H40058   4.121  10.726   0.579 -0.5004  1.5735  3.6327
 1015MOL0     H40059   4.146  10.901   0.603  2.2379  0.1339 -0.4434
 1015MOL0     H40060   3.973  10.807   0.371  0.2997  0.2707  0.3235
 1015MOL0     H40061   4.010  10.962   0.424 -2.1751 -0.0216 -1.4344
 1015MOL0     H40062   3.830  10.757   0.540  0.1383  0.5688 -2.0916
 1015MOL0     H40063   3.927  10.851   0.661  3.9344  2.2017 -1.7874
 1015MOL0     H40064   3.834  11.059   0.578 -0.2157 -0.4789  3.4678
 1015MOL0     H40065   3.706  10.951   0.629 -0.3074 -1.2744 -0.6103
 1015MOL0     H40066   3.589  10.920   0.232  1.8718 -3.7125 -0.1666
 1015MOL0     H40067   4.427  10.909   0.304 -0.0150  0.2096 -0.2873
 1015MOL0     H40068   4.631  10.897   0.201  0.3009 -2.4223 -3.0024
 1015MOL0     H40069   4.772  10.864   0.301  1.1961 -3.1015 -1.3384
 1015MOL0     H40070   4.698  10.745   0.187 -1.4189  0.6713 -1.8385
 1016MOL0     O40071   6.536   3.158   4.879 -0.1343  0.2204 -0.4268
 1016MOL0     C40072   6.513   3.243   4.961 -0.0834  0.8048  0.2755
 1016MOL0     O40073   6.618   3.320   5.012 -0.1046  0.4822 -0.2261
 1016MOL0     C40074   6.739   3.313   4.951 -0.3486 -0.1991  0.0539
 1016MOL0     C40075   6.819   3.204   4.984 -0.6270 -0.5308  0.7483
 1016MOL0     C40076   6.947   3.182   4.925 -0.2918  0.0045  0.3791
 1016MOL0     C40077   6.999   3.272   4.830 -0.6682 -0.3018 -0.3086
 1016MOL0     O40078   7.121   3.251   4.778 -0.3318  1.2358 -0.9146
 1016MOL0     C40079   7.170   3.337   4.678 -1.0436 -0.2140 -0.3667
 1016MOL0     C40080   7.292   3.287   4.610 -0.1184  0.3275  1.5937
 1016MOL0     C40081   7.415   3.311   4.701 -0.2710  0.0515 -0.0566
 1016MOL0     C40082   7.553   3.313   4.638  0.2477  1.0253  0.3133
 1016MOL0     C40083   7.667   3.379   4.719 -0.1658  0.1949 -0.1738
 1016MOL0     C40084   7.678   3.314   4.860 -0.4810  1.1101  0.2029
 1016MOL0     C40085   7.809   3.359   4.932  0.0422 -0.6314 -0.1997
 1016MOL0     C40086   7.831   3.283   5.063  0.6075 -0.3880  0.4765
 1016MOL0     N40087   7.964   3.307   5.122 -0.1242 -0.4552  0.2003
 1016MOL0     C40088   8.019   3.433   5.147  0.5493 -0.1728  0.5550
 1016MOL0     C40089   8.147   3.395   5.187  0.1508  0.6173  0.2619
 1016MOL0     C40090   8.251   3.486   5.229  0.2883 -0.2425  0.4381
 1016MOL0     C40091   8.383   3.409   5.233 -0.2979  0.1270  0.2132
 1016MOL0     C40092   8.498   3.505   5.267  1.1924  0.6674  0.5398
 1016MOL0     C40093   8.618   3.435   5.321 -0.7515 -0.1822 -0.0050
 1016MOL0     O40094   8.737   3.519   5.318  0.1540 -0.5749  0.4809
 1016MOL0     C40095   8.856   3.461   5.356  0.0129 -0.0851  0.6576
 1016MOL0     C40096   8.871   3.387   5.470 -0.1229 -0.1349 -0.1612
 1016MOL0     C40097   9.000   3.360   5.523  0.5713  0.0109  0.7749
 1016MOL0     C40098   8.985   3.289   5.658  0.4676  0.9167  0.3351
 1016MOL0     C40099   9.116   3.385   5.449 -0.6528 -0.8687  0.6218
 1016MOL0     C40100   9.247   3.347   5.492 -0.7873 -0.6933 -0.1088
 1016MOL0     O40101   9.341   3.328   5.389 -0.1241 -0.5935 -0.6455
 1016MOL0     C40102   9.457   3.273   5.426 -0.6161  0.1835  0.3100
 1016MOL0     C40103   9.564   3.347   5.450  0.2053  0.3726 -0.3383
 1016MOL0     C40104   9.679   3.281   5.499 -0.9333  0.5469  0.1961
 1016MOL0     C40105   9.693   3.135   5.506 -0.0305 -0.3919  0.6303
 1016MOL0     O40106   9.810   3.076   5.538  0.1343 -0.1130  0.0469
 1016MOL0     C40107   9.897   3.138   5.633 -0.3032  0.5102  0.2722
 1016MOL0     C40108  10.024   3.046   5.646  0.3351 -0.2145  0.7818
 1016MOL0     C40109  10.124   3.071   5.533  0.0426  0.3680 -0.2593
 1016MOL0     C40110  10.232   2.958   5.529  0.5000  0.4686  0.2375
 1016MOL0     C40111  10.370   3.033   5.557  0.3928 -0.1312  0.5819
 1016MOL0     C40112  10.481   2.940   5.550 -0.0686  0.6877 -0.5246
 1016MOL0     C40113  10.597   3.021   5.567 -0.4257 -0.0134 -0.4770
 1016MOL0     C40114  10.716   2.925   5.552 -0.8070 -0.1997  1.1279
 1016MOL0    Cl40115  10.874   3.018   5.559  0.4473 -0.3012  0.2603
 1016MOL0     C40116   9.582   3.063   5.468  0.0787 -0.5934  0.4835
 1016MOL0     C40117   9.464   3.130   5.435 -0.4279 -0.6615  0.7131
 1016MOL0     O40118   9.268   3.341   5.615 -0.5740  0.5819  0.3961
 1016MOL0     C40119   9.101   3.460   5.327  0.2994 -0.0106  0.2070
 1016MOL0     C40120   8.969   3.493   5.284 -0.0818 -0.0702 -0.1066
 1016MOL0     N40121   8.166   3.256   5.183  0.0018  0.2747  0.8967
 1016MOL0     N40122   8.056   3.211   5.129 -0.6004  0.1250  0.1436
 1016MOL0     C40123   6.919   3.390   4.813 -0.1468 -0.7583  0.5526
 1016MOL0     C40124   6.792   3.410   4.866 -0.8371  0.2814  0.5994
 1016MOL0     C40125   6.375   3.267   5.021  0.3338  0.8391 -0.8379
 1016MOL0     C40126   6.354   3.346   5.133 -0.3642 -0.1445  0.0920
 1016MOL0     C40127   6.235   3.354   5.203  1.5644 -1.0390  0.3448
 1016MOL0     C40128   6.123   3.289   5.161 -0.3156 -0.3301 -0.5778
 1016MOL0     O40129   6.008   3.318   5.234 -0.9952  0.3966 -0.2849
 1016MOL0     C40130   5.883   3.263   5.195  0.2362 -0.1601  0.5300
 1016MOL0     C40131   5.773   3.323   5.282 -0.8761 -0.2989 -0.6252
 1016MOL0     C40132   5.635   3.273   5.240 -0.1482  0.3014 -0.6750
 1016MOL0     C40133   5.526   3.376   5.254  0.1305  0.3461  0.2504
 1016MOL0     C40134   5.452   3.351   5.383 -0.2432 -0.6350  0.5977
 1016MOL0     C40135   5.388   3.321   5.486 -0.3081  0.1188 -0.3094
 1016MOL0     C40136   6.136   3.211   5.044 -0.0347  0.0387 -0.0147
 1016MOL0     C40137   6.262   3.190   4.982 -0.4418  0.1901 -0.3272
 1016MOL0     C40138   6.262   3.115   4.853 -0.5430 -0.1041  0.8076
 1016MOL0     H40139   6.782   3.128   5.053  0.6398 -0.1142  1.9256
 1016MOL0     H40140   7.003   3.090   4.937  1.7430  1.0688 -0.5292
 1016MOL0     H40141   7.198   3.433   4.722 -1.2114  0.5704 -1.9133
 1016MOL0     H40142   7.093   3.355   4.602 -1.6127 -0.7901  0.0615
 1016MOL0     H40143   7.276   3.181   4.588  0.7300  0.3482  0.8002
 1016MOL0     H40144   7.296   3.342   4.515  1.0922 -1.1264  0.7448
 1016MOL0     H40145   7.408   3.410   4.746  1.9788  0.2814 -0.1082
 1016MOL0     H40146   7.402   3.239   4.783 -0.5108 -0.3647 -0.4575
 1016MOL0     H40147   7.577   3.209   4.613 -1.4438  1.0890 -1.8896
 1016MOL0     H40148   7.553   3.365   4.542  3.1181 -0.1943 -0.4448
 1016MOL0     H40149   7.631   3.482   4.721 -4.5412 -1.1232 -0.7619
 1016MOL0     H40150   7.758   3.362   4.661 -1.6728  0.3916 -2.7224
 1016MOL0     H40151   7.586   3.346   4.909 -1.4561  1.7402 -1.9275
 1016MOL0     H40152   7.679   3.205   4.847  0.2292  0.9533  1.4497
 1016MOL0     H40153   7.796   3.462   4.965  3.0590 -0.3046  0.2307
 1016MOL0     H40154   7.897   3.346   4.869 -0.6761 -4.5126 -0.6910
 1016MOL0     H40155   7.752   3.320   5.129 -0.6193 -2.0845  0.0330
 1016MOL0     H40156   7.816   3.175   5.060 -2.9399  0.0136  0.0697
 1016MOL0     H40157   7.985   3.535   5.131  1.3182 -0.0355 -0.2678
 1016MOL0     H40158   8.226   3.524   5.329 -3.1192  0.1132 -0.4190
 1016MOL0     H40159   8.259   3.558   5.147  0.5099  0.1064  0.7597
 1016MOL0     H40160   8.376   3.326   5.304  1.0862 -0.8609 -0.7439
 1016MOL0     H40161   8.408   3.355   5.142  0.6773 -0.1333  0.6160
 1016MOL0     H40162   8.523   3.572   5.184  0.7097  0.6045  0.3403
 1016MOL0     H40163   8.472   3.576   5.347  1.3179  0.0231  1.1621
 1016MOL0     H40164   8.595   3.400   5.422 -0.8559 -0.0107  0.0315
 1016MOL0     H40165   8.639   3.346   5.262  0.3426 -0.6428  1.0470
 1016MOL0     H40166   8.785   3.350   5.525  0.7230 -1.1066  0.5544
 1016MOL0     H40167   8.910   3.213   5.636 -1.0840  2.6945 -0.8028
 1016MOL0     H40168   8.948   3.358   5.734 -0.3432  0.5697  0.2618
 1016MOL0     H40169   9.078   3.239   5.688  0.6182  0.9767 -0.0277
 1016MOL0     H40170   9.563   3.454   5.432 -2.7650  0.1803 -2.0854
 1016MOL0     H40171   9.760   3.343   5.535 -0.6545 -0.5280  1.5425
 1016MOL0     H40172   9.930   3.236   5.597  0.4550  0.1213 -0.1282
 1016MOL0     H40173   9.848   3.146   5.730  0.8993 -3.4317  1.4010
 1016MOL0     H40174  10.069   3.067   5.743  0.6899  1.6033  0.2623
 1016MOL0     H40175   9.982   2.946   5.632 -0.7465  0.4718 -1.4760
 1016MOL0     H40176  10.171   3.167   5.554  4.7207 -1.7114 -0.1046
 1016MOL0     H40177  10.065   3.059   5.442  0.3698 -4.4010 -0.0501
 1016MOL0     H40178  10.238   2.920   5.427 -1.5753  2.0646 -0.5704
 1016MOL0     H40179  10.213   2.874   5.597 -3.6036  1.4793  0.6092
 1016MOL0     H40180  10.400   3.099   5.475  1.0058 -0.4137  0.5753
 1016MOL0     H40181  10.360   3.082   5.655  1.1727 -0.8859  1.0462
 1016MOL0     H40182  10.484   2.889   5.453 -2.2247  3.1722 -2.0140
 1016MOL0     H40183  10.468   2.869   5.633  0.6297 -0.3303 -1.2555
 1016MOL0     H40184  10.596   3.075   5.662 -0.5858 -2.0043  0.7169
 1016MOL0     H40185  10.610   3.097   5.490 -4.5937  0.3450 -1.0531
 1016MOL0     H40186  10.721   2.880   5.452  1.6580  0.7422  0.7613
 1016MOL0     H40187  10.718   2.858   5.638  2.6658 -1.6610  0.0792
 1016MOL0     H40188   9.603   2.957   5.476  1.6298 -0.2164  2.0980
 1016MOL0     H40189   9.370   3.079   5.419 -0.4919  0.1305 -1.7798
 1016MOL0     H40190   9.187   3.473   5.263 -0.5037 -1.3479 -1.2089
 1016MOL0     H40191   8.948   3.535   5.186 -2.3185  0.3411  0.4917
 1016MOL0     H40192   6.944   3.460   4.733 -2.0336 -0.4133  0.2316
 1016MOL0     H40193   6.734   3.499   4.843 -0.4345 -0.2689 -3.1253
 1016MOL0     H40194   6.446   3.392   5.169  0.4708 -2.5283  1.2150
 1016MOL0     H40195   6.231   3.417   5.292  3.4059 -1.4483  0.7724
 1016MOL0     H40196   5.860   3.282   5.090 -1.4058 -2.4347  0.3927
 1016MOL0     H40197   5.882   3.154   5.204  1.4000 -0.1999  0.3277
 1016MOL0     H40198   5.776   3.432   5.277 -1.3009 -0.3058 -1.2657
 1016MOL0     H40199   5.785   3.294   5.386  0.5241  1.2840 -0.3044
 1016MOL0     H40200   5.636   3.249   5.133 -0.3036  2.1682 -1.1410
 1016MOL0     H40201   5.612   3.178   5.288 -0.7970 -0.1041 -1.7602
 1016MOL0     H40202   5.454   3.365   5.172  0.7982 -0.5596 -0.2429
 1016MOL0     H40203   5.575   3.472   5.236 -1.9574  1.1064 -1.9797
 1016MOL0     H40204   5.327   3.296   5.570 -1.1530 -1.1671 -1.2726
 1016MOL0     H40205   6.047   3.153   5.022 -2.6631  3.2348  1.4236
 1016MOL0     H40206   6.168   3.060   4.853 -0.7799  0.2908  2.2211
 1016MOL0     H40207   6.284   3.175   4.764 -0.8625  1.8790  2.0117
 1016MOL0     H40208   6.339   3.036   4.850  0.7907  1.1041 -2.6450
 1017MOL0     O40209   8.739   5.070   5.122 -0.3374  0.3405 -0.3787
 1017MOL0     C40210   8.628   5.030   5.113 -0.1827  0.2367  0.5635
 1017MOL0     O40211   8.527   5.063   5.028 -0.0065 -0.3293 -0.4758
 1017MOL0     C40212   8.567   5.130   4.912  0.7363  0.0786 -0.4751
 1017MOL0     C40213   8.613   5.058   4.796 -0.3526  0.1609 -0.5888
 1017MOL0     C40214   8.653   5.134   4.687  0.2002  0.5811  0.4545
 1017MOL0     C40215   8.658   5.276   4.692 -0.6912 -0.1129 -0.2325
 1017MOL0     O40216   8.698   5.340   4.581  0.6553 -0.4185  0.1693
 1017MOL0     C40217   8.690   5.484   4.566  0.8849 -0.5473 -0.1067
 1017MOL0     C40218   8.551   5.530   4.511  0.3239  0.5976 -0.4025
 1017MOL0     C40219   8.450   5.569   4.617  0.7918  0.1628  0.4174
 1017MOL0     C40220   8.344   5.667   4.566  0.0129  0.7358  0.2939
 1017MOL0     C40221   8.249   5.700   4.680 -0.6032 -0.2554  0.0752
 1017MOL0     C40222   8.119   5.776   4.642  0.5547 -0.1148 -0.2638
 1017MOL0     C40223   8.053   5.807   4.777  0.9545 -0.1195 -0.4500
 1017MOL0     C40224   7.976   5.940   4.759 -0.5030 -0.8837  0.9579
 1017MOL0     N40225   7.918   5.977   4.889 -0.5154  1.1491  1.1303
 1017MOL0     C40226   7.832   5.885   4.955 -1.1206 -0.4486  0.4010
 1017MOL0     C40227   7.791   5.962   5.061 -0.0537 -0.2761  0.0277
 1017MOL0     C40228   7.721   5.907   5.192 -0.1327 -0.0608  0.2713
 1017MOL0     C40229   7.570   5.941   5.184 -0.7457  0.2800 -0.5222
 1017MOL0     C40230   7.488   5.952   5.316 -0.6792 -0.5567  0.7510
 1017MOL0     C40231   7.546   6.058   5.410  1.2259  0.8076 -0.0770
 1017MOL0     O40232   7.449   6.161   5.432 -0.6231  0.4886 -0.3924
 1017MOL0     C40233   7.480   6.259   5.529  0.3128  0.3226  0.3472
 1017MOL0     C40234   7.393   6.366   5.529 -0.7196 -0.1081  0.3365
 1017MOL0     C40235   7.422   6.498   5.587 -0.9403 -0.1414 -0.3914
 1017MOL0     C40236   7.317   6.609   5.556 -0.1725  0.5258 -0.5394
 1017MOL0     C40237   7.540   6.506   5.670  0.0485 -0.9438 -0.8863
 1017MOL0     C40238   7.586   6.631   5.745 -1.2321  1.0969 -0.1631
 1017MOL0     O40239   7.717   6.639   5.785 -0.0247 -0.2191  0.5732
 1017MOL0     C40240   7.763   6.755   5.846 -0.1007 -0.4193 -0.0102
 1017MOL0     C40241   7.877   6.816   5.793  0.4886 -1.0597  0.3355
 1017MOL0     C40242   7.931   6.926   5.845  0.5705 -0.5170  0.4732
 1017MOL0     C40243   7.877   6.991   5.952 -0.6857  0.0711 -1.0253
 1017MOL0     O40244   7.932   7.103   6.000  0.1889  0.6783  0.1028
 1017MOL0     C40245   8.066   7.090   6.054  0.1416 -0.0237 -0.5223
 1017MOL0     C40246   8.147   7.213   5.996  0.6812  0.2550 -0.2278
 1017MOL0     C40247   8.173   7.214   5.844  0.6531  0.0835 -0.3020
 1017MOL0     C40248   8.266   7.316   5.794 -0.1624 -0.2512 -0.3636
 1017MOL0     C40249   8.408   7.281   5.843 -0.4681  0.2186 -0.2638
 1017MOL0     C40250   8.507   7.383   5.779  0.4492 -0.7767  0.1320
 1017MOL0     C40251   8.651   7.338   5.800 -0.3174 -0.4900 -0.6233
 1017MOL0     C40252   8.746   7.449   5.765 -0.3951 -0.7018  0.0409
 1017MOL0    Cl40253   8.906   7.409   5.848  0.1317  0.2826 -0.2588
 1017MOL0     C40254   7.772   6.926   6.016  0.8544 -0.5917 -0.2961
 1017MOL0     C40255   7.703   6.820   5.959 -0.3476  0.4914  0.5987
 1017MOL0     O40256   7.500   6.709   5.776  0.1429 -0.3888  0.4032
 1017MOL0     C40257   7.619   6.390   5.676  0.0452 -1.3650  0.0490
 1017MOL0     C40258   7.591   6.264   5.613  0.1216 -0.4495  0.0494
 1017MOL0     N40259   7.845   6.087   5.057  0.0011 -0.2253  0.6769
 1017MOL0     N40260   7.927   6.097   4.952  0.5378 -1.1878  0.4591
 1017MOL0     C40261   8.618   5.333   4.815 -0.1859 -0.4800  0.1170
 1017MOL0     C40262   8.564   5.260   4.918 -0.5682 -0.2203  0.7426
 1017MOL0     C40263   8.593   4.956   5.233  0.1375  0.6744  0.4971
 1017MOL0     C40264   8.671   4.860   5.285 -0.4215 -0.1502  0.3748
 1017MOL0     C40265   8.629   4.800   5.404  0.7981  0.1692 -0.0179
 1017MOL0     C40266   8.521   4.844   5.484  0.1550 -0.1426  0.0635
 1017MOL0     O40267   8.500   4.788   5.609 -0.8621  0.1577  0.1227
 1017MOL0     C40268   8.376   4.717   5.634 -0.7897 -0.3131 -0.2141
 1017MOL0     C40269   8.343   4.616   5.527  0.2939 -0.2555  0.6017
 1017MOL0     C40270   8.445   4.500   5.522 -0.0694  0.0766  0.9758
 1017MOL0     C40271   8.442   4.397   5.631 -0.9426 -0.2723  0.0435
 1017MOL0     C40272   8.542   4.291   5.612  0.3605  0.0236 -0.4749
 1017MOL0     C40273   8.632   4.209   5.608 -0.7082  0.1759 -0.9885
 1017MOL0     C40274   8.451   4.953   5.427 -0.2724  0.3499  0.5554
 1017MOL0     C40275   8.480   5.003   5.300 -0.5233 -0.3451 -1.2721
 1017MOL0     C40276   8.387   5.113   5.264  0.0935  0.6077  0.3688
 1017MOL0     H40277   8.612   4.949   4.796  0.8799  0.1090  0.9850
 1017MOL0     H40278   8.671   5.083   4.593  2.2246  2.3072 -0.1853
 1017MOL0     H40279   8.764   5.519   4.493  1.3571 -0.8559  0.2154
 1017MOL0     H40280   8.707   5.540   4.659  0.9474 -2.2728  0.9521
 1017MOL0     H40281   8.575   5.619   4.453  1.9800 -0.2249 -1.0404
 1017MOL0     H40282   8.506   5.447   4.455  1.6724  0.8094 -1.8768
 1017MOL0     H40283   8.406   5.471   4.638  1.9017 -0.6315 -0.8111
 1017MOL0     H40284   8.491   5.608   4.711 -1.4514  2.3393  0.5813
 1017MOL0     H40285   8.383   5.762   4.528  2.2668 -0.0461  0.5009
 1017MOL0     H40286   8.275   5.616   4.499 -0.1375  1.3395 -0.0194
 1017MOL0     H40287   8.300   5.778   4.738 -0.1263 -0.7486  0.3218
 1017MOL0     H40288   8.233   5.610   4.740  1.2768  0.2111  1.3571
 1017MOL0     H40289   8.144   5.858   4.573  1.7443 -1.4924 -1.5365
 1017MOL0     H40290   8.038   5.717   4.598 -1.4593  2.0356  0.3282
 1017MOL0     H40291   8.127   5.822   4.857  0.8153 -0.9288 -0.1587
 1017MOL0     H40292   7.980   5.730   4.805  2.1436 -0.5066  1.8819
 1017MOL0     H40293   8.049   6.017   4.732 -1.5709  0.3680  1.4987
 1017MOL0     H40294   7.896   5.936   4.685 -0.5791 -2.4573  1.1001
 1017MOL0     H40295   7.805   5.783   4.928  0.8841 -0.5595 -1.4285
 1017MOL0     H40296   7.778   5.944   5.278  2.0671  2.4530 -2.0981
 1017MOL0     H40297   7.726   5.798   5.202 -2.2522 -0.2415 -0.1465
 1017MOL0     H40298   7.558   6.032   5.125 -1.5191 -0.7577 -2.0201
 1017MOL0     H40299   7.521   5.863   5.125 -0.4472 -1.3205  1.2268
 1017MOL0     H40300   7.386   5.972   5.281  0.0636  0.6019 -0.9316
 1017MOL0     H40301   7.490   5.851   5.356  0.1689 -1.7607 -2.0548
 1017MOL0     H40302   7.565   6.013   5.508  2.8807 -0.3474 -0.8913
 1017MOL0     H40303   7.634   6.104   5.365  0.4385 -0.3869 -3.0267
 1017MOL0     H40304   7.305   6.370   5.467 -1.0962  1.7672  0.9293
 1017MOL0     H40305   7.219   6.566   5.535  0.0199  1.2812 -3.3994
 1017MOL0     H40306   7.349   6.649   5.459  1.5788  0.0179 -0.1874
 1017MOL0     H40307   7.305   6.679   5.639  0.9736 -0.6103  0.6315
 1017MOL0     H40308   7.932   6.784   5.704 -0.3552 -1.2225 -0.1381
 1017MOL0     H40309   8.010   6.981   5.795  0.7613  0.4228  1.7775
 1017MOL0     H40310   8.066   7.092   6.163 -0.9615  0.3748 -0.5190
 1017MOL0     H40311   8.118   6.998   6.024 -0.3935 -0.5815  0.2138
 1017MOL0     H40312   8.076   7.296   6.010 -0.3102 -0.5148 -0.5552
 1017MOL0     H40313   8.245   7.219   6.043  1.2280 -2.1762 -0.9252
 1017MOL0     H40314   8.082   7.240   5.788 -0.1168  2.9820  2.0656
 1017MOL0     H40315   8.220   7.118   5.819  0.4822 -1.4887  4.4170
 1017MOL0     H40316   8.230   7.410   5.838 -1.5623 -1.2761  0.7625
 1017MOL0     H40317   8.268   7.315   5.684  2.7163  0.8626 -0.4256
 1017MOL0     H40318   8.414   7.283   5.952  2.3713 -1.8495 -0.2822
 1017MOL0     H40319   8.439   7.179   5.815  0.3565  0.1934  0.6953
 1017MOL0     H40320   8.476   7.477   5.826  1.9817 -0.7664  1.1665
 1017MOL0     H40321   8.494   7.386   5.670 -0.4306  0.7060  0.2409
 1017MOL0     H40322   8.685   7.250   5.744 -0.3704  0.0403 -1.5195
 1017MOL0     H40323   8.666   7.314   5.905  1.1554  0.6134 -0.5529
 1017MOL0     H40324   8.713   7.551   5.786 -1.7047 -0.4705 -2.6389
 1017MOL0     H40325   8.754   7.449   5.656 -0.1496  0.5443  0.0482
 1017MOL0     H40326   7.729   6.980   6.100 -0.8442 -0.5365 -1.1716
 1017MOL0     H40327   7.607   6.784   5.994 -0.9355  0.0140 -1.4045
 1017MOL0     H40328   7.709   6.379   5.736 -0.4096 -2.5516  0.5425
 1017MOL0     H40329   7.664   6.184   5.624  0.6895 -0.7817 -4.2612
 1017MOL0     H40330   8.619   5.439   4.838  1.0142 -0.6753  1.0828
 1017MOL0     H40331   8.535   5.324   5.001  0.3129  2.6912 -1.0165
 1017MOL0     H40332   8.778   4.854   5.264  0.4626  0.5275  3.9073
 1017MOL0     H40333   8.700   4.737   5.456  2.1205 -0.1310 -2.0786
 1017MOL0     H40334   8.382   4.663   5.728  0.1960  1.1561  0.6147
 1017MOL0     H40335   8.295   4.791   5.638 -1.5184 -1.0703 -0.6836
 1017MOL0     H40336   8.329   4.654   5.425 -1.8602 -0.1675  0.8848
 1017MOL0     H40337   8.249   4.576   5.564  0.8495 -0.8351  1.4282
 1017MOL0     H40338   8.431   4.462   5.420  0.2557  0.0266  0.9473
 1017MOL0     H40339   8.542   4.550   5.530  0.0358  0.0614  0.0162
 1017MOL0     H40340   8.345   4.348   5.643 -0.6831 -0.7677  0.1401
 1017MOL0     H40341   8.470   4.448   5.724  1.9813  1.2501 -1.4981
 1017MOL0     H40342   8.709   4.134   5.608 -1.1727 -0.3472  1.1072
 1017MOL0     H40343   8.373   4.995   5.489 -0.5945  0.6491 -0.0519
 1017MOL0     H40344   8.423   5.203   5.213 -3.9367  1.2288 -1.7618
 1017MOL0     H40345   8.314   5.066   5.198  2.5840  0.1762 -2.2322
 1017MOL0     H40346   8.339   5.154   5.354  1.0972  1.6656  0.4497
 1018MOL0     O40347   3.671   4.848   7.715 -0.0233 -0.5993  0.4686
 1018MOL0     C40348   3.635   4.865   7.599 -0.0257  0.2042  0.2371
 1018MOL0     O40349   3.716   4.861   7.479 -0.9530  0.0890 -0.3991
 1018MOL0     C40350   3.844   4.831   7.488  0.0027 -0.3818  0.1570
 1018MOL0     C40351   3.905   4.758   7.387 -0.6616  0.1523  0.2425
 1018MOL0     C40352   4.050   4.747   7.368 -0.3591  0.4039  0.2976
 1018MOL0     C40353   4.137   4.808   7.455 -0.4082 -0.4798 -0.0102
 1018MOL0     O40354   4.272   4.809   7.424 -0.1229 -0.7927 -0.3461
 1018MOL0     C40355   4.359   4.866   7.531  0.6587  0.9197  0.6099
 1018MOL0     C40356   4.503   4.823   7.532 -0.5143 -0.6412 -0.1396
 1018MOL0     C40357   4.526   4.667   7.561  0.1328  0.2836 -0.2434
 1018MOL0     C40358   4.679   4.643   7.569 -0.0943 -0.7075  0.5351
 1018MOL0     C40359   4.706   4.498   7.547  0.1257 -0.0168 -0.8062
 1018MOL0     C40360   4.847   4.491   7.477 -0.9724  0.3158  0.0833
 1018MOL0     C40361   4.903   4.344   7.473 -0.6985 -0.1016  0.0950
 1018MOL0     C40362   4.920   4.293   7.624 -0.0306 -0.1726  0.2615
 1018MOL0     N40363   5.025   4.190   7.629 -0.5853  0.1508  0.4129
 1018MOL0     C40364   5.158   4.207   7.595  0.0216  0.5259 -0.8025
 1018MOL0     C40365   5.200   4.081   7.572 -0.4613 -0.9971  0.1203
 1018MOL0     C40366   5.340   4.048   7.522 -0.1456  0.5906 -0.7383
 1018MOL0     C40367   5.423   3.987   7.641 -0.4642 -0.2094  0.3890
 1018MOL0     C40368   5.496   4.091   7.729  0.8297  0.2349 -0.9254
 1018MOL0     C40369   5.630   4.041   7.788  0.1694  0.4809  0.3928
 1018MOL0     O40370   5.608   3.919   7.861 -0.5031  0.1107  0.2649
 1018MOL0     C40371   5.718   3.859   7.921  0.3471  0.0902 -0.0960
 1018MOL0     C40372   5.838   3.923   7.947 -0.3714  0.7204  0.1848
 1018MOL0     C40373   5.958   3.850   7.979 -0.2652  0.4186 -0.4688
 1018MOL0     C40374   6.082   3.928   7.983 -0.7880 -0.2152  0.1316
 1018MOL0     C40375   5.949   3.707   8.002 -0.0135  0.7022 -0.9607
 1018MOL0     C40376   6.062   3.620   8.056 -0.4865 -0.2364  0.0179
 1018MOL0     O40377   6.028   3.499   8.095  0.3865 -0.2961 -0.0297
 1018MOL0     C40378   6.129   3.424   8.156 -0.4387  0.5882 -0.5217
 1018MOL0     C40379   6.202   3.469   8.260  0.0283 -1.1467 -0.0156
 1018MOL0     C40380   6.312   3.398   8.312 -0.3358 -0.9329 -0.5288
 1018MOL0     C40381   6.341   3.270   8.264 -0.3280  0.6701 -0.0635
 1018MOL0     O40382   6.442   3.194   8.321 -0.4099 -0.3931  0.5492
 1018MOL0     C40383   6.490   3.077   8.266  0.3769 -0.1751 -0.8916
 1018MOL0     C40384   6.589   3.013   8.367  0.8408 -0.1614  0.2812
 1018MOL0     C40385   6.729   3.072   8.366 -0.1686  0.6076  0.2976
 1018MOL0     C40386   6.833   2.990   8.449 -0.3010 -0.3174  0.4383
 1018MOL0     C40387   6.811   2.996   8.602  0.6421 -0.2450 -0.3941
 1018MOL0     C40388   6.901   2.894   8.677  0.5215 -0.1896  0.8743
 1018MOL0     C40389   7.044   2.936   8.710 -0.2461  0.4461  0.3960
 1018MOL0     C40390   7.065   3.028   8.826 -0.1247  0.0412  0.2031
 1018MOL0    Cl40391   7.077   2.940   8.982  0.2549  0.4211  0.0689
 1018MOL0     C40392   6.265   3.221   8.152  0.3986 -0.3664 -0.2599
 1018MOL0     C40393   6.162   3.306   8.098 -0.2441  0.1497  0.2716
 1018MOL0     O40394   6.177   3.659   8.042  0.0094 -0.6383  0.3983
 1018MOL0     C40395   5.826   3.642   7.999  0.1433 -0.2211 -0.0825
 1018MOL0     C40396   5.713   3.722   7.958  0.4463  0.1014  0.6850
 1018MOL0     N40397   5.101   3.988   7.586  0.1553 -0.4986 -0.2896
 1018MOL0     N40398   4.994   4.053   7.618  0.1890 -0.2408 -0.3558
 1018MOL0     C40399   4.075   4.893   7.550  0.4793 -0.3387  0.1856
 1018MOL0     C40400   3.938   4.903   7.568 -0.5832  0.3257  0.4988
 1018MOL0     C40401   3.494   4.898   7.574 -0.3160  0.2551 -0.4630
 1018MOL0     C40402   3.460   4.994   7.487 -0.2920 -0.6771 -0.1527
 1018MOL0     C40403   3.328   5.039   7.475 -0.1889 -0.1144  0.6577
 1018MOL0     C40404   3.219   4.970   7.526 -0.3750 -0.7004  0.1434
 1018MOL0     O40405   3.089   5.004   7.486  0.0598  0.1964 -0.1910
 1018MOL0     C40406   2.981   4.909   7.510  0.2577  0.0698 -0.0519
 1018MOL0     C40407   2.864   4.956   7.439  0.3697 -0.0294  0.7883
 1018MOL0     C40408   2.757   4.852   7.430 -0.6295 -0.0942  0.3063
 1018MOL0     C40409   2.628   4.914   7.378 -0.0886 -0.0106 -0.1047
 1018MOL0     C40410   2.518   4.816   7.378  0.3796  0.4084  0.5685
 1018MOL0     C40411   2.412   4.745   7.381  0.9451 -0.6558  0.6135
 1018MOL0     C40412   3.252   4.871   7.619  0.5423  0.5076  0.9197
 1018MOL0     C40413   3.390   4.835   7.643 -0.4791 -0.4435 -0.7948
 1018MOL0     C40414   3.412   4.727   7.748  0.5884 -0.8493 -0.1453
 1018MOL0     H40415   3.841   4.706   7.316  0.2589  0.3844 -0.7722
 1018MOL0     H40416   4.088   4.684   7.288 -1.1635  1.1872 -0.7257
 1018MOL0     H40417   4.317   4.831   7.626 -0.2147 -4.8453 -1.5000
 1018MOL0     H40418   4.358   4.974   7.519  0.5914  0.7810 -0.7435
 1018MOL0     H40419   4.542   4.854   7.435  1.5670 -1.4526  0.3931
 1018MOL0     H40420   4.564   4.877   7.605  0.2414 -2.0175  0.2989
 1018MOL0     H40421   4.474   4.639   7.653 -1.3843 -1.9959 -1.6946
 1018MOL0     H40422   4.481   4.618   7.474  2.2519  1.4751 -2.1273
 1018MOL0     H40423   4.739   4.692   7.492 -0.8066 -1.1301 -0.3100
 1018MOL0     H40424   4.705   4.686   7.666 -1.2691  1.6880 -0.1222
 1018MOL0     H40425   4.625   4.457   7.486  0.3282  1.6293 -2.2801
 1018MOL0     H40426   4.700   4.462   7.650  1.8766 -1.5063 -1.1635
 1018MOL0     H40427   4.841   4.516   7.371 -1.6431 -0.9400 -0.1933
 1018MOL0     H40428   4.908   4.555   7.542 -1.4398 -0.9597  1.8626
 1018MOL0     H40429   5.005   4.357   7.435 -1.0473  1.6220 -0.3242
 1018MOL0     H40430   4.848   4.277   7.407  0.6666  0.3981 -1.6050
 1018MOL0     H40431   4.951   4.376   7.687 -0.1905 -0.7288  1.0826
 1018MOL0     H40432   4.839   4.233   7.666  0.7562 -1.2510  0.2922
 1018MOL0     H40433   5.216   4.299   7.600  3.2812 -1.4270  1.4055
 1018MOL0     H40434   5.397   4.137   7.493  2.9574 -0.4834  1.5058
 1018MOL0     H40435   5.341   3.977   7.439  0.5139 -1.4521  0.9336
 1018MOL0     H40436   5.347   3.941   7.704 -1.9296  1.7523  0.1717
 1018MOL0     H40437   5.485   3.908   7.598 -2.2721 -0.1046 -2.6860
 1018MOL0     H40438   5.507   4.184   7.673 -2.4967  1.7965  0.6981
 1018MOL0     H40439   5.439   4.117   7.819  1.1248 -2.0353 -0.0009
 1018MOL0     H40440   5.696   4.017   7.704  0.3885  0.7862  0.4763
 1018MOL0     H40441   5.682   4.116   7.849  0.5758 -1.8448  3.1134
 1018MOL0     H40442   5.856   4.029   7.935  6.8922  0.1719  1.2561
 1018MOL0     H40443   6.162   3.898   7.914  1.1652 -1.2270  2.6531
 1018MOL0     H40444   6.130   3.924   8.081 -2.1874  3.5363  1.1127
 1018MOL0     H40445   6.066   4.035   7.971 -0.7095 -0.2755 -0.5515
 1018MOL0     H40446   6.177   3.569   8.291 -1.7490 -1.3361 -0.7328
 1018MOL0     H40447   6.377   3.443   8.387  2.6316 -2.1275 -2.1928
 1018MOL0     H40448   6.413   3.002   8.243 -0.0249 -0.2648  0.6458
 1018MOL0     H40449   6.537   3.093   8.168  1.5995 -2.0448 -0.6556
 1018MOL0     H40450   6.551   3.024   8.469 -2.5414 -0.2492 -0.8291
 1018MOL0     H40451   6.589   2.906   8.348 -2.1319  0.0673 -1.7333
 1018MOL0     H40452   6.722   3.177   8.393  1.6959  0.9495 -0.3842
 1018MOL0     H40453   6.766   3.078   8.263  0.0368  3.9119  0.4515
 1018MOL0     H40454   6.935   3.027   8.431 -0.6074  1.7778  2.5560
 1018MOL0     H40455   6.836   2.886   8.416  1.6663 -0.4486  0.8885
 1018MOL0     H40456   6.816   3.098   8.641 -1.8050 -0.0906 -0.3248
 1018MOL0     H40457   6.712   2.953   8.624 -0.1136  0.2418 -2.6537
 1018MOL0     H40458   6.903   2.806   8.612  0.6385  0.9935 -0.7582
 1018MOL0     H40459   6.854   2.865   8.771 -3.0081  2.9998  0.3234
 1018MOL0     H40460   7.085   2.981   8.620 -0.7448 -1.6295 -0.9522
 1018MOL0     H40461   7.105   2.845   8.717  1.4405  1.3451 -1.7527
 1018MOL0     H40462   6.981   3.098   8.836  1.0082  1.2892  1.3551
 1018MOL0     H40463   7.157   3.085   8.811 -1.3614  2.2946  0.6851
 1018MOL0     H40464   6.290   3.133   8.095  1.3632 -0.0965 -0.2684
 1018MOL0     H40465   6.115   3.277   8.005 -0.7405 -0.4878  0.7153
 1018MOL0     H40466   5.806   3.537   8.013 -1.6506  0.2939  1.8814
 1018MOL0     H40467   5.615   3.677   7.946  1.1470 -0.9356 -1.6346
 1018MOL0     H40468   4.132   4.964   7.609 -0.5453 -0.1089  0.9379
 1018MOL0     H40469   3.907   4.965   7.652 -0.7433  0.8219  0.0728
 1018MOL0     H40470   3.544   5.053   7.452  0.5885 -3.6852 -3.6754
 1018MOL0     H40471   3.311   5.134   7.426  2.2589  0.9617  1.7355
 1018MOL0     H40472   3.018   4.815   7.469  3.0876  0.3896  1.5462
 1018MOL0     H40473   2.956   4.901   7.616 -1.5169  1.4685 -0.3141
 1018MOL0     H40474   2.891   4.985   7.337 -2.2854  1.0607  0.3077
 1018MOL0     H40475   2.828   5.046   7.490  0.0617  1.2061 -1.4821
 1018MOL0     H40476   2.776   4.759   7.376 -1.6797 -0.9850  1.4189
 1018MOL0     H40477   2.733   4.823   7.533 -2.6191 -0.7842 -0.3102
 1018MOL0     H40478   2.641   4.929   7.270 -1.3950 -0.3599 -0.3299
 1018MOL0     H40479   2.604   5.008   7.428  0.4808 -1.8188  3.9507
 1018MOL0     H40480   2.334   4.674   7.399 -0.0039  0.1919 -0.0943
 1018MOL0     H40481   3.174   4.819   7.674 -0.3609 -2.2414 -2.6415
 1018MOL0     H40482   3.481   4.654   7.705  1.2713  0.3600 -1.1811
 1018MOL0     H40483   3.453   4.765   7.843  1.7731 -0.4433 -0.7987
 1018MOL0     H40484   3.313   4.689   7.774  0.6882 -1.4349 -0.5986
 1019MOL0     O40485   1.975   9.089   2.794 -0.9275  0.4930 -0.3870
 1019MOL0     C40486   1.983   9.068   2.917 -0.0135 -0.3037 -0.2944
 1019MOL0     O40487   2.082   9.103   2.995 -0.1765  0.0776 -0.2469
 1019MOL0     C40488   2.168   9.195   2.944 -0.6869  0.2049 -0.5232
 1019MOL0     C40489   2.123   9.321   2.885  0.1996 -0.7171 -0.6748
 1019MOL0     C40490   2.209   9.419   2.841 -0.0563 -0.7256 -1.2632
 1019MOL0     C40491   2.346   9.386   2.834 -0.1958 -0.3443  0.1817
 1019MOL0     O40492   2.440   9.456   2.761 -0.5146 -0.1729 -0.7156
 1019MOL0     C40493   2.407   9.592   2.724  0.3985  0.6402  0.9644
 1019MOL0     C40494   2.529   9.668   2.691 -0.5634  0.2135 -0.5027
 1019MOL0     C40495   2.574   9.710   2.830  0.2813  0.0535  0.6869
 1019MOL0     C40496   2.710   9.779   2.814  0.5432 -0.4072 -0.6906
 1019MOL0     C40497   2.763   9.851   2.944  0.2506 -0.0397  0.3028
 1019MOL0     C40498   2.881   9.950   2.911  0.0288  0.9609 -0.7717
 1019MOL0     C40499   2.951  10.006   3.043  0.4005  0.8617  0.2087
 1019MOL0     C40500   2.863  10.096   3.129 -0.8097 -0.4073 -0.2510
 1019MOL0     N40501   2.919  10.225   3.175 -0.0891 -0.1334  0.2864
 1019MOL0     C40502   3.027  10.288   3.117  0.0496  0.3552 -0.7125
 1019MOL0     C40503   3.063  10.384   3.202 -0.8383 -0.2630  0.5389
 1019MOL0     C40504   3.178  10.462   3.176 -0.2582  0.1509  0.2340
 1019MOL0     C40505   3.314  10.405   3.227  0.9311  0.5388  0.5348
 1019MOL0     C40506   3.428  10.512   3.223 -0.6747 -0.3251  0.4685
 1019MOL0     C40507   3.569  10.452   3.255 -0.3012 -0.2594 -0.2120
 1019MOL0     O40508   3.665  10.557   3.234 -0.1059  0.7764  0.4466
 1019MOL0     C40509   3.796  10.530   3.203 -0.3398 -0.3321 -0.3542
 1019MOL0     C40510   3.855  10.412   3.223 -0.1992  0.0892  0.2492
 1019MOL0     C40511   4.001  10.402   3.189  0.5059  0.3623 -0.7505
 1019MOL0     C40512   4.070  10.265   3.220 -0.5336 -0.5279  0.6333
 1019MOL0     C40513   4.075  10.516   3.154 -0.3176  0.4000  0.1434
 1019MOL0     C40514   4.219  10.504   3.125 -0.0852  0.9647 -0.6024
 1019MOL0     O40515   4.297  10.604   3.167  0.1668 -0.5086 -0.5427
 1019MOL0     C40516   4.430  10.602   3.160 -0.2643 -1.2786 -0.9194
 1019MOL0     C40517   4.480  10.644   3.040 -0.0999  0.1558 -0.1039
 1019MOL0     C40518   4.617  10.648   3.014 -1.1140 -0.1826 -0.1915
 1019MOL0     C40519   4.709  10.600   3.114  0.0466 -0.3937 -0.2657
 1019MOL0     O40520   4.847  10.598   3.100 -0.5590 -0.0337 -0.1542
 1019MOL0     C40521   4.911  10.644   2.976  0.4699 -0.8280  0.0939
 1019MOL0     C40522   5.063  10.639   2.987 -0.5972  0.4578  0.5484
 1019MOL0     C40523   5.111  10.503   3.047 -0.3559  0.1135  0.3781
 1019MOL0     C40524   5.253  10.468   3.018 -0.6758  0.0229 -1.0113
 1019MOL0     C40525   5.301  10.329   3.065  0.7946 -0.2772  0.1945
 1019MOL0     C40526   5.447  10.316   3.022  0.0386 -0.4184  0.2771
 1019MOL0     C40527   5.505  10.194   3.104  0.3964 -0.2571  0.9657
 1019MOL0     C40528   5.653  10.179   3.064  0.3579 -0.2787 -0.7811
 1019MOL0    Cl40529   5.732  10.041   3.149  0.1703 -0.6403 -0.2804
 1019MOL0     C40530   4.656  10.556   3.236  0.4487  0.7995 -0.6518
 1019MOL0     C40531   4.516  10.555   3.261  0.5480 -0.8933  0.6803
 1019MOL0     O40532   4.257  10.404   3.052  0.5952 -0.1050  0.3876
 1019MOL0     C40533   4.003  10.637   3.132 -0.2079 -0.0996 -0.6633
 1019MOL0     C40534   3.867  10.641   3.154 -0.0751  0.5109  0.2488
 1019MOL0     N40535   2.985  10.376   3.315 -1.2487 -0.5795  0.2759
 1019MOL0     N40536   2.905  10.284   3.298 -0.0004  0.0148  0.3661
 1019MOL0     C40537   2.396   9.268   2.894 -0.2701 -0.5714  0.0503
 1019MOL0     C40538   2.307   9.180   2.956 -1.0653  0.6250 -0.4650
 1019MOL0     C40539   1.871   8.994   2.979 -0.2688  0.2285  0.6352
 1019MOL0     C40540   1.881   8.955   3.119  0.1273 -0.1005  0.4001
 1019MOL0     C40541   1.769   8.899   3.179  0.6606  1.0680  0.1136
 1019MOL0     C40542   1.653   8.866   3.109 -0.1280 -0.3996  0.0792
 1019MOL0     O40543   1.546   8.814   3.178  0.2053  0.2562  0.1070
 1019MOL0     C40544   1.413   8.854   3.138 -0.2875 -0.4632 -0.6081
 1019MOL0     C40545   1.343   8.754   3.054 -0.1518  0.7176 -0.0642
 1019MOL0     C40546   1.299   8.621   3.137 -0.5992  0.1826  0.3032
 1019MOL0     C40547   1.215   8.523   3.058  0.2547 -0.2887 -0.9466
 1019MOL0     C40548   1.085   8.581   3.031 -0.8436  0.4052 -0.3552
 1019MOL0     C40549   0.976   8.629   3.013  1.0747  0.6346 -0.3541
 1019MOL0     C40550   1.642   8.913   2.978  0.3221  0.2329  0.3798
 1019MOL0     C40551   1.744   8.977   2.911 -0.3341  0.2694  0.0594
 1019MOL0     C40552   1.717   9.006   2.768  0.0415  0.2810  0.2218
 1019MOL0     H40553   2.018   9.348   2.887  0.0101 -1.2538  2.6461
 1019MOL0     H40554   2.176   9.516   2.805  3.0400  1.5399  1.4341
 1019MOL0     H40555   2.351   9.638   2.805 -0.0248  2.1988 -0.1702
 1019MOL0     H40556   2.350   9.577   2.632  1.2820 -3.4358  0.8599
 1019MOL0     H40557   2.599   9.606   2.633 -0.6723 -1.0015  0.6174
 1019MOL0     H40558   2.505   9.755   2.629 -0.4268  0.5280 -0.1092
 1019MOL0     H40559   2.499   9.777   2.873 -0.9378  0.8939 -2.4703
 1019MOL0     H40560   2.587   9.625   2.898  1.7642  1.7256  2.6195
 1019MOL0     H40561   2.789   9.712   2.779  0.2770  0.2385 -2.6508
 1019MOL0     H40562   2.693   9.857   2.739 -1.4060 -1.0067 -0.9356
 1019MOL0     H40563   2.801   9.768   3.004  1.3129 -0.0900 -0.4098
 1019MOL0     H40564   2.684   9.894   3.006  1.8614 -0.9807  3.2036
 1019MOL0     H40565   2.966   9.897   2.867  0.7656  0.5021  1.0958
 1019MOL0     H40566   2.844  10.032   2.848 -0.0654  1.0960 -0.5400
 1019MOL0     H40567   3.036  10.063   3.005  1.3487 -0.3442  0.4466
 1019MOL0     H40568   2.990   9.929   3.110 -2.6182  1.2523  2.6454
 1019MOL0     H40569   2.783  10.130   3.061  0.7442  0.2881 -1.8153
 1019MOL0     H40570   2.823  10.033   3.209  2.6466 -3.1047 -0.4002
 1019MOL0     H40571   3.064  10.270   3.016  0.4803 -2.9277 -0.0831
 1019MOL0     H40572   3.156  10.563   3.211 -0.0357  1.1913 -2.4481
 1019MOL0     H40573   3.197  10.484   3.071 -0.6850 -1.9176 -0.3295
 1019MOL0     H40574   3.302  10.371   3.330  2.9206  0.9033  0.9304
 1019MOL0     H40575   3.339  10.317   3.166 -1.4162  0.0747  0.1312
 1019MOL0     H40576   3.427  10.559   3.124  4.1363 -1.3087 -0.2596
 1019MOL0     H40577   3.399  10.592   3.292  0.4323  1.5864 -1.1974
 1019MOL0     H40578   3.570  10.416   3.358 -2.2576 -1.3313 -0.5082
 1019MOL0     H40579   3.578  10.359   3.198  0.3829 -0.4910  0.2664
 1019MOL0     H40580   3.799  10.327   3.260 -0.4812  0.3842  0.5093
 1019MOL0     H40581   4.097  10.232   3.120 -2.0799 -1.4744  0.4942
 1019MOL0     H40582   4.005  10.193   3.270  0.3075 -1.8062 -0.0527
 1019MOL0     H40583   4.158  10.293   3.280  1.2007 -0.3414 -1.8437
 1019MOL0     H40584   4.410  10.680   2.966  2.7041  1.9924 -2.0455
 1019MOL0     H40585   4.645  10.679   2.914 -3.0873  2.1494 -0.1327
 1019MOL0     H40586   4.877  10.585   2.890  0.2066  1.1013 -1.2116
 1019MOL0     H40587   4.881  10.747   2.953  1.8927  0.0444  1.9270
 1019MOL0     H40588   5.109  10.633   2.888 -3.4087  1.2418 -0.9291
 1019MOL0     H40589   5.103  10.726   3.039 -0.4314  0.8968 -0.3098
 1019MOL0     H40590   5.039  10.433   3.003 -0.7892  0.7466  0.0724
 1019MOL0     H40591   5.100  10.511   3.156  2.7660 -0.0624  0.8087
 1019MOL0     H40592   5.318  10.544   3.062  0.4585 -1.1198 -0.6367
 1019MOL0     H40593   5.260  10.475   2.909  4.3447 -1.0990 -1.0142
 1019MOL0     H40594   5.302  10.333   3.174  1.1149 -1.7465  0.2729
 1019MOL0     H40595   5.237  10.242   3.046  1.1628 -1.1281  2.5538
 1019MOL0     H40596   5.500  10.406   3.052  0.5241 -1.3740  2.5275
 1019MOL0     H40597   5.452  10.291   2.915  1.7751  0.9189  0.0168
 1019MOL0     H40598   5.459  10.099   3.077 -1.3707  1.1024 -1.1823
 1019MOL0     H40599   5.493  10.200   3.212  3.2726 -1.7570  1.4658
 1019MOL0     H40600   5.695  10.270   3.107 -0.1440 -1.7708  3.2961
 1019MOL0     H40601   5.660  10.189   2.955 -2.7517  2.0759 -0.9239
 1019MOL0     H40602   4.736  10.526   3.304 -0.2611 -1.1229 -0.5917
 1019MOL0     H40603   4.464  10.517   3.348 -3.2210  0.4697 -0.7688
 1019MOL0     H40604   4.050  10.725   3.089 -1.7325  1.9901  1.6683
 1019MOL0     H40605   3.803  10.729   3.155  1.4582  1.6873  2.2277
 1019MOL0     H40606   2.502   9.247   2.891 -0.3523 -1.2214  1.1305
 1019MOL0     H40607   2.348   9.093   3.005  2.2522  1.8215 -0.8130
 1019MOL0     H40608   1.974   8.971   3.172  0.5387  0.1652 -0.3841
 1019MOL0     H40609   1.771   8.865   3.282 -0.2634 -1.8946 -0.7256
 1019MOL0     H40610   1.351   8.863   3.228 -0.6025  1.7165 -0.9870
 1019MOL0     H40611   1.409   8.959   3.107 -0.8938 -0.1353  0.5346
 1019MOL0     H40612   1.405   8.727   2.968  2.0490  0.6212  1.4671
 1019MOL0     H40613   1.254   8.809   3.020 -0.9078 -0.0065  0.6900
 1019MOL0     H40614   1.392   8.578   3.176 -0.8581 -0.8381 -0.1667
 1019MOL0     H40615   1.239   8.644   3.226  0.3508  3.0398  0.3196
 1019MOL0     H40616   1.194   8.438   3.122 -3.8505  0.9404 -0.3894
 1019MOL0     H40617   1.270   8.494   2.968  2.7859  2.2599 -0.3871
 1019MOL0     H40618   0.877   8.665   2.993  0.1232 -0.8845  1.3384
 1019MOL0     H40619   1.549   8.899   2.924  1.0337 -1.3570 -0.4934
 1019MOL0     H40620   1.764   8.931   2.703 -0.2496 -0.9784  1.4272
 1019MOL0     H40621   1.609   9.008   2.749 -0.2607 -0.5733  1.7071
 1019MOL0     H40622   1.753   9.104   2.738 -0.8096  0.8399  0.9953
 1020MOL0     O40623  10.316   8.904   5.233 -1.0932  0.0927  0.8677
 1020MOL0     C40624  10.217   8.978   5.238  0.2816 -0.4165 -0.8728
 1020MOL0     O40625  10.222   9.112   5.262 -0.1158 -0.1710 -0.5455
 1020MOL0     C40626  10.344   9.155   5.322 -0.1855 -0.4756 -0.2910
 1020MOL0     C40627  10.390   9.132   5.454 -0.0079 -0.5191 -0.2252
 1020MOL0     C40628  10.516   9.171   5.499  0.0194  1.0638 -0.0406
 1020MOL0     C40629  10.602   9.228   5.405 -1.0202  0.4653 -0.1371
 1020MOL0     O40630  10.737   9.259   5.439  0.0374 -0.3884 -0.0727
 1020MOL0     C40631  10.814   9.174   5.536 -1.0164  0.2554 -0.7363
 1020MOL0     C40632  10.824   9.028   5.485  0.5833  0.2446 -0.4379
 1020MOL0     C40633  10.842   9.010   5.335 -0.0854  0.0644  0.3796
 1020MOL0     C40634  10.960   9.092   5.287 -0.7575 -0.6445  1.2807
 1020MOL0     C40635  11.106   9.046   5.341 -0.2408 -0.4309  0.1152
 1020MOL0     C40636  11.232   9.108   5.275 -0.0026  0.1149  0.2175
 1020MOL0     C40637  11.357   9.033   5.307 -0.2917  0.3909 -0.4405
 1020MOL0     C40638  11.437   9.103   5.429 -0.1822  0.4946  0.5843
 1020MOL0     N40639  11.549   9.013   5.456 -0.4930  0.1280 -0.0337
 1020MOL0     C40640  11.545   8.909   5.546  0.1589 -0.4385  0.5653
 1020MOL0     C40641  11.642   8.826   5.507 -0.3453 -0.7842  0.1762
 1020MOL0     C40642  11.693   8.701   5.570  0.1231 -0.1957 -0.4878
 1020MOL0     C40643  11.816   8.727   5.652 -1.1736 -0.1547  0.7105
 1020MOL0     C40644  11.824   8.646   5.784 -0.4189 -0.0297 -0.4357
 1020MOL0     C40645  11.842   8.493   5.773 -0.0883 -0.7370 -0.3328
 1020MOL0     O40646  11.979   8.442   5.764  0.0747 -0.5537 -0.8034
 1020MOL0     C40647  12.057   8.421   5.876 -1.0183  0.0545  0.5539
 1020MOL0     C40648  12.017   8.429   6.014 -0.2211  0.4608  0.1393
 1020MOL0     C40649  12.102   8.410   6.120  0.0866  0.3493  0.4131
 1020MOL0     C40650  12.043   8.448   6.258 -0.8977  0.2298 -0.2079
 1020MOL0     C40651  12.237   8.369   6.087  0.1775  0.3620 -1.2696
 1020MOL0     C40652  12.342   8.348   6.197 -0.4084 -0.3476  0.2181
 1020MOL0     O40653  12.470   8.324   6.154 -0.3250  1.2083 -0.0544
 1020MOL0     C40654  12.565   8.313   6.258  0.5404  0.5105  0.1023
 1020MOL0     C40655  12.692   8.368   6.230  0.5864 -0.2856 -0.6920
 1020MOL0     C40656  12.793   8.362   6.327 -0.3813 -0.2615  0.0335
 1020MOL0     C40657  12.776   8.302   6.448  0.4880 -0.6417  0.6048
 1020MOL0     O40658  12.879   8.308   6.532  0.0439 -0.2624 -0.2014
 1020MOL0     C40659  12.856   8.293   6.670 -0.2375  0.6023  0.1924
 1020MOL0     C40660  12.981   8.314   6.755 -0.0455  0.1657  0.3810
 1020MOL0     C40661  13.060   8.443   6.693  0.1023  0.6216  0.2116
 1020MOL0     C40662  13.123   8.535   6.806 -0.4156 -0.0937 -0.2085
 1020MOL0     C40663  13.239   8.463   6.891  0.1236 -0.0880  0.8865
 1020MOL0     C40664  13.367   8.433   6.805 -0.0095  0.8517 -0.2146
 1020MOL0     C40665  13.411   8.543   6.709 -0.2145  0.1358  1.1224
 1020MOL0     C40666  13.537   8.509   6.631 -0.3392  0.2682  1.4786
 1020MOL0    Cl40667  13.542   8.642   6.514 -0.2856 -0.3883  0.1120
 1020MOL0     C40668  12.665   8.221   6.472 -0.4662 -0.1937 -0.3016
 1020MOL0     C40669  12.560   8.226   6.372  0.3364 -0.2090 -0.7311
 1020MOL0     O40670  12.305   8.344   6.314 -0.6944 -0.7343 -0.0561
 1020MOL0     C40671  12.281   8.353   5.956 -0.6203  0.7350  0.1990
 1020MOL0     C40672  12.190   8.382   5.852 -0.2595 -0.1989  0.0573
 1020MOL0     N40673  11.714   8.893   5.415 -0.9633 -0.1704  0.5923
 1020MOL0     N40674  11.654   9.002   5.380  0.0908  0.4247  0.3810
 1020MOL0     C40675  10.555   9.268   5.277 -0.2783  1.0013  0.7186
 1020MOL0     C40676  10.427   9.224   5.236  0.1890  0.2839 -0.1277
 1020MOL0     C40677  10.083   8.922   5.221  0.4948  1.2700  0.1314
 1020MOL0     C40678   9.988   9.016   5.185 -1.4407  0.8381  0.9094
 1020MOL0     C40679   9.855   8.985   5.184  1.0388  0.5180  0.2679
 1020MOL0     C40680   9.808   8.854   5.191 -0.0839  0.1390 -0.6949
 1020MOL0     O40681   9.677   8.835   5.161  0.0147  0.3210 -0.5669
 1020MOL0     C40682   9.604   8.723   5.217  0.4357 -0.2386  0.2993
 1020MOL0     C40683   9.594   8.733   5.369  0.1298  0.2830  0.0507
 1020MOL0     C40684   9.529   8.608   5.432 -0.0604 -0.1761  0.8184
 1020MOL0     C40685   9.428   8.651   5.546 -0.9526 -0.5350  0.2489
 1020MOL0     C40686   9.355   8.542   5.613  0.1865 -0.0868  0.0231
 1020MOL0     C40687   9.281   8.463   5.676 -0.6168 -0.3771  0.7821
 1020MOL0     C40688   9.905   8.751   5.220  0.1172 -0.0164 -0.4254
 1020MOL0     C40689  10.045   8.788   5.237  0.7883 -0.0515  0.3808
 1020MOL0     C40690  10.154   8.680   5.268  0.4244 -0.2748 -0.2216
 1020MOL0     H40691  10.323   9.088   5.527 -0.8483  1.3620  0.1763
 1020MOL0     H40692  10.562   9.149   5.595 -1.0426  1.8771  0.6814
 1020MOL0     H40693  10.776   9.178   5.639 -0.3432  1.1168 -0.5131
 1020MOL0     H40694  10.910   9.221   5.555 -0.1699 -1.0025 -1.7466
 1020MOL0     H40695  10.912   8.986   5.537  0.9763  2.7829  1.1096
 1020MOL0     H40696  10.731   8.984   5.521 -0.0715  1.1081 -1.0575
 1020MOL0     H40697  10.852   8.903   5.319  0.3145 -0.3229  2.9306
 1020MOL0     H40698  10.759   9.046   5.272  0.3821  1.2479  0.4132
 1020MOL0     H40699  10.963   9.083   5.178 -1.5980 -1.2752  1.3064
 1020MOL0     H40700  10.950   9.194   5.326 -1.1720 -0.9646  2.0280
 1020MOL0     H40701  11.099   8.938   5.326 -1.6889 -0.0937 -2.1533
 1020MOL0     H40702  11.107   9.066   5.449 -2.3493 -3.2058  0.7609
 1020MOL0     H40703  11.205   9.091   5.171 -0.8361 -0.4128  0.5070
 1020MOL0     H40704  11.251   9.215   5.287  2.5605  0.2745 -3.5136
 1020MOL0     H40705  11.426   9.035   5.222  1.0255  2.6225  0.5874
 1020MOL0     H40706  11.324   8.930   5.326 -0.8779 -0.1432 -3.7659
 1020MOL0     H40707  11.472   9.202   5.401 -1.2034  0.9360  0.8052
 1020MOL0     H40708  11.377   9.112   5.520 -0.1521  0.2888  0.6248
 1020MOL0     H40709  11.495   8.894   5.641 -0.6964  0.3591  0.2666
 1020MOL0     H40710  11.706   8.627   5.491 -0.4826  2.0172 -2.8027
 1020MOL0     H40711  11.610   8.666   5.631  0.6957 -0.3489  0.2069
 1020MOL0     H40712  11.906   8.709   5.593 -0.8366  0.2969  1.0921
 1020MOL0     H40713  11.816   8.832   5.682  0.5215  0.9990 -2.7572
 1020MOL0     H40714  11.914   8.684   5.834  0.0237  0.0753 -1.3046
 1020MOL0     H40715  11.736   8.670   5.844  0.8167  0.0297  1.4605
 1020MOL0     H40716  11.788   8.440   5.851 -0.0987 -0.1785  0.0402
 1020MOL0     H40717  11.782   8.463   5.686  0.1090  3.4085 -2.1600
 1020MOL0     H40718  11.916   8.457   6.044 -0.0707  1.1506  0.0231
 1020MOL0     H40719  12.045   8.356   6.318  0.0224  0.8023  0.6678
 1020MOL0     H40720  11.938   8.480   6.259 -0.7439  0.7468  0.6254
 1020MOL0     H40721  12.105   8.529   6.296  0.8696 -0.7868 -0.8019
 1020MOL0     H40722  12.721   8.418   6.138  3.3414 -1.2431 -0.4452
 1020MOL0     H40723  12.886   8.413   6.303  0.2471 -0.2784  2.2445
 1020MOL0     H40724  12.783   8.363   6.711 -0.1450  0.3252  0.8533
 1020MOL0     H40725  12.821   8.190   6.682 -0.9237  0.4009 -2.7492
 1020MOL0     H40726  12.948   8.346   6.855 -1.4735 -0.3053  0.0880
 1020MOL0     H40727  13.036   8.220   6.752  1.3082  0.4505  5.7672
 1020MOL0     H40728  12.992   8.498   6.626  0.9725  0.9239 -0.4374
 1020MOL0     H40729  13.142   8.403   6.633  1.2786  0.3200  1.9544
 1020MOL0     H40730  13.042   8.552   6.877 -1.3265 -1.1392 -0.9620
 1020MOL0     H40731  13.144   8.634   6.764  0.0169 -0.5094 -0.9950
 1020MOL0     H40732  13.267   8.527   6.975  0.9202 -0.0506  0.6019
 1020MOL0     H40733  13.212   8.368   6.939  3.7587 -1.8191 -0.1696
 1020MOL0     H40734  13.340   8.338   6.759  1.6991  0.3058 -0.1599
 1020MOL0     H40735  13.453   8.404   6.865 -0.4904  0.2806  0.2075
 1020MOL0     H40736  13.411   8.640   6.759  0.7215  0.2473  0.9194
 1020MOL0     H40737  13.333   8.548   6.633  0.1917 -3.6380  0.2803
 1020MOL0     H40738  13.546   8.409   6.588  0.3704  0.6843  0.6085
 1020MOL0     H40739  13.620   8.525   6.701  0.4554  3.0378  0.0886
 1020MOL0     H40740  12.654   8.170   6.567  0.0214 -0.9524 -0.6424
 1020MOL0     H40741  12.465   8.175   6.384  0.2102 -0.5297 -2.6562
 1020MOL0     H40742  12.380   8.313   5.938 -0.8961  0.1442 -0.0225
 1020MOL0     H40743  12.219   8.383   5.747 -2.0078  3.9107 -0.5907
 1020MOL0     H40744  10.619   9.325   5.210 -0.5165 -1.0381 -1.3663
 1020MOL0     H40745  10.399   9.241   5.133 -0.8470  0.9650  0.2565
 1020MOL0     H40746  10.009   9.122   5.173 -1.0794  0.7803  1.0163
 1020MOL0     H40747   9.778   9.061   5.179  0.7712  0.2457  0.2017
 1020MOL0     H40748   9.503   8.750   5.184  0.5229  0.4360  0.5759
 1020MOL0     H40749   9.639   8.630   5.171 -0.5297  0.1765 -1.3577
 1020MOL0     H40750   9.546   8.827   5.397  2.0187  0.9172  1.3750
 1020MOL0     H40751   9.686   8.738   5.429 -0.2541 -1.0605  0.7970
 1020MOL0     H40752   9.483   8.553   5.349 -0.7255 -0.3647  1.2994
 1020MOL0     H40753   9.607   8.548   5.479  2.3245  1.8488 -0.3576
 1020MOL0     H40754   9.347   8.718   5.515  0.2520  1.9282  2.0720
 1020MOL0     H40755   9.481   8.698   5.629 -4.5589  1.0748  1.8263
 1020MOL0     H40756   9.225   8.401   5.744 -0.8024 -0.1540  0.8326
 1020MOL0     H40757   9.865   8.652   5.239 -1.0941  0.6557  0.6653
 1020MOL0     H40758  10.205   8.714   5.358  2.1109 -1.6602 -0.6036
 1020MOL0     H40759  10.107   8.585   5.296 -2.7822  1.2297  0.0334
 1020MOL0     H40760  10.231   8.678   5.190  2.1042  1.4287  1.3079
 1021MOL0     O40761   8.329   0.911   1.061  0.1027 -0.1665 -0.1793
 1021MOL0     C40762   8.264   1.014   1.030  0.1266  0.2459  0.9731
 1021MOL0     O40763   8.301   1.107   0.945 -0.2513  0.0443  0.3959
 1021MOL0     C40764   8.436   1.113   0.920 -0.4999  0.0371  0.1263
 1021MOL0     C40765   8.505   1.031   0.824 -0.4470  0.9268  0.0751
 1021MOL0     C40766   8.644   1.043   0.806 -1.0818  0.7725  0.9789
 1021MOL0     C40767   8.715   1.143   0.872 -0.0667  0.4324  0.0968
 1021MOL0     O40768   8.852   1.151   0.844 -0.1153  0.3595  0.6923
 1021MOL0     C40769   8.930   1.253   0.903  0.2810 -0.1176  0.5629
 1021MOL0     C40770   9.049   1.287   0.815  0.2002 -0.1601 -0.8068
 1021MOL0     C40771   9.117   1.165   0.770  0.0411  0.6603 -0.7200
 1021MOL0     C40772   9.262   1.185   0.707  0.0125  0.6727 -0.3970
 1021MOL0     C40773   9.311   1.053   0.637  0.5014  0.0874  0.3228
 1021MOL0     C40774   9.443   1.067   0.572 -0.1558  0.4081  0.1502
 1021MOL0     C40775   9.481   0.946   0.489  1.5374 -0.0068 -0.3447
 1021MOL0     C40776   9.615   0.973   0.424  0.1767  0.6180  0.0083
 1021MOL0     N40777   9.730   0.981   0.518  0.3167  0.3766  0.0448
 1021MOL0     C40778   9.769   0.877   0.605  0.3696 -0.4499  0.2215
 1021MOL0     C40779   9.876   0.923   0.677  0.5323  0.0342  0.1057
 1021MOL0     C40780   9.922   0.851   0.796 -0.4253 -0.0906 -0.9047
 1021MOL0     C40781  10.079   0.826   0.791  1.0686  0.2663 -0.2798
 1021MOL0     C40782  10.104   0.731   0.911 -0.3670 -0.7541  0.7250
 1021MOL0     C40783  10.248   0.677   0.906 -0.0399 -0.1319  0.7256
 1021MOL0     O40784  10.341   0.784   0.940 -0.1590  0.6439  0.1792
 1021MOL0     C40785  10.476   0.758   0.905  0.0624 -0.0222 -0.4589
 1021MOL0     C40786  10.521   0.697   0.784  0.1471  0.5274  0.0969
 1021MOL0     C40787  10.655   0.678   0.754  0.0129 -0.5399  0.4482
 1021MOL0     C40788  10.703   0.601   0.632  0.0112 -0.2331  0.0639
 1021MOL0     C40789  10.750   0.735   0.845 -0.2994 -0.1885 -0.0446
 1021MOL0     C40790  10.899   0.738   0.818 -0.0837 -0.1072  0.0242
 1021MOL0     O40791  10.946   0.744   0.693  0.1532  0.1898 -0.6705
 1021MOL0     C40792  11.081   0.732   0.668  0.4738  0.0369 -0.7075
 1021MOL0     C40793  11.183   0.782   0.753  0.4600 -0.5663  0.2566
 1021MOL0     C40794  11.314   0.762   0.712 -0.2100  0.4092 -0.6311
 1021MOL0     C40795  11.342   0.709   0.588 -0.1156  0.9277 -0.3994
 1021MOL0     O40796  11.476   0.695   0.551  0.4769  0.7950  0.7531
 1021MOL0     C40797  11.521   0.564   0.531 -0.2218  0.5275 -0.1445
 1021MOL0     C40798  11.673   0.573   0.535  0.2613  0.4102 -0.4078
 1021MOL0     C40799  11.724   0.437   0.504 -0.4201 -0.2110 -0.1720
 1021MOL0     C40800  11.878   0.433   0.531  0.3577  0.1738 -0.2644
 1021MOL0     C40801  11.942   0.296   0.504 -0.2470 -0.1566  0.3290
 1021MOL0     C40802  12.100   0.306   0.488  0.0699  0.0994  0.3112
 1021MOL0     C40803  12.144   0.172   0.431 -0.2034 -0.1025 -0.0996
 1021MOL0     C40804  12.295   0.161   0.452 -0.4085  0.6714 -0.6236
 1021MOL0    Cl40805  12.339   0.005   0.395  0.4434 -0.2177  0.0887
 1021MOL0     C40806  11.237   0.649   0.514 -0.0048 -0.0980 -0.5676
 1021MOL0     C40807  11.107   0.668   0.552  0.2577  0.4943  0.6829
 1021MOL0     O40808  10.967   0.708   0.917 -0.3784  0.2062  0.2615
 1021MOL0     C40809  10.702   0.788   0.965  0.6227 -1.0293 -0.4553
 1021MOL0     C40810  10.561   0.787   0.998 -0.9361 -0.3419 -0.1951
 1021MOL0     N40811   9.910   1.053   0.629  0.6295  0.3117 -0.2131
 1021MOL0     N40812   9.817   1.093   0.543 -0.6218 -0.1214 -0.2694
 1021MOL0     C40813   8.650   1.218   0.974 -0.4427  0.0637  0.0325
 1021MOL0     C40814   8.510   1.204   1.001 -0.5320 -0.0721  0.2794
 1021MOL0     C40815   8.129   1.022   1.072 -0.4749  0.0901  0.0126
 1021MOL0     C40816   8.076   1.135   1.133 -0.0716  0.6010  0.1344
 1021MOL0     C40817   7.941   1.153   1.152  0.3382  0.0104  0.0184
 1021MOL0     C40818   7.855   1.057   1.112  0.0942 -0.8171  0.1134
 1021MOL0     O40819   7.723   1.082   1.124 -0.0889  0.4567  0.2680
 1021MOL0     C40820   7.672   1.054   1.254  0.1101  0.1561 -0.7727
 1021MOL0     C40821   7.520   1.062   1.263 -0.2234 -0.3249 -0.2017
 1021MOL0     C40822   7.455   1.187   1.191  0.1185 -0.2223 -0.0121
 1021MOL0     C40823   7.303   1.182   1.194 -0.4739  0.3516 -0.1811
 1021MOL0     C40824   7.249   1.191   1.329  0.1436 -0.3385 -0.1246
 1021MOL0     C40825   7.205   1.223   1.440  0.0644 -0.2437  0.6217
 1021MOL0     C40826   7.900   0.933   1.063 -0.3193  0.3104 -0.3205
 1021MOL0     C40827   8.041   0.914   1.038 -1.0700  0.5699 -0.2907
 1021MOL0     C40828   8.080   0.783   0.976  0.7846 -0.2189  0.2179
 1021MOL0     H40829   8.448   0.973   0.751  0.7530  3.1636 -2.8001
 1021MOL0     H40830   8.693   0.977   0.736 -2.4372 -0.6572  1.3323
 1021MOL0     H40831   8.960   1.227   1.005 -0.8980  3.8637  2.1409
 1021MOL0     H40832   8.872   1.345   0.917  0.3924 -0.0688  0.7141
 1021MOL0     H40833   9.019   1.341   0.724  0.8654  0.3508 -0.7277
 1021MOL0     H40834   9.116   1.349   0.876 -2.1739  1.3491  0.4518
 1021MOL0     H40835   9.124   1.108   0.863  1.4418  0.8192 -0.7061
 1021MOL0     H40836   9.058   1.120   0.691 -1.0057 -0.1141  0.4688
 1021MOL0     H40837   9.269   1.268   0.636 -3.0909  0.2202 -1.3674
 1021MOL0     H40838   9.329   1.217   0.787 -1.2482 -3.1419  2.5032
 1021MOL0     H40839   9.234   1.021   0.566 -1.1552 -1.1850  2.5373
 1021MOL0     H40840   9.305   0.974   0.712 -1.9540 -0.1281 -0.0151
 1021MOL0     H40841   9.436   1.157   0.511 -0.3858  1.1087  1.1840
 1021MOL0     H40842   9.524   1.078   0.645 -1.1816 -2.8485  1.9835
 1021MOL0     H40843   9.410   0.925   0.409  2.4777  0.6867 -1.3816
 1021MOL0     H40844   9.493   0.856   0.550 -2.9412 -0.5578  0.0963
 1021MOL0     H40845   9.620   0.892   0.351 -1.3681  0.5278 -0.0376
 1021MOL0     H40846   9.611   1.069   0.372  0.6343 -0.1876 -1.5829
 1021MOL0     H40847   9.715   0.789   0.640  1.6901 -0.6502  1.8461
 1021MOL0     H40848   9.860   0.762   0.807 -1.4597  0.9421  3.8406
 1021MOL0     H40849   9.902   0.908   0.887  0.9038  0.1908 -0.7669
 1021MOL0     H40850  10.109   0.781   0.695  4.5861  1.1236  0.2677
 1021MOL0     H40851  10.128   0.923   0.797 -0.9305  1.2299  2.8377
 1021MOL0     H40852  10.103   0.779   1.009  0.8388 -1.0541  0.8972
 1021MOL0     H40853  10.035   0.646   0.906 -1.3164 -0.0242  1.0113
 1021MOL0     H40854  10.254   0.591   0.973 -3.2068 -0.8329  0.2948
 1021MOL0     H40855  10.267   0.650   0.802 -0.3324  0.3384  0.5469
 1021MOL0     H40856  10.447   0.667   0.711 -1.4811  2.1982  0.9714
 1021MOL0     H40857  10.710   0.681   0.557  0.5782  0.7565  1.1501
 1021MOL0     H40858  10.635   0.523   0.596 -0.4861  0.5173 -0.6575
 1021MOL0     H40859  10.801   0.555   0.648 -1.1137 -2.3529  1.3444
 1021MOL0     H40860  11.156   0.829   0.847  0.1794 -0.3905  0.0904
 1021MOL0     H40861  11.399   0.787   0.774 -0.2942  4.0249 -1.7180
 1021MOL0     H40862  11.489   0.489   0.604  0.7271  0.1086 -0.1410
 1021MOL0     H40863  11.478   0.523   0.439 -0.7902  1.9135 -0.5206
 1021MOL0     H40864  11.705   0.648   0.462  0.5883 -0.3099 -1.0112
 1021MOL0     H40865  11.706   0.612   0.632 -3.1086  1.7188  0.3846
 1021MOL0     H40866  11.705   0.415   0.398 -0.5038  0.8119 -0.3792
 1021MOL0     H40867  11.683   0.365   0.576 -2.8662  0.8385 -0.4027
 1021MOL0     H40868  11.895   0.457   0.637 -1.6183 -0.8879  0.3462
 1021MOL0     H40869  11.927   0.509   0.470  1.0784  0.5878  0.8057
 1021MOL0     H40870  11.898   0.233   0.581  1.1143 -0.9082  0.5308
 1021MOL0     H40871  11.901   0.262   0.408  0.1487 -0.6728  0.3351
 1021MOL0     H40872  12.145   0.336   0.584 -0.1428  1.2681  0.0680
 1021MOL0     H40873  12.126   0.380   0.412 -1.4467  2.0586  1.5912
 1021MOL0     H40874  12.122   0.165   0.324  0.0947 -1.1073 -0.1096
 1021MOL0     H40875  12.091   0.087   0.475 -1.3731 -0.6326 -2.3971
 1021MOL0     H40876  12.325   0.164   0.558  2.3192  3.5137 -1.3211
 1021MOL0     H40877  12.356   0.238   0.404  2.4425 -1.3462 -0.4843
 1021MOL0     H40878  11.253   0.585   0.428 -0.0952 -2.4250  1.0533
 1021MOL0     H40879  11.030   0.625   0.488  1.4237 -1.0653  0.2900
 1021MOL0     H40880  10.773   0.831   1.035 -0.1231  0.2114 -0.4374
 1021MOL0     H40881  10.521   0.833   1.088 -1.9125  1.5978 -1.5732
 1021MOL0     H40882   8.710   1.285   1.035  2.9637 -1.8713 -0.9117
 1021MOL0     H40883   8.483   1.250   1.095  1.7830  0.8480  0.5508
 1021MOL0     H40884   8.143   1.210   1.173 -1.0419  0.9820  1.0907
 1021MOL0     H40885   7.896   1.237   1.203 -0.1516 -1.7368  2.6113
 1021MOL0     H40886   7.698   0.950   1.275  1.2129  0.2507 -1.5273
 1021MOL0     H40887   7.711   1.121   1.331 -2.1733  1.3279 -0.5753
 1021MOL0     H40888   7.492   1.066   1.368 -1.4948 -2.8474 -0.3623
 1021MOL0     H40889   7.473   0.972   1.221 -0.7681  0.8607 -2.3307
 1021MOL0     H40890   7.483   1.274   1.251 -1.4739 -1.5430  2.8783
 1021MOL0     H40891   7.497   1.208   1.093 -1.5623  0.2603 -0.6550
 1021MOL0     H40892   7.265   1.086   1.156  0.1461 -0.2023  0.5663
 1021MOL0     H40893   7.256   1.251   1.123 -0.7427 -0.5787 -0.9382
 1021MOL0     H40894   7.163   1.263   1.530 -1.4725 -0.4266  0.0201
 1021MOL0     H40895   7.829   0.859   1.026 -0.2996 -1.5344  2.9451
 1021MOL0     H40896   7.991   0.721   0.960  0.0198  0.7987  0.3680
 1021MOL0     H40897   8.112   0.793   0.872 -1.5010  0.4559 -0.4920
 1021MOL0     H40898   8.155   0.733   1.038 -0.9487  0.1854  2.8006
 1022MOL0     O40899   6.560   4.744   6.412  0.2371  0.5371  0.8312
 1022MOL0     C40900   6.628   4.824   6.468  0.2670 -0.6548 -0.3813
 1022MOL0     O40901   6.760   4.857   6.456 -0.1991  0.4314 -0.3864
 1022MOL0     C40902   6.846   4.803   6.368 -0.1152  0.1442  0.6294
 1022MOL0     C40903   6.811   4.727   6.259  0.2201 -0.3326 -0.1427
 1022MOL0     C40904   6.905   4.679   6.168  0.7564  0.0693 -0.3014
 1022MOL0     C40905   7.038   4.721   6.174 -0.2378 -0.6848 -0.0360
 1022MOL0     O40906   7.138   4.683   6.093  0.6887  0.1587  0.0945
 1022MOL0     C40907   7.104   4.647   5.954  0.8070  0.2036 -0.7145
 1022MOL0     C40908   7.099   4.765   5.855  0.5351 -0.5484 -0.1054
 1022MOL0     C40909   7.123   4.708   5.718 -0.0843 -0.3667  0.2670
 1022MOL0     C40910   7.275   4.691   5.693  0.6597 -0.2338 -0.7869
 1022MOL0     C40911   7.294   4.646   5.552  1.0102  0.0958 -0.0600
 1022MOL0     C40912   7.247   4.502   5.532  0.9006 -0.4455 -0.3759
 1022MOL0     C40913   7.295   4.447   5.404 -0.5751  0.9449 -0.0397
 1022MOL0     C40914   7.204   4.458   5.281  0.9852  1.1038  0.8341
 1022MOL0     N40915   7.276   4.394   5.162  0.4369 -0.0992 -0.5078
 1022MOL0     C40916   7.253   4.441   5.037  0.8339 -1.0091 -0.3319
 1022MOL0     C40917   7.339   4.367   4.961  0.0193  0.1358 -0.0539
 1022MOL0     C40918   7.364   4.387   4.814 -0.6633 -0.0899  0.7632
 1022MOL0     C40919   7.513   4.425   4.802  0.7447 -0.0582 -0.4550
 1022MOL0     C40920   7.543   4.506   4.674  0.7456 -0.6790 -0.1923
 1022MOL0     C40921   7.490   4.458   4.536  0.4541 -0.3262 -0.4124
 1022MOL0     O40922   7.536   4.323   4.514 -0.4990 -0.1333  0.2584
 1022MOL0     C40923   7.663   4.298   4.472 -0.1949  0.3853  0.1916
 1022MOL0     C40924   7.679   4.165   4.437 -0.5647  0.4447  0.0278
 1022MOL0     C40925   7.796   4.124   4.374  0.5714  0.2023 -0.6648
 1022MOL0     C40926   7.806   3.983   4.340  0.4159  0.5688 -0.5010
 1022MOL0     C40927   7.898   4.215   4.345 -0.6240 -0.1822  0.3254
 1022MOL0     C40928   8.038   4.182   4.280 -0.9113  0.2753 -0.5179
 1022MOL0     O40929   8.108   4.284   4.222 -0.1735  0.0766 -0.0328
 1022MOL0     C40930   8.239   4.272   4.190  0.2793 -0.0912  0.5063
 1022MOL0     C40931   8.276   4.285   4.054 -0.1844 -0.0159 -0.2752
 1022MOL0     C40932   8.408   4.287   4.018 -0.1758 -0.1518 -0.0996
 1022MOL0     C40933   8.510   4.287   4.110  0.8208 -0.9661 -0.6054
 1022MOL0     O40934   8.643   4.310   4.056 -0.2208  0.0061  0.2759
 1022MOL0     C40935   8.747   4.321   4.152  0.8158 -0.0696 -0.7341
 1022MOL0     C40936   8.871   4.321   4.069 -0.3522 -0.4601  0.2493
 1022MOL0     C40937   8.994   4.289   4.152  0.4258 -0.2588  0.4698
 1022MOL0     C40938   9.121   4.314   4.067 -0.1022 -0.6730 -0.3947
 1022MOL0     C40939   9.240   4.305   4.153  0.0139 -0.0461  0.6835
 1022MOL0     C40940   9.361   4.359   4.084 -0.7388  0.1491  0.1509
 1022MOL0     C40941   9.424   4.252   3.988  0.2446 -0.4391  0.0045
 1022MOL0     C40942   9.567   4.265   3.974 -0.3787  0.1364  0.3475
 1022MOL0    Cl40943   9.610   4.170   3.827  0.0866  0.4357  0.1220
 1022MOL0     C40944   8.470   4.275   4.252  0.3324  0.0340  0.0221
 1022MOL0     C40945   8.334   4.264   4.284 -0.0616  0.5250 -0.5288
 1022MOL0     O40946   8.078   4.065   4.284  0.1908 -0.2199  0.3245
 1022MOL0     C40947   7.883   4.346   4.389  0.2628 -0.2848  0.2907
 1022MOL0     C40948   7.765   4.391   4.440  0.2649  0.3909 -0.7955
 1022MOL0     N40949   7.408   4.279   5.041  0.4367 -0.2232  0.3910
 1022MOL0     N40950   7.378   4.312   5.166 -1.0707  0.2122 -0.6052
 1022MOL0     C40951   7.083   4.784   6.288 -0.4116  0.7143 -0.5524
 1022MOL0     C40952   6.985   4.826   6.378 -0.2297 -1.0653  0.1033
 1022MOL0     C40953   6.552   4.893   6.578  0.9565  0.3284 -0.7330
 1022MOL0     C40954   6.630   4.944   6.686  1.0708 -1.2453  0.5616
 1022MOL0     C40955   6.574   5.004   6.799 -0.8349  0.4474  0.1160
 1022MOL0     C40956   6.435   5.006   6.817  0.4979 -0.7180  0.3856
 1022MOL0     O40957   6.392   5.078   6.929  0.0161 -0.0839 -0.2299
 1022MOL0     C40958   6.250   5.129   6.938  0.3629  0.1892 -0.0577
 1022MOL0     C40959   6.256   5.255   7.024 -0.2254 -0.7615  0.4258
 1022MOL0     C40960   6.110   5.316   7.026 -0.1747 -0.5354 -0.6173
 1022MOL0     C40961   6.013   5.259   7.133  0.2572 -0.2873 -0.1005
 1022MOL0     C40962   5.905   5.354   7.169 -0.0543  1.3078  0.1943
 1022MOL0     C40963   5.813   5.426   7.202  0.3696 -0.0284 -0.2017
 1022MOL0     C40964   6.353   4.960   6.710  0.1270 -0.4368  0.0513
 1022MOL0     C40965   6.412   4.902   6.593 -0.6359 -0.3797 -0.1191
 1022MOL0     C40966   6.318   4.848   6.490  0.3478 -0.1558  0.3876
 1022MOL0     H40967   6.704   4.708   6.255  0.1534  0.0974 -0.4212
 1022MOL0     H40968   6.872   4.616   6.086  2.2644  0.2014 -1.0430
 1022MOL0     H40969   7.023   4.575   5.964  0.8730  0.0893 -1.0052
 1022MOL0     H40970   7.190   4.587   5.922  2.0037  1.4659  0.0108
 1022MOL0     H40971   7.001   4.809   5.870  0.3964 -1.0874  0.6821
 1022MOL0     H40972   7.176   4.836   5.887 -0.1765  0.8138 -1.3147
 1022MOL0     H40973   7.071   4.612   5.715  0.3511 -0.6493 -3.9708
 1022MOL0     H40974   7.079   4.775   5.643  0.7602  1.1665  1.0906
 1022MOL0     H40975   7.336   4.780   5.705 -0.9485  0.7868  0.1720
 1022MOL0     H40976   7.322   4.620   5.762  2.3165  1.7155  0.1775
 1022MOL0     H40977   7.400   4.655   5.527  1.3043  0.5144  1.2596
 1022MOL0     H40978   7.236   4.715   5.490 -2.5028 -0.4924  2.3013
 1022MOL0     H40979   7.292   4.438   5.609 -0.7181 -3.3071 -1.6338
 1022MOL0     H40980   7.138   4.492   5.533  0.9956 -1.8045  1.7116
 1022MOL0     H40981   7.315   4.341   5.421 -0.0812  1.4177  2.9661
 1022MOL0     H40982   7.390   4.490   5.373 -0.8165  2.0915  0.7573
 1022MOL0     H40983   7.117   4.392   5.292  1.3240  0.3599 -0.5951
 1022MOL0     H40984   7.165   4.560   5.273 -1.2725  0.1725 -2.0978
 1022MOL0     H40985   7.178   4.515   5.009  1.5041 -0.6388 -1.1901
 1022MOL0     H40986   7.308   4.467   4.766 -0.5536  0.1824  1.0847
 1022MOL0     H40987   7.355   4.293   4.758 -0.7101 -0.4961  1.4373
 1022MOL0     H40988   7.546   4.484   4.888 -2.2800  4.3113 -1.9350
 1022MOL0     H40989   7.577   4.338   4.788 -0.0798 -0.2899 -3.5208
 1022MOL0     H40990   7.522   4.612   4.692 -0.8967 -1.0228  0.1470
 1022MOL0     H40991   7.651   4.494   4.668  0.4248 -4.0937 -1.0292
 1022MOL0     H40992   7.380   4.457   4.531  0.4803  1.0955 -3.0702
 1022MOL0     H40993   7.508   4.535   4.460 -1.9578  0.1366 -0.6233
 1022MOL0     H40994   7.605   4.089   4.463  0.2977 -0.3533  0.2125
 1022MOL0     H40995   7.841   3.982   4.237 -0.3228  1.3890 -0.7820
 1022MOL0     H40996   7.712   3.929   4.355  0.5465  0.9670  2.5017
 1022MOL0     H40997   7.869   3.941   4.419 -1.6944 -0.4805  0.7289
 1022MOL0     H40998   8.192   4.281   3.985 -0.6236  0.0874  0.2432
 1022MOL0     H40999   8.418   4.296   3.910 -1.4421  0.9080 -0.1579
 1022MOL0     H41000   8.739   4.411   4.214 -1.0063 -0.3950 -0.4233
 1022MOL0     H41001   8.745   4.240   4.227 -1.8606  1.3987  0.9792
 1022MOL0     H41002   8.860   4.239   3.997  0.7769  0.8697 -1.5127
 1022MOL0     H41003   8.872   4.421   4.023  1.6560 -0.2055  0.7579
 1022MOL0     H41004   8.977   4.194   4.203 -3.7785  0.5188  0.9098
 1022MOL0     H41005   8.998   4.361   4.234  1.5202 -2.6404  2.6633
 1022MOL0     H41006   9.115   4.412   4.019  0.1463 -0.0602  0.7774
 1022MOL0     H41007   9.126   4.242   3.984  2.4022  0.1108 -1.0043
 1022MOL0     H41008   9.220   4.377   4.233 -2.4627  0.6737 -0.4473
 1022MOL0     H41009   9.248   4.202   4.189 -1.9638 -1.8598 -3.3327
 1022MOL0     H41010   9.433   4.391   4.160  0.3153  3.5618 -2.0537
 1022MOL0     H41011   9.333   4.451   4.031  0.4213  0.4282 -0.0064
 1022MOL0     H41012   9.367   4.259   3.895 -2.6509  2.1277  1.7498
 1022MOL0     H41013   9.402   4.150   4.020  2.3274 -0.3938  1.8605
 1022MOL0     H41014   9.618   4.216   4.057  1.2425 -2.3418 -1.9337
 1022MOL0     H41015   9.589   4.371   3.965 -3.7395  0.9594  0.4918
 1022MOL0     H41016   8.552   4.276   4.323 -0.4369  2.7881  0.9744
 1022MOL0     H41017   8.296   4.255   4.385  2.3908  0.4455  0.4513
 1022MOL0     H41018   7.961   4.418   4.369 -1.4067  1.9229  1.3295
 1022MOL0     H41019   7.748   4.498   4.448 -0.5728  0.3365 -1.6407
 1022MOL0     H41020   7.187   4.803   6.312  0.1005 -0.0465 -2.0261
 1022MOL0     H41021   7.020   4.880   6.466 -2.2380 -0.7623  0.7532
 1022MOL0     H41022   6.738   4.939   6.678  1.1846  1.7670 -1.7816
 1022MOL0     H41023   6.636   5.048   6.875 -2.0282 -0.3604  1.6040
 1022MOL0     H41024   6.206   5.156   6.842 -1.1051  2.8310  1.2700
 1022MOL0     H41025   6.180   5.059   6.984 -0.5060  1.3185  0.3802
 1022MOL0     H41026   6.325   5.327   6.979 -1.2447  0.6507  1.0359
 1022MOL0     H41027   6.295   5.240   7.125  1.2123 -0.2708 -0.0327
 1022MOL0     H41028   6.125   5.424   7.031 -2.2967 -0.0529 -2.6709
 1022MOL0     H41029   6.075   5.305   6.923  0.9766 -1.6416 -0.9160
 1022MOL0     H41030   6.064   5.227   7.224 -1.7818  0.4208  1.3622
 1022MOL0     H41031   5.973   5.168   7.088 -1.2863  0.3736 -0.1197
 1022MOL0     H41032   5.739   5.498   7.229 -0.2662  0.2996 -2.6345
 1022MOL0     H41033   6.246   4.975   6.726  0.1971  0.8658 -0.5435
 1022MOL0     H41034   6.310   4.739   6.495  0.2533 -0.1430  0.4952
 1022MOL0     H41035   6.216   4.876   6.513  0.5299  0.1441  0.8302
 1022MOL0     H41036   6.353   4.894   6.397 -0.0776  1.1773  0.8656
 1023MOL0     O41037   9.826   5.494   7.614  0.2957  0.2399  1.0462
 1023MOL0     C41038   9.775   5.403   7.550  0.2972  0.2303 -0.3624
 1023MOL0     O41039   9.833   5.352   7.441 -0.4433 -0.1377  0.6101
 1023MOL0     C41040   9.960   5.402   7.405  0.7660 -0.2512 -1.0346
 1023MOL0     C41041  10.077   5.381   7.487  0.7078  0.6191 -0.5168
 1023MOL0     C41042  10.200   5.413   7.429  0.5661 -0.9196 -0.0853
 1023MOL0     C41043  10.212   5.474   7.302 -0.1306  0.2271  0.3074
 1023MOL0     O41044  10.333   5.496   7.240  0.2497  0.1338 -0.3311
 1023MOL0     C41045  10.417   5.582   7.315 -0.4986  0.0110  0.5536
 1023MOL0     C41046  10.551   5.590   7.244 -0.0691 -0.0946  0.5739
 1023MOL0     C41047  10.654   5.687   7.313  0.2564  0.4157  0.3167
 1023MOL0     C41048  10.794   5.659   7.252 -0.1211  0.3690 -0.3532
 1023MOL0     C41049  10.903   5.762   7.293  0.4823 -0.1883 -0.6902
 1023MOL0     C41050  11.022   5.765   7.197  0.3543  0.0947 -0.6121
 1023MOL0     C41051  11.135   5.856   7.242 -0.7777 -0.3757  0.4951
 1023MOL0     C41052  11.184   5.845   7.381  0.4548  0.1893 -0.6222
 1023MOL0     N41053  11.290   5.944   7.394  0.0577 -0.0839 -0.4234
 1023MOL0     C41054  11.274   6.077   7.383 -1.0182 -0.3976 -0.6625
 1023MOL0     C41055  11.392   6.119   7.437  0.6487  0.7269  0.2114
 1023MOL0     C41056  11.427   6.271   7.456  0.2705  0.5162  0.1445
 1023MOL0     C41057  11.569   6.307   7.474  0.0324 -0.5382  0.7769
 1023MOL0     C41058  11.663   6.276   7.355  0.9243  0.5047 -0.2837
 1023MOL0     C41059  11.805   6.315   7.388 -0.7306 -1.0593  1.1399
 1023MOL0     O41060  11.868   6.243   7.492 -0.0050  0.5041 -0.2704
 1023MOL0     C41061  11.923   6.122   7.473 -0.3181 -0.5485 -0.8424
 1023MOL0     C41062  11.850   6.017   7.525 -0.1547  1.0602 -0.0662
 1023MOL0     C41063  11.905   5.891   7.520 -0.0648  0.1807  1.0171
 1023MOL0     C41064  11.809   5.777   7.569 -0.6330  0.7525  0.1879
 1023MOL0     C41065  12.042   5.873   7.463  0.9039  0.3984 -0.3109
 1023MOL0     C41066  12.114   5.748   7.445 -0.1585 -0.2703  0.5793
 1023MOL0     O41067  12.218   5.751   7.349  0.2347 -0.0942 -0.5261
 1023MOL0     C41068  12.257   5.631   7.308  0.5506  0.9540  0.0101
 1023MOL0     C41069  12.317   5.539   7.396  0.5160  0.4398 -0.5391
 1023MOL0     C41070  12.376   5.424   7.338 -0.8731 -0.2658 -0.5410
 1023MOL0     C41071  12.374   5.389   7.196 -0.2849  0.6998  0.4489
 1023MOL0     O41072  12.438   5.282   7.132  0.8252  0.0902 -0.6151
 1023MOL0     C41073  12.532   5.199   7.200 -0.8329  1.2783  0.3487
 1023MOL0     C41074  12.610   5.113   7.107 -0.0889 -0.5973 -0.0423
 1023MOL0     C41075  12.695   5.179   6.997 -0.2184  0.8040  0.1248
 1023MOL0     C41076  12.754   5.071   6.915  1.0965  0.3962 -0.4188
 1023MOL0     C41077  12.825   5.118   6.786 -0.4908  0.5162 -0.7005
 1023MOL0     C41078  12.902   5.018   6.701 -0.3284  0.2561 -0.0390
 1023MOL0     C41079  13.043   4.992   6.757  0.7036 -0.3387  0.7196
 1023MOL0     C41080  13.136   4.933   6.643  0.1393 -1.0387  0.0019
 1023MOL0    Cl41081  13.274   4.869   6.727 -0.2608 -0.0605 -0.4379
 1023MOL0     C41082  12.304   5.479   7.114  0.1843 -0.2946 -0.2221
 1023MOL0     C41083  12.237   5.589   7.171  0.3177 -0.3562  0.1017
 1023MOL0     O41084  12.068   5.653   7.504 -0.6727  0.3849 -0.6062
 1023MOL0     C41085  12.114   5.985   7.423 -0.3422 -0.0837  0.5533
 1023MOL0     C41086  12.052   6.111   7.425  0.1086  0.4052 -0.6276
 1023MOL0     N41087  11.478   6.007   7.462 -0.0805 -0.4793  0.6225
 1023MOL0     N41088  11.408   5.901   7.441  0.8433 -0.0855 -0.4038
 1023MOL0     C41089  10.100   5.484   7.226  0.0641  0.2898 -0.6591
 1023MOL0     C41090   9.975   5.447   7.278  0.1943 -0.4308  0.1561
 1023MOL0     C41091   9.636   5.365   7.594 -0.8240  0.8924 -0.3090
 1023MOL0     C41092   9.601   5.367   7.731 -1.0001  0.0673 -0.3301
 1023MOL0     C41093   9.497   5.296   7.785 -0.6860  0.1806  0.4273
 1023MOL0     C41094   9.419   5.213   7.697  0.0741  0.2193  0.2674
 1023MOL0     O41095   9.320   5.151   7.768  0.3556 -0.3905  0.1986
 1023MOL0     C41096   9.215   5.089   7.687 -0.5696  0.4568  0.2867
 1023MOL0     C41097   9.127   5.000   7.785  0.0088 -0.2208  0.0458
 1023MOL0     C41098   9.106   5.079   7.918  0.8397  0.7083 -0.6066
 1023MOL0     C41099   8.983   5.030   7.995 -0.6551  0.5032 -0.2030
 1023MOL0     C41100   8.999   5.079   8.129  0.2508  0.6507  0.2356
 1023MOL0     C41101   9.005   5.115   8.241 -0.4199 -0.1176 -0.6840
 1023MOL0     C41102   9.448   5.214   7.563 -0.4515 -0.0656  0.8276
 1023MOL0     C41103   9.550   5.293   7.508  0.2356  0.5553 -0.2641
 1023MOL0     C41104   9.568   5.298   7.359 -0.1287 -0.2079  0.3461
 1023MOL0     H41105  10.056   5.340   7.585 -0.5775  0.6533 -0.7606
 1023MOL0     H41106  10.290   5.396   7.487 -0.1440 -0.1991  1.2656
 1023MOL0     H41107  10.434   5.545   7.416 -0.4065 -0.0813  0.5039
 1023MOL0     H41108  10.386   5.687   7.306 -0.9330 -0.2718 -2.0181
 1023MOL0     H41109  10.594   5.489   7.246  0.1930 -0.0634  4.7871
 1023MOL0     H41110  10.539   5.627   7.142 -0.7267 -2.2122 -0.1862
 1023MOL0     H41111  10.630   5.792   7.294  0.6709  0.0457 -2.8204
 1023MOL0     H41112  10.658   5.684   7.422 -1.5948  0.8459  0.4433
 1023MOL0     H41113  10.825   5.556   7.270  0.5590  0.4700 -0.9178
 1023MOL0     H41114  10.785   5.669   7.144  3.0259 -0.0508 -0.7551
 1023MOL0     H41115  10.935   5.740   7.395 -1.1366 -0.4727 -0.2041
 1023MOL0     H41116  10.851   5.859   7.288 -2.2456 -1.5416 -0.5742
 1023MOL0     H41117  11.071   5.667   7.202 -0.0989 -0.0850  2.4681
 1023MOL0     H41118  10.987   5.794   7.097  1.8977 -0.0739 -1.2206
 1023MOL0     H41119  11.100   5.959   7.229 -2.2287 -0.3988  3.3917
 1023MOL0     H41120  11.217   5.844   7.170 -1.7776  1.6641 -1.1070
 1023MOL0     H41121  11.096   5.858   7.445 -0.3014  0.7798 -1.7435
 1023MOL0     H41122  11.229   5.746   7.389  0.3325  0.0891 -1.0980
 1023MOL0     H41123  11.195   6.138   7.340  0.4095  1.0792 -1.3040
 1023MOL0     H41124  11.367   6.320   7.533  0.7121 -0.9961  1.5072
 1023MOL0     H41125  11.404   6.324   7.363  3.6951  0.3279 -0.9328
 1023MOL0     H41126  11.576   6.416   7.481 -0.8422 -0.4911  0.9449
 1023MOL0     H41127  11.608   6.271   7.569 -1.8919 -2.5881  0.8737
 1023MOL0     H41128  11.654   6.169   7.336 -0.1333  0.8438 -1.9011
 1023MOL0     H41129  11.624   6.328   7.267 -2.6662 -2.8754 -0.9730
 1023MOL0     H41130  11.863   6.304   7.296  1.4462  3.3543  1.7500
 1023MOL0     H41131  11.813   6.420   7.417  1.0639 -1.6073  2.8781
 1023MOL0     H41132  11.749   6.044   7.553  0.0452  1.7391  0.0111
 1023MOL0     H41133  11.862   5.706   7.633 -1.1066  1.7452  1.7368
 1023MOL0     H41134  11.767   5.725   7.483  0.1340  2.1412 -1.0711
 1023MOL0     H41135  11.723   5.809   7.629 -1.0965 -0.4317  0.1934
 1023MOL0     H41136  12.328   5.551   7.503  0.4042 -1.9015 -0.2309
 1023MOL0     H41137  12.444   5.365   7.399 -0.7141 -1.7605 -2.1018
 1023MOL0     H41138  12.605   5.254   7.259  2.2307 -1.8179 -0.2565
 1023MOL0     H41139  12.480   5.137   7.274  2.4290  1.0684  2.6463
 1023MOL0     H41140  12.679   5.061   7.174  1.5025  0.5629 -0.6950
 1023MOL0     H41141  12.535   5.045   7.065  1.7768 -0.8096 -3.4148
 1023MOL0     H41142  12.766   5.246   7.046  1.7697 -0.5083 -0.8586
 1023MOL0     H41143  12.622   5.229   6.932 -0.3096  1.6388  0.8452
 1023MOL0     H41144  12.675   5.001   6.889  2.0870 -0.6710 -0.6196
 1023MOL0     H41145  12.824   5.021   6.983 -0.6669  0.8323  1.8481
 1023MOL0     H41146  12.752   5.160   6.717  0.8600 -1.0153 -3.2271
 1023MOL0     H41147  12.893   5.197   6.816 -1.0997  0.5344  0.7640
 1023MOL0     H41148  12.907   5.060   6.600  1.0683 -2.2527 -1.0905
 1023MOL0     H41149  12.839   4.929   6.690  0.8312 -0.7911  1.4588
 1023MOL0     H41150  13.043   4.920   6.839 -1.6623  0.9065  1.9112
 1023MOL0     H41151  13.077   5.089   6.796 -2.1897  0.8216  0.6153
 1023MOL0     H41152  13.173   5.004   6.569 -0.8802 -0.6180 -0.1321
 1023MOL0     H41153  13.081   4.859   6.583 -1.7809 -1.0875  1.7224
 1023MOL0     H41154  12.303   5.451   7.009  0.7637 -1.3302  0.0381
 1023MOL0     H41155  12.185   5.652   7.100 -1.2666 -1.2582  0.4109
 1023MOL0     H41156  12.218   5.977   7.393 -0.4273 -1.1437  0.4866
 1023MOL0     H41157  12.102   6.204   7.397 -0.2988  0.3080 -1.7380
 1023MOL0     H41158  10.098   5.537   7.131 -2.0951 -0.4795 -1.1098
 1023MOL0     H41159   9.888   5.449   7.214 -0.5620  0.3729  1.1730
 1023MOL0     H41160   9.660   5.429   7.798 -2.0179  1.3356 -0.5578
 1023MOL0     H41161   9.479   5.306   7.891  0.1341  1.3436  0.4846
 1023MOL0     H41162   9.142   5.159   7.645  0.3128  1.1645 -0.0929
 1023MOL0     H41163   9.265   5.032   7.608  0.7806  2.9993 -0.8117
 1023MOL0     H41164   9.174   4.904   7.808 -1.2454 -0.7843  0.3902
 1023MOL0     H41165   9.038   4.976   7.725  1.0403 -0.4983 -1.4090
 1023MOL0     H41166   9.199   5.070   7.976  0.7896  3.9808  0.1608
 1023MOL0     H41167   9.103   5.188   7.914 -0.0673  0.8200  1.7596
 1023MOL0     H41168   8.986   4.921   7.987 -1.2257  0.4698 -0.0321
 1023MOL0     H41169   8.882   5.049   7.956 -0.6404 -0.6490 -0.8452
 1023MOL0     H41170   8.994   5.153   8.341  0.0661  1.6876 -1.2839
 1023MOL0     H41171   9.376   5.157   7.505  0.6856 -1.9477  1.2106
 1023MOL0     H41172   9.586   5.401   7.325 -3.2676  0.0725 -0.8226
 1023MOL0     H41173   9.652   5.238   7.326  0.4870  0.5426  0.5152
 1023MOL0     H41174   9.480   5.263   7.303  1.8448 -3.0178 -1.2405
 1024MOL0     O41175   2.286   3.051  11.372 -0.0025  0.4144 -0.1353
 1024MOL0     C41176   2.258   2.936  11.414  0.1906 -0.1053  0.1973
 1024MOL0     O41177   2.346   2.838  11.465  0.5335  1.0328 -0.1360
 1024MOL0     C41178   2.479   2.857  11.480  0.6993 -0.5054  0.5494
 1024MOL0     C41179   2.575   2.801  11.394 -0.3492 -0.4699 -0.5435
 1024MOL0     C41180   2.708   2.828  11.416  0.3862 -0.2741  0.7934
 1024MOL0     C41181   2.748   2.931  11.507  0.4057  0.1853  0.4404
 1024MOL0     O41182   2.882   2.953  11.519 -0.5209 -0.0546 -0.3042
 1024MOL0     C41183   2.935   2.927  11.648 -0.6633 -0.5218  0.1985
 1024MOL0     C41184   3.072   2.997  11.659  0.3959 -0.5532  0.8083
 1024MOL0     C41185   3.060   3.144  11.694  0.1154 -1.0554 -0.7668
 1024MOL0     C41186   2.973   3.235  11.603  0.2568 -0.1271 -0.3704
 1024MOL0     C41187   2.960   3.383  11.660 -1.2419  0.3422 -0.1742
 1024MOL0     C41188   3.096   3.464  11.646 -0.1710 -0.3252  0.1254
 1024MOL0     C41189   3.083   3.603  11.703 -0.4095  0.7155  0.5993
 1024MOL0     C41190   3.002   3.704  11.616 -0.3847 -0.0239  0.0681
 1024MOL0     N41191   3.044   3.704  11.478 -0.4931  0.8720  0.5151
 1024MOL0     C41192   2.975   3.669  11.369  0.2855  0.6786  0.1161
 1024MOL0     C41193   3.017   3.739  11.268 -0.3521  0.9167  0.7504
 1024MOL0     C41194   2.978   3.711  11.130 -0.0821  0.8093  0.7932
 1024MOL0     C41195   3.040   3.802  11.026  0.8055  0.7292 -0.9452
 1024MOL0     C41196   3.180   3.765  10.984  1.7543  0.1481 -0.8272
 1024MOL0     C41197   3.218   3.876  10.872 -0.0183 -0.4215 -0.2812
 1024MOL0     O41198   3.328   3.818  10.794 -0.0414 -0.1310 -0.1136
 1024MOL0     C41199   3.456   3.795  10.844  0.5486 -0.1008 -0.2541
 1024MOL0     C41200   3.506   3.845  10.963  0.3987 -0.4775 -0.2494
 1024MOL0     C41201   3.643   3.827  11.001 -0.3601  0.0419  0.1269
 1024MOL0     C41202   3.703   3.886  11.132 -0.5202 -0.6390 -0.0408
 1024MOL0     C41203   3.733   3.764  10.904  1.5727 -0.1675  0.2139
 1024MOL0     C41204   3.879   3.739  10.923  0.7839  0.2256  1.0433
 1024MOL0     O41205   3.940   3.684  10.814 -0.3814 -0.1970 -0.5813
 1024MOL0     C41206   4.077   3.656  10.818 -0.4850  0.2359  0.1900
 1024MOL0     C41207   4.168   3.740  10.745  0.3241  0.3189  0.9171
 1024MOL0     C41208   4.307   3.705  10.748  0.7345  0.3571 -0.5536
 1024MOL0     C41209   4.352   3.589  10.818  0.8772 -0.9400  0.0131
 1024MOL0     O41210   4.488   3.568  10.814 -0.0302  0.4191 -0.1236
 1024MOL0     C41211   4.537   3.534  10.948  0.4728 -0.2488  0.6415
 1024MOL0     C41212   4.689   3.538  10.952  0.9617 -0.7551 -0.0184
 1024MOL0     C41213   4.760   3.674  10.950 -0.0378  0.2557  0.3185
 1024MOL0     C41214   4.734   3.772  11.073  0.0744 -0.0994 -0.8617
 1024MOL0     C41215   4.848   3.876  11.076  0.4141 -1.1233  0.3708
 1024MOL0     C41216   4.854   3.962  11.199 -0.2995  0.0881  0.4640
 1024MOL0     C41217   4.924   4.094  11.169 -0.1455 -0.7321  0.0229
 1024MOL0     C41218   4.904   4.195  11.283  0.1067  0.5619  0.7639
 1024MOL0    Cl41219   4.941   4.129  11.439 -0.1359 -0.1349  0.4611
 1024MOL0     C41220   4.260   3.508  10.887 -0.0738  0.8651 -0.4955
 1024MOL0     C41221   4.122   3.535  10.884 -0.8067 -0.6443  0.1277
 1024MOL0     O41222   3.930   3.770  11.030 -0.1954 -0.3892  0.1197
 1024MOL0     C41223   3.676   3.718  10.789  0.1146 -0.8805  0.1890
 1024MOL0     C41224   3.544   3.738  10.758 -0.4180 -0.3805 -1.0409
 1024MOL0     N41225   3.112   3.834  11.320  0.4634  0.2492  0.1846
 1024MOL0     N41226   3.128   3.803  11.444 -0.7873 -1.1340  0.1444
 1024MOL0     C41227   2.650   2.992  11.587  0.1845  0.7355 -0.0323
 1024MOL0     C41228   2.517   2.954  11.576 -0.5396  0.1671 -0.0555
 1024MOL0     C41229   2.117   2.896  11.419  0.3425 -0.5887 -0.4522
 1024MOL0     C41230   2.022   2.995  11.383  0.1188 -0.8396 -0.6895
 1024MOL0     C41231   1.888   2.968  11.391  0.4450  0.3472  0.2258
 1024MOL0     C41232   1.843   2.837  11.420 -0.6018 -0.3002 -0.2547
 1024MOL0     O41233   1.710   2.816  11.424 -0.2826  0.1333  0.2320
 1024MOL0     C41234   1.671   2.677  11.445 -0.2286 -0.3226 -0.2681
 1024MOL0     C41235   1.519   2.665  11.445 -0.3135  0.1685 -0.3315
 1024MOL0     C41236   1.478   2.695  11.294 -0.4641  0.2926  0.0868
 1024MOL0     C41237   1.329   2.661  11.262 -0.2620 -0.5294 -0.3990
 1024MOL0     C41238   1.233   2.731  11.353  0.4182 -0.2608 -0.0340
 1024MOL0     C41239   1.152   2.795  11.421 -0.0747  0.1637  0.1922
 1024MOL0     C41240   1.939   2.748  11.455  0.3589 -0.7256 -0.5194
 1024MOL0     C41241   2.070   2.770  11.462  0.2128  0.4809 -0.0490
 1024MOL0     C41242   2.159   2.651  11.493  0.1878  0.8062 -0.8846
 1024MOL0     H41243   2.542   2.739  11.311 -2.3344  0.6695 -0.6664
 1024MOL0     H41244   2.787   2.778  11.361 -1.2702  0.2553 -2.3526
 1024MOL0     H41245   2.953   2.819  11.643  1.7416 -0.1689 -0.0921
 1024MOL0     H41246   2.864   2.957  11.726  0.4898  0.8095  0.7830
 1024MOL0     H41247   3.139   2.957  11.736  0.4012 -2.3766 -0.0974
 1024MOL0     H41248   3.126   2.978  11.566  0.4211  1.9835  0.2424
 1024MOL0     H41249   3.022   3.158  11.796  1.1964  2.7831 -0.7220
 1024MOL0     H41250   3.165   3.174  11.690 -1.0674  3.7822 -1.2079
 1024MOL0     H41251   3.022   3.250  11.506  1.4482  0.6508  0.3195
 1024MOL0     H41252   2.874   3.193  11.586 -0.2078  1.4045 -1.7281
 1024MOL0     H41253   2.920   3.386  11.761 -0.8294 -2.9527  0.1821
 1024MOL0     H41254   2.891   3.437  11.594 -1.4585  1.3668  0.8529
 1024MOL0     H41255   3.166   3.404  11.705  0.2166 -0.3070 -0.3116
 1024MOL0     H41256   3.129   3.474  11.542  2.0474  0.8085  0.8680
 1024MOL0     H41257   3.187   3.633  11.721  1.1185 -1.2779 -3.5598
 1024MOL0     H41258   3.041   3.604  11.804  0.1582  1.2597  0.8370
 1024MOL0     H41259   2.895   3.682  11.616 -0.8044  1.5862 -2.7095
 1024MOL0     H41260   3.008   3.807  11.653 -2.6667  1.8596 -4.0665
 1024MOL0     H41261   2.899   3.591  11.372 -2.2887  2.9645 -0.7941
 1024MOL0     H41262   2.870   3.729  11.134 -0.9996 -3.6060  2.6076
 1024MOL0     H41263   2.995   3.606  11.103 -1.3964  1.4214 -2.8639
 1024MOL0     H41264   2.980   3.805  10.935 -0.6467  2.3132  0.0269
 1024MOL0     H41265   3.046   3.901  11.071 -0.4264  1.4265 -2.2241
 1024MOL0     H41266   3.251   3.762  11.067 -0.0095 -1.7343  0.7079
 1024MOL0     H41267   3.171   3.665  10.942 -4.1588 -1.7283  3.6304
 1024MOL0     H41268   3.135   3.885  10.802  1.2982  0.4381 -1.7978
 1024MOL0     H41269   3.244   3.968  10.925 -0.6144 -0.4051 -0.0159
 1024MOL0     H41270   3.452   3.901  11.038  0.8071 -0.2788 -0.1010
 1024MOL0     H41271   3.789   3.945  11.099 -0.3062 -0.8312  0.1673
 1024MOL0     H41272   3.731   3.803  11.198 -2.9959 -0.6120  1.1699
 1024MOL0     H41273   3.636   3.948  11.194 -0.0712  0.1902 -0.3695
 1024MOL0     H41274   4.114   3.822  10.697 -0.7811 -0.3781  0.9274
 1024MOL0     H41275   4.377   3.773  10.701  1.5201  0.2705  0.4642
 1024MOL0     H41276   4.488   3.592  11.027 -0.9704  0.0333 -0.4253
 1024MOL0     H41277   4.503   3.430  10.951 -0.9719 -0.0024 -2.6681
 1024MOL0     H41278   4.712   3.489  11.047 -1.2172 -1.8604  0.0143
 1024MOL0     H41279   4.731   3.466  10.880  0.7463 -0.3340 -0.5698
 1024MOL0     H41280   4.719   3.729  10.864  0.1375  1.7491  1.1470
 1024MOL0     H41281   4.868   3.659  10.941  0.0267 -0.2510  1.7861
 1024MOL0     H41282   4.734   3.714  11.165  0.7793  0.3198 -0.5925
 1024MOL0     H41283   4.639   3.826  11.070  1.0014  1.7085  0.2781
 1024MOL0     H41284   4.939   3.820  11.051 -0.4505 -1.3391 -2.7961
 1024MOL0     H41285   4.827   3.935  10.986  2.7963 -0.8492 -0.0652
 1024MOL0     H41286   4.914   3.910  11.274  2.5663  0.2561 -1.5834
 1024MOL0     H41287   4.752   3.978  11.238  0.3796 -2.4395  3.7471
 1024MOL0     H41288   4.875   4.130  11.078 -2.1279  2.8076  2.2311
 1024MOL0     H41289   5.033   4.082  11.162 -0.2132 -0.6362 -1.5462
 1024MOL0     H41290   4.805   4.241  11.288  0.6765  1.7415  1.6475
 1024MOL0     H41291   4.959   4.289  11.268 -2.1725  1.8481  0.0169
 1024MOL0     H41292   4.283   3.418  10.942 -1.4911  0.5766 -0.3271
 1024MOL0     H41293   4.039   3.488  10.935 -1.3426  0.3299  0.1838
 1024MOL0     H41294   3.726   3.660  10.711  1.8875 -0.6935  1.1289
 1024MOL0     H41295   3.498   3.712  10.663  0.2510  0.2120 -1.5397
 1024MOL0     H41296   2.678   3.065  11.663  0.6381 -0.2891  0.8028
 1024MOL0     H41297   2.457   3.011  11.647 -1.4432  1.1440 -1.5481
 1024MOL0     H41298   2.049   3.091  11.341  0.1908 -1.8084 -3.0093
 1024MOL0     H41299   1.818   3.044  11.358 -2.7452 -2.4950 -0.1492
 1024MOL0     H41300   1.714   2.611  11.369  2.9301  1.2840 -0.0012
 1024MOL0     H41301   1.699   2.634  11.542 -0.5177 -1.3303 -0.6153
 1024MOL0     H41302   1.474   2.741  11.510 -0.7971  0.1510 -0.6441
 1024MOL0     H41303   1.483   2.566  11.475  0.6228  0.5671  2.3671
 1024MOL0     H41304   1.495   2.801  11.270  1.0309 -0.0020 -0.2486
 1024MOL0     H41305   1.546   2.650  11.222 -0.2130  0.5911  0.1324
 1024MOL0     H41306   1.328   2.552  11.265  1.4222 -0.7027 -2.9693
 1024MOL0     H41307   1.306   2.690  11.159  0.8491 -2.7617 -1.3451
 1024MOL0     H41308   1.086   2.842  11.490  0.6681  1.0893  0.2809
 1024MOL0     H41309   1.911   2.648  11.486  0.5682 -0.3239  1.0395
 1024MOL0     H41310   2.234   2.627  11.417  2.0621 -0.7075  1.3270
 1024MOL0     H41311   2.204   2.681  11.588 -1.1418 -0.0774  0.0642
 1024MOL0     H41312   2.101   2.560  11.513  0.4230  1.2216  2.0950
  11.41062  11.41062  11.41062
